FOO
141312
    1MOL0     O    1   2.450   6.785   4.232 -0.3421  0.1688  0.5837
    1MOL0     C    2   2.436   6.694   4.147 -1.0219 -0.2733 -0.4175
    1MOL0     O    3   2.546   6.631   4.095 -0.1688 -0.2215  0.0868
    1MOL0     C    4   2.683   6.658   4.114 -0.4374  0.2171  0.1145
    1MOL0     C    5   2.779   6.645   4.007 -0.3938  0.2558 -1.2085
    1MOL0     C    6   2.916   6.659   4.026 -0.6727 -0.1724  0.4323
    1MOL0     C    7   2.966   6.693   4.154 -0.1370  0.1533  0.0314
    1MOL0     O    8   3.100   6.692   4.198 -0.8268  0.3173  0.1890
    1MOL0     C    9   3.187   6.617   4.113 -0.1710 -0.0764 -0.1926
    1MOL0     C   10   3.312   6.560   4.175  0.2685 -0.4144  0.5967
    1MOL0     C   11   3.409   6.676   4.190  0.3692 -0.2306 -1.1869
    1MOL0     C   12   3.540   6.613   4.240 -0.1012  0.2790  0.8006
    1MOL0     C   13   3.644   6.716   4.293 -0.3198 -0.1898 -0.3585
    1MOL0     C   14   3.711   6.789   4.174  0.0041 -0.5208  0.7538
    1MOL0     C   15   3.807   6.894   4.230  0.1959  0.3945  0.0003
    1MOL0     C   16   3.943   6.836   4.276 -0.5358 -0.3496  0.5336
    1MOL0     N   17   4.008   6.921   4.380  0.5628 -0.1316  0.2083
    1MOL0     C   18   4.119   6.992   4.343 -0.2940 -1.2633 -0.9689
    1MOL0     C   19   4.149   7.067   4.449  0.2054 -1.4012 -0.4839
    1MOL0     C   20   4.268   7.154   4.479  0.1372  0.1055 -0.1127
    1MOL0     C   21   4.398   7.067   4.504  0.7422  0.4702  0.3027
    1MOL0     C   22   4.394   6.974   4.616 -0.3385  0.0372 -0.6155
    1MOL0     C   23   4.402   7.064   4.739 -0.0025  0.9414  0.7059
    1MOL0     O   24   4.403   6.991   4.857 -1.0225  0.0240  0.0891
    1MOL0     C   25   4.528   6.972   4.907 -0.7497 -0.9439  0.5770
    1MOL0     C   26   4.629   7.069   4.924  0.4148  0.7292  0.3102
    1MOL0     C   27   4.754   7.039   4.975 -0.0734 -0.6640  0.8560
    1MOL0     C   28   4.832   7.155   5.004  0.0382 -0.0760  0.8086
    1MOL0     C   29   4.791   6.906   5.010 -0.4672 -0.2493 -0.5081
    1MOL0     C   30   4.926   6.869   5.060 -0.2892 -0.2304  0.3324
    1MOL0     O   31   5.006   6.961   5.129  0.6772 -0.0936  0.6774
    1MOL0     C   32   5.107   6.908   5.202 -0.0247 -0.3589 -0.3515
    1MOL0     C   33   5.072   6.824   5.309 -0.1872  0.3397 -0.1868
    1MOL0     C   34   5.176   6.768   5.375 -0.6610  0.7499 -0.1409
    1MOL0     C   35   5.317   6.794   5.359  0.7587 -0.3826  0.2662
    1MOL0     O   36   5.410   6.724   5.425  0.4028  0.2167 -0.0796
    1MOL0     C   37   5.545   6.772   5.437  0.4303  0.0411 -0.0055
    1MOL0     C   38   5.624   6.673   5.525 -0.0962  0.0858  0.4983
    1MOL0     C   39   5.773   6.706   5.528 -0.3973  0.4518 -0.0066
    1MOL0     C   40   5.797   6.856   5.572  0.4406  0.0791 -0.3872
    1MOL0     C   41   5.945   6.890   5.595 -0.3237  0.5349  0.2977
    1MOL0     C   42   6.052   6.817   5.496  0.3093 -0.2043 -0.2399
    1MOL0     C   43   6.195   6.865   5.522  0.2014  0.1392 -0.2978
    1MOL0     C   44   6.299   6.754   5.489  0.0978 -0.8865  0.5045
    1MOL0    Cl   45   6.272   6.711   5.319  0.6451  0.3416  0.0177
    1MOL0     C   46   5.342   6.890   5.250  0.7667  0.3266 -0.8293
    1MOL0     C   47   5.238   6.952   5.183 -0.1335 -0.0940 -0.1998
    1MOL0     O   48   4.953   6.749   5.048 -0.0342  0.2864  0.0227
    1MOL0     C   49   4.693   6.807   4.983  0.2750 -0.0363 -0.2387
    1MOL0     C   50   4.563   6.835   4.945 -0.3583 -0.0811 -0.4821
    1MOL0     N   51   4.056   7.039   4.551  0.3782  0.4161  0.1184
    1MOL0     N   52   3.967   6.957   4.499 -0.0595 -0.7357  0.2672
    1MOL0     C   53   2.871   6.711   4.252  0.3108 -0.7349  0.5487
    1MOL0     C   54   2.734   6.686   4.240  0.0446 -0.7244  0.4762
    1MOL0     C   55   2.303   6.651   4.100 -1.5407 -0.2145 -0.1254
    1MOL0     C   56   2.301   6.544   4.013 -0.4243 -0.4303 -0.2576
    1MOL0     C   57   2.177   6.495   3.954  0.2159  0.6226 -0.2956
    1MOL0     C   58   2.062   6.561   3.985 -0.2007  0.1741  0.1302
    1MOL0     O   59   1.956   6.506   3.911 -0.2823 -0.1142 -0.1279
    1MOL0     C   60   1.862   6.587   3.841  0.5310  0.9078 -0.0724
    1MOL0     C   61   1.909   6.607   3.698 -0.1940 -1.4580 -0.7240
    1MOL0     C   62   1.907   6.469   3.615  0.1135 -0.0104 -0.0271
    1MOL0     C   63   1.963   6.490   3.469  0.3202  0.8163 -0.0144
    1MOL0     C   64   2.105   6.520   3.480 -0.4017  0.5819  0.0936
    1MOL0     C   65   2.228   6.539   3.487 -0.1858 -0.3585 -0.2152
    1MOL0     C   66   2.061   6.670   4.069  0.2627 -0.6277 -0.1100
    1MOL0     C   67   2.179   6.714   4.134  0.5986 -0.4601 -1.0700
    1MOL0     C   68   2.145   6.816   4.252 -0.3924  0.4613  0.0873
    1MOL0     H   69   2.737   6.618   3.910  0.7683 -0.4351 -1.5401
    1MOL0     H   70   2.965   6.661   3.929  0.5996  0.8503  1.0665
    1MOL0     H   71   3.221   6.681   4.031 -0.6212  0.3095 -0.0801
    1MOL0     H   72   3.137   6.531   4.069 -1.1774  0.2083  0.3793
    1MOL0     H   73   3.282   6.523   4.273 -1.1458  2.7912  1.4962
    1MOL0     H   74   3.355   6.486   4.107  0.1037  0.2893 -0.2939
    1MOL0     H   75   3.434   6.720   4.094  0.0322 -0.2803 -1.3014
    1MOL0     H   76   3.359   6.748   4.255  1.1193 -1.3096  0.6654
    1MOL0     H   77   3.517   6.555   4.329  0.0361  2.6958  2.5196
    1MOL0     H   78   3.585   6.550   4.163  2.3262  0.1183  2.2607
    1MOL0     H   79   3.724   6.672   4.352 -0.6225 -3.4560 -2.1803
    1MOL0     H   80   3.602   6.792   4.360 -0.7546 -1.5965  1.0226
    1MOL0     H   81   3.768   6.724   4.106  1.2762 -0.7410  1.9829
    1MOL0     H   82   3.639   6.843   4.112  1.0423 -0.2183 -0.2322
    1MOL0     H   83   3.761   6.949   4.312  0.2609  1.9028 -0.9337
    1MOL0     H   84   3.812   6.972   4.153 -1.3717 -1.5450 -2.2079
    1MOL0     H   85   3.925   6.734   4.310 -0.6959 -1.0467 -1.5272
    1MOL0     H   86   4.007   6.830   4.187  0.3697  2.0228  0.9367
    1MOL0     H   87   4.187   6.987   4.259  0.7815 -2.0545 -0.0915
    1MOL0     H   88   4.249   7.214   4.568  0.2677  1.9159 -1.2630
    1MOL0     H   89   4.301   7.214   4.393  1.6216 -1.2104 -0.5229
    1MOL0     H   90   4.418   7.011   4.412  2.0917  1.4023 -0.0065
    1MOL0     H   91   4.482   7.136   4.515  1.4765 -0.4539  0.5722
    1MOL0     H   92   4.304   6.912   4.626 -0.3729 -0.1822 -2.0077
    1MOL0     H   93   4.486   6.916   4.607  0.4877  1.5870 -2.8716
    1MOL0     H   94   4.496   7.119   4.725  0.6448 -0.1682  0.5819
    1MOL0     H   95   4.314   7.129   4.746 -0.9660 -0.4765  3.4662
    1MOL0     H   96   4.598   7.166   4.886  0.5675  0.7639  0.2761
    1MOL0     H   97   4.811   7.191   5.105 -1.9376 -2.3871  1.2963
    1MOL0     H   98   4.808   7.226   4.923 -3.8046 -1.3716  0.6164
    1MOL0     H   99   4.938   7.138   4.983 -0.0029  2.1679 -1.9700
    1MOL0     H  100   4.969   6.798   5.333  1.0489 -1.0838  4.4776
    1MOL0     H  101   5.146   6.683   5.436 -0.2741  1.2497  0.7652
    1MOL0     H  102   5.592   6.763   5.339 -1.9363 -0.3787 -1.1918
    1MOL0     H  103   5.549   6.871   5.482 -0.5319  0.4920 -0.8814
    1MOL0     H  104   5.588   6.674   5.628 -0.0389  1.4607  0.5241
    1MOL0     H  105   5.615   6.573   5.481  0.5484 -0.5169  1.6779
    1MOL0     H  106   5.816   6.691   5.428  2.9323  2.9394  0.8473
    1MOL0     H  107   5.824   6.639   5.598  0.0943  0.5065 -0.3089
    1MOL0     H  108   5.729   6.883   5.653 -0.8101  4.3639 -2.5664
    1MOL0     H  109   5.762   6.921   5.491 -1.1663 -0.4161 -0.1387
    1MOL0     H  110   5.960   6.999   5.597  3.5704  0.2159 -1.6036
    1MOL0     H  111   5.977   6.842   5.688  1.6776 -0.1793 -0.6864
    1MOL0     H  112   6.025   6.817   5.390 -1.1378  2.5402  0.0187
    1MOL0     H  113   6.063   6.714   5.528  0.6882  0.0529  0.4811
    1MOL0     H  114   6.204   6.899   5.625 -0.4231 -0.5821  0.0071
    1MOL0     H  115   6.206   6.955   5.461  0.4786 -0.1625 -0.6966
    1MOL0     H  116   6.289   6.669   5.557  2.0942 -0.7734  1.0019
    1MOL0     H  117   6.399   6.795   5.506  0.0766  0.3146 -1.8559
    1MOL0     H  118   5.447   6.915   5.242  0.1890  3.4858 -0.1849
    1MOL0     H  119   5.253   7.014   5.095  1.3630 -0.3440 -0.1597
    1MOL0     H  120   4.705   6.699   4.986 -3.1561 -0.4779  1.5433
    1MOL0     H  121   4.482   6.763   4.941 -2.0606  1.6237  1.0325
    1MOL0     H  122   2.912   6.738   4.348  2.1943 -1.4821  0.0021
    1MOL0     H  123   2.676   6.699   4.331  0.3941 -0.5423  0.6766
    1MOL0     H  124   2.393   6.491   3.992  1.8544  2.9921  0.1410
    1MOL0     H  125   2.178   6.408   3.889 -2.6132 -0.0140  0.3454
    1MOL0     H  126   1.766   6.536   3.833  0.3708  0.7893  2.0314
    1MOL0     H  127   1.829   6.679   3.890 -4.0006 -1.5654  2.1192
    1MOL0     H  128   2.014   6.636   3.707 -0.1870 -1.5856 -0.3680
    1MOL0     H  129   1.850   6.684   3.647  1.5527  1.1611  0.9875
    1MOL0     H  130   1.965   6.401   3.678  0.9329  1.6847  1.1334
    1MOL0     H  131   1.809   6.422   3.604  0.7400 -1.1616 -1.0025
    1MOL0     H  132   1.899   6.560   3.414 -0.1778  1.1539  0.9827
    1MOL0     H  133   1.959   6.394   3.417 -1.5011  0.1118  1.3121
    1MOL0     H  134   2.334   6.537   3.502 -0.3851 -1.2120  1.2398
    1MOL0     H  135   1.967   6.718   4.092  1.4604  0.5995  2.6769
    1MOL0     H  136   2.225   6.890   4.264  1.7034 -1.6611  0.1947
    1MOL0     H  137   2.048   6.862   4.234 -2.2142 -2.7815  0.7623
    1MOL0     H  138   2.127   6.761   4.345 -0.3458 -0.8332 -0.6486
    2MOL0     O  139  10.034   6.520   1.763  0.0306  0.2597 -0.1029
    2MOL0     C  140  10.104   6.612   1.804  0.6004  0.3695  0.8548
    2MOL0     O  141  10.241   6.607   1.832  0.3801 -0.7550  0.0071
    2MOL0     C  142  10.343   6.546   1.758  0.9261 -0.2317  0.0875
    2MOL0     C  143  10.474   6.567   1.807 -0.6376  0.3676 -0.2960
    2MOL0     C  144  10.582   6.523   1.728 -0.1109 -0.8196 -0.1018
    2MOL0     C  145  10.566   6.459   1.607 -0.5107 -0.7023  0.6292
    2MOL0     O  146  10.685   6.432   1.553 -0.1536 -0.1210 -0.1431
    2MOL0     C  147  10.704   6.310   1.474  0.2733  0.4566 -0.1111
    2MOL0     C  148  10.737   6.186   1.565  0.2736 -0.2655  1.1023
    2MOL0     C  149  10.881   6.194   1.628 -0.1333  0.0562  0.8556
    2MOL0     C  150  10.984   6.168   1.517  0.0660 -0.3312 -0.4071
    2MOL0     C  151  11.137   6.166   1.564  0.1460 -0.2184 -0.0248
    2MOL0     C  152  11.165   6.044   1.647 -0.0567  0.5180  0.6514
    2MOL0     C  153  11.322   6.009   1.685  0.4100 -0.3828 -0.6613
    2MOL0     C  154  11.372   6.110   1.801  0.1130 -0.2482 -0.0947
    2MOL0     N  155  11.483   6.075   1.885 -0.1541 -0.2438 -0.4624
    2MOL0     C  156  11.614   6.046   1.841  1.0059  0.0140  0.1301
    2MOL0     C  157  11.672   5.987   1.952 -0.1888 -1.7198  1.2810
    2MOL0     C  158  11.811   5.922   1.955 -0.1037  0.8218 -0.1187
    2MOL0     C  159  11.912   6.025   2.000  0.5437 -0.6777  0.3316
    2MOL0     C  160  12.053   5.963   2.033  0.7387  0.4360  0.9388
    2MOL0     C  161  12.149   6.063   2.094 -1.3362 -0.6695 -1.0965
    2MOL0     O  162  12.274   6.000   2.115  0.9113  0.2809 -0.0830
    2MOL0     C  163  12.380   6.067   2.179  0.3426  0.2590 -0.4901
    2MOL0     C  164  12.374   6.194   2.211  0.7273 -0.4548 -0.1136
    2MOL0     C  165  12.472   6.257   2.287 -0.4019 -0.1874 -0.3760
    2MOL0     C  166  12.474   6.405   2.318 -0.8422 -0.5641  0.1162
    2MOL0     C  167  12.587   6.188   2.328  0.3730 -0.8123 -0.8022
    2MOL0     C  168  12.704   6.236   2.408  0.0851 -0.3403 -0.6575
    2MOL0     O  169  12.691   6.355   2.483  0.0662  0.8970 -0.3186
    2MOL0     C  170  12.786   6.374   2.577 -0.1152 -0.8566  0.0866
    2MOL0     C  171  12.902   6.444   2.543 -0.3604 -0.7175  0.3603
    2MOL0     C  172  13.005   6.487   2.632 -0.1911 -0.2007  0.4894
    2MOL0     C  173  13.000   6.445   2.762  0.3228  0.1136 -0.7064
    2MOL0     O  174  13.097   6.485   2.856  0.0424  0.6257 -0.0378
    2MOL0     C  175  13.087   6.439   2.994  0.2585 -0.2504 -0.9960
    2MOL0     C  176  13.175   6.524   3.081  0.1427 -0.1444 -0.4380
    2MOL0     C  177  13.326   6.490   3.089  0.0946  0.0691  0.7329
    2MOL0     C  178  13.384   6.469   2.959 -0.1631 -0.3604  0.3159
    2MOL0     C  179  13.528   6.491   2.942 -1.0859  0.4905  0.4782
    2MOL0     C  180  13.572   6.482   2.791 -0.2601  0.5245 -0.8591
    2MOL0     C  181  13.730   6.478   2.790  0.3396 -0.2691 -0.7753
    2MOL0     C  182  13.800   6.609   2.835 -0.6680 -0.9432 -0.2377
    2MOL0    Cl  183  13.971   6.602   2.766  0.1232  0.2272  0.1500
    2MOL0     C  184  12.887   6.366   2.801 -0.1417  0.3749  0.9912
    2MOL0     C  185  12.783   6.336   2.709  0.4888  0.3345 -0.3214
    2MOL0     O  186  12.805   6.172   2.399  0.6910  0.5350  0.0250
    2MOL0     C  187  12.590   6.048   2.296 -0.0711  0.3443 -0.5387
    2MOL0     C  188  12.489   5.984   2.219  0.2442 -0.0827 -0.0261
    2MOL0     N  189  11.581   5.987   2.047 -0.2378  0.9074  0.0085
    2MOL0     N  190  11.475   6.040   2.015 -0.5553 -0.5167  0.1534
    2MOL0     C  191  10.436   6.422   1.563  0.2263 -0.4811  0.6488
    2MOL0     C  192  10.323   6.464   1.643 -0.2029 -0.1093  0.1212
    2MOL0     C  193  10.046   6.750   1.803 -0.0585 -0.0258  0.4441
    2MOL0     C  194   9.908   6.749   1.761  0.6197 -0.6903 -0.2381
    2MOL0     C  195   9.832   6.863   1.774  0.5263  0.0690  0.1572
    2MOL0     C  196   9.894   6.981   1.820 -0.9804  0.0068  1.1648
    2MOL0     O  197   9.813   7.091   1.829  0.1649 -0.1516 -0.0877
    2MOL0     C  198   9.871   7.224   1.826  1.3271  0.6663 -0.0526
    2MOL0     C  199   9.903   7.254   1.679 -0.0172 -0.2502  0.4155
    2MOL0     C  200   9.966   7.395   1.679 -0.3289  0.0868  0.8795
    2MOL0     C  201  10.051   7.421   1.546  1.0062 -0.7525 -0.2070
    2MOL0     C  202   9.961   7.462   1.442  0.3829  1.1567 -0.4112
    2MOL0     C  203   9.899   7.489   1.351  0.3964 -0.3015 -0.2188
    2MOL0     C  204  10.036   6.980   1.838  0.6770  0.6577 -0.0204
    2MOL0     C  205  10.112   6.871   1.842 -0.3540  0.0090 -0.0633
    2MOL0     C  206  10.251   6.885   1.897  0.9529 -0.1225  0.3056
    2MOL0     H  207  10.493   6.630   1.893  3.8400  1.8970 -2.1245
    2MOL0     H  208  10.684   6.541   1.759  0.9270  0.6288 -3.7494
    2MOL0     H  209  10.785   6.321   1.401  0.2883  2.3591  0.1647
    2MOL0     H  210  10.617   6.280   1.416  0.7108  0.0741 -0.5847
    2MOL0     H  211  10.654   6.173   1.635 -1.9681  4.8799 -0.0964
    2MOL0     H  212  10.744   6.100   1.497  2.0744  0.8473 -0.2113
    2MOL0     H  213  10.901   6.292   1.672  2.8173 -0.2738  0.4485
    2MOL0     H  214  10.877   6.123   1.712 -4.1070  1.0547  1.7523
    2MOL0     H  215  10.959   6.073   1.469  0.2486 -1.3091  1.3462
    2MOL0     H  216  10.974   6.251   1.446 -1.0067 -0.5610 -0.5415
    2MOL0     H  217  11.175   6.261   1.603  1.2691  0.4880 -2.6135
    2MOL0     H  218  11.196   6.148   1.474 -2.0177 -0.6299 -1.4387
    2MOL0     H  219  11.112   6.040   1.742 -0.4753  1.6870  0.4825
    2MOL0     H  220  11.130   5.965   1.580 -0.7062  1.1684  0.2114
    2MOL0     H  221  11.379   6.008   1.592  0.0226 -0.2132 -0.9045
    2MOL0     H  222  11.316   5.907   1.724  0.4850  0.1095  0.6742
    2MOL0     H  223  11.395   6.199   1.742 -0.0831 -1.0816 -1.4590
    2MOL0     H  224  11.290   6.135   1.869  0.7729  1.2908  0.1727
    2MOL0     H  225  11.657   6.058   1.742  0.3812 -2.5829 -0.5259
    2MOL0     H  226  11.840   5.900   1.852 -0.4266  0.5815 -0.1609
    2MOL0     H  227  11.810   5.837   2.024  1.7000  1.3844  0.6735
    2MOL0     H  228  11.920   6.105   1.925 -1.4006 -0.7069  0.0399
    2MOL0     H  229  11.884   6.069   2.096  0.1596 -0.6538  0.2107
    2MOL0     H  230  12.027   5.881   2.100 -2.5102  1.2221  0.8018
    2MOL0     H  231  12.100   5.924   1.943 -1.0372  0.3220  0.0077
    2MOL0     H  232  12.167   6.145   2.024  0.8528 -0.0526  0.0947
    2MOL0     H  233  12.123   6.096   2.195  2.9485 -0.6754  0.1942
    2MOL0     H  234  12.286   6.251   2.184  0.6726 -1.1559 -1.5122
    2MOL0     H  235  12.396   6.466   2.271 -1.4739 -1.2042  0.2959
    2MOL0     H  236  12.567   6.434   2.270 -1.2198  0.0539 -0.2586
    2MOL0     H  237  12.475   6.425   2.426  0.6408  1.1522 -0.1748
    2MOL0     H  238  12.920   6.477   2.442 -0.3465  1.0976  0.9288
    2MOL0     H  239  13.081   6.561   2.607 -1.7214  0.9799 -0.8790
    2MOL0     H  240  12.986   6.465   3.027 -0.2665 -2.1762 -1.0132
    2MOL0     H  241  13.106   6.333   3.012 -2.9738 -0.7033  0.3649
    2MOL0     H  242  13.159   6.629   3.054 -1.7001  0.4199  2.4324
    2MOL0     H  243  13.140   6.528   3.184  6.5509 -0.5614  2.2679
    2MOL0     H  244  13.350   6.407   3.157 -1.2263 -1.7114 -0.8737
    2MOL0     H  245  13.368   6.576   3.141  0.4802 -1.3418  2.8924
    2MOL0     H  246  13.330   6.519   2.878 -0.0647 -3.1812 -1.6487
    2MOL0     H  247  13.361   6.370   2.919 -3.9336  0.5383 -0.0963
    2MOL0     H  248  13.559   6.590   2.977 -1.1958  0.7784 -0.2346
    2MOL0     H  249  13.573   6.419   3.011 -2.0800  0.6548  1.3311
    2MOL0     H  250  13.530   6.564   2.732  0.0523  2.0295  0.9353
    2MOL0     H  251  13.528   6.389   2.753 -1.3855  0.6283  0.1176
    2MOL0     H  252  13.750   6.471   2.682 -1.4963  0.9232 -1.2537
    2MOL0     H  253  13.770   6.387   2.835  3.6029 -0.0312 -2.8351
    2MOL0     H  254  13.794   6.625   2.943  1.3622  5.7425 -0.6864
    2MOL0     H  255  13.735   6.683   2.787 -2.0924 -1.0763  1.3782
    2MOL0     H  256  12.871   6.314   2.895 -3.8288 -1.1692 -0.3039
    2MOL0     H  257  12.698   6.272   2.729  1.0418  0.0492  1.2513
    2MOL0     H  258  12.680   5.990   2.313  2.3462  4.2840  1.5663
    2MOL0     H  259  12.488   5.879   2.190 -0.7158  0.4959 -2.2959
    2MOL0     H  260  10.422   6.365   1.472  2.5514 -0.7867  0.4282
    2MOL0     H  261  10.226   6.426   1.613 -0.1841  1.0212 -1.5253
    2MOL0     H  262   9.855   6.662   1.723  1.3480 -0.9721 -0.6362
    2MOL0     H  263   9.725   6.876   1.759  0.5553  1.8827  1.3554
    2MOL0     H  264   9.797   7.299   1.859  0.6728 -2.1145  6.4155
    2MOL0     H  265   9.957   7.232   1.894  1.2642  2.3989 -0.1249
    2MOL0     H  266   9.823   7.234   1.607 -0.2331  2.2356 -0.1149
    2MOL0     H  267   9.985   7.184   1.663  1.6653  1.1710  2.2709
    2MOL0     H  268   9.886   7.469   1.688 -2.0655 -1.6123  0.1440
    2MOL0     H  269  10.031   7.414   1.765 -0.0280 -2.0491  1.1831
    2MOL0     H  270  10.117   7.339   1.515  0.8349 -0.9009 -0.1759
    2MOL0     H  271  10.116   7.508   1.563 -0.1916 -0.3056  2.8265
    2MOL0     H  272   9.832   7.497   1.268 -0.6041 -1.4051  0.4643
    2MOL0     H  273  10.081   7.074   1.869  1.3074  1.2550 -2.5087
    2MOL0     H  274  10.256   6.836   1.995  0.4727  0.7483  0.7794
    2MOL0     H  275  10.333   6.841   1.840  1.8719 -0.4465  1.8095
    2MOL0     H  276  10.282   6.988   1.915  1.1196 -0.4030  1.8059
    3MOL0     O  277   6.087   2.309   7.272  0.3801  0.4661  0.1811
    3MOL0     C  278   6.103   2.216   7.190 -0.1101 -0.2467 -0.1266
    3MOL0     O  279   6.218   2.157   7.155  0.2127  0.0505  0.9038
    3MOL0     C  280   6.333   2.197   7.217 -0.3984  0.0628  0.3072
    3MOL0     C  281   6.370   2.330   7.228  0.8109  0.2930  0.1518
    3MOL0     C  282   6.494   2.376   7.287  0.1511  0.1011 -1.0423
    3MOL0     C  283   6.574   2.279   7.355  0.3987  0.0283  0.0350
    3MOL0     O  284   6.686   2.310   7.420 -0.3958 -0.5709 -0.1403
    3MOL0     C  285   6.697   2.451   7.460 -0.7894  0.8040 -0.5870
    3MOL0     C  286   6.823   2.475   7.550  0.7690  0.2747 -0.1866
    3MOL0     C  287   6.959   2.446   7.475 -0.0513  0.1645  0.1463
    3MOL0     C  288   7.076   2.529   7.510 -0.2442  0.1831 -0.2291
    3MOL0     C  289   7.207   2.446   7.462  0.3155  0.3788  0.5356
    3MOL0     C  290   7.339   2.520   7.492 -0.4433 -0.1323 -0.0474
    3MOL0     C  291   7.474   2.437   7.480 -0.0045  0.2106  0.0954
    3MOL0     C  292   7.587   2.519   7.544 -0.7863  0.0131 -0.0459
    3MOL0     N  293   7.697   2.430   7.547  0.3084  0.6060  0.1874
    3MOL0     C  294   7.697   2.322   7.642  0.4278 -0.5718 -0.5715
    3MOL0     C  295   7.817   2.269   7.633 -0.1454 -0.5217  0.3273
    3MOL0     C  296   7.879   2.159   7.716 -1.2713  0.0192 -0.1084
    3MOL0     C  297   7.801   2.026   7.683  1.0876  0.2204 -0.0626
    3MOL0     C  298   7.830   1.917   7.784 -0.6585  0.2390  0.7056
    3MOL0     C  299   7.945   1.815   7.745 -0.4766 -0.7151 -0.0072
    3MOL0     O  300   8.055   1.877   7.677  0.2689 -0.0089 -0.2227
    3MOL0     C  301   8.168   1.936   7.747  0.1556 -0.8860 -0.8601
    3MOL0     C  302   8.162   1.973   7.887  0.9814 -0.5406 -0.7337
    3MOL0     C  303   8.271   2.035   7.946 -0.0444 -0.1304  0.0055
    3MOL0     C  304   8.279   2.062   8.092 -0.0534  0.5094  0.0832
    3MOL0     C  305   8.368   2.093   7.865 -0.0007 -0.0654  0.5148
    3MOL0     C  306   8.463   2.187   7.913  0.0767 -0.5737 -0.4908
    3MOL0     O  307   8.558   2.135   7.992 -0.5122  0.2704 -0.3818
    3MOL0     C  308   8.666   2.212   8.025  0.3562  0.0002 -0.0103
    3MOL0     C  309   8.711   2.189   8.155  0.6689 -0.7548 -0.0169
    3MOL0     C  310   8.818   2.272   8.202 -0.7369 -0.3829  0.1394
    3MOL0     C  311   8.872   2.374   8.122 -0.5894  0.0857 -0.1760
    3MOL0     O  312   8.954   2.471   8.167 -0.6053 -0.9813  0.0073
    3MOL0     C  313   9.017   2.457   8.295 -0.1348  0.6520 -0.7215
    3MOL0     C  314   9.126   2.565   8.314  0.2445 -1.0266 -0.0916
    3MOL0     C  315   9.206   2.608   8.194  0.0301 -0.6122  0.1216
    3MOL0     C  316   9.317   2.708   8.227 -0.1521 -0.3689  0.1650
    3MOL0     C  317   9.372   2.765   8.090  0.0851  0.5271 -0.5834
    3MOL0     C  318   9.473   2.872   8.123  0.7779 -0.1194  0.9509
    3MOL0     C  319   9.560   2.886   8.005 -0.4743  0.3239  0.0554
    3MOL0     C  320   9.667   2.991   8.016 -0.1886  0.0505 -0.2688
    3MOL0    Cl  321   9.607   3.158   8.043 -0.1775  0.2382 -0.3252
    3MOL0     C  322   8.836   2.392   7.989  0.3029 -0.2016 -0.3714
    3MOL0     C  323   8.737   2.304   7.943  0.1634 -0.6495 -0.3989
    3MOL0     O  324   8.442   2.309   7.894  0.2474 -0.2252  0.2329
    3MOL0     C  325   8.372   2.058   7.730  0.8563  0.2976  0.8217
    3MOL0     C  326   8.283   1.976   7.667 -0.2968  0.3658 -0.4527
    3MOL0     N  327   7.881   2.317   7.527  0.2828 -0.3251 -0.7390
    3MOL0     N  328   7.818   2.420   7.484  0.2677 -0.8707  0.1548
    3MOL0     C  329   6.539   2.141   7.354  0.1487 -0.4045  0.1713
    3MOL0     C  330   6.420   2.100   7.278  0.3889 -0.4675 -0.0810
    3MOL0     C  331   5.981   2.161   7.122 -0.2501  0.8408 -0.6081
    3MOL0     C  332   5.871   2.249   7.116  0.1339 -0.8841 -0.1241
    3MOL0     C  333   5.739   2.202   7.086 -0.1190 -0.8965  0.6343
    3MOL0     C  334   5.727   2.077   7.033  0.3507 -0.5611  0.6571
    3MOL0     O  335   5.595   2.042   7.024  0.3347  0.3491  0.0410
    3MOL0     C  336   5.554   1.903   7.017 -0.3378 -0.9035  0.2648
    3MOL0     C  337   5.410   1.892   7.048 -0.7182  0.1037  0.8330
    3MOL0     C  338   5.353   1.747   7.044 -0.0390 -0.6415  0.7537
    3MOL0     C  339   5.320   1.693   6.903 -0.1126  0.1311 -0.4600
    3MOL0     C  340   5.286   1.555   6.907 -1.0328  0.5844  0.9319
    3MOL0     C  341   5.282   1.430   6.895  0.0725 -0.5937 -0.5000
    3MOL0     C  342   5.837   1.988   7.029  0.2787 -0.9117 -0.9213
    3MOL0     C  343   5.961   2.031   7.083 -0.1854 -0.6542  0.4319
    3MOL0     C  344   6.078   1.932   7.083  0.0066  0.4679  0.0197
    3MOL0     H  345   6.305   2.403   7.182  0.5587  0.7921  1.2627
    3MOL0     H  346   6.523   2.480   7.289 -3.3526  1.1903  1.0366
    3MOL0     H  347   6.607   2.468   7.519 -1.8678 -2.7379 -0.9657
    3MOL0     H  348   6.698   2.517   7.373 -0.5357  1.4433 -0.1045
    3MOL0     H  349   6.828   2.574   7.596 -0.7982  0.4111 -0.2433
    3MOL0     H  350   6.820   2.409   7.637  0.0685  0.4432 -0.0767
    3MOL0     H  351   6.989   2.344   7.502  1.6914  0.2250 -1.4229
    3MOL0     H  352   6.948   2.453   7.367 -0.0977 -0.3680  0.1090
    3MOL0     H  353   7.065   2.625   7.458 -1.2883 -0.0591 -0.4751
    3MOL0     H  354   7.085   2.541   7.619  2.0593 -1.6873 -0.1314
    3MOL0     H  355   7.200   2.428   7.355 -2.1755  1.3574  0.4642
    3MOL0     H  356   7.209   2.352   7.518  0.2646  0.1507  0.1520
    3MOL0     H  357   7.344   2.599   7.415  0.1440  1.2345  1.3376
    3MOL0     H  358   7.330   2.586   7.578 -2.8601  1.3755 -1.3356
    3MOL0     H  359   7.486   2.407   7.375 -3.4549  1.8846 -0.9397
    3MOL0     H  360   7.446   2.350   7.541 -1.5400  1.1158  0.7310
    3MOL0     H  361   7.619   2.605   7.484  2.0353 -0.6041  0.4512
    3MOL0     H  362   7.542   2.546   7.640 -3.4636  0.8873 -1.4048
    3MOL0     H  363   7.622   2.290   7.714  0.1003  0.2069 -0.5526
    3MOL0     H  364   7.866   2.187   7.821  2.2836 -2.5867  1.2368
    3MOL0     H  365   7.988   2.152   7.707 -0.8460  1.7041  2.7240
    3MOL0     H  366   7.693   2.037   7.684  0.8696 -1.3205 -1.3584
    3MOL0     H  367   7.819   1.997   7.579 -0.5416  0.1899 -0.3560
    3MOL0     H  368   7.857   1.966   7.878  0.5546 -0.1037  0.5517
    3MOL0     H  369   7.741   1.856   7.799 -0.3292 -0.7768 -1.1410
    3MOL0     H  370   7.968   1.774   7.844 -0.4177 -0.5833  0.0336
    3MOL0     H  371   7.899   1.739   7.680 -0.8269 -0.4357 -0.0903
    3MOL0     H  372   8.076   1.938   7.943  1.8632 -1.2806  0.1854
    3MOL0     H  373   8.208   1.994   8.138  0.3252 -2.9934 -3.9344
    3MOL0     H  374   8.240   2.164   8.099 -0.9068  0.2817 -1.0931
    3MOL0     H  375   8.368   2.045   8.152  0.2617  1.5317 -0.0688
    3MOL0     H  376   8.649   2.123   8.216 -0.3488  0.0707 -0.1311
    3MOL0     H  377   8.841   2.269   8.308 -0.8662  1.8249  0.2714
    3MOL0     H  378   8.946   2.463   8.378  1.7018 -0.2411  1.0047
    3MOL0     H  379   9.066   2.360   8.307 -2.2992 -0.3606  0.4529
    3MOL0     H  380   9.072   2.655   8.347  0.3990 -0.7847 -0.4816
    3MOL0     H  381   9.203   2.532   8.384  0.3985 -3.8626 -1.4552
    3MOL0     H  382   9.130   2.651   8.128 -1.7066  1.8513  3.4205
    3MOL0     H  383   9.249   2.523   8.140  0.7887  0.3862 -0.9010
    3MOL0     H  384   9.401   2.664   8.280  0.1899 -0.1109 -0.1602
    3MOL0     H  385   9.273   2.791   8.283  0.3199  0.3437 -0.4961
    3MOL0     H  386   9.422   2.689   8.030  1.2018  1.2617 -0.6038
    3MOL0     H  387   9.285   2.805   8.037  0.6819  3.3771  0.3998
    3MOL0     H  388   9.520   2.847   8.219  0.2200  0.6692  1.4476
    3MOL0     H  389   9.415   2.962   8.149 -0.9589 -1.2914  1.2980
    3MOL0     H  390   9.500   2.892   7.913 -1.5768 -0.7365  0.6723
    3MOL0     H  391   9.615   2.793   7.987 -1.4224 -0.0976 -0.8282
    3MOL0     H  392   9.735   2.984   7.930 -1.6846 -2.4223 -1.3787
    3MOL0     H  393   9.731   2.958   8.099 -1.3257  0.9507  1.0137
    3MOL0     H  394   8.875   2.463   7.918 -2.2822  1.3193 -0.3723
    3MOL0     H  395   8.704   2.320   7.840  2.3788  0.3448 -1.0120
    3MOL0     H  396   8.450   2.091   7.662  0.9826  2.9040  2.0820
    3MOL0     H  397   8.280   1.931   7.569 -0.3427 -3.4659  1.1424
    3MOL0     H  398   6.603   2.062   7.392 -1.6438 -1.5398  0.9318
    3MOL0     H  399   6.402   1.994   7.264  2.9571 -1.3887  2.4586
    3MOL0     H  400   5.884   2.352   7.147  1.5554 -0.5159 -1.7671
    3MOL0     H  401   5.656   2.271   7.093 -0.1167 -0.8400  0.1565
    3MOL0     H  402   5.574   1.856   6.920 -0.3654  0.6907 -0.5509
    3MOL0     H  403   5.596   1.836   7.093 -2.4976 -1.5830  0.9428
    3MOL0     H  404   5.357   1.948   6.969  0.2458 -0.2859 -0.1159
    3MOL0     H  405   5.389   1.943   7.142 -0.4421  3.1281 -0.6368
    3MOL0     H  406   5.410   1.679   7.108 -2.3180 -2.0369  1.3947
    3MOL0     H  407   5.257   1.763   7.092 -0.3029 -1.0407  0.3679
    3MOL0     H  408   5.407   1.709   6.839  0.3239 -2.0890 -0.5173
    3MOL0     H  409   5.238   1.750   6.860 -0.3495  0.4598  0.4037
    3MOL0     H  410   5.294   1.325   6.880  3.6630 -0.4962  0.5681
    3MOL0     H  411   5.816   1.890   6.987 -1.0834 -0.0620 -2.3499
    3MOL0     H  412   6.039   1.830   7.068 -3.2121  1.7757 -1.5014
    3MOL0     H  413   6.149   1.946   7.001  2.2525  0.1523  1.8232
    3MOL0     H  414   6.137   1.926   7.175  0.3388 -1.8064 -0.2666
    4MOL0     O  415   5.167   5.892   1.111 -0.7830  0.2695 -1.1182
    4MOL0     C  416   5.200   5.779   1.081 -0.0182  0.1699  0.7273
    4MOL0     O  417   5.138   5.657   1.126  0.5227 -0.0999  0.5186
    4MOL0     C  418   5.001   5.674   1.158 -0.5325 -1.0909 -0.1045
    4MOL0     C  419   4.959   5.635   1.281 -0.3879 -0.5841  1.4091
    4MOL0     C  420   4.821   5.610   1.297  0.5046 -1.4397 -0.3293
    4MOL0     C  421   4.730   5.647   1.205  0.4146  0.0413 -0.3438
    4MOL0     O  422   4.599   5.623   1.246  0.0152 -0.5584 -0.1678
    4MOL0     C  423   4.500   5.711   1.192 -0.5908  0.2518 -0.9758
    4MOL0     C  424   4.368   5.691   1.273  0.3875  0.3150  0.6434
    4MOL0     C  425   4.332   5.543   1.265  0.1531 -0.9278  0.5268
    4MOL0     C  426   4.219   5.492   1.358  0.4071 -0.2047  0.1121
    4MOL0     C  427   4.149   5.369   1.308  0.4242  0.1196  1.1893
    4MOL0     C  428   4.056   5.307   1.416 -0.3753  1.0611  0.4255
    4MOL0     C  429   4.088   5.161   1.454  0.9101  0.1078 -0.8528
    4MOL0     C  430   4.006   5.099   1.568  0.1962 -0.6510  0.0190
    4MOL0     N  431   3.870   5.103   1.534  0.0402  0.2370  0.6454
    4MOL0     C  432   3.786   5.212   1.552 -0.1625  0.1058 -0.3268
    4MOL0     C  433   3.658   5.163   1.535 -0.4451 -0.0001  0.1385
    4MOL0     C  434   3.523   5.233   1.559  0.1444  0.0126 -0.5925
    4MOL0     C  435   3.485   5.328   1.444 -0.0683  0.9053 -0.0423
    4MOL0     C  436   3.534   5.481   1.463  0.5100  0.8772  0.5647
    4MOL0     C  437   3.480   5.561   1.343 -0.7999 -0.2143  0.6678
    4MOL0     O  438   3.546   5.529   1.221 -0.2352 -0.6277  0.1564
    4MOL0     C  439   3.653   5.600   1.179  0.1856  0.3246 -0.1531
    4MOL0     C  440   3.680   5.596   1.044  1.0405 -0.0476 -0.1004
    4MOL0     C  441   3.804   5.644   0.995  0.4893 -0.0607 -0.2228
    4MOL0     C  442   3.817   5.629   0.844  0.4534  0.7021 -0.2275
    4MOL0     C  443   3.898   5.699   1.083  0.5364  1.3323  0.1288
    4MOL0     C  444   4.016   5.757   1.026 -0.3126 -0.4149 -0.1170
    4MOL0     O  445   4.082   5.698   0.920  0.2766 -0.3910  0.3243
    4MOL0     C  446   4.202   5.717   0.853 -0.0785 -0.1641  0.0167
    4MOL0     C  447   4.288   5.824   0.892  0.3790  1.2259  0.6282
    4MOL0     C  448   4.421   5.830   0.830  0.7761  0.5672 -0.8039
    4MOL0     C  449   4.463   5.754   0.720 -0.4089 -0.1436 -0.0618
    4MOL0     O  450   4.589   5.796   0.677  0.0437  0.3353 -0.0370
    4MOL0     C  451   4.640   5.729   0.565  0.7796 -0.6554 -0.0710
    4MOL0     C  452   4.785   5.778   0.550 -0.1369  0.1416  0.5235
    4MOL0     C  453   4.864   5.749   0.674  0.1534 -1.1494 -1.4099
    4MOL0     C  454   5.002   5.811   0.678 -0.5036  0.3317  0.3034
    4MOL0     C  455   5.081   5.817   0.540 -0.6941 -0.7903  0.0374
    4MOL0     C  456   5.216   5.875   0.575 -0.5599  0.1009 -0.1040
    4MOL0     C  457   5.325   5.846   0.464 -0.0475  0.3126  0.0410
    4MOL0     C  458   5.469   5.901   0.494  0.2533 -0.1379 -0.7888
    4MOL0    Cl  459   5.489   6.079   0.529  0.4761  0.4477 -0.2010
    4MOL0     C  460   4.364   5.654   0.677 -1.3899  0.5152 -1.1493
    4MOL0     C  461   4.241   5.640   0.741 -0.4297  0.7191  0.1221
    4MOL0     O  462   4.067   5.846   1.094  0.6760  0.8133  0.1735
    4MOL0     C  463   3.861   5.711   1.222  0.6844 -0.3376  0.3589
    4MOL0     C  464   3.744   5.654   1.263  0.3920  0.3446  0.0556
    4MOL0     N  465   3.670   5.027   1.525  0.0573 -0.8190  0.9947
    4MOL0     N  466   3.792   4.991   1.525  1.1028  0.2685  0.3260
    4MOL0     C  467   4.771   5.699   1.079  0.0598  0.0463 -1.6381
    4MOL0     C  468   4.909   5.715   1.055 -0.6982  0.1985  0.0115
    4MOL0     C  469   5.340   5.760   1.020  0.4284 -0.3656  1.3325
    4MOL0     C  470   5.409   5.641   1.017 -0.0432  0.4239  0.1336
    4MOL0     C  471   5.541   5.635   0.979  0.1647  0.5814  0.2648
    4MOL0     C  472   5.607   5.742   0.921 -0.8590 -0.2011  0.8137
    4MOL0     O  473   5.743   5.732   0.910 -0.6457  0.6197  0.2502
    4MOL0     C  474   5.821   5.847   0.897  0.1280 -0.9523  0.1003
    4MOL0     C  475   5.973   5.821   0.872 -0.2368 -0.0443  0.3290
    4MOL0     C  476   6.042   5.753   0.981 -0.0503 -0.0723  0.0795
    4MOL0     C  477   6.201   5.737   0.978 -0.2156 -0.2487  0.2587
    4MOL0     C  478   6.245   5.675   0.853  0.0895  0.9001 -0.0294
    4MOL0     C  479   6.264   5.625   0.745  0.4910  0.2629  0.1892
    4MOL0     C  480   5.541   5.857   0.913 -0.0827  0.9115 -0.5010
    4MOL0     C  481   5.408   5.869   0.955 -0.5272 -1.0293  0.6390
    4MOL0     C  482   5.347   6.004   0.924 -0.3278 -0.2720 -0.9442
    4MOL0     H  483   5.030   5.610   1.359  3.3351  2.0852 -0.8106
    4MOL0     H  484   4.786   5.571   1.392  0.6995 -3.9167 -1.1911
    4MOL0     H  485   4.473   5.701   1.086 -2.2954  2.3466 -0.8054
    4MOL0     H  486   4.529   5.815   1.210 -0.1100  0.4572 -2.7778
    4MOL0     H  487   4.379   5.711   1.380 -1.3865 -0.6287  1.0516
    4MOL0     H  488   4.291   5.756   1.231 -1.1973 -1.9048 -0.0827
    4MOL0     H  489   4.303   5.545   1.160  0.1319  1.8789  0.4957
    4MOL0     H  490   4.417   5.476   1.280  1.1477 -0.0193 -0.8355
    4MOL0     H  491   4.269   5.469   1.452  1.8791  1.6469 -0.1606
    4MOL0     H  492   4.147   5.568   1.386  0.6020 -1.1209  3.5385
    4MOL0     H  493   4.225   5.299   1.273  0.0459  0.7473 -0.9824
    4MOL0     H  494   4.098   5.403   1.218  1.6550 -0.4454  0.2505
    4MOL0     H  495   4.047   5.363   1.510  1.1358  0.5137  0.9359
    4MOL0     H  496   3.952   5.310   1.384 -0.7925 -0.0537  1.5772
    4MOL0     H  497   4.191   5.155   1.488 -0.4295  0.8097  4.0761
    4MOL0     H  498   4.066   5.103   1.363 -1.2162 -0.2128 -0.2068
    4MOL0     H  499   4.041   4.995   1.579 -1.9119 -1.5642 -1.3624
    4MOL0     H  500   4.023   5.148   1.664  1.0623  0.7252 -0.7976
    4MOL0     H  501   3.822   5.308   1.588 -0.8954  0.1503  0.3273
    4MOL0     H  502   3.523   5.279   1.658  3.9973 -0.8659 -0.0458
    4MOL0     H  503   3.441   5.160   1.563  1.1270 -1.0939  1.1222
    4MOL0     H  504   3.521   5.280   1.352 -2.2287  0.0040 -0.4757
    4MOL0     H  505   3.378   5.324   1.422  0.2817  0.8881 -1.9331
    4MOL0     H  506   3.487   5.524   1.551 -3.1769 -1.0920 -0.1983
    4MOL0     H  507   3.642   5.495   1.462  0.5421  0.6718 -0.7552
    4MOL0     H  508   3.373   5.537   1.334 -0.3234 -3.9249  2.9895
    4MOL0     H  509   3.479   5.668   1.366 -0.2184  0.4371 -1.9651
    4MOL0     H  510   3.599   5.556   0.984 -1.4892  4.9787 -0.5899
    4MOL0     H  511   3.876   5.539   0.822  0.2242  0.2030  1.0938
    4MOL0     H  512   3.860   5.718   0.798  2.0036 -0.1163 -0.4266
    4MOL0     H  513   3.719   5.613   0.799  0.4235  0.4446 -0.0787
    4MOL0     H  514   4.267   5.895   0.971 -1.4619 -1.3929  2.6547
    4MOL0     H  515   4.487   5.907   0.870  1.2180  0.5987 -1.5800
    4MOL0     H  516   4.631   5.620   0.570  0.1871 -0.6051 -0.0435
    4MOL0     H  517   4.585   5.769   0.479  0.2393  0.8805  0.9503
    4MOL0     H  518   4.824   5.738   0.456 -3.6847 -0.3275 -0.9164
    4MOL0     H  519   4.780   5.886   0.534 -0.3738  0.0594  0.0225
    4MOL0     H  520   4.874   5.642   0.691  2.6884 -0.8254 -0.3425
    4MOL0     H  521   4.820   5.794   0.764  1.3810  1.6866 -2.1130
    4MOL0     H  522   5.065   5.761   0.752 -0.1696 -0.5032 -0.5188
    4MOL0     H  523   5.000   5.913   0.716  1.8291  0.0254  1.4466
    4MOL0     H  524   5.085   5.715   0.501 -3.2654 -0.6017 -0.8447
    4MOL0     H  525   5.041   5.883   0.463  2.0774 -0.8985 -1.6444
    4MOL0     H  526   5.243   5.831   0.671 -4.5411  0.2543  1.2894
    4MOL0     H  527   5.218   5.982   0.598  1.2338 -0.0905  0.7699
    4MOL0     H  528   5.297   5.890   0.368  0.8695 -1.3598 -1.0474
    4MOL0     H  529   5.332   5.737   0.456 -1.5867  0.2703 -1.0426
    4MOL0     H  530   5.532   5.883   0.406 -0.7740 -2.2056 -1.1609
    4MOL0     H  531   5.514   5.849   0.578 -0.9478 -2.1277 -1.3246
    4MOL0     H  532   4.388   5.602   0.585 -2.1423 -0.2122 -0.9375
    4MOL0     H  533   4.163   5.579   0.697 -0.4945  1.2963 -0.5791
    4MOL0     H  534   3.912   5.768   1.299  1.3887 -1.8260  1.0308
    4MOL0     H  535   3.722   5.668   1.369  0.1727  1.2602 -0.1065
    4MOL0     H  536   4.692   5.723   1.008 -0.9886  0.9322 -0.2419
    4MOL0     H  537   4.953   5.750   0.962 -0.8696  0.3341 -0.0201
    4MOL0     H  538   5.364   5.544   1.035 -0.8541  0.6810 -0.4193
    4MOL0     H  539   5.591   5.539   0.987  0.0968  0.3308 -1.7301
    4MOL0     H  540   5.790   5.895   0.804  0.2661 -2.9623 -1.0525
    4MOL0     H  541   5.814   5.920   0.978 -0.5546 -1.0412  0.1260
    4MOL0     H  542   6.015   5.920   0.852 -1.5065  0.4003 -0.2412
    4MOL0     H  543   5.988   5.754   0.787  1.2000 -1.3533  1.5499
    4MOL0     H  544   6.004   5.797   1.074 -0.0012  0.2353 -0.0440
    4MOL0     H  545   6.005   5.650   0.975 -2.1173  0.5794  0.6899
    4MOL0     H  546   6.226   5.681   1.069 -2.3607 -0.2336  0.9348
    4MOL0     H  547   6.244   5.836   0.993 -2.4642  0.6110  1.6577
    4MOL0     H  548   6.268   5.594   0.643 -4.1543  0.2218 -0.2031
    4MOL0     H  549   5.595   5.946   0.880 -0.5928  0.4398 -2.7322
    4MOL0     H  550   5.313   6.062   1.010 -0.1812 -2.2954  0.5667
    4MOL0     H  551   5.417   6.058   0.860  0.5552 -1.6548 -1.2114
    4MOL0     H  552   5.260   5.991   0.859 -0.1849  1.6016 -1.5474
    5MOL0     O  553  11.444   7.652  11.342 -0.0941 -0.1049  0.4063
    5MOL0     C  554  11.343   7.611  11.403 -1.0408 -0.0072 -0.2401
    5MOL0     O  555  11.275   7.497  11.369 -1.2041 -0.2871 -0.0806
    5MOL0     C  556  11.332   7.448  11.249  0.1302 -0.2838  0.3943
    5MOL0     C  557  11.434   7.356  11.265 -0.1314  0.5221  1.0318
    5MOL0     C  558  11.493   7.300  11.150 -0.1357  0.7995  0.4227
    5MOL0     C  559  11.447   7.331  11.027 -0.1997 -0.1057  0.0945
    5MOL0     O  560  11.502   7.280  10.917  0.7528  0.6318  0.2047
    5MOL0     C  561  11.586   7.166  10.920  0.3186 -0.1917  0.1368
    5MOL0     C  562  11.650   7.130  10.790 -0.4066 -0.5781  0.5134
    5MOL0     C  563  11.758   7.232  10.750  0.3501 -0.3265 -0.1881
    5MOL0     C  564  11.877   7.247  10.844 -0.7458 -0.9750 -0.3821
    5MOL0     C  565  11.952   7.364  10.777 -0.0378 -0.9744  0.4814
    5MOL0     C  566  12.080   7.399  10.851 -1.0656  0.1726 -0.9279
    5MOL0     C  567  12.177   7.285  10.840 -0.5677  0.0431  0.3112
    5MOL0     C  568  12.320   7.326  10.877 -0.0665 -0.1614  0.3138
    5MOL0     N  569  12.432   7.232  10.853 -0.4239 -0.3232  0.4408
    5MOL0     C  570  12.455   7.117  10.927  0.2156 -0.6957  0.6826
    5MOL0     C  571  12.565   7.067  10.867  0.4023  0.6428 -0.9710
    5MOL0     C  572  12.656   6.957  10.911  0.1882  0.3304 -0.6347
    5MOL0     C  573  12.777   6.996  10.996 -0.5953  0.2535 -0.3283
    5MOL0     C  574  12.911   7.036  10.927 -0.0711  0.1366 -0.7162
    5MOL0     C  575  13.032   7.035  11.020  0.3358 -0.5468  0.1194
    5MOL0     O  576  13.125   7.142  11.012  0.6479 -0.1558 -0.2305
    5MOL0     C  577  13.238   7.133  10.932 -0.6264 -1.2740  0.2263
    5MOL0     C  578  13.365   7.176  10.984  0.9500 -0.3024  0.2980
    5MOL0     C  579  13.478   7.180  10.897 -0.0485 -0.3141 -0.0479
    5MOL0     C  580  13.611   7.210  10.967  0.0107  0.8926 -0.5745
    5MOL0     C  581  13.466   7.152  10.761 -1.2328  0.0340  0.6835
    5MOL0     C  582  13.579   7.129  10.665 -0.2148  0.0976  0.5124
    5MOL0     O  583  13.547   7.108  10.529 -1.4410 -0.1451 -0.4272
    5MOL0     C  584  13.656   7.077  10.453  0.6485  0.2557  0.9662
    5MOL0     C  585  13.720   6.952  10.471 -0.4898 -0.1478  0.5518
    5MOL0     C  586  13.806   6.893  10.382  0.3502  0.5771  0.3605
    5MOL0     C  587  13.836   6.957  10.262 -0.7271 -0.4002 -0.3804
    5MOL0     O  588  13.915   6.906  10.162 -0.5146  0.1626 -0.1054
    5MOL0     C  589  14.017   6.819  10.206 -0.4516  0.0148 -0.7311
    5MOL0     C  590  14.123   6.799  10.091 -0.0657  0.2434 -0.3520
    5MOL0     C  591  14.218   6.918  10.056  0.2136 -0.0908  0.4051
    5MOL0     C  592  14.141   7.047  10.026 -0.3051 -0.7636 -0.5496
    5MOL0     C  593  14.224   7.147   9.956  0.5893 -0.1451  0.0701
    5MOL0     C  594  14.139   7.274   9.914 -0.3351  1.0600 -0.3707
    5MOL0     C  595  14.242   7.362   9.840  1.1255  0.7479 -0.0481
    5MOL0     C  596  14.185   7.473   9.756 -0.3305  0.4221  1.5678
    5MOL0    Cl  597  14.097   7.597   9.853  0.1213 -0.1477  0.4221
    5MOL0     C  598  13.787   7.093  10.253  0.5484  0.3917  0.6562
    5MOL0     C  599  13.684   7.150  10.340 -0.7160 -0.3687 -0.4106
    5MOL0     O  600  13.690   7.112  10.714 -0.2393 -0.0018 -0.2542
    5MOL0     C  601  13.328   7.124  10.711 -0.8546 -0.9449 -0.0999
    5MOL0     C  602  13.229   7.107  10.798 -0.7573  0.1860 -0.6057
    5MOL0     N  603  12.599   7.149  10.760 -0.0868  0.8040 -0.0972
    5MOL0     N  604  12.524   7.249  10.752 -0.4279  0.1560 -0.3575
    5MOL0     C  605  11.340   7.416  11.009 -0.6424 -0.0092  0.2548
    5MOL0     C  606  11.282   7.481  11.120 -0.1938 -0.0113 -0.0010
    5MOL0     C  607  11.282   7.688  11.508  0.1282 -0.5308  0.3523
    5MOL0     C  608  11.189   7.613  11.587  0.4681 -0.0277 -0.3111
    5MOL0     C  609  11.124   7.680  11.689 -0.1724 -0.6989 -0.5680
    5MOL0     C  610  11.146   7.818  11.730 -0.0931 -0.3558  0.9476
    5MOL0     O  611  11.076   7.887  11.835  0.5145 -0.0875  0.3585
    5MOL0     C  612  10.968   7.824  11.905 -0.8187 -0.0249  0.4596
    5MOL0     C  613  10.833   7.825  11.831 -0.4551 -0.0186 -0.1667
    5MOL0     C  614  10.707   7.788  11.915  0.1104  0.8449 -1.2092
    5MOL0     C  615  10.687   7.629  11.917 -0.3080  0.0564 -0.7182
    5MOL0     C  616  10.556   7.586  11.978 -0.9490 -1.3120 -0.2334
    5MOL0     C  617  10.439   7.576  12.011 -0.4169 -0.0016  0.6940
    5MOL0     C  618  11.235   7.886  11.647  0.1493 -0.1398  0.3741
    5MOL0     C  619  11.310   7.829  11.540  0.5451  0.2956 -0.3120
    5MOL0     C  620  11.400   7.910  11.458  0.7648  0.8060 -0.2203
    5MOL0     H  621  11.477   7.331  11.362  2.0859 -0.8152 -0.2125
    5MOL0     H  622  11.569   7.224  11.166  4.7868  4.6182 -1.8894
    5MOL0     H  623  11.519   7.085  10.951 -2.0407  1.1574 -1.1768
    5MOL0     H  624  11.670   7.171  10.990  1.2552  1.0530 -1.0324
    5MOL0     H  625  11.697   7.031  10.796 -0.9125 -0.7664  1.7080
    5MOL0     H  626  11.571   7.125  10.714 -0.5712  0.1940  0.6288
    5MOL0     H  627  11.783   7.198  10.649 -0.7309 -0.6897 -0.3480
    5MOL0     H  628  11.713   7.331  10.735 -1.5428 -1.2113 -0.6598
    5MOL0     H  629  11.849   7.284  10.943 -1.5745  0.3764 -1.0921
    5MOL0     H  630  11.937   7.156  10.855  0.4301 -0.0971  0.6912
    5MOL0     H  631  11.885   7.450  10.780  0.9743 -0.2029  2.3508
    5MOL0     H  632  11.983   7.342  10.674  0.3718 -1.7374  0.7561
    5MOL0     H  633  12.112   7.497  10.813  0.6019  1.3995  3.0752
    5MOL0     H  634  12.063   7.418  10.957 -0.1500 -2.6561 -0.1962
    5MOL0     H  635  12.184   7.262  10.733  1.2087  1.8097  0.0032
    5MOL0     H  636  12.132   7.201  10.895  2.6146 -2.2378 -0.3155
    5MOL0     H  637  12.342   7.418  10.822  2.4204  0.1903  1.6954
    5MOL0     H  638  12.323   7.356  10.983 -1.2224 -0.7978  0.5412
    5MOL0     H  639  12.400   7.072  11.009 -1.0468 -0.0680  0.2166
    5MOL0     H  640  12.695   6.905  10.823  0.1790 -1.5304  0.4281
    5MOL0     H  641  12.587   6.894  10.968 -0.3628 -3.1481 -4.6474
    5MOL0     H  642  12.745   7.071  11.069 -0.5678  0.0317 -0.0872
    5MOL0     H  643  12.795   6.903  11.051  0.5103 -1.1136 -2.8599
    5MOL0     H  644  12.940   6.978  10.839 -0.0606  1.2425 -1.4640
    5MOL0     H  645  12.900   7.139  10.890 -0.8019 -0.7184 -3.0948
    5MOL0     H  646  12.993   7.051  11.121 -1.8298  0.2795 -0.7765
    5MOL0     H  647  13.081   6.937  11.020  1.3893 -0.0891 -1.9520
    5MOL0     H  648  13.374   7.191  11.091  1.2908  0.1849  0.2044
    5MOL0     H  649  13.674   7.122  10.986  1.6011  1.5897 -2.2870
    5MOL0     H  650  13.598   7.244  11.070  1.4245 -1.2664  0.3885
    5MOL0     H  651  13.677   7.285  10.923  4.1064 -0.9974  1.8254
    5MOL0     H  652  13.701   6.893  10.560 -2.5186  2.5517  2.0619
    5MOL0     H  653  13.851   6.797  10.407 -0.3194  0.5680  1.6411
    5MOL0     H  654  14.081   6.862  10.284  1.2584 -0.3626 -1.8820
    5MOL0     H  655  13.972   6.725  10.241 -0.6771  1.1792  2.4964
    5MOL0     H  656  14.193   6.722  10.126 -2.0275 -0.8214  1.5144
    5MOL0     H  657  14.071   6.757  10.004  0.1941 -2.6730  0.7811
    5MOL0     H  658  14.273   6.888   9.967 -0.8725 -0.1058 -0.2763
    5MOL0     H  659  14.287   6.934  10.140 -0.7847  0.3513  1.1747
    5MOL0     H  660  14.108   7.098  10.117  1.1014  1.3402 -1.1397
    5MOL0     H  661  14.057   7.028   9.957  0.5432 -0.1698 -1.7884
    5MOL0     H  662  14.303   7.173  10.027 -2.9492  1.3235  3.8681
    5MOL0     H  663  14.259   7.110   9.859  0.9604  1.0467 -0.2612
    5MOL0     H  664  14.093   7.322  10.001 -0.5165  1.6797 -0.8081
    5MOL0     H  665  14.053   7.250   9.851 -0.9308 -0.6946  1.0246
    5MOL0     H  666  14.304   7.293   9.784  1.4857 -1.6615  3.0265
    5MOL0     H  667  14.320   7.406   9.904 -0.8903 -0.9740  3.9838
    5MOL0     H  668  14.122   7.434   9.675 -1.8917  1.9312  1.9770
    5MOL0     H  669  14.272   7.530   9.723  1.7451 -2.0011  2.5438
    5MOL0     H  670  13.825   7.147  10.167 -1.1276  0.3993 -0.1245
    5MOL0     H  671  13.632   7.245  10.337  1.5696  1.0533  1.6146
    5MOL0     H  672  13.315   7.111  10.604 -1.2044  2.5272 -0.6050
    5MOL0     H  673  13.132   7.083  10.757 -0.4434 -2.1917 -0.1172
    5MOL0     H  674  11.310   7.433  10.906  1.8103 -0.9422 -0.6775
    5MOL0     H  675  11.201   7.553  11.111 -0.7796 -0.5514  0.7748
    5MOL0     H  676  11.151   7.514  11.567 -1.8983  0.1111  2.8152
    5MOL0     H  677  11.040   7.634  11.740  0.4703  0.0148  1.2168
    5MOL0     H  678  10.990   7.719  11.928  2.1811  0.1868 -1.0451
    5MOL0     H  679  10.952   7.875  12.001  2.6996  0.9018  0.6906
    5MOL0     H  680  10.830   7.755  11.747  0.6488 -0.7507  0.3766
    5MOL0     H  681  10.821   7.925  11.787  2.4196  0.8520  0.8094
    5MOL0     H  682  10.710   7.827  12.017  5.0251  1.4221 -1.3097
    5MOL0     H  683  10.622   7.823  11.856 -2.4526 -2.0207  0.5162
    5MOL0     H  684  10.766   7.592  11.983  0.2991  0.0813 -1.4181
    5MOL0     H  685  10.698   7.581  11.820 -2.0770  1.2348 -1.5543
    5MOL0     H  686  10.334   7.574  12.035 -0.5073 -0.5466  0.2873
    5MOL0     H  687  11.250   7.985  11.688 -1.5126  0.9945 -1.5818
    5MOL0     H  688  11.499   7.865  11.464  0.0322 -0.6657  1.8453
    5MOL0     H  689  11.369   7.893  11.354 -0.3038 -2.7748  0.5360
    5MOL0     H  690  11.415   8.015  11.486  0.6710  0.6148  0.5740
    6MOL0     O  691   6.634   8.940   3.234  0.0844  0.8171  0.1754
    6MOL0     C  692   6.561   8.983   3.148  0.3899  0.4169  0.4548
    6MOL0     O  693   6.581   9.085   3.069 -0.0989 -0.1955 -0.6915
    6MOL0     C  694   6.698   9.148   3.053 -0.4949  0.2090  0.2708
    6MOL0     C  695   6.809   9.084   2.994 -0.2090  0.3537 -0.3619
    6MOL0     C  696   6.925   9.159   2.975 -0.4174 -1.0623  0.6378
    6MOL0     C  697   6.946   9.290   3.021  0.2120 -0.9908 -1.0797
    6MOL0     O  698   7.062   9.353   2.986 -0.5871  0.5897 -0.2675
    6MOL0     C  699   7.084   9.491   3.012 -0.0893  0.0489 -0.1025
    6MOL0     C  700   7.208   9.535   2.947  0.9797 -0.1195 -0.5002
    6MOL0     C  701   7.214   9.487   2.798 -0.5978 -0.3155  0.1850
    6MOL0     C  702   7.088   9.544   2.723 -0.0561 -0.0937  0.4210
    6MOL0     C  703   7.092   9.519   2.573 -0.3217  1.0039 -0.6832
    6MOL0     C  704   7.099   9.377   2.532  0.4052 -0.0725  0.0208
    6MOL0     C  705   7.239   9.323   2.494  0.0899  0.3093  0.1233
    6MOL0     C  706   7.255   9.195   2.413  0.9877  0.1479 -0.6824
    6MOL0     N  707   7.181   9.078   2.466 -0.0523  0.1520 -0.9193
    6MOL0     C  708   7.126   9.054   2.590  0.3881 -0.3589  0.1504
    6MOL0     C  709   7.041   8.941   2.584  0.0364 -0.7944  0.3438
    6MOL0     C  710   6.966   8.867   2.688  0.3440 -0.3758  0.1563
    6MOL0     C  711   6.813   8.837   2.668  0.0123  0.0146  0.4413
    6MOL0     C  712   6.738   8.771   2.786 -0.3808 -0.1143  0.0162
    6MOL0     C  713   6.587   8.781   2.771 -0.8537  0.1396  0.3057
    6MOL0     O  714   6.542   8.749   2.634  0.8302 -0.8299 -0.5635
    6MOL0     C  715   6.410   8.787   2.604  0.3084 -0.5624  0.0475
    6MOL0     C  716   6.365   8.771   2.472 -1.7716 -0.0971  1.3959
    6MOL0     C  717   6.237   8.813   2.427 -0.5066  0.5253  0.3279
    6MOL0     C  718   6.211   8.814   2.279 -0.4661  0.3443 -0.1222
    6MOL0     C  719   6.143   8.856   2.520 -0.0677  0.0007 -0.4760
    6MOL0     C  720   6.001   8.897   2.493 -0.2124  0.2490 -0.3270
    6MOL0     O  721   5.913   8.855   2.593 -0.1374  0.3953 -0.0524
    6MOL0     C  722   5.783   8.825   2.571  0.6353  0.0625 -0.2861
    6MOL0     C  723   5.727   8.774   2.455 -0.7617 -0.4318  0.8191
    6MOL0     C  724   5.591   8.730   2.455 -0.5275 -0.4110  0.1905
    6MOL0     C  725   5.516   8.744   2.562 -0.5159 -1.1557 -0.4589
    6MOL0     O  726   5.383   8.713   2.552 -0.1624 -0.2704  0.2196
    6MOL0     C  727   5.287   8.789   2.628  0.0252  0.5663 -0.0505
    6MOL0     C  728   5.152   8.754   2.568 -0.4882  0.1395 -0.0809
    6MOL0     C  729   5.033   8.730   2.671  0.6683  0.5525  0.3514
    6MOL0     C  730   4.997   8.866   2.731 -0.1146 -0.8877 -0.2591
    6MOL0     C  731   4.848   8.884   2.769  0.7836 -0.1797  0.0794
    6MOL0     C  732   4.746   8.923   2.657  0.9215  0.5334  0.3895
    6MOL0     C  733   4.797   9.013   2.549  0.0970  0.1744 -0.1767
    6MOL0     C  734   4.687   9.046   2.444  0.3995 -0.3793 -0.5638
    6MOL0    Cl  735   4.541   9.142   2.505  0.0237  0.1847  0.3463
    6MOL0     C  736   5.568   8.799   2.686 -0.0037 -0.4334 -0.5060
    6MOL0     C  737   5.701   8.848   2.683  0.1834 -0.1058 -0.1804
    6MOL0     O  738   5.970   8.960   2.391  0.8110 -0.6340  0.7458
    6MOL0     C  739   6.191   8.852   2.656 -0.2432  0.4365 -0.1946
    6MOL0     C  740   6.317   8.825   2.698 -0.5614  0.0343  0.6988
    6MOL0     N  741   7.059   8.889   2.454  0.7017 -0.2744  0.4054
    6MOL0     N  742   7.142   8.974   2.391  0.5863  0.3104  0.0525
    6MOL0     C  743   6.842   9.355   3.085  1.2211  0.6922 -0.2264
    6MOL0     C  744   6.721   9.277   3.105 -0.2095  0.5732  0.4292
    6MOL0     C  745   6.423   8.905   3.131  0.0591  0.9311 -1.5376
    6MOL0     C  746   6.307   8.972   3.092  0.3684 -0.0170 -0.0232
    6MOL0     C  747   6.184   8.907   3.048  1.3491  0.0932 -0.8590
    6MOL0     C  748   6.175   8.766   3.049 -1.7672  0.3625  0.0366
    6MOL0     O  749   6.063   8.710   2.990 -0.5618  0.3391  0.0419
    6MOL0     C  750   5.996   8.607   3.060 -0.0984 -0.4513 -0.0445
    6MOL0     C  751   5.853   8.606   3.015  0.8843 -0.1952  0.1156
    6MOL0     C  752   5.769   8.500   3.085  1.1923  0.4125  0.5190
    6MOL0     C  753   5.633   8.557   3.134 -0.7829 -0.7093  0.4677
    6MOL0     C  754   5.646   8.664   3.236 -0.0254 -0.0829  0.5726
    6MOL0     C  755   5.652   8.751   3.319  0.3502 -0.2221 -0.5611
    6MOL0     C  756   6.290   8.692   3.094  0.0981 -0.6319  0.6537
    6MOL0     C  757   6.408   8.758   3.139 -0.4826  0.0285 -0.6122
    6MOL0     C  758   6.533   8.671   3.169  0.4669  0.0185 -0.6728
    6MOL0     H  759   6.806   8.977   2.979 -3.4130  0.3944 -0.7788
    6MOL0     H  760   7.005   9.112   2.919  0.2830  1.1986 -0.3523
    6MOL0     H  761   7.091   9.510   3.120  2.7979  1.5799 -0.4397
    6MOL0     H  762   7.003   9.548   2.966  1.0669 -0.8846 -3.5837
    6MOL0     H  763   7.213   9.644   2.949 -0.3706 -0.0516  0.1930
    6MOL0     H  764   7.294   9.490   2.999  0.6792 -4.8460 -3.5089
    6MOL0     H  765   7.301   9.523   2.742  0.5706 -0.5458  1.8110
    6MOL0     H  766   7.219   9.378   2.795  0.2237 -0.2721 -0.5677
    6MOL0     H  767   6.994   9.503   2.761 -1.0456 -0.3809 -2.1114
    6MOL0     H  768   7.065   9.649   2.743  0.2722  0.0760 -0.0861
    6MOL0     H  769   7.172   9.577   2.527  0.6545 -0.1681 -0.5011
    6MOL0     H  770   6.997   9.549   2.528 -1.0942 -1.6957 -1.0262
    6MOL0     H  771   7.050   9.316   2.608  0.3770 -1.4116 -1.0235
    6MOL0     H  772   7.039   9.373   2.440  1.1241  1.9425 -0.6028
    6MOL0     H  773   7.295   9.307   2.586 -2.9448 -1.7005  1.7974
    6MOL0     H  774   7.291   9.402   2.440  0.1025  0.6070  0.5722
    6MOL0     H  775   7.210   9.202   2.314 -0.1081  0.0866 -0.2056
    6MOL0     H  776   7.361   9.169   2.414  1.0282 -0.0822 -3.7683
    6MOL0     H  777   7.151   9.120   2.673  3.3058 -2.7895  1.4144
    6MOL0     H  778   6.960   8.923   2.782 -1.0626  2.7896 -1.6482
    6MOL0     H  779   7.020   8.773   2.698 -3.2428 -2.6139  0.2449
    6MOL0     H  780   6.757   8.927   2.642 -0.9681  0.0983  2.6431
    6MOL0     H  781   6.810   8.768   2.583  1.9307  0.5612 -0.1212
    6MOL0     H  782   6.760   8.664   2.785  0.5070  0.0173  1.6724
    6MOL0     H  783   6.763   8.808   2.886 -3.3366  3.5583 -0.3446
    6MOL0     H  784   6.556   8.700   2.838 -0.4319  0.2799  0.6716
    6MOL0     H  785   6.546   8.874   2.810  0.6268  0.5252  0.9861
    6MOL0     H  786   6.437   8.729   2.403 -0.2971  0.3368  2.6114
    6MOL0     H  787   6.293   8.779   2.216  0.6257 -2.6993  2.7004
    6MOL0     H  788   6.202   8.921   2.256  0.0867 -0.3543 -4.5200
    6MOL0     H  789   6.111   8.774   2.260 -0.1453 -0.6751  0.2753
    6MOL0     H  790   5.792   8.751   2.371 -0.9140 -0.7001  0.7729
    6MOL0     H  791   5.550   8.688   2.364  1.0899 -0.7936 -0.3993
    6MOL0     H  792   5.294   8.763   2.734  0.5532 -1.1898 -0.4848
    6MOL0     H  793   5.304   8.897   2.628  1.5235  0.3682  1.0202
    6MOL0     H  794   5.122   8.837   2.503 -0.8615  0.8022  0.9243
    6MOL0     H  795   5.169   8.665   2.507  1.1978 -0.8188  1.6783
    6MOL0     H  796   5.070   8.653   2.740  4.8764 -0.2897 -2.4485
    6MOL0     H  797   4.943   8.684   2.629  0.5612 -0.5611  1.6896
    6MOL0     H  798   5.029   8.948   2.666 -1.3846  1.6805  2.1186
    6MOL0     H  799   5.060   8.875   2.819  2.0985 -0.0527 -1.8521
    6MOL0     H  800   4.813   8.792   2.817  0.0564  1.2363  2.3945
    6MOL0     H  801   4.835   8.961   2.846 -1.9801  0.0424 -0.4757
    6MOL0     H  802   4.653   8.964   2.699 -0.0274  0.3921 -1.4948
    6MOL0     H  803   4.704   8.839   2.601  1.6597 -0.1556  0.8616
    6MOL0     H  804   4.882   8.970   2.495  0.5278 -0.6456  1.1031
    6MOL0     H  805   4.806   9.119   2.577 -1.2875  0.5202 -0.9534
    6MOL0     H  806   4.639   8.957   2.400  0.1208 -1.3531  1.5953
    6MOL0     H  807   4.732   9.097   2.358  0.4629  0.6632  0.0786
    6MOL0     H  808   5.500   8.825   2.767 -4.6714 -0.5404 -3.9928
    6MOL0     H  809   5.744   8.888   2.775 -0.4154  2.5952 -0.9828
    6MOL0     H  810   6.138   8.892   2.742  1.4798 -0.9936  1.6353
    6MOL0     H  811   6.341   8.824   2.803  1.3853  0.7078  0.3018
    6MOL0     H  812   6.859   9.454   3.125 -0.3771  2.0103 -2.5418
    6MOL0     H  813   6.640   9.326   3.157  2.1973  3.5325  1.7023
    6MOL0     H  814   6.313   9.080   3.099  1.8034 -0.0840  0.0252
    6MOL0     H  815   6.097   8.966   3.020  0.8191 -0.4818 -0.4650
    6MOL0     H  816   6.046   8.510   3.052  0.7455 -0.1233  1.0859
    6MOL0     H  817   5.987   8.639   3.164  1.5803  2.9079 -0.7978
    6MOL0     H  818   5.837   8.589   2.908  0.6237  1.5243 -0.1336
    6MOL0     H  819   5.806   8.703   3.031 -0.0629 -0.7974  1.1569
    6MOL0     H  820   5.753   8.418   3.014  3.0721 -1.0148  1.6525
    6MOL0     H  821   5.812   8.455   3.174  0.0413 -2.9937 -0.4970
    6MOL0     H  822   5.582   8.477   3.189 -0.7461  1.2411  3.5421
    6MOL0     H  823   5.563   8.590   3.057 -0.2802 -2.1075 -0.6204
    6MOL0     H  824   5.658   8.837   3.383 -0.4408 -0.5722  0.0072
    6MOL0     H  825   6.279   8.584   3.092 -0.3555 -0.5947  0.8684
    6MOL0     H  826   6.501   8.567   3.179 -0.0656  0.1352 -1.1307
    6MOL0     H  827   6.594   8.673   3.079  0.4997 -0.1476 -0.6549
    6MOL0     H  828   6.589   8.698   3.259  0.0308 -0.0411 -0.3804
    7MOL0     O  829   3.599   0.335   8.787  0.0682 -0.2199  0.6391
    7MOL0     C  830   3.605   0.412   8.689  0.2001  0.2042 -0.7282
    7MOL0     O  831   3.720   0.438   8.611 -0.6240  0.0723 -0.3303
    7MOL0     C  832   3.828   0.362   8.634  0.3960 -0.1854  0.3244
    7MOL0     C  833   3.924   0.389   8.740  0.1125 -0.4280  0.7253
    7MOL0     C  834   4.051   0.326   8.746  0.4740 -0.3749 -0.6026
    7MOL0     C  835   4.087   0.221   8.656  0.5041 -0.2119  0.4683
    7MOL0     O  836   4.208   0.162   8.672  0.1801  0.1039  0.3708
    7MOL0     C  837   4.206   0.042   8.751  0.3411  0.6051  0.9287
    7MOL0     C  838   4.322  -0.048   8.701  0.2023  0.5627  0.2340
    7MOL0     C  839   4.451   0.028   8.725  0.1410  1.0884  0.6282
    7MOL0     C  840   4.559  -0.073   8.685  0.5139  0.2379  0.2158
    7MOL0     C  841   4.688  -0.005   8.716  0.1333  0.0039 -0.0592
    7MOL0     C  842   4.808  -0.078   8.654 -0.0067  0.9217 -0.3903
    7MOL0     C  843   4.814  -0.226   8.682 -0.8567 -0.3740  0.5618
    7MOL0     C  844   4.845  -0.247   8.826 -0.6663 -0.4366  0.4147
    7MOL0     N  845   4.826  -0.389   8.848  0.7150 -0.1448 -0.4512
    7MOL0     C  846   4.727  -0.451   8.925  0.2000  0.6993  0.6150
    7MOL0     C  847   4.761  -0.575   8.923  0.0407  0.2760  0.4975
    7MOL0     C  848   4.696  -0.692   9.001  0.3496 -1.1748 -0.3408
    7MOL0     C  849   4.727  -0.687   9.150 -0.5174  0.2974  0.7124
    7MOL0     C  850   4.860  -0.770   9.179  0.0012  0.1502  0.3646
    7MOL0     C  851   4.879  -0.773   9.334  0.3083  0.3623  0.8898
    7MOL0     O  852   4.896  -0.636   9.372 -0.2444  0.0812  0.5285
    7MOL0     C  853   5.024  -0.588   9.362 -0.2716 -0.1512  0.0292
    7MOL0     C  854   5.056  -0.519   9.248  0.5460 -0.9880  0.5717
    7MOL0     C  855   5.181  -0.465   9.221  0.5544 -0.3070 -0.2219
    7MOL0     C  856   5.201  -0.412   9.081 -0.3988 -0.5921  0.4154
    7MOL0     C  857   5.274  -0.476   9.329 -0.5989  0.6102 -0.1469
    7MOL0     C  858   5.415  -0.437   9.307 -0.3359  0.2861 -0.3432
    7MOL0     O  859   5.493  -0.482   9.406 -0.3377 -0.0825  0.4081
    7MOL0     C  860   5.625  -0.462   9.406  0.0126  0.4040 -0.5574
    7MOL0     C  861   5.685  -0.404   9.518 -0.2724 -0.0639  0.9511
    7MOL0     C  862   5.825  -0.384   9.513  0.8488 -0.7040  0.0215
    7MOL0     C  863   5.905  -0.398   9.401  0.4935  1.0295  0.3381
    7MOL0     O  864   6.030  -0.375   9.393 -0.3413  0.2607 -0.1314
    7MOL0     C  865   6.063  -0.241   9.383  0.2852 -0.2892  0.1833
    7MOL0     C  866   6.209  -0.202   9.420 -0.5647  0.7042 -0.0266
    7MOL0     C  867   6.313  -0.237   9.318 -0.5489  0.7075  1.0973
    7MOL0     C  868   6.450  -0.173   9.345  0.3429 -0.4736  1.6126
    7MOL0     C  869   6.526  -0.243   9.460 -0.6224  0.5049  0.2809
    7MOL0     C  870   6.673  -0.201   9.455 -0.3406  0.0052 -0.2313
    7MOL0     C  871   6.713  -0.044   9.461 -0.9302  0.1327  0.7370
    7MOL0     C  872   6.674   0.011   9.595  0.3124 -0.5293 -0.7101
    7MOL0    Cl  873   6.753  -0.069   9.733 -0.1555  0.0184 -0.2566
    7MOL0     C  874   5.842  -0.463   9.296 -0.0708 -0.2894  0.0832
    7MOL0     C  875   5.702  -0.491   9.297  0.8791  0.3460  0.2171
    7MOL0     O  876   5.454  -0.379   9.206 -0.1887 -0.0709 -0.1723
    7MOL0     C  877   5.236  -0.536   9.450 -0.3983 -0.0945 -0.2795
    7MOL0     C  878   5.109  -0.588   9.472 -0.3075  0.5125  0.0440
    7MOL0     N  879   4.885  -0.595   8.856  0.1103  0.0321 -0.1581
    7MOL0     N  880   4.921  -0.481   8.806  0.0393  0.0137 -0.0033
    7MOL0     C  881   3.984   0.180   8.567  0.1715  0.1348 -0.0541
    7MOL0     C  882   3.858   0.250   8.553  0.5951 -0.0994  0.0970
    7MOL0     C  883   3.487   0.490   8.654 -0.8220  0.6201  0.1115
    7MOL0     C  884   3.487   0.547   8.526 -0.8156  0.1969 -0.0877
    7MOL0     C  885   3.376   0.624   8.485 -0.7139  0.7497  0.0764
    7MOL0     C  886   3.261   0.615   8.562  0.7033 -0.4589  0.3189
    7MOL0     O  887   3.138   0.682   8.530 -0.1875 -0.9143  0.3122
    7MOL0     C  888   3.119   0.740   8.392 -0.0865  0.7088  0.3063
    7MOL0     C  889   3.017   0.845   8.411 -1.0963  0.1361  0.2269
    7MOL0     C  890   2.960   0.864   8.275  0.3272 -0.7551  0.6261
    7MOL0     C  891   2.858   0.981   8.284 -0.1063 -0.0568 -0.1950
    7MOL0     C  892   2.783   0.986   8.162  0.2935 -0.4399 -0.2528
    7MOL0     C  893   2.722   0.987   8.055  0.1107  0.1203 -0.8579
    7MOL0     C  894   3.260   0.554   8.688  1.2210 -0.3613  0.2648
    7MOL0     C  895   3.372   0.494   8.737  0.3771  0.5733 -0.2493
    7MOL0     C  896   3.360   0.451   8.886 -0.6697  0.5175 -0.6973
    7MOL0     H  897   3.894   0.463   8.814 -1.1448 -0.3658  0.1768
    7MOL0     H  898   4.121   0.341   8.827  0.3851 -1.1972 -0.3621
    7MOL0     H  899   4.112  -0.011   8.736  0.8710 -0.2076  0.3536
    7MOL0     H  900   4.218   0.062   8.858  0.4262 -1.8731  1.4437
    7MOL0     H  901   4.321  -0.145   8.752 -0.2146  1.4268  1.9687
    7MOL0     H  902   4.303  -0.068   8.595  1.9083  3.0798 -0.6296
    7MOL0     H  903   4.457   0.123   8.671  1.9419  1.1387  0.8545
    7MOL0     H  904   4.466   0.050   8.831 -1.1233  0.6163  0.9197
    7MOL0     H  905   4.555  -0.165   8.743 -0.1300  0.0508 -0.1289
    7MOL0     H  906   4.551  -0.095   8.579 -1.1643 -1.3909  0.6379
    7MOL0     H  907   4.694   0.010   8.824  0.4626  3.2357 -0.4266
    7MOL0     H  908   4.688   0.099   8.684 -0.7194 -0.3924 -1.4572
    7MOL0     H  909   4.818  -0.075   8.545  0.8011  0.7964 -0.3261
    7MOL0     H  910   4.901  -0.035   8.693 -0.5246 -0.5286  2.7502
    7MOL0     H  911   4.899  -0.256   8.620 -1.7227  1.4704 -1.6838
    7MOL0     H  912   4.734  -0.288   8.640 -1.2190 -0.2353  1.0435
    7MOL0     H  913   4.948  -0.211   8.833 -1.0394  0.5854  0.7590
    7MOL0     H  914   4.785  -0.183   8.892  0.3623  0.0672  0.8895
    7MOL0     H  915   4.649  -0.398   8.978  0.4813  1.0528  0.6770
    7MOL0     H  916   4.734  -0.786   8.962  0.9396 -1.7802  1.5612
    7MOL0     H  917   4.588  -0.680   8.987  0.1908 -1.5181  0.4877
    7MOL0     H  918   4.736  -0.587   9.192  1.0605  0.4377  0.1122
    7MOL0     H  919   4.646  -0.741   9.200  1.4496 -2.8347  0.7821
    7MOL0     H  920   4.864  -0.874   9.145 -2.9317  0.2134 -0.4547
    7MOL0     H  921   4.941  -0.718   9.128 -2.1574  3.6008  0.1123
    7MOL0     H  922   4.795  -0.822   9.383  0.0957 -2.3016 -1.8979
    7MOL0     H  923   4.967  -0.831   9.364 -0.8675 -3.4517 -2.1895
    7MOL0     H  924   4.981  -0.511   9.170  0.7539 -0.4619  0.4228
    7MOL0     H  925   5.116  -0.431   9.015 -1.8565 -1.4237  2.4165
    7MOL0     H  926   5.280  -0.477   9.043  0.7205  0.1088  1.4621
    7MOL0     H  927   5.221  -0.305   9.072 -0.4010 -0.5793  0.5713
    7MOL0     H  928   5.633  -0.389   9.613  0.6836  1.6855  1.2464
    7MOL0     H  929   5.865  -0.340   9.604  0.4238  0.4828 -0.3419
    7MOL0     H  930   6.037  -0.219   9.279  1.5812  0.9602  0.0914
    7MOL0     H  931   5.998  -0.185   9.449 -0.9476  1.5159 -2.3927
    7MOL0     H  932   6.214  -0.093   9.422 -0.0332  0.8582 -3.7826
    7MOL0     H  933   6.239  -0.254   9.512 -0.5462  0.5952 -0.0946
    7MOL0     H  934   6.275  -0.203   9.221  1.7034  0.1996 -0.0141
    7MOL0     H  935   6.333  -0.345   9.316 -1.2336  0.5614  1.5238
    7MOL0     H  936   6.445  -0.066   9.366  2.3861  0.2219 -0.9397
    7MOL0     H  937   6.512  -0.185   9.255 -2.3039 -1.6280 -0.1992
    7MOL0     H  938   6.472  -0.222   9.553 -0.6219  2.3097 -0.0812
    7MOL0     H  939   6.519  -0.350   9.442 -1.3226  0.9696 -2.7469
    7MOL0     H  940   6.714  -0.256   9.370 -1.1082  0.2738 -0.7800
    7MOL0     H  941   6.713  -0.245   9.547 -1.1009  0.3494  0.2690
    7MOL0     H  942   6.653   0.000   9.381 -1.8757 -2.4275 -0.0873
    7MOL0     H  943   6.821  -0.034   9.446 -1.2562  1.6066 -1.0334
    7MOL0     H  944   6.566   0.017   9.612  0.6709 -0.4302  2.0823
    7MOL0     H  945   6.707   0.115   9.595  2.6405 -1.1868 -2.5230
    7MOL0     H  946   5.909  -0.479   9.212  0.5955 -0.1268  0.5834
    7MOL0     H  947   5.653  -0.533   9.209  0.4926 -0.2695  0.7210
    7MOL0     H  948   5.300  -0.549   9.538 -0.1857 -1.1965 -0.5850
    7MOL0     H  949   5.073  -0.636   9.563  1.4241 -0.7314  0.1122
    7MOL0     H  950   4.021   0.102   8.501  0.0824 -0.3878  0.5046
    7MOL0     H  951   3.792   0.209   8.478  3.3827 -1.4089 -1.8086
    7MOL0     H  952   3.572   0.536   8.460  1.5933  1.3293  2.6402
    7MOL0     H  953   3.370   0.683   8.394 -1.4116  1.9162  0.8402
    7MOL0     H  954   3.212   0.785   8.359 -0.0891  1.8816  1.7525
    7MOL0     H  955   3.082   0.660   8.327 -1.3775  2.3347 -1.0554
    7MOL0     H  956   3.077   0.930   8.445  2.7094 -2.5821  0.9397
    7MOL0     H  957   2.942   0.820   8.487 -2.7834  0.0077 -1.4089
    7MOL0     H  958   3.045   0.889   8.211  0.2097  1.5616  1.3101
    7MOL0     H  959   2.902   0.776   8.244 -1.6227 -0.1908  2.4439
    7MOL0     H  960   2.912   1.074   8.301 -0.3077 -0.0937  0.6640
    7MOL0     H  961   2.786   0.968   8.365 -0.0002  0.8928  0.0526
    7MOL0     H  962   2.681   0.975   7.957 -0.5299 -2.6082 -0.3336
    7MOL0     H  963   3.173   0.548   8.752  0.2975 -2.0075 -1.0577
    7MOL0     H  964   3.446   0.492   8.939 -1.3092  0.2194  0.6076
    7MOL0     H  965   3.280   0.503   8.940  1.2290  0.2840  2.6189
    7MOL0     H  966   3.358   0.342   8.893 -0.7436  0.2045 -3.9064
    8MOL0     O  967   0.611   8.773   1.383  0.6384  0.1004  0.7677
    8MOL0     C  968   0.580   8.834   1.281 -1.5555  1.2451  0.0021
    8MOL0     O  969   0.658   8.931   1.221 -0.4563 -0.1147  0.0246
    8MOL0     C  970   0.780   8.884   1.169 -0.1703  0.3137 -1.1009
    8MOL0     C  971   0.829   8.753   1.175  0.6784  0.8043 -0.4109
    8MOL0     C  972   0.954   8.708   1.130  0.9327 -0.5235  0.5361
    8MOL0     C  973   1.043   8.796   1.060 -0.5214  0.0244  0.1593
    8MOL0     O  974   1.172   8.772   1.013  0.0314  0.6074  0.4588
    8MOL0     C  975   1.242   8.660   1.061  0.0611 -0.1103  0.0263
    8MOL0     C  976   1.373   8.639   0.985 -0.6372 -0.5288 -0.8865
    8MOL0     C  977   1.452   8.521   1.048 -0.2513 -0.3066 -0.4923
    8MOL0     C  978   1.583   8.479   0.984 -0.1303  0.5317 -0.1370
    8MOL0     C  979   1.677   8.398   1.073 -0.7684  1.5650 -0.3447
    8MOL0     C  980   1.646   8.248   1.078 -0.7099  0.2012  0.3256
    8MOL0     C  981   1.693   8.170   1.200  0.0135 -0.1565  0.2886
    8MOL0     C  982   1.841   8.131   1.193 -0.2140  0.8601 -0.0027
    8MOL0     N  983   1.885   8.061   1.315  0.0996  0.3697  0.5666
    8MOL0     C  984   1.860   7.934   1.347 -0.2829 -0.0572  0.6769
    8MOL0     C  985   1.908   7.927   1.474 -0.1095 -0.1889 -0.2024
    8MOL0     C  986   1.924   7.805   1.551 -0.3845  0.0054  0.1593
    8MOL0     C  987   2.051   7.799   1.640 -0.0630 -0.4470 -0.8029
    8MOL0     C  988   2.047   7.658   1.703 -1.2905  0.2801  0.2978
    8MOL0     C  989   2.188   7.606   1.730 -0.1908 -0.3650 -0.7820
    8MOL0     O  990   2.253   7.686   1.835 -1.0211  0.1317 -0.9261
    8MOL0     C  991   2.356   7.622   1.898 -0.1425 -0.1379  0.6896
    8MOL0     C  992   2.454   7.545   1.838 -0.4508  0.6142 -0.0699
    8MOL0     C  993   2.563   7.488   1.924 -0.5534  0.0793  0.1116
    8MOL0     C  994   2.666   7.395   1.856 -0.6629 -0.7529  0.7590
    8MOL0     C  995   2.573   7.516   2.068  0.2215  0.4374  0.0990
    8MOL0     C  996   2.672   7.466   2.160  0.6307 -0.0912 -1.1576
    8MOL0     O  997   2.624   7.435   2.279 -0.7643 -0.9792 -0.5538
    8MOL0     C  998   2.710   7.381   2.367  0.4123  0.0228 -0.4045
    8MOL0     C  999   2.686   7.247   2.403 -0.2176  0.3304  0.2823
    8MOL0     C 1000   2.772   7.183   2.486  0.2602 -0.1420  0.5449
    8MOL0     C 1001   2.874   7.258   2.560 -0.9649  0.2484 -0.2861
    8MOL0     O 1002   2.952   7.204   2.668  0.5678 -0.1696 -0.0277
    8MOL0     C 1003   2.909   7.089   2.747 -0.7856  0.3626  0.5130
    8MOL0     C 1004   2.978   6.967   2.713 -0.4149 -0.2380  0.3760
    8MOL0     C 1005   3.132   6.975   2.727  0.2820  0.3032 -0.9158
    8MOL0     C 1006   3.187   6.858   2.641  0.1407 -0.0081  0.7410
    8MOL0     C 1007   3.334   6.828   2.679  0.8646  0.5059 -0.1380
    8MOL0     C 1008   3.405   6.718   2.592  0.3133 -0.0802 -0.1098
    8MOL0     C 1009   3.530   6.666   2.649  0.2119  0.3966 -0.3325
    8MOL0     C 1010   3.531   6.650   2.804 -0.8969 -0.1332 -0.1216
    8MOL0    Cl 1011   3.661   6.541   2.850  0.3660 -0.3234 -0.2364
    8MOL0     C 1012   2.885   7.397   2.533 -0.0402 -0.5172  0.4535
    8MOL0     C 1013   2.801   7.454   2.436  0.6472  0.1692 -0.2780
    8MOL0     O 1014   2.780   7.429   2.113  0.2257 -0.3404  0.0788
    8MOL0     C 1015   2.481   7.611   2.113  0.0001  0.3076  0.0089
    8MOL0     C 1016   2.373   7.662   2.035 -0.3281  0.1663  0.1329
    8MOL0     N 1017   1.955   8.054   1.517 -0.0791  0.9606  0.1451
    8MOL0     N 1018   1.931   8.138   1.420  0.3361 -0.3965 -0.4316
    8MOL0     C 1019   0.990   8.926   1.044 -0.1760  0.0459 -0.1854
    8MOL0     C 1020   0.862   8.970   1.086  0.6945 -0.0576 -0.6374
    8MOL0     C 1021   0.447   8.827   1.225  0.3392 -1.4359 -0.2894
    8MOL0     C 1022   0.388   8.940   1.153 -0.1364 -0.1877 -0.5450
    8MOL0     C 1023   0.265   8.931   1.098  0.3144 -0.0937 -1.2535
    8MOL0     C 1024   0.184   8.824   1.121 -0.2259  0.5199 -0.9014
    8MOL0     O 1025   0.057   8.839   1.060 -0.6052  0.6205 -0.2797
    8MOL0     C 1026  -0.016   8.719   1.016  0.0052  0.0730  0.9865
    8MOL0     C 1027   0.051   8.672   0.886 -0.2573  0.1946 -0.0513
    8MOL0     C 1028  -0.027   8.591   0.781  0.1726  0.1411 -0.0873
    8MOL0     C 1029  -0.122   8.495   0.840  0.3856  0.5242  0.5215
    8MOL0     C 1030  -0.052   8.380   0.904  0.3057 -0.4972 -0.2503
    8MOL0     C 1031   0.002   8.284   0.953  0.1483 -0.0029 -0.5003
    8MOL0     C 1032   0.232   8.714   1.198  0.1628 -0.3877 -0.2546
    8MOL0     C 1033   0.369   8.707   1.234 -0.2224 -0.5456 -0.1795
    8MOL0     C 1034   0.416   8.579   1.286  0.1925  0.2779  0.5693
    8MOL0     H 1035   0.779   8.679   1.236  0.9591  1.0660  0.1373
    8MOL0     H 1036   0.988   8.608   1.156 -1.2263 -1.2978  0.5511
    8MOL0     H 1037   1.188   8.565   1.048  3.1013 -1.5622 -4.8597
    8MOL0     H 1038   1.264   8.691   1.163 -1.3971  4.0583 -0.7541
    8MOL0     H 1039   1.356   8.596   0.885  2.8206 -2.4687 -0.7966
    8MOL0     H 1040   1.436   8.727   0.974 -0.8445 -0.2657  0.0202
    8MOL0     H 1041   1.470   8.549   1.152  0.6877  0.8781 -0.9500
    8MOL0     H 1042   1.387   8.433   1.050 -2.2616  1.1359  0.5516
    8MOL0     H 1043   1.564   8.410   0.901 -0.4768 -0.9141  1.1161
    8MOL0     H 1044   1.631   8.566   0.937 -2.9523  1.5292 -1.4345
    8MOL0     H 1045   1.682   8.444   1.172 -0.2845 -0.5847  0.6804
    8MOL0     H 1046   1.779   8.413   1.038  0.3314  2.4880  2.9430
    8MOL0     H 1047   1.537   8.241   1.071 -0.8057 -2.6813  2.5391
    8MOL0     H 1048   1.690   8.191   0.995  0.1914 -1.3925  1.8341
    8MOL0     H 1049   1.636   8.078   1.215 -0.7723  0.1287 -0.8554
    8MOL0     H 1050   1.678   8.236   1.286  2.6725  2.0779 -0.7780
    8MOL0     H 1051   1.856   8.061   1.111  2.6732  0.5209  0.7088
    8MOL0     H 1052   1.899   8.219   1.166 -2.1470  1.3055 -3.0929
    8MOL0     H 1053   1.823   7.861   1.275 -1.2535  3.9033 -3.2458
    8MOL0     H 1054   1.929   7.721   1.482  1.7850  1.1124 -1.1199
    8MOL0     H 1055   1.839   7.806   1.620 -0.3155 -0.4626  0.2496
    8MOL0     H 1056   2.135   7.810   1.570  0.6651  0.4171  0.1862
    8MOL0     H 1057   2.052   7.874   1.719 -0.2516 -2.4792  1.2343
    8MOL0     H 1058   2.007   7.663   1.805 -2.4636 -2.6579  0.0914
    8MOL0     H 1059   1.990   7.582   1.648  1.6405 -2.5397  0.8541
    8MOL0     H 1060   2.177   7.503   1.764 -1.1262  0.2958  1.1101
    8MOL0     H 1061   2.244   7.596   1.637 -0.0284  0.7132 -0.8199
    8MOL0     H 1062   2.454   7.533   1.730 -0.9481  2.1535 -0.2529
    8MOL0     H 1063   2.672   7.297   1.904  0.2547 -0.7576  0.6576
    8MOL0     H 1064   2.759   7.451   1.843 -1.0228 -0.4915 -0.8997
    8MOL0     H 1065   2.639   7.376   1.752  0.1783  0.0010  0.3828
    8MOL0     H 1066   2.603   7.193   2.358 -0.7114  2.8006 -1.9955
    8MOL0     H 1067   2.761   7.076   2.497 -0.3270 -0.0377  1.0547
    8MOL0     H 1068   2.918   7.113   2.853 -2.7144 -0.1456  0.8394
    8MOL0     H 1069   2.802   7.068   2.737 -0.4676 -0.7346 -0.7987
    8MOL0     H 1070   2.944   6.894   2.787  0.8662 -0.8985  0.3474
    8MOL0     H 1071   2.951   6.946   2.609  3.8556 -2.7399 -0.4601
    8MOL0     H 1072   3.171   6.960   2.828  0.5418 -1.3454 -1.2253
    8MOL0     H 1073   3.168   7.067   2.680  1.7008  0.6134  0.6857
    8MOL0     H 1074   3.192   6.882   2.534  3.0354  0.1938  0.8429
    8MOL0     H 1075   3.121   6.773   2.660 -1.5711  1.1790  0.4347
    8MOL0     H 1076   3.400   6.915   2.676  1.3895  0.0864 -1.7731
    8MOL0     H 1077   3.323   6.804   2.785 -2.7439 -0.8941 -0.6855
    8MOL0     H 1078   3.422   6.747   2.488 -0.5834  0.0769 -0.2203
    8MOL0     H 1079   3.337   6.633   2.579  0.3814  0.0419 -1.4038
    8MOL0     H 1080   3.609   6.734   2.617 -1.1983  1.9677 -0.6022
    8MOL0     H 1081   3.556   6.568   2.606  0.5786 -0.4841  1.7671
    8MOL0     H 1082   3.433   6.611   2.833 -1.6006  1.4350 -0.2860
    8MOL0     H 1083   3.552   6.745   2.854  2.2487 -1.0210  0.5003
    8MOL0     H 1084   2.949   7.463   2.591  0.5914 -0.7189 -0.0087
    8MOL0     H 1085   2.796   7.562   2.420  1.5297  0.0205 -1.7903
    8MOL0     H 1086   2.488   7.643   2.216  3.0560  5.3715 -1.4494
    8MOL0     H 1087   2.304   7.734   2.075 -0.0816 -1.1397  3.2220
    8MOL0     H 1088   1.049   9.003   0.995 -0.9928 -0.1977 -1.5874
    8MOL0     H 1089   0.821   9.070   1.081 -0.9837 -0.5090  2.0541
    8MOL0     H 1090   0.454   9.025   1.140 -0.1926  0.7641  3.7492
    8MOL0     H 1091   0.221   9.014   1.042 -2.6184 -1.4172 -1.1153
    8MOL0     H 1092  -0.015   8.639   1.091 -0.2282  1.8968  3.0352
    8MOL0     H 1093  -0.114   8.756   0.984  0.5419  1.2060  0.5806
    8MOL0     H 1094   0.141   8.613   0.906 -0.3841 -1.0782 -2.8637
    8MOL0     H 1095   0.092   8.758   0.832 -3.0322  1.2456 -0.6225
    8MOL0     H 1096  -0.100   8.649   0.724 -0.3012 -1.0849 -0.7648
    8MOL0     H 1097   0.044   8.548   0.710 -0.1826 -1.7607  0.6330
    8MOL0     H 1098  -0.184   8.457   0.759  3.3018 -0.7395 -1.2887
    8MOL0     H 1099  -0.193   8.544   0.908  0.5066 -3.2269  3.7293
    8MOL0     H 1100   0.045   8.206   1.011 -2.7127 -0.5511  1.0412
    8MOL0     H 1101   0.166   8.628   1.205  1.2017 -1.6459 -3.7535
    8MOL0     H 1102   0.336   8.504   1.282 -1.7447  2.1569  1.9830
    8MOL0     H 1103   0.494   8.545   1.217 -1.7400 -0.2060 -1.5138
    8MOL0     H 1104   0.453   8.579   1.389 -1.4998  0.6442  1.2156
    9MOL0     O 1105   9.379   1.513   5.232 -0.6629 -0.8125  0.2118
    9MOL0     C 1106   9.287   1.476   5.293  0.6394 -0.6803  0.8256
    9MOL0     O 1107   9.296   1.395   5.398 -0.0820  0.2075 -0.6707
    9MOL0     C 1108   9.405   1.415   5.486  0.1262 -0.3146  0.7257
    9MOL0     C 1109   9.452   1.308   5.567  0.3185  0.5489  0.0608
    9MOL0     C 1110   9.568   1.315   5.644 -0.2369 -0.4864  0.6785
    9MOL0     C 1111   9.647   1.431   5.652  0.7985 -0.8045  0.2814
    9MOL0     O 1112   9.767   1.447   5.716 -0.2238  0.2214 -0.2818
    9MOL0     C 1113   9.843   1.323   5.712 -0.5748 -0.1226  0.6038
    9MOL0     C 1114   9.986   1.349   5.777 -0.3200 -1.2448 -0.1568
    9MOL0     C 1115  10.079   1.426   5.678  0.7744  0.0282 -0.5408
    9MOL0     C 1116  10.221   1.439   5.728  0.4819  0.2070  0.2357
    9MOL0     C 1117  10.303   1.508   5.620  0.9934 -0.2582  0.1440
    9MOL0     C 1118  10.432   1.570   5.661 -0.2827  0.3394  0.6267
    9MOL0     C 1119  10.493   1.673   5.565 -0.6200  0.1702 -0.1375
    9MOL0     C 1120  10.627   1.736   5.621 -0.4312 -0.0532 -0.0843
    9MOL0     N 1121  10.738   1.649   5.586 -0.3212 -0.9544 -0.5630
    9MOL0     C 1122  10.825   1.661   5.478  0.9162  0.2839  1.0998
    9MOL0     C 1123  10.916   1.568   5.507  0.5350  0.2533 -0.8522
    9MOL0     C 1124  11.040   1.538   5.420  0.7930 -0.7521 -0.0860
    9MOL0     C 1125  11.112   1.674   5.377  0.5318  0.8972  0.9151
    9MOL0     C 1126  11.158   1.767   5.486  0.1752 -0.6458  0.5924
    9MOL0     C 1127  11.298   1.729   5.535  0.0155 -0.0998  0.1125
    9MOL0     O 1128  11.392   1.726   5.425 -0.1408 -0.1627  0.6046
    9MOL0     C 1129  11.523   1.716   5.460  0.2606 -0.4962  0.0925
    9MOL0     C 1130  11.568   1.703   5.591  0.3139 -0.6832  0.4961
    9MOL0     C 1131  11.702   1.674   5.625  0.5286  1.0515  0.6375
    9MOL0     C 1132  11.740   1.649   5.771 -0.3737 -0.0665 -0.2058
    9MOL0     C 1133  11.803   1.659   5.519  0.2931 -0.5911  0.4209
    9MOL0     C 1134  11.954   1.650   5.536  0.1294 -0.0668 -0.1853
    9MOL0     O 1135  12.025   1.696   5.421  0.1015  0.3936  0.2777
    9MOL0     C 1136  12.162   1.674   5.418  0.6790 -0.1888  0.0583
    9MOL0     C 1137  12.215   1.624   5.309  0.3641 -0.0926  0.6474
    9MOL0     C 1138  12.356   1.601   5.297  0.4823  0.7222 -0.7098
    9MOL0     C 1139  12.435   1.611   5.413  0.0595  0.2573 -0.8429
    9MOL0     O 1140  12.570   1.587   5.428  0.2292  0.2171  0.2705
    9MOL0     C 1141  12.646   1.593   5.309 -0.4484  0.6480 -0.3949
    9MOL0     C 1142  12.790   1.608   5.349 -0.8376 -0.0954  0.6084
    9MOL0     C 1143  12.860   1.628   5.215 -0.3915 -0.8071 -0.4219
    9MOL0     C 1144  13.004   1.595   5.244  0.9371 -0.0206 -0.7272
    9MOL0     C 1145  13.102   1.610   5.130  0.0365 -0.1560  0.8587
    9MOL0     C 1146  13.238   1.549   5.158  1.1852 -1.3352  0.4962
    9MOL0     C 1147  13.340   1.574   5.048  0.9363  0.9901  0.4815
    9MOL0     C 1148  13.468   1.498   5.090 -0.0702 -1.0758  0.4926
    9MOL0    Cl 1149  13.571   1.480   4.938 -0.3384 -0.3613  0.0488
    9MOL0     C 1150  12.383   1.676   5.520  0.4426  0.1128  0.6434
    9MOL0     C 1151  12.245   1.703   5.524  1.5905  1.2148 -0.6327
    9MOL0     O 1152  12.006   1.591   5.628 -0.4834  0.0742 -0.1379
    9MOL0     C 1153  11.751   1.673   5.386  0.1542 -0.0148  0.0531
    9MOL0     C 1154  11.617   1.703   5.362 -0.5899  0.0569 -0.1686
    9MOL0     N 1155  10.889   1.496   5.615 -0.9685  0.4722  0.1972
    9MOL0     N 1156  10.781   1.544   5.667  1.0536  0.7947 -0.0265
    9MOL0     C 1157   9.593   1.548   5.584  0.0659  0.0349  0.1421
    9MOL0     C 1158   9.480   1.534   5.499 -0.5549 -0.0011  0.2989
    9MOL0     C 1159   9.147   1.483   5.232 -0.1034 -0.7516  0.8229
    9MOL0     C 1160   9.069   1.365   5.224  0.2355 -0.4223  1.2518
    9MOL0     C 1161   8.944   1.357   5.163  1.3510 -0.1455 -0.3579
    9MOL0     C 1162   8.886   1.472   5.109  0.4054  0.0507 -0.4050
    9MOL0     O 1163   8.757   1.484   5.055 -0.4482 -0.2349 -0.4020
    9MOL0     C 1164   8.677   1.366   5.029  0.2387 -0.0659 -0.1406
    9MOL0     C 1165   8.544   1.418   4.968  0.2217  0.0922  0.1344
    9MOL0     C 1166   8.429   1.315   4.961  0.9515  0.4788  0.0561
    9MOL0     C 1167   8.469   1.176   4.915 -0.1088  0.0627 -0.2927
    9MOL0     C 1168   8.544   1.098   5.013 -0.8736  0.3280 -0.0728
    9MOL0     C 1169   8.591   1.014   5.088 -0.0976  0.1728 -0.6546
    9MOL0     C 1170   8.958   1.594   5.125  0.6876 -0.0446  0.1850
    9MOL0     C 1171   9.087   1.599   5.185  0.1851 -0.2045 -0.0610
    9MOL0     C 1172   9.129   1.734   5.236  0.0019 -0.3915  0.5245
    9MOL0     H 1173   9.400   1.213   5.564  0.0240  0.7290 -1.5939
    9MOL0     H 1174   9.585   1.228   5.707 -0.8551 -2.1029 -1.3053
    9MOL0     H 1175   9.858   1.296   5.607  1.2904 -0.7089  0.9952
    9MOL0     H 1176   9.785   1.244   5.761 -1.1256 -1.1327 -1.5301
    9MOL0     H 1177   9.982   1.407   5.869 -1.1955 -0.6021 -0.5925
    9MOL0     H 1178  10.031   1.252   5.803 -0.5515 -1.3404 -0.1137
    9MOL0     H 1179  10.074   1.374   5.582 -0.0693 -0.4199 -0.2545
    9MOL0     H 1180  10.032   1.524   5.670  2.6296  1.0037 -0.1347
    9MOL0     H 1181  10.242   1.501   5.815  4.2904 -2.0599  1.1576
    9MOL0     H 1182  10.266   1.341   5.748  2.3939  1.1942  1.0738
    9MOL0     H 1183  10.240   1.592   5.590 -1.0230 -1.8862 -0.3772
    9MOL0     H 1184  10.310   1.446   5.530 -0.1820 -1.5231  0.8857
    9MOL0     H 1185  10.431   1.616   5.761 -1.7764 -0.0488  0.8076
    9MOL0     H 1186  10.504   1.489   5.679 -0.8571 -0.1272  0.8725
    9MOL0     H 1187  10.421   1.754   5.551  0.6011  0.8385 -3.4874
    9MOL0     H 1188  10.509   1.635   5.463 -0.0417 -2.8095  0.9572
    9MOL0     H 1189  10.647   1.839   5.589  0.6534 -0.1624  0.1916
    9MOL0     H 1190  10.619   1.747   5.730 -0.8998  2.6412 -0.3124
    9MOL0     H 1191  10.820   1.728   5.392 -2.1503  0.3316  1.2032
    9MOL0     H 1192  11.024   1.472   5.335  1.0895  1.1170 -1.6736
    9MOL0     H 1193  11.114   1.483   5.479  0.4954 -2.2754 -1.0944
    9MOL0     H 1194  11.195   1.640   5.313  0.4841 -1.3332  1.9345
    9MOL0     H 1195  11.044   1.719   5.305  2.3888 -0.4175 -1.8268
    9MOL0     H 1196  11.166   1.870   5.449 -4.1228  0.2160  1.5692
    9MOL0     H 1197  11.087   1.773   5.569  0.4076 -0.3134  0.7716
    9MOL0     H 1198  11.334   1.808   5.602  2.6378  0.2877 -1.5789
    9MOL0     H 1199  11.302   1.634   5.589 -0.9686  0.0043  0.3772
    9MOL0     H 1200  11.508   1.697   5.681  1.4056  0.9309  1.3962
    9MOL0     H 1201  11.813   1.721   5.808  0.9302  0.4237 -3.4522
    9MOL0     H 1202  11.786   1.552   5.792 -1.2555  0.2054  3.6293
    9MOL0     H 1203  11.654   1.658   5.838 -0.4647 -2.8804  0.1819
    9MOL0     H 1204  12.149   1.593   5.228 -0.9469  1.4616  1.0599
    9MOL0     H 1205  12.404   1.562   5.207 -0.8018 -4.2302  0.4155
    9MOL0     H 1206  12.627   1.500   5.254 -2.4949  1.7488 -1.6564
    9MOL0     H 1207  12.622   1.685   5.255 -0.1951  0.9450 -0.0023
    9MOL0     H 1208  12.792   1.689   5.423  1.3299 -1.1293  1.7846
    9MOL0     H 1209  12.825   1.515   5.394 -1.8257 -0.7177  0.1187
    9MOL0     H 1210  12.853   1.731   5.178 -2.0109 -1.0653 -0.9023
    9MOL0     H 1211  12.814   1.564   5.140 -4.8403 -0.7382  1.9376
    9MOL0     H 1212  13.005   1.488   5.268 -1.2063 -0.0454 -0.5760
    9MOL0     H 1213  13.035   1.650   5.333 -0.0232  0.2196 -0.5359
    9MOL0     H 1214  13.058   1.558   5.044 -1.5998  0.9818  0.9718
    9MOL0     H 1215  13.111   1.714   5.098  0.9742 -0.0100  1.5518
    9MOL0     H 1216  13.229   1.441   5.176 -0.3472 -1.0833  1.3468
    9MOL0     H 1217  13.273   1.602   5.247 -0.2172 -1.5649  1.2145
    9MOL0     H 1218  13.354   1.681   5.033 -0.4788  1.0011 -1.2021
    9MOL0     H 1219  13.307   1.530   4.953  2.7243 -1.8639  1.0642
    9MOL0     H 1220  13.451   1.405   5.145 -1.5203 -1.3734 -0.3996
    9MOL0     H 1221  13.509   1.563   5.168 -0.7025 -0.2904  0.1827
    9MOL0     H 1222  12.440   1.698   5.610 -0.0854  3.1273  0.3300
    9MOL0     H 1223  12.215   1.745   5.619 -1.1901  0.0926 -0.9200
    9MOL0     H 1224  11.822   1.656   5.306 -1.3330  0.2479 -1.3849
    9MOL0     H 1225  11.600   1.712   5.255 -3.9399 -1.7767  0.0633
    9MOL0     H 1226   9.635   1.648   5.590  0.1487 -0.0712  2.8901
    9MOL0     H 1227   9.458   1.620   5.438 -1.4116 -0.3871  0.0498
    9MOL0     H 1228   9.102   1.271   5.268  2.7551  0.6211  1.7608
    9MOL0     H 1229   8.898   1.260   5.149 -1.3941  1.0985 -0.6219
    9MOL0     H 1230   8.726   1.301   4.956  1.5965  0.5474  0.1908
    9MOL0     H 1231   8.667   1.308   5.122  0.6239  0.1494  0.0388
    9MOL0     H 1232   8.574   1.461   4.872  0.2485 -2.2327 -0.9756
    9MOL0     H 1233   8.503   1.494   5.035  2.8074  1.5316  0.2126
    9MOL0     H 1234   8.400   1.305   5.066 -1.5335  1.9179 -0.4113
    9MOL0     H 1235   8.335   1.340   4.909 -0.2674 -3.1342  0.2511
    9MOL0     H 1236   8.527   1.187   4.823  0.1572  1.4084  0.0035
    9MOL0     H 1237   8.377   1.130   4.880 -1.2810  2.8335 -1.1458
    9MOL0     H 1238   8.637   0.947   5.158 -0.4678 -2.6066 -2.9223
    9MOL0     H 1239   8.903   1.685   5.100 -1.7902 -1.6146 -0.3762
    9MOL0     H 1240   9.194   1.737   5.324  1.2103  1.0700 -0.3718
    9MOL0     H 1241   9.189   1.773   5.153  0.5708 -0.8710  0.6970
    9MOL0     H 1242   9.040   1.795   5.249  0.0369  0.1169 -1.3486
   10MOL0     O 1243   5.036   7.658   2.428 -0.2932 -0.0506 -0.6310
   10MOL0     C 1244   4.972   7.616   2.521  0.3086 -0.5774  0.2251
   10MOL0     O 1245   5.029   7.583   2.643 -0.2128 -0.1476 -0.0278
   10MOL0     C 1246   5.161   7.609   2.654 -0.0105  0.1037  0.0961
   10MOL0     C 1247   5.253   7.507   2.656 -0.2931  0.9826  0.3413
   10MOL0     C 1248   5.393   7.521   2.681  0.0812  0.6101 -0.5848
   10MOL0     C 1249   5.435   7.657   2.692  0.1579  0.3841  0.1442
   10MOL0     O 1250   5.570   7.688   2.692  0.4733 -0.0435 -1.0526
   10MOL0     C 1251   5.642   7.657   2.813  0.1457  0.8665  1.2821
   10MOL0     C 1252   5.741   7.771   2.851  0.4816 -0.3612  0.6172
   10MOL0     C 1253   5.842   7.793   2.735 -0.3203  0.1712 -0.0999
   10MOL0     C 1254   5.802   7.890   2.629 -0.2491  1.0055  0.9910
   10MOL0     C 1255   5.904   7.903   2.515 -0.4529  0.6251 -0.3962
   10MOL0     C 1256   6.025   7.975   2.562 -0.6188 -0.3481 -0.7126
   10MOL0     C 1257   6.127   7.981   2.451 -0.0523  0.0827 -0.1646
   10MOL0     C 1258   6.267   8.013   2.489  0.7096  0.8410 -0.8298
   10MOL0     N 1259   6.329   7.908   2.569  0.0084  0.8517 -0.0302
   10MOL0     C 1260   6.386   7.798   2.515 -0.2410  0.4435  0.3292
   10MOL0     C 1261   6.477   7.767   2.606 -0.5163  0.2298  0.1007
   10MOL0     C 1262   6.586   7.666   2.581 -0.0453  1.1099  0.9354
   10MOL0     C 1263   6.569   7.510   2.607  0.6372 -0.4892  0.2653
   10MOL0     C 1264   6.500   7.449   2.478 -0.6461  0.0906 -0.2116
   10MOL0     C 1265   6.507   7.297   2.485 -0.3947  1.0084 -0.4515
   10MOL0     O 1266   6.426   7.236   2.595  0.6430 -0.5554  0.0176
   10MOL0     C 1267   6.455   7.119   2.644 -0.4494  0.8224  0.0584
   10MOL0     C 1268   6.517   7.022   2.566 -0.2230  0.4236  0.0789
   10MOL0     C 1269   6.537   6.888   2.611 -0.3109  0.2316  0.5161
   10MOL0     C 1270   6.596   6.791   2.517 -0.8847  0.0892 -0.3041
   10MOL0     C 1271   6.488   6.855   2.745  0.9604 -1.1184  0.6103
   10MOL0     C 1272   6.504   6.723   2.807 -0.3981 -0.1581  0.3992
   10MOL0     O 1273   6.604   6.637   2.764 -0.0871 -0.3486 -0.1746
   10MOL0     C 1274   6.663   6.555   2.853 -0.4629  0.1652  0.1105
   10MOL0     C 1275   6.657   6.563   2.995 -0.5720 -0.0626  0.4828
   10MOL0     C 1276   6.706   6.460   3.076 -0.1466  0.3064 -0.3382
   10MOL0     C 1277   6.778   6.353   3.020  1.0281 -0.6168  0.2408
   10MOL0     O 1278   6.809   6.257   3.115  0.6545  0.4253  0.1336
   10MOL0     C 1279   6.802   6.117   3.071 -0.3039  0.1772 -0.5082
   10MOL0     C 1280   6.854   6.038   3.191 -0.1408 -0.6480  0.2498
   10MOL0     C 1281   6.984   6.106   3.244 -0.2785  0.1987 -1.4046
   10MOL0     C 1282   7.076   6.001   3.315  0.0775 -0.1840 -0.1327
   10MOL0     C 1283   7.193   6.077   3.383  0.1893 -0.3174 -0.8172
   10MOL0     C 1284   7.268   6.180   3.303 -0.5254 -0.3397 -1.3514
   10MOL0     C 1285   7.398   6.222   3.365 -0.0990 -0.3503  0.3265
   10MOL0     C 1286   7.494   6.286   3.259  0.2667 -0.0533 -0.4911
   10MOL0    Cl 1287   7.438   6.468   3.231 -0.4202  0.0248  0.0619
   10MOL0     C 1288   6.777   6.344   2.876  0.0614  0.4901 -0.4135
   10MOL0     C 1289   6.719   6.442   2.802  0.3461 -0.0080  0.1117
   10MOL0     O 1290   6.417   6.691   2.886  0.1966 -0.2943 -0.0182
   10MOL0     C 1291   6.412   6.955   2.817  0.0206  0.0674  0.2487
   10MOL0     C 1292   6.398   7.079   2.760 -0.6803 -0.0802  0.1056
   10MOL0     N 1293   6.476   7.848   2.712 -0.2460 -0.7929 -0.8107
   10MOL0     N 1294   6.379   7.929   2.695  0.0615  0.6781 -0.0599
   10MOL0     C 1295   5.345   7.767   2.683  0.2593  0.6840  0.9589
   10MOL0     C 1296   5.205   7.743   2.664 -1.0039 -0.1001 -0.6265
   10MOL0     C 1297   4.833   7.578   2.492  0.2176 -0.4296 -0.1740
   10MOL0     C 1298   4.797   7.450   2.520 -0.0136  0.0354  0.0258
   10MOL0     C 1299   4.667   7.415   2.499 -0.4273  0.4120 -0.3362
   10MOL0     C 1300   4.570   7.486   2.432  0.2088  0.1341 -0.1732
   10MOL0     O 1301   4.437   7.450   2.412 -0.1467  0.0072 -0.0693
   10MOL0     C 1302   4.367   7.433   2.536  0.4997  0.0749 -0.6445
   10MOL0     C 1303   4.276   7.560   2.539 -0.7711 -0.0012  0.2998
   10MOL0     C 1304   4.158   7.553   2.637 -0.3126  0.8109 -0.1248
   10MOL0     C 1305   4.051   7.662   2.615 -0.2825  0.2897  0.4966
   10MOL0     C 1306   4.108   7.797   2.595  0.2475 -0.7224  0.4618
   10MOL0     C 1307   4.146   7.909   2.579  0.5583  0.8523 -1.1125
   10MOL0     C 1308   4.616   7.616   2.387 -0.1533  0.0017 -1.2916
   10MOL0     C 1309   4.744   7.662   2.417 -0.6972 -0.0433 -0.7292
   10MOL0     C 1310   4.788   7.794   2.364  1.2557 -0.9271 -0.0375
   10MOL0     H 1311   5.216   7.407   2.636  0.4161  1.1139 -2.0213
   10MOL0     H 1312   5.464   7.438   2.685 -0.0430  0.5429  0.2914
   10MOL0     H 1313   5.687   7.558   2.803 -0.2245  0.7390  0.8421
   10MOL0     H 1314   5.576   7.655   2.900 -1.9767 -1.2620 -0.2715
   10MOL0     H 1315   5.690   7.863   2.880 -0.4269 -1.1440  1.5908
   10MOL0     H 1316   5.795   7.742   2.942 -2.2775  1.6512  3.1032
   10MOL0     H 1317   5.944   7.814   2.770  0.2028  1.2677 -2.1115
   10MOL0     H 1318   5.839   7.700   2.678  1.9059  1.1468 -1.9766
   10MOL0     H 1319   5.709   7.870   2.576  1.2399 -0.5955 -1.1829
   10MOL0     H 1320   5.795   7.989   2.676  1.5087  1.0874  1.1671
   10MOL0     H 1321   5.870   7.960   2.428 -4.0526 -1.2996 -0.4422
   10MOL0     H 1322   5.935   7.806   2.476 -3.5070 -0.7678  0.3604
   10MOL0     H 1323   6.012   8.080   2.589 -0.3911  0.0830 -2.1612
   10MOL0     H 1324   6.073   7.910   2.636  0.6846  1.5855  0.1986
   10MOL0     H 1325   6.101   8.055   2.375 -1.5106  1.6701  1.7984
   10MOL0     H 1326   6.123   7.887   2.395 -0.1775 -0.5522  0.8824
   10MOL0     H 1327   6.322   8.035   2.397  0.8559  4.7999  0.0309
   10MOL0     H 1328   6.265   8.106   2.548  0.7024  0.1960  0.2036
   10MOL0     H 1329   6.382   7.743   2.421  1.8201  0.8112 -0.0257
   10MOL0     H 1330   6.673   7.687   2.645  3.4228 -1.3041 -2.5134
   10MOL0     H 1331   6.620   7.690   2.480 -1.4029  1.5323  0.5571
   10MOL0     H 1332   6.664   7.465   2.638  0.0723 -3.1614 -1.4483
   10MOL0     H 1333   6.501   7.509   2.693 -1.6578  3.4924 -1.2590
   10MOL0     H 1334   6.396   7.481   2.474 -0.2385  2.3436  2.7893
   10MOL0     H 1335   6.546   7.488   2.387 -1.8137  4.2077  0.7200
   10MOL0     H 1336   6.476   7.253   2.390 -0.3982 -1.0744  0.4459
   10MOL0     H 1337   6.612   7.269   2.499 -0.5399 -0.4341 -1.9332
   10MOL0     H 1338   6.565   7.049   2.473 -3.2708 -2.4237 -2.5993
   10MOL0     H 1339   6.693   6.746   2.542 -1.5351 -2.0168 -1.3527
   10MOL0     H 1340   6.606   6.824   2.414  0.8507 -1.9741 -0.8626
   10MOL0     H 1341   6.541   6.697   2.511  2.4103 -1.9573 -0.9838
   10MOL0     H 1342   6.619   6.658   3.029  2.2642  0.4500  2.6430
   10MOL0     H 1343   6.677   6.460   3.181 -1.2723  3.3261 -0.5718
   10MOL0     H 1344   6.704   6.072   3.053  0.9694 -1.9827 -2.5453
   10MOL0     H 1345   6.856   6.092   2.979 -2.5104  1.2520 -2.2054
   10MOL0     H 1346   6.773   6.034   3.263 -1.3386  0.7548 -0.9463
   10MOL0     H 1347   6.873   5.940   3.147  0.9665  0.7507 -2.6673
   10MOL0     H 1348   6.959   6.179   3.323  0.8617  3.8552 -4.1343
   10MOL0     H 1349   7.044   6.157   3.169  2.0080 -0.5952 -0.1899
   10MOL0     H 1350   7.131   5.933   3.249  0.7773 -0.7208  0.9778
   10MOL0     H 1351   7.026   5.942   3.393 -1.2496 -0.9096 -1.4811
   10MOL0     H 1352   7.163   6.120   3.479  1.2521  0.2834 -0.7422
   10MOL0     H 1353   7.272   6.008   3.416  0.4514  1.2146  2.0815
   10MOL0     H 1354   7.201   6.266   3.290 -0.5943 -0.2489 -0.4935
   10MOL0     H 1355   7.276   6.134   3.204 -1.5817  2.0249 -2.6102
   10MOL0     H 1356   7.440   6.143   3.428 -1.7827 -0.3093  1.5847
   10MOL0     H 1357   7.378   6.308   3.430  1.3023 -0.2864  0.6987
   10MOL0     H 1358   7.495   6.221   3.171 -1.4610 -0.7626 -0.0228
   10MOL0     H 1359   7.593   6.280   3.304  0.8878 -0.3620 -1.8487
   10MOL0     H 1360   6.835   6.267   2.826  3.3086  2.3730  0.0908
   10MOL0     H 1361   6.707   6.429   2.694  3.5887  1.2208 -0.4908
   10MOL0     H 1362   6.371   6.935   2.916  2.9402 -0.2572  1.4733
   10MOL0     H 1363   6.331   7.149   2.810 -1.4783  0.5399 -1.7585
   10MOL0     H 1364   5.385   7.866   2.707 -1.5578  0.8891  3.5982
   10MOL0     H 1365   5.143   7.832   2.649 -0.5247  0.3243 -0.1462
   10MOL0     H 1366   4.863   7.392   2.585 -0.3906  1.5191  1.8235
   10MOL0     H 1367   4.640   7.318   2.540 -1.0567  0.7031 -0.0425
   10MOL0     H 1368   4.301   7.347   2.518 -1.9566  1.5596  0.7497
   10MOL0     H 1369   4.420   7.428   2.632 -1.0483  2.8432  0.4686
   10MOL0     H 1370   4.242   7.575   2.437 -0.2665  0.2070  0.1576
   10MOL0     H 1371   4.337   7.647   2.566  0.5048  0.4555 -3.4553
   10MOL0     H 1372   4.109   7.456   2.619 -0.2884  1.0470 -1.6542
   10MOL0     H 1373   4.197   7.562   2.738 -1.4945 -2.1757  0.7047
   10MOL0     H 1374   3.984   7.660   2.701  0.4666  0.4992  1.0967
   10MOL0     H 1375   3.992   7.636   2.527 -0.5665 -0.1172  0.8031
   10MOL0     H 1376   4.195   8.003   2.564  2.9621  0.4495  2.8123
   10MOL0     H 1377   4.543   7.671   2.328 -0.3043 -0.7695 -1.8314
   10MOL0     H 1378   4.832   7.781   2.265 -0.2985  1.1527 -1.0891
   10MOL0     H 1379   4.695   7.852   2.358 -0.0921 -3.0591 -0.8523
   10MOL0     H 1380   4.855   7.842   2.436  0.8196  0.7371 -0.6968
   11MOL0     O 1381  10.335  11.139   2.197  0.2507 -0.7394 -0.2304
   11MOL0     C 1382  10.309  11.038   2.135 -0.4818  0.4867  0.2451
   11MOL0     O 1383  10.394  10.937   2.127 -0.1468  1.1052 -0.9358
   11MOL0     C 1384  10.515  10.929   2.197  0.7344 -0.2420 -0.1533
   11MOL0     C 1385  10.552  10.962   2.329  1.2437  0.3877 -0.4535
   11MOL0     C 1386  10.681  10.953   2.380 -0.0660  0.1543 -0.4586
   11MOL0     C 1387  10.776  10.900   2.289 -1.3170  0.3502  0.6201
   11MOL0     O 1388  10.910  10.888   2.327 -0.4946 -0.3391 -0.2763
   11MOL0     C 1389  10.971  11.003   2.384  0.3387 -0.1320  0.0993
   11MOL0     C 1390  11.117  11.015   2.340  0.0643  0.7283 -0.9610
   11MOL0     C 1391  11.120  11.069   2.198  1.2420  0.4125  0.2234
   11MOL0     C 1392  11.101  11.218   2.205 -0.0820 -0.1529  0.1765
   11MOL0     C 1393  11.098  11.274   2.063  0.1211  0.1140 -0.6761
   11MOL0     C 1394  10.977  11.251   1.969 -0.2647  0.1005 -0.0692
   11MOL0     C 1395  10.984  11.347   1.856  0.1169 -0.5252  0.7237
   11MOL0     C 1396  10.865  11.342   1.763 -0.2818  0.0481 -0.6106
   11MOL0     N 1397  10.877  11.444   1.660 -0.1620 -0.1368  0.3614
   11MOL0     C 1398  10.913  11.424   1.531 -0.5264  0.0809  0.7700
   11MOL0     C 1399  10.918  11.543   1.476 -0.1066 -0.3416  0.1392
   11MOL0     C 1400  10.961  11.578   1.337  0.4203 -0.9236 -0.9454
   11MOL0     C 1401  11.087  11.662   1.344 -0.1859  0.0526 -0.0192
   11MOL0     C 1402  11.196  11.585   1.411 -0.0861 -0.3217  0.1613
   11MOL0     C 1403  11.315  11.668   1.426 -0.2866 -0.2234  0.5293
   11MOL0     O 1404  11.411  11.581   1.495  0.2017  0.6438 -0.0282
   11MOL0     C 1405  11.529  11.541   1.435 -0.2449  0.0929 -0.3711
   11MOL0     C 1406  11.573  11.547   1.302 -0.6720 -0.6128  0.7562
   11MOL0     C 1407  11.703  11.511   1.274 -0.0984  0.3996 -0.1774
   11MOL0     C 1408  11.735  11.512   1.121  0.2811  0.6147 -0.5442
   11MOL0     C 1409  11.797  11.476   1.379  0.7639 -0.1769  0.2892
   11MOL0     C 1410  11.942  11.451   1.333  0.7132 -0.0882  0.4412
   11MOL0     O 1411  11.966  11.320   1.333 -0.3468  0.2934  1.0539
   11MOL0     C 1412  12.084  11.274   1.273  0.2860 -0.4085  0.2570
   11MOL0     C 1413  12.090  11.151   1.198  0.7601  0.5059  0.6420
   11MOL0     C 1414  12.218  11.093   1.150  0.3257 -0.1811 -0.7849
   11MOL0     C 1415  12.340  11.149   1.182  0.6741  0.2556  0.0474
   11MOL0     O 1416  12.443  11.090   1.111  0.3383  0.1479 -0.0320
   11MOL0     C 1417  12.558  11.174   1.097  0.0493 -0.0334 -0.1573
   11MOL0     C 1418  12.661  11.102   1.009 -0.2235  0.4677  0.3200
   11MOL0     C 1419  12.612  11.081   0.863 -0.6081 -0.5469 -0.6995
   11MOL0     C 1420  12.728  11.016   0.783 -1.3699  0.1020 -0.0393
   11MOL0     C 1421  12.676  10.958   0.655  0.6354  0.1839  0.1095
   11MOL0     C 1422  12.788  10.889   0.573  0.0735 -0.4284  0.6880
   11MOL0     C 1423  12.748  10.789   0.464  0.2556  0.3200  0.7941
   11MOL0     C 1424  12.870  10.732   0.376  0.1070  0.6134 -0.7968
   11MOL0    Cl 1425  12.824  10.656   0.228  0.3116  0.4454 -0.1092
   11MOL0     C 1426  12.339  11.278   1.242 -0.1681 -0.8741 -1.1095
   11MOL0     C 1427  12.215  11.330   1.292  0.0928  0.1545  0.7089
   11MOL0     O 1428  12.014  11.539   1.300  0.4567  0.1563  0.4441
   11MOL0     C 1429  11.752  11.464   1.509  0.0656  0.5864  0.7573
   11MOL0     C 1430  11.622  11.492   1.530  0.0104 -1.0783 -0.2961
   11MOL0     N 1431  10.883  11.633   1.575  0.7889  0.2623 -0.5436
   11MOL0     N 1432  10.865  11.576   1.684  0.0851 -0.3872 -0.4529
   11MOL0     C 1433  10.740  10.861   2.159 -0.4058 -0.3922 -0.5762
   11MOL0     C 1434  10.611  10.880   2.113  0.4577 -0.2087  1.0184
   11MOL0     C 1435  10.181  11.030   2.059 -0.2172  0.3472  0.3755
   11MOL0     C 1436  10.080  11.122   2.097 -0.2102  0.4847  0.2247
   11MOL0     C 1437   9.964  11.143   2.022 -0.9228 -0.3860  0.2559
   11MOL0     C 1438   9.956  11.080   1.901  0.3942  0.4206  0.2457
   11MOL0     O 1439   9.852  11.101   1.813  0.6718 -0.7496  0.1148
   11MOL0     C 1440   9.746  11.200   1.854 -0.2204  0.7535  0.5507
   11MOL0     C 1441   9.780  11.347   1.824  0.0593 -0.6481  0.0191
   11MOL0     C 1442   9.834  11.371   1.682  0.2028 -0.4214 -1.1616
   11MOL0     C 1443   9.989  11.385   1.665  0.3498 -0.3872 -0.2089
   11MOL0     C 1444  10.008  11.431   1.524 -0.4898  0.1289 -0.5841
   11MOL0     C 1445  10.009  11.474   1.412  0.4964  0.3109  0.3810
   11MOL0     C 1446  10.049  10.988   1.854  0.1251  0.4061 -0.0179
   11MOL0     C 1447  10.162  10.957   1.939  0.1613 -0.9710 -0.8533
   11MOL0     C 1448  10.259  10.851   1.895 -0.5262  0.5195 -0.7433
   11MOL0     H 1449  10.475  11.004   2.394  1.7669 -1.4245  1.4268
   11MOL0     H 1450  10.690  10.982   2.484  0.6041  0.0528 -0.4804
   11MOL0     H 1451  10.958  10.995   2.493 -1.6700  0.1310 -0.0859
   11MOL0     H 1452  10.912  11.091   2.356  4.0352  2.3708 -0.4893
   11MOL0     H 1453  11.176  11.066   2.415 -1.9540 -0.2927  1.4837
   11MOL0     H 1454  11.160  10.914   2.338  1.0793  1.0975  0.7551
   11MOL0     H 1455  11.217  11.044   2.155  1.2116 -1.3192  1.0901
   11MOL0     H 1456  11.034  11.034   2.140  0.2140  2.3077  0.4982
   11MOL0     H 1457  10.999  11.236   2.241 -0.8578 -1.0749 -1.4511
   11MOL0     H 1458  11.177  11.263   2.270  0.3408  0.0100 -0.4234
   11MOL0     H 1459  11.186  11.235   2.011  2.1556  3.6542 -0.2557
   11MOL0     H 1460  11.124  11.380   2.067  1.2895 -0.0454 -2.5652
   11MOL0     H 1461  10.981  11.148   1.934  0.5167  0.5605 -1.3989
   11MOL0     H 1462  10.882  11.271   2.020 -0.4082  0.9654 -0.6439
   11MOL0     H 1463  11.073  11.313   1.802 -0.3045 -1.6376  0.7127
   11MOL0     H 1464  10.995  11.448   1.897  0.6429 -0.0112 -0.6522
   11MOL0     H 1465  10.860  11.239   1.725 -1.0650 -0.1800  0.0749
   11MOL0     H 1466  10.781  11.359   1.831 -0.9495 -1.3954 -1.0303
   11MOL0     H 1467  10.941  11.329   1.489 -0.1815 -1.0212  3.2929
   11MOL0     H 1468  10.879  11.629   1.286 -0.2620  3.1516  3.4966
   11MOL0     H 1469  10.976  11.483   1.286 -0.6215 -1.1106 -0.9388
   11MOL0     H 1470  11.126  11.693   1.247 -0.0972 -0.0885 -0.0293
   11MOL0     H 1471  11.059  11.752   1.400 -0.9800 -1.8307  2.8465
   11MOL0     H 1472  11.170  11.555   1.513  0.8740  1.5987  1.0225
   11MOL0     H 1473  11.220  11.508   1.338 -4.2132 -1.0129 -0.6906
   11MOL0     H 1474  11.350  11.700   1.328  0.3500  2.3471  1.5126
   11MOL0     H 1475  11.276  11.758   1.474  0.2544  1.8857 -2.7036
   11MOL0     H 1476  11.503  11.575   1.224 -0.5928 -0.1144  0.8576
   11MOL0     H 1477  11.641  11.514   1.066 -0.8881 -2.1738  1.1503
   11MOL0     H 1478  11.795  11.423   1.101 -1.2940 -2.1475  4.9760
   11MOL0     H 1479  11.783  11.608   1.095 -0.5889  0.9948 -0.7772
   11MOL0     H 1480  12.002  11.091   1.179 -0.1192  0.8490  3.1829
   11MOL0     H 1481  12.219  10.996   1.101 -0.7869 -0.5004 -0.1965
   11MOL0     H 1482  12.527  11.267   1.049 -2.8054  0.4156  2.2288
   11MOL0     H 1483  12.604  11.194   1.194  1.8086 -1.1025 -0.7377
   11MOL0     H 1484  12.747  11.170   1.010  0.6997 -0.5883  3.5310
   11MOL0     H 1485  12.686  11.006   1.054  0.3246 -0.5867 -2.0626
   11MOL0     H 1486  12.593  11.184   0.830  0.9758  0.3918  1.1011
   11MOL0     H 1487  12.519  11.024   0.871  0.1908 -1.9112 -0.8465
   11MOL0     H 1488  12.779  10.939   0.841 -3.9214 -0.9651  0.9714
   11MOL0     H 1489  12.794  11.100   0.759 -0.4038 -0.9656 -1.2191
   11MOL0     H 1490  12.594  10.890   0.679 -0.8020  1.6380 -0.5318
   11MOL0     H 1491  12.628  11.042   0.603  1.0460  2.3388  2.9282
   11MOL0     H 1492  12.866  10.842   0.634  2.5168  0.4072 -1.6084
   11MOL0     H 1493  12.834  10.969   0.514 -1.9493  0.0879 -0.2732
   11MOL0     H 1494  12.667  10.824   0.400  0.3388 -2.4571 -0.9925
   11MOL0     H 1495  12.717  10.697   0.515 -2.1665 -1.5791 -3.6294
   11MOL0     H 1496  12.928  10.656   0.431 -1.0828 -1.2281 -1.9753
   11MOL0     H 1497  12.930  10.821   0.356 -2.6076  3.1671  1.4538
   11MOL0     H 1498  12.431  11.335   1.244  1.3276 -3.1520 -1.0448
   11MOL0     H 1499  12.223  11.418   1.355 -1.0708  0.9338 -0.1860
   11MOL0     H 1500  11.823  11.438   1.587  2.9421  1.2886 -1.4341
   11MOL0     H 1501  11.582  11.480   1.630  1.5693  1.3592  0.7156
   11MOL0     H 1502  10.810  10.801   2.102  0.7213  0.2062  0.1534
   11MOL0     H 1503  10.572  10.843   2.019 -4.0726 -1.0361  2.9955
   11MOL0     H 1504  10.102  11.179   2.187 -2.2640 -1.3502  2.0552
   11MOL0     H 1505   9.889  11.213   2.057 -0.5458  0.3132 -0.3154
   11MOL0     H 1506   9.657  11.164   1.802 -1.4341  0.2297  2.8735
   11MOL0     H 1507   9.714  11.184   1.957  1.0582  1.7857  1.1334
   11MOL0     H 1508   9.858  11.386   1.890  0.2730  1.7916 -1.5077
   11MOL0     H 1509   9.686  11.398   1.850  0.6919 -0.4303  2.0686
   11MOL0     H 1510   9.806  11.283   1.623 -0.3827 -0.2533 -1.1389
   11MOL0     H 1511   9.786  11.463   1.648 -0.3898 -0.1207  0.4340
   11MOL0     H 1512  10.042  11.290   1.672  1.4384  0.0399 -2.1004
   11MOL0     H 1513  10.023  11.456   1.741  0.6001 -0.2213 -0.4745
   11MOL0     H 1514  10.005  11.514   1.313 -2.6364 -1.1122 -0.2050
   11MOL0     H 1515  10.038  10.952   1.752 -1.6021 -0.5859  0.4792
   11MOL0     H 1516  10.269  10.768   1.966  1.1690  1.7007  0.4924
   11MOL0     H 1517  10.223  10.815   1.798 -1.9452  1.0151 -0.4346
   11MOL0     H 1518  10.360  10.889   1.880 -0.4784  0.3688 -0.7983
   12MOL0     O 1519   3.006   9.830   7.954  0.0356 -0.2280 -0.5260
   12MOL0     C 1520   3.049   9.797   7.839 -0.0849  1.0216 -0.1457
   12MOL0     O 1521   3.183   9.795   7.794  0.3184 -0.3033  0.0310
   12MOL0     C 1522   3.291   9.825   7.877 -0.9972 -0.2421  0.1723
   12MOL0     C 1523   3.279   9.923   7.972 -1.0878  0.0616 -1.0605
   12MOL0     C 1524   3.389   9.977   8.045  0.1773 -0.2212 -0.1242
   12MOL0     C 1525   3.513   9.931   8.010  0.2636 -0.4916 -0.6981
   12MOL0     O 1526   3.606   9.986   8.090  1.0077 -0.7649 -0.1298
   12MOL0     C 1527   3.744   9.931   8.078 -0.8063  0.0919  0.9530
   12MOL0     C 1528   3.832   9.985   8.197 -0.3178 -0.9272  0.8901
   12MOL0     C 1529   3.980   9.950   8.161 -0.8775  0.4658  0.3469
   12MOL0     C 1530   4.073  10.018   8.267 -0.1460 -0.9838 -0.1639
   12MOL0     C 1531   4.223   9.963   8.241  1.2131  0.4628  0.9493
   12MOL0     C 1532   4.346  10.043   8.280  0.7081 -0.3522  0.0777
   12MOL0     C 1533   4.467   9.998   8.196  0.3471 -0.1770 -0.4840
   12MOL0     C 1534   4.585  10.077   8.246  0.0524  0.7538  0.1539
   12MOL0     N 1535   4.700  10.005   8.194  0.2446 -0.6261  0.2335
   12MOL0     C 1536   4.783  10.046   8.090  0.2906  0.3786  0.0661
   12MOL0     C 1537   4.880   9.951   8.070  0.3768  0.7782 -0.0942
   12MOL0     C 1538   4.985   9.935   7.970 -0.2285 -0.0898  0.1112
   12MOL0     C 1539   5.120   9.936   8.044  0.7717  0.3535  0.3482
   12MOL0     C 1540   5.242  10.001   7.973 -0.0431  0.2407 -0.0023
   12MOL0     C 1541   5.369   9.952   8.024 -0.0593 -1.1905  0.6505
   12MOL0     O 1542   5.407  10.036   8.136 -0.5417  0.2131  0.0944
   12MOL0     C 1543   5.542  10.059   8.160 -0.1205  0.1531  0.2833
   12MOL0     C 1544   5.640   9.958   8.138  1.7666 -0.0022 -0.0663
   12MOL0     C 1545   5.774   9.975   8.153 -0.4741  0.1006 -0.4081
   12MOL0     C 1546   5.870   9.864   8.111  0.5692 -0.5812  0.8264
   12MOL0     C 1547   5.821  10.092   8.211  0.7053 -0.2237  0.4530
   12MOL0     C 1548   5.966  10.119   8.242  0.1801 -1.0966 -0.7793
   12MOL0     O 1549   6.059  10.061   8.160  0.2267  0.6811 -0.5821
   12MOL0     C 1550   6.188  10.105   8.162 -0.0238  0.4943 -0.0668
   12MOL0     C 1551   6.287  10.007   8.196 -0.1197 -0.0945 -0.0337
   12MOL0     C 1552   6.420  10.057   8.189  0.5091  0.3130  0.0355
   12MOL0     C 1553   6.449  10.197   8.173 -0.5459  0.2982  0.7298
   12MOL0     O 1554   6.574  10.249   8.165 -0.7523 -0.1350 -0.2459
   12MOL0     C 1555   6.693  10.162   8.164  0.4312  0.1890 -0.6571
   12MOL0     C 1556   6.825  10.240   8.147 -0.3750  0.1440  0.0623
   12MOL0     C 1557   6.939  10.133   8.154 -0.4966  0.4369 -0.0554
   12MOL0     C 1558   6.990  10.107   8.018 -0.2407  0.5346  0.5483
   12MOL0     C 1559   7.130  10.054   8.028 -1.0531 -0.1922 -0.4341
   12MOL0     C 1560   7.187  10.038   7.883 -0.4054  0.2393  0.9927
   12MOL0     C 1561   7.321   9.958   7.888  0.0568 -0.1571 -0.5028
   12MOL0     C 1562   7.307   9.812   7.850 -0.1545  0.1624  0.7366
   12MOL0    Cl 1563   7.199   9.714   7.956  0.5414 -0.9362 -0.3026
   12MOL0     C 1564   6.346  10.286   8.153 -0.4735 -0.2326  0.2470
   12MOL0     C 1565   6.215  10.244   8.151  0.4167 -0.6744  0.6100
   12MOL0     O 1566   5.994  10.205   8.325  0.2559 -0.7995 -0.0121
   12MOL0     C 1567   5.727  10.191   8.252  0.0152 -0.1161 -0.1183
   12MOL0     C 1568   5.587  10.172   8.223  0.0652  0.4980 -0.2520
   12MOL0     N 1569   4.858   9.860   8.166  0.1431 -0.1349 -0.5662
   12MOL0     N 1570   4.764   9.900   8.249  0.2209  0.3412  0.2067
   12MOL0     C 1571   3.530   9.835   7.914  0.0118  0.2731  0.0532
   12MOL0     C 1572   3.423   9.787   7.842 -0.1875 -1.1696 -0.5738
   12MOL0     C 1573   2.949   9.749   7.732 -0.4087  0.2934  0.4432
   12MOL0     C 1574   3.005   9.692   7.616  0.0645 -0.7640 -0.1476
   12MOL0     C 1575   2.927   9.632   7.523  0.2174 -0.2715 -0.0021
   12MOL0     C 1576   2.787   9.625   7.532 -0.0351  0.9544 -0.2866
   12MOL0     O 1577   2.708   9.563   7.432 -0.6861  0.1349 -0.7020
   12MOL0     C 1578   2.568   9.562   7.425  0.4995  0.0639  0.9392
   12MOL0     C 1579   2.542   9.481   7.302  0.4564 -0.7274 -0.2812
   12MOL0     C 1580   2.621   9.532   7.181 -0.1658  0.3460  0.3778
   12MOL0     C 1581   2.541   9.527   7.053  0.1592  0.0276 -0.1728
   12MOL0     C 1582   2.621   9.522   6.930 -0.0436 -0.3656  0.8427
   12MOL0     C 1583   2.687   9.519   6.834  0.0743  0.0119  0.1018
   12MOL0     C 1584   2.729   9.690   7.642 -0.4526 -0.5225 -0.6688
   12MOL0     C 1585   2.812   9.754   7.742  1.0106 -0.2907 -0.2814
   12MOL0     C 1586   2.738   9.814   7.860 -0.2883  0.4646  1.1773
   12MOL0     H 1587   3.188   9.975   8.000 -0.5268  0.3862  0.2535
   12MOL0     H 1588   3.380  10.056   8.118  0.2650  2.4635 -2.8082
   12MOL0     H 1589   3.788   9.966   7.984  3.1025  1.0788  2.9032
   12MOL0     H 1590   3.742   9.822   8.081 -2.2653 -0.0400 -1.9433
   12MOL0     H 1591   3.805  10.090   8.190 -4.5812 -1.7824  1.8602
   12MOL0     H 1592   3.800   9.939   8.291 -1.5420 -3.0192 -0.4710
   12MOL0     H 1593   3.996   9.843   8.175 -0.6419  0.2927 -1.1741
   12MOL0     H 1594   4.016   9.977   8.062  2.7884 -0.2945  1.3213
   12MOL0     H 1595   4.073  10.127   8.257 -1.4455 -1.0807 -1.5689
   12MOL0     H 1596   4.031   9.994   8.365  1.1932  0.0430  0.7019
   12MOL0     H 1597   4.220   9.949   8.132 -2.6580  0.4983  0.8874
   12MOL0     H 1598   4.229   9.863   8.284 -1.3981  0.4337  1.4006
   12MOL0     H 1599   4.328  10.148   8.255  3.3582  0.5721  1.6519
   12MOL0     H 1600   4.355  10.030   8.388 -0.1678 -1.5956  0.0193
   12MOL0     H 1601   4.447  10.018   8.091 -1.1060 -0.0435 -0.2048
   12MOL0     H 1602   4.476   9.891   8.215 -4.6070 -0.5184  1.5131
   12MOL0     H 1603   4.589  10.181   8.211  1.3525  1.5871  2.5788
   12MOL0     H 1604   4.576  10.069   8.355 -2.0331  0.1287 -0.0239
   12MOL0     H 1605   4.759  10.127   8.022 -0.4505 -1.0998 -1.5210
   12MOL0     H 1606   4.982  10.015   7.895  0.0458 -0.1284  0.0603
   12MOL0     H 1607   4.962   9.841   7.920 -0.2849 -0.8341  1.4692
   12MOL0     H 1608   5.112   9.987   8.140 -0.8589  3.2639 -1.1828
   12MOL0     H 1609   5.149   9.831   8.053 -1.3812 -0.5089 -1.6367
   12MOL0     H 1610   5.240   9.968   7.869 -0.3554  1.2678 -0.3372
   12MOL0     H 1611   5.237  10.111   7.976 -0.9388  0.2082  0.3652
   12MOL0     H 1612   5.357   9.848   8.055  1.6010 -2.0190 -1.2643
   12MOL0     H 1613   5.445   9.951   7.945 -1.5242  0.9578 -0.9151
   12MOL0     H 1614   5.612   9.859   8.101 -0.0370 -0.3883  2.0377
   12MOL0     H 1615   5.922   9.878   8.016 -3.0598 -2.3445 -1.6687
   12MOL0     H 1616   5.811   9.774   8.094 -1.2117  0.4680  1.1640
   12MOL0     H 1617   5.949   9.844   8.184  2.7756 -0.0541 -1.2719
   12MOL0     H 1618   6.286   9.903   8.228  0.7201  1.0590  4.3799
   12MOL0     H 1619   6.498   9.984   8.207  1.6090  1.1169 -1.3033
   12MOL0     H 1620   6.680  10.101   8.254 -2.9270 -0.8147 -1.6725
   12MOL0     H 1621   6.696  10.086   8.085  0.6734  0.6943 -1.1420
   12MOL0     H 1622   6.819  10.280   8.045  1.6506 -1.6853 -0.8744
   12MOL0     H 1623   6.831  10.319   8.222 -2.1319 -1.9960  2.6073
   12MOL0     H 1624   6.923  10.038   8.207 -1.1098  0.5152 -0.0972
   12MOL0     H 1625   7.012  10.193   8.208 -2.1407  3.1034 -0.6358
   12MOL0     H 1626   6.978  10.201   7.965  1.5022 -0.5475 -1.9435
   12MOL0     H 1627   6.926  10.033   7.969 -1.2415  1.1808  0.8342
   12MOL0     H 1628   7.193  10.123   8.085 -0.9637 -0.0368 -0.7220
   12MOL0     H 1629   7.135   9.960   8.084  1.3890  0.7163  1.0376
   12MOL0     H 1630   7.195  10.141   7.848  0.3203 -0.5500 -1.3248
   12MOL0     H 1631   7.119   9.979   7.821  1.2634  0.8198 -1.5587
   12MOL0     H 1632   7.363   9.957   7.989  0.1668  0.0155 -0.5450
   12MOL0     H 1633   7.398  10.005   7.826  1.2024 -0.2091  0.8113
   12MOL0     H 1634   7.405   9.763   7.853  0.8422  2.0074 -0.0637
   12MOL0     H 1635   7.270   9.813   7.747 -0.9131 -0.7817  0.9837
   12MOL0     H 1636   6.387  10.386   8.156  0.3504 -0.5281 -0.7750
   12MOL0     H 1637   6.141  10.319   8.127  1.1894 -0.6377 -1.8962
   12MOL0     H 1638   5.763  10.282   8.298  0.5286 -0.2848 -0.1695
   12MOL0     H 1639   5.517  10.248   8.256  0.7947  1.1340 -0.1322
   12MOL0     H 1640   3.629   9.796   7.891 -0.6844 -1.4723 -0.0881
   12MOL0     H 1641   3.446   9.714   7.766  1.4894  2.1262 -3.5426
   12MOL0     H 1642   3.110   9.683   7.591 -0.0823  0.6124 -1.3850
   12MOL0     H 1643   2.980   9.602   7.432 -0.0243 -1.3617  0.2044
   12MOL0     H 1644   2.526   9.506   7.509 -2.2707 -0.6007 -0.7656
   12MOL0     H 1645   2.531   9.664   7.409  2.0689  0.7385  1.4225
   12MOL0     H 1646   2.434   9.484   7.283  0.2710 -1.3401  0.6355
   12MOL0     H 1647   2.566   9.376   7.316 -0.3993 -0.7634  1.0937
   12MOL0     H 1648   2.640   9.639   7.190 -0.9763  0.6930 -1.5733
   12MOL0     H 1649   2.719   9.482   7.182 -0.4310 -0.1760  0.8841
   12MOL0     H 1650   2.467   9.607   7.049 -2.2707 -2.1361 -1.1481
   12MOL0     H 1651   2.490   9.431   7.054  2.3327 -1.2118 -1.3440
   12MOL0     H 1652   2.740   9.504   6.742 -0.1696  0.0084 -0.0392
   12MOL0     H 1653   2.622   9.696   7.656 -0.6211 -2.5845 -0.8200
   12MOL0     H 1654   2.632   9.791   7.871 -0.2146  0.4074  1.8108
   12MOL0     H 1655   2.771   9.774   7.957 -1.0808 -2.2844  0.3982
   12MOL0     H 1656   2.758   9.922   7.856 -2.9621  0.9780 -1.2581
   13MOL0     O 1657  11.370   2.986   3.679 -1.0987  0.3723  1.2819
   13MOL0     C 1658  11.335   2.866   3.689 -0.0286 -0.6153 -0.2258
   13MOL0     O 1659  11.420   2.756   3.716  0.6315 -0.7213 -1.1666
   13MOL0     C 1660  11.553   2.787   3.740  0.7050  0.4124 -0.0960
   13MOL0     C 1661  11.631   2.872   3.659  0.1066 -0.0130  0.1422
   13MOL0     C 1662  11.766   2.908   3.696  0.1600  0.1885 -0.4135
   13MOL0     C 1663  11.827   2.853   3.817  0.4729 -0.0703  0.1597
   13MOL0     O 1664  11.962   2.897   3.836 -0.4158  0.3161  0.3502
   13MOL0     C 1665  12.017   2.850   3.955  1.0892 -0.1681 -0.6502
   13MOL0     C 1666  12.139   2.936   3.988 -0.6799 -0.2315  0.2898
   13MOL0     C 1667  12.095   3.073   4.041 -0.1835  0.6932 -0.2891
   13MOL0     C 1668  12.201   3.174   4.059  0.3349 -0.6461 -0.0295
   13MOL0     C 1669  12.309   3.146   4.162  0.3918 -0.0987  0.1098
   13MOL0     C 1670  12.420   3.252   4.155  0.0718 -0.4999  0.2981
   13MOL0     C 1671  12.495   3.238   4.020 -0.0446  0.3236 -0.5867
   13MOL0     C 1672  12.560   3.101   3.987 -0.6346  0.1104 -0.2437
   13MOL0     N 1673  12.636   3.065   4.106  0.5052 -0.6325 -0.5038
   13MOL0     C 1674  12.665   2.934   4.135  0.3193 -0.3425  0.1314
   13MOL0     C 1675  12.758   2.945   4.230  0.1100 -0.7558  0.4005
   13MOL0     C 1676  12.818   2.830   4.306  0.1105 -0.7073 -0.6554
   13MOL0     C 1677  12.971   2.859   4.315  1.6976  0.0513  0.2725
   13MOL0     C 1678  13.045   2.737   4.351  0.4540  0.2274  0.5012
   13MOL0     C 1679  13.193   2.777   4.384 -0.0265 -0.6272 -0.2078
   13MOL0     O 1680  13.261   2.852   4.280 -0.0784 -0.2336  0.0054
   13MOL0     C 1681  13.389   2.891   4.302  0.5561  0.1489  0.2743
   13MOL0     C 1682  13.466   2.867   4.415  0.6439  0.2078  0.5622
   13MOL0     C 1683  13.598   2.902   4.414 -0.0657  0.5246 -0.0418
   13MOL0     C 1684  13.680   2.887   4.533 -0.2285 -0.1276 -0.0138
   13MOL0     C 1685  13.660   2.954   4.289 -0.3402  0.7408 -0.0680
   13MOL0     C 1686  13.803   2.997   4.286 -0.0756 -0.1452 -0.5189
   13MOL0     O 1687  13.829   3.104   4.211  0.5935  0.6680  0.1373
   13MOL0     C 1688  13.953   3.156   4.217  0.2377 -0.2584 -0.3069
   13MOL0     C 1689  14.026   3.182   4.095 -0.4084 -0.3326 -0.3136
   13MOL0     C 1690  14.160   3.230   4.097  0.6279 -0.1437 -0.0368
   13MOL0     C 1691  14.219   3.272   4.218  0.2316  0.0227 -0.1695
   13MOL0     O 1692  14.340   3.331   4.217 -0.7168  0.2633 -1.1865
   13MOL0     C 1693  14.394   3.399   4.334  0.7658  0.5794  0.2251
   13MOL0     C 1694  14.535   3.418   4.325  0.6481  0.1043 -0.3129
   13MOL0     C 1695  14.601   3.496   4.209  0.4445  0.1364  0.0941
   13MOL0     C 1696  14.751   3.492   4.215  0.2103  0.3616 -0.4525
   13MOL0     C 1697  14.830   3.529   4.091 -0.3932  0.2056  0.1261
   13MOL0     C 1698  14.983   3.525   4.116 -0.4698  0.6931 -0.0840
   13MOL0     C 1699  15.071   3.537   3.990  0.2759 -0.5791  0.0097
   13MOL0     C 1700  15.221   3.532   4.026  0.5749  0.1814 -0.4461
   13MOL0    Cl 1701  15.269   3.390   4.111  0.2996 -0.2403 -0.1583
   13MOL0     C 1702  14.144   3.246   4.337 -0.0521  0.8969  0.6752
   13MOL0     C 1703  14.014   3.191   4.339  0.3947  0.1742 -0.0227
   13MOL0     O 1704  13.893   2.932   4.345 -0.0457 -0.6069  0.0218
   13MOL0     C 1705  13.572   3.000   4.188  0.1805 -0.0699 -0.4948
   13MOL0     C 1706  13.437   2.972   4.192  0.0539  0.9604 -0.2298
   13MOL0     N 1707  12.787   3.080   4.251  0.2936 -0.0778  0.2358
   13MOL0     N 1708  12.711   3.149   4.176 -1.0505  0.3082 -0.6376
   13MOL0     C 1709  11.758   2.751   3.881 -0.6329 -0.2222 -0.4917
   13MOL0     C 1710  11.626   2.723   3.843  0.5657  1.0480 -0.9546
   13MOL0     C 1711  11.190   2.830   3.703  0.3640  0.6872  0.4831
   13MOL0     C 1712  11.099   2.936   3.710  0.4835 -0.0859  0.1727
   13MOL0     C 1713  10.960   2.918   3.720  0.0823 -0.5988 -0.7211
   13MOL0     C 1714  10.909   2.789   3.714  0.4180 -0.3892 -0.0142
   13MOL0     O 1715  10.770   2.777   3.734 -0.0407 -0.3484 -0.5954
   13MOL0     C 1716  10.707   2.663   3.674  0.1181 -0.3579  0.5169
   13MOL0     C 1717  10.556   2.670   3.659  0.0715 -0.1189 -0.3659
   13MOL0     C 1718  10.485   2.804   3.617  0.4769 -0.3435 -0.0607
   13MOL0     C 1719  10.534   2.890   3.501 -1.0735  0.2399 -0.3156
   13MOL0     C 1720  10.555   2.819   3.371 -0.3614  0.4832  0.3698
   13MOL0     C 1721  10.580   2.757   3.265 -0.4408  0.9911  0.5346
   13MOL0     C 1722  10.993   2.680   3.694  0.0892 -0.2066 -0.3998
   13MOL0     C 1723  11.129   2.702   3.688  0.6080 -0.0625  0.1102
   13MOL0     C 1724  11.210   2.577   3.683 -1.2861  0.4295 -0.5954
   13MOL0     H 1725  11.589   2.925   3.574  1.0214  2.4894  1.1524
   13MOL0     H 1726  11.829   2.973   3.636 -0.6067 -0.7049 -2.2789
   13MOL0     H 1727  12.043   2.744   3.948  0.6838 -0.4058  0.9655
   13MOL0     H 1728  11.945   2.853   4.037  1.8622 -2.1375  0.1576
   13MOL0     H 1729  12.202   2.894   4.067 -2.3006 -0.8771  1.2985
   13MOL0     H 1730  12.202   2.947   3.900 -1.1000  1.0422  0.1240
   13MOL0     H 1731  12.017   3.103   3.970 -0.5845 -2.0443 -1.1403
   13MOL0     H 1732  12.052   3.047   4.139 -0.1604 -1.5640 -0.8127
   13MOL0     H 1733  12.237   3.191   3.957  0.9413  0.3336  0.3300
   13MOL0     H 1734  12.145   3.258   4.102  2.4657 -0.2291  2.1590
   13MOL0     H 1735  12.345   3.044   4.146  0.6653 -0.6458  3.5370
   13MOL0     H 1736  12.282   3.147   4.268  0.0665 -0.4892  0.0329
   13MOL0     H 1737  12.378   3.353   4.152 -0.3853 -0.5712 -4.4479
   13MOL0     H 1738  12.497   3.242   4.232 -0.1450 -1.5597  0.3903
   13MOL0     H 1739  12.575   3.313   4.019  1.5040 -1.2459 -0.0162
   13MOL0     H 1740  12.426   3.264   3.939 -2.1768  1.8976  1.6275
   13MOL0     H 1741  12.490   3.017   3.980  0.8152 -1.1322 -0.3447
   13MOL0     H 1742  12.617   3.103   3.894 -2.2199 -0.2996 -1.2593
   13MOL0     H 1743  12.622   2.841   4.098  0.5391 -1.0702  1.6516
   13MOL0     H 1744  12.800   2.732   4.260  2.3106 -1.9584  0.9895
   13MOL0     H 1745  12.770   2.822   4.404  2.2662 -0.9762  0.4190
   13MOL0     H 1746  13.011   2.893   4.219  0.9577  0.5754  0.1461
   13MOL0     H 1747  12.976   2.936   4.392  1.3187  1.0484 -0.6810
   13MOL0     H 1748  13.002   2.692   4.441 -0.2418 -3.4947 -1.4495
   13MOL0     H 1749  13.039   2.668   4.266  0.1894  2.3127 -1.2376
   13MOL0     H 1750  13.193   2.831   4.479 -0.9258 -1.6166  0.3810
   13MOL0     H 1751  13.243   2.682   4.405 -1.7075 -1.5710 -0.3063
   13MOL0     H 1752  13.424   2.816   4.501 -0.2568 -1.0958 -0.6138
   13MOL0     H 1753  13.740   2.976   4.555  2.8888 -1.8389 -0.9240
   13MOL0     H 1754  13.743   2.797   4.533  0.6898  0.4599  1.7036
   13MOL0     H 1755  13.625   2.871   4.626 -0.0132 -0.0065  0.1344
   13MOL0     H 1756  13.978   3.150   4.003 -3.3007 -0.1910  1.0458
   13MOL0     H 1757  14.211   3.242   4.002 -2.0444  3.6535 -1.2394
   13MOL0     H 1758  14.353   3.500   4.329  0.6817  0.5567  0.4827
   13MOL0     H 1759  14.368   3.344   4.425 -1.4214 -0.8552 -1.1808
   13MOL0     H 1760  14.564   3.464   4.420  3.4104 -2.0893  0.0587
   13MOL0     H 1761  14.590   3.323   4.323 -1.2514 -1.0409 -2.1402
   13MOL0     H 1762  14.564   3.599   4.202  0.5773  0.2426  0.8685
   13MOL0     H 1763  14.570   3.450   4.114 -1.1193 -0.4992  0.8673
   13MOL0     H 1764  14.792   3.401   4.259  0.2289  0.4725 -0.2383
   13MOL0     H 1765  14.787   3.573   4.280  0.1088  1.8889 -2.2052
   13MOL0     H 1766  14.814   3.443   4.026  2.3603 -2.4274  2.5990
   13MOL0     H 1767  14.804   3.618   4.034  1.0580  0.1642 -0.6604
   13MOL0     H 1768  15.009   3.435   4.174  1.6462  0.5994 -1.1024
   13MOL0     H 1769  14.998   3.611   4.182 -1.5636  0.2819  0.7461
   13MOL0     H 1770  15.044   3.629   3.936  1.2197 -0.4900 -0.3158
   13MOL0     H 1771  15.051   3.452   3.924  3.7671 -0.7252 -1.0350
   13MOL0     H 1772  15.256   3.622   4.078 -0.8153  0.8778 -0.6683
   13MOL0     H 1773  15.283   3.540   3.936  0.1219  1.6419 -0.6585
   13MOL0     H 1774  14.184   3.269   4.435 -2.4549  1.1307  1.6607
   13MOL0     H 1775  13.968   3.173   4.436 -2.9481  0.6357 -1.3654
   13MOL0     H 1776  13.616   3.055   4.106 -0.0755 -0.1044 -0.6564
   13MOL0     H 1777  13.375   3.000   4.108  1.0628  0.3697 -1.2032
   13MOL0     H 1778  11.796   2.697   3.968 -1.6078  0.3708  0.3259
   13MOL0     H 1779  11.588   2.645   3.907 -1.4487  1.7228 -1.2568
   13MOL0     H 1780  11.137   3.038   3.705 -3.0133  1.2898 -2.6608
   13MOL0     H 1781  10.881   2.991   3.741 -0.5815 -0.0318 -4.4762
   13MOL0     H 1782  10.745   2.645   3.573  4.5450 -1.9811  2.2280
   13MOL0     H 1783  10.734   2.583   3.743  0.1532  1.2450  2.4184
   13MOL0     H 1784  10.518   2.655   3.760  0.4648 -1.2857 -0.3810
   13MOL0     H 1785  10.533   2.585   3.594  1.4805 -2.2654  1.7643
   13MOL0     H 1786  10.380   2.779   3.604  0.4719 -0.9314  1.0230
   13MOL0     H 1787  10.488   2.870   3.704  0.2305  2.4677 -2.0272
   13MOL0     H 1788  10.635   2.924   3.528 -1.9131  5.0065 -2.2768
   13MOL0     H 1789  10.478   2.982   3.489  0.9163  1.3579 -1.5717
   13MOL0     H 1790  10.614   2.699   3.181 -0.0942  0.1405  1.2447
   13MOL0     H 1791  10.949   2.580   3.695 -1.8703  0.5688  2.2522
   13MOL0     H 1792  11.295   2.587   3.614 -0.9664  1.0724 -0.1134
   13MOL0     H 1793  11.238   2.584   3.788 -1.7357  0.1164 -0.4536
   13MOL0     H 1794  11.152   2.485   3.669 -0.1896 -0.4281  0.3261
   14MOL0     O 1795   4.401   3.851   7.349  0.6459 -0.2699 -0.1646
   14MOL0     C 1796   4.382   3.968   7.389 -0.0699  0.0212 -0.2309
   14MOL0     O 1797   4.451   4.032   7.493  0.5307 -0.6637  0.1813
   14MOL0     C 1798   4.518   3.950   7.583  0.0822 -0.0768 -0.4524
   14MOL0     C 1799   4.486   3.828   7.642 -0.6527  0.3083 -0.6534
   14MOL0     C 1800   4.572   3.753   7.731  0.9033  0.0261 -0.0013
   14MOL0     C 1801   4.692   3.807   7.771  0.3907 -0.2239 -0.3605
   14MOL0     O 1802   4.758   3.739   7.866 -0.1712 -0.5727 -0.7305
   14MOL0     C 1803   4.900   3.776   7.911  0.9898 -0.0475  1.1988
   14MOL0     C 1804   4.894   3.864   8.029 -0.0533 -0.2067  0.0759
   14MOL0     C 1805   5.038   3.866   8.093 -0.2168 -0.0863  0.4945
   14MOL0     C 1806   5.071   3.977   8.193 -0.5343 -0.6835 -0.0329
   14MOL0     C 1807   5.184   3.953   8.296 -0.2198 -0.5828  0.4992
   14MOL0     C 1808   5.321   3.965   8.217  0.6927  0.7314  0.3703
   14MOL0     C 1809   5.436   3.927   8.298 -0.6388  0.7635 -0.0637
   14MOL0     C 1810   5.565   3.988   8.224  1.0582 -0.2562  0.5768
   14MOL0     N 1811   5.691   3.958   8.296  0.3631 -0.6280 -0.5343
   14MOL0     C 1812   5.784   3.861   8.270  0.0249 -0.3399 -0.3414
   14MOL0     C 1813   5.879   3.876   8.360  0.7462  1.6302  0.5304
   14MOL0     C 1814   5.990   3.777   8.356 -0.5852 -0.2345 -0.2770
   14MOL0     C 1815   6.100   3.816   8.454  0.1767 -0.3025  0.1052
   14MOL0     C 1816   6.206   3.701   8.447  0.5013 -0.7604  0.1270
   14MOL0     C 1817   6.313   3.728   8.342  0.5686  1.0276 -0.1453
   14MOL0     O 1818   6.365   3.865   8.350 -0.5627 -0.1046  0.2397
   14MOL0     C 1819   6.456   3.875   8.454 -0.4734 -0.1731 -0.0684
   14MOL0     C 1820   6.593   3.835   8.435  0.9644  0.0038  0.0850
   14MOL0     C 1821   6.694   3.869   8.527 -0.1712  0.2922 -0.2937
   14MOL0     C 1822   6.841   3.837   8.472  0.0007  0.8732 -1.3578
   14MOL0     C 1823   6.656   3.920   8.649 -0.1237 -0.3769 -0.9723
   14MOL0     C 1824   6.759   3.931   8.763 -0.4485 -0.0682  0.7573
   14MOL0     O 1825   6.722   4.018   8.855 -0.3325 -1.2804 -0.7074
   14MOL0     C 1826   6.807   4.040   8.965  0.0672  0.2402  0.5545
   14MOL0     C 1827   6.840   3.938   9.055 -1.0862  0.2730 -0.0155
   14MOL0     C 1828   6.927   3.969   9.159 -0.1423  0.7496  0.9656
   14MOL0     C 1829   6.975   4.096   9.188 -0.1324  0.7824 -0.4187
   14MOL0     O 1830   7.056   4.110   9.299 -0.0844 -0.1637 -0.3771
   14MOL0     C 1831   7.121   4.241   9.320  0.4873  0.2420 -0.0013
   14MOL0     C 1832   7.030   4.343   9.380  0.6734  0.5849 -0.2376
   14MOL0     C 1833   6.931   4.291   9.485  0.1109  0.8926  0.4033
   14MOL0     C 1834   7.004   4.275   9.615 -0.0808  0.5428  0.1119
   14MOL0     C 1835   6.891   4.227   9.710  0.2692  0.2564  0.2444
   14MOL0     C 1836   6.899   4.268   9.857  0.3983  0.0107 -0.3364
   14MOL0     C 1837   6.784   4.229   9.951 -0.1578 -0.4965  0.0667
   14MOL0     C 1838   6.764   4.084   9.962 -0.0762 -0.4946  0.1110
   14MOL0    Cl 1839   6.904   4.004  10.028 -0.3567  0.1665 -0.0092
   14MOL0     C 1840   6.953   4.191   9.085 -1.2973  0.2209 -0.0437
   14MOL0     C 1841   6.874   4.163   8.978  0.1455 -1.1683  0.9055
   14MOL0     O 1842   6.863   3.863   8.756 -0.7155  0.6865 -0.4453
   14MOL0     C 1843   6.520   3.954   8.675  0.4071 -0.1563  0.3292
   14MOL0     C 1844   6.418   3.938   8.574 -0.3327  1.0743 -0.4224
   14MOL0     N 1845   5.859   3.979   8.438 -0.6671  0.4392  0.1701
   14MOL0     N 1846   5.743   4.022   8.402 -0.3475  0.4678 -0.4559
   14MOL0     C 1847   4.730   3.929   7.716 -0.6410 -0.8854 -0.4131
   14MOL0     C 1848   4.641   3.997   7.625  0.4888 -0.4009  0.7985
   14MOL0     C 1849   4.307   4.061   7.297 -0.6834 -0.7656 -0.1704
   14MOL0     C 1850   4.325   4.199   7.323  0.0499  0.0671  0.1119
   14MOL0     C 1851   4.257   4.288   7.236  0.4958  0.2809 -0.3952
   14MOL0     C 1852   4.167   4.246   7.136  0.9735 -0.0023  0.6346
   14MOL0     O 1853   4.095   4.344   7.059 -0.0594 -0.0541 -0.9815
   14MOL0     C 1854   3.971   4.312   6.998 -0.3963 -0.0706 -0.3027
   14MOL0     C 1855   3.893   4.431   6.939  0.2919 -0.0819  0.3534
   14MOL0     C 1856   3.867   4.533   7.044 -1.0591 -0.4476 -0.3868
   14MOL0     C 1857   3.726   4.507   7.095  0.2545  0.3090 -0.3084
   14MOL0     C 1858   3.706   4.605   7.203 -0.4267  0.1711  0.5547
   14MOL0     C 1859   3.657   4.741   7.331  0.0625 -0.0823 -0.5230
   14MOL0     C 1860   4.160   4.116   7.108  0.2023 -0.2135 -0.3938
   14MOL0     C 1861   4.225   4.025   7.188 -0.7518 -0.1793 -0.4670
   14MOL0     C 1862   4.195   3.879   7.155  0.3148  0.4820  0.7550
   14MOL0     H 1863   4.395   3.777   7.611 -0.9703  0.5248 -0.1006
   14MOL0     H 1864   4.520   3.667   7.773 -0.3043  1.3041  1.2337
   14MOL0     H 1865   4.953   3.830   7.833  1.3587 -0.6117  1.0567
   14MOL0     H 1866   4.956   3.684   7.930 -1.3209 -1.6719  0.5231
   14MOL0     H 1867   4.858   3.962   7.996 -2.5845 -1.5536 -1.4063
   14MOL0     H 1868   4.827   3.836   8.111  0.7185  0.4164  0.9540
   14MOL0     H 1869   5.048   3.770   8.145 -0.1375  0.6682  1.9039
   14MOL0     H 1870   5.120   3.870   8.021  0.2221  1.3850  1.0594
   14MOL0     H 1871   5.096   4.066   8.133 -0.1248 -1.1167 -0.5076
   14MOL0     H 1872   4.984   4.012   8.249  0.7360  1.6898  0.5801
   14MOL0     H 1873   5.172   3.860   8.351  0.3111 -1.6900 -1.1769
   14MOL0     H 1874   5.191   4.032   8.372  3.4348 -0.3974  0.1112
   14MOL0     H 1875   5.318   3.898   8.131  2.5478  2.3727 -1.0909
   14MOL0     H 1876   5.333   4.069   8.185  2.6674  0.5815  0.4674
   14MOL0     H 1877   5.443   3.817   8.297  0.2277  0.7964  0.7553
   14MOL0     H 1878   5.435   3.964   8.401 -0.0130  2.1118 -0.5141
   14MOL0     H 1879   5.577   3.957   8.120  4.4534  0.6515  0.5832
   14MOL0     H 1880   5.558   4.097   8.235 -4.2018 -0.2521 -0.4116
   14MOL0     H 1881   5.785   3.799   8.180  4.1758  1.3128 -1.6389
   14MOL0     H 1882   6.031   3.784   8.255 -0.5599 -1.3892 -0.3641
   14MOL0     H 1883   5.950   3.677   8.375  2.4287 -1.4488  0.1909
   14MOL0     H 1884   6.141   3.910   8.415  0.1435  0.5826  2.0668
   14MOL0     H 1885   6.057   3.829   8.554  1.9642 -0.8052  0.9641
   14MOL0     H 1886   6.244   3.695   8.549 -1.8116  0.2304  1.1099
   14MOL0     H 1887   6.150   3.608   8.433 -1.8110  0.4538  0.8050
   14MOL0     H 1888   6.392   3.653   8.354 -0.5445  0.1302  2.1591
   14MOL0     H 1889   6.268   3.722   8.242 -1.5892  1.3016  0.7590
   14MOL0     H 1890   6.613   3.797   8.336 -0.7937  1.5402 -0.9267
   14MOL0     H 1891   6.853   3.755   8.401  0.8345  0.4227 -0.7111
   14MOL0     H 1892   6.899   3.791   8.552 -3.3760  1.3025  1.6098
   14MOL0     H 1893   6.888   3.927   8.430  2.9398  0.9797  1.7185
   14MOL0     H 1894   6.795   3.841   9.035  0.7866 -1.0327  1.7588
   14MOL0     H 1895   6.942   3.886   9.228  0.2753 -1.3445 -1.4718
   14MOL0     H 1896   7.207   4.228   9.387  0.9721  0.0893 -0.6507
   14MOL0     H 1897   7.167   4.271   9.226  1.3088  1.3237  0.7246
   14MOL0     H 1898   7.094   4.425   9.414  0.5845 -0.3150  2.3614
   14MOL0     H 1899   6.965   4.380   9.300  1.0152  2.7091  0.4145
   14MOL0     H 1900   6.873   4.202   9.461  0.5301  0.3920  1.2009
   14MOL0     H 1901   6.856   4.368   9.503 -1.4933 -0.1770 -1.3506
   14MOL0     H 1902   7.046   4.374   9.635  3.3578 -1.2000  2.6428
   14MOL0     H 1903   7.087   4.204   9.605  0.6059  1.4209 -0.6160
   14MOL0     H 1904   6.789   4.256   9.683 -0.1428  0.0681  1.5300
   14MOL0     H 1905   6.899   4.120   9.689  1.6738  0.5477 -0.8367
   14MOL0     H 1906   6.913   4.376   9.857 -1.3419  0.4108 -4.1788
   14MOL0     H 1907   6.988   4.212   9.886  1.7513  2.2977  0.1627
   14MOL0     H 1908   6.687   4.268   9.919  1.8922  2.9649 -2.6211
   14MOL0     H 1909   6.803   4.267  10.052 -0.4066  0.2112 -0.1482
   14MOL0     H 1910   6.741   4.041   9.864  0.9554 -0.1393 -0.2959
   14MOL0     H 1911   6.679   4.067  10.030  0.0767  1.6061  0.8797
   14MOL0     H 1912   7.001   4.289   9.089  0.3918 -0.5597 -0.2918
   14MOL0     H 1913   6.856   4.228   8.893  1.9472 -2.8540 -0.8793
   14MOL0     H 1914   6.483   3.998   8.767 -1.7707 -0.5013 -0.3210
   14MOL0     H 1915   6.317   3.975   8.582 -1.6759 -1.7887 -2.3847
   14MOL0     H 1916   4.829   3.967   7.739 -1.9507  0.8495  3.0106
   14MOL0     H 1917   4.665   4.090   7.574 -2.7811 -1.8746 -4.1733
   14MOL0     H 1918   4.381   4.238   7.407  0.1641  0.7761 -0.2808
   14MOL0     H 1919   4.254   4.396   7.248 -0.3855  0.3678 -1.2790
   14MOL0     H 1920   3.980   4.237   6.918  0.8541  0.0555 -0.2861
   14MOL0     H 1921   3.895   4.270   7.064 -0.0152 -0.3660 -0.0497
   14MOL0     H 1922   3.805   4.406   6.880  0.1704 -0.7283  0.7913
   14MOL0     H 1923   3.959   4.472   6.862  0.1826 -2.0180 -0.8137
   14MOL0     H 1924   3.941   4.522   7.123 -1.2628 -0.9435 -0.2586
   14MOL0     H 1925   3.873   4.634   7.004 -1.9056 -0.0664  0.3894
   14MOL0     H 1926   3.708   4.405   7.130 -0.0143  0.9418  1.4664
   14MOL0     H 1927   3.656   4.529   7.014  1.8585  0.8301 -1.6273
   14MOL0     H 1928   3.639   4.819   7.401 -0.1931  0.3670 -1.0841
   14MOL0     H 1929   4.104   4.085   7.021 -1.9122 -2.6708  1.6513
   14MOL0     H 1930   4.154   3.878   7.053  0.0214 -2.0129  0.8318
   14MOL0     H 1931   4.285   3.818   7.147 -1.6479 -2.6121  0.3811
   14MOL0     H 1932   4.130   3.828   7.226  2.5007 -3.1575  0.3848
   15MOL0     O 1933   5.982   6.869   7.333  0.3659 -0.0929  0.9217
   15MOL0     C 1934   6.028   6.903   7.442  0.6140 -0.6643 -0.7180
   15MOL0     O 1935   6.161   6.904   7.481 -0.8207 -0.4790  0.2901
   15MOL0     C 1936   6.264   6.856   7.403  0.0736 -0.4676 -0.3492
   15MOL0     C 1937   6.373   6.790   7.471 -0.5375  0.0982 -0.0882
   15MOL0     C 1938   6.470   6.724   7.399  0.2647  1.1207 -0.7120
   15MOL0     C 1939   6.466   6.716   7.257  0.1663  0.6801 -0.4080
   15MOL0     O 1940   6.552   6.647   7.177 -0.4219  0.1300  0.1069
   15MOL0     C 1941   6.680   6.617   7.231 -0.2110 -0.4734  0.8381
   15MOL0     C 1942   6.761   6.739   7.202  0.2439 -0.3857 -0.0488
   15MOL0     C 1943   6.908   6.698   7.211  0.1185  0.1174 -0.5920
   15MOL0     C 1944   6.997   6.815   7.174  0.1140  0.6652 -0.0004
   15MOL0     C 1945   7.143   6.773   7.168 -0.2810  0.1174 -0.2441
   15MOL0     C 1946   7.235   6.885   7.131 -0.2381 -0.6885 -0.8696
   15MOL0     C 1947   7.383   6.863   7.162  0.0435  0.4026 -0.2206
   15MOL0     C 1948   7.472   6.969   7.095  0.3137  0.0384  0.8012
   15MOL0     N 1949   7.608   6.967   7.166  0.5278  0.9223  0.7238
   15MOL0     C 1950   7.693   6.857   7.171  0.1589 -0.8500  0.3133
   15MOL0     C 1951   7.788   6.895   7.263 -0.0483  0.7511 -0.5400
   15MOL0     C 1952   7.895   6.807   7.318  0.7352 -0.0968 -0.0302
   15MOL0     C 1953   8.029   6.840   7.255 -0.3978 -0.7123  0.0201
   15MOL0     C 1954   8.131   6.736   7.310  0.2039  0.2743  0.4936
   15MOL0     C 1955   8.263   6.723   7.229 -0.2199 -0.8209  0.1188
   15MOL0     O 1956   8.306   6.856   7.189 -0.0016  0.5416  0.2339
   15MOL0     C 1957   8.421   6.883   7.115 -0.4268  0.5619  0.7524
   15MOL0     C 1958   8.513   6.791   7.081 -0.8213 -0.5652 -0.9182
   15MOL0     C 1959   8.629   6.826   7.019 -0.2939  0.4782 -0.7443
   15MOL0     C 1960   8.740   6.726   6.990 -0.8511 -0.7886  0.8860
   15MOL0     C 1961   8.653   6.962   6.994  0.7906 -0.2156 -0.6684
   15MOL0     C 1962   8.773   7.023   6.940  0.4677 -0.4152 -0.1771
   15MOL0     O 1963   8.749   7.123   6.850  0.4373  0.1702 -0.5658
   15MOL0     C 1964   8.853   7.205   6.811  0.9400 -0.5546  0.4625
   15MOL0     C 1965   8.866   7.232   6.675  0.7652  0.0675  0.6934
   15MOL0     C 1966   8.972   7.298   6.619 -0.0414  0.0170 -0.0293
   15MOL0     C 1967   9.071   7.340   6.706 -0.0083  0.1961  0.3848
   15MOL0     O 1968   9.160   7.409   6.632  0.0337 -0.2182 -0.1219
   15MOL0     C 1969   9.275   7.459   6.695 -0.3391  0.6893 -0.0153
   15MOL0     C 1970   9.368   7.509   6.583 -0.0484  0.2653 -0.0873
   15MOL0     C 1971   9.302   7.605   6.485 -0.7512  0.0227 -0.4498
   15MOL0     C 1972   9.391   7.652   6.367  1.3796  0.4343 -0.3307
   15MOL0     C 1973   9.513   7.732   6.412 -0.3423 -0.2047 -1.2020
   15MOL0     C 1974   9.572   7.783   6.282  0.1090 -0.4008 -1.1574
   15MOL0     C 1975   9.724   7.816   6.291  0.1833  0.3486  0.3315
   15MOL0     C 1976   9.763   7.948   6.357 -0.0572  0.6303 -0.6222
   15MOL0    Cl 1977   9.673   8.089   6.288 -0.6204 -0.2760  0.1523
   15MOL0     C 1978   9.061   7.320   6.840  0.0998 -0.8369 -0.4824
   15MOL0     C 1979   8.948   7.258   6.895  0.0384 -0.4837  0.2409
   15MOL0     O 1980   8.881   6.983   6.979 -0.7970  0.0758  0.4301
   15MOL0     C 1981   8.556   7.059   7.018  1.0529 -0.7117 -1.0741
   15MOL0     C 1982   8.440   7.011   7.077 -0.1722 -0.6148  1.1542
   15MOL0     N 1983   7.757   7.020   7.306  0.2167  0.4232 -0.1836
   15MOL0     N 1984   7.646   7.063   7.256  1.0014  0.7881 -0.2293
   15MOL0     C 1985   6.366   6.778   7.193 -0.8225  0.7984 -0.7120
   15MOL0     C 1986   6.272   6.847   7.260  1.0099  0.0187 -0.2850
   15MOL0     C 1987   5.925   6.963   7.525 -0.1364 -0.0126 -1.5606
   15MOL0     C 1988   5.802   7.006   7.475  0.3672 -0.1430 -0.6358
   15MOL0     C 1989   5.701   7.045   7.562 -0.8205 -0.3729  0.0720
   15MOL0     C 1990   5.719   7.046   7.700 -0.7807 -0.7289  0.0324
   15MOL0     O 1991   5.622   7.100   7.772  0.1343  1.0133  0.3882
   15MOL0     C 1992   5.619   7.078   7.912 -0.3389  0.2940  0.7464
   15MOL0     C 1993   5.470   7.050   7.950 -0.2144 -1.1786 -0.2776
   15MOL0     C 1994   5.427   6.911   7.901 -0.1269  0.0837  0.4995
   15MOL0     C 1995   5.281   6.878   7.931  0.8660  0.1149 -0.5842
   15MOL0     C 1996   5.186   6.976   7.881 -1.1505  0.0492  0.0096
   15MOL0     C 1997   5.109   7.063   7.853  0.5042  0.3551  0.3219
   15MOL0     C 1998   5.839   7.002   7.751  0.3209 -0.2943  0.0026
   15MOL0     C 1999   5.937   6.963   7.669 -0.0149 -0.2655  0.0495
   15MOL0     C 2000   6.070   6.921   7.729  0.4857 -0.6106  0.8220
   15MOL0     H 2001   6.390   6.782   7.578  0.3495  0.5872 -0.1883
   15MOL0     H 2002   6.554   6.677   7.450  2.0290  2.6181 -2.0965
   15MOL0     H 2003   6.713   6.534   7.167  1.0273  1.3764 -1.0760
   15MOL0     H 2004   6.687   6.592   7.337 -1.5099  1.0222  1.3214
   15MOL0     H 2005   6.738   6.765   7.098  0.7808  0.6972  0.0914
   15MOL0     H 2006   6.737   6.821   7.269  2.3410 -0.0130  0.3120
   15MOL0     H 2007   6.926   6.664   7.314 -1.0956 -0.7476 -0.6375
   15MOL0     H 2008   6.932   6.622   7.136 -0.7587 -0.7764 -0.0002
   15MOL0     H 2009   6.965   6.857   7.078 -0.7439  0.2537  0.1019
   15MOL0     H 2010   6.988   6.903   7.238 -0.3503  0.2962  0.4424
   15MOL0     H 2011   7.144   6.696   7.090  1.0296  0.5855 -0.7199
   15MOL0     H 2012   7.171   6.733   7.266 -0.6414 -0.1812 -0.2599
   15MOL0     H 2013   7.232   6.893   7.022 -1.2657  1.4117 -0.7393
   15MOL0     H 2014   7.204   6.981   7.172 -3.4964 -2.8803  2.4113
   15MOL0     H 2015   7.415   6.769   7.118  0.5457  1.3488 -1.9767
   15MOL0     H 2016   7.394   6.874   7.270 -1.1825  2.4858 -0.2395
   15MOL0     H 2017   7.486   6.942   6.990 -0.5700 -0.0014  0.6849
   15MOL0     H 2018   7.427   7.069   7.099 -0.9862 -0.5186  0.5456
   15MOL0     H 2019   7.698   6.765   7.113  4.0990  1.2610 -3.2044
   15MOL0     H 2020   7.864   6.703   7.303  2.1277 -0.2870 -1.9607
   15MOL0     H 2021   7.893   6.816   7.427  0.0167  1.1757 -0.1236
   15MOL0     H 2022   8.014   6.845   7.147  1.0688 -0.4572 -0.2005
   15MOL0     H 2023   8.053   6.940   7.295 -2.0066 -0.0777 -0.5208
   15MOL0     H 2024   8.160   6.755   7.414 -2.6565 -1.6143  1.7583
   15MOL0     H 2025   8.086   6.636   7.305  2.5611 -0.7715 -1.2998
   15MOL0     H 2026   8.330   6.659   7.287 -0.9531 -1.8947 -0.1910
   15MOL0     H 2027   8.244   6.673   7.134 -1.2452  0.4181 -0.3541
   15MOL0     H 2028   8.489   6.686   7.094  0.6912 -0.8637 -0.2865
   15MOL0     H 2029   8.699   6.625   6.979  2.1669 -2.2168  1.6348
   15MOL0     H 2030   8.821   6.723   7.063  1.6907 -2.3611 -1.7737
   15MOL0     H 2031   8.793   6.757   6.900 -1.9879  2.1094  1.0948
   15MOL0     H 2032   8.787   7.183   6.619  0.2676 -1.8433  2.9087
   15MOL0     H 2033   8.976   7.313   6.512  1.7300 -0.6090 -0.0796
   15MOL0     H 2034   9.248   7.547   6.754  0.6919  1.3378 -0.4801
   15MOL0     H 2035   9.331   7.387   6.754  1.3283  0.6214 -1.5875
   15MOL0     H 2036   9.451   7.562   6.631  2.5380 -1.9200 -1.8627
   15MOL0     H 2037   9.404   7.417   6.535  1.0751  0.5769  0.1185
   15MOL0     H 2038   9.274   7.699   6.534 -0.6275  1.7724 -3.4816
   15MOL0     H 2039   9.218   7.551   6.441  0.6808 -2.0661 -0.7860
   15MOL0     H 2040   9.324   7.716   6.309  0.2364 -0.5857 -0.1732
   15MOL0     H 2041   9.430   7.573   6.302  1.9150  3.8471 -4.6512
   15MOL0     H 2042   9.485   7.819   6.473  0.5565  1.5388 -3.1521
   15MOL0     H 2043   9.586   7.670   6.464 -0.2653 -1.3827 -2.6588
   15MOL0     H 2044   9.514   7.874   6.263 -1.2594 -0.9528  0.1806
   15MOL0     H 2045   9.557   7.701   6.211  0.1129 -0.8715 -0.6223
   15MOL0     H 2046   9.781   7.800   6.199  0.9457  4.7267 -0.1942
   15MOL0     H 2047   9.767   7.737   6.353 -1.8416 -1.2158 -0.1415
   15MOL0     H 2048   9.870   7.966   6.341 -0.0590  0.5995 -0.6676
   15MOL0     H 2049   9.732   7.936   6.461  0.0355 -1.4813 -0.7979
   15MOL0     H 2050   9.128   7.364   6.913 -1.6974  1.3443 -0.0300
   15MOL0     H 2051   8.951   7.241   7.002  1.6814 -1.4115  0.0749
   15MOL0     H 2052   8.569   7.166   7.011 -1.3333 -0.2880  0.0525
   15MOL0     H 2053   8.370   7.091   7.100 -0.6745  0.0520 -2.1035
   15MOL0     H 2054   6.363   6.765   7.085 -3.0975  2.1451 -0.8698
   15MOL0     H 2055   6.180   6.876   7.210 -0.2268 -3.3446 -0.2791
   15MOL0     H 2056   5.790   6.999   7.367  3.5595 -2.4961 -1.0039
   15MOL0     H 2057   5.604   7.075   7.524 -0.9796 -0.7644  0.1656
   15MOL0     H 2058   5.671   6.989   7.949 -1.5990  0.7770  4.0689
   15MOL0     H 2059   5.652   7.175   7.953 -1.2649  1.5388 -1.2908
   15MOL0     H 2060   5.403   7.132   7.923  0.1964 -1.0214 -0.8449
   15MOL0     H 2061   5.469   7.046   8.059 -0.4916  1.8719 -0.0836
   15MOL0     H 2062   5.450   6.896   7.795 -1.3449 -1.5609  0.4215
   15MOL0     H 2063   5.489   6.838   7.953 -2.9141 -0.3698  3.5489
   15MOL0     H 2064   5.278   6.872   8.040 -0.8814  3.7106 -0.2972
   15MOL0     H 2065   5.250   6.779   7.895 -0.6270  0.0957  0.6326
   15MOL0     H 2066   5.029   7.132   7.842  0.8393  0.4441 -1.8869
   15MOL0     H 2067   5.860   7.006   7.857  0.4665  0.3695 -0.0451
   15MOL0     H 2068   6.149   6.993   7.706  0.6305 -0.2290  2.4049
   15MOL0     H 2069   6.048   6.924   7.836  2.6895 -1.4168  1.3506
   15MOL0     H 2070   6.095   6.817   7.706 -0.4555 -0.3509 -1.6238
   16MOL0     O 2071   5.980   8.583   7.995  0.1094 -0.5861  0.8397
   16MOL0     C 2072   5.937   8.696   8.014  0.5260  0.7658  0.3860
   16MOL0     O 2073   6.002   8.804   7.975  0.2635 -0.8801  0.1812
   16MOL0     C 2074   6.134   8.778   7.939  0.0001 -0.9673  0.4638
   16MOL0     C 2075   6.228   8.816   8.029  0.3717  0.1349 -0.6075
   16MOL0     C 2076   6.364   8.806   7.995  0.1258 -0.1545  1.1794
   16MOL0     C 2077   6.408   8.762   7.870  0.2754 -0.8702 -0.4406
   16MOL0     O 2078   6.545   8.773   7.844  0.9024  0.0484  0.0174
   16MOL0     C 2079   6.612   8.644   7.828 -0.0009 -0.4725 -0.6349
   16MOL0     C 2080   6.706   8.659   7.711  0.5638  0.3700 -0.2812
   16MOL0     C 2081   6.806   8.545   7.710 -0.2379  0.9127  0.2179
   16MOL0     C 2082   6.923   8.567   7.620  0.7667  1.0385  0.2720
   16MOL0     C 2083   7.036   8.466   7.640 -1.0623 -0.1042  0.2200
   16MOL0     C 2084   6.999   8.321   7.624 -0.7802  0.2766  0.1894
   16MOL0     C 2085   7.110   8.224   7.673  0.3136 -0.3190  0.2775
   16MOL0     C 2086   7.083   8.165   7.820  0.0483  0.2059  0.8231
   16MOL0     N 2087   7.184   8.071   7.860 -0.0817  0.6646 -0.3433
   16MOL0     C 2088   7.246   7.970   7.782  0.8809 -0.2168  0.2617
   16MOL0     C 2089   7.321   7.906   7.873 -0.0265  1.4704  0.6604
   16MOL0     C 2090   7.417   7.780   7.866 -0.2943 -0.2400 -0.4553
   16MOL0     C 2091   7.524   7.812   7.760 -0.6381  0.5666 -0.2490
   16MOL0     C 2092   7.617   7.922   7.811  0.6749  0.2504  0.6253
   16MOL0     C 2093   7.729   7.958   7.720  0.0877  0.2723  0.2253
   16MOL0     O 2094   7.783   8.083   7.770 -0.0808 -0.3865 -0.1045
   16MOL0     C 2095   7.919   8.099   7.793 -0.0557 -0.1021 -0.5599
   16MOL0     C 2096   8.020   8.008   7.755 -0.3134 -0.7099  0.8977
   16MOL0     C 2097   8.152   8.042   7.763 -0.5894 -0.5394  0.4228
   16MOL0     C 2098   8.248   7.945   7.700 -0.8115 -0.1743  0.2227
   16MOL0     C 2099   8.183   8.154   7.845  0.0528  0.1611 -0.0911
   16MOL0     C 2100   8.320   8.196   7.871 -0.7520 -0.4804  0.1651
   16MOL0     O 2101   8.420   8.099   7.869  0.5374 -0.0802 -0.4514
   16MOL0     C 2102   8.551   8.128   7.872  0.6691 -0.7594  1.3140
   16MOL0     C 2103   8.630   8.020   7.902  1.0852 -0.9653 -0.7907
   16MOL0     C 2104   8.770   8.035   7.915  0.2038  0.6114  1.2235
   16MOL0     C 2105   8.827   8.161   7.905 -0.1176 -0.4228 -0.3731
   16MOL0     O 2106   8.964   8.165   7.918 -1.3102 -0.3713  0.3635
   16MOL0     C 2107   9.010   8.254   8.021  0.0020 -0.3421  0.4950
   16MOL0     C 2108   9.155   8.256   8.021 -0.8383  0.7195  0.2371
   16MOL0     C 2109   9.205   8.342   7.904  0.0592 -0.3048 -0.1866
   16MOL0     C 2110   9.356   8.344   7.905 -0.0210  0.4708  0.3322
   16MOL0     C 2111   9.420   8.408   7.786 -0.5260 -0.2926 -0.0298
   16MOL0     C 2112   9.580   8.379   7.772  0.8985 -0.3685 -0.4645
   16MOL0     C 2113   9.613   8.237   7.721  0.4311 -0.3978 -0.4368
   16MOL0     C 2114   9.605   8.242   7.563 -0.5789  0.2388  0.3720
   16MOL0    Cl 2115   9.626   8.066   7.524  0.0118  0.2221  0.4842
   16MOL0     C 2116   8.751   8.270   7.879 -0.0643  0.9015 -0.8710
   16MOL0     C 2117   8.614   8.260   7.849 -0.3830  0.4296 -0.8386
   16MOL0     O 2118   8.338   8.318   7.882  0.1172  0.5605 -0.1705
   16MOL0     C 2119   8.080   8.241   7.890  0.1725  0.3939  0.1283
   16MOL0     C 2120   7.951   8.222   7.857 -0.6714  1.1299  0.4544
   16MOL0     N 2121   7.311   7.967   7.995 -0.1177 -0.1997 -0.4116
   16MOL0     N 2122   7.239   8.065   7.984  0.4024  0.7567 -0.3362
   16MOL0     C 2123   6.314   8.719   7.776  0.2076  0.4844 -0.2192
   16MOL0     C 2124   6.179   8.721   7.818  0.1525 -0.1919 -0.6462
   16MOL0     C 2125   5.836   8.707   8.117  0.5211  0.0969  0.6043
   16MOL0     C 2126   5.835   8.833   8.188 -0.0593 -0.7032 -0.1075
   16MOL0     C 2127   5.745   8.863   8.292 -0.4649  1.2483  0.5714
   16MOL0     C 2128   5.638   8.780   8.309  0.8066  0.3814  0.0097
   16MOL0     O 2129   5.545   8.814   8.407  0.1549 -0.2670  0.1693
   16MOL0     C 2130   5.423   8.739   8.419 -0.0114  0.3188 -0.7301
   16MOL0     C 2131   5.324   8.821   8.511 -0.3293 -0.1701 -0.4732
   16MOL0     C 2132   5.254   8.931   8.451 -0.5055  0.8681  0.9440
   16MOL0     C 2133   5.171   9.003   8.562  1.1288  0.3324 -0.1941
   16MOL0     C 2134   5.086   9.110   8.505 -0.6066  0.5545 -0.1834
   16MOL0     C 2135   5.013   9.193   8.448 -0.2830  0.3305 -0.4845
   16MOL0     C 2136   5.628   8.654   8.233 -0.1507  0.1835 -0.1852
   16MOL0     C 2137   5.732   8.616   8.143  0.2262 -0.0277  0.9447
   16MOL0     C 2138   5.726   8.480   8.080  0.1559  0.7396  0.1995
   16MOL0     H 2139   6.196   8.854   8.125 -1.9445 -0.7736 -0.9554
   16MOL0     H 2140   6.441   8.824   8.069  0.0540 -1.5733  1.6267
   16MOL0     H 2141   6.561   8.551   7.802 -1.5091  0.5561 -1.5362
   16MOL0     H 2142   6.674   8.632   7.917 -1.1281  1.9122  0.5620
   16MOL0     H 2143   6.652   8.656   7.616 -0.9861  2.2162  0.4970
   16MOL0     H 2144   6.760   8.754   7.714 -0.7647  1.1823 -1.3299
   16MOL0     H 2145   6.833   8.515   7.812 -1.7468  1.5417  0.8323
   16MOL0     H 2146   6.751   8.463   7.663  1.4154  0.3906 -0.8564
   16MOL0     H 2147   6.896   8.563   7.514 -0.3318  1.5531  0.5248
   16MOL0     H 2148   6.958   8.670   7.629 -2.5197  2.2201  0.8427
   16MOL0     H 2149   7.067   8.462   7.745  0.7168 -3.2684 -0.3123
   16MOL0     H 2150   7.123   8.490   7.579  0.0841  0.7586  2.0934
   16MOL0     H 2151   6.902   8.302   7.671  0.5332 -1.6771  2.2943
   16MOL0     H 2152   6.986   8.298   7.517  1.4071 -0.8788  0.1195
   16MOL0     H 2153   7.206   8.275   7.681 -1.1704  2.6730  0.2484
   16MOL0     H 2154   7.114   8.143   7.600 -0.1475 -0.7042  0.6695
   16MOL0     H 2155   7.081   8.251   7.888  1.7869  3.5590 -2.8879
   16MOL0     H 2156   6.989   8.110   7.822  1.2269 -1.9251  1.0797
   16MOL0     H 2157   7.226   7.944   7.678 -4.1330  1.1288  0.5991
   16MOL0     H 2158   7.365   7.687   7.842  1.7310 -1.8382  0.9936
   16MOL0     H 2159   7.455   7.767   7.967 -2.0527  1.5000  0.5075
   16MOL0     H 2160   7.582   7.719   7.751 -0.7898  0.4226  0.2420
   16MOL0     H 2161   7.494   7.838   7.658  0.3420  2.2539 -0.1399
   16MOL0     H 2162   7.558   8.014   7.814  1.5597  1.0062 -2.2144
   16MOL0     H 2163   7.658   7.900   7.909 -0.6176 -0.8475  0.9590
   16MOL0     H 2164   7.799   7.874   7.723  1.4475  1.2678 -1.6758
   16MOL0     H 2165   7.695   7.984   7.620 -0.9132 -1.3634  0.0933
   16MOL0     H 2166   7.986   7.922   7.698 -0.6349 -0.2985  0.4566
   16MOL0     H 2167   8.192   7.899   7.618 -1.2357 -0.0528  0.4362
   16MOL0     H 2168   8.283   7.867   7.767 -1.3407 -1.6790 -1.1928
   16MOL0     H 2169   8.336   7.996   7.661 -0.3487 -2.3697 -1.7922
   16MOL0     H 2170   8.587   7.923   7.924 -0.8478 -0.1374 -0.6331
   16MOL0     H 2171   8.829   7.948   7.942 -1.1130 -0.0704  2.0024
   16MOL0     H 2172   8.971   8.355   8.010 -1.2697 -0.9531 -1.0674
   16MOL0     H 2173   8.976   8.215   8.118 -3.8795 -1.6513 -1.1964
   16MOL0     H 2174   9.193   8.292   8.116  0.0951 -0.6497  0.4107
   16MOL0     H 2175   9.207   8.160   8.026  2.3987  2.3403  0.3432
   16MOL0     H 2176   9.169   8.444   7.915  0.5678 -0.1076 -0.3503
   16MOL0     H 2177   9.166   8.306   7.808  0.3486  1.2935 -0.9386
   16MOL0     H 2178   9.380   8.237   7.908 -1.9836 -0.0238  3.5036
   16MOL0     H 2179   9.390   8.396   7.995  1.2371  1.3726 -0.6416
   16MOL0     H 2180   9.370   8.364   7.699 -0.0295  4.1755 -2.9079
   16MOL0     H 2181   9.397   8.515   7.781  0.5705 -0.0517 -0.1448
   16MOL0     H 2182   9.632   8.383   7.868 -0.1491  0.3310  0.0896
   16MOL0     H 2183   9.621   8.449   7.698  0.0097 -0.4371 -1.0273
   16MOL0     H 2184   9.538   8.167   7.760  1.3460 -1.7678 -1.0383
   16MOL0     H 2185   9.711   8.199   7.751 -0.4173 -1.9901  0.4462
   16MOL0     H 2186   9.682   8.297   7.507  1.2891 -0.6989  1.9090
   16MOL0     H 2187   9.508   8.284   7.537 -2.3266 -1.4214  3.6697
   16MOL0     H 2188   8.790   8.371   7.871 -1.2500  1.3579 -1.0289
   16MOL0     H 2189   8.566   8.349   7.810 -1.6453  2.0010  3.7140
   16MOL0     H 2190   8.103   8.333   7.942  0.7718  1.1874 -1.4627
   16MOL0     H 2191   7.874   8.295   7.881 -2.5003 -1.4867  3.3351
   16MOL0     H 2192   6.327   8.658   7.687  0.1754 -2.0971  1.4364
   16MOL0     H 2193   6.099   8.693   7.751  0.3003  1.6338 -1.6316
   16MOL0     H 2194   5.918   8.900   8.168 -0.1496 -1.6645 -4.7721
   16MOL0     H 2195   5.747   8.961   8.339 -1.1124  0.9515  1.2461
   16MOL0     H 2196   5.378   8.730   8.320  1.0642  2.6726 -1.5285
   16MOL0     H 2197   5.437   8.647   8.476  0.0327 -0.6325 -2.2135
   16MOL0     H 2198   5.364   8.847   8.610 -0.3542 -0.9800 -0.2454
   16MOL0     H 2199   5.246   8.750   8.542 -3.8327  3.4145 -0.1607
   16MOL0     H 2200   5.322   9.008   8.415  0.8889  0.2096  2.0686
   16MOL0     H 2201   5.193   8.899   8.366 -0.3962  1.5958  0.5911
   16MOL0     H 2202   5.236   9.056   8.632 -0.1546 -0.6819  1.9060
   16MOL0     H 2203   5.108   8.932   8.618  0.8660  0.7860  0.0895
   16MOL0     H 2204   4.937   9.254   8.404 -1.6364 -0.6366  0.4566
   16MOL0     H 2205   5.548   8.583   8.252  0.9766 -1.0969 -0.0727
   16MOL0     H 2206   5.701   8.492   7.974  1.4407  0.2347 -0.1814
   16MOL0     H 2207   5.816   8.419   8.086 -1.6829 -2.1189  0.8414
   16MOL0     H 2208   5.639   8.431   8.125 -1.1206  2.5077 -0.2162
   17MOL0     O 2209   8.098   5.560   9.443 -0.4841  0.6532  0.0787
   17MOL0     C 2210   8.057   5.588   9.330  0.9820  0.0066 -0.1863
   17MOL0     O 2211   8.136   5.638   9.230 -0.2162 -0.0232  0.5426
   17MOL0     C 2212   8.269   5.653   9.256  0.0825 -0.7435  0.3372
   17MOL0     C 2213   8.309   5.764   9.337 -0.4035  0.5222 -0.4485
   17MOL0     C 2214   8.443   5.787   9.364  0.0819  0.5410  0.7331
   17MOL0     C 2215   8.540   5.700   9.293 -0.7649 -0.4163 -0.6401
   17MOL0     O 2216   8.672   5.720   9.338 -0.3657 -0.1089  0.3582
   17MOL0     C 2217   8.760   5.606   9.330  0.2787  0.4245  0.3592
   17MOL0     C 2218   8.904   5.650   9.371  0.2826 -0.2318 -0.1273
   17MOL0     C 2219   8.918   5.654   9.524 -0.0285 -0.6498 -0.0327
   17MOL0     C 2220   9.070   5.668   9.554  0.7364  0.0783  0.0058
   17MOL0     C 2221   9.098   5.680   9.708  0.1097 -0.1580  0.3576
   17MOL0     C 2222   9.230   5.729   9.754 -0.7183 -0.2176 -0.3283
   17MOL0     C 2223   9.242   5.880   9.750  0.6023  0.0978  1.0336
   17MOL0     C 2224   9.384   5.925   9.764  0.1487 -0.4875 -0.3385
   17MOL0     N 2225   9.446   5.883   9.895 -0.3392  0.1487 -0.1109
   17MOL0     C 2226   9.399   5.901  10.023 -0.0142 -1.3473 -0.2156
   17MOL0     C 2227   9.495   5.851  10.110 -0.2807 -0.0379 -0.4900
   17MOL0     C 2228   9.486   5.845  10.261 -0.0885 -0.0258 -1.1105
   17MOL0     C 2229   9.423   5.966  10.330 -0.0277 -0.3504 -0.3239
   17MOL0     C 2230   9.439   5.985  10.485  0.5163  0.4585  0.3251
   17MOL0     C 2231   9.573   5.936  10.541 -0.0898 -0.4141  0.3141
   17MOL0     O 2232   9.565   5.935  10.684 -0.5643  0.1197 -0.1340
   17MOL0     C 2233   9.663   5.859  10.740 -0.1657 -1.1134  0.5186
   17MOL0     C 2234   9.798   5.875  10.699  0.2782 -0.1971  0.2449
   17MOL0     C 2235   9.903   5.806  10.757 -0.5890  0.2909 -0.2922
   17MOL0     C 2236  10.049   5.836  10.689 -0.4633 -0.6159  0.1958
   17MOL0     C 2237   9.881   5.718  10.869 -0.1018  0.3503  0.9698
   17MOL0     C 2238   9.987   5.634  10.945 -0.0224  0.2176 -0.5483
   17MOL0     O 2239   9.959   5.596  11.074  0.0875 -0.1545  0.0883
   17MOL0     C 2240  10.010   5.495  11.141 -0.3640  0.0172 -0.3968
   17MOL0     C 2241   9.931   5.441  11.238  0.1787 -0.2784  0.7790
   17MOL0     C 2242   9.986   5.350  11.335 -0.2980 -1.0237 -0.3015
   17MOL0     C 2243  10.123   5.308  11.319 -0.3086 -0.3848 -0.3192
   17MOL0     O 2244  10.166   5.201  11.392  0.0823 -0.5158  0.8471
   17MOL0     C 2245  10.260   5.109  11.333  0.2469  0.2972  0.0716
   17MOL0     C 2246  10.278   4.971  11.408  0.3303 -1.1064 -0.5046
   17MOL0     C 2247  10.350   4.997  11.540  0.1455 -0.2968  0.1906
   17MOL0     C 2248  10.322   4.879  11.628  0.0486  0.4348 -0.3963
   17MOL0     C 2249  10.425   4.859  11.738  0.1009  0.1667 -0.6086
   17MOL0     C 2250  10.421   4.709  11.765 -0.9478  0.1590  1.2155
   17MOL0     C 2251  10.511   4.670  11.887 -0.3204 -0.1299  0.1842
   17MOL0     C 2252  10.653   4.716  11.866 -0.2866 -0.8257 -0.0259
   17MOL0    Cl 2253  10.731   4.648  11.727 -0.1424 -0.1730 -0.7010
   17MOL0     C 2254  10.206   5.364  11.220  0.2360  0.1935 -0.6268
   17MOL0     C 2255  10.147   5.464  11.141  0.8313 -0.1765  0.4025
   17MOL0     O 2256  10.081   5.603  10.878  0.0265 -0.6621 -0.0866
   17MOL0     C 2257   9.748   5.714  10.917  0.7260 -0.4177  0.5253
   17MOL0     C 2258   9.642   5.780  10.854  0.6845 -0.2443 -0.0950
   17MOL0     N 2259   9.600   5.803  10.028 -0.2514 -0.5787  0.0815
   17MOL0     N 2260   9.566   5.824   9.903 -0.3730 -0.0853  0.0531
   17MOL0     C 2261   8.500   5.601   9.204  0.9323  0.2616  0.1252
   17MOL0     C 2262   8.360   5.575   9.195 -0.4181  0.2809  0.3021
   17MOL0     C 2263   7.908   5.579   9.299  0.2428 -0.1377 -1.0950
   17MOL0     C 2264   7.868   5.613   9.164  0.0057 -0.3801 -0.1008
   17MOL0     C 2265   7.731   5.607   9.125 -0.5184  0.2255 -0.3698
   17MOL0     C 2266   7.635   5.574   9.220  0.0106  0.0213  0.9834
   17MOL0     O 2267   7.504   5.564   9.192  0.8947  0.6702 -0.4290
   17MOL0     C 2268   7.412   5.480   9.273  0.8230 -0.6116 -0.1486
   17MOL0     C 2269   7.300   5.419   9.196  0.0564  0.0640  0.1289
   17MOL0     C 2270   7.196   5.517   9.138  0.1222  0.1744  0.3803
   17MOL0     C 2271   7.111   5.458   9.023 -0.0652 -0.2910  0.2809
   17MOL0     C 2272   7.022   5.570   8.972  0.8276  0.6680  0.5504
   17MOL0     C 2273   6.953   5.657   8.927  0.4834 -0.4077  0.5426
   17MOL0     C 2274   7.683   5.532   9.347 -0.3567 -0.6807 -0.8061
   17MOL0     C 2275   7.812   5.532   9.387  0.1260  0.7949  0.2738
   17MOL0     C 2276   7.839   5.480   9.530  0.7131 -0.7413  0.6448
   17MOL0     H 2277   8.229   5.821   9.384 -1.0024 -0.0256 -0.7851
   17MOL0     H 2278   8.467   5.865   9.435  0.6981 -0.2009  1.3708
   17MOL0     H 2279   8.761   5.567   9.228 -1.4609 -0.4441  0.6351
   17MOL0     H 2280   8.724   5.524   9.393  1.5491  0.5540  1.3003
   17MOL0     H 2281   8.978   5.583   9.327  1.8030  0.2541  1.5689
   17MOL0     H 2282   8.923   5.748   9.326 -1.5765  0.6303  0.8619
   17MOL0     H 2283   8.853   5.735   9.558  1.2915 -0.8994  3.5237
   17MOL0     H 2284   8.872   5.568   9.573 -0.8162  0.0952  0.5549
   17MOL0     H 2285   9.127   5.588   9.506  1.1769  1.5313 -2.0246
   17MOL0     H 2286   9.097   5.763   9.508 -1.4894  0.4372 -0.6706
   17MOL0     H 2287   9.084   5.579   9.747 -1.2781  0.3245  1.1618
   17MOL0     H 2288   9.015   5.738   9.749 -1.9097 -0.9646 -2.3179
   17MOL0     H 2289   9.230   5.706   9.861 -0.0779 -0.4867 -0.3854
   17MOL0     H 2290   9.314   5.680   9.705 -0.8706 -1.2157  0.3921
   17MOL0     H 2291   9.176   5.933   9.820 -1.9833 -1.2189 -0.2861
   17MOL0     H 2292   9.229   5.917   9.648  1.1447 -1.1798  0.4751
   17MOL0     H 2293   9.448   5.885   9.685 -0.4698 -1.8283 -0.1884
   17MOL0     H 2294   9.382   6.033   9.745  0.2734 -0.9404 -3.4965
   17MOL0     H 2295   9.316   5.961  10.061 -1.2478 -3.3193  0.3571
   17MOL0     H 2296   9.590   5.831  10.293 -0.4182  1.5467  0.7952
   17MOL0     H 2297   9.428   5.759  10.297  0.0215  0.0354 -0.7777
   17MOL0     H 2298   9.467   6.063  10.302  1.1910 -0.4858  1.0119
   17MOL0     H 2299   9.315   5.955  10.313 -0.1045 -0.6990  0.3473
   17MOL0     H 2300   9.440   6.091  10.514  2.8361 -0.5135  4.6152
   17MOL0     H 2301   9.356   5.943  10.544 -0.2814  3.6773  1.7334
   17MOL0     H 2302   9.594   5.834  10.506 -2.7519 -0.8137 -0.3555
   17MOL0     H 2303   9.654   5.994  10.497 -1.5231  2.7940  1.5979
   17MOL0     H 2304   9.819   5.960  10.635  1.6284 -0.4221  0.3527
   17MOL0     H 2305  10.127   5.832  10.766  2.4044  2.2730 -2.2854
   17MOL0     H 2306  10.054   5.939  10.651  1.8743  0.0753  2.1197
   17MOL0     H 2307  10.082   5.773  10.606 -0.8389 -0.6187  0.0459
   17MOL0     H 2308   9.825   5.466  11.237  0.5271  1.2589  0.6319
   17MOL0     H 2309   9.916   5.299  11.401 -0.0220 -0.2343  0.6238
   17MOL0     H 2310  10.243   5.087  11.228  1.9844 -2.1127  0.1917
   17MOL0     H 2311  10.356   5.162  11.328 -0.3544  1.3007 -0.9866
   17MOL0     H 2312  10.181   4.924  11.428  1.8593 -4.3037  0.1143
   17MOL0     H 2313  10.334   4.900  11.346  2.9547 -0.2519  0.7651
   17MOL0     H 2314  10.301   5.089  11.573  2.7433  2.3826 -2.7904
   17MOL0     H 2315  10.455   5.025  11.533 -0.0128  2.2365  4.3404
   17MOL0     H 2316  10.325   4.793  11.560  0.3069  0.6323 -0.6298
   17MOL0     H 2317  10.220   4.896  11.665  1.2810  2.1670  2.5255
   17MOL0     H 2318  10.518   4.896  11.693 -0.4163  1.1619 -0.8800
   17MOL0     H 2319  10.414   4.930  11.821 -1.3458  0.2191 -0.8230
   17MOL0     H 2320  10.450   4.655  11.675  1.8788  1.1402  1.4424
   17MOL0     H 2321  10.319   4.689  11.800 -1.8466  3.6000  0.9179
   17MOL0     H 2322  10.511   4.561  11.893 -1.8431 -0.1898 -0.4939
   17MOL0     H 2323  10.456   4.700  11.977  1.0662 -0.8372  1.3084
   17MOL0     H 2324  10.707   4.682  11.955 -4.0894 -2.1831  2.0108
   17MOL0     H 2325  10.651   4.825  11.857  1.6485 -0.6291  1.3189
   17MOL0     H 2326  10.310   5.335  11.215  0.2905  0.4431 -0.8882
   17MOL0     H 2327  10.205   5.513  11.063 -3.7689  1.7549 -2.1546
   17MOL0     H 2328   9.723   5.655  11.005 -1.8906 -0.4120 -0.1203
   17MOL0     H 2329   9.538   5.773  10.884  0.8175 -1.1351  0.1870
   17MOL0     H 2330   8.571   5.539   9.150 -0.8249 -3.1652  1.4294
   17MOL0     H 2331   8.332   5.498   9.125  3.3198 -1.4617  0.4692
   17MOL0     H 2332   7.937   5.655   9.092 -1.4284 -0.8479 -1.8175
   17MOL0     H 2333   7.694   5.649   9.032  1.5627 -2.4669 -2.5475
   17MOL0     H 2334   7.482   5.402   9.304  4.4912  2.2827 -0.4287
   17MOL0     H 2335   7.380   5.543   9.357 -3.2655 -0.3443 -1.6908
   17MOL0     H 2336   7.237   5.352   9.255 -1.8941  3.1044  1.7598
   17MOL0     H 2337   7.354   5.364   9.118  0.7579  0.5177  0.2872
   17MOL0     H 2338   7.132   5.559   9.216 -0.4684 -1.3228  0.7294
   17MOL0     H 2339   7.258   5.601   9.105  1.2736 -0.2858  1.2868
   17MOL0     H 2340   7.053   5.376   9.065 -1.4492 -0.8201 -2.4428
   17MOL0     H 2341   7.188   5.422   8.954  2.2213 -1.0047  3.0293
   17MOL0     H 2342   6.897   5.743   8.894  0.3299 -0.5499  0.4306
   17MOL0     H 2343   7.611   5.509   9.425  1.9113 -3.4321  0.6506
   17MOL0     H 2344   7.884   5.557   9.595  0.6126 -0.8280  0.8167
   17MOL0     H 2345   7.747   5.451   9.582  0.2913 -0.8515 -0.1539
   17MOL0     H 2346   7.901   5.391   9.537  1.0011 -0.5265  0.8800
   18MOL0     O 2347   3.769   0.158   7.598 -0.5254  0.0422  1.1004
   18MOL0     C 2348   3.773   0.074   7.499  0.1911  0.0762  0.6458
   18MOL0     O 2349   3.661   0.017   7.435 -0.4396  0.5510  0.7870
   18MOL0     C 2350   3.542   0.081   7.432 -0.0460  0.1916 -0.1588
   18MOL0     C 2351   3.458   0.072   7.542 -0.9555  0.7642 -0.1215
   18MOL0     C 2352   3.340   0.143   7.535 -0.7394  0.4012  0.4863
   18MOL0     C 2353   3.305   0.222   7.426  0.6593  0.0170  0.2283
   18MOL0     O 2354   3.192   0.293   7.449  0.2237 -0.0266 -0.7038
   18MOL0     C 2355   3.119   0.347   7.342 -0.0908  0.9210 -0.6299
   18MOL0     C 2356   3.013   0.441   7.395 -0.4064 -0.7114  0.1721
   18MOL0     C 2357   2.867   0.390   7.417  0.4394 -0.3760  0.0841
   18MOL0     C 2358   2.786   0.481   7.502  0.6029  0.4522 -0.2276
   18MOL0     C 2359   2.742   0.603   7.424  0.1156 -0.2560 -0.0781
   18MOL0     C 2360   2.693   0.720   7.510  0.1444  0.6183  0.9481
   18MOL0     C 2361   2.577   0.680   7.605 -0.9026  0.8847 -0.0979
   18MOL0     C 2362   2.538   0.789   7.698 -0.0690  0.2007  0.4119
   18MOL0     N 2363   2.454   0.737   7.800  1.1715  0.0191 -0.1500
   18MOL0     C 2364   2.486   0.662   7.903  0.2751 -0.0709 -0.6399
   18MOL0     C 2365   2.368   0.640   7.974  0.1573  0.6623  0.8423
   18MOL0     C 2366   2.363   0.569   8.107 -0.0896  0.4931 -0.9628
   18MOL0     C 2367   2.415   0.652   8.223 -0.3516 -0.2535 -0.8697
   18MOL0     C 2368   2.391   0.610   8.365 -0.1399 -0.8788 -0.1781
   18MOL0     C 2369   2.450   0.480   8.394 -0.2279  0.4299  0.1983
   18MOL0     O 2370   2.469   0.478   8.542  0.5751 -0.1223  0.2972
   18MOL0     C 2371   2.584   0.527   8.598  0.7981 -0.1688 -0.9093
   18MOL0     C 2372   2.572   0.571   8.729 -0.4206  0.3988  0.0184
   18MOL0     C 2373   2.675   0.627   8.798 -0.0720  0.3618 -0.4989
   18MOL0     C 2374   2.640   0.688   8.934 -0.1439 -0.3935  0.2613
   18MOL0     C 2375   2.797   0.655   8.737 -1.2698 -0.1437 -0.1957
   18MOL0     C 2376   2.903   0.718   8.813  0.3987 -0.1384  0.2346
   18MOL0     O 2377   2.942   0.841   8.766 -0.7662 -0.3488 -0.2762
   18MOL0     C 2378   3.033   0.909   8.838  0.1918  0.0408 -0.5227
   18MOL0     C 2379   3.145   0.839   8.895 -0.8862  0.8161  0.3244
   18MOL0     C 2380   3.243   0.908   8.978  0.3709 -0.2359  0.6615
   18MOL0     C 2381   3.230   1.044   9.002 -0.8034  0.1839 -0.6644
   18MOL0     O 2382   3.317   1.104   9.089 -0.1238  0.2287 -0.6322
   18MOL0     C 2383   3.269   1.229   9.158  0.2570  1.2451 -0.1745
   18MOL0     C 2384   3.353   1.240   9.282 -1.0266  0.3724 -0.0116
   18MOL0     C 2385   3.320   1.139   9.391  0.3522  0.1293  0.4743
   18MOL0     C 2386   3.188   1.174   9.455  0.0534  0.3669  0.3074
   18MOL0     C 2387   3.188   1.121   9.600 -1.1881 -0.5402  0.3329
   18MOL0     C 2388   3.213   0.981   9.619 -0.5617  0.7992 -0.1807
   18MOL0     C 2389   3.204   0.941   9.768 -0.8093 -1.7050  0.6374
   18MOL0     C 2390   3.301   1.016   9.860 -0.1236 -0.3760 -0.5273
   18MOL0    Cl 2391   3.456   0.937   9.813  0.2472  0.6177 -0.6246
   18MOL0     C 2392   3.137   1.113   8.931 -0.4323  0.4390 -0.2267
   18MOL0     C 2393   3.040   1.056   8.848 -0.0246  0.6361 -0.2317
   18MOL0     O 2394   2.945   0.645   8.905  0.0593 -0.2799 -0.6115
   18MOL0     C 2395   2.820   0.615   8.603  0.3908  0.7049  0.5150
   18MOL0     C 2396   2.718   0.545   8.534 -0.7881 -0.1144 -0.2443
   18MOL0     N 2397   2.260   0.701   7.916 -0.2094  0.0608  0.3676
   18MOL0     N 2398   2.310   0.754   7.805  0.1735  0.3709  0.6892
   18MOL0     C 2399   3.387   0.233   7.319  0.0936 -0.8974  0.3179
   18MOL0     C 2400   3.499   0.159   7.325 -0.7619  0.1233  0.4997
   18MOL0     C 2401   3.903   0.043   7.443 -1.5630 -0.3573 -0.7654
   18MOL0     C 2402   4.014   0.079   7.524  0.7281  0.3004 -0.0296
   18MOL0     C 2403   4.138   0.043   7.482 -1.0288  0.2919  0.7510
   18MOL0     C 2404   4.164  -0.037   7.377 -0.2310 -0.7919 -0.1358
   18MOL0     O 2405   4.279  -0.116   7.375  0.1479 -0.1019  0.4975
   18MOL0     C 2406   4.293  -0.225   7.282 -0.1756  0.8449 -0.5174
   18MOL0     C 2407   4.426  -0.309   7.319  0.3839 -0.5205  0.2872
   18MOL0     C 2408   4.553  -0.226   7.286 -0.3209 -0.3870 -0.5452
   18MOL0     C 2409   4.670  -0.281   7.367  0.4609 -0.5202  0.5772
   18MOL0     C 2410   4.787  -0.196   7.332  0.7818 -0.1930 -0.0971
   18MOL0     C 2411   4.893  -0.140   7.319  0.5284 -0.1029  0.3694
   18MOL0     C 2412   4.058  -0.068   7.292  0.1380  0.1444  0.1465
   18MOL0     C 2413   3.929  -0.036   7.322  0.6799 -0.5273  0.0157
   18MOL0     C 2414   3.823  -0.060   7.214 -0.6203  0.4724  0.6752
   18MOL0     H 2415   3.470   0.016   7.634  3.4259 -0.0434 -0.9097
   18MOL0     H 2416   3.280   0.157   7.624  1.1034 -2.5136  2.3319
   18MOL0     H 2417   3.074   0.258   7.297 -0.3710 -1.2754  3.5488
   18MOL0     H 2418   3.186   0.404   7.276 -0.2451 -0.6022 -2.1624
   18MOL0     H 2419   3.043   0.491   7.488  0.1988  1.0348 -0.9091
   18MOL0     H 2420   3.015   0.520   7.319 -0.8524 -1.5025 -0.6721
   18MOL0     H 2421   2.827   0.368   7.318 -0.0916 -2.2494  0.6824
   18MOL0     H 2422   2.877   0.298   7.475 -2.3859 -0.6950  0.2012
   18MOL0     H 2423   2.704   0.425   7.548  0.1037  0.9682 -0.4763
   18MOL0     H 2424   2.842   0.527   7.584  2.5762  1.3411 -2.0008
   18MOL0     H 2425   2.664   0.573   7.352 -0.6123  2.1218 -0.3614
   18MOL0     H 2426   2.819   0.626   7.350 -1.7200  3.1850 -1.1583
   18MOL0     H 2427   2.775   0.770   7.561  0.5182  2.4551 -1.2918
   18MOL0     H 2428   2.644   0.788   7.439 -0.0361  1.4762  1.8793
   18MOL0     H 2429   2.605   0.592   7.664  0.3853  0.9738 -0.5609
   18MOL0     H 2430   2.492   0.651   7.542  1.4278 -0.2669 -2.9104
   18MOL0     H 2431   2.622   0.842   7.744  0.3757  1.4849 -1.7143
   18MOL0     H 2432   2.473   0.863   7.648 -1.0495 -0.9772 -0.1142
   18MOL0     H 2433   2.585   0.627   7.929  0.8289  1.0529 -1.1865
   18MOL0     H 2434   2.408   0.470   8.098 -0.6076  0.2367 -0.7644
   18MOL0     H 2435   2.256   0.551   8.123 -0.0103  0.4846 -0.4381
   18MOL0     H 2436   2.522   0.671   8.208 -1.0626  3.1235 -2.7280
   18MOL0     H 2437   2.362   0.747   8.214 -1.1118 -0.2348  2.7210
   18MOL0     H 2438   2.427   0.692   8.427  2.1276 -0.7343 -1.5650
   18MOL0     H 2439   2.283   0.603   8.382 -0.2043 -0.3999 -0.3853
   18MOL0     H 2440   2.378   0.402   8.367 -2.0861  2.1956 -0.2006
   18MOL0     H 2441   2.540   0.451   8.340 -0.1626  2.6100 -0.9933
   18MOL0     H 2442   2.472   0.559   8.770  0.0295  0.7448  1.2717
   18MOL0     H 2443   2.703   0.657   9.018 -2.3930 -2.1365  1.3966
   18MOL0     H 2444   2.536   0.669   8.961  0.1052 -0.9445  0.8475
   18MOL0     H 2445   2.655   0.796   8.920 -1.5995 -0.6059 -5.3228
   18MOL0     H 2446   3.164   0.736   8.869  0.5910  0.8586  1.1032
   18MOL0     H 2447   3.325   0.855   9.026  1.8725  0.7213 -0.7318
   18MOL0     H 2448   3.270   1.323   9.102  1.7459  0.8897 -0.7959
   18MOL0     H 2449   3.165   1.215   9.189 -0.0818 -0.7165 -1.9480
   18MOL0     H 2450   3.454   1.240   9.241 -1.3651  3.2214 -1.1031
   18MOL0     H 2451   3.331   1.335   9.332 -0.3617 -0.3692  1.7747
   18MOL0     H 2452   3.405   1.142   9.460 -0.1157 -3.6787  1.4492
   18MOL0     H 2453   3.312   1.037   9.353 -2.8164  0.0372  1.1355
   18MOL0     H 2454   3.100   1.134   9.404  0.6472 -2.2482  1.2068
   18MOL0     H 2455   3.177   1.283   9.450 -2.5926  0.0914 -2.9044
   18MOL0     H 2456   3.266   1.179   9.651  0.1336 -1.8101 -0.1821
   18MOL0     H 2457   3.095   1.149   9.649  0.0660  3.4248  0.8112
   18MOL0     H 2458   3.312   0.950   9.584 -0.8759  0.6364 -0.9449
   18MOL0     H 2459   3.140   0.924   9.561  1.3717  0.2032 -2.1282
   18MOL0     H 2460   3.210   0.833   9.787  0.4640 -1.1499  4.1168
   18MOL0     H 2461   3.105   0.971   9.802 -1.0002 -1.7137  0.1088
   18MOL0     H 2462   3.284   0.995   9.967 -2.9027  0.3790 -0.7548
   18MOL0     H 2463   3.311   1.124   9.855 -0.1575 -0.1820  2.1041
   18MOL0     H 2464   3.146   1.219   8.947  0.4370  0.4159 -0.5133
   18MOL0     H 2465   2.973   1.125   8.798 -0.4771  0.6938  0.4413
   18MOL0     H 2466   2.907   0.630   8.541  0.7421  0.1322  0.8580
   18MOL0     H 2467   2.721   0.529   8.427 -0.2880  1.5784 -0.5135
   18MOL0     H 2468   3.374   0.306   7.240  1.0539 -0.0341  0.9287
   18MOL0     H 2469   3.570   0.187   7.247 -1.2130  0.4123  0.1898
   18MOL0     H 2470   3.996   0.136   7.614  1.0403  2.2888 -1.1671
   18MOL0     H 2471   4.229   0.085   7.523 -0.2263 -0.3028 -0.3614
   18MOL0     H 2472   4.211  -0.296   7.297  1.5413 -0.7621  2.0709
   18MOL0     H 2473   4.308  -0.179   7.184  0.1243  1.6694 -0.0948
   18MOL0     H 2474   4.434  -0.406   7.270  1.8366 -1.8434  2.9798
   18MOL0     H 2475   4.415  -0.328   7.426  2.2275 -1.1062  0.4019
   18MOL0     H 2476   4.571  -0.222   7.178  1.2102  3.4056 -0.3157
   18MOL0     H 2477   4.537  -0.124   7.324 -1.2455 -0.7220 -0.0249
   18MOL0     H 2478   4.680  -0.385   7.334  2.0384  0.0050 -0.6958
   18MOL0     H 2479   4.652  -0.270   7.474 -2.6215 -1.9561  0.3306
   18MOL0     H 2480   4.980  -0.077   7.313  0.6211 -0.3865 -3.0818
   18MOL0     H 2481   4.079  -0.126   7.203  1.4467  0.2797  0.3512
   18MOL0     H 2482   3.730  -0.100   7.258  0.4136 -1.3702  1.2981
   18MOL0     H 2483   3.800   0.037   7.169  1.0829  1.4764  1.8490
   18MOL0     H 2484   3.853  -0.144   7.151 -0.0464  1.2644 -0.1087
   19MOL0     O 2485   8.068   2.542   5.405 -0.0719  0.6398  0.7411
   19MOL0     C 2486   7.992   2.630   5.379  0.3700 -0.1000  0.0296
   19MOL0     O 2487   7.981   2.743   5.460  0.4372 -0.0167 -0.2889
   19MOL0     C 2488   8.070   2.764   5.563 -0.7103 -0.0111  0.4228
   19MOL0     C 2489   8.205   2.769   5.533 -0.5015  0.0357 -0.5486
   19MOL0     C 2490   8.302   2.785   5.636 -0.5114 -0.4409  0.2832
   19MOL0     C 2491   8.268   2.797   5.765 -0.4322 -0.3812 -0.0716
   19MOL0     O 2492   8.360   2.813   5.863 -0.4727 -0.6716  0.0839
   19MOL0     C 2493   8.337   2.899   5.971  0.0958 -0.2103 -1.2192
   19MOL0     C 2494   8.455   2.926   6.061 -0.1415 -0.1880 -0.1608
   19MOL0     C 2495   8.571   3.005   5.987 -0.5135 -0.1646  0.3674
   19MOL0     C 2496   8.699   2.988   6.069  0.4831  0.6367  0.2429
   19MOL0     C 2497   8.836   3.008   5.994  0.2231 -0.4964 -0.0342
   19MOL0     C 2498   8.844   2.944   5.849  0.7890  0.4337 -0.1405
   19MOL0     C 2499   8.988   2.952   5.790  0.3597 -0.0941  0.5544
   19MOL0     C 2500   9.099   2.887   5.869 -0.7816  0.3219 -1.5512
   19MOL0     N 2501   9.229   2.852   5.810 -0.2231  0.3113 -0.9665
   19MOL0     C 2502   9.245   2.744   5.737  0.5919 -0.0535 -0.0883
   19MOL0     C 2503   9.376   2.744   5.721 -0.3745 -0.1037 -0.1444
   19MOL0     C 2504   9.450   2.641   5.647  0.1920  0.0722 -0.6290
   19MOL0     C 2505   9.570   2.696   5.577 -0.4020  0.1193 -0.7471
   19MOL0     C 2506   9.651   2.579   5.519 -0.6749 -0.5500 -0.0663
   19MOL0     C 2507   9.742   2.509   5.623 -0.4196 -0.2561 -0.4633
   19MOL0     O 2508   9.823   2.409   5.564 -0.6868  0.1195 -0.3566
   19MOL0     C 2509   9.953   2.432   5.533  0.1309 -0.7455 -0.0359
   19MOL0     C 2510  10.012   2.326   5.472 -0.2090  0.5446  0.6277
   19MOL0     C 2511  10.150   2.319   5.429 -0.2389 -0.1814  0.4243
   19MOL0     C 2512  10.174   2.208   5.330  0.6440 -0.6109 -0.1701
   19MOL0     C 2513  10.240   2.424   5.465  0.0493 -0.2132 -0.1496
   19MOL0     C 2514  10.387   2.426   5.431  0.1710  0.9386  0.1896
   19MOL0     O 2515  10.457   2.540   5.454  1.0180 -0.0011 -0.2081
   19MOL0     C 2516  10.587   2.541   5.427 -1.2898  0.2224  0.6346
   19MOL0     C 2517  10.661   2.592   5.533 -0.2760 -0.0408  0.3540
   19MOL0     C 2518  10.798   2.607   5.532  0.1169  0.9760  1.1870
   19MOL0     C 2519  10.864   2.580   5.405  0.2014  0.8467 -1.0776
   19MOL0     O 2520  11.001   2.601   5.399  0.7131 -0.1432 -0.1979
   19MOL0     C 2521  11.069   2.516   5.314 -0.8099  0.0872  0.7298
   19MOL0     C 2522  11.223   2.533   5.342  0.2420  0.6074  0.4754
   19MOL0     C 2523  11.269   2.451   5.468 -0.2539  0.1041 -0.1853
   19MOL0     C 2524  11.422   2.438   5.455  0.6115  0.3821 -0.9399
   19MOL0     C 2525  11.503   2.567   5.488 -0.5618  0.1689 -0.5902
   19MOL0     C 2526  11.650   2.546   5.532  0.3069  0.0145 -0.7167
   19MOL0     C 2527  11.750   2.487   5.425 -0.3575  0.1082  0.0970
   19MOL0     C 2528  11.880   2.441   5.493 -1.0320  0.1132 -0.0935
   19MOL0    Cl 2529  11.852   2.298   5.607  0.0083 -0.1755 -0.2885
   19MOL0     C 2530  10.789   2.543   5.294 -0.0155 -0.3989 -0.3894
   19MOL0     C 2531  10.654   2.518   5.305 -0.8647 -0.3588 -0.2007
   19MOL0     O 2532  10.435   2.314   5.394 -0.3019  0.6726  0.5066
   19MOL0     C 2533  10.180   2.530   5.534 -0.3788 -0.0154 -0.5730
   19MOL0     C 2534  10.041   2.535   5.565  0.5206 -0.1760  1.1067
   19MOL0     N 2535   9.434   2.849   5.789 -1.1225  0.6948  0.5284
   19MOL0     N 2536   9.345   2.916   5.849 -0.0535 -0.0079  0.7325
   19MOL0     C 2537   8.136   2.795   5.791 -0.5986  0.0502 -0.5201
   19MOL0     C 2538   8.032   2.789   5.702 -0.2123  0.0420  1.2605
   19MOL0     C 2539   7.899   2.596   5.275  1.0876 -1.0787  0.5134
   19MOL0     C 2540   7.929   2.509   5.174 -0.0170  0.0086  0.6951
   19MOL0     C 2541   7.830   2.473   5.082 -0.2754 -0.0843 -0.3512
   19MOL0     C 2542   7.703   2.532   5.075 -0.5782 -0.2756 -0.3311
   19MOL0     O 2543   7.606   2.516   4.969  0.2563 -0.2761  0.0845
   19MOL0     C 2544   7.636   2.459   4.839  1.3016  0.3289 -0.3717
   19MOL0     C 2545   7.607   2.550   4.724  0.0930  0.2945 -0.8558
   19MOL0     C 2546   7.466   2.595   4.722  0.1786  0.3376 -0.6030
   19MOL0     C 2547   7.406   2.627   4.577  0.0146 -0.1391 -0.0300
   19MOL0     C 2548   7.270   2.670   4.581 -0.2028 -0.3611 -0.3077
   19MOL0     C 2549   7.157   2.722   4.594  0.0177  0.9177  0.3294
   19MOL0     C 2550   7.679   2.622   5.180  1.2251 -0.3130  0.6183
   19MOL0     C 2551   7.769   2.654   5.279  0.1717 -0.1303  0.6977
   19MOL0     C 2552   7.715   2.764   5.370  0.3323 -0.6804 -0.5363
   19MOL0     H 2553   8.245   2.756   5.433 -1.6624 -1.4346 -0.8584
   19MOL0     H 2554   8.407   2.776   5.610  0.2624 -1.6091  3.3995
   19MOL0     H 2555   8.256   2.857   6.031  1.1898  1.3441  1.5575
   19MOL0     H 2556   8.303   2.991   5.921 -2.7343  0.7874  2.1248
   19MOL0     H 2557   8.424   2.994   6.140 -2.8659 -3.6992  2.0688
   19MOL0     H 2558   8.482   2.831   6.108 -1.7195  0.3838  2.0443
   19MOL0     H 2559   8.586   2.966   5.886  0.8589 -1.6848  1.1156
   19MOL0     H 2560   8.551   3.111   5.968 -0.5391  0.0741  1.6418
   19MOL0     H 2561   8.713   3.050   6.158 -1.2078  3.2152 -1.1861
   19MOL0     H 2562   8.706   2.887   6.111 -0.3150  0.0128 -1.0551
   19MOL0     H 2563   8.912   2.967   6.060  0.1472 -2.9302 -1.3524
   19MOL0     H 2564   8.852   3.117   5.991 -0.6553 -0.3729 -1.6974
   19MOL0     H 2565   8.804   2.843   5.846  2.8542 -0.4083 -2.8946
   19MOL0     H 2566   8.776   2.991   5.778 -0.9957 -4.4144 -1.9849
   19MOL0     H 2567   9.015   3.057   5.780 -0.1322 -0.0221 -0.0479
   19MOL0     H 2568   8.996   2.920   5.686  0.7052  4.9719 -1.2085
   19MOL0     H 2569   9.130   2.940   5.960  3.5720 -3.4707 -0.4360
   19MOL0     H 2570   9.051   2.801   5.915  0.1941  0.6075  0.1107
   19MOL0     H 2571   9.172   2.668   5.710  1.1910 -0.0824 -1.7436
   19MOL0     H 2572   9.380   2.613   5.567 -1.3613 -1.6296  1.2266
   19MOL0     H 2573   9.469   2.552   5.708 -0.2534 -0.1614 -0.8178
   19MOL0     H 2574   9.531   2.768   5.504 -0.9375 -0.2020 -0.7849
   19MOL0     H 2575   9.628   2.743   5.656  3.0292 -3.0327 -1.1025
   19MOL0     H 2576   9.584   2.496   5.495  0.0442 -1.5817  1.3247
   19MOL0     H 2577   9.698   2.616   5.427 -0.3571  0.5160  0.5124
   19MOL0     H 2578   9.811   2.569   5.682 -0.6528 -2.0780  1.8400
   19MOL0     H 2579   9.673   2.471   5.699 -1.8244 -0.6008 -1.8344
   19MOL0     H 2580   9.941   2.253   5.433  0.9084  0.9131 -2.3837
   19MOL0     H 2581  10.085   2.176   5.274  0.7630 -1.8964  0.3370
   19MOL0     H 2582  10.215   2.115   5.372  0.4829 -0.6121 -0.0152
   19MOL0     H 2583  10.240   2.230   5.245 -0.6225 -1.8255 -1.5311
   19MOL0     H 2584  10.601   2.605   5.623 -1.5226 -1.9419 -0.1451
   19MOL0     H 2585  10.857   2.643   5.615  3.6902  0.5262 -0.9257
   19MOL0     H 2586  11.034   2.413   5.325  1.9063 -1.0896 -0.6032
   19MOL0     H 2587  11.066   2.545   5.209  4.5547 -0.6999  0.0657
   19MOL0     H 2588  11.286   2.497   5.259 -1.4979 -1.1227 -0.1617
   19MOL0     H 2589  11.246   2.640   5.349  0.7904  0.5063  0.2947
   19MOL0     H 2590  11.228   2.350   5.475  1.2717 -0.7092 -2.1931
   19MOL0     H 2591  11.251   2.504   5.562 -0.5661  3.1711 -1.8429
   19MOL0     H 2592  11.453   2.401   5.357 -0.0106 -0.9013 -0.6806
   19MOL0     H 2593  11.464   2.372   5.531  0.2143  2.5152  1.2568
   19MOL0     H 2594  11.502   2.642   5.408  2.1451 -1.0034 -1.8538
   19MOL0     H 2595  11.460   2.617   5.576  1.4342  0.4387  0.2921
   19MOL0     H 2596  11.650   2.470   5.611  4.5454 -0.1715 -0.6320
   19MOL0     H 2597  11.678   2.638   5.583  0.1109  0.5268 -1.5110
   19MOL0     H 2598  11.760   2.564   5.347  0.3802 -0.5988 -0.5267
   19MOL0     H 2599  11.710   2.400   5.372 -0.0300  0.7246 -1.2074
   19MOL0     H 2600  11.900   2.514   5.571  1.3254 -1.0789  0.4960
   19MOL0     H 2601  11.967   2.424   5.429 -0.3044  1.5527  0.4678
   19MOL0     H 2602  10.836   2.523   5.199 -1.4577 -0.0188 -1.2169
   19MOL0     H 2603  10.605   2.482   5.216 -1.5033 -1.3272  0.5237
   19MOL0     H 2604  10.238   2.609   5.578 -0.6390 -0.5680  0.8297
   19MOL0     H 2605  10.005   2.621   5.620  0.0828  1.9788 -2.2691
   19MOL0     H 2606   8.119   2.822   5.894 -1.5895 -0.6927 -0.4743
   19MOL0     H 2607   7.928   2.791   5.733 -1.6836 -3.0336 -2.5658
   19MOL0     H 2608   8.026   2.464   5.152 -0.9755 -0.9287 -2.0776
   19MOL0     H 2609   7.858   2.395   5.011  0.1386 -0.6284  0.3954
   19MOL0     H 2610   7.737   2.416   4.832  0.2582 -2.1919 -0.9911
   19MOL0     H 2611   7.578   2.367   4.841  2.8817 -0.7119 -0.4204
   19MOL0     H 2612   7.631   2.494   4.633  1.7645 -2.2514  0.9896
   19MOL0     H 2613   7.679   2.630   4.741 -2.0520  1.8776  1.4590
   19MOL0     H 2614   7.405   2.509   4.749  0.7615  0.5000  1.3643
   19MOL0     H 2615   7.455   2.674   4.797 -0.0506  0.1513 -0.4404
   19MOL0     H 2616   7.426   2.551   4.501  0.0149 -1.1974  0.9977
   19MOL0     H 2617   7.468   2.713   4.551 -0.8449  0.7194  0.7059
   19MOL0     H 2618   7.058   2.761   4.607  0.1983  2.1081 -1.4101
   19MOL0     H 2619   7.586   2.677   5.174  2.5860  1.9756 -1.7172
   19MOL0     H 2620   7.775   2.855   5.356 -1.1596  0.0357 -2.9961
   19MOL0     H 2621   7.609   2.787   5.353  0.0587 -1.2075  0.4245
   19MOL0     H 2622   7.720   2.740   5.476  1.4930  2.4494  0.2361
   20MOL0     O 2623   6.805   7.033   4.089  0.0754  0.8224  0.7220
   20MOL0     C 2624   6.730   6.940   4.064 -0.2775 -0.0910  0.1865
   20MOL0     O 2625   6.764   6.837   3.978 -0.1289  0.0254 -0.5570
   20MOL0     C 2626   6.872   6.858   3.894 -0.5931 -0.3402  0.6491
   20MOL0     C 2627   6.951   6.754   3.862 -0.3922 -0.2257  0.6637
   20MOL0     C 2628   7.057   6.764   3.770 -0.0507  1.0601  0.0208
   20MOL0     C 2629   7.075   6.885   3.697  0.7987 -0.1575  0.0273
   20MOL0     O 2630   7.182   6.892   3.607 -0.4229  0.1585  0.2807
   20MOL0     C 2631   7.204   7.006   3.535  0.2434 -0.0905 -0.7369
   20MOL0     C 2632   7.291   6.960   3.417  0.4612  0.2924 -0.0748
   20MOL0     C 2633   7.224   6.851   3.327  0.2057  0.7981 -0.3262
   20MOL0     C 2634   7.295   6.845   3.193  0.4659 -0.1587  0.6107
   20MOL0     C 2635   7.238   6.726   3.114 -0.6298  0.7764 -0.0962
   20MOL0     C 2636   7.102   6.751   3.055 -0.9418 -0.3910 -0.2690
   20MOL0     C 2637   7.032   6.613   3.036 -0.4906 -0.2465  0.8055
   20MOL0     C 2638   7.093   6.528   2.929  0.1405 -0.7573  0.2227
   20MOL0     N 2639   7.114   6.604   2.798  0.1544 -0.1914  0.2128
   20MOL0     C 2640   7.013   6.628   2.715  0.5219 -0.5538  0.2140
   20MOL0     C 2641   7.078   6.659   2.601  0.0243 -0.4685 -0.1478
   20MOL0     C 2642   6.994   6.689   2.471  0.0302 -0.6513 -0.4588
   20MOL0     C 2643   6.921   6.554   2.443  0.6754 -0.3987 -0.2456
   20MOL0     C 2644   6.989   6.450   2.351  0.0168  0.8461  0.4175
   20MOL0     C 2645   7.131   6.403   2.399  0.5588 -0.3741  0.5699
   20MOL0     O 2646   7.101   6.308   2.499 -0.2164  0.3624 -0.1272
   20MOL0     C 2647   7.210   6.266   2.569  1.0063  0.6994 -0.1354
   20MOL0     C 2648   7.167   6.193   2.684 -0.4706  0.3194 -0.9120
   20MOL0     C 2649   7.258   6.136   2.774 -0.3471  0.0445  0.2437
   20MOL0     C 2650   7.201   6.043   2.880 -0.8755  0.3906 -0.3215
   20MOL0     C 2651   7.399   6.143   2.745 -0.4676  0.0423 -0.6675
   20MOL0     C 2652   7.504   6.069   2.824  1.4083 -0.0035  1.1555
   20MOL0     O 2653   7.615   6.034   2.746 -0.2689  1.0532 -0.0441
   20MOL0     C 2654   7.704   5.937   2.794  0.4236 -0.0404 -0.5196
   20MOL0     C 2655   7.690   5.802   2.737 -0.8631  0.1826  0.0278
   20MOL0     C 2656   7.774   5.710   2.789  0.1609  0.1853  0.6323
   20MOL0     C 2657   7.869   5.735   2.887 -0.4496 -0.6727  0.7968
   20MOL0     O 2658   7.937   5.632   2.935  0.0181 -1.0582  0.0732
   20MOL0     C 2659   8.081   5.649   2.959  0.4771  0.2166 -0.0001
   20MOL0     C 2660   8.138   5.512   2.998 -0.2868  0.3269 -0.6352
   20MOL0     C 2661   8.066   5.394   2.925 -0.2487  0.1152 -0.2069
   20MOL0     C 2662   8.111   5.396   2.780 -0.3166 -0.1383  0.2380
   20MOL0     C 2663   8.038   5.285   2.706 -0.4319 -0.3519 -0.4156
   20MOL0     C 2664   8.108   5.143   2.711 -0.8074 -0.2699 -0.6077
   20MOL0     C 2665   8.012   5.033   2.654  0.0062 -0.0721 -0.5515
   20MOL0     C 2666   8.091   4.927   2.588 -0.3110 -0.4734 -0.9273
   20MOL0    Cl 2667   8.150   4.976   2.435 -0.2339  0.1424  0.3959
   20MOL0     C 2668   7.894   5.875   2.920 -0.0370  0.4457  0.2605
   20MOL0     C 2669   7.811   5.976   2.874 -0.0781  0.0858  0.0494
   20MOL0     O 2670   7.486   6.039   2.941 -0.8829 -0.2467  0.1361
   20MOL0     C 2671   7.442   6.238   2.643  0.0757 -0.1178 -1.1231
   20MOL0     C 2672   7.346   6.292   2.557 -0.0762  0.3712  0.7509
   20MOL0     N 2673   7.206   6.657   2.620  0.3634 -0.1483  0.1651
   20MOL0     N 2674   7.236   6.616   2.737  0.0384 -0.3042  1.1198
   20MOL0     C 2675   6.979   6.986   3.726 -0.9812 -0.9221  0.0939
   20MOL0     C 2676   6.886   6.974   3.825 -1.1973  0.5275  0.5215
   20MOL0     C 2677   6.609   6.921   4.142  0.6523 -0.0795 -0.7571
   20MOL0     C 2678   6.522   6.816   4.101 -0.6651  0.1306 -0.1271
   20MOL0     C 2679   6.400   6.799   4.166 -0.9729 -0.4034 -0.0519
   20MOL0     C 2680   6.359   6.878   4.275 -1.2350  0.0630 -0.1199
   20MOL0     O 2681   6.242   6.859   4.334 -0.5560  0.1029  0.6569
   20MOL0     C 2682   6.134   6.780   4.284 -0.3600 -0.5194  0.2777
   20MOL0     C 2683   6.021   6.796   4.381  0.5037 -0.3106 -0.1457
   20MOL0     C 2684   5.919   6.682   4.392 -0.7677 -0.0564 -0.6941
   20MOL0     C 2685   5.877   6.622   4.255 -0.6787 -0.9174 -0.8575
   20MOL0     C 2686   5.788   6.712   4.189  0.0967  0.3037 -0.1404
   20MOL0     C 2687   5.708   6.780   4.129 -0.3218  0.4366 -0.0066
   20MOL0     C 2688   6.448   6.974   4.317 -0.6552 -0.7536 -0.4249
   20MOL0     C 2689   6.581   6.996   4.258  0.3844  0.6311 -0.5960
   20MOL0     C 2690   6.663   7.105   4.323  0.1088  0.6533 -0.7819
   20MOL0     H 2691   6.916   6.659   3.902 -2.9233  0.2162 -0.2851
   20MOL0     H 2692   7.125   6.681   3.754 -0.9446  0.7055 -2.2985
   20MOL0     H 2693   7.253   7.078   3.602  0.1582 -0.7331  0.0311
   20MOL0     H 2694   7.115   7.054   3.495 -0.2404 -0.6751 -0.3686
   20MOL0     H 2695   7.321   7.049   3.362 -3.3824  1.5748 -0.4343
   20MOL0     H 2696   7.380   6.909   3.454 -0.9406 -1.2154  1.4469
   20MOL0     H 2697   7.244   6.752   3.369 -0.7250  0.3641 -0.8798
   20MOL0     H 2698   7.117   6.867   3.315 -0.1065 -1.9844 -2.2894
   20MOL0     H 2699   7.280   6.941   3.144  0.7496 -0.0563  0.7192
   20MOL0     H 2700   7.400   6.822   3.215 -0.2719 -5.0648  0.2027
   20MOL0     H 2701   7.234   6.637   3.178 -0.8037 -0.7672 -2.1436
   20MOL0     H 2702   7.303   6.702   3.029 -3.1498 -1.3389 -1.5876
   20MOL0     H 2703   7.051   6.823   3.120 -0.1609  0.3724 -0.4840
   20MOL0     H 2704   7.102   6.793   2.954 -2.5233  0.9461  0.2369
   20MOL0     H 2705   6.929   6.627   3.000 -0.1333  1.1921  0.2562
   20MOL0     H 2706   7.022   6.553   3.127  0.0575 -0.9611  0.4033
   20MOL0     H 2707   7.188   6.488   2.967  0.1578  0.7459  1.9148
   20MOL0     H 2708   7.024   6.444   2.918 -2.4804  1.6279 -4.0956
   20MOL0     H 2709   6.906   6.633   2.733 -0.0361  0.1156 -2.7680
   20MOL0     H 2710   7.051   6.732   2.388  2.2214  0.5026  1.5169
   20MOL0     H 2711   6.921   6.771   2.479  1.2869  0.6459 -1.6783
   20MOL0     H 2712   6.882   6.504   2.532 -2.9108 -1.7025 -2.3735
   20MOL0     H 2713   6.825   6.573   2.394  1.3509  0.0254 -1.4672
   20MOL0     H 2714   6.926   6.361   2.343  2.5598 -0.9845 -0.3413
   20MOL0     H 2715   7.006   6.492   2.252  0.8054  1.8118  0.9487
   20MOL0     H 2716   7.180   6.364   2.309 -2.3375 -0.5215 -1.0663
   20MOL0     H 2717   7.193   6.491   2.419  0.0244  0.2650 -0.4694
   20MOL0     H 2718   7.061   6.171   2.696 -0.6212  1.6215  0.3983
   20MOL0     H 2719   7.245   6.077   2.974 -2.9425  3.5777 -0.3397
   20MOL0     H 2720   7.233   5.941   2.858 -0.8818  0.0098  1.3206
   20MOL0     H 2721   7.093   6.058   2.887 -1.2275 -2.5043  2.9042
   20MOL0     H 2722   7.616   5.773   2.663  1.5208  0.4005 -2.6384
   20MOL0     H 2723   7.774   5.609   2.748  3.6771  0.1636  0.3771
   20MOL0     H 2724   8.121   5.695   2.868 -1.4365  2.5123  0.2224
   20MOL0     H 2725   8.097   5.722   3.040 -3.0943  1.6806 -0.4466
   20MOL0     H 2726   8.246   5.514   2.978  0.7327  3.0875  3.6550
   20MOL0     H 2727   8.126   5.500   3.106 -1.5002  1.3397 -0.6372
   20MOL0     H 2728   7.958   5.392   2.942  0.2724  1.5470  4.5408
   20MOL0     H 2729   8.099   5.294   2.954 -1.9783 -0.3868  0.1896
   20MOL0     H 2730   8.219   5.392   2.760 -0.2802 -0.4141  0.4726
   20MOL0     H 2731   8.089   5.497   2.746  3.3301  0.8183  0.2581
   20MOL0     H 2732   7.934   5.280   2.738  0.4752  0.1946  2.9577
   20MOL0     H 2733   8.038   5.324   2.603 -0.3695  2.0061  0.4242
   20MOL0     H 2734   8.129   5.118   2.815 -1.5680  1.4471  0.0071
   20MOL0     H 2735   8.201   5.154   2.654 -1.8664  3.0149 -1.9910
   20MOL0     H 2736   7.950   5.062   2.569 -1.0987 -0.3041  0.1519
   20MOL0     H 2737   7.953   4.996   2.738  0.6822  0.3151  0.0982
   20MOL0     H 2738   8.024   4.840   2.583 -1.2827 -0.0228  1.9244
   20MOL0     H 2739   8.174   4.897   2.653  2.5232 -1.3850 -4.6735
   20MOL0     H 2740   7.979   5.893   2.984  1.5018 -3.5732 -0.3313
   20MOL0     H 2741   7.822   6.080   2.903 -0.2420  0.4350 -1.0705
   20MOL0     H 2742   7.546   6.256   2.616 -0.1552  0.5312 -1.6104
   20MOL0     H 2743   7.369   6.356   2.473  0.1635 -2.0146 -1.1200
   20MOL0     H 2744   6.988   7.082   3.676  3.2016 -1.5702 -0.8028
   20MOL0     H 2745   6.813   7.054   3.833 -1.9524 -0.0093 -0.6982
   20MOL0     H 2746   6.541   6.748   4.019  0.5791  0.6979 -0.3269
   20MOL0     H 2747   6.334   6.721   4.130  1.4904 -2.5651 -0.1813
   20MOL0     H 2748   6.096   6.806   4.185 -0.6944 -2.8383 -0.2552
   20MOL0     H 2749   6.163   6.675   4.273  1.0543 -0.0182 -1.1129
   20MOL0     H 2750   5.969   6.885   4.342  1.3549  0.6411  0.8266
   20MOL0     H 2751   6.047   6.827   4.482 -0.4650 -2.2848  0.7740
   20MOL0     H 2752   5.971   6.602   4.445  0.2937  0.8453 -0.3231
   20MOL0     H 2753   5.829   6.716   4.444 -1.1575 -0.5157 -1.0670
   20MOL0     H 2754   5.829   6.525   4.271 -2.8425 -0.1829 -2.5573
   20MOL0     H 2755   5.960   6.602   4.187 -1.7655 -0.8455 -2.2372
   20MOL0     H 2756   5.649   6.822   4.050 -1.4286  0.0539  0.5970
   20MOL0     H 2757   6.407   7.034   4.397  1.8301 -0.3229  0.6176
   20MOL0     H 2758   6.764   7.066   4.342 -1.7271 -3.7585  1.2038
   20MOL0     H 2759   6.669   7.190   4.255  0.3295  1.6558  0.4346
   20MOL0     H 2760   6.622   7.141   4.418 -2.1219 -0.9912 -1.0576
   21MOL0     O 2761   1.317   7.920  10.165  0.0796  0.2408 -0.3630
   21MOL0     C 2762   1.268   7.821  10.119 -0.0366  0.9732 -0.1292
   21MOL0     O 2763   1.326   7.731  10.035 -0.4192 -0.5485 -0.3236
   21MOL0     C 2764   1.466   7.724  10.042  0.3035  0.4025  0.8990
   21MOL0     C 2765   1.550   7.724  10.158 -0.0114 -0.1103  0.1845
   21MOL0     C 2766   1.693   7.708  10.144  0.1726  0.4360 -0.2470
   21MOL0     C 2767   1.756   7.717  10.020 -0.2975  0.7568 -0.2152
   21MOL0     O 2768   1.893   7.692   9.999  0.7582  0.1627  0.0295
   21MOL0     C 2769   1.982   7.746  10.098 -0.5416  0.0012 -0.2762
   21MOL0     C 2770   2.086   7.809  10.007 -0.3807 -0.6789  0.9033
   21MOL0     C 2771   2.212   7.872  10.072  0.2652  0.0376  0.0073
   21MOL0     C 2772   2.287   7.939   9.970 -0.2887  0.2595  0.9467
   21MOL0     C 2773   2.425   7.971  10.019  0.0072 -0.5599  0.1270
   21MOL0     C 2774   2.511   8.066   9.925  0.1150 -0.1043  0.6194
   21MOL0     C 2775   2.477   8.217   9.923 -0.3988 -0.0891 -0.3584
   21MOL0     C 2776   2.456   8.274  10.062  0.8908  0.2711  0.2883
   21MOL0     N 2777   2.581   8.278  10.138 -0.6075  0.2542  0.0310
   21MOL0     C 2778   2.590   8.232  10.269 -0.1465  0.1794 -0.4226
   21MOL0     C 2779   2.716   8.227  10.296 -0.0540  0.5340  0.0748
   21MOL0     C 2780   2.782   8.144  10.398 -0.0084 -0.2977 -0.0884
   21MOL0     C 2781   2.693   8.058  10.487  0.3655  0.7149 -0.3554
   21MOL0     C 2782   2.752   8.038  10.628 -0.8830 -0.1583 -0.5031
   21MOL0     C 2783   2.879   7.953  10.624 -0.6507  0.3561 -0.1821
   21MOL0     O 2784   2.936   7.924  10.748  0.0165 -0.1007 -0.3572
   21MOL0     C 2785   3.010   8.012  10.814  0.0825  0.2943 -1.7296
   21MOL0     C 2786   3.019   7.975  10.952 -0.2020  0.6044 -0.2091
   21MOL0     C 2787   3.089   8.064  11.042 -1.1052  1.3046  0.1110
   21MOL0     C 2788   3.097   8.021  11.192  0.5634 -0.7273  0.2002
   21MOL0     C 2789   3.153   8.176  10.992 -0.3750 -1.2299  0.3487
   21MOL0     C 2790   3.205   8.281  11.080  0.2911 -0.1140  0.7193
   21MOL0     O 2791   3.153   8.411  11.070  0.7996  0.7674 -0.0803
   21MOL0     C 2792   3.218   8.515  11.130 -0.0582 -0.7215 -0.3607
   21MOL0     C 2793   3.155   8.581  11.235 -0.4842 -0.2024 -0.5618
   21MOL0     C 2794   3.206   8.694  11.294 -0.1778 -0.4636  0.6771
   21MOL0     C 2795   3.337   8.734  11.255 -0.2174 -0.0215 -0.2835
   21MOL0     O 2796   3.386   8.838  11.322  0.3472 -0.4020 -0.2143
   21MOL0     C 2797   3.497   8.911  11.264  0.2414 -0.0922  0.2799
   21MOL0     C 2798   3.492   9.045  11.327  0.3870  0.1575  0.1980
   21MOL0     C 2799   3.589   9.156  11.291 -0.0263 -0.0617  1.4898
   21MOL0     C 2800   3.590   9.269  11.402  0.1164 -0.0992 -0.5936
   21MOL0     C 2801   3.704   9.362  11.396 -0.2779 -0.3391 -0.5198
   21MOL0     C 2802   3.686   9.484  11.486  0.4184 -0.2636 -0.2295
   21MOL0     C 2803   3.804   9.569  11.450 -0.2625 -0.8363  0.4391
   21MOL0     C 2804   3.810   9.699  11.527  0.6436 -0.0098  0.8221
   21MOL0    Cl 2805   3.962   9.785  11.505  0.2047 -0.5606  0.1575
   21MOL0     C 2806   3.402   8.667  11.154  0.0944  0.0591 -0.4555
   21MOL0     C 2807   3.341   8.562  11.089 -0.3706  0.3190 -0.4667
   21MOL0     O 2808   3.294   8.250  11.162 -0.3902  0.6296 -0.1864
   21MOL0     C 2809   3.123   8.218  10.855 -0.8681  0.4608 -0.1653
   21MOL0     C 2810   3.062   8.129  10.769  0.4413 -0.1645 -0.7899
   21MOL0     N 2811   2.790   8.266  10.184 -0.3720 -0.1229 -0.5849
   21MOL0     N 2812   2.710   8.306  10.096  0.6363  1.1971  0.5816
   21MOL0     C 2813   1.670   7.713   9.906 -0.4139  0.2173 -0.7442
   21MOL0     C 2814   1.536   7.720   9.921 -0.7050  0.2650  0.1904
   21MOL0     C 2815   1.116   7.804  10.141  0.1786  0.5897 -0.2675
   21MOL0     C 2816   1.062   7.701  10.061 -0.0452 -0.5087  0.5034
   21MOL0     C 2817   0.933   7.657  10.076 -0.0883 -0.1790 -0.0881
   21MOL0     C 2818   0.849   7.725  10.168  0.7491  0.2420 -0.1127
   21MOL0     O 2819   0.716   7.693  10.195 -0.7027 -0.6143 -0.3024
   21MOL0     C 2820   0.686   7.554  10.198  0.2774 -0.0327  0.3190
   21MOL0     C 2821   0.610   7.514  10.075  0.5620  0.1839 -0.2999
   21MOL0     C 2822   0.463   7.553  10.087 -0.4444  0.3547 -0.2375
   21MOL0     C 2823   0.389   7.522   9.959  0.3390  0.0377 -0.4073
   21MOL0     C 2824   0.412   7.628   9.860 -0.0460 -0.1571 -0.0434
   21MOL0     C 2825   0.445   7.703   9.768  0.6379  0.2233 -0.6338
   21MOL0     C 2826   0.895   7.834  10.232  0.8745 -0.1945 -0.6214
   21MOL0     C 2827   1.022   7.882  10.221  0.1910  0.6407  0.0342
   21MOL0     C 2828   1.057   7.996  10.312  0.6045 -0.0337  0.1926
   21MOL0     H 2829   1.502   7.733  10.255  0.4793 -0.0423  0.4210
   21MOL0     H 2830   1.749   7.709  10.237 -2.5288 -0.6900  1.5447
   21MOL0     H 2831   2.008   7.657  10.158  0.1114  1.4824  1.7495
   21MOL0     H 2832   1.940   7.812  10.175 -2.0967 -0.8400 -0.3550
   21MOL0     H 2833   2.127   7.737   9.936  2.0025  2.1085 -0.8306
   21MOL0     H 2834   2.035   7.886   9.948  2.4601 -1.2298 -2.6318
   21MOL0     H 2835   2.184   7.944  10.149  2.8112  1.3957 -0.2277
   21MOL0     H 2836   2.272   7.793  10.119  1.4091  0.6650 -0.3619
   21MOL0     H 2837   2.296   7.873   9.883  0.9520 -1.5224  2.3513
   21MOL0     H 2838   2.247   8.037   9.943  1.4896  0.6749 -0.3484
   21MOL0     H 2839   2.480   7.879  10.041  1.2301  0.0788 -0.1256
   21MOL0     H 2840   2.407   8.023  10.114  1.4179  1.2819 -0.5417
   21MOL0     H 2841   2.617   8.057   9.950  0.2213  0.0413  0.2324
   21MOL0     H 2842   2.505   8.035   9.820 -2.2798  0.6837  0.4686
   21MOL0     H 2843   2.384   8.221   9.866 -1.8755 -1.7089  1.7606
   21MOL0     H 2844   2.559   8.270   9.873 -0.3226 -0.5674 -0.7472
   21MOL0     H 2845   2.418   8.376  10.060 -2.2892 -0.7265  1.9681
   21MOL0     H 2846   2.369   8.232  10.114 -0.4073  0.8412 -1.3463
   21MOL0     H 2847   2.510   8.201  10.336  0.5164 -1.4169 -0.3318
   21MOL0     H 2848   2.840   8.211  10.462 -1.3450  0.0313  0.8215
   21MOL0     H 2849   2.849   8.072  10.349 -1.0962 -0.8234 -0.8384
   21MOL0     H 2850   2.595   8.106  10.489 -0.4936 -0.9978  0.0965
   21MOL0     H 2851   2.684   7.960  10.441  0.2684 -0.0755  1.2527
   21MOL0     H 2852   2.776   8.130  10.682  1.3473 -1.0022  0.0597
   21MOL0     H 2853   2.690   7.971  10.688 -1.1992  1.2661  0.8499
   21MOL0     H 2854   2.848   7.856  10.582  0.6167 -1.0219  1.8804
   21MOL0     H 2855   2.948   8.007  10.558  2.6996  0.0407  2.7690
   21MOL0     H 2856   2.967   7.886  10.988  2.2205 -1.0636 -0.5808
   21MOL0     H 2857   3.048   8.099  11.251 -3.3713 -1.9610 -1.1406
   21MOL0     H 2858   3.196   8.005  11.237  0.0449  0.6950  1.9616
   21MOL0     H 2859   3.031   7.937  11.214 -1.8955  0.8867 -0.5212
   21MOL0     H 2860   3.065   8.541  11.280  2.3763 -2.2249  4.0484
   21MOL0     H 2861   3.163   8.756  11.372  1.3330  1.5441 -0.0165
   21MOL0     H 2862   3.594   8.864  11.285  0.2649  0.1766  0.7947
   21MOL0     H 2863   3.481   8.918  11.156  1.0627  1.8816  0.2533
   21MOL0     H 2864   3.389   9.081  11.330  0.0771 -0.7414  0.8440
   21MOL0     H 2865   3.509   9.014  11.430  2.0566  1.0729  0.2294
   21MOL0     H 2866   3.563   9.210  11.200  3.6772 -0.6963 -0.1377
   21MOL0     H 2867   3.684   9.107  11.269 -1.6346 -2.0369 -1.8333
   21MOL0     H 2868   3.596   9.217  11.497  0.5789  0.8164 -0.1074
   21MOL0     H 2869   3.499   9.329  11.402  0.3833  0.3140 -0.2350
   21MOL0     H 2870   3.792   9.305  11.425 -0.5190 -1.3120 -1.6409
   21MOL0     H 2871   3.721   9.399  11.295  1.6807  1.7398  0.4778
   21MOL0     H 2872   3.692   9.464  11.594 -2.0571  0.2144  0.0536
   21MOL0     H 2873   3.600   9.549  11.467 -0.5004 -0.1637  3.4838
   21MOL0     H 2874   3.814   9.596  11.345  1.1890  2.3560  1.2647
   21MOL0     H 2875   3.901   9.522  11.470  0.6626  0.5425 -0.6372
   21MOL0     H 2876   3.784   9.688  11.632  0.6747 -0.5171  0.7792
   21MOL0     H 2877   3.730   9.763  11.489  0.1188 -1.7249 -1.1408
   21MOL0     H 2878   3.508   8.681  11.132  0.7100 -1.5146  1.2833
   21MOL0     H 2879   3.418   8.507  11.035 -0.7581 -0.1267 -0.5622
   21MOL0     H 2880   3.141   8.314  10.808 -3.3872  1.5773  0.9923
   21MOL0     H 2881   3.059   8.158  10.664  1.4186 -0.7862 -0.9958
   21MOL0     H 2882   1.709   7.709   9.805  0.3875  0.0518 -0.4347
   21MOL0     H 2883   1.486   7.721   9.825 -2.3972 -0.1784  1.0321
   21MOL0     H 2884   1.105   7.629   9.993  1.6670  0.7937  0.1312
   21MOL0     H 2885   0.896   7.571  10.021  2.3756 -0.8448 -0.8604
   21MOL0     H 2886   0.776   7.492  10.202 -1.4556 -2.7831 -0.3339
   21MOL0     H 2887   0.625   7.532  10.287 -0.6099  2.5163  0.4275
   21MOL0     H 2888   0.605   7.406  10.060 -1.4305  0.4989 -2.4248
   21MOL0     H 2889   0.652   7.565   9.988 -0.3453 -3.1519 -2.9081
   21MOL0     H 2890   0.431   7.500  10.177 -0.0967  1.8665  0.8185
   21MOL0     H 2891   0.453   7.661  10.105  1.1311  0.8638 -2.0613
   21MOL0     H 2892   0.283   7.524   9.988  1.1358  1.0254  2.8156
   21MOL0     H 2893   0.414   7.422   9.922  2.6478 -0.5923  2.5249
   21MOL0     H 2894   0.478   7.760   9.683 -2.6157  1.6411 -1.0818
   21MOL0     H 2895   0.823   7.878  10.300  1.5556 -2.4730  1.7120
   21MOL0     H 2896   1.062   8.088  10.253  3.9122 -0.7019 -0.7713
   21MOL0     H 2897   0.984   7.998  10.394 -0.6505 -0.5558 -0.8847
   21MOL0     H 2898   1.155   7.984  10.360  0.4107 -0.3832  0.5087
   22MOL0     O 2899   9.514   6.399   3.122 -0.3430 -0.6036 -0.2971
   22MOL0     C 2900   9.472   6.287   3.129  0.6089 -1.0928 -0.0175
   22MOL0     O 2901   9.440   6.207   3.023  0.9613 -0.2499  0.6948
   22MOL0     C 2902   9.452   6.259   2.898 -0.9268  1.5889 -0.4530
   22MOL0     C 2903   9.344   6.324   2.837  0.0827 -0.7899  0.4939
   22MOL0     C 2904   9.346   6.355   2.700 -0.8674 -0.4211 -0.0944
   22MOL0     C 2905   9.468   6.333   2.627 -0.3529  0.4327  1.0430
   22MOL0     O 2906   9.476   6.360   2.492  0.2236 -0.5760 -0.0196
   22MOL0     C 2907   9.385   6.286   2.411 -0.0372  0.2118 -0.0404
   22MOL0     C 2908   9.377   6.367   2.274  0.1044 -0.0145 -0.6900
   22MOL0     C 2909   9.344   6.511   2.292  0.4405 -0.1722 -0.4323
   22MOL0     C 2910   9.205   6.547   2.355  0.7896  1.0663  0.7030
   22MOL0     C 2911   9.195   6.699   2.387  0.3959 -0.4894  0.6781
   22MOL0     C 2912   9.206   6.730   2.534 -0.8962  0.4693 -0.1249
   22MOL0     C 2913   9.185   6.881   2.560  0.9672 -0.3197  0.6422
   22MOL0     C 2914   9.030   6.904   2.580  1.1810  0.9112 -0.3720
   22MOL0     N 2915   8.988   7.052   2.579 -0.5084  1.3005 -0.2082
   22MOL0     C 2916   8.901   7.096   2.478 -0.5870  0.9289 -0.3856
   22MOL0     C 2917   8.895   7.221   2.517 -0.4876 -0.1911 -0.2988
   22MOL0     C 2918   8.814   7.314   2.433 -0.0730 -0.3891 -0.1681
   22MOL0     C 2919   8.868   7.357   2.294 -0.2718 -0.8967 -1.2367
   22MOL0     C 2920   8.974   7.475   2.281  1.0724 -0.2713  0.6713
   22MOL0     C 2921   9.105   7.434   2.351 -1.3246  0.3592  0.3330
   22MOL0     O 2922   9.160   7.315   2.280 -0.2463 -0.3057 -0.4650
   22MOL0     C 2923   9.259   7.246   2.346 -0.8244  0.2336 -0.0841
   22MOL0     C 2924   9.335   7.152   2.269 -0.0186 -0.2636 -0.7575
   22MOL0     C 2925   9.441   7.071   2.314 -0.8455 -0.4349  0.2556
   22MOL0     C 2926   9.524   7.004   2.211 -0.4143  0.3576 -0.0584
   22MOL0     C 2927   9.461   7.070   2.456 -0.1903 -0.2647 -0.3725
   22MOL0     C 2928   9.536   6.968   2.535 -0.6412  0.1948  0.5959
   22MOL0     O 2929   9.486   6.935   2.652  0.5917  0.6858 -0.9956
   22MOL0     C 2930   9.572   6.873   2.739  0.3241 -0.4298  0.0575
   22MOL0     C 2931   9.651   6.946   2.828  0.8363 -0.0185  0.4175
   22MOL0     C 2932   9.731   6.891   2.920 -0.0636  0.5003  0.4818
   22MOL0     C 2933   9.737   6.755   2.941  0.2225  1.2631 -0.4095
   22MOL0     O 2934   9.815   6.708   3.042 -0.1563  0.2883  0.2630
   22MOL0     C 2935   9.853   6.572   3.052 -1.0840  0.5785 -0.0727
   22MOL0     C 2936   9.970   6.556   3.153  1.0349  0.1465  0.1597
   22MOL0     C 2937  10.107   6.637   3.109 -0.1376  0.3869 -0.1268
   22MOL0     C 2938  10.224   6.635   3.201 -0.0303  0.3903  0.6123
   22MOL0     C 2939  10.343   6.663   3.107 -0.0845  0.0059 -0.2665
   22MOL0     C 2940  10.458   6.681   3.194  0.5893  0.4106  0.0235
   22MOL0     C 2941  10.596   6.700   3.125  0.5172 -1.3870 -0.4149
   22MOL0     C 2942  10.709   6.636   3.205  1.0800 -0.3261 -0.5572
   22MOL0    Cl 2943  10.690   6.465   3.199 -0.2814  0.0765  0.1674
   22MOL0     C 2944   9.652   6.675   2.860 -0.2844  0.2834  0.3368
   22MOL0     C 2945   9.566   6.736   2.758  0.0148 -0.1767 -1.1665
   22MOL0     O 2946   9.638   6.917   2.491 -1.4770  0.1197  0.7675
   22MOL0     C 2947   9.389   7.162   2.536  0.4098 -0.4880  0.0777
   22MOL0     C 2948   9.294   7.250   2.483 -0.6529  0.6497  0.7494
   22MOL0     N 2949   8.972   7.256   2.628  0.0900  0.6889  0.5634
   22MOL0     N 2950   9.029   7.148   2.665  1.1893  0.9356 -0.0478
   22MOL0     C 2951   9.573   6.263   2.688 -0.3211  0.5410 -0.1165
   22MOL0     C 2952   9.567   6.222   2.818  1.1468  0.8026 -1.0999
   22MOL0     C 2953   9.471   6.220   3.263  0.2439 -0.6831  0.3127
   22MOL0     C 2954   9.356   6.153   3.294 -0.5489  0.2328  1.3069
   22MOL0     C 2955   9.334   6.109   3.421  0.7536 -0.1586  0.0604
   22MOL0     C 2956   9.427   6.130   3.524 -0.3509  0.3248  0.5446
   22MOL0     O 2957   9.403   6.069   3.643  0.3361 -0.0346 -0.0056
   22MOL0     C 2958   9.496   6.079   3.757  0.0762  0.2303 -0.1293
   22MOL0     C 2959   9.429   6.015   3.888  0.1585 -0.3347 -0.5170
   22MOL0     C 2960   9.530   6.026   3.998 -0.6571 -0.3710  0.0301
   22MOL0     C 2961   9.481   5.965   4.131 -0.2660  0.4231  0.5566
   22MOL0     C 2962   9.412   6.047   4.223 -1.0949 -0.0723  0.3402
   22MOL0     C 2963   9.344   6.114   4.288  0.8214  0.0229 -0.3650
   22MOL0     C 2964   9.548   6.198   3.492 -0.0102 -0.1658 -0.2287
   22MOL0     C 2965   9.573   6.242   3.361  0.0395 -0.1520  0.3777
   22MOL0     C 2966   9.715   6.304   3.335  0.9942 -1.0129  0.4626
   22MOL0     H 2967   9.254   6.348   2.892 -0.1359  0.9037 -0.5329
   22MOL0     H 2968   9.265   6.407   2.649 -0.7886  0.5022  0.6860
   22MOL0     H 2969   9.290   6.298   2.464 -0.0191  0.6038 -0.0962
   22MOL0     H 2970   9.400   6.178   2.404 -0.7985 -0.0152  1.4761
   22MOL0     H 2971   9.476   6.353   2.230  1.3479  0.3607  1.7757
   22MOL0     H 2972   9.303   6.327   2.205 -3.6084 -0.6550  3.2367
   22MOL0     H 2973   9.417   6.572   2.347 -0.4970  1.6339 -1.1159
   22MOL0     H 2974   9.354   6.550   2.190  0.3466  0.3403 -0.2519
   22MOL0     H 2975   9.133   6.511   2.281  0.8565  1.4065  0.4712
   22MOL0     H 2976   9.183   6.484   2.442 -0.8591 -3.0685 -2.3999
   22MOL0     H 2977   9.096   6.735   2.360  0.3873 -1.4970 -0.7118
   22MOL0     H 2978   9.276   6.753   2.338 -1.7927  2.9124  0.4906
   22MOL0     H 2979   9.148   6.667   2.602  0.1774 -1.2954 -0.7778
   22MOL0     H 2980   9.309   6.722   2.569 -0.5907  3.2056 -0.1916
   22MOL0     H 2981   9.230   6.941   2.481  2.1945  1.8360  2.8482
   22MOL0     H 2982   9.233   6.914   2.653  0.7423  4.3384 -0.6701
   22MOL0     H 2983   8.962   6.852   2.512  0.2985  1.2702  0.2089
   22MOL0     H 2984   9.007   6.875   2.683 -0.7099 -2.1215 -1.5192
   22MOL0     H 2985   8.854   7.044   2.395  2.7973 -2.1374 -0.6170
   22MOL0     H 2986   8.787   7.404   2.489 -1.8834 -0.6858 -0.5261
   22MOL0     H 2987   8.718   7.270   2.405 -0.2461  0.4751 -0.9844
   22MOL0     H 2988   8.902   7.270   2.237  1.9305 -0.7475 -0.2521
   22MOL0     H 2989   8.775   7.394   2.251 -2.0577 -2.1257  1.3138
   22MOL0     H 2990   8.984   7.503   2.176  0.0452  2.0566  1.1337
   22MOL0     H 2991   8.942   7.568   2.330  0.6065  0.8443 -1.6350
   22MOL0     H 2992   9.173   7.519   2.339 -0.2973 -0.5490 -0.4023
   22MOL0     H 2993   9.079   7.422   2.456 -0.2794  1.1173  0.6966
   22MOL0     H 2994   9.309   7.149   2.163 -1.5103 -1.9512 -0.3931
   22MOL0     H 2995   9.630   7.003   2.239 -0.1931  2.9290 -0.5536
   22MOL0     H 2996   9.507   7.050   2.114  0.9320 -0.4827 -0.7186
   22MOL0     H 2997   9.495   6.899   2.211 -2.0476  0.7519 -1.6423
   22MOL0     H 2998   9.658   7.054   2.812  0.0357 -0.1106 -0.6842
   22MOL0     H 2999   9.791   6.955   2.984 -1.0119  0.3423  1.5712
   22MOL0     H 3000   9.770   6.507   3.080  0.8063 -1.0379  2.2494
   22MOL0     H 3001   9.893   6.546   2.953  0.0924  0.0592  0.5187
   22MOL0     H 3002   9.939   6.589   3.253  1.4538  3.3390 -0.6316
   22MOL0     H 3003   9.997   6.451   3.168 -3.0773 -0.9472  1.2143
   22MOL0     H 3004  10.078   6.739   3.079 -1.6897  0.2578  0.8142
   22MOL0     H 3005  10.123   6.582   3.016 -1.3123  0.0343 -0.1351
   22MOL0     H 3006  10.232   6.542   3.257 -1.0747  0.6965  1.3042
   22MOL0     H 3007  10.209   6.711   3.279  2.0821 -1.4247  2.9341
   22MOL0     H 3008  10.355   6.574   3.046  0.3071  0.5737 -1.0267
   22MOL0     H 3009  10.333   6.749   3.041  0.9616  0.2181 -0.1620
   22MOL0     H 3010  10.472   6.595   3.261  1.6953  0.4488 -0.1378
   22MOL0     H 3011  10.426   6.763   3.259  1.1912 -0.4947  1.5439
   22MOL0     H 3012  10.605   6.809   3.123  2.2837 -1.4530  1.4158
   22MOL0     H 3013  10.594   6.670   3.020 -1.1115 -0.9001 -0.5553
   22MOL0     H 3014  10.702   6.665   3.310  0.7262 -1.1184 -0.3521
   22MOL0     H 3015  10.806   6.678   3.176 -0.2738  5.4560  1.9468
   22MOL0     H 3016   9.630   6.568   2.866  0.1996  0.2350  1.5013
   22MOL0     H 3017   9.491   6.678   2.705  0.1690 -1.3568 -0.1192
   22MOL0     H 3018   9.403   7.168   2.644 -3.9039 -1.4969  0.8603
   22MOL0     H 3019   9.229   7.317   2.539 -3.0475 -0.0704 -0.9879
   22MOL0     H 3020   9.658   6.244   2.623  0.9069  0.0725  1.5343
   22MOL0     H 3021   9.656   6.169   2.850  0.7144 -0.4275 -1.8644
   22MOL0     H 3022   9.269   6.158   3.229  1.7365 -0.7047 -2.0804
   22MOL0     H 3023   9.250   6.042   3.441  1.1780 -0.7113  0.0027
   22MOL0     H 3024   9.589   6.030   3.728 -0.9927 -1.9654 -0.0844
   22MOL0     H 3025   9.532   6.177   3.788  1.3908 -0.7700  1.7364
   22MOL0     H 3026   9.400   5.913   3.861 -1.3313 -0.0410 -0.1513
   22MOL0     H 3027   9.338   6.069   3.919 -0.5382 -1.4953 -0.4540
   22MOL0     H 3028   9.625   5.980   3.967 -0.0409 -2.0927  3.8811
   22MOL0     H 3029   9.561   6.130   4.014  3.2627 -1.1277 -1.5517
   22MOL0     H 3030   9.561   5.910   4.182  2.4119 -0.3730 -3.9301
   22MOL0     H 3031   9.410   5.886   4.104  0.8807 -1.0666  1.7262
   22MOL0     H 3032   9.289   6.178   4.354  1.3902 -2.1818  2.4386
   22MOL0     H 3033   9.620   6.202   3.573 -0.1190 -1.1194 -0.0745
   22MOL0     H 3034   9.793   6.270   3.405  2.1650  1.6155  0.5268
   22MOL0     H 3035   9.756   6.276   3.238  0.4310 -0.5197  0.0791
   22MOL0     H 3036   9.715   6.413   3.333  3.2595 -0.9542  0.7346
   23MOL0     O 3037   3.214   9.640   9.706 -0.0192 -0.1770 -0.3691
   23MOL0     C 3038   3.235   9.576   9.602  0.2251 -0.6463  0.8176
   23MOL0     O 3039   3.349   9.596   9.521  0.7114  0.4757 -0.7803
   23MOL0     C 3040   3.452   9.676   9.570  0.2166  0.1431  0.6853
   23MOL0     C 3041   3.529   9.634   9.683  0.4960  0.0190  0.9643
   23MOL0     C 3042   3.617   9.718   9.749 -0.5838 -0.0439 -0.7266
   23MOL0     C 3043   3.629   9.849   9.699 -0.1794 -0.3825 -0.0023
   23MOL0     O 3044   3.708   9.945   9.757 -0.6790 -0.2260 -0.1236
   23MOL0     C 3045   3.735   9.941   9.899  0.3176 -0.3349 -1.0025
   23MOL0     C 3046   3.764  10.076   9.961  0.1081 -0.6778  0.7100
   23MOL0     C 3047   3.809  10.078  10.114  0.4833 -0.8114  0.1724
   23MOL0     C 3048   3.826  10.225  10.162 -0.0685  0.1583  0.6212
   23MOL0     C 3049   3.871  10.226  10.312 -0.4058  0.2351  0.0066
   23MOL0     C 3050   3.948  10.355  10.334 -0.4473 -0.6717 -0.9638
   23MOL0     C 3051   3.940  10.385  10.486  1.0703  0.7134  0.6239
   23MOL0     C 3052   3.985  10.528  10.524 -0.6430 -0.2846  0.0100
   23MOL0     N 3053   3.909  10.594  10.627  0.1004 -0.7460 -0.6940
   23MOL0     C 3054   3.951  10.694  10.723  0.5319 -1.0305  0.4218
   23MOL0     C 3055   3.833  10.749  10.770  0.0670  0.2101  0.3587
   23MOL0     C 3056   3.824  10.866  10.862 -0.1501 -0.3843  0.8881
   23MOL0     C 3057   3.900  10.985  10.810  0.5740  0.0274 -0.0690
   23MOL0     C 3058   3.902  11.098  10.919 -0.4408 -0.1301  0.4409
   23MOL0     C 3059   3.989  11.223  10.878  0.7155 -0.7022  0.5680
   23MOL0     O 3060   4.135  11.208  10.900 -0.0900 -0.0490 -0.5432
   23MOL0     C 3061   4.209  11.325  10.913 -0.6881 -0.2820 -0.9334
   23MOL0     C 3062   4.169  11.442  10.867 -0.1178 -0.5965  0.7345
   23MOL0     C 3063   4.249  11.558  10.891 -0.0124 -0.3644 -0.7124
   23MOL0     C 3064   4.181  11.683  10.831 -0.0456  0.8953  0.4760
   23MOL0     C 3065   4.377  11.548  10.955  0.5229 -0.0554  0.7193
   23MOL0     C 3066   4.469  11.660  10.979 -0.3044  0.2625  0.1884
   23MOL0     O 3067   4.591  11.632  11.027 -0.0179  0.0471 -0.7067
   23MOL0     C 3068   4.676  11.737  11.038 -0.3085  0.4202  0.1108
   23MOL0     C 3069   4.765  11.760  10.927  0.3564 -0.0078 -0.0439
   23MOL0     C 3070   4.849  11.872  10.930 -0.5173 -0.2580 -0.7904
   23MOL0     C 3071   4.849  11.953  11.051  0.5612 -0.1663  0.2477
   23MOL0     O 3072   4.943  12.050  11.059 -0.7143  0.2066  0.0992
   23MOL0     C 3073   5.023  12.045  11.177 -1.0960  0.5844 -0.0330
   23MOL0     C 3074   5.129  12.164  11.196 -1.0086  0.5898 -0.2419
   23MOL0     C 3075   5.208  12.148  11.334  0.6920 -0.0226 -0.9752
   23MOL0     C 3076   5.335  12.233  11.334  0.0376 -0.5946 -0.3401
   23MOL0     C 3077   5.426  12.179  11.453 -1.1604  0.0478  0.6849
   23MOL0     C 3078   5.492  12.038  11.424  0.3061  0.5872  0.1889
   23MOL0     C 3079   5.593  12.040  11.315  0.2620 -0.4333 -0.4130
   23MOL0     C 3080   5.654  11.904  11.272  0.2441  1.0655  0.1449
   23MOL0    Cl 3081   5.732  11.837  11.420  0.5371 -0.0422 -0.2905
   23MOL0     C 3082   4.765  11.926  11.153 -0.0490 -0.3227 -0.2443
   23MOL0     C 3083   4.682  11.810  11.154  0.1583 -0.3036  0.0815
   23MOL0     O 3084   4.424  11.774  10.966  0.5212  0.5000 -0.4162
   23MOL0     C 3085   4.426  11.420  10.990 -0.1270 -0.6554 -0.2403
   23MOL0     C 3086   4.340  11.311  10.972  0.5177 -0.2769  0.1325
   23MOL0     N 3087   3.726  10.701  10.704 -0.7767  0.8991 -0.4818
   23MOL0     N 3088   3.775  10.612  10.611 -0.9895 -0.1875  0.1459
   23MOL0     C 3089   3.551   9.895   9.586 -1.6841  0.6412  0.7019
   23MOL0     C 3090   3.463   9.809   9.524  0.1279 -0.3787  0.8712
   23MOL0     C 3091   3.125   9.484   9.559 -0.4604 -0.4816  0.2034
   23MOL0     C 3092   3.139   9.417   9.437 -1.3218  0.1674 -0.1056
   23MOL0     C 3093   3.045   9.333   9.378  0.3807  0.1296 -0.6466
   23MOL0     C 3094   2.924   9.314   9.449 -0.7417 -0.0407  0.3860
   23MOL0     O 3095   2.812   9.256   9.394  0.4072  0.1638 -0.2283
   23MOL0     C 3096   2.840   9.168   9.285 -0.5853 -0.1673  0.7391
   23MOL0     C 3097   2.717   9.099   9.234  0.0925 -0.0233 -0.6090
   23MOL0     C 3098   2.630   9.195   9.156  0.3325  0.9908 -0.3921
   23MOL0     C 3099   2.524   9.266   9.238 -0.2812 -0.0964  0.7348
   23MOL0     C 3100   2.426   9.165   9.277  0.5128 -0.0140 -0.0898
   23MOL0     C 3101   2.348   9.076   9.310 -0.2157 -0.2863  0.3032
   23MOL0     C 3102   2.904   9.380   9.565  0.4912  0.9556 -0.0619
   23MOL0     C 3103   3.006   9.456   9.627  0.3518  0.0397 -0.2606
   23MOL0     C 3104   2.967   9.507   9.763  1.0897 -0.2302  0.2380
   23MOL0     H 3105   3.514   9.534   9.722 -2.1019  0.3275  0.9328
   23MOL0     H 3106   3.672   9.681   9.835 -0.5640 -1.4455 -1.3189
   23MOL0     H 3107   3.826   9.884   9.921  3.0813  4.4054  1.5641
   23MOL0     H 3108   3.652   9.897   9.954 -0.6645  1.0328 -1.3520
   23MOL0     H 3109   3.842  10.126   9.903 -1.6689  2.6020  0.9141
   23MOL0     H 3110   3.675  10.140   9.957  0.7590  0.2516  0.8232
   23MOL0     H 3111   3.737  10.032  10.183  0.7450  1.1713  1.8728
   23MOL0     H 3112   3.903  10.024  10.124 -0.0075 -1.7314 -0.1013
   23MOL0     H 3113   3.904  10.265  10.098 -1.6464  2.6407  0.1217
   23MOL0     H 3114   3.732  10.281  10.153  0.1264  0.3941  0.0285
   23MOL0     H 3115   3.936  10.143  10.342  1.7729  1.3626 -1.3408
   23MOL0     H 3116   3.779  10.223  10.370 -0.9759  0.4395 -0.8783
   23MOL0     H 3117   4.054  10.356  10.308 -0.2029 -1.8764 -0.1123
   23MOL0     H 3118   3.891  10.434  10.285  0.8851 -0.1084 -1.6532
   23MOL0     H 3119   3.996  10.306  10.536  2.2180 -0.5709 -2.4309
   23MOL0     H 3120   3.838  10.384  10.525  0.5761 -1.4047 -0.5642
   23MOL0     H 3121   4.093  10.521  10.539 -0.2110  1.0546 -2.1695
   23MOL0     H 3122   3.973  10.582  10.430  0.5834 -0.7937 -0.4596
   23MOL0     H 3123   4.057  10.715  10.740  0.5411  1.4579 -2.0986
   23MOL0     H 3124   3.871  10.846  10.958  0.5732 -0.7600  0.4595
   23MOL0     H 3125   3.719  10.888  10.885 -0.9061 -0.2210 -2.2918
   23MOL0     H 3126   4.003  10.961  10.783  1.0903  2.5958 -0.6384
   23MOL0     H 3127   3.851  11.017  10.717  0.0906 -0.6033 -0.0386
   23MOL0     H 3128   3.801  11.139  10.935 -0.2450  1.7185 -2.2249
   23MOL0     H 3129   3.938  11.059  11.014  1.3927 -1.2608 -0.6715
   23MOL0     H 3130   3.983  11.239  10.770 -1.0252  2.6114  1.0167
   23MOL0     H 3131   3.947  11.308  10.932  0.8778 -0.4731  0.3365
   23MOL0     H 3132   4.081  11.451  10.804  1.4561  0.3369 -1.4668
   23MOL0     H 3133   4.073  11.676  10.849 -0.8305  4.6075 -1.5467
   23MOL0     H 3134   4.198  11.688  10.723 -3.5547  0.3204 -0.2372
   23MOL0     H 3135   4.217  11.774  10.880  2.7019 -0.5083  1.2230
   23MOL0     H 3136   4.763  11.693  10.842 -0.1212 -0.6555  0.4657
   23MOL0     H 3137   4.915  11.897  10.848 -0.5458  0.5652 -0.5788
   23MOL0     H 3138   4.958  12.036  11.265 -2.0168 -2.8980 -0.9230
   23MOL0     H 3139   5.080  11.952  11.175  1.5829  2.0902  1.1653
   23MOL0     H 3140   5.203  12.160  11.115 -0.0266 -2.7481  0.6907
   23MOL0     H 3141   5.073  12.258  11.184 -1.1019  0.4005 -1.4045
   23MOL0     H 3142   5.230  12.041  11.340 -1.1415 -0.3585  2.3931
   23MOL0     H 3143   5.136  12.172  11.412 -0.3801  2.8239 -2.7133
   23MOL0     H 3144   5.304  12.334  11.362  1.5206 -0.1551 -0.1572
   23MOL0     H 3145   5.385  12.238  11.237  1.9954  2.4250  0.6739
   23MOL0     H 3146   5.506  12.246  11.483  1.2381 -1.7454 -1.3345
   23MOL0     H 3147   5.359  12.186  11.540 -0.9607 -2.1999  1.0774
   23MOL0     H 3148   5.411  11.970  11.398  2.2122 -1.0400 -1.8673
   23MOL0     H 3149   5.542  11.997  11.513 -1.2391  1.0829  1.3322
   23MOL0     H 3150   5.673  12.108  11.346  0.1639 -0.4383 -0.1504
   23MOL0     H 3151   5.540  12.084  11.230 -2.9722 -0.0364  1.6796
   23MOL0     H 3152   5.732  11.921  11.197  1.6652  0.4892  1.4317
   23MOL0     H 3153   5.591  11.821  11.239  2.5846 -0.7606 -0.0306
   23MOL0     H 3154   4.772  11.987  11.242 -2.4873 -0.9317  0.4562
   23MOL0     H 3155   4.622  11.788  11.242 -1.6544 -2.7898 -1.6468
   23MOL0     H 3156   4.520  11.396  11.038  0.1108  0.6426 -0.0451
   23MOL0     H 3157   4.387  11.221  11.007 -0.4604 -2.0035 -2.6491
   23MOL0     H 3158   3.554   9.997   9.549 -0.8019  0.0792 -0.8670
   23MOL0     H 3159   3.391   9.842   9.450  1.8989 -2.1369 -1.8206
   23MOL0     H 3160   3.231   9.417   9.378 -3.1049  1.5246 -3.1523
   23MOL0     H 3161   3.058   9.289   9.280 -2.0719 -4.7371  0.9039
   23MOL0     H 3162   2.876   9.241   9.212 -1.0058 -1.1557 -0.4796
   23MOL0     H 3163   2.910   9.086   9.303  0.5376  0.4524 -0.6239
   23MOL0     H 3164   2.672   9.059   9.325  1.0058  2.2007  0.8895
   23MOL0     H 3165   2.746   9.014   9.171 -2.5188  0.0937 -2.0889
   23MOL0     H 3166   2.696   9.272   9.115  1.1210 -0.1745 -1.3994
   23MOL0     H 3167   2.588   9.149   9.066 -0.5710 -1.1422  1.0339
   23MOL0     H 3168   2.476   9.337   9.171 -0.4507 -0.7430  0.1652
   23MOL0     H 3169   2.569   9.313   9.327  3.3668 -0.7722 -0.5857
   23MOL0     H 3170   2.277   8.997   9.326  0.7352 -1.3876 -0.8305
   23MOL0     H 3171   2.805   9.368   9.608  0.7137 -1.0200 -0.0248
   23MOL0     H 3172   3.039   9.466   9.835  2.0403 -3.6694 -2.4271
   23MOL0     H 3173   2.968   9.616   9.772 -0.4583 -0.0267 -1.5046
   23MOL0     H 3174   2.865   9.476   9.788 -0.3612  2.0960 -2.3465
   24MOL0     O 3175   7.282   2.021  10.426  0.2228 -0.3496  0.4149
   24MOL0     C 3176   7.229   1.911  10.415  0.2214 -0.6928  0.6484
   24MOL0     O 3177   7.296   1.794  10.446  0.5964  0.5149 -0.2319
   24MOL0     C 3178   7.428   1.807  10.488 -0.3996 -0.6411  0.3578
   24MOL0     C 3179   7.461   1.824  10.622 -0.0826  0.3494 -0.5594
   24MOL0     C 3180   7.591   1.853  10.664  0.9759  0.2167  0.9197
   24MOL0     C 3181   7.694   1.873  10.568 -1.1267  0.2452  0.0047
   24MOL0     O 3182   7.821   1.922  10.598  0.2584  0.5770  0.0284
   24MOL0     C 3183   7.873   1.854  10.712  0.5721  0.2698  0.2212
   24MOL0     C 3184   8.006   1.782  10.679  0.5441 -0.2319  0.1164
   24MOL0     C 3185   8.119   1.882  10.649  0.1034 -1.1044  0.3770
   24MOL0     C 3186   8.251   1.804  10.616  0.0380 -0.0647 -0.4378
   24MOL0     C 3187   8.373   1.895  10.592 -0.4437 -0.1658  1.1723
   24MOL0     C 3188   8.491   1.807  10.597  0.2200 -0.5921 -0.4670
   24MOL0     C 3189   8.623   1.868  10.535 -0.4883 -0.5432  0.0162
   24MOL0     C 3190   8.677   1.986  10.626  0.6733 -0.2195  0.7850
   24MOL0     N 3191   8.806   2.034  10.590  0.0640  0.0653 -1.0579
   24MOL0     C 3192   8.837   2.113  10.476  0.1636  0.0211  0.4388
   24MOL0     C 3193   8.971   2.090  10.453  0.2333 -0.3169  0.0481
   24MOL0     C 3194   9.050   2.153  10.345 -0.4200  0.3187 -0.1928
   24MOL0     C 3195   9.171   2.061  10.305 -0.7224  0.2917  0.3751
   24MOL0     C 3196   9.232   2.094  10.170 -0.1920  0.1070 -0.9720
   24MOL0     C 3197   9.301   2.235  10.175  0.6383  0.1180 -0.2827
   24MOL0     O 3198   9.385   2.272  10.059 -0.2299 -0.3651 -0.0286
   24MOL0     C 3199   9.507   2.222  10.040 -0.3768 -0.1283 -0.1074
   24MOL0     C 3200   9.558   2.118  10.117  0.0190 -0.3369 -0.2065
   24MOL0     C 3201   9.678   2.057  10.082 -0.5007 -0.3299 -0.4635
   24MOL0     C 3202   9.735   1.949  10.172  0.3790  0.4979  0.5911
   24MOL0     C 3203   9.752   2.106   9.969  0.6059 -0.2735 -0.3783
   24MOL0     C 3204   9.860   2.032   9.907 -0.1825  0.4778  0.4723
   24MOL0     O 3205   9.950   2.096   9.827 -0.2504  0.5223 -0.1963
   24MOL0     C 3206  10.037   2.023   9.757 -1.0834  0.6169  0.2605
   24MOL0     C 3207  10.166   2.004   9.805 -0.5810  0.0948  0.5350
   24MOL0     C 3208  10.265   1.934   9.743 -0.8095 -0.0954 -0.7025
   24MOL0     C 3209  10.229   1.879   9.613 -0.9878 -0.9447  0.0114
   24MOL0     O 3210  10.332   1.810   9.547  0.0733  0.2726 -0.7378
   24MOL0     C 3211  10.455   1.763   9.612  0.3975 -0.0270 -0.6157
   24MOL0     C 3212  10.523   1.675   9.504 -0.3902 -0.2665 -1.2571
   24MOL0     C 3213  10.549   1.736   9.375 -0.8059 -0.1231  0.9763
   24MOL0     C 3214  10.637   1.653   9.276 -0.3696 -0.2034  0.3681
   24MOL0     C 3215  10.601   1.702   9.132  0.1572  0.3612 -0.0188
   24MOL0     C 3216  10.640   1.589   9.034 -0.2294  0.2399 -0.2703
   24MOL0     C 3217  10.591   1.626   8.887 -0.1400 -0.5960  0.2971
   24MOL0     C 3218  10.698   1.558   8.803 -0.1833 -0.0496  0.4179
   24MOL0    Cl 3219  10.684   1.383   8.815  0.4715  0.4521 -0.1756
   24MOL0     C 3220  10.105   1.894   9.556  0.0390  0.3147  0.5887
   24MOL0     C 3221  10.005   1.961   9.630  0.2271 -0.2240 -0.2300
   24MOL0     O 3222   9.858   1.914   9.928 -0.3286 -0.1283 -0.1953
   24MOL0     C 3223   9.704   2.223   9.904  0.4303 -0.2919 -0.2292
   24MOL0     C 3224   9.573   2.276   9.931  0.5040 -0.8264 -0.3879
   24MOL0     N 3225   9.024   2.015  10.556  0.1575 -0.1460 -0.1929
   24MOL0     N 3226   8.931   2.003  10.652 -0.2524  0.6872  0.5863
   24MOL0     C 3227   7.660   1.857  10.429 -0.5202  0.2072 -0.6459
   24MOL0     C 3228   7.532   1.823  10.386  1.2735 -0.0004  0.0632
   24MOL0     C 3229   7.086   1.901  10.380 -0.3180 -0.1858  0.1134
   24MOL0     C 3230   7.043   1.775  10.357  0.3414  0.0939  0.4524
   24MOL0     C 3231   6.905   1.755  10.335 -0.5615  0.8370 -0.4681
   24MOL0     C 3232   6.811   1.861  10.343 -0.2327  0.2098 -0.3331
   24MOL0     O 3233   6.670   1.845  10.329  0.1461  0.6771 -0.5157
   24MOL0     C 3234   6.605   1.721  10.286 -0.5795 -0.7136 -0.8351
   24MOL0     C 3235   6.558   1.647  10.409  0.0758  0.3252 -0.0131
   24MOL0     C 3236   6.470   1.734  10.494 -0.0199 -0.1141 -0.4689
   24MOL0     C 3237   6.396   1.644  10.600  0.1203  0.0697 -0.1268
   24MOL0     C 3238   6.473   1.627  10.724 -1.3642 -0.0711  0.2690
   24MOL0     C 3239   6.544   1.627  10.824  0.0042  0.3078  0.7313
   24MOL0     C 3240   6.855   1.992  10.371 -0.2945 -0.9511 -0.4463
   24MOL0     C 3241   6.995   2.011  10.389  0.7340  0.2469  0.0957
   24MOL0     C 3242   7.032   2.148  10.424  0.2435  1.4511  0.9856
   24MOL0     H 3243   7.381   1.807  10.694 -0.9485  1.3357 -1.2585
   24MOL0     H 3244   7.610   1.873  10.769  0.3688  0.7617  0.9307
   24MOL0     H 3245   7.809   1.778  10.758  3.3571 -0.2282  3.7927
   24MOL0     H 3246   7.894   1.927  10.791 -0.0185 -0.2857  0.9086
   24MOL0     H 3247   8.038   1.722  10.765 -2.3092 -1.9195  0.1334
   24MOL0     H 3248   7.997   1.723  10.588  4.4352 -1.1070  0.1101
   24MOL0     H 3249   8.093   1.952  10.569 -0.4478  0.8907  2.1826
   24MOL0     H 3250   8.145   1.948  10.732 -0.3393  3.1147 -2.5194
   24MOL0     H 3251   8.272   1.728  10.692  0.6049  0.4970 -0.0203
   24MOL0     H 3252   8.219   1.754  10.524 -1.8027  0.0631  0.1062
   24MOL0     H 3253   8.380   1.970  10.671  1.5519  1.4275 -0.4351
   24MOL0     H 3254   8.379   1.938  10.492  3.7989 -1.4730  0.6837
   24MOL0     H 3255   8.517   1.787  10.701  0.9682  2.7129  0.1262
   24MOL0     H 3256   8.474   1.710  10.551  1.2830 -0.5140 -1.0573
   24MOL0     H 3257   8.598   1.904  10.435  0.1880  0.7845  0.3015
   24MOL0     H 3258   8.689   1.782  10.543 -1.6204 -1.2863  2.5893
   24MOL0     H 3259   8.596   2.059  10.616  1.2264  0.1781 -1.3136
   24MOL0     H 3260   8.682   1.947  10.727  0.9875 -0.6637  0.6018
   24MOL0     H 3261   8.776   2.183  10.422 -0.9208 -1.4809 -0.3594
   24MOL0     H 3262   9.090   2.254  10.355 -0.7309  0.5530 -1.2427
   24MOL0     H 3263   8.985   2.148  10.257 -2.3019  0.2294  1.1295
   24MOL0     H 3264   9.261   2.071  10.366  0.1550 -3.5081 -0.0343
   24MOL0     H 3265   9.138   1.956  10.305  1.0229 -0.4828 -4.0715
   24MOL0     H 3266   9.311   2.024  10.139 -0.7794 -1.4068  0.7767
   24MOL0     H 3267   9.153   2.095  10.094  2.3306 -3.1051 -3.9549
   24MOL0     H 3268   9.218   2.304  10.190 -0.4276 -1.1687 -0.1285
   24MOL0     H 3269   9.365   2.239  10.263  1.5535 -1.4959 -0.8205
   24MOL0     H 3270   9.496   2.073  10.193 -1.2554 -0.3076 -1.1910
   24MOL0     H 3271   9.723   1.849  10.128  0.6459  1.3046 -1.4111
   24MOL0     H 3272   9.683   1.940  10.268  1.8651 -1.5168  1.2866
   24MOL0     H 3273   9.842   1.968  10.189  0.5126  0.0111  0.3413
   24MOL0     H 3274  10.195   2.046   9.900  0.5477 -0.6730  0.5549
   24MOL0     H 3275  10.365   1.926   9.785  0.5933  0.5658 -3.6900
   24MOL0     H 3276  10.524   1.845   9.635  2.8501 -2.1005 -0.0991
   24MOL0     H 3277  10.435   1.700   9.700  1.6266  0.1368 -0.1916
   24MOL0     H 3278  10.619   1.648   9.549 -0.5645 -0.7212 -1.1553
   24MOL0     H 3279  10.469   1.581   9.498 -0.0203 -0.4579 -1.6313
   24MOL0     H 3280  10.595   1.834   9.390  1.3200 -1.0473  0.8455
   24MOL0     H 3281  10.452   1.741   9.326 -0.3917 -1.4935 -0.0456
   24MOL0     H 3282  10.614   1.547   9.285 -2.0735  0.0517 -0.6740
   24MOL0     H 3283  10.740   1.675   9.305 -0.0045 -2.6340  1.1740
   24MOL0     H 3284  10.495   1.724   9.112 -0.3490 -0.3923  1.6640
   24MOL0     H 3285  10.665   1.786   9.104  0.5585 -0.2884 -1.1117
   24MOL0     H 3286  10.597   1.492   9.061  1.8807 -0.6033  0.2883
   24MOL0     H 3287  10.748   1.569   9.036 -0.0717  1.1066  1.4611
   24MOL0     H 3288  10.600   1.733   8.866  1.3757 -0.7971 -0.1961
   24MOL0     H 3289  10.486   1.599   8.869 -0.0134  0.3810 -2.3557
   24MOL0     H 3290  10.800   1.593   8.823  0.1048 -1.2035  1.0503
   24MOL0     H 3291  10.680   1.596   8.702  2.4141 -0.0350 -0.1151
   24MOL0     H 3292  10.067   1.874   9.456 -1.4852 -1.2410  1.4133
   24MOL0     H 3293   9.907   1.971   9.586 -0.6069 -0.1303  1.5479
   24MOL0     H 3294   9.753   2.265   9.816  2.2968 -3.1772 -0.6979
   24MOL0     H 3295   9.529   2.351   9.866  0.0044 -2.2062 -1.7107
   24MOL0     H 3296   7.738   1.861  10.355  1.4473 -0.9268  1.2415
   24MOL0     H 3297   7.509   1.817  10.280 -3.2942 -0.0764  0.8534
   24MOL0     H 3298   7.105   1.686  10.362 -1.6087 -1.3459  0.2772
   24MOL0     H 3299   6.881   1.657  10.295  1.0231  0.3732 -0.3359
   24MOL0     H 3300   6.510   1.746  10.239 -1.2169 -0.0387  0.7199
   24MOL0     H 3301   6.668   1.662  10.220  1.5404  1.0354 -0.5027
   24MOL0     H 3302   6.644   1.608  10.464  0.0496 -1.3432 -1.0695
   24MOL0     H 3303   6.508   1.557  10.370  0.0924 -0.7723  2.3204
   24MOL0     H 3304   6.538   1.804  10.545  1.1212 -2.7884  1.9425
   24MOL0     H 3305   6.394   1.788  10.437 -0.2275 -0.2248 -0.2999
   24MOL0     H 3306   6.385   1.541  10.564 -0.2243 -0.9174  2.5640
   24MOL0     H 3307   6.295   1.680  10.624  0.4191  1.0099 -0.2486
   24MOL0     H 3308   6.614   1.628  10.904  1.8320 -0.6829 -0.7674
   24MOL0     H 3309   6.781   2.071  10.377  2.5071  1.8256  0.3855
   24MOL0     H 3310   6.947   2.216  10.415 -0.9816 -0.1326  0.1242
   24MOL0     H 3311   7.066   2.145  10.528  0.9080  0.3944  0.7602
   24MOL0     H 3312   7.113   2.171  10.354 -1.8529 -2.2446 -3.1674
   25MOL0     O 3313   8.199  11.266   2.687  0.0869  0.0592 -0.3057
   25MOL0     C 3314   8.078  11.286   2.707  0.0883 -0.0266 -0.2226
   25MOL0     O 3315   8.015  11.275   2.821 -0.9043  0.2678  0.1434
   25MOL0     C 3316   8.087  11.264   2.937 -0.5314 -0.0571 -0.9155
   25MOL0     C 3317   8.195  11.342   2.971 -0.2660 -0.0491  0.0836
   25MOL0     C 3318   8.263  11.319   3.095  0.8721 -0.8041 -0.3909
   25MOL0     C 3319   8.217  11.227   3.188 -0.1136 -0.1988 -0.7227
   25MOL0     O 3320   8.282  11.215   3.308  1.2827 -0.6000 -0.5157
   25MOL0     C 3321   8.222  11.123   3.420  0.1116 -0.7030  0.0241
   25MOL0     C 3322   8.324  11.097   3.523  0.2363  0.3447  0.4821
   25MOL0     C 3323   8.450  11.036   3.472 -0.5343  0.1072  0.3707
   25MOL0     C 3324   8.519  10.961   3.595 -0.6902 -0.3445  0.4038
   25MOL0     C 3325   8.549  11.055   3.718  0.4805  0.7494 -0.6024
   25MOL0     C 3326   8.646  11.176   3.693 -0.1244 -0.2575 -1.0204
   25MOL0     C 3327   8.774  11.117   3.643  0.6840 -0.0274  0.5196
   25MOL0     C 3328   8.894  11.211   3.658  0.1827 -0.0797 -0.1132
   25MOL0     N 3329   9.024  11.137   3.643  0.2889 -0.3926  0.9947
   25MOL0     C 3330   9.078  11.093   3.523  0.4595 -0.0271 -0.6728
   25MOL0     C 3331   9.202  11.048   3.557  0.5578  0.9444  0.0526
   25MOL0     C 3332   9.299  11.001   3.456  0.2808  0.1726 -0.3765
   25MOL0     C 3333   9.441  10.978   3.511  0.0001  0.1007  0.3903
   25MOL0     C 3334   9.502  11.116   3.534  0.2726  0.6298  0.3972
   25MOL0     C 3335   9.629  11.089   3.595 -0.2802 -0.1499  1.1638
   25MOL0     O 3336   9.713  11.199   3.594  0.0156 -0.5536  0.3719
   25MOL0     C 3337   9.815  11.223   3.683  0.4083 -1.2355 -0.2165
   25MOL0     C 3338   9.874  11.128   3.764  0.1903 -0.3655 -0.2722
   25MOL0     C 3339   9.974  11.163   3.858  0.0329 -0.0675  0.1105
   25MOL0     C 3340  10.027  11.039   3.928 -0.0693 -0.2253  0.6920
   25MOL0     C 3341  10.015  11.300   3.882  0.0694  0.3518 -0.3968
   25MOL0     C 3342  10.127  11.329   3.978  0.1779  0.4178 -0.1566
   25MOL0     O 3343  10.175  11.223   4.063  0.2503 -0.8313  0.0856
   25MOL0     C 3344  10.279  11.236   4.150 -0.0829  0.3429  0.2978
   25MOL0     C 3345  10.391  11.315   4.120  0.5537  0.1452 -0.2866
   25MOL0     C 3346  10.489  11.345   4.205 -0.7189  0.4574 -0.8957
   25MOL0     C 3347  10.493  11.282   4.337  0.3922 -0.2433  0.2463
   25MOL0     O 3348  10.602  11.303   4.423  0.4354 -0.2788  0.4801
   25MOL0     C 3349  10.643  11.434   4.413 -1.0205 -0.0193  0.8862
   25MOL0     C 3350  10.730  11.452   4.537  0.2754 -1.2949  0.7662
   25MOL0     C 3351  10.871  11.380   4.529 -0.6074  0.9186  0.4496
   25MOL0     C 3352  10.971  11.471   4.455  0.2108 -0.1036 -0.0676
   25MOL0     C 3353  11.120  11.424   4.465 -0.1612 -0.4484  0.3120
   25MOL0     C 3354  11.216  11.524   4.396 -0.0037  0.4444 -0.8686
   25MOL0     C 3355  11.357  11.465   4.403  0.2443  0.8179 -0.5044
   25MOL0     C 3356  11.448  11.578   4.362  0.0271 -0.0866  0.6217
   25MOL0    Cl 3357  11.613  11.519   4.358 -0.2385 -0.2709 -0.0626
   25MOL0     C 3358  10.383  11.206   4.374  0.7880  0.4939  0.7429
   25MOL0     C 3359  10.275  11.189   4.286  0.2527  0.3299  0.1271
   25MOL0     O 3360  10.178  11.436   3.965  0.1226 -0.1235 -0.4197
   25MOL0     C 3361   9.947  11.398   3.798  0.5801  0.9427 -0.2381
   25MOL0     C 3362   9.854  11.358   3.697  0.1608 -0.7981 -0.1476
   25MOL0     N 3363   9.217  11.063   3.691  0.1936  0.2176 -0.3728
   25MOL0     N 3364   9.111  11.118   3.742  0.0909 -0.0740  0.8608
   25MOL0     C 3365   8.102  11.152   3.154 -0.3257  0.6128  0.6184
   25MOL0     C 3366   8.040  11.167   3.033 -0.1009  0.0871  0.0468
   25MOL0     C 3367   8.010  11.333   2.575 -0.3468  0.3600  0.7184
   25MOL0     C 3368   7.982  11.464   2.540  0.5656  0.1345  0.4173
   25MOL0     C 3369   7.898  11.502   2.428 -1.2692 -0.7369 -0.4544
   25MOL0     C 3370   7.854  11.404   2.343  0.5967  0.4433 -0.1906
   25MOL0     O 3371   7.779  11.412   2.229  0.4508  0.4238 -0.7768
   25MOL0     C 3372   7.700  11.529   2.195  0.2775 -0.4532  0.2401
   25MOL0     C 3373   7.622  11.520   2.064  0.2422  0.8071 -0.5683
   25MOL0     C 3374   7.720  11.485   1.944 -0.1444 -0.8833  0.0419
   25MOL0     C 3375   7.677  11.578   1.826 -0.1584  0.2342 -1.0117
   25MOL0     C 3376   7.534  11.542   1.789  0.1480 -0.5969  0.5360
   25MOL0     C 3377   7.424  11.501   1.763 -0.1990 -1.0964 -0.6255
   25MOL0     C 3378   7.886  11.274   2.378 -0.2803  0.1154 -0.1031
   25MOL0     C 3379   7.963  11.233   2.486 -0.0714 -0.6945 -0.5522
   25MOL0     C 3380   7.978  11.086   2.520 -0.4385 -1.4577  0.3504
   25MOL0     H 3381   8.228  11.418   2.901  0.3929  0.1135  0.5525
   25MOL0     H 3382   8.343  11.389   3.120 -0.9024  1.1770  0.0128
   25MOL0     H 3383   8.195  11.028   3.374  0.5654 -0.6835 -0.2851
   25MOL0     H 3384   8.127  11.156   3.464  0.9509  1.3974  0.4232
   25MOL0     H 3385   8.342  11.193   3.573 -2.4817 -0.7102  3.8538
   25MOL0     H 3386   8.280  11.027   3.594  0.1629 -0.3950 -0.2735
   25MOL0     H 3387   8.418  10.966   3.394  0.8343  0.9528 -1.0305
   25MOL0     H 3388   8.503  11.121   3.427  0.5784  0.0748  1.5744
   25MOL0     H 3389   8.453  10.881   3.628  0.7082 -2.7842 -2.2719
   25MOL0     H 3390   8.607  10.906   3.560 -2.6001 -1.8873 -2.3751
   25MOL0     H 3391   8.580  11.009   3.812 -0.3577  0.5575 -0.4157
   25MOL0     H 3392   8.452  11.096   3.746 -0.1301  0.1912 -1.8101
   25MOL0     H 3393   8.607  11.255   3.628  2.5444 -1.1319 -3.9670
   25MOL0     H 3394   8.658  11.230   3.788  0.6001  0.9275 -1.7495
   25MOL0     H 3395   8.763  11.097   3.537 -2.1750 -1.2603  0.9655
   25MOL0     H 3396   8.796  11.024   3.695  2.6178  0.5483  0.8103
   25MOL0     H 3397   8.886  11.283   3.577  1.7809 -1.4605 -1.5826
   25MOL0     H 3398   8.889  11.242   3.763 -1.8899 -4.2248  1.2461
   25MOL0     H 3399   9.026  11.095   3.428 -0.2116 -0.7084 -0.3391
   25MOL0     H 3400   9.308  11.068   3.369 -3.0148  0.9083 -0.2784
   25MOL0     H 3401   9.248  10.910   3.424 -1.0131  0.4597  0.7845
   25MOL0     H 3402   9.443  10.922   3.605 -0.0560 -0.8547 -0.1642
   25MOL0     H 3403   9.496  10.932   3.428  0.1651  0.2061  0.4386
   25MOL0     H 3404   9.521  11.156   3.434 -1.4907  0.3661 -0.0880
   25MOL0     H 3405   9.433  11.183   3.585 -0.3286  0.4387 -0.1403
   25MOL0     H 3406   9.600  11.059   3.696 -1.4943  0.1620  0.9297
   25MOL0     H 3407   9.674  10.997   3.556 -4.5934 -1.4625 -1.4760
   25MOL0     H 3408   9.842  11.026   3.746  2.1308 -0.5658 -3.1230
   25MOL0     H 3409   9.999  11.047   4.033 -0.6814  0.8493  0.4606
   25MOL0     H 3410  10.137  11.033   3.923 -0.0455  1.0049 -1.6457
   25MOL0     H 3411   9.981  10.950   3.885 -0.8777  0.5772 -0.1320
   25MOL0     H 3412  10.395  11.371   4.027 -0.4565 -0.6762 -0.8435
   25MOL0     H 3413  10.558  11.415   4.160  0.8673  0.0784  0.8396
   25MOL0     H 3414  10.720  11.459   4.339 -0.1105 -1.7362  1.2003
   25MOL0     H 3415  10.556  11.500   4.410 -2.3379 -1.7117 -1.5675
   25MOL0     H 3416  10.744  11.560   4.546 -0.6147 -1.1323  0.3232
   25MOL0     H 3417  10.676  11.422   4.627  2.1151 -0.9966  2.0047
   25MOL0     H 3418  10.852  11.286   4.478  2.0191 -0.8139  2.3995
   25MOL0     H 3419  10.908  11.344   4.625  1.1572  1.7591  0.1072
   25MOL0     H 3420  10.966  11.574   4.491 -1.5320  0.2186 -1.1199
   25MOL0     H 3421  10.942  11.495   4.353  4.4038  2.0829 -0.9738
   25MOL0     H 3422  11.153  11.419   4.569  1.6259  0.2157 -0.1852
   25MOL0     H 3423  11.131  11.319   4.433  2.7321 -0.6799  1.6884
   25MOL0     H 3424  11.207  11.620   4.448 -0.2276 -0.1987  0.3372
   25MOL0     H 3425  11.206  11.539   4.288  2.6978 -0.5572 -1.3407
   25MOL0     H 3426  11.362  11.374   4.342 -0.6980  0.4791 -0.1064
   25MOL0     H 3427  11.373  11.424   4.503 -1.9720  1.4202  0.1534
   25MOL0     H 3428  11.450  11.667   4.426  2.3589  0.9743 -0.7592
   25MOL0     H 3429  11.407  11.615   4.267 -0.4978  0.7802  1.1704
   25MOL0     H 3430  10.381  11.153   4.468  1.1113 -3.4244 -1.2567
   25MOL0     H 3431  10.186  11.137   4.319  1.6825 -1.3252  1.5911
   25MOL0     H 3432   9.975  11.502   3.810  1.0651  0.8549 -0.5619
   25MOL0     H 3433   9.809  11.437   3.639  0.0160 -1.3493 -0.7961
   25MOL0     H 3434   8.053  11.090   3.228 -1.1750  1.4015  0.7332
   25MOL0     H 3435   7.951  11.108   3.017 -1.6767  0.5904  5.2355
   25MOL0     H 3436   8.032  11.552   2.580  4.1660 -1.1439 -0.8648
   25MOL0     H 3437   7.881  11.603   2.392  1.4021  0.8454  2.2437
   25MOL0     H 3438   7.631  11.552   2.277 -0.9736 -0.9480 -0.6390
   25MOL0     H 3439   7.771  11.612   2.187 -1.3270  1.0108  0.6720
   25MOL0     H 3440   7.560  11.609   2.049 -1.3440 -0.0025  0.9048
   25MOL0     H 3441   7.554  11.434   2.070  1.8415 -0.4611  0.0854
   25MOL0     H 3442   7.824  11.496   1.978 -0.0424  0.2119 -0.5958
   25MOL0     H 3443   7.704  11.381   1.912 -0.7485 -1.4828  2.1050
   25MOL0     H 3444   7.752  11.567   1.748 -0.2801  0.2905 -1.1382
   25MOL0     H 3445   7.673  11.685   1.851 -3.5829 -0.2834  1.2722
   25MOL0     H 3446   7.327  11.473   1.727 -1.6224  4.0379 -1.5873
   25MOL0     H 3447   7.844  11.202   2.308  2.1660 -0.3141 -1.2489
   25MOL0     H 3448   7.944  11.018   2.441  2.4741 -2.3864 -0.2309
   25MOL0     H 3449   8.085  11.067   2.530  0.6578  3.6675  0.8117
   25MOL0     H 3450   7.923  11.073   2.614 -0.1416  4.9227  1.8468
   26MOL0     O 3451   7.854   9.889   2.687  0.0917  0.2240 -0.0494
   26MOL0     C 3452   7.920   9.792   2.721 -0.8218  0.1540 -0.7730
   26MOL0     O 3453   8.056   9.777   2.703 -0.4660 -0.1688 -0.1026
   26MOL0     C 3454   8.148   9.880   2.686  0.5060 -0.1983 -0.1495
   26MOL0     C 3455   8.119  10.016   2.691  0.3319 -0.1962 -0.2116
   26MOL0     C 3456   8.223  10.113   2.685 -0.3821  0.3740  0.5343
   26MOL0     C 3457   8.347  10.070   2.656  0.0529 -0.2124  0.2435
   26MOL0     O 3458   8.437  10.162   2.610  0.8347 -0.2649 -0.4903
   26MOL0     C 3459   8.572  10.139   2.628 -0.3035  0.0326 -0.1607
   26MOL0     C 3460   8.650  10.270   2.623 -0.1312  0.0510  0.1522
   26MOL0     C 3461   8.798  10.241   2.603 -0.3501  0.8412  0.0799
   26MOL0     C 3462   8.880  10.352   2.534  0.8881 -1.0429  0.3644
   26MOL0     C 3463   8.985  10.321   2.427  0.4102  0.7925 -0.8552
   26MOL0     C 3464   9.094  10.238   2.488  0.1784 -0.8561 -0.4097
   26MOL0     C 3465   9.175  10.176   2.377 -0.4752 -0.0703  0.1907
   26MOL0     C 3466   9.229  10.272   2.269 -0.1322  0.9997 -0.2784
   26MOL0     N 3467   9.308  10.203   2.167 -0.2962 -0.2027  0.1265
   26MOL0     C 3468   9.399  10.258   2.083  0.7823  0.1807 -0.2340
   26MOL0     C 3469   9.465  10.148   2.038 -0.3305  0.3178  0.1531
   26MOL0     C 3470   9.561  10.156   1.928 -0.1959  0.0186 -0.4828
   26MOL0     C 3471   9.694  10.089   1.961 -0.5749 -0.2468 -0.1893
   26MOL0     C 3472   9.766  10.141   2.092  1.2628  0.4574  0.7033
   26MOL0     C 3473   9.889  10.058   2.133  0.1441  0.2391 -0.1872
   26MOL0     O 3474   9.916  10.084   2.271  1.2178 -0.1130 -0.6148
   26MOL0     C 3475  10.005  10.005   2.344  0.8641 -0.1889  0.8911
   26MOL0     C 3476  10.009  10.010   2.482  0.9515  0.8605  0.4005
   26MOL0     C 3477  10.110   9.934   2.560 -0.1890  0.7605 -0.2908
   26MOL0     C 3478  10.083   9.918   2.709  0.2148 -0.8610  0.6703
   26MOL0     C 3479  10.213   9.864   2.493  0.7043 -0.1370  0.5780
   26MOL0     C 3480  10.310   9.776   2.556  0.2457 -0.0208  0.4008
   26MOL0     O 3481  10.385   9.824   2.661  0.1172  0.6666  0.1394
   26MOL0     C 3482  10.477   9.759   2.736 -0.2586  0.0836 -0.7558
   26MOL0     C 3483  10.597   9.825   2.773  0.3515 -0.6024 -0.0641
   26MOL0     C 3484  10.705   9.749   2.834  0.0797 -0.3812  0.5053
   26MOL0     C 3485  10.683   9.614   2.857 -0.2914 -0.9840 -0.5029
   26MOL0     O 3486  10.781   9.531   2.901  0.0232 -0.0950  1.1585
   26MOL0     C 3487  10.856   9.583   3.014 -0.6089  0.2999 -0.2888
   26MOL0     C 3488  10.953   9.473   3.057 -0.4047 -0.3639  0.1434
   26MOL0     C 3489  10.896   9.362   3.146 -0.2669 -0.9606 -0.0598
   26MOL0     C 3490  10.748   9.368   3.162 -0.1629  0.7944 -1.0479
   26MOL0     C 3491  10.695   9.245   3.233  0.5433  0.1259 -0.6218
   26MOL0     C 3492  10.547   9.254   3.259  0.0622  0.8190  0.7760
   26MOL0     C 3493  10.486   9.116   3.285 -0.7855  0.2326  0.9203
   26MOL0     C 3494  10.336   9.124   3.316 -0.1221  0.1172 -0.3776
   26MOL0    Cl 3495  10.307   9.220   3.468  0.8273 -0.0368  0.1758
   26MOL0     C 3496  10.570   9.550   2.818  0.6235 -0.4983 -0.5849
   26MOL0     C 3497  10.470   9.616   2.755  0.1448 -0.5486 -0.5150
   26MOL0     O 3498  10.332   9.666   2.503  0.0926  0.7748  0.1310
   26MOL0     C 3499  10.206   9.862   2.352 -0.1510  0.3765  0.3241
   26MOL0     C 3500  10.100   9.924   2.286 -0.7125 -0.1518  0.1205
   26MOL0     N 3501   9.437  10.030   2.106 -0.2122 -0.0422  0.4254
   26MOL0     N 3502   9.349  10.072   2.184  0.4890  0.2337  0.4033
   26MOL0     C 3503   8.380   9.933   2.651  0.1867  0.2690 -0.3581
   26MOL0     C 3504   8.284   9.837   2.673 -0.0167 -0.4491  0.5188
   26MOL0     C 3505   7.847   9.661   2.734 -0.0560  0.3119 -0.8621
   26MOL0     C 3506   7.892   9.544   2.669 -0.1453  0.1952  0.5385
   26MOL0     C 3507   7.807   9.435   2.644  1.0736 -0.2534 -0.2854
   26MOL0     C 3508   7.676   9.435   2.682  0.7450 -0.7451 -0.0864
   26MOL0     O 3509   7.597   9.329   2.665  1.1632 -0.2021  0.2709
   26MOL0     C 3510   7.560   9.252   2.783  0.4012 -0.5567  0.3985
   26MOL0     C 3511   7.514   9.122   2.745  0.0278  0.9730  0.1992
   26MOL0     C 3512   7.624   9.040   2.678  0.0003 -0.2732  0.6444
   26MOL0     C 3513   7.579   8.917   2.618  0.2392 -0.0787  0.6883
   26MOL0     C 3514   7.500   8.841   2.706 -0.1068 -0.1197  0.3496
   26MOL0     C 3515   7.433   8.773   2.784 -1.1738 -0.7632 -0.7047
   26MOL0     C 3516   7.627   9.552   2.752 -0.2376  0.3981 -0.9365
   26MOL0     C 3517   7.712   9.658   2.779 -0.2275 -0.3640 -0.0850
   26MOL0     C 3518   7.645   9.771   2.862 -0.1528  0.4462  0.3532
   26MOL0     H 3519   8.017  10.049   2.706 -0.3359 -1.4898 -1.6772
   26MOL0     H 3520   8.201  10.220   2.685 -0.3233  0.4020  1.8241
   26MOL0     H 3521   8.611  10.068   2.555 -2.4996 -2.7245  1.1180
   26MOL0     H 3522   8.586  10.079   2.719  1.7011  0.7001  0.0151
   26MOL0     H 3523   8.625  10.328   2.534  2.8487  1.8293  0.3618
   26MOL0     H 3524   8.630  10.331   2.711  1.3841  0.1091  0.4807
   26MOL0     H 3525   8.832  10.197   2.697 -0.1621 -0.5523 -0.6030
   26MOL0     H 3526   8.806  10.157   2.533  0.8495  1.1809 -0.2000
   26MOL0     H 3527   8.814  10.431   2.497  0.5957 -2.1256 -1.5039
   26MOL0     H 3528   8.936  10.399   2.616 -0.6583 -0.1108  0.9248
   26MOL0     H 3529   9.022  10.420   2.397  3.5700 -0.4216 -1.2708
   26MOL0     H 3530   8.934  10.274   2.343  0.6485 -0.6800 -0.1962
   26MOL0     H 3531   9.157  10.307   2.546 -1.2793  2.1521 -2.1496
   26MOL0     H 3532   9.052  10.168   2.560  0.0122  1.4902  1.9438
   26MOL0     H 3533   9.116  10.095   2.336 -0.3185 -1.4240  2.4502
   26MOL0     H 3534   9.257  10.118   2.420 -2.7557 -1.6778  2.6646
   26MOL0     H 3535   9.139  10.314   2.222 -2.4052 -2.1205  0.9149
   26MOL0     H 3536   9.296  10.350   2.306 -0.9525  1.9814 -0.7872
   26MOL0     H 3537   9.423  10.362   2.061  1.8956  0.0054  0.0718
   26MOL0     H 3538   9.574  10.257   1.888  0.6165 -0.7445 -2.2578
   26MOL0     H 3539   9.508  10.108   1.845 -0.0449  0.5553 -0.8965
   26MOL0     H 3540   9.686   9.981   1.968  0.2474 -0.2186  2.1171
   26MOL0     H 3541   9.757  10.104   1.873  0.7002  2.4557  1.0512
   26MOL0     H 3542   9.799  10.243   2.070 -2.7159  2.4883  3.0277
   26MOL0     H 3543   9.693  10.159   2.172 -0.5052 -1.0526 -0.4762
   26MOL0     H 3544   9.856   9.955   2.119  2.1465 -0.6741  1.3077
   26MOL0     H 3545   9.982  10.084   2.082  0.2623  0.8896  0.3515
   26MOL0     H 3546   9.933  10.065   2.536  1.0678  2.6425 -1.1318
   26MOL0     H 3547   9.977   9.937   2.724  0.4602  3.0077 -1.1968
   26MOL0     H 3548  10.131  10.005   2.755  0.5577  0.1253 -1.4364
   26MOL0     H 3549  10.117   9.820   2.745 -0.4443 -2.5839 -2.9092
   26MOL0     H 3550  10.600   9.933   2.760 -1.1852  0.0676  3.8353
   26MOL0     H 3551  10.799   9.802   2.846  0.4032 -0.5876 -0.9078
   26MOL0     H 3552  10.916   9.668   2.982 -1.4373  0.5912 -1.1336
   26MOL0     H 3553  10.798   9.608   3.104  0.4680  0.5784  0.3490
   26MOL0     H 3554  11.005   9.429   2.971 -2.0898 -0.8572 -0.6714
   26MOL0     H 3555  11.038   9.528   3.099 -0.8864  0.8175 -0.4088
   26MOL0     H 3556  10.945   9.358   3.244 -1.9127 -2.9676  0.7528
   26MOL0     H 3557  10.930   9.273   3.092  0.8101  0.9551 -2.7752
   26MOL0     H 3558  10.705   9.369   3.061 -0.7732  2.2280 -0.8037
   26MOL0     H 3559  10.716   9.460   3.212 -0.3800  0.2390 -0.1386
   26MOL0     H 3560  10.721   9.160   3.169  1.9204  1.2218 -1.6002
   26MOL0     H 3561  10.755   9.229   3.324  0.5943 -1.1973 -0.8645
   26MOL0     H 3562  10.493   9.310   3.182  0.4870  2.0435  1.3431
   26MOL0     H 3563  10.535   9.314   3.350 -2.8042 -0.7236  1.5362
   26MOL0     H 3564  10.539   9.072   3.370 -0.0919 -1.4636 -0.3302
   26MOL0     H 3565  10.502   9.056   3.195  1.2091 -1.0280  2.0557
   26MOL0     H 3566  10.302   9.023   3.339 -1.6284  0.8000  0.5306
   26MOL0     H 3567  10.277   9.168   3.235 -0.9484  1.7565  1.0388
   26MOL0     H 3568  10.556   9.451   2.860  0.9603  0.1474  1.1283
   26MOL0     H 3569  10.382   9.558   2.727 -1.7190  1.5209  0.6847
   26MOL0     H 3570  10.286   9.816   2.295 -0.3675 -1.3928  1.3663
   26MOL0     H 3571  10.106   9.931   2.178 -1.5582  0.0642  0.0852
   26MOL0     H 3572   8.472   9.896   2.608  0.0527  0.8083 -1.1388
   26MOL0     H 3573   8.307   9.731   2.667 -1.1291 -0.7300  0.9629
   26MOL0     H 3574   7.991   9.538   2.624  0.1700 -0.1125  1.2620
   26MOL0     H 3575   7.846   9.347   2.595 -0.2319 -1.3839  0.6275
   26MOL0     H 3576   7.649   9.246   2.846  0.2305 -0.0810  0.6876
   26MOL0     H 3577   7.490   9.298   2.853  2.1769  0.5311  1.5133
   26MOL0     H 3578   7.422   9.112   2.687  1.2001  0.3903 -1.6680
   26MOL0     H 3579   7.493   9.078   2.843 -0.9578  2.5463  0.7405
   26MOL0     H 3580   7.654   9.101   2.592 -3.4550  1.7587  0.6960
   26MOL0     H 3581   7.706   9.040   2.751 -0.8647  3.3788  1.8210
   26MOL0     H 3582   7.667   8.859   2.589 -1.1689 -0.9499 -2.1028
   26MOL0     H 3583   7.529   8.942   2.525  2.8370 -2.2123 -1.4499
   26MOL0     H 3584   7.368   8.724   2.854  0.7603  0.6998  2.3651
   26MOL0     H 3585   7.530   9.552   2.800 -0.7137  2.6543 -1.7555
   26MOL0     H 3586   7.589   9.834   2.792 -1.6117 -1.5960 -0.4010
   26MOL0     H 3587   7.569   9.720   2.921 -0.1199 -1.6372 -1.2855
   26MOL0     H 3588   7.719   9.822   2.925  0.8794 -0.6469  0.0537
   27MOL0     O 3589  10.629   5.374   9.836  0.5425  0.0177  0.4692
   27MOL0     C 3590  10.517   5.342   9.788 -0.6971 -0.4528 -0.6214
   27MOL0     O 3591  10.493   5.234   9.707 -0.2982  0.5599 -0.6903
   27MOL0     C 3592  10.591   5.141   9.694 -0.3124  0.6356 -0.4211
   27MOL0     C 3593  10.560   5.011   9.735  0.5756  0.8717 -0.3078
   27MOL0     C 3594  10.650   4.905   9.712 -0.0142  0.0853 -0.1977
   27MOL0     C 3595  10.774   4.930   9.656 -0.2684  0.1047 -0.5497
   27MOL0     O 3596  10.871   4.820   9.651  0.4869 -0.4718  0.4041
   27MOL0     C 3597  10.960   4.812   9.539 -1.1013 -0.4566  1.0542
   27MOL0     C 3598  11.106   4.814   9.584 -0.1259  0.6941 -0.4825
   27MOL0     C 3599  11.209   4.833   9.474  0.0778  0.1788  0.4993
   27MOL0     C 3600  11.354   4.836   9.529  0.4672  0.2491  0.4119
   27MOL0     C 3601  11.473   4.846   9.417  1.5333 -0.3905 -0.5592
   27MOL0     C 3602  11.498   4.991   9.407 -0.6764 -0.3041 -0.2667
   27MOL0     C 3603  11.567   5.018   9.265  0.0248 -0.4578 -0.3529
   27MOL0     C 3604  11.683   5.107   9.269 -0.0827  0.7691 -0.1288
   27MOL0     N 3605  11.709   5.170   9.137 -0.4361 -1.0406 -0.6020
   27MOL0     C 3606  11.763   5.117   9.032  0.1739 -0.0760  0.1210
   27MOL0     C 3607  11.753   5.207   8.928  0.6715 -0.3296 -0.5663
   27MOL0     C 3608  11.793   5.192   8.789  0.7664  0.3283  0.3339
   27MOL0     C 3609  11.921   5.261   8.747 -0.3520 -0.1986  0.3266
   27MOL0     C 3610  11.911   5.415   8.757 -0.2654 -0.7930  0.1349
   27MOL0     C 3611  12.022   5.478   8.674  0.0762 -0.2847  0.4403
   27MOL0     O 3612  12.148   5.423   8.702 -0.7588 -0.3052  0.4004
   27MOL0     C 3613  12.245   5.500   8.764 -0.1786 -0.3786 -0.0382
   27MOL0     C 3614  12.366   5.437   8.780  0.2196 -0.7577 -1.4104
   27MOL0     C 3615  12.473   5.492   8.843  0.0544 -0.8941  0.0514
   27MOL0     C 3616  12.591   5.398   8.853 -0.3254  0.7114  0.3575
   27MOL0     C 3617  12.464   5.626   8.884 -0.7150  0.0581  0.0762
   27MOL0     C 3618  12.590   5.690   8.942  0.0679  0.0138 -0.8088
   27MOL0     O 3619  12.570   5.771   9.051  0.0096  0.1236  0.2418
   27MOL0     C 3620  12.669   5.814   9.129 -0.6215  0.3150  0.5072
   27MOL0     C 3621  12.792   5.742   9.157  0.3079  0.6201  0.6281
   27MOL0     C 3622  12.886   5.809   9.222  0.3596 -0.3988  0.7886
   27MOL0     C 3623  12.875   5.945   9.267 -0.4506 -0.6945 -0.0577
   27MOL0     O 3624  12.975   6.006   9.343 -0.2489 -0.7069  0.9330
   27MOL0     C 3625  13.104   5.948   9.316 -0.6442 -0.6390 -0.4376
   27MOL0     C 3626  13.224   6.037   9.348 -0.3445  0.1831 -0.3929
   27MOL0     C 3627  13.200   6.126   9.474  0.5327 -0.0988  0.0296
   27MOL0     C 3628  13.323   6.131   9.560  0.3595  0.7515 -0.0657
   27MOL0     C 3629  13.315   6.012   9.665 -0.6534  0.3509 -0.2270
   27MOL0     C 3630  13.444   6.001   9.748 -0.0359  0.9662  1.4376
   27MOL0     C 3631  13.469   6.131   9.828 -0.2287  0.1235 -0.4768
   27MOL0     C 3632  13.607   6.117   9.882  0.6073  0.3362  0.2697
   27MOL0    Cl 3633  13.606   5.979  10.009 -0.0568  0.4343  0.0895
   27MOL0     C 3634  12.761   6.010   9.244  0.4679  0.2667  0.0952
   27MOL0     C 3635  12.655   5.944   9.176 -0.5566 -0.4327  0.2652
   27MOL0     O 3636  12.705   5.656   8.898 -0.0158  0.3169 -0.1551
   27MOL0     C 3637  12.348   5.697   8.866 -0.0600  0.0275  0.0702
   27MOL0     C 3638  12.239   5.629   8.807  0.2674  0.1557  0.4563
   27MOL0     N 3639  11.695   5.318   8.979  0.4345 -0.1498  0.0468
   27MOL0     N 3640  11.679   5.295   9.104  0.5017  0.1932 -0.8903
   27MOL0     C 3641  10.813   5.064   9.629  0.7808  0.5569  0.4215
   27MOL0     C 3642  10.717   5.167   9.641 -0.9106  0.4714  0.3657
   27MOL0     C 3643  10.401   5.427   9.828 -0.0500  0.3197  1.6470
   27MOL0     C 3644  10.422   5.552   9.886  0.5156 -0.6746  0.4046
   27MOL0     C 3645  10.315   5.647   9.914  0.0429  1.0839 -0.6814
   27MOL0     C 3646  10.192   5.611   9.855 -0.6062  0.0939 -0.5627
   27MOL0     O 3647  10.096   5.710   9.878 -0.0435  0.2511 -0.2478
   27MOL0     C 3648   9.951   5.673   9.855  0.0387 -1.2804  0.3348
   27MOL0     C 3649   9.909   5.576   9.964 -0.1887  0.4326 -0.2080
   27MOL0     C 3650   9.820   5.463   9.917 -0.0591  0.2070 -0.4434
   27MOL0     C 3651   9.728   5.419  10.030  0.1286 -0.1275 -0.8573
   27MOL0     C 3652   9.642   5.312   9.978  0.4691  0.1675  0.1486
   27MOL0     C 3653   9.575   5.229   9.918 -0.2580  0.8154 -0.0555
   27MOL0     C 3654  10.165   5.493   9.792 -0.5042  0.0251 -0.1633
   27MOL0     C 3655  10.272   5.395   9.784  0.7045  0.0887  0.2529
   27MOL0     C 3656  10.224   5.261   9.727  0.2164 -0.4264 -0.1716
   27MOL0     H 3657  10.467   4.988   9.787  1.4871 -2.7690 -0.0177
   27MOL0     H 3658  10.628   4.800   9.732 -1.6341  0.7519  1.7914
   27MOL0     H 3659  10.946   4.897   9.472 -2.5200 -2.1295 -0.9310
   27MOL0     H 3660  10.938   4.727   9.473  4.8163 -1.4653 -0.1675
   27MOL0     H 3661  11.118   4.890   9.662  0.9997  0.4886 -0.4356
   27MOL0     H 3662  11.134   4.722   9.637  1.8156  1.9391  0.7626
   27MOL0     H 3663  11.210   4.754   9.400 -0.8917 -1.9689  2.6454
   27MOL0     H 3664  11.184   4.929   9.426  1.6500 -0.1474 -1.0456
   27MOL0     H 3665  11.356   4.926   9.591  1.9008 -0.1410  0.9668
   27MOL0     H 3666  11.363   4.747   9.591  1.6430 -1.4959 -2.0786
   27MOL0     H 3667  11.446   4.809   9.318 -2.4311  1.2182 -0.2488
   27MOL0     H 3668  11.571   4.811   9.452  1.4945  0.2285  0.2104
   27MOL0     H 3669  11.410   5.056   9.417  0.1649  0.6635  1.3822
   27MOL0     H 3670  11.562   5.009   9.494  0.4148 -0.3257 -1.0437
   27MOL0     H 3671  11.495   5.067   9.198 -0.2261  0.0478  0.2802
   27MOL0     H 3672  11.612   4.927   9.225  1.3915 -1.0912  2.4143
   27MOL0     H 3673  11.663   5.190   9.338 -1.0170  0.9196 -0.5630
   27MOL0     H 3674  11.771   5.053   9.304  0.0460  0.4212 -0.9687
   27MOL0     H 3675  11.815   5.024   9.013 -0.6079 -0.2362 -1.3725
   27MOL0     H 3676  11.714   5.240   8.731 -0.1365 -2.1973 -0.6798
   27MOL0     H 3677  11.816   5.088   8.764 -0.6822  0.4956 -2.0326
   27MOL0     H 3678  12.009   5.228   8.804  1.5428  1.0206 -1.7123
   27MOL0     H 3679  11.952   5.228   8.647 -0.3092  0.8805 -0.0289
   27MOL0     H 3680  11.812   5.452   8.730  0.5362  0.3717 -1.3435
   27MOL0     H 3681  11.921   5.457   8.858  2.7408 -1.8307  0.3636
   27MOL0     H 3682  11.998   5.467   8.568 -1.2950  2.3431  0.3756
   27MOL0     H 3683  12.014   5.587   8.685 -3.0229 -0.4663  1.0640
   27MOL0     H 3684  12.378   5.340   8.734  2.6483 -0.1308 -2.2841
   27MOL0     H 3685  12.669   5.427   8.782  2.3992 -2.4291  1.8384
   27MOL0     H 3686  12.570   5.293   8.834  1.1163  0.5991 -0.7894
   27MOL0     H 3687  12.633   5.406   8.954 -0.3856  0.1661  0.4286
   27MOL0     H 3688  12.812   5.643   9.119 -1.2660  0.8623 -0.9460
   27MOL0     H 3689  12.980   5.759   9.244  0.6308 -1.8175 -2.9668
   27MOL0     H 3690  13.118   5.864   9.384 -0.2059 -0.7921 -0.7092
   27MOL0     H 3691  13.119   5.920   9.211 -1.1151 -1.1362 -0.3746
   27MOL0     H 3692  13.316   5.978   9.346 -1.4918 -1.7111 -2.6360
   27MOL0     H 3693  13.242   6.096   9.258  1.6790 -3.2419 -2.4471
   27MOL0     H 3694  13.111   6.106   9.534 -0.7430 -2.0366 -2.2900
   27MOL0     H 3695  13.170   6.221   9.429  0.9672 -1.0925 -2.5730
   27MOL0     H 3696  13.327   6.224   9.619 -0.2510  0.5120  0.3634
   27MOL0     H 3697  13.414   6.129   9.501 -0.4446  0.4723 -1.3439
   27MOL0     H 3698  13.232   6.036   9.732 -1.6440  2.9156 -2.2151
   27MOL0     H 3699  13.294   5.919   9.610 -1.6295  0.5988 -0.3078
   27MOL0     H 3700  13.526   5.983   9.678 -2.4189  2.2165 -1.9786
   27MOL0     H 3701  13.431   5.917   9.817 -0.3933 -0.0584  0.1566
   27MOL0     H 3702  13.389   6.154   9.898 -0.9626 -1.1415 -0.8702
   27MOL0     H 3703  13.478   6.220   9.765 -0.7634  2.2999  2.3408
   27MOL0     H 3704  13.640   6.207   9.935  2.2685  0.7518 -1.3972
   27MOL0     H 3705  13.682   6.096   9.806 -0.2187 -3.2875  0.2629
   27MOL0     H 3706  12.737   6.109   9.283  1.6442 -0.0037  1.5988
   27MOL0     H 3707  12.560   5.982   9.140  0.4596 -0.5279 -2.8064
   27MOL0     H 3708  12.339   5.800   8.898  1.6270  0.1454  0.2400
   27MOL0     H 3709  12.146   5.686   8.807 -1.0827 -1.9216  1.2987
   27MOL0     H 3710  10.911   5.071   9.583 -0.5090 -2.9261 -3.3184
   27MOL0     H 3711  10.740   5.269   9.612 -1.3197  0.0454 -1.6065
   27MOL0     H 3712  10.521   5.586   9.912 -0.0702  0.4726  1.1988
   27MOL0     H 3713  10.325   5.746   9.956 -1.9609  1.0064  0.1228
   27MOL0     H 3714   9.894   5.764   9.874  0.8726 -0.5581 -0.4820
   27MOL0     H 3715   9.928   5.632   9.756  1.0900 -1.0281 -0.0249
   27MOL0     H 3716   9.861   5.625  10.049 -0.1302 -0.0504  0.1105
   27MOL0     H 3717   9.998   5.528  10.006 -0.9997 -0.5448  0.4561
   27MOL0     H 3718   9.763   5.498   9.830  1.0342  1.6396 -0.6287
   27MOL0     H 3719   9.872   5.377   9.874  0.3327 -0.1521  0.7182
   27MOL0     H 3720   9.657   5.491  10.072 -1.3226 -0.6919 -2.2242
   27MOL0     H 3721   9.787   5.370  10.108 -0.9536 -0.9443 -0.5202
   27MOL0     H 3722   9.514   5.150   9.880 -1.0371  1.6478 -0.5697
   27MOL0     H 3723  10.070   5.466   9.748 -0.9866 -0.1217  0.9469
   27MOL0     H 3724  10.259   5.258   9.623  1.7711 -0.3074  0.3144
   27MOL0     H 3725  10.271   5.182   9.787  0.3507 -1.4817 -1.6140
   27MOL0     H 3726  10.115   5.259   9.735  0.3835 -1.6924  3.7212
   28MOL0     O 3727   6.475   8.997   0.313  0.1869 -0.1228 -0.7461
   28MOL0     C 3728   6.375   8.922   0.312 -0.3668  0.3707  0.2561
   28MOL0     O 3729   6.341   8.829   0.416  0.4234  0.1229 -0.1627
   28MOL0     C 3730   6.426   8.796   0.515  0.0796  0.1143  0.0226
   28MOL0     C 3731   6.538   8.734   0.475 -0.1377  0.5299  0.4190
   28MOL0     C 3732   6.615   8.691   0.581 -0.2015  1.0538 -0.9741
   28MOL0     C 3733   6.589   8.697   0.718  0.1166 -0.1172 -0.1159
   28MOL0     O 3734   6.680   8.635   0.799 -0.3913 -0.2906  0.3092
   28MOL0     C 3735   6.641   8.624   0.938  0.1304 -0.1822 -0.6047
   28MOL0     C 3736   6.723   8.503   0.987 -0.8284 -0.7904 -0.4933
   28MOL0     C 3737   6.682   8.441   1.131  0.2266  0.0561 -0.1854
   28MOL0     C 3738   6.790   8.362   1.189  0.7898  0.1090  0.3553
   28MOL0     C 3739   6.752   8.319   1.332  0.4044 -0.0756  0.5086
   28MOL0     C 3740   6.804   8.182   1.384 -0.5733 -0.1497 -0.0693
   28MOL0     C 3741   6.947   8.156   1.341  0.4606 -0.1823  0.5627
   28MOL0     C 3742   7.014   8.074   1.451  0.1295 -0.1744  0.6735
   28MOL0     N 3743   7.150   8.021   1.404  0.3663 -0.6195 -0.7451
   28MOL0     C 3744   7.174   7.960   1.282 -0.2052 -0.9913 -0.4033
   28MOL0     C 3745   7.306   7.948   1.272  0.8204 -0.3372  0.6519
   28MOL0     C 3746   7.373   7.878   1.155 -0.1836  0.9414  0.5220
   28MOL0     C 3747   7.306   7.902   1.022 -0.2960 -0.0109 -0.4572
   28MOL0     C 3748   7.312   8.051   0.982 -0.6306  0.7485 -0.1201
   28MOL0     C 3749   7.257   8.068   0.847 -0.4425 -0.0094 -0.4897
   28MOL0     O 3750   7.111   8.081   0.856 -0.0383 -0.1627 -0.7608
   28MOL0     C 3751   7.036   8.109   0.741 -0.2760  0.5954 -0.0276
   28MOL0     C 3752   6.912   8.157   0.756  0.5822 -0.5002  0.0851
   28MOL0     C 3753   6.835   8.204   0.654  0.1273  0.3063 -0.0478
   28MOL0     C 3754   6.687   8.245   0.670 -0.4936 -0.2267 -0.5782
   28MOL0     C 3755   6.887   8.190   0.525 -0.5642  0.0670  0.6059
   28MOL0     C 3756   6.817   8.223   0.403 -1.2811 -0.8725  0.1679
   28MOL0     O 3757   6.891   8.310   0.324  0.1737  0.8951 -0.4655
   28MOL0     C 3758   6.839   8.393   0.231  0.8056  0.0920  0.0665
   28MOL0     C 3759   6.897   8.381   0.105  0.7131  0.5571 -0.2168
   28MOL0     C 3760   6.857   8.457  -0.001  0.1072 -0.5891 -0.4776
   28MOL0     C 3761   6.770   8.560   0.020  1.0146  0.4536  0.2780
   28MOL0     O 3762   6.726   8.636  -0.091 -0.5198 -0.0435 -0.4783
   28MOL0     C 3763   6.589   8.656  -0.129 -0.0569 -0.2565  0.1757
   28MOL0     C 3764   6.558   8.790  -0.203  0.6281 -0.3641 -0.1982
   28MOL0     C 3765   6.628   8.812  -0.330 -0.0458 -0.5250  0.9096
   28MOL0     C 3766   6.588   8.943  -0.396  0.0731 -0.1891  0.5383
   28MOL0     C 3767   6.681   8.965  -0.522 -0.8284  0.2251 -0.0705
   28MOL0     C 3768   6.659   9.099  -0.588 -0.5606  0.4426  0.2409
   28MOL0     C 3769   6.516   9.107  -0.642  0.7022  0.2398 -0.2561
   28MOL0     C 3770   6.506   9.248  -0.701 -0.0310  0.5464  0.1114
   28MOL0    Cl 3771   6.351   9.261  -0.781 -0.2323  0.2864  0.3600
   28MOL0     C 3772   6.705   8.575   0.147 -1.0253 -0.2476  0.4337
   28MOL0     C 3773   6.744   8.495   0.260  0.0092 -0.1471  0.1087
   28MOL0     O 3774   6.709   8.178   0.389 -0.3441  0.4933  0.3680
   28MOL0     C 3775   7.015   8.135   0.506  0.8549 -0.1033 -0.4210
   28MOL0     C 3776   7.091   8.098   0.617 -0.3514 -0.4250  0.2792
   28MOL0     N 3777   7.362   8.007   1.384  0.7316 -0.3519  1.8307
   28MOL0     N 3778   7.266   8.041   1.469 -0.2633 -0.8968  0.7071
   28MOL0     C 3779   6.463   8.757   0.758  0.3776  0.9381 -0.5781
   28MOL0     C 3780   6.388   8.809   0.649  0.8813  0.0157 -0.5818
   28MOL0     C 3781   6.294   8.918   0.182 -1.0325  0.3225 -0.0344
   28MOL0     C 3782   6.201   8.814   0.170 -0.0094  0.4258  0.9404
   28MOL0     C 3783   6.136   8.803   0.041 -1.0207  0.0356 -0.5238
   28MOL0     C 3784   6.145   8.906  -0.060 -0.7908 -0.3897  0.8321
   28MOL0     O 3785   6.081   8.877  -0.177 -0.2018 -0.2364  0.3697
   28MOL0     C 3786   6.078   8.980  -0.275 -0.0778  0.1905 -0.1478
   28MOL0     C 3787   5.972   8.958  -0.389  0.0850 -0.3055 -1.0754
   28MOL0     C 3788   5.971   8.818  -0.445  0.3444  0.0708  0.2659
   28MOL0     C 3789   5.888   8.814  -0.579  0.0309 -0.2441 -0.1679
   28MOL0     C 3790   5.889   8.676  -0.637  0.0290 -0.1805  0.3640
   28MOL0     C 3791   5.897   8.566  -0.685 -0.3783 -0.8454  0.4487
   28MOL0     C 3792   6.215   9.022  -0.030 -0.2157  0.0263 -0.3949
   28MOL0     C 3793   6.296   9.025   0.086 -0.9277 -0.7434  0.0111
   28MOL0     C 3794   6.380   9.155   0.102  0.0344 -0.7889 -0.6734
   28MOL0     H 3795   6.579   8.729   0.374  2.5440  3.2885  1.1966
   28MOL0     H 3796   6.712   8.643   0.571 -0.7385 -0.4354  0.4997
   28MOL0     H 3797   6.537   8.595   0.956 -0.4068  2.9793  2.3906
   28MOL0     H 3798   6.650   8.721   0.986  2.2792 -1.1907  1.2219
   28MOL0     H 3799   6.734   8.426   0.911 -0.1762 -2.4573  1.2113
   28MOL0     H 3800   6.819   8.550   1.012  0.9854 -4.8707  0.9864
   28MOL0     H 3801   6.652   8.520   1.201 -1.0411  0.8647 -1.5761
   28MOL0     H 3802   6.591   8.382   1.113  0.7775 -0.5624 -0.9744
   28MOL0     H 3803   6.811   8.271   1.132  0.9884 -0.1586  0.8490
   28MOL0     H 3804   6.879   8.424   1.199 -0.3660  1.6905  1.2594
   28MOL0     H 3805   6.643   8.321   1.349  0.5848 -0.3538  1.8406
   28MOL0     H 3806   6.781   8.402   1.397  2.1620  1.6356 -2.2520
   28MOL0     H 3807   6.799   8.176   1.493 -0.4151  2.1045  0.1085
   28MOL0     H 3808   6.737   8.106   1.342 -0.1698  0.2918 -1.5765
   28MOL0     H 3809   7.002   8.250   1.326 -0.4474  1.0889  4.1223
   28MOL0     H 3810   6.941   8.094   1.251 -0.6201 -1.6654  1.6228
   28MOL0     H 3811   7.030   8.137   1.539 -1.3325  0.4635  0.5222
   28MOL0     H 3812   6.961   7.985   1.486 -1.8236  1.3605  1.8288
   28MOL0     H 3813   7.092   7.917   1.224 -0.5496  0.0335 -0.6987
   28MOL0     H 3814   7.369   7.772   1.184  0.2487  0.3027 -1.5806
   28MOL0     H 3815   7.477   7.909   1.144  1.0752 -2.7952  0.5908
   28MOL0     H 3816   7.357   7.843   0.945 -1.3870  0.7722 -1.8468
   28MOL0     H 3817   7.200   7.877   1.013 -0.0307 -0.7962 -1.7010
   28MOL0     H 3818   7.246   8.107   1.049 -0.1606 -0.7369  1.6515
   28MOL0     H 3819   7.410   8.100   0.987 -2.3100  4.5853 -0.7229
   28MOL0     H 3820   7.291   8.166   0.811 -0.7688 -0.3629 -1.8279
   28MOL0     H 3821   7.289   7.990   0.777 -0.7373  0.2220 -0.8907
   28MOL0     H 3822   6.868   8.166   0.855  0.6813 -2.1107  0.3003
   28MOL0     H 3823   6.674   8.349   0.637 -2.4128  0.3374  1.6435
   28MOL0     H 3824   6.649   8.264   0.771  0.9245  0.7306 -0.1841
   28MOL0     H 3825   6.625   8.169   0.623  0.2751 -0.8548 -0.5916
   28MOL0     H 3826   6.963   8.298   0.080  0.8414  0.2885  0.9103
   28MOL0     H 3827   6.883   8.440  -0.105 -2.6435 -1.9158 -1.0452
   28MOL0     H 3828   6.558   8.577  -0.198 -0.6412 -0.5447  0.7593
   28MOL0     H 3829   6.524   8.654  -0.041 -1.3790  1.6107 -0.6944
   28MOL0     H 3830   6.451   8.794  -0.229  0.4950  0.2004  0.4068
   28MOL0     H 3831   6.575   8.869  -0.130 -0.8221 -0.4571  0.2723
   28MOL0     H 3832   6.600   8.733  -0.401 -1.5996 -0.3471  1.2966
   28MOL0     H 3833   6.734   8.810  -0.304 -0.0885 -2.5427  1.0870
   28MOL0     H 3834   6.597   9.034  -0.336 -0.0933  0.4331 -0.3657
   28MOL0     H 3835   6.484   8.944  -0.431  0.8495  1.9384 -1.9773
   28MOL0     H 3836   6.787   8.947  -0.504 -0.5473  0.0927 -1.7218
   28MOL0     H 3837   6.668   8.884  -0.594 -1.6226  1.7084 -1.6559
   28MOL0     H 3838   6.726   9.111  -0.674  0.1136  0.2920  0.7367
   28MOL0     H 3839   6.691   9.180  -0.522  2.3557 -1.4322  1.3246
   28MOL0     H 3840   6.434   9.101  -0.571  1.7191  1.0064  1.0231
   28MOL0     H 3841   6.482   9.035  -0.717 -4.8024 -0.8064  2.7469
   28MOL0     H 3842   6.587   9.258  -0.775 -0.3321  0.4015 -0.2418
   28MOL0     H 3843   6.523   9.326  -0.626  0.3750  0.3317  0.2454
   28MOL0     H 3844   6.644   8.664   0.160  2.6116  2.9071 -1.9222
   28MOL0     H 3845   6.696   8.505   0.357 -2.5525  0.5790 -1.1442
   28MOL0     H 3846   7.070   8.124   0.413  0.7054  0.6253 -0.6027
   28MOL0     H 3847   7.188   8.053   0.598  0.6123  2.0050 -0.9570
   28MOL0     H 3848   6.441   8.768   0.864  1.0609 -1.9067 -0.0794
   28MOL0     H 3849   6.298   8.865   0.669 -0.7447 -2.5277 -0.3384
   28MOL0     H 3850   6.189   8.734   0.242  0.9816 -0.3797  0.2277
   28MOL0     H 3851   6.071   8.718   0.026  0.1838 -1.7349  3.0415
   28MOL0     H 3852   6.049   9.073  -0.225 -0.2340 -0.4802  1.0318
   28MOL0     H 3853   6.175   8.993  -0.325  0.1601 -2.0920 -0.3584
   28MOL0     H 3854   5.976   9.040  -0.462 -1.6476  3.0110  2.1938
   28MOL0     H 3855   5.879   8.975  -0.334  2.8015 -0.2922  4.1794
   28MOL0     H 3856   6.073   8.783  -0.465 -0.7094 -2.8268 -0.4612
   28MOL0     H 3857   5.939   8.746  -0.369  1.0296  1.5163  2.0035
   28MOL0     H 3858   5.937   8.882  -0.649 -1.2178  0.4502 -0.3861
   28MOL0     H 3859   5.789   8.852  -0.557  1.1692  1.3828  2.6264
   28MOL0     H 3860   5.902   8.479  -0.746 -0.4642 -0.1663 -0.5537
   28MOL0     H 3861   6.212   9.113  -0.088  0.1262  0.2211 -0.1134
   28MOL0     H 3862   6.480   9.122   0.073  0.6389 -0.8469  1.3015
   28MOL0     H 3863   6.358   9.226   0.022  0.6467 -1.1620 -1.1820
   28MOL0     H 3864   6.368   9.213   0.194  3.1304  0.3188 -0.8412
   29MOL0     O 3865   2.825   2.339   3.032  0.9126  0.8151  0.0162
   29MOL0     C 3866   2.744   2.247   3.029 -0.0086  0.4267 -0.1066
   29MOL0     O 3867   2.781   2.111   3.018 -0.3651  0.4752 -0.3576
   29MOL0     C 3868   2.915   2.084   3.009 -0.0267 -0.4493  0.7487
   29MOL0     C 3869   2.990   2.055   3.119 -0.3278  0.2138 -0.4316
   29MOL0     C 3870   3.119   2.006   3.113 -0.5188  1.0093  0.5809
   29MOL0     C 3871   3.170   1.980   2.980 -0.3234  0.4433 -0.0810
   29MOL0     O 3872   3.296   1.920   2.946  0.2688  0.2523 -0.3263
   29MOL0     C 3873   3.372   1.849   3.046  0.6145  0.5311 -0.0959
   29MOL0     C 3874   3.502   1.804   2.986 -0.5326  0.9129 -0.0705
   29MOL0     C 3875   3.584   1.713   3.082  0.5285 -0.4695 -1.0164
   29MOL0     C 3876   3.729   1.705   3.027  0.4401 -0.5942  0.0477
   29MOL0     C 3877   3.814   1.606   3.117  0.7445 -0.0747 -0.1345
   29MOL0     C 3878   3.953   1.558   3.062  0.2545 -0.3973  0.2024
   29MOL0     C 3879   4.015   1.455   3.148  0.4532  0.4459  0.3348
   29MOL0     C 3880   3.938   1.328   3.125 -0.9369  0.7019  0.5553
   29MOL0     N 3881   4.018   1.210   3.152 -0.2704  0.3442  0.8155
   29MOL0     C 3882   4.086   1.173   3.267 -0.2917  1.0628 -0.2125
   29MOL0     C 3883   4.148   1.050   3.245 -0.5814 -0.7199 -0.4579
   29MOL0     C 3884   4.243   0.979   3.337  0.3058 -0.6446  0.6281
   29MOL0     C 3885   4.176   0.912   3.455  1.3581  0.6703 -0.5599
   29MOL0     C 3886   4.112   0.780   3.428 -1.0234  0.3871  0.7835
   29MOL0     C 3887   4.203   0.678   3.356 -0.4939  0.0818 -1.1921
   29MOL0     O 3888   4.337   0.675   3.401  0.4066 -0.6933  0.1549
   29MOL0     C 3889   4.430   0.597   3.337 -0.2392 -0.2801 -0.6443
   29MOL0     C 3890   4.400   0.509   3.234  0.0940  0.2414  0.8100
   29MOL0     C 3891   4.503   0.443   3.166  0.5443  0.2191 -0.6677
   29MOL0     C 3892   4.458   0.352   3.055  0.3170  0.2492 -0.6896
   29MOL0     C 3893   4.638   0.476   3.194  0.6940  0.5017  0.0619
   29MOL0     C 3894   4.756   0.422   3.120  0.4652  1.0661 -0.0363
   29MOL0     O 3895   4.873   0.415   3.188 -0.4645 -0.1544  0.2267
   29MOL0     C 3896   4.988   0.389   3.124  0.0943 -0.1276  0.0898
   29MOL0     C 3897   5.078   0.283   3.152  0.5888 -0.9257  0.8329
   29MOL0     C 3898   5.201   0.276   3.088 -0.7470 -0.0427  0.1648
   29MOL0     C 3899   5.233   0.350   2.974 -0.7707 -0.0137  0.6484
   29MOL0     O 3900   5.354   0.316   2.917  0.2416 -0.0276  0.5859
   29MOL0     C 3901   5.394   0.381   2.795  0.6515  0.7886  0.1613
   29MOL0     C 3902   5.547   0.353   2.763 -0.4331  0.1100  0.7793
   29MOL0     C 3903   5.643   0.372   2.881  0.2506 -0.3991 -0.0544
   29MOL0     C 3904   5.795   0.383   2.834  0.1752 -0.2942 -0.0360
   29MOL0     C 3905   5.883   0.270   2.885 -1.2177  0.0614 -0.1148
   29MOL0     C 3906   6.027   0.276   2.829  0.2161  0.5393  0.0072
   29MOL0     C 3907   6.109   0.147   2.868 -0.7447  0.2289  0.1152
   29MOL0     C 3908   6.090   0.031   2.774  0.2031 -0.0995  0.6091
   29MOL0    Cl 3909   6.215  -0.089   2.794 -0.1603  0.0996  0.3545
   29MOL0     C 3910   5.137   0.442   2.932  0.4778  0.1645 -0.6458
   29MOL0     C 3911   5.027   0.472   3.012  0.3434 -0.4600  0.2931
   29MOL0     O 3912   4.745   0.393   2.998 -0.1770 -0.6534 -0.2675
   29MOL0     C 3913   4.664   0.570   3.300  0.4524  0.3253 -0.1019
   29MOL0     C 3914   4.565   0.626   3.374 -0.0150 -0.0474  0.0403
   29MOL0     N 3915   4.124   1.024   3.114 -0.6853 -0.1600  1.3059
   29MOL0     N 3916   4.056   1.120   3.057 -0.6063  1.0867 -0.0129
   29MOL0     C 3917   3.102   2.018   2.867 -0.7821  0.3179 -0.3003
   29MOL0     C 3918   2.981   2.077   2.883  0.9519 -0.8955  0.9388
   29MOL0     C 3919   2.600   2.278   3.020  0.1197  0.4733  0.7621
   29MOL0     C 3920   2.520   2.206   2.924 -0.3003  0.2022  0.0896
   29MOL0     C 3921   2.382   2.236   2.913  0.2948  0.1754 -0.4501
   29MOL0     C 3922   2.315   2.321   3.000 -0.5956  0.0592  0.3733
   29MOL0     O 3923   2.181   2.349   3.000 -0.2659  0.6873  0.0822
   29MOL0     C 3924   2.088   2.286   2.911 -0.4159 -0.2569  0.7095
   29MOL0     C 3925   1.960   2.352   2.928  0.4050  0.1473  0.1249
   29MOL0     C 3926   1.905   2.349   3.071  0.1183  0.4677  0.1748
   29MOL0     C 3927   1.756   2.400   3.076  0.8744 -0.2517  0.2361
   29MOL0     C 3928   1.680   2.365   3.203 -0.4383 -0.0266 -0.2192
   29MOL0     C 3929   1.602   2.348   3.294 -0.7013 -1.0169  0.2593
   29MOL0     C 3930   2.399   2.387   3.085  0.2267 -1.2396 -0.3674
   29MOL0     C 3931   2.535   2.375   3.091 -0.5120 -0.3833 -0.6166
   29MOL0     C 3932   2.607   2.452   3.197  0.7643  0.7467  0.4025
   29MOL0     H 3933   2.939   2.070   3.214  0.1843 -1.0579  0.0758
   29MOL0     H 3934   3.176   1.977   3.201  2.0389  0.7086 -1.0593
   29MOL0     H 3935   3.314   1.763   3.081 -2.4853  1.3642 -2.6033
   29MOL0     H 3936   3.396   1.911   3.132  1.3037  2.2255 -1.4408
   29MOL0     H 3937   3.477   1.754   2.891 -2.3139  0.5884  0.5391
   29MOL0     H 3938   3.563   1.888   2.952  0.8037 -0.5599 -1.5689
   29MOL0     H 3939   3.591   1.753   3.184  1.2896 -0.3282 -1.1136
   29MOL0     H 3940   3.558   1.607   3.084 -0.4491 -0.2310  0.4421
   29MOL0     H 3941   3.731   1.668   2.924  0.0383 -1.0880  0.2136
   29MOL0     H 3942   3.776   1.804   3.031 -0.2027 -0.2956  0.3408
   29MOL0     H 3943   3.753   1.522   3.152  0.5480  1.4146  3.5325
   29MOL0     H 3944   3.835   1.667   3.206 -1.1124  2.5416 -1.3607
   29MOL0     H 3945   3.949   1.524   2.958 -1.0714 -3.2699  1.1062
   29MOL0     H 3946   4.017   1.647   3.068 -2.0492  1.3750  0.0235
   29MOL0     H 3947   4.013   1.486   3.253  4.5990  3.1169 -0.1409
   29MOL0     H 3948   4.119   1.445   3.116  0.2854 -0.3731  0.0354
   29MOL0     H 3949   3.847   1.320   3.185 -1.3306 -1.4984 -0.2359
   29MOL0     H 3950   3.904   1.315   3.022 -1.7539 -0.6654  0.9737
   29MOL0     H 3951   4.075   1.225   3.362 -0.3635  3.7453 -1.5831
   29MOL0     H 3952   4.311   1.056   3.374  0.1876 -0.9472  1.4944
   29MOL0     H 3953   4.296   0.907   3.273 -1.5450 -0.1583 -1.5900
   29MOL0     H 3954   4.253   0.901   3.532  1.0199  2.1636  0.0285
   29MOL0     H 3955   4.103   0.976   3.505 -0.5297 -2.6445  1.2635
   29MOL0     H 3956   4.080   0.741   3.525  1.0786 -1.0216  0.9854
   29MOL0     H 3957   4.019   0.794   3.372 -1.0273 -3.2647 -0.3533
   29MOL0     H 3958   4.146   0.587   3.377 -1.2204  0.2284 -2.5014
   29MOL0     H 3959   4.204   0.692   3.248  1.6156  1.6211 -1.0540
   29MOL0     H 3960   4.299   0.475   3.213 -0.2262  0.9294  1.2013
   29MOL0     H 3961   4.469   0.415   2.966  1.7777  1.4067  0.2571
   29MOL0     H 3962   4.359   0.305   3.062  0.8909 -1.0293 -1.0016
   29MOL0     H 3963   4.520   0.264   3.039  3.0212  1.5420  1.7374
   29MOL0     H 3964   5.055   0.225   3.241  0.3504 -1.7947  0.2140
   29MOL0     H 3965   5.278   0.210   3.124  0.9283  1.3796 -0.6463
   29MOL0     H 3966   5.327   0.343   2.717  2.3625 -2.2093 -0.0180
   29MOL0     H 3967   5.382   0.489   2.797 -2.9103  0.5043  0.2336
   29MOL0     H 3968   5.556   0.251   2.725  1.6745  0.7275 -0.5410
   29MOL0     H 3969   5.572   0.430   2.690 -1.4156 -0.5200 -0.2629
   29MOL0     H 3970   5.622   0.282   2.940 -1.5453 -1.3298 -2.0050
   29MOL0     H 3971   5.617   0.457   2.945 -2.3562 -1.7702  0.8269
   29MOL0     H 3972   5.831   0.482   2.861  0.4194 -0.8094  1.6365
   29MOL0     H 3973   5.812   0.377   2.726 -0.6191  0.8999 -0.2490
   29MOL0     H 3974   5.889   0.282   2.994  1.8803 -0.6346 -0.1164
   29MOL0     H 3975   5.832   0.177   2.861 -2.9746  0.9848 -0.1191
   29MOL0     H 3976   6.078   0.362   2.872  1.5856 -0.2204 -0.0410
   29MOL0     H 3977   6.021   0.278   2.720  1.4510 -0.3604 -0.0937
   29MOL0     H 3978   6.083   0.115   2.970  0.2115  0.0120  0.3103
   29MOL0     H 3979   6.213   0.179   2.884 -0.7425  0.5855 -0.6133
   29MOL0     H 3980   6.090   0.072   2.673 -0.2891 -1.2856  0.1080
   29MOL0     H 3981   5.990  -0.009   2.792  0.3468 -0.2495  1.0873
   29MOL0     H 3982   5.155   0.499   2.841  0.7325 -0.2678 -0.8711
   29MOL0     H 3983   4.950   0.540   2.977 -0.6381 -1.9082 -0.4456
   29MOL0     H 3984   4.768   0.591   3.324  0.3158 -0.5732  1.4594
   29MOL0     H 3985   4.596   0.699   3.448  1.1705  0.7201 -1.1780
   29MOL0     H 3986   3.145   2.010   2.767 -1.5099 -1.1893 -0.5123
   29MOL0     H 3987   2.919   2.107   2.799 -2.7927 -1.1880  3.3865
   29MOL0     H 3988   2.559   2.128   2.859 -0.2500 -0.1253  0.5105
   29MOL0     H 3989   2.342   2.176   2.832 -1.1682  1.7371 -0.9572
   29MOL0     H 3990   2.132   2.296   2.811 -1.7935  1.7738  0.2283
   29MOL0     H 3991   2.077   2.178   2.925  3.3611 -1.0835 -1.2848
   29MOL0     H 3992   1.885   2.296   2.872  2.5217 -3.2343  0.4453
   29MOL0     H 3993   1.974   2.451   2.883 -1.8684 -0.1486 -1.4075
   29MOL0     H 3994   1.908   2.250   3.118  0.7347  1.6854  2.8644
   29MOL0     H 3995   1.975   2.394   3.141 -0.1990 -1.6500  1.9701
   29MOL0     H 3996   1.699   2.358   2.993  2.9471 -1.1153 -0.8354
   29MOL0     H 3997   1.763   2.507   3.053  0.3696 -0.1519  0.5451
   29MOL0     H 3998   1.536   2.331   3.377 -3.2390  5.5638  0.2041
   29MOL0     H 3999   2.354   2.459   3.152 -0.0181 -2.3889  0.7338
   29MOL0     H 4000   2.668   2.532   3.153  1.1530  1.3931  2.0174
   29MOL0     H 4001   2.536   2.481   3.276 -1.2696 -2.0636 -0.2483
   29MOL0     H 4002   2.676   2.387   3.252  0.3784  0.0005  0.0048
   30MOL0     O 4003   6.158  10.679   0.689  0.5266 -0.0436 -1.0169
   30MOL0     C 4004   6.032  10.676   0.687 -0.9246  0.1740  0.5653
   30MOL0     O 4005   5.946  10.775   0.660 -0.0735  0.2971  0.4510
   30MOL0     C 4006   6.006  10.899   0.664  0.0403 -0.4263  0.5987
   30MOL0     C 4007   6.016  10.980   0.546 -0.4001 -0.4898 -1.0004
   30MOL0     C 4008   6.087  11.103   0.548  0.2067  0.2379 -0.2560
   30MOL0     C 4009   6.147  11.144   0.662  0.4613 -0.1353  0.9059
   30MOL0     O 4010   6.235  11.247   0.669 -0.1411  0.0626  0.7997
   30MOL0     C 4011   6.333  11.271   0.566 -0.5575  0.0912  0.4062
   30MOL0     C 4012   6.376  11.421   0.560  0.9371  0.2774  0.0250
   30MOL0     C 4013   6.465  11.442   0.441 -0.0802  0.3518 -0.4076
   30MOL0     C 4014   6.608  11.413   0.457 -0.7988  0.1979 -0.2972
   30MOL0     C 4015   6.703  11.473   0.354  0.3008  0.1221  0.3517
   30MOL0     C 4016   6.837  11.404   0.343  0.3695  1.1734  0.2040
   30MOL0     C 4017   6.938  11.487   0.257 -0.3175 -0.2518  0.0137
   30MOL0     C 4018   7.076  11.429   0.216 -1.0415 -0.0051 -0.8416
   30MOL0     N 4019   7.150  11.402   0.336  0.6111 -0.1579 -0.6000
   30MOL0     C 4020   7.180  11.500   0.433  0.8619  0.3263 -0.1744
   30MOL0     C 4021   7.251  11.418   0.519  0.5230 -0.2421  0.1338
   30MOL0     C 4022   7.320  11.479   0.634  0.2889  0.9529 -0.3731
   30MOL0     C 4023   7.224  11.474   0.753  0.6966 -0.5266  0.6349
   30MOL0     C 4024   7.126  11.593   0.765  0.1846  0.9495 -0.3368
   30MOL0     C 4025   7.019  11.552   0.867 -0.5827 -0.0532 -0.1541
   30MOL0     O 4026   6.955  11.676   0.893 -0.2397 -0.0434 -0.0034
   30MOL0     C 4027   6.890  11.709   1.007 -0.4180  0.8558 -0.4021
   30MOL0     C 4028   6.823  11.626   1.089 -0.1904  1.2823  0.0863
   30MOL0     C 4029   6.751  11.651   1.203  0.0039  0.0231  0.5308
   30MOL0     C 4030   6.699  11.533   1.280 -1.3315  0.0593 -0.0340
   30MOL0     C 4031   6.750  11.790   1.240  0.6457 -0.2122 -0.5452
   30MOL0     C 4032   6.673  11.838   1.361  0.1037 -0.1663 -0.8155
   30MOL0     O 4033   6.738  11.944   1.426  0.0855 -0.8406 -0.0524
   30MOL0     C 4034   6.689  11.996   1.544  0.3004 -0.1247 -0.0622
   30MOL0     C 4035   6.780  12.055   1.626 -0.2774  0.7403 -0.6273
   30MOL0     C 4036   6.744  12.108   1.746  0.0092  0.9427 -0.5908
   30MOL0     C 4037   6.615  12.103   1.791  0.6502 -1.1553  0.2578
   30MOL0     O 4038   6.572  12.142   1.913  0.3136  0.8050 -0.7394
   30MOL0     C 4039   6.670  12.144   2.017  0.8750 -0.1596 -0.9503
   30MOL0     C 4040   6.604  12.199   2.141 -0.3347 -0.0967  0.0504
   30MOL0     C 4041   6.471  12.125   2.171 -0.6817 -0.4874 -0.0743
   30MOL0     C 4042   6.398  12.161   2.304  0.2521 -0.1349 -0.0988
   30MOL0     C 4043   6.322  12.294   2.280 -0.3614  0.7052 -0.2742
   30MOL0     C 4044   6.213  12.298   2.381  0.0963 -0.1344  0.1591
   30MOL0     C 4045   6.130  12.424   2.346 -0.0636 -0.4156  0.9011
   30MOL0     C 4046   6.026  12.443   2.458  0.4264  0.1279  0.5520
   30MOL0    Cl 4047   5.927  12.302   2.466 -0.2268  0.0310  0.3716
   30MOL0     C 4048   6.513  12.056   1.701 -0.0291  0.3351 -0.4141
   30MOL0     C 4049   6.549  11.998   1.577 -0.3801  0.0913 -0.4104
   30MOL0     O 4050   6.578  11.771   1.404  0.4192 -0.2195 -0.0863
   30MOL0     C 4051   6.816  11.879   1.156  0.1906  0.2003 -0.8932
   30MOL0     C 4052   6.891  11.838   1.047 -0.3904  0.2143 -0.0295
   30MOL0     N 4053   7.267  11.290   0.479  0.2267 -0.2443  0.3249
   30MOL0     N 4054   7.203  11.281   0.371 -0.4210  0.7604  0.0255
   30MOL0     C 4055   6.124  11.074   0.783 -0.3174 -0.3421 -0.5703
   30MOL0     C 4056   6.048  10.957   0.787  0.7486 -0.9647 -0.3446
   30MOL0     C 4057   5.977  10.547   0.716  0.1190 -0.5259 -0.9842
   30MOL0     C 4058   5.841  10.531   0.679  0.2513 -0.1918 -0.7216
   30MOL0     C 4059   5.769  10.412   0.701 -0.7359 -0.1823  0.2978
   30MOL0     C 4060   5.833  10.299   0.752 -0.4833  0.3038  0.0351
   30MOL0     O 4061   5.753  10.185   0.789  0.1698 -0.4017  0.4077
   30MOL0     C 4062   5.610  10.186   0.793 -0.3698 -0.0867 -0.7455
   30MOL0     C 4063   5.552  10.062   0.854  0.5512  1.0207 -0.3815
   30MOL0     C 4064   5.563  10.060   1.001  0.1463 -0.0629 -0.8465
   30MOL0     C 4065   5.541   9.922   1.064 -0.2079  0.9923 -0.3266
   30MOL0     C 4066   5.596   9.804   0.998  0.4127 -0.1140 -0.5149
   30MOL0     C 4067   5.631   9.699   0.964  0.4224  0.1584  1.0260
   30MOL0     C 4068   5.971  10.306   0.779 -0.1830 -0.3280  0.2645
   30MOL0     C 4069   6.044  10.427   0.766 -0.1700 -0.6917 -0.0604
   30MOL0     C 4070   6.188  10.416   0.816  0.3493  0.1324  0.0350
   30MOL0     H 4071   5.979  10.931   0.456 -0.6890  1.0514 -1.7697
   30MOL0     H 4072   6.099  11.155   0.454  0.8622 -0.3769 -0.5231
   30MOL0     H 4073   6.301  11.237   0.468  0.1934  2.5748 -0.7761
   30MOL0     H 4074   6.425  11.220   0.597 -2.3122 -3.8508 -0.3398
   30MOL0     H 4075   6.291  11.489   0.546 -1.6212 -2.5527  0.7945
   30MOL0     H 4076   6.428  11.433   0.655 -2.9494 -0.4878  2.4473
   30MOL0     H 4077   6.417  11.397   0.353 -0.9475  0.3307  0.0645
   30MOL0     H 4078   6.462  11.550   0.421 -0.0309  0.9104  2.2824
   30MOL0     H 4079   6.648  11.442   0.555  1.3219 -0.8587 -0.7850
   30MOL0     H 4080   6.618  11.304   0.468 -1.2020  0.2523  0.7281
   30MOL0     H 4081   6.716  11.577   0.387 -2.7065  1.0835 -1.0883
   30MOL0     H 4082   6.643  11.499   0.266 -0.3640  3.0633  1.5513
   30MOL0     H 4083   6.875  11.361   0.436  2.8932 -1.1368 -1.7262
   30MOL0     H 4084   6.813  11.321   0.275  1.2424  2.4413 -1.7426
   30MOL0     H 4085   6.961  11.582   0.307 -0.8168 -0.5824  0.8997
   30MOL0     H 4086   6.894  11.507   0.159  0.9674  2.1527 -0.1400
   30MOL0     H 4087   7.057  11.338   0.159 -1.1142 -1.3641  1.2318
   30MOL0     H 4088   7.129  11.503   0.156  0.3025 -0.6603 -0.5140
   30MOL0     H 4089   7.142  11.601   0.444 -0.3429 -0.0684 -0.5301
   30MOL0     H 4090   7.344  11.584   0.614 -0.1653  1.3781  1.1983
   30MOL0     H 4091   7.407  11.414   0.647 -1.7556 -1.3313  4.6841
   30MOL0     H 4092   7.161  11.384   0.748 -1.4253  0.8973  0.8149
   30MOL0     H 4093   7.283  11.459   0.845  0.7127 -2.0230  0.4144
   30MOL0     H 4094   7.185  11.678   0.803 -0.2024 -0.0749  2.9119
   30MOL0     H 4095   7.072  11.605   0.671  1.3395  0.3552 -1.1008
   30MOL0     H 4096   6.948  11.477   0.832 -1.8540  2.1197 -2.5666
   30MOL0     H 4097   7.075  11.506   0.949  0.4701  0.3310 -0.6440
   30MOL0     H 4098   6.833  11.523   1.055 -3.0225  2.6075 -6.3566
   30MOL0     H 4099   6.591  11.523   1.265 -1.1625  0.5015 -1.8158
   30MOL0     H 4100   6.710  11.562   1.385  1.4895 -0.7439 -0.0102
   30MOL0     H 4101   6.753  11.441   1.256 -0.7731  0.9466 -2.4513
   30MOL0     H 4102   6.885  12.048   1.602  0.4340  0.1983  2.2024
   30MOL0     H 4103   6.826  12.138   1.810 -0.6850 -1.6782  1.7851
   30MOL0     H 4104   6.694  12.040   2.039 -2.4335 -1.4355 -2.7127
   30MOL0     H 4105   6.755  12.213   2.013  0.6518  0.0674 -2.7056
   30MOL0     H 4106   6.667  12.204   2.231  1.8273  2.9242 -1.4655
   30MOL0     H 4107   6.597  12.307   2.126  0.2615 -0.3799 -2.6498
   30MOL0     H 4108   6.491  12.018   2.158  1.0265 -0.2701  0.4622
   30MOL0     H 4109   6.401  12.141   2.089 -0.4918  1.7055  0.1173
   30MOL0     H 4110   6.464  12.160   2.392 -1.3608 -1.3536  1.1663
   30MOL0     H 4111   6.320  12.087   2.322  2.3978 -2.5723 -0.2913
   30MOL0     H 4112   6.387  12.380   2.301 -0.1026 -0.2506  3.4941
   30MOL0     H 4113   6.285  12.294   2.178  0.6587  0.0786 -0.6601
   30MOL0     H 4114   6.250  12.303   2.484 -2.2159 -1.4195  1.1193
   30MOL0     H 4115   6.155  12.206   2.371 -1.8434  0.9671  0.7271
   30MOL0     H 4116   6.082  12.410   2.249  0.3294 -0.9489  0.7777
   30MOL0     H 4117   6.191  12.515   2.338 -1.3777  0.3240 -1.9588
   30MOL0     H 4118   5.957  12.527   2.441  1.1989  0.5007 -1.0178
   30MOL0     H 4119   6.073  12.457   2.555 -0.0151  0.2936  0.7466
   30MOL0     H 4120   6.413  12.051   1.743  0.2831  0.1323  0.3073
   30MOL0     H 4121   6.465  11.979   1.511 -0.1463 -0.2105 -0.6237
   30MOL0     H 4122   6.805  11.982   1.188  1.0475  0.1460 -0.3917
   30MOL0     H 4123   6.946  11.907   0.984 -0.7395  0.9485  0.4684
   30MOL0     H 4124   6.169  11.115   0.873  0.8078  1.2455 -1.7989
   30MOL0     H 4125   6.043  10.911   0.886  0.7759  0.8893  0.5553
   30MOL0     H 4126   5.789  10.618   0.639 -0.0887  1.6758  3.2861
   30MOL0     H 4127   5.665  10.398   0.675 -0.7100 -2.0802  1.0480
   30MOL0     H 4128   5.586  10.268   0.861 -1.6196  1.2791 -2.7139
   30MOL0     H 4129   5.585  10.193   0.687 -0.5096  0.9225 -0.6565
   30MOL0     H 4130   5.613   9.984   0.808 -1.2427 -1.1600  0.7762
   30MOL0     H 4131   5.449  10.045   0.821  0.5595  1.7858 -0.8186
   30MOL0     H 4132   5.659  10.104   1.031 -1.7530  2.8139  1.5267
   30MOL0     H 4133   5.489  10.127   1.045  0.1203  0.1057 -1.1411
   30MOL0     H 4134   5.432   9.912   1.061 -0.1359  0.3898 -1.8223
   30MOL0     H 4135   5.581   9.929   1.165  0.5515  1.4573 -0.6529
   30MOL0     H 4136   5.655   9.597   0.938  1.8001  0.4844  0.9175
   30MOL0     H 4137   6.013  10.218   0.827  1.3816  0.2863  0.0735
   30MOL0     H 4138   6.225  10.317   0.790 -0.8753  0.5463 -4.1500
   30MOL0     H 4139   6.252  10.480   0.755  0.6015 -0.1667 -0.0162
   30MOL0     H 4140   6.193  10.413   0.925  0.8863 -1.7643 -0.0162
   31MOL0     O 4141   0.573   8.132   1.791  0.0336 -0.5974 -0.0236
   31MOL0     C 4142   0.567   8.213   1.885 -0.2402 -0.1970 -1.0935
   31MOL0     O 4143   0.557   8.173   2.013  0.2034  0.3537 -0.0598
   31MOL0     C 4144   0.569   8.038   2.039 -1.8683 -0.5511  0.3420
   31MOL0     C 4145   0.478   7.937   2.005 -0.4574  0.1193  0.1968
   31MOL0     C 4146   0.509   7.802   2.010  0.7536  0.5253  0.8106
   31MOL0     C 4147   0.615   7.764   2.085  0.2868  0.0253 -0.2798
   31MOL0     O 4148   0.631   7.631   2.089  0.4760  0.3057 -0.4105
   31MOL0     C 4149   0.742   7.570   2.156  0.0743 -0.6509 -0.8062
   31MOL0     C 4150   0.694   7.564   2.305  0.1448 -0.0667 -0.7549
   31MOL0     C 4151   0.815   7.525   2.396  0.6579 -0.5266  0.6004
   31MOL0     C 4152   0.900   7.639   2.438 -1.2414  0.1037  0.2527
   31MOL0     C 4153   1.023   7.583   2.528  0.3333 -0.1742  1.0080
   31MOL0     C 4154   1.106   7.693   2.581 -0.6388  0.0969 -0.2745
   31MOL0     C 4155   1.196   7.635   2.683 -0.5048  0.6534 -0.3342
   31MOL0     C 4156   1.320   7.713   2.721 -0.0322  0.4339  0.0502
   31MOL0     N 4157   1.419   7.725   2.613 -0.5628  0.7199  0.2997
   31MOL0     C 4158   1.532   7.646   2.596 -0.6528 -0.8709 -0.8755
   31MOL0     C 4159   1.612   7.719   2.519 -0.1307 -0.6471  0.6171
   31MOL0     C 4160   1.746   7.673   2.468  0.7338  0.0311 -0.4432
   31MOL0     C 4161   1.859   7.715   2.560  0.4541  1.0855  0.6176
   31MOL0     C 4162   1.992   7.716   2.484 -0.6307  0.1450 -0.7878
   31MOL0     C 4163   2.107   7.764   2.575  0.1991 -0.0402 -1.2133
   31MOL0     O 4164   2.235   7.731   2.525 -0.6615 -0.0200 -0.1380
   31MOL0     C 4165   2.345   7.746   2.607 -0.1479  0.1697 -0.4674
   31MOL0     C 4166   2.339   7.760   2.747 -0.5358 -0.5722  0.8984
   31MOL0     C 4167   2.462   7.760   2.820  0.3855  0.6818  0.7730
   31MOL0     C 4168   2.458   7.811   2.961  0.7614  0.9481  0.5343
   31MOL0     C 4169   2.585   7.737   2.757  0.4791 -0.7103  0.2697
   31MOL0     C 4170   2.720   7.725   2.820  0.1771  0.1468 -0.3705
   31MOL0     O 4171   2.730   7.744   2.950 -0.1023 -0.2511  0.1099
   31MOL0     C 4172   2.847   7.725   3.014 -0.9470  0.4682  0.0817
   31MOL0     C 4173   2.915   7.599   3.015 -0.1820  0.0458  0.5594
   31MOL0     C 4174   3.018   7.588   3.099 -0.0657 -0.7279 -0.5091
   31MOL0     C 4175   3.074   7.697   3.173  0.2391 -0.5108  0.8613
   31MOL0     O 4176   3.196   7.687   3.231  0.3574 -0.4321  0.0641
   31MOL0     C 4177   3.263   7.564   3.257 -0.2564  0.4015 -0.5384
   31MOL0     C 4178   3.402   7.602   3.305  0.1838 -0.2208  0.0962
   31MOL0     C 4179   3.485   7.647   3.184  0.0292  0.7843 -0.5741
   31MOL0     C 4180   3.619   7.712   3.230  0.1206  0.5925  0.5432
   31MOL0     C 4181   3.714   7.717   3.111 -0.6000  0.5696 -0.3622
   31MOL0     C 4182   3.850   7.764   3.172  0.3383 -0.5110  0.1117
   31MOL0     C 4183   3.951   7.794   3.072 -0.4835 -0.4909  0.6373
   31MOL0     C 4184   4.070   7.886   3.111  1.1433  0.7957  0.6672
   31MOL0    Cl 4185   4.169   7.914   2.970 -0.3718  0.5409  0.3681
   31MOL0     C 4186   3.007   7.817   3.167  0.4094 -0.3550 -0.0335
   31MOL0     C 4187   2.889   7.833   3.086  0.2923  0.0380  0.0298
   31MOL0     O 4188   2.815   7.697   2.742  0.2872 -0.1742  0.3224
   31MOL0     C 4189   2.584   7.727   2.617  0.2271  0.2958 -0.0502
   31MOL0     C 4190   2.464   7.723   2.548  0.1617  0.5907 -0.7805
   31MOL0     N 4191   1.551   7.839   2.491 -0.1367  0.2215 -0.3101
   31MOL0     N 4192   1.438   7.840   2.548 -0.8029 -0.3531  0.0948
   31MOL0     C 4193   0.703   7.863   2.131  0.0434  0.5016  0.0346
   31MOL0     C 4194   0.681   8.001   2.110 -0.0476  0.7466 -0.3819
   31MOL0     C 4195   0.530   8.354   1.863  1.0701  0.0110 -0.1685
   31MOL0     C 4196   0.439   8.413   1.954  1.4681  0.8812  0.0355
   31MOL0     C 4197   0.381   8.533   1.929 -0.5410  0.3408 -0.5960
   31MOL0     C 4198   0.418   8.605   1.807  1.3088 -0.5303 -0.4163
   31MOL0     O 4199   0.343   8.716   1.776 -0.3083 -0.3447  0.0310
   31MOL0     C 4200   0.352   8.768   1.644 -0.2243 -0.1424  1.0322
   31MOL0     C 4201   0.252   8.881   1.638  0.1780 -0.2602  0.0917
   31MOL0     C 4202   0.225   8.955   1.505  0.1918 -0.5016  0.6926
   31MOL0     C 4203   0.120   9.061   1.525  0.2170  0.1116 -0.1228
   31MOL0     C 4204   0.065   9.110   1.402 -0.2814  0.6111  0.5615
   31MOL0     C 4205   0.031   9.136   1.289 -0.5943  0.4323 -0.1681
   31MOL0     C 4206   0.510   8.548   1.719  0.2624 -0.1399 -0.8602
   31MOL0     C 4207   0.569   8.429   1.751  0.4202  0.1399 -0.7607
   31MOL0     C 4208   0.669   8.378   1.653  0.0256 -0.5931 -0.2404
   31MOL0     H 4209   0.393   7.979   1.951  1.6102  1.7439 -2.0355
   31MOL0     H 4210   0.443   7.729   1.963 -0.0650  1.4562  0.4875
   31MOL0     H 4211   0.841   7.617   2.156  2.2392 -4.6579  0.9093
   31MOL0     H 4212   0.769   7.472   2.116  1.1927 -0.0709 -1.5440
   31MOL0     H 4213   0.663   7.667   2.326 -0.5409  0.4801 -3.9130
   31MOL0     H 4214   0.605   7.502   2.318 -0.9228  1.6308  0.3613
   31MOL0     H 4215   0.784   7.466   2.482  0.6562 -0.0834  0.9069
   31MOL0     H 4216   0.878   7.460   2.334  1.4420 -0.0367  0.8672
   31MOL0     H 4217   0.931   7.686   2.345  0.8464  0.0367  0.8538
   31MOL0     H 4218   0.844   7.717   2.490  0.8244  3.3799 -2.1094
   31MOL0     H 4219   1.082   7.518   2.463 -2.1560 -2.2007  0.6168
   31MOL0     H 4220   0.995   7.518   2.611  1.0271  0.6809  1.9303
   31MOL0     H 4221   1.170   7.743   2.507  1.2033 -0.2608  0.9927
   31MOL0     H 4222   1.049   7.776   2.624  1.1829  2.1032 -1.5008
   31MOL0     H 4223   1.229   7.535   2.655  0.7508  0.8282  0.4272
   31MOL0     H 4224   1.135   7.628   2.774 -1.2072 -1.3058 -0.9248
   31MOL0     H 4225   1.275   7.813   2.732 -1.8912 -0.1714 -1.4011
   31MOL0     H 4226   1.362   7.669   2.812 -2.0248 -2.5530 -0.3356
   31MOL0     H 4227   1.552   7.552   2.647  0.5807  0.8508  1.9847
   31MOL0     H 4228   1.771   7.709   2.368 -1.8866  0.8957 -0.8608
   31MOL0     H 4229   1.731   7.564   2.472  0.6917  0.0387 -0.3759
   31MOL0     H 4230   1.847   7.818   2.593  0.2079  0.6489  1.9487
   31MOL0     H 4231   1.869   7.646   2.645 -0.9539 -0.7295 -0.6137
   31MOL0     H 4232   2.009   7.615   2.446  1.5631 -0.1819  0.8135
   31MOL0     H 4233   1.980   7.778   2.395  1.1567  1.1580 -0.3786
   31MOL0     H 4234   2.097   7.870   2.603  0.6101 -0.4504  0.6546
   31MOL0     H 4235   2.087   7.717   2.672  1.1355  0.6357 -0.6762
   31MOL0     H 4236   2.244   7.774   2.797  0.5039  3.1105  2.1506
   31MOL0     H 4237   2.515   7.901   2.989  2.3272 -0.4240  2.0193
   31MOL0     H 4238   2.495   7.727   3.020 -2.8369 -0.9993  0.2839
   31MOL0     H 4239   2.355   7.842   2.982 -0.4872 -1.9854 -0.7849
   31MOL0     H 4240   2.871   7.517   2.959 -0.6085  2.4617 -2.9764
   31MOL0     H 4241   3.068   7.493   3.112 -0.1221 -0.8742 -1.2876
   31MOL0     H 4242   3.212   7.500   3.330  0.3403 -1.0976 -1.4019
   31MOL0     H 4243   3.275   7.496   3.173 -1.6588  2.1371 -2.2456
   31MOL0     H 4244   3.377   7.675   3.384 -2.5042  2.3472 -2.8491
   31MOL0     H 4245   3.450   7.513   3.347  1.2097 -0.3778 -1.3647
   31MOL0     H 4246   3.431   7.721   3.123  0.8646  2.0471  0.1681
   31MOL0     H 4247   3.501   7.552   3.133 -1.2122  1.4340 -2.2703
   31MOL0     H 4248   3.663   7.653   3.310  0.0839 -1.4097 -0.8265
   31MOL0     H 4249   3.601   7.810   3.276 -3.2852 -0.6142  2.0783
   31MOL0     H 4250   3.736   7.622   3.063 -0.2247  0.2631  0.3978
   31MOL0     H 4251   3.679   7.786   3.033 -1.3880 -0.4006 -0.8871
   31MOL0     H 4252   3.901   7.695   3.239  0.6412  0.5584  1.0207
   31MOL0     H 4253   3.838   7.858   3.227 -1.2164  0.0487 -1.0965
   31MOL0     H 4254   3.906   7.846   2.987  2.5934 -0.2328 -1.0048
   31MOL0     H 4255   3.991   7.697   3.039 -0.1415 -0.3849  0.7364
   31MOL0     H 4256   4.125   7.830   3.187  0.3373  0.0591  0.7214
   31MOL0     H 4257   4.042   7.987   3.144  1.7683  0.9158  0.8533
   31MOL0     H 4258   3.037   7.900   3.231  0.7762 -0.0780 -0.5573
   31MOL0     H 4259   2.843   7.930   3.070 -2.4092 -1.2860 -0.8249
   31MOL0     H 4260   2.665   7.726   2.545 -0.0947 -2.3221 -0.4917
   31MOL0     H 4261   2.453   7.708   2.441 -1.0188  2.7357 -1.0003
   31MOL0     H 4262   0.780   7.830   2.201  2.0422  2.9678 -0.8313
   31MOL0     H 4263   0.742   8.081   2.151 -1.9842  1.1306  2.0204
   31MOL0     H 4264   0.389   8.366   2.038  2.3031  1.6824  1.0107
   31MOL0     H 4265   0.309   8.585   1.992  1.1985  3.1346 -0.7418
   31MOL0     H 4266   0.448   8.816   1.626 -0.0874 -1.0411 -0.8733
   31MOL0     H 4267   0.334   8.687   1.572  0.0343 -1.7430  2.6989
   31MOL0     H 4268   0.290   8.942   1.721 -0.1462 -1.9062  1.4926
   31MOL0     H 4269   0.162   8.830   1.674 -0.7563 -0.1015 -1.8452
   31MOL0     H 4270   0.321   9.001   1.479 -0.1921 -0.0557  0.0141
   31MOL0     H 4271   0.194   8.884   1.427  1.0343  0.3592 -0.4721
   31MOL0     H 4272   0.162   9.152   1.569 -0.7380  0.4716  0.0674
   31MOL0     H 4273   0.036   9.033   1.589  0.4647  1.1745  0.7079
   31MOL0     H 4274  -0.009   9.155   1.192  1.2372  1.6139 -0.7372
   31MOL0     H 4275   0.537   8.594   1.624 -0.5578  1.2366 -0.4627
   31MOL0     H 4276   0.719   8.452   1.591  0.9137 -1.6992 -0.8874
   31MOL0     H 4277   0.751   8.322   1.699  1.8682  1.7638 -0.4628
   31MOL0     H 4278   0.610   8.313   1.588 -1.6705 -1.9565  2.4720
   32MOL0     O 4279   1.797  11.386   1.488 -0.6933 -0.3356  0.1314
   32MOL0     C 4280   1.739  11.350   1.383  0.0807  0.5395  0.0725
   32MOL0     O 4281   1.777  11.378   1.257 -1.1755  0.4704 -0.0323
   32MOL0     C 4282   1.885  11.462   1.229 -0.5832 -0.5426 -1.1948
   32MOL0     C 4283   1.895  11.602   1.234  0.8283 -0.9001  0.4357
   32MOL0     C 4284   2.002  11.675   1.189 -0.0123  0.1760  0.1202
   32MOL0     C 4285   2.112  11.605   1.134 -0.5687  0.0892  0.3258
   32MOL0     O 4286   2.214  11.682   1.081  0.3151  0.0251 -0.4144
   32MOL0     C 4287   2.348  11.617   1.084 -0.2609  0.4833 -0.8652
   32MOL0     C 4288   2.478  11.711   1.108  0.1127 -0.4050  0.6414
   32MOL0     C 4289   2.480  11.777   1.244 -0.2164  0.2920 -0.2496
   32MOL0     C 4290   2.615  11.850   1.275  1.0642 -0.0816  0.2320
   32MOL0     C 4291   2.603  11.967   1.372  0.2476  0.7155  0.4827
   32MOL0     C 4292   2.739  12.026   1.407  0.1954 -0.1580  0.5448
   32MOL0     C 4293   2.733  12.156   1.494  0.7890  0.1930 -0.4328
   32MOL0     C 4294   2.688  12.282   1.420  0.1293  0.9020 -0.4624
   32MOL0     N 4295   2.799  12.374   1.381  0.0631  0.3876 -0.3801
   32MOL0     C 4296   2.860  12.456   1.467  0.2888 -0.1798  0.5596
   32MOL0     C 4297   2.966  12.514   1.402 -0.4931 -0.2267  0.1058
   32MOL0     C 4298   3.060  12.600   1.466 -0.2826  0.1077 -0.0428
   32MOL0     C 4299   3.206  12.540   1.473  0.1256  0.0622 -0.2018
   32MOL0     C 4300   3.284  12.588   1.343  0.0639 -0.1386  0.2344
   32MOL0     C 4301   3.432  12.563   1.350  0.5223  0.0083 -0.2095
   32MOL0     O 4302   3.497  12.654   1.447  0.2566 -0.2430 -0.4586
   32MOL0     C 4303   3.633  12.639   1.456 -0.1821 -0.2342  0.5299
   32MOL0     C 4304   3.699  12.693   1.563  0.0286 -0.2548 -0.4196
   32MOL0     C 4305   3.832  12.688   1.568 -1.0988  0.7916  0.1216
   32MOL0     C 4306   3.897  12.756   1.683  0.1226 -0.4141 -0.1057
   32MOL0     C 4307   3.909  12.625   1.471  0.4218 -1.5227 -0.6258
   32MOL0     C 4308   4.057  12.625   1.473 -0.7521 -0.5319  0.1721
   32MOL0     O 4309   4.106  12.593   1.605 -0.7065 -0.5034 -0.1640
   32MOL0     C 4310   4.238  12.594   1.632  0.2638  0.0415 -0.1564
   32MOL0     C 4311   4.288  12.651   1.747 -0.0486 -0.2937  0.3061
   32MOL0     C 4312   4.428  12.655   1.772  0.0855  0.0194  0.7933
   32MOL0     C 4313   4.529  12.602   1.677  0.6154 -0.6027 -0.6092
   32MOL0     O 4314   4.659  12.589   1.698 -0.1987 -0.7438  0.0499
   32MOL0     C 4315   4.698  12.631   1.831 -0.3000  0.9373 -0.3186
   32MOL0     C 4316   4.846  12.578   1.835 -0.2791 -0.4701 -0.5032
   32MOL0     C 4317   4.858  12.425   1.851  0.2174 -0.2080  0.3097
   32MOL0     C 4318   4.995  12.361   1.826  0.1886 -0.2954 -0.0833
   32MOL0     C 4319   5.001  12.212   1.855 -0.0385 -0.2838 -0.0992
   32MOL0     C 4320   5.132  12.143   1.808  0.6087 -0.5480  0.0023
   32MOL0     C 4321   5.123  11.991   1.824  0.6175 -0.3330 -0.2265
   32MOL0     C 4322   5.240  11.921   1.748 -0.8373  0.3973 -0.3610
   32MOL0    Cl 4323   5.233  11.743   1.782  0.0973  0.0789  0.0454
   32MOL0     C 4324   4.470  12.546   1.559 -0.0578  0.1225  0.0440
   32MOL0     C 4325   4.331  12.534   1.546 -0.1264 -0.8622  0.1052
   32MOL0     O 4326   4.119  12.648   1.373 -0.0541  0.2369  0.8232
   32MOL0     C 4327   3.842  12.575   1.359 -0.0339 -0.2257 -0.3966
   32MOL0     C 4328   3.707  12.577   1.351  0.3623 -1.0626  0.1750
   32MOL0     N 4329   2.964  12.453   1.274  0.2301  0.0373 -0.1632
   32MOL0     N 4330   2.865  12.365   1.262 -0.2513 -0.7927 -0.7421
   32MOL0     C 4331   2.104  11.470   1.123 -0.1622 -0.1178 -0.4588
   32MOL0     C 4332   1.993  11.403   1.171 -0.1502  0.9664  1.2321
   32MOL0     C 4333   1.613  11.276   1.388  0.2130 -0.3819 -0.4136
   32MOL0     C 4334   1.573  11.205   1.270  0.2452 -0.5389  0.7617
   32MOL0     C 4335   1.452  11.131   1.269 -0.3573 -0.6639  0.1119
   32MOL0     C 4336   1.358  11.117   1.378 -0.1143 -0.3901 -0.3670
   32MOL0     O 4337   1.267  11.022   1.358 -0.1957  0.4038 -0.1096
   32MOL0     C 4338   1.160  11.015   1.452 -0.4799 -0.1414 -0.0233
   32MOL0     C 4339   1.072  10.916   1.392  0.1298 -0.0385 -0.0758
   32MOL0     C 4340   0.971  10.861   1.504 -0.2975 -0.3009 -0.0149
   32MOL0     C 4341   1.024  10.815   1.637  0.1098  0.1670  0.6457
   32MOL0     C 4342   0.908  10.785   1.731 -0.1961  0.6746  0.7882
   32MOL0     C 4343   0.818  10.752   1.803 -0.0663  0.2330 -0.2038
   32MOL0     C 4344   1.402  11.189   1.494 -0.3120 -0.5712  0.3887
   32MOL0     C 4345   1.528  11.266   1.501 -0.1335  0.0683 -0.5096
   32MOL0     C 4346   1.569  11.304   1.639 -0.4954  0.2743 -1.1581
   32MOL0     H 4347   1.819  11.673   1.268  1.5931  1.1772 -1.8748
   32MOL0     H 4348   2.014  11.782   1.181 -0.5638  0.2521  0.2917
   32MOL0     H 4349   2.365  11.576   0.984 -2.4675 -0.1702 -1.0397
   32MOL0     H 4350   2.359  11.539   1.160 -1.1157  2.6289  1.6294
   32MOL0     H 4351   2.575  11.667   1.084 -1.7821 -3.6081 -2.1086
   32MOL0     H 4352   2.468  11.787   1.031  1.4861  0.3365  1.1587
   32MOL0     H 4353   2.394  11.844   1.252  0.7413  1.2997  2.4769
   32MOL0     H 4354   2.466  11.702   1.322  0.6564  1.7723  1.3796
   32MOL0     H 4355   2.686  11.786   1.327  1.2873  1.0721  1.4053
   32MOL0     H 4356   2.653  11.886   1.179 -0.3102  1.1024  0.0893
   32MOL0     H 4357   2.557  11.939   1.467  0.8107 -1.5014  0.1422
   32MOL0     H 4358   2.538  12.038   1.320 -1.1432 -1.0946 -0.3705
   32MOL0     H 4359   2.778  11.938   1.459  0.7480 -0.2689 -0.0393
   32MOL0     H 4360   2.801  12.046   1.319  0.3959  0.6102  0.8495
   32MOL0     H 4361   2.836  12.186   1.517 -0.3899  4.2649  0.3348
   32MOL0     H 4362   2.669  12.138   1.581  0.1684 -0.3960 -0.9940
   32MOL0     H 4363   2.638  12.245   1.330 -0.3360  0.2652  0.0569
   32MOL0     H 4364   2.624  12.331   1.494  1.4729 -1.5593  2.5282
   32MOL0     H 4365   2.826  12.464   1.570  1.7627  1.3893  0.9731
   32MOL0     H 4366   3.024  12.627   1.565 -0.1278  0.4485 -0.0787
   32MOL0     H 4367   3.068  12.695   1.411  2.2901 -0.6232 -1.0959
   32MOL0     H 4368   3.266  12.569   1.560  1.0820 -0.3885 -0.6991
   32MOL0     H 4369   3.202  12.431   1.476  3.4585 -0.1304  0.7981
   32MOL0     H 4370   3.234  12.540   1.259  0.2050 -0.2671  0.2235
   32MOL0     H 4371   3.274  12.697   1.336 -0.9001 -0.1551  0.9963
   32MOL0     H 4372   3.451  12.460   1.381  2.7487  0.5984  0.5458
   32MOL0     H 4373   3.471  12.580   1.249 -1.0811 -0.3617 -0.9203
   32MOL0     H 4374   3.633  12.740   1.634  1.1197 -1.3508  1.4007
   32MOL0     H 4375   3.932  12.701   1.772 -0.0793 -1.4993 -0.6734
   32MOL0     H 4376   3.824  12.824   1.727  1.0740  1.0266 -0.7071
   32MOL0     H 4377   3.988  12.815   1.670  1.0161 -0.9174  2.8606
   32MOL0     H 4378   4.221  12.691   1.823 -0.0112  1.2294 -0.4318
   32MOL0     H 4379   4.458  12.710   1.860  2.4493  1.2701 -0.7104
   32MOL0     H 4380   4.686  12.736   1.858 -1.7036  0.7652 -0.1756
   32MOL0     H 4381   4.633  12.576   1.900 -0.3482 -1.5198 -2.1973
   32MOL0     H 4382   4.893  12.611   1.741  2.6654 -0.7118  0.7531
   32MOL0     H 4383   4.892  12.630   1.919 -3.9284  2.4155 -0.0484
   32MOL0     H 4384   4.798  12.378   1.772  0.4512  0.7831 -0.4778
   32MOL0     H 4385   4.823  12.394   1.950  0.1084 -0.2117  0.2703
   32MOL0     H 4386   5.071  12.411   1.886 -0.4484  0.9568 -0.2784
   32MOL0     H 4387   5.013  12.373   1.718 -3.7059 -0.7088 -0.9390
   32MOL0     H 4388   4.992  12.187   1.962  0.7744 -0.8363 -0.1459
   32MOL0     H 4389   4.919  12.163   1.802 -0.2803 -0.3372  0.3188
   32MOL0     H 4390   5.214  12.187   1.866 -2.0134  0.6324  3.1337
   32MOL0     H 4391   5.149  12.165   1.702 -1.8984  0.1474 -0.3403
   32MOL0     H 4392   5.026  11.949   1.796 -1.0956  3.3693 -0.4621
   32MOL0     H 4393   5.126  11.974   1.932  0.3630  3.4079  0.5310
   32MOL0     H 4394   5.329  11.958   1.800  2.0770 -4.4020 -1.3178
   32MOL0     H 4395   5.239  11.940   1.640 -1.4185 -2.3321 -0.9054
   32MOL0     H 4396   4.541  12.501   1.491 -2.5413  0.2754 -2.8378
   32MOL0     H 4397   4.302  12.467   1.466 -0.1529 -0.5724 -0.1321
   32MOL0     H 4398   3.906  12.525   1.287 -0.0934 -0.4427 -0.2983
   32MOL0     H 4399   3.660  12.525   1.269  1.4271  1.1832 -1.9690
   32MOL0     H 4400   2.174  11.407   1.069  0.8457  0.2691  0.3423
   32MOL0     H 4401   1.994  11.299   1.141  1.3122  1.4656 -0.6289
   32MOL0     H 4402   1.634  11.204   1.180  1.3402  1.0559  1.4461
   32MOL0     H 4403   1.435  11.072   1.179  1.0030 -2.1383  0.7772
   32MOL0     H 4404   1.212  10.974   1.540 -0.5590 -1.2101 -0.4575
   32MOL0     H 4405   1.116  11.114   1.464  0.9152  0.6172 -0.8841
   32MOL0     H 4406   1.140  10.836   1.360  0.2032 -1.2276  2.6917
   32MOL0     H 4407   1.020  10.935   1.298  1.0660 -0.5875 -0.7133
   32MOL0     H 4408   0.891  10.934   1.521 -4.5730 -4.5370  0.2887
   32MOL0     H 4409   0.913  10.778   1.461  1.1168 -1.1691 -0.3029
   32MOL0     H 4410   1.090  10.891   1.681 -0.1154  0.5218  0.3813
   32MOL0     H 4411   1.072  10.720   1.612 -3.2139 -1.2038 -1.0474
   32MOL0     H 4412   0.743  10.715   1.869  2.4737 -0.2999  2.5552
   32MOL0     H 4413   1.351  11.173   1.589 -0.7775 -2.5318 -0.1327
   32MOL0     H 4414   1.673  11.275   1.652 -0.6415 -0.5311 -1.7078
   32MOL0     H 4415   1.562  11.410   1.667 -2.0836 -0.1260  0.1176
   32MOL0     H 4416   1.500  11.261   1.713 -1.3361  0.5322 -1.7765
   33MOL0     O 4417  10.349   0.081   2.432  0.0374  0.3026 -0.0054
   33MOL0     C 4418  10.319  -0.035   2.461  0.5571 -0.4971 -0.7911
   33MOL0     O 4419  10.401  -0.133   2.485 -0.2256 -1.3580  0.2081
   33MOL0     C 4420  10.538  -0.107   2.495  0.1179 -1.2259 -0.2733
   33MOL0     C 4421  10.614  -0.160   2.391  0.1399  0.1856 -0.3454
   33MOL0     C 4422  10.746  -0.142   2.387  0.1196 -0.2395 -0.3576
   33MOL0     C 4423  10.811  -0.053   2.475 -0.2242  0.0094 -0.2681
   33MOL0     O 4424  10.946  -0.054   2.464 -0.2165 -0.1552  0.2578
   33MOL0     C 4425  11.026   0.030   2.545 -1.1696  0.3676 -0.4839
   33MOL0     C 4426  11.141   0.076   2.462  0.5035 -0.0007 -0.4505
   33MOL0     C 4427  11.107   0.181   2.361 -0.5969 -0.0062  0.4320
   33MOL0     C 4428  11.218   0.202   2.252  0.4657 -0.5502 -0.6169
   33MOL0     C 4429  11.207   0.336   2.173  0.4503  0.0961 -0.0092
   33MOL0     C 4430  11.311   0.336   2.062 -0.4538  0.7291 -1.0849
   33MOL0     C 4431  11.284   0.223   1.970  0.2489 -0.1717  0.1595
   33MOL0     C 4432  11.336   0.238   1.827 -0.2781 -0.0896  0.5110
   33MOL0     N 4433  11.290   0.358   1.752  0.8944  0.2507 -0.1717
   33MOL0     C 4434  11.159   0.387   1.747 -0.5945 -0.5649  0.5136
   33MOL0     C 4435  11.155   0.524   1.711 -0.9818  0.2345 -0.1402
   33MOL0     C 4436  11.031   0.606   1.703  0.1018 -0.3048  0.0757
   33MOL0     C 4437  10.952   0.580   1.575 -0.5030  0.0091 -0.3883
   33MOL0     C 4438  11.002   0.647   1.443  0.3553  0.2656  0.3982
   33MOL0     C 4439  10.982   0.792   1.433  0.7477 -0.1107 -0.8187
   33MOL0     O 4440  11.028   0.853   1.308 -1.4616  0.4571  0.5234
   33MOL0     C 4441  11.166   0.847   1.269  0.1997 -1.3246 -0.1296
   33MOL0     C 4442  11.196   0.912   1.148 -0.2930 -0.2261 -0.3324
   33MOL0     C 4443  11.326   0.930   1.095  0.4524 -0.2623 -1.2871
   33MOL0     C 4444  11.331   0.992   0.960  0.3000  0.1652 -0.0781
   33MOL0     C 4445  11.443   0.881   1.171 -0.1999  0.6636  0.2556
   33MOL0     C 4446  11.588   0.896   1.132 -0.0928  0.1365 -0.8360
   33MOL0     O 4447  11.688   0.836   1.199  0.0663  0.5929  0.6526
   33MOL0     C 4448  11.821   0.864   1.179  1.1035 -0.6704  0.7536
   33MOL0     C 4449  11.883   0.921   1.062 -0.3777  0.0152 -0.1271
   33MOL0     C 4450  12.011   0.948   1.061 -0.5781 -0.7615  1.2924
   33MOL0     C 4451  12.099   0.909   1.166  0.3825  0.2458  0.2124
   33MOL0     O 4452  12.242   0.918   1.175 -0.1718 -0.4743 -0.0507
   33MOL0     C 4453  12.311   0.998   1.079 -0.1416 -0.5795 -0.1651
   33MOL0     C 4454  12.457   1.027   1.107  0.1860 -0.6953 -0.0322
   33MOL0     C 4455  12.482   1.082   1.246  0.4507 -0.7313 -0.7185
   33MOL0     C 4456  12.622   1.138   1.253  0.2758 -0.0397 -0.2834
   33MOL0     C 4457  12.628   1.255   1.344  0.6546  0.7068 -0.1396
   33MOL0     C 4458  12.750   1.339   1.315 -0.2586 -0.7116  0.1732
   33MOL0     C 4459  12.882   1.281   1.356 -0.7215 -0.4768  0.0176
   33MOL0     C 4460  13.000   1.348   1.302 -0.7937  0.3231  0.1991
   33MOL0    Cl 4461  13.029   1.301   1.132  0.0239 -0.0093  0.2391
   33MOL0     C 4462  12.042   0.853   1.277 -0.5946  0.1281  0.0238
   33MOL0     C 4463  11.906   0.829   1.286  0.3207  0.5989  0.3153
   33MOL0     O 4464  11.603   0.956   1.028  0.4299  0.0062 -0.4850
   33MOL0     C 4465  11.407   0.819   1.287  0.6951 -0.3178 -1.3949
   33MOL0     C 4466  11.272   0.805   1.335 -0.0326  0.0689  0.1015
   33MOL0     N 4467  11.287   0.564   1.680  0.8907  0.1275 -1.0238
   33MOL0     N 4468  11.361   0.465   1.715  0.1527  0.0867 -0.3952
   33MOL0     C 4469  10.736  -0.006   2.585  0.1578  0.6164  0.2580
   33MOL0     C 4470  10.600  -0.034   2.589  0.4983 -0.6242 -0.1454
   33MOL0     C 4471  10.176  -0.076   2.477  0.8174 -0.2544  0.1650
   33MOL0     C 4472  10.141  -0.216   2.469 -0.3330  0.0091  0.0427
   33MOL0     C 4473  10.025  -0.265   2.502  0.3838  0.1527  0.4599
   33MOL0     C 4474   9.934  -0.185   2.561 -0.0302  0.1259 -0.0105
   33MOL0     O 4475   9.809  -0.245   2.570  0.1443 -0.1756  0.0413
   33MOL0     C 4476   9.695  -0.168   2.629  0.6371 -0.6469  1.1303
   33MOL0     C 4477   9.564  -0.254   2.627 -0.6427 -0.1713  0.1274
   33MOL0     C 4478   9.450  -0.185   2.693 -0.3727 -0.2850  0.0342
   33MOL0     C 4479   9.323  -0.272   2.676 -0.2029 -0.1793  0.4496
   33MOL0     C 4480   9.211  -0.208   2.752 -0.5428  0.4760  0.4663
   33MOL0     C 4481   9.120  -0.144   2.805 -0.3695  0.0069  0.3928
   33MOL0     C 4482   9.961  -0.046   2.584  0.0739  0.4129  0.4618
   33MOL0     C 4483  10.082   0.008   2.542  0.0773 -0.8671  0.2919
   33MOL0     C 4484  10.104   0.158   2.576 -0.2103  1.2322 -0.2935
   33MOL0     H 4485  10.574  -0.235   2.324 -0.2598 -2.7455  2.9033
   33MOL0     H 4486  10.800  -0.197   2.310 -2.2176  2.3707 -4.1479
   33MOL0     H 4487  11.066  -0.024   2.631 -0.7654 -0.3460 -1.1136
   33MOL0     H 4488  10.968   0.119   2.573 -2.7257 -0.5904 -0.5720
   33MOL0     H 4489  11.226   0.113   2.519  1.1076  0.3687 -1.5459
   33MOL0     H 4490  11.174  -0.016   2.412  3.7430  0.0733  1.2746
   33MOL0     H 4491  11.014   0.168   2.306  0.4711 -0.3545 -1.3603
   33MOL0     H 4492  11.096   0.274   2.417 -0.7555 -0.6783  1.5653
   33MOL0     H 4493  11.317   0.189   2.298  1.3126 -1.4284 -2.6027
   33MOL0     H 4494  11.214   0.124   2.176  0.5315  0.9324 -2.1805
   33MOL0     H 4495  11.218   0.423   2.238  1.9004  0.8913 -1.2352
   33MOL0     H 4496  11.107   0.343   2.130  0.4210 -1.2217 -0.1956
   33MOL0     H 4497  11.310   0.426   2.000 -0.4481  0.3434 -1.6511
   33MOL0     H 4498  11.411   0.332   2.106 -0.4844  2.9974 -0.6341
   33MOL0     H 4499  11.177   0.206   1.953  0.4591 -1.4343 -0.0112
   33MOL0     H 4500  11.330   0.132   2.008  1.9748  0.7220  0.3147
   33MOL0     H 4501  11.445   0.249   1.836 -0.5280  1.1715  2.3354
   33MOL0     H 4502  11.311   0.155   1.759 -0.6979  0.2770  0.2182
   33MOL0     H 4503  11.075   0.324   1.773 -0.9477 -1.0962 -1.7420
   33MOL0     H 4504  11.061   0.710   1.717  2.4834 -1.0097  0.6889
   33MOL0     H 4505  10.966   0.577   1.787  0.9115  1.3969  1.3517
   33MOL0     H 4506  10.942   0.475   1.546 -2.8298  0.4257 -1.3449
   33MOL0     H 4507  10.852   0.623   1.590  0.3281  1.2546  2.2644
   33MOL0     H 4508  11.099   0.607   1.409  2.0311  1.7823  3.0445
   33MOL0     H 4509  10.933   0.611   1.366  0.6631 -3.4620  1.6867
   33MOL0     H 4510  10.875   0.808   1.448  0.4330 -1.0128 -1.9600
   33MOL0     H 4511  11.035   0.838   1.517  1.5744 -0.1482 -1.3033
   33MOL0     H 4512  11.109   0.938   1.090  0.8420  1.5811 -1.3186
   33MOL0     H 4513  11.233   1.021   0.921  1.0660  0.0306 -2.2013
   33MOL0     H 4514  11.368   0.928   0.880 -0.0763 -0.6895  0.4133
   33MOL0     H 4515  11.382   1.087   0.979 -1.2811  0.5608  2.7600
   33MOL0     H 4516  11.831   0.949   0.971 -0.0329  0.6293 -0.1390
   33MOL0     H 4517  12.053   0.993   0.972 -1.9396  0.6570  1.3242
   33MOL0     H 4518  12.312   0.951   0.980 -0.3034  0.0157 -0.4574
   33MOL0     H 4519  12.256   1.092   1.068  1.5329  0.2284 -2.5451
   33MOL0     H 4520  12.506   0.931   1.086 -0.1131 -1.7180  3.3600
   33MOL0     H 4521  12.491   1.097   1.029  0.1274 -0.0891  0.4792
   33MOL0     H 4522  12.476   1.007   1.325  3.3057  1.3405  1.7144
   33MOL0     H 4523  12.410   1.160   1.272  1.8887  0.2425  0.5873
   33MOL0     H 4524  12.643   1.170   1.150  0.9374  0.4137 -0.0162
   33MOL0     H 4525  12.695   1.062   1.281  0.1609 -0.3057 -0.6964
   33MOL0     H 4526  12.542   1.319   1.325  1.0855  2.3730  2.9291
   33MOL0     H 4527  12.613   1.231   1.449 -3.9179  0.2697 -0.6961
   33MOL0     H 4528  12.744   1.436   1.364  0.7653 -1.9581  2.9418
   33MOL0     H 4529  12.750   1.359   1.207 -0.4987 -1.9598 -0.0766
   33MOL0     H 4530  12.891   1.173   1.337 -2.3211 -0.3240 -1.8985
   33MOL0     H 4531  12.901   1.298   1.463 -0.5144  1.4945 -0.2992
   33MOL0     H 4532  13.087   1.317   1.361  0.7970 -1.3755 -2.7644
   33MOL0     H 4533  12.995   1.456   1.312  2.1625  0.9356 -3.0098
   33MOL0     H 4534  12.115   0.827   1.353  0.2148 -0.0155 -0.7773
   33MOL0     H 4535  11.874   0.767   1.369 -0.3360  0.7712  0.1921
   33MOL0     H 4536  11.477   0.789   1.364  1.0024  2.9209 -0.2407
   33MOL0     H 4537  11.255   0.765   1.435  3.1849 -0.7922  0.4008
   33MOL0     H 4538  10.776   0.055   2.665 -0.9774 -0.2456  1.5306
   33MOL0     H 4539  10.531   0.001   2.665  0.8036 -1.7201  0.6606
   33MOL0     H 4540  10.223  -0.283   2.448  0.0219  0.8744 -1.4961
   33MOL0     H 4541   9.998  -0.370   2.494 -1.0345  0.5322 -0.1844
   33MOL0     H 4542   9.719  -0.142   2.733 -0.2955  1.5901  0.8398
   33MOL0     H 4543   9.673  -0.077   2.573 -3.2656 -1.3590  1.2687
   33MOL0     H 4544   9.581  -0.346   2.683 -1.4304 -1.2503 -1.3463
   33MOL0     H 4545   9.526  -0.278   2.527 -1.5801  0.2094  0.3774
   33MOL0     H 4546   9.465  -0.165   2.800  2.5576 -0.1838 -0.3289
   33MOL0     H 4547   9.439  -0.087   2.647  1.7297 -0.6397 -1.3484
   33MOL0     H 4548   9.343  -0.373   2.713  2.3947  0.5437  1.2176
   33MOL0     H 4549   9.291  -0.270   2.571 -2.4260  1.2230  1.0854
   33MOL0     H 4550   9.028  -0.111   2.849  0.4194  1.1756  1.2264
   33MOL0     H 4551   9.881   0.015   2.625 -1.2886 -0.2589 -1.0787
   33MOL0     H 4552  10.142   0.212   2.489  1.1184  2.7683  1.1638
   33MOL0     H 4553  10.020   0.206   2.627  2.0352  2.2254  2.8575
   33MOL0     H 4554  10.192   0.178   2.638 -0.9368  2.0986  0.4914
   34MOL0     O 4555   2.182   3.349   8.240  0.9154  0.1685 -0.0735
   34MOL0     C 4556   2.189   3.294   8.349 -0.1263  0.7637 -0.5247
   34MOL0     O 4557   2.300   3.237   8.402  0.3322 -0.6340  0.9671
   34MOL0     C 4558   2.418   3.238   8.338  0.1078  1.1514 -0.4322
   34MOL0     C 4559   2.439   3.185   8.212  0.1762 -0.4600 -0.4161
   34MOL0     C 4560   2.569   3.183   8.154 -0.9323 -0.9703  0.3622
   34MOL0     C 4561   2.679   3.223   8.232 -0.2597  1.5044  0.3251
   34MOL0     O 4562   2.808   3.215   8.179  0.2784 -0.0704  0.1444
   34MOL0     C 4563   2.825   3.116   8.084  0.4761 -0.0151 -0.3948
   34MOL0     C 4564   2.981   3.114   8.052  0.3225  0.0343  0.4118
   34MOL0     C 4565   3.050   3.034   8.168 -0.5280  1.4846 -0.0323
   34MOL0     C 4566   3.200   3.048   8.133  0.5295  0.0696  0.4945
   34MOL0     C 4567   3.278   2.940   8.214  0.2138 -0.6270 -0.0996
   34MOL0     C 4568   3.279   2.981   8.357  0.7129 -0.3409  0.3901
   34MOL0     C 4569   3.390   2.921   8.441 -0.6919 -0.5828  0.2631
   34MOL0     C 4570   3.368   2.772   8.482 -0.5262 -0.1667  0.5290
   34MOL0     N 4571   3.493   2.711   8.542 -0.2720  0.1751 -0.1939
   34MOL0     C 4572   3.546   2.587   8.507  0.1012 -0.5989  0.4424
   34MOL0     C 4573   3.624   2.544   8.609 -0.0942  0.6975 -0.0780
   34MOL0     C 4574   3.675   2.399   8.601 -0.1782  1.3124  0.4259
   34MOL0     C 4575   3.790   2.382   8.698  0.1021  0.4502  0.2409
   34MOL0     C 4576   3.841   2.235   8.692  0.6646 -0.2207 -0.4187
   34MOL0     C 4577   3.954   2.221   8.795 -1.0462  0.2428  0.0722
   34MOL0     O 4578   4.047   2.322   8.757 -0.3944  1.0304  0.6444
   34MOL0     C 4579   4.170   2.338   8.818  0.3310 -1.4227  0.3988
   34MOL0     C 4580   4.238   2.238   8.889  0.2516  0.3494 -0.3287
   34MOL0     C 4581   4.357   2.264   8.957 -0.1964 -0.7259 -0.4747
   34MOL0     C 4582   4.426   2.154   9.031 -0.7847  0.4563 -0.6572
   34MOL0     C 4583   4.416   2.397   8.936 -0.6187 -0.0497  0.4036
   34MOL0     C 4584   4.549   2.435   8.989  0.2738 -0.1801 -0.9050
   34MOL0     O 4585   4.630   2.515   8.913 -0.4820 -0.4712 -0.2713
   34MOL0     C 4586   4.743   2.560   8.978  0.4847  0.9897 -0.2713
   34MOL0     C 4587   4.862   2.541   8.899  1.0101 -0.5653  0.3763
   34MOL0     C 4588   4.980   2.603   8.946 -0.7315  0.5808 -0.4241
   34MOL0     C 4589   4.991   2.660   9.074 -0.2577 -0.7911  0.1206
   34MOL0     O 4590   5.108   2.725   9.097 -0.3856  0.0022 -0.1513
   34MOL0     C 4591   5.118   2.823   9.199  0.8299 -0.5708 -0.3905
   34MOL0     C 4592   5.057   2.948   9.146  0.1083 -0.0076 -0.3418
   34MOL0     C 4593   5.081   3.073   9.233  0.6526 -0.4060  0.1379
   34MOL0     C 4594   5.231   3.108   9.242  0.1714  0.9191  0.0854
   34MOL0     C 4595   5.246   3.242   9.311  0.1694  1.0848 -0.8322
   34MOL0     C 4596   5.374   3.309   9.256 -0.3013 -0.0629  0.1977
   34MOL0     C 4597   5.412   3.422   9.357  0.3724 -0.0405  0.2175
   34MOL0     C 4598   5.528   3.507   9.308 -0.8634  0.3061  0.3046
   34MOL0    Cl 4599   5.570   3.643   9.412 -0.0265  0.1562 -0.0905
   34MOL0     C 4600   4.868   2.669   9.150 -1.0446  1.0661 -0.2986
   34MOL0     C 4601   4.745   2.627   9.105  0.1323  0.7085  1.0599
   34MOL0     O 4602   4.567   2.396   9.103  0.4345 -0.1840 -0.2431
   34MOL0     C 4603   4.353   2.495   8.854 -0.2966  0.5900  0.0409
   34MOL0     C 4604   4.226   2.466   8.801 -0.4977  0.1454  0.5912
   34MOL0     N 4605   3.627   2.649   8.706 -0.4314  0.0645  0.1031
   34MOL0     N 4606   3.541   2.742   8.662  0.0505  0.2668 -0.8667
   34MOL0     C 4607   2.657   3.285   8.357 -0.3532  0.3567 -0.3508
   34MOL0     C 4608   2.527   3.290   8.408 -0.5930 -0.0189  0.2827
   34MOL0     C 4609   2.075   3.312   8.443 -0.3350 -1.0434  0.1863
   34MOL0     C 4610   2.108   3.334   8.585  0.4061 -0.0438 -0.5036
   34MOL0     C 4611   2.003   3.358   8.676  0.7186 -0.5989 -0.5584
   34MOL0     C 4612   1.866   3.361   8.640  0.4975  0.9146 -0.3452
   34MOL0     O 4613   1.761   3.370   8.726  0.0203  0.3161 -0.5201
   34MOL0     C 4614   1.788   3.404   8.860  0.6254 -0.0072 -0.3252
   34MOL0     C 4615   1.659   3.401   8.938  0.5745 -0.0382  0.2892
   34MOL0     C 4616   1.654   3.276   9.033  0.3480  0.0075  0.3587
   34MOL0     C 4617   1.516   3.244   9.092  0.0187 -0.0744 -0.0680
   34MOL0     C 4618   1.484   3.360   9.181  0.7078  0.5749 -0.0816
   34MOL0     C 4619   1.459   3.436   9.266  0.3289  0.3558 -0.0836
   34MOL0     C 4620   1.837   3.336   8.503  0.0138 -0.5536  1.5007
   34MOL0     C 4621   1.938   3.312   8.404 -0.5909 -0.7419 -0.5370
   34MOL0     C 4622   1.890   3.310   8.264 -0.5558  0.6194 -0.5149
   34MOL0     H 4623   2.357   3.153   8.148  0.3191 -0.0969 -0.7908
   34MOL0     H 4624   2.570   3.143   8.053 -2.1090  0.5838 -0.2950
   34MOL0     H 4625   2.771   3.147   7.994  2.0817 -0.2444 -1.4675
   34MOL0     H 4626   2.804   3.016   8.123  1.3183  0.8406  2.4772
   34MOL0     H 4627   2.988   3.067   7.954 -0.9430 -0.6269  0.6123
   34MOL0     H 4628   3.016   3.217   8.035 -2.8755  1.0213 -1.0466
   34MOL0     H 4629   3.021   3.073   8.266 -0.6711 -2.0370  1.5129
   34MOL0     H 4630   3.018   2.929   8.166 -0.5908  1.4961  0.2777
   34MOL0     H 4631   3.206   3.033   8.025 -1.8800 -0.0562  0.3044
   34MOL0     H 4632   3.223   3.154   8.147 -2.0297  0.8435 -0.4664
   34MOL0     H 4633   3.380   2.938   8.176 -0.3658  0.6279 -1.8381
   34MOL0     H 4634   3.240   2.838   8.206  0.1409 -0.5221 -1.1449
   34MOL0     H 4635   3.284   3.089   8.371 -1.0324 -0.2113  0.2142
   34MOL0     H 4636   3.186   2.944   8.400  0.6374  1.2079  1.6103
   34MOL0     H 4637   3.399   2.989   8.525  0.2009  0.5035 -0.6743
   34MOL0     H 4638   3.485   2.926   8.386 -0.2688 -1.5846  0.8727
   34MOL0     H 4639   3.291   2.762   8.558  0.2542  0.3298  1.3947
   34MOL0     H 4640   3.335   2.715   8.394 -2.1553  0.8160  0.4776
   34MOL0     H 4641   3.513   2.528   8.421 -0.9274  0.4708  0.0709
   34MOL0     H 4642   3.719   2.382   8.502  1.4875 -2.2282  1.6160
   34MOL0     H 4643   3.597   2.323   8.612 -0.5099  1.7414  1.1130
   34MOL0     H 4644   3.862   2.456   8.663  0.7699 -0.8785 -1.2756
   34MOL0     H 4645   3.763   2.420   8.797 -1.8917 -0.6826  0.1928
   34MOL0     H 4646   3.758   2.174   8.728 -0.0634 -0.7089 -2.7645
   34MOL0     H 4647   3.883   2.205   8.595 -1.1139 -1.6739 -0.7885
   34MOL0     H 4648   3.935   2.229   8.902  2.1292  0.2980  0.7405
   34MOL0     H 4649   3.995   2.121   8.780  2.4031  1.5346 -0.0522
   34MOL0     H 4650   4.194   2.139   8.888 -1.2978  0.8691  2.7223
   34MOL0     H 4651   4.435   2.176   9.137 -1.9533 -2.0552  0.0493
   34MOL0     H 4652   4.531   2.151   8.999 -0.8132  0.0381 -0.7232
   34MOL0     H 4653   4.371   2.061   9.014  0.9533 -0.9026  0.7876
   34MOL0     H 4654   4.852   2.502   8.798 -3.5132 -0.3272  0.5312
   34MOL0     H 4655   5.059   2.610   8.872  1.7871  1.3498  2.1439
   34MOL0     H 4656   5.068   2.793   9.292 -1.2854  2.0004 -0.5834
   34MOL0     H 4657   5.223   2.846   9.221  0.0705  3.1745  0.0359
   34MOL0     H 4658   5.094   2.969   9.046  2.0095 -2.4245 -0.2416
   34MOL0     H 4659   4.948   2.944   9.145 -0.2121  2.8767  2.9529
   34MOL0     H 4660   5.035   3.058   9.331 -0.5169 -1.4663 -0.5454
   34MOL0     H 4661   5.037   3.159   9.182  0.4160 -0.7061 -0.1675
   34MOL0     H 4662   5.271   3.129   9.143  0.5076 -1.3694 -0.3211
   34MOL0     H 4663   5.287   3.032   9.297 -1.7675 -1.3654 -0.9071
   34MOL0     H 4664   5.152   3.298   9.301 -3.3708 -2.7181  4.9836
   34MOL0     H 4665   5.252   3.221   9.418 -1.8942 -0.3294 -0.9293
   34MOL0     H 4666   5.341   3.355   9.163 -1.6706 -1.3274  0.0262
   34MOL0     H 4667   5.456   3.238   9.241  1.8790  2.2596  0.5046
   34MOL0     H 4668   5.429   3.377   9.455 -0.6709  3.5749  2.2555
   34MOL0     H 4669   5.327   3.489   9.369 -0.6807 -0.5378 -3.2557
   34MOL0     H 4670   5.507   3.557   9.214  0.0117  0.1130 -0.0097
   34MOL0     H 4671   5.625   3.456   9.296 -0.3604  1.3516 -0.1942
   34MOL0     H 4672   4.868   2.690   9.256 -2.6890 -1.6819  0.3326
   34MOL0     H 4673   4.659   2.624   9.172 -2.3411 -0.9438 -1.9281
   34MOL0     H 4674   4.406   2.589   8.842  0.6993  0.6454  3.8762
   34MOL0     H 4675   4.169   2.540   8.746  1.0420  2.3294  1.7589
   34MOL0     H 4676   2.736   3.317   8.424 -0.0471 -0.5625 -0.2533
   34MOL0     H 4677   2.503   3.327   8.507  0.7188 -2.1491  1.4652
   34MOL0     H 4678   2.212   3.346   8.612  0.7896 -3.0898 -0.3067
   34MOL0     H 4679   2.045   3.374   8.775  2.8073 -3.1022 -0.9378
   34MOL0     H 4680   1.861   3.338   8.907  2.1294  3.1380  2.1895
   34MOL0     H 4681   1.829   3.505   8.847 -2.9325  1.4842 -1.1396
   34MOL0     H 4682   1.569   3.405   8.875  0.5910  0.1519  0.2782
   34MOL0     H 4683   1.652   3.486   9.006  0.4827  2.4736 -2.6709
   34MOL0     H 4684   1.677   3.186   8.975  0.6430 -0.3475  1.0213
   34MOL0     H 4685   1.732   3.280   9.109 -1.3555 -3.8282  2.5825
   34MOL0     H 4686   1.523   3.151   9.148 -3.3534 -1.1719 -1.2168
   34MOL0     H 4687   1.446   3.236   9.008  2.1652 -1.3953 -1.8161
   34MOL0     H 4688   1.437   3.507   9.343  1.7958 -0.0703  0.7833
   34MOL0     H 4689   1.730   3.331   8.486  0.4048 -1.3406 -1.3730
   34MOL0     H 4690   1.859   3.208   8.239  0.4503  0.4949 -1.3131
   34MOL0     H 4691   1.797   3.368   8.255 -0.4306  0.6555 -1.8413
   34MOL0     H 4692   1.957   3.358   8.192 -1.4721  0.2776 -1.6383
   35MOL0     O 4693  11.071   6.183   2.624  0.1800 -0.1486  0.5321
   35MOL0     C 4694  11.018   6.213   2.729  0.5522 -0.4406 -0.3614
   35MOL0     O 4695  11.078   6.242   2.851 -0.1220  0.0887  0.0933
   35MOL0     C 4696  11.211   6.208   2.861 -0.4904  0.2332 -0.4161
   35MOL0     C 4697  11.265   6.089   2.815  0.2767 -0.8576 -0.0035
   35MOL0     C 4698  11.400   6.054   2.846  0.0696 -0.0161  0.0503
   35MOL0     C 4699  11.478   6.137   2.921 -0.0885 -0.5370 -0.0620
   35MOL0     O 4700  11.600   6.095   2.958 -0.3301  0.1071  0.9352
   35MOL0     C 4701  11.681   6.163   3.062  0.6920 -1.8183 -0.4785
   35MOL0     C 4702  11.808   6.081   3.069 -0.0612  0.5854 -0.0045
   35MOL0     C 4703  11.903   6.136   3.179  0.1608  0.3854  0.7380
   35MOL0     C 4704  12.020   6.047   3.181 -0.8484 -0.6185 -0.4743
   35MOL0     C 4705  12.103   6.089   3.301  0.0141  0.0333 -0.7560
   35MOL0     C 4706  12.215   5.986   3.312 -0.1554  0.0717  0.2658
   35MOL0     C 4707  12.316   6.015   3.420 -0.0095  0.3915 -0.6200
   35MOL0     C 4708  12.385   5.895   3.464 -0.7708  0.4048  0.0070
   35MOL0     N 4709  12.495   5.941   3.549 -0.2125  0.2896  0.2283
   35MOL0     C 4710  12.496   5.968   3.681 -0.1030 -0.3300  0.2232
   35MOL0     C 4711  12.631   5.989   3.706  0.9585 -0.7137 -1.1445
   35MOL0     C 4712  12.681   6.010   3.845  0.0462 -0.1373 -0.0721
   35MOL0     C 4713  12.594   6.105   3.929 -0.2319  0.7092 -0.2379
   35MOL0     C 4714  12.680   6.218   3.978  0.0928  0.0881 -0.0063
   35MOL0     C 4715  12.746   6.194   4.113 -0.3016  0.1447  0.4588
   35MOL0     O 4716  12.822   6.068   4.121  0.8211 -0.5794 -0.4010
   35MOL0     C 4717  12.948   6.052   4.075  0.1282  0.3556 -0.4244
   35MOL0     C 4718  13.035   6.153   4.026 -0.8630  0.4189  0.3560
   35MOL0     C 4719  13.161   6.116   3.972 -0.2979  0.0248  0.0056
   35MOL0     C 4720  13.244   6.236   3.922  0.0841 -0.4105  0.7617
   35MOL0     C 4721  13.205   5.984   3.977  0.2015 -0.4207  0.5719
   35MOL0     C 4722  13.337   5.938   3.943 -0.7296 -0.1819  0.4160
   35MOL0     O 4723  13.430   6.022   3.887 -0.2864 -0.2509 -0.3199
   35MOL0     C 4724  13.561   5.990   3.872 -0.0683  0.0615  0.3694
   35MOL0     C 4725  13.631   5.909   3.964  0.4119  0.9945  1.4397
   35MOL0     C 4726  13.766   5.897   3.952 -0.4830 -0.1085  0.1633
   35MOL0     C 4727  13.834   5.952   3.839  0.4382 -0.2857  0.5234
   35MOL0     O 4728  13.969   5.957   3.820  0.2282  0.6672  1.1168
   35MOL0     C 4729  14.049   5.940   3.939 -0.0924  0.9806  0.7665
   35MOL0     C 4730  14.190   5.992   3.910  0.7722 -0.0083  0.5708
   35MOL0     C 4731  14.278   5.887   3.837 -0.1066  0.3777  0.4216
   35MOL0     C 4732  14.425   5.922   3.841  0.8540 -0.5278  0.6312
   35MOL0     C 4733  14.497   5.826   3.746  0.6345 -0.4418 -1.2201
   35MOL0     C 4734  14.651   5.840   3.759  0.2107 -0.8255  0.1432
   35MOL0     C 4735  14.702   5.727   3.670  0.7954  1.5162  0.0502
   35MOL0     C 4736  14.857   5.711   3.677 -0.7370 -0.4884 -0.0808
   35MOL0    Cl 4737  14.920   5.836   3.570  0.1539 -0.1354  0.7745
   35MOL0     C 4738  13.764   6.014   3.743  0.0168  0.1404 -0.2917
   35MOL0     C 4739  13.625   6.028   3.751 -0.1620 -0.2636  0.4909
   35MOL0     O 4740  13.348   5.817   3.937  0.0808  0.8282  0.1859
   35MOL0     C 4741  13.116   5.887   4.020  0.8605  0.2564 -0.5808
   35MOL0     C 4742  12.991   5.918   4.068  0.3208  0.4574  0.4358
   35MOL0     N 4743  12.704   5.980   3.594  0.3995  0.0050  0.2822
   35MOL0     N 4744  12.619   5.961   3.499  0.4917  0.6737  0.6520
   35MOL0     C 4745  11.420   6.253   2.975  0.5145  0.4273  0.1916
   35MOL0     C 4746  11.285   6.280   2.948 -0.0042 -0.5154  0.2873
   35MOL0     C 4747  10.866   6.210   2.737 -0.2078  0.4292  0.4289
   35MOL0     C 4748  10.811   6.225   2.871  0.1212 -0.3795  0.1632
   35MOL0     C 4749  10.675   6.235   2.889  0.1990  1.7167  0.7221
   35MOL0     C 4750  10.583   6.209   2.789 -1.0006 -0.3561 -0.3904
   35MOL0     O 4751  10.451   6.233   2.816  0.2191 -0.4607 -0.3554
   35MOL0     C 4752  10.350   6.201   2.720 -0.0004 -0.2969  0.0775
   35MOL0     C 4753  10.214   6.239   2.782  0.6443  0.2002 -0.4241
   35MOL0     C 4754  10.097   6.217   2.674  0.3653 -0.8955  0.1058
   35MOL0     C 4755   9.969   6.287   2.720  0.3056 -0.4842  0.5572
   35MOL0     C 4756   9.927   6.272   2.860 -0.1802  0.2436  0.1617
   35MOL0     C 4757   9.904   6.230   2.974 -0.3145  0.0365  0.8118
   35MOL0     C 4758  10.634   6.189   2.657 -0.1109  0.5513 -1.1872
   35MOL0     C 4759  10.774   6.187   2.633 -0.9217 -0.6384  0.0521
   35MOL0     C 4760  10.819   6.159   2.490  0.7511 -0.0849 -0.2481
   35MOL0     H 4761  11.207   6.022   2.752 -0.2089 -0.3758 -0.0713
   35MOL0     H 4762  11.438   5.961   2.805 -0.9363  0.6258 -2.5563
   35MOL0     H 4763  11.617   6.152   3.151 -1.4749  1.4538 -1.4523
   35MOL0     H 4764  11.695   6.269   3.042  2.6708 -2.1932 -1.3554
   35MOL0     H 4765  11.772   5.984   3.105 -1.9301  1.6094  1.0641
   35MOL0     H 4766  11.858   6.069   2.973 -0.3282  1.9616 -0.3443
   35MOL0     H 4767  11.938   6.234   3.143 -1.3016  0.6742  0.0174
   35MOL0     H 4768  11.850   6.144   3.275  1.5127 -1.6765  1.7232
   35MOL0     H 4769  12.002   5.939   3.185 -1.5466 -0.7336 -3.6497
   35MOL0     H 4770  12.080   6.065   3.091  1.2138 -0.8952  0.7818
   35MOL0     H 4771  12.037   6.094   3.388  1.1421 -0.7047  0.1640
   35MOL0     H 4772  12.145   6.189   3.288 -2.0702  1.2925  1.3690
   35MOL0     H 4773  12.175   5.886   3.334 -1.4303  0.7859  1.2630
   35MOL0     H 4774  12.263   5.974   3.214 -1.4711 -0.8392 -0.3021
   35MOL0     H 4775  12.260   6.061   3.501 -1.2212 -0.0541 -1.1824
   35MOL0     H 4776  12.390   6.086   3.381  0.5040  0.0112 -0.3554
   35MOL0     H 4777  12.314   5.825   3.509  2.2848 -2.3272  0.9063
   35MOL0     H 4778  12.424   5.843   3.376  1.3362 -0.0429  1.1344
   35MOL0     H 4779  12.414   5.964   3.752  0.6611  3.9119  1.6809
   35MOL0     H 4780  12.783   6.048   3.841  0.7296 -1.8889 -4.2504
   35MOL0     H 4781  12.689   5.908   3.884 -3.2347 -1.0504 -1.4429
   35MOL0     H 4782  12.505   6.127   3.870 -0.7239 -3.0207 -1.1416
   35MOL0     H 4783  12.560   6.045   4.013  0.9104  0.3829  0.0191
   35MOL0     H 4784  12.752   6.248   3.901  2.5322  2.8726  3.0630
   35MOL0     H 4785  12.613   6.303   3.993  0.4579  0.1403  1.5113
   35MOL0     H 4786  12.824   6.269   4.132 -0.6664  1.6151 -3.0018
   35MOL0     H 4787  12.669   6.205   4.190  1.4131 -0.2226  2.3111
   35MOL0     H 4788  13.010   6.259   4.029 -0.2035  0.6855 -1.7371
   35MOL0     H 4789  13.313   6.227   3.837 -0.0590 -0.5299  0.6575
   35MOL0     H 4790  13.310   6.275   4.001  0.5200 -0.6519  0.5182
   35MOL0     H 4791  13.173   6.318   3.910  0.1077  0.1235  3.6461
   35MOL0     H 4792  13.572   5.863   4.043 -1.4630  0.2406 -0.3260
   35MOL0     H 4793  13.823   5.823   4.006 -0.7754  1.7644  3.2418
   35MOL0     H 4794  14.014   6.009   4.017  0.4804  1.7026  0.3924
   35MOL0     H 4795  14.048   5.835   3.971 -0.8273  1.4020  2.2160
   35MOL0     H 4796  14.186   6.081   3.846  1.9929 -0.6822 -0.4900
   35MOL0     H 4797  14.241   6.026   4.001  2.1516  1.9431 -0.8365
   35MOL0     H 4798  14.242   5.881   3.734  1.8959 -0.5941 -0.2715
   35MOL0     H 4799  14.269   5.789   3.885  0.0379  1.1196  2.0189
   35MOL0     H 4800  14.461   5.915   3.944  3.1240  2.3158  0.1409
   35MOL0     H 4801  14.426   6.025   3.805 -1.7980 -0.6542 -0.0365
   35MOL0     H 4802  14.471   5.725   3.780  2.1349 -0.5600 -0.3029
   35MOL0     H 4803  14.464   5.841   3.643 -2.7707  1.0198 -0.0765
   35MOL0     H 4804  14.674   5.829   3.865 -2.2376 -2.2472  0.6189
   35MOL0     H 4805  14.677   5.939   3.720 -2.0001  1.0639  3.0369
   35MOL0     H 4806  14.670   5.738   3.566 -2.6160 -1.7985  0.5223
   35MOL0     H 4807  14.648   5.637   3.701 -0.1164  0.1856 -4.5740
   35MOL0     H 4808  14.879   5.610   3.642  0.1014 -0.7889  1.2393
   35MOL0     H 4809  14.891   5.721   3.780 -0.6818 -2.3743  0.1071
   35MOL0     H 4810  13.820   6.057   3.660  3.3034  2.1432  2.6971
   35MOL0     H 4811  13.563   6.071   3.673  1.7666 -2.2048 -2.2856
   35MOL0     H 4812  13.137   5.781   4.028  0.6053  0.2319 -0.2275
   35MOL0     H 4813  12.923   5.838   4.096  0.1176  1.2398  2.3209
   35MOL0     H 4814  11.478   6.306   3.050  1.8957 -3.0817  1.8656
   35MOL0     H 4815  11.241   6.361   3.006  1.8935  1.3463 -0.7006
   35MOL0     H 4816  10.876   6.226   2.959 -0.9306 -0.6312  0.9644
   35MOL0     H 4817  10.626   6.240   2.986 -0.3544 -2.7410  0.9121
   35MOL0     H 4818  10.373   6.255   2.628 -0.1752  0.9346  0.7325
   35MOL0     H 4819  10.338   6.093   2.710 -4.5137 -0.1725  1.7807
   35MOL0     H 4820  10.219   6.344   2.814  1.1045 -0.3609  1.5042
   35MOL0     H 4821  10.190   6.178   2.870 -5.3530 -0.3453 -1.9761
   35MOL0     H 4822  10.134   6.257   2.579 -1.6106 -1.9938 -1.1921
   35MOL0     H 4823  10.069   6.114   2.652 -3.0352 -0.5019  1.9153
   35MOL0     H 4824   9.886   6.253   2.657  0.0917 -0.6818  0.9411
   35MOL0     H 4825   9.977   6.396   2.713  1.8044 -0.1998  4.2969
   35MOL0     H 4826   9.884   6.196   3.073  1.6886 -4.3250 -0.0506
   35MOL0     H 4827  10.575   6.173   2.567  0.1189 -1.3076 -1.0396
   35MOL0     H 4828  10.740   6.135   2.418  3.2943 -4.3310 -2.0180
   35MOL0     H 4829  10.874   6.249   2.460  0.3543  0.0686 -0.5138
   35MOL0     H 4830  10.880   6.068   2.485  1.1479  0.1163  0.6397
   36MOL0     O 4831   3.385   2.973   4.261 -0.7485 -0.6377 -0.0771
   36MOL0     C 4832   3.448   2.877   4.304 -0.3164 -0.0019 -0.1315
   36MOL0     O 4833   3.388   2.771   4.371  0.4210  0.3307  0.4905
   36MOL0     C 4834   3.263   2.798   4.428  0.3475 -1.3265  0.8221
   36MOL0     C 4835   3.155   2.801   4.341  0.7958 -0.2573  0.2303
   36MOL0     C 4836   3.028   2.817   4.394  0.0785 -1.3373  0.5094
   36MOL0     C 4837   3.002   2.811   4.531 -0.3841 -0.1303 -0.3717
   36MOL0     O 4838   2.890   2.802   4.603  0.8677 -0.0173  0.6619
   36MOL0     C 4839   2.780   2.882   4.565 -0.7354  0.1778  0.6193
   36MOL0     C 4840   2.669   2.909   4.675 -0.1443 -0.2810  0.3830
   36MOL0     C 4841   2.595   2.781   4.709 -0.5304  0.2547 -0.4426
   36MOL0     C 4842   2.491   2.808   4.822  0.5784 -0.7253  0.2394
   36MOL0     C 4843   2.488   2.694   4.915 -0.3642  0.2817 -0.4027
   36MOL0     C 4844   2.357   2.704   4.993 -0.4238  0.7787 -0.5377
   36MOL0     C 4845   2.350   2.617   5.121 -0.1714 -0.3159 -0.1252
   36MOL0     C 4846   2.236   2.625   5.203  0.7749  0.1036 -0.1829
   36MOL0     N 4847   2.243   2.516   5.302 -0.1132  0.1438  0.2822
   36MOL0     C 4848   2.344   2.485   5.397 -0.0025  0.3163  0.2492
   36MOL0     C 4849   2.312   2.365   5.449 -0.0305 -0.2818 -0.2373
   36MOL0     C 4850   2.385   2.282   5.543  0.2500  0.1413 -0.9637
   36MOL0     C 4851   2.537   2.253   5.526  2.1263 -0.1214  0.2299
   36MOL0     C 4852   2.604   2.214   5.659 -0.3818  0.1354  0.7473
   36MOL0     C 4853   2.758   2.192   5.639  0.1437 -0.0328 -1.8801
   36MOL0     O 4854   2.803   2.117   5.749  0.5033  0.4238  0.4261
   36MOL0     C 4855   2.936   2.098   5.770  0.2634 -0.3604  1.0737
   36MOL0     C 4856   3.029   2.101   5.668 -0.2753  0.4992  0.4495
   36MOL0     C 4857   3.165   2.081   5.671  0.2942 -0.2016 -0.2586
   36MOL0     C 4858   3.237   2.071   5.545  0.7498 -0.2814 -0.5976
   36MOL0     C 4859   3.219   2.061   5.798  0.3269  0.7688  0.3214
   36MOL0     C 4860   3.368   2.021   5.826 -0.9739  0.8218  1.1384
   36MOL0     O 4861   3.460   2.069   5.742  0.0303 -0.1072 -0.2964
   36MOL0     C 4862   3.583   2.102   5.787 -0.3092  0.3247  0.3573
   36MOL0     C 4863   3.687   2.069   5.705  0.0246  0.0123  0.3310
   36MOL0     C 4864   3.821   2.087   5.748  0.4827 -0.0125  0.5792
   36MOL0     C 4865   3.845   2.159   5.858  1.0736 -0.6194  0.5186
   36MOL0     O 4866   3.969   2.186   5.889 -0.3150 -0.3668  0.1861
   36MOL0     C 4867   4.012   2.267   6.000  0.5620 -0.4045 -0.7810
   36MOL0     C 4868   4.158   2.280   5.985 -1.1351  0.1878 -0.2260
   36MOL0     C 4869   4.213   2.355   6.107 -0.8117  0.8256  0.3453
   36MOL0     C 4870   4.236   2.276   6.228  0.4652  0.3412  0.0182
   36MOL0     C 4871   4.325   2.360   6.318  0.5071 -0.2225  0.2040
   36MOL0     C 4872   4.372   2.274   6.434 -0.2123 -0.2858 -0.3734
   36MOL0     C 4873   4.500   2.325   6.511  0.3090  0.1567  0.2898
   36MOL0     C 4874   4.626   2.322   6.421  1.4756 -0.4275  0.4417
   36MOL0    Cl 4875   4.767   2.348   6.504 -0.4565  0.4367 -0.1017
   36MOL0     C 4876   3.733   2.208   5.935 -0.7896 -0.9364  0.2882
   36MOL0     C 4877   3.604   2.178   5.904  0.2809  0.4129  1.3413
   36MOL0     O 4878   3.391   1.981   5.936 -0.0220 -0.0489  0.5334
   36MOL0     C 4879   3.133   2.065   5.912  0.5698  0.8137  0.1324
   36MOL0     C 4880   2.992   2.080   5.896 -0.6469  0.4983  0.4377
   36MOL0     N 4881   2.185   2.326   5.390 -0.5759  0.6194  0.6595
   36MOL0     N 4882   2.162   2.410   5.299 -0.0128  0.1573 -0.0181
   36MOL0     C 4883   3.114   2.799   4.614  0.9662 -0.7727 -0.7045
   36MOL0     C 4884   3.242   2.801   4.567 -0.4072  0.4167  0.5552
   36MOL0     C 4885   3.584   2.866   4.248  0.3866  0.4228  0.2949
   36MOL0     C 4886   3.653   2.741   4.266 -0.2862  0.5408 -0.1900
   36MOL0     C 4887   3.786   2.737   4.233 -0.0518 -0.2046 -0.5956
   36MOL0     C 4888   3.864   2.848   4.175 -0.4604  0.5425  0.3431
   36MOL0     O 4889   4.001   2.838   4.152  0.6187 -0.2263 -0.5181
   36MOL0     C 4890   4.066   2.950   4.099  0.1496 -0.3841 -0.3211
   36MOL0     C 4891   4.101   3.049   4.215  0.5919  0.0311  0.7173
   36MOL0     C 4892   4.178   3.174   4.149 -0.6228  0.4787  0.1936
   36MOL0     C 4893   4.323   3.135   4.130 -0.6024  0.5702  0.6385
   36MOL0     C 4894   4.409   3.236   4.076  0.4497 -0.6097 -0.9082
   36MOL0     C 4895   4.487   3.312   4.028 -0.2123 -0.2875 -0.6892
   36MOL0     C 4896   3.782   2.953   4.142 -0.2612 -0.0215 -0.1189
   36MOL0     C 4897   3.649   2.971   4.179  0.4272  0.3387 -0.0067
   36MOL0     C 4898   3.589   3.106   4.136 -0.5017 -0.5855  0.2548
   36MOL0     H 4899   3.165   2.809   4.233 -1.2570  0.5972  0.0543
   36MOL0     H 4900   2.944   2.828   4.327  0.7759  0.5752 -0.1059
   36MOL0     H 4901   2.731   2.837   4.478  0.1134  1.9968 -0.8804
   36MOL0     H 4902   2.811   2.985   4.545  0.7278 -0.2666  0.4519
   36MOL0     H 4903   2.710   2.961   4.762  3.0938  0.7303 -1.5352
   36MOL0     H 4904   2.592   2.977   4.639  0.8067 -0.3632 -2.0287
   36MOL0     H 4905   2.534   2.737   4.630 -1.3152  0.0859  0.2373
   36MOL0     H 4906   2.663   2.702   4.743  0.8896  2.1658  1.4758
   36MOL0     H 4907   2.522   2.898   4.876 -0.5741  0.5395 -1.1204
   36MOL0     H 4908   2.391   2.824   4.781  1.2655 -1.3348 -1.8361
   36MOL0     H 4909   2.576   2.701   4.980  0.6890  1.4368 -1.8838
   36MOL0     H 4910   2.485   2.595   4.867  0.9042  0.8015 -1.6438
   36MOL0     H 4911   2.347   2.811   5.016  0.8566  0.4233  1.9498
   36MOL0     H 4912   2.267   2.694   4.931 -0.8958 -3.5782  0.5568
   36MOL0     H 4913   2.435   2.646   5.183 -0.3003  0.7488 -0.4220
   36MOL0     H 4914   2.368   2.516   5.081  1.1066 -0.2593  0.2520
   36MOL0     H 4915   2.215   2.723   5.247 -4.1529 -0.1568 -1.4504
   36MOL0     H 4916   2.149   2.620   5.137  1.7829 -1.4923 -1.4732
   36MOL0     H 4917   2.430   2.549   5.413  0.7185  0.0727 -2.2168
   36MOL0     H 4918   2.328   2.189   5.540  1.3608 -0.5493 -1.2404
   36MOL0     H 4919   2.374   2.333   5.640  0.0801 -0.6531 -0.5544
   36MOL0     H 4920   2.538   2.173   5.452 -1.2579 -0.9044  0.8384
   36MOL0     H 4921   2.579   2.343   5.480 -1.1687  1.3409 -0.1999
   36MOL0     H 4922   2.596   2.303   5.722  0.0851  0.3732  0.4734
   36MOL0     H 4923   2.558   2.124   5.702  1.3060 -1.1103  0.0606
   36MOL0     H 4924   2.770   2.143   5.541 -2.6692  1.3374 -3.0214
   36MOL0     H 4925   2.804   2.286   5.610  1.6661 -0.4937 -1.0447
   36MOL0     H 4926   2.998   2.130   5.568  0.6194  0.7580  0.2357
   36MOL0     H 4927   3.259   1.967   5.518  1.1362 -0.0696 -1.1185
   36MOL0     H 4928   3.325   2.136   5.539  0.5134 -0.0456 -1.9517
   36MOL0     H 4929   3.176   2.089   5.456 -1.4503  0.7349  1.0120
   36MOL0     H 4930   3.670   2.017   5.612 -1.1936 -1.1284  1.1425
   36MOL0     H 4931   3.909   2.062   5.690  1.6436  0.3314  2.1281
   36MOL0     H 4932   3.973   2.369   5.994  2.1049  0.2561 -0.2368
   36MOL0     H 4933   3.988   2.226   6.099 -0.7818  0.5528 -0.6870
   36MOL0     H 4934   4.203   2.180   5.983 -1.2831 -0.0398  3.0053
   36MOL0     H 4935   4.185   2.337   5.895  0.4067  0.7919  0.5730
   36MOL0     H 4936   4.152   2.444   6.128 -2.0725 -0.4581  2.6136
   36MOL0     H 4937   4.314   2.385   6.077 -0.6685  1.8142  1.7126
   36MOL0     H 4938   4.291   2.186   6.200  0.1943  0.1734  0.0187
   36MOL0     H 4939   4.146   2.243   6.280  0.3879  1.3320  0.5408
   36MOL0     H 4940   4.417   2.367   6.259  1.4357 -4.4218  0.8557
   36MOL0     H 4941   4.284   2.458   6.345 -3.9771 -1.3065 -1.6758
   36MOL0     H 4942   4.403   2.172   6.407  2.4172  0.3515 -0.1239
   36MOL0     H 4943   4.283   2.260   6.496  0.0091 -0.9071 -0.1822
   36MOL0     H 4944   4.529   2.258   6.592  1.2370 -0.3021 -0.4012
   36MOL0     H 4945   4.488   2.426   6.551 -0.7029  0.6267 -1.1059
   36MOL0     H 4946   4.618   2.394   6.340  3.3607 -1.2539 -0.5374
   36MOL0     H 4947   4.639   2.228   6.367  1.4331  0.1594 -0.6078
   36MOL0     H 4948   3.752   2.274   6.019  0.2889 -0.1912 -0.5110
   36MOL0     H 4949   3.522   2.209   5.968 -1.2834 -0.8765  0.0793
   36MOL0     H 4950   3.176   2.038   6.009  2.2489 -0.9893 -1.0260
   36MOL0     H 4951   2.931   2.074   5.986  2.1985  2.3018  2.6667
   36MOL0     H 4952   3.095   2.788   4.720  1.3509  1.2962 -0.3728
   36MOL0     H 4953   3.329   2.792   4.631 -1.4184  1.4301  2.1251
   36MOL0     H 4954   3.605   2.655   4.309 -0.0748  1.4845  2.1001
   36MOL0     H 4955   3.855   2.659   4.263 -0.8104 -0.5902  0.1905
   36MOL0     H 4956   4.162   2.911   4.064  1.5414  0.2131  2.4805
   36MOL0     H 4957   4.001   2.997   4.026 -3.9028  0.5398  3.4428
   36MOL0     H 4958   4.169   3.002   4.287  0.2644  0.8156  1.5550
   36MOL0     H 4959   4.007   3.078   4.261 -0.1107 -0.7573 -0.1894
   36MOL0     H 4960   4.141   3.196   4.048  1.9107  1.3486 -0.6244
   36MOL0     H 4961   4.165   3.248   4.228 -1.6214 -1.9015  2.4160
   36MOL0     H 4962   4.322   3.054   4.057 -2.6025  0.5713  0.6143
   36MOL0     H 4963   4.375   3.079   4.209 -0.2875  1.8145  1.3409
   36MOL0     H 4964   4.557   3.391   4.008 -1.7571  1.9068  1.9370
   36MOL0     H 4965   3.825   3.042   4.095  0.9514 -0.7970 -0.5277
   36MOL0     H 4966   3.661   3.165   4.079 -0.5197 -1.2037 -0.4181
   36MOL0     H 4967   3.499   3.099   4.075  0.4786  0.6164 -1.4325
   36MOL0     H 4968   3.559   3.167   4.222  0.5212  0.6029 -0.1929
   37MOL0     O 4969  11.048   0.442   8.018 -0.4221 -0.2328  0.2126
   37MOL0     C 4970  11.166   0.404   8.001 -0.6920 -0.9994 -0.2801
   37MOL0     O 4971  11.273   0.449   8.072  0.0703 -0.2423  0.2918
   37MOL0     C 4972  11.237   0.545   8.162  0.3498  0.2668  0.1723
   37MOL0     C 4973  11.218   0.515   8.292 -0.2752 -0.0982 -1.5048
   37MOL0     C 4974  11.177   0.613   8.388  0.0970 -0.0245 -0.2479
   37MOL0     C 4975  11.165   0.745   8.352  1.1648 -0.6749  0.0131
   37MOL0     O 4976  11.108   0.842   8.432  0.7008 -0.6507  0.1146
   37MOL0     C 4977  11.028   0.947   8.383 -0.2912  0.5274  0.4200
   37MOL0     C 4978  10.976   1.042   8.495 -0.2664 -0.3467 -0.1564
   37MOL0     C 4979  11.082   1.143   8.525 -0.3857  0.6892 -0.0246
   37MOL0     C 4980  11.049   1.227   8.652  0.1392 -0.3814  0.1310
   37MOL0     C 4981  11.141   1.348   8.674 -0.7768 -0.8361 -0.9399
   37MOL0     C 4982  11.068   1.425   8.785 -0.1753 -0.1596 -0.6371
   37MOL0     C 4983  11.150   1.552   8.820  0.1391 -0.1244 -0.1485
   37MOL0     C 4984  11.164   1.662   8.720  0.0460  0.4506 -0.1126
   37MOL0     N 4985  11.268   1.626   8.631  0.3408  0.1894 -0.3858
   37MOL0     C 4986  11.265   1.662   8.496 -0.3598  0.3960  0.2938
   37MOL0     C 4987  11.388   1.629   8.450 -0.4200 -0.2783  0.7700
   37MOL0     C 4988  11.427   1.628   8.305  0.5077 -1.1615 -0.9181
   37MOL0     C 4989  11.371   1.508   8.234  0.8538  0.0085 -0.4652
   37MOL0     C 4990  11.211   1.498   8.216  0.1295 -1.5330  0.3105
   37MOL0     C 4991  11.164   1.404   8.115 -0.7775  0.1540  0.9229
   37MOL0     O 4992  11.201   1.273   8.160  0.3652  0.8280  0.0389
   37MOL0     C 4993  11.184   1.173   8.072  0.6853  0.9755  0.1962
   37MOL0     C 4994  11.059   1.143   8.008 -0.3771  0.9441 -0.0464
   37MOL0     C 4995  11.042   1.041   7.911  0.3219  0.2268  0.7122
   37MOL0     C 4996  10.905   1.006   7.851  0.2182  0.0724  0.2510
   37MOL0     C 4997  11.164   0.970   7.865  0.6064  0.6396  0.0002
   37MOL0     C 4998  11.185   0.878   7.757  0.4765  0.0383  0.2573
   37MOL0     O 4999  11.301   0.812   7.745 -0.0716  0.8568 -0.7124
   37MOL0     C 5000  11.323   0.724   7.640 -0.2878 -0.1113  0.0704
   37MOL0     C 5001  11.262   0.602   7.648  0.1216 -1.2262 -0.0515
   37MOL0     C 5002  11.300   0.501   7.558 -0.2034 -0.5597 -0.3723
   37MOL0     C 5003  11.382   0.528   7.441  0.0462  0.2838 -0.2245
   37MOL0     O 5004  11.407   0.435   7.335 -0.2653 -0.1890 -0.2927
   37MOL0     C 5005  11.351   0.304   7.349  0.5207  0.2149 -0.6496
   37MOL0     C 5006  11.380   0.212   7.228  0.3693 -0.1117  0.2725
   37MOL0     C 5007  11.538   0.188   7.221 -1.0381  0.2414 -0.2887
   37MOL0     C 5008  11.574   0.080   7.110 -1.3523  0.1209 -0.0731
   37MOL0     C 5009  11.720   0.048   7.116  0.1398 -0.7988  0.0792
   37MOL0     C 5010  11.757  -0.072   7.022 -0.8969  0.2179 -0.7055
   37MOL0     C 5011  11.761  -0.204   7.105  0.3167 -0.6840 -0.3426
   37MOL0     C 5012  11.851  -0.308   7.034  0.0775 -0.0673 -0.3222
   37MOL0    Cl 5013  11.796  -0.354   6.874  0.3585 -0.1233 -0.4614
   37MOL0     C 5014  11.436   0.658   7.437  0.4728  0.2765 -0.2111
   37MOL0     C 5015  11.407   0.757   7.538  0.3175  0.3784  0.2058
   37MOL0     O 5016  11.093   0.874   7.680 -0.2113  0.7460  0.0621
   37MOL0     C 5017  11.281   1.000   7.945 -0.4642  0.1741 -0.1099
   37MOL0     C 5018  11.294   1.094   8.040  0.3268 -0.3007  0.2433
   37MOL0     N 5019  11.464   1.594   8.560 -0.0901  0.0258  0.2962
   37MOL0     N 5020  11.387   1.583   8.665  0.2716 -0.2537  0.9093
   37MOL0     C 5021  11.184   0.773   8.209  0.6104  0.8155 -0.1989
   37MOL0     C 5022  11.218   0.671   8.109 -0.0393 -0.3698 -0.8139
   37MOL0     C 5023  11.204   0.297   7.910  0.9623  0.3278 -0.1570
   37MOL0     C 5024  11.344   0.254   7.908 -0.0534 -0.4054  0.1120
   37MOL0     C 5025  11.382   0.148   7.821 -1.4710 -0.2156  0.8886
   37MOL0     C 5026  11.289   0.080   7.742 -0.2287 -0.2848 -0.4532
   37MOL0     O 5027  11.325  -0.025   7.656 -0.5168  0.7492  0.2725
   37MOL0     C 5028  11.368  -0.145   7.726  0.5480 -0.6416  0.2045
   37MOL0     C 5029  11.521  -0.146   7.758  0.0543 -0.2335  0.2622
   37MOL0     C 5030  11.598  -0.089   7.642 -0.5302  0.3128  0.1483
   37MOL0     C 5031  11.748  -0.123   7.657  0.0113  0.6724 -0.3684
   37MOL0     C 5032  11.814  -0.041   7.547  0.1999  0.7044 -0.2367
   37MOL0     C 5033  11.881   0.016   7.462  0.2465  0.5587 -0.1135
   37MOL0     C 5034  11.162   0.130   7.735 -0.2899  0.4596  0.3554
   37MOL0     C 5035  11.114   0.234   7.815 -0.1451  1.0878  0.3741
   37MOL0     C 5036  10.973   0.274   7.798 -0.0692 -0.1177  0.1091
   37MOL0     H 5037  11.247   0.416   8.326 -0.8501  0.0076 -0.6640
   37MOL0     H 5038  11.146   0.579   8.486 -1.3654  0.1842 -0.6159
   37MOL0     H 5039  10.946   0.905   8.325 -0.2550 -0.6233  1.1838
   37MOL0     H 5040  11.086   1.012   8.316 -0.6872  1.8837  1.3604
   37MOL0     H 5041  10.892   1.097   8.450 -0.7217 -0.3691  0.6476
   37MOL0     H 5042  10.934   0.995   8.584 -0.8559  0.5968  0.0824
   37MOL0     H 5043  11.182   1.100   8.539  1.3157  4.1471 -0.4873
   37MOL0     H 5044  11.084   1.215   8.443 -1.7725  1.8691  0.9320
   37MOL0     H 5045  10.950   1.265   8.627  0.9638  1.3118 -0.7239
   37MOL0     H 5046  11.038   1.173   8.746 -2.2117  2.1365  1.4360
   37MOL0     H 5047  11.156   1.414   8.587  0.7951 -0.7369 -0.6256
   37MOL0     H 5048  11.237   1.316   8.715 -1.5907  0.6504  2.4244
   37MOL0     H 5049  10.972   1.460   8.748  0.2260  1.6823 -0.0256
   37MOL0     H 5050  11.058   1.372   8.880 -0.8781  2.1684  0.6791
   37MOL0     H 5051  11.244   1.523   8.866 -1.2027 -1.9054  1.6398
   37MOL0     H 5052  11.098   1.594   8.907 -1.6331 -3.2387  0.4430
   37MOL0     H 5053  11.068   1.679   8.671 -0.2167 -1.7932 -0.5068
   37MOL0     H 5054  11.198   1.758   8.761  0.3504  0.8245 -1.2064
   37MOL0     H 5055  11.178   1.684   8.436  0.5660  2.0315 -0.5170
   37MOL0     H 5056  11.535   1.616   8.297  0.6525 -0.4806 -0.0305
   37MOL0     H 5057  11.401   1.719   8.250  2.9290  0.5882  0.6824
   37MOL0     H 5058  11.414   1.520   8.134  0.0275 -2.1110 -1.1513
   37MOL0     H 5059  11.411   1.419   8.283  0.9462  0.8869  1.1276
   37MOL0     H 5060  11.182   1.464   8.316  0.2667  0.0898  0.9346
   37MOL0     H 5061  11.172   1.597   8.191 -1.4616 -2.5780 -1.5468
   37MOL0     H 5062  11.056   1.411   8.099 -0.6520 -2.5121 -1.9672
   37MOL0     H 5063  11.218   1.418   8.021 -3.5212 -3.2069 -1.4236
   37MOL0     H 5064  10.971   1.197   8.040 -0.8114 -0.9747  2.2613
   37MOL0     H 5065  10.912   0.990   7.743  1.6787 -1.1916  0.4986
   37MOL0     H 5066  10.839   1.089   7.874  0.8325  0.7717 -0.4711
   37MOL0     H 5067  10.867   0.908   7.881 -1.2842  0.6500  0.3106
   37MOL0     H 5068  11.205   0.579   7.738  2.0092  1.1459  1.8886
   37MOL0     H 5069  11.255   0.406   7.587 -2.7437  1.0255  1.2354
   37MOL0     H 5070  11.389   0.267   7.444  1.9404 -0.0843 -1.3148
   37MOL0     H 5071  11.244   0.306   7.370  0.4321 -1.5429 -0.7236
   37MOL0     H 5072  11.327   0.117   7.232  1.5082 -0.7223  1.6770
   37MOL0     H 5073  11.358   0.269   7.137  0.5941  0.1055  0.3503
   37MOL0     H 5074  11.579   0.155   7.317 -2.0656  0.0124  0.0776
   37MOL0     H 5075  11.592   0.278   7.189  0.9382  0.6939  3.6999
   37MOL0     H 5076  11.551   0.124   7.013 -1.5718 -0.2484 -0.1913
   37MOL0     H 5077  11.508  -0.007   7.114  1.2055 -2.0377 -1.3728
   37MOL0     H 5078  11.778   0.137   7.092 -1.5545  0.2848 -0.1129
   37MOL0     H 5079  11.734   0.007   7.217 -0.4859 -1.2418 -0.0089
   37MOL0     H 5080  11.857  -0.058   6.981 -1.0744 -0.9041 -1.5440
   37MOL0     H 5081  11.682  -0.083   6.943 -1.3437  0.6488 -0.3520
   37MOL0     H 5082  11.658  -0.240   7.114 -0.0234 -0.3579 -2.3696
   37MOL0     H 5083  11.801  -0.190   7.206  3.1279 -3.7465 -0.8367
   37MOL0     H 5084  11.847  -0.396   7.098  0.6126  1.7469  2.3579
   37MOL0     H 5085  11.952  -0.268   7.020  0.0682 -0.2438 -0.9366
   37MOL0     H 5086  11.497   0.684   7.351  0.9771  0.3032  0.1462
   37MOL0     H 5087  11.458   0.853   7.542  3.0548 -0.9838  0.2969
   37MOL0     H 5088  11.379   0.956   7.928 -0.7804 -0.2925 -0.7781
   37MOL0     H 5089  11.381   1.112   8.102 -0.8112  1.2147  1.4512
   37MOL0     H 5090  11.166   0.869   8.161 -1.3332  0.7580  0.3489
   37MOL0     H 5091  11.245   0.702   8.008  2.4836 -2.7640 -0.9752
   37MOL0     H 5092  11.427   0.300   7.962  1.3057 -0.5381 -1.7801
   37MOL0     H 5093  11.485   0.114   7.825 -0.6504  1.9044 -0.2731
   37MOL0     H 5094  11.313  -0.163   7.820  0.9292  0.4636  0.6597
   37MOL0     H 5095  11.349  -0.229   7.658  0.4038 -0.3896 -0.0685
   37MOL0     H 5096  11.542  -0.252   7.776 -1.1393 -1.0394 -2.6197
   37MOL0     H 5097  11.540  -0.094   7.853 -1.6873  1.0123 -0.0290
   37MOL0     H 5098  11.563  -0.132   7.548  0.2903  0.0767 -0.0553
   37MOL0     H 5099  11.602   0.020   7.643  2.8095  0.2777  0.6604
   37MOL0     H 5100  11.773  -0.227   7.638 -0.0985  0.9093 -1.9045
   37MOL0     H 5101  11.801  -0.094   7.748  1.6516 -2.2687 -0.2776
   37MOL0     H 5102  11.939   0.050   7.379 -0.3403  0.2169 -0.6651
   37MOL0     H 5103  11.092   0.083   7.666 -1.7649  3.1656 -0.1427
   37MOL0     H 5104  10.910   0.219   7.728 -0.1270 -1.2967  1.0589
   37MOL0     H 5105  10.927   0.255   7.895 -0.6655 -0.1936 -0.1834
   37MOL0     H 5106  10.975   0.382   7.781  0.3857  0.2011  1.9981
   38MOL0     O 5107   6.579   5.672   1.905  0.3858 -0.2959  0.7903
   38MOL0     C 5108   6.533   5.783   1.865 -0.0814  0.7812 -0.5251
   38MOL0     O 5109   6.605   5.900   1.860  0.3614  0.3275 -0.1664
   38MOL0     C 5110   6.728   5.889   1.909 -0.1240  0.5277 -0.5339
   38MOL0     C 5111   6.825   5.842   1.821 -1.1640  0.2208 -0.1724
   38MOL0     C 5112   6.959   5.819   1.854 -0.1205  0.7571 -0.8481
   38MOL0     C 5113   6.989   5.842   1.988  0.6231  0.3090  0.0418
   38MOL0     O 5114   7.113   5.809   2.026 -0.0549 -0.5946 -0.3507
   38MOL0     C 5115   7.114   5.702   2.118 -0.9535 -0.2162  0.1180
   38MOL0     C 5116   7.264   5.651   2.117 -0.7242  1.1733  0.4100
   38MOL0     C 5117   7.334   5.650   1.979 -0.1396 -0.6045 -0.0216
   38MOL0     C 5118   7.483   5.619   1.996  0.0126 -0.5043 -0.5245
   38MOL0     C 5119   7.551   5.612   1.857  0.5183  1.2009 -0.1074
   38MOL0     C 5120   7.696   5.637   1.864 -0.3123 -0.5089  0.2651
   38MOL0     C 5121   7.771   5.613   1.731  0.9372 -0.9597 -1.1568
   38MOL0     C 5122   7.796   5.464   1.708  0.0892 -0.1209  0.2111
   38MOL0     N 5123   7.871   5.441   1.585 -0.3110  0.4388  0.4465
   38MOL0     C 5124   7.821   5.452   1.463 -0.1967 -0.2998 -0.4194
   38MOL0     C 5125   7.924   5.463   1.373 -0.3190  0.6490  0.4322
   38MOL0     C 5126   7.932   5.466   1.226  0.5461 -1.4788  0.4956
   38MOL0     C 5127   7.860   5.574   1.154 -0.9137 -0.5837  0.1500
   38MOL0     C 5128   7.906   5.605   1.009  0.2716  0.2944 -0.3117
   38MOL0     C 5129   8.048   5.667   1.008 -0.4747 -0.0827  0.5394
   38MOL0     O 5130   8.151   5.572   1.001 -0.3177 -0.1231  0.3349
   38MOL0     C 5131   8.283   5.622   0.978  0.6005 -0.0673  0.2796
   38MOL0     C 5132   8.325   5.745   1.020  0.1804 -0.0385 -0.4831
   38MOL0     C 5133   8.461   5.793   0.994 -0.4120  0.5295 -0.1799
   38MOL0     C 5134   8.484   5.939   1.044 -0.3338 -1.0061 -0.5729
   38MOL0     C 5135   8.551   5.713   0.922  0.3028 -0.1326  0.1465
   38MOL0     C 5136   8.690   5.743   0.905  0.2035  0.1196 -0.7343
   38MOL0     O 5137   8.757   5.690   0.794 -0.3027 -0.1779  0.0125
   38MOL0     C 5138   8.898   5.695   0.790  0.6194  0.6972 -0.0616
   38MOL0     C 5139   8.975   5.659   0.905 -0.2228  0.2051  0.7319
   38MOL0     C 5140   9.109   5.627   0.891  0.0371 -0.1269  0.2857
   38MOL0     C 5141   9.170   5.630   0.763  0.2562 -0.1071 -0.4256
   38MOL0     O 5142   9.307   5.604   0.762  0.1039  0.0201 -0.1263
   38MOL0     C 5143   9.379   5.602   0.637 -0.3527  0.5479  0.1611
   38MOL0     C 5144   9.510   5.529   0.653 -0.0492  0.5335 -1.3425
   38MOL0     C 5145   9.483   5.376   0.665  0.3887  0.1301  0.1630
   38MOL0     C 5146   9.623   5.306   0.688  0.5753 -0.3782  1.0522
   38MOL0     C 5147   9.611   5.188   0.788 -0.1081 -0.5817  0.4165
   38MOL0     C 5148   9.736   5.096   0.786  0.3152 -0.4976  0.3627
   38MOL0     C 5149   9.723   4.993   0.892  0.0052  0.7727  0.6011
   38MOL0     C 5150   9.854   4.932   0.938 -0.7618  0.6336  0.4656
   38MOL0    Cl 5151   9.972   5.058   1.005  0.3812  0.2992 -0.3303
   38MOL0     C 5152   9.098   5.679   0.657 -0.4936 -0.5254 -0.3986
   38MOL0     C 5153   8.964   5.710   0.670  0.1541 -0.8238 -0.0044
   38MOL0     O 5154   8.741   5.813   0.987 -1.1868  0.5875 -0.2255
   38MOL0     C 5155   8.504   5.590   0.876  0.1442  0.0824 -0.4813
   38MOL0     C 5156   8.372   5.551   0.896 -0.5016  0.8851  0.2016
   38MOL0     N 5157   8.035   5.462   1.456 -0.7230 -0.0544  0.2608
   38MOL0     N 5158   7.999   5.442   1.581 -0.6029 -0.0688  0.0390
   38MOL0     C 5159   6.898   5.897   2.080  0.9654 -0.3979 -0.2553
   38MOL0     C 5160   6.770   5.918   2.042  0.0942 -0.3208  0.2782
   38MOL0     C 5161   6.389   5.792   1.824  0.8998  0.2995  0.0868
   38MOL0     C 5162   6.296   5.711   1.894  0.3407 -0.2865 -0.0335
   38MOL0     C 5163   6.160   5.716   1.865 -0.3019  0.0146 -0.3339
   38MOL0     C 5164   6.109   5.787   1.764  0.7218 -0.0929 -0.3407
   38MOL0     O 5165   5.971   5.799   1.736 -0.2489  0.0804 -0.6400
   38MOL0     C 5166   5.876   5.742   1.827 -0.6488  0.9991  0.5569
   38MOL0     C 5167   5.741   5.815   1.816 -0.2907  0.0911  1.2207
   38MOL0     C 5168   5.732   5.964   1.777 -0.0969 -0.2330  0.1238
   38MOL0     C 5169   5.814   6.050   1.874 -0.2796 -0.7541 -0.2256
   38MOL0     C 5170   5.786   6.195   1.839 -0.2912 -0.7255 -0.0834
   38MOL0     C 5171   5.751   6.306   1.804  0.0880  0.3463 -0.2713
   38MOL0     C 5172   6.192   5.872   1.696 -0.2643  0.2444 -0.3375
   38MOL0     C 5173   6.326   5.879   1.730 -0.6391 -0.0750 -0.0976
   38MOL0     C 5174   6.413   5.972   1.648 -0.4242  0.0692 -0.4336
   38MOL0     H 5175   6.791   5.815   1.722  1.2512  0.1806 -1.0481
   38MOL0     H 5176   7.023   5.768   1.783 -2.4809 -0.0992 -2.4954
   38MOL0     H 5177   7.051   5.623   2.075 -1.1658  0.1607 -0.2773
   38MOL0     H 5178   7.084   5.727   2.220  0.5619  0.8347  0.3385
   38MOL0     H 5179   7.315   5.713   2.191 -2.7875  0.8854  2.2075
   38MOL0     H 5180   7.271   5.552   2.164  1.8813  0.5911 -1.0340
   38MOL0     H 5181   7.294   5.575   1.910  1.0027 -1.6616  0.4388
   38MOL0     H 5182   7.308   5.743   1.927 -0.0643 -0.1790  0.6842
   38MOL0     H 5183   7.523   5.694   2.065  0.9103 -0.8512 -0.6623
   38MOL0     H 5184   7.482   5.518   2.037 -1.0856 -0.1077  0.5171
   38MOL0     H 5185   7.504   5.674   1.780 -1.6569 -0.4725 -0.2209
   38MOL0     H 5186   7.537   5.508   1.827 -0.6500  2.0960 -2.9292
   38MOL0     H 5187   7.707   5.741   1.896 -1.9108  0.4568 -2.0436
   38MOL0     H 5188   7.736   5.584   1.950 -2.1521 -2.8178 -0.1995
   38MOL0     H 5189   7.868   5.662   1.721 -0.0450  1.1112 -1.2080
   38MOL0     H 5190   7.701   5.650   1.654 -1.3547 -1.2428  0.6732
   38MOL0     H 5191   7.852   5.424   1.793 -1.6370  1.3517  2.1649
   38MOL0     H 5192   7.705   5.404   1.700 -0.3383  0.3254  1.4937
   38MOL0     H 5193   7.717   5.450   1.431 -0.0995 -0.2928 -0.7416
   38MOL0     H 5194   7.868   5.379   1.209 -0.6074 -0.9844  2.0741
   38MOL0     H 5195   8.034   5.455   1.189  0.5989 -0.7935  0.4373
   38MOL0     H 5196   7.752   5.557   1.143 -1.3719  2.6075 -1.6836
   38MOL0     H 5197   7.868   5.667   1.211  2.0252  1.4639 -3.1947
   38MOL0     H 5198   7.898   5.514   0.949 -2.7216  0.7832 -0.7908
   38MOL0     H 5199   7.822   5.666   0.976 -1.3436  0.8737  4.1242
   38MOL0     H 5200   8.049   5.744   0.930 -3.7759  0.6823  1.0623
   38MOL0     H 5201   8.070   5.716   1.104  3.2067  1.2876 -0.8418
   38MOL0     H 5202   8.258   5.810   1.075  1.9883  1.7573 -0.2967
   38MOL0     H 5203   8.403   5.982   1.103 -0.1867 -1.1380 -0.2674
   38MOL0     H 5204   8.502   6.001   0.956 -0.4093 -1.4367 -0.8921
   38MOL0     H 5205   8.574   5.938   1.107 -0.8942 -2.3795  0.2470
   38MOL0     H 5206   8.933   5.647   1.005 -0.2483  0.5588  0.7644
   38MOL0     H 5207   9.165   5.593   0.977  1.0887  2.0813  0.5539
   38MOL0     H 5208   9.325   5.564   0.549 -1.2421  0.7215  0.6280
   38MOL0     H 5209   9.391   5.708   0.614  1.7203  0.6217  1.3738
   38MOL0     H 5210   9.569   5.543   0.563 -0.5035  0.5175 -1.6454
   38MOL0     H 5211   9.565   5.567   0.739 -0.4999 -1.4643 -0.0952
   38MOL0     H 5212   9.423   5.340   0.581 -1.3356 -1.4533  1.9599
   38MOL0     H 5213   9.415   5.361   0.750 -1.2990 -1.9734 -1.4590
   38MOL0     H 5214   9.694   5.383   0.719  1.4466 -0.3601 -0.8117
   38MOL0     H 5215   9.657   5.273   0.589  0.4009  0.3797  0.7269
   38MOL0     H 5216   9.616   5.234   0.888  2.1178  0.2534 -0.0271
   38MOL0     H 5217   9.523   5.126   0.768 -1.9728  2.3932 -1.3011
   38MOL0     H 5218   9.822   5.162   0.803  1.1356 -0.4787 -3.1706
   38MOL0     H 5219   9.756   5.061   0.685  2.7609 -1.2101  1.0108
   38MOL0     H 5220   9.667   4.906   0.856 -0.6639  1.9695 -1.3934
   38MOL0     H 5221   9.674   5.034   0.981  0.5912  1.2059  0.7262
   38MOL0     H 5222   9.893   4.878   0.851 -0.6873 -0.4726  1.1563
   38MOL0     H 5223   9.828   4.853   1.009 -0.5088 -1.7785 -1.9345
   38MOL0     H 5224   9.148   5.708   0.565  2.4673  0.7203  1.4289
   38MOL0     H 5225   8.910   5.737   0.581 -3.4859 -0.7781  2.0363
   38MOL0     H 5226   8.579   5.526   0.831  0.5158 -0.7469  1.2021
   38MOL0     H 5227   8.344   5.459   0.845 -0.8075 -0.0695  1.9885
   38MOL0     H 5228   6.933   5.927   2.178  0.9491 -1.1361 -0.0176
   38MOL0     H 5229   6.700   5.959   2.115 -1.8514 -0.1057 -1.6194
   38MOL0     H 5230   6.329   5.652   1.979 -0.4900 -0.5839  0.0926
   38MOL0     H 5231   6.100   5.665   1.940  0.9116 -1.5550 -0.3943
   38MOL0     H 5232   5.878   5.635   1.806  1.5861  1.0733  0.1451
   38MOL0     H 5233   5.922   5.768   1.923  0.3365  3.1241 -0.4236
   38MOL0     H 5234   5.692   5.791   1.911  0.8717  1.2429  2.1475
   38MOL0     H 5235   5.682   5.760   1.742  0.5741  0.0039  0.5824
   38MOL0     H 5236   5.767   5.979   1.675 -0.5027  1.2883  0.1828
   38MOL0     H 5237   5.627   5.994   1.780  0.3490  1.3746  2.2937
   38MOL0     H 5238   5.922   6.037   1.863  0.0895  1.1410  0.7191
   38MOL0     H 5239   5.796   6.033   1.981  1.3243 -1.4907 -0.0391
   38MOL0     H 5240   5.711   6.403   1.785 -2.3391 -1.0948 -3.2971
   38MOL0     H 5241   6.134   5.933   1.628 -2.9270 -2.0840 -0.3268
   38MOL0     H 5242   6.508   5.925   1.620 -1.2060 -2.0138  0.1984
   38MOL0     H 5243   6.354   6.017   1.568 -0.5500 -0.3585 -0.5838
   38MOL0     H 5244   6.440   6.056   1.713  1.5677 -0.9206  0.1069
   39MOL0     O 5245   7.271   2.117  11.032 -0.6650 -0.5913  0.1462
   39MOL0     C 5246   7.304   1.999  11.032 -0.3494  0.3497 -0.7775
   39MOL0     O 5247   7.431   1.949  11.020  0.3915  0.6542  0.1622
   39MOL0     C 5248   7.543   2.032  11.007  0.2183  1.0598 -0.1768
   39MOL0     C 5249   7.664   1.982  11.049  0.4289 -0.3668  0.8897
   39MOL0     C 5250   7.783   2.051  11.023  0.4164  0.0309 -0.8227
   39MOL0     C 5251   7.779   2.179  10.959 -0.0367  0.7557 -0.9051
   39MOL0     O 5252   7.888   2.259  10.940 -0.0186  0.1598 -0.1884
   39MOL0     C 5253   8.003   2.209  10.877 -0.1068  0.2136  0.1916
   39MOL0     C 5254   8.090   2.338  10.856  0.6555 -0.9633  0.0444
   39MOL0     C 5255   8.216   2.299  10.775  0.0172 -0.4350 -0.0214
   39MOL0     C 5256   8.292   2.424  10.723  1.0136 -0.5477 -0.7451
   39MOL0     C 5257   8.410   2.377  10.637  0.3043  0.3825 -0.1567
   39MOL0     C 5258   8.493   2.486  10.565 -0.2946 -0.7558 -0.6205
   39MOL0     C 5259   8.522   2.608  10.653  0.8543 -0.1387  1.0708
   39MOL0     C 5260   8.626   2.698  10.583 -0.4220 -0.1212 -0.1795
   39MOL0     N 5261   8.752   2.636  10.534  0.5868 -0.0216 -0.7282
   39MOL0     C 5262   8.774   2.629  10.396 -0.5507 -0.2309 -0.1821
   39MOL0     C 5263   8.849   2.514  10.368 -0.2286  0.8318 -1.2210
   39MOL0     C 5264   8.896   2.478  10.234  0.3182 -0.1581 -0.0504
   39MOL0     C 5265   9.036   2.530  10.204 -0.0235 -0.1014 -0.0407
   39MOL0     C 5266   9.105   2.492  10.071  0.2043  0.3831  0.0855
   39MOL0     C 5267   9.069   2.580   9.954  0.2342 -0.4990  0.2457
   39MOL0     O 5268   8.927   2.566   9.933 -0.9415  0.1830 -0.3063
   39MOL0     C 5269   8.855   2.684   9.916  0.2027 -0.4037 -0.1034
   39MOL0     C 5270   8.910   2.795   9.863  0.2736  0.6753 -0.2105
   39MOL0     C 5271   8.833   2.906   9.838 -0.2745 -0.1534  0.9968
   39MOL0     C 5272   8.906   3.031   9.784 -0.0367 -0.4490 -0.2470
   39MOL0     C 5273   8.695   2.912   9.861  0.5823  0.7138  0.5865
   39MOL0     C 5274   8.598   3.025   9.840  0.1795 -0.8571  0.5723
   39MOL0     O 5275   8.472   2.999   9.864  0.3079 -0.2295 -0.6620
   39MOL0     C 5276   8.373   3.096   9.850  0.5799  0.0826 -0.3758
   39MOL0     C 5277   8.239   3.050   9.828 -0.0683 -0.3165  0.6685
   39MOL0     C 5278   8.139   3.145   9.797 -0.2773  0.1564 -0.5159
   39MOL0     C 5279   8.154   3.283   9.818  0.1622  0.5812  0.0768
   39MOL0     O 5280   8.045   3.365   9.796 -0.0324 -0.7904 -0.1925
   39MOL0     C 5281   8.078   3.505   9.771  0.5757 -0.0116  0.4207
   39MOL0     C 5282   8.168   3.534   9.651 -0.9717 -0.0488  1.4192
   39MOL0     C 5283   8.167   3.673   9.618  0.1029 -0.5725  0.2065
   39MOL0     C 5284   8.238   3.707   9.480  0.8631 -0.0529  0.5025
   39MOL0     C 5285   8.202   3.848   9.443  0.0382  0.2470 -0.4670
   39MOL0     C 5286   8.261   3.901   9.314  0.4489  0.0345  0.9649
   39MOL0     C 5287   8.187   4.034   9.273  0.2766  0.5062 -1.1097
   39MOL0     C 5288   8.066   3.993   9.197 -0.2223 -0.1553 -0.2371
   39MOL0    Cl 5289   7.970   4.127   9.125 -0.5718 -0.5408  0.3867
   39MOL0     C 5290   8.279   3.322   9.860  0.3846 -0.6129  0.0912
   39MOL0     C 5291   8.391   3.241   9.870  0.7933 -0.6112 -0.9270
   39MOL0     O 5292   8.637   3.131   9.795 -0.2585  1.0038 -0.0383
   39MOL0     C 5293   8.643   2.794   9.919  0.2315 -0.0807 -0.6002
   39MOL0     C 5294   8.725   2.683   9.951  1.3656 -0.2582 -0.7583
   39MOL0     N 5295   8.876   2.451  10.495 -0.2067 -0.9663 -0.1556
   39MOL0     N 5296   8.817   2.527  10.585  0.7365  0.6213 -0.1847
   39MOL0     C 5297   7.650   2.232  10.912  0.0556  0.6023 -0.4136
   39MOL0     C 5298   7.540   2.156  10.945  0.4612 -0.1631  0.5696
   39MOL0     C 5299   7.200   1.893  11.043  0.9020  0.2071 -0.5172
   39MOL0     C 5300   7.218   1.813  11.162  0.5361 -0.1998  0.4359
   39MOL0     C 5301   7.147   1.695  11.178 -0.5005 -0.3364 -0.1441
   39MOL0     C 5302   7.053   1.667  11.086  0.3839  0.1993  0.6680
   39MOL0     O 5303   6.987   1.546  11.087  0.1424 -0.3045 -0.6435
   39MOL0     C 5304   6.874   1.555  11.179  0.3178  0.4958 -0.7023
   39MOL0     C 5305   6.816   1.416  11.231 -1.3127 -0.0198  0.8627
   39MOL0     C 5306   6.680   1.429  11.295  0.9018  0.3827 -0.3449
   39MOL0     C 5307   6.582   1.313  11.261  1.0678 -1.0429  0.0657
   39MOL0     C 5308   6.513   1.338  11.139 -0.6700  0.1248  0.6264
   39MOL0     C 5309   6.482   1.350  11.024 -0.6028 -0.3275  0.4216
   39MOL0     C 5310   7.027   1.750  10.977 -0.6514  0.5246  0.5878
   39MOL0     C 5311   7.103   1.863  10.951  1.3231 -0.0820  0.1341
   39MOL0     C 5312   7.092   1.946  10.822  0.3370  0.3402 -0.2605
   39MOL0     H 5313   7.678   1.882  11.088 -2.4214 -1.7436 -1.2093
   39MOL0     H 5314   7.881   2.008  11.044  0.9401  1.1778 -0.8514
   39MOL0     H 5315   7.978   2.163  10.781  1.1563  0.8721 -0.4928
   39MOL0     H 5316   8.043   2.133  10.944  0.9915  2.3119  2.0692
   39MOL0     H 5317   8.039   2.416  10.799 -1.4241 -3.3608 -1.5848
   39MOL0     H 5318   8.114   2.374  10.956  0.5713  1.4427 -0.7321
   39MOL0     H 5319   8.290   2.239  10.829  1.1879  0.9873  0.0308
   39MOL0     H 5320   8.184   2.226  10.701  2.3290 -0.3616 -1.2045
   39MOL0     H 5321   8.229   2.482  10.655 -0.4772  1.4550  2.1441
   39MOL0     H 5322   8.316   2.494  10.804 -0.5414 -1.3872  0.4986
   39MOL0     H 5323   8.386   2.299  10.565  3.2879 -0.7458 -0.0652
   39MOL0     H 5324   8.476   2.332  10.711  0.9150 -0.4160 -1.1678
   39MOL0     H 5325   8.584   2.439  10.527 -0.6379 -1.8731 -0.1066
   39MOL0     H 5326   8.440   2.528  10.479  1.4510 -0.2734 -1.4965
   39MOL0     H 5327   8.568   2.575  10.747  0.7712  1.0913  1.5625
   39MOL0     H 5328   8.435   2.666  10.684  1.1799  0.3023  1.1690
   39MOL0     H 5329   8.577   2.740  10.494 -0.2638  2.3260  0.8273
   39MOL0     H 5330   8.650   2.786  10.643 -1.2646 -1.4592  2.2278
   39MOL0     H 5331   8.745   2.698  10.317 -0.8918 -0.3664 -0.1728
   39MOL0     H 5332   8.825   2.532  10.170 -2.5221 -1.5026  1.7683
   39MOL0     H 5333   8.895   2.370  10.217  1.5411 -0.2985  0.6821
   39MOL0     H 5334   9.048   2.639  10.205 -0.3551 -0.0665  0.2098
   39MOL0     H 5335   9.103   2.499  10.285 -1.1151 -0.8982  0.5715
   39MOL0     H 5336   9.212   2.505  10.092  0.2739 -1.2612  0.8833
   39MOL0     H 5337   9.079   2.388  10.051  0.0001  0.4754 -0.1379
   39MOL0     H 5338   9.094   2.684   9.977 -1.3398 -0.3098  1.2398
   39MOL0     H 5339   9.117   2.548   9.861 -1.2392  3.4743 -2.1184
   39MOL0     H 5340   9.016   2.799   9.843  0.2370 -0.7878 -0.8095
   39MOL0     H 5341   9.015   3.023   9.780  0.3060 -1.8810  5.0857
   39MOL0     H 5342   8.885   3.122   9.841 -3.6324 -0.7234 -0.8823
   39MOL0     H 5343   8.865   3.053   9.685  2.0572  0.7090 -0.9073
   39MOL0     H 5344   8.218   2.947   9.802  1.3279 -0.6322  0.7356
   39MOL0     H 5345   8.039   3.110   9.773 -0.2377 -0.7369  0.5011
   39MOL0     H 5346   7.976   3.537   9.745  1.5228  1.8005 -1.3546
   39MOL0     H 5347   8.102   3.560   9.863  3.1335 -1.0122  0.4366
   39MOL0     H 5348   8.270   3.493   9.655 -1.5136 -1.3728  4.2456
   39MOL0     H 5349   8.118   3.481   9.569  0.5678 -0.9315  1.0038
   39MOL0     H 5350   8.221   3.729   9.695 -0.7590  1.2835 -0.4836
   39MOL0     H 5351   8.064   3.710   9.616  0.0967 -0.5926  0.1629
   39MOL0     H 5352   8.216   3.636   9.400  1.3027 -1.2755  1.4338
   39MOL0     H 5353   8.345   3.718   9.503  1.1271  0.5082 -0.8889
   39MOL0     H 5354   8.093   3.862   9.443 -0.4732 -2.3959  2.8360
   39MOL0     H 5355   8.236   3.918   9.520 -1.3511  2.7189 -1.9725
   39MOL0     H 5356   8.256   3.826   9.235  2.6018  0.9596 -0.1617
   39MOL0     H 5357   8.368   3.918   9.333  0.2916  0.3000  1.6355
   39MOL0     H 5358   8.260   4.098   9.224  1.0002 -0.8832 -1.9059
   39MOL0     H 5359   8.164   4.090   9.364  0.8159 -1.3105  0.2070
   39MOL0     H 5360   7.998   3.943   9.267  0.5157  0.1461  0.7198
   39MOL0     H 5361   8.091   3.914   9.126  0.2342 -1.6081  1.4660
   39MOL0     H 5362   8.304   3.425   9.880  0.9016 -0.8739  0.8453
   39MOL0     H 5363   8.487   3.285   9.895  0.5950 -1.2808  1.2193
   39MOL0     H 5364   8.536   2.781   9.933  0.5835 -1.0116  1.6125
   39MOL0     H 5365   8.690   2.589   9.993  3.7969 -2.2339 -2.8160
   39MOL0     H 5366   7.626   2.326  10.865 -1.9630 -0.1265 -0.9611
   39MOL0     H 5367   7.452   2.208  10.908  2.3452  2.2573 -0.9058
   39MOL0     H 5368   7.296   1.817  11.238  0.3137  2.2866  0.5907
   39MOL0     H 5369   7.149   1.616  11.253 -0.6741 -0.7625 -0.5786
   39MOL0     H 5370   6.901   1.622  11.260  1.2598  3.3684 -3.2010
   39MOL0     H 5371   6.786   1.600  11.132  0.9279  2.8455  0.2745
   39MOL0     H 5372   6.893   1.367  11.293 -1.1458 -1.7894 -0.6498
   39MOL0     H 5373   6.809   1.358  11.139  0.4469  0.9090  0.0974
   39MOL0     H 5374   6.687   1.408  11.402 -1.1928 -3.1201 -0.7285
   39MOL0     H 5375   6.636   1.529  11.287 -1.3990 -0.4817  0.5655
   39MOL0     H 5376   6.508   1.290  11.338  0.5936 -3.0594 -0.9412
   39MOL0     H 5377   6.638   1.219  11.263 -0.1091 -1.7952  3.6204
   39MOL0     H 5378   6.465   1.355  10.918 -4.8874 -0.8654  0.8884
   39MOL0     H 5379   6.961   1.711  10.900  2.2640 -0.6246 -1.5250
   39MOL0     H 5380   7.187   1.994  10.798  1.0206 -0.9122 -0.1692
   39MOL0     H 5381   7.057   1.891  10.734 -2.6642  1.3897  0.1500
   39MOL0     H 5382   7.015   2.023  10.831  1.0891  1.0222  0.5049
   40MOL0     O 5383   0.728   3.180   6.012 -0.1977  0.3877  0.0519
   40MOL0     C 5384   0.739   3.145   6.128 -0.2312 -0.1704 -0.5797
   40MOL0     O 5385   0.855   3.069   6.175 -0.0005 -0.4830  0.3812
   40MOL0     C 5386   0.935   3.027   6.073 -0.6623 -0.3910 -0.3950
   40MOL0     C 5387   1.052   3.099   6.037 -0.2612 -0.2913 -0.2080
   40MOL0     C 5388   1.135   3.040   5.938  0.2478  0.1634  0.3917
   40MOL0     C 5389   1.110   2.914   5.883 -0.5973 -0.8115  0.3723
   40MOL0     O 5390   1.196   2.856   5.800  1.1518 -0.2000 -0.0137
   40MOL0     C 5391   1.320   2.914   5.775 -0.0413 -0.0534 -0.0339
   40MOL0     C 5392   1.389   2.833   5.662  0.1205  0.7659 -0.1140
   40MOL0     C 5393   1.482   2.723   5.728 -0.3773 -1.1146  0.2579
   40MOL0     C 5394   1.566   2.667   5.614  1.3751  0.5625 -0.3169
   40MOL0     C 5395   1.706   2.633   5.656  0.5698 -0.3938  0.1445
   40MOL0     C 5396   1.787   2.574   5.549  0.7776  0.2279 -0.3972
   40MOL0     C 5397   1.752   2.424   5.511 -0.1713 -1.0878 -1.0217
   40MOL0     C 5398   1.821   2.330   5.606 -0.6387  1.1704 -0.2876
   40MOL0     N 5399   1.798   2.192   5.561  0.3479  0.0104 -0.0898
   40MOL0     C 5400   1.846   2.152   5.438  0.2383  0.9004 -0.1650
   40MOL0     C 5401   1.833   2.016   5.449 -0.2312 -0.2930 -0.3840
   40MOL0     C 5402   1.876   1.911   5.346  0.7229 -0.6873  0.0748
   40MOL0     C 5403   2.028   1.921   5.313  0.5411 -0.1095 -0.3220
   40MOL0     C 5404   2.101   1.863   5.435 -0.4974 -0.3017 -0.6094
   40MOL0     C 5405   2.231   1.939   5.465 -0.2798 -0.7431 -0.2105
   40MOL0     O 5406   2.333   1.922   5.367  0.4443  0.1179  0.7578
   40MOL0     C 5407   2.466   1.903   5.405 -0.0892 -0.0484 -0.4270
   40MOL0     C 5408   2.558   1.954   5.317 -1.5114  0.5552  0.3586
   40MOL0     C 5409   2.696   1.944   5.333  0.1862 -0.9605  0.4682
   40MOL0     C 5410   2.773   2.032   5.237  0.5911 -0.0312 -0.3505
   40MOL0     C 5411   2.745   1.878   5.448 -0.3646  0.5337 -1.1232
   40MOL0     C 5412   2.890   1.850   5.475 -0.1642  0.7318 -0.1697
   40MOL0     O 5413   2.908   1.743   5.556  0.1088  1.2213  0.3213
   40MOL0     C 5414   3.041   1.711   5.584  0.2575 -0.0572 -0.4813
   40MOL0     C 5415   3.136   1.652   5.493  0.4227 -0.7825  0.2007
   40MOL0     C 5416   3.269   1.635   5.524  0.6120 -0.3253 -0.2101
   40MOL0     C 5417   3.303   1.662   5.655  0.4656  0.6104  1.0214
   40MOL0     O 5418   3.435   1.650   5.681 -0.4691 -0.6076 -0.9356
   40MOL0     C 5419   3.489   1.553   5.774  0.6530 -0.4887  0.2930
   40MOL0     C 5420   3.608   1.607   5.849 -0.4355 -0.3398 -0.5662
   40MOL0     C 5421   3.734   1.611   5.759  0.0242  0.0799 -0.2477
   40MOL0     C 5422   3.843   1.699   5.811 -0.4552  0.2627 -0.1571
   40MOL0     C 5423   3.903   1.659   5.946  0.0724  0.3394 -0.0470
   40MOL0     C 5424   4.016   1.753   6.002  0.7536 -0.8780 -0.9509
   40MOL0     C 5425   4.155   1.755   5.933  0.3503  0.0914 -0.3649
   40MOL0     C 5426   4.264   1.791   6.026  0.4510 -0.6183 -0.2408
   40MOL0    Cl 5427   4.402   1.787   5.923  0.0192 -0.2504  0.0568
   40MOL0     C 5428   3.213   1.713   5.753 -0.2937 -0.5284  0.3842
   40MOL0     C 5429   3.083   1.742   5.716  0.0686  0.4051  1.1176
   40MOL0     O 5430   2.979   1.924   5.427  0.3871  0.0090  0.4448
   40MOL0     C 5431   2.642   1.834   5.545  0.0578 -0.8082 -0.3461
   40MOL0     C 5432   2.506   1.844   5.531 -0.0130  0.6680  0.1906
   40MOL0     N 5433   1.770   1.983   5.564  0.2744 -0.1869  0.6112
   40MOL0     N 5434   1.750   2.089   5.632  0.7846  0.2662  0.3475
   40MOL0     C 5435   0.999   2.851   5.918  0.2853  0.1986 -0.6261
   40MOL0     C 5436   0.912   2.905   6.012 -0.2450 -0.1401 -0.1296
   40MOL0     C 5437   0.623   3.149   6.218  1.0432 -0.2199  0.1432
   40MOL0     C 5438   0.631   3.098   6.347 -0.5657 -0.2375 -0.4917
   40MOL0     C 5439   0.523   3.107   6.438 -0.1564  0.0143  0.4417
   40MOL0     C 5440   0.402   3.165   6.401  0.1648 -0.2985 -0.1676
   40MOL0     O 5441   0.287   3.179   6.481 -0.3315  0.2866  0.2012
   40MOL0     C 5442   0.309   3.197   6.617 -0.0080  0.1236  0.8347
   40MOL0     C 5443   0.171   3.226   6.689 -0.9884 -0.7485  0.9282
   40MOL0     C 5444   0.077   3.105   6.648 -0.3195  0.2765 -0.3895
   40MOL0     C 5445  -0.070   3.122   6.672 -0.6472  1.0053  0.2936
   40MOL0     C 5446  -0.146   3.010   6.617  0.3133  0.5408 -0.2007
   40MOL0     C 5447  -0.210   2.925   6.560 -0.4733  0.5096 -0.0469
   40MOL0     C 5448   0.397   3.220   6.272  0.3008 -1.3925 -0.8230
   40MOL0     C 5449   0.498   3.209   6.175  0.4207 -0.1574 -0.6516
   40MOL0     C 5450   0.470   3.285   6.043 -0.3108 -0.4922  0.4595
   40MOL0     H 5451   1.058   3.197   6.083 -0.4620 -0.8994  1.1741
   40MOL0     H 5452   1.226   3.092   5.910  0.9337  1.2159  4.0045
   40MOL0     H 5453   1.383   2.938   5.860 -0.5939  1.6453 -0.0623
   40MOL0     H 5454   1.297   3.016   5.740 -2.3504 -0.1095  1.1381
   40MOL0     H 5455   1.317   2.784   5.595 -0.4916  0.2536  0.8948
   40MOL0     H 5456   1.450   2.897   5.597  1.4257 -1.6862 -1.4925
   40MOL0     H 5457   1.549   2.775   5.798 -0.0041 -1.0704 -0.1233
   40MOL0     H 5458   1.422   2.649   5.781 -2.3891  1.1631  1.3456
   40MOL0     H 5459   1.513   2.578   5.579 -3.0908  2.0056  2.0169
   40MOL0     H 5460   1.576   2.734   5.528  2.1986 -1.6232 -2.0092
   40MOL0     H 5461   1.707   2.564   5.740  2.2062  1.1798  1.4944
   40MOL0     H 5462   1.761   2.719   5.694 -0.8177  1.5878 -1.9832
   40MOL0     H 5463   1.763   2.624   5.455  2.3041 -1.6071 -1.8410
   40MOL0     H 5464   1.889   2.588   5.586  0.1136  0.6855  1.3300
   40MOL0     H 5465   1.803   2.413   5.414  1.1237 -3.0791 -0.1961
   40MOL0     H 5466   1.644   2.419   5.499 -1.0998  1.8344  3.6129
   40MOL0     H 5467   1.930   2.339   5.607  0.0145 -3.6269  1.9582
   40MOL0     H 5468   1.796   2.332   5.713  3.7874  0.4767  1.0059
   40MOL0     H 5469   1.875   2.202   5.346 -2.5280  0.9664 -1.1010
   40MOL0     H 5470   1.821   1.930   5.253 -0.7832  0.2340  1.1204
   40MOL0     H 5471   1.858   1.814   5.393  0.0564 -0.3031  0.6253
   40MOL0     H 5472   2.045   1.872   5.216  0.2147 -0.5393 -0.1625
   40MOL0     H 5473   2.057   2.027   5.305  2.1028 -0.5981 -1.6850
   40MOL0     H 5474   2.042   1.860   5.527  1.1192 -1.7510  0.4410
   40MOL0     H 5475   2.126   1.760   5.411  2.0592 -0.1863  1.1463
   40MOL0     H 5476   2.216   2.047   5.472 -0.9379 -0.8707  0.5466
   40MOL0     H 5477   2.261   1.910   5.567 -2.4651  1.9761  1.3521
   40MOL0     H 5478   2.524   2.015   5.234 -0.3068 -1.0345 -1.3912
   40MOL0     H 5479   2.880   2.020   5.258  0.2418 -0.0500  1.5761
   40MOL0     H 5480   2.745   2.137   5.252  0.2304 -0.1317 -0.3179
   40MOL0     H 5481   2.751   1.995   5.136 -0.2315 -4.1002  1.1539
   40MOL0     H 5482   3.091   1.628   5.398 -0.9587 -1.2551  0.9516
   40MOL0     H 5483   3.349   1.589   5.467  0.8098 -0.7401  0.3899
   40MOL0     H 5484   3.409   1.521   5.841  1.5524 -0.2666  1.4854
   40MOL0     H 5485   3.520   1.468   5.713 -1.1359 -1.8797  1.2349
   40MOL0     H 5486   3.588   1.709   5.885  1.5429 -0.8050  2.1840
   40MOL0     H 5487   3.633   1.541   5.932  0.2113  1.0186  0.3628
   40MOL0     H 5488   3.694   1.662   5.671 -1.0267 -0.1156  0.1129
   40MOL0     H 5489   3.771   1.513   5.729 -0.9034 -0.1472 -0.6723
   40MOL0     H 5490   3.793   1.796   5.815 -1.6690 -0.3830  1.7515
   40MOL0     H 5491   3.925   1.690   5.740  1.5992 -0.7511  2.1718
   40MOL0     H 5492   3.814   1.638   6.006 -0.1530  0.7913 -0.2210
   40MOL0     H 5493   3.956   1.565   5.928  3.2111  1.5883  1.7964
   40MOL0     H 5494   4.034   1.726   6.107  2.7627  0.8166 -0.8033
   40MOL0     H 5495   3.986   1.856   6.021  0.2491 -1.5872  2.9110
   40MOL0     H 5496   4.154   1.814   5.841 -0.6558  0.7208  0.0331
   40MOL0     H 5497   4.166   1.654   5.893 -4.3933 -0.7313 -0.2100
   40MOL0     H 5498   4.268   1.722   6.111  3.3409 -2.6315 -1.8299
   40MOL0     H 5499   4.253   1.891   6.068  0.7202  0.1514 -1.9431
   40MOL0     H 5500   3.250   1.728   5.854  1.5673 -0.1399 -0.3121
   40MOL0     H 5501   3.021   1.792   5.789 -2.7572 -1.7536  0.3639
   40MOL0     H 5502   2.683   1.791   5.636  0.4118 -1.5425 -0.8439
   40MOL0     H 5503   2.441   1.816   5.614  0.5304 -0.1439  0.3517
   40MOL0     H 5504   0.980   2.748   5.888 -1.2501 -0.7730  3.0723
   40MOL0     H 5505   0.834   2.838   6.047  0.7388 -1.8454 -1.0699
   40MOL0     H 5506   0.728   3.056   6.369  0.5433  1.5428 -1.7555
   40MOL0     H 5507   0.537   3.062   6.536 -0.8145 -1.3536 -0.0672
   40MOL0     H 5508   0.348   3.101   6.650  1.2597  0.9651  1.9154
   40MOL0     H 5509   0.381   3.279   6.633  1.8019 -1.3022  0.3026
   40MOL0     H 5510   0.121   3.309   6.640 -0.7996 -2.3418 -2.2966
   40MOL0     H 5511   0.187   3.248   6.795  0.7155  2.3072  0.1561
   40MOL0     H 5512   0.085   3.089   6.540  0.1076  2.8337 -0.8002
   40MOL0     H 5513   0.115   3.018   6.702 -1.3518 -0.8730 -1.4634
   40MOL0     H 5514  -0.101   3.218   6.629  0.2972  1.9167  1.5596
   40MOL0     H 5515  -0.078   3.130   6.780 -0.1128 -0.7903  0.4933
   40MOL0     H 5516  -0.252   2.835   6.519 -1.1744  0.1011  1.5118
   40MOL0     H 5517   0.303   3.273   6.258  0.8759 -0.1676 -0.1279
   40MOL0     H 5518   0.533   3.371   6.016 -1.5327  1.0973  2.3963
   40MOL0     H 5519   0.448   3.218   5.959 -0.3740  1.3490 -1.0668
   40MOL0     H 5520   0.373   3.332   6.062 -0.6247 -0.4311 -1.1632
   41MOL0     O 5521   7.702   5.154   0.506 -0.7309  0.6901  1.0429
   41MOL0     C 5522   7.639   5.208   0.600  0.1574  0.1361  0.0208
   41MOL0     O 5523   7.645   5.344   0.628  0.0194 -0.2814 -0.7692
   41MOL0     C 5524   7.663   5.427   0.521 -0.2871  0.2041  0.4730
   41MOL0     C 5525   7.789   5.444   0.470  0.4920 -0.0253 -0.4119
   41MOL0     C 5526   7.816   5.526   0.362  0.7342 -0.1804 -0.3733
   41MOL0     C 5527   7.716   5.603   0.306  0.4461 -0.0743 -0.1708
   41MOL0     O 5528   7.768   5.691   0.208 -0.1362  0.0676  0.2485
   41MOL0     C 5529   7.688   5.800   0.152  0.1781  0.7739 -0.3141
   41MOL0     C 5530   7.774   5.877   0.046  0.6642 -0.2655  0.0775
   41MOL0     C 5531   7.764   5.821  -0.101  0.3912  0.0368 -0.0328
   41MOL0     C 5532   7.621   5.788  -0.149  0.6152  0.2155  1.4187
   41MOL0     C 5533   7.613   5.749  -0.298  0.7455  0.3638  0.2513
   41MOL0     C 5534   7.471   5.700  -0.349 -0.2399  0.1259 -0.1214
   41MOL0     C 5535   7.482   5.628  -0.492 -0.9648  0.0831 -0.5755
   41MOL0     C 5536   7.355   5.599  -0.555 -0.1170  0.5846  0.4806
   41MOL0     N 5537   7.382   5.562  -0.691 -0.1460 -0.1224  0.9612
   41MOL0     C 5538   7.346   5.643  -0.796  0.1225  0.1409 -0.1553
   41MOL0     C 5539   7.362   5.557  -0.895  0.2210 -0.0202 -1.0852
   41MOL0     C 5540   7.313   5.592  -1.028 -0.0434  0.3980  0.9277
   41MOL0     C 5541   7.418   5.683  -1.096 -0.5205  0.6425  0.1440
   41MOL0     C 5542   7.554   5.616  -1.121 -0.3342 -0.7480 -0.5892
   41MOL0     C 5543   7.633   5.693  -1.217 -0.5508 -0.7314  0.6344
   41MOL0     O 5544   7.751   5.623  -1.257 -0.1741  0.4277 -0.4534
   41MOL0     C 5545   7.853   5.604  -1.163  0.8627  0.5201  0.2233
   41MOL0     C 5546   7.889   5.702  -1.064  0.3522 -0.4890  0.6422
   41MOL0     C 5547   8.008   5.702  -0.984  0.3652 -0.1705  0.4428
   41MOL0     C 5548   8.038   5.828  -0.902 -0.1465 -0.6753  0.7935
   41MOL0     C 5549   8.086   5.582  -0.990 -1.2853  0.1461 -0.3042
   41MOL0     C 5550   8.215   5.576  -0.910 -1.1391  0.2280 -0.4883
   41MOL0     O 5551   8.256   5.452  -0.876  0.4608 -0.5491  0.0283
   41MOL0     C 5552   8.345   5.426  -0.778  0.2451 -0.0158  0.0842
   41MOL0     C 5553   8.414   5.306  -0.780 -0.4103 -0.2145 -0.5952
   41MOL0     C 5554   8.501   5.270  -0.676 -0.4608 -0.5283 -0.7256
   41MOL0     C 5555   8.532   5.361  -0.571 -0.5507  0.7696  0.5926
   41MOL0     O 5556   8.632   5.329  -0.481 -0.5319 -0.2703  0.2680
   41MOL0     C 5557   8.619   5.387  -0.352 -0.2828  0.3248  0.5446
   41MOL0     C 5558   8.722   5.344  -0.248  0.4146 -0.1911 -0.0614
   41MOL0     C 5559   8.872   5.385  -0.269  0.8088  0.4398 -0.4201
   41MOL0     C 5560   8.947   5.296  -0.372  0.2456 -0.6854  0.7536
   41MOL0     C 5561   9.093   5.340  -0.371 -0.2839 -0.7378  0.4383
   41MOL0     C 5562   9.197   5.262  -0.450  0.5018 -0.0218  0.3603
   41MOL0     C 5563   9.317   5.354  -0.477 -0.2425  0.4191 -0.1861
   41MOL0     C 5564   9.384   5.405  -0.354  0.4125  0.4177 -0.7854
   41MOL0    Cl 5565   9.547   5.460  -0.403 -0.0525 -0.0363 -0.3353
   41MOL0     C 5566   8.460   5.485  -0.575  0.4053 -0.4390  0.5078
   41MOL0     C 5567   8.371   5.516  -0.671  0.3442  0.7586  0.4001
   41MOL0     O 5568   8.281   5.675  -0.895 -0.4038 -0.7011  0.3320
   41MOL0     C 5569   8.048   5.482  -1.072 -0.2266  0.8766  0.7765
   41MOL0     C 5570   7.939   5.495  -1.161 -0.4711 -0.2371  0.3228
   41MOL0     N 5571   7.417   5.432  -0.854  0.5414 -0.3989 -0.3865
   41MOL0     N 5572   7.431   5.443  -0.723 -0.5304 -0.0469  0.1496
   41MOL0     C 5573   7.582   5.590   0.352  0.3795  0.1929  0.3620
   41MOL0     C 5574   7.562   5.498   0.457  0.3542  0.6482 -0.7563
   41MOL0     C 5575   7.598   5.111   0.710  0.6217 -0.2682 -0.6411
   41MOL0     C 5576   7.581   5.174   0.831 -0.6333 -0.3893 -0.5476
   41MOL0     C 5577   7.555   5.105   0.948  0.2984  0.8757  0.6892
   41MOL0     C 5578   7.535   4.967   0.939 -0.5159  0.8290  0.6312
   41MOL0     O 5579   7.496   4.913   1.062 -0.4172 -0.0740  0.9970
   41MOL0     C 5580   7.430   4.792   1.049 -0.1518 -1.2111  0.6498
   41MOL0     C 5581   7.321   4.784   1.152 -0.5513 -0.1943 -0.1647
   41MOL0     C 5582   7.232   4.908   1.151  0.1773 -0.0049 -0.5046
   41MOL0     C 5583   7.291   5.021   1.235  0.0698  0.0620  0.2959
   41MOL0     C 5584   7.174   5.113   1.242  0.4121  0.0842  0.0722
   41MOL0     C 5585   7.102   5.211   1.252  0.2423 -0.1272 -0.5333
   41MOL0     C 5586   7.555   4.895   0.816 -0.5531 -0.4782 -0.7047
   41MOL0     C 5587   7.592   4.967   0.697  0.2575 -0.1632 -0.4632
   41MOL0     C 5588   7.607   4.887   0.568  0.3320 -0.3604 -0.0181
   41MOL0     H 5589   7.877   5.396   0.512 -0.2828 -0.4522  0.7768
   41MOL0     H 5590   7.916   5.546   0.327  2.1441 -3.1276  1.5103
   41MOL0     H 5591   7.666   5.874   0.229  1.4725  0.6189  0.2397
   41MOL0     H 5592   7.597   5.762   0.106  1.3354  0.9759 -2.9303
   41MOL0     H 5593   7.730   5.977   0.044  1.1322  0.0082  1.7489
   41MOL0     H 5594   7.874   5.884   0.088  1.4127 -1.7512 -1.3672
   41MOL0     H 5595   7.799   5.898  -0.171  1.1936 -0.4805 -0.2147
   41MOL0     H 5596   7.827   5.733  -0.114  1.5531  0.8129  0.2068
   41MOL0     H 5597   7.593   5.701  -0.089 -0.7407  0.7355  1.5936
   41MOL0     H 5598   7.543   5.861  -0.125 -1.2089 -0.5530 -1.5781
   41MOL0     H 5599   7.691   5.678  -0.325 -1.5545 -1.8723 -1.0006
   41MOL0     H 5600   7.640   5.844  -0.344 -3.6495  0.9069 -1.7178
   41MOL0     H 5601   7.427   5.627  -0.281  0.7418 -1.1183 -0.7617
   41MOL0     H 5602   7.400   5.783  -0.341  2.3659  2.5335 -0.3285
   41MOL0     H 5603   7.538   5.537  -0.468 -2.5074 -0.2646  2.0920
   41MOL0     H 5604   7.541   5.691  -0.560 -1.1892  2.7266  1.5255
   41MOL0     H 5605   7.313   5.512  -0.504 -1.2828  0.3836 -0.7755
   41MOL0     H 5606   7.299   5.693  -0.543 -2.2187 -0.3960 -1.0287
   41MOL0     H 5607   7.300   5.741  -0.783 -1.9090 -1.0815  3.5378
   41MOL0     H 5608   7.214   5.637  -1.032 -1.8579 -3.1877  1.7347
   41MOL0     H 5609   7.306   5.501  -1.089  1.1517  0.6225  0.4255
   41MOL0     H 5610   7.384   5.727  -1.191  1.4412  1.5867 -0.1559
   41MOL0     H 5611   7.428   5.773  -1.036  0.4832  1.0160 -0.5641
   41MOL0     H 5612   7.595   5.617  -1.020 -0.7450 -3.0163 -0.3610
   41MOL0     H 5613   7.552   5.510  -1.147 -1.0270 -1.1612  1.0779
   41MOL0     H 5614   7.573   5.708  -1.308  0.0651  0.2407  0.3729
   41MOL0     H 5615   7.665   5.790  -1.178  0.1236 -1.2919  1.4940
   41MOL0     H 5616   7.834   5.796  -1.061  0.8469 -0.1473 -0.5032
   41MOL0     H 5617   8.054   5.803  -0.797 -1.6790 -1.7551  0.8055
   41MOL0     H 5618   7.954   5.898  -0.906 -1.1237 -1.8445 -0.4204
   41MOL0     H 5619   8.123   5.877  -0.950 -1.6292 -0.5097 -1.8959
   41MOL0     H 5620   8.397   5.235  -0.861  0.6754  0.1240 -1.1332
   41MOL0     H 5621   8.538   5.168  -0.682 -0.3215 -0.4355 -1.5564
   41MOL0     H 5622   8.626   5.495  -0.369 -4.3754  0.7473  0.4663
   41MOL0     H 5623   8.519   5.365  -0.313 -0.1848 -0.4708  0.3765
   41MOL0     H 5624   8.689   5.375  -0.148 -0.8552 -1.3172 -0.1004
   41MOL0     H 5625   8.723   5.235  -0.260  2.5313 -0.0322 -2.2115
   41MOL0     H 5626   8.923   5.385  -0.171  1.1079 -3.9532 -0.3753
   41MOL0     H 5627   8.878   5.485  -0.312 -1.4676  0.0786 -1.6939
   41MOL0     H 5628   8.907   5.313  -0.473  1.3749  0.0907  0.4153
   41MOL0     H 5629   8.928   5.193  -0.341 -0.1011 -1.3135 -1.3728
   41MOL0     H 5630   9.086   5.445  -0.400 -0.7203 -1.0221 -0.5396
   41MOL0     H 5631   9.138   5.321  -0.273 -1.5794 -1.3422  0.9477
   41MOL0     H 5632   9.149   5.232  -0.543  0.9693  1.1553 -0.2812
   41MOL0     H 5633   9.230   5.171  -0.399  3.0939  0.4148 -0.3684
   41MOL0     H 5634   9.297   5.441  -0.541  0.2896 -1.7269 -3.5010
   41MOL0     H 5635   9.386   5.296  -0.539  0.9552  0.3425  1.1794
   41MOL0     H 5636   9.385   5.323  -0.281 -1.8446  0.1026 -1.0338
   41MOL0     H 5637   9.318   5.484  -0.316 -0.2803 -0.7430  0.5223
   41MOL0     H 5638   8.455   5.560  -0.496 -0.7541 -0.3222  0.3426
   41MOL0     H 5639   8.300   5.597  -0.660 -2.3644 -1.1450 -1.5035
   41MOL0     H 5640   8.102   5.389  -1.085 -1.7548 -0.0637  0.8828
   41MOL0     H 5641   7.933   5.413  -1.232  2.1094 -0.2225  0.0077
   41MOL0     H 5642   7.496   5.651   0.328 -0.8203 -1.5040  0.2002
   41MOL0     H 5643   7.470   5.499   0.515  1.3167 -1.1935  0.9300
   41MOL0     H 5644   7.589   5.282   0.845 -4.2753 -0.1135  0.2386
   41MOL0     H 5645   7.544   5.171   1.033 -1.2306  1.4862  0.0442
   41MOL0     H 5646   7.391   4.767   0.949  2.4562 -3.2611  0.0260
   41MOL0     H 5647   7.510   4.720   1.068  2.3844  1.8761  2.6367
   41MOL0     H 5648   7.371   4.770   1.248  1.9236 -0.1687 -1.3671
   41MOL0     H 5649   7.264   4.696   1.118  0.2624 -0.2420 -1.5048
   41MOL0     H 5650   7.209   4.939   1.048  2.8025  2.0177 -0.5840
   41MOL0     H 5651   7.142   4.872   1.202  1.6334  0.2885  2.4782
   41MOL0     H 5652   7.364   5.072   1.172  0.9506 -4.7045 -3.0979
   41MOL0     H 5653   7.332   5.006   1.335  1.0651  0.5713 -0.0207
   41MOL0     H 5654   7.046   5.302   1.264  2.1899  0.9469  0.8500
   41MOL0     H 5655   7.569   4.788   0.807  2.6157 -0.3908  1.5934
   41MOL0     H 5656   7.559   4.941   0.485  1.3791  0.6068 -0.0195
   41MOL0     H 5657   7.713   4.873   0.547  0.8963  0.2924  2.1575
   41MOL0     H 5658   7.561   4.789   0.579  1.2411 -0.5127  3.5436
   42MOL0     O 5659   2.014   4.615   2.995  0.4782  0.2241  0.1010
   42MOL0     C 5660   1.961   4.720   3.014 -0.4293  0.6821  0.5284
   42MOL0     O 5661   2.019   4.823   3.063 -0.3059  0.2794  0.2642
   42MOL0     C 5662   2.138   4.801   3.125 -0.0691  0.1691  0.6303
   42MOL0     C 5663   2.257   4.855   3.066  0.7986 -1.0156  0.5893
   42MOL0     C 5664   2.377   4.849   3.132  0.0283 -0.0745  0.1147
   42MOL0     C 5665   2.381   4.795   3.263 -1.1780  0.4040 -0.1399
   42MOL0     O 5666   2.501   4.761   3.325  0.5677 -0.7721 -0.1289
   42MOL0     C 5667   2.608   4.728   3.242  0.2738  0.3856 -0.0184
   42MOL0     C 5668   2.689   4.628   3.317 -0.6484 -0.5050 -0.9883
   42MOL0     C 5669   2.611   4.504   3.362 -1.1071  1.0183 -1.3154
   42MOL0     C 5670   2.700   4.385   3.336 -0.2917  0.1276  0.1356
   42MOL0     C 5671   2.618   4.251   3.353 -0.5641  0.4422  0.3849
   42MOL0     C 5672   2.690   4.126   3.327  0.0943 -1.0627 -0.2582
   42MOL0     C 5673   2.810   4.110   3.430 -0.2600 -0.3501  0.1146
   42MOL0     C 5674   2.896   3.987   3.427  0.1040  0.6628  0.2606
   42MOL0     N 5675   2.960   3.969   3.294  0.3844  0.1529  0.0122
   42MOL0     C 5676   3.079   4.024   3.253  1.0270  0.1398  0.0104
   42MOL0     C 5677   3.094   3.977   3.122 -1.1697  0.5903  0.0155
   42MOL0     C 5678   3.219   3.976   3.023 -0.8358 -0.2331  0.8097
   42MOL0     C 5679   3.262   4.111   2.962  0.8424 -0.0011 -0.0823
   42MOL0     C 5680   3.371   4.094   2.855 -0.2277  0.0969  0.2198
   42MOL0     C 5681   3.441   4.219   2.837  0.4612 -0.2859 -0.2559
   42MOL0     O 5682   3.361   4.328   2.803 -0.4312  0.3761 -0.3462
   42MOL0     C 5683   3.396   4.443   2.873  0.3597 -0.0926  0.5877
   42MOL0     C 5684   3.520   4.498   2.846 -0.6642  0.5373  0.5724
   42MOL0     C 5685   3.554   4.615   2.904 -0.6426 -0.3337 -0.5697
   42MOL0     C 5686   3.707   4.659   2.898  1.6561  0.4126 -0.6270
   42MOL0     C 5687   3.463   4.690   2.982  0.3024  0.9101  0.2931
   42MOL0     C 5688   3.474   4.828   3.033 -0.5531  0.5613  0.1144
   42MOL0     O 5689   3.386   4.859   3.133 -0.5599  0.2324  0.4854
   42MOL0     C 5690   3.362   4.990   3.159  0.9135 -0.7600 -0.0594
   42MOL0     C 5691   3.318   5.012   3.290  0.8880 -0.0482 -0.9745
   42MOL0     C 5692   3.277   5.141   3.331 -0.2128  0.1744 -0.2944
   42MOL0     C 5693   3.279   5.246   3.238 -0.4650  0.1105  0.7256
   42MOL0     O 5694   3.224   5.364   3.282  0.1283 -0.4827  0.9337
   42MOL0     C 5695   3.240   5.495   3.214 -0.9311  0.4097 -0.9371
   42MOL0     C 5696   3.120   5.579   3.203 -0.9136 -0.0105  0.3176
   42MOL0     C 5697   3.051   5.605   3.331 -0.3108 -0.0515  0.4572
   42MOL0     C 5698   2.928   5.684   3.311  0.5297  0.0112 -0.1190
   42MOL0     C 5699   2.948   5.834   3.334 -0.8262  0.2883  0.1324
   42MOL0     C 5700   2.824   5.916   3.302 -0.8151  0.2906 -0.5526
   42MOL0     C 5701   2.842   6.071   3.317  0.3246 -0.2370  0.5224
   42MOL0     C 5702   2.844   6.103   3.472  0.0902  0.5461  0.5997
   42MOL0    Cl 5703   2.672   6.082   3.539  0.2964 -0.2891 -0.7660
   42MOL0     C 5704   3.323   5.225   3.114 -0.1444 -0.2700  0.3812
   42MOL0     C 5705   3.370   5.101   3.073 -0.1943 -0.1927 -0.4202
   42MOL0     O 5706   3.556   4.905   2.973 -0.2300 -0.5401 -0.7073
   42MOL0     C 5707   3.329   4.623   3.000  0.6980 -0.6047  0.1325
   42MOL0     C 5708   3.301   4.497   2.947 -0.3418 -0.6789  0.5186
   42MOL0     N 5709   2.984   3.902   3.095 -0.1279  0.8640  0.0404
   42MOL0     N 5710   2.901   3.910   3.193  0.1514  0.1867  0.5333
   42MOL0     C 5711   2.267   4.739   3.318 -0.7356 -0.8672  0.3460
   42MOL0     C 5712   2.142   4.734   3.250  0.4778  0.2684  0.3784
   42MOL0     C 5713   1.827   4.754   2.959  0.3484 -0.0403 -1.3527
   42MOL0     C 5714   1.794   4.884   2.919  0.7388 -0.3870  0.2946
   42MOL0     C 5715   1.671   4.924   2.871  0.3456 -0.0865  0.3373
   42MOL0     C 5716   1.565   4.835   2.864  1.0071  0.3122  0.8057
   42MOL0     O 5717   1.433   4.870   2.825  0.1073 -0.2574 -0.4146
   42MOL0     C 5718   1.388   4.998   2.862  0.6246  0.2465  0.7033
   42MOL0     C 5719   1.413   5.101   2.742  0.0969  0.4065 -0.7238
   42MOL0     C 5720   1.312   5.080   2.628 -0.6349 -0.4944 -0.1648
   42MOL0     C 5721   1.346   4.973   2.520 -0.0002 -0.1512  0.0880
   42MOL0     C 5722   1.489   4.963   2.468 -0.0609 -0.4214 -0.0221
   42MOL0     C 5723   1.606   4.976   2.453 -0.8661 -0.4847 -0.3615
   42MOL0     C 5724   1.597   4.703   2.895 -0.0022  0.8800 -0.6264
   42MOL0     C 5725   1.721   4.662   2.943 -0.4076 -1.8128  1.0652
   42MOL0     C 5726   1.733   4.524   2.990 -0.0551 -0.0997 -0.2720
   42MOL0     H 5727   2.255   4.895   2.965  1.7340 -0.3614  0.8213
   42MOL0     H 5728   2.460   4.899   3.082 -0.3848  1.3084  0.7454
   42MOL0     H 5729   2.675   4.808   3.211 -0.6260  2.0098  2.0244
   42MOL0     H 5730   2.569   4.676   3.154  3.9440  1.0750 -2.2881
   42MOL0     H 5731   2.779   4.608   3.259 -0.6563  1.5919 -1.7926
   42MOL0     H 5732   2.723   4.683   3.406 -1.2526  0.2424 -1.2118
   42MOL0     H 5733   2.596   4.507   3.470  2.5682  1.9064 -0.7055
   42MOL0     H 5734   2.524   4.502   3.295 -1.7983  0.2891 -0.4275
   42MOL0     H 5735   2.735   4.390   3.233  0.4781  0.1881  0.3920
   42MOL0     H 5736   2.781   4.398   3.409 -0.0069 -0.2546 -0.1067
   42MOL0     H 5737   2.533   4.264   3.285 -0.5218 -0.3871  0.1722
   42MOL0     H 5738   2.581   4.247   3.456  1.6211  3.1038  1.4135
   42MOL0     H 5739   2.630   4.035   3.331  0.5835 -1.5474 -2.3712
   42MOL0     H 5740   2.720   4.138   3.222  3.3674 -0.4365  0.6515
   42MOL0     H 5741   2.765   4.103   3.529 -1.9677  0.0523 -0.6002
   42MOL0     H 5742   2.884   4.191   3.427 -0.2797 -0.3514 -0.7520
   42MOL0     H 5743   2.965   3.992   3.512  1.1205  0.5410 -0.5264
   42MOL0     H 5744   2.837   3.900   3.453  1.2950  0.3629  2.1208
   42MOL0     H 5745   3.143   4.080   3.321  1.2980 -1.2316  0.9238
   42MOL0     H 5746   3.212   3.906   2.940  1.1421  0.9942 -0.4796
   42MOL0     H 5747   3.298   3.933   3.085 -1.1374 -3.1706 -0.6784
   42MOL0     H 5748   3.176   4.163   2.921  0.3712 -2.4431 -2.4800
   42MOL0     H 5749   3.303   4.162   3.050 -1.6227  3.8613 -0.9410
   42MOL0     H 5750   3.435   4.010   2.880  0.0695  1.3258  4.1417
   42MOL0     H 5751   3.319   4.072   2.761  1.5577 -2.7101 -0.2283
   42MOL0     H 5752   3.493   4.232   2.932  0.2857 -2.6002  0.2232
   42MOL0     H 5753   3.518   4.202   2.762  1.3935  0.1476  0.5851
   42MOL0     H 5754   3.581   4.427   2.791 -0.6519 -0.2544  1.5796
   42MOL0     H 5755   3.734   4.699   2.996 -1.8902  3.0336 -0.4950
   42MOL0     H 5756   3.727   4.739   2.826  0.9390  1.5385  0.3843
   42MOL0     H 5757   3.760   4.570   2.865  1.7793  0.2823 -0.0663
   42MOL0     H 5758   3.313   4.931   3.361 -2.1151  0.9603  0.1565
   42MOL0     H 5759   3.230   5.159   3.427  1.2115  0.3273  0.4013
   42MOL0     H 5760   3.298   5.560   3.279 -1.5503  0.7698 -0.7308
   42MOL0     H 5761   3.283   5.499   3.114  0.4713  1.2067 -0.3264
   42MOL0     H 5762   3.149   5.667   3.146 -0.8648 -0.7712 -0.8556
   42MOL0     H 5763   3.057   5.522   3.134  0.0535 -0.1230 -0.4831
   42MOL0     H 5764   3.118   5.654   3.402  1.9935 -2.1737 -0.0991
   42MOL0     H 5765   3.031   5.504   3.369  3.4229 -0.4530  1.8548
   42MOL0     H 5766   2.858   5.648   3.386  0.3904  1.8894  0.7069
   42MOL0     H 5767   2.878   5.682   3.214 -1.0266  3.1078  0.4780
   42MOL0     H 5768   2.974   5.842   3.440  0.2660  0.9154 -0.1615
   42MOL0     H 5769   3.028   5.871   3.268  1.4971 -2.7233  1.0047
   42MOL0     H 5770   2.741   5.879   3.363 -0.6180 -3.8696 -2.4879
   42MOL0     H 5771   2.797   5.898   3.198 -1.1219 -2.9061 -0.0168
   42MOL0     H 5772   2.762   6.125   3.265 -0.9039 -0.3207  2.2594
   42MOL0     H 5773   2.935   6.104   3.270  1.8844 -2.3848  1.9293
   42MOL0     H 5774   2.867   6.208   3.487  2.1719  0.4071 -1.2238
   42MOL0     H 5775   2.915   6.036   3.520 -2.9320 -4.3846 -1.0318
   42MOL0     H 5776   3.327   5.310   3.048 -2.8991 -0.6839 -0.4588
   42MOL0     H 5777   3.409   5.094   2.972  1.2204 -0.6378  0.1324
   42MOL0     H 5778   3.244   4.673   3.045  0.9303 -0.3502  0.2888
   42MOL0     H 5779   3.200   4.457   2.940 -0.9475  1.1447 -2.3831
   42MOL0     H 5780   2.278   4.691   3.414  1.6104 -2.4858 -0.6573
   42MOL0     H 5781   2.055   4.687   3.295 -0.1361  3.4675  2.9054
   42MOL0     H 5782   1.871   4.960   2.922 -1.5308  2.0646  2.5049
   42MOL0     H 5783   1.641   5.028   2.858 -0.3741 -0.0909  1.7793
   42MOL0     H 5784   1.280   4.997   2.875 -0.0391  0.4714 -3.5700
   42MOL0     H 5785   1.435   5.038   2.953  0.2009  0.7679  0.6916
   42MOL0     H 5786   1.515   5.098   2.704  1.7597  0.9563  3.1766
   42MOL0     H 5787   1.401   5.205   2.774 -0.0889  1.1261 -2.9973
   42MOL0     H 5788   1.210   5.081   2.668 -0.1571 -0.3743  1.1008
   42MOL0     H 5789   1.326   5.174   2.574  2.6896  0.4211  2.0149
   42MOL0     H 5790   1.277   4.979   2.436 -0.0259 -1.3167  0.0059
   42MOL0     H 5791   1.320   4.878   2.568 -2.0025 -0.1172 -0.8538
   42MOL0     H 5792   1.712   4.990   2.442 -1.1383  1.3921 -0.9534
   42MOL0     H 5793   1.516   4.631   2.893  1.2130 -0.5979  0.8595
   42MOL0     H 5794   1.748   4.531   3.098  1.4631  1.8382 -0.5561
   42MOL0     H 5795   1.641   4.468   2.973  0.5503 -1.2091  0.0048
   42MOL0     H 5796   1.816   4.476   2.937  0.4703 -0.0167  0.4689
   43MOL0     O 5797   0.568   5.073   3.587  0.6622  0.2433 -0.0493
   43MOL0     C 5798   0.623   4.962   3.603  0.1771 -0.2779 -0.1048
   43MOL0     O 5799   0.572   4.856   3.663 -0.4447  0.2877 -0.3594
   43MOL0     C 5800   0.436   4.843   3.694 -0.3389  0.0355 -0.2000
   43MOL0     C 5801   0.404   4.763   3.808 -0.1649  0.4754 -0.1524
   43MOL0     C 5802   0.267   4.724   3.831 -1.0131  0.1527  0.2471
   43MOL0     C 5803   0.164   4.772   3.754  0.1860 -0.3245  0.3017
   43MOL0     O 5804   0.029   4.736   3.777 -0.1098  0.2710 -0.0274
   43MOL0     C 5805  -0.033   4.776   3.899  0.4947 -0.8089 -0.3385
   43MOL0     C 5806   0.005   4.912   3.973 -0.3391  0.2612 -0.0874
   43MOL0     C 5807  -0.092   4.943   4.096  0.4434  0.2031  0.0525
   43MOL0     C 5808  -0.235   4.971   4.057 -1.0107  0.0672 -0.0619
   43MOL0     C 5809  -0.313   5.076   4.139  0.0079 -0.2332 -0.3335
   43MOL0     C 5810  -0.352   5.029   4.284  0.0611  0.2473 -0.0412
   43MOL0     C 5811  -0.351   5.152   4.375  0.5641  0.5532 -0.2152
   43MOL0     C 5812  -0.453   5.262   4.330 -0.0137  0.5297 -0.1818
   43MOL0     N 5813  -0.596   5.218   4.350  1.1219  0.2529  0.1815
   43MOL0     C 5814  -0.641   5.129   4.448 -0.2828  0.6287  0.6136
   43MOL0     C 5815  -0.775   5.149   4.433 -0.5584 -0.0679 -0.2292
   43MOL0     C 5816  -0.870   5.081   4.522  0.5638 -0.1466 -0.3808
   43MOL0     C 5817  -1.020   5.128   4.515 -0.6699 -0.1359  0.4403
   43MOL0     C 5818  -1.100   5.056   4.624 -0.3493  0.1706  0.1325
   43MOL0     C 5819  -1.242   5.086   4.601  0.1877 -0.5537 -0.4667
   43MOL0     O 5820  -1.276   4.994   4.500 -0.2631  0.0614  0.3407
   43MOL0     C 5821  -1.396   4.927   4.496  0.5813  0.4046  0.7169
   43MOL0     C 5822  -1.413   4.840   4.390  0.1090 -0.1331  0.0129
   43MOL0     C 5823  -1.524   4.756   4.377 -0.8865 -0.0854 -0.2878
   43MOL0     C 5824  -1.513   4.656   4.262 -0.4938 -0.6874 -0.6755
   43MOL0     C 5825  -1.627   4.754   4.465 -0.2219  0.1706 -0.0839
   43MOL0     C 5826  -1.748   4.675   4.442  1.0482 -0.2289 -0.0251
   43MOL0     O 5827  -1.814   4.696   4.322 -0.3327 -0.0474  0.6920
   43MOL0     C 5828  -1.940   4.655   4.308  0.7796 -0.5432  0.6182
   43MOL0     C 5829  -2.049   4.745   4.314  0.4211  0.9213  0.3354
   43MOL0     C 5830  -2.176   4.682   4.286  0.9344 -0.5565  1.0861
   43MOL0     C 5831  -2.190   4.548   4.255 -0.9470 -0.2705  0.2857
   43MOL0     O 5832  -2.306   4.485   4.222  0.5496 -0.1564  0.8164
   43MOL0     C 5833  -2.385   4.554   4.117  0.4893  0.3017 -0.5013
   43MOL0     C 5834  -2.507   4.462   4.088 -0.1670 -0.0827  0.0231
   43MOL0     C 5835  -2.476   4.316   4.062  1.0072  0.1392 -0.5952
   43MOL0     C 5836  -2.608   4.232   4.050  0.5801  0.8337 -1.2676
   43MOL0     C 5837  -2.662   4.258   3.908 -0.2630 -0.3925  0.1965
   43MOL0     C 5838  -2.784   4.179   3.866  0.1534  0.7325 -0.1826
   43MOL0     C 5839  -2.881   4.141   3.982  0.8411 -0.0157 -0.6230
   43MOL0     C 5840  -3.023   4.080   3.940 -0.3725 -0.7648 -0.0211
   43MOL0    Cl 5841  -3.012   3.915   3.862  0.1723  0.3506  0.3293
   43MOL0     C 5842  -2.079   4.468   4.246 -0.0332  0.1949 -0.3355
   43MOL0     C 5843  -1.958   4.522   4.272  0.4862 -0.0458  0.0886
   43MOL0     O 5844  -1.798   4.613   4.540  0.4990 -0.5267 -0.3116
   43MOL0     C 5845  -1.620   4.855   4.566  0.2476  0.2179 -0.8731
   43MOL0     C 5846  -1.500   4.929   4.587  0.1310 -0.8319 -0.0792
   43MOL0     N 5847  -0.803   5.248   4.343  0.1679  0.7491  0.9474
   43MOL0     N 5848  -0.698   5.290   4.294  0.0502  0.3842 -0.4461
   43MOL0     C 5849   0.197   4.871   3.656  0.1957  0.7885  0.1107
   43MOL0     C 5850   0.326   4.893   3.620 -0.5743  0.6822  0.3981
   43MOL0     C 5851   0.765   4.929   3.550  0.0252  0.2276 -0.0875
   43MOL0     C 5852   0.820   4.799   3.573 -0.9234  0.5755  0.9985
   43MOL0     C 5853   0.952   4.775   3.533 -0.1170  0.2653 -0.8326
   43MOL0     C 5854   1.036   4.870   3.473 -0.5041 -0.0160 -0.0753
   43MOL0     O 5855   1.163   4.845   3.437  0.1411  0.1314  0.2926
   43MOL0     C 5856   1.191   4.716   3.375  0.2235  0.2156  0.8909
   43MOL0     C 5857   1.321   4.709   3.295  0.8028  0.3334  0.2929
   43MOL0     C 5858   1.435   4.710   3.400  0.2135  0.3701 -0.1736
   43MOL0     C 5859   1.567   4.691   3.334 -0.4086  1.2639 -0.1060
   43MOL0     C 5860   1.669   4.749   3.424 -0.8084  0.8250 -0.7702
   43MOL0     C 5861   1.762   4.791   3.493 -0.2961 -0.6177  0.3679
   43MOL0     C 5862   0.980   4.991   3.446 -1.2921  0.3214 -0.3358
   43MOL0     C 5863   0.851   5.023   3.484 -0.3567 -1.1505 -0.7414
   43MOL0     C 5864   0.807   5.166   3.444  0.0579  0.3838  0.6533
   43MOL0     H 5865   0.487   4.724   3.866 -0.9221 -1.6149 -0.3868
   43MOL0     H 5866   0.258   4.654   3.914  1.4327 -2.5702 -1.6087
   43MOL0     H 5867  -0.008   4.698   3.972  3.4072 -0.3550 -0.7242
   43MOL0     H 5868  -0.140   4.786   3.881  0.6282 -0.0713 -0.7513
   43MOL0     H 5869   0.104   4.908   4.019  0.1106  0.4395 -1.0184
   43MOL0     H 5870   0.004   4.994   3.901  0.4651 -0.3629 -0.8139
   43MOL0     H 5871  -0.080   4.856   4.162 -2.3032 -0.5898 -0.3797
   43MOL0     H 5872  -0.051   5.031   4.146  1.4253 -0.7714  1.0071
   43MOL0     H 5873  -0.227   5.007   3.954 -2.2107 -1.4370 -0.7240
   43MOL0     H 5874  -0.294   4.879   4.055 -1.0450  0.0787  0.4493
   43MOL0     H 5875  -0.409   5.091   4.090  1.3173  3.4506 -2.1926
   43MOL0     H 5876  -0.254   5.168   4.135 -0.5181  0.0588 -2.0782
   43MOL0     H 5877  -0.442   4.968   4.274 -0.5310  0.8913  1.2019
   43MOL0     H 5878  -0.277   4.961   4.327  1.6380  1.5638 -0.6091
   43MOL0     H 5879  -0.248   5.190   4.375  1.1801 -1.0246  1.0789
   43MOL0     H 5880  -0.380   5.118   4.475 -4.7519  0.6940 -1.3775
   43MOL0     H 5881  -0.431   5.342   4.402 -0.7721  2.4101 -1.9498
   43MOL0     H 5882  -0.435   5.295   4.228  0.0410  1.2868  0.0659
   43MOL0     H 5883  -0.579   5.070   4.514  2.0387  0.8561 -1.2571
   43MOL0     H 5884  -0.841   5.095   4.627 -2.2443  0.2725  0.4297
   43MOL0     H 5885  -0.870   4.971   4.514 -1.0331 -0.2223  0.1863
   43MOL0     H 5886  -1.025   5.236   4.534  1.3232 -0.3517  2.7433
   43MOL0     H 5887  -1.046   5.106   4.412  1.4132 -1.2430  0.1099
   43MOL0     H 5888  -1.097   4.947   4.624  0.1887  0.1236 -2.3948
   43MOL0     H 5889  -1.065   5.102   4.717  1.5701  2.1111 -1.4227
   43MOL0     H 5890  -1.289   5.065   4.698  0.6700 -1.5507 -0.4392
   43MOL0     H 5891  -1.256   5.191   4.574 -1.3051 -0.5735  0.1045
   43MOL0     H 5892  -1.332   4.834   4.319  1.0270  0.9736  0.9201
   43MOL0     H 5893  -1.585   4.679   4.182 -1.8025 -1.6515  0.1724
   43MOL0     H 5894  -1.537   4.555   4.297  4.1253 -0.9547  2.5711
   43MOL0     H 5895  -1.414   4.654   4.217  0.0133  0.2766  0.3530
   43MOL0     H 5896  -2.046   4.853   4.324 -0.0523  0.8734  1.0943
   43MOL0     H 5897  -2.267   4.740   4.298  1.6548  0.3720  2.3670
   43MOL0     H 5898  -2.432   4.644   4.156  0.2758  0.1825 -0.4805
   43MOL0     H 5899  -2.329   4.570   4.025  0.5331  0.7239 -0.4006
   43MOL0     H 5900  -2.570   4.471   4.177 -1.6946  2.0373 -1.1814
   43MOL0     H 5901  -2.562   4.497   4.000 -2.8239 -1.8271  0.8439
   43MOL0     H 5902  -2.419   4.270   4.143  0.1900 -0.1037 -0.1422
   43MOL0     H 5903  -2.410   4.308   3.976  2.3044 -2.0140  0.4863
   43MOL0     H 5904  -2.690   4.250   4.120 -0.5315 -3.7420 -1.0504
   43MOL0     H 5905  -2.585   4.126   4.067 -2.9797 -0.0247 -0.9203
   43MOL0     H 5906  -2.682   4.364   3.890 -2.4967 -0.4641  1.8577
   43MOL0     H 5907  -2.582   4.223   3.841 -3.2368 -3.6023 -2.0546
   43MOL0     H 5908  -2.751   4.081   3.831 -0.3910  0.4268  0.1455
   43MOL0     H 5909  -2.822   4.226   3.776 -2.6990 -0.0952  0.5008
   43MOL0     H 5910  -2.909   4.234   4.032 -1.1151 -2.5951  3.7110
   43MOL0     H 5911  -2.829   4.069   4.046  0.8298 -0.0656 -0.6698
   43MOL0     H 5912  -3.072   4.151   3.873  4.0848  1.5982 -1.2107
   43MOL0     H 5913  -3.081   4.061   4.030 -0.3044 -0.6046  0.0565
   43MOL0     H 5914  -2.074   4.363   4.216 -3.1850  0.7198 -3.3687
   43MOL0     H 5915  -1.869   4.461   4.259  1.3649  1.5518 -1.8003
   43MOL0     H 5916  -1.698   4.860   4.641  2.6237 -0.1914  1.8076
   43MOL0     H 5917  -1.500   4.986   4.679 -0.4372 -0.9233 -0.0214
   43MOL0     H 5918   0.110   4.918   3.612  0.2755 -0.6674 -1.7565
   43MOL0     H 5919   0.358   4.948   3.532  2.8975  0.8207  1.5945
   43MOL0     H 5920   0.782   4.713   3.627  0.0768 -0.1979  0.4966
   43MOL0     H 5921   0.987   4.675   3.555  1.0475  1.1696  1.8078
   43MOL0     H 5922   1.206   4.650   3.460  4.3624  0.5841  0.6362
   43MOL0     H 5923   1.107   4.676   3.316 -0.5435  2.4983  0.3246
   43MOL0     H 5924   1.340   4.783   3.217 -1.2377 -0.5266 -1.1205
   43MOL0     H 5925   1.317   4.612   3.244 -0.3676 -0.0265  1.0300
   43MOL0     H 5926   1.426   4.809   3.445 -2.8111 -0.4867  1.4625
   43MOL0     H 5927   1.423   4.631   3.475 -1.8663 -0.0481 -0.8637
   43MOL0     H 5928   1.567   4.743   3.238 -1.5290 -2.1222 -2.1147
   43MOL0     H 5929   1.596   4.588   3.310  3.4438  1.8969  1.2274
   43MOL0     H 5930   1.845   4.841   3.539 -1.7300  2.1231  0.1868
   43MOL0     H 5931   1.040   5.064   3.392  3.7234 -0.6494  3.2277
   43MOL0     H 5932   0.779   5.227   3.531  1.7107 -2.7033  3.5966
   43MOL0     H 5933   0.885   5.217   3.386  0.1174 -0.2212  0.2000
   43MOL0     H 5934   0.716   5.162   3.383  1.1628 -2.1119 -0.9644
   44MOL0     O 5935  10.164   2.438   2.951 -0.7851  0.2384  0.3601
   44MOL0     C 5936  10.196   2.520   2.860 -0.6172  0.8494  0.5908
   44MOL0     O 5937  10.321   2.549   2.821 -0.0766  0.1328  0.5937
   44MOL0     C 5938  10.430   2.464   2.849  0.2649  0.4311 -0.2901
   44MOL0     C 5939  10.470   2.371   2.758  1.1712 -0.4907  0.3789
   44MOL0     C 5940  10.577   2.293   2.786 -0.4385  0.4623  0.2244
   44MOL0     C 5941  10.665   2.318   2.898 -0.2525 -0.6895  0.7616
   44MOL0     O 5942  10.785   2.247   2.914  0.0241  0.2322 -0.0921
   44MOL0     C 5943  10.769   2.154   3.030  0.1519 -0.2034 -0.6283
   44MOL0     C 5944  10.702   2.027   2.989  0.4358 -0.6227  1.5654
   44MOL0     C 5945  10.800   1.930   2.923  0.5576  0.1040 -0.1066
   44MOL0     C 5946  10.744   1.782   2.925 -0.1476 -0.1164  0.0283
   44MOL0     C 5947  10.849   1.685   2.879 -0.2272 -0.6959  1.4525
   44MOL0     C 5948  10.895   1.698   2.731  0.7027  0.0845 -0.0680
   44MOL0     C 5949  11.007   1.588   2.704  0.4260 -0.3345 -0.1838
   44MOL0     C 5950  11.052   1.578   2.559 -0.2939  0.0119  0.5788
   44MOL0     N 5951  11.174   1.502   2.534 -0.4633  0.7304  0.2071
   44MOL0     C 5952  11.294   1.559   2.514 -1.0025 -0.6227 -0.0984
   44MOL0     C 5953  11.379   1.453   2.501  0.3143 -1.2871  0.4379
   44MOL0     C 5954  11.526   1.469   2.498  0.1310 -0.2489 -0.6759
   44MOL0     C 5955  11.593   1.430   2.362  0.3632  0.7366  0.1250
   44MOL0     C 5956  11.747   1.427   2.368  0.6598  0.3021  0.3724
   44MOL0     C 5957  11.805   1.300   2.343  0.0574  0.5423 -0.0094
   44MOL0     O 5958  11.942   1.291   2.389 -0.2187  0.5939  0.1129
   44MOL0     C 5959  12.021   1.199   2.325  0.1424  0.0691  0.6106
   44MOL0     C 5960  12.118   1.229   2.232  0.1390  0.1082  0.3934
   44MOL0     C 5961  12.200   1.128   2.175 -0.2208 -0.6686 -0.2217
   44MOL0     C 5962  12.297   1.175   2.070  0.5459  0.4208 -0.0480
   44MOL0     C 5963  12.192   0.996   2.217 -0.2331  0.3402 -0.1297
   44MOL0     C 5964  12.290   0.882   2.164  0.5491  0.3960 -0.2739
   44MOL0     O 5965  12.422   0.914   2.157  0.6251 -0.7305  0.4763
   44MOL0     C 5966  12.526   0.833   2.119 -0.1000 -0.2001  0.8577
   44MOL0     C 5967  12.637   0.900   2.075  0.5422  0.6548 -0.3607
   44MOL0     C 5968  12.746   0.838   2.030 -0.9442  0.3053 -0.2624
   44MOL0     C 5969  12.755   0.701   2.020 -0.2394 -0.5606  0.0938
   44MOL0     O 5970  12.860   0.645   1.952 -0.1391 -0.3993 -0.3434
   44MOL0     C 5971  12.940   0.566   2.044  1.0942  1.0278  0.0359
   44MOL0     C 5972  13.069   0.635   2.080 -0.2786 -0.2320 -0.5250
   44MOL0     C 5973  13.164   0.540   2.167  0.3607  0.4391  0.0834
   44MOL0     C 5974  13.296   0.619   2.188  0.0520 -0.5888 -0.5418
   44MOL0     C 5975  13.374   0.554   2.297 -0.6203 -0.1186 -0.4878
   44MOL0     C 5976  13.515   0.611   2.306 -0.0564 -0.7309  0.3267
   44MOL0     C 5977  13.597   0.516   2.211  0.0599  0.2360 -0.1212
   44MOL0     C 5978  13.699   0.602   2.147 -0.3910  0.1438 -0.1891
   44MOL0    Cl 5979  13.841   0.503   2.123  0.4645 -0.0172 -0.3280
   44MOL0     C 5980  12.648   0.625   2.070 -0.1427 -0.4695 -0.4360
   44MOL0     C 5981  12.530   0.690   2.113 -0.1229  0.2687 -0.1486
   44MOL0     O 5982  12.242   0.770   2.152 -0.3651 -0.1485 -0.2589
   44MOL0     C 5983  12.102   0.961   2.311 -0.2471 -0.0938 -1.1461
   44MOL0     C 5984  12.014   1.062   2.362 -0.1518 -0.8355  0.4912
   44MOL0     N 5985  11.305   1.340   2.504 -0.6999  0.0345  1.1182
   44MOL0     N 5986  11.182   1.365   2.527 -0.4160  0.1857 -0.4952
   44MOL0     C 5987  10.628   2.429   2.983 -0.3647  0.1251 -0.2379
   44MOL0     C 5988  10.501   2.488   2.962  0.1039  0.3474  0.7048
   44MOL0     C 5989  10.088   2.604   2.796 -0.5836 -0.1095  0.5002
   44MOL0     C 5990  10.111   2.733   2.748  1.0133 -0.7602  0.2494
   44MOL0     C 5991  10.008   2.812   2.707  0.6111  0.2300  0.0877
   44MOL0     C 5992   9.877   2.763   2.699 -0.1041  0.6290  0.2178
   44MOL0     O 5993   9.773   2.844   2.671  0.9969 -0.1415  0.1385
   44MOL0     C 5994   9.651   2.797   2.604 -0.1338  0.3160  0.3806
   44MOL0     C 5995   9.562   2.911   2.586  0.2231 -0.5851 -1.0682
   44MOL0     C 5996   9.419   2.889   2.639 -0.7313  0.1212 -0.0404
   44MOL0     C 5997   9.331   2.771   2.584 -1.0345 -1.2610  1.0963
   44MOL0     C 5998   9.269   2.807   2.458  0.2302 -0.8249  0.1090
   44MOL0     C 5999   9.213   2.861   2.357  0.6029  0.4567  0.1215
   44MOL0     C 6000   9.860   2.631   2.729  0.2807 -0.1960  0.0128
   44MOL0     C 6001   9.964   2.553   2.778  0.0209 -0.0054  0.2016
   44MOL0     C 6002   9.928   2.409   2.801  0.7675 -0.3733  0.1397
   44MOL0     H 6003  10.408   2.362   2.669  1.1584  0.8640  0.2415
   44MOL0     H 6004  10.622   2.223   2.716  1.5331  1.7964  0.0495
   44MOL0     H 6005  10.719   2.207   3.111  0.7824  0.3017 -0.5593
   44MOL0     H 6006  10.866   2.130   3.076 -0.3664 -1.6874 -0.2612
   44MOL0     H 6007  10.651   1.973   3.068 -0.1095 -0.5935  1.2362
   44MOL0     H 6008  10.618   2.046   2.921  2.3030 -3.2477 -1.8478
   44MOL0     H 6009  10.819   1.961   2.820 -0.4188  0.5984 -0.1479
   44MOL0     H 6010  10.893   1.929   2.980 -0.3649  0.5876  1.4583
   44MOL0     H 6011  10.707   1.740   3.019  1.9560 -1.2367  0.4087
   44MOL0     H 6012  10.672   1.770   2.844  0.8321 -3.2582 -0.4928
   44MOL0     H 6013  10.815   1.583   2.900 -0.2876 -1.0864 -0.4071
   44MOL0     H 6014  10.947   1.699   2.926  0.2134  0.3007  0.2721
   44MOL0     H 6015  10.811   1.680   2.663  0.2037  1.7940  0.0540
   44MOL0     H 6016  10.938   1.797   2.710  1.4044 -0.2993 -0.4635
   44MOL0     H 6017  10.968   1.489   2.731  0.2865 -0.1122  0.4457
   44MOL0     H 6018  11.092   1.603   2.772  2.9750 -0.1307 -3.1615
   44MOL0     H 6019  10.967   1.529   2.511 -0.8860 -0.2604  1.8394
   44MOL0     H 6020  11.072   1.678   2.521  1.1817 -1.1268 -1.9434
   44MOL0     H 6021  11.310   1.666   2.524  1.1308 -0.9910  0.8400
   44MOL0     H 6022  11.572   1.414   2.580  1.1134  2.2591  0.5476
   44MOL0     H 6023  11.537   1.576   2.517 -1.3954 -0.1872 -0.0240
   44MOL0     H 6024  11.541   1.338   2.334  0.9401 -0.1848  1.9400
   44MOL0     H 6025  11.553   1.510   2.299 -0.0701  1.7414  1.6256
   44MOL0     H 6026  11.777   1.495   2.287  0.1932 -0.0944 -0.1378
   44MOL0     H 6027  11.786   1.465   2.463  0.8123  1.9265 -0.3027
   44MOL0     H 6028  11.754   1.218   2.394  0.9188  0.6056  0.9915
   44MOL0     H 6029  11.797   1.292   2.235 -0.4010 -2.3788  0.1605
   44MOL0     H 6030  12.120   1.329   2.190  1.1750  0.1190  0.4463
   44MOL0     H 6031  12.240   1.226   1.992 -0.3138 -0.5444 -0.0806
   44MOL0     H 6032  12.360   1.106   2.014  0.5855  1.0284 -0.7666
   44MOL0     H 6033  12.363   1.247   2.118 -0.1943 -0.0763  1.7881
   44MOL0     H 6034  12.639   1.008   2.079 -1.8121  0.7216  0.7049
   44MOL0     H 6035  12.832   0.895   1.998 -0.2476 -0.0770  0.8855
   44MOL0     H 6036  12.881   0.530   2.129 -0.5069  0.2302 -1.3592
   44MOL0     H 6037  12.967   0.476   1.988 -2.5123  0.4832 -1.0685
   44MOL0     H 6038  13.118   0.665   1.987 -2.7819 -0.9544 -2.1902
   44MOL0     H 6039  13.039   0.721   2.140 -1.8940 -1.3634  0.3797
   44MOL0     H 6040  13.196   0.451   2.112  0.0743 -0.2813  1.0584
   44MOL0     H 6041  13.121   0.510   2.263  0.4176  0.8844  0.2492
   44MOL0     H 6042  13.271   0.723   2.212 -0.7488 -0.8283 -0.3076
   44MOL0     H 6043  13.365   0.632   2.104  0.4234 -0.8336 -0.2760
   44MOL0     H 6044  13.328   0.575   2.394  1.5367 -0.5654  0.6939
   44MOL0     H 6045  13.371   0.445   2.290 -0.1796 -0.2107  0.6338
   44MOL0     H 6046  13.555   0.595   2.406  2.3410 -1.3442 -0.6563
   44MOL0     H 6047  13.527   0.715   2.274 -0.0695 -1.7450 -3.5543
   44MOL0     H 6048  13.534   0.475   2.131  1.6428  0.5546 -1.5899
   44MOL0     H 6049  13.649   0.438   2.266  3.6234  2.0122 -0.6977
   44MOL0     H 6050  13.731   0.674   2.223  0.9092 -0.2029 -0.3995
   44MOL0     H 6051  13.666   0.648   2.053 -0.5055  1.9608  0.6915
   44MOL0     H 6052  12.654   0.516   2.073 -0.1478 -0.4730 -0.5478
   44MOL0     H 6053  12.440   0.646   2.156 -0.2847 -0.2880 -1.0435
   44MOL0     H 6054  12.092   0.859   2.344  1.3654  0.2764  0.6654
   44MOL0     H 6055  11.930   1.030   2.424 -0.4953 -2.6611 -0.8646
   44MOL0     H 6056  10.698   2.452   3.062 -2.7860  0.0440  2.0759
   44MOL0     H 6057  10.481   2.565   3.036  2.0438 -0.1509  1.8163
   44MOL0     H 6058  10.200   2.792   2.767 -0.4238  1.3848  0.5807
   44MOL0     H 6059  10.029   2.916   2.686  0.6202  0.4745  1.2101
   44MOL0     H 6060   9.679   2.737   2.516  1.5804 -3.8984  3.4510
   44MOL0     H 6061   9.607   2.721   2.669  0.0276 -1.4477 -1.4419
   44MOL0     H 6062   9.545   2.934   2.480 -0.0640 -0.3564 -0.9752
   44MOL0     H 6063   9.599   3.004   2.631  0.5773 -0.6921 -1.1368
   44MOL0     H 6064   9.433   2.877   2.747 -2.3934 -0.9637  0.0809
   44MOL0     H 6065   9.366   2.982   2.616  1.0144  0.4729 -3.0651
   44MOL0     H 6066   9.255   2.758   2.662  0.0131  1.4654  2.7054
   44MOL0     H 6067   9.392   2.680   2.572 -0.5525 -0.8219  0.1418
   44MOL0     H 6068   9.179   2.919   2.273  0.4636 -0.5732 -0.5530
   44MOL0     H 6069   9.762   2.587   2.714  0.4315 -0.1919 -1.0374
   44MOL0     H 6070   9.910   2.396   2.908 -2.2088 -0.5248 -0.2737
   44MOL0     H 6071   9.828   2.386   2.763  1.7063 -1.6683 -1.6541
   44MOL0     H 6072   9.999   2.337   2.761 -1.1047 -2.0419 -0.3393
   45MOL0     O 6073   4.123   8.816   5.659 -0.2362  0.3521 -0.0354
   45MOL0     C 6074   4.015   8.806   5.719  0.8384  0.7733  0.0499
   45MOL0     O 6075   4.001   8.777   5.845 -1.0719  0.4950 -0.4184
   45MOL0     C 6076   4.116   8.742   5.918  0.1923  0.6599  0.3781
   45MOL0     C 6077   4.178   8.620   5.911 -0.4761  0.5813 -0.5717
   45MOL0     C 6078   4.291   8.598   5.984 -0.1539  0.2917 -0.4583
   45MOL0     C 6079   4.351   8.705   6.060  0.6255  0.7224 -0.6070
   45MOL0     O 6080   4.472   8.678   6.114 -0.2717 -0.0362  0.5023
   45MOL0     C 6081   4.548   8.789   6.159  0.3782  0.3911 -0.0108
   45MOL0     C 6082   4.694   8.753   6.217  0.1066 -0.5199  0.3127
   45MOL0     C 6083   4.680   8.641   6.326  0.2678  0.4464  0.2537
   45MOL0     C 6084   4.821   8.616   6.388 -0.0862  0.4941 -0.6698
   45MOL0     C 6085   4.825   8.483   6.469  0.4462 -0.0899 -0.2117
   45MOL0     C 6086   4.957   8.483   6.538 -0.3603  0.3037  0.2906
   45MOL0     C 6087   4.973   8.360   6.618 -0.5453 -0.3409  0.1803
   45MOL0     C 6088   5.068   8.383   6.726  0.2640  0.3152 -0.9869
   45MOL0     N 6089   5.134   8.260   6.773 -0.3389 -0.3672 -0.0745
   45MOL0     C 6090   5.230   8.186   6.709 -0.1380 -0.4054  0.5583
   45MOL0     C 6091   5.276   8.106   6.806 -0.8948 -0.0315  0.5475
   45MOL0     C 6092   5.376   8.002   6.771  0.3942  0.0647 -0.1837
   45MOL0     C 6093   5.505   8.068   6.738 -0.7130  0.1137  0.0310
   45MOL0     C 6094   5.616   7.955   6.715 -0.3931 -0.0276  0.0669
   45MOL0     C 6095   5.757   8.009   6.667  0.3942  0.3532  0.0310
   45MOL0     O 6096   5.811   8.065   6.786  0.2957  0.3340  0.5440
   45MOL0     C 6097   5.916   8.154   6.759  0.7274  0.4367 -0.6190
   45MOL0     C 6098   5.963   8.241   6.868  0.3477  0.6017  0.3755
   45MOL0     C 6099   6.064   8.332   6.858 -0.3448 -0.1255  0.1081
   45MOL0     C 6100   6.106   8.401   6.989 -0.0853  0.8549 -0.6780
   45MOL0     C 6101   6.133   8.337   6.741 -1.3040 -0.0635 -0.6963
   45MOL0     C 6102   6.253   8.428   6.710  0.3287  0.1514 -1.4777
   45MOL0     O 6103   6.336   8.387   6.610 -0.4704  0.2922 -0.7711
   45MOL0     C 6104   6.474   8.416   6.615  0.0380 -0.1421  0.8773
   45MOL0     C 6105   6.555   8.488   6.715  0.0529  0.5166  0.2546
   45MOL0     C 6106   6.692   8.504   6.699  0.0133 -0.2687 -0.1134
   45MOL0     C 6107   6.754   8.449   6.588 -0.5917 -0.1936  0.2945
   45MOL0     O 6108   6.881   8.474   6.579 -0.6475  0.4113  0.3956
   45MOL0     C 6109   6.966   8.391   6.496  0.1545  0.1905  0.2126
   45MOL0     C 6110   7.117   8.439   6.505 -0.3281  0.2957  0.5823
   45MOL0     C 6111   7.140   8.585   6.458  0.8853  0.4961 -0.2590
   45MOL0     C 6112   7.274   8.612   6.390 -0.7559  0.7107  0.1299
   45MOL0     C 6113   7.266   8.764   6.351 -0.5817  0.9293  0.1705
   45MOL0     C 6114   7.393   8.801   6.269  0.5042 -0.2702  0.4833
   45MOL0     C 6115   7.402   8.952   6.299  0.2815  1.0056  1.0235
   45MOL0     C 6116   7.496   9.024   6.209 -0.0634  0.0434 -0.2925
   45MOL0    Cl 6117   7.438   9.007   6.037  0.6791 -0.0808 -0.3790
   45MOL0     C 6118   6.680   8.378   6.490  0.1541  0.2318 -1.7523
   45MOL0     C 6119   6.539   8.368   6.505  0.1250  0.7688 -0.5751
   45MOL0     O 6120   6.252   8.542   6.761  0.3428  0.3109 -0.1058
   45MOL0     C 6121   6.101   8.250   6.635 -0.9565 -0.0580 -0.6542
   45MOL0     C 6122   5.995   8.157   6.642 -0.1865 -0.4647  0.6300
   45MOL0     N 6123   5.206   8.124   6.922 -0.2301  0.1180 -0.3082
   45MOL0     N 6124   5.116   8.208   6.899  0.9516  0.3538  0.2285
   45MOL0     C 6125   4.285   8.824   6.074 -0.7557  0.3707  0.4425
   45MOL0     C 6126   4.164   8.837   6.008  0.8934 -0.4964 -0.3091
   45MOL0     C 6127   3.888   8.850   5.643  0.7984 -0.2976 -0.3108
   45MOL0     C 6128   3.771   8.844   5.714 -0.3436  0.6980 -0.1122
   45MOL0     C 6129   3.651   8.842   5.647 -0.1698  0.0997 -0.3053
   45MOL0     C 6130   3.652   8.884   5.511  0.6679 -0.3389 -0.4789
   45MOL0     O 6131   3.532   8.865   5.444  0.5357 -0.5903 -0.1057
   45MOL0     C 6132   3.544   8.779   5.329 -0.1659  0.2560 -0.0677
   45MOL0     C 6133   3.530   8.629   5.354 -0.1096  0.5060 -0.2536
   45MOL0     C 6134   3.659   8.554   5.416  0.1672 -1.1755 -0.4366
   45MOL0     C 6135   3.769   8.501   5.322 -0.2903  0.7261 -0.4111
   45MOL0     C 6136   3.887   8.478   5.394 -0.0497 -0.4644 -0.7421
   45MOL0     C 6137   3.999   8.456   5.439  0.2180 -0.3048 -0.8149
   45MOL0     C 6138   3.765   8.923   5.444 -0.1503 -0.4008  0.3777
   45MOL0     C 6139   3.884   8.898   5.507  0.0227  0.2702  0.5940
   45MOL0     C 6140   4.003   8.881   5.413 -0.1249  0.0342 -0.9843
   45MOL0     H 6141   4.140   8.546   5.841  0.6643 -0.3235 -0.2735
   45MOL0     H 6142   4.343   8.503   5.986 -0.2206  0.1788 -2.5795
   45MOL0     H 6143   4.497   8.831   6.246  0.5886  1.6703 -0.4918
   45MOL0     H 6144   4.569   8.858   6.077  0.9666 -0.7009 -0.7941
   45MOL0     H 6145   4.754   8.727   6.130 -1.5331  3.1380 -2.1945
   45MOL0     H 6146   4.737   8.845   6.259 -1.8732  0.3575  0.5511
   45MOL0     H 6147   4.601   8.669   6.396 -1.2329 -0.5915 -0.9663
   45MOL0     H 6148   4.652   8.548   6.275  1.0335  0.8508 -0.9596
   45MOL0     H 6149   4.886   8.615   6.300 -0.6709 -1.1106 -1.1158
   45MOL0     H 6150   4.844   8.704   6.449 -3.6639  0.8314  0.4229
   45MOL0     H 6151   4.799   8.397   6.406  2.0255  0.3043 -1.4525
   45MOL0     H 6152   4.749   8.491   6.548  0.8378 -0.4957  0.2094
   45MOL0     H 6153   5.041   8.507   6.472  0.3979  2.5485  1.9445
   45MOL0     H 6154   4.951   8.578   6.592  0.8521  1.4475 -1.4619
   45MOL0     H 6155   5.001   8.281   6.548  0.5702  2.0201 -2.1969
   45MOL0     H 6156   4.876   8.336   6.664 -1.4852  2.0412 -0.4185
   45MOL0     H 6157   5.140   8.457   6.691 -1.8511  1.9960 -2.0739
   45MOL0     H 6158   5.013   8.416   6.815  1.7531  1.5114 -0.4604
   45MOL0     H 6159   5.250   8.186   6.602 -2.0470 -0.2833  0.1521
   45MOL0     H 6160   5.346   7.932   6.691  2.9750 -0.6119 -0.6584
   45MOL0     H 6161   5.390   7.949   6.865  0.8026 -2.3405 -1.5100
   45MOL0     H 6162   5.502   8.130   6.648 -0.0287 -2.1928 -1.6996
   45MOL0     H 6163   5.535   8.137   6.817  0.3359 -0.0500 -0.2153
   45MOL0     H 6164   5.629   7.895   6.805  0.3514  1.9248  1.3376
   45MOL0     H 6165   5.588   7.888   6.633  1.9286 -1.1769  0.1410
   45MOL0     H 6166   5.820   7.928   6.629 -0.3196 -0.5569  0.7255
   45MOL0     H 6167   5.731   8.080   6.587 -2.1609 -0.5750 -0.0486
   45MOL0     H 6168   5.897   8.236   6.954 -2.6775 -0.3156 -1.8337
   45MOL0     H 6169   6.018   8.422   7.051 -0.0228 -0.5408 -0.0576
   45MOL0     H 6170   6.175   8.485   6.974 -0.2862  0.7569 -2.2742
   45MOL0     H 6171   6.164   8.326   7.044 -2.5328  0.1275  1.0880
   45MOL0     H 6172   6.512   8.519   6.810  2.7292  2.8734  0.8330
   45MOL0     H 6173   6.762   8.547   6.769  2.1455 -1.1028 -1.6316
   45MOL0     H 6174   6.952   8.284   6.515 -2.0472  0.2377 -0.8958
   45MOL0     H 6175   6.935   8.395   6.391 -3.0889 -0.2388  1.0531
   45MOL0     H 6176   7.159   8.407   6.600  0.0380 -0.9487  0.0251
   45MOL0     H 6177   7.179   8.372   6.445 -2.2015 -0.8332 -0.2033
   45MOL0     H 6178   7.135   8.647   6.548  1.0989  0.5532 -0.2860
   45MOL0     H 6179   7.062   8.622   6.391  0.4121  1.1144  0.6071
   45MOL0     H 6180   7.291   8.562   6.295 -0.4314 -0.8453  0.9787
   45MOL0     H 6181   7.358   8.586   6.455 -0.8277  0.6803  0.2106
   45MOL0     H 6182   7.176   8.778   6.291 -1.8892 -0.4910  1.7155
   45MOL0     H 6183   7.264   8.822   6.444  0.9825 -2.8223  2.7742
   45MOL0     H 6184   7.391   8.773   6.163  1.0627  1.8015 -0.1127
   45MOL0     H 6185   7.480   8.745   6.305 -0.1788 -1.1711  0.7695
   45MOL0     H 6186   7.444   8.959   6.400  0.6125 -0.3608  1.0004
   45MOL0     H 6187   7.304   8.999   6.299  0.7372  1.9749  0.4485
   45MOL0     H 6188   7.597   8.984   6.218  0.6245  0.5632 -4.1189
   45MOL0     H 6189   7.511   9.131   6.228  2.3617 -0.5191  1.3783
   45MOL0     H 6190   6.733   8.347   6.401  2.5094 -2.3364  0.3653
   45MOL0     H 6191   6.474   8.320   6.433  3.0781 -2.5061 -1.3765
   45MOL0     H 6192   6.171   8.254   6.552  2.4250 -1.0062  1.9345
   45MOL0     H 6193   5.975   8.099   6.552 -0.8856  2.4768 -1.2199
   45MOL0     H 6194   4.323   8.904   6.137  3.2719  0.1225 -1.3626
   45MOL0     H 6195   4.120   8.935   6.021  1.3863 -0.0057 -2.0600
   45MOL0     H 6196   3.772   8.826   5.821 -0.1667  0.7712 -0.1004
   45MOL0     H 6197   3.558   8.820   5.697 -0.7296 -1.3020 -1.8576
   45MOL0     H 6198   3.463   8.807   5.260 -0.1144 -1.5180 -0.9069
   45MOL0     H 6199   3.628   8.794   5.261 -1.7976  0.5846 -2.1350
   45MOL0     H 6200   3.499   8.581   5.261 -4.4340  0.7129  0.8420
   45MOL0     H 6201   3.440   8.605   5.411  0.4175 -0.0719  0.3497
   45MOL0     H 6202   3.702   8.635   5.475  1.9800 -0.8066 -2.1453
   45MOL0     H 6203   3.624   8.470   5.476 -1.7666  1.6430  2.7428
   45MOL0     H 6204   3.782   8.573   5.240  2.7546  1.5444  0.6768
   45MOL0     H 6205   3.739   8.403   5.283  0.0741  0.0317  0.9828
   45MOL0     H 6206   4.099   8.430   5.467 -0.9897 -1.9456  2.6288
   45MOL0     H 6207   3.770   8.942   5.337 -2.4431 -1.2209  0.0642
   45MOL0     H 6208   3.982   8.894   5.306  3.7920 -1.1239 -2.0642
   45MOL0     H 6209   4.084   8.954   5.428  0.3834 -0.2092 -2.3248
   45MOL0     H 6210   4.037   8.778   5.425 -2.4113 -0.9607 -2.3114
   46MOL0     O 6211   5.610   7.205   8.218  0.1744  0.4690  0.2398
   46MOL0     C 6212   5.630   7.277   8.314 -0.4920  0.1818  0.0001
   46MOL0     O 6213   5.746   7.286   8.389  0.1089  0.8429  0.7150
   46MOL0     C 6214   5.850   7.209   8.339  0.8720 -0.1586 -0.0729
   46MOL0     C 6215   5.918   7.261   8.230 -0.4158  0.2474  0.5047
   46MOL0     C 6216   6.022   7.189   8.176 -0.5736  0.4710 -0.1520
   46MOL0     C 6217   6.046   7.060   8.214  0.2417  0.5068  0.9966
   46MOL0     O 6218   6.135   6.981   8.145  0.0633  0.2551  0.1770
   46MOL0     C 6219   6.271   7.019   8.135  0.3730 -0.2221 -0.4122
   46MOL0     C 6220   6.349   6.902   8.066 -0.0506  0.1686 -0.3369
   46MOL0     C 6221   6.495   6.922   8.054  0.3245  0.7790 -0.6341
   46MOL0     C 6222   6.527   7.052   7.981  0.1990 -0.3521 -0.1099
   46MOL0     C 6223   6.478   7.054   7.833 -0.2265 -0.6544 -0.1127
   46MOL0     C 6224   6.553   7.143   7.738  0.1617 -0.2078  0.2562
   46MOL0     C 6225   6.485   7.160   7.591  0.0368  0.1164 -0.0389
   46MOL0     C 6226   6.497   7.310   7.544 -0.0435  0.0917  0.1178
   46MOL0     N 6227   6.432   7.404   7.628 -0.6473  0.5450  0.0727
   46MOL0     C 6228   6.295   7.415   7.615  0.8015  0.5160 -0.1334
   46MOL0     C 6229   6.265   7.529   7.672  0.1313  0.0859  1.2328
   46MOL0     C 6230   6.129   7.597   7.662  0.5565 -0.2290 -0.1208
   46MOL0     C 6231   6.060   7.602   7.809 -0.2676 -0.1881  0.3077
   46MOL0     C 6232   6.008   7.451   7.847  0.1484 -0.3876  0.4317
   46MOL0     C 6233   5.866   7.456   7.821  0.9346 -0.1097  0.0037
   46MOL0     O 6234   5.797   7.543   7.912  0.3398 -0.1155  0.4623
   46MOL0     C 6235   5.658   7.531   7.906  1.1748 -0.4919  0.1126
   46MOL0     C 6236   5.576   7.445   7.818 -1.0188 -0.2188 -0.0483
   46MOL0     C 6237   5.437   7.440   7.833 -0.6259  0.0779 -0.0080
   46MOL0     C 6238   5.358   7.359   7.729  0.6694  0.0701  0.4963
   46MOL0     C 6239   5.372   7.510   7.937 -0.0441 -0.0694  0.1908
   46MOL0     C 6240   5.221   7.520   7.940 -1.4722 -1.0778 -0.4669
   46MOL0     O 6241   5.156   7.396   7.931  0.1064 -0.3679  0.0366
   46MOL0     C 6242   5.022   7.412   7.901 -0.4527 -0.2837  0.0594
   46MOL0     C 6243   4.916   7.384   7.993  1.4169  0.0798  1.0782
   46MOL0     C 6244   4.776   7.392   7.955 -0.2246  0.0967 -0.3298
   46MOL0     C 6245   4.740   7.429   7.826 -0.5297 -0.5164  0.6783
   46MOL0     O 6246   4.611   7.438   7.785 -0.0470  0.4522 -0.4212
   46MOL0     C 6247   4.570   7.550   7.698 -0.1045 -0.1387 -0.6698
   46MOL0     C 6248   4.420   7.564   7.718 -0.2188 -0.1673 -0.0430
   46MOL0     C 6249   4.364   7.648   7.601 -0.3917 -1.0061 -0.2727
   46MOL0     C 6250   4.353   7.579   7.470  0.2220  0.6520  0.2515
   46MOL0     C 6251   4.312   7.681   7.360 -0.3881  0.5265 -0.4537
   46MOL0     C 6252   4.245   7.602   7.242  0.1467  0.0294  0.2103
   46MOL0     C 6253   4.092   7.568   7.266  0.7270 -0.6142  0.0706
   46MOL0     C 6254   4.041   7.479   7.146 -0.4434 -0.3638 -0.3765
   46MOL0    Cl 6255   4.114   7.319   7.129  0.2111 -0.1089 -0.1333
   46MOL0     C 6256   4.848   7.464   7.739 -0.3313  0.3900 -0.4607
   46MOL0     C 6257   4.984   7.451   7.775  0.3111  0.1549 -0.1572
   46MOL0     O 6258   5.171   7.623   7.974  0.2370 -0.1784 -1.1466
   46MOL0     C 6259   5.454   7.579   8.031 -0.0787 -0.3687  0.9567
   46MOL0     C 6260   5.587   7.595   8.010  0.1036 -0.2181  1.2761
   46MOL0     N 6261   6.385   7.578   7.728 -0.4594  0.5416  0.2774
   46MOL0     N 6262   6.485   7.510   7.692 -0.2588 -0.4017 -0.2548
   46MOL0     C 6263   5.964   6.999   8.318  0.5066 -0.8289  0.1437
   46MOL0     C 6264   5.870   7.074   8.385 -0.3403  0.4490  0.8513
   46MOL0     C 6265   5.520   7.364   8.355  0.4260 -0.4773 -0.5036
   46MOL0     C 6266   5.548   7.460   8.460 -0.2444 -0.2603  0.3457
   46MOL0     C 6267   5.453   7.543   8.513  0.5624 -1.1160 -0.0278
   46MOL0     C 6268   5.323   7.556   8.456  0.5363 -0.1451 -0.2158
   46MOL0     O 6269   5.241   7.659   8.501  0.5954 -0.9320  0.4147
   46MOL0     C 6270   5.111   7.689   8.440  0.7523  0.5829 -0.4534
   46MOL0     C 6271   5.002   7.600   8.498  1.6894 -0.0878  0.2741
   46MOL0     C 6272   4.945   7.640   8.641  0.2075  0.1709  0.3071
   46MOL0     C 6273   4.826   7.566   8.698  0.0876  0.0216 -0.1007
   46MOL0     C 6274   4.711   7.587   8.616  0.2491  0.9017  0.1508
   46MOL0     C 6275   4.608   7.609   8.546 -0.0113  1.2681  0.0295
   46MOL0     C 6276   5.295   7.466   8.351 -0.1373 -0.1129  0.7408
   46MOL0     C 6277   5.388   7.373   8.307 -0.3065  1.1106  0.0228
   46MOL0     C 6278   5.334   7.274   8.195  0.0334  0.6133  0.0151
   46MOL0     H 6279   5.909   7.366   8.207  2.0633  0.6993  1.3498
   46MOL0     H 6280   6.076   7.234   8.092 -1.5806 -0.4398 -1.3173
   46MOL0     H 6281   6.316   7.020   8.235 -1.0822 -2.1770  0.3388
   46MOL0     H 6282   6.287   7.113   8.083 -0.6293 -0.0811 -0.4813
   46MOL0     H 6283   6.341   6.801   8.105  3.9718 -1.0661 -2.2049
   46MOL0     H 6284   6.303   6.894   7.967  0.4982  1.1533 -0.6947
   46MOL0     H 6285   6.548   6.925   8.150 -2.1233  0.8308  0.7984
   46MOL0     H 6286   6.534   6.834   8.002  1.1318  0.5506  0.3319
   46MOL0     H 6287   6.493   7.140   8.035 -2.2111 -0.8128 -0.7734
   46MOL0     H 6288   6.637   7.057   7.974  0.1410 -0.5800 -1.4950
   46MOL0     H 6289   6.374   7.089   7.841 -0.0936  0.7927 -3.2248
   46MOL0     H 6290   6.485   6.952   7.795  0.4315 -0.2912 -1.0170
   46MOL0     H 6291   6.560   7.235   7.796 -0.7491  1.3750 -2.0175
   46MOL0     H 6292   6.656   7.107   7.726  0.8724  1.9920 -0.7179
   46MOL0     H 6293   6.380   7.130   7.594  0.4398 -1.3080  2.0999
   46MOL0     H 6294   6.541   7.102   7.517  2.7317  2.5153 -0.0662
   46MOL0     H 6295   6.603   7.337   7.532  0.3388 -1.2515  0.2955
   46MOL0     H 6296   6.460   7.309   7.441  0.6488  0.1305 -0.1426
   46MOL0     H 6297   6.237   7.359   7.542  1.9169  1.5382 -1.8566
   46MOL0     H 6298   6.062   7.528   7.611 -0.2750 -0.8241  1.6965
   46MOL0     H 6299   6.144   7.682   7.595  0.8681 -1.6281 -1.9201
   46MOL0     H 6300   6.136   7.635   7.880 -1.2857 -1.8741  2.3046
   46MOL0     H 6301   5.985   7.682   7.813 -0.5188 -0.3381 -1.0255
   46MOL0     H 6302   6.052   7.365   7.797  3.8260  0.4748  1.8720
   46MOL0     H 6303   6.024   7.437   7.954 -1.9658 -1.0129  0.7157
   46MOL0     H 6304   5.845   7.477   7.715  1.5758 -0.7133 -0.2574
   46MOL0     H 6305   5.833   7.353   7.838 -1.8063  0.2737 -2.1989
   46MOL0     H 6306   5.618   7.369   7.752 -0.2843  1.2774 -1.3615
   46MOL0     H 6307   5.385   7.402   7.632  0.0277  0.8593  0.6552
   46MOL0     H 6308   5.249   7.362   7.734  0.7339  1.0267  1.8657
   46MOL0     H 6309   5.398   7.259   7.707  0.9712  0.6118 -1.6956
   46MOL0     H 6310   4.944   7.354   8.094  1.4692  1.1656  1.4018
   46MOL0     H 6311   4.700   7.369   8.028 -0.4459  2.8653  0.4242
   46MOL0     H 6312   4.621   7.641   7.733  0.6766 -1.3377  1.4824
   46MOL0     H 6313   4.590   7.518   7.595 -0.1078 -2.9107  0.1291
   46MOL0     H 6314   4.366   7.469   7.725 -0.4389 -0.0019  0.5977
   46MOL0     H 6315   4.413   7.619   7.812  2.4834  0.6375 -0.2393
   46MOL0     H 6316   4.425   7.738   7.599 -1.0268 -0.5647 -0.3582
   46MOL0     H 6317   4.261   7.680   7.623 -0.6762 -1.3036 -1.1176
   46MOL0     H 6318   4.281   7.498   7.481  0.6970  0.2555  0.4887
   46MOL0     H 6319   4.445   7.527   7.438  0.2960 -0.1437  1.6863
   46MOL0     H 6320   4.238   7.754   7.393  1.4820  4.1223 -3.4208
   46MOL0     H 6321   4.396   7.742   7.324 -0.6898  0.8394 -0.6340
   46MOL0     H 6322   4.303   7.509   7.241  1.0086  0.5041  1.8581
   46MOL0     H 6323   4.251   7.652   7.145 -1.1845 -0.0789  0.0507
   46MOL0     H 6324   4.030   7.657   7.250  1.4325 -0.5985 -3.1359
   46MOL0     H 6325   4.074   7.515   7.361 -1.8720 -1.9500 -1.0607
   46MOL0     H 6326   4.054   7.532   7.051 -3.1195 -0.1192 -0.6956
   46MOL0     H 6327   3.933   7.467   7.159 -0.5369  1.0001  0.3755
   46MOL0     H 6328   4.822   7.489   7.637 -3.1107 -1.0382 -0.2259
   46MOL0     H 6329   5.059   7.485   7.704 -0.6240  0.9224 -0.8092
   46MOL0     H 6330   5.406   7.633   8.112  2.3128  0.8913  1.6347
   46MOL0     H 6331   5.655   7.643   8.080  4.8409 -0.7950 -2.4015
   46MOL0     H 6332   5.974   6.893   8.342  2.8347 -1.1259 -1.7485
   46MOL0     H 6333   5.802   7.032   8.459  1.0453 -0.2760  1.7513
   46MOL0     H 6334   5.641   7.454   8.515  0.7527 -0.7020 -1.2983
   46MOL0     H 6335   5.490   7.602   8.596 -1.3659  1.6957 -1.0484
   46MOL0     H 6336   5.090   7.795   8.454  2.3179  1.0645 -1.4585
   46MOL0     H 6337   5.121   7.672   8.333  1.2061 -0.2798 -0.2816
   46MOL0     H 6338   5.028   7.494   8.495 -0.3012 -0.7018  1.8870
   46MOL0     H 6339   4.917   7.613   8.429 -0.8788 -3.7800  2.3647
   46MOL0     H 6340   5.026   7.617   8.711  0.2817  1.4725  0.6737
   46MOL0     H 6341   4.923   7.747   8.640 -0.5276  0.0921  2.6789
   46MOL0     H 6342   4.811   7.608   8.798  2.5162 -2.6506  1.5388
   46MOL0     H 6343   4.845   7.458   8.696  0.1771 -0.0155  1.3693
   46MOL0     H 6344   4.519   7.635   8.494 -0.4430 -0.7566 -0.3368
   46MOL0     H 6345   5.200   7.463   8.298  1.0007  1.5505 -1.5665
   46MOL0     H 6346   5.354   7.167   8.210 -0.1268  0.8928  2.7527
   46MOL0     H 6347   5.226   7.281   8.179 -0.2208  0.1544  1.4229
   46MOL0     H 6348   5.370   7.304   8.096 -0.5451 -2.0882 -1.1208
   47MOL0     O 6349   2.434   6.594   5.406  0.6649  0.2464  0.0050
   47MOL0     C 6350   2.360   6.679   5.457  0.5612 -0.2673  0.3087
   47MOL0     O 6351   2.356   6.727   5.579 -0.1095 -0.3443  0.4132
   47MOL0     C 6352   2.429   6.666   5.681  0.3433 -0.4766 -0.8259
   47MOL0     C 6353   2.500   6.752   5.774  0.8245 -0.0336  0.3930
   47MOL0     C 6354   2.577   6.708   5.877  0.0822 -0.2018 -0.2029
   47MOL0     C 6355   2.610   6.573   5.887 -0.0859  0.3591  0.2112
   47MOL0     O 6356   2.689   6.538   5.987 -0.3649  0.7216 -0.3734
   47MOL0     C 6357   2.735   6.401   5.985  0.0641  0.2979 -0.0410
   47MOL0     C 6358   2.834   6.393   6.098 -0.0640  0.6858 -0.3423
   47MOL0     C 6359   2.755   6.428   6.231  0.8231 -0.2249  0.5260
   47MOL0     C 6360   2.825   6.368   6.349 -0.5203 -0.0769  0.6366
   47MOL0     C 6361   2.737   6.401   6.476  0.9139  0.3668 -0.1361
   47MOL0     C 6362   2.793   6.365   6.604  0.9808  0.6350  0.5323
   47MOL0     C 6363   2.685   6.380   6.716 -0.1771 -0.3037 -0.3352
   47MOL0     C 6364   2.750   6.379   6.859  0.0582 -0.4140  0.4902
   47MOL0     N 6365   2.783   6.251   6.920  0.2284  0.9277 -0.4281
   47MOL0     C 6366   2.901   6.186   6.906 -0.6415  0.3356 -0.2994
   47MOL0     C 6367   2.904   6.094   6.994 -0.9125  0.1585 -0.4791
   47MOL0     C 6368   3.016   6.003   7.033 -0.5185  0.3415  0.0333
   47MOL0     C 6369   3.128   6.093   7.089  0.1565 -0.9937  0.2565
   47MOL0     C 6370   3.258   6.012   7.117 -0.5608  0.6699 -0.0370
   47MOL0     C 6371   3.362   6.102   7.179 -0.0903  0.2210  0.4422
   47MOL0     O 6372   3.387   6.207   7.089  0.7214  0.0947 -0.1829
   47MOL0     C 6373   3.491   6.294   7.114 -0.3201  0.5552 -0.5751
   47MOL0     C 6374   3.550   6.308   7.236 -0.0577  0.5878  0.6937
   47MOL0     C 6375   3.674   6.380   7.261  0.9751  0.6877  0.5114
   47MOL0     C 6376   3.715   6.392   7.405 -0.1639 -0.2323  0.4523
   47MOL0     C 6377   3.725   6.457   7.158 -0.1315 -0.4437 -1.0715
   47MOL0     C 6378   3.845   6.547   7.157 -1.5842 -1.1516 -0.0949
   47MOL0     O 6379   3.855   6.640   7.051  0.7045  0.1553 -0.5723
   47MOL0     C 6380   3.960   6.723   7.049 -0.7479 -0.1096  1.4052
   47MOL0     C 6381   3.987   6.809   7.152 -0.3876  0.3183  0.1129
   47MOL0     C 6382   4.101   6.899   7.141  0.6911 -0.8294 -0.6832
   47MOL0     C 6383   4.183   6.906   7.026  0.9320  0.5614  0.6913
   47MOL0     O 6384   4.285   6.993   7.009  0.2266 -0.4879  0.1774
   47MOL0     C 6385   4.398   6.950   6.930  0.1261 -0.0121  0.8050
   47MOL0     C 6386   4.515   7.043   6.923  0.7146 -0.4705 -0.6322
   47MOL0     C 6387   4.593   7.029   7.050 -1.0264 -0.3323  0.7877
   47MOL0     C 6388   4.740   7.074   7.023  0.4993  0.4954  0.0675
   47MOL0     C 6389   4.820   7.106   7.143  0.3928  0.3968 -0.4340
   47MOL0     C 6390   4.964   7.150   7.115  0.7371  0.4418  0.7878
   47MOL0     C 6391   5.058   7.031   7.097 -0.5218 -0.8748 -0.1535
   47MOL0     C 6392   5.199   7.084   7.080 -0.0408 -0.2587  0.7647
   47MOL0    Cl 6393   5.300   6.961   7.031 -0.0674 -0.1306  0.3512
   47MOL0     C 6394   4.139   6.831   6.916 -0.7586  0.6022 -0.3481
   47MOL0     C 6395   4.028   6.740   6.926 -0.0705 -0.8050 -0.0227
   47MOL0     O 6396   3.931   6.529   7.246 -0.5315 -0.9319  0.0504
   47MOL0     C 6397   3.666   6.441   7.028 -0.0485  0.0051  0.7518
   47MOL0     C 6398   3.555   6.352   7.004 -0.3612  0.0421 -0.3522
   47MOL0     N 6399   2.780   6.097   7.062 -0.2785 -0.5824  0.0949
   47MOL0     N 6400   2.707   6.188   7.007  0.2117  0.0412 -0.9344
   47MOL0     C 6401   2.551   6.486   5.788 -0.6222 -0.3161 -0.3171
   47MOL0     C 6402   2.454   6.527   5.703  0.2305 -1.0102  0.2503
   47MOL0     C 6403   2.270   6.752   5.366  0.9639  0.5653  0.3602
   47MOL0     C 6404   2.261   6.898   5.385  0.0070  0.0604  0.1625
   47MOL0     C 6405   2.164   6.970   5.323  0.7151  0.0084 -0.4874
   47MOL0     C 6406   2.068   6.906   5.239  0.5297  0.0748  0.8557
   47MOL0     O 6407   1.966   6.984   5.175  0.9593 -0.9653  0.0996
   47MOL0     C 6408   1.938   6.963   5.038  0.3315  0.5162  0.1417
   47MOL0     C 6409   1.852   7.070   4.980  0.3877 -0.8721  0.0700
   47MOL0     C 6410   1.800   7.026   4.841  0.4170 -0.2997  0.6054
   47MOL0     C 6411   1.718   7.136   4.768  0.0080  0.1403  1.2982
   47MOL0     C 6412   1.608   7.178   4.851  0.9557  0.3135 -0.6022
   47MOL0     C 6413   1.519   7.209   4.924  0.8798 -0.5583  0.1602
   47MOL0     C 6414   2.090   6.768   5.208  0.1465 -0.0361 -0.6939
   47MOL0     C 6415   2.181   6.690   5.271  0.2842  0.4867  0.0320
   47MOL0     C 6416   2.170   6.538   5.251 -0.7319  1.4662 -0.3210
   47MOL0     H 6417   2.482   6.856   5.748 -0.5907 -0.9352 -2.8173
   47MOL0     H 6418   2.631   6.777   5.941  0.0554  0.3006 -0.7018
   47MOL0     H 6419   2.792   6.391   5.891 -0.7707 -0.5217 -0.4784
   47MOL0     H 6420   2.672   6.312   5.979  0.0430  0.4155 -3.2288
   47MOL0     H 6421   2.870   6.292   6.118 -0.1316  1.0059  1.5377
   47MOL0     H 6422   2.924   6.455   6.094 -1.3909  3.1123  2.7647
   47MOL0     H 6423   2.750   6.536   6.248 -0.2852 -0.0892 -0.5041
   47MOL0     H 6424   2.656   6.384   6.213 -0.2203  1.6854  1.2789
   47MOL0     H 6425   2.836   6.260   6.344 -0.0744 -0.1808  2.6759
   47MOL0     H 6426   2.928   6.405   6.364  0.4272 -0.1857 -4.1239
   47MOL0     H 6427   2.642   6.348   6.473  0.5331  0.9300  1.1101
   47MOL0     H 6428   2.716   6.508   6.481 -0.7022  0.0458  0.8222
   47MOL0     H 6429   2.822   6.260   6.596  0.3264  0.5597 -1.4948
   47MOL0     H 6430   2.884   6.422   6.623  2.5528 -0.9254 -1.6649
   47MOL0     H 6431   2.616   6.295   6.717 -1.6912  0.7467  3.6625
   47MOL0     H 6432   2.637   6.475   6.693  3.2896  1.6326 -0.1656
   47MOL0     H 6433   2.840   6.441   6.852 -1.7313  2.2604 -1.0292
   47MOL0     H 6434   2.681   6.435   6.923  1.9009 -0.5236  2.6977
   47MOL0     H 6435   2.980   6.225   6.842 -1.0397  3.3433  0.8505
   47MOL0     H 6436   3.057   5.948   6.948  3.1942  1.8854  0.6419
   47MOL0     H 6437   2.980   5.930   7.106  0.0001  0.5823  0.5387
   47MOL0     H 6438   3.149   6.170   7.014  3.3655 -0.8275  1.1887
   47MOL0     H 6439   3.102   6.131   7.188  2.6421  0.9989  0.2421
   47MOL0     H 6440   3.235   5.926   7.180 -1.0076  1.1776  0.5036
   47MOL0     H 6441   3.304   5.972   7.026 -1.5988 -2.6229  0.7523
   47MOL0     H 6442   3.327   6.137   7.277 -2.8174 -2.1114  0.4668
   47MOL0     H 6443   3.452   6.046   7.206  1.8783  3.2680  0.6231
   47MOL0     H 6444   3.500   6.258   7.318 -1.4020  0.2594 -0.2874
   47MOL0     H 6445   3.822   6.386   7.428 -0.3075 -0.1184  1.2026
   47MOL0     H 6446   3.656   6.318   7.459 -0.2156 -0.4867  0.0458
   47MOL0     H 6447   3.673   6.488   7.436 -2.8130 -1.5430  1.1828
   47MOL0     H 6448   3.924   6.809   7.241 -2.0612  0.9085 -1.0263
   47MOL0     H 6449   4.128   6.956   7.230 -1.9716  1.7067 -1.3586
   47MOL0     H 6450   4.420   6.849   6.965 -4.2393 -0.9460  1.4725
   47MOL0     H 6451   4.367   6.931   6.826 -1.1032  2.6337  0.6020
   47MOL0     H 6452   4.573   7.021   6.832 -2.1210 -2.8804 -2.0034
   47MOL0     H 6453   4.484   7.148   6.917  0.6738 -0.5491 -2.2153
   47MOL0     H 6454   4.598   6.923   7.077  0.1482 -0.8360 -1.1834
   47MOL0     H 6455   4.554   7.086   7.134  0.1985 -0.5683  1.5426
   47MOL0     H 6456   4.751   7.167   6.968 -2.2359  1.7982  1.5493
   47MOL0     H 6457   4.773   6.988   6.963  1.5925  2.6299 -2.5938
   47MOL0     H 6458   4.777   7.187   7.201  2.7303 -0.0741  2.1747
   47MOL0     H 6459   4.820   7.019   7.209 -3.0105 -0.4329 -1.3344
   47MOL0     H 6460   4.998   7.212   7.199  2.5999  2.5348 -1.3622
   47MOL0     H 6461   4.963   7.205   7.020  3.0686 -0.8565 -0.0842
   47MOL0     H 6462   5.043   6.981   7.001  2.3163 -1.5746 -0.3220
   47MOL0     H 6463   5.057   6.960   7.180 -1.3862  2.8453  3.3574
   47MOL0     H 6464   5.230   7.124   7.177 -0.5199  0.5397  0.5931
   47MOL0     H 6465   5.196   7.167   7.010 -1.5140 -1.7034 -0.9906
   47MOL0     H 6466   4.192   6.838   6.821  0.2114 -0.2394  0.1202
   47MOL0     H 6467   3.999   6.672   6.847 -0.4358 -1.9033  1.0238
   47MOL0     H 6468   3.721   6.478   6.942  0.7190 -2.5720  0.0479
   47MOL0     H 6469   3.509   6.341   6.907 -2.0649 -2.3592  0.6393
   47MOL0     H 6470   2.565   6.379   5.792  2.0066 -0.1622 -2.6183
   47MOL0     H 6471   2.432   6.464   5.617 -1.0032 -0.2845  0.0014
   47MOL0     H 6472   2.314   6.944   5.468 -0.3232 -4.1082  2.9992
   47MOL0     H 6473   2.158   7.074   5.351 -1.5644  0.5420 -2.6054
   47MOL0     H 6474   2.029   6.954   4.977 -1.2403 -1.7984 -2.0607
   47MOL0     H 6475   1.886   6.868   5.031  1.3682 -0.1101  0.6740
   47MOL0     H 6476   1.915   7.159   4.969 -0.7591 -0.3607 -4.8325
   47MOL0     H 6477   1.767   7.091   5.045  0.6933  0.1731  0.1608
   47MOL0     H 6478   1.882   7.005   4.772  0.4749  0.8127  0.3115
   47MOL0     H 6479   1.756   6.928   4.862 -1.0276  0.3339  0.6013
   47MOL0     H 6480   1.684   7.103   4.669 -0.6176 -0.5724  1.7341
   47MOL0     H 6481   1.784   7.221   4.751 -1.7813  2.0746  3.3575
   47MOL0     H 6482   1.444   7.256   4.985  0.8942 -1.4384  0.8800
   47MOL0     H 6483   2.014   6.711   5.156  2.1286 -0.9619 -2.7822
   47MOL0     H 6484   2.068   6.499   5.252 -1.6634  3.6511 -1.9871
   47MOL0     H 6485   2.215   6.496   5.160  0.4256 -0.5754  1.1246
   47MOL0     H 6486   2.213   6.481   5.334 -1.7971 -1.3476 -1.5624
   48MOL0     O 6487   7.731  10.644   3.565  0.2449 -0.1432  0.4826
   48MOL0     C 6488   7.662  10.745   3.597 -0.3783  0.4397  0.0296
   48MOL0     O 6489   7.691  10.841   3.686  0.0527 -0.0466  0.3558
   48MOL0     C 6490   7.818  10.852   3.723 -0.9393  0.6371 -0.2629
   48MOL0     C 6491   7.839  10.848   3.859 -0.9836 -0.5570  0.2598
   48MOL0     C 6492   7.962  10.859   3.917  0.8107 -0.4578 -0.8943
   48MOL0     C 6493   8.080  10.868   3.844  0.1122  0.0349  1.1265
   48MOL0     O 6494   8.209  10.872   3.884 -0.0034  0.2414 -0.0399
   48MOL0     C 6495   8.239  10.888   4.019 -0.8244 -0.5467 -0.0198
   48MOL0     C 6496   8.388  10.931   4.027  0.1862 -0.0659 -0.0496
   48MOL0     C 6497   8.472  10.804   4.004 -0.9252 -0.1051  0.2543
   48MOL0     C 6498   8.618  10.841   4.041 -0.6506  0.5371  0.6062
   48MOL0     C 6499   8.722  10.725   4.053 -0.5721 -0.8011  0.0323
   48MOL0     C 6500   8.703  10.625   3.947  0.5706 -0.0639  0.3161
   48MOL0     C 6501   8.759  10.671   3.817 -0.2028 -1.2018 -0.8823
   48MOL0     C 6502   8.749  10.557   3.717 -0.5813  0.4968 -0.0864
   48MOL0     N 6503   8.782  10.598   3.585 -0.4739 -0.8392  1.0878
   48MOL0     C 6504   8.865  10.525   3.501 -0.7503 -0.5071 -0.0380
   48MOL0     C 6505   8.863  10.591   3.387  1.2645  0.5615 -0.1069
   48MOL0     C 6506   8.920  10.530   3.266  0.3759 -0.6099 -0.2178
   48MOL0     C 6507   9.074  10.546   3.246 -0.2496 -0.1610  0.5840
   48MOL0     C 6508   9.136  10.657   3.334 -0.3346 -0.5922 -0.0654
   48MOL0     C 6509   9.202  10.593   3.463 -0.4102 -0.4055  0.5003
   48MOL0     O 6510   9.316  10.505   3.437 -0.5847  0.4281 -0.2441
   48MOL0     C 6511   9.445  10.565   3.433 -1.6377  0.7858  0.5741
   48MOL0     C 6512   9.512  10.571   3.307  0.5100 -0.3895 -0.0691
   48MOL0     C 6513   9.643  10.625   3.296  0.3364 -0.1186  0.5723
   48MOL0     C 6514   9.718  10.609   3.159  0.2682 -0.1397  1.2141
   48MOL0     C 6515   9.702  10.687   3.411  0.4203 -0.2257 -0.4904
   48MOL0     C 6516   9.838  10.758   3.408  0.0565  0.2147 -0.1673
   48MOL0     O 6517   9.898  10.764   3.539  0.0014 -0.7229 -0.5791
   48MOL0     C 6518  10.023  10.824   3.563  0.1010  0.7226  0.7258
   48MOL0     C 6519  10.030  10.960   3.538 -0.8016 -0.5244 -0.0117
   48MOL0     C 6520  10.147  11.029   3.566  0.5257  0.5655  0.0909
   48MOL0     C 6521  10.246  10.967   3.636 -0.5469  0.6251  0.0419
   48MOL0     O 6522  10.355  11.049   3.681 -0.0236  0.2746 -0.5788
   48MOL0     C 6523  10.474  10.982   3.710  0.0269 -0.0938  0.0711
   48MOL0     C 6524  10.573  11.097   3.738 -0.2587 -0.7868 -0.0637
   48MOL0     C 6525  10.722  11.075   3.722 -0.0190  0.3111  0.2674
   48MOL0     C 6526  10.783  10.998   3.845  1.0505  0.3986  0.3408
   48MOL0     C 6527  10.923  10.943   3.811 -0.4710  0.0324  0.9133
   48MOL0     C 6528  10.975  10.865   3.927  0.4501  0.2540 -1.0154
   48MOL0     C 6529  11.106  10.804   3.910  0.5150  0.0147 -0.3497
   48MOL0     C 6530  11.098  10.674   3.829 -0.1425 -0.3844 -0.1024
   48MOL0    Cl 6531  11.262  10.599   3.839 -0.8482  0.6521 -0.2044
   48MOL0     C 6532  10.237  10.831   3.663 -0.6213  0.1555  0.3479
   48MOL0     C 6533  10.124  10.755   3.629  0.6165 -0.2436  0.2925
   48MOL0     O 6534   9.886  10.804   3.300 -0.3310 -0.1996 -0.7179
   48MOL0     C 6535   9.628  10.677   3.534  0.2827  0.1606  0.3066
   48MOL0     C 6536   9.512  10.610   3.539  0.1888 -0.5381 -0.6890
   48MOL0     N 6537   8.800  10.714   3.402 -0.3452  0.3163 -0.5196
   48MOL0     N 6538   8.744  10.713   3.517  0.0976  0.1969 -0.0939
   48MOL0     C 6539   8.061  10.873   3.703 -0.4140  0.2943  0.4407
   48MOL0     C 6540   7.935  10.869   3.640  0.2767 -0.3352 -0.2782
   48MOL0     C 6541   7.522  10.753   3.549 -0.7447 -0.1663 -0.6853
   48MOL0     C 6542   7.483  10.874   3.478 -0.4305 -0.6633  0.2046
   48MOL0     C 6543   7.361  10.891   3.423  0.3651 -0.2776  0.0720
   48MOL0     C 6544   7.274  10.779   3.423  0.1205 -0.9864  0.2518
   48MOL0     O 6545   7.146  10.779   3.363  0.0823  0.0532 -0.4012
   48MOL0     C 6546   7.111  10.878   3.263 -0.1266 -0.2997 -0.1370
   48MOL0     C 6547   6.981  10.838   3.188 -0.2453  0.5916  0.3690
   48MOL0     C 6548   6.850  10.833   3.260  0.4284  0.5571  0.4469
   48MOL0     C 6549   6.831  10.963   3.341  0.0526 -0.0021  0.1798
   48MOL0     C 6550   6.862  11.096   3.275  1.1704  0.4309 -0.3654
   48MOL0     C 6551   6.884  11.212   3.234  0.5491 -0.6021  1.0699
   48MOL0     C 6552   7.312  10.665   3.501 -0.0019 -0.7587  0.8983
   48MOL0     C 6553   7.430  10.654   3.567 -1.1911  0.9551  0.8991
   48MOL0     C 6554   7.451  10.531   3.660  0.1738  0.2742 -0.4496
   48MOL0     H 6555   7.752  10.836   3.922 -1.2455 -0.0773 -0.0025
   48MOL0     H 6556   7.976  10.875   4.024  1.1851  0.1351 -1.0275
   48MOL0     H 6557   8.236  10.800   4.084  1.7759  0.8380  2.1399
   48MOL0     H 6558   8.174  10.966   4.061  1.5664  1.6157 -0.1155
   48MOL0     H 6559   8.404  11.004   3.947 -2.1452 -1.9082 -2.3610
   48MOL0     H 6560   8.397  10.965   4.131  0.3960 -1.8136  0.5483
   48MOL0     H 6561   8.449  10.723   4.073 -1.2438  0.0568  0.3394
   48MOL0     H 6562   8.462  10.778   3.898 -1.8731  1.1974 -0.0006
   48MOL0     H 6563   8.659  10.919   3.976 -0.0495 -0.5541 -0.3739
   48MOL0     H 6564   8.614  10.873   4.145  1.0158 -2.0241  1.5546
   48MOL0     H 6565   8.713  10.674   4.149  0.5913 -1.8243 -0.3699
   48MOL0     H 6566   8.822  10.769   4.054 -0.4483 -1.0954  0.5778
   48MOL0     H 6567   8.748  10.530   3.977  1.7110  1.0337  2.2992
   48MOL0     H 6568   8.596  10.612   3.935 -0.0295  2.3966  2.1769
   48MOL0     H 6569   8.865  10.696   3.832 -0.0406 -1.1205 -2.0751
   48MOL0     H 6570   8.692  10.749   3.780 -2.0731 -2.5461 -0.4435
   48MOL0     H 6571   8.816  10.474   3.742 -1.2199  0.0045  0.0172
   48MOL0     H 6572   8.646  10.521   3.711 -0.8056  0.8451  1.3151
   48MOL0     H 6573   8.915  10.433   3.530  1.1147  0.9477  1.6445
   48MOL0     H 6574   8.877  10.586   3.182  1.9772 -1.1727 -1.4620
   48MOL0     H 6575   8.875  10.432   3.252  1.2363 -1.3239  1.6838
   48MOL0     H 6576   9.125  10.451   3.268 -4.0330 -2.4169  0.5636
   48MOL0     H 6577   9.091  10.581   3.143 -1.9724  0.6584  0.5556
   48MOL0     H 6578   9.218  10.709   3.284  1.2437 -0.1851  2.7444
   48MOL0     H 6579   9.060  10.731   3.361  0.4940  0.1094  0.3987
   48MOL0     H 6580   9.230  10.668   3.537 -1.3311 -0.9979  1.4764
   48MOL0     H 6581   9.122  10.541   3.517 -0.6487 -0.4066  0.1459
   48MOL0     H 6582   9.467  10.541   3.212 -0.4066  0.4604  0.0820
   48MOL0     H 6583   9.752  10.705   3.120  0.9931 -0.1442  1.8219
   48MOL0     H 6584   9.644  10.579   3.084 -0.4812 -3.0898  2.9563
   48MOL0     H 6585   9.798  10.534   3.156 -4.0511 -5.3924 -0.6855
   48MOL0     H 6586   9.957  11.012   3.476 -0.5768 -1.9298 -1.5198
   48MOL0     H 6587  10.174  11.129   3.533  1.5139 -0.2664 -1.7965
   48MOL0     H 6588  10.462  10.918   3.798  1.7996  0.1630  0.5295
   48MOL0     H 6589  10.508  10.921   3.626  0.3727 -2.1534  1.6253
   48MOL0     H 6590  10.547  11.183   3.676 -0.0814 -0.7173 -0.0412
   48MOL0     H 6591  10.567  11.126   3.843 -0.4111 -1.0607  0.0049
   48MOL0     H 6592  10.777  11.169   3.710 -0.6373  0.6793  0.2673
   48MOL0     H 6593  10.745  11.011   3.636 -0.3092 -1.6953  1.6085
   48MOL0     H 6594  10.717  10.917   3.876  2.5575  0.0838  3.0821
   48MOL0     H 6595  10.779  11.063   3.934 -0.1699  0.2578  0.3999
   48MOL0     H 6596  10.909  10.877   3.725  1.8101  2.5869 -1.6117
   48MOL0     H 6597  10.985  11.025   3.773  1.1692 -1.3933  0.3700
   48MOL0     H 6598  10.900  10.789   3.950 -1.0102 -0.0878 -5.7938
   48MOL0     H 6599  10.985  10.936   4.010  1.4337  1.2923 -1.9780
   48MOL0     H 6600  11.154  10.774   4.003  0.9944  1.7088 -0.0154
   48MOL0     H 6601  11.173  10.876   3.861  1.8267 -1.0090 -0.1073
   48MOL0     H 6602  11.081  10.701   3.724 -0.9877 -0.1360  0.0969
   48MOL0     H 6603  11.018  10.611   3.866 -1.3476  1.4351  0.5160
   48MOL0     H 6604  10.319  10.781   3.715 -0.8789 -1.8803 -1.1170
   48MOL0     H 6605  10.129  10.651   3.660  2.4442 -0.7050 -1.3417
   48MOL0     H 6606   9.670  10.711   3.628  2.2654 -1.3806  0.0540
   48MOL0     H 6607   9.475  10.585   3.638  2.5473  0.4547  0.5102
   48MOL0     H 6608   8.148  10.885   3.639 -0.1443 -1.2226  0.4870
   48MOL0     H 6609   7.936  10.881   3.532 -1.2509  3.6271 -0.0193
   48MOL0     H 6610   7.566  10.945   3.475 -1.6741  0.8861  0.9913
   48MOL0     H 6611   7.321  10.980   3.376 -4.3994 -0.0744  3.7954
   48MOL0     H 6612   7.090  10.976   3.306 -0.9679 -1.3835  2.0848
   48MOL0     H 6613   7.196  10.870   3.195  0.6946 -0.1376  0.8507
   48MOL0     H 6614   7.006  10.749   3.130  3.3327  3.2098 -2.6105
   48MOL0     H 6615   6.980  10.911   3.106 -0.7408 -1.8649 -1.9644
   48MOL0     H 6616   6.777  10.826   3.180  0.0401  0.7888  0.7757
   48MOL0     H 6617   6.849  10.746   3.326  1.1719 -0.3576 -0.7174
   48MOL0     H 6618   6.888  10.958   3.434  0.0963  2.4097  0.3363
   48MOL0     H 6619   6.732  10.964   3.386  0.1861 -1.5240  0.5763
   48MOL0     H 6620   6.912  11.309   3.199  0.7724 -0.9885  0.1329
   48MOL0     H 6621   7.234  10.598   3.537 -0.2740  0.6497  3.0909
   48MOL0     H 6622   7.552  10.490   3.648 -0.6182 -1.7460 -0.5403
   48MOL0     H 6623   7.438  10.572   3.761 -2.7626  0.0431 -0.6625
   48MOL0     H 6624   7.379  10.449   3.657  1.7703 -1.3723  2.2990
   49MOL0     O 6625   6.570   4.188   6.498  0.0460  0.6542 -0.2092
   49MOL0     C 6626   6.689   4.199   6.474 -0.5461  0.5611  0.5188
   49MOL0     O 6627   6.782   4.252   6.568  0.4215  0.7507  0.0640
   49MOL0     C 6628   6.750   4.248   6.704 -0.2065  0.9898 -0.4375
   49MOL0     C 6629   6.690   4.135   6.764 -0.5988  0.1007 -0.4150
   49MOL0     C 6630   6.673   4.137   6.905 -0.2033 -0.1358  0.3393
   49MOL0     C 6631   6.736   4.230   6.987 -1.0987 -0.3211 -0.5515
   49MOL0     O 6632   6.730   4.211   7.127  0.2931 -0.2063  0.0740
   49MOL0     C 6633   6.710   4.330   7.205 -0.3153 -0.6338  0.3579
   49MOL0     C 6634   6.620   4.314   7.328  0.6710 -0.1809  0.0394
   49MOL0     C 6635   6.657   4.199   7.415 -0.5062 -0.3244 -0.3711
   49MOL0     C 6636   6.558   4.177   7.535 -0.3165 -0.8255  0.7386
   49MOL0     C 6637   6.592   4.051   7.608 -0.1776  0.1628 -0.0793
   49MOL0     C 6638   6.481   4.028   7.711 -0.5682  0.4355  0.2433
   49MOL0     C 6639   6.505   3.894   7.784  0.2867  0.2634 -0.0531
   49MOL0     C 6640   6.430   3.882   7.920  0.1939 -0.3909 -0.3479
   49MOL0     N 6641   6.472   3.762   7.991  0.4290 -1.0033  0.0702
   49MOL0     C 6642   6.599   3.734   8.036  0.1663  0.1002 -0.5977
   49MOL0     C 6643   6.579   3.613   8.095  0.2799 -0.0133  0.6596
   49MOL0     C 6644   6.678   3.524   8.167  0.2458 -0.3924  0.2045
   49MOL0     C 6645   6.777   3.443   8.079 -0.8286 -0.5941 -0.5853
   49MOL0     C 6646   6.890   3.532   8.022 -0.5170  1.0376 -0.9490
   49MOL0     C 6647   6.987   3.437   7.942 -0.0748 -0.0016 -0.2588
   49MOL0     O 6648   6.915   3.364   7.837 -0.6090  0.1107 -0.4412
   49MOL0     C 6649   6.994   3.316   7.735 -0.1181  0.1498 -0.3577
   49MOL0     C 6650   6.921   3.218   7.671 -0.6539 -0.1747  0.7731
   49MOL0     C 6651   6.980   3.151   7.561  0.3214  0.1861 -0.0767
   49MOL0     C 6652   6.901   3.037   7.497 -0.2524 -0.6273  0.0515
   49MOL0     C 6653   7.111   3.183   7.521 -1.2792 -0.7698  0.0695
   49MOL0     C 6654   7.168   3.128   7.407  0.2462 -1.3876 -0.0141
   49MOL0     O 6655   7.233   3.212   7.323  0.3313  0.1229 -0.4955
   49MOL0     C 6656   7.265   3.153   7.208 -0.3070  0.1445  0.0376
   49MOL0     C 6657   7.396   3.156   7.160  0.3140  0.0315 -0.6378
   49MOL0     C 6658   7.434   3.124   7.033 -0.5328  1.1493 -0.0418
   49MOL0     C 6659   7.334   3.078   6.942 -0.7114  0.2329 -0.7922
   49MOL0     O 6660   7.379   3.048   6.817 -0.3788  0.0777 -0.0375
   49MOL0     C 6661   7.283   3.026   6.709 -0.0151  0.2622 -1.4339
   49MOL0     C 6662   7.364   3.014   6.586  0.1363  0.6746  0.1513
   49MOL0     C 6663   7.455   2.889   6.579 -0.0090  0.2086  0.4126
   49MOL0     C 6664   7.506   2.871   6.437 -0.1291 -0.8194  0.3479
   49MOL0     C 6665   7.658   2.818   6.435 -0.4392 -0.5465  0.0192
   49MOL0     C 6666   7.762   2.934   6.416  0.7337  0.0624 -0.8098
   49MOL0     C 6667   7.891   2.885   6.369  0.4703  0.3584 -0.2963
   49MOL0     C 6668   7.994   2.872   6.482 -0.1219  0.6619 -0.4435
   49MOL0    Cl 6669   8.157   2.827   6.432 -0.3281  0.0452  0.4166
   49MOL0     C 6670   7.203   3.078   6.984 -0.1122 -0.1703 -0.1691
   49MOL0     C 6671   7.169   3.117   7.111 -0.5455 -0.0781 -0.0201
   49MOL0     O 6672   7.177   3.007   7.406 -0.2615  0.0957 -0.0730
   49MOL0     C 6673   7.188   3.272   7.591  0.1129  0.0553 -0.3474
   49MOL0     C 6674   7.129   3.345   7.699 -0.4959  0.3030  0.1369
   49MOL0     N 6675   6.454   3.563   8.071 -0.2978  0.4300 -0.0863
   49MOL0     N 6676   6.391   3.657   8.014  0.0141  0.3870 -0.7930
   49MOL0     C 6677   6.806   4.339   6.927 -0.1240  0.6972  0.0591
   49MOL0     C 6678   6.804   4.342   6.787  0.3418 -0.1962 -0.3930
   49MOL0     C 6679   6.744   4.151   6.342 -0.1094  0.3915  0.2725
   49MOL0     C 6680   6.878   4.183   6.302  1.0079  0.3019 -0.7837
   49MOL0     C 6681   6.933   4.130   6.186 -0.8122 -0.8544  0.5645
   49MOL0     C 6682   6.863   4.048   6.102 -0.0201 -0.7795 -0.5901
   49MOL0     O 6683   6.927   4.014   5.980 -0.1344 -0.1751 -0.7453
   49MOL0     C 6684   6.854   4.036   5.858  0.6224 -0.9381 -0.8581
   49MOL0     C 6685   6.871   4.178   5.817  0.2882 -0.8294  0.2961
   49MOL0     C 6686   7.021   4.210   5.776  0.6656  0.6174 -0.1623
   49MOL0     C 6687   7.061   4.365   5.762 -0.0617  0.3777 -0.3499
   49MOL0     C 6688   7.198   4.387   5.712 -0.1057  0.4705 -1.7569
   49MOL0     C 6689   7.312   4.413   5.689  0.6084 -0.2802 -0.2793
   49MOL0     C 6690   6.730   4.016   6.134 -0.0511 -0.0348  0.0957
   49MOL0     C 6691   6.664   4.069   6.248 -0.3684  0.2184  0.2238
   49MOL0     C 6692   6.518   4.044   6.264 -0.4524  0.4264  0.2686
   49MOL0     H 6693   6.650   4.054   6.703  1.1490 -1.0416 -0.1243
   49MOL0     H 6694   6.624   4.053   6.954  0.4025 -0.0686  1.0899
   49MOL0     H 6695   6.653   4.406   7.151  0.8603  0.0806  0.0892
   49MOL0     H 6696   6.809   4.373   7.221 -0.9216  0.2833  1.8957
   49MOL0     H 6697   6.621   4.407   7.386 -0.5515 -0.4522  0.5266
   49MOL0     H 6698   6.517   4.306   7.293  0.5584 -1.7742  0.6525
   49MOL0     H 6699   6.681   4.104   7.367  0.5833  0.3087 -1.1177
   49MOL0     H 6700   6.755   4.230   7.455  0.0531  0.2802 -2.1376
   49MOL0     H 6701   6.561   4.268   7.595 -0.2917  0.6422 -1.3746
   49MOL0     H 6702   6.462   4.169   7.483 -0.4457  0.7035  0.6921
   49MOL0     H 6703   6.692   4.054   7.651 -1.5124 -1.1646  3.5582
   49MOL0     H 6704   6.590   3.967   7.538  3.0989  0.3493 -0.5386
   49MOL0     H 6705   6.469   4.111   7.781 -0.4194  1.6939 -1.1703
   49MOL0     H 6706   6.383   4.026   7.664 -2.1846 -3.5599  3.1883
   49MOL0     H 6707   6.610   3.876   7.808  0.6284  1.7147 -0.3898
   49MOL0     H 6708   6.473   3.813   7.717 -1.5342  2.4211 -1.9602
   49MOL0     H 6709   6.459   3.968   7.981  0.1836  2.0491 -3.5134
   49MOL0     H 6710   6.321   3.883   7.909  0.3727 -0.9817 -2.7012
   49MOL0     H 6711   6.692   3.790   8.040  1.0658 -1.4035  1.5925
   49MOL0     H 6712   6.618   3.446   8.215 -0.4225 -0.9125 -1.3905
   49MOL0     H 6713   6.720   3.572   8.256  0.3009 -0.4706  0.2213
   49MOL0     H 6714   6.820   3.372   8.151 -2.3856 -0.0839  0.9326
   49MOL0     H 6715   6.716   3.391   8.004 -0.9401 -3.7918  1.4961
   49MOL0     H 6716   6.841   3.598   7.950 -2.1394  1.4323  0.4434
   49MOL0     H 6717   6.943   3.596   8.094  1.9775 -1.7348 -0.0999
   49MOL0     H 6718   7.072   3.495   7.905 -0.7552 -1.0812 -3.9203
   49MOL0     H 6719   7.031   3.368   8.015 -0.6513  1.2131  1.3016
   49MOL0     H 6720   6.828   3.183   7.714 -2.0155 -1.3483 -2.7052
   49MOL0     H 6721   6.937   2.945   7.543  0.3508  0.0033  0.8660
   49MOL0     H 6722   6.921   3.025   7.390  1.7676  3.5742 -0.2482
   49MOL0     H 6723   6.795   3.055   7.519 -0.1875 -1.6525  1.2501
   49MOL0     H 6724   7.476   3.177   7.231  1.0400 -1.1313 -1.0891
   49MOL0     H 6725   7.537   3.118   6.999  0.3253  1.1274  2.3944
   49MOL0     H 6726   7.229   2.933   6.731  1.1719 -0.6492 -2.2248
   49MOL0     H 6727   7.219   3.114   6.702 -0.0572  0.1218 -3.4570
   49MOL0     H 6728   7.297   3.017   6.500 -0.0461  1.1823  0.3081
   49MOL0     H 6729   7.433   3.098   6.589 -0.4306  1.1149  1.7904
   49MOL0     H 6730   7.408   2.795   6.612  2.4575 -1.8364 -1.4790
   49MOL0     H 6731   7.542   2.901   6.644  0.3545  0.3788 -0.0994
   49MOL0     H 6732   7.507   2.969   6.389 -1.7773  0.0198  1.8933
   49MOL0     H 6733   7.435   2.819   6.373 -0.1285  0.1234 -0.4391
   49MOL0     H 6734   7.678   2.771   6.531 -2.1153  2.0501  1.7853
   49MOL0     H 6735   7.661   2.745   6.354 -0.8024 -0.9111  0.3304
   49MOL0     H 6736   7.772   2.985   6.512  2.1481 -1.5296 -0.0680
   49MOL0     H 6737   7.727   3.003   6.338  0.6531  2.6196  1.3453
   49MOL0     H 6738   7.922   2.956   6.292  1.5618  0.8671  0.5826
   49MOL0     H 6739   7.884   2.787   6.320 -0.3700 -1.0955  2.5121
   49MOL0     H 6740   7.956   2.797   6.551 -0.6296 -0.5742 -1.9912
   49MOL0     H 6741   8.010   2.969   6.529  2.6701 -0.3198  0.7735
   49MOL0     H 6742   7.126   3.041   6.917  1.1755 -0.2073 -1.6910
   49MOL0     H 6743   7.061   3.118   7.123 -0.4317  0.0668  1.0914
   49MOL0     H 6744   7.290   3.291   7.558  0.0467  1.4949  0.2559
   49MOL0     H 6745   7.190   3.402   7.768 -0.1912 -1.6802  1.5884
   49MOL0     H 6746   6.865   4.407   6.987 -0.8642  0.0055  1.6234
   49MOL0     H 6747   6.866   4.416   6.737 -0.3339 -0.3067 -1.4421
   49MOL0     H 6748   6.941   4.243   6.367 -1.8195  1.7745  0.8084
   49MOL0     H 6749   7.039   4.149   6.170 -1.2197 -0.1477 -1.4742
   49MOL0     H 6750   6.893   3.970   5.781 -0.2462 -0.9918 -1.2566
   49MOL0     H 6751   6.749   4.013   5.878  0.9788  0.0132  3.0283
   49MOL0     H 6752   6.847   4.237   5.905 -0.7414  1.4645 -1.4178
   49MOL0     H 6753   6.807   4.202   5.732 -1.6549 -1.0636  1.6374
   49MOL0     H 6754   7.078   4.157   5.853 -1.8315  1.1780  2.2291
   49MOL0     H 6755   7.042   4.162   5.680  4.0944  2.3520 -0.4229
   49MOL0     H 6756   7.054   4.408   5.863 -1.2625 -2.5341  0.9364
   49MOL0     H 6757   6.996   4.408   5.685  2.5798  0.6038 -2.5883
   49MOL0     H 6758   7.417   4.420   5.669  1.2932 -1.7258  2.2919
   49MOL0     H 6759   6.675   3.959   6.061  2.3626 -0.4202 -1.5205
   49MOL0     H 6760   6.474   4.144   6.267  1.5417  1.3690  0.0763
   49MOL0     H 6761   6.482   4.000   6.171  2.0644  0.2169 -0.6931
   49MOL0     H 6762   6.499   3.987   6.354  3.1747 -0.2758  0.7719
   50MOL0     O 6763  11.015  10.977   6.338  0.0258 -0.2612 -0.3265
   50MOL0     C 6764  10.977  11.066   6.265 -0.6311 -0.1864  0.9862
   50MOL0     O 6765  11.057  11.162   6.200 -0.1714 -0.3070  0.2583
   50MOL0     C 6766  11.197  11.158   6.215  0.1315 -0.1318 -0.4175
   50MOL0     C 6767  11.284  11.069   6.150 -0.4409 -0.1815  0.6268
   50MOL0     C 6768  11.413  11.047   6.196  0.0712  0.3838 -0.9232
   50MOL0     C 6769  11.462  11.128   6.302  0.0290 -0.0538  1.1918
   50MOL0     O 6770  11.580  11.099   6.354 -0.6560 -0.1754 -0.2219
   50MOL0     C 6771  11.599  11.111   6.491  0.0108 -0.7690 -0.1254
   50MOL0     C 6772  11.710  11.017   6.529  0.6320 -0.1131  0.5643
   50MOL0     C 6773  11.852  11.035   6.472  0.5991  0.5153  0.1197
   50MOL0     C 6774  11.959  10.940   6.533  0.0652  0.1497 -0.2913
   50MOL0     C 6775  12.101  10.974   6.467  0.0551 -0.6101 -0.0359
   50MOL0     C 6776  12.210  10.906   6.549  0.4432 -0.3407  0.0245
   50MOL0     C 6777  12.196  10.753   6.535  0.0591 -0.0865 -0.3118
   50MOL0     C 6778  12.233  10.693   6.667 -0.3996  0.2960 -0.8277
   50MOL0     N 6779  12.252  10.545   6.664 -0.2458  0.6119  0.4554
   50MOL0     C 6780  12.186  10.459   6.738 -0.3636  1.0264 -0.5885
   50MOL0     C 6781  12.227  10.337   6.704 -0.4868 -0.2062 -0.4623
   50MOL0     C 6782  12.179  10.205   6.743  0.4571  0.8106  0.1300
   50MOL0     C 6783  12.028  10.200   6.751  0.1035  0.6005  0.4563
   50MOL0     C 6784  11.969  10.064   6.709 -0.2224  0.7605 -0.3370
   50MOL0     C 6785  11.993   9.950   6.794 -0.9731  0.6986  1.1675
   50MOL0     O 6786  11.909   9.948   6.910 -0.8427  0.0431  0.3729
   50MOL0     C 6787  11.946   9.864   7.016 -0.2042  0.0764 -0.0622
   50MOL0     C 6788  12.076   9.817   7.045 -0.5571 -0.0216 -0.0267
   50MOL0     C 6789  12.103   9.740   7.154  0.7286  0.4494  0.6206
   50MOL0     C 6790  12.245   9.705   7.183 -0.2837 -0.0107  0.3818
   50MOL0     C 6791  12.000   9.693   7.240  0.3068 -0.3390 -0.4368
   50MOL0     C 6792  12.026   9.615   7.372 -0.3363 -0.3984 -0.0061
   50MOL0     O 6793  11.919   9.554   7.432  0.4432  0.1971  0.0825
   50MOL0     C 6794  11.957   9.480   7.538 -0.9818  0.7379 -0.5226
   50MOL0     C 6795  12.002   9.347   7.524  0.8478  0.8808  0.0921
   50MOL0     C 6796  12.035   9.277   7.637  0.1055  0.5844 -1.3901
   50MOL0     C 6797  12.033   9.337   7.765  0.7617  1.0127  0.0930
   50MOL0     O 6798  12.062   9.273   7.882  0.1860  0.4470 -0.4787
   50MOL0     C 6799  12.156   9.163   7.869  0.5897 -0.7019  0.1339
   50MOL0     C 6800  12.202   9.127   8.014  0.1077  0.7519  0.5013
   50MOL0     C 6801  12.317   9.022   8.010  0.4346 -0.1606 -0.0905
   50MOL0     C 6802  12.411   9.050   8.142  1.7070  0.2957 -0.4689
   50MOL0     C 6803  12.539   8.964   8.148  0.3432  0.0540  0.6939
   50MOL0     C 6804  12.626   9.024   8.267 -0.2015 -0.5096  0.6898
   50MOL0     C 6805  12.761   8.941   8.273 -0.9625  0.4908  0.2012
   50MOL0     C 6806  12.867   9.008   8.368  0.0963 -0.3019  0.0529
   50MOL0    Cl 6807  12.791   9.059   8.524  0.6625  0.2974 -0.0365
   50MOL0     C 6808  11.988   9.468   7.782 -0.4835  0.2140  0.4339
   50MOL0     C 6809  11.951   9.540   7.665  0.4890  0.0323 -1.1331
   50MOL0     O 6810  12.133   9.637   7.432  0.4300  0.2108  0.6235
   50MOL0     C 6811  11.871   9.732   7.214  0.4912 -0.4007  0.9512
   50MOL0     C 6812  11.844   9.828   7.109 -1.0351 -0.3665 -0.5216
   50MOL0     N 6813  12.318  10.355   6.596 -0.8108 -0.1752 -0.1787
   50MOL0     N 6814  12.336  10.483   6.571 -0.2511  0.0903  0.7480
   50MOL0     C 6815  11.389  11.238   6.343 -0.0740  0.0164  0.1891
   50MOL0     C 6816  11.263  11.253   6.299  0.2982  0.3838 -0.5637
   50MOL0     C 6817  10.832  11.078   6.235 -0.1307 -0.5176  0.2794
   50MOL0     C 6818  10.782  11.207   6.244  0.2066 -0.6202 -0.3901
   50MOL0     C 6819  10.648  11.235   6.222  1.2387  0.5120  0.6722
   50MOL0     C 6820  10.556  11.130   6.190 -0.0213  0.2546 -0.1151
   50MOL0     O 6821  10.410  11.137   6.190 -0.0196 -0.7206  0.4418
   50MOL0     C 6822  10.362  11.272   6.214 -0.3931  0.4434 -0.3745
   50MOL0     C 6823  10.209  11.270   6.220 -0.3499 -0.2095  0.3203
   50MOL0     C 6824  10.134  11.216   6.095 -0.1055 -0.3807  0.2937
   50MOL0     C 6825   9.982  11.211   6.114 -0.0661 -0.2228  0.0061
   50MOL0     C 6826   9.937  11.092   6.187  0.1255 -0.6364 -0.3741
   50MOL0     C 6827   9.905  11.008   6.267 -0.0348  0.6465  0.0714
   50MOL0     C 6828  10.611  10.995   6.175 -0.4473 -0.1133 -0.4504
   50MOL0     C 6829  10.749  10.972   6.201  0.3915  0.0283 -0.0954
   50MOL0     C 6830  10.801  10.840   6.177  0.8939  0.6312  0.5246
   50MOL0     H 6831  11.239  11.009   6.071  1.9596 -3.2320  1.3622
   50MOL0     H 6832  11.480  10.967   6.166  0.9436  0.6925  0.1272
   50MOL0     H 6833  11.515  11.084   6.555 -0.2372  1.6109  0.6574
   50MOL0     H 6834  11.621  11.213   6.524  1.6258 -1.6172  1.6258
   50MOL0     H 6835  11.718  11.013   6.638 -2.9344 -0.9593  0.9182
   50MOL0     H 6836  11.680  10.917   6.496 -2.2590  0.9029 -0.2058
   50MOL0     H 6837  11.848  11.007   6.367 -0.5898 -3.4797  1.0519
   50MOL0     H 6838  11.863  11.142   6.491  1.6048  0.1158  2.0009
   50MOL0     H 6839  11.959  10.955   6.641  0.5389  1.7206 -0.4930
   50MOL0     H 6840  11.924  10.837   6.517 -1.1238  0.7808 -1.8999
   50MOL0     H 6841  12.116  11.083   6.468  0.1132 -0.5922 -1.5607
   50MOL0     H 6842  12.098  10.939   6.364 -1.0714  1.3129 -0.7157
   50MOL0     H 6843  12.303  10.931   6.498 -0.7456  0.7231 -1.7293
   50MOL0     H 6844  12.218  10.936   6.654  1.2670 -2.9365  0.7825
   50MOL0     H 6845  12.269  10.712   6.465  1.8420  1.4514  0.5461
   50MOL0     H 6846  12.096  10.721   6.504 -0.3834 -0.3669  1.2875
   50MOL0     H 6847  12.333  10.736   6.682 -0.0572 -1.0967  1.3905
   50MOL0     H 6848  12.166  10.725   6.748  1.5050 -1.4996  1.6251
   50MOL0     H 6849  12.115  10.472   6.818 -2.0790 -4.3277 -0.8659
   50MOL0     H 6850  12.219  10.173   6.840 -1.6922 -0.9157  0.5286
   50MOL0     H 6851  12.211  10.139   6.662  0.9230  3.0977 -1.6640
   50MOL0     H 6852  11.993  10.230   6.850  0.6988  3.4899 -0.0979
   50MOL0     H 6853  11.989  10.274   6.680 -1.4544  0.2515  0.9225
   50MOL0     H 6854  11.861  10.083   6.700 -0.1220  1.9657  0.7988
   50MOL0     H 6855  12.009  10.027   6.614  0.7619  1.6872 -0.2896
   50MOL0     H 6856  11.972   9.867   6.726  0.2301  3.0348 -2.3242
   50MOL0     H 6857  12.099   9.939   6.820 -1.0274 -0.8361  0.8475
   50MOL0     H 6858  12.157   9.854   6.982 -0.9057 -1.4060 -1.3529
   50MOL0     H 6859  12.298   9.710   7.088 -0.4786 -1.4631  0.1809
   50MOL0     H 6860  12.261   9.600   7.206 -0.0218 -0.4503 -1.6509
   50MOL0     H 6861  12.286   9.769   7.262 -0.3196  0.4130  0.0623
   50MOL0     H 6862  12.022   9.308   7.424 -0.1313  1.3223 -0.2862
   50MOL0     H 6863  12.059   9.172   7.633 -0.7172  0.2529  0.7842
   50MOL0     H 6864  12.120   9.068   7.829 -2.2158 -0.8205  2.6074
   50MOL0     H 6865  12.241   9.201   7.812  0.5590 -0.9382 -0.0704
   50MOL0     H 6866  12.237   9.221   8.057 -1.8580  2.2069 -0.8861
   50MOL0     H 6867  12.110   9.088   8.058 -1.0097 -1.8431 -3.6355
   50MOL0     H 6868  12.378   9.045   7.922  1.5200  2.6495  1.2778
   50MOL0     H 6869  12.279   8.920   8.006  2.6929 -1.0081 -1.8138
   50MOL0     H 6870  12.356   9.029   8.233  1.5764 -0.3154 -0.6816
   50MOL0     H 6871  12.442   9.155   8.140 -0.3649  0.9569  0.3796
   50MOL0     H 6872  12.509   8.859   8.162  0.8933 -0.9972 -4.2097
   50MOL0     H 6873  12.605   8.969   8.062  0.8737  2.2304  1.1794
   50MOL0     H 6874  12.569   9.024   8.360 -1.8090  0.1473 -0.2475
   50MOL0     H 6875  12.641   9.130   8.247 -1.6528 -0.2530  0.8255
   50MOL0     H 6876  12.802   8.922   8.173 -1.0989 -4.0280  0.7974
   50MOL0     H 6877  12.721   8.847   8.313  0.6144  0.1219  1.0126
   50MOL0     H 6878  12.913   9.093   8.316 -1.1246  0.5649  0.3491
   50MOL0     H 6879  12.948   8.940   8.395 -0.6523 -0.7856  1.1471
   50MOL0     H 6880  11.985   9.521   7.876  0.0782  1.7987 -0.3971
   50MOL0     H 6881  11.910   9.641   7.669 -1.1803 -0.4116 -4.0755
   50MOL0     H 6882  11.780   9.701   7.265 -0.0530 -1.9874 -0.8758
   50MOL0     H 6883  11.739   9.851   7.098 -1.5849 -2.5635 -0.3195
   50MOL0     H 6884  11.439  11.308   6.408  2.3967  1.0196 -2.5422
   50MOL0     H 6885  11.209  11.333   6.349 -0.9456  0.0167 -1.2633
   50MOL0     H 6886  10.848  11.289   6.268  0.2924 -0.0202 -2.5225
   50MOL0     H 6887  10.615  11.338   6.232  4.0406  1.5664  0.1442
   50MOL0     H 6888  10.408  11.308   6.307 -1.8750  2.2645 -0.2764
   50MOL0     H 6889  10.408  11.340   6.142  2.5850  1.3294  2.1338
   50MOL0     H 6890  10.163  11.365   6.247 -1.8971 -0.2957 -1.7409
   50MOL0     H 6891  10.184  11.209   6.307  1.3842  0.7972  1.5988
   50MOL0     H 6892  10.166  11.279   6.011 -5.2998 -1.1480 -2.7276
   50MOL0     H 6893  10.175  11.119   6.065  1.9748 -0.2432  2.4048
   50MOL0     H 6894   9.932  11.204   6.017 -1.9959  0.8215  0.8663
   50MOL0     H 6895   9.946  11.302   6.163 -0.1855  0.1175 -0.7057
   50MOL0     H 6896   9.877  10.926   6.329 -2.1800 -0.0648 -1.6934
   50MOL0     H 6897  10.554  10.910   6.140  0.3570 -0.7400 -0.2490
   50MOL0     H 6898  10.782  10.782   6.269  2.1375  2.2277  1.8406
   50MOL0     H 6899  10.744  10.785   6.102 -1.1320  2.4439  0.6514
   50MOL0     H 6900  10.907  10.839   6.153  0.3812 -2.6154 -2.3974
   51MOL0     O 6901   3.846   1.246   4.514  0.2255 -0.1586 -0.2762
   51MOL0     C 6902   3.804   1.242   4.627  0.4230  1.0923  0.1400
   51MOL0     O 6903   3.884   1.200   4.734 -0.1305 -0.0801 -0.4237
   51MOL0     C 6904   3.998   1.129   4.703 -0.3780  1.3469  0.2381
   51MOL0     C 6905   3.999   0.986   4.702  0.2766 -0.5102  0.3953
   51MOL0     C 6906   4.117   0.906   4.679 -0.3487 -0.0806 -0.1368
   51MOL0     C 6907   4.237   0.972   4.652  0.5029 -0.4326 -0.4073
   51MOL0     O 6908   4.336   0.889   4.602 -0.0440  0.4562 -0.1352
   51MOL0     C 6909   4.464   0.952   4.573  0.3351 -0.3645 -0.2171
   51MOL0     C 6910   4.546   0.832   4.514 -0.6391  0.3158  0.9033
   51MOL0     C 6911   4.698   0.872   4.528  0.0488  0.4441 -0.0071
   51MOL0     C 6912   4.803   0.771   4.468 -0.3378 -0.2980  0.2164
   51MOL0     C 6913   4.938   0.825   4.433  0.1648 -0.4604 -0.6689
   51MOL0     C 6914   5.037   0.853   4.547 -0.0560  0.1236 -0.0487
   51MOL0     C 6915   5.186   0.842   4.503 -1.8135  0.0812 -0.1768
   51MOL0     C 6916   5.250   0.893   4.369 -0.8038 -0.3050 -0.3869
   51MOL0     N 6917   5.383   0.847   4.375  0.0157 -0.2131  0.1249
   51MOL0     C 6918   5.447   0.764   4.278 -0.4190 -0.3385 -0.4108
   51MOL0     C 6919   5.572   0.744   4.325  0.0984 -0.1020  0.6180
   51MOL0     C 6920   5.664   0.648   4.268  0.3295  0.1465  0.2487
   51MOL0     C 6921   5.682   0.655   4.115 -0.1652  0.8147 -1.1163
   51MOL0     C 6922   5.726   0.801   4.075  1.5005  0.8171  1.3214
   51MOL0     C 6923   5.875   0.819   4.093  0.1383 -0.2518  0.2860
   51MOL0     O 6924   5.890   0.949   4.035 -0.7906 -0.5704 -0.1786
   51MOL0     C 6925   6.020   0.974   3.981 -0.9807  0.3283 -0.3643
   51MOL0     C 6926   6.037   1.101   3.927  0.6176 -0.2173  0.2665
   51MOL0     C 6927   6.156   1.150   3.861  0.9605  0.2926 -0.7973
   51MOL0     C 6928   6.150   1.291   3.810  0.3891 -0.5822  0.0445
   51MOL0     C 6929   6.272   1.068   3.861  0.8402 -0.3527  0.7222
   51MOL0     C 6930   6.401   1.114   3.801 -0.3366  0.7401  0.5818
   51MOL0     O 6931   6.488   1.004   3.790  0.6285 -1.0782  0.2477
   51MOL0     C 6932   6.613   1.013   3.727  0.2718  0.6367  0.3888
   51MOL0     C 6933   6.694   0.906   3.766 -0.2398 -0.0851 -0.0258
   51MOL0     C 6934   6.825   0.906   3.717  0.2223 -0.0224 -0.6452
   51MOL0     C 6935   6.872   1.009   3.637  0.5151  0.4366  1.2048
   51MOL0     O 6936   7.003   0.984   3.594 -0.1914  0.4608 -0.0394
   51MOL0     C 6937   7.105   1.083   3.629 -0.1805  0.6369 -0.0148
   51MOL0     C 6938   7.171   1.062   3.759  0.2244  0.3410 -0.3438
   51MOL0     C 6939   7.237   0.921   3.775  0.2303 -0.4181 -0.1037
   51MOL0     C 6940   7.366   0.908   3.689  0.2466  0.1517 -0.5062
   51MOL0     C 6941   7.444   0.785   3.740  0.4323 -0.3038  0.5543
   51MOL0     C 6942   7.535   0.729   3.628 -0.4268  0.1663  0.0503
   51MOL0     C 6943   7.601   0.597   3.671 -0.3551  0.3275  0.0378
   51MOL0     C 6944   7.702   0.546   3.566  0.1399 -0.7339  0.3119
   51MOL0    Cl 6945   7.853   0.664   3.539 -0.4258  0.5824  0.1435
   51MOL0     C 6946   6.790   1.110   3.593 -0.2430 -0.0694  0.4721
   51MOL0     C 6947   6.658   1.117   3.643 -0.4456 -1.1683  0.1150
   51MOL0     O 6948   6.432   1.229   3.790  0.2602  0.0305 -0.0757
   51MOL0     C 6949   6.251   0.947   3.918 -0.4616 -0.1789 -0.0197
   51MOL0     C 6950   6.135   0.893   3.980 -0.1184  0.7601 -0.4191
   51MOL0     N 6951   5.597   0.818   4.446 -0.2524  0.9663  1.1077
   51MOL0     N 6952   5.477   0.874   4.465 -1.0615 -0.6260 -0.6367
   51MOL0     C 6953   4.238   1.114   4.650 -0.7757 -0.1433 -0.2781
   51MOL0     C 6954   4.118   1.187   4.674  0.2458 -0.4626 -0.4130
   51MOL0     C 6955   3.663   1.282   4.647 -0.7055  0.9174 -0.3787
   51MOL0     C 6956   3.614   1.237   4.773 -0.0908  0.7240 -0.0709
   51MOL0     C 6957   3.486   1.275   4.814 -0.8861  0.3226  0.0344
   51MOL0     C 6958   3.405   1.352   4.729  0.2015 -0.4516 -0.2278
   51MOL0     O 6959   3.266   1.377   4.737 -0.0858 -0.7934  0.3358
   51MOL0     C 6960   3.197   1.332   4.857  0.2364  0.3824 -0.7702
   51MOL0     C 6961   3.047   1.299   4.826 -0.5816 -0.8023  0.0645
   51MOL0     C 6962   2.964   1.435   4.823 -1.0062  0.3734  0.9884
   51MOL0     C 6963   2.983   1.500   4.678 -0.3099 -0.9435 -0.0358
   51MOL0     C 6964   2.922   1.415   4.578  0.2084  0.1019  0.8171
   51MOL0     C 6965   2.874   1.343   4.494 -0.8064  0.4662  0.4097
   51MOL0     C 6966   3.454   1.380   4.598  0.4660  0.0740 -0.1514
   51MOL0     C 6967   3.576   1.343   4.555  0.1470 -0.2546  0.4747
   51MOL0     C 6968   3.612   1.378   4.410 -0.2268  0.0901 -0.4757
   51MOL0     H 6969   3.901   0.944   4.723 -0.8509  2.3128  1.3665
   51MOL0     H 6970   4.111   0.798   4.675 -1.4094 -0.0019 -1.3143
   51MOL0     H 6971   4.508   0.980   4.669  0.7704 -3.2865  0.5534
   51MOL0     H 6972   4.468   1.031   4.497  0.1910 -1.5686 -1.5256
   51MOL0     H 6973   4.522   0.741   4.569  2.3048 -1.7334 -0.8949
   51MOL0     H 6974   4.530   0.826   4.406  1.4645 -0.6015  0.5929
   51MOL0     H 6975   4.718   0.963   4.472  0.6253 -1.2504 -2.7749
   51MOL0     H 6976   4.726   0.881   4.634 -0.8000 -0.0126  0.2678
   51MOL0     H 6977   4.822   0.684   4.530  1.7085  0.3080  0.5076
   51MOL0     H 6978   4.762   0.732   4.374  1.0921  2.2714 -1.6033
   51MOL0     H 6979   4.921   0.915   4.373  0.3549 -1.6410 -2.5757
   51MOL0     H 6980   4.981   0.746   4.370  0.7448  0.2975 -1.2474
   51MOL0     H 6981   5.020   0.954   4.585  2.1196  0.6885 -0.4621
   51MOL0     H 6982   5.037   0.789   4.636  1.0562 -0.3462 -0.3678
   51MOL0     H 6983   5.217   0.737   4.514  1.5820  1.0424  0.5935
   51MOL0     H 6984   5.244   0.889   4.582  1.2712 -0.5510 -1.8987
   51MOL0     H 6985   5.201   0.864   4.276  0.6404 -3.1739 -0.3724
   51MOL0     H 6986   5.254   1.002   4.375 -2.7964 -0.2373  0.8466
   51MOL0     H 6987   5.393   0.712   4.199 -0.5361 -0.1736 -0.4400
   51MOL0     H 6988   5.634   0.549   4.303  1.6955 -0.6625 -0.7557
   51MOL0     H 6989   5.761   0.655   4.318  0.4816  0.4157 -0.0768
   51MOL0     H 6990   5.761   0.585   4.087  0.2110 -0.7141  3.0532
   51MOL0     H 6991   5.587   0.622   4.071 -1.9939 -0.6660  3.3332
   51MOL0     H 6992   5.706   0.819   3.969 -0.3387  1.3043  1.7112
   51MOL0     H 6993   5.663   0.875   4.126 -1.2846  0.1201 -0.8645
   51MOL0     H 6994   5.907   0.810   4.197  3.4074 -0.6191 -0.6358
   51MOL0     H 6995   5.934   0.743   4.040  0.6602 -1.7610  2.8797
   51MOL0     H 6996   5.955   1.167   3.902  2.0850  0.6076 -2.9980
   51MOL0     H 6997   6.195   1.297   3.710 -0.6103  2.1164 -0.3071
   51MOL0     H 6998   6.201   1.368   3.869 -1.0567 -0.5627  1.3268
   51MOL0     H 6999   6.049   1.330   3.798  0.1724 -0.7734  1.1804
   51MOL0     H 7000   6.657   0.841   3.845  1.3754 -1.4153 -0.3223
   51MOL0     H 7001   6.898   0.834   3.751  1.6937  1.3907 -0.6649
   51MOL0     H 7002   7.180   1.079   3.550 -0.5141  0.9203 -0.3529
   51MOL0     H 7003   7.062   1.184   3.631 -1.4490  0.1631 -1.2405
   51MOL0     H 7004   7.240   1.145   3.778 -0.2235  1.1489 -2.0318
   51MOL0     H 7005   7.083   1.080   3.822 -1.1075  0.8262 -2.2515
   51MOL0     H 7006   7.176   0.837   3.739 -1.1569  0.5717 -0.1503
   51MOL0     H 7007   7.254   0.898   3.880 -3.8053 -1.6521  0.4197
   51MOL0     H 7008   7.421   1.002   3.698  2.3603 -1.1381  0.9563
   51MOL0     H 7009   7.340   0.890   3.584 -0.7053 -0.1368 -0.2326
   51MOL0     H 7010   7.490   0.823   3.831 -2.0460  0.0873  1.7453
   51MOL0     H 7011   7.375   0.708   3.777  0.9651 -0.3509  1.4573
   51MOL0     H 7012   7.607   0.800   3.588  1.2766 -0.2447  2.2245
   51MOL0     H 7013   7.473   0.697   3.543 -0.0976 -0.8641  0.1920
   51MOL0     H 7014   7.519   0.527   3.691 -1.1445  1.3339  0.4417
   51MOL0     H 7015   7.641   0.614   3.771 -2.4949  3.3686  0.5284
   51MOL0     H 7016   7.648   0.547   3.470 -1.0700 -0.2080  0.9743
   51MOL0     H 7017   7.728   0.443   3.594 -1.4416 -1.6746 -1.4142
   51MOL0     H 7018   6.833   1.187   3.529  1.7165 -1.1279  0.4377
   51MOL0     H 7019   6.596   1.201   3.612 -0.0301 -0.7292  0.4765
   51MOL0     H 7020   6.340   0.884   3.912 -0.6373 -0.3193 -1.5361
   51MOL0     H 7021   6.131   0.789   4.013 -2.2225  0.2923 -1.9587
   51MOL0     H 7022   4.326   1.171   4.621 -1.0019  0.3956  0.0760
   51MOL0     H 7023   4.120   1.295   4.666  1.7397 -0.4965 -0.8412
   51MOL0     H 7024   3.669   1.173   4.840 -0.1426 -0.1746 -0.8660
   51MOL0     H 7025   3.463   1.271   4.921 -0.3847  4.1539  0.4296
   51MOL0     H 7026   3.249   1.249   4.907  0.0526  1.1773  0.8224
   51MOL0     H 7027   3.183   1.415   4.928  0.3693  1.4812 -1.9938
   51MOL0     H 7028   3.017   1.245   4.916 -0.1869 -1.7218 -0.3414
   51MOL0     H 7029   3.036   1.245   4.731 -1.2299  0.6126 -0.7014
   51MOL0     H 7030   2.857   1.416   4.840 -1.2230 -0.1192 -0.7290
   51MOL0     H 7031   3.006   1.505   4.895  0.7551 -0.2121  0.5727
   51MOL0     H 7032   3.086   1.523   4.651 -0.3488 -0.6074  0.0971
   51MOL0     H 7033   2.930   1.596   4.676  0.6858 -0.4002 -1.7996
   51MOL0     H 7034   2.842   1.268   4.426  3.3717 -0.0734 -1.3163
   51MOL0     H 7035   3.387   1.410   4.518  0.7795 -0.1802 -0.5142
   51MOL0     H 7036   3.709   1.427   4.413 -1.5443  2.9567 -1.5944
   51MOL0     H 7037   3.615   1.290   4.345 -0.4494 -0.7443  0.5969
   51MOL0     H 7038   3.546   1.450   4.361 -2.2399 -2.5999 -2.0469
   52MOL0     O 7039   7.699   3.742   4.396  0.5084  0.9164 -0.5199
   52MOL0     C 7040   7.680   3.818   4.304 -0.1565  1.2561 -0.6863
   52MOL0     O 7041   7.770   3.840   4.207 -0.2674 -0.1111 -0.3663
   52MOL0     C 7042   7.890   3.768   4.207 -0.2025 -0.3482 -0.8252
   52MOL0     C 7043   8.006   3.826   4.262  0.6118  0.0244  1.4136
   52MOL0     C 7044   8.122   3.760   4.266  0.6878  0.3468 -0.3645
   52MOL0     C 7045   8.127   3.628   4.216 -0.2131 -0.1500  0.3143
   52MOL0     O 7046   8.250   3.562   4.235  0.0910 -0.3897 -0.5107
   52MOL0     C 7047   8.239   3.422   4.221 -0.7606  0.5067 -0.3687
   52MOL0     C 7048   8.364   3.360   4.281 -0.0744  0.2019  1.7352
   52MOL0     C 7049   8.492   3.407   4.216  0.3682 -1.4454  1.1441
   52MOL0     C 7050   8.607   3.308   4.252  1.1248 -0.7706 -0.8074
   52MOL0     C 7051   8.729   3.340   4.152  0.4720 -1.0898  0.2053
   52MOL0     C 7052   8.834   3.223   4.154  0.2287 -0.1614  0.0898
   52MOL0     C 7053   8.968   3.274   4.110  0.2692  0.0028 -0.2583
   52MOL0     C 7054   9.061   3.151   4.092 -0.3575 -0.1379 -0.0757
   52MOL0     N 7055   9.187   3.177   4.021  0.0416  0.2815  0.7815
   52MOL0     C 7056   9.223   3.133   3.893  0.1863  0.0269  0.3106
   52MOL0     C 7057   9.361   3.148   3.892  0.1303 -0.2325  0.2058
   52MOL0     C 7058   9.449   3.099   3.791 -0.1671  0.0835 -0.3119
   52MOL0     C 7059   9.390   3.011   3.690  0.5960 -0.1545  0.0791
   52MOL0     C 7060   9.474   2.990   3.563  0.2088 -0.1635 -0.2460
   52MOL0     C 7061   9.594   2.896   3.590 -0.3160 -0.0550 -0.2433
   52MOL0     O 7062   9.650   2.848   3.461 -0.8445  0.3032  0.4153
   52MOL0     C 7063   9.771   2.783   3.461  0.1950  0.5841 -0.4832
   52MOL0     C 7064   9.793   2.688   3.357 -0.2433 -0.3305  0.0516
   52MOL0     C 7065   9.912   2.614   3.356 -0.0843  1.1902  0.1633
   52MOL0     C 7066   9.928   2.515   3.238  1.0365 -0.1672  0.3779
   52MOL0     C 7067  10.006   2.620   3.464 -0.2310 -0.0714 -0.9209
   52MOL0     C 7068  10.134   2.544   3.468  0.0114  1.0652  0.3749
   52MOL0     O 7069  10.156   2.465   3.361  0.3116  0.3256  0.1559
   52MOL0     C 7070  10.259   2.372   3.357  0.2789  0.2308 -0.2114
   52MOL0     C 7071  10.301   2.295   3.469 -0.0746  0.5378  0.0397
   52MOL0     C 7072  10.410   2.198   3.460 -0.1072  0.6512  0.0960
   52MOL0     C 7073  10.480   2.185   3.337  0.0416  1.3031 -0.6991
   52MOL0     O 7074  10.585   2.102   3.324 -0.5097 -0.1781 -0.5965
   52MOL0     C 7075  10.656   2.050   3.444 -0.0472  0.5866 -0.2189
   52MOL0     C 7076  10.783   1.989   3.405  0.3050  0.9648  0.0008
   52MOL0     C 7077  10.768   1.837   3.374 -0.2202  0.3526 -0.2165
   52MOL0     C 7078  10.900   1.781   3.327 -1.2316 -0.2646 -0.3849
   52MOL0     C 7079  10.898   1.637   3.275 -0.7904  0.6272  0.7696
   52MOL0     C 7080  11.034   1.602   3.206 -0.8129  0.3712 -0.4253
   52MOL0     C 7081  11.039   1.460   3.160 -0.8607  0.7181 -0.1393
   52MOL0     C 7082  11.173   1.423   3.100 -0.1935  0.0879  0.1949
   52MOL0    Cl 7083  11.221   1.253   3.126 -0.1881 -0.4353 -0.0347
   52MOL0     C 7084  10.432   2.258   3.228  0.3613 -0.6965 -0.6216
   52MOL0     C 7085  10.325   2.351   3.234 -0.0608 -0.6802  0.1530
   52MOL0     O 7086  10.209   2.554   3.561 -0.2480  1.1480 -0.8723
   52MOL0     C 7087   9.980   2.714   3.574 -0.7145 -0.4449  0.3604
   52MOL0     C 7088   9.862   2.787   3.567  0.1934 -0.0558 -0.1140
   52MOL0     N 7089   9.403   3.209   4.012 -0.0967 -0.7883 -0.3932
   52MOL0     N 7090   9.294   3.235   4.083 -0.6196 -0.2213 -0.5987
   52MOL0     C 7091   8.023   3.573   4.143  0.2280  0.5679 -1.6084
   52MOL0     C 7092   7.904   3.646   4.142  0.6426  0.3198 -0.3253
   52MOL0     C 7093   7.554   3.892   4.296 -0.2979 -0.0465 -0.5730
   52MOL0     C 7094   7.492   3.911   4.170  0.5148  0.0897 -0.1638
   52MOL0     C 7095   7.376   3.980   4.153  0.8229  0.7812  0.0043
   52MOL0     C 7096   7.319   4.048   4.253 -0.2394 -0.8918 -0.6680
   52MOL0     O 7097   7.226   4.146   4.237 -1.0429  0.0531  0.2516
   52MOL0     C 7098   7.117   4.102   4.155  0.9549 -0.6106 -0.7496
   52MOL0     C 7099   6.996   4.051   4.242 -0.4034 -0.5193 -0.9380
   52MOL0     C 7100   7.001   3.908   4.302 -0.5465  0.1487  0.9654
   52MOL0     C 7101   6.886   3.883   4.399  0.3961  0.6761 -0.1764
   52MOL0     C 7102   6.762   3.889   4.331  0.0982  0.3178  0.9399
   52MOL0     C 7103   6.670   3.875   4.256 -0.2147 -0.5365 -0.6880
   52MOL0     C 7104   7.380   4.040   4.380  0.5880 -0.1057 -0.2547
   52MOL0     C 7105   7.488   3.952   4.409  0.1156 -0.1136 -0.7665
   52MOL0     C 7106   7.544   3.964   4.555  1.1069 -0.3164  0.2776
   52MOL0     H 7107   7.984   3.927   4.295 -2.4919 -0.0156 -0.1835
   52MOL0     H 7108   8.215   3.789   4.315  0.0217 -0.6901  1.6460
   52MOL0     H 7109   8.230   3.391   4.116 -2.8364  1.5186 -0.5478
   52MOL0     H 7110   8.158   3.382   4.282 -0.6285  0.8036  0.0046
   52MOL0     H 7111   8.351   3.373   4.388 -0.6942 -0.8631  1.8042
   52MOL0     H 7112   8.357   3.252   4.264  2.5901 -0.1265  2.3162
   52MOL0     H 7113   8.489   3.416   4.107  1.0266  0.7308  1.2429
   52MOL0     H 7114   8.528   3.507   4.246  1.6190 -1.9958  1.5619
   52MOL0     H 7115   8.630   3.313   4.359 -1.9804  3.1513 -0.0888
   52MOL0     H 7116   8.574   3.205   4.233  1.3980 -1.1603  0.6746
   52MOL0     H 7117   8.786   3.431   4.173 -0.7126 -0.2940  0.0539
   52MOL0     H 7118   8.694   3.348   4.048  3.2360 -4.2849 -1.1540
   52MOL0     H 7119   8.837   3.195   4.260 -0.1784  1.0087  0.4318
   52MOL0     H 7120   8.797   3.140   4.094 -0.7344  0.1760  0.2010
   52MOL0     H 7121   9.012   3.346   4.180  2.6390 -0.4683 -1.1368
   52MOL0     H 7122   8.950   3.314   4.010  0.5335  2.4658  0.6195
   52MOL0     H 7123   9.078   3.112   4.193 -0.0195  0.4007  0.0807
   52MOL0     H 7124   9.000   3.079   4.037 -3.2388  0.5963  1.9377
   52MOL0     H 7125   9.154   3.076   3.830 -0.0758  0.3016  0.3480
   52MOL0     H 7126   9.529   3.042   3.840  0.0622 -2.1812 -3.0322
   52MOL0     H 7127   9.476   3.190   3.738 -3.1023  0.5093 -1.2486
   52MOL0     H 7128   9.361   2.917   3.737 -4.6498  0.9383 -0.3811
   52MOL0     H 7129   9.300   3.061   3.653  0.9612  0.3256 -0.1726
   52MOL0     H 7130   9.416   2.942   3.485  4.7298 -1.7669 -3.0297
   52MOL0     H 7131   9.507   3.089   3.531  4.0913 -0.2296  2.6846
   52MOL0     H 7132   9.663   2.952   3.654 -0.1694 -1.1457  0.5814
   52MOL0     H 7133   9.559   2.807   3.642 -2.5689  0.8814 -0.0358
   52MOL0     H 7134   9.726   2.684   3.272 -0.2817  0.0302  0.0631
   52MOL0     H 7135   9.922   2.411   3.271 -0.7601 -0.1448  0.2173
   52MOL0     H 7136  10.021   2.535   3.183  1.2522  0.1545  0.8537
   52MOL0     H 7137   9.839   2.510   3.175  2.4323 -3.1629 -1.5924
   52MOL0     H 7138  10.257   2.308   3.567 -0.3714  1.1205 -0.1712
   52MOL0     H 7139  10.432   2.142   3.550  1.5913 -1.3570 -1.4744
   52MOL0     H 7140  10.674   2.137   3.508 -0.7188 -0.5304  1.5555
   52MOL0     H 7141  10.591   1.979   3.495 -0.6052  0.4855 -1.0596
   52MOL0     H 7142  10.837   2.043   3.326  3.1126  0.3053  1.3492
   52MOL0     H 7143  10.854   2.006   3.486  1.1234  0.8639 -0.6847
   52MOL0     H 7144  10.694   1.836   3.294 -0.1311  0.0133 -0.2931
   52MOL0     H 7145  10.727   1.784   3.461  0.9625  1.5847  1.1495
   52MOL0     H 7146  10.976   1.783   3.405  0.4152 -4.1800 -1.6176
   52MOL0     H 7147  10.937   1.845   3.246  2.6542  0.6921  1.9114
   52MOL0     H 7148  10.890   1.569   3.361  1.6120 -1.0042 -0.1937
   52MOL0     H 7149  10.815   1.622   3.206 -0.7448  0.5983  0.7220
   52MOL0     H 7150  11.116   1.623   3.275  0.8859 -1.6721 -1.7011
   52MOL0     H 7151  11.051   1.668   3.119 -2.7191  1.5183  0.0054
   52MOL0     H 7152  10.960   1.433   3.089 -0.0648 -1.0223 -0.4139
   52MOL0     H 7153  11.027   1.408   3.255 -1.0024  4.3125  1.9558
   52MOL0     H 7154  11.260   1.480   3.132  1.2839 -1.5751 -0.6789
   52MOL0     H 7155  11.169   1.452   2.994  1.0749  4.0377  1.0782
   52MOL0     H 7156  10.491   2.238   3.139  1.0671 -2.7463  0.2351
   52MOL0     H 7157  10.287   2.398   3.144 -2.4863 -1.9518  0.4201
   52MOL0     H 7158  10.052   2.725   3.654  3.9463 -2.3986 -3.0568
   52MOL0     H 7159   9.842   2.860   3.644  1.4775  1.5993 -1.2883
   52MOL0     H 7160   8.029   3.477   4.093 -0.7148  0.1011 -0.8594
   52MOL0     H 7161   7.816   3.597   4.102  1.3087 -0.7277 -0.5615
   52MOL0     H 7162   7.536   3.874   4.078  4.4415  2.6251  0.4656
   52MOL0     H 7163   7.338   4.012   4.057  0.8233  0.5511 -0.0708
   52MOL0     H 7164   7.087   4.170   4.075  3.1149  0.1578 -0.9636
   52MOL0     H 7165   7.136   4.009   4.100  1.6575 -0.2257 -1.1617
   52MOL0     H 7166   6.905   4.056   4.182 -0.7142 -3.9226 -0.9702
   52MOL0     H 7167   6.994   4.126   4.322  1.1094 -1.6552  0.2303
   52MOL0     H 7168   6.994   3.835   4.221  0.5696  2.8453 -1.7528
   52MOL0     H 7169   7.095   3.884   4.351 -0.4778  0.0486  0.7850
   52MOL0     H 7170   6.882   3.960   4.476 -1.5191 -0.3605  0.8450
   52MOL0     H 7171   6.900   3.785   4.445  2.9752  2.2126  2.6964
   52MOL0     H 7172   6.588   3.854   4.190 -0.8627 -1.2374  0.3010
   52MOL0     H 7173   7.322   4.093   4.454  0.1124  2.3877 -2.2687
   52MOL0     H 7174   7.521   3.869   4.604  1.2496  0.3353  1.6525
   52MOL0     H 7175   7.654   3.963   4.552  1.1390  1.0982  0.0412
   52MOL0     H 7176   7.517   4.065   4.587  0.6345  0.0070 -1.0484
   53MOL0     O 7177   0.224   4.276   9.323 -0.7873  0.8365 -0.0174
   53MOL0     C 7178   0.154   4.196   9.374 -0.0335  0.6135 -0.6148
   53MOL0     O 7179   0.177   4.060   9.369  0.0099 -0.1881 -0.1287
   53MOL0     C 7180   0.273   4.011   9.277 -0.1614 -0.0537 -0.2819
   53MOL0     C 7181   0.360   3.911   9.325  0.8267 -1.0347 -0.1357
   53MOL0     C 7182   0.449   3.850   9.236 -0.1717  0.9808  0.4378
   53MOL0     C 7183   0.450   3.872   9.101 -0.5990 -0.6292  0.3687
   53MOL0     O 7184   0.547   3.811   9.030 -0.2093  1.0804 -0.4132
   53MOL0     C 7185   0.652   3.900   8.989  0.0253 -0.1894  0.9127
   53MOL0     C 7186   0.741   3.824   8.893  0.0413  0.8965  0.0021
   53MOL0     C 7187   0.839   3.918   8.828 -0.8251  0.2926 -0.5425
   53MOL0     C 7188   0.954   3.841   8.764  0.5500  0.0287  0.5567
   53MOL0     C 7189   1.050   3.757   8.847  0.1711  0.1547 -0.1071
   53MOL0     C 7190   1.153   3.828   8.936 -0.7656 -0.3262 -0.0754
   53MOL0     C 7191   1.241   3.726   9.008 -1.2166  0.0023  0.6679
   53MOL0     C 7192   1.383   3.784   9.051 -0.5615  0.3602 -0.8138
   53MOL0     N 7193   1.370   3.884   9.168  0.2408  0.0879 -0.0639
   53MOL0     C 7194   1.384   3.863   9.304  0.1526  0.7853 -0.2968
   53MOL0     C 7195   1.417   3.985   9.362  0.3796  0.9634  1.4281
   53MOL0     C 7196   1.449   4.015   9.508 -0.1042 -0.2177  0.5845
   53MOL0     C 7197   1.414   4.156   9.558 -0.9399  0.3632 -0.0527
   53MOL0     C 7198   1.486   4.190   9.689 -0.4624  1.6049 -0.3256
   53MOL0     C 7199   1.499   4.071   9.788  0.0042 -0.4678 -0.3346
   53MOL0     O 7200   1.376   4.009   9.825 -0.2448  0.2042  0.2870
   53MOL0     C 7201   1.290   4.071   9.912 -0.3460 -0.0365 -0.2247
   53MOL0     C 7202   1.159   4.012   9.908  0.7382 -0.3964  1.0066
   53MOL0     C 7203   1.054   4.053   9.995  0.2037  0.3764 -0.6058
   53MOL0     C 7204   0.909   3.988   9.978 -0.4870 -0.3115  0.4092
   53MOL0     C 7205   1.082   4.171  10.079 -0.3582 -0.8342  0.3984
   53MOL0     C 7206   0.971   4.245  10.145  0.0004  0.2655  0.3790
   53MOL0     O 7207   0.879   4.167  10.207 -0.6106 -0.3888  0.3998
   53MOL0     C 7208   0.779   4.197  10.290  0.1723 -0.6363 -0.2356
   53MOL0     C 7209   0.692   4.095  10.318  0.5248  0.0934 -0.2681
   53MOL0     C 7210   0.588   4.121  10.404 -0.6370 -0.4653 -0.0057
   53MOL0     C 7211   0.555   4.241  10.457  0.4797 -0.7264  0.6967
   53MOL0     O 7212   0.446   4.243  10.538  0.2986  1.1377  0.2294
   53MOL0     C 7213   0.442   4.337  10.643  0.3563 -0.2473 -0.6589
   53MOL0     C 7214   0.315   4.301  10.711  1.0523 -0.0811 -1.5213
   53MOL0     C 7215   0.295   4.342  10.850 -0.0593 -0.4325 -0.0291
   53MOL0     C 7216   0.238   4.483  10.863 -0.3229  0.9177  0.3222
   53MOL0     C 7217   0.227   4.531  11.010 -0.3967 -0.6823 -0.1024
   53MOL0     C 7218   0.078   4.511  11.068 -0.4261  1.0950  0.3765
   53MOL0     C 7219   0.060   4.374  11.128  0.5752  0.4442 -0.2161
   53MOL0     C 7220  -0.087   4.368  11.186  0.1293 -0.7125 -0.2324
   53MOL0    Cl 7221  -0.106   4.468  11.332  0.0050  0.1640 -0.1868
   53MOL0     C 7222   0.636   4.351  10.422 -0.3918 -0.5526 -0.0818
   53MOL0     C 7223   0.752   4.327  10.340 -0.1310 -0.4509  0.6386
   53MOL0     O 7224   0.980   4.364  10.147 -0.2559  0.3215  1.0732
   53MOL0     C 7225   1.210   4.235  10.072  0.3437 -0.4450 -0.8815
   53MOL0     C 7226   1.315   4.180   9.997 -0.1286  1.2629 -0.2555
   53MOL0     N 7227   1.408   4.083   9.256  0.8154  0.6396  0.0304
   53MOL0     N 7228   1.400   4.014   9.147 -0.0081  0.2033  0.0990
   53MOL0     C 7229   0.356   3.963   9.047  0.5509 -0.3937 -1.5977
   53MOL0     C 7230   0.266   4.025   9.138  0.2607 -0.7740  0.4195
   53MOL0     C 7231   0.028   4.237   9.436  0.3006 -0.0212 -0.1610
   53MOL0     C 7232  -0.026   4.367   9.411  0.1013  0.6358  0.7214
   53MOL0     C 7233  -0.149   4.416   9.458 -1.4931 -0.6086 -0.6246
   53MOL0     C 7234  -0.218   4.332   9.544  0.3012  0.6579  0.2172
   53MOL0     O 7235  -0.340   4.365   9.588 -0.0337 -0.6014  0.2044
   53MOL0     C 7236  -0.350   4.446   9.702 -0.2324  0.2536 -0.0550
   53MOL0     C 7237  -0.386   4.352   9.816  0.6351 -0.4037  0.5143
   53MOL0     C 7238  -0.366   4.414   9.960 -0.2835  1.1698 -0.1236
   53MOL0     C 7239  -0.418   4.552   9.973 -0.1379 -0.1013  0.4173
   53MOL0     C 7240  -0.551   4.575   9.924  0.5351 -0.3275  0.1705
   53MOL0     C 7241  -0.672   4.572   9.906  0.4578  0.2172 -0.5109
   53MOL0     C 7242  -0.170   4.204   9.576 -0.9455  1.1735 -0.8447
   53MOL0     C 7243  -0.048   4.154   9.522  0.2379 -0.3532  0.0603
   53MOL0     C 7244  -0.003   4.015   9.565  0.1265  1.0029  0.4204
   53MOL0     H 7245   0.355   3.899   9.433 -2.5325 -0.4726 -0.1088
   53MOL0     H 7246   0.525   3.784   9.278  1.3175  3.1187  1.2924
   53MOL0     H 7247   0.710   3.937   9.075  1.6608 -0.4737 -0.0456
   53MOL0     H 7248   0.610   3.986   8.936  1.3288  0.3084  0.6519
   53MOL0     H 7249   0.800   3.745   8.940 -1.9276  0.5678  2.1735
   53MOL0     H 7250   0.674   3.780   8.818  1.7005 -3.3525  0.7070
   53MOL0     H 7251   0.781   3.975   8.755  0.5098  1.3730 -0.7873
   53MOL0     H 7252   0.882   3.987   8.901  0.2762  0.2181 -1.1080
   53MOL0     H 7253   0.902   3.777   8.691 -1.6619  1.9708  0.3125
   53MOL0     H 7254   1.012   3.918   8.713 -0.7558 -0.1975 -1.3812
   53MOL0     H 7255   1.096   3.691   8.772 -0.0290 -0.2805  0.1497
   53MOL0     H 7256   0.994   3.702   8.922  1.0904 -0.0794  0.4258
   53MOL0     H 7257   1.211   3.891   8.868  0.1635 -2.0290 -0.9379
   53MOL0     H 7258   1.099   3.886   9.011 -3.9835 -3.4837  0.3309
   53MOL0     H 7259   1.265   3.637   8.950 -2.8408  0.3131 -0.5674
   53MOL0     H 7260   1.183   3.702   9.097 -2.3264 -3.3285 -0.8237
   53MOL0     H 7261   1.446   3.698   9.075 -0.8392  0.2587 -0.4322
   53MOL0     H 7262   1.427   3.841   8.970 -2.1942 -1.0334 -2.7810
   53MOL0     H 7263   1.378   3.766   9.351  3.1066 -0.0964 -1.5673
   53MOL0     H 7264   1.558   4.002   9.508 -0.0664 -0.2833 -1.9211
   53MOL0     H 7265   1.405   3.938   9.573  2.0439  0.2117  2.7174
   53MOL0     H 7266   1.426   4.231   9.479 -4.1766  3.0141  1.6858
   53MOL0     H 7267   1.306   4.147   9.574 -0.6141 -2.2375  1.1660
   53MOL0     H 7268   1.585   4.234   9.676  0.5961  0.0148  1.6662
   53MOL0     H 7269   1.422   4.269   9.730 -1.1873  1.1380 -0.5289
   53MOL0     H 7270   1.557   3.996   9.735 -2.6035 -0.8454 -2.9065
   53MOL0     H 7271   1.541   4.112   9.881 -3.8477  3.3008  0.0991
   53MOL0     H 7272   1.142   3.922   9.850 -1.7353 -0.6405  2.0242
   53MOL0     H 7273   0.855   3.980  10.072  0.0887 -1.1222  0.6814
   53MOL0     H 7274   0.920   3.888   9.933  1.3176 -0.1688  0.4513
   53MOL0     H 7275   0.850   4.050   9.910  0.5403 -0.3660 -0.5757
   53MOL0     H 7276   0.712   3.994  10.284  1.4989  0.3633 -0.5255
   53MOL0     H 7277   0.519   4.042  10.430 -1.6977  0.9131  1.6254
   53MOL0     H 7278   0.524   4.314  10.712  0.8714  3.1851  0.0322
   53MOL0     H 7279   0.455   4.439  10.607 -1.8811  0.9279  1.4792
   53MOL0     H 7280   0.228   4.333  10.653  1.5376  0.8961 -1.7319
   53MOL0     H 7281   0.312   4.192  10.717 -0.9026 -0.0365 -0.9330
   53MOL0     H 7282   0.385   4.335  10.912 -1.4500  2.9801  2.7361
   53MOL0     H 7283   0.226   4.264  10.885  0.8670 -0.9370  0.7253
   53MOL0     H 7284   0.145   4.493  10.807  1.7239  0.8502 -3.3588
   53MOL0     H 7285   0.291   4.547  10.792 -1.0585  0.6102 -0.5257
   53MOL0     H 7286   0.308   4.484  11.066 -0.8893 -3.0799 -1.2733
   53MOL0     H 7287   0.244   4.639  11.003  0.7414 -0.9237 -5.0637
   53MOL0     H 7288   0.017   4.524  10.978 -0.6997 -1.7544  0.0644
   53MOL0     H 7289   0.054   4.581  11.148 -3.0631 -1.9016  2.4623
   53MOL0     H 7290   0.129   4.347  11.208 -0.9959 -1.1425  0.6838
   53MOL0     H 7291   0.054   4.295  11.052  1.6712 -0.2923  0.4357
   53MOL0     H 7292  -0.115   4.265  11.210 -2.4471 -0.5203 -1.9435
   53MOL0     H 7293  -0.157   4.401  11.108 -0.6248  1.5692  1.2972
   53MOL0     H 7294   0.612   4.447  10.465  2.4600 -0.7279  2.2055
   53MOL0     H 7295   0.812   4.415  10.321 -1.2954  0.3489  0.6209
   53MOL0     H 7296   1.222   4.332  10.119  1.6687 -0.6716 -0.7154
   53MOL0     H 7297   1.410   4.230  10.015 -0.4665  1.8464 -0.0636
   53MOL0     H 7298   0.354   3.978   8.939 -0.5313 -2.6397 -1.9557
   53MOL0     H 7299   0.179   4.078   9.101  0.6693 -1.5378 -1.8185
   53MOL0     H 7300   0.035   4.424   9.341 -0.7647 -1.0283 -1.5304
   53MOL0     H 7301  -0.179   4.517   9.434 -1.3288  0.0638  1.7327
   53MOL0     H 7302  -0.258   4.493   9.739 -1.0337 -0.3250  2.9396
   53MOL0     H 7303  -0.427   4.521   9.685  0.9485  1.6465  0.5628
   53MOL0     H 7304  -0.320   4.265   9.805 -0.0399 -0.6778 -2.0139
   53MOL0     H 7305  -0.493   4.328   9.808  0.6242 -1.1896  2.3789
   53MOL0     H 7306  -0.426   4.362  10.035  0.6770  0.2102  0.0094
   53MOL0     H 7307  -0.261   4.411   9.989 -0.6442 -3.1655  1.5299
   53MOL0     H 7308  -0.360   4.628   9.920  0.4703 -1.1306 -0.4190
   53MOL0     H 7309  -0.426   4.577  10.080 -0.0378  0.6348  0.2631
   53MOL0     H 7310  -0.779   4.578   9.901  0.5705  3.8421 -2.2844
   53MOL0     H 7311  -0.230   4.145   9.645 -1.2067  2.6962  0.2761
   53MOL0     H 7312  -0.017   3.934   9.493  1.9223  0.2326  0.8875
   53MOL0     H 7313   0.099   4.020   9.605  0.0193  2.3899  0.5705
   53MOL0     H 7314  -0.064   3.989   9.651  0.8800  0.6306  0.8570
   54MOL0     O 7315   6.377   3.585   0.076  0.1050  0.3688 -0.3191
   54MOL0     C 7316   6.343   3.660   0.170  0.3164  1.2057  0.1228
   54MOL0     O 7317   6.219   3.696   0.193  0.0847 -1.0899 -0.2429
   54MOL0     C 7318   6.126   3.655   0.103  0.6970  1.5195 -0.2539
   54MOL0     C 7319   6.076   3.725  -0.009 -0.3632 -0.2242  0.2801
   54MOL0     C 7320   5.985   3.675  -0.100  0.3933  0.1825  0.5500
   54MOL0     C 7321   5.930   3.545  -0.086  0.0644  0.0634  0.0874
   54MOL0     O 7322   5.843   3.507  -0.183 -0.2564 -1.0352 -0.1916
   54MOL0     C 7323   5.782   3.382  -0.165 -0.3312 -0.5511  0.1387
   54MOL0     C 7324   5.673   3.364  -0.267 -0.6541 -0.2363  0.1457
   54MOL0     C 7325   5.558   3.463  -0.254 -0.6071 -0.1536  0.3861
   54MOL0     C 7326   5.446   3.416  -0.357 -0.1673 -0.3070  0.1035
   54MOL0     C 7327   5.310   3.459  -0.301 -0.3957 -0.5750 -0.2623
   54MOL0     C 7328   5.196   3.481  -0.412  0.5080  0.8565  0.4432
   54MOL0     C 7329   5.162   3.361  -0.498 -0.4224 -0.3281 -0.1973
   54MOL0     C 7330   5.032   3.395  -0.584 -0.1730 -0.5131 -1.3531
   54MOL0     N 7331   5.021   3.299  -0.689  0.3945 -0.1853 -0.6714
   54MOL0     C 7332   5.100   3.295  -0.812 -0.0406  0.6163 -0.6513
   54MOL0     C 7333   5.096   3.169  -0.857  0.3916 -1.0174 -0.7217
   54MOL0     C 7334   5.172   3.125  -0.972  0.3853 -0.0659  0.3379
   54MOL0     C 7335   5.316   3.087  -0.927 -0.6313 -0.8830  0.6699
   54MOL0     C 7336   5.413   3.053  -1.037 -0.3489  0.4251  0.1951
   54MOL0     C 7337   5.436   3.162  -1.136  0.4676 -0.2026  0.0719
   54MOL0     O 7338   5.463   3.281  -1.068 -0.8369 -0.3414 -1.0931
   54MOL0     C 7339   5.569   3.307  -0.978  1.3468 -0.2780  0.2463
   54MOL0     C 7340   5.550   3.420  -0.893 -0.4240  0.1486  0.4357
   54MOL0     C 7341   5.649   3.450  -0.803 -0.4702  0.4071  0.9377
   54MOL0     C 7342   5.623   3.572  -0.724 -0.2239 -0.5875  0.1135
   54MOL0     C 7343   5.761   3.370  -0.795 -0.0726 -0.2932  0.2034
   54MOL0     C 7344   5.870   3.396  -0.700  0.1909  0.2163 -0.8171
   54MOL0     O 7345   5.927   3.280  -0.654  0.0628  0.0558 -0.0652
   54MOL0     C 7346   6.034   3.294  -0.575 -0.9014 -1.4490  0.2798
   54MOL0     C 7347   6.159   3.267  -0.637 -0.1271 -0.1900 -0.2311
   54MOL0     C 7348   6.275   3.268  -0.562 -0.4727 -0.1888 -0.0592
   54MOL0     C 7349   6.286   3.326  -0.432  0.1372  0.7131 -0.1578
   54MOL0     O 7350   6.405   3.326  -0.366  0.3491 -0.6388  0.0720
   54MOL0     C 7351   6.420   3.421  -0.257 -1.5770 -0.0816 -0.0887
   54MOL0     C 7352   6.567   3.439  -0.214  0.9473 -0.3954 -0.4055
   54MOL0     C 7353   6.646   3.499  -0.331 -0.3633  0.5314 -0.0179
   54MOL0     C 7354   6.794   3.509  -0.285  0.5435 -1.5480  0.4005
   54MOL0     C 7355   6.863   3.372  -0.278 -0.2873  0.0178  0.7251
   54MOL0     C 7356   6.988   3.389  -0.185 -0.0838  0.8325 -0.5126
   54MOL0     C 7357   7.056   3.258  -0.197  0.2644  0.1379 -0.0937
   54MOL0     C 7358   7.150   3.241  -0.075  0.5678 -0.6265  0.3187
   54MOL0    Cl 7359   7.246   3.385  -0.039  0.0995 -0.2155  0.0733
   54MOL0     C 7360   6.164   3.365  -0.370 -0.0158 -0.5633 -0.0601
   54MOL0     C 7361   6.038   3.335  -0.444 -0.5294  0.3665  0.2341
   54MOL0     O 7362   5.907   3.515  -0.675 -0.0626  0.4305  0.1789
   54MOL0     C 7363   5.781   3.267  -0.887  0.4414  0.2837 -0.4823
   54MOL0     C 7364   5.685   3.233  -0.982  0.9729  0.4268 -0.3641
   54MOL0     N 7365   5.016   3.101  -0.766 -0.8422 -0.2586 -0.3952
   54MOL0     N 7366   4.972   3.177  -0.671  0.1962  0.4606  0.3736
   54MOL0     C 7367   5.969   3.471   0.024 -1.2747  0.0101 -0.8451
   54MOL0     C 7368   6.071   3.525   0.114  0.3392  0.5452 -0.5316
   54MOL0     C 7369   6.442   3.695   0.267 -0.0951 -0.0197  0.3545
   54MOL0     C 7370   6.402   3.758   0.393  0.1778 -0.1487 -0.6492
   54MOL0     C 7371   6.480   3.779   0.505  0.0055 -0.0041 -0.8534
   54MOL0     C 7372   6.610   3.728   0.498  0.0609 -0.1487 -0.5497
   54MOL0     O 7373   6.701   3.720   0.601 -0.2559 -0.4978 -0.4506
   54MOL0     C 7374   6.705   3.816   0.712 -0.3719  0.1060  0.1297
   54MOL0     C 7375   6.647   3.752   0.834  0.0746  1.0084 -0.3425
   54MOL0     C 7376   6.722   3.796   0.968  0.2838 -0.2351  0.0962
   54MOL0     C 7377   6.695   3.712   1.085  0.2870  0.1699  0.2328
   54MOL0     C 7378   6.745   3.785   1.203 -0.1540  0.5282  0.1576
   54MOL0     C 7379   6.793   3.845   1.297 -1.0390 -0.4060  0.9891
   54MOL0     C 7380   6.659   3.678   0.377  0.0642  0.9378 -0.0695
   54MOL0     C 7381   6.580   3.654   0.263 -0.0343  0.4240 -0.7215
   54MOL0     C 7382   6.650   3.567   0.152  0.4903  0.0319 -0.2152
   54MOL0     H 7383   6.099   3.829  -0.030  0.5622 -0.3177  0.8139
   54MOL0     H 7384   5.958   3.733  -0.188  1.6721  1.3863  0.9212
   54MOL0     H 7385   5.737   3.356  -0.068 -1.8084 -1.6946 -0.7863
   54MOL0     H 7386   5.859   3.306  -0.183 -2.4470 -2.3869 -1.8485
   54MOL0     H 7387   5.723   3.371  -0.365  2.2272  0.2087  1.5425
   54MOL0     H 7388   5.636   3.264  -0.243 -0.4686 -0.0158  1.3933
   54MOL0     H 7389   5.529   3.455  -0.148  0.2466  2.0515  0.8388
   54MOL0     H 7390   5.587   3.566  -0.277  0.3937 -0.7438 -1.1377
   54MOL0     H 7391   5.471   3.460  -0.454 -1.5323 -1.7808 -0.9679
   54MOL0     H 7392   5.440   3.307  -0.368 -2.7681 -0.3953  1.4924
   54MOL0     H 7393   5.312   3.556  -0.251  1.6052 -0.1861 -1.0189
   54MOL0     H 7394   5.281   3.385  -0.225 -1.1913  0.4643  0.4851
   54MOL0     H 7395   5.105   3.521  -0.366 -1.0351 -0.9113 -0.8832
   54MOL0     H 7396   5.231   3.558  -0.482  0.4593  0.3224 -0.1845
   54MOL0     H 7397   5.150   3.277  -0.428  4.2594 -0.0377  1.2807
   54MOL0     H 7398   5.246   3.335  -0.563 -1.5721  0.2625 -1.9680
   54MOL0     H 7399   4.935   3.394  -0.533  0.5551  0.4991  0.1109
   54MOL0     H 7400   5.040   3.495  -0.629  0.2672 -1.1492 -2.7738
   54MOL0     H 7401   5.147   3.385  -0.850  0.5475  0.8400  0.5613
   54MOL0     H 7402   5.186   3.200  -1.051  1.7142 -1.6007 -0.9625
   54MOL0     H 7403   5.126   3.040  -1.023  1.4977 -0.8377  0.5705
   54MOL0     H 7404   5.359   3.170  -0.869 -1.3358 -0.5729  0.7617
   54MOL0     H 7405   5.319   3.008  -0.851  2.3503  0.1425  1.7698
   54MOL0     H 7406   5.511   3.035  -0.992  0.2855  1.7250 -0.5919
   54MOL0     H 7407   5.385   2.955  -1.078  3.6311 -2.2998  3.2373
   54MOL0     H 7408   5.513   3.124  -1.204 -0.7046 -2.2662 -0.1975
   54MOL0     H 7409   5.344   3.173  -1.194 -0.2961  0.0678  1.2898
   54MOL0     H 7410   5.456   3.475  -0.900 -1.3154 -1.4729 -0.8878
   54MOL0     H 7411   5.585   3.549  -0.623 -1.0099 -2.3852 -0.5388
   54MOL0     H 7412   5.539   3.624  -0.771  0.0295 -1.0697 -0.9111
   54MOL0     H 7413   5.706   3.643  -0.728  0.6902 -1.5928 -4.4438
   54MOL0     H 7414   6.157   3.245  -0.743  1.7888  2.7686 -0.9944
   54MOL0     H 7415   6.371   3.244  -0.608  2.1991  0.4698  4.5306
   54MOL0     H 7416   6.366   3.514  -0.277 -0.9137  0.8282  2.0701
   54MOL0     H 7417   6.376   3.374  -0.169 -1.0142  0.5110  0.5279
   54MOL0     H 7418   6.566   3.510  -0.131 -1.9203  0.1665 -0.7983
   54MOL0     H 7419   6.600   3.338  -0.186  1.3184  0.1432  1.1692
   54MOL0     H 7420   6.612   3.602  -0.349 -1.3942  0.3452  0.7702
   54MOL0     H 7421   6.628   3.439  -0.421 -1.8372 -0.7667  1.0942
   54MOL0     H 7422   6.789   3.559  -0.188  0.3054 -0.1547 -0.3041
   54MOL0     H 7423   6.857   3.574  -0.346 -2.3613 -0.4151 -1.6032
   54MOL0     H 7424   6.785   3.308  -0.234 -2.8764  2.3362 -0.2160
   54MOL0     H 7425   6.890   3.340  -0.379 -2.1846 -1.4503  0.6202
   54MOL0     H 7426   6.955   3.405  -0.081  2.8019 -3.7310  1.4223
   54MOL0     H 7427   7.056   3.468  -0.218  0.8979 -0.3177 -1.2813
   54MOL0     H 7428   7.116   3.245  -0.288 -1.1392  2.1202 -1.3846
   54MOL0     H 7429   6.984   3.176  -0.188 -1.6508  2.0115  4.2391
   54MOL0     H 7430   7.207   3.148  -0.077  1.5362 -0.0339 -0.2970
   54MOL0     H 7431   7.081   3.228   0.009  2.5955 -2.0523  1.8772
   54MOL0     H 7432   6.159   3.394  -0.265 -0.2348 -1.3397  0.1546
   54MOL0     H 7433   5.949   3.370  -0.394 -1.0833 -0.0329 -0.4556
   54MOL0     H 7434   5.880   3.223  -0.896  0.6522  0.8695 -1.0798
   54MOL0     H 7435   5.704   3.160  -1.060  3.0225 -0.2804  0.6972
   54MOL0     H 7436   5.938   3.367   0.037  0.0348 -0.4297 -1.1502
   54MOL0     H 7437   6.100   3.452   0.188 -4.2190 -2.4714 -1.3295
   54MOL0     H 7438   6.300   3.786   0.418 -0.8376 -2.4707 -1.8357
   54MOL0     H 7439   6.446   3.826   0.597 -2.1516 -1.0124 -1.0706
   54MOL0     H 7440   6.812   3.833   0.728 -0.4468 -0.0690  0.8540
   54MOL0     H 7441   6.655   3.911   0.692 -1.0801 -0.5438 -1.3205
   54MOL0     H 7442   6.664   3.645   0.815 -1.5961  0.8928 -1.3517
   54MOL0     H 7443   6.539   3.764   0.824 -0.0595 -0.2190 -0.5767
   54MOL0     H 7444   6.829   3.819   0.961  0.1727  2.3116  3.6818
   54MOL0     H 7445   6.683   3.894   0.996 -1.2300 -1.0947  1.1354
   54MOL0     H 7446   6.748   3.618   1.071 -0.8449 -0.2135 -1.8837
   54MOL0     H 7447   6.587   3.712   1.103  0.1198 -0.4510 -0.6866
   54MOL0     H 7448   6.837   3.902   1.377  0.1376  1.0436 -0.6072
   54MOL0     H 7449   6.762   3.644   0.376 -0.4034 -0.5597  0.9164
   54MOL0     H 7450   6.610   3.465   0.156 -5.3151  1.8935 -0.6889
   54MOL0     H 7451   6.628   3.608   0.053  0.1354  0.3942  0.0087
   54MOL0     H 7452   6.756   3.576   0.176  0.3078  1.6481  0.1531
   55MOL0     O 7453   5.210   3.209  11.423 -0.1553 -0.5115  0.5835
   55MOL0     C 7454   5.193   3.149  11.529  0.4186  0.7653  0.2853
   55MOL0     O 7455   5.291   3.079  11.603 -0.8597 -0.1832 -0.3552
   55MOL0     C 7456   5.421   3.073  11.568  0.5876  0.8126 -0.0862
   55MOL0     C 7457   5.453   3.041  11.434  0.1433 -0.0015  0.5776
   55MOL0     C 7458   5.596   3.051  11.406 -0.1885  0.0695  0.0874
   55MOL0     C 7459   5.692   3.082  11.503  0.1700  0.3656 -0.1695
   55MOL0     O 7460   5.822   3.094  11.460  0.5707  0.8656 -0.2219
   55MOL0     C 7461   5.934   3.078  11.548 -0.6100 -0.3125  0.4347
   55MOL0     C 7462   6.053   3.085  11.452  0.6302 -0.4242 -0.1473
   55MOL0     C 7463   6.187   3.091  11.530  0.2464  0.6795 -0.4197
   55MOL0     C 7464   6.317   3.094  11.451  0.1597  0.9919 -0.9094
   55MOL0     C 7465   6.440   3.075  11.545  0.2760 -0.1154  0.6468
   55MOL0     C 7466   6.570   3.035  11.472 -0.5607 -0.7341  0.2822
   55MOL0     C 7467   6.686   2.999  11.576 -0.2573  0.5411 -0.4597
   55MOL0     C 7468   6.785   2.898  11.523 -0.2580  1.0460  1.1957
   55MOL0     N 7469   6.887   2.876  11.628  0.3975 -0.3001 -0.4393
   55MOL0     C 7470   6.876   2.800  11.749 -0.0015 -0.1041  1.1355
   55MOL0     C 7471   6.987   2.826  11.817  0.0277  0.4028  0.8419
   55MOL0     C 7472   7.010   2.752  11.941  0.1001  0.3571 -0.5674
   55MOL0     C 7473   6.918   2.787  12.068 -0.2641  0.0962 -0.4053
   55MOL0     C 7474   6.922   2.933  12.111 -0.2257 -0.9698  0.4474
   55MOL0     C 7475   7.029   2.956  12.214 -0.3975 -0.4486  0.1130
   55MOL0     O 7476   7.050   3.096  12.246 -0.1478 -0.5351  0.7347
   55MOL0     C 7477   7.143   3.168  12.173 -0.2929  0.8358  0.1700
   55MOL0     C 7478   7.195   3.128  12.052 -0.1884 -0.8868 -0.1891
   55MOL0     C 7479   7.286   3.204  11.981 -0.3925  0.0029  0.0569
   55MOL0     C 7480   7.348   3.149  11.854 -0.2648 -0.3894  0.0275
   55MOL0     C 7481   7.324   3.330  12.043 -0.1832 -0.2749  0.5913
   55MOL0     C 7482   7.418   3.425  11.981 -0.8936  0.8213  0.2174
   55MOL0     O 7483   7.436   3.425  11.845 -0.3290  0.0871 -0.2637
   55MOL0     C 7484   7.548   3.493  11.797  0.5149 -0.4257 -0.6094
   55MOL0     C 7485   7.673   3.446  11.825  0.7648 -0.5402 -0.2728
   55MOL0     C 7486   7.787   3.505  11.768  0.3311 -0.8790  0.1332
   55MOL0     C 7487   7.774   3.624  11.700 -0.5578  0.5407  0.2488
   55MOL0     O 7488   7.877   3.697  11.653  0.2319 -0.8163 -0.1198
   55MOL0     C 7489   8.000   3.706  11.734  0.4869  0.3715 -0.0761
   55MOL0     C 7490   8.137   3.694  11.652  0.6922  0.6976 -1.1619
   55MOL0     C 7491   8.127   3.618  11.524 -0.5830  0.0242 -0.3799
   55MOL0     C 7492   8.262   3.605  11.456  0.6188  0.3754 -0.1905
   55MOL0     C 7493   8.363   3.526  11.532 -0.1610 -0.8059 -0.0823
   55MOL0     C 7494   8.482   3.500  11.451 -0.8200  0.2055  0.2708
   55MOL0     C 7495   8.602   3.440  11.533 -0.9825  0.1563  0.1946
   55MOL0     C 7496   8.701   3.356  11.451 -0.1387  0.5261  1.1420
   55MOL0    Cl 7497   8.793   3.457  11.333  0.2608 -0.0956 -0.0162
   55MOL0     C 7498   7.642   3.681  11.686 -0.5867  1.1868  0.0930
   55MOL0     C 7499   7.526   3.611  11.727 -0.0785 -0.1260 -0.5487
   55MOL0     O 7500   7.486   3.499  12.059 -0.8502 -0.0471 -0.5336
   55MOL0     C 7501   7.258   3.379  12.157  0.4678  0.2807 -0.2545
   55MOL0     C 7502   7.176   3.287  12.224  0.7260 -0.0756  0.2913
   55MOL0     N 7503   7.066   2.919  11.758 -0.1017  0.2452  0.7396
   55MOL0     N 7504   7.000   2.945  11.650  0.4339 -1.2384 -0.1030
   55MOL0     C 7505   5.650   3.104  11.633 -0.0984  0.2430 -0.2349
   55MOL0     C 7506   5.516   3.098  11.659  0.0899 -0.8141  0.1315
   55MOL0     C 7507   5.068   3.166  11.604 -0.5641  0.5745  0.1763
   55MOL0     C 7508   5.068   3.198  11.736  0.1928  0.1824  0.8795
   55MOL0     C 7509   4.949   3.211  11.808 -0.7180 -0.0088  0.2636
   55MOL0     C 7510   4.826   3.195  11.749  0.3252 -0.7378  0.0908
   55MOL0     O 7511   4.712   3.214  11.827 -1.0551  0.6421  0.3354
   55MOL0     C 7512   4.578   3.193  11.761 -0.0172  0.2038 -0.1760
   55MOL0     C 7513   4.537   3.043  11.774 -1.5337 -0.1388  0.2823
   55MOL0     C 7514   4.509   2.984  11.912 -0.8738  0.3052 -0.1527
   55MOL0     C 7515   4.430   3.066  12.014  0.6512 -0.9025 -0.1261
   55MOL0     C 7516   4.290   3.092  11.969  0.1303 -0.2517 -0.2988
   55MOL0     C 7517   4.180   3.132  11.930 -0.7942 -0.1490 -0.3464
   55MOL0     C 7518   4.829   3.162  11.617  0.4972 -0.3351 -0.3091
   55MOL0     C 7519   4.943   3.146  11.542  0.2671 -0.4329  0.1846
   55MOL0     C 7520   4.922   3.105  11.395 -0.1610  0.2090 -0.9462
   55MOL0     H 7521   5.384   3.023  11.352 -0.5481 -1.5237  1.4665
   55MOL0     H 7522   5.632   3.026  11.306 -0.5836  5.2432 -1.6495
   55MOL0     H 7523   5.934   2.987  11.609 -1.0261 -0.5476  0.0896
   55MOL0     H 7524   5.941   3.153  11.627  2.0517 -0.9546  0.9067
   55MOL0     H 7525   6.049   2.991  11.396 -2.3139 -0.1114 -0.6367
   55MOL0     H 7526   6.039   3.171  11.386 -0.8695  0.6859  1.5229
   55MOL0     H 7527   6.186   3.179  11.595 -0.6547 -0.5893  1.3809
   55MOL0     H 7528   6.192   3.006  11.599 -2.4380  1.0331  0.3127
   55MOL0     H 7529   6.325   3.016  11.376  1.5938 -0.9357  1.0993
   55MOL0     H 7530   6.322   3.191  11.401 -3.9782  1.5763 -0.5387
   55MOL0     H 7531   6.414   3.002  11.622  0.2032 -0.1136  0.6244
   55MOL0     H 7532   6.445   3.164  11.608 -1.0123 -0.6969  1.6012
   55MOL0     H 7533   6.550   2.952  11.404  1.0766 -0.1263 -0.9933
   55MOL0     H 7534   6.605   3.122  11.417  1.5804 -0.4091  1.9996
   55MOL0     H 7535   6.644   2.972  11.673 -2.4004  2.7125 -0.6686
   55MOL0     H 7536   6.737   3.093  11.597 -2.0294  1.6086 -0.7217
   55MOL0     H 7537   6.731   2.805  11.502 -0.2343  1.6315 -1.9048
   55MOL0     H 7538   6.832   2.931  11.430  0.9553 -1.0253  1.0076
   55MOL0     H 7539   6.792   2.733  11.761  2.7773 -5.0927 -3.1441
   55MOL0     H 7540   7.112   2.760  11.978  0.6268  0.8917 -2.0864
   55MOL0     H 7541   6.994   2.643  11.942  2.4242 -0.0359  0.3235
   55MOL0     H 7542   6.817   2.759  12.037 -0.7899 -0.4355  1.6066
   55MOL0     H 7543   6.935   2.723  12.155  1.6580 -1.9963 -2.1904
   55MOL0     H 7544   6.935   2.994  12.021 -2.2416 -1.1341 -0.0013
   55MOL0     H 7545   6.822   2.966  12.142 -0.0223 -0.2257  0.3287
   55MOL0     H 7546   6.990   2.913  12.307 -3.3623  2.3035  0.3243
   55MOL0     H 7547   7.123   2.908  12.187  0.6595  0.7583  1.4908
   55MOL0     H 7548   7.159   3.035  12.009  1.2118 -2.4465  1.8041
   55MOL0     H 7549   7.457   3.157  11.847 -0.0960 -0.8379  1.7419
   55MOL0     H 7550   7.305   3.211  11.775  0.0393  1.7451  1.4616
   55MOL0     H 7551   7.333   3.044  11.825  1.5831 -0.3388 -1.3212
   55MOL0     H 7552   7.689   3.362  11.891  3.7823  0.7060  0.7339
   55MOL0     H 7553   7.887   3.468  11.788  1.1279  1.9091  1.7727
   55MOL0     H 7554   8.011   3.804  11.781  0.9159  1.6415 -2.6069
   55MOL0     H 7555   8.003   3.630  11.812 -1.6995  1.0779  0.7843
   55MOL0     H 7556   8.165   3.799  11.640 -0.0250  0.7906 -2.1846
   55MOL0     H 7557   8.212   3.649  11.718 -2.2709  0.1367  2.1290
   55MOL0     H 7558   8.056   3.651  11.448  0.5852 -3.5906 -3.3303
   55MOL0     H 7559   8.097   3.516  11.551 -0.4301  0.1753  0.3790
   55MOL0     H 7560   8.294   3.705  11.427  0.9928 -0.1605 -1.7410
   55MOL0     H 7561   8.239   3.543  11.369 -0.2138 -0.3546  0.5365
   55MOL0     H 7562   8.393   3.575  11.625  1.7051 -2.9487  0.5290
   55MOL0     H 7563   8.319   3.434  11.572 -1.7044 -0.2848 -0.4809
   55MOL0     H 7564   8.522   3.584  11.393 -2.6899 -0.9613 -2.9342
   55MOL0     H 7565   8.446   3.420  11.385  1.0492 -1.0244  0.6890
   55MOL0     H 7566   8.562   3.375  11.610 -0.5286 -1.1285 -0.6298
   55MOL0     H 7567   8.655   3.526  11.576 -0.4229  0.1050 -0.3838
   55MOL0     H 7568   8.657   3.278  11.387  3.3285  1.1818 -2.4201
   55MOL0     H 7569   8.766   3.305  11.522 -1.1344 -1.7756  0.4891
   55MOL0     H 7570   7.639   3.768  11.620 -1.2298 -0.1732 -1.7568
   55MOL0     H 7571   7.422   3.642  11.730 -1.1375 -3.3136  1.1166
   55MOL0     H 7572   7.254   3.480  12.195 -0.8075 -0.4508  1.6745
   55MOL0     H 7573   7.133   3.328  12.315  1.0065  2.4364 -0.6430
   55MOL0     H 7574   5.711   3.107  11.723 -0.2780 -1.4523 -0.0240
   55MOL0     H 7575   5.484   3.127  11.759 -2.8065 -0.4422 -0.8033
   55MOL0     H 7576   5.157   3.218  11.794 -1.3882  1.1393  3.1222
   55MOL0     H 7577   4.971   3.234  11.912  0.8921  0.3878 -0.1384
   55MOL0     H 7578   4.505   3.248  11.822  0.4467  0.7115 -0.0642
   55MOL0     H 7579   4.581   3.233  11.660 -2.0484 -0.7453 -0.6695
   55MOL0     H 7580   4.613   2.986  11.720 -1.9568  1.2575 -1.8866
   55MOL0     H 7581   4.448   3.025  11.714 -3.5654  1.0429  2.7479
   55MOL0     H 7582   4.473   2.881  11.906  0.8609 -0.2810 -1.2981
   55MOL0     H 7583   4.610   2.961  11.947 -0.5208  0.9081 -0.7475
   55MOL0     H 7584   4.494   3.150  12.042  2.2207 -1.4796 -1.7678
   55MOL0     H 7585   4.424   2.997  12.099  2.6473 -1.5233 -0.4333
   55MOL0     H 7586   4.081   3.163  11.902  0.1380  1.8452 -1.6644
   55MOL0     H 7587   4.742   3.160  11.553 -0.4076  0.4006  0.8632
   55MOL0     H 7588   4.907   3.189  11.326 -0.5076  0.5437 -0.4691
   55MOL0     H 7589   5.003   3.043  11.357 -2.1364 -1.5473 -2.5639
   55MOL0     H 7590   4.834   3.041  11.384  0.7405 -1.1501 -0.3863
   56MOL0     O 7591   9.062   1.415   0.094  0.1036  0.1445 -0.5170
   56MOL0     C 7592   9.097   1.466   0.198 -0.3363 -0.6602 -1.2541
   56MOL0     O 7593   9.171   1.585   0.210  0.4253  0.3899 -0.0466
   56MOL0     C 7594   9.206   1.638   0.091  0.0236 -1.3929 -0.2027
   56MOL0     C 7595   9.122   1.726   0.033 -0.9818 -0.5452  0.5208
   56MOL0     C 7596   9.144   1.762  -0.101 -0.2252  0.2188 -0.1996
   56MOL0     C 7597   9.260   1.732  -0.166 -1.1597  0.7561  0.3135
   56MOL0     O 7598   9.298   1.777  -0.291  0.5496  0.1039  0.7271
   56MOL0     C 7599   9.225   1.879  -0.352  0.7344 -0.5740  0.6266
   56MOL0     C 7600   9.258   1.877  -0.505 -0.4572  0.1467  0.1582
   56MOL0     C 7601   9.178   1.991  -0.585  0.6431  0.4074  0.1116
   56MOL0     C 7602   9.232   2.135  -0.550  0.5553 -0.0889 -1.1496
   56MOL0     C 7603   9.163   2.241  -0.634  0.0285  0.6493  0.6606
   56MOL0     C 7604   9.250   2.272  -0.759  0.1895 -1.1888  0.2140
   56MOL0     C 7605   9.196   2.354  -0.876  0.4698 -0.2808 -1.2223
   56MOL0     C 7606   9.181   2.503  -0.841  0.4719 -0.2266  0.5781
   56MOL0     N 7607   9.307   2.577  -0.841 -0.4398 -0.0085 -0.2341
   56MOL0     C 7608   9.398   2.592  -0.748 -1.0098 -0.1504 -0.0915
   56MOL0     C 7609   9.503   2.664  -0.808  0.4313 -0.9609  1.0107
   56MOL0     C 7610   9.631   2.707  -0.743  0.1565 -0.1762 -0.0202
   56MOL0     C 7611   9.754   2.625  -0.790 -0.1766 -0.2954  0.7812
   56MOL0     C 7612   9.731   2.482  -0.737  0.4461 -0.3926  0.3050
   56MOL0     C 7613   9.852   2.407  -0.767 -0.1888  1.3689  0.1518
   56MOL0     O 7614   9.842   2.275  -0.707 -0.1563  0.2752  0.2994
   56MOL0     C 7615   9.938   2.183  -0.729 -0.2562  0.2893  0.6815
   56MOL0     C 7616   9.908   2.057  -0.682  0.2069  0.4377  0.4026
   56MOL0     C 7617   9.998   1.958  -0.677  0.1001 -0.0102 -0.2196
   56MOL0     C 7618   9.963   1.830  -0.610 -0.6399 -0.0845  0.8030
   56MOL0     C 7619  10.127   1.976  -0.746 -0.1061  0.2595  0.0148
   56MOL0     C 7620  10.235   1.873  -0.738 -0.1370 -0.6337 -1.0089
   56MOL0     O 7621  10.364   1.925  -0.769  0.6100 -0.2546 -0.2569
   56MOL0     C 7622  10.465   1.836  -0.766 -0.0210  0.5139 -0.4322
   56MOL0     C 7623  10.509   1.777  -0.650  0.5985  0.3107 -0.0715
   56MOL0     C 7624  10.625   1.696  -0.656  0.0881  0.8303  0.2710
   56MOL0     C 7625  10.682   1.678  -0.779  0.7306  0.3090  0.0915
   56MOL0     O 7626  10.795   1.594  -0.778  0.4667  0.3331  0.0609
   56MOL0     C 7627  10.886   1.592  -0.888 -0.0115  0.2846  0.1163
   56MOL0     C 7628  11.011   1.511  -0.835 -0.1621 -0.5177 -0.6555
   56MOL0     C 7629  11.067   1.587  -0.716 -0.6495 -0.4002  0.7146
   56MOL0     C 7630  11.200   1.528  -0.672 -0.1913  0.2253  1.0413
   56MOL0     C 7631  11.320   1.568  -0.768  0.5121 -0.0784 -0.2297
   56MOL0     C 7632  11.340   1.721  -0.784  0.7104 -0.9672 -0.3663
   56MOL0     C 7633  11.467   1.776  -0.865  0.0204  0.1737 -0.4568
   56MOL0     C 7634  11.599   1.762  -0.789 -0.2267  0.3315  0.0765
   56MOL0    Cl 7635  11.642   1.881  -0.661  0.1551  0.5578 -0.0828
   56MOL0     C 7636  10.647   1.748  -0.888 -0.1331 -0.0211  0.6199
   56MOL0     C 7637  10.529   1.819  -0.887 -0.6159 -0.3679 -0.7407
   56MOL0     O 7638  10.215   1.760  -0.700 -0.2969 -0.1088 -0.2416
   56MOL0     C 7639  10.151   2.102  -0.809  0.3959 -0.0921  0.4476
   56MOL0     C 7640  10.057   2.208  -0.800 -0.7399  0.0830  0.6146
   56MOL0     N 7641   9.466   2.693  -0.933 -0.2048  0.6243 -0.4606
   56MOL0     N 7642   9.351   2.646  -0.957  0.8651  0.8469 -0.3873
   56MOL0     C 7643   9.349   1.649  -0.094 -0.0072 -0.1449  0.7097
   56MOL0     C 7644   9.322   1.600   0.032 -0.2843 -1.4448  0.0308
   56MOL0     C 7645   9.056   1.406   0.325 -0.1033  0.2581  0.4398
   56MOL0     C 7646   9.119   1.450   0.436  0.0445  0.0471 -0.1931
   56MOL0     C 7647   9.064   1.425   0.564  0.2511  0.1867  0.3945
   56MOL0     C 7648   8.957   1.342   0.582 -0.0216  0.7847  0.1097
   56MOL0     O 7649   8.906   1.321   0.708  0.1687  0.0818 -0.2974
   56MOL0     C 7650   8.948   1.189   0.764  0.6193 -0.6117 -0.3471
   56MOL0     C 7651   8.860   1.149   0.886  0.9250 -0.5369 -0.4618
   56MOL0     C 7652   8.717   1.113   0.832 -0.1523  0.3537  0.1258
   56MOL0     C 7653   8.624   1.070   0.947 -0.1262  0.4579  0.2986
   56MOL0     C 7654   8.670   0.930   0.970  0.5664 -0.3318  0.6628
   56MOL0     C 7655   8.711   0.825   0.985 -0.2515  0.9790 -0.0757
   56MOL0     C 7656   8.899   1.283   0.474 -0.3492 -0.5960 -0.0982
   56MOL0     C 7657   8.946   1.313   0.344  0.9758 -0.0654 -0.8850
   56MOL0     C 7658   8.874   1.242   0.242  0.6763 -0.6485  0.7353
   56MOL0     H 7659   9.031   1.756   0.084 -2.2289 -0.1188 -1.8337
   56MOL0     H 7660   9.073   1.830  -0.147 -0.4714  0.8681  1.0847
   56MOL0     H 7661   9.229   1.978  -0.306 -3.0029  1.2484 -2.4152
   56MOL0     H 7662   9.119   1.852  -0.356  0.4206  0.6953 -3.1480
   56MOL0     H 7663   9.365   1.896  -0.517 -0.6003 -0.7616 -4.1270
   56MOL0     H 7664   9.222   1.779  -0.540 -2.3342  1.1509 -0.8892
   56MOL0     H 7665   9.199   1.984  -0.692  2.3416  0.7659  0.4006
   56MOL0     H 7666   9.070   1.978  -0.574  0.9941 -0.6237  3.5926
   56MOL0     H 7667   9.223   2.146  -0.441  0.5551 -1.4212 -1.0042
   56MOL0     H 7668   9.341   2.139  -0.556  0.6582 -0.6671 -0.0315
   56MOL0     H 7669   9.134   2.327  -0.573 -1.3580  0.8687 -0.2555
   56MOL0     H 7670   9.066   2.214  -0.676  0.2539  3.4103 -2.0489
   56MOL0     H 7671   9.345   2.309  -0.718 -0.9905 -1.9433  4.1015
   56MOL0     H 7672   9.279   2.181  -0.812  1.7488  0.1954 -1.4641
   56MOL0     H 7673   9.098   2.314  -0.902  1.2201 -2.4348 -0.9155
   56MOL0     H 7674   9.268   2.340  -0.957  1.3978 -0.6546 -0.3554
   56MOL0     H 7675   9.109   2.546  -0.912  2.0956 -0.6161 -1.3829
   56MOL0     H 7676   9.132   2.509  -0.744  1.0624 -1.2177  0.9558
   56MOL0     H 7677   9.409   2.571  -0.642  1.8775  2.5352  0.3010
   56MOL0     H 7678   9.621   2.723  -0.636 -1.7498  1.5856 -0.3754
   56MOL0     H 7679   9.628   2.810  -0.781  1.3681  0.2724  1.0500
   56MOL0     H 7680   9.770   2.627  -0.898  3.5328 -0.2978  1.2351
   56MOL0     H 7681   9.847   2.663  -0.748 -0.8578  0.4111  1.7229
   56MOL0     H 7682   9.717   2.482  -0.628 -0.4521  1.9598  0.2514
   56MOL0     H 7683   9.643   2.435  -0.782  0.4405 -0.9023  0.8245
   56MOL0     H 7684   9.876   2.395  -0.873 -1.4404 -0.4847  0.0397
   56MOL0     H 7685   9.941   2.459  -0.729  0.6144  1.0734 -1.2403
   56MOL0     H 7686   9.813   2.037  -0.633 -0.5349 -0.8118 -1.4058
   56MOL0     H 7687  10.012   1.829  -0.512  2.0429  0.9086 -0.4347
   56MOL0     H 7688  10.004   1.744  -0.664  2.2206  2.1514 -0.8919
   56MOL0     H 7689   9.854   1.826  -0.604 -0.7347 -0.6956 -0.8278
   56MOL0     H 7690  10.457   1.797  -0.557 -1.5548  1.1468 -1.3670
   56MOL0     H 7691  10.663   1.653  -0.564  1.2768 -0.1825 -0.6732
   56MOL0     H 7692  10.833   1.530  -0.960 -0.2378 -1.4006  1.6750
   56MOL0     H 7693  10.911   1.694  -0.920 -2.3221  0.4748 -1.3406
   56MOL0     H 7694  10.978   1.412  -0.805 -0.3330 -0.0997  0.5879
   56MOL0     H 7695  11.079   1.496  -0.919 -0.5411 -3.2955 -0.5580
   56MOL0     H 7696  11.000   1.604  -0.632 -0.6128 -0.1527  0.6939
   56MOL0     H 7697  11.094   1.691  -0.735  3.9754 -1.1488  2.0425
   56MOL0     H 7698  11.198   1.418  -0.676  4.7105 -0.0463  0.8661
   56MOL0     H 7699  11.227   1.547  -0.568  0.7931 -0.4531  0.9202
   56MOL0     H 7700  11.414   1.528  -0.727  0.7622  0.1033 -0.6165
   56MOL0     H 7701  11.299   1.536  -0.871  0.9706  1.5539 -0.8638
   56MOL0     H 7702  11.347   1.746  -0.677  0.6619 -1.8148 -0.1626
   56MOL0     H 7703  11.254   1.773  -0.829  1.1409  0.5209  0.4442
   56MOL0     H 7704  11.454   1.878  -0.902  1.0159  1.1282  1.6128
   56MOL0     H 7705  11.488   1.716  -0.954  1.0796 -0.4078  0.1593
   56MOL0     H 7706  11.678   1.751  -0.864  0.4099 -1.3181  0.9343
   56MOL0     H 7707  11.596   1.664  -0.740  0.9695 -0.7675 -1.9222
   56MOL0     H 7708  10.702   1.736  -0.982 -0.5193  2.7774 -0.0460
   56MOL0     H 7709  10.487   1.859  -0.979  0.7302 -0.7161 -1.5416
   56MOL0     H 7710  10.249   2.128  -0.849  1.0510 -1.6368  0.9504
   56MOL0     H 7711  10.097   2.299  -0.844  0.3506 -1.8286 -2.7490
   56MOL0     H 7712   9.441   1.612  -0.137  0.7143  0.5716  1.6077
   56MOL0     H 7713   9.367   1.520   0.090 -1.5653 -0.6725  2.2095
   56MOL0     H 7714   9.216   1.500   0.434  1.8281 -3.0548  1.6550
   56MOL0     H 7715   9.107   1.460   0.657 -0.7001  0.5052  0.7189
   56MOL0     H 7716   8.959   1.102   0.698  0.7793  0.4920 -1.8256
   56MOL0     H 7717   9.047   1.219   0.801  0.5745 -0.3891 -0.4058
   56MOL0     H 7718   8.845   1.236   0.950 -1.4735 -1.6892  0.6979
   56MOL0     H 7719   8.910   1.065   0.936 -0.0496  1.2162  3.8511
   56MOL0     H 7720   8.680   1.203   0.783  1.7920  0.4982 -1.2102
   56MOL0     H 7721   8.729   1.034   0.756  5.2596  1.6217 -0.7954
   56MOL0     H 7722   8.520   1.065   0.913 -0.1057 -0.3333  0.3310
   56MOL0     H 7723   8.631   1.134   1.035 -5.1080  1.7712  0.0527
   56MOL0     H 7724   8.740   0.722   0.994 -0.8698  0.7548 -0.5618
   56MOL0     H 7725   8.810   1.223   0.487  0.1628 -1.2623  0.4523
   56MOL0     H 7726   8.940   1.182   0.178 -0.3789 -0.2421 -0.7867
   56MOL0     H 7727   8.793   1.174   0.269 -0.4810 -0.7901 -2.6512
   56MOL0     H 7728   8.821   1.312   0.177  2.8495 -0.8337 -1.3906
   57MOL0     O 7729   9.719   6.665  10.473 -0.2876  0.0739 -0.6461
   57MOL0     C 7730   9.632   6.580  10.455  0.3294  0.2348 -0.4840
   57MOL0     O 7731   9.640   6.438  10.477  0.3220  0.1167  0.8389
   57MOL0     C 7732   9.742   6.379  10.553  0.6544 -0.6823  0.4517
   57MOL0     C 7733   9.883   6.411  10.538  0.0101  0.6305 -0.1961
   57MOL0     C 7734   9.989   6.355  10.602  0.5060 -0.2311  0.3773
   57MOL0     C 7735   9.960   6.260  10.694  0.4221  0.5566 -0.5020
   57MOL0     O 7736  10.048   6.181  10.773  0.1204  0.0429  0.5269
   57MOL0     C 7737  10.194   6.203  10.751  0.3241  0.0339 -0.3399
   57MOL0     C 7738  10.268   6.186  10.880 -0.1696  0.1109 -0.5550
   57MOL0     C 7739  10.277   6.032  10.911 -0.3121 -0.1681  0.9665
   57MOL0     C 7740  10.398   5.995  10.990 -0.2398  0.5393  0.6295
   57MOL0     C 7741  10.401   5.849  11.019  0.1156 -0.2142  0.3850
   57MOL0     C 7742  10.532   5.801  11.093 -0.8271 -0.2920  0.2156
   57MOL0     C 7743  10.500   5.645  11.103 -0.5048 -0.0996 -0.5695
   57MOL0     C 7744  10.600   5.563  11.193 -0.5391 -0.4128 -0.1320
   57MOL0     N 7745  10.732   5.554  11.136  0.0593  0.5547 -0.0096
   57MOL0     C 7746  10.843   5.629  11.164 -0.2310 -0.3214 -0.6022
   57MOL0     C 7747  10.934   5.598  11.072  1.4455 -0.4873 -0.1379
   57MOL0     C 7748  11.063   5.667  11.047 -1.1761 -0.3542  0.0387
   57MOL0     C 7749  11.173   5.577  11.000  0.0082  0.7023  0.9264
   57MOL0     C 7750  11.223   5.492  11.112  1.4262 -0.8564  0.3293
   57MOL0     C 7751  11.313   5.387  11.048  0.6518 -0.4884 -0.5895
   57MOL0     O 7752  11.358   5.301  11.150  0.6944  0.5640 -0.2960
   57MOL0     C 7753  11.462   5.211  11.112 -0.0759 -0.0349  0.5016
   57MOL0     C 7754  11.486   5.111  11.190  0.7956  0.3018 -0.2187
   57MOL0     C 7755  11.574   5.010  11.157  0.2608  0.2293 -0.0997
   57MOL0     C 7756  11.580   4.886  11.241  0.1020  0.8871  0.0688
   57MOL0     C 7757  11.652   5.015  11.042  0.2590  0.2528 -0.1257
   57MOL0     C 7758  11.760   4.919  10.997 -0.0481  0.1024  0.0151
   57MOL0     O 7759  11.781   4.911  10.865  0.2271  0.7144 -0.2196
   57MOL0     C 7760  11.897   4.854  10.811  0.3050  0.4582  0.1277
   57MOL0     C 7761  11.866   4.788  10.690 -0.8238 -0.8964 -0.0975
   57MOL0     C 7762  11.965   4.708  10.634  0.4277 -0.1582  0.0753
   57MOL0     C 7763  12.096   4.707  10.689  0.4380  0.4036  0.2579
   57MOL0     O 7764  12.189   4.626  10.618  0.0840 -0.5139  0.3288
   57MOL0     C 7765  12.331   4.647  10.640 -0.9759  0.7432 -0.3553
   57MOL0     C 7766  12.407   4.520  10.609  0.5474 -0.4905 -0.0457
   57MOL0     C 7767  12.554   4.543  10.620  0.2810  0.3504  0.3013
   57MOL0     C 7768  12.627   4.457  10.527  0.3716 -0.8256 -0.3675
   57MOL0     C 7769  12.779   4.433  10.559  0.4963  0.3621 -0.3589
   57MOL0     C 7770  12.830   4.307  10.481 -0.1361  0.1168  0.0851
   57MOL0     C 7771  12.984   4.318  10.474  1.4159  0.2279  0.8032
   57MOL0     C 7772  13.039   4.170  10.471 -0.1120  0.8293  1.8893
   57MOL0    Cl 7773  13.007   4.083  10.318 -0.3534 -0.5007  0.0983
   57MOL0     C 7774  12.127   4.781  10.801  0.1922 -0.1697  0.4422
   57MOL0     C 7775  12.023   4.847  10.867 -0.1616  0.3175 -0.0085
   57MOL0     O 7776  11.818   4.853  11.082 -0.8050  0.4722  0.5303
   57MOL0     C 7777  11.634   5.129  10.965 -0.4971 -0.6671 -0.0730
   57MOL0     C 7778  11.536   5.227  10.996 -0.0416  0.2081  0.7310
   57MOL0     N 7779  10.877   5.494  10.998 -0.1233  0.0075  0.8009
   57MOL0     N 7780  10.759   5.471  11.044 -0.0224  0.5249 -0.2906
   57MOL0     C 7781   9.822   6.228  10.721  0.3152  0.3479 -0.1209
   57MOL0     C 7782   9.713   6.286  10.652  0.5543  0.6662 -0.5279
   57MOL0     C 7783   9.508   6.615  10.382 -0.0931 -0.0537 -0.6426
   57MOL0     C 7784   9.455   6.521  10.298  0.1315  0.0652 -0.3311
   57MOL0     C 7785   9.359   6.553  10.203  0.4450 -0.1692 -0.0538
   57MOL0     C 7786   9.297   6.679  10.215  0.7540 -0.0513  0.3516
   57MOL0     O 7787   9.175   6.713  10.165 -0.1254  0.3115  0.1479
   57MOL0     C 7788   9.163   6.678  10.030 -0.1368  0.0379  0.6214
   57MOL0     C 7789   9.028   6.714   9.970  0.0314  0.1732  0.6991
   57MOL0     C 7790   9.007   6.865   9.982  0.0953  0.7411 -0.3460
   57MOL0     C 7791   9.109   6.959   9.907  0.4614  0.4607 -0.5019
   57MOL0     C 7792   9.150   6.912   9.776 -0.1878  1.0906 -0.1391
   57MOL0     C 7793   9.194   6.873   9.667 -0.0755  0.1675 -0.1413
   57MOL0     C 7794   9.346   6.780  10.299 -0.0898 -0.2263  0.4913
   57MOL0     C 7795   9.457   6.749  10.378  0.6528 -0.2489 -0.6226
   57MOL0     C 7796   9.490   6.839  10.492 -0.7479  0.1917 -0.7556
   57MOL0     H 7797   9.905   6.490  10.467 -1.6424  0.5857 -0.7998
   57MOL0     H 7798  10.084   6.403  10.583  0.2166 -1.2082 -5.4527
   57MOL0     H 7799  10.204   6.307  10.720 -0.5900  1.2228  2.9466
   57MOL0     H 7800  10.248   6.146  10.675  1.6904 -0.1087  0.6963
   57MOL0     H 7801  10.370   6.224  10.872 -0.6952  1.5318 -0.8558
   57MOL0     H 7802  10.211   6.241  10.955  3.3302 -1.1511  3.3875
   57MOL0     H 7803  10.190   5.988  10.962 -0.3811 -1.0218  0.1411
   57MOL0     H 7804  10.293   5.985  10.814  4.6525  1.5059  0.6976
   57MOL0     H 7805  10.494   6.012  10.941  0.7304 -2.0581  1.4367
   57MOL0     H 7806  10.405   6.058  11.079  2.7331  1.9856 -0.4924
   57MOL0     H 7807  10.406   5.807  10.918 -2.0189  4.0893 -1.7750
   57MOL0     H 7808  10.312   5.812  11.070  0.0393 -2.1517 -1.0497
   57MOL0     H 7809  10.621   5.832  11.038 -0.2515  0.5795  1.5786
   57MOL0     H 7810  10.532   5.853  11.189 -1.2234 -3.9462  2.3975
   57MOL0     H 7811  10.495   5.605  11.002  0.5607  1.0018 -1.0758
   57MOL0     H 7812  10.400   5.632  11.146 -1.0659 -2.0420 -2.2899
   57MOL0     H 7813  10.608   5.600  11.295 -1.4286 -1.5811  0.3925
   57MOL0     H 7814  10.567   5.459  11.207  2.9489 -1.4610  1.3302
   57MOL0     H 7815  10.857   5.706  11.240  2.7591 -0.7387 -0.6098
   57MOL0     H 7816  11.093   5.714  11.142  2.0470 -0.2301 -0.9247
   57MOL0     H 7817  11.054   5.749  10.976  0.6959 -0.7951 -0.7535
   57MOL0     H 7818  11.126   5.520  10.919 -1.6977  1.9799  0.9648
   57MOL0     H 7819  11.248   5.632  10.943 -0.5343  0.4150 -0.1054
   57MOL0     H 7820  11.276   5.555  11.184  1.3509 -0.7578  0.2982
   57MOL0     H 7821  11.137   5.437  11.151  0.1259 -0.4600 -1.8340
   57MOL0     H 7822  11.261   5.323  10.976 -1.3483  1.5324 -1.0758
   57MOL0     H 7823  11.390   5.444  10.996  2.5056 -0.6436  1.8366
   57MOL0     H 7824  11.411   5.089  11.266 -1.9510 -0.5247 -2.9347
   57MOL0     H 7825  11.486   4.875  11.295 -0.4804 -3.1402 -1.4327
   57MOL0     H 7826  11.670   4.883  11.303  0.8303  2.7201 -0.8203
   57MOL0     H 7827  11.573   4.796  11.179 -0.9204  1.2656 -0.3885
   57MOL0     H 7828  11.769   4.802  10.642 -0.2957  4.4798 -0.2623
   57MOL0     H 7829  11.946   4.669  10.534  0.3796 -0.1522  0.0819
   57MOL0     H 7830  12.367   4.730  10.579  0.3185 -0.4116 -1.2294
   57MOL0     H 7831  12.350   4.685  10.741 -3.0394 -1.1113  0.8083
   57MOL0     H 7832  12.373   4.434  10.668  0.1851  0.3846  1.0562
   57MOL0     H 7833  12.374   4.505  10.506  1.1627  0.3610 -0.3811
   57MOL0     H 7834  12.577   4.519  10.724 -1.5942  0.0277  0.6723
   57MOL0     H 7835  12.583   4.648  10.609  0.9815  0.1506  0.1771
   57MOL0     H 7836  12.604   4.481  10.423 -0.5085 -2.3014 -0.5485
   57MOL0     H 7837  12.579   4.359  10.538 -0.5970 -0.6115 -2.2180
   57MOL0     H 7838  12.831   4.518  10.514  0.2260  1.8629  1.9914
   57MOL0     H 7839  12.790   4.426  10.668 -1.1637  1.7176 -0.0623
   57MOL0     H 7840  12.784   4.308  10.382  2.1888  0.4133 -1.0500
   57MOL0     H 7841  12.795   4.221  10.539 -1.3497  1.0574  0.8089
   57MOL0     H 7842  13.020   4.370  10.563  1.7836  4.1287 -1.3924
   57MOL0     H 7843  13.021   4.363  10.381 -1.1753 -2.7327 -1.9244
   57MOL0     H 7844  13.007   4.105  10.553 -3.9352  0.3736  0.2180
   57MOL0     H 7845  13.148   4.173  10.466 -0.1499  0.4126 -1.6286
   57MOL0     H 7846  12.225   4.790  10.847  1.4476 -0.3931 -2.0019
   57MOL0     H 7847  12.034   4.890  10.966  0.7684  1.6012 -0.6476
   57MOL0     H 7848  11.705   5.154  10.887  2.4878  2.4072  3.2930
   57MOL0     H 7849  11.529   5.306  10.922 -1.5806  0.5213  1.1651
   57MOL0     H 7850   9.792   6.154  10.794 -0.9045  0.4822 -0.4704
   57MOL0     H 7851   9.611   6.255  10.672  1.2392 -2.0245 -0.8310
   57MOL0     H 7852   9.491   6.420  10.285 -0.2548  0.1539 -2.4630
   57MOL0     H 7853   9.331   6.484  10.124  0.3293  0.9289 -0.9945
   57MOL0     H 7854   9.238   6.733   9.972 -2.8668  5.0380  1.1999
   57MOL0     H 7855   9.162   6.572  10.007 -0.8649  0.6041 -2.3933
   57MOL0     H 7856   8.945   6.671  10.025  0.8288  0.5141  2.2314
   57MOL0     H 7857   9.020   6.686   9.865 -1.6720  2.0742  0.2697
   57MOL0     H 7858   8.918   6.898   9.927 -0.0039  3.4797  1.2745
   57MOL0     H 7859   8.987   6.892  10.086 -1.2400 -2.8498  0.4629
   57MOL0     H 7860   9.198   6.976   9.970  0.8719  0.6727 -1.1299
   57MOL0     H 7861   9.053   7.052   9.900  3.0600  2.2722  0.8756
   57MOL0     H 7862   9.224   6.838   9.570 -1.7254 -1.6485 -0.0716
   57MOL0     H 7863   9.295   6.876  10.294 -0.2115 -0.2858  0.6002
   57MOL0     H 7864   9.482   6.797  10.592  1.7697  0.3857 -0.4162
   57MOL0     H 7865   9.593   6.873  10.478 -0.2742 -0.6033  0.6338
   57MOL0     H 7866   9.417   6.920  10.495 -0.3237  0.5971 -1.1939
   58MOL0     O 7867  10.603  10.302   0.523  0.1517  0.2096  0.2548
   58MOL0     C 7868  10.674  10.280   0.422  0.3584  0.7355  0.0584
   58MOL0     O 7869  10.803  10.239   0.419  0.4160  0.3495  0.2399
   58MOL0     C 7870  10.842  10.157   0.523 -0.6414  0.0918 -0.2510
   58MOL0     C 7871  10.947  10.199   0.603 -1.4340  0.2587  0.6958
   58MOL0     C 7872  10.996  10.117   0.711 -0.2598  0.4607  0.1080
   58MOL0     C 7873  10.935   9.991   0.739 -1.1709  0.0273  0.2587
   58MOL0     O 7874  10.985   9.912   0.837 -0.3012  0.0364 -0.4534
   58MOL0     C 7875  11.027   9.782   0.796  0.2123 -0.1183  0.1621
   58MOL0     C 7876  11.143   9.743   0.876  0.2249  0.0995  0.0242
   58MOL0     C 7877  11.157   9.591   0.858 -0.0898  0.3096 -0.0900
   58MOL0     C 7878  11.285   9.543   0.927 -0.1526 -0.1536  0.3397
   58MOL0     C 7879  11.284   9.393   0.960 -0.1374  0.3966  0.3022
   58MOL0     C 7880  11.327   9.295   0.846  0.5898 -0.8110 -0.4326
   58MOL0     C 7881  11.365   9.157   0.894  0.5329 -0.0023  0.9285
   58MOL0     C 7882  11.397   9.057   0.781 -0.8762  0.6766  0.3668
   58MOL0     N 7883  11.279   8.989   0.718 -0.2381  0.3077  0.2634
   58MOL0     C 7884  11.200   9.035   0.617  0.2640  0.7702  0.6218
   58MOL0     C 7885  11.105   8.941   0.592  0.2473 -0.3291 -0.5333
   58MOL0     C 7886  10.998   8.956   0.486  0.3196  0.0335 -0.3152
   58MOL0     C 7887  10.894   8.842   0.487 -0.4592 -0.0925 -0.4182
   58MOL0     C 7888  10.789   8.862   0.381  0.1803  0.1172  0.0223
   58MOL0     C 7889  10.679   8.748   0.378  0.3224  0.7127 -0.0869
   58MOL0     O 7890  10.745   8.620   0.361 -0.7766 -0.3625 -0.4562
   58MOL0     C 7891  10.667   8.513   0.388 -0.6419 -0.1093  0.3274
   58MOL0     C 7892  10.736   8.403   0.440 -0.8247 -0.3477  0.2698
   58MOL0     C 7893  10.672   8.283   0.480  0.1897 -0.0668  0.1520
   58MOL0     C 7894  10.757   8.166   0.528  0.2879 -0.6579 -0.5769
   58MOL0     C 7895  10.535   8.270   0.463 -0.8540 -0.3397  0.1236
   58MOL0     C 7896  10.454   8.144   0.499  0.7511  0.0737 -0.0824
   58MOL0     O 7897  10.322   8.134   0.439 -0.5754 -0.0040 -0.1868
   58MOL0     C 7898  10.247   8.026   0.459  0.0300  0.6648 -0.0358
   58MOL0     C 7899  10.138   8.028   0.540 -0.4319 -0.1253 -0.2180
   58MOL0     C 7900  10.064   7.911   0.564 -0.3534 -0.1747 -0.2820
   58MOL0     C 7901  10.091   7.791   0.494 -0.4064  0.0594  0.8906
   58MOL0     O 7902  10.007   7.682   0.497 -0.6889  0.2085 -0.3511
   58MOL0     C 7903   9.972   7.624   0.622  0.2140  0.2355 -0.6487
   58MOL0     C 7904  10.083   7.542   0.682  0.4505 -0.0768 -0.3323
   58MOL0     C 7905  10.119   7.429   0.587 -0.0361  0.0968  0.2040
   58MOL0     C 7906  10.193   7.307   0.640 -0.6542 -0.4865  0.2708
   58MOL0     C 7907  10.167   7.189   0.553  0.0504  1.5798  0.1995
   58MOL0     C 7908  10.046   7.108   0.608  1.2131  0.0182 -0.3878
   58MOL0     C 7909   9.985   7.000   0.530 -0.2427 -0.4749 -0.0361
   58MOL0     C 7910  10.088   6.896   0.485  0.6932 -0.7215  0.0905
   58MOL0    Cl 7911   9.997   6.784   0.379 -0.0714 -0.2644 -0.1600
   58MOL0     C 7912  10.198   7.788   0.409  0.1020  0.2345  0.4446
   58MOL0     C 7913  10.277   7.903   0.396  0.1032 -0.7331  0.4992
   58MOL0     O 7914  10.505   8.060   0.571 -0.0558 -0.4007 -0.2768
   58MOL0     C 7915  10.466   8.384   0.431 -0.3667 -0.8798 -0.7326
   58MOL0     C 7916  10.530   8.497   0.380 -0.2186  0.1381 -0.1604
   58MOL0     N 7917  11.130   8.835   0.679 -0.7735 -0.0834  0.2764
   58MOL0     N 7918  11.229   8.865   0.755 -0.3583  0.5325 -0.8274
   58MOL0     C 7919  10.835   9.949   0.654 -0.3822  0.4960 -1.3288
   58MOL0     C 7920  10.792  10.028   0.556 -0.1892 -0.1047  1.2099
   58MOL0     C 7921  10.610  10.324   0.291 -0.2295 -0.3130  0.4388
   58MOL0     C 7922  10.480  10.392   0.295 -0.6340 -0.0225 -0.4655
   58MOL0     C 7923  10.421  10.437   0.175  0.1047 -0.5496  0.0237
   58MOL0     C 7924  10.488  10.439   0.053 -0.1662  0.3164 -1.3481
   58MOL0     O 7925  10.435  10.490  -0.059  0.4891  0.1431 -0.2359
   58MOL0     C 7926  10.295  10.457  -0.064 -0.5073 -0.1707  0.6133
   58MOL0     C 7927  10.261  10.490  -0.220  1.1493  0.4268 -1.0463
   58MOL0     C 7928  10.127  10.439  -0.266  0.0651  0.0744 -0.0952
   58MOL0     C 7929  10.013  10.529  -0.221 -0.3964 -0.1463 -0.1011
   58MOL0     C 7930   9.882  10.489  -0.271  0.9071  0.3864 -0.1452
   58MOL0     C 7931   9.777  10.469  -0.332 -0.1818  0.0183  0.1660
   58MOL0     C 7932  10.614  10.381   0.048  0.3805  0.1203 -0.3485
   58MOL0     C 7933  10.673  10.315   0.161 -0.1987  0.0744 -0.1367
   58MOL0     C 7934  10.811  10.264   0.125 -0.8134 -0.5115  0.0472
   58MOL0     H 7935  10.995  10.295   0.587 -1.4820  0.1576 -0.1012
   58MOL0     H 7936  11.069  10.163   0.777  0.2548  0.5731 -0.5310
   58MOL0     H 7937  11.062   9.784   0.692 -1.8504  0.8899 -0.5742
   58MOL0     H 7938  10.957   9.701   0.816  1.5913 -1.3405  0.2604
   58MOL0     H 7939  11.234   9.789   0.837  0.2287  1.2701  1.3331
   58MOL0     H 7940  11.126   9.755   0.983 -0.3260 -1.9439  0.1925
   58MOL0     H 7941  11.070   9.534   0.891 -0.1611  1.3698  1.6430
   58MOL0     H 7942  11.174   9.572   0.751 -0.6667 -0.2098 -0.0911
   58MOL0     H 7943  11.367   9.574   0.862 -1.7940  0.0551 -1.7189
   58MOL0     H 7944  11.288   9.597   1.022 -0.6825  0.8770 -0.2201
   58MOL0     H 7945  11.187   9.358   0.997 -0.5204  2.4534  1.3408
   58MOL0     H 7946  11.342   9.387   1.053  1.5578 -0.4520 -0.7381
   58MOL0     H 7947  11.244   9.293   0.775  1.9748  1.9739 -2.3714
   58MOL0     H 7948  11.394   9.348   0.777 -1.6874  4.4344  0.8881
   58MOL0     H 7949  11.286   9.114   0.956  1.6718 -0.2879  2.2406
   58MOL0     H 7950  11.453   9.175   0.957  0.9412  2.4768 -0.2198
   58MOL0     H 7951  11.463   9.099   0.704  3.9108 -0.5523  3.3228
   58MOL0     H 7952  11.469   8.985   0.823  0.4285  1.0190 -1.1823
   58MOL0     H 7953  11.190   9.132   0.571 -1.6800  1.9197  3.2423
   58MOL0     H 7954  11.043   8.965   0.387  2.1986  3.7164  0.6821
   58MOL0     H 7955  10.943   9.046   0.516 -0.0091 -0.6251  1.1649
   58MOL0     H 7956  10.951   8.750   0.471 -0.0504  0.1465 -0.3600
   58MOL0     H 7957  10.849   8.830   0.587  2.1077 -0.8349  0.7357
   58MOL0     H 7958  10.743   8.960   0.398 -1.7624 -0.9320  1.1530
   58MOL0     H 7959  10.828   8.867   0.279 -0.2369  0.5732 -0.1171
   58MOL0     H 7960  10.627   8.756   0.474 -0.0392 -1.5749 -0.0300
   58MOL0     H 7961  10.605   8.768   0.300 -1.3161 -0.9339  0.9675
   58MOL0     H 7962  10.843   8.410   0.455 -1.1972 -0.5257  3.9290
   58MOL0     H 7963  10.858   8.208   0.523 -0.2377  0.5563 -2.0041
   58MOL0     H 7964  10.737   8.077   0.468 -0.1082  0.1181 -1.6227
   58MOL0     H 7965  10.736   8.134   0.630  0.3866  0.9635 -0.0228
   58MOL0     H 7966  10.112   8.121   0.589 -0.0940 -0.7249  1.1376
   58MOL0     H 7967   9.977   7.924   0.628 -1.2472 -0.7240 -1.3457
   58MOL0     H 7968   9.953   7.707   0.691  4.7568 -0.3090  1.6820
   58MOL0     H 7969   9.882   7.569   0.596 -0.1313  1.7140 -2.8218
   58MOL0     H 7970  10.167   7.607   0.709  0.2185 -0.1535  0.6313
   58MOL0     H 7971  10.051   7.500   0.778  1.8587  4.1132  2.2642
   58MOL0     H 7972  10.168   7.477   0.501  0.7442  1.0236  1.1417
   58MOL0     H 7973  10.028   7.385   0.545  1.8519 -2.8352 -1.1745
   58MOL0     H 7974  10.157   7.284   0.741 -0.6016 -0.5618  0.2725
   58MOL0     H 7975  10.300   7.331   0.639 -0.4412 -1.3400  0.9191
   58MOL0     H 7976  10.147   7.215   0.449  0.9606  1.8545  0.0806
   58MOL0     H 7977  10.259   7.129   0.558 -0.7167  0.3907  0.3476
   58MOL0     H 7978   9.969   7.185   0.615 -1.9622 -2.3998 -4.3653
   58MOL0     H 7979  10.067   7.073   0.710 -3.2225 -2.1473  0.0071
   58MOL0     H 7980   9.925   7.037   0.446  0.8727  0.7692 -0.3327
   58MOL0     H 7981   9.907   6.958   0.593  0.0382  1.1645  1.4810
   58MOL0     H 7982  10.139   6.857   0.574  1.5063  0.7547  0.3132
   58MOL0     H 7983  10.159   6.944   0.417  1.2245  0.6771  1.5632
   58MOL0     H 7984  10.208   7.700   0.347 -0.8707  1.2025 -1.1546
   58MOL0     H 7985  10.365   7.907   0.332  1.7885 -0.4548  2.7402
   58MOL0     H 7986  10.358   8.384   0.439 -0.2876 -1.2231  0.4389
   58MOL0     H 7987  10.471   8.584   0.352 -0.7020 -0.8123 -2.2370
   58MOL0     H 7988  10.788   9.856   0.685  0.5232  1.2608  2.8812
   58MOL0     H 7989  10.717  10.005   0.481 -0.0775 -0.5211  1.2192
   58MOL0     H 7990  10.415  10.387   0.382  1.4817 -1.0530  1.1398
   58MOL0     H 7991  10.328  10.489   0.197 -0.2586 -1.9919  2.1980
   58MOL0     H 7992  10.270  10.354  -0.036  0.1790  0.1518  2.5949
   58MOL0     H 7993  10.234  10.523  -0.001 -2.6535 -0.2150 -1.2768
   58MOL0     H 7994  10.329  10.448  -0.295  1.6168 -2.1259  0.6832
   58MOL0     H 7995  10.251  10.599  -0.221 -0.0464  0.4215  1.7388
   58MOL0     H 7996  10.125  10.420  -0.374  1.3952  0.1308 -0.1420
   58MOL0     H 7997  10.108  10.337  -0.232  0.6122 -0.8560 -2.3454
   58MOL0     H 7998  10.040  10.631  -0.249  0.7073 -0.2468  0.5243
   58MOL0     H 7999  10.004  10.537  -0.112  0.3925 -0.9097  0.0345
   58MOL0     H 8000   9.677  10.462  -0.370  0.9285  2.0769 -3.6857
   58MOL0     H 8001  10.669  10.388  -0.045 -0.9024  2.4889 -1.0060
   58MOL0     H 8002  10.838  10.178   0.186  1.2980 -0.7959 -1.1998
   58MOL0     H 8003  10.815  10.235   0.019 -0.4792  0.6014 -0.2585
   58MOL0     H 8004  10.891  10.332   0.152 -2.7271  1.9960 -0.1875
   59MOL0     O 8005   3.608   1.488   7.716 -0.1543 -0.0367 -0.3358
   59MOL0     C 8006   3.510   1.412   7.744 -0.9674 -0.4009 -0.0728
   59MOL0     O 8007   3.506   1.330   7.857  0.6047 -0.1863 -0.3984
   59MOL0     C 8008   3.600   1.329   7.955  0.5771 -0.7179 -0.8816
   59MOL0     C 8009   3.670   1.206   7.960  0.8648  0.6789 -0.0621
   59MOL0     C 8010   3.773   1.193   8.061 -0.1953  1.3225 -0.0228
   59MOL0     C 8011   3.805   1.300   8.148  0.4870  0.2792  0.6393
   59MOL0     O 8012   3.898   1.279   8.241 -0.1975 -0.3539 -0.7510
   59MOL0     C 8013   3.900   1.356   8.362  0.2409 -0.9850 -0.1134
   59MOL0     C 8014   4.039   1.332   8.423  0.9431 -0.6362 -0.5343
   59MOL0     C 8015   4.070   1.412   8.548 -0.3777 -0.4817 -0.5977
   59MOL0     C 8016   4.218   1.412   8.568 -0.3684  0.4086 -0.6422
   59MOL0     C 8017   4.250   1.491   8.700 -0.3359  0.6391 -0.3011
   59MOL0     C 8018   4.398   1.508   8.698  0.1930  0.1880  0.3113
   59MOL0     C 8019   4.457   1.601   8.798 -0.1843 -0.3922  0.1102
   59MOL0     C 8020   4.602   1.640   8.761 -0.0078 -0.9146  0.5699
   59MOL0     N 8021   4.699   1.565   8.847  0.1669  0.0268  0.2533
   59MOL0     C 8022   4.784   1.627   8.944 -0.1952  0.0839 -0.1819
   59MOL0     C 8023   4.854   1.523   8.992  0.0848 -0.1148 -0.2501
   59MOL0     C 8024   4.982   1.530   9.069 -0.1373  0.5912 -0.1989
   59MOL0     C 8025   5.108   1.523   8.975  0.5649 -0.5414  0.1746
   59MOL0     C 8026   5.234   1.506   9.057  0.0065  0.1877  0.6366
   59MOL0     C 8027   5.355   1.509   8.969 -0.2427  0.0699  0.7127
   59MOL0     O 8028   5.472   1.487   9.043 -0.5066 -0.4266  0.1443
   59MOL0     C 8029   5.599   1.497   8.981 -0.3412 -0.0797 -0.3327
   59MOL0     C 8030   5.717   1.507   9.051 -0.1716  0.4954  0.1624
   59MOL0     C 8031   5.846   1.506   8.990  0.0517 -1.0345 -0.1550
   59MOL0     C 8032   5.958   1.521   9.091 -0.6071  0.4034  1.7818
   59MOL0     C 8033   5.861   1.502   8.853 -0.1877  0.3148 -0.1455
   59MOL0     C 8034   5.997   1.474   8.784  0.7464  0.0896 -0.5526
   59MOL0     O 8035   6.098   1.422   8.853  0.0554  0.5881  0.7861
   59MOL0     C 8036   6.218   1.430   8.795  0.4709 -0.2215  0.7907
   59MOL0     C 8037   6.293   1.546   8.830  0.3047 -0.1653  0.6152
   59MOL0     C 8038   6.411   1.580   8.768 -0.6092  1.2316 -0.2976
   59MOL0     C 8039   6.471   1.496   8.682 -0.5900 -0.1533 -0.4278
   59MOL0     O 8040   6.589   1.515   8.618  1.0580  0.4292  0.1654
   59MOL0     C 8041   6.626   1.652   8.591  0.0568 -0.4184  0.5719
   59MOL0     C 8042   6.738   1.668   8.493 -0.5790  0.7429 -0.6032
   59MOL0     C 8043   6.737   1.816   8.449 -0.1168  0.0828  0.7073
   59MOL0     C 8044   6.855   1.842   8.353 -0.0124  0.1270  0.1053
   59MOL0     C 8045   6.879   1.996   8.331 -0.5140  0.2791  0.4247
   59MOL0     C 8046   7.022   2.023   8.263 -0.1933 -0.0216 -0.3068
   59MOL0     C 8047   7.049   2.176   8.237 -0.2454 -0.2758  0.5394
   59MOL0     C 8048   7.182   2.191   8.167 -0.8244  0.3175  0.0818
   59MOL0    Cl 8049   7.305   2.185   8.297 -0.1376  0.2210 -0.4027
   59MOL0     C 8050   6.408   1.374   8.648 -0.2376 -0.3053  0.5550
   59MOL0     C 8051   6.282   1.338   8.702  0.9670  1.0339  0.7481
   59MOL0     O 8052   5.988   1.499   8.664  0.1438  0.3238  0.3271
   59MOL0     C 8053   5.741   1.477   8.786 -0.7303  0.1349 -0.2289
   59MOL0     C 8054   5.615   1.485   8.845 -0.2417  0.3012  0.4839
   59MOL0     N 8055   4.801   1.404   8.942 -0.6822  0.0108  0.0095
   59MOL0     N 8056   4.705   1.432   8.858 -0.5257  1.0846 -0.3578
   59MOL0     C 8057   3.740   1.423   8.131  0.6851  0.5939 -0.1586
   59MOL0     C 8058   3.628   1.429   8.048 -0.1240 -0.3156 -0.6320
   59MOL0     C 8059   3.398   1.397   7.651 -0.3551 -0.9376 -0.5968
   59MOL0     C 8060   3.330   1.276   7.654 -0.8428  0.2899 -0.3744
   59MOL0     C 8061   3.215   1.260   7.577 -0.4233  0.2953 -1.0648
   59MOL0     C 8062   3.162   1.366   7.511 -0.2996 -0.5430  0.0526
   59MOL0     O 8063   3.047   1.337   7.446  0.2316  0.2346  0.1585
   59MOL0     C 8064   2.978   1.452   7.394  0.7084 -0.3567 -0.0324
   59MOL0     C 8065   2.910   1.545   7.504 -0.8818 -0.3470 -0.3144
   59MOL0     C 8066   2.815   1.644   7.435  0.3786  0.5482 -0.3596
   59MOL0     C 8067   2.883   1.768   7.407  0.4643 -0.0678 -0.2882
   59MOL0     C 8068   2.795   1.883   7.389 -0.3844 -0.2093 -0.6255
   59MOL0     C 8069   2.727   1.983   7.379  0.4111 -0.8835  0.0041
   59MOL0     C 8070   3.233   1.492   7.508 -0.2115  1.1727  0.7706
   59MOL0     C 8071   3.358   1.505   7.566  0.1985 -0.3953 -0.7939
   59MOL0     C 8072   3.444   1.626   7.538  0.1152 -0.6704 -0.8091
   59MOL0     H 8073   3.649   1.127   7.888 -2.2759 -0.0912  1.5479
   59MOL0     H 8074   3.814   1.096   8.085 -1.0412  1.3484  1.5799
   59MOL0     H 8075   3.819   1.325   8.428 -1.9744 -0.5055 -2.4474
   59MOL0     H 8076   3.881   1.463   8.346 -1.3971 -1.1441  0.5766
   59MOL0     H 8077   4.056   1.227   8.448 -2.3200 -0.6005  2.8588
   59MOL0     H 8078   4.108   1.364   8.345  0.4094  1.2469 -0.2999
   59MOL0     H 8079   4.037   1.515   8.536 -0.5913 -0.6879 -1.8074
   59MOL0     H 8080   4.024   1.368   8.638  2.0589 -0.3902  0.7984
   59MOL0     H 8081   4.243   1.307   8.584 -2.5500 -0.0490  0.1219
   59MOL0     H 8082   4.265   1.459   8.481  0.8349  1.4833  0.5368
   59MOL0     H 8083   4.214   1.447   8.793 -0.1466 -0.4830 -0.7437
   59MOL0     H 8084   4.223   1.596   8.689  0.6953  1.1541  1.5953
   59MOL0     H 8085   4.441   1.410   8.720 -1.4467 -0.4377  0.9142
   59MOL0     H 8086   4.409   1.537   8.593  0.4168  0.2852  0.3606
   59MOL0     H 8087   4.456   1.554   8.896  0.9833 -1.9065 -0.5768
   59MOL0     H 8088   4.405   1.698   8.803 -0.1764 -0.4244  0.9406
   59MOL0     H 8089   4.617   1.609   8.658 -1.9420  0.0647 -0.0546
   59MOL0     H 8090   4.613   1.748   8.777 -1.0724 -0.6474 -0.3406
   59MOL0     H 8091   4.785   1.729   8.980 -1.7945 -0.8105  2.7561
   59MOL0     H 8092   4.993   1.468   9.158  0.9442  0.5179 -0.3756
   59MOL0     H 8093   4.971   1.628   9.116 -1.0162 -0.2171  1.3755
   59MOL0     H 8094   5.101   1.436   8.909  0.7449  0.9578 -1.9182
   59MOL0     H 8095   5.110   1.618   8.920 -2.0105 -0.6991 -0.3030
   59MOL0     H 8096   5.242   1.585   9.133  5.2803  1.2952 -0.6605
   59MOL0     H 8097   5.233   1.407   9.104 -4.0743 -0.9069 -1.3372
   59MOL0     H 8098   5.348   1.426   8.897  0.4805 -0.9804  1.8298
   59MOL0     H 8099   5.357   1.606   8.918  0.8549  0.0908  0.7874
   59MOL0     H 8100   5.706   1.515   9.159  2.4058 -0.4548  0.5754
   59MOL0     H 8101   5.993   1.422   9.120  1.0167  0.7524  1.1208
   59MOL0     H 8102   5.922   1.586   9.172 -0.1184  3.4360 -0.2558
   59MOL0     H 8103   6.046   1.571   9.049 -0.3204 -1.2661  0.2800
   59MOL0     H 8104   6.253   1.603   8.914  1.3173  1.9888 -0.2881
   59MOL0     H 8105   6.465   1.665   8.809 -0.6677  0.9370  0.4131
   59MOL0     H 8106   6.535   1.707   8.564 -0.6751 -0.8283  2.0763
   59MOL0     H 8107   6.662   1.709   8.677  1.0924 -0.1125 -0.0526
   59MOL0     H 8108   6.835   1.643   8.537 -1.0664  0.8595  0.5572
   59MOL0     H 8109   6.715   1.615   8.400  0.0404 -0.4066 -0.1144
   59MOL0     H 8110   6.730   1.882   8.536 -1.3588  0.7322  0.1373
   59MOL0     H 8111   6.643   1.837   8.398 -0.8481 -1.5844  1.2771
   59MOL0     H 8112   6.855   1.789   8.257  0.3242  0.7640 -0.2573
   59MOL0     H 8113   6.949   1.816   8.403 -1.4303  3.3414  5.2150
   59MOL0     H 8114   6.803   2.041   8.266  0.7556 -0.4270 -1.6461
   59MOL0     H 8115   6.880   2.048   8.427  1.2394  1.8168 -0.3678
   59MOL0     H 8116   7.025   1.967   8.169  2.3582 -0.7668  0.1477
   59MOL0     H 8117   7.103   1.981   8.323  1.3796  0.8542 -1.7027
   59MOL0     H 8118   7.049   2.225   8.335 -1.3473 -1.0328  0.9424
   59MOL0     H 8119   6.970   2.219   8.174 -0.1645 -1.7555 -0.6241
   59MOL0     H 8120   7.186   2.290   8.121 -3.2139  1.2269  1.6333
   59MOL0     H 8121   7.193   2.109   8.095 -2.2247 -0.5662  0.8238
   59MOL0     H 8122   6.462   1.311   8.578 -0.7666 -0.4394  0.2719
   59MOL0     H 8123   6.239   1.244   8.671  2.3785  0.6552 -0.1721
   59MOL0     H 8124   5.734   1.449   8.682  0.4581  0.8986 -0.5330
   59MOL0     H 8125   5.530   1.470   8.779  0.5932 -2.9677 -0.0350
   59MOL0     H 8126   3.773   1.515   8.179 -0.6434  2.6114 -2.8330
   59MOL0     H 8127   3.563   1.516   8.039  0.0959 -0.2595 -1.7834
   59MOL0     H 8128   3.367   1.197   7.719  0.4561  0.1735 -1.2167
   59MOL0     H 8129   3.167   1.165   7.600  0.8453 -0.2799 -0.6862
   59MOL0     H 8130   3.039   1.512   7.326  0.0494 -0.8568 -1.0955
   59MOL0     H 8131   2.898   1.410   7.332  2.3011 -0.5564 -2.0596
   59MOL0     H 8132   2.988   1.590   7.565 -0.0756  0.5139 -1.9042
   59MOL0     H 8133   2.851   1.482   7.571  0.8354 -1.9287 -0.2361
   59MOL0     H 8134   2.784   1.597   7.341  0.3625  1.3072 -0.7368
   59MOL0     H 8135   2.725   1.662   7.495 -1.1586  0.1404 -2.4377
   59MOL0     H 8136   2.930   1.755   7.309  0.0636  1.4205 -0.7093
   59MOL0     H 8137   2.958   1.798   7.481  1.7950  0.8957 -1.9418
   59MOL0     H 8138   2.673   2.074   7.365  1.1440 -0.8784 -3.7646
   59MOL0     H 8139   3.207   1.571   7.438  2.9987  0.8180 -1.0243
   59MOL0     H 8140   3.391   1.685   7.462 -2.1953 -2.0616 -0.3666
   59MOL0     H 8141   3.455   1.686   7.629  1.8056 -2.2020  0.0306
   59MOL0     H 8142   3.545   1.601   7.505  0.3200 -0.0681 -0.6517
   60MOL0     O 8143   5.218   7.537   3.668  0.5934 -0.2096 -0.1004
   60MOL0     C 8144   5.105   7.586   3.674 -0.6742  0.2905  0.5800
   60MOL0     O 8145   5.065   7.674   3.764 -0.4274 -0.9358 -0.1114
   60MOL0     C 8146   5.147   7.768   3.806 -1.0074  0.0204 -0.9359
   60MOL0     C 8147   5.122   7.819   3.937  0.9003  0.4512  0.1322
   60MOL0     C 8148   5.190   7.928   3.982 -0.2052  0.9735  0.1330
   60MOL0     C 8149   5.287   7.995   3.908  0.1147  0.5408  0.3017
   60MOL0     O 8150   5.354   8.113   3.949  0.5351  0.7296  0.6143
   60MOL0     C 8151   5.274   8.210   4.019  0.4042  1.1157  0.2116
   60MOL0     C 8152   5.271   8.331   3.932  0.0989  0.1965  0.4183
   60MOL0     C 8153   5.141   8.416   3.950  0.4697  0.6620  0.2326
   60MOL0     C 8154   5.132   8.521   3.855  0.3517 -0.2948  0.0647
   60MOL0     C 8155   4.989   8.583   3.871 -0.9006  0.4079  0.6419
   60MOL0     C 8156   4.978   8.706   3.772  0.3530 -0.1611 -0.1858
   60MOL0     C 8157   4.839   8.781   3.790 -0.2559 -0.2819 -0.6742
   60MOL0     C 8158   4.814   8.847   3.933  0.3236  0.0702 -0.0468
   60MOL0     N 8159   4.929   8.909   3.987 -0.1455  0.3177 -0.1051
   60MOL0     C 8160   4.996   8.852   4.098 -0.0465  1.1874 -0.1861
   60MOL0     C 8161   5.100   8.932   4.126  0.0412  0.2524  0.0650
   60MOL0     C 8162   5.199   8.892   4.227  0.3813  0.6377  0.0287
   60MOL0     C 8163   5.303   8.803   4.162  1.2791  0.4174 -0.7039
   60MOL0     C 8164   5.391   8.861   4.053  0.3344  0.7775 -0.2323
   60MOL0     C 8165   5.498   8.764   3.997 -0.0756 -0.2692 -0.3267
   60MOL0     O 8166   5.600   8.740   4.089  0.5968  0.7481 -0.3342
   60MOL0     C 8167   5.724   8.689   4.052  0.2914  0.2453 -0.3428
   60MOL0     C 8168   5.828   8.719   4.135  0.5239 -0.6196  0.4335
   60MOL0     C 8169   5.961   8.681   4.107  0.5482 -0.1927 -0.5339
   60MOL0     C 8170   6.053   8.726   4.216 -0.1220  0.0772 -0.4191
   60MOL0     C 8171   5.985   8.581   4.008 -0.8328  0.1933 -0.4505
   60MOL0     C 8172   6.124   8.526   3.979 -1.2826 -1.2088 -0.4254
   60MOL0     O 8173   6.224   8.572   4.055 -0.1997 -0.4892  0.1332
   60MOL0     C 8174   6.353   8.525   4.037 -0.0528  0.7813 -0.1927
   60MOL0     C 8175   6.433   8.496   4.153 -0.4676  0.7234  0.0800
   60MOL0     C 8176   6.573   8.478   4.140 -0.4292 -0.5124 -0.5420
   60MOL0     C 8177   6.634   8.491   4.013 -0.1508  0.0414  1.3704
   60MOL0     O 8178   6.768   8.474   4.013  0.5236 -0.1209  0.4655
   60MOL0     C 8179   6.834   8.459   3.886  0.0600  0.2347 -0.5684
   60MOL0     C 8180   6.977   8.406   3.896 -0.8819 -0.3887  0.0372
   60MOL0     C 8181   7.076   8.501   3.969 -0.3997 -0.0784  0.2464
   60MOL0     C 8182   7.214   8.436   3.984 -0.8004  0.1623  0.0580
   60MOL0     C 8183   7.310   8.538   4.055  0.1790 -0.1742 -0.1570
   60MOL0     C 8184   7.346   8.655   3.967  0.5514  0.1233 -0.6020
   60MOL0     C 8185   7.437   8.745   4.043 -0.5476 -0.6179  0.2417
   60MOL0     C 8186   7.483   8.867   3.964 -0.8414  0.0145 -0.2652
   60MOL0    Cl 8187   7.586   8.969   4.063  0.8496  0.0234  0.5314
   60MOL0     C 8188   6.552   8.507   3.897  0.2155  0.3513  0.4381
   60MOL0     C 8189   6.418   8.529   3.911  0.1192  0.0116  0.1024
   60MOL0     O 8190   6.131   8.458   3.886  0.0762  0.3521  0.6402
   60MOL0     C 8191   5.879   8.551   3.921  0.1882  0.9729  0.5406
   60MOL0     C 8192   5.751   8.605   3.941 -0.8938  0.1687  0.3702
   60MOL0     N 8193   5.083   9.039   4.042  0.0460  0.3916  0.1551
   60MOL0     N 8194   4.988   9.025   3.956 -0.0670  0.3853 -0.1718
   60MOL0     C 8195   5.325   7.941   3.784  0.4531 -0.0683  0.4141
   60MOL0     C 8196   5.248   7.831   3.733 -0.3817 -0.9860  0.2157
   60MOL0     C 8197   5.008   7.556   3.560  0.1010 -0.2094 -0.6496
   60MOL0     C 8198   4.903   7.651   3.537 -0.0412 -0.3534  0.2443
   60MOL0     C 8199   4.810   7.643   3.426  0.1363  0.2893 -0.4875
   60MOL0     C 8200   4.830   7.538   3.345  0.3193 -0.5823  0.7074
   60MOL0     O 8201   4.775   7.553   3.221 -0.0384  1.0469 -0.7389
   60MOL0     C 8202   4.667   7.467   3.190  0.1872 -0.0290  0.3843
   60MOL0     C 8203   4.536   7.544   3.223  0.4564 -0.5431  0.2839
   60MOL0     C 8204   4.409   7.475   3.176 -0.9130  0.4674  0.4904
   60MOL0     C 8205   4.283   7.568   3.157 -0.3385  0.2313 -0.3104
   60MOL0     C 8206   4.167   7.494   3.141  0.6284  0.4215 -0.0945
   60MOL0     C 8207   4.075   7.417   3.130  0.4366  0.1717  0.2692
   60MOL0     C 8208   4.934   7.441   3.359 -0.0226 -0.1551 -0.3316
   60MOL0     C 8209   5.028   7.449   3.468  0.4397  0.3383 -0.0955
   60MOL0     C 8210   5.133   7.340   3.470  0.0922 -0.2270 -0.3370
   60MOL0     H 8211   5.044   7.773   3.997  0.8738  2.8104  2.0903
   60MOL0     H 8212   5.167   7.970   4.080  0.6949  2.7292 -0.3683
   60MOL0     H 8213   5.318   8.218   4.119 -0.8773 -0.1503  0.9245
   60MOL0     H 8214   5.172   8.172   4.031  1.6526 -2.5862  0.6411
   60MOL0     H 8215   5.361   8.390   3.951 -0.1577  1.0256 -0.8176
   60MOL0     H 8216   5.281   8.308   3.826 -1.4485 -0.6969  0.4300
   60MOL0     H 8217   5.057   8.346   3.945 -0.3195  1.6604 -1.2430
   60MOL0     H 8218   5.135   8.463   4.048 -1.1236 -1.8666  1.4538
   60MOL0     H 8219   5.217   8.588   3.869  1.5940 -1.6014 -0.8687
   60MOL0     H 8220   5.133   8.480   3.753 -5.3716  0.5847 -0.6843
   60MOL0     H 8221   4.972   8.604   3.977  0.1695  1.0188  0.7099
   60MOL0     H 8222   4.923   8.508   3.827 -2.6814  2.6366 -0.7075
   60MOL0     H 8223   5.051   8.783   3.795 -1.5310  0.6791  3.9143
   60MOL0     H 8224   4.976   8.660   3.673  0.3234 -2.5711  0.8530
   60MOL0     H 8225   4.754   8.713   3.776 -2.3729  1.7980  1.2735
   60MOL0     H 8226   4.831   8.858   3.713  0.1820  1.0379  0.5546
   60MOL0     H 8227   4.727   8.914   3.933 -2.7450 -3.5964 -0.0031
   60MOL0     H 8228   4.789   8.761   3.995 -0.0735  0.6055  0.5426
   60MOL0     H 8229   4.965   8.766   4.156 -0.3839  0.7708 -0.9549
   60MOL0     H 8230   5.151   8.853   4.317  1.0182  0.3526  0.2493
   60MOL0     H 8231   5.247   8.989   4.243  0.0514  0.6876  0.7574
   60MOL0     H 8232   5.364   8.769   4.247  2.2750  0.9042 -1.2037
   60MOL0     H 8233   5.242   8.720   4.127  1.2994  0.5886 -1.1523
   60MOL0     H 8234   5.329   8.906   3.974 -1.0851 -3.7189 -2.0249
   60MOL0     H 8235   5.457   8.942   4.082  1.8434 -0.1595 -0.9335
   60MOL0     H 8236   5.456   8.668   3.965  0.7347 -0.4877 -0.7708
   60MOL0     H 8237   5.544   8.807   3.907 -0.8613 -1.7507 -1.4831
   60MOL0     H 8238   5.803   8.779   4.222 -0.9347  2.2893 -1.8116
   60MOL0     H 8239   6.123   8.798   4.172 -1.5258  1.6448 -0.2319
   60MOL0     H 8240   6.102   8.634   4.248 -1.7131 -0.7230 -0.1994
   60MOL0     H 8241   6.001   8.770   4.301  2.6995  4.6015 -0.6886
   60MOL0     H 8242   6.388   8.492   4.251  0.7528  1.9347  0.7233
   60MOL0     H 8243   6.630   8.467   4.231  1.3410  0.0978 -1.5310
   60MOL0     H 8244   6.786   8.386   3.821  1.4770  0.9885 -2.5794
   60MOL0     H 8245   6.833   8.552   3.828  0.0757  1.7164  1.7049
   60MOL0     H 8246   6.971   8.309   3.946  2.1757 -0.5145  0.3562
   60MOL0     H 8247   7.021   8.387   3.798  2.0028 -0.1195  1.1606
   60MOL0     H 8248   7.045   8.526   4.071  0.5905 -0.1639  0.5818
   60MOL0     H 8249   7.071   8.592   3.910  0.1260  1.2150  2.1205
   60MOL0     H 8250   7.249   8.403   3.885 -0.6032  2.3525 -0.6487
   60MOL0     H 8251   7.200   8.350   4.050  0.3572  1.1289  1.6165
   60MOL0     H 8252   7.263   8.580   4.145  0.9678  0.4484 -0.0193
   60MOL0     H 8253   7.394   8.481   4.096 -1.9769 -1.6801  2.5119
   60MOL0     H 8254   7.267   8.724   3.939 -1.5199 -0.2806  3.4764
   60MOL0     H 8255   7.393   8.635   3.871  1.4348  0.2934 -0.2173
   60MOL0     H 8256   7.530   8.689   4.058 -1.6778 -2.9067 -0.7617
   60MOL0     H 8257   7.394   8.771   4.140 -2.2850 -0.3294 -0.5672
   60MOL0     H 8258   7.403   8.931   3.926 -0.9146 -0.0530 -0.2247
   60MOL0     H 8259   7.539   8.835   3.876  1.6388 -0.9375  1.5611
   60MOL0     H 8260   6.599   8.513   3.799 -0.3098  1.0531  0.2228
   60MOL0     H 8261   6.361   8.543   3.819 -1.6888  0.6047  1.2528
   60MOL0     H 8262   5.885   8.481   3.838  0.2574  0.1049  1.2524
   60MOL0     H 8263   5.670   8.596   3.869  1.0111 -0.6040 -1.7775
   60MOL0     H 8264   5.408   7.995   3.741  0.6097 -0.5473  0.1152
   60MOL0     H 8265   5.269   7.793   3.634 -0.5881 -2.7796  0.8207
   60MOL0     H 8266   4.898   7.739   3.599  0.2006 -1.3938  1.7979
   60MOL0     H 8267   4.742   7.726   3.420 -0.3029 -0.0116  0.2075
   60MOL0     H 8268   4.672   7.450   3.082 -0.2632  1.9295  0.0214
   60MOL0     H 8269   4.663   7.370   3.241 -1.1710  1.2188  2.8065
   60MOL0     H 8270   4.543   7.636   3.164 -0.4506 -1.9097 -2.1069
   60MOL0     H 8271   4.538   7.567   3.330 -0.6980  3.6383 -0.4102
   60MOL0     H 8272   4.419   7.424   3.080 -1.1399 -0.9720  1.2110
   60MOL0     H 8273   4.384   7.408   3.259 -0.3738  1.3489  1.3877
   60MOL0     H 8274   4.300   7.620   3.063 -2.7725 -2.5973 -2.5058
   60MOL0     H 8275   4.267   7.634   3.242 -0.5399 -1.2453  0.8436
   60MOL0     H 8276   3.988   7.354   3.133 -0.5729  1.4865  3.0551
   60MOL0     H 8277   4.935   7.365   3.282 -1.2578 -0.2832 -0.2275
   60MOL0     H 8278   5.232   7.386   3.459  0.0622 -0.1394 -0.2471
   60MOL0     H 8279   5.131   7.293   3.569  0.8651  2.3553  0.9941
   60MOL0     H 8280   5.115   7.271   3.388  1.0307  1.4696 -2.0467
   61MOL0     O 8281   3.662  11.168   9.733  0.0570  0.5643  0.3228
   61MOL0     C 8282   3.591  11.198   9.638 -1.0820  0.6717 -0.8715
   61MOL0     O 8283   3.610  11.300   9.556  0.4698 -0.1633 -0.8394
   61MOL0     C 8284   3.724  11.373   9.573 -0.7905 -0.4667 -0.3694
   61MOL0     C 8285   3.762  11.435   9.695  0.6473 -0.1863 -0.4161
   61MOL0     C 8286   3.875  11.514   9.706  0.4103  0.6788 -1.0528
   61MOL0     C 8287   3.961  11.532   9.595  0.0238  0.2993 -0.2741
   61MOL0     O 8288   4.060  11.620   9.604 -1.0013  0.1015  0.1287
   61MOL0     C 8289   4.165  11.570   9.685 -0.9378 -0.3831  0.2696
   61MOL0     C 8290   4.304  11.591   9.627 -0.2151  0.5440 -0.3387
   61MOL0     C 8291   4.405  11.617   9.738 -0.0774  0.1530  0.3101
   61MOL0     C 8292   4.537  11.669   9.670  0.7109 -0.1814 -0.5435
   61MOL0     C 8293   4.644  11.678   9.781  0.3327 -0.1842  0.6333
   61MOL0     C 8294   4.753  11.782   9.765 -0.0409 -0.4815 -0.0542
   61MOL0     C 8295   4.845  11.780   9.893 -0.3101  0.5581  0.3607
   61MOL0     C 8296   4.926  11.914   9.891  0.6359 -0.0049 -0.6439
   61MOL0     N 8297   5.033  11.916   9.786  0.2685  0.8501  0.0627
   61MOL0     C 8298   5.166  11.878   9.815  0.0721  0.1227 -0.3368
   61MOL0     C 8299   5.232  11.897   9.697  1.4980  0.1765 -0.3855
   61MOL0     C 8300   5.380  11.889   9.669 -0.5831  0.4219 -0.0786
   61MOL0     C 8301   5.403  11.778   9.575 -0.2875 -0.1418 -0.8232
   61MOL0     C 8302   5.539  11.773   9.504  0.0492 -0.4026 -0.7505
   61MOL0     C 8303   5.658  11.797   9.595  0.2083 -0.0261 -0.9065
   61MOL0     O 8304   5.764  11.817   9.506 -0.0330 -0.4566  0.3751
   61MOL0     C 8305   5.892  11.835   9.558 -0.1277  0.2051  0.1714
   61MOL0     C 8306   5.923  11.886   9.682 -0.8717  0.1682 -0.3313
   61MOL0     C 8307   6.061  11.915   9.718  0.4117 -0.3667  0.2541
   61MOL0     C 8308   6.076  11.959   9.859 -0.4229  0.6038  0.1539
   61MOL0     C 8309   6.160  11.886   9.618  1.1217  0.4084 -0.5980
   61MOL0     C 8310   6.303  11.919   9.647 -0.6662  0.5859  0.3339
   61MOL0     O 8311   6.333  12.006   9.747 -0.0068 -0.5687 -0.5193
   61MOL0     C 8312   6.458  12.019   9.810 -0.8030 -0.2702  0.5636
   61MOL0     C 8313   6.477  11.991   9.948 -0.1264  0.8597  0.3211
   61MOL0     C 8314   6.597  12.020  10.013  0.0060 -0.5525  0.3468
   61MOL0     C 8315   6.704  12.078   9.936 -0.4926  0.5578 -0.2151
   61MOL0     O 8316   6.816  12.114  10.003 -0.1822 -0.1237  0.5079
   61MOL0     C 8317   6.861  12.243   9.980 -0.3095 -0.0204  1.1038
   61MOL0     C 8318   6.998  12.271  10.057 -0.5661  0.2628  0.0608
   61MOL0     C 8319   7.047  12.409  10.024  0.0876 -0.0683  0.7183
   61MOL0     C 8320   7.191  12.440  10.074  0.3957  0.0714 -0.3637
   61MOL0     C 8321   7.236  12.585  10.038  0.6445 -0.1371 -0.1205
   61MOL0     C 8322   7.380  12.603  10.072  0.0261  0.5421 -0.2141
   61MOL0     C 8323   7.429  12.741  10.040 -0.2917  0.7034  0.0559
   61MOL0     C 8324   7.408  12.835  10.164  0.2070  0.3723 -1.1441
   61MOL0    Cl 8325   7.502  12.991  10.121 -0.1184  0.2386  0.1919
   61MOL0     C 8326   6.691  12.082   9.798  0.0183 -0.6996 -0.4316
   61MOL0     C 8327   6.568  12.062   9.734 -0.4452  0.0573 -0.0123
   61MOL0     O 8328   6.382  11.860   9.572 -0.8608 -0.2010  0.6453
   61MOL0     C 8329   6.123  11.835   9.496 -0.9298 -0.0611  0.0756
   61MOL0     C 8330   5.994  11.808   9.469 -0.5238 -0.9839 -0.6801
   61MOL0     N 8331   5.137  11.938   9.598 -0.5903  0.0804 -0.0229
   61MOL0     N 8332   5.024  11.951   9.657 -0.3043 -0.0403  0.0527
   61MOL0     C 8333   3.926  11.468   9.471  0.0339 -0.0319 -0.1845
   61MOL0     C 8334   3.810  11.392   9.465 -1.3396  1.1800 -0.0939
   61MOL0     C 8335   3.478  11.110   9.611  0.3596 -0.2182 -0.4236
   61MOL0     C 8336   3.347  11.167   9.630  0.5458  0.7085  0.1760
   61MOL0     C 8337   3.241  11.078   9.608 -0.5570 -0.1895  0.4713
   61MOL0     C 8338   3.256  10.946   9.576 -0.8982  1.2686  0.0781
   61MOL0     O 8339   3.139  10.874   9.561 -0.1941 -0.4575 -0.1919
   61MOL0     C 8340   3.142  10.733   9.576 -0.3118 -0.2519 -0.0154
   61MOL0     C 8341   3.004  10.681   9.605 -0.3532  0.4654  0.8648
   61MOL0     C 8342   2.927  10.603   9.496  0.2163 -0.3939  0.6539
   61MOL0     C 8343   2.793  10.555   9.550  0.2879 -0.0621 -0.3809
   61MOL0     C 8344   2.687  10.653   9.575  0.8045 -0.8193 -0.5930
   61MOL0     C 8345   2.606  10.744   9.589  0.0680 -0.2994 -0.1974
   61MOL0     C 8346   3.386  10.892   9.561 -0.5160 -0.4084 -0.0060
   61MOL0     C 8347   3.503  10.974   9.582  0.4032 -0.3586 -1.2189
   61MOL0     C 8348   3.642  10.929   9.553  0.1062  0.2532 -0.2935
   61MOL0     H 8349   3.693  11.421   9.778 -1.5024  1.8749 -1.7285
   61MOL0     H 8350   3.904  11.566   9.797 -0.3010 -0.3799 -0.1986
   61MOL0     H 8351   4.155  11.463   9.703 -1.6964 -0.3554  0.0456
   61MOL0     H 8352   4.158  11.613   9.785 -3.1694  2.1198 -0.8096
   61MOL0     H 8353   4.335  11.507   9.564  1.9563  2.3888 -1.8391
   61MOL0     H 8354   4.302  11.678   9.561  1.2932 -0.3265 -1.5982
   61MOL0     H 8355   4.371  11.689   9.812 -0.2000 -1.8395  2.2841
   61MOL0     H 8356   4.436  11.523   9.785 -1.0432  1.1077  3.0326
   61MOL0     H 8357   4.573  11.596   9.597  0.9502  0.6372 -1.2533
   61MOL0     H 8358   4.520  11.773   9.641 -0.8864 -0.4019 -0.4560
   61MOL0     H 8359   4.694  11.580   9.786 -0.1206 -0.3974  1.0401
   61MOL0     H 8360   4.585  11.702   9.870 -0.1372 -0.7388  0.4779
   61MOL0     H 8361   4.806  11.759   9.672  0.8934  1.2962 -0.0182
   61MOL0     H 8362   4.717  11.885   9.749  3.7374  1.1395  0.9286
   61MOL0     H 8363   4.920  11.701   9.903  0.5421  1.3718  0.5159
   61MOL0     H 8364   4.780  11.783   9.981 -4.8594 -2.8939 -2.4195
   61MOL0     H 8365   4.865  12.004   9.880 -0.7277 -0.7083  0.8030
   61MOL0     H 8366   4.969  11.920   9.991 -1.2095 -1.8158  0.3195
   61MOL0     H 8367   5.198  11.852   9.916 -1.0479  0.0261  0.0054
   61MOL0     H 8368   5.426  11.861   9.764 -1.3786  1.4041  0.6222
   61MOL0     H 8369   5.423  11.986   9.644 -0.7270  0.6488  0.5368
   61MOL0     H 8370   5.377  11.678   9.611  0.5283 -0.7639 -1.8904
   61MOL0     H 8371   5.332  11.786   9.492  1.0142  1.9509 -1.8292
   61MOL0     H 8372   5.540  11.672   9.463 -2.0324 -0.9469  0.3610
   61MOL0     H 8373   5.537  11.840   9.418 -0.6671  1.7817  0.8766
   61MOL0     H 8374   5.635  11.885   9.656 -0.3156 -0.2713 -0.7430
   61MOL0     H 8375   5.670  11.711   9.662  0.6072  1.3091  0.8300
   61MOL0     H 8376   5.856  11.902   9.767  0.8619  0.0958  1.1088
   61MOL0     H 8377   5.980  11.997   9.894 -0.1681  1.4664 -0.0491
   61MOL0     H 8378   6.143  12.046   9.862  1.0249 -0.3670 -1.7822
   61MOL0     H 8379   6.118  11.874   9.913 -0.8681 -1.8843 -3.1382
   61MOL0     H 8380   6.402  11.951  10.015  0.6652 -2.2546 -0.4926
   61MOL0     H 8381   6.613  12.005  10.120 -0.6168 -2.4429  0.2151
   61MOL0     H 8382   6.881  12.255   9.873 -0.1011 -1.5196  0.9457
   61MOL0     H 8383   6.781  12.315   9.997  0.1182  0.5812  0.6077
   61MOL0     H 8384   6.993  12.276  10.166  1.6313 -0.1702  0.2356
   61MOL0     H 8385   7.074  12.198  10.027 -0.6026 -0.0984  0.8183
   61MOL0     H 8386   6.983  12.491  10.056 -1.6881  0.5818 -3.7728
   61MOL0     H 8387   7.055  12.412   9.915 -0.1647 -3.3702  0.4967
   61MOL0     H 8388   7.267  12.366  10.048  0.0433 -0.5386  0.3036
   61MOL0     H 8389   7.182  12.442  10.183 -0.4669  1.6866 -0.4252
   61MOL0     H 8390   7.215  12.612   9.934 -1.9359  1.0096  0.6336
   61MOL0     H 8391   7.188  12.656  10.105 -1.9664 -1.3759 -0.5638
   61MOL0     H 8392   7.443  12.539  10.009  2.2867  3.4201 -1.1381
   61MOL0     H 8393   7.399  12.582  10.177 -0.9328  0.3288 -0.0735
   61MOL0     H 8394   7.390  12.786   9.948  0.3206 -1.2081 -1.1933
   61MOL0     H 8395   7.536  12.725  10.026 -0.9208 -4.2190 -0.7450
   61MOL0     H 8396   7.453  12.792  10.253  1.0805 -1.7826 -2.5600
   61MOL0     H 8397   7.302  12.854  10.184 -0.4146 -3.9806  0.7850
   61MOL0     H 8398   6.782  12.107   9.743  0.4686  0.5008  0.7938
   61MOL0     H 8399   6.561  12.101   9.633 -2.1246 -0.1027  0.0044
   61MOL0     H 8400   6.201  11.824   9.422  1.0580 -1.2243  2.2084
   61MOL0     H 8401   5.965  11.749   9.383  0.5385 -2.0595 -0.3310
   61MOL0     H 8402   3.991  11.482   9.385 -1.2821 -1.0572 -1.3907
   61MOL0     H 8403   3.806  11.347   9.367 -0.3452  1.8275 -0.4537
   61MOL0     H 8404   3.335  11.274   9.644  2.5899  0.8322  1.3443
   61MOL0     H 8405   3.140  11.114   9.624  0.4110  2.2043  1.6849
   61MOL0     H 8406   3.184  10.689   9.485 -1.2207 -0.4227 -0.3612
   61MOL0     H 8407   3.213  10.710   9.656  0.7103  1.1175 -0.4848
   61MOL0     H 8408   2.934  10.755   9.646 -1.7181  0.8120 -1.8702
   61MOL0     H 8409   3.021  10.608   9.684  2.6013 -3.3820 -2.8652
   61MOL0     H 8410   2.909  10.662   9.405 -0.7919  0.4312  1.3528
   61MOL0     H 8411   2.990  10.518   9.472 -2.1935 -2.6923  1.9505
   61MOL0     H 8412   2.801  10.497   9.643 -2.3445  1.2886  0.7696
   61MOL0     H 8413   2.756  10.477   9.483  2.2674 -0.7894 -0.7071
   61MOL0     H 8414   2.536  10.824   9.602 -0.1560 -0.3948 -0.7913
   61MOL0     H 8415   3.401  10.788   9.531 -0.3383 -0.5219  0.4654
   61MOL0     H 8416   3.715  10.955   9.630 -0.8766  1.4805  0.2641
   61MOL0     H 8417   3.646  10.827   9.514 -1.7893  0.1669 -0.3548
   61MOL0     H 8418   3.685  10.986   9.470  1.9747  2.8098  2.2227
   62MOL0     O 8419   6.123   5.515   4.938  0.6477 -0.3941  0.5177
   62MOL0     C 8420   6.048   5.537   4.848  0.0559  0.0782  0.2766
   62MOL0     O 8421   6.092   5.584   4.724 -0.0862  0.1978 -0.2119
   62MOL0     C 8422   6.203   5.657   4.724 -0.5932  0.1431  0.4058
   62MOL0     C 8423   6.324   5.589   4.698 -0.1463 -0.2359 -0.4620
   62MOL0     C 8424   6.443   5.660   4.676  0.1754  0.0199 -0.3357
   62MOL0     C 8425   6.444   5.804   4.692 -0.1764 -0.6572 -0.1103
   62MOL0     O 8426   6.545   5.891   4.666  0.0120  0.2219 -0.1249
   62MOL0     C 8427   6.663   5.834   4.610  0.5702 -0.4014  0.8529
   62MOL0     C 8428   6.762   5.957   4.594  0.5407 -1.0653 -0.5992
   62MOL0     C 8429   6.837   5.970   4.731 -0.2672  0.4374 -0.2862
   62MOL0     C 8430   6.947   6.060   4.725 -0.4620 -0.4127 -0.1788
   62MOL0     C 8431   7.049   6.050   4.841 -0.1230 -0.4887  1.6751
   62MOL0     C 8432   7.154   6.161   4.824 -0.2451  0.4671  1.1676
   62MOL0     C 8433   7.223   6.169   4.687 -0.5520 -0.6005 -0.7308
   62MOL0     C 8434   7.289   6.042   4.641  0.0612  0.5247 -0.4495
   62MOL0     N 8435   7.386   5.983   4.730  0.1351  0.0744  0.4733
   62MOL0     C 8436   7.508   6.039   4.759 -0.3105  0.8347 -0.4252
   62MOL0     C 8437   7.573   5.948   4.840  0.0104 -0.0836 -0.1515
   62MOL0     C 8438   7.719   5.958   4.880  0.6434 -0.5216  0.7048
   62MOL0     C 8439   7.736   6.034   5.014 -0.5433 -0.1237 -0.0696
   62MOL0     C 8440   7.750   5.951   5.141  0.2356  0.1212  0.3625
   62MOL0     C 8441   7.902   5.941   5.171  0.2890 -0.2666  0.0738
   62MOL0     O 8442   7.910   5.843   5.273  0.5984 -0.1406 -0.0340
   62MOL0     C 8443   8.013   5.855   5.361 -0.1005  0.8319  0.5327
   62MOL0     C 8444   7.983   5.841   5.496  0.1623  0.8359  0.3082
   62MOL0     C 8445   8.083   5.848   5.586  0.5183 -0.5934 -0.2918
   62MOL0     C 8446   8.049   5.830   5.739 -0.1276  0.4772  0.0452
   62MOL0     C 8447   8.210   5.870   5.543  0.3772  0.3383 -0.3426
   62MOL0     C 8448   8.325   5.877   5.641  0.3419 -0.3247  0.4629
   62MOL0     O 8449   8.439   5.894   5.587 -0.4792 -0.8555  0.3961
   62MOL0     C 8450   8.547   5.887   5.675 -0.7266  0.6513 -0.8053
   62MOL0     C 8451   8.569   5.786   5.773  0.6172 -0.4545 -0.8134
   62MOL0     C 8452   8.670   5.792   5.863 -0.1297  0.1780  0.2207
   62MOL0     C 8453   8.762   5.895   5.859  0.1332  0.4418  0.1469
   62MOL0     O 8454   8.885   5.892   5.932  0.0520 -0.7367 -0.2881
   62MOL0     C 8455   8.933   5.775   5.994 -0.3501  0.4637 -0.4805
   62MOL0     C 8456   9.056   5.800   6.080  0.2708  0.5214 -0.2022
   62MOL0     C 8457   9.167   5.891   6.014 -0.3049 -0.2159  1.1282
   62MOL0     C 8458   9.295   5.905   6.104  0.3350  0.0072  0.7083
   62MOL0     C 8459   9.422   5.950   6.025 -0.3997  0.3447 -0.7491
   62MOL0     C 8460   9.555   5.935   6.114  1.0456  1.1576  0.0869
   62MOL0     C 8461   9.674   5.988   6.039  0.2557 -0.0815 -0.9460
   62MOL0     C 8462   9.807   5.955   6.105  0.1136 -0.2738  0.3806
   62MOL0    Cl 8463   9.953   6.041   6.048 -0.7089  0.0942  0.4705
   62MOL0     C 8464   8.751   5.996   5.760 -1.2644  0.2657  0.5851
   62MOL0     C 8465   8.641   5.997   5.677  0.1614  0.0277 -0.3006
   62MOL0     O 8466   8.313   5.884   5.762 -0.1006 -0.8901 -0.6982
   62MOL0     C 8467   8.240   5.879   5.413 -0.4679 -1.4030  0.5105
   62MOL0     C 8468   8.145   5.870   5.312 -0.7915  0.1369  0.3473
   62MOL0     N 8469   7.484   5.837   4.846 -0.1469 -1.1308  0.4553
   62MOL0     N 8470   7.373   5.862   4.784 -0.1944 -0.1132  0.9683
   62MOL0     C 8471   6.327   5.869   4.725 -0.6126 -0.4026 -0.3468
   62MOL0     C 8472   6.207   5.796   4.743  0.3613  0.2771  0.0689
   62MOL0     C 8473   5.899   5.519   4.866  0.3572  0.4555 -0.3999
   62MOL0     C 8474   5.826   5.615   4.785 -0.6780  0.0916 -0.5636
   62MOL0     C 8475   5.690   5.635   4.809  0.2511 -0.8602 -0.4887
   62MOL0     C 8476   5.621   5.552   4.894 -0.4923  0.2995  0.7802
   62MOL0     O 8477   5.493   5.584   4.921  0.6459  0.9908 -0.3310
   62MOL0     C 8478   5.406   5.618   4.811 -0.1132 -0.8474 -0.4497
   62MOL0     C 8479   5.265   5.583   4.868 -0.5923  0.8750 -0.2054
   62MOL0     C 8480   5.144   5.608   4.780  0.7990  0.9592 -0.9758
   62MOL0     C 8481   5.019   5.549   4.841  0.4048  0.6403 -0.3512
   62MOL0     C 8482   4.910   5.570   4.753  0.4838 -0.3322 -0.1720
   62MOL0     C 8483   4.811   5.579   4.679 -0.1916 -0.3859 -0.5212
   62MOL0     C 8484   5.690   5.445   4.968  0.3261 -0.4535 -0.6231
   62MOL0     C 8485   5.826   5.436   4.954 -0.0502 -0.8935  0.2812
   62MOL0     C 8486   5.896   5.316   5.012 -0.2076 -0.3064 -1.1609
   62MOL0     H 8487   6.326   5.481   4.690 -1.7575 -0.2103 -1.6989
   62MOL0     H 8488   6.521   5.597   4.634 -0.0819 -1.3899  1.2115
   62MOL0     H 8489   6.642   5.800   4.508  0.0890  0.1517  0.7608
   62MOL0     H 8490   6.703   5.750   4.668  2.5005 -1.9272 -2.3830
   62MOL0     H 8491   6.838   5.936   4.518 -0.5431 -0.6448 -1.8442
   62MOL0     H 8492   6.716   6.048   4.555  1.3234 -0.4239 -0.0372
   62MOL0     H 8493   6.764   5.991   4.810 -0.0095  1.6720 -0.3474
   62MOL0     H 8494   6.882   5.872   4.748  2.2055  0.9082 -3.2270
   62MOL0     H 8495   6.998   6.046   4.629  1.5329 -2.3368  1.0421
   62MOL0     H 8496   6.911   6.163   4.728 -0.4795 -0.4400  0.9716
   62MOL0     H 8497   7.100   5.954   4.828 -1.2614 -1.0738  1.3533
   62MOL0     H 8498   7.006   6.061   4.941 -2.9177 -0.9944  0.6319
   62MOL0     H 8499   7.125   6.264   4.848  1.9803  1.6472 -0.7841
   62MOL0     H 8500   7.238   6.144   4.892  1.9900  1.0513 -1.2893
   62MOL0     H 8501   7.286   6.258   4.689 -3.8318  1.9295 -1.2000
   62MOL0     H 8502   7.147   6.201   4.615  1.3223  2.6002 -1.4842
   62MOL0     H 8503   7.213   5.964   4.627 -0.6258  0.8669  1.1246
   62MOL0     H 8504   7.328   6.068   4.543  0.0179 -1.4345 -1.0398
   62MOL0     H 8505   7.562   6.127   4.727 -0.0020  0.5147 -0.7927
   62MOL0     H 8506   7.772   6.009   4.799  1.7113 -2.2540  0.2518
   62MOL0     H 8507   7.769   5.861   4.892  3.6249  0.9665  1.2282
   62MOL0     H 8508   7.816   6.109   5.012  0.1480 -0.8410  0.4076
   62MOL0     H 8509   7.645   6.094   5.025 -0.2270  0.3601 -0.0409
   62MOL0     H 8510   7.693   6.000   5.220 -0.0744  1.2540 -0.5397
   62MOL0     H 8511   7.712   5.853   5.110  0.1205 -0.3800  1.9813
   62MOL0     H 8512   7.944   5.905   5.077  2.3672  0.9119  0.5077
   62MOL0     H 8513   7.941   6.037   5.204 -1.4326 -0.2600  2.3627
   62MOL0     H 8514   7.883   5.818   5.532  1.0199 -1.2836  1.5123
   62MOL0     H 8515   7.942   5.816   5.753  0.2178 -1.4810  1.0550
   62MOL0     H 8516   8.071   5.921   5.795 -2.7843  1.8264 -0.9160
   62MOL0     H 8517   8.099   5.740   5.774 -1.2858  0.8484  2.9287
   62MOL0     H 8518   8.507   5.696   5.770  1.8454 -1.7692  3.8579
   62MOL0     H 8519   8.678   5.709   5.933  2.9095 -0.4639 -0.7196
   62MOL0     H 8520   8.854   5.750   6.066 -0.5004  1.3022 -0.3457
   62MOL0     H 8521   8.945   5.689   5.929 -0.0480  0.1845 -0.0643
   62MOL0     H 8522   9.019   5.846   6.172  0.1836  1.5474 -0.7335
   62MOL0     H 8523   9.099   5.702   6.106 -3.0502 -1.2756 -0.9416
   62MOL0     H 8524   9.141   5.996   5.998  0.6295 -0.3210 -1.4562
   62MOL0     H 8525   9.193   5.852   5.916 -1.2094 -2.8525  1.8510
   62MOL0     H 8526   9.318   5.809   6.151 -2.9824 -0.5602  1.3836
   62MOL0     H 8527   9.263   5.983   6.173  0.2586  1.9428 -1.3820
   62MOL0     H 8528   9.435   5.890   5.934  2.0238 -0.5855  0.1397
   62MOL0     H 8529   9.426   6.058   6.009  4.1847  1.0291  3.1089
   62MOL0     H 8530   9.578   5.833   6.148 -0.8790  1.4487  2.5828
   62MOL0     H 8531   9.522   5.980   6.208 -2.6131 -4.1709  1.8759
   62MOL0     H 8532   9.670   6.097   6.037  1.5800  0.0249  0.4990
   62MOL0     H 8533   9.673   5.958   5.934  3.2954  3.5285 -2.2394
   62MOL0     H 8534   9.831   5.848   6.097 -0.6962 -0.3252 -2.5779
   62MOL0     H 8535   9.795   5.981   6.210 -2.4110 -3.4908  1.0380
   62MOL0     H 8536   8.820   6.079   5.771 -0.6136 -0.3380  1.1800
   62MOL0     H 8537   8.635   6.067   5.594 -1.3186 -2.1708 -2.1859
   62MOL0     H 8538   8.340   5.895   5.375 -1.1252  1.4905 -0.2165
   62MOL0     H 8539   8.167   5.873   5.205  2.2497 -2.8887  0.7269
   62MOL0     H 8540   6.317   5.974   4.749  1.9801  0.1781 -1.5207
   62MOL0     H 8541   6.115   5.835   4.784  1.7221  2.1682  1.4566
   62MOL0     H 8542   5.877   5.673   4.708  0.5634 -1.1384 -0.7067
   62MOL0     H 8543   5.645   5.719   4.758 -1.7625 -0.9518  1.0196
   62MOL0     H 8544   5.414   5.726   4.798  1.5523 -1.0295 -1.1186
   62MOL0     H 8545   5.437   5.575   4.716 -1.5994 -0.4376 -1.1553
   62MOL0     H 8546   5.249   5.626   4.968 -2.6531 -1.2149  0.4620
   62MOL0     H 8547   5.263   5.475   4.887 -0.5521  1.1287  1.4417
   62MOL0     H 8548   5.133   5.717   4.769 -0.0649  1.0577  0.5026
   62MOL0     H 8549   5.162   5.564   4.682  0.3056  0.9902 -1.0795
   62MOL0     H 8550   4.984   5.591   4.935 -5.1610 -1.6195 -1.0189
   62MOL0     H 8551   5.031   5.442   4.861  1.0780  0.9410  0.9170
   62MOL0     H 8552   4.715   5.568   4.634 -0.0916 -0.7593 -0.6451
   62MOL0     H 8553   5.617   5.381   5.017  0.0273 -0.4195 -1.0225
   62MOL0     H 8554   5.951   5.359   5.097  0.7442 -1.4024 -1.2143
   62MOL0     H 8555   5.831   5.235   5.048 -0.1227 -0.6315 -1.7318
   62MOL0     H 8556   5.956   5.272   4.933  2.8249  1.4904 -0.0177
   63MOL0     O 8557  10.280   8.479   4.483 -0.1336 -0.2954 -0.4528
   63MOL0     C 8558  10.215   8.548   4.402 -0.2767  0.5755  0.6319
   63MOL0     O 8559  10.241   8.568   4.260  0.1561 -0.5384  0.2623
   63MOL0     C 8560  10.340   8.496   4.202  0.1857 -0.6506 -0.1057
   63MOL0     C 8561  10.345   8.511   4.071 -0.2572  0.2715  0.5867
   63MOL0     C 8562  10.434   8.449   3.981 -0.2913  0.3473 -0.0481
   63MOL0     C 8563  10.534   8.362   4.030  0.6526  0.1138 -0.1350
   63MOL0     O 8564  10.619   8.295   3.945  0.3892 -0.3231  0.0146
   63MOL0     C 8565  10.682   8.172   3.992 -0.5403 -1.2942 -0.5982
   63MOL0     C 8566  10.769   8.098   3.893  0.4870  0.2834  1.0611
   63MOL0     C 8567  10.895   8.038   3.948 -1.0699 -0.7855 -0.4172
   63MOL0     C 8568  10.960   7.960   3.838  0.7283  0.0920  0.4754
   63MOL0     C 8569  11.084   7.901   3.901  0.2545 -0.1338 -0.7723
   63MOL0     C 8570  11.129   7.783   3.813  0.5234  0.0641  0.4878
   63MOL0     C 8571  11.271   7.728   3.846 -0.3594  0.0775 -0.0545
   63MOL0     C 8572  11.382   7.797   3.759  0.7865  0.2328 -0.5051
   63MOL0     N 8573  11.519   7.746   3.790  0.6267 -0.0294 -0.1873
   63MOL0     C 8574  11.601   7.815   3.882  0.1382  0.9539  0.3838
   63MOL0     C 8575  11.715   7.742   3.871 -0.5202  0.0698 -0.5733
   63MOL0     C 8576  11.835   7.779   3.950 -1.0072 -0.0035 -0.1767
   63MOL0     C 8577  11.915   7.891   3.862  0.1306  0.6152  0.1167
   63MOL0     C 8578  11.952   8.022   3.935 -0.3418 -0.4662 -0.0406
   63MOL0     C 8579  11.827   8.091   3.970 -0.3549 -0.4964 -0.4872
   63MOL0     O 8580  11.732   8.096   3.863  0.5591 -0.4182 -0.0730
   63MOL0     C 8581  11.605   8.147   3.892 -0.0058 -0.1968  0.2377
   63MOL0     C 8582  11.504   8.136   3.795  0.8269 -0.3720 -0.0099
   63MOL0     C 8583  11.372   8.185   3.818 -0.0908 -0.3372 -0.1801
   63MOL0     C 8584  11.278   8.152   3.707 -0.5121 -0.3314  0.2417
   63MOL0     C 8585  11.338   8.265   3.932 -0.0765  0.0866 -0.2674
   63MOL0     C 8586  11.208   8.337   3.957  0.0166 -0.2591  0.6186
   63MOL0     O 8587  11.193   8.382   4.081 -0.4142 -0.4410  0.4133
   63MOL0     C 8588  11.079   8.437   4.142 -0.8919  0.9581 -0.1660
   63MOL0     C 8589  10.970   8.504   4.080  0.0308  0.5098  0.9926
   63MOL0     C 8590  10.865   8.556   4.151  0.2047 -1.1465 -0.3871
   63MOL0     C 8591  10.873   8.556   4.288  0.6908  0.3242  0.6482
   63MOL0     O 8592  10.774   8.618   4.357  0.1548  0.2014  0.1097
   63MOL0     C 8593  10.794   8.659   4.498 -0.0939  0.7724  0.6688
   63MOL0     C 8594  10.715   8.786   4.536  1.3727 -0.2041 -0.9320
   63MOL0     C 8595  10.561   8.780   4.515  0.2659 -0.2471  0.4140
   63MOL0     C 8596  10.503   8.924   4.534 -0.3653  0.1920 -1.3600
   63MOL0     C 8597  10.352   8.920   4.524  0.2758  0.2561 -0.3167
   63MOL0     C 8598  10.293   9.062   4.535  0.0580 -0.4319  0.4528
   63MOL0     C 8599  10.137   9.065   4.503  0.1740  0.2474 -0.0777
   63MOL0     C 8600  10.086   9.203   4.484 -0.3149  0.2603 -0.0725
   63MOL0    Cl 8601  10.126   9.256   4.317  0.1843  0.1066 -0.0574
   63MOL0     C 8602  10.978   8.489   4.354  0.2204 -0.2252  0.0395
   63MOL0     C 8603  11.088   8.439   4.285 -1.1481  0.3898  0.7520
   63MOL0     O 8604  11.125   8.351   3.862 -0.6730  0.0540  0.2333
   63MOL0     C 8605  11.441   8.282   4.033 -0.1610 -0.0053 -0.0721
   63MOL0     C 8606  11.567   8.225   4.013 -0.4078  0.1020  0.0166
   63MOL0     N 8607  11.698   7.634   3.784 -0.3822  0.2712 -0.0624
   63MOL0     N 8608  11.578   7.644   3.731  0.3979 -0.3857  0.1088
   63MOL0     C 8609  10.536   8.354   4.170 -0.3844 -0.6596  0.3745
   63MOL0     C 8610  10.447   8.424   4.252  0.4161  1.0979 -0.0951
   63MOL0     C 8611  10.094   8.610   4.442  0.0778 -0.7564 -0.2294
   63MOL0     C 8612   9.997   8.643   4.348 -0.8695 -0.1182  0.2007
   63MOL0     C 8613   9.871   8.704   4.387 -0.1708  0.8712 -0.5088
   63MOL0     C 8614   9.850   8.749   4.518  0.2723 -0.5306 -0.3445
   63MOL0     O 8615   9.742   8.827   4.546 -0.4564 -0.7858 -0.6051
   63MOL0     C 8616   9.757   8.937   4.641  0.0448  0.4699 -0.3728
   63MOL0     C 8617   9.703   9.069   4.594 -0.1674 -0.9760 -0.6164
   63MOL0     C 8618   9.711   9.183   4.703 -0.1411  0.9454  0.8673
   63MOL0     C 8619   9.668   9.318   4.659  0.4470  0.8699  0.1925
   63MOL0     C 8620   9.747   9.381   4.561  0.5753 -0.8761  0.0450
   63MOL0     C 8621   9.831   9.431   4.479  0.7445 -1.0810  0.1388
   63MOL0     C 8622   9.951   8.728   4.613  0.5697 -0.4284  0.6404
   63MOL0     C 8623  10.067   8.654   4.580 -0.6241  0.0950  0.7099
   63MOL0     C 8624  10.158   8.624   4.695  0.0275 -0.1407 -0.4735
   63MOL0     H 8625  10.277   8.582   4.024  1.4441  0.4618 -1.8209
   63MOL0     H 8626  10.426   8.466   3.874  1.3408 -1.8574 -0.5989
   63MOL0     H 8627  10.617   8.100   4.042 -1.3000 -1.2606 -1.5161
   63MOL0     H 8628  10.748   8.198   4.076 -0.8106 -0.3800 -0.6545
   63MOL0     H 8629  10.709   8.010   3.868  1.0794 -0.5232  2.3203
   63MOL0     H 8630  10.794   8.159   3.806 -1.2747  1.0545  1.0435
   63MOL0     H 8631  10.965   8.117   3.976 -0.1475 -1.4003 -0.9752
   63MOL0     H 8632  10.871   7.978   4.037 -0.4950  1.9308  1.7074
   63MOL0     H 8633  10.899   7.877   3.800  0.5080  0.1720  0.6562
   63MOL0     H 8634  10.991   8.021   3.753 -3.0073  1.0763 -0.3662
   63MOL0     H 8635  11.067   7.858   4.000  0.7434 -1.8515 -1.3937
   63MOL0     H 8636  11.154   7.984   3.915 -0.4939  0.3098  0.5053
   63MOL0     H 8637  11.055   7.705   3.833 -0.1538  0.7690  0.8063
   63MOL0     H 8638  11.130   7.806   3.706  0.0882 -2.6311 -0.1675
   63MOL0     H 8639  11.275   7.620   3.830  2.3950  0.1663 -0.4488
   63MOL0     H 8640  11.297   7.745   3.951 -1.2583  0.1878  0.1624
   63MOL0     H 8641  11.359   7.783   3.653  1.2782  1.6364 -0.8259
   63MOL0     H 8642  11.391   7.904   3.782  1.3976  0.1519 -0.3513
   63MOL0     H 8643  11.592   7.902   3.946 -0.5803  0.1536  1.4116
   63MOL0     H 8644  11.890   7.692   3.986 -0.7325  0.9632  1.8723
   63MOL0     H 8645  11.797   7.829   4.039 -1.0206  1.4904 -0.9879
   63MOL0     H 8646  12.010   7.843   3.836  0.3249  0.2759  1.3652
   63MOL0     H 8647  11.874   7.923   3.766  0.7507 -2.4113 -1.2804
   63MOL0     H 8648  12.023   8.013   4.017 -0.1848  1.0605  0.0032
   63MOL0     H 8649  11.992   8.084   3.854 -4.8767  2.7471 -0.1400
   63MOL0     H 8650  11.797   8.051   4.068 -0.6880  2.1394  0.5592
   63MOL0     H 8651  11.859   8.192   3.997 -0.7621  0.3354 -2.9056
   63MOL0     H 8652  11.526   8.082   3.703 -1.2563  1.1729 -1.5291
   63MOL0     H 8653  11.235   8.053   3.725  3.2106 -1.7713  2.2148
   63MOL0     H 8654  11.335   8.154   3.614  0.2214  1.7562  0.6666
   63MOL0     H 8655  11.190   8.216   3.689 -0.1788 -0.4507 -2.1579
   63MOL0     H 8656  10.952   8.518   3.973 -0.5900 -2.1749  0.6519
   63MOL0     H 8657  10.774   8.602   4.113  0.7007  1.3791  1.1954
   63MOL0     H 8658  10.780   8.579   4.571 -3.0056 -0.8816 -1.4679
   63MOL0     H 8659  10.898   8.688   4.514  0.5610 -0.9639 -0.1183
   63MOL0     H 8660  10.741   8.811   4.639  0.0872  0.8483 -0.8379
   63MOL0     H 8661  10.741   8.869   4.470  0.1461 -1.6707 -3.4409
   63MOL0     H 8662  10.517   8.708   4.584  1.5111  0.1920  1.7204
   63MOL0     H 8663  10.539   8.740   4.416  1.6457 -2.4961  0.9328
   63MOL0     H 8664  10.550   8.994   4.465  1.2170  1.5166  0.9160
   63MOL0     H 8665  10.527   8.958   4.635  1.9201 -1.1031 -1.3775
   63MOL0     H 8666  10.330   8.886   4.422  0.8261 -0.7507 -0.1127
   63MOL0     H 8667  10.314   8.847   4.597  1.6876 -1.7411 -1.4710
   63MOL0     H 8668  10.340   9.122   4.456 -0.5962 -1.0225 -0.4060
   63MOL0     H 8669  10.310   9.102   4.635  0.3983  2.4029 -0.6580
   63MOL0     H 8670  10.095   9.019   4.593  1.9747 -2.3111 -0.4432
   63MOL0     H 8671  10.112   9.013   4.411 -1.5929  1.3578 -0.2676
   63MOL0     H 8672  10.119   9.271   4.563 -0.3862  1.5006 -1.0787
   63MOL0     H 8673   9.977   9.202   4.484 -0.5382  3.6022 -2.6211
   63MOL0     H 8674  10.979   8.484   4.462 -1.4301  0.6668  0.1230
   63MOL0     H 8675  11.170   8.401   4.345  1.2989  2.0640 -1.2633
   63MOL0     H 8676  11.406   8.333   4.122 -1.2109 -0.6153 -0.1222
   63MOL0     H 8677  11.635   8.247   4.095 -0.5512 -3.3725  1.1952
   63MOL0     H 8678  10.608   8.292   4.223  2.4042  3.6830  2.2727
   63MOL0     H 8679  10.469   8.411   4.358 -0.0911 -1.1915 -0.2156
   63MOL0     H 8680  10.005   8.615   4.243  0.6818 -1.8154  0.7167
   63MOL0     H 8681   9.794   8.729   4.315 -1.4030 -0.1190  0.4229
   63MOL0     H 8682   9.704   8.908   4.732 -1.7208 -0.3080 -1.6088
   63MOL0     H 8683   9.864   8.953   4.661  0.0831 -0.5085  0.2691
   63MOL0     H 8684   9.599   9.061   4.560 -0.6520 -0.7252  0.7580
   63MOL0     H 8685   9.753   9.107   4.504 -0.5356 -0.1254 -0.4722
   63MOL0     H 8686   9.666   9.148   4.797 -1.6565 -1.4958 -0.6511
   63MOL0     H 8687   9.816   9.194   4.734 -0.7216  2.5817  2.3788
   63MOL0     H 8688   9.650   9.379   4.748  0.3306  0.8261  0.1989
   63MOL0     H 8689   9.568   9.308   4.617  1.2159 -1.6366 -1.2511
   63MOL0     H 8690   9.892   9.480   4.406  1.3389  2.7218  2.8799
   63MOL0     H 8691   9.919   8.757   4.712 -0.8950  1.7248 -0.3802
   63MOL0     H 8692  10.119   8.679   4.782 -0.7829  0.3440 -1.1263
   63MOL0     H 8693  10.162   8.519   4.724 -0.3879  0.9088  4.1857
   63MOL0     H 8694  10.249   8.679   4.671 -0.2038  0.0574 -0.8854
   64MOL0     O 8695  10.452   7.711   9.837  0.9976 -0.1456 -0.3099
   64MOL0     C 8696  10.400   7.813   9.792  0.1290 -0.8300 -0.8009
   64MOL0     O 8697  10.446   7.900   9.698 -0.5058 -0.0445  0.7822
   64MOL0     C 8698  10.581   7.886   9.678  0.4852 -0.2098 -0.6008
   64MOL0     C 8699  10.657   7.997   9.709 -0.3366 -0.2090 -0.3062
   64MOL0     C 8700  10.798   7.997   9.696 -0.2250  0.0133  0.4744
   64MOL0     C 8701  10.871   7.878   9.655  0.5303  0.2628 -0.3058
   64MOL0     O 8702  11.011   7.850   9.654  0.2519 -0.4317  0.5839
   64MOL0     C 8703  11.086   7.965   9.622  0.0490 -0.3762 -1.3331
   64MOL0     C 8704  11.234   7.926   9.591 -0.0904  0.4874  0.0775
   64MOL0     C 8705  11.312   7.860   9.709 -0.2063 -0.2924  0.4111
   64MOL0     C 8706  11.352   7.969   9.815 -0.2117 -0.2547 -0.3805
   64MOL0     C 8707  11.408   7.910   9.945  0.3281 -0.9141  0.1270
   64MOL0     C 8708  11.536   7.845   9.926  0.6509  0.1057  1.0422
   64MOL0     C 8709  11.608   7.815  10.060 -0.3118  0.4082 -0.3258
   64MOL0     C 8710  11.520   7.761  10.171 -0.0394  0.0843 -0.8236
   64MOL0     N 8711  11.582   7.710  10.290  1.2740 -0.0201 -0.8677
   64MOL0     C 8712  11.613   7.789  10.403  0.7170 -0.2053  0.5807
   64MOL0     C 8713  11.701   7.720  10.473 -0.2691 -0.1307  0.2862
   64MOL0     C 8714  11.749   7.745  10.610  0.4500 -0.1772  0.5174
   64MOL0     C 8715  11.891   7.788  10.582 -0.8320 -0.7549 -0.0161
   64MOL0     C 8716  11.992   7.681  10.538  0.2259 -0.4512 -0.1131
   64MOL0     C 8717  12.133   7.732  10.560  0.0333 -0.6210 -0.7396
   64MOL0     O 8718  12.228   7.632  10.559 -0.0969  0.0657 -0.0321
   64MOL0     C 8719  12.361   7.660  10.552  0.7806  0.3282 -0.0738
   64MOL0     C 8720  12.434   7.559  10.496  0.6521 -0.7485  0.3443
   64MOL0     C 8721  12.567   7.571  10.470  0.5900 -1.1258  0.5718
   64MOL0     C 8722  12.630   7.451  10.394 -0.7368 -0.5948 -0.3647
   64MOL0     C 8723  12.630   7.692  10.513 -0.2802  0.1554  0.2075
   64MOL0     C 8724  12.779   7.710  10.507 -0.4701  0.3552 -0.2296
   64MOL0     O 8725  12.821   7.835  10.542 -0.0696  0.4128  0.0992
   64MOL0     C 8726  12.949   7.868  10.538 -0.9276 -0.0658 -0.4506
   64MOL0     C 8727  13.033   7.830  10.643 -0.1252 -0.3017  0.8593
   64MOL0     C 8728  13.175   7.854  10.636 -0.7172  0.8357 -0.4501
   64MOL0     C 8729  13.228   7.922  10.522  0.1595 -0.9680 -0.4585
   64MOL0     O 8730  13.358   7.931  10.485 -0.2038 -0.0362  0.7000
   64MOL0     C 8731  13.459   7.887  10.578 -0.1846  0.0209  0.5739
   64MOL0     C 8732  13.594   7.879  10.494 -0.7375 -0.4184 -0.2210
   64MOL0     C 8733  13.712   7.861  10.596  0.5913 -0.4408 -0.2050
   64MOL0     C 8734  13.836   7.795  10.530  0.1041  0.1421  0.0957
   64MOL0     C 8735  13.937   7.738  10.636  0.4202  0.3755 -0.0675
   64MOL0     C 8736  14.062   7.669  10.575  0.6408 -0.1994 -0.0798
   64MOL0     C 8737  14.167   7.647  10.689  0.3903  0.3228  0.1630
   64MOL0     C 8738  14.140   7.520  10.765 -1.0374  0.4400  0.6297
   64MOL0    Cl 8739  14.031   7.545  10.903 -0.3074  0.4760 -0.6368
   64MOL0     C 8740  13.143   7.972  10.416 -0.6486  0.7947 -1.1030
   64MOL0     C 8741  13.003   7.942  10.432  0.2268  0.8531  0.6739
   64MOL0     O 8742  12.855   7.627  10.456  0.4808 -0.5368  0.9095
   64MOL0     C 8743  12.551   7.804  10.562 -0.3619  0.3735 -0.6862
   64MOL0     C 8744  12.418   7.783  10.576  0.6421 -0.1737 -0.4154
   64MOL0     N 8745  11.728   7.601  10.402 -0.1564 -0.5523  0.4171
   64MOL0     N 8746  11.649   7.597  10.297  0.0434 -0.3332 -0.1479
   64MOL0     C 8747  10.793   7.762   9.641  0.4263 -0.0531  0.9076
   64MOL0     C 8748  10.653   7.765   9.648  0.5097 -0.0053 -0.2432
   64MOL0     C 8749  10.261   7.839   9.849 -0.2300 -1.0272  0.0398
   64MOL0     C 8750  10.189   7.948   9.798 -0.2473  0.0815 -0.5257
   64MOL0     C 8751  10.059   7.973   9.837  0.5029  0.5348 -1.0094
   64MOL0     C 8752   9.984   7.877   9.913  0.4082  0.9279  0.0907
   64MOL0     O 8753   9.853   7.900   9.946 -0.3411 -0.1886 -0.1164
   64MOL0     C 8754   9.767   7.963   9.853  0.5130 -0.1374  0.6882
   64MOL0     C 8755   9.756   7.874   9.729 -0.1367 -0.0247  0.1868
   64MOL0     C 8756   9.699   7.732   9.752 -0.0656  0.7966  0.7209
   64MOL0     C 8757   9.696   7.647   9.628  0.5074 -0.4331 -0.0792
   64MOL0     C 8758   9.830   7.620   9.576 -0.4481  0.0245 -0.4495
   64MOL0     C 8759   9.949   7.611   9.549  1.2851 -0.2705 -0.2052
   64MOL0     C 8760  10.049   7.766   9.968  0.0215  0.5836  0.3200
   64MOL0     C 8761  10.190   7.749   9.935  0.8133  0.3296  0.7070
   64MOL0     C 8762  10.239   7.630  10.008  0.5600  0.1882 -0.2079
   64MOL0     H 8763  10.604   8.087   9.737 -0.7153 -0.9583  1.5224
   64MOL0     H 8764  10.860   8.086   9.709 -1.6445  1.0390  0.4696
   64MOL0     H 8765  11.078   8.030   9.709 -0.0014 -2.1435  0.0394
   64MOL0     H 8766  11.052   8.017   9.532  1.7813 -1.0339 -2.4369
   64MOL0     H 8767  11.210   7.845   9.521  0.9288 -1.1700  1.5449
   64MOL0     H 8768  11.292   8.004   9.542  0.7849  0.7502  1.4682
   64MOL0     H 8769  11.232   7.800   9.753 -2.0130  0.5185 -1.5650
   64MOL0     H 8770  11.401   7.813   9.665  0.3926  1.6855 -0.6492
   64MOL0     H 8771  11.420   8.037   9.763  0.3891 -0.0702  0.6200
   64MOL0     H 8772  11.271   8.039   9.836 -2.8507 -3.4188  0.8835
   64MOL0     H 8773  11.338   7.832   9.977  2.0502 -2.8642 -0.6055
   64MOL0     H 8774  11.426   7.989  10.018  0.7256 -1.2572  0.4101
   64MOL0     H 8775  11.501   7.758   9.869 -0.4706  0.0710  1.7722
   64MOL0     H 8776  11.605   7.906   9.867  1.5637 -1.2509  0.6450
   64MOL0     H 8777  11.645   7.912  10.094 -0.2828  1.0005 -1.9549
   64MOL0     H 8778  11.681   7.734  10.050 -3.1557 -2.4538  0.3284
   64MOL0     H 8779  11.458   7.848  10.195  2.2729  2.2542 -2.2707
   64MOL0     H 8780  11.454   7.686  10.127  0.2478  0.5474 -2.0743
   64MOL0     H 8781  11.572   7.888  10.420 -1.0462 -0.7233 -0.3484
   64MOL0     H 8782  11.737   7.651  10.665 -1.2884  1.1478  2.5798
   64MOL0     H 8783  11.692   7.826  10.658  0.6580 -0.5469  1.3998
   64MOL0     H 8784  11.887   7.862  10.501  0.7255 -0.4812  0.1293
   64MOL0     H 8785  11.916   7.838  10.676 -0.9147  2.3839 -1.5276
   64MOL0     H 8786  11.964   7.588  10.587 -2.4423  0.1147 -0.4132
   64MOL0     H 8787  11.979   7.662  10.431 -1.2209 -1.5746  0.2511
   64MOL0     H 8788  12.157   7.821  10.501  0.4921  1.0293  1.7895
   64MOL0     H 8789  12.131   7.770  10.663 -1.5724 -3.9219  0.5944
   64MOL0     H 8790  12.378   7.467  10.482 -1.1795  0.5429 -1.4910
   64MOL0     H 8791  12.562   7.408  10.321 -0.9013 -0.4119 -0.3201
   64MOL0     H 8792  12.658   7.369  10.461 -0.9617  0.1721  0.6920
   64MOL0     H 8793  12.709   7.486  10.327 -0.0990 -0.7302  0.2969
   64MOL0     H 8794  12.990   7.763  10.717 -0.4681 -1.0051  0.0425
   64MOL0     H 8795  13.239   7.795  10.700 -2.4583  0.0964  0.7070
   64MOL0     H 8796  13.466   7.953  10.664 -0.2790 -1.4279  1.7325
   64MOL0     H 8797  13.447   7.782  10.606  0.7630  0.7875  4.3873
   64MOL0     H 8798  13.587   7.793  10.427  0.8429 -1.2190  0.5619
   64MOL0     H 8799  13.608   7.961  10.423 -3.1913 -0.3825 -0.7509
   64MOL0     H 8800  13.685   7.813  10.691  2.3800  0.8033  1.0147
   64MOL0     H 8801  13.754   7.960  10.619  1.9018 -0.7554 -1.1684
   64MOL0     H 8802  13.889   7.860  10.460  1.1868  0.3059  1.0232
   64MOL0     H 8803  13.797   7.712  10.471 -0.5561 -0.2717  1.0746
   64MOL0     H 8804  13.968   7.826  10.694 -1.6731  0.7813  0.5217
   64MOL0     H 8805  13.885   7.667  10.702 -1.7224  1.0800 -0.9025
   64MOL0     H 8806  14.107   7.733  10.499  0.8979 -2.1688 -1.6339
   64MOL0     H 8807  14.036   7.576  10.525  2.0318 -1.5539  1.5787
   64MOL0     H 8808  14.169   7.729  10.761  0.0812  0.9976 -0.5773
   64MOL0     H 8809  14.269   7.632  10.651  0.2099 -2.9846  0.7154
   64MOL0     H 8810  14.235   7.478  10.800 -0.2418  0.8201 -0.9897
   64MOL0     H 8811  14.088   7.451  10.698 -2.2768  2.8276 -1.0360
   64MOL0     H 8812  13.187   8.031  10.336  0.0178  1.1217 -0.5048
   64MOL0     H 8813  12.924   7.965  10.362 -3.9693 -3.5883  3.2847
   64MOL0     H 8814  12.588   7.904  10.584 -1.4181  1.3970 -3.1715
   64MOL0     H 8815  12.356   7.868  10.604  1.2640  0.1728 -0.0750
   64MOL0     H 8816  10.854   7.677   9.613  3.0097  2.3142 -1.2852
   64MOL0     H 8817  10.594   7.675   9.631 -0.2968  0.3239  0.7075
   64MOL0     H 8818  10.235   8.025   9.736  0.4820  1.6727  1.8402
   64MOL0     H 8819  10.006   8.061   9.802 -1.9238  0.7368  2.6497
   64MOL0     H 8820   9.672   7.985   9.902 -0.8196  0.4295 -1.9325
   64MOL0     H 8821   9.804   8.063   9.828  1.9607 -0.3949  1.7180
   64MOL0     H 8822   9.848   7.869   9.670 -1.2273  3.1952 -2.1179
   64MOL0     H 8823   9.676   7.925   9.675 -1.0917  1.0008  2.4218
   64MOL0     H 8824   9.757   7.681   9.830  0.8305  2.1034  0.9281
   64MOL0     H 8825   9.597   7.752   9.787  0.0889  3.0625 -0.0027
   64MOL0     H 8826   9.631   7.694   9.553 -1.5234 -2.6208  0.2148
   64MOL0     H 8827   9.647   7.554   9.655 -0.4691 -0.1687 -0.8761
   64MOL0     H 8828  10.052   7.633   9.530  1.2877 -2.5299 -3.8227
   64MOL0     H 8829   9.985   7.691  10.015  0.1778 -0.0530 -0.4701
   64MOL0     H 8830  10.341   7.644  10.045  0.4214  0.3239  0.1272
   64MOL0     H 8831  10.176   7.605  10.094 -1.3261  3.8959 -0.2846
   64MOL0     H 8832  10.247   7.550   9.934  2.7977  1.4281 -1.4061
   65MOL0     O 8833   5.690   5.331   4.376 -0.2769 -0.3835 -0.0329
   65MOL0     C 8834   5.674   5.341   4.257  0.0578  0.2858  0.0865
   65MOL0     O 8835   5.656   5.233   4.177  0.5790 -0.0432  0.8059
   65MOL0     C 8836   5.699   5.112   4.223 -0.3341  0.9431 -0.3056
   65MOL0     C 8837   5.832   5.095   4.282  0.3325 -1.5591 -0.3676
   65MOL0     C 8838   5.877   4.980   4.328  1.6089 -0.5383 -0.7259
   65MOL0     C 8839   5.797   4.859   4.320 -0.3098 -0.5986 -0.1464
   65MOL0     O 8840   5.856   4.736   4.368  0.5811 -0.1791  0.1405
   65MOL0     C 8841   5.816   4.613   4.304  1.1248 -0.4625  0.6732
   65MOL0     C 8842   5.886   4.589   4.165  1.0040 -0.2853  0.6137
   65MOL0     C 8843   6.036   4.601   4.181 -0.4210  0.8169 -0.1891
   65MOL0     C 8844   6.105   4.493   4.273  0.7384  0.1386 -0.2213
   65MOL0     C 8845   6.262   4.535   4.289 -0.0256 -0.1826 -0.2575
   65MOL0     C 8846   6.345   4.503   4.172 -0.4502  0.4049  0.0941
   65MOL0     C 8847   6.497   4.533   4.192  0.7249 -0.7079  0.2965
   65MOL0     C 8848   6.584   4.486   4.079 -1.1106 -0.5149  1.0420
   65MOL0     N 8849   6.727   4.513   4.097 -0.2136  0.0376 -0.1188
   65MOL0     C 8850   6.835   4.550   4.008  0.8370 -0.0444 -1.0947
   65MOL0     C 8851   6.953   4.544   4.075  0.2130  0.0869  0.2399
   65MOL0     C 8852   7.093   4.579   4.043 -0.4095  0.5064 -0.4175
   65MOL0     C 8853   7.172   4.450   4.019  0.5672  0.6521 -0.3022
   65MOL0     C 8854   7.313   4.462   3.963 -0.1566  0.4762 -0.1054
   65MOL0     C 8855   7.393   4.338   3.957 -1.0105 -0.2417 -0.8173
   65MOL0     O 8856   7.361   4.269   3.838 -0.5774 -0.3342  0.4265
   65MOL0     C 8857   7.448   4.160   3.815  1.0756 -0.6257  0.8073
   65MOL0     C 8858   7.437   4.099   3.687  0.8397 -0.6041 -0.5610
   65MOL0     C 8859   7.516   3.989   3.650  1.1218 -0.8441  0.0672
   65MOL0     C 8860   7.471   3.928   3.526  0.5870 -0.4586  0.9070
   65MOL0     C 8861   7.622   3.950   3.737  0.5901 -0.1592  0.5239
   65MOL0     C 8862   7.732   3.865   3.682 -0.5469  0.6011 -0.5419
   65MOL0     O 8863   7.804   3.795   3.774  0.2762 -0.0362  0.0927
   65MOL0     C 8864   7.916   3.724   3.728 -0.5417 -0.5825  0.1224
   65MOL0     C 8865   8.020   3.730   3.814  0.6048 -0.6938 -0.7844
   65MOL0     C 8866   8.142   3.666   3.791  0.0929 -0.8610  0.3716
   65MOL0     C 8867   8.150   3.583   3.681  0.2270  0.2255  0.1140
   65MOL0     O 8868   8.257   3.509   3.649 -0.4642 -0.7007  0.1790
   65MOL0     C 8869   8.355   3.479   3.749  0.2831  0.3183 -0.3705
   65MOL0     C 8870   8.359   3.323   3.764 -0.4786 -0.1639  0.2906
   65MOL0     C 8871   8.233   3.265   3.826 -0.3574  0.3804 -0.2963
   65MOL0     C 8872   8.249   3.120   3.882 -0.1280  0.8808 -0.0461
   65MOL0     C 8873   8.249   3.011   3.781 -1.1163 -0.3811 -0.0062
   65MOL0     C 8874   8.101   2.992   3.739  0.3840 -0.5879  0.4231
   65MOL0     C 8875   8.079   2.890   3.629  1.1896  0.4356  0.0233
   65MOL0     C 8876   7.938   2.920   3.578 -0.2678  0.0978 -0.1481
   65MOL0    Cl 8877   7.808   2.885   3.700  0.2044  0.0828 -0.3587
   65MOL0     C 8878   8.040   3.570   3.589  0.5547 -1.3621 -0.5447
   65MOL0     C 8879   7.926   3.649   3.615  0.3948 -0.2822  0.2144
   65MOL0     O 8880   7.761   3.869   3.560 -0.1048 -0.4005  0.3518
   65MOL0     C 8881   7.637   4.015   3.859 -0.2749  0.0654  0.7184
   65MOL0     C 8882   7.548   4.110   3.900  0.7376  0.4412  0.2152
   65MOL0     N 8883   6.923   4.500   4.198  0.5988 -0.1773 -0.2414
   65MOL0     N 8884   6.796   4.481   4.214  0.1825 -0.2680  0.5622
   65MOL0     C 8885   5.664   4.870   4.279  0.6890 -0.1329  0.0174
   65MOL0     C 8886   5.618   4.995   4.221  1.1355 -0.0547  1.0821
   65MOL0     C 8887   5.651   5.466   4.199  0.2814 -0.0548  0.7454
   65MOL0     C 8888   5.626   5.482   4.063  0.4235 -1.0609  0.2699
   65MOL0     C 8889   5.618   5.610   4.008  0.3192 -0.1658  0.5815
   65MOL0     C 8890   5.641   5.725   4.078 -0.5507  0.3997  0.9526
   65MOL0     O 8891   5.659   5.854   4.031 -0.1936  0.4082 -0.0785
   65MOL0     C 8892   5.629   5.883   3.897 -0.6561  0.3059 -0.2612
   65MOL0     C 8893   5.758   5.853   3.809  0.0546 -0.4946  0.5456
   65MOL0     C 8894   5.729   5.878   3.660 -0.3243 -0.1482  0.2010
   65MOL0     C 8895   5.720   6.029   3.605  0.8251  0.6379 -0.1458
   65MOL0     C 8896   5.850   6.084   3.603 -0.1631 -0.2233 -0.0381
   65MOL0     C 8897   5.962   6.123   3.586  0.0595  0.0720  0.5181
   65MOL0     C 8898   5.655   5.715   4.216  0.3685 -0.2608  0.7440
   65MOL0     C 8899   5.660   5.589   4.275  0.0813  0.4481 -0.0733
   65MOL0     C 8900   5.688   5.603   4.425  0.4861  0.9266 -0.7214
   65MOL0     H 8901   5.908   5.173   4.280  0.5871 -1.5037  3.7696
   65MOL0     H 8902   5.978   4.981   4.369  1.6770 -1.0675 -0.8838
   65MOL0     H 8903   5.708   4.609   4.290  1.1427 -1.2699  0.7463
   65MOL0     H 8904   5.842   4.527   4.366 -1.3867 -2.9698 -1.4751
   65MOL0     H 8905   5.874   4.484   4.135  1.8970 -0.1783 -0.1671
   65MOL0     H 8906   5.847   4.654   4.086 -3.0432 -2.6799  0.3415
   65MOL0     H 8907   6.076   4.581   4.082 -1.5636  1.7289 -0.8551
   65MOL0     H 8908   6.065   4.698   4.224  0.0641 -0.1504  1.8011
   65MOL0     H 8909   6.059   4.511   4.371  3.5681  0.0585  1.2280
   65MOL0     H 8910   6.079   4.391   4.242  1.7482  0.1601 -1.1822
   65MOL0     H 8911   6.312   4.476   4.367  1.6542  0.6780 -0.6613
   65MOL0     H 8912   6.274   4.640   4.315 -0.3693  1.1335 -4.7236
   65MOL0     H 8913   6.343   4.398   4.143  0.2629 -0.2412  2.2028
   65MOL0     H 8914   6.306   4.551   4.082  0.6795 -1.3955 -1.4403
   65MOL0     H 8915   6.530   4.503   4.291  0.6566  1.3526  1.0019
   65MOL0     H 8916   6.513   4.640   4.208  0.7806 -1.0443  2.9008
   65MOL0     H 8917   6.563   4.380   4.062  0.7328 -0.4101 -3.0586
   65MOL0     H 8918   6.545   4.529   3.986 -2.1244 -1.3160  1.0735
   65MOL0     H 8919   6.832   4.557   3.900 -2.7436 -1.2932 -1.2324
   65MOL0     H 8920   7.141   4.646   4.116 -2.1660  1.4371 -0.0558
   65MOL0     H 8921   7.093   4.637   3.950 -2.2311  0.5622 -0.4206
   65MOL0     H 8922   7.173   4.391   4.111  0.1369  0.8751 -0.1486
   65MOL0     H 8923   7.122   4.392   3.940  4.9152 -1.3818 -1.8690
   65MOL0     H 8924   7.326   4.503   3.862 -3.0585 -1.1451 -1.2851
   65MOL0     H 8925   7.365   4.531   4.030  1.6732 -0.5298 -0.4378
   65MOL0     H 8926   7.500   4.362   3.955 -1.0675  0.1271  0.1841
   65MOL0     H 8927   7.383   4.278   4.048 -1.4993 -0.4345 -0.9995
   65MOL0     H 8928   7.361   4.139   3.621 -0.6297 -1.5952  0.4612
   65MOL0     H 8929   7.539   3.877   3.456  1.2320  0.5128  0.8157
   65MOL0     H 8930   7.419   4.005   3.468  0.5916 -0.2593  1.1687
   65MOL0     H 8931   7.395   3.857   3.560 -1.1416  1.3355  0.9246
   65MOL0     H 8932   8.009   3.803   3.894  0.8261  2.6368 -3.5811
   65MOL0     H 8933   8.213   3.686   3.870 -1.0698 -0.1747  1.2657
   65MOL0     H 8934   8.453   3.514   3.713  1.3552 -1.3689  0.7393
   65MOL0     H 8935   8.344   3.523   3.849 -1.0296  1.2878 -0.9162
   65MOL0     H 8936   8.379   3.280   3.666  0.9568 -2.0356  1.3335
   65MOL0     H 8937   8.454   3.299   3.814  0.5123 -0.5013 -1.6779
   65MOL0     H 8938   8.149   3.260   3.756 -0.1209  0.7956 -0.6141
   65MOL0     H 8939   8.197   3.331   3.905 -3.9345 -1.3514 -0.2344
   65MOL0     H 8940   8.161   3.091   3.940 -1.2616 -2.0629 -2.9567
   65MOL0     H 8941   8.343   3.117   3.937  1.5728 -0.5372 -2.7770
   65MOL0     H 8942   8.309   3.027   3.690  0.5696  1.4028  1.3314
   65MOL0     H 8943   8.294   2.918   3.817 -0.6431 -0.3684 -0.5406
   65MOL0     H 8944   8.066   3.088   3.702  1.8019 -0.0525  0.4109
   65MOL0     H 8945   8.036   2.961   3.822  0.9994 -0.0891  1.1031
   65MOL0     H 8946   8.081   2.784   3.654  0.4986 -0.2197 -2.4578
   65MOL0     H 8947   8.143   2.903   3.541  0.0978 -0.7708 -0.9746
   65MOL0     H 8948   7.914   2.860   3.490 -3.0303 -0.7583  1.0745
   65MOL0     H 8949   7.933   3.025   3.549  0.3947  0.3902  0.7244
   65MOL0     H 8950   8.042   3.510   3.499 -3.3307 -0.3196 -1.5293
   65MOL0     H 8951   7.842   3.629   3.550  0.3580 -0.0520  0.1898
   65MOL0     H 8952   7.729   4.001   3.913  1.7829  0.1978 -2.4712
   65MOL0     H 8953   7.561   4.153   3.999 -1.1341  2.3543 -0.2757
   65MOL0     H 8954   5.595   4.787   4.271  1.0316 -0.7306  2.5811
   65MOL0     H 8955   5.514   5.007   4.193  1.1182 -2.8274 -0.3925
   65MOL0     H 8956   5.627   5.397   3.995 -0.1018  0.3191 -1.5599
   65MOL0     H 8957   5.611   5.605   3.900  2.0935  0.5373  0.3845
   65MOL0     H 8958   5.534   5.839   3.865 -0.7138 -0.1233  0.4627
   65MOL0     H 8959   5.608   5.990   3.888  1.3017  0.6719 -0.7974
   65MOL0     H 8960   5.789   5.750   3.829 -0.9155 -0.3627  2.9879
   65MOL0     H 8961   5.833   5.925   3.843 -0.1940  0.8582 -1.6115
   65MOL0     H 8962   5.802   5.822   3.601 -2.2970 -2.2889 -0.3553
   65MOL0     H 8963   5.626   5.848   3.639 -0.6780  1.4747 -0.5735
   65MOL0     H 8964   5.645   6.079   3.667  0.7144 -2.5433  2.5662
   65MOL0     H 8965   5.693   6.029   3.499  0.8629  0.2288 -0.1580
   65MOL0     H 8966   6.063   6.160   3.592  0.4112 -0.6338 -0.7088
   65MOL0     H 8967   5.677   5.802   4.275  1.8061  0.2389 -0.4726
   65MOL0     H 8968   5.636   5.534   4.492 -1.5073  2.8026 -0.2225
   65MOL0     H 8969   5.797   5.591   4.432  0.4534  1.0465  0.2196
   65MOL0     H 8970   5.664   5.700   4.470  1.0152  0.3156  0.9609
   66MOL0     O 8971  10.003  10.491   5.147  0.0409 -0.1911 -0.1789
   66MOL0     C 8972   9.911  10.415   5.161 -0.5609  0.2660  0.4104
   66MOL0     O 8973   9.785  10.448   5.211 -0.1948 -0.2665 -0.4697
   66MOL0     C 8974   9.786  10.567   5.282  0.1544 -0.2236  0.2499
   66MOL0     C 8975   9.801  10.561   5.421  0.4161  0.6363 -0.0705
   66MOL0     C 8976   9.792  10.677   5.496 -0.6623  0.5386 -0.0085
   66MOL0     C 8977   9.765  10.795   5.438 -0.0095  0.0833  0.1341
   66MOL0     O 8978   9.757  10.908   5.523  0.2075 -0.2442  0.3914
   66MOL0     C 8979   9.709  11.033   5.471  0.0496  0.6366  0.2934
   66MOL0     C 8980   9.694  11.136   5.589  0.0395  0.3775 -0.0971
   66MOL0     C 8981   9.814  11.141   5.688  0.1351 -0.0852  0.0531
   66MOL0     C 8982   9.932  11.197   5.615 -0.7067 -0.4956  0.2854
   66MOL0     C 8983  10.061  11.206   5.706  0.0625  0.0667 -0.6527
   66MOL0     C 8984  10.182  11.235   5.611  0.0069  0.0247 -1.3615
   66MOL0     C 8985  10.273  11.113   5.615 -0.5312  0.2916  0.6615
   66MOL0     C 8986  10.402  11.149   5.528  0.3417  0.0075  0.0643
   66MOL0     N 8987  10.502  11.217   5.606 -0.1751  0.3341 -0.2180
   66MOL0     C 8988  10.566  11.160   5.719  0.5781 -0.5166 -0.7799
   66MOL0     C 8989  10.653  11.258   5.761 -0.6817 -0.3015 -0.4757
   66MOL0     C 8990  10.750  11.266   5.879  0.4813 -0.3232 -0.0355
   66MOL0     C 8991  10.862  11.154   5.864 -0.9662 -0.3626 -0.6176
   66MOL0     C 8992  10.972  11.178   5.755  0.2943  0.4719 -0.1184
   66MOL0     C 8993  11.104  11.100   5.779 -0.9885 -0.2026 -0.1564
   66MOL0     O 8994  11.087  10.967   5.827  0.2639  0.1091  0.0042
   66MOL0     C 8995  11.147  10.863   5.777  0.2242 -0.1969  0.0098
   66MOL0     C 8996  11.194  10.842   5.645  0.1720 -0.3916 -0.5155
   66MOL0     C 8997  11.272  10.727   5.609  0.3561  0.0217  0.7671
   66MOL0     C 8998  11.319  10.719   5.463  0.9184  0.0047 -0.3187
   66MOL0     C 8999  11.279  10.621   5.704 -0.0278 -0.7955 -0.3058
   66MOL0     C 9000  11.350  10.486   5.697  0.5740  0.2820  0.3400
   66MOL0     O 9001  11.378  10.422   5.815  0.6057 -0.4571  0.3670
   66MOL0     C 9002  11.414  10.289   5.822 -0.9756  0.0460  0.4077
   66MOL0     C 9003  11.548  10.252   5.772  0.3954  0.2897 -0.2189
   66MOL0     C 9004  11.593  10.122   5.777 -0.1137 -0.5193 -0.6316
   66MOL0     C 9005  11.512  10.026   5.835  0.3956 -0.6675 -0.2145
   66MOL0     O 9006  11.561   9.895   5.834 -0.0064 -0.2009  0.0125
   66MOL0     C 9007  11.537   9.816   5.946 -0.2371 -0.6586  0.3635
   66MOL0     C 9008  11.621   9.684   5.941 -0.6490 -0.7987  0.5884
   66MOL0     C 9009  11.665   9.624   6.079  0.3304  0.2318 -0.7819
   66MOL0     C 9010  11.644   9.476   6.070 -0.5885  0.2443  0.0393
   66MOL0     C 9011  11.710   9.398   6.183  0.1305 -0.4581 -0.2473
   66MOL0     C 9012  11.869   9.413   6.181 -0.0233 -0.3171 -0.2633
   66MOL0     C 9013  11.949   9.356   6.062  0.8711 -0.6293  0.5749
   66MOL0     C 9014  12.099   9.368   6.094 -0.3113 -0.8831  0.5662
   66MOL0    Cl 9015  12.149   9.530   6.147 -0.0142 -0.0446 -0.3849
   66MOL0     C 9016  11.391  10.068   5.896  0.0903  0.4137 -0.1186
   66MOL0     C 9017  11.339  10.191   5.889  0.6424 -0.5312  0.1302
   66MOL0     O 9018  11.384  10.440   5.589  0.0740 -0.3445  0.6293
   66MOL0     C 9019  11.231  10.654   5.833  0.9194  1.5957 -0.4969
   66MOL0     C 9020  11.168  10.762   5.869 -0.7821 -1.2822  0.2417
   66MOL0     N 9021  10.625  11.372   5.682 -0.1970 -0.0179 -0.0705
   66MOL0     N 9022  10.531  11.353   5.597  0.5376  0.5064  0.4087
   66MOL0     C 9023   9.749  10.806   5.299  0.2840  0.0294  0.0273
   66MOL0     C 9024   9.763  10.695   5.222  1.4690  1.0364  0.2904
   66MOL0     C 9025   9.930  10.278   5.087  0.3574 -0.0799 -0.0713
   66MOL0     C 9026  10.066  10.232   5.054  0.2453  0.2324 -0.1302
   66MOL0     C 9027  10.084  10.108   4.994 -0.0226  0.1848 -0.4559
   66MOL0     C 9028   9.980  10.026   4.960 -0.5960 -0.3976  0.6069
   66MOL0     O 9029  10.002   9.903   4.907 -0.0170  0.0747 -0.2379
   66MOL0     C 9030  10.120   9.829   4.959 -0.2680 -0.6596 -0.0338
   66MOL0     C 9031  10.128   9.685   4.902 -0.0469  0.2747  0.3145
   66MOL0     C 9032  10.143   9.659   4.753  0.6432  0.4337 -0.8638
   66MOL0     C 9033  10.145   9.524   4.692  0.4526  0.9035  0.6165
   66MOL0     C 9034  10.259   9.461   4.755  1.0614 -0.6769  0.1274
   66MOL0     C 9035  10.372   9.434   4.799  0.0610  0.2869  0.4345
   66MOL0     C 9036   9.849  10.075   4.977 -0.3202  0.8184 -0.3812
   66MOL0     C 9037   9.821  10.196   5.040  0.0618 -0.5317 -0.7507
   66MOL0     C 9038   9.671  10.249   5.033 -0.2062  1.2479  0.3509
   66MOL0     H 9039   9.815  10.464   5.468  0.9696  0.5430 -0.4166
   66MOL0     H 9040   9.792  10.666   5.604 -0.6614 -1.0983 -0.1595
   66MOL0     H 9041   9.609  11.028   5.427  0.8317  0.9880 -1.6243
   66MOL0     H 9042   9.778  11.077   5.398  1.9359 -1.9556  0.3550
   66MOL0     H 9043   9.683  11.237   5.549  1.2791  0.5790  0.0295
   66MOL0     H 9044   9.598  11.122   5.638  0.8456 -2.8616  0.7975
   66MOL0     H 9045   9.782  11.201   5.775  1.9895  2.6354 -0.9931
   66MOL0     H 9046   9.841  11.039   5.718  1.3229 -0.9383 -3.4917
   66MOL0     H 9047   9.953  11.135   5.527  2.1418 -0.9096  1.1681
   66MOL0     H 9048   9.914  11.297   5.574  3.0470 -0.2604 -1.1876
   66MOL0     H 9049  10.075  11.119   5.770 -0.4783  0.5398  0.1226
   66MOL0     H 9050  10.056  11.296   5.768  0.0922 -0.0329 -0.5047
   66MOL0     H 9051  10.153  11.259   5.508 -2.4143  3.9660  0.0284
   66MOL0     H 9052  10.227  11.327   5.651 -3.1604  0.3838  1.8331
   66MOL0     H 9053  10.209  11.034   5.573 -0.8536  0.9815 -0.1824
   66MOL0     H 9054  10.308  11.081   5.713 -1.3527 -0.0278  0.8562
   66MOL0     H 9055  10.455  11.060   5.493  0.8889 -0.7787  2.6648
   66MOL0     H 9056  10.363  11.211   5.447  0.0299  0.3488  0.4697
   66MOL0     H 9057  10.553  11.057   5.749 -0.6483  0.6384  3.1897
   66MOL0     H 9058  10.690  11.238   5.966  1.3597  0.6623  0.9109
   66MOL0     H 9059  10.800  11.363   5.886 -3.0750  1.7360 -0.9713
   66MOL0     H 9060  10.914  11.146   5.960 -0.1264 -1.2263 -1.1215
   66MOL0     H 9061  10.809  11.058   5.854 -2.1044 -0.1910  2.4631
   66MOL0     H 9062  10.931  11.139   5.662 -1.0427 -0.6398  0.8871
   66MOL0     H 9063  10.990  11.286   5.762  0.6077  0.3308  3.2455
   66MOL0     H 9064  11.162  11.105   5.687  1.8155 -0.3960  1.4620
   66MOL0     H 9065  11.162  11.149   5.858 -3.3923 -1.1249  2.3746
   66MOL0     H 9066  11.157  10.915   5.573  0.1879  0.4565  0.3051
   66MOL0     H 9067  11.258  10.649   5.405 -3.1999  1.8290  1.4549
   66MOL0     H 9068  11.426  10.698   5.461  0.5563 -1.9781 -1.5090
   66MOL0     H 9069  11.299  10.816   5.417 -1.1032 -0.6796 -0.9753
   66MOL0     H 9070  11.594  10.328   5.710 -2.0884 -0.0150 -2.6180
   66MOL0     H 9071  11.685  10.089   5.730  0.2809 -2.5848  1.3992
   66MOL0     H 9072  11.587   9.879   6.020  1.4345 -1.4087 -0.0713
   66MOL0     H 9073  11.433   9.795   5.972 -0.2733  2.2137  3.1683
   66MOL0     H 9074  11.578   9.612   5.871  1.3733 -0.6180 -0.9739
   66MOL0     H 9075  11.715   9.713   5.892  1.0916 -0.8670  3.6321
   66MOL0     H 9076  11.597   9.646   6.161 -0.4151 -0.1193 -1.2978
   66MOL0     H 9077  11.766   9.654   6.110  0.9494 -2.6460  0.2892
   66MOL0     H 9078  11.688   9.435   5.978  0.9581 -1.1491  1.3221
   66MOL0     H 9079  11.537   9.452   6.069 -0.7970  0.4359  3.8552
   66MOL0     H 9080  11.678   9.424   6.284  0.9398  1.7560 -0.4886
   66MOL0     H 9081  11.684   9.294   6.161 -0.3106  0.0676 -2.5099
   66MOL0     H 9082  11.901   9.364   6.272  0.3907 -1.8582 -1.2018
   66MOL0     H 9083  11.888   9.521   6.182 -6.0232  1.1758 -1.7794
   66MOL0     H 9084  11.931   9.422   5.977  0.6512 -0.0960  1.0332
   66MOL0     H 9085  11.928   9.252   6.034 -0.4868  0.1908 -1.7421
   66MOL0     H 9086  12.156   9.344   6.003  1.6348  1.0796  1.1611
   66MOL0     H 9087  12.143   9.288   6.155  2.0308 -0.5853 -0.5838
   66MOL0     H 9088  11.324   9.993   5.938  0.7741 -0.9310 -1.3242
   66MOL0     H 9089  11.239  10.203   5.930  1.1171 -0.2858  1.2494
   66MOL0     H 9090  11.225  10.575   5.908 -1.1678 -0.9420 -3.1063
   66MOL0     H 9091  11.134  10.768   5.972  0.3341  0.9740  0.5556
   66MOL0     H 9092   9.741  10.906   5.257  0.7944 -0.3728 -1.0424
   66MOL0     H 9093   9.767  10.697   5.114  1.0260 -3.0045  0.0508
   66MOL0     H 9094  10.147  10.292   5.093  0.2327  0.7960 -0.9477
   66MOL0     H 9095  10.189  10.095   4.971  0.2555 -0.4846  1.0605
   66MOL0     H 9096  10.212   9.876   4.924 -0.2205 -0.6206  0.1411
   66MOL0     H 9097  10.109   9.823   5.068 -1.7746  0.8605 -0.0511
   66MOL0     H 9098  10.036   9.632   4.928  0.5034  0.6849  3.5390
   66MOL0     H 9099  10.202   9.629   4.960 -1.9326 -1.3353  1.2742
   66MOL0     H 9100  10.071   9.721   4.699 -0.7510  0.8352  1.3281
   66MOL0     H 9101  10.238   9.708   4.733  1.6528 -1.7520 -1.7117
   66MOL0     H 9102  10.162   9.528   4.584  1.0681  4.7285  0.7201
   66MOL0     H 9103  10.050   9.477   4.719  0.8800  0.7766  1.9961
   66MOL0     H 9104  10.471   9.420   4.837 -0.5521  1.7772  2.8036
   66MOL0     H 9105   9.768  10.022   4.928 -0.2199  0.4546 -0.1569
   66MOL0     H 9106   9.668  10.358   5.033  1.3395  1.4082 -2.9561
   66MOL0     H 9107   9.624  10.217   4.939  0.0148  1.0748  0.2985
   66MOL0     H 9108   9.609  10.203   5.110 -0.9813 -0.2021 -1.0643
   67MOL0     O 9109   0.861   5.545   5.694 -0.5457 -0.6385 -0.1793
   67MOL0     C 9110   0.803   5.573   5.801  0.1212 -0.4288 -0.0641
   67MOL0     O 9111   0.864   5.563   5.924  0.0798 -0.0830  0.2710
   67MOL0     C 9112   0.989   5.507   5.914 -0.5407 -0.5069 -0.0000
   67MOL0     C 9113   1.022   5.384   5.967 -0.3104 -0.3000  0.6135
   67MOL0     C 9114   1.152   5.337   5.983 -0.1302 -1.2175 -0.2990
   67MOL0     C 9115   1.258   5.414   5.930 -0.3825 -0.1235  0.2972
   67MOL0     O 9116   1.385   5.363   5.930  0.4239 -0.2478 -0.8119
   67MOL0     C 9117   1.444   5.334   6.063  0.5682 -0.2082  0.6268
   67MOL0     C 9118   1.567   5.256   6.043 -0.0743  0.6115  0.5219
   67MOL0     C 9119   1.642   5.233   6.171  0.4152  0.3333  0.9667
   67MOL0     C 9120   1.787   5.194   6.148 -0.0421  0.0331 -0.1584
   67MOL0     C 9121   1.866   5.204   6.277  0.2551 -0.1338 -0.0185
   67MOL0     C 9122   1.984   5.105   6.292  0.0600 -0.1334  0.0804
   67MOL0     C 9123   2.085   5.173   6.399 -0.1885 -0.2564 -0.1159
   67MOL0     C 9124   2.204   5.075   6.421  0.0652 -0.4619  0.0854
   67MOL0     N 9125   2.295   5.116   6.517 -0.0048 -0.2601 -0.5125
   67MOL0     C 9126   2.377   5.230   6.528 -0.2160 -0.4892  0.1988
   67MOL0     C 9127   2.432   5.221   6.648 -0.1812 -0.2329  0.1281
   67MOL0     C 9128   2.546   5.313   6.701 -0.4696 -0.4691  0.7392
   67MOL0     C 9129   2.647   5.238   6.785  0.3552  0.3347 -0.4635
   67MOL0     C 9130   2.754   5.340   6.820  0.3342 -0.8729 -0.6593
   67MOL0     C 9131   2.718   5.425   6.942 -0.1997  0.5950  0.8505
   67MOL0     O 9132   2.824   5.522   6.965  0.1831 -0.3552 -0.3121
   67MOL0     C 9133   2.933   5.488   7.041  0.3844 -0.8776 -0.6819
   67MOL0     C 9134   3.037   5.582   7.039  0.3659  0.0177 -0.3756
   67MOL0     C 9135   3.157   5.564   7.107 -0.8101  0.2622 -0.0980
   67MOL0     C 9136   3.258   5.683   7.087  0.4568 -0.7640  0.1211
   67MOL0     C 9137   3.177   5.444   7.185  0.0915  0.1380  0.5004
   67MOL0     C 9138   3.298   5.410   7.260  0.7686 -0.3639  0.4726
   67MOL0     O 9139   3.297   5.309   7.355  0.0555  0.0004  0.2520
   67MOL0     C 9140   3.412   5.286   7.428 -0.3653  0.1005  0.1252
   67MOL0     C 9141   3.471   5.155   7.418  0.6652  0.1800  0.3834
   67MOL0     C 9142   3.582   5.115   7.492 -1.1233 -0.4702 -0.5089
   67MOL0     C 9143   3.637   5.200   7.584  0.3100 -0.4074  0.6335
   67MOL0     O 9144   3.731   5.162   7.672 -0.0328 -0.1140 -1.2657
   67MOL0     C 9145   3.823   5.071   7.603 -0.0347 -0.2765 -0.4814
   67MOL0     C 9146   3.949   5.051   7.685  0.9036  0.5925 -0.2103
   67MOL0     C 9147   4.063   4.978   7.607  0.7330 -0.2891  0.2855
   67MOL0     C 9148   4.202   5.005   7.672 -0.5056  0.9391 -0.2288
   67MOL0     C 9149   4.306   4.934   7.583 -0.4234  1.2287  0.5000
   67MOL0     C 9150   4.455   4.959   7.626  0.2501  0.6200 -0.0029
   67MOL0     C 9151   4.543   4.859   7.564  0.7340 -0.1518 -0.1133
   67MOL0     C 9152   4.686   4.881   7.613 -0.3241 -0.3944  0.0297
   67MOL0    Cl 9153   4.777   4.964   7.477  0.2108 -0.0166 -0.4818
   67MOL0     C 9154   3.576   5.326   7.603  0.9288 -0.3607  0.1395
   67MOL0     C 9155   3.465   5.367   7.519 -0.0777 -0.7981 -0.7565
   67MOL0     O 9156   3.395   5.470   7.220  0.3579 -0.5686 -0.3555
   67MOL0     C 9157   3.074   5.347   7.186  0.5198 -0.3123  1.2348
   67MOL0     C 9158   2.962   5.369   7.105  0.2664 -0.3920 -0.3067
   67MOL0     N 9159   2.376   5.120   6.723 -0.6567  0.1974 -0.4933
   67MOL0     N 9160   2.287   5.067   6.646 -0.4358  0.9105 -0.1651
   67MOL0     C 9161   1.229   5.535   5.865  0.3286 -0.0937  0.3327
   67MOL0     C 9162   1.099   5.585   5.864 -0.0728 -0.2012  0.2664
   67MOL0     C 9163   0.659   5.617   5.802 -0.1851  0.0800  0.1668
   67MOL0     C 9164   0.603   5.648   5.923 -0.2181 -0.3877  0.5779
   67MOL0     C 9165   0.477   5.701   5.940  0.6225  0.4745  0.3299
   67MOL0     C 9166   0.398   5.740   5.833 -0.2792 -0.3049  1.4451
   67MOL0     O 9167   0.282   5.808   5.833 -0.0773  1.2525  0.2848
   67MOL0     C 9168   0.260   5.912   5.918 -0.6396 -0.4841  0.1465
   67MOL0     C 9169   0.112   5.915   5.948 -0.0334 -0.3433 -0.7034
   67MOL0     C 9170   0.083   5.964   6.083 -0.0142  0.0106  0.1209
   67MOL0     C 9171   0.111   6.110   6.122  0.7300 -0.2435  0.5408
   67MOL0     C 9172   0.050   6.208   6.031 -0.2303 -0.3310  0.5316
   67MOL0     C 9173  -0.015   6.275   5.953 -0.2790  0.4351 -1.0923
   67MOL0     C 9174   0.446   5.692   5.711 -0.5498  1.1814  0.2874
   67MOL0     C 9175   0.571   5.635   5.694  0.3886 -0.1572 -0.8450
   67MOL0     C 9176   0.615   5.622   5.552 -0.7823 -0.4504 -0.7966
   67MOL0     H 9177   0.930   5.344   6.007 -1.3984  3.4458  2.2592
   67MOL0     H 9178   1.168   5.245   6.038 -1.6101 -0.3326  1.7479
   67MOL0     H 9179   1.366   5.285   6.123 -1.7191  0.2194 -1.7953
   67MOL0     H 9180   1.469   5.421   6.124 -1.3254  0.1097  1.0131
   67MOL0     H 9181   1.551   5.162   5.990  0.4211  0.3279  0.8676
   67MOL0     H 9182   1.630   5.322   5.981  2.3780 -0.8903  1.2604
   67MOL0     H 9183   1.637   5.331   6.220  0.1395  0.9590 -0.2876
   67MOL0     H 9184   1.599   5.159   6.240 -0.4870  1.5998  1.8074
   67MOL0     H 9185   1.796   5.089   6.118  2.8100 -0.1969  1.1585
   67MOL0     H 9186   1.820   5.248   6.059 -3.9844  0.0391 -1.8509
   67MOL0     H 9187   1.797   5.201   6.362  1.9019  0.0637  1.3781
   67MOL0     H 9188   1.900   5.308   6.286  1.5078 -0.6666  2.1026
   67MOL0     H 9189   1.941   5.010   6.326  1.5407 -0.7661  0.2721
   67MOL0     H 9190   2.030   5.100   6.193 -1.6460 -1.2219 -0.7112
   67MOL0     H 9191   2.029   5.184   6.492 -0.2311 -2.7175  0.2155
   67MOL0     H 9192   2.125   5.267   6.359  1.5494 -1.7536 -2.1247
   67MOL0     H 9193   2.157   4.979   6.444 -0.4560 -0.2152  0.0773
   67MOL0     H 9194   2.266   5.066   6.332 -1.9510 -1.8262 -1.2802
   67MOL0     H 9195   2.412   5.295   6.448 -1.2333 -0.4860 -0.2697
   67MOL0     H 9196   2.500   5.404   6.740 -1.3805  0.1292 -1.5739
   67MOL0     H 9197   2.602   5.344   6.611 -3.5008 -1.2287 -1.5730
   67MOL0     H 9198   2.580   5.197   6.862  3.0688 -2.4888  0.6062
   67MOL0     H 9199   2.704   5.160   6.734  2.0334  0.0727  1.7015
   67MOL0     H 9200   2.839   5.282   6.856 -0.9335 -1.1622  2.2094
   67MOL0     H 9201   2.775   5.402   6.732 -1.4470 -2.2665 -2.1597
   67MOL0     H 9202   2.617   5.461   6.919 -0.1650  1.1449  1.5138
   67MOL0     H 9203   2.718   5.358   7.028 -1.3262  1.2081  1.3473
   67MOL0     H 9204   3.021   5.670   6.977  0.4614 -0.0223 -0.4570
   67MOL0     H 9205   3.342   5.664   7.019 -0.6441 -0.7721 -1.2658
   67MOL0     H 9206   3.301   5.712   7.184  0.1582 -1.4846  0.4764
   67MOL0     H 9207   3.209   5.765   7.035 -0.7294 -2.0823 -0.8877
   67MOL0     H 9208   3.414   5.094   7.349 -1.3252  3.0780 -0.7126
   67MOL0     H 9209   3.627   5.017   7.481  3.2631  1.2544  0.1508
   67MOL0     H 9210   3.777   4.972   7.596 -0.4737  0.0057 -1.9142
   67MOL0     H 9211   3.857   5.099   7.503  1.9738 -4.0129 -1.0474
   67MOL0     H 9212   3.981   5.147   7.727 -0.2643  0.4988  0.9635
   67MOL0     H 9213   3.924   4.986   7.770 -0.3741 -1.3151 -1.9641
   67MOL0     H 9214   4.062   5.026   7.509  1.9865 -0.7866  0.0092
   67MOL0     H 9215   4.041   4.872   7.596 -2.2993  0.2222  0.6194
   67MOL0     H 9216   4.218   4.974   7.776  1.3104  0.2285 -0.6811
   67MOL0     H 9217   4.217   5.113   7.669  4.9417  0.6675  2.9559
   67MOL0     H 9218   4.294   4.827   7.603  2.2542  0.7816  0.1558
   67MOL0     H 9219   4.294   4.953   7.476  2.2013 -1.3010 -0.4026
   67MOL0     H 9220   4.468   4.974   7.733  0.2765  2.3808 -0.2160
   67MOL0     H 9221   4.494   5.057   7.595  0.2961  1.0628  1.4061
   67MOL0     H 9222   4.542   4.865   7.455  1.4894 -3.3937 -0.4166
   67MOL0     H 9223   4.506   4.761   7.595  0.7955 -0.1698 -0.0955
   67MOL0     H 9224   4.737   4.786   7.634  0.6826  0.0609 -0.3364
   67MOL0     H 9225   4.692   4.943   7.703 -2.8405  0.0652 -0.0512
   67MOL0     H 9226   3.601   5.384   7.691  2.1279  2.2777 -1.7977
   67MOL0     H 9227   3.416   5.459   7.550 -1.8026 -2.8732  3.3700
   67MOL0     H 9228   3.094   5.259   7.247 -0.7331  0.2223  2.4832
   67MOL0     H 9229   2.890   5.288   7.108 -1.6370  1.0453 -2.8670
   67MOL0     H 9230   1.306   5.599   5.823  0.5413 -0.7935 -0.3411
   67MOL0     H 9231   1.081   5.688   5.833  2.1660 -0.1141 -0.9355
   67MOL0     H 9232   0.658   5.642   6.016  0.9544  1.0184  0.0165
   67MOL0     H 9233   0.436   5.721   6.039 -0.8809 -3.5869  0.6888
   67MOL0     H 9234   0.316   5.890   6.009 -0.6663  0.0699  0.3009
   67MOL0     H 9235   0.299   6.002   5.869  0.1965 -1.1885 -0.5356
   67MOL0     H 9236   0.062   5.819   5.930 -2.6396  0.8236 -0.2800
   67MOL0     H 9237   0.076   5.990   5.877  1.3910 -0.1460 -1.2313
   67MOL0     H 9238  -0.022   5.936   6.098  0.4269 -2.5964 -0.9872
   67MOL0     H 9239   0.124   5.898   6.160 -2.9309  0.3552  2.1196
   67MOL0     H 9240   0.216   6.132   6.102  0.9404 -0.2360  1.6048
   67MOL0     H 9241   0.088   6.144   6.224  1.4865 -1.0715  1.0061
   67MOL0     H 9242  -0.075   6.340   5.892  0.6346 -0.9853 -3.6605
   67MOL0     H 9243   0.394   5.710   5.618  0.4865 -0.5146 -0.6652
   67MOL0     H 9244   0.540   5.632   5.473  1.3955  0.6067 -2.8744
   67MOL0     H 9245   0.691   5.699   5.533  0.3335 -1.5471 -0.8880
   67MOL0     H 9246   0.661   5.523   5.547 -1.4573 -1.0641  2.5921
   68MOL0     O 9247   3.781   4.076   2.769 -0.0494 -0.2117  0.1747
   68MOL0     C 9248   3.886   4.120   2.802  0.1170  0.1670 -0.8204
   68MOL0     O 9249   3.899   4.193   2.913  0.6695 -0.3261  0.0519
   68MOL0     C 9250   3.795   4.212   3.001  0.1972  0.5919  1.2327
   68MOL0     C 9251   3.775   4.335   3.065 -0.1135  0.7545 -0.3689
   68MOL0     C 9252   3.669   4.353   3.148  0.2466 -0.7267  0.5655
   68MOL0     C 9253   3.589   4.251   3.186  0.0355  0.6605 -1.0264
   68MOL0     O 9254   3.479   4.251   3.263  0.5980  0.7617  0.0791
   68MOL0     C 9255   3.424   4.375   3.305  0.0991  0.1761 -0.3364
   68MOL0     C 9256   3.286   4.350   3.372  0.5022  0.3924  0.5658
   68MOL0     C 9257   3.229   4.467   3.439  0.6908 -0.4822 -0.1308
   68MOL0     C 9258   3.188   4.574   3.344  0.7259  0.0803 -0.1000
   68MOL0     C 9259   3.082   4.673   3.390 -0.8612 -0.2082  0.4675
   68MOL0     C 9260   3.052   4.748   3.261 -0.1450  0.7365 -0.0388
   68MOL0     C 9261   2.974   4.877   3.291 -0.9821  0.9780  0.6024
   68MOL0     C 9262   2.977   4.973   3.172  1.0807  0.4738  1.0580
   68MOL0     N 9263   2.911   4.943   3.043  0.0035 -0.5634 -0.6148
   68MOL0     C 9264   2.970   4.959   2.920  0.0588 -0.1221  0.4573
   68MOL0     C 9265   2.854   4.966   2.838 -0.2424 -0.4113  0.1460
   68MOL0     C 9266   2.835   5.005   2.699  0.0341 -0.9538  0.4159
   68MOL0     C 9267   2.818   4.889   2.598  0.4914 -0.1223  0.4757
   68MOL0     C 9268   2.823   4.926   2.457  0.0770  0.1018  0.2962
   68MOL0     C 9269   2.970   4.958   2.420 -0.5737  0.6179 -0.0418
   68MOL0     O 9270   2.983   4.964   2.275 -0.1009  0.4575  0.2967
   68MOL0     C 9271   3.107   4.991   2.224  0.2168  0.6076 -0.7795
   68MOL0     C 9272   3.129   4.968   2.094  0.2056 -0.5188  0.1512
   68MOL0     C 9273   3.253   4.982   2.021 -0.4094 -0.3710 -0.0352
   68MOL0     C 9274   3.245   4.949   1.871  0.2167  0.1407  0.2150
   68MOL0     C 9275   3.366   5.014   2.089 -0.4481  0.3349  0.1420
   68MOL0     C 9276   3.493   5.037   2.034 -0.4416 -0.6271 -0.6194
   68MOL0     O 9277   3.601   4.986   2.098 -0.4573  0.5119  0.0178
   68MOL0     C 9278   3.722   4.972   2.034  0.9078  0.6763  0.1197
   68MOL0     C 9279   3.837   4.984   2.109 -0.4211 -0.1116 -0.3046
   68MOL0     C 9280   3.965   4.966   2.051  0.3217  0.1816  0.6825
   68MOL0     C 9281   3.976   4.932   1.913 -0.7086 -0.4442 -0.0249
   68MOL0     O 9282   4.093   4.903   1.852 -0.3979  0.6255  1.2325
   68MOL0     C 9283   4.214   4.953   1.911 -0.4302 -0.5008  0.3999
   68MOL0     C 9284   4.337   4.949   1.815  0.3744 -0.7153  1.4473
   68MOL0     C 9285   4.384   4.810   1.759 -0.5611 -1.1722 -0.9206
   68MOL0     C 9286   4.523   4.803   1.692  1.0796  0.0437  0.0013
   68MOL0     C 9287   4.553   4.662   1.627 -0.6644  0.3628 -0.2421
   68MOL0     C 9288   4.479   4.642   1.491 -0.4746 -0.7346 -0.1584
   68MOL0     C 9289   4.501   4.504   1.430  0.0501  0.1797 -0.5025
   68MOL0     C 9290   4.380   4.423   1.382 -0.7784  0.1496 -0.3501
   68MOL0    Cl 9291   4.419   4.248   1.391 -0.0129  0.2656 -0.2041
   68MOL0     C 9292   3.863   4.941   1.831  0.6815 -0.7371 -0.6622
   68MOL0     C 9293   3.739   4.966   1.899  0.7688  0.8368  0.6771
   68MOL0     O 9294   3.503   5.109   1.934  0.2788  0.3734 -0.1751
   68MOL0     C 9295   3.349   5.035   2.221  0.0465 -0.3265 -0.4754
   68MOL0     C 9296   3.228   5.025   2.291  0.4351  0.0073 -0.1473
   68MOL0     N 9297   2.743   4.937   2.910  0.2427  0.2140 -0.0239
   68MOL0     N 9298   2.779   4.922   3.031 -0.4245  0.1747  0.2972
   68MOL0     C 9299   3.610   4.133   3.134 -0.4461  0.9774  0.4411
   68MOL0     C 9300   3.716   4.103   3.050 -0.2275 -0.8486  0.1806
   68MOL0     C 9301   4.009   4.074   2.734  0.7704  0.2897  0.2810
   68MOL0     C 9302   4.136   4.103   2.799 -0.5194  0.2118  0.4316
   68MOL0     C 9303   4.254   4.069   2.735 -0.1459 -0.5919  0.4703
   68MOL0     C 9304   4.264   4.010   2.610 -0.4908  0.3230  0.5172
   68MOL0     O 9305   4.384   4.006   2.541  0.0784  0.0170  0.3358
   68MOL0     C 9306   4.484   4.104   2.569 -0.8101 -0.1523 -0.1237
   68MOL0     C 9307   4.609   4.087   2.483 -1.3154 -0.0130  1.3488
   68MOL0     C 9308   4.711   4.203   2.526  0.6508 -0.6349 -0.0370
   68MOL0     C 9309   4.854   4.185   2.455  0.4266 -1.2245  0.2649
   68MOL0     C 9310   4.934   4.312   2.446  0.2910 -0.4603 -0.3653
   68MOL0     C 9311   4.993   4.422   2.443  0.4693 -0.4289  0.1453
   68MOL0     C 9312   4.137   3.975   2.549  0.6165  0.1096 -0.7271
   68MOL0     C 9313   4.013   4.002   2.611  0.2304  0.7127 -0.1375
   68MOL0     C 9314   3.895   3.948   2.524  0.0315  0.4900  0.9720
   68MOL0     H 9315   3.845   4.413   3.040  0.2381  0.1708 -1.2706
   68MOL0     H 9316   3.665   4.449   3.198  1.1105  0.5026 -1.6101
   68MOL0     H 9317   3.399   4.454   3.234 -0.0387  1.7809  1.4415
   68MOL0     H 9318   3.495   4.420   3.374  1.1579 -1.3468 -0.3922
   68MOL0     H 9319   3.210   4.310   3.305  2.3835 -1.2702 -0.7092
   68MOL0     H 9320   3.302   4.279   3.455  0.2246 -0.4964 -0.1233
   68MOL0     H 9321   3.134   4.443   3.489  0.1943  2.4259  0.5346
   68MOL0     H 9322   3.288   4.506   3.522  0.2986 -1.0376  0.4097
   68MOL0     H 9323   3.276   4.626   3.304 -0.9358  4.2392  1.0715
   68MOL0     H 9324   3.160   4.512   3.258  3.0776 -2.6458  0.9738
   68MOL0     H 9325   3.118   4.731   3.476 -0.6062 -1.8229  1.4929
   68MOL0     H 9326   2.989   4.620   3.413  1.1512 -3.8172  1.0352
   68MOL0     H 9327   3.141   4.778   3.204 -1.2751 -2.6222 -4.0798
   68MOL0     H 9328   2.989   4.688   3.195  0.0783 -0.4266  0.7751
   68MOL0     H 9329   3.024   4.928   3.374 -2.2154  0.7301  1.5303
   68MOL0     H 9330   2.879   4.841   3.333  2.1260 -3.5003  4.9304
   68MOL0     H 9331   2.923   5.063   3.203 -2.1645 -1.3426  1.1007
   68MOL0     H 9332   3.083   4.990   3.150  0.9046 -1.5867 -1.9418
   68MOL0     H 9333   3.073   4.988   2.907  0.6411 -1.3551  2.0318
   68MOL0     H 9334   2.922   5.069   2.680 -2.4653  2.3953 -0.8531
   68MOL0     H 9335   2.756   5.080   2.689  1.4133  0.5113 -0.1172
   68MOL0     H 9336   2.889   4.811   2.629  0.8370 -0.5279 -1.2152
   68MOL0     H 9337   2.729   4.832   2.626  2.0277 -2.5356  0.7589
   68MOL0     H 9338   2.790   4.846   2.391  3.4615 -0.3384 -1.0827
   68MOL0     H 9339   2.756   5.011   2.447  0.4612  1.1768  4.7191
   68MOL0     H 9340   3.010   5.044   2.473 -1.8307  0.0508  1.9428
   68MOL0     H 9341   3.033   4.875   2.454 -0.4964  0.2011 -1.1624
   68MOL0     H 9342   3.046   4.936   2.032  1.0603 -3.5758  0.4228
   68MOL0     H 9343   3.290   4.850   1.857 -1.2845 -0.5325 -0.1143
   68MOL0     H 9344   3.291   5.027   1.810  0.8675 -0.7394 -0.4537
   68MOL0     H 9345   3.143   4.937   1.833  0.6538 -1.6350 -0.5385
   68MOL0     H 9346   3.830   5.007   2.215 -0.6233 -3.8810  0.6315
   68MOL0     H 9347   4.049   4.979   2.119  0.8372 -0.7296  0.2336
   68MOL0     H 9348   4.204   5.060   1.929  2.7850  0.2955 -1.7659
   68MOL0     H 9349   4.253   4.900   1.999 -1.6923 -0.4832  0.9899
   68MOL0     H 9350   4.324   5.007   1.724  0.3828 -1.1311  1.1775
   68MOL0     H 9351   4.424   4.993   1.865 -0.8527 -0.0573  3.0725
   68MOL0     H 9352   4.311   4.764   1.692  2.1371 -2.2924 -3.2799
   68MOL0     H 9353   4.386   4.746   1.848  0.3451 -0.0546 -0.1058
   68MOL0     H 9354   4.601   4.829   1.765 -0.4136  1.6116  1.1230
   68MOL0     H 9355   4.522   4.877   1.612  0.2174 -0.8867 -0.8778
   68MOL0     H 9356   4.662   4.655   1.618 -0.8132  0.5878 -3.3104
   68MOL0     H 9357   4.538   4.574   1.689  4.4071 -2.2175 -2.1248
   68MOL0     H 9358   4.532   4.720   1.434  0.4977  0.5557  2.3600
   68MOL0     H 9359   4.372   4.661   1.498 -0.0954  2.3911 -1.0305
   68MOL0     H 9360   4.563   4.435   1.488 -1.5217 -1.0708 -0.2369
   68MOL0     H 9361   4.555   4.527   1.338 -0.8129 -3.6688 -2.1482
   68MOL0     H 9362   4.338   4.457   1.287 -2.0242 -0.3809 -0.0047
   68MOL0     H 9363   4.300   4.446   1.453 -2.9121 -1.5797 -2.0432
   68MOL0     H 9364   3.875   4.927   1.724  3.6542  0.2644 -0.5524
   68MOL0     H 9365   3.664   4.966   1.821  1.8539 -1.8796 -0.5003
   68MOL0     H 9366   3.430   5.067   2.286 -0.1147  0.9159 -0.8654
   68MOL0     H 9367   3.234   5.027   2.399  0.6991  0.4263 -0.1692
   68MOL0     H 9368   3.553   4.045   3.163  3.4471 -2.2063 -0.6142
   68MOL0     H 9369   3.736   4.004   3.010  0.5446 -1.0223  0.9763
   68MOL0     H 9370   4.145   4.126   2.905 -0.2568  2.8711 -0.0927
   68MOL0     H 9371   4.343   4.092   2.793  0.1734 -2.2672  0.6888
   68MOL0     H 9372   4.441   4.205   2.572 -1.2551 -0.3583  1.2543
   68MOL0     H 9373   4.520   4.092   2.671 -0.7814  0.8587 -0.0050
   68MOL0     H 9374   4.588   4.096   2.376 -0.0780  1.3796  1.1826
   68MOL0     H 9375   4.662   3.994   2.502 -1.4974 -0.3082  0.4310
   68MOL0     H 9376   4.667   4.303   2.522  2.2543  0.0979 -0.2161
   68MOL0     H 9377   4.724   4.183   2.632 -2.1202  0.6741  0.6484
   68MOL0     H 9378   4.840   4.151   2.352  0.4602  0.1608 -0.2145
   68MOL0     H 9379   4.917   4.113   2.508  1.0043 -1.9106 -1.2783
   68MOL0     H 9380   5.059   4.506   2.440  1.6920 -1.3614 -0.2340
   68MOL0     H 9381   4.141   3.927   2.452  1.6499 -1.2243 -0.0635
   68MOL0     H 9382   3.849   3.856   2.560  2.6698 -1.5086 -0.4601
   68MOL0     H 9383   3.814   4.021   2.530 -1.0820 -0.5567 -0.5677
   68MOL0     H 9384   3.921   3.938   2.418  1.0983 -3.1810  1.4455
   69MOL0     O 9385  11.229   3.085   7.158 -0.0182  0.1551 -0.5583
   69MOL0     C 9386  11.281   2.986   7.108  0.1156  0.1208  0.1350
   69MOL0     O 9387  11.399   2.936   7.143  0.9728 -0.2198 -0.4527
   69MOL0     C 9388  11.492   3.028   7.195  1.2051  0.0803 -0.6765
   69MOL0     C 9389  11.476   3.105   7.309 -0.4276 -0.4016 -0.6362
   69MOL0     C 9390  11.591   3.174   7.363 -0.3882  0.0179  0.7174
   69MOL0     C 9391  11.721   3.174   7.306 -0.0476  0.5986  0.3435
   69MOL0     O 9392  11.825   3.251   7.348 -0.5051  0.7483 -0.0536
   69MOL0     C 9393  11.829   3.293   7.486 -0.3605 -0.5563 -0.1250
   69MOL0     C 9394  11.982   3.303   7.525 -0.4822 -0.6971  0.4329
   69MOL0     C 9395  12.053   3.168   7.495 -0.1434 -0.0535 -0.6303
   69MOL0     C 9396  12.208   3.174   7.474  1.0740  0.6953 -1.1080
   69MOL0     C 9397  12.247   3.037   7.428 -0.4741 -0.4408  0.1989
   69MOL0     C 9398  12.401   3.042   7.419 -0.3471 -0.4397  0.3348
   69MOL0     C 9399  12.454   2.899   7.378 -0.4070 -0.4529 -0.0295
   69MOL0     C 9400  12.537   2.845   7.500  0.4453 -0.1800 -0.3861
   69MOL0     N 9401  12.576   2.705   7.474 -0.1207 -0.0756  0.5797
   69MOL0     C 9402  12.507   2.589   7.499  0.0955  0.4507  0.3129
   69MOL0     C 9403  12.606   2.495   7.483  0.4470  0.7804 -0.7668
   69MOL0     C 9404  12.592   2.351   7.512 -0.5081  0.4021 -0.9173
   69MOL0     C 9405  12.602   2.329   7.663  0.4966 -0.0316 -0.0510
   69MOL0     C 9406  12.544   2.194   7.713  0.0892 -0.3016  0.4543
   69MOL0     C 9407  12.629   2.078   7.681  0.7361  0.3804 -1.6712
   69MOL0     O 9408  12.751   2.069   7.745 -0.0865  0.1884 -0.2297
   69MOL0     C 9409  12.833   1.965   7.712  0.2471  0.7654 -0.3294
   69MOL0     C 9410  12.916   1.898   7.807  1.0149 -0.3534  0.4998
   69MOL0     C 9411  13.013   1.795   7.771  0.4266  0.3441 -0.4999
   69MOL0     C 9412  13.084   1.738   7.895  0.1279  0.0340 -0.0419
   69MOL0     C 9413  13.018   1.742   7.642  0.4836  0.3323  0.5102
   69MOL0     C 9414  13.098   1.623   7.605 -0.2588  0.9132 -0.0332
   69MOL0     O 9415  13.108   1.598   7.468 -0.1071 -0.6587 -0.0059
   69MOL0     C 9416  13.208   1.528   7.414  0.5980  0.8339  1.0028
   69MOL0     C 9417  13.333   1.512   7.468  0.0497  0.1352  0.1198
   69MOL0     C 9418  13.433   1.437   7.402  0.2305  0.3194 -0.3507
   69MOL0     C 9419  13.398   1.368   7.286 -0.1213  0.1995 -0.2607
   69MOL0     O 9420  13.490   1.272   7.242 -0.0128 -0.7486  0.0097
   69MOL0     C 9421  13.524   1.292   7.103 -0.7095 -0.1817 -0.8902
   69MOL0     C 9422  13.633   1.201   7.050  0.0553 -0.6977  0.2119
   69MOL0     C 9423  13.717   1.255   6.938 -0.1860  0.6840  0.6800
   69MOL0     C 9424  13.842   1.161   6.918 -0.1756 -0.3386 -0.3853
   69MOL0     C 9425  13.901   1.177   6.786 -0.1235  0.6379  0.3328
   69MOL0     C 9426  14.032   1.093   6.785 -0.2371  0.2620  0.4643
   69MOL0     C 9427  14.128   1.140   6.675  0.6286 -0.4379 -0.1118
   69MOL0     C 9428  14.233   1.032   6.665 -0.4723  0.3793 -0.2201
   69MOL0    Cl 9429  14.156   0.881   6.599 -0.6477  0.0044 -0.3531
   69MOL0     C 9430  13.272   1.386   7.227 -0.2201  0.4481  0.4146
   69MOL0     C 9431  13.178   1.471   7.294  0.1780  0.5220  0.2091
   69MOL0     O 9432  13.142   1.540   7.692  0.2896 -0.4571  0.3362
   69MOL0     C 9433  12.936   1.808   7.545 -1.0902 -0.6665 -0.4212
   69MOL0     C 9434  12.848   1.915   7.576  0.4401 -0.1193  0.0076
   69MOL0     N 9435  12.731   2.548   7.457  0.7045 -0.0532 -0.0321
   69MOL0     N 9436  12.710   2.682   7.458 -0.2811  0.8022 -0.3481
   69MOL0     C 9437  11.730   3.088   7.189  0.5447  0.7467 -0.3280
   69MOL0     C 9438  11.617   3.027   7.122  0.1031  0.1347 -0.0836
   69MOL0     C 9439  11.193   2.904   7.020 -0.0586 -0.1240  0.6343
   69MOL0     C 9440  11.056   2.919   7.034 -0.0377 -0.6625 -0.5797
   69MOL0     C 9441  10.965   2.840   6.969  0.0808  0.3061 -0.1670
   69MOL0     C 9442  11.009   2.740   6.885  1.2993  0.3849 -0.5354
   69MOL0     O 9443  10.917   2.662   6.824  0.2142 -0.4026 -0.5578
   69MOL0     C 9444  10.956   2.597   6.706  0.8807  0.4787 -0.0213
   69MOL0     C 9445  10.988   2.694   6.587  0.5254 -0.8628 -0.0064
   69MOL0     C 9446  10.856   2.763   6.537  0.0846  1.0478 -0.2411
   69MOL0     C 9447  10.768   2.677   6.438  0.8396  0.4759  0.4424
   69MOL0     C 9448  10.635   2.728   6.404 -0.1605 -0.0181  1.0225
   69MOL0     C 9449  10.536   2.798   6.378 -1.0921 -0.7530  0.5819
   69MOL0     C 9450  11.145   2.724   6.875 -0.2326 -0.1124  0.7155
   69MOL0     C 9451  11.239   2.805   6.938  0.5285  0.0119 -0.2049
   69MOL0     C 9452  11.383   2.786   6.888 -0.0274 -0.3714 -0.0541
   69MOL0     H 9453  11.379   3.112   7.358 -0.3491  0.8373 -0.6465
   69MOL0     H 9454  11.577   3.234   7.453  2.0372  0.2527  1.0038
   69MOL0     H 9455  11.778   3.225   7.554 -1.7837  2.4832  2.0849
   69MOL0     H 9456  11.772   3.386   7.493 -0.3321  0.2765 -6.0661
   69MOL0     H 9457  12.029   3.385   7.470 -1.0530 -0.8403 -0.2811
   69MOL0     H 9458  11.988   3.308   7.634  2.3802 -1.1278  0.3732
   69MOL0     H 9459  12.029   3.102   7.579  3.7170 -1.3066 -0.2801
   69MOL0     H 9460  12.011   3.115   7.409  0.1128  0.2302 -0.9340
   69MOL0     H 9461  12.248   3.250   7.406  4.7253  1.0819  1.2127
   69MOL0     H 9462  12.256   3.193   7.570  2.1972  2.0149 -1.8896
   69MOL0     H 9463  12.195   3.001   7.339  1.0048 -2.2270 -0.0018
   69MOL0     H 9464  12.228   2.960   7.503  3.7617 -3.2796 -1.2705
   69MOL0     H 9465  12.423   3.111   7.338 -0.3803 -1.4399 -0.5528
   69MOL0     H 9466  12.444   3.081   7.512 -2.3719  0.1922  1.0674
   69MOL0     H 9467  12.517   2.910   7.289 -1.3993  1.2263 -0.5662
   69MOL0     H 9468  12.370   2.834   7.352  0.2504 -1.0860 -0.6302
   69MOL0     H 9469  12.629   2.903   7.514 -0.1139  0.3210  1.3985
   69MOL0     H 9470  12.478   2.863   7.590  0.2117  1.0659 -0.7764
   69MOL0     H 9471  12.404   2.573   7.528  0.4260  0.9377  1.8132
   69MOL0     H 9472  12.669   2.289   7.465  1.0761  0.7179  1.1285
   69MOL0     H 9473  12.494   2.333   7.467 -0.2465  1.8032 -2.1376
   69MOL0     H 9474  12.709   2.329   7.688  0.0616 -2.3610  2.2614
   69MOL0     H 9475  12.543   2.410   7.707 -0.6102 -1.1645  0.6227
   69MOL0     H 9476  12.536   2.199   7.822 -1.6409 -0.7751  0.3885
   69MOL0     H 9477  12.442   2.167   7.683  0.1751  0.7516 -0.9077
   69MOL0     H 9478  12.565   1.992   7.706  0.3916  1.2597  0.6673
   69MOL0     H 9479  12.643   2.086   7.573  1.9426  1.3641 -1.4604
   69MOL0     H 9480  12.904   1.916   7.913  1.7520 -0.1974  0.5627
   69MOL0     H 9481  13.063   1.796   7.986  0.0884 -0.2781  0.1474
   69MOL0     H 9482  13.192   1.752   7.889 -0.1145  2.0444 -0.3500
   69MOL0     H 9483  13.061   1.631   7.900  0.1926 -0.0128 -0.6689
   69MOL0     H 9484  13.344   1.589   7.544  3.3148  0.2466 -0.3023
   69MOL0     H 9485  13.534   1.435   7.441  0.8257 -0.2976 -1.8162
   69MOL0     H 9486  13.436   1.285   7.038 -0.9605 -0.8340 -0.4965
   69MOL0     H 9487  13.565   1.393   7.094  3.1629 -1.3123  1.6971
   69MOL0     H 9488  13.708   1.199   7.129  1.3331 -1.0724 -0.9764
   69MOL0     H 9489  13.592   1.101   7.033  1.9366 -1.4189 -0.3292
   69MOL0     H 9490  13.747   1.358   6.960 -0.4838  0.7104  0.9702
   69MOL0     H 9491  13.662   1.257   6.844 -0.0690  0.0542  0.5959
   69MOL0     H 9492  13.817   1.055   6.931 -2.9669  0.2731 -0.1491
   69MOL0     H 9493  13.915   1.194   6.992  0.6978 -0.4934 -1.1581
   69MOL0     H 9494  13.837   1.146   6.703  0.3957  0.2230  0.0822
   69MOL0     H 9495  13.924   1.283   6.773  1.7556  0.2892  0.5091
   69MOL0     H 9496  14.005   0.989   6.769 -2.1222  1.1580 -3.2593
   69MOL0     H 9497  14.075   1.108   6.884 -2.6256 -0.0873  1.6314
   69MOL0     H 9498  14.172   1.239   6.691  1.3615 -0.7170 -0.3572
   69MOL0     H 9499  14.068   1.137   6.584  0.1093 -3.5481  0.2153
   69MOL0     H 9500  14.287   1.021   6.759 -0.8175 -0.7365 -0.1478
   69MOL0     H 9501  14.311   1.057   6.592  1.1510  1.4355  1.7866
   69MOL0     H 9502  13.246   1.319   7.146  0.8717  0.1835  0.2669
   69MOL0     H 9503  13.086   1.509   7.249 -0.9026  0.4843  2.2478
   69MOL0     H 9504  12.946   1.776   7.441  1.1518 -3.2094  0.4534
   69MOL0     H 9505  12.786   1.954   7.496 -0.1918 -2.2696 -0.6098
   69MOL0     H 9506  11.827   3.104   7.144  0.2832  1.4170 -0.6642
   69MOL0     H 9507  11.632   2.962   7.036 -1.8887 -0.0754 -0.3122
   69MOL0     H 9508  11.005   2.990   7.098  0.9596  0.4580 -1.0088
   69MOL0     H 9509  10.862   2.844   7.004 -0.8334  0.1725 -2.6311
   69MOL0     H 9510  11.042   2.531   6.721  0.3933 -0.1908 -0.1212
   69MOL0     H 9511  10.874   2.527   6.686  1.3891 -0.2720  0.4550
   69MOL0     H 9512  11.042   2.645   6.504  2.7313 -1.5148  1.6978
   69MOL0     H 9513  11.057   2.763   6.636 -0.7029 -0.7816  1.7030
   69MOL0     H 9514  10.796   2.787   6.625 -3.9954 -1.2083 -2.1183
   69MOL0     H 9515  10.890   2.854   6.487 -2.2494  4.0275  3.1488
   69MOL0     H 9516  10.750   2.576   6.475  0.5119 -0.5911 -2.4077
   69MOL0     H 9517  10.826   2.666   6.346 -1.1860 -0.2228 -0.8133
   69MOL0     H 9518  10.449   2.861   6.376  0.5420  1.6925 -2.2952
   69MOL0     H 9519  11.186   2.637   6.825 -0.4868  0.3221 -0.2762
   69MOL0     H 9520  11.420   2.872   6.831 -3.8589  0.9506 -0.8740
   69MOL0     H 9521  11.432   2.763   6.983 -3.2786  0.2552  1.9377
   69MOL0     H 9522  11.403   2.693   6.836 -0.1937 -1.2718  1.4371
   70MOL0     O 9523   1.125   7.635   1.418 -0.9465 -0.3633 -0.1357
   70MOL0     C 9524   1.042   7.722   1.421 -0.4561  0.5553  0.7126
   70MOL0     O 9525   1.044   7.843   1.352  0.5290  0.1975 -0.1920
   70MOL0     C 9526   1.144   7.880   1.262 -0.1741  0.3133 -0.4830
   70MOL0     C 9527   1.226   7.782   1.199 -0.5388  0.6841 -0.1758
   70MOL0     C 9528   1.320   7.820   1.105  0.5085  0.2857  0.8563
   70MOL0     C 9529   1.339   7.957   1.071  0.3205  0.3464 -0.0917
   70MOL0     O 9530   1.448   7.994   0.993 -0.0969  0.1487 -0.1682
   70MOL0     C 9531   1.505   7.913   0.886  0.0407 -0.2981 -0.6286
   70MOL0     C 9532   1.615   7.976   0.817  0.1884  0.4460  0.2840
   70MOL0     C 9533   1.581   8.112   0.765  0.0538 -0.6255 -0.3160
   70MOL0     C 9534   1.497   8.098   0.631 -0.3591 -0.3973  0.3959
   70MOL0     C 9535   1.530   8.223   0.544  0.3132 -0.3522 -0.0754
   70MOL0     C 9536   1.462   8.227   0.403  0.5309  0.2260  0.7037
   70MOL0     C 9537   1.504   8.361   0.333  0.8638  0.5043 -0.5490
   70MOL0     C 9538   1.643   8.352   0.265 -0.3200 -0.4000  0.0613
   70MOL0     N 9539   1.679   8.463   0.180  0.2047 -0.1815 -0.6600
   70MOL0     C 9540   1.804   8.520   0.172 -0.0537  0.7865 -0.2518
   70MOL0     C 9541   1.785   8.627   0.094  0.5769 -0.6655 -0.1583
   70MOL0     C 9542   1.890   8.726   0.051  0.4305  0.8571 -0.4098
   70MOL0     C 9543   1.972   8.763   0.163 -0.8493 -0.2899 -0.3522
   70MOL0     C 9544   2.082   8.859   0.120  0.0979  0.5938  0.9995
   70MOL0     C 9545   2.207   8.790   0.053  0.0570  0.5758  0.3574
   70MOL0     O 9546   2.300   8.871  -0.014  0.2320  0.6832  0.5218
   70MOL0     C 9547   2.430   8.840   0.006  0.2505  0.8508  0.3397
   70MOL0     C 9548   2.479   8.711   0.014 -0.4005  0.2593  0.2869
   70MOL0     C 9549   2.618   8.683   0.026  0.2594  0.6577 -0.5936
   70MOL0     C 9550   2.660   8.545   0.050  0.2728 -0.2237  0.3543
   70MOL0     C 9551   2.707   8.796   0.023  0.5921 -0.1075 -0.4396
   70MOL0     C 9552   2.853   8.785   0.043 -0.4917 -0.6161 -0.1176
   70MOL0     O 9553   2.922   8.900   0.083 -0.3917  0.0711 -0.1101
   70MOL0     C 9554   3.054   8.888   0.137  0.2627 -0.6864 -0.4954
   70MOL0     C 9555   3.148   8.985   0.109  0.6399 -0.4025 -1.1211
   70MOL0     C 9556   3.278   8.978   0.157  0.4597  0.2779  0.9074
   70MOL0     C 9557   3.326   8.870   0.233  0.2560 -0.4938  0.1644
   70MOL0     O 9558   3.440   8.853   0.301 -0.4607  0.2687  0.2977
   70MOL0     C 9559   3.552   8.934   0.269  0.0721 -0.0469 -0.1628
   70MOL0     C 9560   3.644   8.961   0.392 -0.4538  0.3254  0.2743
   70MOL0     C 9561   3.749   8.846   0.417  0.0872  0.2438 -0.5714
   70MOL0     C 9562   3.690   8.708   0.459  0.4216  0.0748  0.8738
   70MOL0     C 9563   3.783   8.621   0.546 -0.1467 -0.2169 -0.5934
   70MOL0     C 9564   3.723   8.487   0.580 -0.2927  0.3735 -1.2779
   70MOL0     C 9565   3.589   8.484   0.661 -0.3694 -0.5030  0.1214
   70MOL0     C 9566   3.591   8.572   0.788  0.1905  0.2514  0.0355
   70MOL0    Cl 9567   3.702   8.520   0.920  0.2309  0.2550  0.1684
   70MOL0     C 9568   3.229   8.769   0.257 -0.2690 -0.4097  0.4643
   70MOL0     C 9569   3.100   8.775   0.204  0.5642  0.0533 -0.8006
   70MOL0     O 9570   2.902   8.682   0.006  0.8643 -0.6964  0.4190
   70MOL0     C 9571   2.658   8.929   0.014 -0.0140 -0.7047 -0.0320
   70MOL0     C 9572   2.522   8.941  -0.002 -0.1859 -0.1972  0.2361
   70MOL0     N 9573   1.654   8.623   0.042 -0.0258 -0.2953  0.3902
   70MOL0     N 9574   1.592   8.533   0.108  0.7435 -0.4247  0.6962
   70MOL0     C 9575   1.247   8.050   1.120  0.0292 -0.1117  0.8551
   70MOL0     C 9576   1.149   8.012   1.217  0.4192  0.3419  0.0444
   70MOL0     C 9577   0.919   7.685   1.509  0.1431 -0.8942  0.7301
   70MOL0     C 9578   0.938   7.593   1.607  0.6691 -1.3136  0.2214
   70MOL0     C 9579   0.829   7.535   1.673  0.0536  0.7975 -0.2143
   70MOL0     C 9580   0.699   7.579   1.659  0.7924 -0.0613 -0.2255
   70MOL0     O 9581   0.587   7.528   1.721 -0.0198  0.5247 -1.2079
   70MOL0     C 9582   0.601   7.418   1.821  0.0951  0.6427  0.2741
   70MOL0     C 9583   0.484   7.397   1.904  1.1398  0.3386 -0.5526
   70MOL0     C 9584   0.370   7.316   1.831 -0.1537  0.7262 -0.2447
   70MOL0     C 9585   0.304   7.403   1.727 -0.2023 -1.3720  0.5248
   70MOL0     C 9586   0.212   7.325   1.638  1.2566 -0.0825  0.4634
   70MOL0     C 9587   0.149   7.268   1.549  0.0984 -0.3497  0.7863
   70MOL0     C 9588   0.678   7.684   1.563 -0.1899 -1.2195 -0.1820
   70MOL0     C 9589   0.788   7.743   1.491  0.0964 -0.7244 -0.1828
   70MOL0     C 9590   0.761   7.858   1.392  0.1031  1.1130 -0.5518
   70MOL0     H 9591   1.213   7.677   1.224 -1.2369  0.4917 -1.2837
   70MOL0     H 9592   1.377   7.738   1.065 -1.3758  0.4466 -2.4937
   70MOL0     H 9593   1.431   7.900   0.807  0.1315 -0.7513 -0.6447
   70MOL0     H 9594   1.538   7.815   0.922 -0.7038 -0.5917 -0.7139
   70MOL0     H 9595   1.694   7.981   0.893 -0.0838  3.5269  0.4969
   70MOL0     H 9596   1.654   7.914   0.735 -2.2035 -1.4178  0.4550
   70MOL0     H 9597   1.518   8.162   0.839  1.9649 -0.7715  1.5186
   70MOL0     H 9598   1.670   8.175   0.753  1.9089 -2.8901  0.8397
   70MOL0     H 9599   1.539   8.011   0.578 -0.9750 -1.3934  1.5034
   70MOL0     H 9600   1.390   8.086   0.648 -0.0295 -2.6656  1.3341
   70MOL0     H 9601   1.638   8.232   0.533 -0.0117  1.9940 -2.0060
   70MOL0     H 9602   1.498   8.313   0.598 -0.7379 -0.1479 -1.0114
   70MOL0     H 9603   1.486   8.135   0.348 -0.4668  0.2889  0.1450
   70MOL0     H 9604   1.354   8.224   0.421  0.7616 -0.7390  2.0026
   70MOL0     H 9605   1.504   8.438   0.411 -0.2762 -0.1241  0.0845
   70MOL0     H 9606   1.429   8.387   0.258  1.9412  0.0529 -1.8222
   70MOL0     H 9607   1.720   8.333   0.340 -0.0917 -0.6755 -0.2392
   70MOL0     H 9608   1.639   8.265   0.199  1.6863  0.3943 -1.2245
   70MOL0     H 9609   1.889   8.478   0.226 -0.7067  1.8969  1.7438
   70MOL0     H 9610   1.854   8.821   0.012 -1.1106 -0.3150 -2.0259
   70MOL0     H 9611   1.954   8.681  -0.026  0.6521  1.6279 -0.6813
   70MOL0     H 9612   1.904   8.806   0.237 -1.4483 -0.1688 -0.9670
   70MOL0     H 9613   2.028   8.677   0.201  0.2933  0.4661 -0.2733
   70MOL0     H 9614   2.040   8.922   0.040  0.2271 -1.0162 -0.3995
   70MOL0     H 9615   2.119   8.914   0.207  0.8761  0.6845  0.6284
   70MOL0     H 9616   2.261   8.737   0.132  0.7027  1.8936  0.8310
   70MOL0     H 9617   2.173   8.716  -0.020  1.7843 -0.8610  0.9524
   70MOL0     H 9618   2.411   8.626   0.009 -1.5875  1.2106 -0.1194
   70MOL0     H 9619   2.693   8.531   0.154 -1.6474  0.7997  1.1615
   70MOL0     H 9620   2.734   8.507  -0.021 -1.8113  1.5234 -2.9824
   70MOL0     H 9621   2.580   8.471   0.038  1.9662 -2.1935  0.5693
   70MOL0     H 9622   3.106   9.066   0.050 -0.5713  0.7683  1.1991
   70MOL0     H 9623   3.346   9.059   0.133  2.4219 -1.5149  0.1169
   70MOL0     H 9624   3.612   8.900   0.184  0.4931  3.2303 -1.3356
   70MOL0     H 9625   3.513   9.030   0.234 -0.0460  0.5145  1.3975
   70MOL0     H 9626   3.700   9.053   0.372 -0.3211  0.4728  1.2550
   70MOL0     H 9627   3.586   8.981   0.483  1.4335 -1.1241  1.8892
   70MOL0     H 9628   3.809   8.884   0.500 -2.2236  0.4884  1.0773
   70MOL0     H 9629   3.815   8.828   0.332  1.1814 -1.1956  0.5368
   70MOL0     H 9630   3.670   8.652   0.368  1.3773 -2.7923  2.3305
   70MOL0     H 9631   3.589   8.724   0.499  0.4531  2.1973  0.2330
   70MOL0     H 9632   3.873   8.604   0.486  1.4138 -1.5553  1.9528
   70MOL0     H 9633   3.811   8.683   0.632 -1.5999  0.7045 -0.7453
   70MOL0     H 9634   3.795   8.441   0.648 -3.3690 -2.4963  0.3648
   70MOL0     H 9635   3.724   8.424   0.491  0.3861 -1.9167  0.2631
   70MOL0     H 9636   3.552   8.385   0.687 -0.5456 -1.0474 -2.0711
   70MOL0     H 9637   3.507   8.514   0.596 -1.5179 -3.9918 -0.2334
   70MOL0     H 9638   3.488   8.568   0.826 -0.3039  0.0459 -1.2661
   70MOL0     H 9639   3.613   8.675   0.758 -1.8110  0.8535  0.4535
   70MOL0     H 9640   3.258   8.686   0.322  2.4861  1.8789  2.4171
   70MOL0     H 9641   3.039   8.690   0.233  1.2644  0.0480  0.7244
   70MOL0     H 9642   2.727   9.012   0.020  0.3547 -1.0872  2.2689
   70MOL0     H 9643   2.493   9.041  -0.035  1.6457  0.9533  1.9180
   70MOL0     H 9644   1.257   8.153   1.088 -0.1255 -0.9313 -2.1682
   70MOL0     H 9645   1.091   8.086   1.272 -0.0719  0.3910 -0.5282
   70MOL0     H 9646   1.035   7.551   1.636  1.3046  0.7430  1.2228
   70MOL0     H 9647   0.852   7.450   1.736  1.3501  1.4120  0.1717
   70MOL0     H 9648   0.631   7.330   1.766 -0.7665  0.7331 -0.3630
   70MOL0     H 9649   0.683   7.429   1.893 -0.1474 -0.0261  0.6556
   70MOL0     H 9650   0.448   7.496   1.934  0.0033 -0.6249  1.4673
   70MOL0     H 9651   0.502   7.347   1.999  0.4455  0.8538 -0.1359
   70MOL0     H 9652   0.407   7.225   1.785 -1.0304  0.4602 -0.4408
   70MOL0     H 9653   0.300   7.281   1.908  2.2046 -2.0925  0.8044
   70MOL0     H 9654   0.377   7.458   1.667  0.0651  3.8582  4.8558
   70MOL0     H 9655   0.250   7.472   1.793  1.3069 -2.3264  2.9101
   70MOL0     H 9656   0.094   7.235   1.463 -2.1556  5.5523 -0.5474
   70MOL0     H 9657   0.573   7.701   1.542  0.0877 -0.0413 -0.6748
   70MOL0     H 9658   0.653   7.879   1.391 -0.0270  0.5415  0.2981
   70MOL0     H 9659   0.811   7.951   1.419  1.7544  0.2643 -0.5615
   70MOL0     H 9660   0.793   7.839   1.290  0.7914 -1.1633  0.0297
   71MOL0     O 9661  10.310   0.688  11.109  0.1171 -0.2359 -0.0009
   71MOL0     C 9662  10.329   0.801  11.072 -0.4732 -1.0426 -0.2816
   71MOL0     O 9663  10.452   0.856  11.080 -0.1441 -0.3562 -0.0667
   71MOL0     C 9664  10.530   0.834  11.190 -0.7603  1.0196 -0.7807
   71MOL0     C 9665  10.652   0.907  11.192  0.2350  0.2548 -0.5796
   71MOL0     C 9666  10.728   0.911  11.306  0.2953 -0.0615  0.4620
   71MOL0     C 9667  10.707   0.826  11.414  0.4594  0.2795  0.1330
   71MOL0     O 9668  10.780   0.820  11.534  0.0654  0.5002  0.2513
   71MOL0     C 9669  10.883   0.920  11.551  0.8936  0.8943  0.1081
   71MOL0     C 9670  10.957   0.890  11.676 -0.1034 -0.0866 -1.0479
   71MOL0     C 9671  11.061   0.988  11.720 -0.5365 -0.5760  0.1045
   71MOL0     C 9672  11.193   0.973  11.635  0.4037  0.3766 -0.2192
   71MOL0     C 9673  11.193   1.032  11.502  0.4002 -0.0382 -0.1644
   71MOL0     C 9674  11.200   1.182  11.488  0.0917 -0.8799  0.1095
   71MOL0     C 9675  11.246   1.214  11.350 -0.7574 -0.9306  0.3474
   71MOL0     C 9676  11.263   1.364  11.333  0.3020  0.8221  0.2480
   71MOL0     N 9677  11.348   1.420  11.433 -0.5717 -0.0533 -0.5204
   71MOL0     C 9678  11.469   1.372  11.473 -0.1473 -0.9514  0.5219
   71MOL0     C 9679  11.513   1.448  11.576 -0.3705 -0.2192  0.3770
   71MOL0     C 9680  11.644   1.411  11.638 -0.2919  0.7475  0.0547
   71MOL0     C 9681  11.695   1.492  11.755 -0.2447  0.8860 -0.4146
   71MOL0     C 9682  11.827   1.427  11.799  0.6428  0.7210  0.2415
   71MOL0     C 9683  11.915   1.528  11.872  0.1613 -0.5508 -0.4877
   71MOL0     O 9684  12.056   1.482  11.883  0.1772 -0.0121 -0.2976
   71MOL0     C 9685  12.118   1.522  11.993 -0.4992 -0.0194 -0.1664
   71MOL0     C 9686  12.197   1.431  12.064  0.1508  0.7499 -0.1694
   71MOL0     C 9687  12.261   1.460  12.185 -0.8770 -0.3939  0.0628
   71MOL0     C 9688  12.332   1.346  12.259  0.5126 -0.2241 -0.1366
   71MOL0     C 9689  12.249   1.592  12.231 -0.0149  0.3366 -0.1581
   71MOL0     C 9690  12.325   1.630  12.352 -0.5918  1.1661  0.9853
   71MOL0     O 9691  12.453   1.588  12.366 -0.4817 -0.7382 -0.2638
   71MOL0     C 9692  12.516   1.639  12.476  0.3138 -0.3059 -0.1638
   71MOL0     C 9693  12.479   1.594  12.606  0.2076  0.1460 -0.4986
   71MOL0     C 9694  12.532   1.647  12.719  0.2835 -1.0355  0.0542
   71MOL0     C 9695  12.648   1.724  12.702 -0.6352  0.6957 -1.5254
   71MOL0     O 9696  12.707   1.780  12.822 -0.0386  0.5901  0.5210
   71MOL0     C 9697  12.814   1.713  12.878  0.3504 -0.0087 -0.2957
   71MOL0     C 9698  12.859   1.781  13.008  0.7041 -0.4382 -0.0499
   71MOL0     C 9699  12.745   1.781  13.112 -1.1602 -0.0093 -1.0663
   71MOL0     C 9700  12.774   1.863  13.233 -0.2396 -0.0156  0.7641
   71MOL0     C 9701  12.671   1.841  13.344 -0.9262  0.1980  0.4594
   71MOL0     C 9702  12.693   1.914  13.471 -0.1107  0.7520  0.5989
   71MOL0     C 9703  12.580   1.911  13.572 -0.4201  0.0441  0.4379
   71MOL0     C 9704  12.555   1.762  13.614  0.7676  0.0519  0.0133
   71MOL0    Cl 9705  12.694   1.674  13.684  0.1390 -0.2251  0.3449
   71MOL0     C 9706  12.698   1.753  12.582  0.5272  0.0734 -0.2457
   71MOL0     C 9707  12.631   1.711  12.469  0.4384  0.4423 -0.0838
   71MOL0     O 9708  12.267   1.699  12.427 -0.0638 -0.0558 -0.3981
   71MOL0     C 9709  12.169   1.690  12.164  0.6778  0.5882  0.5241
   71MOL0     C 9710  12.109   1.647  12.038 -0.1466  0.5059 -0.2487
   71MOL0     N 9711  11.413   1.541  11.601  0.0245 -0.0952 -0.2460
   71MOL0     N 9712  11.310   1.524  11.514 -0.7549  0.4086  0.1854
   71MOL0     C 9713  10.594   0.743  11.416 -0.3337  0.1851 -0.3012
   71MOL0     C 9714  10.511   0.741  11.300 -0.4643 -1.1486 -0.9000
   71MOL0     C 9715  10.219   0.865  11.007 -0.7496 -0.1827  0.0665
   71MOL0     C 9716  10.109   0.780  10.982 -0.7796 -0.5673 -0.2849
   71MOL0     C 9717  10.005   0.825  10.916 -0.5332 -0.4260  0.5690
   71MOL0     C 9718   9.997   0.954  10.860 -0.0845 -1.7955 -0.2047
   71MOL0     O 9719   9.890   0.990  10.786  0.2135  0.6445 -0.1304
   71MOL0     C 9720   9.868   1.120  10.725 -0.4577  0.7163 -0.0838
   71MOL0     C 9721   9.809   1.223  10.816  0.4582 -0.0422 -0.3005
   71MOL0     C 9722   9.758   1.359  10.760 -0.3733  0.5829  0.4766
   71MOL0     C 9723   9.872   1.457  10.705  0.8154 -0.2470  0.0737
   71MOL0     C 9724  10.001   1.440  10.771 -0.8413 -1.3644 -0.1205
   71MOL0     C 9725  10.114   1.442  10.819 -0.3995  0.0876  0.0581
   71MOL0     C 9726  10.104   1.042  10.888 -0.1887  0.3460 -0.5466
   71MOL0     C 9727  10.212   1.003  10.967 -0.3525 -0.7754 -0.0473
   71MOL0     C 9728  10.327   1.104  10.977  0.1693 -0.1144  0.4436
   71MOL0     H 9729  10.675   0.968  11.106 -0.8039 -1.7079 -2.3586
   71MOL0     H 9730  10.820   0.967  11.292 -0.0671  0.6712  1.0106
   71MOL0     H 9731  10.835   1.019  11.549  1.6526  1.2702 -1.4067
   71MOL0     H 9732  10.952   0.917  11.466  1.3948  1.0814  0.5061
   71MOL0     H 9733  10.880   0.895  11.753  1.9003 -1.5701  1.1828
   71MOL0     H 9734  11.003   0.792  11.689  1.7285  0.9556  0.9934
   71MOL0     H 9735  11.014   1.086  11.702  1.0592  0.3294  0.6463
   71MOL0     H 9736  11.091   0.964  11.822  1.0711 -3.5767 -0.9656
   71MOL0     H 9737  11.270   1.022  11.696  0.2011 -0.5031  0.7638
   71MOL0     H 9738  11.229   0.870  11.626 -0.9774 -0.7435  4.5385
   71MOL0     H 9739  11.116   1.001  11.430 -0.1738  2.9442 -0.9677
   71MOL0     H 9740  11.285   0.989  11.462 -0.2937 -1.6900 -0.0800
   71MOL0     H 9741  11.106   1.233  11.510  0.1318 -1.3285  1.4146
   71MOL0     H 9742  11.270   1.229  11.557 -1.9981  2.5394  0.1236
   71MOL0     H 9743  11.177   1.180  11.272 -2.0774  0.0722  1.0175
   71MOL0     H 9744  11.345   1.171  11.333 -1.2444 -0.7196 -4.1524
   71MOL0     H 9745  11.292   1.391  11.231  0.5017 -0.1299  0.0445
   71MOL0     H 9746  11.162   1.405  11.334  0.2987  0.8228  1.4679
   71MOL0     H 9747  11.523   1.291  11.425  2.5304  0.0239  1.6741
   71MOL0     H 9748  11.716   1.405  11.556  1.0910 -2.0778  1.3490
   71MOL0     H 9749  11.633   1.308  11.672  0.5293  0.8997  0.8405
   71MOL0     H 9750  11.709   1.593  11.717  0.1654 -0.5917 -4.7829
   71MOL0     H 9751  11.631   1.498  11.844  1.4856 -1.9960  1.1745
   71MOL0     H 9752  11.805   1.344  11.867  0.2481  1.7053  1.3553
   71MOL0     H 9753  11.885   1.386  11.716 -1.8155 -2.6200 -0.0566
   71MOL0     H 9754  11.911   1.620  11.814  1.4012 -1.9163 -2.8718
   71MOL0     H 9755  11.872   1.551  11.970 -0.7716 -1.1303 -0.7453
   71MOL0     H 9756  12.214   1.327  12.036 -0.6533  0.6557 -0.3116
   71MOL0     H 9757  12.278   1.325  12.352  0.5846  1.5274  0.3460
   71MOL0     H 9758  12.436   1.372  12.282 -0.4543  1.0645  3.4723
   71MOL0     H 9759  12.344   1.255  12.201  0.5750 -0.3496  0.0714
   71MOL0     H 9760  12.406   1.514  12.617 -1.4295  1.4205 -1.5558
   71MOL0     H 9761  12.499   1.628  12.821 -0.1687  2.1251  0.6070
   71MOL0     H 9762  12.788   1.611  12.910 -1.4480  0.8264  1.1513
   71MOL0     H 9763  12.900   1.713  12.811  0.5879 -0.1684  0.0053
   71MOL0     H 9764  12.951   1.728  13.038  0.6831 -0.3422  0.1914
   71MOL0     H 9765  12.875   1.887  12.990 -0.9083 -0.5754 -2.6561
   71MOL0     H 9766  12.732   1.679  13.150  1.6314  0.5254  1.7392
   71MOL0     H 9767  12.658   1.827  13.063 -0.9018  2.2908  0.4770
   71MOL0     H 9768  12.764   1.967  13.200  0.9458 -0.7969 -2.4640
   71MOL0     H 9769  12.868   1.836  13.281  0.2879 -1.7541 -1.1088
   71MOL0     H 9770  12.570   1.857  13.306 -1.6874 -1.3402  1.7358
   71MOL0     H 9771  12.679   1.736  13.373 -0.0037 -0.2893 -1.3866
   71MOL0     H 9772  12.703   2.022  13.453 -0.3005  0.5301 -0.9918
   71MOL0     H 9773  12.786   1.876  13.513 -1.9679 -0.4617  3.9565
   71MOL0     H 9774  12.495   1.968  13.532  0.5056 -0.1876 -2.0021
   71MOL0     H 9775  12.607   1.965  13.663 -2.0539  1.8143 -0.0479
   71MOL0     H 9776  12.531   1.707  13.523  1.2252 -0.9505  0.4746
   71MOL0     H 9777  12.477   1.760  13.690  1.5951  1.9574  0.9761
   71MOL0     H 9778  12.786   1.816  12.592  0.4218  0.3441 -0.9435
   71MOL0     H 9779  12.670   1.754  12.377  1.8487 -0.8208 -0.1168
   71MOL0     H 9780  12.165   1.796  12.187 -3.8077  0.8593 -0.5895
   71MOL0     H 9781  12.047   1.723  11.991 -0.9990  0.0368  0.0807
   71MOL0     H 9782  10.579   0.682  11.505  0.1441  3.3764  2.1495
   71MOL0     H 9783  10.416   0.689  11.302  0.3542 -2.7121  1.4950
   71MOL0     H 9784  10.104   0.676  11.011 -0.6528 -0.6467 -0.5459
   71MOL0     H 9785   9.921   0.759  10.896  2.5572 -3.2481 -5.8059
   71MOL0     H 9786   9.960   1.164  10.686 -0.0303 -1.5441 -1.8579
   71MOL0     H 9787   9.800   1.107  10.640 -4.3506 -1.5473  2.9717
   71MOL0     H 9788   9.885   1.242  10.893  2.5684  1.3601 -2.5948
   71MOL0     H 9789   9.725   1.175  10.868  0.3618 -2.4021 -2.4761
   71MOL0     H 9790   9.687   1.340  10.680  0.7209 -2.2416  0.0811
   71MOL0     H 9791   9.699   1.402  10.842  0.1628 -0.4123  1.4259
   71MOL0     H 9792   9.845   1.563  10.705  3.7860  0.5938  0.1872
   71MOL0     H 9793   9.892   1.442  10.599 -0.4721  1.9117 -0.5311
   71MOL0     H 9794  10.206   1.451  10.873 -0.3923 -2.9301  0.7592
   71MOL0     H 9795  10.101   1.144  10.852  3.8110  0.5435 -0.7224
   71MOL0     H 9796  10.399   1.065  10.905 -3.3952 -1.2406 -2.9023
   71MOL0     H 9797  10.286   1.202  10.947  1.3147 -0.9783 -5.0334
   71MOL0     H 9798  10.370   1.110  11.077  0.2209 -1.8066  0.5365
   72MOL0     O 9799   4.818   6.421   5.351  0.0631 -0.6813  0.6129
   72MOL0     C 9800   4.820   6.373   5.236 -0.3956 -0.3507  0.6771
   72MOL0     O 9801   4.935   6.351   5.168  1.2315  0.0319  0.1449
   72MOL0     C 9802   5.052   6.341   5.245 -0.0194 -0.7377  0.0154
   72MOL0     C 9803   5.077   6.224   5.319 -0.7314 -0.7700  0.2035
   72MOL0     C 9804   5.193   6.205   5.388  0.5288 -0.3231 -0.5595
   72MOL0     C 9805   5.293   6.303   5.388  0.5665  0.3853  0.3653
   72MOL0     O 9806   5.408   6.293   5.462  0.6495  0.3125 -0.0997
   72MOL0     C 9807   5.439   6.158   5.502 -0.1516 -0.2189 -0.1559
   72MOL0     C 9808   5.559   6.141   5.597 -0.6256  0.0759 -0.0572
   72MOL0     C 9809   5.685   6.213   5.536  0.0253  0.0796 -0.3914
   72MOL0     C 9810   5.795   6.227   5.650 -0.3388 -0.7175  0.3113
   72MOL0     C 9811   5.915   6.302   5.584 -0.6176  0.1727  0.1199
   72MOL0     C 9812   6.041   6.303   5.677 -0.4074  0.0697 -0.6848
   72MOL0     C 9813   6.170   6.324   5.598  0.3188 -0.4577 -0.1688
   72MOL0     C 9814   6.228   6.202   5.524  0.5963 -0.2163 -0.5755
   72MOL0     N 9815   6.359   6.240   5.469  0.1428 -0.1519 -0.4661
   72MOL0     C 9816   6.379   6.285   5.337 -0.9964 -0.7932 -0.4518
   72MOL0     C 9817   6.517   6.294   5.328  0.5557  0.1827  0.5639
   72MOL0     C 9818   6.591   6.342   5.213  0.0333 -0.1799  0.7507
   72MOL0     C 9819   6.607   6.217   5.118 -0.0093  0.3497  0.1964
   72MOL0     C 9820   6.682   6.253   4.991 -0.5350 -0.2674 -0.0675
   72MOL0     C 9821   6.826   6.293   5.027 -0.5338  0.1332  0.4496
   72MOL0     O 9822   6.835   6.433   5.052 -0.1399  0.3063  0.2604
   72MOL0     C 9823   6.932   6.492   4.979 -0.7581  0.3524 -0.7246
   72MOL0     C 9824   6.904   6.510   4.843  0.8908 -0.0600  0.1742
   72MOL0     C 9825   7.000   6.579   4.764  0.1513  0.0125 -0.0472
   72MOL0     C 9826   6.967   6.604   4.613 -0.4955 -0.1422 -0.5321
   72MOL0     C 9827   7.128   6.616   4.819 -0.3087 -0.5147  0.1748
   72MOL0     C 9828   7.235   6.674   4.737  0.2748 -0.3677  0.0088
   72MOL0     O 9829   7.232   6.791   4.673 -0.0736  0.1526  0.2524
   72MOL0     C 9830   7.337   6.820   4.587  0.2035  0.3424  0.7222
   72MOL0     C 9831   7.305   6.897   4.472 -0.9790  0.5968 -0.0456
   72MOL0     C 9832   7.399   6.954   4.381 -0.1348  0.7092 -0.7348
   72MOL0     C 9833   7.537   6.934   4.409  0.5828  0.3674  0.0022
   72MOL0     O 9834   7.640   6.991   4.334  0.5523 -0.1882  0.5282
   72MOL0     C 9835   7.608   7.101   4.247 -0.4926  0.3538  0.5442
   72MOL0     C 9836   7.700   7.103   4.124 -0.8846  0.4637 -0.1118
   72MOL0     C 9837   7.697   7.220   4.040  0.2253  0.3530 -0.5600
   72MOL0     C 9838   7.779   7.204   3.902  0.6479 -0.0968 -0.4901
   72MOL0     C 9839   7.747   7.313   3.813  0.1618  0.4409  0.0315
   72MOL0     C 9840   7.870   7.370   3.745  0.4579  0.0839  0.3692
   72MOL0     C 9841   7.957   7.273   3.670 -0.5417  0.5494 -0.4045
   72MOL0     C 9842   8.053   7.353   3.591 -0.4658  0.1164  0.8895
   72MOL0    Cl 9843   8.177   7.246   3.522  0.4331 -0.3717 -0.2337
   72MOL0     C 9844   7.576   6.860   4.522 -0.2352 -0.6273  0.3600
   72MOL0     C 9845   7.474   6.809   4.609 -0.3776  0.5351  0.0420
   72MOL0     O 9846   7.330   6.599   4.741 -0.1262 -0.1003 -0.1189
   72MOL0     C 9847   7.156   6.576   4.952 -0.5775 -0.4525 -0.9448
   72MOL0     C 9848   7.060   6.504   5.029  0.4137 -0.4592  0.2969
   72MOL0     N 9849   6.568   6.228   5.440 -0.1984 -1.0500  0.1539
   72MOL0     N 9850   6.477   6.206   5.526  0.3341 -0.8978 -1.0149
   72MOL0     C 9851   5.263   6.422   5.315 -0.6320 -0.3236 -1.1069
   72MOL0     C 9852   5.147   6.442   5.238 -0.7939  0.3693 -0.8365
   72MOL0     C 9853   4.690   6.344   5.176 -0.8601 -0.9365 -0.7301
   72MOL0     C 9854   4.580   6.435   5.193  0.2702  0.2283 -0.0480
   72MOL0     C 9855   4.459   6.413   5.123 -0.6594 -0.4473 -0.1077
   72MOL0     C 9856   4.447   6.294   5.057  0.7231 -0.1176  0.4592
   72MOL0     O 9857   4.340   6.273   4.960 -0.0162 -0.2508 -0.4753
   72MOL0     C 9858   4.358   6.276   4.816 -0.3185 -0.2945  0.0130
   72MOL0     C 9859   4.277   6.152   4.751 -0.2950 -0.0855 -0.0538
   72MOL0     C 9860   4.308   6.153   4.599 -0.7497 -0.1434  0.2096
   72MOL0     C 9861   4.309   6.011   4.539 -0.9024  0.3460  0.2365
   72MOL0     C 9862   4.167   5.965   4.533 -0.2805 -0.3999  0.1874
   72MOL0     C 9863   4.046   5.941   4.538  0.4283 -0.4531 -0.4454
   72MOL0     C 9864   4.548   6.205   5.042 -0.4638  0.1201 -0.7930
   72MOL0     C 9865   4.669   6.231   5.107 -0.2744  0.4233  0.3238
   72MOL0     C 9866   4.762   6.112   5.108  0.8691  0.6075 -0.1376
   72MOL0     H 9867   5.003   6.145   5.323 -1.0049 -0.6176 -1.1360
   72MOL0     H 9868   5.195   6.120   5.456 -0.5843  1.3656  1.7301
   72MOL0     H 9869   5.454   6.089   5.418 -4.1871  0.8793 -2.0175
   72MOL0     H 9870   5.361   6.113   5.563 -0.2172 -0.5095 -0.4516
   72MOL0     H 9871   5.538   6.181   5.696 -0.5430  1.5783 -0.6155
   72MOL0     H 9872   5.575   6.034   5.612 -2.4308 -0.4675 -1.5895
   72MOL0     H 9873   5.724   6.152   5.454  0.0362 -0.2788 -0.1248
   72MOL0     H 9874   5.659   6.316   5.510  0.2186 -0.4234 -2.8538
   72MOL0     H 9875   5.762   6.304   5.721  1.9802  1.8123 -1.1626
   72MOL0     H 9876   5.827   6.133   5.697 -1.2926 -1.5529 -0.6648
   72MOL0     H 9877   5.885   6.401   5.548  3.6072  1.9352  0.8546
   72MOL0     H 9878   5.937   6.252   5.490  0.0013 -1.3086  1.0053
   72MOL0     H 9879   6.023   6.381   5.751 -4.1970 -0.9915 -0.2671
   72MOL0     H 9880   6.047   6.210   5.735  2.7125 -1.0323 -2.4798
   72MOL0     H 9881   6.249   6.357   5.666 -1.6625  1.1320  1.5385
   72MOL0     H 9882   6.148   6.406   5.528 -1.2173 -1.0780 -0.4550
   72MOL0     H 9883   6.239   6.124   5.600  0.9384  0.6787  0.3156
   72MOL0     H 9884   6.160   6.162   5.449 -1.8059 -0.7509  1.7297
   72MOL0     H 9885   6.296   6.310   5.272 -1.7594  1.5140  1.2843
   72MOL0     H 9886   6.687   6.381   5.247  0.1027  2.4368 -2.0241
   72MOL0     H 9887   6.532   6.418   5.160  0.1004 -0.8339 -0.2874
   72MOL0     H 9888   6.646   6.128   5.166  1.3609  0.8248  0.0064
   72MOL0     H 9889   6.506   6.185   5.091 -0.1913 -0.6657  1.9680
   72MOL0     H 9890   6.699   6.161   4.934  0.1351  0.4134 -0.9963
   72MOL0     H 9891   6.635   6.330   4.929  0.4120  0.2903 -0.0984
   72MOL0     H 9892   6.863   6.239   5.115 -1.4475  2.0716  2.1011
   72MOL0     H 9893   6.887   6.260   4.942 -0.0464 -2.3083  1.6359
   72MOL0     H 9894   6.805   6.489   4.805  1.0820  1.4133 -1.2395
   72MOL0     H 9895   7.035   6.552   4.544  0.7922  0.0386  0.5339
   72MOL0     H 9896   6.968   6.712   4.598 -3.4262  0.3244  1.7936
   72MOL0     H 9897   6.870   6.560   4.589 -0.3360 -0.2898 -0.9076
   72MOL0     H 9898   7.199   6.915   4.459 -2.0349 -2.2378  3.2067
   72MOL0     H 9899   7.353   7.020   4.308  1.8764  1.6130 -1.2644
   72MOL0     H 9900   7.503   7.096   4.219 -1.4067  3.4519  2.8218
   72MOL0     H 9901   7.605   7.197   4.299 -0.2822  0.8013 -0.2527
   72MOL0     H 9902   7.805   7.090   4.153 -1.3782 -0.5954  1.3107
   72MOL0     H 9903   7.680   7.018   4.058  0.6298 -3.5989  4.0803
   72MOL0     H 9904   7.747   7.300   4.096  1.8398 -0.7687 -0.3217
   72MOL0     H 9905   7.595   7.254   4.016  0.6595  2.9147  0.7942
   72MOL0     H 9906   7.759   7.116   3.840 -1.3650  0.3650 -0.5743
   72MOL0     H 9907   7.883   7.209   3.934  0.7620  1.6612 -1.0483
   72MOL0     H 9908   7.678   7.285   3.733  2.0778  2.3142 -2.4173
   72MOL0     H 9909   7.700   7.400   3.861 -0.1228 -0.0598  0.6776
   72MOL0     H 9910   7.931   7.415   3.824 -2.4302 -0.2071  2.9461
   72MOL0     H 9911   7.829   7.440   3.671 -0.6761 -1.9121 -0.9796
   72MOL0     H 9912   7.898   7.215   3.598 -0.8592  1.0485 -0.5516
   72MOL0     H 9913   8.015   7.212   3.739 -0.1761 -1.0406 -2.0467
   72MOL0     H 9914   8.091   7.434   3.655  0.6099 -1.4215  2.3099
   72MOL0     H 9915   7.992   7.399   3.514  0.2635  3.0703  1.9662
   72MOL0     H 9916   7.683   6.850   4.539  0.1399  0.2254 -1.2206
   72MOL0     H 9917   7.513   6.748   4.690 -0.8276  0.0386 -0.1092
   72MOL0     H 9918   7.245   6.616   4.998 -0.2958  0.1535 -1.9745
   72MOL0     H 9919   7.086   6.469   5.129  0.4078  0.7031  0.7207
   72MOL0     H 9920   5.343   6.495   5.300 -2.5560  1.8284 -1.4647
   72MOL0     H 9921   5.122   6.527   5.175 -1.4011  0.8495  0.0310
   72MOL0     H 9922   4.597   6.531   5.242  0.6113 -0.2439  0.7704
   72MOL0     H 9923   4.374   6.479   5.137  0.4718  0.8516  1.0138
   72MOL0     H 9924   4.325   6.371   4.774  0.1002 -1.4194 -3.1322
   72MOL0     H 9925   4.463   6.253   4.798 -0.2527 -2.6479  2.5827
   72MOL0     H 9926   4.170   6.162   4.771  0.3100  2.3622  2.6567
   72MOL0     H 9927   4.327   6.064   4.793 -0.9141 -0.7495 -0.6773
   72MOL0     H 9928   4.245   6.227   4.549 -0.1725 -0.0706 -0.4251
   72MOL0     H 9929   4.413   6.181   4.586  0.5352 -4.4903 -0.5506
   72MOL0     H 9930   4.358   5.940   4.606  0.0905 -1.8133 -2.5889
   72MOL0     H 9931   4.359   6.007   4.441  2.4522 -0.0013  1.8355
   72MOL0     H 9932   3.944   5.908   4.538  0.3412 -0.8906  4.1155
   72MOL0     H 9933   4.546   6.122   4.971  0.2939 -0.8061  0.2248
   72MOL0     H 9934   4.863   6.142   5.080  1.4688  0.8118  2.0503
   72MOL0     H 9935   4.756   6.060   5.204 -0.6998  2.2838  0.7530
   72MOL0     H 9936   4.740   6.037   5.032 -0.0266  0.2108  0.4986
   73MOL0     O 9937   8.601   5.265   9.316 -0.1809 -0.7214 -0.8622
   73MOL0     C 9938   8.487   5.241   9.361 -0.1114 -0.9605  0.2058
   73MOL0     O 9939   8.463   5.210   9.491  0.4550 -0.4409 -0.5080
   73MOL0     C 9940   8.530   5.298   9.573 -0.6472 -0.2992  0.4262
   73MOL0     C 9941   8.512   5.435   9.570  1.1159  0.5587  0.6468
   73MOL0     C 9942   8.581   5.518   9.646 -0.6988 -0.3999  0.8288
   73MOL0     C 9943   8.666   5.464   9.744  0.2536  0.5298  0.1703
   73MOL0     O 9944   8.720   5.549   9.839  0.0269  0.6952  0.6686
   73MOL0     C 9945   8.797   5.488   9.945 -0.2060  1.0793 -0.0514
   73MOL0     C 9946   8.828   5.600  10.048  0.0641 -0.1117  0.4538
   73MOL0     C 9947   8.908   5.710   9.989 -0.6248  0.4408 -0.4741
   73MOL0     C 9948   8.892   5.845  10.051 -0.3510 -0.0525  0.5223
   73MOL0     C 9949   8.953   5.851  10.194  0.3401 -0.5762  0.3363
   73MOL0     C 9950   8.941   5.993  10.247  0.3488 -0.2587  0.3175
   73MOL0     C 9951   8.989   5.989  10.387 -0.2281 -0.2067  0.0715
   73MOL0     C 9952   8.986   6.123  10.454 -0.4386 -0.2089  1.0028
   73MOL0     N 9953   9.020   6.127  10.597 -0.6899  0.1306 -0.0199
   73MOL0     C 9954   9.141   6.185  10.642 -0.6302  0.3060 -1.0605
   73MOL0     C 9955   9.146   6.173  10.777  0.2154 -0.1511 -0.3156
   73MOL0     C 9956   9.251   6.223  10.881 -0.7097 -0.0569  0.1668
   73MOL0     C 9957   9.364   6.120  10.894  0.0234 -0.8362  0.3690
   73MOL0     C 9958   9.479   6.204  10.958 -0.6128 -0.0672 -0.4496
   73MOL0     C 9959   9.586   6.105  11.011 -0.1814 -0.3528 -0.2611
   73MOL0     O 9960   9.693   6.164  11.080  0.4591  0.2885  0.4845
   73MOL0     C 9961   9.774   6.078  11.142  0.0820 -0.2016 -0.2545
   73MOL0     C 9962   9.901   6.136  11.175 -0.3376  0.6796 -0.1074
   73MOL0     C 9963  10.003   6.065  11.241  0.5381  0.1628 -0.6100
   73MOL0     C 9964  10.132   6.131  11.267  0.0037 -0.4107  0.6105
   73MOL0     C 9965   9.972   5.936  11.291 -0.2529 -0.6732  0.4664
   73MOL0     C 9966  10.067   5.857  11.375  0.0658  0.0430 -0.4397
   73MOL0     O 9967  10.018   5.734  11.406 -0.2456 -0.3982  0.4250
   73MOL0     C 9968  10.101   5.645  11.480 -0.1177 -0.1592  0.1088
   73MOL0     C 9969  10.048   5.568  11.584  0.2191 -0.0635  0.6338
   73MOL0     C 9970  10.126   5.489  11.658 -0.3620 -0.1831  0.1019
   73MOL0     C 9971  10.265   5.496  11.643  0.7023 -0.1192  0.2054
   73MOL0     O 9972  10.339   5.412  11.719  0.0237 -0.2225  0.1086
   73MOL0     C 9973  10.306   5.373  11.853  0.5283  0.4414  0.1506
   73MOL0     C 9974  10.434   5.339  11.930  0.0886  0.2609 -0.3875
   73MOL0     C 9975  10.529   5.247  11.850 -0.0320 -0.8311 -0.3277
   73MOL0     C 9976  10.633   5.194  11.937  0.1532 -0.5666 -0.9182
   73MOL0     C 9977  10.756   5.143  11.865  0.2576  0.6938 -0.8635
   73MOL0     C 9978  10.842   5.049  11.966 -0.4377  0.4235  0.5993
   73MOL0     C 9979  10.969   4.993  11.900  0.6042 -0.9057  0.6903
   73MOL0     C 9980  11.092   5.091  11.902  0.4548 -0.4687 -0.4332
   73MOL0    Cl 9981  11.151   5.118  12.079 -0.1629 -0.0530  0.1525
   73MOL0     C 9982  10.317   5.554  11.529  0.4898  1.0511 -0.1477
   73MOL0     C 9983  10.233   5.633  11.445 -0.7601  0.0970 -0.1291
   73MOL0     O 9984  10.168   5.908  11.426 -1.0172 -0.3195  0.2690
   73MOL0     C 9985   9.852   5.878  11.256  0.4319 -0.3059  1.3622
   73MOL0     C 9986   9.752   5.952  11.189 -0.2989 -0.2718 -0.2001
   73MOL0     N 9987   9.021   6.108  10.810  0.3721 -0.4986 -0.4418
   73MOL0     N 9988   8.953   6.082  10.704 -0.4610  0.5087 -0.0727
   73MOL0     C 9989   8.688   5.323   9.748  0.1576  0.3839  0.5909
   73MOL0     C 9990   8.629   5.238   9.657 -0.1202 -0.4293 -0.8316
   73MOL0     C 9991   8.376   5.229   9.262 -0.7286  0.3775  0.8760
   73MOL0     C 9992   8.249   5.248   9.299  0.0420  0.0955 -0.6197
   73MOL0     C 9993   8.143   5.226   9.222 -0.2326  0.2722 -0.2612
   73MOL0     C 9994   8.151   5.174   9.093 -0.6583  1.1010  0.6149
   73MOL0     O 9995   8.051   5.157   8.996  0.0850 -0.2399 -0.1212
   73MOL0     C 9996   7.932   5.227   9.018 -0.0754  0.0737 -0.5629
   73MOL0     C 9997   7.832   5.186   8.920  0.0018  0.4445  0.3629
   73MOL0     C 9998   7.686   5.246   8.951  0.2730  0.2967  0.3070
   73MOL0     C 9999   7.570   5.155   8.911  0.1513 -0.9029  0.7135
   73MOL0     C10000   7.552   5.052   9.010 -0.2801  0.5804  0.3075
   73MOL0     C10001   7.536   4.956   9.087  0.2776  0.2939 -0.1818
   73MOL0     C10002   8.277   5.148   9.049  0.2340 -0.0565 -0.0507
   73MOL0     C10003   8.385   5.169   9.132 -0.3440 -0.1844  0.7064
   73MOL0     C10004   8.514   5.121   9.079 -0.5658  0.4250  0.0585
   73MOL0     H10005   8.436   5.467   9.499  0.9499 -2.2708 -0.5847
   73MOL0     H10006   8.569   5.625   9.632 -3.2676 -0.6631  0.5565
   73MOL0     H10007   8.885   5.445   9.897  1.3783  0.8658  2.8257
   73MOL0     H10008   8.744   5.412  10.004  1.5044 -0.1983 -0.0732
   73MOL0     H10009   8.735   5.646  10.083  0.1096  0.4072 -0.1092
   73MOL0     H10010   8.880   5.566  10.138 -0.7734 -0.2022  0.9160
   73MOL0     H10011   9.008   5.667   9.989 -1.4641 -1.6676  1.1240
   73MOL0     H10012   8.867   5.717   9.887 -1.3238 -0.2408 -0.2512
   73MOL0     H10013   8.935   5.921   9.985  1.0299 -1.5100 -0.3336
   73MOL0     H10014   8.785   5.865  10.057  0.1278  2.7085  1.0324
   73MOL0     H10015   9.061   5.835  10.190  0.2920 -0.9249  0.4228
   73MOL0     H10016   8.910   5.772  10.256  0.3201 -0.7166  0.1440
   73MOL0     H10017   8.995   6.065  10.185 -1.5886 -0.4226 -1.6772
   73MOL0     H10018   8.834   6.016  10.244  0.4193  0.0852  0.4389
   73MOL0     H10019   9.091   5.950  10.378  0.5394  1.7954 -0.6341
   73MOL0     H10020   8.923   5.923  10.444 -2.0013 -0.0920 -1.7478
   73MOL0     H10021   9.036   6.198  10.392  2.0435 -0.2608  2.8091
   73MOL0     H10022   8.883   6.161  10.444  0.8894  3.8714  0.7487
   73MOL0     H10023   9.226   6.218  10.582 -0.0793  2.5557  0.7989
   73MOL0     H10024   9.207   6.235  10.981 -2.4127  0.4452 -0.6100
   73MOL0     H10025   9.289   6.322  10.852 -0.8713 -0.2433 -0.7029
   73MOL0     H10026   9.316   6.039  10.950 -0.6747  1.8981  4.1166
   73MOL0     H10027   9.405   6.087  10.798  0.0067  2.1014 -0.7587
   73MOL0     H10028   9.534   6.268  10.889  2.5855 -1.0091  1.0474
   73MOL0     H10029   9.438   6.276  11.029  1.3550  1.8817 -1.2107
   73MOL0     H10030   9.529   6.030  11.067 -0.4896 -1.6208 -2.1948
   73MOL0     H10031   9.637   6.058  10.926  1.8193 -1.2848  1.3418
   73MOL0     H10032   9.925   6.238  11.148 -1.4143  0.7539 -0.8638
   73MOL0     H10033  10.136   6.171  11.369  0.3148  0.9133  0.1024
   73MOL0     H10034  10.156   6.205  11.191  1.6995 -0.9531  0.5839
   73MOL0     H10035  10.213   6.060  11.249  1.6223  1.4017  0.4149
   73MOL0     H10036   9.945   5.586  11.612  0.7936  3.0054  1.0813
   73MOL0     H10037  10.090   5.426  11.739  0.5773  0.0821  0.7520
   73MOL0     H10038  10.252   5.458  11.897  0.9541  0.2817  1.0114
   73MOL0     H10039  10.241   5.285  11.854 -0.4220  1.1033 -0.9689
   73MOL0     H10040  10.479   5.436  11.954  0.4212  0.1773 -0.6748
   73MOL0     H10041  10.404   5.296  12.026  1.4578 -2.4318 -1.0702
   73MOL0     H10042  10.580   5.303  11.771  3.7547 -0.5369  2.0572
   73MOL0     H10043  10.478   5.160  11.808 -3.0960 -0.6147  2.5739
   73MOL0     H10044  10.593   5.112  11.999  0.4873 -0.7950 -0.9996
   73MOL0     H10045  10.665   5.270  12.008  0.0660 -0.9720 -0.4337
   73MOL0     H10046  10.729   5.088  11.775 -2.9004 -1.1911  1.0628
   73MOL0     H10047  10.826   5.219  11.828  0.9069 -0.5740 -2.3435
   73MOL0     H10048  10.775   4.967  11.993 -2.4465  0.7115 -2.8837
   73MOL0     H10049  10.862   5.109  12.055  2.2511  1.1325 -0.3758
   73MOL0     H10050  10.937   4.975  11.797 -1.0214  2.3452  0.4803
   73MOL0     H10051  11.012   4.903  11.943  0.8473 -0.1996  1.9733
   73MOL0     H10052  11.060   5.183  11.851 -0.3146 -1.2086 -1.3094
   73MOL0     H10053  11.175   5.051  11.843  2.2453  1.9616  0.2926
   73MOL0     H10054  10.425   5.546  11.518  0.3416  0.0628 -1.0894
   73MOL0     H10055  10.272   5.697  11.366  0.5004  0.1000  0.4794
   73MOL0     H10056   9.833   5.777  11.291  2.6098 -1.1353  0.3080
   73MOL0     H10057   9.656   5.905  11.169 -0.0831 -0.8966  0.1964
   73MOL0     H10058   8.770   5.281   9.805  2.0951  2.6741 -0.3229
   73MOL0     H10059   8.634   5.133   9.685 -2.0831 -0.6143 -1.0263
   73MOL0     H10060   8.237   5.286   9.400  1.1204 -1.2586  0.0700
   73MOL0     H10061   8.048   5.249   9.270 -1.3451 -1.0934 -1.6992
   73MOL0     H10062   7.904   5.205   9.121  0.2346 -1.8462 -0.8452
   73MOL0     H10063   7.948   5.334   9.004  2.5848 -0.4148 -1.8854
   73MOL0     H10064   7.830   5.077   8.932 -0.5402  0.3617 -0.4005
   73MOL0     H10065   7.874   5.219   8.825  4.0870 -0.5552  1.6370
   73MOL0     H10066   7.662   5.261   9.057 -0.4950  1.2778  0.0108
   73MOL0     H10067   7.678   5.347   8.910 -4.2930  0.1496  0.3425
   73MOL0     H10068   7.585   5.118   8.809  0.5282  3.2078 -0.9424
   73MOL0     H10069   7.475   5.209   8.907  0.5524 -0.0606  1.9159
   73MOL0     H10070   7.526   4.876   9.158  0.5592  0.1158 -0.3442
   73MOL0     H10071   8.294   5.093   8.957  2.5104 -2.0662  1.4294
   73MOL0     H10072   8.502   5.015   9.056  1.4855  0.1042  0.2582
   73MOL0     H10073   8.530   5.173   8.985 -0.9560 -1.0309 -0.8463
   73MOL0     H10074   8.600   5.142   9.144 -0.8941  1.6074  0.1399
   74MOL0     O10075   3.917  11.301   5.379 -0.3955  0.2111  0.0874
   74MOL0     C10076   3.973  11.350   5.476 -0.2457  0.3013 -0.5059
   74MOL0     O10077   4.060  11.452   5.481 -0.5937  0.1741  0.4813
   74MOL0     C10078   4.101  11.517   5.371  0.1152 -0.0230  0.0240
   74MOL0     C10079   4.119  11.467   5.239 -0.7274 -0.4672  0.0477
   74MOL0     C10080   4.180  11.561   5.151  0.3490  0.3812 -0.2501
   74MOL0     C10081   4.199  11.700   5.176 -0.7686 -0.4471  0.3290
   74MOL0     O10082   4.247  11.785   5.077  0.0871 -0.7493 -0.1425
   74MOL0     C10083   4.250  11.750   4.933 -0.3659 -1.0513 -0.2061
   74MOL0     C10084   4.307  11.878   4.870  0.4737 -0.2315  0.3938
   74MOL0     C10085   4.460  11.872   4.873  0.0241 -0.8870  0.4795
   74MOL0     C10086   4.526  11.997   4.811 -0.0448 -0.1577  0.5602
   74MOL0     C10087   4.674  12.014   4.832 -0.5540 -0.9461  0.5091
   74MOL0     C10088   4.768  11.914   4.766  0.4374  0.0408  0.1771
   74MOL0     C10089   4.921  11.958   4.781  0.3476 -0.1274 -0.0613
   74MOL0     C10090   4.998  11.846   4.723  0.1362  0.2390 -0.3724
   74MOL0     N10091   5.144  11.864   4.744 -0.2998 -0.3517  0.5175
   74MOL0     C10092   5.227  11.907   4.645  0.4952 -0.2205  0.2440
   74MOL0     C10093   5.352  11.904   4.695  0.3274 -0.4103 -0.7152
   74MOL0     C10094   5.482  11.936   4.625 -0.0221 -0.8530  0.4177
   74MOL0     C10095   5.545  11.817   4.570  0.4578 -0.2117  0.9609
   74MOL0     C10096   5.464  11.740   4.466  0.3308 -0.5963 -0.6899
   74MOL0     C10097   5.504  11.595   4.435  0.2880  0.2668 -0.1345
   74MOL0     O10098   5.641  11.593   4.410 -0.6419  0.3263  0.0792
   74MOL0     C10099   5.696  11.649   4.296 -0.4232 -0.1474  0.7319
   74MOL0     C10100   5.837  11.662   4.296 -1.1121  0.0535  0.2362
   74MOL0     C10101   5.907  11.712   4.183 -0.7461 -0.6929 -0.5949
   74MOL0     C10102   6.057  11.675   4.183 -0.5259 -0.4081  0.1820
   74MOL0     C10103   5.838  11.759   4.073 -0.0201  1.5396  0.1291
   74MOL0     C10104   5.906  11.834   3.961  0.1930  1.0917  0.4998
   74MOL0     O10105   6.015  11.913   3.997  0.3685  0.1790 -0.2468
   74MOL0     C10106   6.081  11.993   3.905 -1.1595 -0.9581  0.7219
   74MOL0     C10107   6.022  12.054   3.798  1.1247  0.1215  0.3630
   74MOL0     C10108   6.097  12.131   3.701  0.3024 -1.2009  0.0375
   74MOL0     C10109   6.236  12.128   3.706  0.6825 -0.0644 -0.8985
   74MOL0     O10110   6.290  12.196   3.605  0.0802 -0.3749  0.0358
   74MOL0     C10111   6.414  12.165   3.568  0.9957  0.3860 -0.1790
   74MOL0     C10112   6.444  12.260   3.443 -0.2717 -0.0901 -0.0836
   74MOL0     C10113   6.576  12.217   3.368 -0.8244 -0.2434 -0.2182
   74MOL0     C10114   6.702  12.169   3.453 -0.7004 -0.1593 -0.3416
   74MOL0     C10115   6.819  12.120   3.360  0.0925 -0.8019 -0.6964
   74MOL0     C10116   6.940  12.079   3.451  0.9263 -0.6436 -0.4138
   74MOL0     C10117   6.922  11.969   3.555  0.3038  0.3255  1.0538
   74MOL0     C10118   7.045  11.963   3.649  0.3449  0.8033 -0.4184
   74MOL0    Cl10119   7.022  11.855   3.786 -0.2566  0.4282  0.5912
   74MOL0     C10120   6.299  12.068   3.823  0.5830  0.6961 -0.2331
   74MOL0     C10121   6.222  12.008   3.919  0.6303 -0.0697  1.0025
   74MOL0     O10122   5.866  11.824   3.847  0.5267 -0.5657 -0.5775
   74MOL0     C10123   5.695  11.750   4.070  0.1113  0.8603 -0.0800
   74MOL0     C10124   5.621  11.700   4.188 -0.0877 -0.0587 -0.2311
   74MOL0     N10125   5.337  11.874   4.829 -0.0755 -0.0952 -0.2755
   74MOL0     N10126   5.213  11.846   4.858 -0.1796 -0.3318  0.9838
   74MOL0     C10127   4.180  11.742   5.308  0.6123  0.7214 -0.7696
   74MOL0     C10128   4.148  11.647   5.406 -0.5244 -0.7892 -0.1788
   74MOL0     C10129   3.924  11.319   5.608 -0.9438 -0.2407  0.0308
   74MOL0     C10130   3.953  11.401   5.724 -0.5733  0.0652  0.5052
   74MOL0     C10131   3.918  11.358   5.851 -1.0206  0.9362 -0.1646
   74MOL0     C10132   3.852  11.236   5.874  0.4285  0.9097 -0.6666
   74MOL0     O10133   3.802  11.208   6.003 -0.5114 -0.3748 -0.3626
   74MOL0     C10134   3.784  11.075   6.035 -0.6792  0.5654 -0.7406
   74MOL0     C10135   3.929  11.015   6.053  0.3130 -0.2299 -0.2163
   74MOL0     C10136   3.921  10.876   6.100 -0.0826 -0.1411 -0.6048
   74MOL0     C10137   4.052  10.794   6.092 -0.0584 -0.6431  0.1698
   74MOL0     C10138   4.089  10.751   5.956  0.0334 -0.8201  0.1944
   74MOL0     C10139   4.127  10.705   5.847  0.2197  0.3062  0.8575
   74MOL0     C10140   3.814  11.162   5.760 -0.2011  0.0889  0.0024
   74MOL0     C10141   3.858  11.191   5.636  0.2933 -0.1383 -0.1081
   74MOL0     C10142   3.831  11.081   5.532 -0.7729  0.1281 -0.1853
   74MOL0     H10143   4.082  11.369   5.211 -2.6854  1.0796 -3.3260
   74MOL0     H10144   4.183  11.516   5.053 -1.5133  0.7979 -0.5343
   74MOL0     H10145   4.145  11.745   4.902 -1.3416  2.8725  1.8446
   74MOL0     H10146   4.312  11.662   4.911  1.3078 -0.2756  1.1517
   74MOL0     H10147   4.255  11.879   4.774  0.5410 -0.2886  0.3567
   74MOL0     H10148   4.275  11.961   4.934 -0.5874 -0.3857  0.0869
   74MOL0     H10149   4.498  11.876   4.975  0.5528  0.5171  0.2576
   74MOL0     H10150   4.499  11.784   4.821  1.7699 -1.7049  2.9912
   74MOL0     H10151   4.519  11.993   4.702 -1.9217 -1.3278  0.6742
   74MOL0     H10152   4.461  12.079   4.845 -1.2303 -1.1634  0.7841
   74MOL0     H10153   4.695  12.002   4.939 -3.8849  0.6108  1.4616
   74MOL0     H10154   4.706  12.116   4.810 -0.8990 -0.2415  2.9568
   74MOL0     H10155   4.761  11.823   4.826  1.3766  0.0642  0.3480
   74MOL0     H10156   4.743  11.901   4.661  2.1691  1.4758 -0.4777
   74MOL0     H10157   4.951  11.964   4.886  2.6671  3.5282 -0.7536
   74MOL0     H10158   4.940  12.061   4.748  2.8738  0.5029  2.8480
   74MOL0     H10159   4.966  11.752   4.768  2.4095 -0.6470 -0.4431
   74MOL0     H10160   4.992  11.844   4.613 -1.3585 -0.1936 -0.2990
   74MOL0     H10161   5.193  11.927   4.545  0.5683 -2.8588 -0.3772
   74MOL0     H10162   5.550  11.986   4.695  0.2830  0.7224 -0.9314
   74MOL0     H10163   5.462  12.015   4.552 -0.7006 -0.6966  0.7648
   74MOL0     H10164   5.629  11.850   4.508  1.5661 -2.1572  1.3466
   74MOL0     H10165   5.574  11.749   4.650  1.0100 -0.4952  0.5273
   74MOL0     H10166   5.362  11.735   4.503  0.3483 -0.3932 -0.6120
   74MOL0     H10167   5.457  11.788   4.368  0.4765  2.9841  0.8924
   74MOL0     H10168   5.489  11.536   4.526 -0.3385  0.1731 -0.2948
   74MOL0     H10169   5.449  11.548   4.353 -0.9149  1.2222  0.1010
   74MOL0     H10170   5.898  11.604   4.364  2.1922  2.7169 -0.1752
   74MOL0     H10171   6.076  11.595   4.112  1.1738  0.1267  0.0021
   74MOL0     H10172   6.101  11.642   4.277  0.3369  2.1434  0.7682
   74MOL0     H10173   6.113  11.760   4.143 -1.0063 -0.4698 -0.6417
   74MOL0     H10174   5.915  12.061   3.779  1.3611 -0.3730 -1.3741
   74MOL0     H10175   6.052  12.183   3.617  2.0044  0.3531  0.0348
   74MOL0     H10176   6.497  12.184   3.637 -0.8090  1.6862  1.7649
   74MOL0     H10177   6.419  12.059   3.541  1.3955 -0.4017  2.6562
   74MOL0     H10178   6.358  12.260   3.375  1.2338  1.5393 -2.1197
   74MOL0     H10179   6.453  12.364   3.476  2.6059 -1.2228  3.2731
   74MOL0     H10180   6.615  12.307   3.321  1.4680 -0.6923  0.6545
   74MOL0     H10181   6.550  12.146   3.289 -1.5461  1.6347 -1.7405
   74MOL0     H10182   6.666  12.086   3.515 -1.0539 -0.7650 -1.3480
   74MOL0     H10183   6.732  12.254   3.515  1.9486 -0.7226 -0.7426
   74MOL0     H10184   6.792  12.027   3.310 -0.2778 -1.6938  1.0830
   74MOL0     H10185   6.836  12.205   3.294 -0.9669  1.5488  1.8486
   74MOL0     H10186   6.972  12.171   3.502 -0.4308 -0.6694  0.5267
   74MOL0     H10187   7.020  12.036   3.390  0.6555 -2.4659  0.4525
   74MOL0     H10188   6.905  11.884   3.487  2.8060 -0.1691  0.9382
   74MOL0     H10189   6.826  11.972   3.606 -1.4396 -1.1397 -1.8848
   74MOL0     H10190   7.073  12.058   3.695  2.7386 -0.2375  0.4275
   74MOL0     H10191   7.129  11.941   3.583 -0.2888 -1.5008 -0.5541
   74MOL0     H10192   6.407  12.061   3.829  0.5645 -0.2308 -0.7714
   74MOL0     H10193   6.268  11.958   4.004  2.5661 -1.1304 -0.5910
   74MOL0     H10194   5.644  11.797   3.987 -2.6778  2.3469  2.2693
   74MOL0     H10195   5.512  11.696   4.186 -0.0707 -1.3733  0.3672
   74MOL0     H10196   4.198  11.847   5.331  1.4439  0.5571 -0.6321
   74MOL0     H10197   4.145  11.686   5.507 -1.0786 -2.9772  0.7197
   74MOL0     H10198   4.032  11.475   5.723 -0.0597 -0.4609 -0.9735
   74MOL0     H10199   3.944  11.426   5.931  1.5056  0.2206 -0.2818
   74MOL0     H10200   3.739  11.060   6.133 -2.1629  0.3952 -1.4259
   74MOL0     H10201   3.720  11.017   5.968  2.2546 -6.1681  1.4367
   74MOL0     H10202   3.985  11.086   6.115  1.2170 -1.7945  0.8414
   74MOL0     H10203   3.979  11.007   5.957 -0.9380  0.3448 -0.9450
   74MOL0     H10204   3.886  10.875   6.204  1.2205 -1.0258 -0.1471
   74MOL0     H10205   3.844  10.819   6.047  0.2434  0.6998 -2.0240
   74MOL0     H10206   4.044  10.711   6.162 -2.3724  0.1452  0.9242
   74MOL0     H10207   4.130  10.857   6.135 -0.0128 -0.7138  0.1908
   74MOL0     H10208   4.159  10.654   5.758 -0.3024 -2.3588  2.1088
   74MOL0     H10209   3.763  11.066   5.753 -2.3480  1.2741 -3.3471
   74MOL0     H10210   3.729  11.089   5.496 -0.7551  1.1338 -0.0233
   74MOL0     H10211   3.908  11.081   5.454  0.1448  0.3667  0.7021
   74MOL0     H10212   3.843  10.983   5.581 -0.9311  0.9694  1.6046
   75MOL0     O10213  10.968   1.505   6.679 -0.6110  0.2260  0.2330
   75MOL0     C10214  10.921   1.442   6.582 -0.0426  0.1387 -0.3820
   75MOL0     O10215  10.982   1.416   6.463  0.3590 -0.2925 -0.3835
   75MOL0     C10216  11.100   1.482   6.439 -0.5487  0.1973  0.4795
   75MOL0     C10217  11.091   1.622   6.424 -0.2293  0.0843 -0.1415
   75MOL0     C10218  11.209   1.684   6.384 -0.2452 -0.1178  0.0841
   75MOL0     C10219  11.334   1.617   6.363  0.0057 -0.3020 -0.0657
   75MOL0     O10220  11.445   1.698   6.340 -0.0284  0.3957  0.3454
   75MOL0     C10221  11.573   1.640   6.349 -0.2133 -0.1489 -0.1191
   75MOL0     C10222  11.624   1.584   6.211 -0.7084  0.9527 -0.6308
   75MOL0     C10223  11.751   1.504   6.223 -0.3772 -0.0312  0.0605
   75MOL0     C10224  11.812   1.479   6.079 -0.0899 -0.1343 -0.3651
   75MOL0     C10225  11.951   1.419   6.097 -0.3255  0.5333  0.1230
   75MOL0     C10226  11.985   1.331   5.975 -0.4078  0.5134 -0.9599
   75MOL0     C10227  11.935   1.180   5.973  0.2381 -0.2859 -0.9887
   75MOL0     C10228  12.018   1.091   6.061 -0.1157  0.4512  0.5964
   75MOL0     N10229  12.166   1.098   6.022  0.4049  0.2929 -0.1211
   75MOL0     C10230  12.212   1.036   5.914 -0.7161 -0.2270 -0.1318
   75MOL0     C10231  12.352   1.038   5.929  0.2381 -0.6299  0.4117
   75MOL0     C10232  12.456   0.980   5.836 -0.4340 -0.5303 -0.1586
   75MOL0     C10233  12.580   0.909   5.897  0.0373  0.7580 -0.0939
   75MOL0     C10234  12.680   1.015   5.959 -0.1490  1.0716  1.1672
   75MOL0     C10235  12.802   0.946   6.009  0.3534  0.2004 -0.1844
   75MOL0     O10236  12.871   0.890   5.901  0.6133  0.4627 -0.3680
   75MOL0     C10237  12.998   0.837   5.925 -0.1197  0.3018  0.9867
   75MOL0     C10238  13.071   0.835   6.046 -0.0610 -0.1024  0.5322
   75MOL0     C10239  13.199   0.773   6.060 -0.2867 -0.5353  0.5239
   75MOL0     C10240  13.249   0.764   6.197  0.7782 -0.4826 -0.2177
   75MOL0     C10241  13.265   0.744   5.942 -0.9705  0.5286  0.0985
   75MOL0     C10242  13.408   0.685   5.926  1.0634  0.4565 -0.1637
   75MOL0     O10243  13.453   0.625   6.034 -0.0390  0.4047 -0.1200
   75MOL0     C10244  13.561   0.544   6.019 -0.2813 -0.3297 -0.3133
   75MOL0     C10245  13.695   0.590   6.041  0.3162  0.4738  0.2771
   75MOL0     C10246  13.803   0.505   6.030  0.0603  0.0109 -0.5395
   75MOL0     C10247  13.777   0.375   6.008 -0.6150  1.3206  0.2113
   75MOL0     O10248  13.882   0.282   6.028  0.2679  0.5979  0.3193
   75MOL0     C10249  13.862   0.168   6.110  0.0579 -0.3838  0.0426
   75MOL0     C10250  13.996   0.103   6.147 -0.7870  0.6303 -0.5053
   75MOL0     C10251  13.981  -0.006   6.253  0.1765 -0.0000  0.8947
   75MOL0     C10252  13.938  -0.136   6.174 -0.1003 -0.5072  0.1246
   75MOL0     C10253  13.936  -0.257   6.269 -0.4505 -0.4286  0.5253
   75MOL0     C10254  13.817  -0.250   6.370  0.0398  0.3360 -0.2938
   75MOL0     C10255  13.870  -0.193   6.507 -0.7977 -0.1034 -0.6188
   75MOL0     C10256  13.750  -0.189   6.610  0.5741 -0.2688  0.4667
   75MOL0    Cl10257  13.761  -0.047   6.715 -0.2188  0.0781 -0.3219
   75MOL0     C10258  13.647   0.327   5.992  0.0537 -0.5992  0.8432
   75MOL0     C10259  13.540   0.417   6.000  0.8001  0.0244 -0.1299
   75MOL0     O10260  13.463   0.687   5.808  0.2058 -0.4154 -0.4787
   75MOL0     C10261  13.200   0.765   5.818 -0.1240 -0.2619  0.2822
   75MOL0     C10262  13.068   0.803   5.812 -0.0010  1.2218 -0.5080
   75MOL0     N10263  12.378   1.090   6.057  0.2538  0.0500 -0.0081
   75MOL0     N10264  12.270   1.131   6.106  1.0891  0.6592  0.0169
   75MOL0     C10265  11.333   1.479   6.369  0.3913  0.0543 -1.3098
   75MOL0     C10266  11.216   1.411   6.405  0.1132  0.5001  0.1499
   75MOL0     C10267  10.784   1.390   6.596 -0.7867 -0.7672 -0.1244
   75MOL0     C10268  10.756   1.274   6.524 -0.3312  0.6148  0.0273
   75MOL0     C10269  10.633   1.201   6.537 -0.4209  0.0489  0.2566
   75MOL0     C10270  10.540   1.255   6.624  0.7726 -0.2775  0.2485
   75MOL0     O10271  10.433   1.185   6.647  0.3938 -0.3586  0.4819
   75MOL0     C10272  10.361   1.192   6.772  0.2893  0.0735 -0.9384
   75MOL0     C10273  10.429   1.093   6.861  0.4069  0.3360  0.3041
   75MOL0     C10274  10.360   1.082   7.001  0.1006  0.2394  0.7192
   75MOL0     C10275  10.377   0.940   7.062  0.0510 -0.6693 -0.9169
   75MOL0     C10276  10.278   0.847   7.022 -0.0567 -1.0054  0.1288
   75MOL0     C10277  10.202   0.761   6.987  0.6391 -0.4400  0.3394
   75MOL0     C10278  10.555   1.384   6.678  0.5243  0.3701 -0.2976
   75MOL0     C10279  10.678   1.448   6.670 -0.5255 -0.5769 -0.2240
   75MOL0     C10280  10.676   1.587   6.739 -0.4279  0.2797 -0.2336
   75MOL0     H10281  11.002   1.682   6.442  0.8783  1.8213 -0.2731
   75MOL0     H10282  11.209   1.792   6.374  2.4560  0.0905  1.4037
   75MOL0     H10283  11.563   1.564   6.427  0.0523 -0.0345  0.0286
   75MOL0     H10284  11.644   1.710   6.394  1.3108  0.2196 -2.8766
   75MOL0     H10285  11.546   1.528   6.160  0.4150  1.0441 -2.5268
   75MOL0     H10286  11.650   1.671   6.150  1.1682 -0.6101 -2.2417
   75MOL0     H10287  11.830   1.553   6.280 -1.6903  1.6135  0.5683
   75MOL0     H10288  11.751   1.406   6.270 -0.0777  0.9305  2.1635
   75MOL0     H10289  11.747   1.432   6.004 -0.2675  3.6086 -2.8121
   75MOL0     H10290  11.818   1.574   6.026 -1.3296 -1.4439 -3.0454
   75MOL0     H10291  11.960   1.357   6.187  1.1771 -0.2380 -0.5311
   75MOL0     H10292  12.029   1.496   6.091 -1.6694  1.8514 -1.6778
   75MOL0     H10293  11.926   1.372   5.893 -0.8337 -1.4717 -1.7008
   75MOL0     H10294  12.094   1.333   5.963  0.0469  0.5083  2.2948
   75MOL0     H10295  11.950   1.150   5.868  0.9048 -1.4519 -0.5781
   75MOL0     H10296  11.832   1.163   6.005  1.0394 -2.0731  0.8858
   75MOL0     H10297  12.032   1.126   6.164  0.8513  2.6483 -0.2199
   75MOL0     H10298  11.994   0.985   6.045  4.5650 -0.4654 -2.3609
   75MOL0     H10299  12.165   0.985   5.830  2.8770 -1.2588 -1.7263
   75MOL0     H10300  12.492   1.058   5.768 -0.3724  1.8817  2.4628
   75MOL0     H10301  12.401   0.903   5.781 -2.2577 -0.1411  1.0569
   75MOL0     H10302  12.548   0.839   5.974 -0.2106  1.3938  0.3878
   75MOL0     H10303  12.632   0.853   5.819 -0.1892 -2.2533  1.7784
   75MOL0     H10304  12.708   1.108   5.909 -1.1424  0.5108 -0.4825
   75MOL0     H10305  12.628   1.057   6.045 -0.0108  1.7730  0.9125
   75MOL0     H10306  12.852   1.026   6.065 -3.2124  1.6048  1.2480
   75MOL0     H10307  12.784   0.861   6.075  0.7813  1.4115  1.5526
   75MOL0     H10308  13.026   0.868   6.139  4.2219 -0.4232  3.0234
   75MOL0     H10309  13.256   0.656   6.215  1.7503 -0.1633  1.5480
   75MOL0     H10310  13.190   0.813   6.275 -0.6240 -0.3917 -1.2963
   75MOL0     H10311  13.352   0.800   6.208  0.5970 -0.4086  1.5255
   75MOL0     H10312  13.703   0.695   6.065  4.5655  0.2757  0.4166
   75MOL0     H10313  13.901   0.543   6.058 -0.6165  2.6187 -1.4585
   75MOL0     H10314  13.819   0.201   6.205 -1.1742  1.3414 -1.0486
   75MOL0     H10315  13.797   0.100   6.056  2.5286 -2.7781 -0.1493
   75MOL0     H10316  14.046   0.059   6.060  1.5467 -2.3115  2.0948
   75MOL0     H10317  14.075   0.172   6.181 -0.7501  0.9196 -1.1518
   75MOL0     H10318  13.900   0.025   6.319 -1.1425 -0.8624 -0.2721
   75MOL0     H10319  14.078  -0.019   6.303  0.7398  0.6863  0.0027
   75MOL0     H10320  14.011  -0.148   6.094  0.6828  3.4669  0.0128
   75MOL0     H10321  13.843  -0.110   6.127 -0.6019  0.5119  1.6138
   75MOL0     H10322  13.929  -0.353   6.218  4.3205 -0.5220 -0.3915
   75MOL0     H10323  14.029  -0.265   6.325 -0.6439  1.3899  1.1850
   75MOL0     H10324  13.785  -0.354   6.382  2.2333 -0.5113 -1.2159
   75MOL0     H10325  13.733  -0.189   6.336 -2.8197 -3.6606 -1.1969
   75MOL0     H10326  13.911  -0.093   6.488 -1.2989  0.0502 -0.9201
   75MOL0     H10327  13.945  -0.255   6.556 -1.4868 -1.6416 -1.4601
   75MOL0     H10328  13.745  -0.286   6.661 -1.5375 -2.1522 -2.9002
   75MOL0     H10329  13.656  -0.183   6.553 -0.5677  0.8728  2.3808
   75MOL0     H10330  13.634   0.220   5.981  0.7248 -0.6961  0.9575
   75MOL0     H10331  13.436   0.385   5.997  0.9680 -0.5532  0.0037
   75MOL0     H10332  13.240   0.715   5.731 -1.8250 -1.7591  0.3172
   75MOL0     H10333  13.012   0.788   5.720  0.3100 -0.2149 -0.4829
   75MOL0     H10334  11.421   1.419   6.348  1.8320  0.9128  1.7971
   75MOL0     H10335  11.218   1.302   6.407  0.8865  0.4488 -1.7632
   75MOL0     H10336  10.832   1.224   6.464  1.0138  0.9175  1.3981
   75MOL0     H10337  10.625   1.103   6.491 -1.6799  0.5270 -0.5757
   75MOL0     H10338  10.349   1.293   6.814  0.7529  0.2640 -1.2503
   75MOL0     H10339  10.256   1.166   6.751  0.3531 -0.8854 -0.0937
   75MOL0     H10340  10.533   1.126   6.867  0.0820  1.2272  1.9662
   75MOL0     H10341  10.429   0.992   6.819  1.3224  0.5547 -0.2540
   75MOL0     H10342  10.392   1.164   7.066 -0.5792  1.2597 -0.2131
   75MOL0     H10343  10.251   1.088   6.994 -0.3240 -4.1668  0.6072
   75MOL0     H10344  10.377   0.947   7.171 -1.5119 -4.0389 -0.5716
   75MOL0     H10345  10.474   0.894   7.039 -0.7712 -3.8602  1.3224
   75MOL0     H10346  10.138   0.691   6.937  1.1495 -0.3643 -0.4349
   75MOL0     H10347  10.487   1.419   6.754  1.0804 -2.2416  1.5468
   75MOL0     H10348  10.577   1.619   6.771  0.4271  2.6454  0.2561
   75MOL0     H10349  10.750   1.594   6.820 -3.4102 -0.5947  2.7960
   75MOL0     H10350  10.709   1.666   6.671  0.3308 -0.7535 -1.0922
   76MOL0     O10351   2.174  10.249   2.072 -0.1217  0.0261  0.3711
   76MOL0     C10352   2.281  10.254   2.128  0.2918 -0.9139  0.0330
   76MOL0     O10353   2.366  10.145   2.155  0.7201 -0.3297 -0.2382
   76MOL0     C10354   2.321  10.024   2.106  0.0259  0.9578  0.4548
   76MOL0     C10355   2.376   9.978   1.976 -0.1360  0.1407  0.5409
   76MOL0     C10356   2.321   9.860   1.926 -0.1029 -0.4326  0.6375
   76MOL0     C10357   2.235   9.775   1.996  1.3420 -0.7334  0.9111
   76MOL0     O10358   2.210   9.663   1.932 -0.2340  0.7507  0.0693
   76MOL0     C10359   2.088   9.590   1.952 -0.0064  0.7234  0.0934
   76MOL0     C10360   2.102   9.491   2.077  1.0139 -0.4926 -0.1625
   76MOL0     C10361   2.240   9.421   2.087 -0.4820 -0.0089 -0.3344
   76MOL0     C10362   2.246   9.353   2.229 -1.4042 -0.0643  0.8234
   76MOL0     C10363   2.393   9.298   2.262 -0.1212 -0.1071  0.0522
   76MOL0     C10364   2.512   9.389   2.280 -0.4337 -0.1767 -0.3411
   76MOL0     C10365   2.641   9.327   2.215 -0.3343 -0.1847 -0.7971
   76MOL0     C10366   2.753   9.407   2.274 -0.1657 -0.0787  0.5168
   76MOL0     N10367   2.868   9.375   2.197 -0.1648  0.3819  0.5319
   76MOL0     C10368   2.931   9.251   2.186 -0.7670  0.1248  0.4928
   76MOL0     C10369   3.051   9.277   2.115  1.2594 -0.8413 -0.5090
   76MOL0     C10370   3.168   9.191   2.086 -0.5183 -0.2448  0.3757
   76MOL0     C10371   3.186   9.091   2.197  0.5974  0.5375 -0.0806
   76MOL0     C10372   3.201   9.144   2.334 -0.2406 -0.2161 -0.2769
   76MOL0     C10373   3.223   9.034   2.430 -0.4943 -0.2508 -0.4528
   76MOL0     O10374   3.119   8.929   2.419  0.0778 -0.3328  0.5223
   76MOL0     C10375   2.992   8.969   2.430  0.5186  0.0562 -0.1340
   76MOL0     C10376   2.952   9.051   2.534  0.4942  0.4582  0.2338
   76MOL0     C10377   2.810   9.088   2.544 -0.2121  0.0145 -0.3882
   76MOL0     C10378   2.771   9.201   2.643 -0.0910  0.1834  0.4513
   76MOL0     C10379   2.715   9.027   2.457 -0.1750  0.0778  0.3104
   76MOL0     C10380   2.568   9.042   2.457  0.3399 -0.4927  1.0141
   76MOL0     O10381   2.503   8.990   2.351 -0.1535  0.6128 -0.3892
   76MOL0     C10382   2.390   8.910   2.370  0.1419 -0.7293  0.1281
   76MOL0     C10383   2.309   8.898   2.264 -0.2119 -0.2554 -0.3905
   76MOL0     C10384   2.194   8.824   2.271 -0.1469 -0.0551 -0.5967
   76MOL0     C10385   2.163   8.747   2.383  0.7197 -0.3692 -0.4358
   76MOL0     O10386   2.058   8.657   2.396  0.1294  1.2940 -0.0097
   76MOL0     C10387   1.985   8.619   2.276 -0.6350  0.1662  0.5488
   76MOL0     C10388   1.874   8.520   2.301  0.4289 -0.6953 -0.0102
   76MOL0     C10389   1.774   8.515   2.188 -0.0804 -0.3096  0.1487
   76MOL0     C10390   1.664   8.420   2.237  0.3405  0.0643 -0.5353
   76MOL0     C10391   1.530   8.443   2.162 -0.3138 -0.4342  0.3595
   76MOL0     C10392   1.469   8.569   2.214  0.3196  0.3339  0.0804
   76MOL0     C10393   1.322   8.546   2.257 -0.6667  0.3271 -0.5038
   76MOL0     C10394   1.241   8.679   2.230  0.3633  0.7804 -0.4095
   76MOL0    Cl10395   1.240   8.783   2.373  0.1562  0.3674 -0.1898
   76MOL0     C10396   2.249   8.756   2.492 -0.5783  0.4750  0.5922
   76MOL0     C10397   2.364   8.838   2.484  0.0207 -0.2307 -0.4820
   76MOL0     O10398   2.514   9.081   2.560  0.5967  0.9861 -0.2849
   76MOL0     C10399   2.761   8.942   2.358  0.1808 -0.4726 -0.2669
   76MOL0     C10400   2.895   8.915   2.350 -0.4241  1.1207 -0.1321
   76MOL0     N10401   3.045   9.402   2.066  0.0751 -0.3170  0.1420
   76MOL0     N10402   2.947   9.462   2.128  0.2116  0.7436 -0.2384
   76MOL0     C10403   2.171   9.833   2.112 -0.0261  0.4415 -0.4382
   76MOL0     C10404   2.214   9.962   2.163  0.2040  0.3620  0.6219
   76MOL0     C10405   2.336  10.387   2.160 -0.1569 -0.2490  0.8596
   76MOL0     C10406   2.470  10.413   2.137  0.0393 -0.0340 -0.7404
   76MOL0     C10407   2.537  10.539   2.164 -0.7491  0.5958 -0.5948
   76MOL0     C10408   2.453  10.640   2.209 -0.8213 -0.0382 -0.4747
   76MOL0     O10409   2.521  10.762   2.226 -0.0366  0.2289  0.6214
   76MOL0     C10410   2.446  10.866   2.289 -1.0137 -0.0564 -0.2511
   76MOL0     C10411   2.523  10.996   2.311 -0.7527  0.2824 -0.5161
   76MOL0     C10412   2.544  11.060   2.184 -0.1043 -0.2347  0.4723
   76MOL0     C10413   2.617  11.193   2.205 -0.7642  0.3540  0.3280
   76MOL0     C10414   2.724  11.216   2.108 -0.5097  0.1631 -1.0390
   76MOL0     C10415   2.829  11.245   2.055  0.1914  0.3215  0.4279
   76MOL0     C10416   2.319  10.617   2.241 -0.3580  0.2856  0.3935
   76MOL0     C10417   2.260  10.494   2.212 -0.2149 -0.3962  1.2383
   76MOL0     C10418   2.111  10.477   2.224  0.2270 -0.0477  0.4417
   76MOL0     H10419   2.464  10.026   1.935  0.0767  1.1905  2.1423
   76MOL0     H10420   2.376   9.809   1.847  1.8240  1.7467  0.4819
   76MOL0     H10421   2.064   9.520   1.872 -2.5754  1.2001  0.3574
   76MOL0     H10422   1.995   9.647   1.967  0.0650  1.5113 -2.1402
   76MOL0     H10423   2.093   9.546   2.172  3.8942 -2.1024  1.1417
   76MOL0     H10424   2.015   9.425   2.077 -0.2975  1.0652 -3.0873
   76MOL0     H10425   2.248   9.332   2.025  2.0098 -1.2726  1.6070
   76MOL0     H10426   2.332   9.478   2.073  0.0918 -0.8960 -0.2454
   76MOL0     H10427   2.218   9.422   2.309  2.2107  3.2200 -0.4165
   76MOL0     H10428   2.175   9.270   2.223  0.2346 -1.5034  0.3014
   76MOL0     H10429   2.426   9.220   2.193 -2.2749  0.3521 -1.6398
   76MOL0     H10430   2.365   9.236   2.348  1.1807 -1.3530 -0.3935
   76MOL0     H10431   2.494   9.492   2.248  1.3657 -0.0025 -0.8821
   76MOL0     H10432   2.532   9.395   2.388 -0.2504 -0.9728 -0.3243
   76MOL0     H10433   2.628   9.339   2.107  3.1991  0.1133 -1.3163
   76MOL0     H10434   2.657   9.225   2.250  0.8800  0.1709 -0.2402
   76MOL0     H10435   2.719   9.511   2.262  1.4292  0.4868  0.6627
   76MOL0     H10436   2.774   9.385   2.379 -2.6380  3.8957  2.0893
   76MOL0     H10437   2.906   9.159   2.239 -1.1721  0.7475  1.4079
   76MOL0     H10438   3.253   9.260   2.079  0.1823 -1.1329  0.0369
   76MOL0     H10439   3.154   9.139   1.991  1.1977 -1.0158  0.5047
   76MOL0     H10440   3.093   9.033   2.191  1.6260 -0.9724 -3.5050
   76MOL0     H10441   3.269   9.023   2.173 -1.1674 -2.0320  0.6133
   76MOL0     H10442   3.289   9.210   2.343  0.5079 -1.2695  0.3273
   76MOL0     H10443   3.112   9.203   2.355  0.6620  1.7848 -1.7252
   76MOL0     H10444   3.317   8.980   2.415 -0.5942 -0.2515 -1.1302
   76MOL0     H10445   3.215   9.081   2.528 -1.3633 -1.2123 -0.0452
   76MOL0     H10446   3.011   9.103   2.609  0.6454  0.7082 -0.0546
   76MOL0     H10447   2.702   9.266   2.589  1.9325  0.3240 -2.1625
   76MOL0     H10448   2.863   9.259   2.656  1.6042 -2.1940 -0.1304
   76MOL0     H10449   2.740   9.163   2.740  0.6058 -0.0151  0.6063
   76MOL0     H10450   2.342   8.938   2.168 -0.3056 -3.2272 -1.7654
   76MOL0     H10451   2.135   8.834   2.180 -0.9716  2.1877  0.1116
   76MOL0     H10452   1.934   8.708   2.236 -1.0313 -0.7606 -1.0829
   76MOL0     H10453   2.056   8.583   2.201  0.7286  3.6210 -0.0394
   76MOL0     H10454   1.920   8.421   2.296  1.0545 -0.4534  0.7113
   76MOL0     H10455   1.838   8.533   2.403  2.4869 -1.8761  0.9499
   76MOL0     H10456   1.818   8.473   2.098  0.2003  0.1579  0.0649
   76MOL0     H10457   1.733   8.615   2.169 -0.9536 -0.3447  1.6218
   76MOL0     H10458   1.648   8.425   2.346 -0.8660 -0.0640 -0.6906
   76MOL0     H10459   1.687   8.317   2.209 -1.4554 -0.1257 -1.4391
   76MOL0     H10460   1.542   8.465   2.056 -1.6498 -0.8921  0.0963
   76MOL0     H10461   1.465   8.356   2.169 -2.2370  0.9786  0.8592
   76MOL0     H10462   1.472   8.649   2.139 -0.3850  0.1528 -0.1508
   76MOL0     H10463   1.519   8.613   2.300 -1.8087  1.2328  0.9280
   76MOL0     H10464   1.332   8.516   2.362  1.6948 -1.0316 -1.0333
   76MOL0     H10465   1.285   8.469   2.189 -3.3065  2.5697 -1.7917
   76MOL0     H10466   1.141   8.653   2.196  0.1768  0.8104  0.1061
   76MOL0     H10467   1.290   8.736   2.150  0.7681  0.4151 -0.4261
   76MOL0     H10468   2.221   8.698   2.579  1.0990 -0.5333  0.5017
   76MOL0     H10469   2.424   8.846   2.574 -1.4507 -0.0274  0.5158
   76MOL0     H10470   2.709   8.894   2.276  0.6668  1.3121 -1.6805
   76MOL0     H10471   2.924   8.848   2.270  1.6041  1.0234  0.6358
   76MOL0     H10472   2.096   9.778   2.169 -0.8170  0.8466 -1.0775
   76MOL0     H10473   2.165  10.003   2.250 -0.5302 -0.6489  0.6997
   76MOL0     H10474   2.525  10.328   2.097 -0.4867 -0.2301 -1.0665
   76MOL0     H10475   2.642  10.559   2.146 -0.7559  0.6653 -0.5595
   76MOL0     H10476   2.353  10.890   2.237 -0.7550  0.3443 -0.5327
   76MOL0     H10477   2.420  10.823   2.386  1.9840  0.0001  0.6782
   76MOL0     H10478   2.610  10.957   2.364 -1.1329  1.9558  1.4855
   76MOL0     H10479   2.479  11.063   2.385  3.3256  0.9058  1.6280
   76MOL0     H10480   2.602  10.988   2.125  1.1448 -0.3058  1.7440
   76MOL0     H10481   2.448  11.077   2.133  0.6005 -0.1374 -0.8867
   76MOL0     H10482   2.684  11.175   2.290 -0.1971 -0.2792 -0.2402
   76MOL0     H10483   2.551  11.279   2.218  0.6107  1.7504 -1.5021
   76MOL0     H10484   2.917  11.279   2.004  1.5788 -0.8646  1.9345
   76MOL0     H10485   2.258  10.698   2.281  0.2189  0.1858  1.5141
   76MOL0     H10486   2.087  10.389   2.284 -0.0373 -0.2434  0.0486
   76MOL0     H10487   2.064  10.562   2.275  2.2929  1.4625 -0.0259
   76MOL0     H10488   2.065  10.461   2.126  0.8152 -0.5756  0.2493
   77MOL0     O10489   5.759   0.925  10.652 -0.6064 -0.5985  0.3172
   77MOL0     C10490   5.744   0.844  10.559  0.6220  0.9148 -0.9478
   77MOL0     O10491   5.808   0.834  10.442  0.4243 -0.0747 -0.4414
   77MOL0     C10492   5.890   0.939  10.416  0.4483  1.0188  0.3127
   77MOL0     C10493   6.019   0.942  10.468 -0.6557  0.1911 -1.0688
   77MOL0     C10494   6.097   1.059  10.439  0.2453  0.3986 -0.1522
   77MOL0     C10495   6.043   1.163  10.366 -0.5366 -0.4671  1.1267
   77MOL0     O10496   6.126   1.274  10.341 -0.4674  0.0238  0.9238
   77MOL0     C10497   6.062   1.396  10.308 -0.0907 -0.2321 -0.1713
   77MOL0     C10498   6.169   1.507  10.313  0.1049  0.0073  0.7313
   77MOL0     C10499   6.083   1.639  10.312  1.0291 -0.3550  0.1456
   77MOL0     C10500   6.150   1.765  10.351  1.4555 -0.5868 -0.2011
   77MOL0     C10501   6.059   1.891  10.347 -0.0771  0.8822 -0.5282
   77MOL0     C10502   6.121   2.017  10.397 -0.1693  0.2545 -0.1477
   77MOL0     C10503   6.031   2.132  10.451 -1.0397  0.5012  0.1228
   77MOL0     C10504   6.119   2.237  10.524  0.1414  0.2092 -0.9608
   77MOL0     N10505   6.040   2.347  10.587 -0.2687 -0.5504 -0.0461
   77MOL0     C10506   5.913   2.338  10.628 -0.5280  0.7677  0.7934
   77MOL0     C10507   5.868   2.456  10.665  0.7034 -0.3354 -0.8666
   77MOL0     C10508   5.730   2.477  10.716  0.7875 -0.2784 -0.5063
   77MOL0     C10509   5.657   2.588  10.644 -0.4313 -0.7328 -0.7039
   77MOL0     C10510   5.503   2.576  10.666 -0.0932 -0.1271 -0.3930
   77MOL0     C10511   5.423   2.680  10.584 -0.3265 -0.0347  0.6286
   77MOL0     O10512   5.417   2.649  10.444  0.4584 -0.3712 -0.0196
   77MOL0     C10513   5.331   2.547  10.417 -0.5640 -0.5231  0.3059
   77MOL0     C10514   5.305   2.521  10.285 -0.1854 -0.0354 -0.7866
   77MOL0     C10515   5.225   2.424  10.229 -0.0984  0.0325  0.1624
   77MOL0     C10516   5.227   2.400  10.082 -0.1124  0.1018 -0.3423
   77MOL0     C10517   5.147   2.352  10.323 -0.3657 -0.5371 -0.2272
   77MOL0     C10518   5.051   2.241  10.292  0.2344 -0.6466  0.8316
   77MOL0     O10519   5.016   2.152  10.396 -0.4147 -1.3135  0.3197
   77MOL0     C10520   4.916   2.057  10.386  0.4949  0.1582  0.2627
   77MOL0     C10521   4.926   1.953  10.478 -0.0446  0.1889 -0.1935
   77MOL0     C10522   4.831   1.860  10.498  1.2140  0.4499  0.0348
   77MOL0     C10523   4.712   1.874  10.422  0.8603 -0.1960 -0.0246
   77MOL0     O10524   4.613   1.787  10.421 -0.2308 -0.4172 -0.0638
   77MOL0     C10525   4.645   1.652  10.405 -0.6867  0.9522  1.0639
   77MOL0     C10526   4.513   1.568  10.390  0.2318 -0.4007 -0.0214
   77MOL0     C10527   4.407   1.606  10.495 -0.1697 -0.1468  0.6988
   77MOL0     C10528   4.318   1.484  10.508  1.2227 -0.2920  0.3415
   77MOL0     C10529   4.209   1.509  10.613  0.1437  0.0170  0.1092
   77MOL0     C10530   4.101   1.406  10.610  0.7353 -0.5310 -0.5653
   77MOL0     C10531   4.140   1.254  10.618  1.3166 -0.0237  0.3338
   77MOL0     C10532   4.022   1.169  10.595  0.0470 -0.5137 -0.8091
   77MOL0    Cl10533   3.971   1.113  10.758  0.3909 -0.1812  0.0477
   77MOL0     C10534   4.688   1.988  10.338 -0.0013  0.6443  0.1288
   77MOL0     C10535   4.803   2.059  10.310 -1.1832 -0.1606 -0.2518
   77MOL0     O10536   5.000   2.247  10.182  0.3942 -0.1274  0.3664
   77MOL0     C10537   5.169   2.378  10.462 -0.3958  0.1334 -0.0372
   77MOL0     C10538   5.265   2.461  10.507 -0.2103 -0.6316  0.6254
   77MOL0     N10539   5.974   2.551  10.650  0.6660  0.4502  0.5869
   77MOL0     N10540   6.071   2.477  10.604  0.7593  1.1021  0.0652
   77MOL0     C10541   5.908   1.161  10.320 -0.4152  0.5681 -0.2509
   77MOL0     C10542   5.839   1.038  10.333  1.3194  0.0218 -0.3561
   77MOL0     C10543   5.619   0.763  10.569  0.0028  0.0554 -0.4363
   77MOL0     C10544   5.529   0.778  10.463  0.4162 -0.5849 -0.1728
   77MOL0     C10545   5.400   0.723  10.474  0.5510  0.0917 -0.2606
   77MOL0     C10546   5.359   0.644  10.579 -0.2594  0.1788 -0.3343
   77MOL0     O10547   5.235   0.592  10.574 -0.5295 -0.8146  0.1376
   77MOL0     C10548   5.183   0.503  10.674  1.1057 -0.6084  0.5768
   77MOL0     C10549   5.206   0.355  10.655 -0.7038  0.2187  0.2438
   77MOL0     C10550   5.149   0.260  10.768  0.8306  0.6667  0.7439
   77MOL0     C10551   5.183   0.298  10.911 -0.4653  0.1289 -0.1993
   77MOL0     C10552   5.337   0.308  10.925 -0.3193 -1.0072 -0.1073
   77MOL0     C10553   5.467   0.326  10.932  0.4023 -0.4397  0.2677
   77MOL0     C10554   5.452   0.626  10.681 -0.3823  0.4282 -0.4109
   77MOL0     C10555   5.583   0.683  10.682  0.3643 -0.0536 -0.6002
   77MOL0     C10556   5.671   0.665  10.793  0.4395  0.5354 -0.2639
   77MOL0     H10557   6.053   0.864  10.536  0.8862  1.4765 -0.3035
   77MOL0     H10558   6.194   1.070  10.485 -1.6425  0.6987  4.2008
   77MOL0     H10559   5.984   1.408  10.383 -0.3761 -3.9710  0.2921
   77MOL0     H10560   6.025   1.395  10.205  0.1505 -0.1586 -0.2590
   77MOL0     H10561   6.225   1.501  10.407  1.5145 -0.6324 -0.1080
   77MOL0     H10562   6.253   1.486  10.246 -0.1570 -4.9812  1.6228
   77MOL0     H10563   6.041   1.648  10.212 -1.9489 -0.9384  1.2234
   77MOL0     H10564   5.998   1.629  10.382  0.1934 -0.3416 -0.8489
   77MOL0     H10565   6.178   1.749  10.455 -0.0138 -2.0682  0.0098
   77MOL0     H10566   6.237   1.781  10.286  1.0009 -0.8212 -0.8830
   77MOL0     H10567   5.967   1.871  10.403 -0.6873  1.7052 -1.2197
   77MOL0     H10568   6.030   1.915  10.245  1.3824  2.8389 -0.5433
   77MOL0     H10569   6.190   1.979  10.473 -1.0717 -2.2630 -0.4961
   77MOL0     H10570   6.175   2.044  10.306 -0.8472 -1.5684 -1.1480
   77MOL0     H10571   5.962   2.091  10.525  0.1856  1.3760  1.8079
   77MOL0     H10572   5.972   2.174  10.369 -1.7906  1.8159  1.2948
   77MOL0     H10573   6.179   2.186  10.600  0.5077  0.5426 -1.0201
   77MOL0     H10574   6.198   2.282  10.463  0.6192 -0.3607 -0.7643
   77MOL0     H10575   5.856   2.246  10.633  0.6763  0.0460  2.0976
   77MOL0     H10576   5.744   2.495  10.823  1.2412 -2.6013 -0.1254
   77MOL0     H10577   5.675   2.383  10.712 -0.6423  0.5832 -1.7699
   77MOL0     H10578   5.692   2.686  10.676  1.9642 -1.5602 -0.6260
   77MOL0     H10579   5.665   2.586  10.535  0.5808  2.7430 -0.7923
   77MOL0     H10580   5.476   2.476  10.630 -0.1099 -1.2182  2.4031
   77MOL0     H10581   5.488   2.578  10.775 -1.3330  0.8300 -0.5605
   77MOL0     H10582   5.321   2.707  10.614  0.1513  1.4276  1.0271
   77MOL0     H10583   5.482   2.771  10.592  0.7589 -0.5017 -1.3477
   77MOL0     H10584   5.353   2.594  10.219  2.4210 -1.8871 -1.0677
   77MOL0     H10585   5.128   2.402  10.035 -0.6611 -0.2066  0.7582
   77MOL0     H10586   5.284   2.307  10.073  0.5904  0.2835  1.6362
   77MOL0     H10587   5.290   2.475  10.034  1.3423 -2.2229 -2.2605
   77MOL0     H10588   5.019   1.953  10.533  0.8124 -1.7323 -1.5443
   77MOL0     H10589   4.828   1.778  10.568  1.0509 -0.2955 -0.8267
   77MOL0     H10590   4.718   1.643  10.324  1.2562  1.8409  2.6416
   77MOL0     H10591   4.695   1.634  10.500 -1.6356  2.8555  1.9922
   77MOL0     H10592   4.467   1.589  10.293  4.0288 -0.8079 -2.1114
   77MOL0     H10593   4.541   1.464  10.376  0.6334 -0.2326 -0.5462
   77MOL0     H10594   4.346   1.693  10.469 -1.1069 -0.5855  1.3675
   77MOL0     H10595   4.461   1.626  10.588  1.4410  2.6259 -0.6866
   77MOL0     H10596   4.395   1.412  10.538 -0.1698 -2.3539 -0.7745
   77MOL0     H10597   4.274   1.452  10.413 -0.0205 -1.2588  1.2044
   77MOL0     H10598   4.262   1.511  10.708  1.3164 -2.8927 -0.3513
   77MOL0     H10599   4.160   1.606  10.602 -1.8526 -0.7050  1.9583
   77MOL0     H10600   4.064   1.428  10.510  0.5265 -1.1608 -0.6266
   77MOL0     H10601   4.031   1.428  10.691 -0.0838 -3.7272 -0.2636
   77MOL0     H10602   4.181   1.231  10.716 -0.0055 -1.0976  0.6594
   77MOL0     H10603   4.220   1.226  10.547  1.3203  0.3018  0.2106
   77MOL0     H10604   4.046   1.080  10.536 -0.0664 -0.7389 -0.5161
   77MOL0     H10605   3.941   1.227  10.550 -2.7163 -3.2237  0.3698
   77MOL0     H10606   4.602   2.013  10.277  0.6810  2.8629 -0.0325
   77MOL0     H10607   4.788   2.140  10.239  1.4094  0.5744 -0.0689
   77MOL0     H10608   5.114   2.327  10.541  0.7445  1.6327  1.8095
   77MOL0     H10609   5.279   2.461  10.614  1.7023 -2.6803  0.4380
   77MOL0     H10610   5.854   1.224  10.249 -1.8605 -0.1761  0.1442
   77MOL0     H10611   5.740   1.031  10.291  0.0961  3.7119  1.4367
   77MOL0     H10612   5.551   0.828  10.370  1.0671 -0.2913  0.1332
   77MOL0     H10613   5.333   0.742  10.390 -0.1943 -2.5620 -0.3513
   77MOL0     H10614   5.217   0.542  10.770  0.2309 -0.5203  0.8555
   77MOL0     H10615   5.074   0.516  10.675  0.5829 -3.6878  3.0772
   77MOL0     H10616   5.314   0.335  10.654 -0.8017 -0.4881 -1.7027
   77MOL0     H10617   5.178   0.324  10.554  1.4470 -1.6773  0.1300
   77MOL0     H10618   5.040   0.250  10.762  0.9190  0.6209 -1.8484
   77MOL0     H10619   5.194   0.161  10.759  3.2109  1.8691 -1.8138
   77MOL0     H10620   5.156   0.216  10.978  2.5879  0.2680  1.4023
   77MOL0     H10621   5.140   0.389  10.955 -0.8473 -1.5243  3.1696
   77MOL0     H10622   5.571   0.338  10.953  0.2893 -0.8275  1.0583
   77MOL0     H10623   5.431   0.561  10.765 -3.2087 -0.6166 -1.7748
   77MOL0     H10624   5.752   0.737  10.784  0.2390  0.6505 -1.2778
   77MOL0     H10625   5.615   0.683  10.886  2.0037  2.0237  0.4564
   77MOL0     H10626   5.708   0.562  10.792 -1.7447 -0.3527  1.4571
   78MOL0     O10627   3.154   9.210   3.572  0.2406 -0.5706  0.5991
   78MOL0     C10628   3.174   9.122   3.492  0.2046 -0.5908  0.2524
   78MOL0     O10629   3.289   9.073   3.446 -0.0761  0.5653 -0.6217
   78MOL0     C10630   3.405   9.116   3.507  0.1057 -0.7287 -0.3547
   78MOL0     C10631   3.445   9.063   3.630  0.1206  0.5469 -0.7005
   78MOL0     C10632   3.572   9.094   3.680  0.5429  0.0312  0.2075
   78MOL0     C10633   3.666   9.169   3.609  0.7819 -0.3260 -0.0330
   78MOL0     O10634   3.786   9.208   3.656  0.2916  0.3995  0.3486
   78MOL0     C10635   3.848   9.108   3.731 -0.2342  0.1747 -0.9609
   78MOL0     C10636   3.981   9.156   3.770 -0.1744 -0.0143 -0.0089
   78MOL0     C10637   4.071   9.170   3.646  0.0547 -0.8392  0.0644
   78MOL0     C10638   4.219   9.197   3.678 -0.7445  0.6266 -0.3640
   78MOL0     C10639   4.298   9.222   3.541  0.5172 -0.2442 -0.9132
   78MOL0     C10640   4.445   9.207   3.548  0.2078  0.7027  0.3232
   78MOL0     C10641   4.497   9.071   3.585 -1.2488  0.0421  0.9671
   78MOL0     C10642   4.649   9.058   3.579  0.6342 -0.6567 -0.1719
   78MOL0     N10643   4.704   8.984   3.472 -0.5154 -0.4398 -0.6482
   78MOL0     C10644   4.679   9.001   3.337 -0.6358  0.0353 -0.1678
   78MOL0     C10645   4.765   8.917   3.279  0.0063 -0.0624  0.2540
   78MOL0     C10646   4.802   8.890   3.137 -0.3485 -0.5899  0.2712
   78MOL0     C10647   4.960   8.873   3.123 -0.0077  1.1902  0.2308
   78MOL0     C10648   5.035   9.000   3.166 -1.4447 -0.1166 -1.2913
   78MOL0     C10649   5.185   8.969   3.200  0.0509 -0.5683  0.5190
   78MOL0     O10650   5.242   8.912   3.083  0.2687  0.8506 -0.3040
   78MOL0     C10651   5.341   8.985   3.023 -0.0807  0.1371  0.3291
   78MOL0     C10652   5.319   9.090   2.936  1.0742  0.1553  0.2733
   78MOL0     C10653   5.425   9.164   2.878 -0.4499  0.1215  0.2070
   78MOL0     C10654   5.386   9.273   2.780  0.3281 -0.0808  0.3164
   78MOL0     C10655   5.559   9.119   2.897  0.3477  0.1931 -0.4829
   78MOL0     C10656   5.678   9.188   2.846  0.2058 -0.4103  0.2192
   78MOL0     O10657   5.791   9.177   2.918  0.5314  0.7443  0.4046
   78MOL0     C10658   5.891   9.256   2.893  0.0408 -0.1920  0.4065
   78MOL0     C10659   5.893   9.381   2.957  0.0612 -0.4491 -0.0308
   78MOL0     C10660   6.007   9.465   2.950 -0.1623  0.0572 -1.0553
   78MOL0     C10661   6.097   9.445   2.853 -0.4051  0.1866  0.2912
   78MOL0     O10662   6.190   9.542   2.835 -0.2176 -0.1702 -0.0883
   78MOL0     C10663   6.269   9.563   2.716 -0.4573  1.2025 -0.1627
   78MOL0     C10664   6.320   9.711   2.731 -0.5043 -0.3004  0.2908
   78MOL0     C10665   6.211   9.807   2.780 -0.3512 -0.2265 -0.3016
   78MOL0     C10666   6.277   9.936   2.842 -0.2055 -0.3806  0.9649
   78MOL0     C10667   6.389  10.010   2.765  0.2339  0.3267  0.3711
   78MOL0     C10668   6.432  10.149   2.827 -0.4480  0.6769  0.6945
   78MOL0     C10669   6.514  10.130   2.954 -0.7840 -1.1407  0.5179
   78MOL0     C10670   6.556  10.272   2.999 -0.4608  0.2358 -0.2729
   78MOL0    Cl10671   6.667  10.367   2.893 -0.2091 -0.2800  0.4907
   78MOL0     C10672   6.094   9.318   2.783  0.2651 -1.0901  0.0226
   78MOL0     C10673   5.999   9.221   2.812  1.0058 -0.0091  0.0528
   78MOL0     O10674   5.672   9.252   2.741 -0.1902 -0.4532 -0.1936
   78MOL0     C10675   5.581   9.009   2.987  0.3897  0.5653  0.3116
   78MOL0     C10676   5.468   8.942   3.044  0.8451  0.1252 -0.9909
   78MOL0     N10677   4.838   8.854   3.382 -0.0486 -0.2072 -0.2050
   78MOL0     N10678   4.796   8.890   3.494  0.3215 -0.1745  0.7782
   78MOL0     C10679   3.629   9.214   3.480  0.2658 -0.0814 -0.1492
   78MOL0     C10680   3.497   9.194   3.437 -0.5015 -0.0314 -0.2380
   78MOL0     C10681   3.056   9.047   3.443  0.4475  0.3068  0.8328
   78MOL0     C10682   3.071   8.953   3.338 -0.2866  0.2724 -0.2195
   78MOL0     C10683   2.979   8.867   3.294  0.7946 -1.4069 -0.0705
   78MOL0     C10684   2.845   8.872   3.346 -0.9814  0.3613  0.3428
   78MOL0     O10685   2.739   8.803   3.300  0.1176 -0.3343  0.2562
   78MOL0     C10686   2.761   8.663   3.319  0.6257 -0.5465  0.3633
   78MOL0     C10687   2.689   8.610   3.195 -0.1911 -0.0828 -0.7817
   78MOL0     C10688   2.662   8.456   3.195  0.4276 -0.8275  0.3834
   78MOL0     C10689   2.567   8.421   3.085  0.0773 -0.7409  0.2437
   78MOL0     C10690   2.549   8.283   3.108  0.2449  0.1067 -0.7627
   78MOL0     C10691   2.545   8.162   3.132  0.2605 -0.0120  1.1894
   78MOL0     C10692   2.825   8.965   3.445  0.4866 -0.4534  0.5609
   78MOL0     C10693   2.927   9.053   3.498  0.1646  0.0092  0.1407
   78MOL0     C10694   2.879   9.134   3.614  0.3299  0.9126 -0.1349
   78MOL0     H10695   3.381   8.997   3.687  1.0256  1.0620  0.9625
   78MOL0     H10696   3.595   9.062   3.781  0.8663 -0.5613 -0.0503
   78MOL0     H10697   3.850   9.014   3.674  1.2409  0.0288 -0.7067
   78MOL0     H10698   3.798   9.092   3.827 -0.3150 -0.9870 -1.1816
   78MOL0     H10699   3.979   9.249   3.827 -0.0823 -1.5174  2.6178
   78MOL0     H10700   4.031   9.080   3.832 -1.0170 -2.0737 -1.7313
   78MOL0     H10701   4.067   9.081   3.584  1.1424 -0.4954 -0.5231
   78MOL0     H10702   4.028   9.254   3.590 -2.4477 -0.2971  2.5704
   78MOL0     H10703   4.227   9.284   3.744 -0.0801 -1.6530  2.8238
   78MOL0     H10704   4.254   9.114   3.740 -1.3419  0.9622  0.4579
   78MOL0     H10705   4.272   9.323   3.509  0.0069  0.0851  0.4671
   78MOL0     H10706   4.248   9.162   3.464 -2.8350  0.8032  0.2950
   78MOL0     H10707   4.474   9.229   3.445 -1.9445  0.8040 -0.3230
   78MOL0     H10708   4.476   9.287   3.616  0.0028 -0.8949  2.3897
   78MOL0     H10709   4.444   8.992   3.530 -0.5000 -0.8166  1.4506
   78MOL0     H10710   4.476   9.059   3.692  2.1134 -0.0756  1.7127
   78MOL0     H10711   4.683   9.162   3.569  2.2588 -1.3835 -4.0723
   78MOL0     H10712   4.689   9.026   3.675  2.1763  2.1645  0.2263
   78MOL0     H10713   4.616   9.080   3.296 -3.5952 -0.1737  3.4867
   78MOL0     H10714   4.766   8.977   3.081 -1.2847 -1.1240  0.0291
   78MOL0     H10715   4.739   8.810   3.099 -0.1453 -1.8623  2.4668
   78MOL0     H10716   4.987   8.792   3.191 -0.9881  0.5838 -0.0961
   78MOL0     H10717   4.994   8.852   3.021  1.0846 -0.5934  0.9194
   78MOL0     H10718   5.028   9.083   3.095 -3.8056 -0.4688 -1.5513
   78MOL0     H10719   4.992   9.039   3.258 -1.4007  0.4355 -1.4956
   78MOL0     H10720   5.241   9.058   3.229 -0.1512  0.2939 -1.5768
   78MOL0     H10721   5.183   8.901   3.286 -4.4354  1.9379  2.7562
   78MOL0     H10722   5.214   9.114   2.924  0.9095  1.1096  2.9470
   78MOL0     H10723   5.450   9.287   2.693  0.9730  1.7051  1.0360
   78MOL0     H10724   5.399   9.368   2.832 -3.3869 -0.1345  1.6780
   78MOL0     H10725   5.285   9.251   2.743  1.0319 -1.6199 -0.8057
   78MOL0     H10726   5.809   9.394   3.024  0.4653  0.8429  0.2387
   78MOL0     H10727   6.019   9.536   3.031  2.0179 -2.0383  0.5996
   78MOL0     H10728   6.356   9.497   2.713 -0.5532  1.0364  0.4597
   78MOL0     H10729   6.207   9.553   2.626  0.6158  0.7535 -0.8744
   78MOL0     H10730   6.407   9.714   2.797  0.6050  2.1957 -1.1452
   78MOL0     H10731   6.349   9.731   2.627 -1.0631 -4.5295 -0.8924
   78MOL0     H10732   6.153   9.772   2.866  0.8613 -2.9896 -0.5131
   78MOL0     H10733   6.144   9.830   2.696  1.1453  0.7662 -1.2795
   78MOL0     H10734   6.321   9.912   2.939  0.1538  0.4571  1.0207
   78MOL0     H10735   6.190  10.000   2.860 -0.0527 -0.8604  3.7812
   78MOL0     H10736   6.476   9.944   2.763 -1.3822 -1.9444  0.3330
   78MOL0     H10737   6.357  10.035   2.663  1.2357  3.3659  0.6938
   78MOL0     H10738   6.353  10.222   2.843  0.9289  2.0510  1.5918
   78MOL0     H10739   6.501  10.201   2.760  1.6457 -2.5270  0.1136
   78MOL0     H10740   6.602  10.066   2.949  0.8928  0.6236  3.9015
   78MOL0     H10741   6.453  10.087   3.034 -0.4189 -0.7890  0.9959
   78MOL0     H10742   6.601  10.267   3.098 -0.7895 -1.3959 -0.1870
   78MOL0     H10743   6.465  10.332   3.013  0.2201  1.2544 -0.0805
   78MOL0     H10744   6.173   9.310   2.709  0.5728 -1.0297  0.3452
   78MOL0     H10745   6.008   9.124   2.765 -3.0157 -0.7925  0.5741
   78MOL0     H10746   5.674   8.966   3.022 -0.2907 -1.7242 -0.5394
   78MOL0     H10747   5.487   8.855   3.105  0.9781  0.3349 -0.7283
   78MOL0     H10748   3.690   9.289   3.430 -0.8088  0.4959 -0.6491
   78MOL0     H10749   3.452   9.245   3.353 -0.9461  1.6697  0.9876
   78MOL0     H10750   3.166   8.949   3.286 -1.4720 -0.4958 -2.4581
   78MOL0     H10751   3.005   8.801   3.212 -0.0000 -1.4107 -0.3264
   78MOL0     H10752   2.867   8.636   3.312  0.7653  0.2261 -0.5919
   78MOL0     H10753   2.711   8.611   3.402  1.6884 -3.2742 -0.5888
   78MOL0     H10754   2.756   8.642   3.114  2.2418  0.5996  1.3630
   78MOL0     H10755   2.596   8.660   3.167  1.1202  0.3674 -4.9484
   78MOL0     H10756   2.760   8.409   3.183  1.5109  1.3868 -0.0082
   78MOL0     H10757   2.609   8.437   3.289 -1.1455  2.5084  0.3024
   78MOL0     H10758   2.622   8.446   2.994  0.5094 -1.3258  0.3350
   78MOL0     H10759   2.469   8.468   3.093 -0.0997 -0.6448 -1.8555
   78MOL0     H10760   2.543   8.055   3.136  2.9394 -0.1600  0.5113
   78MOL0     H10761   2.724   8.963   3.484 -0.1533  0.9731 -0.9224
   78MOL0     H10762   2.815   9.207   3.564  1.0438  0.8258 -1.2247
   78MOL0     H10763   2.832   9.069   3.689 -0.5540 -0.1857 -1.5596
   78MOL0     H10764   2.949   9.198   3.667 -0.3373  1.6832 -0.1629
   79MOL0     O10765   0.861  10.499   0.714  0.0235 -1.4277  0.2086
   79MOL0     C10766   0.936  10.580   0.667 -0.2272 -0.0398  0.0217
   79MOL0     O10767   1.052  10.558   0.606  0.4598 -0.2744 -0.4830
   79MOL0     C10768   1.133  10.458   0.643 -0.5928 -0.3341  0.0123
   79MOL0     C10769   1.143  10.411   0.773 -0.5733 -0.4365  0.0622
   79MOL0     C10770   1.233  10.308   0.796  0.3260 -1.2170  0.0139
   79MOL0     C10771   1.312  10.249   0.700  0.0359 -0.5715 -0.4250
   79MOL0     O10772   1.393  10.145   0.734 -0.5942  0.2543 -0.4776
   79MOL0     C10773   1.480  10.082   0.643 -0.4334  0.2886  0.1863
   79MOL0     C10774   1.535   9.954   0.694  0.1900 -0.6337 -0.3556
   79MOL0     C10775   1.641   9.900   0.602 -0.5934  0.2953 -1.0783
   79MOL0     C10776   1.704   9.764   0.650  0.0415 -0.3118 -0.0002
   79MOL0     C10777   1.801   9.781   0.766  0.5742 -1.0127 -0.1901
   79MOL0     C10778   1.822   9.645   0.834 -0.0862 -0.1528 -0.0629
   79MOL0     C10779   1.926   9.646   0.942 -0.6939 -0.0223 -0.0048
   79MOL0     C10780   1.925   9.511   1.021  1.1167 -0.2120  0.2567
   79MOL0     N10781   2.059   9.460   1.048  0.4434  0.7678 -0.3767
   79MOL0     C10782   2.148   9.410   0.951 -0.5261  0.5471  0.4036
   79MOL0     C10783   2.244   9.354   1.020 -0.5483 -0.3299 -0.5842
   79MOL0     C10784   2.378   9.316   0.964 -1.0412  0.7385 -0.2035
   79MOL0     C10785   2.478   9.438   0.960  0.1399  0.8825  0.9953
   79MOL0     C10786   2.622   9.412   0.906  0.1541  0.8693 -0.2505
   79MOL0     C10787   2.708   9.519   0.959 -0.4391  0.3654  0.2119
   79MOL0     O10788   2.693   9.635   0.877 -0.3271 -0.3662 -0.0571
   79MOL0     C10789   2.798   9.719   0.869  0.4476 -0.5937 -0.0163
   79MOL0     C10790   2.778   9.848   0.824  0.5483  0.3136 -0.4173
   79MOL0     C10791   2.868   9.953   0.817 -0.1504 -0.1644 -0.0828
   79MOL0     C10792   2.818  10.086   0.756 -0.2568  0.1002 -0.3227
   79MOL0     C10793   3.003   9.919   0.857 -0.0077  0.5524  0.5619
   79MOL0     C10794   3.118  10.011   0.835 -0.7242 -1.0675  0.0999
   79MOL0     O10795   3.238   9.971   0.892  0.3131  0.5462  0.2667
   79MOL0     C10796   3.351  10.055   0.894  0.8060  0.1035  0.0944
   79MOL0     C10797   3.418  10.073   1.019 -0.3360 -0.0605  0.0111
   79MOL0     C10798   3.530  10.159   1.015  0.1472  0.0187 -0.2912
   79MOL0     C10799   3.574  10.217   0.898 -0.6835 -0.0554  0.1954
   79MOL0     O10800   3.680  10.305   0.879 -0.1234 -0.7308 -0.7397
   79MOL0     C10801   3.771  10.313   0.992  0.9264 -0.0339  0.0209
   79MOL0     C10802   3.893  10.405   0.970  0.1640  0.1494  0.0771
   79MOL0     C10803   3.933  10.420   0.824  0.1188  0.0551  0.4358
   79MOL0     C10804   4.059  10.507   0.839 -0.4168  0.4855  0.2734
   79MOL0     C10805   4.111  10.548   0.702  0.4919 -0.1852  0.5730
   79MOL0     C10806   4.209  10.659   0.718 -0.0797 -0.3665  0.2227
   79MOL0     C10807   4.257  10.703   0.580  0.1694  0.3215 -0.1711
   79MOL0     C10808   4.325  10.837   0.586  0.6129  0.0208  0.1961
   79MOL0    Cl10809   4.444  10.834   0.710 -0.5579 -0.1451  0.2153
   79MOL0     C10810   3.512  10.190   0.778  0.6182 -0.2838  0.0456
   79MOL0     C10811   3.398  10.112   0.773 -0.0282 -0.8002  0.3574
   79MOL0     O10812   3.099  10.123   0.787 -0.5625 -0.2855  0.0096
   79MOL0     C10813   3.033   9.786   0.904  0.1226 -0.2712 -0.2208
   79MOL0     C10814   2.930   9.691   0.903 -0.2613  0.0181 -0.0473
   79MOL0     N10815   2.219   9.383   1.156 -0.0487  0.3112  0.2062
   79MOL0     N10816   2.116   9.452   1.166  0.2629  0.1044 -0.2814
   79MOL0     C10817   1.310  10.303   0.569 -0.4585  0.1780  0.6812
   79MOL0     C10818   1.222  10.401   0.537  0.3375 -1.2603  0.2765
   79MOL0     C10819   0.868  10.714   0.649 -0.1922  0.4531 -0.1091
   79MOL0     C10820   0.849  10.785   0.769  0.4656 -0.2004  0.0674
   79MOL0     C10821   0.798  10.916   0.778 -0.3933  0.3437  0.0853
   79MOL0     C10822   0.781  10.987   0.655 -0.4046 -0.2393 -0.6096
   79MOL0     O10823   0.753  11.122   0.658 -0.3850  0.0715  0.3685
   79MOL0     C10824   0.696  11.195   0.774  0.3132  0.8544  0.1605
   79MOL0     C10825   0.810  11.276   0.835  0.1664  0.2380 -0.0444
   79MOL0     C10826   0.742  11.392   0.915 -0.3611  0.1630  0.3559
   79MOL0     C10827   0.738  11.518   0.821 -0.0020 -0.3957 -0.2121
   79MOL0     C10828   0.610  11.591   0.825 -1.1560  0.2212  0.5788
   79MOL0     C10829   0.508  11.650   0.828 -0.3691 -0.4031 -0.3570
   79MOL0     C10830   0.805  10.926   0.530 -0.5817  0.0080 -0.6080
   79MOL0     C10831   0.850  10.791   0.525 -0.3653  0.1853 -0.1844
   79MOL0     C10832   0.887  10.727   0.397 -0.6126 -0.7626  0.1297
   79MOL0     H10833   1.092  10.459   0.855  0.4380 -0.4351  0.7000
   79MOL0     H10834   1.230  10.266   0.896 -3.6332 -1.3178  0.0101
   79MOL0     H10835   1.560  10.148   0.608  0.8017 -0.3701  1.6614
   79MOL0     H10836   1.421  10.042   0.559 -1.1448 -2.8265  2.0068
   79MOL0     H10837   1.581   9.980   0.790 -2.1855 -2.2656  1.3317
   79MOL0     H10838   1.456   9.881   0.714 -1.7659  1.0990 -1.3947
   79MOL0     H10839   1.595   9.873   0.506 -1.4806 -0.0320 -0.5759
   79MOL0     H10840   1.720   9.975   0.590 -0.5453  1.0051  2.6119
   79MOL0     H10841   1.624   9.704   0.693  0.7414 -1.2366  0.0477
   79MOL0     H10842   1.756   9.709   0.571 -0.5641 -4.0384  1.9626
   79MOL0     H10843   1.745   9.836   0.842 -1.4522 -0.2595 -2.1176
   79MOL0     H10844   1.877   9.853   0.734 -0.2922  1.6356  3.1615
   79MOL0     H10845   1.736   9.621   0.897  1.9154 -2.5324  1.9913
   79MOL0     H10846   1.853   9.563   0.768  1.4512 -1.3777  2.0432
   79MOL0     H10847   1.921   9.736   1.005  0.3947 -0.3776  0.6212
   79MOL0     H10848   2.022   9.652   0.891  1.2568  0.1742  3.3977
   79MOL0     H10849   1.862   9.521   1.109 -1.2011  1.0352 -1.4172
   79MOL0     H10850   1.876   9.431   0.965  0.5092  0.0389  0.4268
   79MOL0     H10851   2.137   9.404   0.843 -0.6404 -1.3060  0.4730
   79MOL0     H10852   2.368   9.275   0.863 -2.0033 -1.8238  0.8520
   79MOL0     H10853   2.415   9.236   1.029 -1.5688 -1.0544 -2.0024
   79MOL0     H10854   2.426   9.514   0.901 -2.8519 -1.0672  0.9131
   79MOL0     H10855   2.475   9.471   1.065  0.7160 -0.5171  1.4731
   79MOL0     H10856   2.648   9.313   0.944 -1.1979 -0.2191 -2.0577
   79MOL0     H10857   2.624   9.411   0.797  0.5365  1.1515 -0.2486
   79MOL0     H10858   2.684   9.534   1.065  0.0397 -1.7312  0.6551
   79MOL0     H10859   2.806   9.472   0.951  0.3285  1.8992  0.1151
   79MOL0     H10860   2.675   9.865   0.794  0.8960  0.1978 -1.7339
   79MOL0     H10861   2.713  10.077   0.727  0.0781 -1.5865 -1.1716
   79MOL0     H10862   2.885  10.114   0.674 -1.5712  0.8642 -1.1651
   79MOL0     H10863   2.815  10.165   0.832  0.7740  1.4424 -1.6228
   79MOL0     H10864   3.393  10.029   1.115  0.4056  1.6963  1.0482
   79MOL0     H10865   3.585  10.175   1.107 -1.1620 -2.3876  1.0070
   79MOL0     H10866   3.722  10.340   1.086  1.2786  0.1444  0.1544
   79MOL0     H10867   3.813  10.212   0.994  2.2218  0.4699 -0.5182
   79MOL0     H10868   3.860  10.501   1.010  0.0245  0.4666 -0.7690
   79MOL0     H10869   3.975  10.370   1.033  0.0527 -0.3731 -0.0696
   79MOL0     H10870   3.857  10.456   0.754  0.3162  1.0976  0.7556
   79MOL0     H10871   3.966  10.325   0.780 -0.2112  0.5594 -0.9411
   79MOL0     H10872   4.137  10.462   0.901 -1.9931  0.1604  2.1235
   79MOL0     H10873   4.026  10.597   0.892  1.0608  0.2538  1.6556
   79MOL0     H10874   4.168  10.469   0.652  2.2425  1.2718  0.1737
   79MOL0     H10875   4.035  10.593   0.638  1.5526 -1.9122 -2.0808
   79MOL0     H10876   4.287  10.630   0.789 -0.9627 -0.1370  1.3128
   79MOL0     H10877   4.166  10.749   0.762  3.1067  0.8664  1.1127
   79MOL0     H10878   4.169  10.722   0.518  1.6979  0.6592 -2.3250
   79MOL0     H10879   4.312  10.626   0.525 -2.1521 -1.5059 -0.1314
   79MOL0     H10880   4.260  10.923   0.606 -0.1887 -0.2324 -1.1793
   79MOL0     H10881   4.365  10.858   0.486 -3.0065 -0.4329 -1.5178
   79MOL0     H10882   3.542  10.236   0.684  0.1034  1.8592  0.8728
   79MOL0     H10883   3.354  10.097   0.675 -1.4565  0.7670  0.7149
   79MOL0     H10884   3.133   9.763   0.939  0.5234  2.2784  0.4666
   79MOL0     H10885   2.961   9.594   0.940 -1.8808 -0.6702 -0.3977
   79MOL0     H10886   1.385  10.273   0.497 -0.2817  2.7908 -0.3332
   79MOL0     H10887   1.211  10.435   0.434 -0.9060  0.7561  1.0246
   79MOL0     H10888   0.867  10.744   0.868  1.6180 -1.4747 -0.6340
   79MOL0     H10889   0.780  10.962   0.874 -3.2498 -1.8024  0.6910
   79MOL0     H10890   0.623  11.267   0.737 -1.5498 -1.1891 -0.3149
   79MOL0     H10891   0.644  11.134   0.848  0.8738 -1.8418 -1.4981
   79MOL0     H10892   0.887  11.306   0.764 -1.0454 -2.8062 -2.8993
   79MOL0     H10893   0.857  11.216   0.914 -1.9621 -0.9249  0.4143
   79MOL0     H10894   0.641  11.364   0.949  0.0591 -1.4096  0.3721
   79MOL0     H10895   0.809  11.409   0.999 -0.3319  4.4595 -0.3124
   79MOL0     H10896   0.761  11.491   0.718 -1.2926  3.5434 -1.7267
   79MOL0     H10897   0.817  11.586   0.856 -1.0647  1.5776 -1.4787
   79MOL0     H10898   0.413  11.701   0.823 -0.3465 -0.4515 -2.9165
   79MOL0     H10899   0.794  10.982   0.437  2.3621 -0.5074 -1.3691
   79MOL0     H10900   0.826  10.752   0.310 -1.2553  0.1776  0.8220
   79MOL0     H10901   0.991  10.756   0.375 -1.1338  1.1543 -0.0221
   79MOL0     H10902   0.884  10.618   0.405  0.1150 -0.8064 -0.0610
   80MOL0     O10903   5.655   2.331   6.504 -0.1440  0.5421  0.3030
   80MOL0     C10904   5.647   2.239   6.421  0.5085 -0.3103 -0.2420
   80MOL0     O10905   5.754   2.174   6.366  0.5135  0.6440 -0.0515
   80MOL0     C10906   5.884   2.187   6.410  0.5536 -0.4270  0.4795
   80MOL0     C10907   5.965   2.078   6.380  0.0836  0.2888  0.4186
   80MOL0     C10908   6.110   2.071   6.416  0.0819 -0.0069  0.5510
   80MOL0     C10909   6.166   2.193   6.475 -0.1467  1.0080 -0.8102
   80MOL0     O10910   6.294   2.210   6.513 -1.0362 -1.3248 -0.0294
   80MOL0     C10911   6.391   2.157   6.431 -0.8819  0.4371  0.0022
   80MOL0     C10912   6.530   2.224   6.466  0.0974  0.1491  0.2899
   80MOL0     C10913   6.529   2.376   6.449  0.6059  0.3650  0.7189
   80MOL0     C10914   6.666   2.430   6.455 -0.2560 -0.2470  0.8749
   80MOL0     C10915   6.713   2.421   6.600 -0.7412  0.3902 -0.2877
   80MOL0     C10916   6.840   2.492   6.640 -0.6237  0.2866 -0.1681
   80MOL0     C10917   6.964   2.415   6.575  0.1307 -0.9761  0.0623
   80MOL0     C10918   7.096   2.482   6.606 -0.5903  0.1481  0.3773
   80MOL0     N10919   7.097   2.624   6.557 -0.3992 -0.1633 -0.7166
   80MOL0     C10920   7.053   2.650   6.426  0.7925  0.2320  0.9110
   80MOL0     C10921   6.994   2.772   6.432 -0.2795 -1.8649 -0.7185
   80MOL0     C10922   6.932   2.851   6.326 -0.1890  0.3344  0.4999
   80MOL0     C10923   7.034   2.943   6.260 -0.3413 -0.6625 -0.1548
   80MOL0     C10924   7.072   2.897   6.114 -0.0799  0.0401  0.5039
   80MOL0     C10925   7.164   2.996   6.049 -0.7261 -0.9029 -0.6742
   80MOL0     O10926   7.186   2.968   5.911  0.8070  0.3192  0.2164
   80MOL0     C10927   7.249   3.061   5.833 -0.1386 -0.2861  0.3571
   80MOL0     C10928   7.279   3.006   5.717 -0.1113  0.5324 -0.0175
   80MOL0     C10929   7.371   3.075   5.632  0.4628  0.5069  0.4730
   80MOL0     C10930   7.423   2.998   5.508 -1.0076  0.0273  1.2561
   80MOL0     C10931   7.419   3.198   5.672 -0.0688 -0.7846  0.2928
   80MOL0     C10932   7.506   3.292   5.588  0.2033 -0.1004 -0.3368
   80MOL0     O10933   7.557   3.402   5.652  0.6185 -0.2601 -0.2197
   80MOL0     C10934   7.631   3.503   5.587 -1.1539 -0.2518 -0.4681
   80MOL0     C10935   7.752   3.554   5.636  0.6605  0.6104  0.4304
   80MOL0     C10936   7.830   3.648   5.565  0.2944  0.1740  0.4694
   80MOL0     C10937   7.774   3.706   5.446  0.1016  0.4568 -0.7732
   80MOL0     O10938   7.834   3.799   5.364  0.1785  0.0124 -0.8586
   80MOL0     C10939   7.944   3.867   5.422 -0.0071 -0.0389 -0.4061
   80MOL0     C10940   8.000   3.974   5.318  0.0291 -0.3012 -0.3851
   80MOL0     C10941   8.070   3.903   5.205  0.7089 -0.5667  0.3835
   80MOL0     C10942   8.178   3.997   5.153 -0.4325 -1.0954  0.1109
   80MOL0     C10943   8.232   3.979   5.012  0.0091  0.6000  0.4530
   80MOL0     C10944   8.354   4.075   4.988 -0.4560  0.4066 -0.7075
   80MOL0     C10945   8.483   4.022   5.050 -0.1724  0.5862 -1.1082
   80MOL0     C10946   8.603   4.103   5.005  1.0443  0.5585 -0.5921
   80MOL0    Cl10947   8.593   4.271   5.068  0.0583 -0.1175  0.5243
   80MOL0     C10948   7.650   3.656   5.395  0.1587  0.3428  0.0345
   80MOL0     C10949   7.582   3.557   5.469  0.2814 -0.0423 -0.3045
   80MOL0     O10950   7.502   3.274   5.467  0.3138  0.3026 -0.4374
   80MOL0     C10951   7.360   3.267   5.780  0.2158  0.5265 -1.1785
   80MOL0     C10952   7.276   3.192   5.870 -0.4959  0.8691  0.5883
   80MOL0     N10953   7.010   2.826   6.559  0.3850  0.5089 -0.3449
   80MOL0     N10954   7.068   2.732   6.634 -0.5663  0.0672 -0.5224
   80MOL0     C10955   6.084   2.302   6.499 -0.0341  0.0117 -0.5709
   80MOL0     C10956   5.948   2.296   6.471  0.2777 -0.3679 -0.3370
   80MOL0     C10957   5.513   2.195   6.372  0.8683 -0.4053 -0.0953
   80MOL0     C10958   5.496   2.080   6.291 -0.2525  0.9573 -0.1154
   80MOL0     C10959   5.364   2.040   6.241  0.2702  0.5463  0.2469
   80MOL0     C10960   5.251   2.106   6.280 -0.2390  0.0673 -0.0583
   80MOL0     O10961   5.133   2.046   6.241  0.0002 -0.0596  0.0853
   80MOL0     C10962   5.016   2.135   6.213 -0.1779  0.1257  1.7544
   80MOL0     C10963   4.909   2.055   6.124  0.1619  0.0063 -0.2241
   80MOL0     C10964   4.866   1.915   6.183 -0.1741 -0.0594  0.4653
   80MOL0     C10965   4.752   1.853   6.117  0.2536 -0.2794 -0.2269
   80MOL0     C10966   4.633   1.925   6.170  0.1805 -0.0368  0.4722
   80MOL0     C10967   4.532   1.995   6.206 -0.2965  0.2517 -0.1651
   80MOL0     C10968   5.267   2.217   6.360 -0.5435  0.1468 -0.1877
   80MOL0     C10969   5.391   2.267   6.401 -0.0843 -0.4395  0.0394
   80MOL0     C10970   5.384   2.402   6.479 -0.4288  0.4525 -0.2372
   80MOL0     H10971   5.920   1.988   6.339  0.3681 -0.0601  0.8598
   80MOL0     H10972   6.158   1.976   6.396 -3.3779 -2.4879  2.8060
   80MOL0     H10973   6.358   2.179   6.329 -1.2045 -2.1620 -0.5090
   80MOL0     H10974   6.404   2.049   6.428  1.4130  0.6673 -2.3483
   80MOL0     H10975   6.552   2.198   6.570 -0.4262  1.2290  0.6884
   80MOL0     H10976   6.610   2.183   6.404 -1.6520 -2.3225 -0.4906
   80MOL0     H10977   6.495   2.402   6.348 -0.6025 -1.0436  0.7274
   80MOL0     H10978   6.452   2.418   6.515 -2.3097  2.3947 -3.4731
   80MOL0     H10979   6.735   2.381   6.386  1.1403  4.5994 -1.6175
   80MOL0     H10980   6.665   2.534   6.424 -0.7885 -0.4249  0.2774
   80MOL0     H10981   6.737   2.316   6.616  0.1154  0.5102 -0.7274
   80MOL0     H10982   6.632   2.463   6.661 -1.4393  1.2407 -1.7486
   80MOL0     H10983   6.842   2.596   6.609 -0.3499  0.8193  1.5270
   80MOL0     H10984   6.851   2.494   6.749  2.6828 -2.6874 -0.2613
   80MOL0     H10985   6.941   2.405   6.469 -0.9078 -1.5121  0.3270
   80MOL0     H10986   6.964   2.312   6.612 -2.2531 -2.4298 -3.4471
   80MOL0     H10987   7.111   2.475   6.714  1.0808 -3.3560  0.0518
   80MOL0     H10988   7.180   2.418   6.578 -1.6829 -0.8095 -0.8636
   80MOL0     H10989   7.036   2.586   6.341 -2.5637  0.6690  1.1337
   80MOL0     H10990   6.852   2.912   6.368  2.2929  2.7538  2.0585
   80MOL0     H10991   6.890   2.791   6.244  0.2380  0.5071  0.1477
   80MOL0     H10992   6.989   3.042   6.248  0.3686 -0.6016 -2.7585
   80MOL0     H10993   7.123   2.946   6.324 -1.4495 -1.3137  1.4953
   80MOL0     H10994   7.116   2.797   6.121 -0.9169 -0.2631  1.5837
   80MOL0     H10995   6.986   2.891   6.046 -0.0846  0.9199  0.4162
   80MOL0     H10996   7.123   3.096   6.065  1.1741 -0.1419 -0.4079
   80MOL0     H10997   7.261   2.989   6.098 -0.7427 -1.1582 -0.6746
   80MOL0     H10998   7.249   2.904   5.699  2.0512 -0.5438  1.8620
   80MOL0     H10999   7.531   3.006   5.497 -1.1535 -0.1382 -0.7243
   80MOL0     H11000   7.369   3.034   5.420  0.4973 -0.3069  0.1669
   80MOL0     H11001   7.398   2.891   5.511 -3.5600  0.4387 -0.9341
   80MOL0     H11002   7.788   3.500   5.723  0.4988  0.6638  0.5305
   80MOL0     H11003   7.932   3.670   5.593  0.9701 -1.8799 -0.1859
   80MOL0     H11004   7.905   3.919   5.510 -0.5727 -2.7297  1.0326
   80MOL0     H11005   8.029   3.802   5.444  0.1017 -0.0044 -0.7082
   80MOL0     H11006   7.916   4.039   5.291 -1.3565 -1.6563  0.4748
   80MOL0     H11007   8.075   4.032   5.372 -1.1882  0.5686  0.4307
   80MOL0     H11008   8.005   3.894   5.118  1.0514 -1.5929  0.2203
   80MOL0     H11009   8.113   3.806   5.233  1.9324 -0.5709 -1.3864
   80MOL0     H11010   8.259   3.962   5.218 -0.5215 -0.0051  0.8395
   80MOL0     H11011   8.162   4.104   5.174 -1.2878 -1.0452 -0.6958
   80MOL0     H11012   8.253   3.873   4.995  0.9545  1.0392 -1.3905
   80MOL0     H11013   8.154   4.007   4.940  0.1190 -0.4725 -0.1057
   80MOL0     H11014   8.330   4.177   5.016  1.0091  1.0739 -1.7371
   80MOL0     H11015   8.370   4.071   4.880  3.5440  2.3744 -0.3639
   80MOL0     H11016   8.495   3.916   5.024 -1.0677 -0.9322  3.7349
   80MOL0     H11017   8.485   4.034   5.158 -1.0411 -2.8758 -0.5852
   80MOL0     H11018   8.599   4.105   4.896 -0.5059  2.5113 -0.5559
   80MOL0     H11019   8.693   4.062   5.052 -0.3663 -0.1037  1.6929
   80MOL0     H11020   7.605   3.696   5.305 -1.0053 -1.1156 -0.0851
   80MOL0     H11021   7.492   3.512   5.427 -1.1914 -0.7648  3.2488
   80MOL0     H11022   7.374   3.373   5.797  0.5904  0.2970  0.0642
   80MOL0     H11023   7.226   3.245   5.950 -0.7243 -0.1264  1.1291
   80MOL0     H11024   6.124   2.398   6.531 -3.3693  1.3978 -0.1400
   80MOL0     H11025   5.888   2.381   6.501 -0.5711  0.1134 -3.1509
   80MOL0     H11026   5.581   2.020   6.259 -0.4037  1.4745 -1.5129
   80MOL0     H11027   5.361   1.957   6.171  1.0256 -1.0387  1.9756
   80MOL0     H11028   4.962   2.163   6.304  0.0615  1.6353  1.4483
   80MOL0     H11029   5.034   2.227   6.158 -0.6205 -0.6809  0.1922
   80MOL0     H11030   4.952   2.033   6.026  0.3960  0.0797 -0.1387
   80MOL0     H11031   4.822   2.117   6.104 -2.9211 -3.7093  0.4030
   80MOL0     H11032   4.948   1.845   6.167 -0.6174 -0.2785 -1.0944
   80MOL0     H11033   4.836   1.933   6.286 -1.6623  2.2980 -0.2849
   80MOL0     H11034   4.745   1.747   6.143  1.0960 -0.5179 -0.9299
   80MOL0     H11035   4.765   1.863   6.009  0.1427 -0.5727 -0.2684
   80MOL0     H11036   4.457   2.063   6.240 -0.5927 -0.9982  1.8274
   80MOL0     H11037   5.177   2.270   6.390  0.9231  1.6910  1.7395
   80MOL0     H11038   5.283   2.434   6.502 -2.0821 -2.1710 -3.0837
   80MOL0     H11039   5.440   2.394   6.572  1.9685  1.3873 -1.5008
   80MOL0     H11040   5.441   2.476   6.421 -0.1908  1.1357  0.8469
   81MOL0     O11041   7.078   7.751   3.120 -0.1438  0.2609 -0.3433
   81MOL0     C11042   6.994   7.786   3.044 -0.6747  0.0305 -0.2874
   81MOL0     O11043   7.002   7.901   2.965  0.4714 -0.3015 -0.8984
   81MOL0     C11044   7.078   8.015   3.003 -0.3987 -0.3643  0.1771
   81MOL0     C11045   7.114   8.094   2.898  0.1246 -0.3389  0.7040
   81MOL0     C11046   7.180   8.213   2.919 -0.2646 -0.3135  0.3129
   81MOL0     C11047   7.214   8.257   3.043  0.4401  0.0067  0.9427
   81MOL0     O11048   7.268   8.383   3.057 -0.3906  0.8068 -0.4409
   81MOL0     C11049   7.329   8.427   3.189  0.1829 -0.0688  0.7256
   81MOL0     C11050   7.475   8.374   3.202 -0.4988  0.6137 -0.4752
   81MOL0     C11051   7.562   8.392   3.075  0.5607 -0.3054  0.5536
   81MOL0     C11052   7.587   8.543   3.055  0.4479 -0.0174 -0.3065
   81MOL0     C11053   7.725   8.572   3.021 -0.7450  0.1152 -0.3631
   81MOL0     C11054   7.774   8.496   2.897  0.0408  0.2441 -0.0115
   81MOL0     C11055   7.914   8.547   2.864 -0.3604  0.0714  0.2355
   81MOL0     C11056   7.990   8.429   2.795  0.4488  0.3071 -0.0519
   81MOL0     N11057   8.114   8.477   2.723  0.6800  0.0111 -0.8930
   81MOL0     C11058   8.102   8.510   2.591 -0.1725  0.4675 -0.3212
   81MOL0     C11059   8.228   8.510   2.545  0.7943  0.1664  0.1019
   81MOL0     C11060   8.293   8.527   2.420  0.4665 -0.1111  0.3243
   81MOL0     C11061   8.442   8.575   2.422 -0.3777  0.4528 -0.4715
   81MOL0     C11062   8.502   8.591   2.293  0.0528  0.0307  0.8538
   81MOL0     C11063   8.645   8.634   2.279 -0.4300 -0.7960  0.5487
   81MOL0     O11064   8.668   8.644   2.138 -0.4341 -0.2251 -0.7287
   81MOL0     C11065   8.783   8.705   2.086  0.4192 -0.3366  0.8811
   81MOL0     C11066   8.803   8.686   1.955  0.4803  0.1503  1.0000
   81MOL0     C11067   8.909   8.722   1.877  0.4655 -0.1632 -0.7943
   81MOL0     C11068   8.901   8.692   1.725 -0.0288 -0.0935  0.6443
   81MOL0     C11069   9.019   8.794   1.935 -0.1707  0.2792 -1.0993
   81MOL0     C11070   9.152   8.820   1.878  0.1045 -0.5117 -0.6441
   81MOL0     O11071   9.243   8.876   1.967 -0.0348 -0.2949  0.4910
   81MOL0     C11072   9.369   8.914   1.922 -0.2219 -0.0698 -0.7195
   81MOL0     C11073   9.394   9.018   1.831  0.7660  0.3222  1.1460
   81MOL0     C11074   9.527   9.055   1.793 -0.6114 -0.5812 -0.5094
   81MOL0     C11075   9.636   9.012   1.868  0.4334 -0.4747 -0.3655
   81MOL0     O11076   9.764   9.048   1.834  0.9823 -0.3745  0.4923
   81MOL0     C11077   9.805   9.054   1.694 -0.4568  0.1921  0.3414
   81MOL0     C11078   9.956   9.088   1.681  1.1117  0.4669  0.4123
   81MOL0     C11079  10.040   8.980   1.756 -0.0076 -0.1207 -0.2935
   81MOL0     C11080  10.183   9.027   1.772  0.9218  0.3334  0.0346
   81MOL0     C11081  10.265   8.926   1.850 -0.3436  0.2382 -0.3573
   81MOL0     C11082  10.387   8.982   1.914 -1.1715  0.4951 -0.2103
   81MOL0     C11083  10.485   8.880   1.974  0.4882  0.6442  0.3277
   81MOL0     C11084  10.416   8.799   2.077  0.1494 -0.0293 -0.3677
   81MOL0    Cl11085  10.511   8.656   2.120 -0.0071  0.3711 -0.2070
   81MOL0     C11086   9.613   8.916   1.964  0.1331  0.2305  0.1227
   81MOL0     C11087   9.484   8.869   1.991 -0.1012  0.1650 -0.2557
   81MOL0     O11088   9.177   8.780   1.767 -0.0795  0.2805 -0.8341
   81MOL0     C11089   8.998   8.817   2.079  0.1403 -0.5720  0.2999
   81MOL0     C11090   8.885   8.766   2.147 -0.5371  0.9525 -0.7400
   81MOL0     N11091   8.310   8.493   2.660  0.0045  0.5393  0.5734
   81MOL0     N11092   8.237   8.476   2.767 -0.5392  0.1465 -0.2865
   81MOL0     C11093   7.187   8.166   3.151  0.1330 -0.3750 -0.2632
   81MOL0     C11094   7.125   8.043   3.130 -0.1429 -0.6375  0.3930
   81MOL0     C11095   6.877   7.691   3.014  0.4227 -0.1673 -0.0549
   81MOL0     C11096   6.895   7.555   3.039 -0.2385 -0.0538 -0.2842
   81MOL0     C11097   6.789   7.466   3.023  0.3943 -0.0107 -0.0930
   81MOL0     C11098   6.669   7.514   2.974  0.5792  0.7762  0.7395
   81MOL0     O11099   6.573   7.416   2.969  0.1621 -0.1618 -0.7229
   81MOL0     C11100   6.436   7.447   2.956  0.3487  0.1772  0.8654
   81MOL0     C11101   6.358   7.414   3.079  0.2067 -0.5220 -0.1112
   81MOL0     C11102   6.395   7.509   3.196 -0.2200 -0.0668 -0.5198
   81MOL0     C11103   6.309   7.471   3.319  0.2626 -0.0495  0.5046
   81MOL0     C11104   6.326   7.551   3.437  0.7308 -0.2339  0.6854
   81MOL0     C11105   6.335   7.614   3.547 -0.0634  0.1238  0.8347
   81MOL0     C11106   6.653   7.656   2.941 -0.3251  0.2776 -0.3446
   81MOL0     C11107   6.751   7.745   2.973 -0.5161  0.7052 -0.3474
   81MOL0     C11108   6.712   7.886   2.958 -0.8154 -0.2856 -0.0535
   81MOL0     H11109   7.069   8.077   2.801 -1.1512  0.6398  1.0920
   81MOL0     H11110   7.207   8.281   2.839 -2.5230  0.2888  0.0040
   81MOL0     H11111   7.275   8.406   3.281 -1.5354 -2.6275 -0.7467
   81MOL0     H11112   7.332   8.536   3.181 -1.4111 -0.1357 -1.6513
   81MOL0     H11113   7.526   8.421   3.287 -0.3624  2.5605 -1.5719
   81MOL0     H11114   7.469   8.268   3.230 -0.7882  1.3161  2.4697
   81MOL0     H11115   7.653   8.332   3.085  0.4773 -0.8841 -1.6228
   81MOL0     H11116   7.510   8.352   2.988 -1.6676  0.2449  1.5507
   81MOL0     H11117   7.526   8.583   2.973 -0.3033  4.0169  1.9213
   81MOL0     H11118   7.554   8.591   3.148  0.0288  0.1672 -0.5462
   81MOL0     H11119   7.792   8.536   3.100  1.9287  1.8251 -1.6980
   81MOL0     H11120   7.751   8.679   3.022  2.5154 -0.5518 -1.7681
   81MOL0     H11121   7.784   8.391   2.925  3.5759  0.3093 -0.5450
   81MOL0     H11122   7.710   8.508   2.809 -0.7067  0.3319  0.5396
   81MOL0     H11123   7.958   8.585   2.957 -1.5901 -0.4295  1.0488
   81MOL0     H11124   7.911   8.635   2.800 -0.9613  1.1379  1.6676
   81MOL0     H11125   8.026   8.359   2.871 -0.1946 -0.6317 -0.6030
   81MOL0     H11126   7.920   8.367   2.739  0.8274 -2.1968  2.0388
   81MOL0     H11127   8.012   8.522   2.532  1.6574  0.8320 -3.2212
   81MOL0     H11128   8.231   8.600   2.368 -0.9322  0.0490  2.1205
   81MOL0     H11129   8.290   8.427   2.376  0.5113 -0.2594  0.6561
   81MOL0     H11130   8.443   8.667   2.481  0.1702 -0.5041  1.0726
   81MOL0     H11131   8.487   8.495   2.482 -3.1846 -0.5271  0.4586
   81MOL0     H11132   8.484   8.498   2.238 -4.2114  1.9919 -1.5429
   81MOL0     H11133   8.439   8.667   2.245  0.4700 -0.0365  0.1826
   81MOL0     H11134   8.655   8.728   2.334 -0.8576  1.3914 -2.8049
   81MOL0     H11135   8.726   8.569   2.315  1.7009  0.7870 -1.1231
   81MOL0     H11136   8.732   8.628   1.897 -0.0770 -0.2180  2.0166
   81MOL0     H11137   8.941   8.593   1.704 -0.9665 -0.6476  1.3638
   81MOL0     H11138   8.943   8.780   1.675  0.1615 -1.1526 -1.1293
   81MOL0     H11139   8.798   8.692   1.687  0.2585  2.2963 -0.3349
   81MOL0     H11140   9.310   9.059   1.777  0.2272 -0.6999  1.1877
   81MOL0     H11141   9.548   9.114   1.705  1.8294 -1.8093 -0.8506
   81MOL0     H11142   9.776   8.962   1.642 -1.4547  1.3334 -1.2260
   81MOL0     H11143   9.758   9.138   1.641  2.4184  1.6789 -0.0201
   81MOL0     H11144  10.002   9.086   1.581  3.4874  0.6254  1.4278
   81MOL0     H11145   9.980   9.186   1.723  0.3463 -0.0250  2.0572
   81MOL0     H11146  10.042   8.886   1.700 -0.3423 -0.6266  0.5234
   81MOL0     H11147   9.997   8.962   1.855  5.6791 -1.3285  2.4103
   81MOL0     H11148  10.176   9.122   1.826  1.6608  1.4015 -1.6423
   81MOL0     H11149  10.231   9.040   1.674 -0.1616 -0.9173 -0.6928
   81MOL0     H11150  10.202   8.891   1.932  0.8788  2.3948  1.6346
   81MOL0     H11151  10.303   8.853   1.778  1.1729  3.2044 -2.7956
   81MOL0     H11152  10.346   9.047   1.992  0.2131 -0.7893  1.6752
   81MOL0     H11153  10.441   9.057   1.855 -0.3604 -1.4178 -2.0173
   81MOL0     H11154  10.571   8.939   2.006  1.3013 -0.8814  1.0423
   81MOL0     H11155  10.526   8.816   1.895 -0.0076  0.6830  0.0313
   81MOL0     H11156  10.324   8.753   2.041  1.5055 -0.0926 -4.1881
   81MOL0     H11157  10.402   8.856   2.169  1.7131  0.6073 -0.4912
   81MOL0     H11158   9.702   8.874   2.011  1.5403 -0.4939 -2.9000
   81MOL0     H11159   9.478   8.789   2.064  4.9921 -0.9744 -0.7462
   81MOL0     H11160   9.071   8.875   2.135  2.9242 -2.6100 -0.9135
   81MOL0     H11161   8.879   8.807   2.247  0.6411 -3.0859  1.1785
   81MOL0     H11162   7.205   8.180   3.257 -1.8253 -0.2830  0.0879
   81MOL0     H11163   7.099   7.985   3.218  1.7323 -0.0729  1.3729
   81MOL0     H11164   6.986   7.505   3.070 -0.0214  0.4648 -0.0734
   81MOL0     H11165   6.787   7.360   3.049  0.7778 -0.8736 -3.2421
   81MOL0     H11166   6.401   7.541   2.913 -1.1505 -1.0594 -0.7559
   81MOL0     H11167   6.396   7.370   2.889  0.2460 -1.9623  3.2635
   81MOL0     H11168   6.365   7.307   3.100 -1.0629 -1.1313 -2.4425
   81MOL0     H11169   6.250   7.418   3.068 -0.7007 -2.3075  5.1898
   81MOL0     H11170   6.500   7.490   3.221 -0.7913 -1.4285  1.0502
   81MOL0     H11171   6.381   7.609   3.155 -0.9934 -0.1748 -0.5345
   81MOL0     H11172   6.331   7.368   3.347 -2.8415 -0.6682  1.0090
   81MOL0     H11173   6.202   7.480   3.296  0.1390  2.8388  1.7466
   81MOL0     H11174   6.337   7.678   3.633 -1.1989 -1.3296  1.9878
   81MOL0     H11175   6.560   7.694   2.900 -0.6047 -2.3737 -2.4772
   81MOL0     H11176   6.734   7.933   2.862 -0.0495  0.1665  0.3306
   81MOL0     H11177   6.603   7.896   2.957 -1.0334 -2.1422  0.6543
   81MOL0     H11178   6.753   7.945   3.040 -1.9716  0.2436  0.1556
   82MOL0     O11179   5.943   9.603   4.450 -0.1877  0.5816  0.1925
   82MOL0     C11180   5.933   9.696   4.370 -0.0155 -0.2924  0.0738
   82MOL0     O11181   6.045   9.746   4.307 -0.5524 -0.1075  0.2614
   82MOL0     C11182   6.172   9.701   4.336  0.4194 -0.3595  0.0198
   82MOL0     C11183   6.235   9.711   4.455  0.1357 -0.6809  0.0057
   82MOL0     C11184   6.371   9.699   4.469  0.7259  0.0550 -0.4100
   82MOL0     C11185   6.454   9.652   4.363  0.6663 -0.8777 -0.3267
   82MOL0     O11186   6.593   9.642   4.378 -0.4684 -0.1348  0.6093
   82MOL0     C11187   6.649   9.679   4.501  0.0578 -0.8915  0.0878
   82MOL0     C11188   6.802   9.639   4.509 -0.9237  0.5595 -0.4469
   82MOL0     C11189   6.809   9.483   4.491  0.0122 -0.0149  0.2452
   82MOL0     C11190   6.924   9.419   4.576 -0.4478 -0.4701  0.2061
   82MOL0     C11191   6.953   9.284   4.528  0.2721 -0.1645 -0.7552
   82MOL0     C11192   6.830   9.197   4.570  0.1286 -1.1450 -0.4184
   82MOL0     C11193   6.838   9.047   4.545  0.2695  0.4670  0.0812
   82MOL0     C11194   6.717   8.967   4.580 -1.3623  0.1531 -0.2578
   82MOL0     N11195   6.759   8.822   4.578 -0.2556  0.8983 -0.3914
   82MOL0     C11196   6.744   8.736   4.472  0.1331  0.0441 -0.2659
   82MOL0     C11197   6.802   8.615   4.525  0.4145 -0.0155 -0.3409
   82MOL0     C11198   6.830   8.475   4.474  0.2063 -0.0097  0.6802
   82MOL0     C11199   6.942   8.471   4.364 -0.5853 -0.9027 -0.6392
   82MOL0     C11200   6.995   8.333   4.324  0.6075  0.4984 -0.6216
   82MOL0     C11201   7.100   8.293   4.426 -0.3870  0.3224  0.3601
   82MOL0     O11202   7.222   8.354   4.379 -0.3930  0.7153  0.4412
   82MOL0     C11203   7.333   8.357   4.465 -0.1684  0.0029 -0.4987
   82MOL0     C11204   7.348   8.264   4.575 -0.3314  0.9985 -0.0642
   82MOL0     C11205   7.461   8.251   4.656 -0.3769  0.4109  0.2360
   82MOL0     C11206   7.454   8.156   4.775 -0.0474  0.5054  0.0430
   82MOL0     C11207   7.584   8.321   4.617 -0.3559 -1.0397 -0.2768
   82MOL0     C11208   7.722   8.319   4.683  0.5439 -0.3579  0.5101
   82MOL0     O11209   7.828   8.335   4.600  0.3616 -0.0073 -0.0933
   82MOL0     C11210   7.939   8.401   4.655  0.1922 -0.7632  0.8350
   82MOL0     C11211   7.929   8.531   4.697 -0.2338  0.2557 -0.1780
   82MOL0     C11212   8.044   8.598   4.753 -0.0832 -0.4698 -0.2118
   82MOL0     C11213   8.162   8.534   4.752 -0.5464 -0.0432  0.5301
   82MOL0     O11214   8.285   8.587   4.790 -0.4248 -0.1726  0.4664
   82MOL0     C11215   8.298   8.722   4.840  0.9817  0.4143  0.2494
   82MOL0     C11216   8.447   8.746   4.881 -0.2450  0.0000 -0.2471
   82MOL0     C11217   8.469   8.885   4.950 -0.5637  0.4434 -0.4801
   82MOL0     C11218   8.590   8.897   5.037 -0.5046  0.6258  0.4963
   82MOL0     C11219   8.725   8.921   4.960  0.2672 -0.3765  0.3432
   82MOL0     C11220   8.719   9.044   4.861  0.1452 -0.0183 -0.1524
   82MOL0     C11221   8.852   9.078   4.798  0.0689 -0.6032  0.7538
   82MOL0     C11222   8.957   9.111   4.902  0.7520 -0.0296  0.9025
   82MOL0    Cl11223   9.054   8.973   4.968  0.1438 -0.1571  0.4566
   82MOL0     C11224   8.175   8.400   4.713  0.3658 -0.0111  0.7948
   82MOL0     C11225   8.062   8.336   4.659  0.8500  0.4071 -0.3529
   82MOL0     O11226   7.729   8.310   4.804 -0.4116 -0.1020  0.4742
   82MOL0     C11227   7.577   8.409   4.504 -0.6516  0.1385  0.9067
   82MOL0     C11228   7.451   8.433   4.436 -0.1554  0.1494 -0.2882
   82MOL0     N11229   6.843   8.640   4.655 -0.7069 -0.3045  0.8361
   82MOL0     N11230   6.829   8.758   4.676  0.4372 -0.0504 -0.0689
   82MOL0     C11231   6.389   9.644   4.243 -0.1710  0.7157  0.1495
   82MOL0     C11232   6.251   9.668   4.228 -0.2543 -0.7531 -0.8754
   82MOL0     C11233   5.798   9.737   4.317  0.1434 -0.2789  0.6484
   82MOL0     C11234   5.692   9.676   4.378 -0.0142  0.0642  0.3010
   82MOL0     C11235   5.553   9.709   4.359 -0.1353 -0.1804 -0.0708
   82MOL0     C11236   5.522   9.798   4.255  0.3611  0.5734  0.7116
   82MOL0     O11237   5.388   9.809   4.231 -0.2025 -0.1454  1.4372
   82MOL0     C11238   5.345   9.898   4.132  0.0069  0.4571  0.8660
   82MOL0     C11239   5.351   9.827   3.996 -0.1191  0.8533  0.1014
   82MOL0     C11240   5.301   9.910   3.882  0.8384 -0.0856  0.3800
   82MOL0     C11241   5.331   9.866   3.727 -0.6151 -0.0218 -0.5253
   82MOL0     C11242   5.273   9.729   3.706 -0.2229 -0.1199 -0.0841
   82MOL0     C11243   5.215   9.622   3.692  0.4888 -0.2176  0.1814
   82MOL0     C11244   5.631   9.854   4.181  0.9271  0.5407  0.5783
   82MOL0     C11245   5.768   9.823   4.211  0.2748 -0.0226 -1.8758
   82MOL0     C11246   5.866   9.910   4.136 -0.0042 -0.4818  0.2586
   82MOL0     H11247   6.173   9.726   4.542  0.2176  1.1783 -0.2240
   82MOL0     H11248   6.415   9.739   4.560 -0.3941  0.6363 -0.1030
   82MOL0     H11249   6.593   9.629   4.580 -1.9781  2.3178  0.8393
   82MOL0     H11250   6.631   9.785   4.520  2.0553 -0.2928 -0.9878
   82MOL0     H11251   6.855   9.695   4.431 -0.4416 -2.4862 -2.5004
   82MOL0     H11252   6.839   9.659   4.610  0.7026 -1.6615 -0.5080
   82MOL0     H11253   6.714   9.448   4.532  0.1339  1.0410  1.5042
   82MOL0     H11254   6.813   9.453   4.385  1.3344 -1.4970  0.6679
   82MOL0     H11255   7.014   9.481   4.565 -1.7764  1.6140  0.4082
   82MOL0     H11256   6.886   9.425   4.678 -1.4599 -2.4998 -0.0155
   82MOL0     H11257   7.037   9.235   4.576  0.9030 -1.3432 -2.9301
   82MOL0     H11258   6.967   9.285   4.419 -1.6489  1.3209 -1.0488
   82MOL0     H11259   6.801   9.212   4.674 -4.3879 -0.8692 -1.4966
   82MOL0     H11260   6.731   9.225   4.533 -0.5020 -0.2383  1.8095
   82MOL0     H11261   6.928   9.010   4.596 -0.3247  0.7252  1.3496
   82MOL0     H11262   6.864   9.021   4.442 -1.0047  2.5849 -0.8401
   82MOL0     H11263   6.694   8.986   4.685  2.1003  0.9392  0.4819
   82MOL0     H11264   6.635   8.981   4.509 -1.1120 -1.9699 -1.0521
   82MOL0     H11265   6.713   8.748   4.368  2.3490  0.0282 -0.9761
   82MOL0     H11266   6.739   8.433   4.430 -1.0151  1.2244  1.9446
   82MOL0     H11267   6.847   8.406   4.558  1.4629 -0.0100  0.4567
   82MOL0     H11268   6.903   8.525   4.278  1.5301  2.4202  0.3088
   82MOL0     H11269   7.022   8.529   4.411  0.1015 -2.5954  0.4223
   82MOL0     H11270   6.919   8.256   4.311  2.7860 -1.5296 -2.2962
   82MOL0     H11271   7.043   8.341   4.226  0.4677 -1.6599 -0.9095
   82MOL0     H11272   7.084   8.337   4.525 -0.9481 -2.5809  1.6917
   82MOL0     H11273   7.103   8.183   4.429  3.0195  0.2306 -1.7413
   82MOL0     H11274   7.268   8.193   4.590  0.9604 -0.9334 -1.8291
   82MOL0     H11275   7.503   8.214   4.854 -1.1164  1.3888  0.0758
   82MOL0     H11276   7.507   8.062   4.759  1.3108  0.8922  1.8926
   82MOL0     H11277   7.350   8.137   4.801  0.3237  0.3497  1.5022
   82MOL0     H11278   7.833   8.581   4.693 -0.1757  0.6084  1.9327
   82MOL0     H11279   8.033   8.697   4.796 -0.6077 -0.9352  0.7505
   82MOL0     H11280   8.283   8.791   4.756  3.3163 -0.7303 -1.2489
   82MOL0     H11281   8.229   8.738   4.922  0.0534 -2.1139  0.0409
   82MOL0     H11282   8.468   8.663   4.949  0.1561 -1.0411 -1.5903
   82MOL0     H11283   8.515   8.735   4.796 -0.6009  2.7421 -0.9973
   82MOL0     H11284   8.381   8.907   5.011 -0.7831 -0.0251 -0.6265
   82MOL0     H11285   8.480   8.960   4.871  2.7591  0.3947 -0.2147
   82MOL0     H11286   8.603   8.812   5.104 -0.5358  0.4006  0.2173
   82MOL0     H11287   8.579   8.986   5.100  2.3503 -0.2451  2.4484
   82MOL0     H11288   8.790   8.941   5.045  1.0394 -1.3796  0.0146
   82MOL0     H11289   8.749   8.832   4.901  1.1863 -0.4768  0.8372
   82MOL0     H11290   8.679   9.136   4.905  0.9579  1.2222 -1.8837
   82MOL0     H11291   8.663   9.015   4.772  0.7862 -2.1378  0.0894
   82MOL0     H11292   8.838   9.172   4.744 -1.6600 -0.9696  0.5292
   82MOL0     H11293   8.898   9.004   4.731 -3.6195 -1.8195 -0.6847
   82MOL0     H11294   8.915   9.169   4.985 -0.0266  0.7897 -0.0454
   82MOL0     H11295   9.023   9.184   4.854 -1.5592  0.0781 -2.3975
   82MOL0     H11296   8.276   8.359   4.714  0.8750  1.2132  0.5795
   82MOL0     H11297   8.063   8.235   4.620 -0.5059 -0.6636  2.1296
   82MOL0     H11298   7.670   8.450   4.467 -0.2500 -1.0553  0.5710
   82MOL0     H11299   7.448   8.499   4.350 -1.7601  1.2585  0.5577
   82MOL0     H11300   6.441   9.614   4.152 -0.6591  1.0397 -0.2371
   82MOL0     H11301   6.206   9.679   4.129 -0.5063 -1.6480 -0.8770
   82MOL0     H11302   5.706   9.597   4.452  2.0636  1.6096  1.6490
   82MOL0     H11303   5.480   9.652   4.416 -0.7825  1.1522  0.4887
   82MOL0     H11304   5.237   9.907   4.152 -0.2643 -3.5298  2.0460
   82MOL0     H11305   5.387   9.998   4.127  0.0731  0.3882 -0.4107
   82MOL0     H11306   5.294   9.733   4.000  1.6186 -0.2244  0.7609
   82MOL0     H11307   5.450   9.786   3.975 -0.7612 -0.9694  0.3949
   82MOL0     H11308   5.195   9.931   3.893  0.8603  0.5441 -0.4706
   82MOL0     H11309   5.337  10.013   3.895 -2.0213  1.3200 -1.7554
   82MOL0     H11310   5.438   9.858   3.710 -0.4079 -3.9800  1.4573
   82MOL0     H11311   5.286   9.940   3.661  3.0458  2.4521 -0.5057
   82MOL0     H11312   5.150   9.540   3.668 -0.0548  0.5549 -1.1006
   82MOL0     H11313   5.621   9.928   4.102  1.4958  1.1758  1.0870
   82MOL0     H11314   5.900   9.858   4.046  0.6759  0.5347 -0.0937
   82MOL0     H11315   5.827  10.003   4.095  1.9904  0.1086 -0.4599
   82MOL0     H11316   5.945   9.951   4.200 -1.3062  4.0875 -0.7113
   83MOL0     O11317   8.169   2.022   8.689  0.1174  0.7243 -0.1760
   83MOL0     C11318   8.110   1.979   8.594 -0.7653  0.0708 -0.6876
   83MOL0     O11319   8.120   2.038   8.468  1.0066  0.4787 -1.5262
   83MOL0     C11320   8.214   2.131   8.434  0.3295 -0.3565  0.7591
   83MOL0     C11321   8.351   2.100   8.437  0.8754 -0.4719 -1.1241
   83MOL0     C11322   8.439   2.197   8.396 -0.3872  0.1828 -0.1462
   83MOL0     C11323   8.399   2.317   8.338 -0.0120  0.6661 -0.4413
   83MOL0     O11324   8.498   2.390   8.286 -0.2094  0.5281  0.2479
   83MOL0     C11325   8.485   2.529   8.270 -0.5110 -0.8027  0.0200
   83MOL0     C11326   8.627   2.582   8.230  0.0889  0.5186  0.4939
   83MOL0     C11327   8.646   2.732   8.232  0.5018 -0.3097  0.5509
   83MOL0     C11328   8.776   2.772   8.160 -0.3774  0.9232 -0.1793
   83MOL0     C11329   8.793   2.925   8.156 -0.5444  0.2523  0.1098
   83MOL0     C11330   8.931   2.963   8.101 -0.2586  0.4631  1.6946
   83MOL0     C11331   8.943   3.115   8.093 -0.0455  0.0896 -0.4349
   83MOL0     C11332   8.867   3.179   7.989  1.1274 -0.2830 -1.0051
   83MOL0     N11333   8.916   3.316   7.963 -0.5453  1.0939  0.3419
   83MOL0     C11334   9.028   3.349   7.894 -0.0169 -0.4566 -0.0896
   83MOL0     C11335   9.004   3.476   7.858 -0.8885  0.1622 -0.2571
   83MOL0     C11336   9.110   3.557   7.779 -0.5651 -0.2783 -0.3143
   83MOL0     C11337   9.256   3.549   7.837 -0.0260  0.0898  0.4461
   83MOL0     C11338   9.260   3.634   7.959 -1.0518 -0.5782  0.3059
   83MOL0     C11339   9.398   3.605   8.024 -0.0759 -0.6908  0.5553
   83MOL0     O11340   9.502   3.671   7.949  0.1591 -0.0698 -0.3733
   83MOL0     C11341   9.630   3.646   7.981 -0.7880 -0.5465  0.1458
   83MOL0     C11342   9.682   3.552   8.067 -0.3817  0.4501 -0.7298
   83MOL0     C11343   9.820   3.556   8.097 -0.3185 -0.0460  0.6228
   83MOL0     C11344   9.863   3.447   8.177 -0.0980 -0.2911  0.0545
   83MOL0     C11345   9.907   3.652   8.030  0.0996  0.9178 -0.6903
   83MOL0     C11346  10.054   3.666   8.068  0.3467 -0.3002  0.1188
   83MOL0     O11347  10.076   3.665   8.205 -1.0182  0.5100  0.7192
   83MOL0     C11348  10.201   3.664   8.265 -0.7118  1.3943 -0.4391
   83MOL0     C11349  10.333   3.662   8.212  0.5981 -0.0721  0.4565
   83MOL0     C11350  10.446   3.668   8.287  0.4590  0.6285  1.0704
   83MOL0     C11351  10.435   3.647   8.425 -0.0604 -0.8530 -0.3131
   83MOL0     O11352  10.544   3.647   8.509 -0.1810  0.2878  0.0160
   83MOL0     C11353  10.653   3.569   8.463  0.2901 -0.3307 -0.4439
   83MOL0     C11354  10.753   3.547   8.583  0.4552  0.4351  0.0025
   83MOL0     C11355  10.784   3.683   8.660  0.5703  0.0045  0.0253
   83MOL0     C11356  10.893   3.649   8.764 -0.0252  0.0954  0.9073
   83MOL0     C11357  10.949   3.772   8.841  0.3142 -0.6965  0.1205
   83MOL0     C11358  11.033   3.854   8.733 -0.5164  0.7158  0.7320
   83MOL0     C11359  11.095   3.983   8.794  0.1200  0.1436  0.1899
   83MOL0     C11360  11.221   4.014   8.708  0.5265 -0.0976  0.0098
   83MOL0    Cl11361  11.357   3.892   8.752  0.0558  0.0441 -0.3177
   83MOL0     C11362  10.310   3.639   8.481  0.5033  0.2101 -0.0445
   83MOL0     C11363  10.200   3.637   8.409  0.2203 -0.0962  0.6147
   83MOL0     O11364  10.133   3.675   7.975 -0.5281 -0.1505  0.0793
   83MOL0     C11365   9.857   3.728   7.927  0.6067 -0.1677  0.1748
   83MOL0     C11366   9.718   3.714   7.898 -0.6050  0.7505  0.4428
   83MOL0     N11367   8.885   3.526   7.903  0.3028  0.9076  0.1924
   83MOL0     N11368   8.836   3.424   7.969 -1.2513  0.1816  0.2491
   83MOL0     C11369   8.270   2.343   8.341 -0.0807  0.0958  0.6448
   83MOL0     C11370   8.170   2.254   8.391  0.4983  0.0698  0.8109
   83MOL0     C11371   8.013   1.857   8.615 -0.9293 -0.0955  0.7106
   83MOL0     C11372   7.923   1.833   8.514  0.6153  0.3111  0.7076
   83MOL0     C11373   7.847   1.718   8.506 -0.1007 -0.2674  0.5020
   83MOL0     C11374   7.850   1.622   8.612  0.1988  0.9330  0.1821
   83MOL0     O11375   7.768   1.507   8.612 -0.1210 -0.0939  0.0178
   83MOL0     C11376   7.701   1.463   8.726  0.3035  0.4664 -0.3233
   83MOL0     C11377   7.579   1.379   8.672  1.0059  0.0656 -0.2588
   83MOL0     C11378   7.440   1.451   8.677 -0.7593  0.4593 -0.1827
   83MOL0     C11379   7.333   1.358   8.629  0.4260  0.0645  0.2629
   83MOL0     C11380   7.207   1.429   8.617 -0.0711 -0.4842 -0.5976
   83MOL0     C11381   7.101   1.491   8.629 -0.1006  0.1716 -0.4806
   83MOL0     C11382   7.926   1.657   8.724 -0.2670  0.7082 -0.5225
   83MOL0     C11383   8.018   1.763   8.722  0.9781  0.3687 -1.0252
   83MOL0     C11384   8.106   1.797   8.845 -0.1928 -0.4054  0.2896
   83MOL0     H11385   8.380   2.000   8.467 -0.6123 -0.5166  0.3275
   83MOL0     H11386   8.543   2.169   8.388 -1.2068 -3.9014  1.2147
   83MOL0     H11387   8.461   2.584   8.362 -2.1633 -1.3864 -0.0427
   83MOL0     H11388   8.417   2.547   8.187  0.9007  0.4923 -0.9274
   83MOL0     H11389   8.702   2.538   8.296  0.6552  1.4564  0.5041
   83MOL0     H11390   8.644   2.559   8.125 -1.6001  2.9430 -0.4203
   83MOL0     H11391   8.555   2.779   8.193 -0.3827 -0.1872  2.6657
   83MOL0     H11392   8.659   2.780   8.329 -0.0210 -0.2238  0.5780
   83MOL0     H11393   8.860   2.724   8.211 -0.5088 -1.5518 -2.0750
   83MOL0     H11394   8.772   2.741   8.055 -2.8784 -1.5455  0.5265
   83MOL0     H11395   8.787   2.970   8.255 -1.0426  0.7223 -0.1283
   83MOL0     H11396   8.713   2.960   8.090  0.6941  2.1924 -0.4544
   83MOL0     H11397   9.012   2.923   8.162 -0.1622  0.0473  1.3035
   83MOL0     H11398   8.944   2.920   8.001  0.7812 -1.3763  2.5747
   83MOL0     H11399   9.049   3.143   8.093 -0.1077  0.7055  2.4161
   83MOL0     H11400   8.919   3.160   8.190  3.9890  1.7139  0.0026
   83MOL0     H11401   8.891   3.112   7.906  1.2910  0.0138 -1.2002
   83MOL0     H11402   8.759   3.175   8.010  1.2479  0.9194 -0.0424
   83MOL0     H11403   9.107   3.280   7.867 -1.1801 -1.7919 -0.2221
   83MOL0     H11404   9.085   3.663   7.771 -0.4955 -0.3278 -1.3542
   83MOL0     H11405   9.122   3.513   7.679  4.3193 -2.6804  1.0074
   83MOL0     H11406   9.276   3.445   7.868 -3.6502 -0.5493  1.0981
   83MOL0     H11407   9.326   3.570   7.756  0.3821 -1.3173  0.4081
   83MOL0     H11408   9.239   3.738   7.932 -2.2930 -1.3810 -2.0469
   83MOL0     H11409   9.186   3.599   8.031  1.1833 -3.7299  1.2967
   83MOL0     H11410   9.402   3.656   8.120 -3.6641  5.4700 -1.9870
   83MOL0     H11411   9.420   3.498   8.034  0.5501 -0.3891  3.1374
   83MOL0     H11412   9.614   3.476   8.102 -0.4498  0.5026 -0.7498
   83MOL0     H11413   9.934   3.392   8.115  0.0749  2.7432 -2.6823
   83MOL0     H11414   9.783   3.378   8.207  0.3490 -0.3263  1.2453
   83MOL0     H11415   9.913   3.489   8.265 -0.3854  2.2204 -0.9004
   83MOL0     H11416  10.352   3.668   8.105 -1.9412  1.3523  0.0138
   83MOL0     H11417  10.543   3.667   8.237  0.8089 -2.6536  1.6166
   83MOL0     H11418  10.617   3.476   8.418  0.7972 -0.3885 -0.7396
   83MOL0     H11419  10.703   3.632   8.390 -0.1659 -1.2860 -1.6156
   83MOL0     H11420  10.716   3.477   8.659 -1.3879  0.7793 -0.5262
   83MOL0     H11421  10.846   3.514   8.538 -0.5588  0.1075 -1.9554
   83MOL0     H11422  10.695   3.738   8.693  1.0214  0.4716  0.4820
   83MOL0     H11423  10.831   3.746   8.584 -0.6426 -1.6409 -2.2076
   83MOL0     H11424  10.985   3.612   8.718  1.0848 -0.1112  3.1513
   83MOL0     H11425  10.860   3.561   8.820  1.4382 -0.3222  1.1545
   83MOL0     H11426  10.872   3.834   8.888 -0.4400 -1.2157 -0.4174
   83MOL0     H11427  11.016   3.735   8.920  0.9876  0.2649  0.0139
   83MOL0     H11428  10.964   3.896   8.659 -0.0872  0.5028  0.2097
   83MOL0     H11429  11.107   3.783   8.695  0.8658  1.3498  2.1362
   83MOL0     H11430  11.132   3.965   8.895 -1.5541  3.6275  1.6101
   83MOL0     H11431  11.018   4.061   8.796  1.7174  1.9136 -1.8583
   83MOL0     H11432  11.248   4.117   8.732 -1.1035  0.1635  0.8834
   83MOL0     H11433  11.201   4.003   8.601 -1.5922 -0.2215  0.3691
   83MOL0     H11434  10.292   3.607   8.583 -0.3150  2.5847  0.6222
   83MOL0     H11435  10.106   3.629   8.463 -0.9601 -2.9931 -1.5978
   83MOL0     H11436   9.911   3.796   7.863 -0.0460 -1.5002 -1.9357
   83MOL0     H11437   9.677   3.775   7.818  0.8937  0.9063 -0.2358
   83MOL0     H11438   8.222   2.435   8.309 -1.4488 -1.2496 -1.4408
   83MOL0     H11439   8.068   2.284   8.409  1.2582  4.1179 -0.6775
   83MOL0     H11440   7.915   1.905   8.433  0.1718  1.1246  1.4597
   83MOL0     H11441   7.789   1.712   8.414  0.7200 -0.3531 -0.0233
   83MOL0     H11442   7.767   1.396   8.784  0.9457  1.8633  0.6092
   83MOL0     H11443   7.663   1.541   8.792 -0.0613  1.2781 -1.4670
   83MOL0     H11444   7.561   1.283   8.721 -2.8347 -1.3468 -3.7972
   83MOL0     H11445   7.602   1.349   8.569 -0.0485  0.0327 -0.5004
   83MOL0     H11446   7.419   1.486   8.778  1.2843 -1.1725  0.8814
   83MOL0     H11447   7.446   1.543   8.618 -1.8336  0.5189 -0.2174
   83MOL0     H11448   7.329   1.275   8.701 -1.1301 -1.8800 -1.9035
   83MOL0     H11449   7.351   1.321   8.527  0.6134 -0.6747  0.5566
   83MOL0     H11450   7.005   1.539   8.629  0.5832  1.6062 -0.2212
   83MOL0     H11451   7.929   1.589   8.807 -0.3291 -1.7865 -2.4521
   83MOL0     H11452   8.125   1.710   8.908  3.1954  1.1635  1.6984
   83MOL0     H11453   8.210   1.817   8.816  0.3120 -1.6123  1.1753
   83MOL0     H11454   8.063   1.877   8.905  2.6543  1.2918  0.2671
   84MOL0     O11455   9.588  11.284   5.301 -0.1547  0.6209 -0.3724
   84MOL0     C11456   9.534  11.196   5.230  0.6849 -1.1932  0.6425
   84MOL0     O11457   9.586  11.171   5.100 -0.7329  0.1471 -0.4502
   84MOL0     C11458   9.693  11.242   5.056 -0.4679  0.2231  0.0121
   84MOL0     C11459   9.680  11.369   4.995 -0.3362 -0.4709 -0.1479
   84MOL0     C11460   9.793  11.428   4.937  0.3467 -0.0829  0.6144
   84MOL0     C11461   9.914  11.366   4.934 -1.2086  0.0933 -0.8824
   84MOL0     O11462  10.035  11.427   4.897  0.7946  0.1927 -0.3592
   84MOL0     C11463  10.021  11.511   4.772  0.4701  0.2081 -0.5542
   84MOL0     C11464  10.144  11.497   4.683 -0.8580 -0.2517 -1.2143
   84MOL0     C11465  10.273  11.556   4.750  0.4293  0.2171 -0.5352
   84MOL0     C11466  10.299  11.705   4.726  0.2763  0.1107  0.5021
   84MOL0     C11467  10.401  11.760   4.811  0.4311  0.5535 -0.2971
   84MOL0     C11468  10.542  11.714   4.771  0.5969  0.0431  1.2791
   84MOL0     C11469  10.664  11.784   4.829  0.8145 -0.2185 -0.3965
   84MOL0     C11470  10.699  11.926   4.788  0.2783 -0.2494  0.3567
   84MOL0     N11471  10.833  11.964   4.840  0.3916 -0.6506  0.5855
   84MOL0     C11472  10.857  11.999   4.972 -0.7127 -0.1682  0.4762
   84MOL0     C11473  10.990  12.025   4.976  0.1048 -0.5260 -0.0314
   84MOL0     C11474  11.069  12.090   5.085  0.5474 -0.0843  0.2448
   84MOL0     C11475  11.177  12.181   5.023  0.2449 -0.5859 -0.1838
   84MOL0     C11476  11.132  12.303   4.941  0.1701  0.5803 -0.0397
   84MOL0     C11477  11.241  12.401   4.918 -0.5772  0.3040  0.0226
   84MOL0     O11478  11.348  12.338   4.852  0.0559  0.0326  0.2565
   84MOL0     C11479  11.432  12.425   4.791 -0.1294  0.7729 -0.5525
   84MOL0     C11480  11.539  12.365   4.723 -0.0562  0.2885  0.2454
   84MOL0     C11481  11.632  12.435   4.650 -0.6380 -0.7405  0.6443
   84MOL0     C11482  11.730  12.351   4.566 -0.0151 -0.2399 -0.0553
   84MOL0     C11483  11.624  12.575   4.653 -0.3468  0.2698 -0.1029
   84MOL0     C11484  11.738  12.666   4.591 -0.0689  0.2086  0.1507
   84MOL0     O11485  11.734  12.798   4.621  0.4600  0.3505 -0.1698
   84MOL0     C11486  11.826  12.881   4.553 -0.4414  0.0361 -0.0327
   84MOL0     C11487  11.945  12.927   4.622  0.9492 -0.7950  0.4555
   84MOL0     C11488  12.048  12.990   4.555 -0.2481  1.1022 -0.0614
   84MOL0     C11489  12.034  13.031   4.423 -0.7500 -0.0039  0.6075
   84MOL0     O11490  12.119  13.113   4.343 -0.1888 -0.5842  0.2450
   84MOL0     C11491  12.251  13.134   4.389 -0.3719 -0.4080 -0.9562
   84MOL0     C11492  12.305  13.260   4.309 -0.1841  0.0594  0.4833
   84MOL0     C11493  12.445  13.311   4.349 -0.1999  0.3950  0.8240
   84MOL0     C11494  12.437  13.425   4.451 -0.2425 -0.1240 -0.7769
   84MOL0     C11495  12.572  13.459   4.503  0.4027 -0.4367 -0.2619
   84MOL0     C11496  12.571  13.573   4.596 -0.2781 -0.7802  0.3280
   84MOL0     C11497  12.521  13.700   4.527  0.0108 -0.3562  0.3750
   84MOL0     C11498  12.551  13.827   4.605 -0.0961  0.2468 -0.3984
   84MOL0    Cl11499  12.448  13.842   4.744 -0.2511  0.6036 -0.1880
   84MOL0     C11500  11.922  12.991   4.358  0.1748 -0.3055 -0.4953
   84MOL0     C11501  11.817  12.916   4.414  0.4568 -0.0034 -0.3896
   84MOL0     O11502  11.824  12.618   4.512  0.1437 -0.2156  0.1694
   84MOL0     C11503  11.522  12.640   4.715 -0.2066  0.5281 -0.1819
   84MOL0     C11504  11.431  12.564   4.793 -0.1857  0.3446 -0.3593
   84MOL0     N11505  11.050  11.990   4.859 -0.3346  0.0667  0.4611
   84MOL0     N11506  10.955  11.960   4.776 -0.1345  0.2385 -0.3158
   84MOL0     C11507   9.926  11.242   5.005  0.2551 -0.3008 -0.1088
   84MOL0     C11508   9.815  11.189   5.071 -0.3168  0.1166  0.0198
   84MOL0     C11509   9.404  11.144   5.268  0.5286  0.1268 -0.2013
   84MOL0     C11510   9.356  11.173   5.399  0.3851 -0.2963 -0.0996
   84MOL0     C11511   9.229  11.135   5.439  0.6106  0.0993 -0.3760
   84MOL0     C11512   9.152  11.059   5.348 -0.0097  0.3658  0.1660
   84MOL0     O11513   9.022  11.035   5.381 -0.0490 -0.4841  0.5320
   84MOL0     C11514   8.931  11.142   5.424  0.7244 -0.4223 -0.4129
   84MOL0     C11515   8.794  11.076   5.425  0.3621 -0.0397 -1.0243
   84MOL0     C11516   8.698  11.196   5.430 -0.0218 -0.6868 -0.3604
   84MOL0     C11517   8.550  11.167   5.429 -0.4866  0.5634 -0.3170
   84MOL0     C11518   8.500  11.141   5.563  1.3761 -0.4165  0.5491
   84MOL0     C11519   8.440  11.133   5.670 -0.4717 -0.0116 -0.5610
   84MOL0     C11520   9.197  10.999   5.229 -0.4829 -0.3223 -0.1464
   84MOL0     C11521   9.324  11.052   5.188  0.2354  0.5525  0.0527
   84MOL0     C11522   9.381  10.993   5.058  0.3505 -1.0982 -0.5598
   84MOL0     H11523   9.580  11.412   4.996 -1.3831 -2.7586  0.7060
   84MOL0     H11524   9.793  11.527   4.893  1.3051 -0.5994 -0.6153
   84MOL0     H11525  10.018  11.613   4.812  0.3846 -0.0943  0.2246
   84MOL0     H11526   9.937  11.479   4.710  1.8545 -0.1028 -2.3380
   84MOL0     H11527  10.157  11.389   4.670 -0.6745  0.0219 -3.9969
   84MOL0     H11528  10.114  11.544   4.589 -0.6979  1.3125 -0.5073
   84MOL0     H11529  10.266  11.548   4.859 -2.2855  1.8035 -0.4981
   84MOL0     H11530  10.365  11.507   4.716 -0.9347 -2.9016 -0.0986
   84MOL0     H11531  10.315  11.715   4.618 -0.5609  1.1721  0.4609
   84MOL0     H11532  10.215  11.771   4.749  2.0944  3.2039 -1.0195
   84MOL0     H11533  10.381  11.731   4.915  2.7609  3.0361  0.9740
   84MOL0     H11534  10.408  11.867   4.793  1.9932  0.7980  1.4130
   84MOL0     H11535  10.547  11.611   4.807 -1.5580 -0.1711  1.0947
   84MOL0     H11536  10.551  11.714   4.662  3.2631  3.9395  1.3132
   84MOL0     H11537  10.741  11.717   4.789 -0.0075 -0.4639 -1.6371
   84MOL0     H11538  10.639  11.783   4.935 -2.6795  3.4402 -0.9127
   84MOL0     H11539  10.711  11.945   4.681 -2.3907 -0.5706 -0.0724
   84MOL0     H11540  10.617  11.987   4.826 -0.8933  0.3631 -2.8102
   84MOL0     H11541  10.791  11.998   5.058  2.0247 -4.7415  2.8935
   84MOL0     H11542  11.118  12.016   5.149 -1.8110  0.2753  2.6862
   84MOL0     H11543  10.998  12.147   5.146 -2.8322 -2.7161 -0.8710
   84MOL0     H11544  11.251  12.214   5.096 -1.0833 -1.1880  1.4828
   84MOL0     H11545  11.235  12.124   4.951 -0.2565 -0.1281 -0.9741
   84MOL0     H11546  11.102  12.277   4.839  2.1851  0.0536 -0.5375
   84MOL0     H11547  11.054  12.362   4.989  0.4455  0.8188  0.1136
   84MOL0     H11548  11.200  12.475   4.849 -1.3538  2.4179  2.5539
   84MOL0     H11549  11.282  12.444   5.010  1.2227 -1.2637 -0.0023
   84MOL0     H11550  11.547  12.256   4.723 -0.1883  0.2778 -0.5633
   84MOL0     H11551  11.708  12.363   4.460 -2.1775 -2.1020  0.1052
   84MOL0     H11552  11.724  12.242   4.575  1.5569 -0.4801 -1.4731
   84MOL0     H11553  11.832  12.386   4.583 -0.3651  1.9000 -1.8643
   84MOL0     H11554  11.938  12.908   4.729 -2.3247  0.0781  0.5133
   84MOL0     H11555  12.140  13.013   4.609  0.5031  1.8666 -1.6231
   84MOL0     H11556  12.256  13.166   4.493 -3.3826  1.9219 -1.3946
   84MOL0     H11557  12.312  13.045   4.372 -2.1482 -1.4755 -1.9430
   84MOL0     H11558  12.308  13.230   4.204 -0.1798  0.8454  0.2528
   84MOL0     H11559  12.251  13.354   4.324  0.8620  0.9009 -0.8520
   84MOL0     H11560  12.493  13.344   4.257  0.3237 -0.4161  0.7920
   84MOL0     H11561  12.510  13.230   4.384 -0.6346  0.1674  1.1192
   84MOL0     H11562  12.371  13.395   4.533  0.7670  1.6647  0.7749
   84MOL0     H11563  12.395  13.513   4.401  2.1092  2.6927  1.7851
   84MOL0     H11564  12.618  13.375   4.555  2.2813  0.5558 -0.2432
   84MOL0     H11565  12.636  13.486   4.419  2.9204  2.0370  2.2523
   84MOL0     H11566  12.669  13.601   4.636  0.3633  1.9405 -2.7209
   84MOL0     H11567  12.499  13.554   4.676 -1.6152  2.7210  0.1049
   84MOL0     H11568  12.412  13.692   4.521  0.1250 -0.8035 -1.8094
   84MOL0     H11569  12.559  13.699   4.425 -3.1241  0.7923 -0.9073
   84MOL0     H11570  12.541  13.921   4.550 -3.3703  0.4006  0.2782
   84MOL0     H11571  12.654  13.813   4.639 -0.5422 -0.8042  0.6025
   84MOL0     H11572  11.895  13.008   4.254 -1.7895  0.2300  0.0511
   84MOL0     H11573  11.736  12.876   4.354 -0.9776  2.1505 -0.0004
   84MOL0     H11574  11.493  12.745   4.714  0.0395  0.6812  2.3832
   84MOL0     H11575  11.364  12.619   4.858  1.0196 -0.6966  1.8820
   84MOL0     H11576  10.017  11.187   5.025 -0.7026 -1.2610  2.0166
   84MOL0     H11577   9.825  11.103   5.136 -2.9098 -0.6799 -0.5008
   84MOL0     H11578   9.412  11.226   5.475 -1.4115 -0.6574  1.5688
   84MOL0     H11579   9.187  11.170   5.533 -1.3243  4.4285 -2.5261
   84MOL0     H11580   8.952  11.179   5.525 -1.5610 -0.2048  0.0345
   84MOL0     H11581   8.951  11.229   5.361  4.2713  0.4493  1.5848
   84MOL0     H11582   8.772  11.009   5.509 -0.0403  2.0999  0.6670
   84MOL0     H11583   8.776  11.017   5.335  0.9064 -1.8498  0.0020
   84MOL0     H11584   8.731  11.251   5.519  2.3327  1.1248 -2.2587
   84MOL0     H11585   8.709  11.271   5.352 -1.1735  2.1878  2.0413
   84MOL0     H11586   8.540  11.076   5.369 -0.5242  0.9605 -0.9334
   84MOL0     H11587   8.502  11.248   5.374 -0.1570 -0.3562 -2.0416
   84MOL0     H11588   8.375  11.128   5.755 -1.9155 -1.0036 -1.6706
   84MOL0     H11589   9.128  10.943   5.166 -0.1275 -2.1229  0.9924
   84MOL0     H11590   9.388  11.080   4.992 -1.3883 -0.7899 -0.3905
   84MOL0     H11591   9.474  10.938   5.068  0.7522 -0.6796 -1.7268
   84MOL0     H11592   9.306  10.923   5.018 -1.9857 -0.8522  2.9638
   85MOL0     O11593  10.042   2.455   8.744 -0.0889  0.2472 -0.1028
   85MOL0     C11594   9.955   2.376   8.730  0.0559  0.7158 -0.4828
   85MOL0     O11595   9.962   2.251   8.660 -0.1700 -0.8836  0.0882
   85MOL0     C11596  10.059   2.251   8.565  0.2318  1.1791  0.1851
   85MOL0     C11597  10.012   2.225   8.440 -0.4429 -0.4314  0.3410
   85MOL0     C11598  10.096   2.222   8.333  0.6114 -0.1129 -0.0078
   85MOL0     C11599  10.237   2.235   8.352 -1.0712 -0.1025 -0.3866
   85MOL0     O11600  10.333   2.238   8.256 -0.5245 -0.2663 -0.1697
   85MOL0     C11601  10.291   2.254   8.119 -0.2200 -0.0580 -0.8319
   85MOL0     C11602  10.404   2.230   8.020  0.3514  0.0391 -0.0659
   85MOL0     C11603  10.354   2.303   7.896 -0.1118  0.0935  0.0156
   85MOL0     C11604  10.384   2.449   7.876 -0.9016  0.1732  0.1890
   85MOL0     C11605  10.516   2.501   7.946 -0.1857 -0.2849 -0.1004
   85MOL0     C11606  10.645   2.437   7.891 -0.4750  0.1778 -0.0526
   85MOL0     C11607  10.780   2.470   7.970  1.2611 -0.2454  0.4444
   85MOL0     C11608  10.824   2.611   7.955 -0.3503  0.4907  0.2301
   85MOL0     N11609  10.958   2.633   8.018  0.4359  0.5742 -0.2360
   85MOL0     C11610  10.983   2.618   8.154  0.0768  0.2022  0.6143
   85MOL0     C11611  11.116   2.649   8.157  0.1978  0.6034 -0.1042
   85MOL0     C11612  11.190   2.667   8.287  0.4511  0.4938 -0.6424
   85MOL0     C11613  11.192   2.544   8.387  0.4978 -0.1040  0.4450
   85MOL0     C11614  11.221   2.392   8.341  0.4358 -0.3453  0.3333
   85MOL0     C11615  11.368   2.362   8.330  0.8913  0.3011 -1.2838
   85MOL0     O11616  11.435   2.441   8.229 -0.5767  0.0965 -0.8079
   85MOL0     C11617  11.577   2.422   8.223 -0.1398 -0.2015 -0.0805
   85MOL0     C11618  11.638   2.533   8.169  0.2475  0.0242  0.3106
   85MOL0     C11619  11.774   2.563   8.162 -0.2207  0.4905 -0.2716
   85MOL0     C11620  11.820   2.691   8.107 -0.4069  0.3855  0.2750
   85MOL0     C11621  11.863   2.461   8.208 -0.5846 -0.2114  0.5379
   85MOL0     C11622  12.010   2.470   8.195  0.3903  0.3202  0.6058
   85MOL0     O11623  12.080   2.361   8.238 -0.3325  0.6275  0.5491
   85MOL0     C11624  12.220   2.357   8.244  0.2267  0.4888 -0.7040
   85MOL0     C11625  12.313   2.445   8.182 -0.4022 -0.8271  0.4224
   85MOL0     C11626  12.452   2.430   8.194 -0.0073  0.4798 -0.0378
   85MOL0     C11627  12.509   2.331   8.281 -0.0013  0.4548  0.9758
   85MOL0     O11628  12.640   2.325   8.300 -0.3258  0.0141  0.5960
   85MOL0     C11629  12.727   2.349   8.188 -0.6795  1.1910  0.2801
   85MOL0     C11630  12.875   2.318   8.227 -0.2533 -0.3074 -0.5527
   85MOL0     C11631  12.883   2.184   8.300  0.1443  0.6596 -0.6511
   85MOL0     C11632  12.857   2.056   8.217  0.4139  0.0051  0.6512
   85MOL0     C11633  12.942   1.940   8.276  0.1572  0.5783  0.7668
   85MOL0     C11634  12.893   1.918   8.423 -0.1967 -0.5475 -1.0724
   85MOL0     C11635  12.742   1.890   8.435 -0.7324 -0.4879  0.3296
   85MOL0     C11636  12.706   1.795   8.550  0.0272  0.7622  0.2269
   85MOL0    Cl11637  12.817   1.656   8.584 -0.3698 -0.0156 -0.0656
   85MOL0     C11638  12.413   2.242   8.338 -0.3951 -0.1013 -0.5993
   85MOL0     C11639  12.270   2.255   8.324 -0.5704 -0.7090  0.2998
   85MOL0     O11640  12.057   2.580   8.159  0.1115  0.0239 -0.1497
   85MOL0     C11641  11.801   2.343   8.267  0.4284  0.7576 -0.5398
   85MOL0     C11642  11.663   2.324   8.275  0.1264 -0.8246  0.2036
   85MOL0     N11643  11.165   2.681   8.035 -0.0563 -0.1472  0.5010
   85MOL0     N11644  11.071   2.686   7.951  1.1872  0.5290 -0.9891
   85MOL0     C11645  10.283   2.263   8.481 -0.0775  0.6513 -0.2754
   85MOL0     C11646  10.191   2.270   8.586 -0.1687  0.4683  0.5440
   85MOL0     C11647   9.817   2.396   8.772  0.9435 -0.9869 -0.0157
   85MOL0     C11648   9.718   2.297   8.758 -0.6295  0.1290  1.2404
   85MOL0     C11649   9.588   2.300   8.808 -0.2009  0.4425  0.7129
   85MOL0     C11650   9.550   2.415   8.882  0.1220  0.1997  0.0511
   85MOL0     O11651   9.433   2.426   8.958 -0.7356 -0.2876 -0.1290
   85MOL0     C11652   9.342   2.314   8.980  0.3467 -0.1784 -0.9051
   85MOL0     C11653   9.240   2.361   9.082  0.4119  0.2135  0.1340
   85MOL0     C11654   9.131   2.260   9.113 -1.0618 -0.0358  0.6610
   85MOL0     C11655   9.020   2.302   9.216  0.1333 -0.0264 -0.6853
   85MOL0     C11656   8.978   2.436   9.196  0.0770 -1.1783  0.9294
   85MOL0     C11657   8.944   2.556   9.177 -0.5598  1.4144 -0.1652
   85MOL0     C11658   9.634   2.519   8.894 -1.0636  0.5948  0.7025
   85MOL0     C11659   9.770   2.511   8.855  0.3226 -1.2246  0.0147
   85MOL0     C11660   9.849   2.631   8.892  0.8436  0.1264 -0.1120
   85MOL0     H11661   9.904   2.222   8.430 -0.4356 -0.8164  0.3553
   85MOL0     H11662  10.051   2.206   8.235  1.6936  1.7037 -0.8378
   85MOL0     H11663  10.239   2.349   8.109  3.9506  2.4485 -0.7867
   85MOL0     H11664  10.226   2.168   8.100 -0.5422  0.3591 -1.6628
   85MOL0     H11665  10.502   2.260   8.057  0.4674  1.4242 -1.3768
   85MOL0     H11666  10.418   2.122   8.007  1.5586  0.3065 -1.1136
   85MOL0     H11667  10.407   2.250   7.817 -2.6287 -1.5878 -0.6845
   85MOL0     H11668  10.248   2.279   7.882  0.2668 -2.1841  0.5623
   85MOL0     H11669  10.391   2.462   7.767 -6.3340  3.5317 -0.1680
   85MOL0     H11670  10.296   2.511   7.898  0.0800  1.5384  0.3597
   85MOL0     H11671  10.512   2.485   8.054 -1.5392  0.2421 -0.0588
   85MOL0     H11672  10.520   2.610   7.937 -0.2932 -0.1863  0.9209
   85MOL0     H11673  10.641   2.328   7.894 -1.8505  0.0148 -3.6693
   85MOL0     H11674  10.658   2.459   7.785  0.3163 -1.1802 -0.2703
   85MOL0     H11675  10.856   2.405   7.926  0.1172 -2.2543  1.3202
   85MOL0     H11676  10.785   2.438   8.075  3.2186 -0.0324  0.4615
   85MOL0     H11677  10.834   2.628   7.848  1.7521  0.0435  0.3136
   85MOL0     H11678  10.758   2.684   8.002 -0.3027  0.8234 -0.2125
   85MOL0     H11679  10.918   2.583   8.233 -0.4010 -1.2267 -0.3752
   85MOL0     H11680  11.150   2.755   8.339 -1.0701  0.2626 -1.3696
   85MOL0     H11681  11.296   2.690   8.274  1.1067  2.0076  4.6956
   85MOL0     H11682  11.256   2.565   8.473  0.2984  0.3323  0.4953
   85MOL0     H11683  11.090   2.541   8.425  0.1923  1.3806 -0.1766
   85MOL0     H11684  11.177   2.325   8.416 -1.3308 -0.7178 -0.9827
   85MOL0     H11685  11.174   2.364   8.247  0.0724 -1.1112  0.7298
   85MOL0     H11686  11.411   2.379   8.429 -0.9581 -2.9626  0.2467
   85MOL0     H11687  11.367   2.257   8.301  0.6821 -0.0526 -0.0631
   85MOL0     H11688  11.561   2.607   8.151 -1.5409 -1.4062  1.6261
   85MOL0     H11689  11.890   2.681   8.024  0.8944  0.6073  1.3205
   85MOL0     H11690  11.873   2.750   8.183 -0.5582  1.0025 -0.0871
   85MOL0     H11691  11.729   2.737   8.067 -2.0275 -1.8594  1.1650
   85MOL0     H11692  12.283   2.526   8.115  2.9897 -0.5199 -0.9548
   85MOL0     H11693  12.524   2.496   8.146 -0.3903  2.0057  1.4234
   85MOL0     H11694  12.701   2.279   8.108 -2.8294  0.7556  1.2795
   85MOL0     H11695  12.719   2.449   8.146 -0.4104  0.3024 -2.0273
   85MOL0     H11696  12.938   2.320   8.137 -1.9523 -1.8085 -1.8556
   85MOL0     H11697  12.912   2.396   8.294 -1.9509  0.0475  0.0030
   85MOL0     H11698  12.821   2.186   8.390  0.6367  0.1111 -0.2887
   85MOL0     H11699  12.982   2.174   8.345  1.2506  2.8854 -2.3545
   85MOL0     H11700  12.895   2.076   8.116  1.5319  2.3460  1.4592
   85MOL0     H11701  12.749   2.038   8.219  0.0675  1.6872 -0.5305
   85MOL0     H11702  12.926   1.857   8.207  0.1267  3.1025 -2.5168
   85MOL0     H11703  13.048   1.964   8.284  0.2189  0.8831 -0.7226
   85MOL0     H11704  12.907   1.999   8.495  2.5056 -3.9415  2.6272
   85MOL0     H11705  12.949   1.840   8.474 -0.8073 -0.3543 -0.0813
   85MOL0     H11706  12.699   1.850   8.342 -0.0187 -0.6550  0.0612
   85MOL0     H11707  12.695   1.987   8.450 -0.8113 -0.0485 -2.2390
   85MOL0     H11708  12.605   1.762   8.524  1.0386 -1.0896 -1.6661
   85MOL0     H11709  12.700   1.851   8.644 -1.7848  1.5164 -0.2871
   85MOL0     H11710  12.452   2.162   8.400 -1.5906 -0.7306 -0.6399
   85MOL0     H11711  12.217   2.183   8.385 -1.4398  0.2834  0.7383
   85MOL0     H11712  11.859   2.258   8.301  0.4160 -0.0915 -2.5119
   85MOL0     H11713  11.623   2.241   8.332 -1.5246 -1.9132 -2.3656
   85MOL0     H11714  10.387   2.292   8.494  0.9295 -3.1951  2.0576
   85MOL0     H11715  10.228   2.296   8.685 -1.4518  2.4705  0.5632
   85MOL0     H11716   9.733   2.201   8.710 -1.8940 -0.8714  2.7304
   85MOL0     H11717   9.533   2.208   8.789 -1.7075  1.6700 -1.3201
   85MOL0     H11718   9.288   2.274   8.894 -0.0519  1.4316 -1.4408
   85MOL0     H11719   9.402   2.236   9.027  3.6174  4.0544  2.9577
   85MOL0     H11720   9.190   2.451   9.046 -0.4215  0.2765  1.3885
   85MOL0     H11721   9.292   2.380   9.176  2.8700 -2.5871 -0.5023
   85MOL0     H11722   9.082   2.244   9.017  0.4738  0.4218 -0.2415
   85MOL0     H11723   9.190   2.175   9.148  3.0940  1.6818 -1.4528
   85MOL0     H11724   9.062   2.296   9.317  0.4302  0.3433 -0.7813
   85MOL0     H11725   8.938   2.230   9.208 -2.9583  3.3230 -1.7678
   85MOL0     H11726   8.919   2.655   9.145  1.3091  1.6554 -0.9793
   85MOL0     H11727   9.593   2.602   8.952 -2.7606  3.1235 -3.6507
   85MOL0     H11728   9.884   2.634   8.996 -0.1257  2.6998  0.1998
   85MOL0     H11729   9.932   2.646   8.823  0.9207 -3.2024 -0.9292
   85MOL0     H11730   9.789   2.722   8.886  1.2386  0.7470  3.1365
   86MOL0     O11731   9.056  10.512   9.324  0.3847 -0.0641  0.4159
   86MOL0     C11732   9.136  10.437   9.380  0.5085 -0.4668  0.1550
   86MOL0     O11733   9.123  10.371   9.496  0.9561  0.2832 -0.2885
   86MOL0     C11734   9.001  10.370   9.560 -0.4386  0.5422  0.9412
   86MOL0     C11735   8.990  10.423   9.685 -0.1716  0.0063 -0.5681
   86MOL0     C11736   8.867  10.429   9.767  0.2618 -0.1940  0.4631
   86MOL0     C11737   8.750  10.386   9.701 -0.4214  0.5535 -0.3322
   86MOL0     O11738   8.636  10.410   9.766 -0.1016  0.6352 -0.0047
   86MOL0     C11739   8.508  10.371   9.699 -1.0060  0.0316  0.3740
   86MOL0     C11740   8.391  10.436   9.789 -0.0159  0.0299 -0.0304
   86MOL0     C11741   8.359  10.364   9.919 -0.0682  0.1040  0.4788
   86MOL0     C11742   8.240  10.426   9.994  0.5291  0.3489 -0.0697
   86MOL0     C11743   8.233  10.380  10.141 -0.4019 -0.9736  0.5054
   86MOL0     C11744   8.168  10.241  10.156 -0.7319 -0.0982  1.3090
   86MOL0     C11745   8.126  10.212  10.306  0.2914  0.6146 -0.4583
   86MOL0     C11746   8.060  10.072  10.315  0.6450  0.7473  0.9991
   86MOL0     N11747   7.966  10.033  10.208  0.3854  0.3701  0.3484
   86MOL0     C11748   7.840  10.095  10.176  0.1172  0.3703 -0.6653
   86MOL0     C11749   7.789  10.013  10.082 -0.4144  0.3070  0.9229
   86MOL0     C11750   7.662  10.026  10.005 -0.2223  0.5292 -0.0993
   86MOL0     C11751   7.546  10.057  10.095  0.3457  0.4933 -0.7167
   86MOL0     C11752   7.417  10.028  10.013  0.0799  0.0437 -0.0214
   86MOL0     C11753   7.290  10.004  10.100  0.2397  0.3579 -0.2784
   86MOL0     O11754   7.338   9.886  10.159  0.7316 -0.4192  0.8557
   86MOL0     C11755   7.296   9.759  10.134  0.5303 -0.3051  0.4369
   86MOL0     C11756   7.374   9.660  10.178 -0.4181 -0.1001  0.0618
   86MOL0     C11757   7.339   9.526  10.179 -0.4252  0.2537  0.3030
   86MOL0     C11758   7.439   9.435  10.245  0.7116  0.5456 -0.4655
   86MOL0     C11759   7.226   9.479  10.109  0.0409 -0.2600  0.1595
   86MOL0     C11760   7.179   9.336  10.105  0.4824 -0.9693 -0.0139
   86MOL0     O11761   7.211   9.270  10.214  0.6630  0.4808 -0.5782
   86MOL0     C11762   7.176   9.135  10.214  0.3871  0.2054 -0.4410
   86MOL0     C11763   7.063   9.092  10.278  0.3776 -0.2210 -0.0666
   86MOL0     C11764   7.030   8.953  10.290 -1.5458 -0.4662  0.0256
   86MOL0     C11765   7.113   8.859  10.220  0.9062 -0.0568  0.1389
   86MOL0     O11766   7.058   8.730  10.208  0.5891 -0.4113  0.3308
   86MOL0     C11767   7.145   8.629  10.180  0.5132  0.5147  0.5684
   86MOL0     C11768   7.062   8.504  10.129 -0.2151  0.5035  0.6755
   86MOL0     C11769   7.160   8.392  10.091 -0.1196  0.5287  1.4333
   86MOL0     C11770   7.079   8.267  10.056 -0.3375 -0.0751 -0.8393
   86MOL0     C11771   7.174   8.153  10.018 -0.3345  0.1431 -0.1461
   86MOL0     C11772   7.099   8.043   9.953  0.3038  0.2403 -0.4781
   86MOL0     C11773   6.996   7.968  10.052 -0.4490 -0.5457  1.2094
   86MOL0     C11774   6.962   7.833  10.001  1.0742 -0.3045 -0.3689
   86MOL0    Cl11775   7.103   7.727   9.993 -0.0639  0.2117 -0.0713
   86MOL0     C11776   7.230   8.902  10.164 -0.1776  0.8462 -0.3141
   86MOL0     C11777   7.259   9.036  10.153  0.8198  0.1126  0.2110
   86MOL0     O11778   7.115   9.300  10.001  0.4981  0.2465 -0.3837
   86MOL0     C11779   7.153   9.582  10.050  0.2067 -0.1329  0.7796
   86MOL0     C11780   7.184   9.721  10.065  0.9521 -0.2371 -0.1617
   86MOL0     N11781   7.880   9.910  10.059  0.5831  0.6474 -0.4084
   86MOL0     N11782   7.979   9.919  10.137 -0.4674  0.0132 -0.2671
   86MOL0     C11783   8.766  10.315   9.576 -0.7797  0.1545 -0.7536
   86MOL0     C11784   8.895  10.303   9.506  1.4638  0.5503 -0.0817
   86MOL0     C11785   9.278  10.440   9.330  0.5563 -0.5834  0.3797
   86MOL0     C11786   9.346  10.320   9.348  0.2211 -0.5632 -0.0835
   86MOL0     C11787   9.483  10.311   9.314  0.6846 -0.3284  0.0621
   86MOL0     C11788   9.545  10.418   9.247  0.4777 -0.1945 -0.3896
   86MOL0     O11789   9.668  10.391   9.194 -0.6334  0.3172  0.2565
   86MOL0     C11790   9.730  10.487   9.109 -0.0721 -0.0698 -0.2609
   86MOL0     C11791   9.836  10.426   9.011  0.9255  0.4278 -0.0464
   86MOL0     C11792   9.833  10.511   8.886 -0.0976 -0.3121 -0.7815
   86MOL0     C11793   9.884  10.448   8.764  0.2192  0.0650 -1.1751
   86MOL0     C11794  10.030  10.450   8.774 -0.6142  0.2762  0.0999
   86MOL0     C11795  10.154  10.455   8.788  0.8899 -0.0390 -0.3227
   86MOL0     C11796   9.481  10.540   9.224  0.5212  0.2668  1.5574
   86MOL0     C11797   9.343  10.543   9.265  0.5252 -0.1388  1.1016
   86MOL0     C11798   9.283  10.681   9.241 -0.3020 -0.9637 -1.0952
   86MOL0     H11799   9.075  10.477   9.725  0.3807 -1.2319  0.0169
   86MOL0     H11800   8.879  10.487   9.858  0.3692  0.4108  0.0711
   86MOL0     H11801   8.484  10.264   9.692 -2.1810  0.3518 -0.8977
   86MOL0     H11802   8.500  10.413   9.598  0.1337 -0.4455  0.0655
   86MOL0     H11803   8.417  10.543   9.790 -0.2916  0.1389 -1.6830
   86MOL0     H11804   8.300  10.437   9.729  0.1498  1.6735 -0.3173
   86MOL0     H11805   8.328  10.262   9.897 -0.0655  0.0736  0.6220
   86MOL0     H11806   8.451  10.357   9.977  1.0204  0.6789 -1.0975
   86MOL0     H11807   8.267  10.532   9.998  3.1989 -0.2453 -0.3783
   86MOL0     H11808   8.145  10.410   9.942 -0.4146 -1.3484  2.0303
   86MOL0     H11809   8.186  10.457  10.203 -2.0078 -1.2720 -0.2808
   86MOL0     H11810   8.340  10.370  10.164  0.2202 -2.2039 -2.5067
   86MOL0     H11811   8.086  10.228  10.085 -1.0914 -0.5631  1.8015
   86MOL0     H11812   8.239  10.163  10.126  0.3559  1.2877  0.0964
   86MOL0     H11813   8.062  10.295  10.337  1.6439  1.5422 -0.0389
   86MOL0     H11814   8.208  10.219  10.378 -1.3731  0.3552  1.5578
   86MOL0     H11815   8.134   9.992  10.322  2.7685  2.4579 -0.3864
   86MOL0     H11816   7.994  10.075  10.403  0.0562 -1.8482  0.7147
   86MOL0     H11817   7.793  10.186  10.214 -0.2746  0.0234 -0.3066
   86MOL0     H11818   7.643   9.933   9.951 -0.5937 -0.9671  2.4399
   86MOL0     H11819   7.678  10.101   9.927 -0.7098 -1.5808 -2.3568
   86MOL0     H11820   7.542   9.995  10.186 -0.3161  0.3366 -0.8471
   86MOL0     H11821   7.560  10.155  10.140  4.6958 -1.5402  3.1683
   86MOL0     H11822   7.398  10.110   9.943  1.7271  3.3202  3.0150
   86MOL0     H11823   7.426   9.942   9.947 -0.4257  0.4797 -0.6722
   86MOL0     H11824   7.269  10.079  10.177  0.9307  0.4459 -0.1697
   86MOL0     H11825   7.201   9.993  10.038  0.6233 -1.4183 -0.5510
   86MOL0     H11826   7.471   9.690  10.215  0.6468  0.0713 -2.6924
   86MOL0     H11827   7.522   9.485  10.295 -0.0684  0.5815  0.8384
   86MOL0     H11828   7.472   9.365  10.168 -2.6449 -0.9769 -0.6872
   86MOL0     H11829   7.392   9.378  10.325  0.4325  0.8221 -0.4249
   86MOL0     H11830   6.991   9.166  10.310  0.0913 -0.0313 -1.1055
   86MOL0     H11831   6.930   8.917  10.312 -2.7355  0.8175 -2.6867
   86MOL0     H11832   7.199   8.662  10.091 -0.7737  1.6608  0.1757
   86MOL0     H11833   7.210   8.610  10.266 -0.2218  0.7778  1.2028
   86MOL0     H11834   6.987   8.488  10.207 -1.2609  2.4807  0.1308
   86MOL0     H11835   6.996   8.527  10.045 -3.2050  0.6045  2.9087
   86MOL0     H11836   7.237   8.371  10.166  2.2135  1.3865 -0.5875
   86MOL0     H11837   7.212   8.423  10.000  1.2701 -1.2244  1.5677
   86MOL0     H11838   7.021   8.304   9.972 -2.3382  2.1856  1.3644
   86MOL0     H11839   7.000   8.237  10.126  1.0778 -0.0271  0.8552
   86MOL0     H11840   7.247   8.190   9.946 -0.8813  1.1412 -0.2102
   86MOL0     H11841   7.220   8.110  10.108  0.5020  0.5971 -0.3469
   86MOL0     H11842   7.167   7.968   9.911 -0.0137 -2.0272  2.6603
   86MOL0     H11843   7.036   8.076   9.870 -0.3075  2.5908  0.8190
   86MOL0     H11844   6.908   8.033  10.061 -0.9039 -1.2413  1.9021
   86MOL0     H11845   7.047   7.949  10.146  1.6527  1.5079  0.5854
   86MOL0     H11846   6.915   7.843   9.902 -2.3049  1.5164  1.2423
   86MOL0     H11847   6.881   7.800  10.067 -1.3153 -2.6431 -4.0440
   86MOL0     H11848   7.301   8.841  10.108 -1.3390 -0.1538 -0.7325
   86MOL0     H11849   7.350   9.068  10.104  2.0689  0.1270  2.3788
   86MOL0     H11850   7.060   9.569   9.996  0.0136  1.0982  0.7764
   86MOL0     H11851   7.129   9.807  10.028  0.0671  1.2602  4.1255
   86MOL0     H11852   8.679  10.259   9.541  0.3718 -1.6564 -0.8437
   86MOL0     H11853   8.904  10.251   9.411  1.0906 -1.3461  0.8786
   86MOL0     H11854   9.291  10.231   9.378 -3.5442  0.9798 -1.8065
   86MOL0     H11855   9.541  10.219   9.309 -1.0092 -1.4118 -0.3450
   86MOL0     H11856   9.649  10.522   9.043  0.2002  2.8539  0.8198
   86MOL0     H11857   9.774  10.574   9.158  1.6073 -0.7148 -0.5697
   86MOL0     H11858   9.792  10.335   8.970 -1.6045  2.2183 -1.7012
   86MOL0     H11859   9.929  10.410   9.065 -0.5962 -1.5086  2.2345
   86MOL0     H11860   9.728  10.535   8.866 -0.1868  0.0197  0.0565
   86MOL0     H11861   9.889  10.604   8.900 -0.7484  0.2099 -1.4896
   86MOL0     H11862   9.857  10.509   8.677 -0.7457 -1.2920 -1.8578
   86MOL0     H11863   9.840  10.349   8.750  0.5514 -0.8444  3.0310
   86MOL0     H11864  10.254  10.451   8.827  0.3428 -2.0262  1.0364
   86MOL0     H11865   9.532  10.619   9.170  4.7194 -2.5713  0.8873
   86MOL0     H11866   9.196  10.687   9.176 -1.4624  3.3252  0.5364
   86MOL0     H11867   9.248  10.719   9.337  2.6877  0.7645 -0.5624
   86MOL0     H11868   9.361  10.749   9.207 -0.2668 -2.1123 -3.5650
   87MOL0     O11869   4.627   3.958   8.421 -0.1283  0.2015  0.0570
   87MOL0     C11870   4.510   3.948   8.441 -0.0242 -0.1082 -0.0904
   87MOL0     O11871   4.457   3.929   8.571 -0.2954 -0.5630  0.2715
   87MOL0     C11872   4.528   3.972   8.677  0.0866 -0.2625 -0.1468
   87MOL0     C11873   4.571   4.105   8.693 -0.6662  0.0474  0.0505
   87MOL0     C11874   4.656   4.133   8.806 -0.0068 -0.2834 -0.1783
   87MOL0     C11875   4.678   4.035   8.905 -0.0956 -0.1893 -0.2042
   87MOL0     O11876   4.741   4.076   9.018  0.4748 -0.1961  0.0657
   87MOL0     C11877   4.660   4.084   9.129  0.3205  0.3372 -0.5322
   87MOL0     C11878   4.744   4.088   9.263  0.0758 -0.4277 -0.1387
   87MOL0     C11879   4.865   4.183   9.250 -0.0582 -0.8261  0.3440
   87MOL0     C11880   4.899   4.237   9.385 -0.2184  0.4800 -0.0346
   87MOL0     C11881   5.034   4.314   9.391 -0.3401 -0.9706  0.2864
   87MOL0     C11882   5.046   4.440   9.480  0.7208  0.2365  0.0913
   87MOL0     C11883   5.185   4.503   9.490 -0.2859 -1.1092  0.8508
   87MOL0     C11884   5.193   4.607   9.589 -0.6106 -0.2927 -0.4940
   87MOL0     N11885   5.327   4.666   9.563 -0.1234  0.3799  0.3875
   87MOL0     C11886   5.351   4.768   9.477  0.0310 -0.0612  0.6426
   87MOL0     C11887   5.486   4.789   9.478  0.3914  0.0599  0.0444
   87MOL0     C11888   5.562   4.889   9.394  0.1836  0.1827  0.0807
   87MOL0     C11889   5.673   4.954   9.488 -0.0135  0.0360 -0.4636
   87MOL0     C11890   5.749   5.062   9.410 -0.5562  0.4842  0.5961
   87MOL0     C11891   5.870   5.115   9.487 -0.7765 -0.1604 -0.0863
   87MOL0     O11892   5.836   5.160   9.624 -0.0393  0.5229  0.3425
   87MOL0     C11893   5.936   5.177   9.719 -0.2495  0.3503  0.3130
   87MOL0     C11894   5.914   5.188   9.855 -0.2128 -0.0456 -0.1891
   87MOL0     C11895   6.013   5.194   9.952  0.8258  0.4284  0.3617
   87MOL0     C11896   5.957   5.216  10.091  0.5037  0.2241  0.5575
   87MOL0     C11897   6.149   5.203   9.912 -0.8122 -0.3217  0.3432
   87MOL0     C11898   6.275   5.211  10.004  0.4132 -0.1264 -0.9057
   87MOL0     O11899   6.399   5.226   9.937 -0.9941  0.0081  0.3950
   87MOL0     C11900   6.520   5.218  10.017 -0.1956 -0.1890  0.1680
   87MOL0     C11901   6.620   5.313   9.986  0.0239 -0.2886 -1.4874
   87MOL0     C11902   6.738   5.320  10.072  1.4007 -0.1556  1.0527
   87MOL0     C11903   6.758   5.222  10.167  0.3844  0.0259  0.2857
   87MOL0     O11904   6.868   5.229  10.236  0.2824 -0.0926 -0.3606
   87MOL0     C11905   6.921   5.101  10.280 -0.6236 -0.8740  0.3094
   87MOL0     C11906   7.058   5.091  10.202 -0.0242  0.1381  0.2861
   87MOL0     C11907   7.155   5.211  10.209  0.4182  0.0150 -1.1395
   87MOL0     C11908   7.280   5.183  10.125 -0.0029 -0.0224 -0.2107
   87MOL0     C11909   7.350   5.314  10.127 -1.4489  0.0131  0.2678
   87MOL0     C11910   7.472   5.314  10.028 -0.0874 -0.3347  0.4070
   87MOL0     C11911   7.551   5.443  10.014 -0.4793 -1.1449  0.7154
   87MOL0     C11912   7.613   5.458   9.873 -0.0213  1.2601 -0.0383
   87MOL0    Cl11913   7.732   5.599   9.857 -0.2392 -0.2534  0.1991
   87MOL0     C11914   6.660   5.125  10.187  0.4021  0.9034 -0.6046
   87MOL0     C11915   6.544   5.128  10.113  0.0598 -0.5161  0.0298
   87MOL0     O11916   6.254   5.236  10.125 -0.0314 -0.6463  0.5078
   87MOL0     C11917   6.179   5.185   9.778  0.3749  0.4720  0.2403
   87MOL0     C11918   6.076   5.175   9.677 -0.4118  0.3120  0.3708
   87MOL0     N11919   5.531   4.698   9.579 -0.0892 -0.2783 -0.2953
   87MOL0     N11920   5.438   4.621   9.629 -0.0746 -0.4311 -0.1108
   87MOL0     C11921   4.627   3.910   8.895  0.0202  0.2453  0.3142
   87MOL0     C11922   4.546   3.878   8.780 -0.1200 -1.0830 -0.5496
   87MOL0     C11923   4.424   3.978   8.325 -0.5050 -0.1664 -0.0089
   87MOL0     C11924   4.298   4.018   8.356  0.5747 -0.6703  0.6358
   87MOL0     C11925   4.210   4.057   8.259 -0.1622  0.0257 -0.9814
   87MOL0     C11926   4.236   4.064   8.123 -0.2861 -0.0923 -0.0321
   87MOL0     O11927   4.150   4.107   8.024 -0.3083  0.0202 -0.4166
   87MOL0     C11928   4.010   4.121   8.044 -0.2900 -0.4017 -0.8584
   87MOL0     C11929   3.930   4.091   7.918  0.6783  0.0455  0.3870
   87MOL0     C11930   3.977   4.162   7.789  0.5098 -0.2600  0.0057
   87MOL0     C11931   3.900   4.102   7.669  0.0494 -0.5078 -0.1302
   87MOL0     C11932   3.937   4.157   7.536  0.3793  0.3488 -0.2815
   87MOL0     C11933   3.960   4.187   7.425  0.6707  0.0457  0.4391
   87MOL0     C11934   4.366   4.018   8.084  0.0345  0.2552  0.9834
   87MOL0     C11935   4.457   3.977   8.185 -0.1485  0.1288  0.6054
   87MOL0     C11936   4.592   3.925   8.128  0.6678 -0.2484 -0.0541
   87MOL0     H11937   4.548   4.188   8.626 -4.0008 -0.6272  0.2131
   87MOL0     H11938   4.711   4.226   8.815  3.2925 -2.1831  0.9940
   87MOL0     H11939   4.583   4.007   9.142 -0.3162  1.0547  0.0522
   87MOL0     H11940   4.600   4.175   9.115 -0.7484 -0.4881 -1.5528
   87MOL0     H11941   4.678   4.143   9.332  1.7911  0.5485  0.7954
   87MOL0     H11942   4.776   3.990   9.299  2.9212 -0.2868 -1.9986
   87MOL0     H11943   4.949   4.124   9.211 -0.8236 -1.9122  0.3131
   87MOL0     H11944   4.845   4.272   9.189  0.3865 -1.3505 -0.5941
   87MOL0     H11945   4.824   4.308   9.423  0.0571 -0.4287  2.4239
   87MOL0     H11946   4.915   4.152   9.451  0.8219  0.0283 -0.8340
   87MOL0     H11947   5.048   4.349   9.288  0.7910 -1.1422  0.3782
   87MOL0     H11948   5.108   4.237   9.414 -0.7362 -1.6187 -0.5340
   87MOL0     H11949   4.975   4.509   9.434  0.1109 -0.9623 -0.8369
   87MOL0     H11950   5.001   4.424   9.578 -0.7610 -0.0149 -0.6045
   87MOL0     H11951   5.205   4.551   9.393 -0.6198 -1.6207  0.5252
   87MOL0     H11952   5.257   4.425   9.518 -1.3725 -4.1345 -3.5822
   87MOL0     H11953   5.114   4.681   9.570  0.9726  1.9458  1.0451
   87MOL0     H11954   5.197   4.568   9.691 -1.1535  0.0917 -0.3231
   87MOL0     H11955   5.284   4.814   9.405  0.4990  0.9595  0.8405
   87MOL0     H11956   5.490   4.968   9.372  0.4265 -0.2926 -2.8231
   87MOL0     H11957   5.595   4.846   9.299  0.7884  1.3818 -0.2732
   87MOL0     H11958   5.617   4.987   9.576 -0.2250 -2.0180  0.2253
   87MOL0     H11959   5.744   4.877   9.520  0.0252 -0.8611 -2.5109
   87MOL0     H11960   5.783   5.025   9.312  0.7781  0.5393  1.0138
   87MOL0     H11961   5.686   5.146   9.381 -0.7247 -0.0824 -0.7383
   87MOL0     H11962   5.947   5.037   9.487 -1.9702 -1.3711 -1.0741
   87MOL0     H11963   5.913   5.202   9.436 -1.3940  0.6172  0.6907
   87MOL0     H11964   5.813   5.180   9.893 -0.7042  0.3302 -1.3797
   87MOL0     H11965   5.984   5.128  10.150 -0.0043 -0.6299 -0.4721
   87MOL0     H11966   5.848   5.225  10.091  0.6479  3.8067 -0.4233
   87MOL0     H11967   5.989   5.307  10.144 -0.5145  0.4302  0.8486
   87MOL0     H11968   6.608   5.381   9.903  0.1600 -2.5426 -3.4553
   87MOL0     H11969   6.820   5.391  10.070  0.2079  1.2507 -0.3675
   87MOL0     H11970   6.947   5.096  10.386  2.7437 -2.8635 -0.4503
   87MOL0     H11971   6.854   5.017  10.260 -5.2730  0.9849  5.4779
   87MOL0     H11972   7.103   4.994  10.225 -0.6799 -1.2899 -3.7034
   87MOL0     H11973   7.031   5.083  10.096  1.7281 -1.0127 -0.1173
   87MOL0     H11974   7.193   5.222  10.311  1.8512  0.9821 -1.7545
   87MOL0     H11975   7.109   5.306  10.182  0.7050  0.8097  0.9428
   87MOL0     H11976   7.258   5.143  10.025 -1.3256  0.8660 -0.3009
   87MOL0     H11977   7.337   5.106  10.177 -1.6595 -0.6476  0.7899
   87MOL0     H11978   7.291   5.400  10.097 -2.1862 -0.6430 -0.2007
   87MOL0     H11979   7.389   5.334  10.228  0.5886  0.4676 -0.5555
   87MOL0     H11980   7.425   5.298   9.930 -0.3781  1.9692  0.1266
   87MOL0     H11981   7.541   5.233  10.056  0.2897 -0.4220 -0.7223
   87MOL0     H11982   7.624   5.439  10.096 -0.6833  0.5712  1.0098
   87MOL0     H11983   7.492   5.535  10.013 -0.3798 -1.0828  0.1498
   87MOL0     H11984   7.535   5.461   9.797 -0.1937 -2.8049 -0.2012
   87MOL0     H11985   7.666   5.363   9.862 -4.0706 -1.1823 -0.3992
   87MOL0     H11986   6.665   5.056  10.270  0.2441 -2.5923 -3.2501
   87MOL0     H11987   6.478   5.045  10.140  1.3968 -0.6635  3.3412
   87MOL0     H11988   6.282   5.180   9.746  0.4782  2.9449  0.0107
   87MOL0     H11989   6.110   5.176   9.574 -0.0725 -0.6876  0.4650
   87MOL0     H11990   4.658   3.830   8.962  1.7775 -1.5321 -2.4473
   87MOL0     H11991   4.505   3.778   8.772 -0.3593 -1.1592  1.1513
   87MOL0     H11992   4.265   4.000   8.458  0.7093 -1.3628  0.5679
   87MOL0     H11993   4.111   4.096   8.278  0.6030  1.0561  1.1906
   87MOL0     H11994   3.985   4.056   8.129  4.6637 -0.3876  0.9293
   87MOL0     H11995   3.994   4.221   8.085 -1.7769  0.5184 -3.4374
   87MOL0     H11996   3.828   4.119   7.944  0.7084 -0.3881  1.0003
   87MOL0     H11997   3.922   3.982   7.903  1.4699 -0.0242  0.4197
   87MOL0     H11998   3.954   4.269   7.787 -1.5410 -0.6633 -0.1657
   87MOL0     H11999   4.085   4.145   7.790  0.2228 -2.6016  2.3822
   87MOL0     H12000   3.795   4.120   7.694  0.0227  1.0082 -1.2612
   87MOL0     H12001   3.923   3.995   7.662  0.6726 -0.7191  3.2050
   87MOL0     H12002   3.955   4.214   7.322  1.3250 -2.7981 -0.4174
   87MOL0     H12003   4.399   4.032   7.982  1.6341  4.1858  1.8573
   87MOL0     H12004   4.665   4.005   8.147 -0.7827  0.4884  3.2109
   87MOL0     H12005   4.632   3.828   8.159 -0.0558 -0.5109  0.0813
   87MOL0     H12006   4.584   3.910   8.020 -1.2059 -2.5629  0.3363
   88MOL0     O12007   9.308   2.088   8.738  0.5643 -0.1143 -0.6055
   88MOL0     C12008   9.195   2.101   8.692  0.2500  0.0624  1.3451
   88MOL0     O12009   9.164   2.169   8.578 -0.1179 -0.0529  0.4368
   88MOL0     C12010   9.266   2.251   8.529 -0.6676 -0.8153  0.9183
   88MOL0     C12011   9.297   2.225   8.391 -0.0934 -0.0760  0.3266
   88MOL0     C12012   9.398   2.299   8.321  0.9238  0.5834  0.5005
   88MOL0     C12013   9.475   2.389   8.393 -0.3408 -0.0741  0.5209
   88MOL0     O12014   9.571   2.465   8.347 -0.3018 -0.2297 -0.3371
   88MOL0     C12015   9.668   2.384   8.281  0.2536 -0.0635  0.0199
   88MOL0     C12016   9.811   2.439   8.278 -1.1445 -1.0649  0.3813
   88MOL0     C12017   9.816   2.579   8.206  0.0853 -0.3472  0.2635
   88MOL0     C12018   9.957   2.635   8.190 -0.4614  0.4993  0.4064
   88MOL0     C12019   9.995   2.726   8.304  0.8469 -1.4948 -0.3776
   88MOL0     C12020  10.058   2.653   8.429 -0.4715  0.1283  0.0682
   88MOL0     C12021  10.102   2.752   8.542 -0.0354  0.5907 -0.4565
   88MOL0     C12022  10.177   2.870   8.497 -0.3190  0.8993  0.0989
   88MOL0     N12023  10.250   2.949   8.596 -0.3918 -0.4368 -0.5042
   88MOL0     C12024  10.384   2.953   8.613 -0.3145 -0.0758 -0.4195
   88MOL0     C12025  10.408   3.059   8.692 -0.0793  0.5914 -0.2373
   88MOL0     C12026  10.541   3.084   8.755  0.3877  1.0201 -0.3151
   88MOL0     C12027  10.603   3.213   8.697  0.3999 -0.0401 -0.6207
   88MOL0     C12028  10.682   3.203   8.570  0.1830  0.4262 -1.2129
   88MOL0     C12029  10.828   3.176   8.597  0.0884 -0.7613  0.1849
   88MOL0     O12030  10.859   3.074   8.696 -0.2518 -0.3381  0.0512
   88MOL0     C12031  10.965   2.984   8.687  0.8103  0.9718 -0.6520
   88MOL0     C12032  10.970   2.894   8.792  0.2016  0.5192 -0.8727
   88MOL0     C12033  11.067   2.793   8.807 -0.2129  0.2752 -0.7299
   88MOL0     C12034  11.056   2.719   8.939  0.4892  0.3482 -0.6055
   88MOL0     C12035  11.172   2.777   8.717 -0.4553 -1.4289 -0.7040
   88MOL0     C12036  11.290   2.675   8.729 -0.1700  0.5351  0.0536
   88MOL0     O12037  11.393   2.694   8.643 -0.3879 -0.3044  0.1328
   88MOL0     C12038  11.504   2.614   8.647 -0.8024 -0.0217 -0.4070
   88MOL0     C12039  11.557   2.547   8.761  0.3276 -0.1037 -0.0242
   88MOL0     C12040  11.679   2.488   8.752 -0.6740  0.4644  0.6373
   88MOL0     C12041  11.756   2.503   8.637 -0.2784 -0.3375 -0.9341
   88MOL0     O12042  11.880   2.438   8.643 -0.4085 -0.3795  0.6273
   88MOL0     C12043  11.984   2.520   8.617  0.1925 -0.0517  0.4594
   88MOL0     C12044  12.116   2.450   8.627 -0.2473 -0.2413 -0.1699
   88MOL0     C12045  12.126   2.364   8.762  0.0480 -0.4243  0.3371
   88MOL0     C12046  12.268   2.351   8.812 -0.5345 -0.1069 -0.7624
   88MOL0     C12047  12.361   2.281   8.714  1.1248  0.1194  0.0641
   88MOL0     C12048  12.506   2.283   8.742  0.1413  0.1763 -0.6273
   88MOL0     C12049  12.564   2.252   8.893  0.1396 -0.2030  0.6407
   88MOL0     C12050  12.510   2.122   8.953  0.2449 -0.2825  1.2114
   88MOL0    Cl12051  12.560   2.108   9.119  0.6530  0.1767 -0.2620
   88MOL0     C12052  11.716   2.570   8.527  0.1955  0.4335  0.1851
   88MOL0     C12053  11.584   2.629   8.537 -0.5446 -0.5391  0.1900
   88MOL0     O12054  11.268   2.581   8.802 -0.9218 -0.1060 -0.2560
   88MOL0     C12055  11.167   2.871   8.603 -0.7710  0.2914  0.5490
   88MOL0     C12056  11.070   2.970   8.596  0.2690 -0.2450  0.7094
   88MOL0     N12057  10.286   3.114   8.731  0.5922  0.4550  0.0047
   88MOL0     N12058  10.193   3.052   8.666 -0.4533  0.0420  0.5418
   88MOL0     C12059   9.438   2.418   8.526 -0.4555 -0.3341  0.0093
   88MOL0     C12060   9.333   2.354   8.594 -0.1339  0.6462  0.2419
   88MOL0     C12061   9.085   2.035   8.759  0.0718 -0.2709 -0.7462
   88MOL0     C12062   9.093   1.902   8.784  0.0315 -0.0961  0.1457
   88MOL0     C12063   8.980   1.832   8.813 -0.5133 -0.6061 -1.3094
   88MOL0     C12064   8.859   1.887   8.831 -0.0744  0.0374  0.2271
   88MOL0     O12065   8.750   1.811   8.852  0.5040 -0.0960  0.3207
   88MOL0     C12066   8.673   1.850   8.968  0.2784 -0.4565 -0.0209
   88MOL0     C12067   8.526   1.862   8.925  0.0432 -0.0623 -0.1328
   88MOL0     C12068   8.511   1.983   8.825 -0.2994  0.4386  0.9558
   88MOL0     C12069   8.464   2.114   8.883 -0.1387 -0.0622  0.4249
   88MOL0     C12070   8.533   2.231   8.811 -0.0098  0.1337  0.4557
   88MOL0     C12071   8.576   2.331   8.750 -0.4063  1.6268 -0.2068
   88MOL0     C12072   8.861   2.027   8.830  1.1018  0.4225 -0.3712
   88MOL0     C12073   8.971   2.112   8.789 -0.2446  0.4867  0.4046
   88MOL0     C12074   8.941   2.264   8.766 -0.4410  0.2906 -0.5180
   88MOL0     H12075   9.242   2.144   8.345  1.2010 -0.9287  0.2388
   88MOL0     H12076   9.406   2.300   8.212 -0.8816 -0.9336  0.3169
   88MOL0     H12077   9.640   2.364   8.178  0.6594 -2.1193  0.2647
   88MOL0     H12078   9.683   2.283   8.320  2.3883  0.5917  1.0468
   88MOL0     H12079   9.840   2.444   8.384 -1.3576 -1.2577  0.4507
   88MOL0     H12080   9.887   2.370   8.240 -1.7107 -1.8646  0.6632
   88MOL0     H12081   9.777   2.567   8.105 -0.3473 -1.9104  0.5948
   88MOL0     H12082   9.753   2.651   8.260 -0.2386  0.3747 -1.0333
   88MOL0     H12083  10.029   2.555   8.174 -1.2904 -0.7401  2.4342
   88MOL0     H12084   9.954   2.700   8.103 -2.0509 -0.7323 -0.5177
   88MOL0     H12085   9.905   2.775   8.342  2.7156  0.7712  1.4309
   88MOL0     H12086  10.067   2.801   8.268 -1.4880  1.0617 -0.0270
   88MOL0     H12087   9.978   2.589   8.468 -1.6777  0.5316 -1.6303
   88MOL0     H12088  10.142   2.589   8.404 -1.6376 -1.2958 -0.3567
   88MOL0     H12089  10.153   2.704   8.626 -0.9601 -0.0625 -0.2565
   88MOL0     H12090  10.013   2.790   8.594  1.3288  0.4316  2.1634
   88MOL0     H12091  10.242   2.835   8.416  0.6747  2.2301  0.2896
   88MOL0     H12092  10.115   2.933   8.433 -1.1609 -1.1828 -1.2377
   88MOL0     H12093  10.455   2.875   8.591 -1.2769 -0.7871 -1.1046
   88MOL0     H12094  10.616   3.006   8.741 -2.0918 -1.2091 -2.1377
   88MOL0     H12095  10.522   3.086   8.863  0.1149  0.2093 -0.3470
   88MOL0     H12096  10.525   3.289   8.685 -0.5915 -0.8724  0.3741
   88MOL0     H12097  10.661   3.266   8.774  0.3264  1.6145 -1.6537
   88MOL0     H12098  10.648   3.124   8.503  1.9277 -1.1490 -0.3536
   88MOL0     H12099  10.690   3.297   8.516  2.7547  1.2777  0.4598
   88MOL0     H12100  10.874   3.145   8.503  1.0598 -0.5819  0.5831
   88MOL0     H12101  10.878   3.271   8.618 -2.2405  0.3428  1.1106
   88MOL0     H12102  10.898   2.906   8.872 -0.7648  0.7590 -1.7566
   88MOL0     H12103  10.980   2.763   9.005  1.2641 -0.1583  0.6546
   88MOL0     H12104  11.150   2.735   8.991 -0.8494  2.9837  1.2164
   88MOL0     H12105  11.044   2.610   8.929 -0.1128  0.4643 -1.2955
   88MOL0     H12106  11.497   2.532   8.851  0.6271  2.0500  0.5941
   88MOL0     H12107  11.718   2.436   8.838 -3.3513 -2.3050  0.3645
   88MOL0     H12108  11.983   2.552   8.512 -1.3438  1.4062  0.8874
   88MOL0     H12109  11.989   2.605   8.686 -3.8641  0.1418  0.7447
   88MOL0     H12110  12.137   2.377   8.548  3.8312  0.5694 -0.0663
   88MOL0     H12111  12.196   2.524   8.623  0.2380 -0.5089  2.7826
   88MOL0     H12112  12.083   2.267   8.733 -0.3436  0.1837 -1.2056
   88MOL0     H12113  12.073   2.414   8.843 -1.5662 -1.7997  0.2060
   88MOL0     H12114  12.267   2.298   8.907 -2.4970 -1.1428 -1.3215
   88MOL0     H12115  12.302   2.453   8.830 -2.1195  0.5393 -1.2591
   88MOL0     H12116  12.326   2.178   8.704 -0.9389  0.9304 -2.1635
   88MOL0     H12117  12.345   2.339   8.622 -1.4236  2.1825  1.6440
   88MOL0     H12118  12.533   2.387   8.723  2.7015 -0.0878  1.1637
   88MOL0     H12119  12.570   2.220   8.679  3.1788 -0.7009  2.9901
   88MOL0     H12120  12.537   2.330   8.965 -0.0986  0.2071  0.1262
   88MOL0     H12121  12.673   2.254   8.895  0.1657  2.9136  1.2072
   88MOL0     H12122  12.547   2.038   8.893 -1.9017 -1.2372  1.1459
   88MOL0     H12123  12.401   2.124   8.945  0.2126 -2.4362  0.4741
   88MOL0     H12124  11.777   2.580   8.438  4.0395 -0.7433  2.4766
   88MOL0     H12125  11.550   2.692   8.455  1.9033  0.8500  0.1504
   88MOL0     H12126  11.252   2.861   8.537  0.8887  4.6137  1.6988
   88MOL0     H12127  11.066   3.035   8.510 -0.7970 -3.7941 -2.1600
   88MOL0     H12128   9.493   2.499   8.573 -0.4785  0.6476 -1.5726
   88MOL0     H12129   9.320   2.378   8.699  2.5223  0.3618  0.6940
   88MOL0     H12130   9.180   1.843   8.758 -0.7886 -1.4803  0.4766
   88MOL0     H12131   8.993   1.726   8.830 -0.1026 -0.0000  4.2623
   88MOL0     H12132   8.682   1.767   9.038 -0.8555 -1.3452 -0.8849
   88MOL0     H12133   8.705   1.936   9.027 -0.7253 -1.7092  2.4866
   88MOL0     H12134   8.464   1.883   9.013  1.1863  2.3060  0.1864
   88MOL0     H12135   8.494   1.767   8.882 -2.9083 -0.3637  2.3888
   88MOL0     H12136   8.602   1.990   8.765 -1.8819 -2.1236 -2.0568
   88MOL0     H12137   8.439   1.956   8.747 -0.1537  2.5709 -0.0015
   88MOL0     H12138   8.479   2.124   8.991 -2.0773  1.3872  0.6105
   88MOL0     H12139   8.356   2.125   8.875 -0.0610  3.4341  2.2963
   88MOL0     H12140   8.614   2.417   8.699  1.1555  3.2696  3.3462
   88MOL0     H12141   8.766   2.077   8.848  0.7826  0.2703 -1.5563
   88MOL0     H12142   8.993   2.326   8.839 -1.6789  1.2755 -0.4546
   88MOL0     H12143   8.966   2.296   8.665  1.6126  1.1453  0.2083
   88MOL0     H12144   8.834   2.279   8.779 -0.2430  1.3566 -0.0344
   89MOL0     O12145   3.073  10.716   8.300 -0.5686  0.0772 -0.4856
   89MOL0     C12146   3.061  10.842   8.297  0.3326  0.0558 -0.8040
   89MOL0     O12147   3.135  10.926   8.230  0.5295 -0.1166 -0.6467
   89MOL0     C12148   3.214  10.880   8.126 -0.0500  0.0634 -0.6810
   89MOL0     C12149   3.151  10.836   8.010  0.0418 -0.0110  0.1626
   89MOL0     C12150   3.222  10.795   7.903 -0.0178  0.5494 -0.0702
   89MOL0     C12151   3.355  10.765   7.923 -0.9940 -1.1078  0.2184
   89MOL0     O12152   3.442  10.716   7.833 -0.2049 -0.6182  0.4405
   89MOL0     C12153   3.464  10.801   7.716  0.0521 -0.0408  0.0900
   89MOL0     C12154   3.603  10.797   7.676  0.1924  0.3926  0.0725
   89MOL0     C12155   3.704  10.843   7.784 -0.3362  0.6441  0.5326
   89MOL0     C12156   3.852  10.866   7.733 -0.0867 -0.3269  0.5262
   89MOL0     C12157   3.858  11.012   7.671 -0.1345 -0.2331 -0.2730
   89MOL0     C12158   3.992  11.047   7.598 -0.3173 -0.7191 -0.1769
   89MOL0     C12159   4.117  11.019   7.681 -0.5371  0.3038  0.5310
   89MOL0     C12160   4.245  11.072   7.618 -0.2826 -0.2434  0.6313
   89MOL0     N12161   4.363  11.073   7.707 -0.7082 -0.1240  0.1179
   89MOL0     C12162   4.468  10.988   7.692  0.4962 -0.5043  0.9846
   89MOL0     C12163   4.561  11.029   7.774 -0.4068 -0.9407 -0.4021
   89MOL0     C12164   4.711  10.981   7.771 -0.3789 -0.4795 -0.3708
   89MOL0     C12165   4.809  11.104   7.753  0.0806 -0.0888 -0.0505
   89MOL0     C12166   4.957  11.058   7.752 -0.2913 -0.1999  0.3380
   89MOL0     C12167   5.041  11.189   7.751 -0.5931  0.0086  0.6133
   89MOL0     O12168   5.176  11.165   7.709 -0.1464  0.7979 -0.1302
   89MOL0     C12169   5.274  11.127   7.805  0.2487  0.6219  0.5598
   89MOL0     C12170   5.250  11.071   7.931  0.4205  0.3709 -0.3389
   89MOL0     C12171   5.349  11.044   8.026 -0.1445 -0.4460 -0.2938
   89MOL0     C12172   5.319  10.967   8.146 -0.7075 -0.7527 -0.7029
   89MOL0     C12173   5.483  11.072   7.990 -0.3852  0.7619 -0.1655
   89MOL0     C12174   5.601  11.057   8.079 -0.5870 -0.3302 -0.0467
   89MOL0     O12175   5.588  11.050   8.221 -1.0551 -0.1896  0.0830
   89MOL0     C12176   5.697  11.011   8.295  0.2648 -0.2522  1.0027
   89MOL0     C12177   5.675  10.919   8.404  0.8268 -0.6537  1.0883
   89MOL0     C12178   5.770  10.882   8.493 -0.6865 -1.2374 -0.2797
   89MOL0     C12179   5.902  10.933   8.478 -0.1727  0.7249  0.6295
   89MOL0     O12180   5.994  10.906   8.579 -0.8120  0.1022 -0.3855
   89MOL0     C12181   5.974  10.791   8.668 -0.4676 -0.7242  0.1678
   89MOL0     C12182   6.098  10.734   8.725 -0.2390 -0.5700 -0.3312
   89MOL0     C12183   6.174  10.643   8.632 -0.0596 -0.0259  0.8483
   89MOL0     C12184   6.314  10.610   8.675 -0.6487  0.3418  0.4393
   89MOL0     C12185   6.380  10.502   8.584 -0.5729 -0.3867  0.5677
   89MOL0     C12186   6.420  10.533   8.438 -0.2985  0.4169 -0.9766
   89MOL0     C12187   6.541  10.618   8.423  0.7171 -0.8964  0.4328
   89MOL0     C12188   6.670  10.540   8.417 -0.0671 -0.3384 -0.3746
   89MOL0    Cl12189   6.813  10.650   8.402 -0.1019 -0.7248  0.3649
   89MOL0     C12190   5.934  11.014   8.371 -0.3405  0.5979  0.4120
   89MOL0     C12191   5.827  11.053   8.286 -0.1598  0.1947 -0.4766
   89MOL0     O12192   5.710  11.059   8.022  0.6532  0.3200 -1.1690
   89MOL0     C12193   5.508  11.130   7.866 -0.4760 -0.3242 -0.9748
   89MOL0     C12194   5.412  11.149   7.771  0.6973 -0.3077  0.4718
   89MOL0     N12195   4.508  11.130   7.853  0.5898 -0.2837  0.0978
   89MOL0     N12196   4.379  11.154   7.818 -0.3448 -0.4276 -0.6338
   89MOL0     C12197   3.421  10.807   8.038 -0.0786 -0.3529  0.4601
   89MOL0     C12198   3.349  10.866   8.145  0.4641 -0.6089 -0.4615
   89MOL0     C12199   2.960  10.906   8.395  0.9014 -0.1741 -0.4086
   89MOL0     C12200   2.920  10.823   8.509 -0.4044  1.2679  0.3874
   89MOL0     C12201   2.811  10.864   8.577  1.0110  0.4350 -0.6701
   89MOL0     C12202   2.747  10.982   8.561  0.1490 -0.0291 -0.3577
   89MOL0     O12203   2.649  11.019   8.644  0.8144 -0.4716 -0.5043
   89MOL0     C12204   2.704  11.126   8.732  0.1282  0.2881  1.0518
   89MOL0     C12205   2.794  11.077   8.848  0.3351  0.5099  0.3281
   89MOL0     C12206   2.801  11.174   8.969  0.0257 -0.6064  0.0704
   89MOL0     C12207   2.904  11.139   9.068  0.6115  0.5511  0.7698
   89MOL0     C12208   2.865  11.005   9.129 -0.1185  0.3432 -0.1177
   89MOL0     C12209   2.836  10.904   9.194  0.1199 -0.5304 -0.2008
   89MOL0     C12210   2.795  11.062   8.462  0.4418  0.5684 -0.6006
   89MOL0     C12211   2.893  11.025   8.376  0.5828 -0.5406  0.4503
   89MOL0     C12212   2.911  11.118   8.256 -0.1339 -0.2006 -0.0773
   89MOL0     H12213   3.046  10.859   7.996  0.5588  0.5433 -4.2457
   89MOL0     H12214   3.170  10.783   7.808 -0.8929 -3.1941  0.7072
   89MOL0     H12215   3.442  10.907   7.733  1.8691  0.0731  2.1370
   89MOL0     H12216   3.411  10.757   7.632  0.8421 -1.5127  0.3222
   89MOL0     H12217   3.632  10.693   7.658 -0.9791 -0.3292  1.9764
   89MOL0     H12218   3.613  10.855   7.584  2.0261 -1.5487 -1.0457
   89MOL0     H12219   3.670  10.933   7.835 -1.5837 -0.1386  1.1517
   89MOL0     H12220   3.700  10.772   7.867 -1.0387  1.4500  1.2014
   89MOL0     H12221   3.926  10.847   7.811 -0.2919 -0.9145  0.5889
   89MOL0     H12222   3.887  10.798   7.655  1.0150  0.6869  0.1115
   89MOL0     H12223   3.846  11.070   7.763 -0.4208 -0.7899  0.0512
   89MOL0     H12224   3.779  11.034   7.599 -0.9854  0.9967  0.9986
   89MOL0     H12225   3.997  10.998   7.500  2.8376 -2.8466  0.8829
   89MOL0     H12226   4.000  11.156   7.589  2.6583 -0.6938  1.4647
   89MOL0     H12227   4.128  10.910   7.689  1.9306 -0.1596 -4.7599
   89MOL0     H12228   4.102  11.056   7.782  3.3800 -0.6993  1.6600
   89MOL0     H12229   4.268  11.004   7.535 -2.8633 -0.1608 -0.2167
   89MOL0     H12230   4.234  11.172   7.575 -0.5996  0.7707  2.9389
   89MOL0     H12231   4.477  10.910   7.617  2.4316  3.0490 -2.8640
   89MOL0     H12232   4.720  10.912   7.687  0.5197 -0.2887 -0.4376
   89MOL0     H12233   4.733  10.928   7.864 -0.7436  1.0543  0.6241
   89MOL0     H12234   4.773  11.162   7.667 -2.3447 -1.0651  0.2308
   89MOL0     H12235   4.790  11.165   7.842  0.4806  2.1073 -1.3791
   89MOL0     H12236   4.981  10.987   7.832  1.9644  0.3024  0.1891
   89MOL0     H12237   4.977  11.011   7.655 -1.9461  1.0305 -0.6497
   89MOL0     H12238   4.998  11.254   7.674  0.7131  0.4760  0.2593
   89MOL0     H12239   5.041  11.244   7.846 -0.0181 -0.4144  0.8596
   89MOL0     H12240   5.146  11.054   7.953 -1.0196  4.0258 -3.2657
   89MOL0     H12241   5.363  11.015   8.234 -1.5056 -0.2750 -0.5537
   89MOL0     H12242   5.349  10.862   8.134 -0.5299 -0.9351  1.0359
   89MOL0     H12243   5.210  10.972   8.161 -0.6712 -1.8873  0.1045
   89MOL0     H12244   5.577  10.876   8.421  1.0313 -0.6236  2.4718
   89MOL0     H12245   5.739  10.832   8.585 -3.0943 -0.7349 -0.7628
   89MOL0     H12246   5.911  10.830   8.748  2.3573  2.2289  1.1907
   89MOL0     H12247   5.921  10.710   8.617 -2.0855  0.8952 -0.8598
   89MOL0     H12248   6.156  10.825   8.743  1.6379 -1.8470  0.4183
   89MOL0     H12249   6.076  10.681   8.819  0.0473  1.9300  1.2202
   89MOL0     H12250   6.180  10.685   8.531  2.1522 -0.7895  0.6049
   89MOL0     H12251   6.112  10.553   8.622 -0.3264  0.1351  1.0306
   89MOL0     H12252   6.310  10.564   8.774 -0.5073 -1.7008 -0.4557
   89MOL0     H12253   6.379  10.697   8.676  0.7074 -0.5774 -1.5678
   89MOL0     H12254   6.476  10.466   8.622 -0.2780  1.6183  1.8797
   89MOL0     H12255   6.316  10.415   8.568 -2.7248  1.5265 -2.3164
   89MOL0     H12256   6.338  10.585   8.387  0.7382  2.7983 -0.3785
   89MOL0     H12257   6.432  10.442   8.379  2.0548  1.8919 -2.9567
   89MOL0     H12258   6.548  10.685   8.510  0.4236  0.5828 -0.6422
   89MOL0     H12259   6.531  10.669   8.327  0.2836 -0.5938  0.6355
   89MOL0     H12260   6.665  10.466   8.337 -3.3173  0.6151 -1.1624
   89MOL0     H12261   6.687  10.481   8.508 -0.9731  0.3811  0.2799
   89MOL0     H12262   6.036  11.049   8.361  0.0934 -0.5739  0.5306
   89MOL0     H12263   5.867  11.120   8.210  1.2022  2.9550  2.4385
   89MOL0     H12264   5.607  11.166   7.838 -0.4124  0.9738  0.7702
   89MOL0     H12265   5.444  11.191   7.676  0.4757 -0.4631  0.3298
   89MOL0     H12266   3.526  10.782   8.049  0.1093 -2.8204 -4.3561
   89MOL0     H12267   3.398  10.895   8.238  0.5127  1.4988 -1.0972
   89MOL0     H12268   2.960  10.722   8.514 -1.1448  0.7598 -2.1192
   89MOL0     H12269   2.773  10.805   8.660 -2.9799  1.9645 -1.2039
   89MOL0     H12270   2.749  11.212   8.681  0.8717  0.2409  1.5984
   89MOL0     H12271   2.617  11.169   8.782 -1.8394 -1.1846 -0.9444
   89MOL0     H12272   2.898  11.058   8.818  0.2139  2.0034 -1.2070
   89MOL0     H12273   2.767  10.973   8.866 -1.9812  0.8896 -0.6403
   89MOL0     H12274   2.817  11.274   8.929  1.6098  0.5869  3.3842
   89MOL0     H12275   2.706  11.178   9.023  0.7182  1.7987  1.2358
   89MOL0     H12276   2.914  11.210   9.150 -2.1364  2.1420 -0.1602
   89MOL0     H12277   3.001  11.128   9.017  1.9183  1.0092  3.0177
   89MOL0     H12278   2.817  10.809   9.241 -0.3720 -0.8849 -1.0892
   89MOL0     H12279   2.732  11.147   8.439  0.0266  1.2587  2.6448
   89MOL0     H12280   2.843  11.091   8.174 -1.4076 -3.3629  1.8268
   89MOL0     H12281   2.872  11.213   8.293 -2.7378 -1.8614  1.7648
   89MOL0     H12282   3.016  11.128   8.226  0.1346 -1.1515  0.4939
   90MOL0     O12283  11.264   0.256   5.649  0.0020 -0.0639 -0.4148
   90MOL0     C12284  11.222   0.325   5.557  0.4861  0.3953 -0.5803
   90MOL0     O12285  11.277   0.444   5.518 -0.4399  0.0879  0.4826
   90MOL0     C12286  11.393   0.489   5.576 -0.4222  0.0253  0.2166
   90MOL0     C12287  11.419   0.490   5.711  1.1483 -0.2834  0.6691
   90MOL0     C12288  11.532   0.541   5.765  0.3483  0.0798  0.0234
   90MOL0     C12289  11.631   0.603   5.689 -0.1192 -0.3058 -0.5680
   90MOL0     O12290  11.743   0.659   5.745  0.1565  0.4498  0.3894
   90MOL0     C12291  11.782   0.626   5.878 -0.0596 -0.1890  0.5287
   90MOL0     C12292  11.911   0.695   5.895  0.9995 -0.1705  0.1689
   90MOL0     C12293  12.012   0.645   5.780 -0.3417 -0.2148  0.7835
   90MOL0     C12294  12.162   0.652   5.825 -0.1094 -0.1294 -0.0799
   90MOL0     C12295  12.199   0.622   5.982  0.3356  0.3713 -0.2629
   90MOL0     C12296  12.349   0.615   6.015  0.0880 -0.1216  0.2913
   90MOL0     C12297  12.429   0.508   5.939  0.4301  0.2165 -1.4188
   90MOL0     C12298  12.573   0.500   5.996  0.1779 -1.1422 -0.1806
   90MOL0     N12299  12.665   0.401   5.947 -0.0935 -0.4692  0.7013
   90MOL0     C12300  12.772   0.420   5.863  0.5579 -0.0603  0.0906
   90MOL0     C12301  12.817   0.288   5.851  0.6937 -0.2647 -0.4178
   90MOL0     C12302  12.937   0.235   5.772  0.6936 -0.2606 -0.3968
   90MOL0     C12303  13.056   0.326   5.774 -0.1293  0.0497 -0.1460
   90MOL0     C12304  13.110   0.366   5.913  0.8023  0.7990  0.2914
   90MOL0     C12305  13.159   0.247   5.994 -0.4608 -0.0712  0.1652
   90MOL0     O12306  13.269   0.179   5.927 -0.3056 -0.1540 -0.4052
   90MOL0     C12307  13.321   0.065   5.984  0.3687 -0.3838 -0.5506
   90MOL0     C12308  13.432   0.021   5.925  0.5083 -0.1472  0.0023
   90MOL0     C12309  13.499  -0.088   5.960 -0.6448 -0.2368 -0.3292
   90MOL0     C12310  13.611  -0.135   5.869 -0.2600 -1.2325 -0.2933
   90MOL0     C12311  13.448  -0.173   6.058 -0.1312  0.3090 -0.3816
   90MOL0     C12312  13.517  -0.292   6.115 -0.6409  0.0879 -0.1263
   90MOL0     O12313  13.448  -0.365   6.202 -0.2864  0.7655 -0.2582
   90MOL0     C12314  13.512  -0.458   6.274 -0.9917 -0.1402  0.1830
   90MOL0     C12315  13.522  -0.439   6.412  0.3867  0.9229  1.0187
   90MOL0     C12316  13.587  -0.535   6.488 -0.3844 -0.1389  0.4423
   90MOL0     C12317  13.639  -0.642   6.432  0.0486  0.8464 -0.7404
   90MOL0     O12318  13.702  -0.736   6.522 -0.4873 -0.8533  0.4162
   90MOL0     C12319  13.702  -0.869   6.475 -0.0618  0.1711  0.0835
   90MOL0     C12320  13.730  -0.952   6.596 -1.0100  1.3644 -0.7742
   90MOL0     C12321  13.881  -0.960   6.631  0.7046  0.1474  0.2901
   90MOL0     C12322  13.921  -1.104   6.683 -0.3968  0.7899 -0.4296
   90MOL0     C12323  14.061  -1.119   6.734  0.0972  0.0982  0.9534
   90MOL0     C12324  14.161  -1.080   6.629  1.1326  0.3085  0.1283
   90MOL0     C12325  14.304  -1.073   6.689  0.0771  0.2144 -0.9867
   90MOL0     C12326  14.427  -1.093   6.590 -0.8011  0.6212 -0.9149
   90MOL0    Cl12327  14.418  -1.258   6.529 -0.0075 -0.0055  0.4666
   90MOL0     C12328  13.628  -0.667   6.297  0.8681 -0.4534 -1.0837
   90MOL0     C12329  13.554  -0.577   6.218 -0.8641 -0.2507  0.5379
   90MOL0     O12330  13.637  -0.309   6.086 -0.5732  0.6694  1.1008
   90MOL0     C12331  13.333  -0.129   6.127  0.0960 -0.8869 -0.1943
   90MOL0     C12332  13.269  -0.002   6.099 -0.2383  0.2595 -0.0382
   90MOL0     N12333  12.735   0.209   5.920 -0.1406  1.2628  0.1579
   90MOL0     N12334  12.649   0.282   5.986  0.0142  0.4499  0.7673
   90MOL0     C12335  11.600   0.624   5.556 -0.0573  0.5288  0.1335
   90MOL0     C12336  11.487   0.560   5.492 -0.2300 -0.1864  0.6295
   90MOL0     C12337  11.094   0.281   5.490 -0.0240 -0.0004 -0.2616
   90MOL0     C12338  11.063   0.358   5.374 -0.5997  0.2013 -0.5617
   90MOL0     C12339  10.946   0.326   5.303  0.9524 -0.1716  0.9541
   90MOL0     C12340  10.861   0.226   5.343  0.2315 -0.4757 -0.8033
   90MOL0     O12341  10.752   0.205   5.262  0.3928  0.1456  0.3563
   90MOL0     C12342  10.647   0.115   5.321 -0.0204  0.0241  0.0255
   90MOL0     C12343  10.512   0.123   5.244 -0.5821 -0.9626 -0.5906
   90MOL0     C12344  10.432  -0.006   5.257 -0.2405 -0.0133 -0.3029
   90MOL0     C12345  10.298   0.009   5.188 -0.2979 -0.2222  0.0795
   90MOL0     C12346  10.222  -0.118   5.210  0.5986 -0.3993  0.2779
   90MOL0     C12347  10.197  -0.234   5.211 -0.0448  0.7412  0.4535
   90MOL0     C12348  10.895   0.153   5.454 -0.6923  0.1830 -0.2574
   90MOL0     C12349  11.004   0.178   5.534 -0.7839  0.6999 -0.3262
   90MOL0     C12350  11.017   0.100   5.657 -0.3780 -0.8513 -0.7227
   90MOL0     H12351  11.350   0.448   5.783 -1.2316 -0.0097 -1.3319
   90MOL0     H12352  11.553   0.542   5.871  1.7398  5.1491 -0.0338
   90MOL0     H12353  11.791   0.518   5.896  1.4512  0.0741  1.5222
   90MOL0     H12354  11.704   0.657   5.948 -1.5591 -1.0931 -0.6689
   90MOL0     H12355  11.891   0.801   5.874 -1.9622 -0.8237 -0.7857
   90MOL0     H12356  11.942   0.686   5.999 -0.5739  0.1412  0.6978
   90MOL0     H12357  11.996   0.537   5.773  1.1061 -0.4534  0.8597
   90MOL0     H12358  11.991   0.687   5.682  0.5954  1.2625  1.1793
   90MOL0     H12359  12.223   0.601   5.750 -1.1811  1.4215 -2.1076
   90MOL0     H12360  12.169   0.759   5.804 -1.7544 -0.4656 -3.0065
   90MOL0     H12361  12.151   0.528   6.012  1.7864 -0.8626 -1.6149
   90MOL0     H12362  12.152   0.705   6.036  1.5226  0.4034  0.7679
   90MOL0     H12363  12.404   0.708   6.002  0.7235 -0.6210 -0.6424
   90MOL0     H12364  12.355   0.601   6.124 -1.8735  0.5070  0.5304
   90MOL0     H12365  12.427   0.535   5.833  1.4854  0.5746 -1.3615
   90MOL0     H12366  12.381   0.411   5.954  0.9764 -0.0049 -1.0463
   90MOL0     H12367  12.621   0.599   5.997  0.8847 -1.4659  1.4847
   90MOL0     H12368  12.554   0.482   6.102 -1.2184  1.6440  0.1516
   90MOL0     H12369  12.811   0.503   5.806  0.2941 -0.9629 -1.4608
   90MOL0     H12370  12.896   0.229   5.671 -0.8215  0.0208  0.1721
   90MOL0     H12371  12.964   0.135   5.807  0.6781 -0.2451 -0.3403
   90MOL0     H12372  13.136   0.288   5.710  1.9354  4.0197 -0.2627
   90MOL0     H12373  13.021   0.422   5.734 -0.9671 -0.3434 -0.3747
   90MOL0     H12374  13.184   0.445   5.907  0.5194  1.0171 -0.3306
   90MOL0     H12375  13.028   0.411   5.970 -0.4074 -1.1181  0.1632
   90MOL0     H12376  13.189   0.297   6.087 -6.4640  3.3046  0.7766
   90MOL0     H12377  13.079   0.179   6.025  0.9781  0.2624  5.7545
   90MOL0     H12378  13.476   0.086   5.850 -0.1660  0.1731 -0.1140
   90MOL0     H12379  13.702  -0.130   5.931 -1.7528 -2.6676  2.1439
   90MOL0     H12380  13.628  -0.076   5.779 -0.1480  1.3327  1.2926
   90MOL0     H12381  13.588  -0.238   5.841 -1.0572 -2.0035  2.7556
   90MOL0     H12382  13.485  -0.349   6.459 -1.1123 -0.9560  3.7314
   90MOL0     H12383  13.586  -0.513   6.594 -0.7085  0.1946  0.3725
   90MOL0     H12384  13.599  -0.892   6.447  0.7514 -0.9312 -2.2172
   90MOL0     H12385  13.778  -0.892   6.400  1.0360  1.2850  0.8302
   90MOL0     H12386  13.681  -0.917   6.688  0.2455 -1.0470  0.9193
   90MOL0     H12387  13.698  -1.054   6.575  1.0801  0.1006  1.6116
   90MOL0     H12388  13.915  -0.891   6.709  0.0350  0.6401  0.1546
   90MOL0     H12389  13.938  -0.917   6.548  0.1628  4.2437  1.8006
   90MOL0     H12390  13.901  -1.186   6.614  1.7567 -1.9983  2.0115
   90MOL0     H12391  13.862  -1.126   6.773 -0.0974  3.2620  0.4619
   90MOL0     H12392  14.068  -1.065   6.829  1.3045  0.5897  0.5945
   90MOL0     H12393  14.077  -1.223   6.767  1.7922  0.4059  1.1842
   90MOL0     H12394  14.149  -0.987   6.572  0.2588  0.1166 -0.0035
   90MOL0     H12395  14.171  -1.153   6.548  2.7331  1.6282 -0.9529
   90MOL0     H12396  14.305  -1.147   6.769 -1.8097  0.8135 -0.3631
   90MOL0     H12397  14.310  -0.972   6.732 -0.4829 -0.6974  1.3668
   90MOL0     H12398  14.527  -1.079   6.633 -0.8847 -1.8150  0.2533
   90MOL0     H12399  14.417  -1.022   6.508 -1.8610  2.5778  0.8306
   90MOL0     H12400  13.679  -0.755   6.259  0.3989 -1.5826  0.7547
   90MOL0     H12401  13.535  -0.592   6.112 -1.6328 -0.0033  0.6358
   90MOL0     H12402  13.297  -0.184   6.213  1.1287 -1.4226 -0.0908
   90MOL0     H12403  13.191   0.030   6.167  0.5377  0.3369  0.8532
   90MOL0     H12404  11.662   0.688   5.494 -0.8683  2.2796  1.0548
   90MOL0     H12405  11.467   0.568   5.386  2.5487  0.4340  0.0644
   90MOL0     H12406  11.124   0.443   5.343 -1.7727  1.4693  0.5175
   90MOL0     H12407  10.919   0.382   5.214 -1.9504  0.8486  2.3753
   90MOL0     H12408  10.703   0.022   5.309  2.5907  1.7042 -1.5964
   90MOL0     H12409  10.624   0.132   5.427  1.2037 -2.2819  0.7504
   90MOL0     H12410  10.527   0.139   5.137  0.7138  0.5466 -0.2271
   90MOL0     H12411  10.457   0.212   5.276  1.2405 -0.0693  0.2563
   90MOL0     H12412  10.485  -0.098   5.231 -1.5565 -1.2807  1.3451
   90MOL0     H12413  10.410  -0.032   5.360  1.0289  1.9823  0.5340
   90MOL0     H12414  10.308   0.040   5.083 -2.7009 -1.6613 -0.6742
   90MOL0     H12415  10.238   0.089   5.232  2.8753  2.6814 -0.5229
   90MOL0     H12416  10.171  -0.337   5.199 -1.6432  1.1112  0.4559
   90MOL0     H12417  10.825   0.070   5.462 -1.1202  0.7036  1.9389
   90MOL0     H12418  10.934   0.031   5.673 -0.0452 -0.9105  0.9443
   90MOL0     H12419  11.108   0.041   5.668 -0.3633 -0.8024 -0.5813
   90MOL0     H12420  11.029   0.170   5.740 -1.9725  0.0611 -1.2226
   91MOL0     O12421  10.718   7.946   2.701  0.5835  0.0188 -0.1178
   91MOL0     C12422  10.707   7.829   2.723  0.0409 -0.6712 -0.7222
   91MOL0     O12423  10.748   7.769   2.835  0.1999  0.6441  0.4040
   91MOL0     C12424  10.816   7.830   2.935 -0.5506  0.4069 -0.4072
   91MOL0     C12425  10.904   7.748   3.001  0.7577  0.4057  0.0369
   91MOL0     C12426  10.965   7.792   3.126 -0.6487  0.4675  0.2382
   91MOL0     C12427  10.938   7.918   3.176 -0.3660  0.6927 -0.0000
   91MOL0     O12428  10.989   7.954   3.291  0.7022  0.1069 -0.3365
   91MOL0     C12429  11.109   8.028   3.281  0.0645  0.0893  0.2240
   91MOL0     C12430  11.232   7.941   3.321  0.0195 -0.2379  0.4000
   91MOL0     C12431  11.360   8.041   3.338  0.4055  0.7331 -1.9343
   91MOL0     C12432  11.477   7.963   3.398  0.6301 -0.1767 -0.5627
   91MOL0     C12433  11.619   8.011   3.360  0.1629  0.2067 -0.2168
   91MOL0     C12434  11.726   7.968   3.456 -0.2177 -0.3161  0.4805
   91MOL0     C12435  11.740   7.812   3.468 -0.5521  0.5964 -0.1648
   91MOL0     C12436  11.812   7.750   3.348  0.2169  0.0804  0.3617
   91MOL0     N12437  11.951   7.786   3.337  0.0386 -0.5288  0.2031
   91MOL0     C12438  12.046   7.735   3.427 -0.0253  0.5041 -0.2472
   91MOL0     C12439  12.160   7.807   3.402  0.1772 -0.3130  0.4252
   91MOL0     C12440  12.294   7.787   3.473  0.5440 -0.4951  0.0528
   91MOL0     C12441  12.304   7.834   3.607  0.1660  0.4072  0.0109
   91MOL0     C12442  12.340   7.985   3.606 -0.6812 -0.8294  0.8113
   91MOL0     C12443  12.307   8.060   3.735 -0.0782  0.0690  0.8186
   91MOL0     O12444  12.354   7.979   3.851  0.6723 -0.5519  0.4810
   91MOL0     C12445  12.479   7.988   3.900 -0.3605 -0.1788 -0.0520
   91MOL0     C12446  12.590   8.062   3.864 -0.5733  1.0604 -0.3236
   91MOL0     C12447  12.722   8.038   3.912 -0.5436  1.0437 -0.0151
   91MOL0     C12448  12.841   8.110   3.868  1.0884 -0.2010  0.3458
   91MOL0     C12449  12.740   7.937   4.008 -0.5590 -0.2742  0.3684
   91MOL0     C12450  12.869   7.913   4.075 -1.1245  0.6048 -0.1763
   91MOL0     O12451  12.950   8.022   4.112 -0.0739  0.5650 -0.4753
   91MOL0     C12452  13.071   7.990   4.154 -0.7463  0.5260  0.1268
   91MOL0     C12453  13.096   7.976   4.289 -0.4533  0.7310 -0.7954
   91MOL0     C12454  13.225   7.986   4.336  0.5311  0.3200 -0.1375
   91MOL0     C12455  13.333   7.979   4.249 -0.4057 -0.2871  0.4534
   91MOL0     O12456  13.467   7.972   4.282 -0.3922 -0.0664 -0.3462
   91MOL0     C12457  13.489   7.986   4.426 -0.5057  0.2135  0.1325
   91MOL0     C12458  13.638   7.982   4.450  0.4939 -1.0731 -0.2398
   91MOL0     C12459  13.705   7.847   4.437 -0.4615  0.3545  0.2849
   91MOL0     C12460  13.858   7.847   4.470  0.4355  0.2535 -0.8308
   91MOL0     C12461  13.918   7.710   4.427  0.0959 -0.0585 -0.0366
   91MOL0     C12462  14.060   7.699   4.485 -0.4621 -0.5796 -0.2540
   91MOL0     C12463  14.107   7.552   4.462 -0.8751 -0.7530  0.3132
   91MOL0     C12464  14.253   7.520   4.500 -0.6386 -0.3255 -0.2604
   91MOL0    Cl12465  14.279   7.508   4.677  0.1879 -0.1576  0.2483
   91MOL0     C12466  13.304   7.983   4.111  0.1021 -0.0092 -0.2368
   91MOL0     C12467  13.180   7.989   4.063  0.2930 -0.8507  0.4514
   91MOL0     O12468  12.889   7.792   4.113 -0.4821 -0.5998  0.1097
   91MOL0     C12469  12.623   7.870   4.058 -0.3069  0.0974 -0.1714
   91MOL0     C12470  12.500   7.895   4.002  0.2470 -0.1264  0.5448
   91MOL0     N12471  12.130   7.905   3.310  0.6147  0.4345  0.3257
   91MOL0     N12472  12.005   7.894   3.275 -0.3050  0.0635  0.1175
   91MOL0     C12473  10.851   7.999   3.105 -0.4003  0.5601 -0.1797
   91MOL0     C12474  10.798   7.959   2.985  1.1271 -0.4008  0.7826
   91MOL0     C12475  10.649   7.735   2.622  0.2078 -1.1503 -0.4701
   91MOL0     C12476  10.612   7.601   2.661 -0.9001 -0.4424 -0.0064
   91MOL0     C12477  10.568   7.506   2.574 -0.0136 -0.0506  1.0441
   91MOL0     C12478  10.551   7.541   2.436 -1.0171  0.4252 -0.3562
   91MOL0     O12479  10.515   7.464   2.336  0.2522  0.3423  0.2817
   91MOL0     C12480  10.430   7.351   2.357 -0.8048  0.3770  0.1272
   91MOL0     C12481  10.365   7.300   2.220 -0.1055 -1.1508 -0.4408
   91MOL0     C12482  10.280   7.402   2.153 -0.2508  0.2098  0.9000
   91MOL0     C12483  10.231   7.366   2.015  0.2111 -0.2614 -0.2570
   91MOL0     C12484  10.319   7.335   1.899 -0.0712  0.3243 -0.0867
   91MOL0     C12485  10.389   7.316   1.802  0.3316 -0.5932 -0.5796
   91MOL0     C12486  10.586   7.670   2.401  0.2532 -1.1540 -0.3205
   91MOL0     C12487  10.632   7.765   2.488 -0.5860 -0.5014 -0.0970
   91MOL0     C12488  10.710   7.882   2.425 -0.3280  0.4597  0.2163
   91MOL0     H12489  10.930   7.654   2.955 -1.3319 -0.4400  0.4491
   91MOL0     H12490  11.031   7.721   3.176  0.9749 -0.1411 -2.5401
   91MOL0     H12491  11.110   8.105   3.358  4.7478  0.7927 -0.2714
   91MOL0     H12492  11.108   8.078   3.184 -0.0718 -1.9004 -0.8670
   91MOL0     H12493  11.208   7.889   3.414  3.9236 -1.3569  0.9263
   91MOL0     H12494  11.252   7.866   3.245 -0.5706  0.2492 -0.2457
   91MOL0     H12495  11.386   8.085   3.241 -0.0795  0.9147 -1.9823
   91MOL0     H12496  11.336   8.109   3.419  0.5279 -1.5633  0.1460
   91MOL0     H12497  11.467   7.978   3.506  1.3620 -0.6256 -0.4208
   91MOL0     H12498  11.459   7.856   3.385 -1.5866 -0.0883  1.2008
   91MOL0     H12499  11.616   8.121   3.360 -0.1584  0.1981 -0.3092
   91MOL0     H12500  11.640   7.983   3.257 -0.7883 -0.3068 -0.2782
   91MOL0     H12501  11.825   8.009   3.435  0.2848 -1.9368 -0.5614
   91MOL0     H12502  11.691   7.987   3.558 -1.2840 -2.6071  0.6228
   91MOL0     H12503  11.642   7.766   3.486 -0.5907  0.0314 -1.6351
   91MOL0     H12504  11.804   7.787   3.553 -0.8120  1.5729  0.3404
   91MOL0     H12505  11.819   7.641   3.358  2.1056  0.0890 -0.4168
   91MOL0     H12506  11.761   7.774   3.255 -0.3075  1.1918  0.9160
   91MOL0     H12507  12.029   7.665   3.509 -0.6981 -0.1075 -0.8845
   91MOL0     H12508  12.376   7.827   3.412  2.5339 -1.0805  2.2097
   91MOL0     H12509  12.321   7.681   3.478  1.0926 -0.3241  0.9303
   91MOL0     H12510  12.207   7.812   3.652 -0.5483  1.2938 -1.0272
   91MOL0     H12511  12.376   7.775   3.664  0.3732  0.1400 -0.5199
   91MOL0     H12512  12.444   8.000   3.577 -0.9954  1.0755  0.5474
   91MOL0     H12513  12.278   8.032   3.529  1.5503 -1.4616 -1.4899
   91MOL0     H12514  12.355   8.156   3.759 -0.3151  0.1861  0.8217
   91MOL0     H12515  12.199   8.076   3.729 -0.0093 -0.1254 -1.5498
   91MOL0     H12516  12.585   8.140   3.789 -0.9039  1.2220 -0.1336
   91MOL0     H12517  12.887   8.177   3.940 -1.6980 -0.9273  3.0328
   91MOL0     H12518  12.822   8.181   3.787  1.7470  0.7549  1.0087
   91MOL0     H12519  12.915   8.041   3.824  0.1246  0.3573 -2.3875
   91MOL0     H12520  13.022   7.966   4.368  2.2337  0.0576  1.8392
   91MOL0     H12521  13.238   7.973   4.443 -0.4723 -2.1129 -0.2572
   91MOL0     H12522  13.451   8.079   4.468 -1.0432 -0.7116  1.8132
   91MOL0     H12523  13.445   7.902   4.481 -1.1648  0.6423  0.2757
   91MOL0     H12524  13.687   8.053   4.383 -1.2265 -0.3396 -0.7865
   91MOL0     H12525  13.650   8.016   4.553  0.8586 -0.0112 -0.6192
   91MOL0     H12526  13.693   7.808   4.335  0.2452  0.2366  0.2421
   91MOL0     H12527  13.657   7.774   4.501 -0.9480 -1.3179 -1.8688
   91MOL0     H12528  13.864   7.866   4.577 -0.7125 -2.4529 -0.1981
   91MOL0     H12529  13.901   7.933   4.419  0.3232  2.6035  2.6861
   91MOL0     H12530  13.866   7.620   4.460 -2.9287  1.6529  0.2487
   91MOL0     H12531  13.935   7.712   4.319  0.1183 -0.7037 -0.0466
   91MOL0     H12532  14.061   7.717   4.593  1.3463 -0.2069 -0.3065
   91MOL0     H12533  14.125   7.764   4.427 -0.9612 -0.8583 -1.1442
   91MOL0     H12534  14.101   7.535   4.354 -0.3910  0.7375  0.0219
   91MOL0     H12535  14.030   7.491   4.510 -0.7196 -3.0715 -2.1244
   91MOL0     H12536  14.324   7.595   4.463  1.2570 -1.8138  0.1781
   91MOL0     H12537  14.268   7.425   4.449 -3.4387 -0.1065 -1.6758
   91MOL0     H12538  13.390   7.998   4.045 -0.5076  0.7779 -0.8690
   91MOL0     H12539  13.176   8.005   3.956  2.4705  0.2227  0.4758
   91MOL0     H12540  12.632   7.798   4.138 -2.6576  0.5024  0.5178
   91MOL0     H12541  12.414   7.834   4.028 -0.3273  0.1808 -0.5866
   91MOL0     H12542  10.828   8.095   3.150 -1.0806 -0.7796  2.5122
   91MOL0     H12543  10.732   8.033   2.941  0.0446 -1.2958  0.8779
   91MOL0     H12544  10.622   7.568   2.764  2.9004 -0.2982 -0.2096
   91MOL0     H12545  10.529   7.408   2.601 -3.7599  1.1711  0.6241
   91MOL0     H12546  10.494   7.275   2.403  0.4212  0.4179 -1.4135
   91MOL0     H12547  10.362   7.371   2.440  2.0196 -1.3121  3.0736
   91MOL0     H12548  10.316   7.203   2.233 -2.7806  0.5316  5.6785
   91MOL0     H12549  10.450   7.291   2.152  0.5994 -0.8860  0.3957
   91MOL0     H12550  10.192   7.412   2.219 -2.6508  2.5091 -2.3173
   91MOL0     H12551  10.319   7.504   2.143 -0.9458  0.5515  1.4875
   91MOL0     H12552  10.171   7.445   1.968  0.4083 -0.0459 -0.1520
   91MOL0     H12553  10.164   7.281   2.020 -1.3048  0.7153 -2.3083
   91MOL0     H12554  10.454   7.281   1.724  0.0708  0.9839 -1.5595
   91MOL0     H12555  10.570   7.694   2.296 -0.0618  2.0064  0.3523
   91MOL0     H12556  10.666   7.977   2.458  1.1026  0.9665  0.7828
   91MOL0     H12557  10.813   7.877   2.464 -0.2780 -2.3534 -0.1177
   91MOL0     H12558  10.721   7.876   2.317  0.9642  1.2332  0.2767
   92MOL0     O12559   9.046  10.065   6.330  0.6046 -0.1680  0.7070
   92MOL0     C12560   9.115  10.163   6.298 -0.9847  0.0646 -0.5372
   92MOL0     O12561   9.253  10.179   6.311 -0.0637  0.3510 -0.5672
   92MOL0     C12562   9.312  10.099   6.410  0.0195  0.0448  0.0457
   92MOL0     C12563   9.277  10.095   6.540  0.6011  0.5218 -0.5159
   92MOL0     C12564   9.334  10.001   6.631  0.2978  0.4240  0.3352
   92MOL0     C12565   9.445   9.923   6.586  0.4194 -0.1170  0.1551
   92MOL0     O12566   9.524   9.837   6.657 -0.6375 -0.1282 -0.3674
   92MOL0     C12567   9.487   9.789   6.781 -0.0313 -0.4101 -0.5419
   92MOL0     C12568   9.533   9.641   6.784 -0.0530 -0.4753  0.2397
   92MOL0     C12569   9.680   9.623   6.770 -0.5801 -0.0333 -0.7228
   92MOL0     C12570   9.778   9.706   6.856  0.4906  0.5024 -0.2355
   92MOL0     C12571   9.913   9.648   6.894  0.4411  0.9646 -0.6270
   92MOL0     C12572   9.990   9.596   6.774 -0.1303 -0.5197  0.1733
   92MOL0     C12573  10.137   9.539   6.813  0.2389 -0.4238  0.4872
   92MOL0     C12574  10.205   9.484   6.686  0.3094 -0.0459  0.3111
   92MOL0     N12575  10.353   9.470   6.714 -0.0974  0.5299 -0.0477
   92MOL0     C12576  10.457   9.554   6.668  0.7135  0.2802 -0.5172
   92MOL0     C12577  10.570   9.514   6.736 -0.3386 -0.4618 -0.9256
   92MOL0     C12578  10.707   9.570   6.716 -0.2961  0.1384 -0.0908
   92MOL0     C12579  10.732   9.573   6.563  0.0910 -0.0532 -0.0855
   92MOL0     C12580  10.874   9.643   6.548  0.2772  0.3825  0.0919
   92MOL0     C12581  10.918   9.623   6.403  0.0413  0.1899  0.5479
   92MOL0     O12582  10.805   9.618   6.313  0.5720  0.6328 -0.7928
   92MOL0     C12583  10.818   9.651   6.185 -0.7336 -0.1064 -0.3813
   92MOL0     C12584  10.935   9.681   6.113  0.0567  0.3776 -1.3608
   92MOL0     C12585  10.927   9.721   5.975 -0.4253 -0.4318  0.2435
   92MOL0     C12586  11.057   9.766   5.905  0.1919 -0.3374 -0.6626
   92MOL0     C12587  10.796   9.717   5.912  0.3562 -0.7904  0.8131
   92MOL0     C12588  10.769   9.746   5.761  0.3906  0.5990  0.3768
   92MOL0     O12589  10.639   9.755   5.716 -0.1188 -0.0051 -0.4286
   92MOL0     C12590  10.613   9.760   5.579  0.3995 -0.1465 -0.2926
   92MOL0     C12591  10.686   9.688   5.488  0.0051  0.6557  0.0775
   92MOL0     C12592  10.646   9.695   5.349  0.1483 -0.6125 -0.6432
   92MOL0     C12593  10.538   9.784   5.306 -0.4610  0.5299  0.5783
   92MOL0     O12594  10.497   9.807   5.176 -0.0915 -0.1654 -0.4463
   92MOL0     C12595  10.554   9.726   5.067 -0.4140 -0.0734  0.9071
   92MOL0     C12596  10.584   9.821   4.954 -0.8862  0.5302 -0.7761
   92MOL0     C12597  10.620   9.738   4.829 -0.3089 -0.5783  0.8676
   92MOL0     C12598  10.632   9.812   4.697  0.6262 -1.0644  0.0289
   92MOL0     C12599  10.725   9.742   4.609  0.2030 -0.0117  0.0705
   92MOL0     C12600  10.727   9.801   4.474 -0.9017 -0.0932  0.1234
   92MOL0     C12601  10.614   9.751   4.389  0.8345 -0.1260 -0.0261
   92MOL0     C12602  10.586   9.821   4.255 -0.2025  0.3217 -1.3264
   92MOL0    Cl12603  10.458   9.934   4.285  0.0759  0.3411 -0.4146
   92MOL0     C12604  10.465   9.852   5.403  0.1520 -0.5749 -0.0582
   92MOL0     C12605  10.499   9.834   5.537  0.0159  0.1689  0.8408
   92MOL0     O12606  10.866   9.769   5.687  0.5205  0.0222 -0.0755
   92MOL0     C12607  10.680   9.685   5.986  0.4894 -0.4064  0.0200
   92MOL0     C12608  10.698   9.657   6.121  0.5585 -0.5413  0.3281
   92MOL0     N12609  10.537   9.392   6.801  0.3764 -1.1530 -0.2984
   92MOL0     N12610  10.408   9.378   6.798 -1.2260  0.2293  0.6189
   92MOL0     C12611   9.475   9.923   6.453 -0.3744 -0.5044  0.7913
   92MOL0     C12612   9.420  10.020   6.369  0.1836 -0.7313 -0.3657
   92MOL0     C12613   9.052  10.266   6.218 -0.0370  0.5381  0.1486
   92MOL0     C12614   9.122  10.344   6.129  0.0534  0.5748 -0.1892
   92MOL0     C12615   9.057  10.443   6.052 -0.5175 -0.6535  0.3159
   92MOL0     C12616   8.920  10.470   6.049 -0.4024  0.7259 -0.3814
   92MOL0     O12617   8.882  10.580   5.984  0.2915  0.0788 -0.3940
   92MOL0     C12618   8.766  10.652   6.020 -0.5275  0.4739  0.8828
   92MOL0     C12619   8.768  10.709   6.166  0.4383 -0.2494  0.2398
   92MOL0     C12620   8.860  10.823   6.190 -0.0039 -0.0456 -0.1855
   92MOL0     C12621   9.012  10.785   6.168 -0.0208 -0.3037 -0.0005
   92MOL0     C12622   9.117  10.884   6.197 -0.1504  0.3254 -0.2222
   92MOL0     C12623   9.196  10.970   6.217  0.2600 -0.8644 -0.0860
   92MOL0     C12624   8.846  10.390   6.139  0.9143  0.3802  0.1319
   92MOL0     C12625   8.910  10.292   6.224  0.1565  0.1077  0.3447
   92MOL0     C12626   8.823  10.211   6.328 -0.8968  0.6298 -0.0189
   92MOL0     H12627   9.194  10.163   6.556 -0.1881 -0.2377 -1.3629
   92MOL0     H12628   9.304   9.993   6.735 -1.3916 -0.3794 -0.1812
   92MOL0     H12629   9.379   9.803   6.793 -0.6350  0.0251 -4.8438
   92MOL0     H12630   9.543   9.850   6.853  2.3159 -0.0209 -2.5912
   92MOL0     H12631   9.510   9.611   6.887  0.0133 -2.9598 -0.4089
   92MOL0     H12632   9.493   9.570   6.711  1.9545  0.4611 -1.8904
   92MOL0     H12633   9.709   9.517   6.771 -0.5992 -0.1415  3.0336
   92MOL0     H12634   9.696   9.655   6.667 -1.3645  1.7668 -0.3140
   92MOL0     H12635   9.792   9.803   6.807 -1.6160 -0.4262 -2.9452
   92MOL0     H12636   9.725   9.736   6.947 -0.3509 -1.1775 -0.1329
   92MOL0     H12637   9.902   9.567   6.967 -1.1580  1.3412 -0.4064
   92MOL0     H12638   9.973   9.724   6.945  0.2872  0.1996  0.7408
   92MOL0     H12639   9.927   9.519   6.728  1.3158  0.2912 -3.5015
   92MOL0     H12640  10.020   9.676   6.705  0.9373 -3.1286 -2.6171
   92MOL0     H12641  10.142   9.460   6.889 -4.2130  0.3308  1.8112
   92MOL0     H12642  10.193   9.620   6.860  1.4383 -0.5354 -0.7013
   92MOL0     H12643  10.151   9.394   6.653 -0.1495  1.3478 -3.0922
   92MOL0     H12644  10.189   9.555   6.605 -1.4853  0.9356  1.4578
   92MOL0     H12645  10.444   9.643   6.607  3.3574  0.9693 -0.1979
   92MOL0     H12646  10.795   9.536   6.771  1.6569  0.4121 -2.8444
   92MOL0     H12647  10.697   9.674   6.748  1.8821  0.5057 -0.4427
   92MOL0     H12648  10.747   9.469   6.532  0.2813  0.6116 -2.4241
   92MOL0     H12649  10.658   9.619   6.497 -0.8489 -1.4608 -0.0540
   92MOL0     H12650  10.855   9.750   6.563 -0.4814  0.3682 -0.6798
   92MOL0     H12651  10.949   9.607   6.619  0.5498 -0.6799 -0.7141
   92MOL0     H12652  11.005   9.686   6.381 -0.4540  0.6168 -0.2200
   92MOL0     H12653  10.960   9.522   6.394 -0.5300  0.1151 -2.3339
   92MOL0     H12654  11.032   9.684   6.163 -0.2865  4.2855 -0.6653
   92MOL0     H12655  11.068   9.692   5.825 -2.0118 -0.8839 -0.5261
   92MOL0     H12656  11.153   9.762   5.956 -0.3119 -0.8004  0.2640
   92MOL0     H12657  11.038   9.862   5.857  0.0193 -0.0085  0.0458
   92MOL0     H12658  10.761   9.616   5.519  0.2364  0.7341 -0.2874
   92MOL0     H12659  10.693   9.628   5.278 -0.4567 -0.5900 -1.0824
   92MOL0     H12660  10.641   9.663   5.088  0.2985  0.6277  0.1304
   92MOL0     H12661  10.478   9.658   5.029 -0.2774  0.5925 -0.6171
   92MOL0     H12662  10.500   9.890   4.936  0.6104  2.5166 -0.5340
   92MOL0     H12663  10.670   9.887   4.972 -1.1227  1.7918 -3.6379
   92MOL0     H12664  10.549   9.657   4.808 -0.0739 -0.4608 -0.4608
   92MOL0     H12665  10.714   9.683   4.841 -0.7951 -2.7226 -3.2799
   92MOL0     H12666  10.682   9.907   4.715 -2.0520  0.7879 -1.5169
   92MOL0     H12667  10.535   9.824   4.646  0.8354 -1.9854 -0.6110
   92MOL0     H12668  10.824   9.754   4.655 -1.7483  0.4938  4.7147
   92MOL0     H12669  10.710   9.635   4.597  2.0258 -0.3865  0.6958
   92MOL0     H12670  10.824   9.780   4.426 -1.0435 -0.5275  0.0285
   92MOL0     H12671  10.720   9.910   4.485 -2.2696 -0.0393 -0.9786
   92MOL0     H12672  10.524   9.734   4.449  0.5917 -1.6036 -0.7417
   92MOL0     H12673  10.634   9.649   4.354  0.2728  0.5321 -2.5252
   92MOL0     H12674  10.558   9.748   4.179 -0.6251 -3.1114  1.8094
   92MOL0     H12675  10.667   9.890   4.230 -2.3610  3.2843 -0.7494
   92MOL0     H12676  10.385   9.924   5.388  0.3425  0.3654  2.7697
   92MOL0     H12677  10.453   9.895   5.614  1.5014 -2.0583  3.6883
   92MOL0     H12678  10.583   9.693   5.939  0.4373  0.2315  0.2119
   92MOL0     H12679  10.615   9.645   6.190 -1.5898  0.3982 -1.9454
   92MOL0     H12680   9.560   9.863   6.422 -2.2463 -3.3498  0.7880
   92MOL0     H12681   9.462  10.021   6.269  2.0348 -0.9281  0.3774
   92MOL0     H12682   9.228  10.322   6.126 -0.5488 -2.7521 -2.0320
   92MOL0     H12683   9.120  10.512   5.996 -2.0680  1.0218  0.5206
   92MOL0     H12684   8.774  10.741   5.958 -0.3922  0.1993  0.4979
   92MOL0     H12685   8.676  10.594   5.997 -0.5570  0.5908  0.7041
   92MOL0     H12686   8.792  10.630   6.238 -0.5875 -1.4513 -0.6990
   92MOL0     H12687   8.667  10.741   6.190  0.4243 -1.6413  2.3174
   92MOL0     H12688   8.828  10.901   6.121 -0.2366  1.1162  1.1897
   92MOL0     H12689   8.850  10.859   6.293  2.4932 -3.6101  1.5261
   92MOL0     H12690   9.042  10.766   6.065 -0.2163  1.7543 -0.4785
   92MOL0     H12691   9.030  10.693   6.225  0.6989  0.0619  0.3726
   92MOL0     H12692   9.276  11.041   6.220  0.3371 -0.9902  2.1511
   92MOL0     H12693   8.740  10.412   6.145  0.0356 -2.4863 -2.7149
   92MOL0     H12694   8.726  10.260   6.338 -1.6691  0.1981 -3.8666
   92MOL0     H12695   8.813  10.112   6.282 -1.0413  1.5360 -2.0550
   92MOL0     H12696   8.857  10.198   6.431 -0.7492  2.6280  0.2152
   93MOL0     O12697   0.317   1.161  11.430 -0.2497 -0.0926  0.6429
   93MOL0     C12698   0.359   1.041  11.439  0.6316  0.2824 -0.4787
   93MOL0     O12699   0.482   1.011  11.470 -0.3501 -0.5536  0.2912
   93MOL0     C12700   0.579   1.108  11.490  0.3975  0.6510  0.6521
   93MOL0     C12701   0.678   1.137  11.400  0.2236  0.3955 -0.7469
   93MOL0     C12702   0.779   1.228  11.430 -0.0504 -0.5583 -0.5203
   93MOL0     C12703   0.791   1.286  11.559 -0.1729  0.2525  0.0285
   93MOL0     O12704   0.895   1.376  11.571 -0.0499  0.6011 -0.1435
   93MOL0     C12705   0.875   1.478  11.667 -0.0127  0.3235 -0.2257
   93MOL0     C12706   0.991   1.584  11.671  1.1234  0.3425  0.3407
   93MOL0     C12707   0.959   1.693  11.762 -0.0847  0.1111  0.3031
   93MOL0     C12708   0.844   1.787  11.724 -0.0913  0.7606 -0.1422
   93MOL0     C12709   0.837   1.908  11.822  0.1184  0.8540  1.2255
   93MOL0     C12710   0.711   1.995  11.800  0.6428 -0.3960 -0.3194
   93MOL0     C12711   0.702   2.090  11.678 -1.1770  0.4508  0.1757
   93MOL0     C12712   0.788   2.209  11.685 -0.4281 -1.1185 -0.9522
   93MOL0     N12713   0.817   2.265  11.556  0.2300  0.0783  0.1777
   93MOL0     C12714   0.715   2.301  11.469  0.4883  0.4969  0.5276
   93MOL0     C12715   0.777   2.358  11.365 -0.2738  0.6063  0.8177
   93MOL0     C12716   0.714   2.418  11.250  0.3097  0.0710 -0.8908
   93MOL0     C12717   0.654   2.321  11.155 -0.2243 -0.4552 -0.1632
   93MOL0     C12718   0.718   2.180  11.154  0.7006  0.5271  0.0564
   93MOL0     C12719   0.860   2.179  11.089 -0.2523  0.1601 -0.2385
   93MOL0     O12720   0.894   2.050  11.038 -0.1840 -0.0890  0.1902
   93MOL0     C12721   1.025   2.035  10.994 -1.1219 -0.7307  0.2261
   93MOL0     C12722   1.064   1.905  10.968 -0.1517  0.3900  0.4910
   93MOL0     C12723   1.199   1.869  10.933  0.0767  0.5477  0.2408
   93MOL0     C12724   1.208   1.727  10.892 -0.2020 -0.6604  0.1579
   93MOL0     C12725   1.293   1.969  10.909 -0.2413  0.0793  0.2309
   93MOL0     C12726   1.429   1.948  10.851  0.8126 -0.5414 -0.7951
   93MOL0     O12727   1.492   2.064  10.807 -0.4440  0.0877 -1.1841
   93MOL0     C12728   1.625   2.046  10.780  0.1898 -0.3606 -0.1024
   93MOL0     C12729   1.718   2.111  10.869 -0.8437  0.0190 -0.3429
   93MOL0     C12730   1.851   2.096  10.855 -0.3916 -0.1866 -0.2533
   93MOL0     C12731   1.905   2.038  10.736  1.3346  0.4178  0.3916
   93MOL0     O12732   2.037   2.013  10.712 -0.4617 -0.1176 -1.2693
   93MOL0     C12733   2.129   2.102  10.761 -0.8407 -0.9162 -0.2460
   93MOL0     C12734   2.138   2.215  10.656  0.4211  0.3007 -0.8526
   93MOL0     C12735   2.143   2.175  10.510  0.5545 -0.4002  0.3262
   93MOL0     C12736   2.273   2.119  10.479 -0.2822  0.2639  0.4259
   93MOL0     C12737   2.300   2.101  10.333 -0.7420  0.1699 -0.3194
   93MOL0     C12738   2.423   2.015  10.301  0.1152 -0.0032  0.1546
   93MOL0     C12739   2.440   1.990  10.151  0.0029  0.0913 -0.0646
   93MOL0     C12740   2.577   1.923  10.100  0.0015 -1.3639 -0.0786
   93MOL0    Cl12741   2.640   2.001   9.951 -0.0434  0.2727  0.3096
   93MOL0     C12742   1.812   1.989  10.642 -0.1992 -0.9086  0.2083
   93MOL0     C12743   1.676   1.991  10.662 -0.8257  0.2979 -0.2241
   93MOL0     O12744   1.477   1.835  10.843  0.1480 -0.2551  0.5381
   93MOL0     C12745   1.252   2.097  10.943  0.4012 -0.2372 -0.9873
   93MOL0     C12746   1.121   2.139  10.982  0.7354  0.5833  0.0426
   93MOL0     N12747   0.917   2.361  11.396  0.1918 -0.4363 -0.6102
   93MOL0     N12748   0.939   2.293  11.503 -0.1845  0.4687  0.4067
   93MOL0     C12749   0.697   1.240  11.656  0.1049 -0.3398  0.1856
   93MOL0     C12750   0.592   1.152  11.617  0.6057 -1.2582  0.1008
   93MOL0     C12751   0.263   0.931  11.422 -0.4212 -0.0994  0.9642
   93MOL0     C12752   0.148   0.963  11.342  0.2358  0.7507  0.0121
   93MOL0     C12753   0.053   0.858  11.312  0.4306  0.1880 -0.5705
   93MOL0     C12754   0.063   0.730  11.369 -0.2704 -0.6927 -0.0671
   93MOL0     O12755  -0.028   0.627  11.341 -0.4197 -0.3119 -0.0127
   93MOL0     C12756  -0.155   0.672  11.285 -0.3035 -0.4101 -0.0991
   93MOL0     C12757  -0.253   0.550  11.264  0.2250 -0.5008  0.3089
   93MOL0     C12758  -0.404   0.587  11.293 -0.3584 -0.4364  0.8566
   93MOL0     C12759  -0.470   0.710  11.224 -0.2836  0.1553  0.0540
   93MOL0     C12760  -0.439   0.714  11.082 -0.6175 -0.1237  0.5003
   93MOL0     C12761  -0.387   0.701  10.974 -0.5035 -0.9453  0.0044
   93MOL0     C12762   0.173   0.700  11.450 -0.2609  0.4831 -0.1786
   93MOL0     C12763   0.268   0.800  11.478 -0.5740 -0.1729  0.2207
   93MOL0     C12764   0.378   0.780  11.584  0.5669 -0.1481  0.0113
   93MOL0     H12765   0.675   1.097  11.299 -0.3878  1.6486 -1.2376
   93MOL0     H12766   0.860   1.253  11.362  2.3056 -3.0371  1.1626
   93MOL0     H12767   0.868   1.431  11.766  1.9423 -1.4437 -0.8650
   93MOL0     H12768   0.781   1.527  11.639 -0.5671 -1.3380 -1.4233
   93MOL0     H12769   1.081   1.533  11.707 -0.5123 -3.4436 -0.3746
   93MOL0     H12770   1.005   1.626  11.571  1.7606  0.7204  0.5834
   93MOL0     H12771   0.946   1.650  11.861 -0.1061 -2.6078 -0.8100
   93MOL0     H12772   1.045   1.760  11.775 -0.0677  0.2340 -0.3914
   93MOL0     H12773   0.848   1.820  11.620 -0.1041  0.0129 -0.3817
   93MOL0     H12774   0.757   1.723  11.741  2.5802 -2.6910  1.9235
   93MOL0     H12775   0.927   1.970  11.820  0.0801  0.9462 -1.3291
   93MOL0     H12776   0.834   1.864  11.922  0.0003 -2.2186 -0.0310
   93MOL0     H12777   0.635   1.917  11.792 -0.2222  0.3774  0.1855
   93MOL0     H12778   0.693   2.046  11.895 -0.4480 -2.4585  0.6383
   93MOL0     H12779   0.599   2.120  11.657 -1.1994 -0.1644 -0.6631
   93MOL0     H12780   0.739   2.030  11.594  0.7857  2.5104 -0.5231
   93MOL0     H12781   0.746   2.287  11.749 -0.5909 -1.2628 -0.8830
   93MOL0     H12782   0.881   2.187  11.740  0.9062  0.0877 -2.6031
   93MOL0     H12783   0.609   2.285  11.489  0.4424  0.8291  0.5590
   93MOL0     H12784   0.783   2.477  11.190 -0.4669  1.2379 -0.6530
   93MOL0     H12785   0.632   2.477  11.292 -0.1187 -0.3437 -1.1288
   93MOL0     H12786   0.549   2.306  11.184 -1.2489  2.0254 -2.2546
   93MOL0     H12787   0.645   2.357  11.053  1.4933 -0.1093 -0.2242
   93MOL0     H12788   0.716   2.136  11.254 -1.1126  0.9600  0.2437
   93MOL0     H12789   0.651   2.116  11.096 -1.1582  2.6648 -0.3093
   93MOL0     H12790   0.853   2.262  11.018 -1.9764 -0.0216 -0.3051
   93MOL0     H12791   0.934   2.210  11.164 -2.2141  1.5325  1.2401
   93MOL0     H12792   0.982   1.836  10.977  0.6756 -0.5857  0.7539
   93MOL0     H12793   1.117   1.668  10.903 -1.3235  0.3961 -2.5698
   93MOL0     H12794   1.289   1.679  10.948 -0.6844  0.6292  2.0609
   93MOL0     H12795   1.237   1.729  10.786  3.3612 -2.3122  0.9484
   93MOL0     H12796   1.685   2.172  10.953  3.6378  1.2227  0.8735
   93MOL0     H12797   1.920   2.119  10.936  0.0730  0.1456 -0.7398
   93MOL0     H12798   2.123   2.144  10.862 -0.2417  2.9343 -1.6314
   93MOL0     H12799   2.226   2.051  10.765  0.4519  1.1644 -2.3190
   93MOL0     H12800   2.058   2.290  10.662  0.2636  0.1576 -1.1502
   93MOL0     H12801   2.228   2.274  10.678  1.1342 -1.1638  0.3222
   93MOL0     H12802   2.128   2.265  10.450 -0.5892 -0.1018  1.0134
   93MOL0     H12803   2.055   2.122  10.472  1.1687 -0.1135 -1.5739
   93MOL0     H12804   2.275   2.015  10.514 -2.3537 -0.6938 -1.9477
   93MOL0     H12805   2.353   2.173  10.530 -0.5736  0.2643  0.8847
   93MOL0     H12806   2.209   2.049  10.300 -0.3952 -1.4734  1.1338
   93MOL0     H12807   2.310   2.194  10.277  0.5427 -1.8584 -3.7330
   93MOL0     H12808   2.413   1.918  10.351 -2.9328 -0.3930 -1.0379
   93MOL0     H12809   2.514   2.064  10.337  1.4588 -2.7118  0.7093
   93MOL0     H12810   2.416   2.086  10.105 -0.8614 -1.2055 -2.5107
   93MOL0     H12811   2.369   1.913  10.120  1.9962 -2.4170  1.2537
   93MOL0     H12812   2.557   1.819  10.074 -2.5887 -0.6188 -1.4481
   93MOL0     H12813   2.655   1.923  10.176  0.0018  1.1747 -0.0095
   93MOL0     H12814   1.845   1.951  10.545 -2.1748  0.8957 -1.2792
   93MOL0     H12815   1.609   1.944  10.590 -0.4890  0.2799 -0.5238
   93MOL0     H12816   1.315   2.182  10.921 -0.9230  0.7743 -1.0054
   93MOL0     H12817   1.097   2.240  11.013 -2.1658  0.2170 -0.6932
   93MOL0     H12818   0.695   1.276  11.758 -3.3925  0.9515 -0.2254
   93MOL0     H12819   0.528   1.121  11.698 -0.6193  2.1160  0.5979
   93MOL0     H12820   0.150   1.060  11.293 -0.1490  2.5009  3.1489
   93MOL0     H12821  -0.023   0.883  11.240 -2.2793 -0.3372  1.9161
   93MOL0     H12822  -0.196   0.735  11.364 -0.6419  0.0593 -0.6453
   93MOL0     H12823  -0.134   0.715  11.186  0.1936  2.0951  1.0244
   93MOL0     H12824  -0.228   0.462  11.324 -0.4603 -1.9620 -1.4736
   93MOL0     H12825  -0.256   0.512  11.162 -1.7698 -2.3457  0.9553
   93MOL0     H12826  -0.461   0.504  11.251  0.6938 -0.1994 -1.1297
   93MOL0     H12827  -0.424   0.592  11.401 -2.7525 -2.2307  0.5706
   93MOL0     H12828  -0.435   0.806  11.261 -0.0274  0.4488 -0.9403
   93MOL0     H12829  -0.579   0.702  11.235 -0.5555  3.9839  1.6813
   93MOL0     H12830  -0.342   0.706  10.877 -0.9323 -1.7768 -0.2522
   93MOL0     H12831   0.188   0.597  11.477 -1.0695 -0.0496 -1.6401
   93MOL0     H12832   0.362   0.679  11.624  1.3205 -1.2029 -2.2339
   93MOL0     H12833   0.482   0.786  11.550  1.3505 -0.2274  2.2248
   93MOL0     H12834   0.368   0.858  11.660 -1.0000  1.9388 -2.1949
   94MOL0     O12835   3.613   1.002   5.292 -0.3952 -0.6784 -0.4358
   94MOL0     C12836   3.505   1.009   5.228  0.7540 -0.2333 -0.0369
   94MOL0     O12837   3.380   1.024   5.287  0.4670  0.4091 -0.6310
   94MOL0     C12838   3.383   1.048   5.421 -0.1743 -0.2618  1.0409
   94MOL0     C12839   3.395   1.183   5.465 -0.1506 -1.2927 -0.3519
   94MOL0     C12840   3.360   1.224   5.593 -0.2743 -0.8153  0.1234
   94MOL0     C12841   3.350   1.124   5.691  0.2796 -0.3607  0.0057
   94MOL0     O12842   3.332   1.179   5.821  0.3005  0.4759  0.5330
   94MOL0     C12843   3.332   1.085   5.930 -0.2423  0.1905 -0.0996
   94MOL0     C12844   3.337   1.146   6.068 -0.0017 -0.2597  0.0664
   94MOL0     C12845   3.364   1.043   6.185 -0.9878 -0.6164 -0.1274
   94MOL0     C12846   3.496   0.979   6.185 -0.0751 -0.1319  0.0466
   94MOL0     C12847   3.530   0.936   6.332  0.6983 -0.3367  0.9437
   94MOL0     C12848   3.682   0.889   6.327 -0.5889  1.0491 -0.9859
   94MOL0     C12849   3.730   0.844   6.465  0.2474  0.7530 -1.1607
   94MOL0     C12850   3.872   0.794   6.462 -0.3553  0.3148 -0.7795
   94MOL0     N12851   3.879   0.690   6.567  0.0201 -0.8244  0.4166
   94MOL0     C12852   3.837   0.564   6.559 -0.0804 -0.2022  0.5412
   94MOL0     C12853   3.904   0.496   6.657 -0.4982  0.2195 -0.4782
   94MOL0     C12854   3.916   0.351   6.677 -0.6538  0.3221  0.5694
   94MOL0     C12855   4.028   0.288   6.584  0.4529  0.1767  0.0268
   94MOL0     C12856   4.155   0.353   6.619  0.2108 -0.1578  0.5699
   94MOL0     C12857   4.278   0.279   6.556 -1.2123 -0.1400  1.0158
   94MOL0     O12858   4.398   0.347   6.611 -0.6095 -0.4740  0.0848
   94MOL0     C12859   4.517   0.289   6.591 -0.0336 -1.2106  0.1326
   94MOL0     C12860   4.542   0.183   6.515  0.1602  0.0992  0.4016
   94MOL0     C12861   4.673   0.132   6.503  0.0547  0.2473  0.5162
   94MOL0     C12862   4.692   0.025   6.395  0.4694 -1.2070 -0.5887
   94MOL0     C12863   4.770   0.176   6.593 -1.0766 -0.1175 -0.0739
   94MOL0     C12864   4.917   0.125   6.592 -0.1101  0.3839 -0.4120
   94MOL0     O12865   5.006   0.212   6.652 -0.4949  0.2606 -0.4457
   94MOL0     C12866   5.139   0.199   6.653 -0.2739  0.3098 -0.3671
   94MOL0     C12867   5.211   0.252   6.768  0.5365  0.4391  0.1767
   94MOL0     C12868   5.349   0.240   6.777  0.0028  0.4109  0.0200
   94MOL0     C12869   5.417   0.185   6.675  0.7433 -0.2580 -0.9723
   94MOL0     O12870   5.549   0.188   6.697  0.1316  0.0994 -0.2282
   94MOL0     C12871   5.610   0.064   6.690  0.7079  0.1117 -0.7243
   94MOL0     C12872   5.743   0.049   6.770  0.1242 -0.3269 -0.2328
   94MOL0     C12873   5.801  -0.091   6.739 -1.3707  0.2431 -0.5314
   94MOL0     C12874   5.910  -0.140   6.839  0.8338  0.3557  0.0579
   94MOL0     C12875   5.972  -0.277   6.794  0.7055  0.1205 -0.0342
   94MOL0     C12876   5.869  -0.389   6.793  0.2489 -0.0512  0.2641
   94MOL0     C12877   5.944  -0.523   6.834  0.0700 -0.1641  0.8848
   94MOL0     C12878   5.851  -0.644   6.837 -0.5105 -0.1323 -0.5977
   94MOL0    Cl12879   5.704  -0.623   6.933 -0.1010 -0.4495 -0.1610
   94MOL0     C12880   5.349   0.139   6.562 -0.1166  0.5280 -0.6476
   94MOL0     C12881   5.204   0.137   6.551 -0.8774 -0.5687 -1.2434
   94MOL0     O12882   4.944   0.014   6.535 -0.7178  0.3452  0.0076
   94MOL0     C12883   4.739   0.267   6.686  0.4169  0.1252 -0.4408
   94MOL0     C12884   4.620   0.331   6.680  0.3345 -0.1990  0.2902
   94MOL0     N12885   3.971   0.589   6.739 -0.4805  0.0665  0.7215
   94MOL0     N12886   3.964   0.703   6.673 -0.7984  0.3379 -0.0376
   94MOL0     C12887   3.358   0.988   5.649 -0.1693  0.1087 -0.5587
   94MOL0     C12888   3.363   0.949   5.517 -0.1584  0.7566  0.3770
   94MOL0     C12889   3.500   0.979   5.079 -0.1269 -0.1736  0.0008
   94MOL0     C12890   3.371   0.957   5.021 -1.1110  0.9588 -1.2325
   94MOL0     C12891   3.357   0.917   4.887 -0.2391 -0.6394  0.7932
   94MOL0     C12892   3.475   0.907   4.815  0.2968 -0.4586  0.7029
   94MOL0     O12893   3.461   0.873   4.686 -0.2310  0.0568  1.2664
   94MOL0     C12894   3.531   0.946   4.585 -0.9384  0.2020  0.4104
   94MOL0     C12895   3.433   1.035   4.516  1.1943  0.3754 -0.5197
   94MOL0     C12896   3.332   0.942   4.435 -0.6369  0.3400 -0.4134
   94MOL0     C12897   3.196   0.993   4.377  0.3167 -0.8612 -0.2897
   94MOL0     C12898   3.214   1.127   4.314  0.1910  0.0657 -0.4478
   94MOL0     C12899   3.232   1.235   4.263 -0.5638 -0.5178  0.0525
   94MOL0     C12900   3.596   0.909   4.863 -0.3814 -0.3343 -0.5676
   94MOL0     C12901   3.620   0.946   5.003 -0.3484  1.0900 -0.1430
   94MOL0     C12902   3.760   0.951   5.055  0.5210  0.1006 -0.3852
   94MOL0     H12903   3.400   1.264   5.393 -1.9034 -1.6083 -0.8759
   94MOL0     H12904   3.354   1.330   5.614  0.5683 -0.7703  0.1617
   94MOL0     H12905   3.402   1.004   5.907 -1.9087 -1.0747 -0.9097
   94MOL0     H12906   3.232   1.044   5.919 -0.1166  0.4848 -3.0688
   94MOL0     H12907   3.403   1.233   6.067 -0.4923  0.1174 -0.2509
   94MOL0     H12908   3.241   1.194   6.089  0.9295  0.5226  2.9803
   94MOL0     H12909   3.356   1.109   6.271 -1.1791  0.7760 -1.1799
   94MOL0     H12910   3.285   0.966   6.182 -1.0100 -0.5733 -2.4180
   94MOL0     H12911   3.492   0.890   6.122 -0.1856  0.0101 -0.1497
   94MOL0     H12912   3.577   1.042   6.147  0.8057 -2.4575 -2.2391
   94MOL0     H12913   3.466   0.851   6.359 -0.1626 -0.7185 -1.9621
   94MOL0     H12914   3.523   1.013   6.409 -1.9477 -0.3113  0.7633
   94MOL0     H12915   3.685   0.801   6.262 -0.7025 -1.0409  1.6712
   94MOL0     H12916   3.749   0.962   6.280 -0.5878 -0.0941 -2.9023
   94MOL0     H12917   3.668   0.757   6.492  3.8344 -1.9453 -0.9271
   94MOL0     H12918   3.718   0.926   6.536  3.9291 -0.7092  1.4603
   94MOL0     H12919   3.908   0.758   6.365  1.1896 -2.1191  0.5928
   94MOL0     H12920   3.938   0.874   6.499  1.0696 -0.8398 -0.7051
   94MOL0     H12921   3.779   0.523   6.476  0.4309  2.0172 -1.0044
   94MOL0     H12922   3.822   0.306   6.643  1.1460 -2.4685 -1.0586
   94MOL0     H12923   3.923   0.317   6.781 -0.7345  1.8946  1.1259
   94MOL0     H12924   4.040   0.182   6.608 -0.2637 -0.4527 -2.1554
   94MOL0     H12925   4.001   0.292   6.478 -0.3641 -0.2450  0.2072
   94MOL0     H12926   4.165   0.451   6.570  0.8087 -0.0224  0.9566
   94MOL0     H12927   4.161   0.367   6.727 -0.9046  2.5277  0.3830
   94MOL0     H12928   4.278   0.173   6.581 -2.4973 -0.7567 -1.3198
   94MOL0     H12929   4.267   0.294   6.449 -0.2662  1.3448  1.1012
   94MOL0     H12930   4.465   0.165   6.441  1.0138  2.8261 -1.3153
   94MOL0     H12931   4.787   0.047   6.345  1.2592 -0.5038  1.1344
   94MOL0     H12932   4.607   0.018   6.327 -1.5605  2.4947  1.2388
   94MOL0     H12933   4.710  -0.072   6.442 -1.4328 -1.1287  0.3865
   94MOL0     H12934   5.143   0.289   6.844 -0.6162  0.6271 -0.9324
   94MOL0     H12935   5.402   0.262   6.869 -2.1262 -0.4899  1.5616
   94MOL0     H12936   5.542  -0.012   6.729  1.6426 -0.4513 -0.1432
   94MOL0     H12937   5.639   0.048   6.586  3.6438  0.5764 -0.0650
   94MOL0     H12938   5.810   0.124   6.727  0.3740 -0.1692  0.4250
   94MOL0     H12939   5.724   0.067   6.876 -3.1231  1.6697 -1.0113
   94MOL0     H12940   5.844  -0.089   6.638  1.5537 -2.2709  0.4595
   94MOL0     H12941   5.709  -0.150   6.741 -2.2390  1.5742 -0.7661
   94MOL0     H12942   5.863  -0.153   6.937  1.5207  0.7450  0.4477
   94MOL0     H12943   5.986  -0.062   6.848 -1.0909  2.5560 -1.4588
   94MOL0     H12944   6.004  -0.262   6.690 -1.4832  0.3483 -0.7187
   94MOL0     H12945   6.057  -0.298   6.860  0.5335  2.4824  1.0534
   94MOL0     H12946   5.818  -0.404   6.697 -0.9239  0.3876  0.7891
   94MOL0     H12947   5.804  -0.376   6.880  2.4175  0.7034  1.8558
   94MOL0     H12948   5.976  -0.502   6.937 -0.8471  0.1801  1.1058
   94MOL0     H12949   6.035  -0.533   6.774 -0.7882  0.3282 -0.5440
   94MOL0     H12950   5.907  -0.720   6.893 -0.1333  1.1411  0.8174
   94MOL0     H12951   5.818  -0.678   6.739 -1.2505 -1.2040  0.0039
   94MOL0     H12952   5.412   0.097   6.484  0.5488 -1.3071  0.8136
   94MOL0     H12953   5.155   0.109   6.459 -0.4665 -1.5299 -1.1856
   94MOL0     H12954   4.820   0.302   6.749  1.9602 -0.1890 -2.1428
   94MOL0     H12955   4.607   0.417   6.745  1.8899  1.0208 -0.9537
   94MOL0     H12956   3.338   0.914   5.726  0.4056  0.1062 -0.4047
   94MOL0     H12957   3.371   0.844   5.491  0.0387  0.1143  2.7509
   94MOL0     H12958   3.283   0.948   5.084 -0.0797 -0.8395  0.0478
   94MOL0     H12959   3.260   0.894   4.846 -0.2188  1.2092 -0.3925
   94MOL0     H12960   3.613   1.004   4.629  0.5170 -1.9275  0.6293
   94MOL0     H12961   3.569   0.880   4.507 -1.6017 -0.1388  0.3619
   94MOL0     H12962   3.479   1.103   4.444 -1.3571 -1.0749 -3.7993
   94MOL0     H12963   3.379   1.087   4.596 -0.4150 -1.3680 -0.4204
   94MOL0     H12964   3.386   0.893   4.354  0.8022 -0.5346  1.0134
   94MOL0     H12965   3.309   0.854   4.496  1.6089  0.3343  0.5128
   94MOL0     H12966   3.120   1.000   4.456 -1.3331  0.5804 -1.9243
   94MOL0     H12967   3.156   0.928   4.299 -0.3335  1.5008 -2.0269
   94MOL0     H12968   3.235   1.326   4.206 -0.9724 -1.8688 -2.2549
   94MOL0     H12969   3.685   0.871   4.813  0.4236  0.3529  0.3072
   94MOL0     H12970   3.822   0.935   4.966 -1.3798 -0.5733 -1.6657
   94MOL0     H12971   3.788   1.047   5.099 -0.2468 -0.0816  0.5211
   94MOL0     H12972   3.776   0.872   5.129  0.5123  0.4603 -0.0011
   95MOL0     O12973   7.447   9.341   6.288 -0.1419 -0.0792 -0.3432
   95MOL0     C12974   7.483   9.461   6.289  0.1471  0.3617 -0.5335
   95MOL0     O12975   7.527   9.530   6.180 -0.3010  0.8621  0.7475
   95MOL0     C12976   7.542   9.473   6.052  0.1064  0.2141  0.3768
   95MOL0     C12977   7.665   9.458   5.990  0.3779 -0.5097  0.1313
   95MOL0     C12978   7.677   9.395   5.862 -0.2550  0.7631 -0.2170
   95MOL0     C12979   7.567   9.351   5.794  0.7258 -0.5734 -0.0861
   95MOL0     O12980   7.561   9.272   5.679 -0.1114 -0.2756 -0.2859
   95MOL0     C12981   7.685   9.217   5.633  0.3699 -0.1976  0.7701
   95MOL0     C12982   7.738   9.105   5.729  0.7227  0.7731  0.0863
   95MOL0     C12983   7.644   8.978   5.705  0.1896  0.3088  0.3282
   95MOL0     C12984   7.651   8.865   5.806 -0.4494 -0.0461  0.5290
   95MOL0     C12985   7.541   8.760   5.798 -0.8061  0.3550 -0.2029
   95MOL0     C12986   7.549   8.668   5.668 -0.2633 -0.5413 -0.4583
   95MOL0     C12987   7.428   8.579   5.677 -0.2999 -0.5162 -0.9574
   95MOL0     C12988   7.436   8.478   5.552 -0.5261 -0.3523 -0.9983
   95MOL0     N12989   7.316   8.403   5.510 -0.1276  0.8852 -0.4033
   95MOL0     C12990   7.188   8.454   5.501  0.6430 -0.0492 -0.1739
   95MOL0     C12991   7.106   8.352   5.492  0.0820 -0.3004 -0.3927
   95MOL0     C12992   6.962   8.355   5.515 -1.0423 -0.2340 -0.2695
   95MOL0     C12993   6.885   8.240   5.448  0.2155 -0.5938  0.7975
   95MOL0     C12994   6.734   8.247   5.488 -0.0178  0.0752 -0.1034
   95MOL0     C12995   6.650   8.372   5.465  0.5862  0.2571  0.3129
   95MOL0     O12996   6.517   8.331   5.483 -0.1071  0.2621 -1.0824
   95MOL0     C12997   6.408   8.410   5.434 -0.4146  0.3122 -0.3898
   95MOL0     C12998   6.272   8.375   5.451  1.2093  0.0641  0.2977
   95MOL0     C12999   6.167   8.447   5.389  0.7274 -0.2555 -0.7598
   95MOL0     C13000   6.028   8.378   5.397 -0.5268 -0.6085  0.6460
   95MOL0     C13001   6.197   8.573   5.333  0.4845 -0.4240 -0.2270
   95MOL0     C13002   6.075   8.663   5.287 -1.5253  0.4203  0.1470
   95MOL0     O13003   6.119   8.771   5.220  0.3302  0.1925 -0.3054
   95MOL0     C13004   6.030   8.877   5.223 -0.0044  0.1777 -0.6282
   95MOL0     C13005   5.984   8.945   5.108 -0.4817  0.3689 -0.6636
   95MOL0     C13006   5.893   9.047   5.110 -1.1396 -0.4150  0.6297
   95MOL0     C13007   5.869   9.116   5.227  0.7195  0.4431  0.7508
   95MOL0     O13008   5.802   9.240   5.222  0.4935  0.3238  0.2227
   95MOL0     C13009   5.852   9.353   5.289 -0.0282 -0.0149  0.2614
   95MOL0     C13010   5.749   9.454   5.287  0.7345 -0.2388 -0.7002
   95MOL0     C13011   5.771   9.588   5.367 -0.4731  0.3669  0.6241
   95MOL0     C13012   5.857   9.687   5.284  0.3656 -0.4475 -0.1364
   95MOL0     C13013   5.929   9.795   5.367 -0.0173  0.3203 -0.9990
   95MOL0     C13014   6.057   9.843   5.309 -0.0807  0.0943 -0.7143
   95MOL0     C13015   6.169   9.734   5.294  0.7161  0.2444  0.2688
   95MOL0     C13016   6.292   9.770   5.384 -0.9685  0.5999 -0.2746
   95MOL0    Cl13017   6.395   9.895   5.304 -0.4809  0.3173  0.2255
   95MOL0     C13018   5.918   9.062   5.343  0.7755  0.0939 -1.2176
   95MOL0     C13019   6.002   8.943   5.347 -0.1462 -0.2677  0.2293
   95MOL0     O13020   5.954   8.626   5.291 -1.3765 -0.1458  0.8036
   95MOL0     C13021   6.329   8.612   5.326 -0.2647  0.2273  0.4664
   95MOL0     C13022   6.435   8.529   5.364  0.7103  0.9591  0.5001
   95MOL0     N13023   7.179   8.237   5.507 -0.3487  0.2512  0.2609
   95MOL0     N13024   7.304   8.265   5.516 -0.1862 -0.1967  0.8035
   95MOL0     C13025   7.446   9.367   5.857 -1.0680 -0.9419 -0.1209
   95MOL0     C13026   7.434   9.422   5.982  0.3478 -0.5550 -0.2066
   95MOL0     C13027   7.486   9.537   6.420  0.4957  0.9836 -0.1437
   95MOL0     C13028   7.586   9.631   6.430  0.1244 -0.1401  0.7549
   95MOL0     C13029   7.605   9.714   6.539  0.4106  0.1227 -0.3474
   95MOL0     C13030   7.520   9.705   6.651  0.2606  0.1983 -0.0672
   95MOL0     O13031   7.540   9.787   6.754 -0.0327  0.7666  0.6439
   95MOL0     C13032   7.489   9.755   6.877  0.1483  0.1236  0.1507
   95MOL0     C13033   7.548   9.619   6.931  0.2675 -0.3070  0.6483
   95MOL0     C13034   7.520   9.584   7.073  0.3511 -0.2540  0.2187
   95MOL0     C13035   7.379   9.525   7.091 -0.3980  0.5118  0.2406
   95MOL0     C13036   7.275   9.627   7.097  0.0632 -0.9850 -0.6858
   95MOL0     C13037   7.196   9.722   7.090 -0.6577  0.0384  1.1213
   95MOL0     C13038   7.419   9.615   6.641  0.1161  0.3560  0.7376
   95MOL0     C13039   7.395   9.530   6.527  0.2465 -0.9644 -1.1127
   95MOL0     C13040   7.284   9.449   6.536 -0.9946 -0.4038 -0.2088
   95MOL0     H13041   7.750   9.490   6.050 -0.0555 -1.0451  1.0488
   95MOL0     H13042   7.779   9.381   5.830  0.1344  2.7187  0.0138
   95MOL0     H13043   7.751   9.303   5.619 -1.0511  0.4351 -3.0587
   95MOL0     H13044   7.672   9.170   5.536  1.7915  0.9240 -0.0060
   95MOL0     H13045   7.836   9.068   5.698 -0.9226 -1.0143 -3.6631
   95MOL0     H13046   7.730   9.128   5.836 -3.2849 -0.1396  0.1599
   95MOL0     H13047   7.539   9.005   5.712  0.0840  0.2092 -0.7327
   95MOL0     H13048   7.653   8.956   5.599 -2.5779 -2.4988  0.5260
   95MOL0     H13049   7.740   8.803   5.796  0.2179  0.4746  2.6001
   95MOL0     H13050   7.651   8.901   5.910 -0.6905  1.8837 -0.1001
   95MOL0     H13051   7.442   8.806   5.804 -0.3174  1.5897 -1.0576
   95MOL0     H13052   7.547   8.706   5.893  1.9269 -2.9295 -2.0153
   95MOL0     H13053   7.547   8.729   5.578  0.6147 -0.4854 -0.4443
   95MOL0     H13054   7.647   8.620   5.667  0.1716 -0.2416  4.1695
   95MOL0     H13055   7.335   8.637   5.667 -1.5816 -1.6503  2.7164
   95MOL0     H13056   7.437   8.525   5.772  0.3704 -1.0406 -1.3097
   95MOL0     H13057   7.477   8.525   5.462  0.8785  0.3761 -0.0084
   95MOL0     H13058   7.507   8.411   5.601  0.4816  1.8283  0.6940
   95MOL0     H13059   7.159   8.558   5.497  2.1379  0.4929  1.7896
   95MOL0     H13060   6.920   8.452   5.489  0.0014  0.7160  1.3879
   95MOL0     H13061   6.942   8.335   5.621 -4.0943 -0.8295 -0.8500
   95MOL0     H13062   6.887   8.252   5.339  0.6673 -0.2376  0.8387
   95MOL0     H13063   6.941   8.149   5.469  3.8292  0.7921 -1.6800
   95MOL0     H13064   6.682   8.159   5.449 -1.6032  0.9669 -0.0587
   95MOL0     H13065   6.739   8.232   5.596  2.7772  1.8540  0.1189
   95MOL0     H13066   6.687   8.453   5.529  1.5186  0.8263 -0.9076
   95MOL0     H13067   6.662   8.405   5.362 -1.6694 -4.4360 -1.7267
   95MOL0     H13068   6.256   8.282   5.504  3.5027  0.4850  1.8349
   95MOL0     H13069   6.038   8.277   5.436 -1.0017 -1.5223 -1.4513
   95MOL0     H13070   5.989   8.368   5.295  3.5836 -2.3720 -0.9564
   95MOL0     H13071   5.959   8.431   5.464  0.4834  0.9315  0.5142
   95MOL0     H13072   6.032   8.913   5.016 -0.7873 -0.0755 -0.6675
   95MOL0     H13073   5.870   9.097   5.017 -0.3993 -0.0369  0.6425
   95MOL0     H13074   5.882   9.330   5.391 -0.7204 -2.6509 -0.0438
   95MOL0     H13075   5.947   9.389   5.249 -0.5921  1.4778  0.2114
   95MOL0     H13076   5.739   9.485   5.182  0.6038  2.7915  0.1381
   95MOL0     H13077   5.659   9.402   5.322  0.4923 -1.9574 -3.4972
   95MOL0     H13078   5.816   9.567   5.465 -1.3913 -0.3864  0.9036
   95MOL0     H13079   5.671   9.630   5.383 -0.8714  0.0543 -0.9125
   95MOL0     H13080   5.792   9.740   5.212  0.6541 -0.8404 -0.6910
   95MOL0     H13081   5.929   9.628   5.226  2.6269  1.4796  0.5789
   95MOL0     H13082   5.863   9.882   5.376 -1.7092 -1.0903  1.2018
   95MOL0     H13083   5.941   9.755   5.468 -2.5522 -4.9609 -2.4464
   95MOL0     H13084   6.100   9.926   5.365 -0.9557 -1.3901  2.3702
   95MOL0     H13085   6.035   9.884   5.210  0.5823  2.0961 -0.0705
   95MOL0     H13086   6.207   9.725   5.192 -1.7852 -0.4491 -0.6840
   95MOL0     H13087   6.130   9.636   5.325  2.5726 -0.7394 -0.3206
   95MOL0     H13088   6.349   9.676   5.393 -2.7365 -0.4623  0.4056
   95MOL0     H13089   6.260   9.807   5.482  0.2485 -0.4025  0.5409
   95MOL0     H13090   5.902   9.105   5.442  2.1790 -2.2164  0.1210
   95MOL0     H13091   6.044   8.926   5.445 -0.6714  2.8028  1.1087
   95MOL0     H13092   6.362   8.699   5.270 -3.2551  1.0154 -0.2500
   95MOL0     H13093   6.534   8.564   5.337  1.3455 -0.9481  0.2118
   95MOL0     H13094   7.357   9.328   5.808  0.6671 -3.9835 -1.1789
   95MOL0     H13095   7.340   9.444   6.033  0.9785  2.5165 -0.1604
   95MOL0     H13096   7.641   9.662   6.342  2.6144  1.9443  2.8908
   95MOL0     H13097   7.677   9.795   6.527  3.5025 -2.6467 -2.1975
   95MOL0     H13098   7.513   9.833   6.950 -0.9602 -1.0776  1.8989
   95MOL0     H13099   7.380   9.750   6.879 -0.0838  2.9197  3.2177
   95MOL0     H13100   7.657   9.627   6.929  0.4622 -1.6312 -3.8695
   95MOL0     H13101   7.523   9.535   6.866  1.6881 -0.7932  0.6992
   95MOL0     H13102   7.593   9.508   7.100  2.1019  1.4091  0.3490
   95MOL0     H13103   7.532   9.666   7.145 -1.1939  0.3919 -0.2114
   95MOL0     H13104   7.375   9.467   7.184  0.7798  0.2888  0.1676
   95MOL0     H13105   7.360   9.458   7.007  2.4462 -0.7395  0.4739
   95MOL0     H13106   7.123   9.801   7.086  0.1727  0.7899  0.2099
   95MOL0     H13107   7.346   9.603   6.721 -0.9637 -1.2253 -0.4248
   95MOL0     H13108   7.236   9.433   6.438 -0.3342  0.2166 -0.6411
   95MOL0     H13109   7.318   9.352   6.574  1.6438  0.7464  0.5421
   95MOL0     H13110   7.216   9.501   6.603 -0.3701  0.4149 -0.1964
   96MOL0     O13111   7.878   0.392  10.446 -0.3935 -0.6226  0.1932
   96MOL0     C13112   7.829   0.448  10.347  0.4199  0.3094 -0.7263
   96MOL0     O13113   7.894   0.503  10.243 -0.1176  0.0276  0.0331
   96MOL0     C13114   8.031   0.504  10.230  0.3899 -1.0327 -0.2142
   96MOL0     C13115   8.124   0.405  10.275  0.2327  0.5427 -1.0035
   96MOL0     C13116   8.248   0.397  10.213 -0.1781 -0.5459  0.1585
   96MOL0     C13117   8.295   0.469  10.101 -0.3502  0.5600  0.1526
   96MOL0     O13118   8.418   0.461  10.042 -0.1067 -0.4536  0.1200
   96MOL0     C13119   8.500   0.349  10.088  0.4593 -0.4925  1.6072
   96MOL0     C13120   8.633   0.363  10.010  0.7372 -0.3078 -0.1096
   96MOL0     C13121   8.611   0.338   9.859 -0.0272  0.2283 -0.1558
   96MOL0     C13122   8.744   0.337   9.795  0.3873 -0.8868 -1.2189
   96MOL0     C13123   8.731   0.332   9.646  0.1751 -0.0383 -0.1824
   96MOL0     C13124   8.685   0.196   9.590 -0.5643  0.3235  0.3181
   96MOL0     C13125   8.782   0.074   9.623  0.2111 -0.3342 -0.2524
   96MOL0     C13126   8.721  -0.022   9.729 -0.0960  1.1273  0.4012
   96MOL0     N13127   8.784  -0.156   9.725  0.3345  0.2010  0.0028
   96MOL0     C13128   8.907  -0.188   9.701 -0.3691  0.4501  0.3026
   96MOL0     C13129   8.914  -0.318   9.695 -0.6656  0.5419  0.1859
   96MOL0     C13130   9.024  -0.406   9.632  0.0314 -0.8685 -0.4026
   96MOL0     C13131   9.155  -0.375   9.697  0.1293 -0.6823 -0.6290
   96MOL0     C13132   9.272  -0.471   9.654 -0.7205 -0.0263  0.3863
   96MOL0     C13133   9.301  -0.452   9.512 -0.2040  0.1696 -0.8156
   96MOL0     O13134   9.401  -0.544   9.462 -0.7715  0.3468 -0.0896
   96MOL0     C13135   9.531  -0.529   9.499 -0.5298 -0.4085 -0.5587
   96MOL0     C13136   9.583  -0.414   9.554 -0.1033  0.3766  1.3403
   96MOL0     C13137   9.718  -0.397   9.562 -0.1520  0.8209 -0.2035
   96MOL0     C13138   9.765  -0.271   9.623  0.0090  0.3119 -0.3012
   96MOL0     C13139   9.803  -0.487   9.501  0.1335  0.8675 -0.0947
   96MOL0     C13140   9.955  -0.469   9.477  0.1658 -1.1856 -0.5782
   96MOL0     O13141  10.042  -0.575   9.470 -0.2037 -0.4485 -0.8463
   96MOL0     C13142  10.175  -0.552   9.442 -0.3810  0.3127 -0.0299
   96MOL0     C13143  10.282  -0.628   9.495 -0.2958  1.0924  0.3323
   96MOL0     C13144  10.412  -0.594   9.446 -0.0998  0.1353 -0.5902
   96MOL0     C13145  10.431  -0.504   9.336 -0.8708 -1.0584 -0.3756
   96MOL0     O13146  10.561  -0.474   9.293 -0.6452  0.0451 -0.6979
   96MOL0     C13147  10.679  -0.513   9.378  0.4214 -0.3573  0.4008
   96MOL0     C13148  10.725  -0.637   9.307 -0.8691  0.4022  0.0483
   96MOL0     C13149  10.802  -0.733   9.407  0.7444 -0.2194  0.0990
   96MOL0     C13150  10.901  -0.839   9.356 -0.4730 -0.1824  0.3507
   96MOL0     C13151  10.999  -0.881   9.456  0.5597 -0.2519  0.0725
   96MOL0     C13152  11.101  -0.963   9.374 -0.5526 -0.1561 -1.4770
   96MOL0     C13153  11.196  -1.036   9.465 -0.9038  0.5701  0.0322
   96MOL0     C13154  11.280  -1.131   9.380  0.9240 -0.4354 -0.3701
   96MOL0    Cl13155  11.191  -1.262   9.291  0.1887 -0.0768  0.1902
   96MOL0     C13156  10.326  -0.432   9.284 -0.4157 -0.2322  0.4042
   96MOL0     C13157  10.201  -0.465   9.335  0.7563  0.7730  0.3049
   96MOL0     O13158   9.993  -0.348   9.480  0.1912 -0.3422  0.3719
   96MOL0     C13159   9.756  -0.617   9.458  0.9468  0.0509 -1.0642
   96MOL0     C13160   9.613  -0.633   9.470  0.0147 -0.6399  0.4498
   96MOL0     N13161   8.795  -0.374   9.733 -0.1144 -0.3044  0.6350
   96MOL0     N13162   8.717  -0.270   9.756  0.6619  0.8495  0.2040
   96MOL0     C13163   8.205   0.567  10.064 -0.4776 -0.3057  0.5841
   96MOL0     C13164   8.080   0.591  10.130 -0.5736 -0.4444  0.7617
   96MOL0     C13165   7.685   0.429  10.318  0.0349  0.1099  0.4186
   96MOL0     C13166   7.651   0.385  10.193  0.1593 -0.8788 -0.5106
   96MOL0     C13167   7.520   0.367  10.156 -0.1707 -0.1249 -0.6461
   96MOL0     C13168   7.415   0.395  10.246 -0.0789 -0.7288 -0.4008
   96MOL0     O13169   7.281   0.376  10.233  0.6190 -0.4572  0.3484
   96MOL0     C13170   7.233   0.325  10.111 -0.0295  0.1890  0.8367
   96MOL0     C13171   7.089   0.320  10.138  0.3373 -0.8359 -0.6035
   96MOL0     C13172   7.017   0.258  10.021 -0.0069  0.0983 -0.2588
   96MOL0     C13173   6.868   0.300  10.033 -0.2474 -0.5586  0.3558
   96MOL0     C13174   6.793   0.237  10.142 -0.3232  0.4651 -0.0650
   96MOL0     C13175   6.743   0.197  10.244 -0.2010 -0.5487  0.4398
   96MOL0     C13176   7.447   0.445  10.372  0.1900  0.6715 -0.0324
   96MOL0     C13177   7.585   0.458  10.415 -0.5424  0.3172 -0.1311
   96MOL0     C13178   7.611   0.511  10.553 -0.1557 -0.3281  0.4471
   96MOL0     H13179   8.108   0.335  10.356  1.2081  0.4669 -0.8745
   96MOL0     H13180   8.310   0.320  10.258 -0.7178 -0.9439  0.2293
   96MOL0     H13181   8.451   0.255  10.064 -2.6308  0.5835  3.1999
   96MOL0     H13182   8.521   0.366  10.194  1.8353  0.9036  1.1472
   96MOL0     H13183   8.680   0.461  10.023 -0.9103  0.6447 -1.0598
   96MOL0     H13184   8.699   0.288  10.056 -0.0807 -0.7879  0.2919
   96MOL0     H13185   8.568   0.239   9.840  2.3290 -1.3725  2.0466
   96MOL0     H13186   8.553   0.421   9.819 -0.7104  1.0669  2.3612
   96MOL0     H13187   8.788   0.430   9.833  1.4473 -1.1266 -1.8218
   96MOL0     H13188   8.810   0.260   9.837 -1.3641 -0.9652  1.6699
   96MOL0     H13189   8.823   0.358   9.592 -1.1380  3.5694 -0.9424
   96MOL0     H13190   8.655   0.406   9.620  2.3480  1.6764 -2.1544
   96MOL0     H13191   8.581   0.174   9.615 -0.1486 -1.1680  0.8672
   96MOL0     H13192   8.684   0.212   9.482 -3.0315  0.7045  0.3334
   96MOL0     H13193   8.875   0.116   9.663 -1.2569  2.4995  0.4518
   96MOL0     H13194   8.800   0.002   9.543  0.5444 -0.0283 -0.4561
   96MOL0     H13195   8.732   0.024   9.827 -0.3399  0.7178  0.6241
   96MOL0     H13196   8.617  -0.043   9.706 -0.3061  2.1401  0.4026
   96MOL0     H13197   8.982  -0.124   9.655  0.4265 -0.9755 -0.4665
   96MOL0     H13198   9.029  -0.384   9.525  2.9000  1.5639  0.0841
   96MOL0     H13199   8.999  -0.512   9.641 -0.8060 -0.6813 -0.4399
   96MOL0     H13200   9.168  -0.269   9.673  0.0163  0.1237  2.4810
   96MOL0     H13201   9.140  -0.389   9.804 -1.2967 -2.8909 -1.0445
   96MOL0     H13202   9.350  -0.435   9.720  0.1128 -2.0273  0.5759
   96MOL0     H13203   9.258  -0.573   9.691  0.7434  0.3957  2.2544
   96MOL0     H13204   9.214  -0.480   9.452  2.2985 -1.4416 -3.9768
   96MOL0     H13205   9.320  -0.347   9.488 -0.2592  0.2641 -0.4516
   96MOL0     H13206   9.517  -0.338   9.594 -1.0026 -0.1113  0.8131
   96MOL0     H13207   9.817  -0.231   9.536  0.1795  0.2342 -0.2351
   96MOL0     H13208   9.841  -0.281   9.700  0.7974  1.7395 -0.8526
   96MOL0     H13209   9.683  -0.210   9.662  0.0726  1.4921 -1.8882
   96MOL0     H13210  10.261  -0.696   9.577  0.4597 -2.9926 -2.5630
   96MOL0     H13211  10.497  -0.638   9.498  1.2161  3.4273  0.3165
   96MOL0     H13212  10.754  -0.434   9.384 -2.1101  2.0782  2.1386
   96MOL0     H13213  10.656  -0.532   9.483  1.2470  0.8868  0.8194
   96MOL0     H13214  10.643  -0.701   9.273  0.6067 -2.4729  1.5291
   96MOL0     H13215  10.787  -0.608   9.221  0.3058 -0.3644  0.6091
   96MOL0     H13216  10.723  -0.777   9.468  1.1091 -0.3910  0.4507
   96MOL0     H13217  10.862  -0.672   9.475  0.0380  0.6615 -0.0559
   96MOL0     H13218  10.950  -0.808   9.263  0.2798 -1.7936  0.1817
   96MOL0     H13219  10.837  -0.923   9.329 -0.4879  0.5580 -2.1103
   96MOL0     H13220  11.059  -0.801   9.499 -0.7435  0.9906 -0.3408
   96MOL0     H13221  10.942  -0.939   9.529 -0.4404  0.8217  0.1598
   96MOL0     H13222  11.162  -0.904   9.306  1.2745 -0.0280  0.1739
   96MOL0     H13223  11.040  -1.040   9.326 -1.6496 -1.3917  1.6269
   96MOL0     H13224  11.148  -1.105   9.535  0.0576 -1.3102 -1.0908
   96MOL0     H13225  11.259  -0.964   9.517 -1.9428 -0.5740  3.1197
   96MOL0     H13226  11.343  -1.172   9.459 -1.9915 -0.6849  2.0018
   96MOL0     H13227  11.331  -1.076   9.300  0.0538 -0.8242 -1.2183
   96MOL0     H13228  10.336  -0.369   9.196 -0.3911 -3.2596 -1.9416
   96MOL0     H13229  10.124  -0.420   9.272  0.1013  1.3450  1.4887
   96MOL0     H13230   9.814  -0.694   9.408 -1.2567 -1.0799 -1.9904
   96MOL0     H13231   9.558  -0.715   9.426  2.0039 -0.6354 -2.3439
   96MOL0     H13232   8.247   0.641   9.997  4.7457 -3.1496  0.1782
   96MOL0     H13233   8.004   0.652  10.081 -1.9169 -0.0518  3.1684
   96MOL0     H13234   7.725   0.382  10.113 -1.9839 -0.4768 -2.6157
   96MOL0     H13235   7.491   0.330  10.058  1.0888 -1.8728 -0.3973
   96MOL0     H13236   7.263   0.394  10.031  1.1487  3.1934  3.6267
   96MOL0     H13237   7.261   0.220  10.103  0.5919  0.2899  1.6192
   96MOL0     H13238   7.068   0.424  10.162  2.9292 -0.0778 -1.2884
   96MOL0     H13239   7.080   0.257  10.227  1.0672 -0.5131 -0.2996
   96MOL0     H13240   7.053   0.310   9.932  0.5505  0.1567 -0.0036
   96MOL0     H13241   7.008   0.149  10.009 -0.1038  0.3380 -2.9473
   96MOL0     H13242   6.820   0.272   9.939  1.8471 -0.2268 -0.8958
   96MOL0     H13243   6.854   0.406  10.057  0.4671 -1.1239  3.9126
   96MOL0     H13244   6.689   0.157  10.327 -2.0127 -2.0607 -1.3721
   96MOL0     H13245   7.371   0.451  10.450 -0.3462 -0.2846 -0.4596
   96MOL0     H13246   7.529   0.491  10.623 -1.3101  2.0860 -0.1081
   96MOL0     H13247   7.697   0.459  10.594 -0.1998 -0.8659 -0.1260
   96MOL0     H13248   7.632   0.619  10.550  2.7207 -0.7422 -3.9517
   97MOL0     O13249   8.893   8.840   6.640  1.0481  0.0505  0.0946
   97MOL0     C13250   8.828   8.894   6.545  0.5403 -0.4226 -0.7093
   97MOL0     O13251   8.846   9.021   6.500 -0.1861  1.0406 -0.8529
   97MOL0     C13252   8.925   9.113   6.564 -0.5248  0.4683  0.7976
   97MOL0     C13253   9.007   9.090   6.674  0.8312 -0.2194 -0.3218
   97MOL0     C13254   9.077   9.189   6.728 -0.2239 -0.0785 -0.8200
   97MOL0     C13255   9.066   9.322   6.691  0.5223 -0.7543  0.4821
   97MOL0     O13256   9.137   9.422   6.754 -0.3865 -0.0282 -0.5144
   97MOL0     C13257   9.085   9.552   6.767 -1.2973 -0.5042 -0.2722
   97MOL0     C13258   9.143   9.640   6.882  0.1512  0.5345 -0.2941
   97MOL0     C13259   9.070   9.780   6.877  0.3838 -0.3358 -0.3543
   97MOL0     C13260   9.113   9.860   7.007  1.2349  0.0418 -0.4820
   97MOL0     C13261   9.033   9.991   7.000  0.3453 -0.1930  0.0266
   97MOL0     C13262   9.053  10.086   6.882 -0.5979  1.0032  0.0667
   97MOL0     C13263   8.981  10.214   6.872 -0.0060 -0.3809  0.0522
   97MOL0     C13264   9.013  10.329   6.976  0.5477 -0.0505  0.1877
   97MOL0     N13265   9.162  10.349   6.996 -0.1694  0.7294 -0.1316
   97MOL0     C13266   9.235  10.318   7.111  0.6213  0.0494 -0.3147
   97MOL0     C13267   9.359  10.367   7.072 -0.2041  0.4615  1.1384
   97MOL0     C13268   9.485  10.347   7.154  1.1000 -0.1191 -0.6167
   97MOL0     C13269   9.464  10.420   7.303  0.4007  0.2120  0.5964
   97MOL0     C13270   9.464  10.573   7.310 -0.0280  0.0028 -0.1960
   97MOL0     C13271   9.584  10.644   7.237  0.4933  0.4554  0.5086
   97MOL0     O13272   9.703  10.570   7.268  0.4697  0.1043 -0.7247
   97MOL0     C13273   9.815  10.616   7.207 -0.5091 -0.4409 -0.0501
   97MOL0     C13274   9.818  10.643   7.075  0.0956 -0.3546  0.6347
   97MOL0     C13275   9.936  10.699   7.011  0.2905  1.0633 -0.9857
   97MOL0     C13276   9.922  10.715   6.866 -0.0486  0.1407  0.2249
   97MOL0     C13277  10.051  10.725   7.090 -1.0028  0.1223  0.0508
   97MOL0     C13278  10.165  10.804   7.047  0.3394  0.5748 -0.1846
   97MOL0     O13279  10.272  10.802   7.124  0.1149 -0.0088  0.6586
   97MOL0     C13280  10.381  10.873   7.077  0.7447  0.1898  0.5421
   97MOL0     C13281  10.494  10.806   7.042 -0.6001  0.4837 -0.1289
   97MOL0     C13282  10.613  10.866   6.997  0.0462  0.5478  0.2185
   97MOL0     C13283  10.632  11.006   6.993  0.2163 -0.3551  0.2712
   97MOL0     O13284  10.729  11.075   6.943  0.1273  0.1806 -0.2286
   97MOL0     C13285  10.832  11.000   6.877  0.2537  0.4702 -1.2535
   97MOL0     C13286  10.785  10.939   6.744 -0.0646 -0.2424  0.6494
   97MOL0     C13287  10.769  11.032   6.618  0.1437 -0.0310 -0.3523
   97MOL0     C13288  10.684  11.156   6.652 -0.8011 -0.6636  0.0262
   97MOL0     C13289  10.534  11.133   6.657  0.3135  0.1419 -0.4808
   97MOL0     C13290  10.451  11.263   6.660  0.1530 -0.0476 -0.8264
   97MOL0     C13291  10.300  11.239   6.617 -0.5346 -0.0763  0.4452
   97MOL0     C13292  10.232  11.113   6.685  0.8089  0.1743  0.1300
   97MOL0    Cl13293  10.084  11.075   6.579 -0.0990 -0.3175  0.2871
   97MOL0     C13294  10.512  11.085   7.027  0.0762  0.3774  0.0339
   97MOL0     C13295  10.394  11.012   7.073  0.3333 -0.1639  0.6126
   97MOL0     O13296  10.159  10.872   6.941  0.2612  0.5760  0.3225
   97MOL0     C13297  10.044  10.692   7.227 -0.0507  0.8951  0.7127
   97MOL0     C13298   9.929  10.637   7.286 -0.9366 -0.3248  0.1076
   97MOL0     N13299   9.360  10.397   6.930  0.0614 -0.2038 -0.1193
   97MOL0     N13300   9.238  10.397   6.896 -0.4721 -0.1602  0.1666
   97MOL0     C13301   8.975   9.345   6.584 -0.7465  0.1730 -1.1476
   97MOL0     C13302   8.902   9.245   6.514 -1.6185  0.3235 -0.6084
   97MOL0     C13303   8.724   8.798   6.480  0.6194 -0.9268  0.7127
   97MOL0     C13304   8.631   8.866   6.388  0.0180  0.0595  0.4539
   97MOL0     C13305   8.539   8.805   6.311  0.6647  0.1097 -0.9271
   97MOL0     C13306   8.514   8.673   6.331  0.0458  0.0471 -0.1353
   97MOL0     O13307   8.423   8.596   6.275  0.7915  0.1427  1.1493
   97MOL0     C13308   8.344   8.655   6.172 -0.6587 -0.0117  0.2057
   97MOL0     C13309   8.276   8.546   6.098 -0.0242 -1.1272  0.1893
   97MOL0     C13310   8.194   8.459   6.185  0.1676  0.2502 -0.1470
   97MOL0     C13311   8.266   8.332   6.212  0.4653 -0.4459 -0.3699
   97MOL0     C13312   8.279   8.239   6.101  0.0217 -0.6238  0.3443
   97MOL0     C13313   8.299   8.196   5.989 -0.0427  0.2532  0.7179
   97MOL0     C13314   8.596   8.610   6.421  0.6767  0.5543 -0.1627
   97MOL0     C13315   8.701   8.665   6.488 -0.1003  0.5044 -0.1457
   97MOL0     C13316   8.805   8.562   6.541  0.6332  0.4547  0.1100
   97MOL0     H13317   9.020   8.992   6.718 -1.0564  0.3724  1.7157
   97MOL0     H13318   9.139   9.174   6.816  0.2621 -0.8310 -1.2784
   97MOL0     H13319   8.979   9.540   6.792 -1.2847  0.2778  0.1663
   97MOL0     H13320   9.080   9.603   6.670 -1.2631 -3.0946 -1.7645
   97MOL0     H13321   9.119   9.584   6.973  2.0462  0.7544  0.4000
   97MOL0     H13322   9.252   9.648   6.881  0.4848 -2.6334 -0.0659
   97MOL0     H13323   9.095   9.836   6.786 -2.3576  0.4080 -0.7328
   97MOL0     H13324   8.961   9.767   6.879  0.5003 -1.3596  0.0430
   97MOL0     H13325   9.089   9.803   7.098  0.3522  0.2586 -0.5722
   97MOL0     H13326   9.221   9.875   7.010  1.0473  1.2883  1.6847
   97MOL0     H13327   9.045  10.050   7.091 -2.2360  3.0267 -1.4790
   97MOL0     H13328   8.925   9.978   7.000 -0.0043  1.9819  2.1561
   97MOL0     H13329   9.160  10.104   6.896 -0.7830  0.3367  2.7209
   97MOL0     H13330   9.035  10.027   6.792  0.4905 -0.3981  0.7299
   97MOL0     H13331   8.878  10.181   6.889  0.8579 -2.1972  2.4458
   97MOL0     H13332   8.989  10.265   6.776 -0.2119 -0.0703  0.1964
   97MOL0     H13333   8.965  10.419   6.937 -1.7668 -0.4767  1.8468
   97MOL0     H13334   8.973  10.311   7.076 -2.4891  0.5950 -0.8209
   97MOL0     H13335   9.211  10.280   7.210  1.6072 -1.3936 -0.5923
   97MOL0     H13336   9.577  10.380   7.105  0.0773 -0.6119 -2.9729
   97MOL0     H13337   9.486  10.238   7.160 -0.4708 -0.0760  1.7688
   97MOL0     H13338   9.370  10.384   7.346 -0.4609  4.0528  2.3608
   97MOL0     H13339   9.547  10.380   7.362  0.5591 -0.3621 -0.0028
   97MOL0     H13340   9.363  10.605   7.284 -0.8340  0.3999  3.0849
   97MOL0     H13341   9.467  10.603   7.415 -0.7890  1.2980 -0.5287
   97MOL0     H13342   9.565  10.643   7.129  2.1507  1.4273  0.1582
   97MOL0     H13343   9.588  10.746   7.274 -0.4573 -0.1036  2.2385
   97MOL0     H13344   9.743  10.595   7.013  0.5204  0.5181 -0.5978
   97MOL0     H13345   9.843  10.653   6.821 -1.4131  1.4013  0.7875
   97MOL0     H13346  10.018  10.703   6.815  0.3659  2.4413  0.3902
   97MOL0     H13347   9.890  10.819   6.855  1.9390  1.0799  2.4524
   97MOL0     H13348  10.483  10.698   7.043 -0.1079  0.4144  1.5924
   97MOL0     H13349  10.680  10.786   6.968  2.0279  1.3160  2.3193
   97MOL0     H13350  10.915  11.067   6.848  2.1334 -1.1252  0.1597
   97MOL0     H13351  10.864  10.919   6.942 -3.1231  1.0012  1.3122
   97MOL0     H13352  10.866  10.870   6.720  2.3996  2.6467  0.1339
   97MOL0     H13353  10.690  10.888   6.761 -0.4409 -0.5229 -1.8805
   97MOL0     H13354  10.731  10.971   6.536  2.4464 -1.8811 -0.1431
   97MOL0     H13355  10.863  11.074   6.580 -0.0094  2.1143  1.4851
   97MOL0     H13356  10.698  11.230   6.573  0.4534 -0.0616  0.7778
   97MOL0     H13357  10.724  11.208   6.740  2.0177  1.3586 -2.2342
   97MOL0     H13358  10.508  11.081   6.565 -1.7194  1.2939 -0.6291
   97MOL0     H13359  10.514  11.071   6.745 -0.0587 -0.7183 -1.1647
   97MOL0     H13360  10.491  11.336   6.589 -2.3697  0.2741 -2.0504
   97MOL0     H13361  10.468  11.301   6.761  3.9429 -3.9487  0.3501
   97MOL0     H13362  10.306  11.220   6.509 -1.6396  1.7591  0.0279
   97MOL0     H13363  10.244  11.332   6.626 -0.4960  0.1116 -1.0662
   97MOL0     H13364  10.194  11.129   6.786  0.8098 -4.4887  1.0657
   97MOL0     H13365  10.296  11.025   6.694 -0.4220 -0.7645 -0.1109
   97MOL0     H13366  10.496  11.191   7.016 -3.0886  0.1943  1.8241
   97MOL0     H13367  10.312  11.075   7.104 -0.7786 -1.7602  1.0335
   97MOL0     H13368  10.124  10.707   7.299  1.3991  2.6067 -1.1450
   97MOL0     H13369   9.909  10.610   7.390  1.5082  0.0023  0.7246
   97MOL0     H13370   8.952   9.447   6.555 -4.6601 -0.7561 -1.9167
   97MOL0     H13371   8.834   9.282   6.438 -1.2934 -0.5945 -1.3722
   97MOL0     H13372   8.651   8.970   6.365 -1.0547  1.0397  3.4933
   97MOL0     H13373   8.479   8.878   6.257  0.5255  1.2184  0.6430
   97MOL0     H13374   8.281   8.733   6.218 -0.3372  1.7432 -2.1206
   97MOL0     H13375   8.395   8.712   6.094 -0.2038 -1.8477 -0.8846
   97MOL0     H13376   8.347   8.488   6.039 -0.1643 -0.5284 -0.5788
   97MOL0     H13377   8.212   8.602   6.029 -1.5105  1.5306  3.4319
   97MOL0     H13378   8.164   8.513   6.275 -4.5032 -0.5275 -0.9870
   97MOL0     H13379   8.096   8.443   6.139  0.7719 -0.9200 -1.1009
   97MOL0     H13380   8.215   8.277   6.291 -3.1776  1.7653 -0.9431
   97MOL0     H13381   8.370   8.351   6.244  0.2553 -1.6426  1.1523
   97MOL0     H13382   8.326   8.163   5.891  0.7541  1.6058  0.4447
   97MOL0     H13383   8.572   8.504   6.424 -3.1981  1.2976 -0.4820
   97MOL0     H13384   8.827   8.591   6.644  0.6299  1.5303 -0.1782
   97MOL0     H13385   8.766   8.459   6.535  0.5629  0.5282 -0.8871
   97MOL0     H13386   8.899   8.560   6.486  0.0441  0.2252 -0.9280
   98MOL0     O13387   3.494  10.893   5.631 -0.2066  0.1756  0.4557
   98MOL0     C13388   3.524  10.831   5.528  0.0318 -0.3973 -0.4646
   98MOL0     O13389   3.579  10.703   5.520  0.8950 -0.2447 -0.2173
   98MOL0     C13390   3.589  10.649   5.643 -0.4850 -0.1616  0.3206
   98MOL0     C13391   3.716  10.634   5.692 -0.2169 -0.3743 -0.9281
   98MOL0     C13392   3.740  10.606   5.823 -1.0497 -0.1050 -0.5166
   98MOL0     C13393   3.636  10.568   5.904  0.4238  0.2547 -0.2953
   98MOL0     O13394   3.667  10.550   6.040 -0.3404  0.1176 -0.4733
   98MOL0     C13395   3.656  10.411   6.089 -0.8596  0.2729  0.0084
   98MOL0     C13396   3.763  10.387   6.197  0.3231 -0.5455  0.5262
   98MOL0     C13397   3.908  10.377   6.141 -0.4365 -0.3829 -0.4643
   98MOL0     C13398   4.024  10.368   6.246 -0.4019  0.2666 -0.0837
   98MOL0     C13399   4.156  10.314   6.182  0.5225  0.7250  0.3194
   98MOL0     C13400   4.256  10.318   6.299 -0.1449 -0.0804  0.2129
   98MOL0     C13401   4.378  10.245   6.247 -0.7175 -0.7663 -0.5482
   98MOL0     C13402   4.470  10.224   6.362 -0.7004 -0.2468 -0.5714
   98MOL0     N13403   4.569  10.334   6.357  0.1608  0.8857  0.3817
   98MOL0     C13404   4.704  10.321   6.325  0.4593  0.3878 -0.1892
   98MOL0     C13405   4.757  10.440   6.360 -0.5955 -0.2532 -0.0933
   98MOL0     C13406   4.905  10.481   6.332 -0.5854  0.2798  0.5053
   98MOL0     C13407   5.008  10.369   6.356  0.4187 -0.1058 -0.3889
   98MOL0     C13408   5.153  10.421   6.349 -0.0028  0.0031  0.4544
   98MOL0     C13409   5.255  10.337   6.432 -0.4852  0.4842  0.3382
   98MOL0     O13410   5.232  10.200   6.395  0.1882 -0.0779  0.6346
   98MOL0     C13411   5.272  10.156   6.266  0.3830 -0.5900  0.5489
   98MOL0     C13412   5.188  10.069   6.194 -0.1966 -0.4348 -0.7028
   98MOL0     C13413   5.221  10.016   6.068 -1.0039 -0.4437  0.3045
   98MOL0     C13414   5.111   9.931   5.996 -0.8388  0.7285  0.4364
   98MOL0     C13415   5.339  10.073   5.995 -0.2872 -0.0729 -0.2317
   98MOL0     C13416   5.386  10.030   5.856  0.3267  0.9754  0.0820
   98MOL0     O13417   5.478  10.107   5.796  0.5413  0.0693 -0.0877
   98MOL0     C13418   5.503  10.065   5.664 -0.0041  0.1938 -0.9496
   98MOL0     C13419   5.572   9.949   5.622  0.5506 -0.0706  0.1911
   98MOL0     C13420   5.605   9.930   5.496  0.1135  0.2172  0.7807
   98MOL0     C13421   5.553  10.023   5.395 -0.7183  1.0114  0.0737
   98MOL0     O13422   5.569  10.007   5.260  0.0031  0.4552  0.1427
   98MOL0     C13423   5.467   9.957   5.183 -0.4636  0.0087  1.2295
   98MOL0     C13424   5.499   9.814   5.130  0.2571 -0.4345 -0.2131
   98MOL0     C13425   5.594   9.844   5.021 -0.5187 -0.2609  0.4043
   98MOL0     C13426   5.674   9.724   4.972  0.4938  0.4645  0.4822
   98MOL0     C13427   5.804   9.774   4.902 -0.4661 -0.0813  0.2095
   98MOL0     C13428   5.857   9.686   4.787 -0.4120 -0.0632 -0.4309
   98MOL0     C13429   5.922   9.562   4.819 -0.3280  0.7556 -0.1155
   98MOL0     C13430   6.076   9.566   4.808  0.1207  0.3912 -0.3381
   98MOL0    Cl13431   6.156   9.709   4.855  0.5992 -0.2715 -0.2272
   98MOL0     C13432   5.489  10.137   5.434  0.4510  0.1569 -0.5661
   98MOL0     C13433   5.462  10.158   5.570  0.3012  0.2985  0.0255
   98MOL0     O13434   5.342   9.925   5.809  0.0948 -0.5216  0.2346
   98MOL0     C13435   5.416  10.170   6.068  0.9559 -0.4158  0.5203
   98MOL0     C13436   5.384  10.209   6.202 -0.9437 -0.8702  0.5931
   98MOL0     N13437   4.666  10.525   6.418  0.5811 -0.0959 -1.0580
   98MOL0     N13438   4.554  10.454   6.418 -0.6263 -0.0424 -0.7183
   98MOL0     C13439   3.507  10.564   5.860  0.2358  0.7023  0.5926
   98MOL0     C13440   3.479  10.616   5.726 -0.4164  0.0892  0.1185
   98MOL0     C13441   3.513  10.900   5.397 -0.7152 -1.4051  0.4667
   98MOL0     C13442   3.413  11.013   5.388  0.2722 -0.3594 -0.3795
   98MOL0     C13443   3.408  11.083   5.271 -0.0460 -0.3814 -0.1888
   98MOL0     C13444   3.486  11.053   5.157 -0.5306  0.1709 -0.7633
   98MOL0     O13445   3.468  11.137   5.047  0.5801  0.6601  0.0300
   98MOL0     C13446   3.511  11.095   4.912 -0.0234  0.2770 -0.1364
   98MOL0     C13447   3.434  11.175   4.804 -0.2584 -1.5344  0.3949
   98MOL0     C13448   3.452  11.336   4.823  0.1686  0.5719 -0.0590
   98MOL0     C13449   3.339  11.414   4.739  0.1985  0.1481 -0.0878
   98MOL0     C13450   3.359  11.559   4.744 -0.7812 -1.4969 -0.3304
   98MOL0     C13451   3.365  11.682   4.747 -0.0764  0.6396 -0.6694
   98MOL0     C13452   3.572  10.943   5.158 -0.4346 -0.2770 -0.3160
   98MOL0     C13453   3.589  10.869   5.276  0.3430 -0.9494  0.0486
   98MOL0     C13454   3.689  10.760   5.273  0.0320  0.1637 -0.1808
   98MOL0     H13455   3.800  10.651   5.625 -1.3100 -2.0500 -2.8427
   98MOL0     H13456   3.844  10.601   5.855 -0.4675 -0.6878 -2.3695
   98MOL0     H13457   3.664  10.343   6.004 -1.1276  1.1552 -0.7315
   98MOL0     H13458   3.558  10.400   6.136  0.0899  2.7471  2.9425
   98MOL0     H13459   3.752  10.463   6.275 -3.8164  1.3360 -1.6247
   98MOL0     H13460   3.736  10.292   6.245 -0.9085 -0.4312  0.0874
   98MOL0     H13461   3.923  10.293   6.073 -0.4259 -0.7711  0.0111
   98MOL0     H13462   3.933  10.473   6.094  1.8773  0.2397  1.7507
   98MOL0     H13463   4.044  10.460   6.301  3.2457 -0.2716 -0.2252
   98MOL0     H13464   3.996  10.289   6.316 -1.1673  1.7759  1.3784
   98MOL0     H13465   4.193  10.371   6.096  0.9771 -1.3170 -0.9193
   98MOL0     H13466   4.137  10.211   6.150  2.8104  0.3936 -0.1293
   98MOL0     H13467   4.272  10.421   6.333  1.4353 -0.3644  0.4318
   98MOL0     H13468   4.206  10.256   6.374 -0.1697 -0.1661  0.1253
   98MOL0     H13469   4.438  10.296   6.171 -0.3472 -1.6263 -0.8428
   98MOL0     H13470   4.347  10.144   6.218  0.7624 -1.5564  0.4724
   98MOL0     H13471   4.417  10.216   6.457 -0.4330  0.0138 -0.3986
   98MOL0     H13472   4.530  10.134   6.344  4.6972  3.0643 -1.2939
   98MOL0     H13473   4.748  10.230   6.284  0.0348 -0.2237  0.6707
   98MOL0     H13474   4.922  10.567   6.397 -1.5985  0.6977  0.2430
   98MOL0     H13475   4.915  10.512   6.227  2.3277 -0.9755  0.3219
   98MOL0     H13476   4.979  10.333   6.455  0.3879  1.5739  0.2544
   98MOL0     H13477   5.005  10.278   6.295  2.2654 -0.9043  0.6082
   98MOL0     H13478   5.175  10.434   6.243 -3.1835  1.5461 -0.1425
   98MOL0     H13479   5.154  10.525   6.383 -1.7320  0.4215 -0.6863
   98MOL0     H13480   5.352  10.376   6.401 -0.2389  0.3441  0.9155
   98MOL0     H13481   5.241  10.351   6.540 -1.4494 -2.8616  0.7788
   98MOL0     H13482   5.101  10.029   6.246 -0.7280  0.0155 -1.2414
   98MOL0     H13483   5.147   9.832   5.964 -1.1447  0.8088 -0.1629
   98MOL0     H13484   5.072   9.985   5.910 -0.7289 -0.6721 -0.5229
   98MOL0     H13485   5.016   9.913   6.047 -3.6036  1.6210 -3.8668
   98MOL0     H13486   5.611   9.879   5.695 -0.3862 -1.6313 -0.7539
   98MOL0     H13487   5.656   9.840   5.462 -0.3794  0.6293 -1.1833
   98MOL0     H13488   5.370   9.956   5.234 -1.3268  0.0542 -0.3618
   98MOL0     H13489   5.444  10.021   5.098 -1.7619 -1.3794  0.4792
   98MOL0     H13490   5.537   9.754   5.213 -1.4432 -1.7645 -0.3256
   98MOL0     H13491   5.415   9.754   5.093  1.8797 -1.2366 -2.8896
   98MOL0     H13492   5.665   9.924   5.044  0.5519 -1.1655  0.3169
   98MOL0     H13493   5.532   9.884   4.940 -0.2601  0.8983  0.7607
   98MOL0     H13494   5.598   9.684   4.904  0.2595  2.4467 -0.4822
   98MOL0     H13495   5.695   9.647   5.048 -2.5537 -0.4870  0.5247
   98MOL0     H13496   5.779   9.868   4.853 -1.1906  0.6764  1.9479
   98MOL0     H13497   5.889   9.782   4.970  0.1770 -0.4469 -0.5302
   98MOL0     H13498   5.915   9.755   4.725  0.6307 -1.9303 -1.6298
   98MOL0     H13499   5.774   9.657   4.722 -1.0896 -0.8399  0.7398
   98MOL0     H13500   5.891   9.481   4.753  3.3480 -0.1177 -0.9899
   98MOL0     H13501   5.915   9.539   4.926  1.7829 -0.1552 -0.1355
   98MOL0     H13502   6.104   9.553   4.703 -0.7083  1.1978 -0.6740
   98MOL0     H13503   6.122   9.485   4.865  2.4805  0.6478 -1.7345
   98MOL0     H13504   5.469  10.220   5.367 -0.8051 -0.8622 -1.4936
   98MOL0     H13505   5.432  10.257   5.601 -1.2899  0.4072 -1.6518
   98MOL0     H13506   5.505  10.209   6.019  0.6737 -0.4549 -0.0252
   98MOL0     H13507   5.454  10.281   6.242 -1.3626 -0.0647 -0.0891
   98MOL0     H13508   3.421  10.525   5.913  0.0881 -2.5292 -1.7279
   98MOL0     H13509   3.377  10.633   5.692 -0.1644  1.4103 -0.0524
   98MOL0     H13510   3.355  11.061   5.466  1.2054  0.8824 -0.4135
   98MOL0     H13511   3.353  11.177   5.275  1.4478  0.4905  1.6242
   98MOL0     H13512   3.616  11.128   4.905 -0.8380  3.4447  0.7992
   98MOL0     H13513   3.509  10.987   4.898 -0.2724 -0.0678  2.1652
   98MOL0     H13514   3.329  11.146   4.813 -1.1015  0.0827 -2.8221
   98MOL0     H13515   3.462  11.150   4.702 -0.8143 -1.4418  0.2131
   98MOL0     H13516   3.419  11.364   4.924  0.4596 -0.3038  0.2851
   98MOL0     H13517   3.555  11.366   4.804  1.7238 -1.9489  3.4124
   98MOL0     H13518   3.241  11.391   4.781  1.5581 -0.5884  2.9811
   98MOL0     H13519   3.351  11.388   4.633  1.0839  1.8552 -0.4428
   98MOL0     H13520   3.376  11.788   4.760  1.8623  0.2535  1.5406
   98MOL0     H13521   3.629  10.922   5.068  0.3865 -3.3075  0.7948
   98MOL0     H13522   3.740  10.747   5.177  0.1375 -2.5314  0.1787
   98MOL0     H13523   3.767  10.779   5.348 -0.8689  0.6607  0.6502
   98MOL0     H13524   3.636  10.666   5.292 -0.3991  0.8232  2.3507
   99MOL0     O13525   7.470   2.106   4.880  0.7509  0.2403  0.1893
   99MOL0     C13526   7.444   1.995   4.903  0.5413  0.0850  0.2110
   99MOL0     O13527   7.512   1.911   4.989 -0.0926  0.1456 -0.0645
   99MOL0     C13528   7.610   1.969   5.072  0.5980  0.2002 -0.6704
   99MOL0     C13529   7.617   2.102   5.107  0.4028 -0.5919 -0.3627
   99MOL0     C13530   7.725   2.164   5.162 -0.1814 -0.5657 -0.4600
   99MOL0     C13531   7.848   2.096   5.179 -0.8036 -0.4646  0.0735
   99MOL0     O13532   7.954   2.162   5.235  0.4530 -0.6194 -0.1176
   99MOL0     C13533   8.071   2.085   5.272 -0.3105  0.1060 -1.1640
   99MOL0     C13534   8.158   2.175   5.355 -0.0246 -0.9237  0.4252
   99MOL0     C13535   8.263   2.098   5.443 -0.1534  0.4362  0.3231
   99MOL0     C13536   8.342   2.206   5.518 -0.1223  0.6807  0.2462
   99MOL0     C13537   8.463   2.173   5.601  0.2990 -0.5337  1.1130
   99MOL0     C13538   8.431   2.080   5.708  0.9294 -0.1384  0.9022
   99MOL0     C13539   8.541   2.048   5.805 -0.2297 -0.8037 -0.4893
   99MOL0     C13540   8.487   1.961   5.925  0.4548  0.5712  1.2114
   99MOL0     N13541   8.584   1.952   6.026 -0.0392 -0.6888  0.2264
   99MOL0     C13542   8.597   1.857   6.120  0.9980  0.2507  0.2313
   99MOL0     C13543   8.681   1.903   6.208 -0.4160 -0.2658 -0.3140
   99MOL0     C13544   8.734   1.835   6.330 -0.1048 -0.7313  0.3148
   99MOL0     C13545   8.647   1.856   6.456  0.6034  0.6562 -0.4324
   99MOL0     C13546   8.704   1.788   6.586 -0.6718 -0.0644 -0.0055
   99MOL0     C13547   8.755   1.640   6.579  0.0215 -0.1250 -0.3589
   99MOL0     O13548   8.753   1.566   6.705 -0.6029 -0.2351  0.0760
   99MOL0     C13549   8.854   1.581   6.797  0.9451 -0.1081  0.3244
   99MOL0     C13550   8.973   1.644   6.763  0.2957  0.4744 -0.7045
   99MOL0     C13551   9.082   1.644   6.845 -0.0686 -0.2147  0.4362
   99MOL0     C13552   9.211   1.725   6.804 -0.1448 -0.2237  0.7160
   99MOL0     C13553   9.080   1.573   6.964  0.1396  0.1253  0.9439
   99MOL0     C13554   9.198   1.573   7.048 -0.9664 -0.1221 -0.6138
   99MOL0     O13555   9.263   1.460   7.065  0.5502  0.1726 -0.5705
   99MOL0     C13556   9.380   1.471   7.137 -0.8650 -0.1900 -1.0475
   99MOL0     C13557   9.373   1.437   7.273 -0.2794  0.0623 -0.1026
   99MOL0     C13558   9.487   1.448   7.355 -0.0059 -0.3617 -0.0377
   99MOL0     C13559   9.614   1.492   7.297 -0.3420  0.2678 -0.6754
   99MOL0     O13560   9.728   1.487   7.370  0.2238 -0.0906  0.0040
   99MOL0     C13561   9.729   1.395   7.482 -0.3920 -0.2841 -1.2733
   99MOL0     C13562   9.881   1.371   7.516  0.7808 -0.0838  0.6831
   99MOL0     C13563   9.907   1.272   7.625  0.2075 -0.2074  0.3004
   99MOL0     C13564   9.862   1.132   7.592  0.0467  0.5961 -0.3407
   99MOL0     C13565   9.914   1.027   7.686 -0.3545  0.5006 -0.5624
   99MOL0     C13566   9.850   1.026   7.823  0.2737 -0.5371 -0.5953
   99MOL0     C13567   9.875   0.893   7.886 -0.3689  0.0576 -0.2466
   99MOL0     C13568   9.877   0.913   8.039  0.0544 -0.0208  0.4573
   99MOL0    Cl13569   9.714   0.958   8.109 -0.2777 -0.0258  0.0088
   99MOL0     C13570   9.619   1.522   7.159 -0.2842  0.0204 -0.5427
   99MOL0     C13571   9.505   1.515   7.078 -1.0802  0.2196 -0.3417
   99MOL0     O13572   9.230   1.678   7.102  0.3389  0.1352  0.0883
   99MOL0     C13573   8.962   1.511   7.009  1.1445 -0.1298 -0.9624
   99MOL0     C13574   8.846   1.513   6.927 -0.4977 -0.0386  0.6337
   99MOL0     N13575   8.713   2.030   6.175  0.3235 -0.0811 -0.1441
   99MOL0     N13576   8.652   2.059   6.069 -0.3238 -0.4279  0.7948
   99MOL0     C13577   7.847   1.957   5.150  1.2817  0.1835 -0.0241
   99MOL0     C13578   7.726   1.890   5.102  0.3513 -0.1306 -0.1893
   99MOL0     C13579   7.354   1.928   4.805 -0.1857 -0.0746  0.5361
   99MOL0     C13580   7.338   1.786   4.808  0.0213 -0.1053 -0.9640
   99MOL0     C13581   7.260   1.722   4.714  0.2825 -1.0080  0.2943
   99MOL0     C13582   7.192   1.784   4.612 -0.0415  0.3551  0.1533
   99MOL0     O13583   7.127   1.696   4.529  0.4146  0.9179 -0.4163
   99MOL0     C13584   7.038   1.751   4.432 -0.3389 -0.2565 -0.1659
   99MOL0     C13585   6.914   1.818   4.484  0.5200  0.0941 -0.1620
   99MOL0     C13586   6.833   1.892   4.379  0.1847 -0.2426  0.0301
   99MOL0     C13587   6.710   1.949   4.447  0.3435 -0.3958 -0.3490
   99MOL0     C13588   6.627   2.029   4.353 -0.1774  0.6226  0.3729
   99MOL0     C13589   6.568   2.106   4.283  0.0581  0.6298  0.1845
   99MOL0     C13590   7.202   1.926   4.603  0.1653 -0.0245  0.6866
   99MOL0     C13591   7.285   2.000   4.702  1.0195  0.2001 -0.4077
   99MOL0     C13592   7.300   2.147   4.679  0.2446  1.1596 -0.8649
   99MOL0     H13593   7.546   2.183   5.089 -0.3981 -1.5923 -1.9045
   99MOL0     H13594   7.710   2.266   5.198 -0.4771 -0.2515 -1.4363
   99MOL0     H13595   8.128   2.031   5.195  2.4487 -0.1666  0.9198
   99MOL0     H13596   8.034   2.002   5.333  2.0427  0.8559  1.4564
   99MOL0     H13597   8.203   2.246   5.285 -0.6302  0.6948  1.6116
   99MOL0     H13598   8.106   2.248   5.419  1.5317  1.2278 -0.6176
   99MOL0     H13599   8.218   2.029   5.515  0.0370  0.7660  0.7627
   99MOL0     H13600   8.328   2.048   5.371  2.0261  3.4863 -0.0356
   99MOL0     H13601   8.384   2.284   5.453  2.7535  1.2490  2.5549
   99MOL0     H13602   8.265   2.243   5.586  0.2285 -1.2275  1.7600
   99MOL0     H13603   8.504   2.262   5.648  0.2735  0.6021 -0.9013
   99MOL0     H13604   8.543   2.136   5.536  0.8420 -2.4296  2.7455
   99MOL0     H13605   8.346   2.120   5.764  0.7994 -2.5892  2.6213
   99MOL0     H13606   8.413   1.983   5.661  0.7943  0.6313 -0.6990
   99MOL0     H13607   8.571   2.141   5.854 -1.4317  0.6864 -2.4412
   99MOL0     H13608   8.625   1.996   5.757 -0.6460 -3.5118  1.4873
   99MOL0     H13609   8.393   2.003   5.964 -1.9611 -2.0671 -1.3171
   99MOL0     H13610   8.453   1.865   5.884 -1.9443  1.5403  0.7374
   99MOL0     H13611   8.550   1.759   6.123  2.0601 -0.3135 -0.7390
   99MOL0     H13612   8.835   1.867   6.356 -0.9216  4.2543 -1.6240
   99MOL0     H13613   8.726   1.735   6.286 -1.4533  0.5308 -2.5773
   99MOL0     H13614   8.649   1.964   6.473 -2.1311  1.0301 -1.9005
   99MOL0     H13615   8.541   1.829   6.448  0.1429  1.4985  1.9977
   99MOL0     H13616   8.766   1.860   6.640  1.6974  0.4163 -3.1005
   99MOL0     H13617   8.622   1.771   6.656 -1.2213 -1.7575 -1.0071
   99MOL0     H13618   8.678   1.594   6.516  0.6588  1.5119 -2.4627
   99MOL0     H13619   8.847   1.637   6.520  0.4013  1.0541  0.1323
   99MOL0     H13620   8.970   1.704   6.672  1.1133  2.0140  0.2452
   99MOL0     H13621   9.217   1.710   6.695  2.6013 -0.2929  0.8076
   99MOL0     H13622   9.307   1.684   6.835  1.0493  1.3015 -0.7677
   99MOL0     H13623   9.211   1.833   6.821 -0.0298 -0.0040 -0.5412
   99MOL0     H13624   9.276   1.412   7.314 -0.7905  1.4877 -0.3728
   99MOL0     H13625   9.480   1.444   7.463 -0.3383  0.2891 -0.0328
   99MOL0     H13626   9.680   1.448   7.564  0.9074 -1.8151  0.5843
   99MOL0     H13627   9.676   1.299   7.472 -2.4300  0.4192  1.6338
   99MOL0     H13628   9.931   1.344   7.423  2.5305  0.9122  1.2898
   99MOL0     H13629   9.912   1.471   7.547 -1.2785  1.1183 -0.8894
   99MOL0     H13630   9.874   1.303   7.725  2.4307  0.2795  0.9423
   99MOL0     H13631  10.015   1.267   7.641  0.0596 -0.2276  1.3640
   99MOL0     H13632   9.913   1.105   7.499 -0.4952 -1.6177 -0.0371
   99MOL0     H13633   9.753   1.121   7.580 -0.0334  0.9711  0.0315
   99MOL0     H13634   9.895   0.933   7.633 -3.3666  2.4018 -3.2709
   99MOL0     H13635  10.022   1.038   7.701 -0.2181 -0.6972 -0.6100
   99MOL0     H13636   9.742   1.039   7.813  0.2106 -1.0025 -0.5027
   99MOL0     H13637   9.879   1.115   7.881 -0.9670  0.3205 -1.2376
   99MOL0     H13638   9.972   0.861   7.847 -1.1963 -1.5515 -1.0706
   99MOL0     H13639   9.797   0.820   7.864 -1.0412  0.3365  1.0882
   99MOL0     H13640   9.952   0.981   8.082 -0.1877  1.0679 -0.7527
   99MOL0     H13641   9.903   0.816   8.083 -2.0842 -1.0573 -0.4386
   99MOL0     H13642   9.713   1.552   7.116  0.7766 -1.0770  0.8964
   99MOL0     H13643   9.509   1.533   6.971  0.0579 -0.3007 -0.3940
   99MOL0     H13644   8.964   1.454   7.101  1.5393 -0.9869 -1.4872
   99MOL0     H13645   8.753   1.467   6.958 -0.2204  0.3474  2.1362
   99MOL0     H13646   7.927   1.889   5.174  1.8003  0.4943 -0.8560
   99MOL0     H13647   7.731   1.788   5.065  4.9025  1.1832 -4.1685
   99MOL0     H13648   7.398   1.737   4.885 -3.4061  0.2183  2.2337
   99MOL0     H13649   7.252   1.614   4.710  1.1763 -1.0881  0.5639
   99MOL0     H13650   7.093   1.827   4.375  0.3714 -0.8126 -0.2348
   99MOL0     H13651   7.016   1.677   4.355  0.9792  0.3349 -1.1514
   99MOL0     H13652   6.930   1.876   4.576  0.8765 -0.8100  0.3499
   99MOL0     H13653   6.853   1.733   4.517 -0.7991  0.3529 -1.8268
   99MOL0     H13654   6.906   1.964   4.340 -1.4227  0.3925 -1.9968
   99MOL0     H13655   6.808   1.829   4.293  1.7971  1.3280 -1.6799
   99MOL0     H13656   6.750   2.013   4.526  3.3190 -0.2160 -1.8440
   99MOL0     H13657   6.647   1.874   4.495  0.6002  0.0773  0.7489
   99MOL0     H13658   6.523   2.178   4.217 -1.9430  0.7287  1.5434
   99MOL0     H13659   7.151   1.969   4.517  0.6914  0.6809  0.7105
   99MOL0     H13660   7.233   2.185   4.602 -1.7120 -0.2935  0.0180
   99MOL0     H13661   7.274   2.207   4.767 -0.5864  0.5084 -0.6565
   99MOL0     H13662   7.404   2.164   4.649  1.3684 -4.4679 -1.1512
  100MOL0     O13663   0.334   3.538   6.667  0.4475  1.3883  0.1188
  100MOL0     C13664   0.338   3.583   6.779 -0.7352  0.3355 -0.7615
  100MOL0     O13665   0.245   3.575   6.881 -0.8193  0.1304  0.4166
  100MOL0     C13666   0.117   3.540   6.852 -0.0126 -0.4871  0.9813
  100MOL0     C13667   0.035   3.588   6.746 -0.6778  0.5282 -0.3319
  100MOL0     C13668  -0.092   3.541   6.736 -0.0191  0.4057  0.0491
  100MOL0     C13669  -0.158   3.460   6.830 -0.8150  0.1676  0.6745
  100MOL0     O13670  -0.287   3.431   6.794 -0.0510 -0.2778 -0.2924
  100MOL0     C13671  -0.357   3.340   6.881  0.4086 -0.1837 -0.2042
  100MOL0     C13672  -0.505   3.348   6.841  0.1953 -0.1536 -0.2825
  100MOL0     C13673  -0.545   3.281   6.707  0.4051 -0.4192 -0.1371
  100MOL0     C13674  -0.698   3.282   6.683 -0.0270  0.1671  0.0578
  100MOL0     C13675  -0.727   3.308   6.528 -0.6738 -0.1102 -1.0241
  100MOL0     C13676  -0.678   3.189   6.439 -0.3590 -0.2478 -0.2419
  100MOL0     C13677  -0.652   3.223   6.293  1.4104 -0.0136 -0.2416
  100MOL0     C13678  -0.626   3.099   6.205 -0.3222 -0.3510  0.7140
  100MOL0     N13679  -0.489   3.030   6.232 -0.0649 -0.5687  0.3090
  100MOL0     C13680  -0.368   3.096   6.234 -0.0433  0.3439  0.1812
  100MOL0     C13681  -0.269   3.000   6.246 -0.5050 -0.1017 -0.4741
  100MOL0     C13682  -0.115   3.031   6.257  0.0538  0.1913  0.0368
  100MOL0     C13683  -0.058   3.078   6.122 -0.1161 -0.0880 -0.2585
  100MOL0     C13684  -0.084   2.978   6.003  0.3528 -0.3521 -0.5986
  100MOL0     C13685   0.013   2.986   5.892  0.6077 -0.0249  0.0564
  100MOL0     O13686   0.132   2.921   5.939  0.2805 -0.1948  0.4480
  100MOL0     C13687   0.245   2.961   5.870  0.3967  0.0363  0.0488
  100MOL0     C13688   0.243   2.971   5.735 -0.7864 -0.4266 -0.5614
  100MOL0     C13689   0.359   2.993   5.657  0.2263  0.6322 -0.1934
  100MOL0     C13690   0.343   3.009   5.505  0.4474  0.2569 -0.1958
  100MOL0     C13691   0.487   2.994   5.722 -0.4557  0.0675  0.2940
  100MOL0     C13692   0.615   3.025   5.656 -0.7838  0.4621 -0.5613
  100MOL0     O13693   0.731   2.965   5.725  0.8085  0.2456  0.2670
  100MOL0     C13694   0.857   2.993   5.670  1.1871  0.3085 -0.6843
  100MOL0     C13695   0.919   2.910   5.581  0.2053 -0.1863 -0.7903
  100MOL0     C13696   1.045   2.941   5.537  0.3551  1.1965  0.3579
  100MOL0     C13697   1.105   3.068   5.558 -0.0944 -0.2175 -0.2433
  100MOL0     O13698   1.215   3.118   5.501  0.1494 -0.8591  0.1547
  100MOL0     C13699   1.258   3.045   5.383  0.0217 -0.3524 -0.8363
  100MOL0     C13700   1.354   3.135   5.302 -0.3334 -0.3394 -0.3133
  100MOL0     C13701   1.495   3.140   5.383  0.0946 -0.5618 -0.1428
  100MOL0     C13702   1.577   3.013   5.353  0.2875 -0.4625  0.4783
  100MOL0     C13703   1.691   3.014   5.445  0.4959 -0.2179  0.2140
  100MOL0     C13704   1.813   2.930   5.403  0.2361  0.3901 -0.1386
  100MOL0     C13705   1.913   2.927   5.514 -0.1846  0.3208 -0.4666
  100MOL0     C13706   2.038   2.838   5.487  0.3398 -0.0032  0.8295
  100MOL0    Cl13707   2.149   2.845   5.626 -0.1836 -0.3450 -0.0549
  100MOL0     C13708   1.039   3.149   5.650  0.7783  0.4642  0.2452
  100MOL0     C13709   0.919   3.111   5.705  0.1977  0.1025  0.4414
  100MOL0     O13710   0.621   3.085   5.553  0.5381 -1.2856  0.4707
  100MOL0     C13711   0.488   2.978   5.858  0.2740  0.2779 -0.6701
  100MOL0     C13712   0.371   2.949   5.935 -0.1805  0.3758 -0.0489
  100MOL0     N13713  -0.328   2.880   6.266 -0.1268  0.7079  0.6260
  100MOL0     N13714  -0.456   2.896   6.242 -0.6006 -1.5622 -0.0013
  100MOL0     C13715  -0.075   3.409   6.932 -0.0219  0.6067 -0.1520
  100MOL0     C13716   0.062   3.450   6.944  0.5981  0.6795  0.0025
  100MOL0     C13717   0.476   3.631   6.820 -0.4851 -0.6516  0.8695
  100MOL0     C13718   0.551   3.709   6.733  0.1478  0.1010  0.6831
  100MOL0     C13719   0.669   3.769   6.764  0.4444 -0.6680 -0.4998
  100MOL0     C13720   0.723   3.761   6.899  0.1349  0.2674  0.2750
  100MOL0     O13721   0.846   3.810   6.943 -0.0571  0.3821 -0.0957
  100MOL0     C13722   0.915   3.886   6.842  0.1530  0.5377 -0.5089
  100MOL0     C13723   1.060   3.904   6.872 -0.3140 -0.7471 -0.6328
  100MOL0     C13724   1.134   3.777   6.834  0.3691  0.8343  0.1762
  100MOL0     C13725   1.197   3.787   6.700 -0.5485  0.3493 -0.4179
  100MOL0     C13726   1.109   3.753   6.587 -0.2180 -0.0262  0.5907
  100MOL0     C13727   1.040   3.713   6.491  0.5030  0.6925 -0.2385
  100MOL0     C13728   0.649   3.679   6.981  0.3713  0.0811 -0.6939
  100MOL0     C13729   0.530   3.611   6.953 -0.1715 -0.8781  0.2369
  100MOL0     C13730   0.467   3.537   7.063 -0.2421 -0.3047  0.1737
  100MOL0     H13731   0.082   3.665   6.685  1.8514  1.1944  2.2252
  100MOL0     H13732  -0.146   3.566   6.645 -0.8245 -1.1059  0.0752
  100MOL0     H13733  -0.348   3.370   6.986 -3.4768 -1.2490  0.5985
  100MOL0     H13734  -0.324   3.238   6.862 -0.0340  0.1092 -2.9746
  100MOL0     H13735  -0.554   3.302   6.927 -1.2674  1.8975  0.0460
  100MOL0     H13736  -0.532   3.454   6.834  2.4472  0.3497 -2.9328
  100MOL0     H13737  -0.496   3.335   6.626  1.2436  1.4145  1.5075
  100MOL0     H13738  -0.516   3.176   6.702 -0.7804 -0.8284  0.9728
  100MOL0     H13739  -0.737   3.184   6.712 -0.3860  0.8155  1.9246
  100MOL0     H13740  -0.750   3.363   6.735  1.2181  1.5670 -0.7828
  100MOL0     H13741  -0.681   3.404   6.502  0.7454 -0.6321 -0.5197
  100MOL0     H13742  -0.835   3.316   6.516 -0.9299 -1.9842 -0.2489
  100MOL0     H13743  -0.589   3.145   6.484 -1.5516  1.9861  5.0680
  100MOL0     H13744  -0.756   3.114   6.449 -0.8610  0.2033 -0.7121
  100MOL0     H13745  -0.578   3.303   6.291  1.0262  0.3326 -0.8285
  100MOL0     H13746  -0.750   3.262   6.265 -0.0356 -1.7413  1.9818
  100MOL0     H13747  -0.711   3.031   6.219 -1.3426 -0.7605 -5.0237
  100MOL0     H13748  -0.642   3.114   6.098 -1.0901 -2.2496  0.5159
  100MOL0     H13749  -0.345   3.200   6.217  1.4484 -0.2074 -1.5629
  100MOL0     H13750  -0.075   2.930   6.276  0.1399 -0.4361 -3.0102
  100MOL0     H13751  -0.101   3.102   6.338 -0.0674  1.4522 -1.0201
  100MOL0     H13752  -0.087   3.180   6.098  0.6439  1.0425  3.0621
  100MOL0     H13753   0.051   3.078   6.134 -0.0138 -2.8540 -0.5548
  100MOL0     H13754  -0.086   2.875   6.042 -5.1444  0.3792  1.8456
  100MOL0     H13755  -0.188   2.993   5.976  0.4693  0.5968 -0.5404
  100MOL0     H13756  -0.036   2.941   5.805  1.4550  1.7437 -1.4216
  100MOL0     H13757   0.030   3.090   5.862  0.9317 -0.2979 -0.7549
  100MOL0     H13758   0.159   2.967   5.666 -0.2307 -1.5641 -1.1931
  100MOL0     H13759   0.431   2.967   5.454 -1.6916 -0.7174 -3.4015
  100MOL0     H13760   0.334   3.114   5.474  0.8651  1.0507  2.1562
  100MOL0     H13761   0.253   2.961   5.465  0.8374 -0.5477 -0.1224
  100MOL0     H13762   0.875   2.814   5.556 -1.2266  0.8056 -2.2728
  100MOL0     H13763   1.111   2.875   5.481  0.8490  3.2446 -1.6443
  100MOL0     H13764   1.299   2.948   5.415  1.7955  0.7476  0.4540
  100MOL0     H13765   1.173   3.032   5.315  0.6893 -1.9278 -1.4374
  100MOL0     H13766   1.364   3.087   5.204  1.2356  1.9858 -1.3685
  100MOL0     H13767   1.318   3.236   5.287 -0.9186 -0.2168  1.6289
  100MOL0     H13768   1.471   3.137   5.489  0.3999 -4.9084 -0.0425
  100MOL0     H13769   1.554   3.226   5.349  1.8547 -2.2569 -1.6593
  100MOL0     H13770   1.614   3.020   5.250 -0.9623  0.4016  0.0623
  100MOL0     H13771   1.512   2.927   5.371 -2.1132  1.3359  0.9821
  100MOL0     H13772   1.736   3.111   5.466  1.4424 -0.8081  1.0027
  100MOL0     H13773   1.648   2.966   5.534 -0.8149 -1.4676 -1.0322
  100MOL0     H13774   1.848   2.952   5.301  1.9788 -0.5142  0.2162
  100MOL0     H13775   1.786   2.825   5.386  0.9492  0.7025 -4.6285
  100MOL0     H13776   1.866   2.890   5.606 -1.0671  1.6937 -0.3418
  100MOL0     H13777   1.942   3.027   5.550  2.2742 -0.3863 -0.2809
  100MOL0     H13778   2.087   2.885   5.402  2.4659  0.4050  2.2046
  100MOL0     H13779   2.010   2.736   5.460  3.4342 -0.6112 -0.5092
  100MOL0     H13780   1.091   3.240   5.676  2.1113 -0.0615 -0.4821
  100MOL0     H13781   0.871   3.155   5.792 -0.3692  1.3813 -0.4849
  100MOL0     H13782   0.580   2.984   5.915 -1.8123  0.3247  2.9810
  100MOL0     H13783   0.385   2.917   6.038  0.8473  0.0652 -0.2720
  100MOL0     H13784  -0.116   3.342   7.006 -2.0772 -0.5761 -2.2229
  100MOL0     H13785   0.116   3.421   7.033  5.0471  1.1306 -2.2634
  100MOL0     H13786   0.532   3.711   6.626 -0.8764  0.0514  0.8551
  100MOL0     H13787   0.730   3.808   6.683  1.1155  0.4322  0.5002
  100MOL0     H13788   0.918   3.836   6.745  1.3434  0.0513 -0.2419
  100MOL0     H13789   0.865   3.983   6.834  0.9017  1.1896  1.8565
  100MOL0     H13790   1.063   3.894   6.981  0.9230 -0.0484 -0.5940
  100MOL0     H13791   1.109   3.995   6.837  0.6909 -1.1400 -0.2766
  100MOL0     H13792   1.212   3.745   6.905  2.2381  1.4818 -1.4908
  100MOL0     H13793   1.066   3.691   6.835  1.7715 -0.3326  1.5824
  100MOL0     H13794   1.283   3.719   6.693 -1.1866 -0.5066  0.0232
  100MOL0     H13795   1.244   3.886   6.695  3.8698 -1.4742  0.0062
  100MOL0     H13796   0.981   3.668   6.414  0.8852 -3.3964  1.5920
  100MOL0     H13797   0.671   3.664   7.086  0.4142 -2.7016 -1.0211
  100MOL0     H13798   0.539   3.509   7.140  1.8915  0.0193 -1.5953
  100MOL0     H13799   0.402   3.608   7.114  0.0767  1.3105 -1.5584
  100MOL0     H13800   0.421   3.445   7.028 -0.7029  0.1169 -0.3447
  101MOL0     O13801   4.021   8.358   6.951  0.3964 -0.6249 -0.6252
  101MOL0     C13802   3.973   8.395   7.052  0.0197  0.0138  0.7053
  101MOL0     O13803   3.838   8.379   7.074 -1.0801  0.0984 -0.7605
  101MOL0     C13804   3.753   8.320   6.989 -0.1948  0.8836  0.3753
  101MOL0     C13805   3.773   8.194   6.930 -0.8429  0.3083 -1.0271
  101MOL0     C13806   3.686   8.136   6.844  0.4148 -0.9495 -0.0721
  101MOL0     C13807   3.566   8.203   6.823  0.2506 -0.3228  0.7287
  101MOL0     O13808   3.505   8.134   6.723 -0.1930 -0.1036 -0.3685
  101MOL0     C13809   3.383   8.186   6.674  0.0114  0.2199  0.2303
  101MOL0     C13810   3.258   8.109   6.723  0.8936  0.3064  0.1877
  101MOL0     C13811   3.281   7.963   6.671  0.6944 -0.9041 -0.2406
  101MOL0     C13812   3.155   7.888   6.683 -0.0485 -0.4731  0.8919
  101MOL0     C13813   3.081   7.897   6.556  0.7238 -0.6379  0.2831
  101MOL0     C13814   2.965   7.801   6.554  0.8671  0.2234  0.2431
  101MOL0     C13815   2.879   7.845   6.431  0.4536 -0.6703 -0.2858
  101MOL0     C13816   2.774   7.743   6.399  0.6082  0.4074  0.5353
  101MOL0     N13817   2.833   7.620   6.338  0.0073 -0.7401 -0.2087
  101MOL0     C13818   2.898   7.606   6.220  0.0978  1.2136 -0.3507
  101MOL0     C13819   2.952   7.476   6.225 -0.4833 -0.3845 -0.5758
  101MOL0     C13820   3.054   7.419   6.130  0.0985  1.3234  0.6164
  101MOL0     C13821   3.154   7.333   6.183  0.2730  0.0340  0.5478
  101MOL0     C13822   3.270   7.324   6.088  0.0974 -0.8305 -0.3443
  101MOL0     C13823   3.362   7.447   6.082 -0.5719  0.0393 -0.4022
  101MOL0     O13824   3.310   7.562   6.017  0.4305 -0.7240 -0.6296
  101MOL0     C13825   3.377   7.679   6.049 -0.1761 -0.3578 -0.2128
  101MOL0     C13826   3.293   7.781   6.086 -0.1201  0.2645 -0.5472
  101MOL0     C13827   3.331   7.894   6.150  0.3310 -0.8747 -0.0682
  101MOL0     C13828   3.223   8.002   6.189  0.0806 -0.3003 -0.1259
  101MOL0     C13829   3.463   7.929   6.155 -0.4936  0.2684 -0.6671
  101MOL0     C13830   3.521   8.064   6.206 -0.2164  0.3513  0.5164
  101MOL0     O13831   3.632   8.054   6.280 -0.0546 -0.5218 -0.0399
  101MOL0     C13832   3.716   8.159   6.293 -0.4577  0.0024 -0.0215
  101MOL0     C13833   3.772   8.229   6.189  0.4020 -0.1794  0.4004
  101MOL0     C13834   3.842   8.342   6.214  1.1564 -0.8290  0.3216
  101MOL0     C13835   3.856   8.398   6.342  0.0441 -0.2275  0.7584
  101MOL0     O13836   3.935   8.499   6.383 -0.6922 -0.7994 -0.6042
  101MOL0     C13837   4.049   8.529   6.294 -0.5756 -0.0759  0.3453
  101MOL0     C13838   4.158   8.600   6.370 -0.2059 -0.5621  0.2901
  101MOL0     C13839   4.218   8.518   6.484  0.2269 -0.5544 -0.8109
  101MOL0     C13840   4.288   8.384   6.442  0.2042  0.5585  0.2475
  101MOL0     C13841   4.390   8.335   6.548  0.3821  0.3710  0.1007
  101MOL0     C13842   4.331   8.327   6.688  0.7935  0.1901  0.5855
  101MOL0     C13843   4.383   8.207   6.757 -0.2549 -0.4695  0.1689
  101MOL0     C13844   4.338   8.214   6.907 -0.4714  0.3657 -0.7126
  101MOL0    Cl13845   4.414   8.072   6.986 -0.0775 -0.2278  0.2025
  101MOL0     C13846   3.798   8.329   6.447  0.0517  0.1774  0.1566
  101MOL0     C13847   3.728   8.209   6.428 -0.4826 -0.7805  0.4714
  101MOL0     O13848   3.463   8.170   6.180  0.7850 -0.3183  0.6743
  101MOL0     C13849   3.553   7.833   6.101  0.3165  0.5036  1.2157
  101MOL0     C13850   3.511   7.699   6.051  0.7620 -0.5031 -0.4751
  101MOL0     N13851   2.911   7.408   6.337  0.2064 -0.0189  0.2487
  101MOL0     N13852   2.840   7.498   6.406 -0.1991 -0.6836  0.0197
  101MOL0     C13853   3.535   8.317   6.891 -0.5362 -0.4065  0.6518
  101MOL0     C13854   3.631   8.377   6.972  0.2804 -0.5877  0.3777
  101MOL0     C13855   4.071   8.447   7.146  0.4498 -0.0176  0.0468
  101MOL0     C13856   4.199   8.478   7.096 -0.7892 -0.7966  0.6226
  101MOL0     C13857   4.298   8.529   7.184 -0.2186 -0.4672  0.4145
  101MOL0     C13858   4.270   8.546   7.321 -0.1493 -0.3744  0.3101
  101MOL0     O13859   4.368   8.579   7.405 -0.0960  0.0336 -0.2779
  101MOL0     C13860   4.337   8.657   7.519  0.6114  1.2585  0.6523
  101MOL0     C13861   4.465   8.717   7.577 -0.9454  0.0605  0.6078
  101MOL0     C13862   4.582   8.619   7.608  0.9373  0.3441  0.3702
  101MOL0     C13863   4.718   8.649   7.540 -0.7147  0.0781  0.1846
  101MOL0     C13864   4.691   8.645   7.397  0.2959 -0.3236  1.1399
  101MOL0     C13865   4.689   8.651   7.275 -0.3006 -0.4814 -0.0158
  101MOL0     C13866   4.145   8.513   7.374  0.3967  0.1638  0.5083
  101MOL0     C13867   4.040   8.468   7.285  0.7470  0.0149 -0.1585
  101MOL0     C13868   3.912   8.422   7.350  0.3430 -0.0130  0.3413
  101MOL0     H13869   3.865   8.144   6.961  0.6854  0.7636 -4.3866
  101MOL0     H13870   3.693   8.037   6.800 -3.7242 -1.7123  0.5967
  101MOL0     H13871   3.386   8.191   6.565  0.2461 -1.3614  0.1381
  101MOL0     H13872   3.362   8.290   6.702  0.4961 -0.5852  4.1746
  101MOL0     H13873   3.247   8.107   6.832  3.0709  4.4410  0.7217
  101MOL0     H13874   3.167   8.151   6.680 -0.1449  0.9554  2.8129
  101MOL0     H13875   3.330   7.972   6.573 -1.8089 -0.2834 -1.5081
  101MOL0     H13876   3.364   7.921   6.728  0.0176  1.3903  2.6773
  101MOL0     H13877   3.169   7.782   6.707 -1.7269 -0.9336  0.0025
  101MOL0     H13878   3.103   7.931   6.769  1.3468  1.3477  0.8699
  101MOL0     H13879   3.143   7.853   6.477  2.3090  0.5529  0.8102
  101MOL0     H13880   3.060   8.003   6.539  2.5630 -0.5268 -1.7343
  101MOL0     H13881   3.007   7.701   6.542  0.0323 -0.1010 -0.0180
  101MOL0     H13882   2.913   7.819   6.649  4.0726  2.3823  1.7872
  101MOL0     H13883   2.938   7.859   6.340 -1.9017 -0.3661 -1.8701
  101MOL0     H13884   2.824   7.935   6.460  0.8897 -0.4208 -0.2365
  101MOL0     H13885   2.722   7.711   6.490  0.6411  1.0045  0.7689
  101MOL0     H13886   2.691   7.784   6.341  0.0529  0.0725  1.0739
  101MOL0     H13887   2.909   7.691   6.153  1.9706  0.9933 -0.3945
  101MOL0     H13888   3.094   7.503   6.072  1.2923 -1.7058 -3.4557
  101MOL0     H13889   2.997   7.351   6.066  0.3827  1.0729  0.6263
  101MOL0     H13890   3.189   7.367   6.281 -0.2761  1.8363  0.1428
  101MOL0     H13891   3.109   7.234   6.193  1.5369 -0.8125 -1.4373
  101MOL0     H13892   3.330   7.235   6.111 -0.3131 -0.9515  0.2726
  101MOL0     H13893   3.227   7.304   5.989 -1.1388 -0.9488  0.2010
  101MOL0     H13894   3.387   7.481   6.183 -0.3809  1.2312 -0.8382
  101MOL0     H13895   3.445   7.411   6.021  0.9845 -1.1710  2.2180
  101MOL0     H13896   3.188   7.753   6.084  0.1271 -0.6894 -2.8380
  101MOL0     H13897   3.241   8.050   6.286  0.9460 -0.6606 -0.0937
  101MOL0     H13898   3.120   7.970   6.171  0.3288 -0.4566 -1.4118
  101MOL0     H13899   3.228   8.080   6.113 -1.1695 -0.8157 -0.7693
  101MOL0     H13900   3.763   8.199   6.085 -1.2976  0.3257  0.3657
  101MOL0     H13901   3.894   8.398   6.137  1.9273 -1.1334  0.6190
  101MOL0     H13902   4.094   8.442   6.245  4.2426 -0.5176  4.6284
  101MOL0     H13903   4.006   8.604   6.227 -0.3137  1.7207  2.0902
  101MOL0     H13904   4.238   8.622   6.299 -1.3407 -0.4343 -0.9924
  101MOL0     H13905   4.112   8.694   6.404 -0.0465 -0.4042  0.0624
  101MOL0     H13906   4.152   8.509   6.571  2.7634 -0.5091  1.2482
  101MOL0     H13907   4.293   8.587   6.526  0.8570 -1.9555  0.4889
  101MOL0     H13908   4.326   8.385   6.339 -1.0166  1.1334 -0.2195
  101MOL0     H13909   4.205   8.312   6.441 -0.3966  1.1943 -1.5806
  101MOL0     H13910   4.440   8.243   6.517 -2.9179 -0.9237 -1.9080
  101MOL0     H13911   4.473   8.407   6.547  0.0661  0.7396 -0.4141
  101MOL0     H13912   4.222   8.319   6.682  0.8734 -0.0492 -1.2623
  101MOL0     H13913   4.350   8.413   6.754 -0.8394  0.8699  0.2215
  101MOL0     H13914   4.488   8.188   6.734 -1.1159 -4.1765 -1.5031
  101MOL0     H13915   4.333   8.121   6.711 -1.3280  0.5873 -0.6979
  101MOL0     H13916   4.230   8.216   6.923 -0.5384  2.6126 -1.1167
  101MOL0     H13917   4.385   8.302   6.953 -0.8114 -0.3111  1.0411
  101MOL0     H13918   3.814   8.360   6.550  1.2184 -0.5875  0.2224
  101MOL0     H13919   3.682   8.148   6.505  1.0043 -1.4382  0.8780
  101MOL0     H13920   3.659   7.857   6.107  0.7564  1.2697 -4.2793
  101MOL0     H13921   3.595   7.641   6.015  0.9486  0.5794 -1.8871
  101MOL0     H13922   3.441   8.372   6.883  0.3347  0.9173 -1.2061
  101MOL0     H13923   3.605   8.476   7.008 -2.3985 -0.4765 -1.5618
  101MOL0     H13924   4.209   8.477   6.988 -2.4551  2.3283  0.3362
  101MOL0     H13925   4.401   8.541   7.153  0.4630 -2.0006  1.9363
  101MOL0     H13926   4.254   8.724   7.495 -0.5602  0.2815  1.8182
  101MOL0     H13927   4.302   8.585   7.593  0.1293 -1.4048 -1.9361
  101MOL0     H13928   4.438   8.767   7.670  0.4861 -0.4023  1.3103
  101MOL0     H13929   4.496   8.786   7.497  0.2221 -1.6104 -0.4573
  101MOL0     H13930   4.593   8.629   7.717 -2.1579  2.3123  0.6321
  101MOL0     H13931   4.567   8.514   7.585  0.1300  0.4480  0.3948
  101MOL0     H13932   4.803   8.586   7.565  0.3597  1.0964 -0.7700
  101MOL0     H13933   4.743   8.751   7.570  2.0263 -0.0020 -1.5109
  101MOL0     H13934   4.688   8.662   7.169  0.1776  3.0808  0.2383
  101MOL0     H13935   4.126   8.518   7.480  2.3512  0.7660  0.8701
  101MOL0     H13936   3.891   8.317   7.328  0.4045 -1.0695  4.4546
  101MOL0     H13937   3.904   8.455   7.454 -1.6292  0.2855  0.1327
  101MOL0     H13938   3.825   8.467   7.301 -0.1773 -1.7974 -0.4494
  102MOL0     O13939  10.185   3.690   7.183 -0.0068 -0.4201  0.5651
  102MOL0     C13940  10.083   3.723   7.246  0.4484  0.6553 -0.4453
  102MOL0     O13941  10.043   3.668   7.371 -0.0090 -0.3401  0.3651
  102MOL0     C13942  10.127   3.591   7.444 -0.5077 -0.6518  0.1603
  102MOL0     C13943  10.155   3.631   7.574 -0.3101  0.1501 -0.7304
  102MOL0     C13944  10.214   3.537   7.661 -0.2813  0.2364 -0.6000
  102MOL0     C13945  10.274   3.417   7.605  0.2141  0.1054 -0.2160
  102MOL0     O13946  10.350   3.338   7.690 -0.1115  1.0597  0.3504
  102MOL0     C13947  10.344   3.195   7.681  0.3364  0.2447  0.5449
  102MOL0     C13948  10.455   3.130   7.763  0.0165  0.5225 -0.1223
  102MOL0     C13949  10.593   3.145   7.714  0.2417  0.5688 -0.0406
  102MOL0     C13950  10.705   3.082   7.802  0.0983  0.4780 -0.0399
  102MOL0     C13951  10.836   3.068   7.725 -0.4037  0.8915 -0.8745
  102MOL0     C13952  10.954   3.011   7.801 -0.6389 -0.4901  0.3506
  102MOL0     C13953  11.092   3.045   7.726 -0.0002  0.2859 -0.6179
  102MOL0     C13954  11.208   2.966   7.788  0.1999 -0.1758 -0.6856
  102MOL0     N13955  11.335   3.028   7.762  0.5496 -0.6155  0.1945
  102MOL0     C13956  11.393   3.118   7.844 -0.4252 -0.5206 -0.2019
  102MOL0     C13957  11.513   3.135   7.791 -0.1505  0.3968 -1.0660
  102MOL0     C13958  11.626   3.223   7.844 -0.2980 -0.1815  0.3287
  102MOL0     C13959  11.734   3.158   7.916  0.2786  0.2977 -0.2812
  102MOL0     C13960  11.845   3.260   7.963  0.3343  0.0963 -0.1773
  102MOL0     C13961  11.918   3.228   8.088  0.7364 -0.0241  0.6904
  102MOL0     O13962  11.985   3.106   8.063  0.8500  0.2380  0.5702
  102MOL0     C13963  12.099   3.057   8.125  0.1312  0.2012 -0.3294
  102MOL0     C13964  12.172   3.146   8.201 -0.1758 -0.5655  0.8641
  102MOL0     C13965  12.293   3.120   8.260 -0.4132 -1.0364 -0.2741
  102MOL0     C13966  12.363   3.236   8.327  0.5185  0.5096 -0.3908
  102MOL0     C13967  12.327   2.983   8.264 -0.0480  0.6735 -0.3877
  102MOL0     C13968  12.454   2.928   8.319  0.3185 -1.1364 -0.1274
  102MOL0     O13969  12.483   2.805   8.280  0.1549 -0.0330  0.7646
  102MOL0     C13970  12.587   2.742   8.336  0.1553  0.4874 -0.1317
  102MOL0     C13971  12.573   2.650   8.447 -0.9261  0.0755  0.3748
  102MOL0     C13972  12.684   2.590   8.508 -0.4828  0.2679  0.0745
  102MOL0     C13973  12.817   2.619   8.463  1.1394 -0.6932  0.0973
  102MOL0     O13974  12.919   2.553   8.531 -0.1520 -0.1240  0.5201
  102MOL0     C13975  13.052   2.569   8.475  1.0110  0.1569  0.0516
  102MOL0     C13976  13.154   2.502   8.569  0.4101  0.4124  1.0605
  102MOL0     C13977  13.147   2.563   8.706  0.5601 -0.7971  0.3579
  102MOL0     C13978  13.274   2.566   8.790  1.6372  0.7782  0.4360
  102MOL0     C13979  13.362   2.675   8.747  0.5183  0.0999 -0.2953
  102MOL0     C13980  13.496   2.683   8.823 -0.1003 -0.4352  0.0824
  102MOL0     C13981  13.474   2.758   8.956  0.4604 -0.2790 -0.4036
  102MOL0     C13982  13.447   2.909   8.934  0.2570  0.9584 -0.4779
  102MOL0    Cl13983  13.419   3.002   9.090 -0.8921  0.2096 -0.1583
  102MOL0     C13984  12.832   2.698   8.348 -0.7353  0.2287  0.0641
  102MOL0     C13985  12.715   2.751   8.290  0.7619 -0.4311 -0.0367
  102MOL0     O13986  12.532   2.990   8.388  0.0243 -0.0153 -0.5665
  102MOL0     C13987  12.251   2.884   8.185 -0.2948  0.0117 -0.4301
  102MOL0     C13988  12.134   2.920   8.116 -0.0394  0.0514 -0.1260
  102MOL0     N13989  11.526   3.057   7.670  0.6308 -0.0498  0.0409
  102MOL0     N13990  11.414   3.004   7.653  0.9596 -0.0858  0.3422
  102MOL0     C13991  10.259   3.391   7.470  0.6311  0.7079  0.4234
  102MOL0     C13992  10.178   3.469   7.388 -0.1755 -0.1476  0.6994
  102MOL0     C13993   9.978   3.810   7.178 -0.8712  0.7210 -0.3392
  102MOL0     C13994   9.861   3.844   7.252  0.9679 -0.1060  0.2626
  102MOL0     C13995   9.768   3.939   7.205  0.1041 -0.2725  0.0696
  102MOL0     C13996   9.778   3.987   7.072  0.4699 -0.0684 -1.1936
  102MOL0     O13997   9.690   4.088   7.041  0.0571  0.8897  0.0399
  102MOL0     C13998   9.701   4.146   6.914 -0.2371 -0.2474 -0.0501
  102MOL0     C13999   9.636   4.280   6.931  0.3908  0.1444  0.2319
  102MOL0     C14000   9.479   4.260   6.954  0.0016 -0.7155  0.6718
  102MOL0     C14001   9.396   4.392   6.943 -0.6599 -0.5416  0.1951
  102MOL0     C14002   9.369   4.445   6.812 -0.4230 -0.0790  0.5020
  102MOL0     C14003   9.330   4.493   6.706 -0.8737  1.6738 -0.0005
  102MOL0     C14004   9.889   3.939   6.997  0.1164  0.1844 -0.3937
  102MOL0     C14005   9.989   3.860   7.053 -0.4378  0.2526  0.7781
  102MOL0     C14006  10.102   3.838   6.958  0.0463  0.5694 -0.6090
  102MOL0     H14007  10.123   3.726   7.613  1.4632  0.3697  0.3067
  102MOL0     H14008  10.234   3.568   7.763  0.4285 -2.5816  0.2165
  102MOL0     H14009  10.342   3.165   7.576  1.5900  2.2734 -0.1005
  102MOL0     H14010  10.247   3.188   7.730 -0.8598  1.9649 -1.4755
  102MOL0     H14011  10.452   3.149   7.871  2.3111  2.8172 -0.3661
  102MOL0     H14012  10.428   3.025   7.749 -0.0108  0.8621 -3.2330
  102MOL0     H14013  10.603   3.104   7.613  1.4680  1.5462 -0.3458
  102MOL0     H14014  10.608   3.252   7.695  0.7274 -0.1161 -4.7716
  102MOL0     H14015  10.710   3.146   7.890  1.3252  1.0337 -0.4896
  102MOL0     H14016  10.683   2.978   7.830  1.0139 -0.1557 -1.5565
  102MOL0     H14017  10.853   3.175   7.707 -0.4699  0.9560 -0.5631
  102MOL0     H14018  10.824   3.010   7.633  3.4293 -0.9106 -0.4103
  102MOL0     H14019  10.954   3.050   7.903 -0.7661  1.0022 -0.1940
  102MOL0     H14020  10.943   2.902   7.804  1.9068 -0.8345 -0.4439
  102MOL0     H14021  11.118   3.150   7.712  0.6945  0.5587  2.0753
  102MOL0     H14022  11.076   3.009   7.624  1.1192 -0.9254 -0.3926
  102MOL0     H14023  11.195   2.967   7.896 -1.0048  0.1643 -0.8244
  102MOL0     H14024  11.206   2.863   7.752  0.3549 -0.5183  0.2656
  102MOL0     H14025  11.345   3.162   7.931  0.6917  2.1679 -0.8578
  102MOL0     H14026  11.597   3.307   7.908 -1.7976  0.1010 -0.6881
  102MOL0     H14027  11.664   3.272   7.754 -1.1715 -0.1778 -0.0497
  102MOL0     H14028  11.701   3.102   8.004  0.2193 -1.4837 -1.3935
  102MOL0     H14029  11.778   3.077   7.858 -1.6511 -0.0464 -1.3623
  102MOL0     H14030  11.920   3.259   7.883  0.5862  0.9761  0.0405
  102MOL0     H14031  11.817   3.365   7.969  2.6480  0.7729 -0.2632
  102MOL0     H14032  11.980   3.315   8.109  1.9519 -0.0236 -2.3400
  102MOL0     H14033  11.839   3.211   8.162 -0.9309 -2.2503 -1.4398
  102MOL0     H14034  12.125   3.243   8.213  0.2779  0.0763 -1.7935
  102MOL0     H14035  12.360   3.212   8.434  0.6975 -2.9227 -1.0163
  102MOL0     H14036  12.314   3.330   8.299 -2.1676  0.0074  2.0647
  102MOL0     H14037  12.467   3.252   8.298  0.6205  2.4187  0.8743
  102MOL0     H14038  12.474   2.619   8.478 -0.0896 -0.3046  2.8654
  102MOL0     H14039  12.679   2.518   8.588 -1.3978  2.4499  2.0877
  102MOL0     H14040  13.052   2.524   8.375  0.3711  0.2632  0.0008
  102MOL0     H14041  13.077   2.674   8.460 -0.9540  1.0220  2.2226
  102MOL0     H14042  13.123   2.397   8.565 -1.2183  0.8925 -0.0317
  102MOL0     H14043  13.256   2.513   8.534  0.9528 -0.5956  2.2319
  102MOL0     H14044  13.068   2.516   8.764 -0.5778  1.2778  0.5787
  102MOL0     H14045  13.103   2.663   8.699  0.4124 -0.9633 -2.0260
  102MOL0     H14046  13.321   2.467   8.784 -0.5489 -0.3125 -0.0875
  102MOL0     H14047  13.246   2.577   8.896  1.6351  0.7924  0.4340
  102MOL0     H14048  13.384   2.671   8.640 -0.5444 -0.9277 -0.4981
  102MOL0     H14049  13.311   2.771   8.763 -1.4409 -0.9260 -0.0927
  102MOL0     H14050  13.559   2.750   8.763  0.3617 -1.1917 -0.3020
  102MOL0     H14051  13.546   2.587   8.836 -0.7689 -1.2055 -2.3701
  102MOL0     H14052  13.560   2.734   9.018 -2.1577  0.7659  4.0612
  102MOL0     H14053  13.385   2.711   9.000  0.6933 -0.0011  0.3677
  102MOL0     H14054  13.350   2.918   8.884 -0.2426 -1.8254 -0.1683
  102MOL0     H14055  13.528   2.950   8.873 -1.3022  1.1178 -2.5431
  102MOL0     H14056  12.921   2.702   8.286 -0.2819  0.3291  0.7169
  102MOL0     H14057  12.727   2.802   8.195  0.0431 -2.4246 -1.2546
  102MOL0     H14058  12.263   2.777   8.187 -2.2346 -0.2369  0.3959
  102MOL0     H14059  12.063   2.852   8.071  0.8540 -0.9135 -0.1007
  102MOL0     H14060  10.297   3.301   7.422  0.3181  1.1941 -0.7527
  102MOL0     H14061  10.156   3.431   7.289  2.4266  0.7540 -0.2989
  102MOL0     H14062   9.859   3.801   7.352  1.4090 -0.8232 -0.0260
  102MOL0     H14063   9.687   3.980   7.265 -0.3131 -1.3789  0.2876
  102MOL0     H14064   9.806   4.153   6.884 -0.1736 -2.8211 -0.6778
  102MOL0     H14065   9.655   4.084   6.836 -2.5323  1.0988  0.1261
  102MOL0     H14066   9.666   4.346   6.849  4.7069 -2.6007 -0.7200
  102MOL0     H14067   9.675   4.325   7.023  1.5871 -0.0938 -0.1332
  102MOL0     H14068   9.447   4.196   6.871  1.7965  1.7824 -2.1552
  102MOL0     H14069   9.454   4.206   7.046 -1.6656  0.2024  0.8105
  102MOL0     H14070   9.454   4.463   7.003  2.0831 -2.6040  0.1785
  102MOL0     H14071   9.297   4.381   6.988 -0.9714  0.2508 -0.2841
  102MOL0     H14072   9.297   4.543   6.617 -3.1095 -0.2178 -0.3322
  102MOL0     H14073   9.906   3.975   6.895 -0.0186 -0.1561 -0.5375
  102MOL0     H14074  10.084   3.873   6.856  0.9921 -0.9933 -1.3376
  102MOL0     H14075  10.186   3.892   7.001  0.8660  0.0021 -1.4701
  102MOL0     H14076  10.129   3.732   6.949  0.9391  0.7851 -0.4495
  103MOL0     O14077   8.193   6.248   9.623 -0.6274 -0.3196 -0.4583
  103MOL0     C14078   8.163   6.134   9.628  0.1705  0.2055 -0.8563
  103MOL0     O14079   8.243   6.027   9.605  0.0622 -0.0490  0.5874
  103MOL0     C14080   8.377   6.030   9.630 -0.4611 -0.5654  0.2047
  103MOL0     C14081   8.460   6.139   9.607  0.0840 -1.1564  0.4559
  103MOL0     C14082   8.595   6.136   9.618  1.1279 -0.2583  0.4862
  103MOL0     C14083   8.662   6.021   9.675  0.2888 -0.1592 -0.1289
  103MOL0     O14084   8.793   5.994   9.660 -0.6967 -0.2906  0.6934
  103MOL0     C14085   8.880   6.099   9.603  0.7058 -0.3049 -0.7197
  103MOL0     C14086   8.861   6.112   9.456  0.0361  0.0333  0.8367
  103MOL0     C14087   8.905   6.248   9.404  0.6692 -0.3639 -0.4718
  103MOL0     C14088   9.053   6.271   9.412 -0.3559  0.0234 -0.3214
  103MOL0     C14089   9.097   6.386   9.320  0.4763  0.1573  0.7347
  103MOL0     C14090   9.245   6.394   9.295  0.0050  0.0119 -0.1504
  103MOL0     C14091   9.305   6.444   9.431 -0.7956  0.1750 -0.1005
  103MOL0     C14092   9.450   6.473   9.404 -0.5757 -0.6460 -0.8750
  103MOL0     N14093   9.518   6.518   9.526 -0.2394 -0.2201 -0.1612
  103MOL0     C14094   9.510   6.650   9.556  0.5777 -0.0772 -0.2356
  103MOL0     C14095   9.583   6.673   9.665  0.1133 -0.6451  0.4051
  103MOL0     C14096   9.609   6.805   9.734  0.6129 -0.8518 -0.1767
  103MOL0     C14097   9.533   6.816   9.865  0.1024 -0.5450 -0.3466
  103MOL0     C14098   9.604   6.753   9.979  0.3457 -0.0113  0.1301
  103MOL0     C14099   9.692   6.855  10.063  0.0707  0.0999  0.4831
  103MOL0     O14100   9.783   6.936   9.976 -0.5076  0.0358  0.0346
  103MOL0     C14101   9.919   6.917   9.998  0.0670  0.0408  0.3789
  103MOL0     C14102   9.967   6.927  10.129 -0.7882 -1.0132  0.4525
  103MOL0     C14103  10.100   6.903  10.165 -0.8831  0.2022 -0.0701
  103MOL0     C14104  10.125   6.898  10.325  0.0340 -0.3920  1.5412
  103MOL0     C14105  10.193   6.882  10.060 -0.4089  0.4708 -0.4455
  103MOL0     C14106  10.343   6.885  10.086  0.1672  0.5727  0.8142
  103MOL0     O14107  10.423   6.903   9.983  0.2618  0.5931 -0.3783
  103MOL0     C14108  10.557   6.898   9.993  0.0281  0.1002 -0.0270
  103MOL0     C14109  10.640   7.012  10.006 -0.4244 -0.0127  0.2065
  103MOL0     C14110  10.771   6.996   9.981 -0.2389  0.5243 -0.2579
  103MOL0     C14111  10.828   6.868   9.960 -0.8719 -0.2369 -0.1857
  103MOL0     O14112  10.961   6.846   9.927  0.3588  0.4443 -0.1115
  103MOL0     C14113  11.069   6.940   9.960  0.6780  0.0850  0.4522
  103MOL0     C14114  11.103   7.041   9.841  1.0140  0.2454 -0.3533
  103MOL0     C14115  11.154   6.962   9.723  0.2192 -0.1585 -0.0845
  103MOL0     C14116  11.301   6.977   9.700 -0.6199 -0.1729  0.3318
  103MOL0     C14117  11.343   6.924   9.565 -0.3557 -0.3846  0.0202
  103MOL0     C14118  11.495   6.932   9.529  0.2584 -0.3495  0.4250
  103MOL0     C14119  11.518   6.980   9.389  0.0200 -0.1850 -0.8323
  103MOL0     C14120  11.567   7.131   9.386 -0.9100  0.0499 -1.0596
  103MOL0    Cl14121  11.587   7.182   9.218  0.1624 -0.0288  0.3286
  103MOL0     C14122  10.753   6.759   9.960  0.1368  0.3219  0.4458
  103MOL0     C14123  10.616   6.771   9.973 -1.0907 -0.6844 -0.6325
  103MOL0     O14124  10.386   6.876  10.203  0.7176 -0.2417 -0.5513
  103MOL0     C14125  10.141   6.870   9.926 -0.0332  1.2420  1.0358
  103MOL0     C14126  10.003   6.884   9.895 -0.0168  0.1755  0.5492
  103MOL0     N14127   9.641   6.551   9.696 -0.8141  0.5002  0.3487
  103MOL0     N14128   9.606   6.460   9.611  0.0057 -0.6604 -0.2609
  103MOL0     C14129   8.580   5.917   9.721  0.1259  0.0147  0.0036
  103MOL0     C14130   8.438   5.919   9.696 -0.1707  0.9228  0.0156
  103MOL0     C14131   8.020   6.113   9.665 -0.3360  0.2629  0.7294
  103MOL0     C14132   7.986   5.986   9.719 -0.0029  0.3755  0.6393
  103MOL0     C14133   7.848   5.953   9.749  0.3534  0.5468  0.5548
  103MOL0     C14134   7.750   6.050   9.733  0.5479  0.1562 -0.4854
  103MOL0     O14135   7.612   6.020   9.767 -0.8732 -0.2470 -0.6497
  103MOL0     C14136   7.568   5.893   9.821  0.4888  0.3322  0.4561
  103MOL0     C14137   7.423   5.914   9.869  0.0016  0.2390  0.2183
  103MOL0     C14138   7.352   5.780   9.862 -0.1712  0.2444 -0.0190
  103MOL0     C14139   7.244   5.757   9.978 -0.2145  0.2369  0.7182
  103MOL0     C14140   7.177   5.629   9.960  0.2362  0.0864 -0.7800
  103MOL0     C14141   7.112   5.536   9.942 -0.1507 -0.3308 -0.2112
  103MOL0     C14142   7.788   6.183   9.682 -0.4133 -0.0626  0.6344
  103MOL0     C14143   7.916   6.209   9.637 -0.1434 -0.1457  0.1545
  103MOL0     C14144   7.935   6.345   9.571  0.3159 -0.4692 -0.6829
  103MOL0     H14145   8.412   6.222   9.556 -5.3012 -2.8675  2.0922
  103MOL0     H14146   8.656   6.217   9.579  0.8429  0.2001  0.9850
  103MOL0     H14147   8.985   6.089   9.631  0.8484  1.7452 -0.3868
  103MOL0     H14148   8.857   6.190   9.660  1.7804 -0.0276 -0.7116
  103MOL0     H14149   8.915   6.033   9.403 -2.5225  0.3077 -2.4859
  103MOL0     H14150   8.756   6.101   9.427  0.2447 -0.5535  0.2823
  103MOL0     H14151   8.884   6.251   9.297  3.8631 -0.1177 -1.1995
  103MOL0     H14152   8.848   6.329   9.449 -1.8104 -1.5140 -1.3822
  103MOL0     H14153   9.076   6.282   9.518 -0.3361 -3.7481  0.2062
  103MOL0     H14154   9.104   6.182   9.374  1.6795 -0.4823  3.1468
  103MOL0     H14155   9.058   6.482   9.355 -0.4258  0.4076 -0.8315
  103MOL0     H14156   9.049   6.384   9.221  1.3633  2.6799  0.1705
  103MOL0     H14157   9.294   6.300   9.267  0.6046 -0.0131  0.9340
  103MOL0     H14158   9.262   6.469   9.217 -3.2690  3.7682  2.3248
  103MOL0     H14159   9.299   6.377   9.517 -1.4750 -0.3285 -0.5343
  103MOL0     H14160   9.255   6.535   9.465 -3.0589 -1.3292  0.7930
  103MOL0     H14161   9.497   6.380   9.373 -2.6148 -1.7618 -0.8352
  103MOL0     H14162   9.465   6.543   9.321 -1.4163 -0.5268 -0.9352
  103MOL0     H14163   9.462   6.724   9.491  0.8078  1.4223  1.2387
  103MOL0     H14164   9.565   6.879   9.667 -3.1862 -2.3201  0.4622
  103MOL0     H14165   9.717   6.816   9.744  0.6341  3.0924 -2.5916
  103MOL0     H14166   9.506   6.921   9.884 -1.6238 -1.0579  0.2535
  103MOL0     H14167   9.430   6.777   9.865 -1.2847  2.7579  0.3027
  103MOL0     H14168   9.524   6.719  10.045  0.5217  0.6892  0.7161
  103MOL0     H14169   9.666   6.669   9.944 -0.4651 -1.6102  2.2805
  103MOL0     H14170   9.622   6.930  10.102  0.0138 -0.3442  1.2644
  103MOL0     H14171   9.742   6.813  10.151  1.9605  1.9140  0.3324
  103MOL0     H14172   9.906   6.957  10.214  3.0187 -0.6039  3.3195
  103MOL0     H14173  10.204   6.831  10.359  0.0999 -2.0141 -1.4792
  103MOL0     H14174  10.032   6.867  10.374 -2.4185  0.4200 -2.1522
  103MOL0     H14175  10.149   7.000  10.354  1.0269 -0.8353  2.3563
  103MOL0     H14176  10.607   7.115  10.011 -0.7013 -0.1525  2.9753
  103MOL0     H14177  10.836   7.082   9.976 -0.0632  0.3667 -0.7784
  103MOL0     H14178  11.043   6.996  10.050 -3.3830  1.0439 -1.1170
  103MOL0     H14179  11.160   6.888   9.991  2.2772  1.7031 -1.2547
  103MOL0     H14180  11.010   7.092   9.814  0.9182  0.5102  0.4294
  103MOL0     H14181  11.176   7.118   9.869  0.4683  0.1207  1.6025
  103MOL0     H14182  11.097   7.000   9.638 -1.0590 -1.3608  0.1897
  103MOL0     H14183  11.129   6.856   9.732  3.3206 -0.8919  1.1402
  103MOL0     H14184  11.361   6.933   9.780  0.1627 -1.4260 -0.9133
  103MOL0     H14185  11.307   7.087   9.701 -2.0535 -0.0492  2.1438
  103MOL0     H14186  11.308   6.821   9.556 -0.3510 -0.2427 -2.0760
  103MOL0     H14187  11.292   6.987   9.492  0.3306  0.3266  0.1386
  103MOL0     H14188  11.539   6.832   9.540 -1.9993 -1.5959 -1.1386
  103MOL0     H14189  11.554   6.999   9.593 -2.1328  1.3840  0.9700
  103MOL0     H14190  11.429   6.981   9.326 -0.5262  1.8545 -0.0961
  103MOL0     H14191  11.599   6.918   9.350  0.7125  0.3268 -0.2610
  103MOL0     H14192  11.671   7.125   9.420 -1.2062 -3.1548 -0.3850
  103MOL0     H14193  11.502   7.199   9.441  0.0613  0.3145 -0.2092
  103MOL0     H14194  10.793   6.659   9.950 -1.2422 -0.2486  0.4593
  103MOL0     H14195  10.555   6.682   9.967  0.6967 -2.0440  0.3613
  103MOL0     H14196  10.204   6.850   9.841 -2.1477 -0.0444 -0.3236
  103MOL0     H14197   9.960   6.865   9.797 -1.2639 -0.1926  1.1522
  103MOL0     H14198   8.634   5.834   9.767  0.4750 -0.1432 -0.6738
  103MOL0     H14199   8.377   5.838   9.734  0.1376  2.0141  3.1361
  103MOL0     H14200   8.057   5.908   9.743 -3.0047 -2.8352 -0.1059
  103MOL0     H14201   7.832   5.856   9.795  0.8610  1.0192  1.7624
  103MOL0     H14202   7.575   5.804   9.758 -0.1762  0.4328  0.2364
  103MOL0     H14203   7.629   5.866   9.908 -1.3910 -3.1886  0.8835
  103MOL0     H14204   7.370   5.976   9.796  2.4347  0.6016 -1.3346
  103MOL0     H14205   7.427   5.951   9.972 -0.3118  2.4494 -0.5170
  103MOL0     H14206   7.301   5.774   9.766 -3.1366 -0.9301  1.5283
  103MOL0     H14207   7.420   5.694   9.862  0.7212  0.7700 -3.4166
  103MOL0     H14208   7.180   5.845   9.985 -1.4999 -0.7350  1.9709
  103MOL0     H14209   7.302   5.746  10.070  1.8527 -1.3503 -0.6776
  103MOL0     H14210   7.046   5.454   9.921 -0.1987  0.1723 -2.3018
  103MOL0     H14211   7.723   6.269   9.688  1.5219  1.4042  2.3378
  103MOL0     H14212   7.844   6.404   9.577  1.3114  1.4340 -2.8162
  103MOL0     H14213   8.019   6.406   9.606  2.5542 -2.4946 -2.1940
  103MOL0     H14214   7.953   6.325   9.465 -0.2697 -0.3322 -0.8070
  104MOL0     O14215   4.813  11.308   5.497 -1.2068  0.5096 -0.1442
  104MOL0     C14216   4.704  11.278   5.546  1.0475 -0.7163  0.5283
  104MOL0     O14217   4.672  11.270   5.675  0.1146  0.1225 -0.0739
  104MOL0     C14218   4.779  11.301   5.757  0.0685 -0.0323 -0.3263
  104MOL0     C14219   4.833  11.204   5.846  0.9357 -0.6516  0.5689
  104MOL0     C14220   4.943  11.231   5.922 -0.6034  0.2026 -0.2283
  104MOL0     C14221   5.017  11.349   5.916 -0.0379 -0.6618 -0.3428
  104MOL0     O14222   5.128  11.384   5.988  1.1263  0.1903  0.3937
  104MOL0     C14223   5.230  11.292   5.971 -0.7164  1.0963 -0.2760
  104MOL0     C14224   5.362  11.358   5.945  0.1899  0.0798  0.7689
  104MOL0     C14225   5.415  11.355   5.803  0.3451 -0.9029 -0.4733
  104MOL0     C14226   5.561  11.385   5.800  0.2593  0.5913 -0.2744
  104MOL0     C14227   5.616  11.318   5.670 -0.4320 -0.2596  0.4811
  104MOL0     C14228   5.762  11.362   5.647  0.0893 -0.4536 -0.5577
  104MOL0     C14229   5.864  11.319   5.757  0.7576  0.5192  0.0257
  104MOL0     C14230   6.004  11.350   5.715 -0.7507 -0.4417  0.6250
  104MOL0     N14231   6.106  11.315   5.825  0.1003  0.4863 -0.0353
  104MOL0     C14232   6.185  11.396   5.900  0.4738 -0.3235 -0.2765
  104MOL0     C14233   6.257  11.306   5.971 -0.5230 -0.5735 -0.5475
  104MOL0     C14234   6.374  11.356   6.067  1.1898  0.9424  0.0096
  104MOL0     C14235   6.473  11.427   5.978 -0.5363 -0.1963 -0.2007
  104MOL0     C14236   6.584  11.480   6.066 -0.1823  0.4765 -0.2293
  104MOL0     C14237   6.546  11.597   6.152  0.4699 -0.2482  0.0399
  104MOL0     O14238   6.480  11.712   6.086 -0.0100 -0.3093 -0.3312
  104MOL0     C14239   6.550  11.779   5.993  0.1433  0.6101  0.2422
  104MOL0     C14240   6.500  11.811   5.865 -0.0083  0.1151 -0.1690
  104MOL0     C14241   6.566  11.905   5.778 -0.7028  0.4006 -0.7780
  104MOL0     C14242   6.491  11.932   5.651 -0.2901  0.6511 -0.6643
  104MOL0     C14243   6.678  11.974   5.827 -0.6001 -0.4206  0.0175
  104MOL0     C14244   6.760  12.072   5.738  0.6474 -0.5737 -1.3885
  104MOL0     O14245   6.891  12.091   5.779  0.0140 -0.2025  0.0065
  104MOL0     C14246   6.961  12.182   5.701 -0.9661  1.0967 -0.4682
  104MOL0     C14247   7.026  12.281   5.767 -0.1920 -0.5041  0.2944
  104MOL0     C14248   7.121  12.371   5.708 -0.1306  0.0223  0.2768
  104MOL0     C14249   7.145  12.356   5.566 -0.6426  0.2037 -0.5535
  104MOL0     O14250   7.231  12.447   5.512  0.1982  0.2493  0.0054
  104MOL0     C14251   7.290  12.410   5.389  0.2115  0.8101 -0.5043
  104MOL0     C14252   7.417  12.491   5.359  0.2199 -0.7999 -0.4218
  104MOL0     C14253   7.542  12.430   5.420  0.3718  0.1385 -0.0811
  104MOL0     C14254   7.658  12.511   5.364 -0.6157  0.5874 -0.2057
  104MOL0     C14255   7.794  12.461   5.403  0.3359 -1.0984  0.0695
  104MOL0     C14256   7.892  12.560   5.347 -0.7878  0.2438  0.0839
  104MOL0     C14257   8.030  12.494   5.379 -0.2568  0.0269 -0.4775
  104MOL0     C14258   8.146  12.539   5.294 -0.0086  0.7815 -0.7519
  104MOL0    Cl14259   8.154  12.469   5.126  0.2876  0.1422 -0.5203
  104MOL0     C14260   7.078  12.264   5.494 -0.3908 -0.3333 -0.0805
  104MOL0     C14261   6.986  12.172   5.565 -0.0369  0.7957  0.0066
  104MOL0     O14262   6.710  12.119   5.640  0.4089  0.0217 -0.1076
  104MOL0     C14263   6.729  11.935   5.947 -0.4541  0.2033  1.0913
  104MOL0     C14264   6.669  11.838   6.026  0.2021  0.2169  0.4963
  104MOL0     N14265   6.256  11.190   5.908 -0.1659  0.2460  0.5820
  104MOL0     N14266   6.154  11.193   5.830  0.1515 -0.3177  0.4322
  104MOL0     C14267   4.957  11.453   5.832 -0.9176  0.3200 -0.1591
  104MOL0     C14268   4.842  11.427   5.752 -0.8335  0.0319  1.0408
  104MOL0     C14269   4.588  11.273   5.454 -0.1452 -0.0685  0.3505
  104MOL0     C14270   4.464  11.270   5.511 -0.0473 -0.1447  0.2864
  104MOL0     C14271   4.350  11.236   5.434 -0.4590 -0.7596  0.3691
  104MOL0     C14272   4.354  11.206   5.298  0.9137 -0.0794  0.3090
  104MOL0     O14273   4.233  11.166   5.245  0.2812 -0.2064 -0.0679
  104MOL0     C14274   4.241  11.039   5.179 -0.7670  0.1096  0.1969
  104MOL0     C14275   4.112  11.001   5.106  0.6646 -0.0276 -0.1894
  104MOL0     C14276   4.065  11.099   5.004  0.0473  0.5844  0.1011
  104MOL0     C14277   3.912  11.086   4.982 -0.1498  0.2738  0.1420
  104MOL0     C14278   3.867  10.959   4.923 -0.2482  0.3189 -0.5935
  104MOL0     C14279   3.830  10.846   4.878  0.1254 -0.0495  0.0096
  104MOL0     C14280   4.476  11.209   5.235 -0.2662 -0.7691 -0.3451
  104MOL0     C14281   4.596  11.237   5.310  0.1619  0.0693  0.3336
  104MOL0     C14282   4.727  11.217   5.237 -0.6468 -0.1096 -1.1875
  104MOL0     H14283   4.788  11.105   5.834  0.1925 -0.1600 -0.9624
  104MOL0     H14284   4.989  11.155   5.984  3.7424  3.1265  0.5921
  104MOL0     H14285   5.204  11.222   5.890  0.4329 -2.6949  2.3378
  104MOL0     H14286   5.246  11.245   6.068  0.6894  4.5600  1.3253
  104MOL0     H14287   5.350  11.464   5.968  0.7168  0.5291 -0.9181
  104MOL0     H14288   5.439  11.321   6.014  0.4558  3.5904  2.5637
  104MOL0     H14289   5.408  11.252   5.765 -0.8167 -1.3037  0.7439
  104MOL0     H14290   5.362  11.436   5.752  2.0175  0.9010  0.5518
  104MOL0     H14291   5.595  11.488   5.808  3.4274 -0.2522 -1.3023
  104MOL0     H14292   5.618  11.336   5.879  0.4334 -1.0869 -1.3912
  104MOL0     H14293   5.561  11.357   5.585  2.6053  1.4592 -0.8424
  104MOL0     H14294   5.611  11.209   5.683  0.6351 -0.2938  0.6741
  104MOL0     H14295   5.788  11.315   5.552 -0.1814 -1.0270 -0.3519
  104MOL0     H14296   5.774  11.470   5.631  0.3225 -0.6898 -2.1003
  104MOL0     H14297   5.845  11.216   5.788  2.8032 -0.5223 -1.9223
  104MOL0     H14298   5.844  11.373   5.850  1.4353 -1.3021  1.2615
  104MOL0     H14299   6.031  11.291   5.627  5.0151  2.4187 -0.0101
  104MOL0     H14300   6.008  11.458   5.698  5.3474 -0.5747 -1.3330
  104MOL0     H14301   6.194  11.504   5.897  0.3139 -0.3251 -1.9159
  104MOL0     H14302   6.422  11.263   6.101  2.9865  0.0343 -4.3435
  104MOL0     H14303   6.334  11.413   6.151  0.4930 -1.9961  1.8225
  104MOL0     H14304   6.523  11.359   5.909 -0.1451  1.8222 -2.0267
  104MOL0     H14305   6.416  11.500   5.920  0.4485  1.0007  0.2967
  104MOL0     H14306   6.622  11.399   6.129 -1.8645 -0.2168 -0.0423
  104MOL0     H14307   6.660  11.524   6.000  0.5236 -0.1710  0.1414
  104MOL0     H14308   6.470  11.558   6.221 -2.0212  0.4976 -2.1129
  104MOL0     H14309   6.630  11.631   6.213  1.1199 -0.6681 -0.6107
  104MOL0     H14310   6.409  11.761   5.833 -0.6515  1.1443 -0.0246
  104MOL0     H14311   6.387  11.898   5.659 -0.5950  1.8328  0.8248
  104MOL0     H14312   6.551  11.892   5.569 -0.2368 -1.7555  0.4432
  104MOL0     H14313   6.484  12.040   5.639 -1.1199  0.7789  0.7504
  104MOL0     H14314   7.016  12.298   5.874  0.9586  1.2372  0.1710
  104MOL0     H14315   7.183  12.442   5.762 -1.8916 -0.2531  2.8612
  104MOL0     H14316   7.304  12.301   5.387 -0.9745  0.5960  1.2616
  104MOL0     H14317   7.233  12.441   5.301  1.7162  1.7754 -1.1726
  104MOL0     H14318   7.425  12.501   5.250 -3.3588  2.0784 -0.6236
  104MOL0     H14319   7.414  12.597   5.384  1.0464 -0.2865 -2.3337
  104MOL0     H14320   7.543  12.325   5.389  2.0637  0.2037 -0.3500
  104MOL0     H14321   7.536  12.434   5.529 -2.2485  0.8034 -0.1904
  104MOL0     H14322   7.640  12.610   5.407  2.5368  0.6378  1.2532
  104MOL0     H14323   7.651  12.517   5.255 -0.2340 -2.9291 -0.5296
  104MOL0     H14324   7.792  12.457   5.513 -0.7385  0.1517  0.1142
  104MOL0     H14325   7.812  12.360   5.366  0.6748 -0.2471 -2.2010
  104MOL0     H14326   7.882  12.664   5.377  2.2071  1.0660 -1.3900
  104MOL0     H14327   7.879  12.554   5.238 -2.3541 -0.6378  0.2941
  104MOL0     H14328   8.034  12.386   5.360  4.6194 -0.1047 -0.0217
  104MOL0     H14329   8.058  12.503   5.484 -3.5890 -3.6742  0.9855
  104MOL0     H14330   8.236  12.501   5.344 -0.6025 -0.5921 -0.6985
  104MOL0     H14331   8.151  12.648   5.284  3.6864  0.5606 -3.6153
  104MOL0     H14332   7.096  12.260   5.387 -0.8231  1.9522 -0.3011
  104MOL0     H14333   6.940  12.086   5.519  0.1722 -1.3206  3.4157
  104MOL0     H14334   6.818  11.984   5.984  1.6392 -1.1015 -1.8193
  104MOL0     H14335   6.714  11.818   6.123 -0.3765  2.2043  1.2262
  104MOL0     H14336   5.006  11.550   5.829 -0.9113  0.4832  2.3709
  104MOL0     H14337   4.819  11.511   5.687  0.3264 -0.0314  0.5266
  104MOL0     H14338   4.437  11.303   5.611  3.4480 -0.3281  1.4322
  104MOL0     H14339   4.253  11.224   5.481 -0.9340  2.2675  0.3847
  104MOL0     H14340   4.316  11.033   5.100 -0.7171 -0.1843  0.2655
  104MOL0     H14341   4.272  10.962   5.250  3.3821  0.4517 -0.9697
  104MOL0     H14342   4.036  10.989   5.184  0.2483 -5.9289 -1.0580
  104MOL0     H14343   4.119  10.901   5.063  1.1267  0.7831 -2.1175
  104MOL0     H14344   4.094  11.203   5.024 -1.9189  1.1579  0.2219
  104MOL0     H14345   4.117  11.069   4.913 -0.3032  1.8111 -0.5384
  104MOL0     H14346   3.885  11.164   4.911  1.6194  1.1681  0.4127
  104MOL0     H14347   3.868  11.104   5.081  0.9782  0.3494  0.6458
  104MOL0     H14348   3.800  10.751   4.837  0.0551 -1.0281  2.1710
  104MOL0     H14349   4.471  11.183   5.130  2.3846 -1.7795 -0.2973
  104MOL0     H14350   4.770  11.120   5.264 -2.7960 -0.5458  1.0602
  104MOL0     H14351   4.715  11.222   5.129  1.3880  0.8674 -1.4091
  104MOL0     H14352   4.799  11.294   5.265 -1.1610  0.0760 -0.3516
  105MOL0     O14353   6.607   3.604  10.692  0.0427  0.8380 -0.3924
  105MOL0     C14354   6.556   3.491  10.703  0.0075  0.5764  0.0662
  105MOL0     O14355   6.604   3.376  10.755 -0.0485  0.5634 -0.5011
  105MOL0     C14356   6.739   3.360  10.768  0.4315  0.7153  0.1665
  105MOL0     C14357   6.819   3.462  10.818 -0.2030  1.3323 -0.7067
  105MOL0     C14358   6.962   3.446  10.825 -0.6135  0.5424  0.5465
  105MOL0     C14359   7.022   3.316  10.785 -0.1122  0.0265  0.1099
  105MOL0     O14360   7.159   3.286  10.799  0.3158 -0.4799  0.4288
  105MOL0     C14361   7.248   3.402  10.836  0.0718 -0.0627 -0.8295
  105MOL0     C14362   7.248   3.451  10.986  0.8725 -0.5955 -0.3081
  105MOL0     C14363   7.311   3.591  11.004  0.3419 -0.8221 -0.1910
  105MOL0     C14364   7.216   3.711  11.001 -0.2587 -0.1745 -0.3574
  105MOL0     C14365   7.294   3.837  11.010  0.3100  0.1468 -0.7080
  105MOL0     C14366   7.209   3.960  10.981 -0.4063 -0.3177 -0.2592
  105MOL0     C14367   7.310   4.079  10.954  0.0422  0.1399  0.7908
  105MOL0     C14368   7.241   4.214  10.965  0.3166  0.4094 -0.0204
  105MOL0     N14369   7.348   4.323  10.966 -0.0651  0.3833  0.1560
  105MOL0     C14370   7.446   4.328  10.880  0.2462  0.0260 -0.0645
  105MOL0     C14371   7.529   4.437  10.913  0.8381  0.4674  0.1821
  105MOL0     C14372   7.665   4.468  10.853 -0.3319  0.4970 -0.1490
  105MOL0     C14373   7.776   4.451  10.966 -0.0835  0.1345  0.1768
  105MOL0     C14374   7.915   4.494  10.920 -0.3719  0.3197  0.8767
  105MOL0     C14375   8.017   4.506  11.031 -0.3157  0.4440  0.2622
  105MOL0     O14376   8.028   4.384  11.114  0.4805  0.3651  0.7813
  105MOL0     C14377   8.073   4.412  11.238  0.5737 -0.7018  0.5683
  105MOL0     C14378   8.171   4.504  11.271  0.1031  0.9660 -0.8529
  105MOL0     C14379   8.204   4.526  11.403 -0.2612 -1.1312 -0.3695
  105MOL0     C14380   8.326   4.625  11.423  0.7922 -0.1390  0.3967
  105MOL0     C14381   8.138   4.462  11.511 -1.0512 -0.5211  0.6094
  105MOL0     C14382   8.165   4.488  11.654  0.2117 -0.3976 -0.6305
  105MOL0     O14383   8.087   4.420  11.738  0.2354  0.0294 -0.5510
  105MOL0     C14384   8.115   4.384  11.864  0.4030  0.4412 -0.8463
  105MOL0     C14385   8.008   4.344  11.940 -0.2747 -0.4976  0.2522
  105MOL0     C14386   8.030   4.293  12.074 -0.2447  0.3807 -0.2566
  105MOL0     C14387   8.153   4.301  12.132 -0.4789  0.0860  0.5660
  105MOL0     O14388   8.181   4.269  12.264  0.4323  0.0530  0.3308
  105MOL0     C14389   8.116   4.152  12.314  0.4106  1.0080 -0.2308
  105MOL0     C14390   8.185   4.127  12.452  0.1083 -0.5449 -0.7119
  105MOL0     C14391   8.147   4.029  12.555  0.3186 -0.6202  0.3299
  105MOL0     C14392   8.112   3.895  12.499  0.0595  0.3555 -0.6826
  105MOL0     C14393   8.068   3.813  12.619  0.3107  0.5924 -0.0714
  105MOL0     C14394   8.077   3.662  12.583 -0.2841  0.4479  0.0437
  105MOL0     C14395   8.106   3.582  12.711 -0.0586  0.9568 -0.0446
  105MOL0     C14396   8.167   3.448  12.699 -0.9183  0.4155  0.5028
  105MOL0    Cl14397   8.352   3.463  12.717  0.0447  0.6445 -0.3667
  105MOL0     C14398   8.265   4.340  12.052  0.4139 -0.3423 -0.5995
  105MOL0     C14399   8.248   4.376  11.921  0.3231  0.4126 -0.9062
  105MOL0     O14400   8.246   4.579  11.687  0.3114  0.0695  0.2769
  105MOL0     C14401   8.048   4.362  11.474  0.6670  0.3146  0.1305
  105MOL0     C14402   8.021   4.336  11.339 -0.1542  0.1640  0.3533
  105MOL0     N14403   7.479   4.486  11.026 -0.8056 -0.3477 -0.3016
  105MOL0     N14404   7.372   4.416  11.063 -0.7329 -0.2001 -0.5417
  105MOL0     C14405   6.932   3.214  10.744  0.2046 -0.3265  0.1314
  105MOL0     C14406   6.797   3.239  10.737  0.4578 -0.2786  0.5873
  105MOL0     C14407   6.433   3.457  10.627  1.0629 -0.6651 -0.8641
  105MOL0     C14408   6.437   3.334  10.553  0.2394 -0.3541 -0.3290
  105MOL0     C14409   6.319   3.303  10.474 -1.0116 -0.1987 -0.1551
  105MOL0     C14410   6.206   3.384  10.474 -0.2506 -0.1639  0.4196
  105MOL0     O14411   6.103   3.350  10.380  0.0838 -0.6362  0.6700
  105MOL0     C14412   6.020   3.461  10.336 -0.2412  0.1735 -0.0741
  105MOL0     C14413   5.918   3.408  10.231 -0.3401  0.3731  1.0271
  105MOL0     C14414   5.960   3.404  10.079  0.0193  0.6726  0.2504
  105MOL0     C14415   6.058   3.276  10.052  0.0207 -0.7339 -0.1559
  105MOL0     C14416   5.987   3.152  10.060  0.5297 -0.0479 -0.2585
  105MOL0     C14417   5.935   3.044  10.078  0.0916 -0.4445  0.5059
  105MOL0     C14418   6.205   3.500  10.553 -0.0603 -0.1909 -0.2247
  105MOL0     C14419   6.316   3.539  10.626 -0.6881 -0.7966  0.4477
  105MOL0     C14420   6.306   3.648  10.720  0.1139 -0.0398  0.5782
  105MOL0     H14421   6.779   3.560  10.845  1.7929  2.2095 -0.7803
  105MOL0     H14422   7.018   3.531  10.862  1.8079 -0.8219  0.2193
  105MOL0     H14423   7.233   3.486  10.768  1.3727 -0.1151 -1.2071
  105MOL0     H14424   7.351   3.382  10.806  0.2570  1.0381 -0.9604
  105MOL0     H14425   7.145   3.461  11.023  1.7224  1.1960  1.7889
  105MOL0     H14426   7.295   3.375  11.049  2.2923  0.6622  0.1999
  105MOL0     H14427   7.372   3.597  11.094  1.4016  0.4279 -0.9611
  105MOL0     H14428   7.384   3.598  10.922 -1.0291  2.4188 -1.3094
  105MOL0     H14429   7.183   3.710  10.896  1.8805  1.6992 -1.1408
  105MOL0     H14430   7.132   3.710  11.071 -0.1982  0.9209 -0.2537
  105MOL0     H14431   7.383   3.828  10.947  1.7175  1.0676  1.0477
  105MOL0     H14432   7.334   3.849  11.111 -2.0329  1.6409  0.1210
  105MOL0     H14433   7.137   3.931  10.904 -0.7519 -2.8855  0.9174
  105MOL0     H14434   7.147   3.980  11.069  1.9165 -3.8746  2.4826
  105MOL0     H14435   7.354   4.055  10.857  0.2908  0.6913  0.7636
  105MOL0     H14436   7.385   4.074  11.033 -0.3587  4.4085  1.6970
  105MOL0     H14437   7.173   4.232  10.882 -1.1281 -0.3332  0.9709
  105MOL0     H14438   7.178   4.226  11.054  1.8047  1.4478  0.9593
  105MOL0     H14439   7.473   4.266  10.795  0.5938  2.7249 -2.0540
  105MOL0     H14440   7.670   4.573  10.821 -1.5611  1.2929  2.0700
  105MOL0     H14441   7.675   4.400  10.768  0.0986  1.3854 -0.8267
  105MOL0     H14442   7.750   4.517  11.049  0.3325 -1.0441  1.2754
  105MOL0     H14443   7.768   4.350  11.006 -0.9292 -0.5793 -1.6887
  105MOL0     H14444   7.944   4.420  10.845 -1.3721 -1.2215  1.9238
  105MOL0     H14445   7.917   4.590  10.868  0.0836  0.1268  0.5350
  105MOL0     H14446   8.119   4.515  10.991  0.2906 -3.6509  0.3776
  105MOL0     H14447   7.987   4.592  11.091  2.5915 -0.6972  3.7144
  105MOL0     H14448   8.226   4.551  11.190 -0.3844  1.5224 -0.8660
  105MOL0     H14449   8.366   4.662  11.328  1.4804  1.1508  1.1630
  105MOL0     H14450   8.405   4.585  11.487 -1.0208 -3.8533  0.5833
  105MOL0     H14451   8.285   4.706  11.483 -1.4644 -2.2525  1.8718
  105MOL0     H14452   7.909   4.341  11.893 -1.9890  0.8080  3.4824
  105MOL0     H14453   7.952   4.244  12.131 -0.3975  1.7675  0.7628
  105MOL0     H14454   8.017   4.180  12.352  1.2629  1.1934  2.0380
  105MOL0     H14455   8.125   4.066  12.247  2.7319  0.3607  0.8021
  105MOL0     H14456   8.288   4.105  12.424 -0.8630 -1.8074 -3.7315
  105MOL0     H14457   8.182   4.221  12.507 -1.1884 -1.0122  0.0575
  105MOL0     H14458   8.060   4.071  12.605 -0.0087 -1.5117  0.5186
  105MOL0     H14459   8.224   4.013  12.631 -0.1685  2.5406  1.6260
  105MOL0     H14460   8.202   3.846  12.461 -0.4781 -1.8641  0.7160
  105MOL0     H14461   8.028   3.896  12.429 -2.1868  2.5653  1.8436
  105MOL0     H14462   8.133   3.837  12.703 -0.1451 -0.2629  0.5341
  105MOL0     H14463   7.969   3.845  12.652  0.0412  1.2236 -1.4062
  105MOL0     H14464   8.147   3.643  12.502 -0.6603  0.1774 -0.2230
  105MOL0     H14465   7.979   3.623  12.554  0.6424 -1.5744 -0.5107
  105MOL0     H14466   8.012   3.574  12.766 -0.5815 -0.2711 -1.0730
  105MOL0     H14467   8.173   3.642  12.774 -0.0968  2.3990 -1.3259
  105MOL0     H14468   8.148   3.397  12.603 -1.6784 -1.0371  1.3903
  105MOL0     H14469   8.138   3.389  12.786 -0.1874  0.2121  0.6176
  105MOL0     H14470   8.363   4.326  12.097  0.5689  0.2684 -0.7396
  105MOL0     H14471   8.333   4.401  11.859  0.7582 -1.7764 -1.2755
  105MOL0     H14472   7.983   4.309  11.542 -1.1491  0.1011 -1.6845
  105MOL0     H14473   7.948   4.260  11.315  0.7017 -1.2142  1.8868
  105MOL0     H14474   6.964   3.112  10.725  0.5718  0.0381 -1.2740
  105MOL0     H14475   6.744   3.150  10.702  2.0981 -1.1791  0.2800
  105MOL0     H14476   6.517   3.262  10.565 -1.0536 -1.8037 -0.1568
  105MOL0     H14477   6.344   3.222  10.405  0.3284  0.0155  0.0429
  105MOL0     H14478   5.961   3.503  10.418 -0.5133 -2.4041  1.1511
  105MOL0     H14479   6.083   3.540  10.293  0.2306  0.5738  1.2958
  105MOL0     H14480   5.828   3.469  10.247 -0.0567  1.6517 -1.6653
  105MOL0     H14481   5.899   3.305  10.262  2.3971 -0.0184  1.6822
  105MOL0     H14482   5.863   3.405  10.029  0.0646  0.9783  0.1630
  105MOL0     H14483   6.009   3.497  10.046  3.3675 -1.0172 -0.0129
  105MOL0     H14484   6.144   3.273  10.119  1.2756  0.0921 -1.6467
  105MOL0     H14485   6.089   3.293   9.948 -0.8249  2.6672  0.0361
  105MOL0     H14486   5.891   2.947  10.093  1.1816 -0.7856  1.6616
  105MOL0     H14487   6.118   3.565  10.549 -1.0514 -1.4399  0.2656
  105MOL0     H14488   6.375   3.724  10.683 -1.4245  0.6157 -1.1426
  105MOL0     H14489   6.200   3.674  10.718 -1.4186 -4.8606  3.3865
  105MOL0     H14490   6.334   3.631  10.824 -3.2219 -0.2959  1.5427
  106MOL0     O14491   6.949   9.927   8.913 -0.5984 -0.1569  0.1891
  106MOL0     C14492   6.964   9.891   9.032 -0.6383 -0.7292 -0.1401
  106MOL0     O14493   7.077   9.851   9.085 -0.2817  0.4821  0.3440
  106MOL0     C14494   7.187   9.812   9.013  0.4904 -0.8869  0.6303
  106MOL0     C14495   7.252   9.881   8.910  0.2118  0.3177 -0.0578
  106MOL0     C14496   7.362   9.829   8.843  0.5912  0.2846  0.0633
  106MOL0     C14497   7.408   9.703   8.885  0.4974 -1.1881  0.6820
  106MOL0     O14498   7.510   9.646   8.807  1.0165  0.3821  0.0860
  106MOL0     C14499   7.451   9.566   8.709  1.0268 -0.5101  0.1385
  106MOL0     C14500   7.555   9.491   8.636  0.6277  0.0952  0.3864
  106MOL0     C14501   7.598   9.376   8.730  0.0398  0.4808  0.1562
  106MOL0     C14502   7.491   9.276   8.772 -0.2451  0.3713 -0.0286
  106MOL0     C14503   7.558   9.136   8.804  0.3825  0.5668  0.3691
  106MOL0     C14504   7.579   9.118   8.956  0.2632  0.8602 -0.3933
  106MOL0     C14505   7.556   8.966   9.001  0.0950 -0.2966  0.0300
  106MOL0     C14506   7.506   8.950   9.140 -0.0401 -0.4649 -0.5002
  106MOL0     N14507   7.617   8.984   9.233  0.1591  0.4240 -0.5990
  106MOL0     C14508   7.664   9.110   9.265  0.0456 -0.8332  0.8601
  106MOL0     C14509   7.768   9.086   9.343 -0.6985  0.3562 -0.1579
  106MOL0     C14510   7.856   9.199   9.380  0.0684 -0.3959 -0.7969
  106MOL0     C14511   7.989   9.181   9.316  0.2963  0.4227  0.0578
  106MOL0     C14512   8.094   9.290   9.351  0.0012  0.7194  0.2208
  106MOL0     C14513   8.231   9.260   9.283 -0.1902 -0.3213 -0.8525
  106MOL0     O14514   8.316   9.373   9.319  0.6861 -0.6881 -0.6130
  106MOL0     C14515   8.448   9.360   9.334 -0.4225  0.4775  0.1172
  106MOL0     C14516   8.525   9.267   9.261  0.6382 -0.6943  0.2705
  106MOL0     C14517   8.666   9.260   9.276 -0.7035 -0.2570  0.0291
  106MOL0     C14518   8.737   9.149   9.202 -0.0031 -0.1473 -0.6841
  106MOL0     C14519   8.732   9.354   9.357  0.2409 -0.9484  0.5263
  106MOL0     C14520   8.873   9.370   9.372  0.6694  0.3370 -0.3213
  106MOL0     O14521   8.934   9.256   9.358 -0.5186 -0.1915  0.6263
  106MOL0     C14522   9.075   9.262   9.355 -0.2219  0.6049 -0.2040
  106MOL0     C14523   9.133   9.155   9.424  1.0157  0.1572  0.0220
  106MOL0     C14524   9.270   9.147   9.436 -0.3262  0.0149  0.4294
  106MOL0     C14525   9.357   9.243   9.378 -0.1395 -0.1160  0.6782
  106MOL0     O14526   9.494   9.255   9.392 -0.3716 -0.0428  0.0824
  106MOL0     C14527   9.569   9.152   9.462 -0.0525 -0.1589  1.1381
  106MOL0     C14528   9.606   9.049   9.352 -0.0757 -0.5207  0.0132
  106MOL0     C14529   9.674   8.924   9.421 -0.3045 -0.7853  0.3241
  106MOL0     C14530   9.742   8.835   9.315 -0.2311  0.1144 -0.6143
  106MOL0     C14531   9.783   8.702   9.379 -0.8617  0.4057  0.2684
  106MOL0     C14532   9.790   8.581   9.292 -0.1744  0.3450  0.4623
  106MOL0     C14533   9.861   8.578   9.165 -1.0107  0.4787  0.6427
  106MOL0     C14534  10.013   8.602   9.173 -0.1313 -0.2102 -0.7453
  106MOL0    Cl14535  10.092   8.466   9.274  0.0378 -0.1466  0.2020
  106MOL0     C14536   9.303   9.345   9.302  0.0817  0.2419 -0.2281
  106MOL0     C14537   9.161   9.355   9.295  0.4247 -0.0968  0.8946
  106MOL0     O14538   8.920   9.471   9.404 -0.3846 -0.5455  0.2953
  106MOL0     C14539   8.654   9.460   9.420  0.0009  0.5452 -0.0088
  106MOL0     C14540   8.512   9.456   9.405 -0.5825 -0.5506 -0.0711
  106MOL0     N14541   7.778   8.949   9.369  0.1350 -0.2295  0.6727
  106MOL0     N14542   7.686   8.896   9.302  0.5518 -0.1260  0.2643
  106MOL0     C14543   7.356   9.640   8.994  0.4801  0.0180 -0.4531
  106MOL0     C14544   7.245   9.697   9.055  0.1727  0.4584 -1.3790
  106MOL0     C14545   6.848   9.909   9.131 -0.5934 -0.2209  0.4794
  106MOL0     C14546   6.873   9.963   9.260 -0.6361 -0.2138 -0.0330
  106MOL0     C14547   6.769  10.008   9.344  0.1364  0.6485 -0.7340
  106MOL0     C14548   6.642  10.005   9.300  0.9320  1.1651  0.4710
  106MOL0     O14549   6.545  10.066   9.376  0.1339 -0.4832  0.5206
  106MOL0     C14550   6.402  10.032   9.351 -0.9357 -0.8245 -0.4249
  106MOL0     C14551   6.326  10.112   9.451  0.1277  0.7252  0.5978
  106MOL0     C14552   6.362  10.045   9.587  0.1781  0.2894 -0.7933
  106MOL0     C14553   6.339  10.139   9.701 -0.6548 -0.4184 -0.3126
  106MOL0     C14554   6.200  10.169   9.704  0.2879 -0.1871 -0.2868
  106MOL0     C14555   6.083  10.202   9.702 -0.6031 -0.7425 -0.3041
  106MOL0     C14556   6.617   9.952   9.169  0.3242 -0.8383 -0.7282
  106MOL0     C14557   6.713   9.898   9.091 -0.3430  0.5736  0.1940
  106MOL0     C14558   6.677   9.820   8.967 -0.1418 -0.4880  0.4799
  106MOL0     H14559   7.209   9.974   8.874  3.3239  2.5084  1.4161
  106MOL0     H14560   7.401   9.880   8.756 -0.6251  1.4279  0.1515
  106MOL0     H14561   7.397   9.631   8.640  0.1240  0.4924  1.7352
  106MOL0     H14562   7.375   9.502   8.757 -0.8775  1.0306 -0.6745
  106MOL0     H14563   7.526   9.443   8.542 -2.6603  0.4067  1.1000
  106MOL0     H14564   7.649   9.546   8.633  0.6411  0.0082 -1.6767
  106MOL0     H14565   7.678   9.321   8.681 -1.0510 -0.7685 -0.2844
  106MOL0     H14566   7.653   9.425   8.811  1.1657  2.6637 -1.7951
  106MOL0     H14567   7.427   9.303   8.856  0.2514 -0.3405  0.5949
  106MOL0     H14568   7.423   9.271   8.686  2.2054  1.1789 -2.1365
  106MOL0     H14569   7.647   9.115   8.743  0.2043  0.9651 -0.0251
  106MOL0     H14570   7.486   9.059   8.776  1.6227  0.3366 -2.5247
  106MOL0     H14571   7.684   9.144   8.972  0.1046  2.4966 -1.7289
  106MOL0     H14572   7.518   9.187   9.015 -2.0688 -2.7828  1.8011
  106MOL0     H14573   7.654   8.917   8.989  0.4654  0.9249 -2.9587
  106MOL0     H14574   7.489   8.917   8.930 -1.0775 -0.6543  1.3571
  106MOL0     H14575   7.420   9.015   9.159 -0.2722 -1.5987  2.8650
  106MOL0     H14576   7.473   8.851   9.171 -0.0770  0.4452  2.6752
  106MOL0     H14577   7.618   9.196   9.218 -0.1477  0.0943  2.6735
  106MOL0     H14578   7.855   9.203   9.490 -1.8847 -0.6276 -0.7598
  106MOL0     H14579   7.813   9.296   9.351 -2.1844 -1.6127 -1.7991
  106MOL0     H14580   8.026   9.084   9.349  2.8795  0.5805 -2.0029
  106MOL0     H14581   7.973   9.187   9.208  0.8447  2.3078  0.0388
  106MOL0     H14582   8.056   9.387   9.319 -1.5075  0.8672  2.2182
  106MOL0     H14583   8.110   9.298   9.459  1.1451  2.1454 -0.0211
  106MOL0     H14584   8.267   9.163   9.320 -2.2844 -1.0536 -0.6444
  106MOL0     H14585   8.220   9.244   9.175  1.5555  2.4670 -1.5382
  106MOL0     H14586   8.484   9.199   9.186  3.8970 -0.6443 -1.7474
  106MOL0     H14587   8.791   9.081   9.269  1.5635  0.1438 -1.5859
  106MOL0     H14588   8.803   9.190   9.125  0.5470 -3.0499 -1.9070
  106MOL0     H14589   8.670   9.091   9.137 -1.3237  1.7620 -1.0933
  106MOL0     H14590   9.071   9.074   9.461  1.0218 -0.5189 -1.3861
  106MOL0     H14591   9.317   9.061   9.485  0.4330  0.1552 -0.0348
  106MOL0     H14592   9.655   9.203   9.506 -0.8194  2.1323  0.1242
  106MOL0     H14593   9.521   9.090   9.538 -0.2972 -1.6798 -0.2008
  106MOL0     H14594   9.515   9.003   9.312  0.1542 -0.6604 -0.3495
  106MOL0     H14595   9.675   9.098   9.282 -0.2764  1.4326  1.1077
  106MOL0     H14596   9.603   8.857   9.469  0.3815 -0.8722  1.2334
  106MOL0     H14597   9.751   8.960   9.490  1.9405 -1.7371 -1.5484
  106MOL0     H14598   9.833   8.886   9.281  0.2830 -0.5866 -0.3154
  106MOL0     H14599   9.672   8.813   9.234  1.2567  1.2939 -2.3012
  106MOL0     H14600   9.879   8.735   9.422 -1.4819  2.6613  0.0356
  106MOL0     H14601   9.720   8.663   9.460 -0.9045 -0.9943 -0.4068
  106MOL0     H14602   9.685   8.562   9.265 -0.0685  1.9928 -1.2482
  106MOL0     H14603   9.838   8.499   9.347  3.2491  2.2416  0.5759
  106MOL0     H14604   9.817   8.649   9.095 -1.0750 -0.7513 -0.6017
  106MOL0     H14605   9.836   8.482   9.119 -1.3363  1.1058 -0.5100
  106MOL0     H14606  10.032   8.689   9.236  1.6099 -1.6513  0.8099
  106MOL0     H14607  10.061   8.613   9.075  0.3585 -2.4159 -0.7990
  106MOL0     H14608   9.370   9.425   9.274  0.1184  1.4725  3.0105
  106MOL0     H14609   9.110   9.430   9.236 -0.8507 -1.2668  0.4586
  106MOL0     H14610   8.686   9.546   9.478  0.2835  0.3322  0.1520
  106MOL0     H14611   8.444   9.517   9.464 -0.8091 -0.0475 -0.8422
  106MOL0     H14612   7.389   9.548   9.041  0.3520  0.4865  0.5826
  106MOL0     H14613   7.205   9.639   9.137 -1.2576  2.2996 -0.6866
  106MOL0     H14614   6.975   9.980   9.290 -0.2479 -2.4968  0.1249
  106MOL0     H14615   6.801  10.035   9.444  3.7796 -1.1766 -1.2139
  106MOL0     H14616   6.373  10.062   9.250  1.0902  3.5895  0.0896
  106MOL0     H14617   6.389   9.923   9.353  0.7780 -1.1880 -3.2333
  106MOL0     H14618   6.220  10.095   9.431  0.0124 -0.4627  2.0133
  106MOL0     H14619   6.349  10.219   9.459  0.2170  0.5936  3.1350
  106MOL0     H14620   6.298   9.957   9.596 -0.2162  0.7661  2.7034
  106MOL0     H14621   6.468  10.024   9.598  0.3521  1.4157 -0.1492
  106MOL0     H14622   6.404  10.227   9.703  1.1949 -1.6325  3.7032
  106MOL0     H14623   6.356  10.085   9.795  0.9044 -2.0137 -1.4330
  106MOL0     H14624   5.982  10.235   9.709 -0.4403  0.0710 -1.5604
  106MOL0     H14625   6.517   9.964   9.129  0.5153  1.2238 -0.6987
  106MOL0     H14626   6.637   9.888   8.890 -0.4916 -1.8216 -0.5608
  106MOL0     H14627   6.759   9.766   8.919 -0.0991  2.5991 -3.5286
  106MOL0     H14628   6.586   9.759   8.978 -2.5942  2.5225 -1.4189
  107MOL0     O14629   2.865  10.547   2.600  0.7557  0.4946  0.3432
  107MOL0     C14630   2.898  10.492   2.500  0.1299  0.7475  0.3818
  107MOL0     O14631   2.952  10.555   2.392 -0.1658  0.0621  0.0654
  107MOL0     C14632   2.948  10.698   2.396  0.5444  0.2845 -0.2521
  107MOL0     C14633   2.859  10.771   2.315  0.9425 -1.0449 -1.0979
  107MOL0     C14634   2.861  10.914   2.320 -0.1608  0.4217 -0.3220
  107MOL0     C14635   2.954  10.977   2.403 -0.2339 -0.4824 -0.7627
  107MOL0     O14636   2.955  11.113   2.404 -0.2385  0.2619  0.6232
  107MOL0     C14637   3.075  11.182   2.407 -0.0225 -0.1300  0.2815
  107MOL0     C14638   3.053  11.309   2.332 -0.8260 -0.0755 -0.2835
  107MOL0     C14639   3.186  11.395   2.320  1.3056  0.0167  0.6971
  107MOL0     C14640   3.211  11.479   2.449  0.7011 -0.2196  0.3000
  107MOL0     C14641   3.319  11.587   2.428 -0.4050 -0.3815  0.5766
  107MOL0     C14642   3.378  11.635   2.570  0.6239  0.3311  0.2153
  107MOL0     C14643   3.498  11.719   2.549  1.5278  0.2889  0.6748
  107MOL0     C14644   3.582  11.718   2.680 -0.4817 -0.0571 -0.5906
  107MOL0     N14645   3.528  11.799   2.796 -0.0069  1.0782 -0.0328
  107MOL0     C14646   3.414  11.776   2.861  0.1207 -0.2033  0.2225
  107MOL0     C14647   3.421  11.856   2.968  0.0662 -0.1657 -0.2329
  107MOL0     C14648   3.326  11.869   3.091 -0.6671 -0.1745  0.1505
  107MOL0     C14649   3.322  11.726   3.156  0.9834 -0.0159 -0.5670
  107MOL0     C14650   3.296  11.726   3.314  0.2403 -0.5272 -0.4084
  107MOL0     C14651   3.151  11.762   3.341  0.2172  0.1951  0.1236
  107MOL0     O14652   3.132  11.904   3.319  0.2778 -0.0269 -0.0183
  107MOL0     C14653   3.001  11.946   3.346 -0.3408 -0.3887 -0.0129
  107MOL0     C14654   2.990  12.084   3.330 -0.7124 -0.0930 -0.6342
  107MOL0     C14655   2.876  12.149   3.379 -0.8108 -0.6268 -0.2584
  107MOL0     C14656   2.866  12.297   3.348 -0.5324 -0.0517  0.3731
  107MOL0     C14657   2.772  12.072   3.438 -0.5199  0.0496 -0.0552
  107MOL0     C14658   2.659  12.133   3.503  1.2018  0.4872  0.0489
  107MOL0     O14659   2.684  12.242   3.587 -0.1461  0.1266 -0.5455
  107MOL0     C14660   2.585  12.313   3.655 -0.2961 -0.6411  0.2051
  107MOL0     C14661   2.637  12.405   3.751  0.2055 -0.2982 -0.4203
  107MOL0     C14662   2.540  12.474   3.825  0.3451 -0.5853 -0.4624
  107MOL0     C14663   2.399  12.458   3.819 -0.5641 -1.1432 -0.0786
  107MOL0     O14664   2.329  12.547   3.896 -0.3244 -0.1334 -0.1728
  107MOL0     C14665   2.184  12.534   3.913  0.2526  0.5977 -0.4683
  107MOL0     C14666   2.134  12.601   4.048 -0.1747 -0.6930  0.0049
  107MOL0     C14667   1.981  12.612   4.061  0.2742 -0.2060 -0.0655
  107MOL0     C14668   1.926  12.465   4.086  0.2409 -0.5099  0.2965
  107MOL0     C14669   1.774  12.452   4.104  0.0380 -0.8174 -0.4428
  107MOL0     C14670   1.742  12.514   4.243 -0.0985 -0.6740  0.4586
  107MOL0     C14671   1.615  12.447   4.292 -0.4869 -0.4761 -0.8461
  107MOL0     C14672   1.612  12.474   4.437  0.1096 -0.3766  1.2050
  107MOL0    Cl14673   1.453  12.441   4.506 -0.1589 -0.1247  0.2490
  107MOL0     C14674   2.355  12.371   3.727 -0.8706  0.6229  0.2833
  107MOL0     C14675   2.436  12.302   3.637 -0.5355 -0.4623 -0.1133
  107MOL0     O14676   2.549  12.075   3.502 -0.3120 -0.1061 -0.8011
  107MOL0     C14677   2.780  11.931   3.438  0.4183  0.1681  0.0777
  107MOL0     C14678   2.896  11.869   3.394 -0.3488  0.4224  0.4859
  107MOL0     N14679   3.524  11.948   2.954  0.6727  0.0854 -0.6479
  107MOL0     N14680   3.593  11.899   2.858  0.3725 -0.3905  0.6201
  107MOL0     C14681   3.040  10.903   2.484  0.3500 -0.5645 -0.3280
  107MOL0     C14682   3.037  10.768   2.478  0.2121 -0.5153 -0.7766
  107MOL0     C14683   2.831  10.352   2.482 -0.6422 -0.2261  0.6572
  107MOL0     C14684   2.845  10.302   2.351  0.3814  0.0129 -0.0288
  107MOL0     C14685   2.793  10.175   2.326  0.2153 -0.1455  0.4535
  107MOL0     C14686   2.712  10.098   2.421 -0.6276  0.3021  0.2459
  107MOL0     O14687   2.669   9.969   2.389  0.3683  0.1166 -0.5173
  107MOL0     C14688   2.544   9.921   2.447  0.3391 -0.4878 -0.4513
  107MOL0     C14689   2.492   9.801   2.370 -0.2200  0.3668  0.4203
  107MOL0     C14690   2.358   9.747   2.413  0.9549  0.5609 -0.4749
  107MOL0     C14691   2.348   9.704   2.556  0.0175  0.0716  0.1983
  107MOL0     C14692   2.458   9.621   2.609 -0.0038 -0.5378  0.4156
  107MOL0     C14693   2.552   9.554   2.649  0.3888  0.3251  0.8172
  107MOL0     C14694   2.709  10.149   2.550  0.1019 -0.1449  0.4020
  107MOL0     C14695   2.770  10.276   2.581  0.0044  0.6161 -0.2328
  107MOL0     C14696   2.752  10.324   2.718  0.1330  0.2942 -0.4886
  107MOL0     H14697   2.786  10.724   2.250 -1.8257  1.0855  0.2696
  107MOL0     H14698   2.791  10.973   2.262  1.5513  0.6228 -2.3168
  107MOL0     H14699   3.150  11.125   2.351 -0.6509  0.3764 -1.1123
  107MOL0     H14700   3.114  11.202   2.507  0.8087 -0.0693 -0.0454
  107MOL0     H14701   3.021  11.287   2.229 -0.6272 -2.4938  0.1231
  107MOL0     H14702   2.967  11.342   2.391 -0.8402 -2.7285  1.3451
  107MOL0     H14703   3.275  11.337   2.293  0.9793 -1.6480  2.9541
  107MOL0     H14704   3.168  11.472   2.244 -0.0705  0.5571  1.5388
  107MOL0     H14705   3.120  11.515   2.497  0.4004  2.1399 -1.8323
  107MOL0     H14706   3.246  11.404   2.521  1.3418 -2.0761 -1.8222
  107MOL0     H14707   3.288  11.671   2.366  1.6028 -0.2524 -0.3362
  107MOL0     H14708   3.408  11.554   2.373  0.9512 -0.1647  2.5602
  107MOL0     H14709   3.301  11.679   2.634 -2.0028 -0.7092 -2.0497
  107MOL0     H14710   3.402  11.539   2.615 -0.4527  0.9955  2.3254
  107MOL0     H14711   3.474  11.823   2.526  1.9913  0.4067  0.7064
  107MOL0     H14712   3.558  11.686   2.464  1.5815  2.1437 -0.0595
  107MOL0     H14713   3.603  11.618   2.719 -1.1769  0.1856  0.4276
  107MOL0     H14714   3.682  11.756   2.658 -0.9223  1.4931 -0.0508
  107MOL0     H14715   3.347  11.691   2.855 -1.9394  1.1858  1.8063
  107MOL0     H14716   3.223  11.900   3.070 -0.3948  0.2778 -0.5732
  107MOL0     H14717   3.363  11.940   3.165 -2.8347 -1.7555  2.9570
  107MOL0     H14718   3.254  11.658   3.105  2.4826 -0.3034 -2.3103
  107MOL0     H14719   3.418  11.674   3.142  1.0540 -0.4820  1.3888
  107MOL0     H14720   3.323  11.625   3.347  5.7676  0.3086 -1.4330
  107MOL0     H14721   3.367  11.790   3.366 -0.1109 -0.8488  0.4775
  107MOL0     H14722   3.081  11.715   3.271 -2.6230  4.2270 -0.1341
  107MOL0     H14723   3.138  11.723   3.442  0.4022 -0.0650  0.0468
  107MOL0     H14724   3.075  12.140   3.293 -0.8904  0.0208 -0.8717
  107MOL0     H14725   2.759  12.318   3.342 -0.7937 -1.5380 -0.6364
  107MOL0     H14726   2.916  12.317   3.253  1.3833  0.0484  1.3317
  107MOL0     H14727   2.905  12.361   3.429 -3.7909  3.7788 -0.7605
  107MOL0     H14728   2.740  12.433   3.770 -0.2249  1.1314 -0.1149
  107MOL0     H14729   2.569  12.549   3.898 -2.0941  0.4418 -0.4652
  107MOL0     H14730   2.154  12.595   3.827 -3.0066  1.6647  1.2802
  107MOL0     H14731   2.133  12.439   3.897 -1.4076  1.5334 -0.9774
  107MOL0     H14732   2.184  12.555   4.134 -1.1320  1.3477  1.7329
  107MOL0     H14733   2.167  12.704   4.034 -2.2577 -0.1299 -1.1137
  107MOL0     H14734   1.939  12.658   3.971 -1.0826 -0.5262  0.3722
  107MOL0     H14735   1.938  12.676   4.139 -0.2857 -2.1964  1.3280
  107MOL0     H14736   1.975  12.424   4.175  1.0695  1.5410  0.8535
  107MOL0     H14737   1.962  12.412   3.998 -1.0109 -1.8259  0.5383
  107MOL0     H14738   1.722  12.508   4.027  0.2388 -0.3878 -0.2691
  107MOL0     H14739   1.748  12.346   4.094 -0.9183 -0.3418 -5.2660
  107MOL0     H14740   1.736  12.624   4.238  1.7589 -0.5612 -0.0385
  107MOL0     H14741   1.818  12.473   4.310 -0.3861 -1.3786  0.3575
  107MOL0     H14742   1.612  12.339   4.274 -0.4850 -0.7221  0.5389
  107MOL0     H14743   1.531  12.490   4.237  1.0633  2.1662 -1.3430
  107MOL0     H14744   1.632  12.580   4.451  1.5507 -0.2358 -1.3278
  107MOL0     H14745   1.701  12.430   4.485 -0.1320 -0.1662  1.8528
  107MOL0     H14746   2.249  12.355   3.708 -0.5441 -1.1496 -0.3226
  107MOL0     H14747   2.393  12.236   3.562 -0.8895  0.3762 -0.6677
  107MOL0     H14748   2.707  11.877   3.496  0.8603 -1.6278 -0.9667
  107MOL0     H14749   2.901  11.762   3.406  3.6654  0.6514  2.8086
  107MOL0     H14750   3.123  10.955   2.532  1.0557 -2.1419  0.2392
  107MOL0     H14751   3.103  10.706   2.538  1.9754  0.1613 -1.9231
  107MOL0     H14752   2.896  10.340   2.263  0.7143 -1.8739 -0.6879
  107MOL0     H14753   2.805  10.146   2.222  2.5584 -0.7696  0.8339
  107MOL0     H14754   2.557   9.898   2.553  0.2191  1.1990 -0.0446
  107MOL0     H14755   2.475  10.006   2.446  1.7241  0.6785 -0.9117
  107MOL0     H14756   2.558   9.714   2.375 -0.0209  0.2004 -2.8285
  107MOL0     H14757   2.477   9.828   2.265 -0.4263  1.1639  0.6520
  107MOL0     H14758   2.276   9.816   2.392 -0.2359 -0.9386 -0.9579
  107MOL0     H14759   2.327   9.661   2.352  2.0734 -0.3594  0.2316
  107MOL0     H14760   2.256   9.646   2.570 -0.4557  0.7570 -0.0135
  107MOL0     H14761   2.341   9.799   2.609  3.2892  2.0452 -2.4846
  107MOL0     H14762   2.630   9.483   2.668 -0.4607 -1.0726 -0.6056
  107MOL0     H14763   2.648  10.099   2.625 -0.5193 -0.7991 -0.5293
  107MOL0     H14764   2.706  10.243   2.774  0.8899  1.2466  1.6193
  107MOL0     H14765   2.851  10.335   2.763  1.3148 -2.3995 -2.1718
  107MOL0     H14766   2.707  10.420   2.744  0.2705 -0.6574  4.0001
  108MOL0     O14767   5.975   6.248   9.103 -0.1370  1.0479 -0.0407
  108MOL0     C14768   5.890   6.222   9.021  0.6808 -0.1375  0.9798
  108MOL0     O14769   5.908   6.240   8.883 -0.2110 -0.4502  0.0065
  108MOL0     C14770   6.027   6.302   8.848  0.0258  0.1848 -0.0416
  108MOL0     C14771   6.124   6.223   8.782  0.4203  0.0021 -1.3629
  108MOL0     C14772   6.244   6.285   8.744 -0.2522 -0.7989  0.7937
  108MOL0     C14773   6.268   6.421   8.765  0.2935  0.6561  0.1069
  108MOL0     O14774   6.373   6.494   8.736 -0.1578 -0.4100  0.0622
  108MOL0     C14775   6.495   6.416   8.722 -0.0785  0.5365  0.5576
  108MOL0     C14776   6.612   6.508   8.774  0.4992 -0.0204  0.5894
  108MOL0     C14777   6.739   6.414   8.782  0.2013  0.3776 -0.6225
  108MOL0     C14778   6.843   6.480   8.873  0.8021  0.1534 -0.5701
  108MOL0     C14779   6.971   6.535   8.796 -0.4577  0.7877 -0.0366
  108MOL0     C14780   7.047   6.413   8.740  0.3153  0.2910 -0.0257
  108MOL0     C14781   7.167   6.458   8.655  0.6632 -0.1826 -0.6868
  108MOL0     C14782   7.237   6.337   8.596  0.1321 -0.2526 -0.0341
  108MOL0     N14783   7.342   6.398   8.507 -0.0968  0.3148 -0.1833
  108MOL0     C14784   7.464   6.437   8.552  0.2827 -0.4217  0.5712
  108MOL0     C14785   7.512   6.524   8.456 -0.1718  0.0751  0.1103
  108MOL0     C14786   7.644   6.600   8.459 -0.0515 -0.8510  0.3740
  108MOL0     C14787   7.744   6.534   8.382  0.0630  0.3784 -0.3033
  108MOL0     C14788   7.751   6.584   8.242 -0.3313  0.0977  0.3554
  108MOL0     C14789   7.866   6.510   8.163 -0.2592 -0.5583  0.4315
  108MOL0     O14790   7.912   6.592   8.059  0.3996 -0.0612 -0.2177
  108MOL0     C14791   8.031   6.555   7.990 -0.3945  0.0937  0.1002
  108MOL0     C14792   8.099   6.433   7.999  0.0281  0.8601  0.0850
  108MOL0     C14793   8.218   6.406   7.935 -0.0837  0.4686 -0.9117
  108MOL0     C14794   8.279   6.262   7.953 -0.1731  0.1748  0.1963
  108MOL0     C14795   8.280   6.499   7.851 -1.0205  0.5891  1.0698
  108MOL0     C14796   8.410   6.471   7.777  0.2042 -0.0812 -0.9034
  108MOL0     O14797   8.442   6.560   7.672 -0.6261  0.4610  0.1713
  108MOL0     C14798   8.551   6.538   7.583  0.2920  0.3725 -0.2945
  108MOL0     C14799   8.662   6.445   7.608  0.4125  1.2221  0.0592
  108MOL0     C14800   8.773   6.437   7.522 -0.4946 -0.8983  0.0725
  108MOL0     C14801   8.766   6.504   7.395  0.8922  0.0858 -0.6126
  108MOL0     O14802   8.855   6.491   7.293  0.2874  0.4839 -0.2819
  108MOL0     C14803   8.973   6.413   7.314  0.4535 -0.1248 -1.3760
  108MOL0     C14804   9.051   6.389   7.185  0.1750 -0.4759  0.4555
  108MOL0     C14805   9.191   6.323   7.192 -0.1435 -0.1833 -1.3139
  108MOL0     C14806   9.246   6.270   7.064 -0.1141 -0.3266 -0.5472
  108MOL0     C14807   9.388   6.218   7.094  0.1541  0.2783  0.0778
  108MOL0     C14808   9.449   6.170   6.964  0.3161 -1.1740  0.2499
  108MOL0     C14809   9.580   6.099   6.992  1.0553  0.1589  0.3845
  108MOL0     C14810   9.662   6.077   6.859  0.2613 -0.1545 -0.2476
  108MOL0    Cl14811   9.717   6.236   6.797 -0.5139  0.0131  0.1488
  108MOL0     C14812   8.657   6.589   7.377  0.3588 -0.0986  0.6622
  108MOL0     C14813   8.553   6.612   7.470 -1.0964  0.4030  0.6549
  108MOL0     O14814   8.482   6.382   7.822  0.0950 -0.4249  0.0611
  108MOL0     C14815   8.208   6.623   7.832 -0.8949 -0.0141 -0.3060
  108MOL0     C14816   8.093   6.658   7.908 -0.0193  0.5196  0.4397
  108MOL0     N14817   7.429   6.530   8.349  0.4154  0.0494  0.1072
  108MOL0     N14818   7.324   6.459   8.383 -0.3335  0.0791  0.2853
  108MOL0     C14819   6.171   6.493   8.837 -0.7098  0.1527  0.5924
  108MOL0     C14820   6.053   6.432   8.873 -0.7938 -0.2771  0.3497
  108MOL0     C14821   5.748   6.179   9.060  0.9121 -0.2193  0.4165
  108MOL0     C14822   5.645   6.163   8.966  0.1148 -0.4963  0.1184
  108MOL0     C14823   5.513   6.126   8.999 -0.8931 -0.8183 -0.6893
  108MOL0     C14824   5.483   6.107   9.136 -0.1616 -0.5466 -0.2303
  108MOL0     O14825   5.362   6.062   9.177  0.1513 -0.7332  0.0075
  108MOL0     C14826   5.246   6.069   9.094  0.0066 -0.6924  0.3406
  108MOL0     C14827   5.117   6.051   9.166  0.0611 -0.7746 -0.2263
  108MOL0     C14828   5.107   5.912   9.230 -0.0646 -0.4054  0.4830
  108MOL0     C14829   5.034   5.931   9.366 -1.1943 -0.6959 -0.5155
  108MOL0     C14830   4.893   5.973   9.373 -0.2957 -0.4345 -0.2519
  108MOL0     C14831   4.783   6.013   9.395  0.7871  0.3205 -0.2524
  108MOL0     C14832   5.590   6.124   9.231  0.5784 -0.2368  0.6385
  108MOL0     C14833   5.718   6.143   9.195 -0.4136 -0.1511  0.1271
  108MOL0     C14834   5.816   6.150   9.321  0.2818  0.0747  0.1070
  108MOL0     H14835   6.093   6.124   8.751 -2.4574  0.6771 -0.9236
  108MOL0     H14836   6.325   6.238   8.690  0.9371  2.1282 -0.2035
  108MOL0     H14837   6.514   6.388   8.618  0.6721 -2.9893  1.5167
  108MOL0     H14838   6.492   6.325   8.782 -0.7094  1.6743  2.3226
  108MOL0     H14839   6.632   6.580   8.694  2.3805  3.2945  3.7878
  108MOL0     H14840   6.607   6.563   8.868  3.3104  1.4280 -0.0076
  108MOL0     H14841   6.704   6.324   8.834 -0.5944  0.7175 -0.5618
  108MOL0     H14842   6.774   6.379   8.684 -2.0325 -0.7746 -1.0806
  108MOL0     H14843   6.798   6.565   8.924  1.5316  1.2093 -1.6240
  108MOL0     H14844   6.879   6.406   8.945  0.5939 -1.4014 -1.9760
  108MOL0     H14845   7.043   6.581   8.865  1.4865 -3.5642  1.1957
  108MOL0     H14846   6.950   6.606   8.716 -2.0398  1.3340  0.8395
  108MOL0     H14847   7.079   6.344   8.818 -0.5287  0.0850  0.1438
  108MOL0     H14848   6.984   6.345   8.682  0.0679  0.5631 -0.0774
  108MOL0     H14849   7.233   6.512   8.723  0.0578 -0.0856 -0.1674
  108MOL0     H14850   7.130   6.519   8.572 -1.3959  0.4703  0.6378
  108MOL0     H14851   7.276   6.279   8.680 -1.5567 -0.7266  0.4536
  108MOL0     H14852   7.170   6.275   8.536 -0.3957  1.7651 -1.6459
  108MOL0     H14853   7.510   6.403   8.645 -1.1190 -0.0528  1.4237
  108MOL0     H14854   7.671   6.601   8.565 -0.5792  0.1726  0.5105
  108MOL0     H14855   7.619   6.703   8.431 -0.1449 -0.5490  1.5368
  108MOL0     H14856   7.843   6.533   8.427  0.6465 -1.8001 -1.4752
  108MOL0     H14857   7.716   6.428   8.379 -0.6209  0.5181  0.6641
  108MOL0     H14858   7.657   6.590   8.186 -1.6621 -2.9063  2.0629
  108MOL0     H14859   7.783   6.687   8.258  0.3912 -0.3957  2.3340
  108MOL0     H14860   7.951   6.480   8.224  2.3827 -1.9806 -3.5073
  108MOL0     H14861   7.832   6.423   8.106 -0.5771 -0.7755  0.9489
  108MOL0     H14862   8.056   6.359   8.065 -0.1610  1.0167  0.1397
  108MOL0     H14863   8.316   6.220   7.859  1.3758 -0.5857  1.1206
  108MOL0     H14864   8.194   6.201   7.984 -1.2705  2.7954  2.8305
  108MOL0     H14865   8.355   6.265   8.032  1.4714 -1.9375 -1.1870
  108MOL0     H14866   8.670   6.377   7.693  2.7520  2.8272  1.2334
  108MOL0     H14867   8.864   6.387   7.552  0.1639  0.1752 -0.1000
  108MOL0     H14868   9.028   6.469   7.390 -1.0079 -0.4256 -0.0378
  108MOL0     H14869   8.961   6.315   7.361  0.6254  0.3754 -0.2558
  108MOL0     H14870   8.987   6.321   7.128  0.3252  1.7507 -2.6127
  108MOL0     H14871   9.068   6.481   7.128  0.5816 -1.4877 -1.1428
  108MOL0     H14872   9.183   6.236   7.258  0.6365 -2.7830 -4.3687
  108MOL0     H14873   9.259   6.392   7.243  2.3716  0.5419 -5.1796
  108MOL0     H14874   9.238   6.352   6.992  1.3945  1.3919  1.1339
  108MOL0     H14875   9.175   6.193   7.033 -0.9305  0.1173  0.1710
  108MOL0     H14876   9.442   6.303   7.138 -1.0384  0.5485  1.0716
  108MOL0     H14877   9.391   6.136   7.166 -2.3249 -2.2323 -2.4600
  108MOL0     H14878   9.461   6.252   6.893 -0.4122 -0.6245  0.7408
  108MOL0     H14879   9.383   6.096   6.918 -1.7292  0.9310 -0.3547
  108MOL0     H14880   9.577   5.998   7.035 -0.1232 -1.0798 -2.3577
  108MOL0     H14881   9.639   6.162   7.059  0.5208  3.4519 -1.9957
  108MOL0     H14882   9.594   6.031   6.787 -0.9183 -1.0259  1.3424
  108MOL0     H14883   9.744   6.008   6.881  1.7884  2.1529  1.8841
  108MOL0     H14884   8.652   6.632   7.277  1.6651  1.8126  1.3472
  108MOL0     H14885   8.469   6.678   7.456 -1.2079  0.1387  0.0031
  108MOL0     H14886   8.249   6.702   7.770 -2.1421  1.0139  0.1227
  108MOL0     H14887   8.056   6.757   7.883  3.2257  0.8849 -4.0801
  108MOL0     H14888   6.196   6.590   8.879  2.7653  0.4208 -1.6641
  108MOL0     H14889   5.983   6.497   8.925 -0.5307  0.6661 -0.4616
  108MOL0     H14890   5.672   6.165   8.861  1.2501 -2.9695  0.2911
  108MOL0     H14891   5.451   6.109   8.911  1.3878  1.3182 -2.8313
  108MOL0     H14892   5.244   6.164   9.041  1.9258 -1.0302 -0.4237
  108MOL0     H14893   5.245   5.990   9.018 -2.5666 -0.3669 -0.0248
  108MOL0     H14894   5.037   6.054   9.092  0.0638 -1.6134 -0.2684
  108MOL0     H14895   5.098   6.133   9.236 -1.6108  0.7817 -2.3750
  108MOL0     H14896   5.052   5.839   9.171  0.2757  1.8006 -2.8277
  108MOL0     H14897   5.211   5.882   9.244  0.1405 -0.4197 -0.9512
  108MOL0     H14898   5.097   5.999   9.424 -1.3291 -0.2663 -0.8645
  108MOL0     H14899   5.040   5.839   9.424 -1.2770  0.5604  1.5646
  108MOL0     H14900   4.679   6.040   9.400 -0.1018 -1.9245 -3.4664
  108MOL0     H14901   5.565   6.111   9.336  3.0160 -0.6356  1.2316
  108MOL0     H14902   5.829   6.253   9.353  0.1633  0.0957  0.0859
  108MOL0     H14903   5.774   6.093   9.405 -2.3752  1.9604  0.1731
  108MOL0     H14904   5.915   6.116   9.287  0.2148  2.3408 -2.7443
  109MOL0     O14905   4.445   3.718   1.937 -0.4892  0.4620 -0.5529
  109MOL0     C14906   4.381   3.641   2.005  0.2301  0.8983  0.2462
  109MOL0     O14907   4.414   3.518   2.033  0.3078  0.0125  0.0467
  109MOL0     C14908   4.523   3.441   1.990  0.0489 -0.2308  0.2311
  109MOL0     C14909   4.610   3.476   1.884  0.2929 -0.4128  0.0146
  109MOL0     C14910   4.714   3.401   1.836  0.5443  0.5777  0.1151
  109MOL0     C14911   4.731   3.274   1.889  0.4293  0.8310  0.1227
  109MOL0     O14912   4.835   3.193   1.849 -0.2184  0.2274 -0.1395
  109MOL0     C14913   4.844   3.167   1.708 -0.1356 -0.4437  0.1471
  109MOL0     C14914   4.875   3.022   1.689 -0.9103  0.2991 -0.0002
  109MOL0     C14915   4.782   2.911   1.731 -0.0931  0.2589  0.1675
  109MOL0     C14916   4.836   2.792   1.807 -0.6699  0.3891  0.0807
  109MOL0     C14917   4.722   2.707   1.859  0.5523  0.3539  0.6107
  109MOL0     C14918   4.782   2.577   1.899 -0.3879  1.3488 -0.1052
  109MOL0     C14919   4.682   2.465   1.925  0.7912 -0.3706  0.8462
  109MOL0     C14920   4.764   2.336   1.954  0.1260 -0.6989  1.0768
  109MOL0     N14921   4.698   2.212   2.008  0.3589  0.2988  0.2556
  109MOL0     C14922   4.563   2.193   2.013  0.6333 -0.6979  0.0767
  109MOL0     C14923   4.547   2.078   2.071  0.4251  0.0339 -0.2120
  109MOL0     C14924   4.417   2.013   2.125  0.0568  0.7431 -0.1677
  109MOL0     C14925   4.356   1.906   2.027 -0.5120  0.3283 -0.1674
  109MOL0     C14926   4.302   1.950   1.889 -0.7091 -0.1756 -0.6001
  109MOL0     C14927   4.162   1.995   1.903 -0.3436  0.0013 -0.1935
  109MOL0     O14928   4.143   2.088   1.799 -0.1350  0.5836  0.7577
  109MOL0     C14929   4.014   2.138   1.776 -0.2684  0.8598 -1.0012
  109MOL0     C14930   4.009   2.237   1.683 -0.2916 -0.5111  0.4634
  109MOL0     C14931   3.891   2.281   1.630 -0.7502 -0.2281 -0.5231
  109MOL0     C14932   3.911   2.387   1.523  0.0554  1.0672  0.5641
  109MOL0     C14933   3.766   2.238   1.682 -0.9195 -0.0473 -0.5780
  109MOL0     C14934   3.631   2.284   1.630 -0.6290 -0.7108  0.1263
  109MOL0     O14935   3.621   2.355   1.512  0.6916 -0.1902  0.0546
  109MOL0     C14936   3.489   2.384   1.469  0.0723 -0.4369 -0.1583
  109MOL0     C14937   3.448   2.358   1.335  0.0744 -0.0324  0.3767
  109MOL0     C14938   3.323   2.397   1.294 -0.1651 -0.5069  0.7167
  109MOL0     C14939   3.234   2.457   1.378  0.3405  0.6888  0.1142
  109MOL0     O14940   3.112   2.495   1.325 -0.0959  0.6901  0.3007
  109MOL0     C14941   3.105   2.631   1.277 -0.4000 -0.0056 -0.3563
  109MOL0     C14942   2.971   2.648   1.211  0.2576  0.5708 -0.6553
  109MOL0     C14943   2.941   2.796   1.168 -0.5020  0.8060  1.0375
  109MOL0     C14944   2.865   2.813   1.028  0.1550 -0.2748 -0.6461
  109MOL0     C14945   2.842   2.965   1.006  0.2099  0.2912  0.7755
  109MOL0     C14946   2.799   3.047   1.134  0.2730 -0.2109 -0.1246
  109MOL0     C14947   2.785   3.195   1.106 -0.3897  0.6456  0.3391
  109MOL0     C14948   2.895   3.266   1.018 -0.0873 -0.4317 -1.0732
  109MOL0    Cl14949   3.054   3.247   1.086 -0.3187 -0.3129  0.0369
  109MOL0     C14950   3.272   2.476   1.507  0.2969 -0.2403 -0.5180
  109MOL0     C14951   3.396   2.452   1.553  0.4962 -0.5764  0.7432
  109MOL0     O14952   3.544   2.264   1.711 -0.6062  0.5177  0.3672
  109MOL0     C14953   3.771   2.139   1.788  0.3835 -0.4448  0.6954
  109MOL0     C14954   3.893   2.089   1.831  0.7845 -0.1003  0.0933
  109MOL0     N14955   4.672   2.025   2.094  0.1475 -0.0952  0.1193
  109MOL0     N14956   4.764   2.098   2.043 -0.2328 -0.9349 -0.6561
  109MOL0     C14957   4.635   3.228   1.980 -0.3358  0.2454  0.2028
  109MOL0     C14958   4.536   3.308   2.038  0.8259 -0.7089 -0.8311
  109MOL0     C14959   4.234   3.674   2.018  0.1609  0.6719  0.6724
  109MOL0     C14960   4.148   3.566   2.006  0.9197  0.1010 -0.0247
  109MOL0     C14961   4.003   3.602   2.012 -0.0057  0.1083 -1.1265
  109MOL0     C14962   3.960   3.736   2.013 -0.3823  0.0089 -0.1569
  109MOL0     O14963   3.828   3.780   2.013  0.7532 -0.4550 -0.2215
  109MOL0     C14964   3.724   3.679   2.018 -0.5850 -1.0166  0.3587
  109MOL0     C14965   3.583   3.762   2.027 -0.3299 -0.1083 -0.4613
  109MOL0     C14966   3.464   3.669   2.045 -0.1310 -0.0223  0.7275
  109MOL0     C14967   3.344   3.751   2.085  0.1979  0.7552  0.4252
  109MOL0     C14968   3.230   3.656   2.093 -0.3351  0.2491  0.2811
  109MOL0     C14969   3.145   3.575   2.118 -0.4314  0.6775  0.2974
  109MOL0     C14970   4.053   3.840   2.028 -0.3885  0.1838 -0.2204
  109MOL0     C14971   4.189   3.804   2.040 -0.3029 -0.4097 -0.1973
  109MOL0     C14972   4.285   3.921   2.065  0.3122  0.3580  0.1299
  109MOL0     H14973   4.612   3.576   1.842  1.2978 -0.0306  0.9628
  109MOL0     H14974   4.791   3.437   1.768  1.7877 -2.9212 -0.5088
  109MOL0     H14975   4.923   3.228   1.664  0.8191 -1.3332  0.5823
  109MOL0     H14976   4.751   3.189   1.655 -0.7850 -1.6001  0.7867
  109MOL0     H14977   4.890   3.012   1.581  2.7950  0.5405  0.3940
  109MOL0     H14978   4.970   2.995   1.735 -1.1616  0.5963  0.7006
  109MOL0     H14979   4.707   2.960   1.793  0.3032  0.3700  0.5676
  109MOL0     H14980   4.733   2.871   1.642  0.5725 -0.5439  0.1471
  109MOL0     H14981   4.890   2.734   1.732  0.9965  1.5209  0.3173
  109MOL0     H14982   4.896   2.807   1.898 -0.9982 -3.0410  0.9947
  109MOL0     H14983   4.635   2.694   1.794  1.2399 -2.8601  0.1543
  109MOL0     H14984   4.691   2.758   1.951  1.8654 -0.8845  1.7924
  109MOL0     H14985   4.846   2.530   1.824 -1.3502  0.2748 -0.2815
  109MOL0     H14986   4.841   2.593   1.990 -2.6589  2.2973  1.2873
  109MOL0     H14987   4.627   2.446   1.833  1.8560  0.2233  0.0699
  109MOL0     H14988   4.620   2.490   2.012  0.9445 -1.9549  1.4531
  109MOL0     H14989   4.826   2.307   1.869 -0.5314 -0.8200  0.6318
  109MOL0     H14990   4.831   2.373   2.032 -1.0946 -0.1512  1.9079
  109MOL0     H14991   4.495   2.275   1.992  1.6240 -0.5640 -3.0368
  109MOL0     H14992   4.340   2.088   2.146 -2.4363 -1.9136  0.7739
  109MOL0     H14993   4.429   1.969   2.225 -2.3479  0.2007 -0.0644
  109MOL0     H14994   4.445   1.854   1.991 -2.7119 -1.2973 -3.8188
  109MOL0     H14995   4.290   1.842   2.087 -0.2115 -0.5310 -0.7335
  109MOL0     H14996   4.366   2.034   1.861  1.1806 -0.9327  1.1616
  109MOL0     H14997   4.308   1.877   1.807  0.3201 -0.6517 -0.1136
  109MOL0     H14998   4.098   1.908   1.887 -0.9288  0.7650 -2.3491
  109MOL0     H14999   4.140   2.046   1.997  0.3311  1.4552 -0.7894
  109MOL0     H15000   4.102   2.279   1.649 -0.1728 -2.4066 -1.7899
  109MOL0     H15001   4.016   2.416   1.516  0.9206 -2.0533 -1.8322
  109MOL0     H15002   3.848   2.475   1.541 -2.0986 -0.2994  0.0270
  109MOL0     H15003   3.900   2.341   1.424 -1.7535  1.9985  0.2842
  109MOL0     H15004   3.513   2.296   1.275 -1.2836 -1.5635  0.4120
  109MOL0     H15005   3.304   2.386   1.187  1.9764 -0.9506  0.3267
  109MOL0     H15006   3.130   2.693   1.363 -2.9888  0.4076  0.1593
  109MOL0     H15007   3.188   2.652   1.209  1.1849  0.2137  1.5677
  109MOL0     H15008   2.957   2.575   1.131 -2.6625 -1.5180  1.5559
  109MOL0     H15009   2.903   2.619   1.292  1.4715 -0.0817  0.1625
  109MOL0     H15010   3.037   2.842   1.147  1.0077 -2.5521 -0.1717
  109MOL0     H15011   2.893   2.840   1.256  0.2931 -0.5637  2.2155
  109MOL0     H15012   2.765   2.770   1.034  0.4762 -0.8269  2.9706
  109MOL0     H15013   2.906   2.754   0.945  1.1382 -0.4871 -0.0249
  109MOL0     H15014   2.936   3.008   0.969  0.0673 -2.1080 -2.8746
  109MOL0     H15015   2.771   2.966   0.923  0.7848 -3.8575  0.0035
  109MOL0     H15016   2.878   3.039   1.209 -0.7806 -1.1429  0.8981
  109MOL0     H15017   2.705   3.004   1.169 -1.9709  3.8904 -0.4246
  109MOL0     H15018   2.797   3.250   1.200  2.2661 -2.9561  2.3248
  109MOL0     H15019   2.693   3.216   1.049  1.1098  0.7880 -2.1598
  109MOL0     H15020   2.848   3.364   1.029  0.3378  0.0372 -3.0347
  109MOL0     H15021   2.888   3.252   0.909  0.1313  2.2224 -1.5028
  109MOL0     H15022   3.198   2.518   1.574 -1.0779  0.6425 -2.5004
  109MOL0     H15023   3.421   2.470   1.657  0.9272 -1.7475  0.8588
  109MOL0     H15024   3.684   2.097   1.838  0.7745 -3.6689 -1.0527
  109MOL0     H15025   3.894   2.005   1.899 -2.5469 -1.2388 -1.0648
  109MOL0     H15026   4.641   3.125   2.013 -1.6545 -1.5372 -4.3683
  109MOL0     H15027   4.460   3.269   2.106 -2.1903 -0.2893 -3.7020
  109MOL0     H15028   4.177   3.464   1.984  2.0885 -0.1047  2.1663
  109MOL0     H15029   3.937   3.517   1.993  0.5744  0.1339 -3.6601
  109MOL0     H15030   3.733   3.620   1.926  2.4501  1.5366 -1.1705
  109MOL0     H15031   3.742   3.614   2.104  0.6341  1.1439  1.8361
  109MOL0     H15032   3.580   3.825   1.937 -0.0647  0.6226  0.0412
  109MOL0     H15033   3.594   3.822   2.117  1.0824 -0.6329 -0.2594
  109MOL0     H15034   3.458   3.601   1.959  0.0072 -0.1315  0.8055
  109MOL0     H15035   3.495   3.607   2.129 -0.8060  0.5896  1.4514
  109MOL0     H15036   3.319   3.822   2.006  1.6073  1.2499  0.3899
  109MOL0     H15037   3.353   3.811   2.176 -0.1096 -0.0677  1.0050
  109MOL0     H15038   3.063   3.508   2.140  1.6714 -2.4792 -0.7486
  109MOL0     H15039   4.031   3.944   2.049  0.8811  0.5694 -0.7145
  109MOL0     H15040   4.374   3.885   2.118  1.5273 -0.4924 -2.3383
  109MOL0     H15041   4.316   3.977   1.977  0.5960  0.2858  0.1829
  109MOL0     H15042   4.238   3.975   2.148  1.7664  1.8439  0.0325
  110MOL0     O15043   0.508   5.880   1.388 -0.6592 -1.2052  0.6578
  110MOL0     C15044   0.391   5.858   1.368  0.0056 -0.4656 -0.1482
  110MOL0     O15045   0.319   5.909   1.262  0.3175  0.4461 -0.0978
  110MOL0     C15046   0.386   5.974   1.167  0.7179 -0.7725 -0.0816
  110MOL0     C15047   0.403   6.116   1.186  0.0038  0.0604  0.5128
  110MOL0     C15048   0.477   6.191   1.098  1.6439 -0.7413 -0.0550
  110MOL0     C15049   0.527   6.131   0.982  0.0084  0.6231 -0.4038
  110MOL0     O15050   0.606   6.214   0.911  0.4795 -0.5301 -0.3736
  110MOL0     C15051   0.592   6.194   0.771  0.2953  0.5722  0.1241
  110MOL0     C15052   0.648   6.323   0.701 -0.1930  0.4103  0.1414
  110MOL0     C15053   0.801   6.350   0.723  0.4078 -0.5697  0.9138
  110MOL0     C15054   0.890   6.244   0.658 -0.1767  0.0261 -0.1221
  110MOL0     C15055   1.036   6.285   0.657  0.4167  0.7138 -0.1630
  110MOL0     C15056   1.126   6.176   0.597  0.4783 -0.0284  0.0748
  110MOL0     C15057   1.264   6.238   0.548 -0.4425  0.9039  0.8256
  110MOL0     C15058   1.354   6.137   0.477  0.1155 -0.6873  1.1819
  110MOL0     N15059   1.362   6.005   0.539  0.0046  0.3856  0.4445
  110MOL0     C15060   1.410   5.980   0.658 -0.6878  0.8059 -0.8535
  110MOL0     C15061   1.393   5.846   0.678 -0.1515  0.0660 -0.0859
  110MOL0     C15062   1.445   5.780   0.806 -0.6021 -0.1637  0.5411
  110MOL0     C15063   1.426   5.630   0.807  0.2108  0.1687  0.5003
  110MOL0     C15064   1.467   5.551   0.935  0.0047 -0.0913  0.2905
  110MOL0     C15065   1.603   5.581   0.994  0.6347 -0.5360 -0.2924
  110MOL0     O15066   1.706   5.574   0.897  0.0563  0.0134 -0.7716
  110MOL0     C15067   1.825   5.633   0.924  0.8552  1.3545 -0.8145
  110MOL0     C15068   1.903   5.678   0.813  0.5756 -0.3370 -0.5263
  110MOL0     C15069   2.021   5.749   0.824 -0.7112  0.1041  0.7120
  110MOL0     C15070   2.120   5.753   0.714 -0.5661  0.4255 -0.1779
  110MOL0     C15071   2.062   5.775   0.957 -0.6249 -0.6134 -0.3531
  110MOL0     C15072   2.189   5.841   0.985  0.7624 -0.1346  0.0826
  110MOL0     O15073   2.301   5.767   1.028  0.2895 -0.3578  0.1817
  110MOL0     C15074   2.421   5.837   1.023 -0.0692  0.5222 -0.2948
  110MOL0     C15075   2.510   5.809   1.135  0.4252  0.3711  0.2359
  110MOL0     C15076   2.633   5.875   1.140  0.1011 -0.0538  0.0064
  110MOL0     C15077   2.675   5.943   1.024 -0.4500 -0.1333 -0.3495
  110MOL0     O15078   2.805   5.985   1.028 -0.0300  0.1253  0.5281
  110MOL0     C15079   2.864   6.037   0.902  0.0511 -0.4932 -0.6246
  110MOL0     C15080   3.026   6.054   0.925  0.4094  0.7715 -0.5098
  110MOL0     C15081   3.103   5.923   0.957  1.0030 -0.6460 -1.0258
  110MOL0     C15082   3.111   5.820   0.841 -0.2820 -0.0850  0.7417
  110MOL0     C15083   3.218   5.714   0.854  0.4239 -0.5754  0.0688
  110MOL0     C15084   3.167   5.621   0.974  0.2891 -0.7100  0.8940
  110MOL0     C15085   3.267   5.514   1.011  0.4760 -1.1843  0.3251
  110MOL0     C15086   3.195   5.418   1.103  0.0209 -0.1828 -1.0385
  110MOL0    Cl15087   3.144   5.489   1.263  0.0805 -0.2648 -0.0355
  110MOL0     C15088   2.596   5.968   0.916 -0.8479 -0.5186  0.2545
  110MOL0     C15089   2.471   5.908   0.910 -0.0719  0.2370 -0.1535
  110MOL0     O15090   2.187   5.961   0.961 -0.6485 -0.0442  0.0284
  110MOL0     C15091   1.997   5.721   1.067  0.0783  0.6625  0.2532
  110MOL0     C15092   1.881   5.656   1.051  1.0392  0.6268  0.6829
  110MOL0     N15093   1.330   5.792   0.566 -0.3797 -0.4662 -0.2087
  110MOL0     N15094   1.308   5.884   0.488 -0.8582  0.7565  0.1045
  110MOL0     C15095   0.520   5.995   0.965 -0.6499  0.2110  0.6206
  110MOL0     C15096   0.444   5.912   1.057 -0.4421  0.2623 -0.1007
  110MOL0     C15097   0.317   5.763   1.460  0.1687  0.2602  0.1579
  110MOL0     C15098   0.180   5.782   1.493 -0.6767  0.8523  0.2297
  110MOL0     C15099   0.125   5.700   1.588 -0.7140  0.2609  1.1244
  110MOL0     C15100   0.194   5.607   1.655  0.4691  0.1313  0.6161
  110MOL0     O15101   0.139   5.525   1.752 -0.1340  0.0405 -0.7430
  110MOL0     C15102   0.100   5.578   1.877  0.2936 -1.1069 -0.1250
  110MOL0     C15103  -0.038   5.521   1.905  0.2771 -0.0886  0.4775
  110MOL0     C15104  -0.063   5.541   2.049 -0.2248 -0.0681  0.0712
  110MOL0     C15105  -0.107   5.689   2.087  0.0021 -0.3175 -0.4118
  110MOL0     C15106  -0.253   5.698   2.067 -0.3066 -0.5692  0.3010
  110MOL0     C15107  -0.371   5.706   2.042 -0.2357  0.4462  0.3740
  110MOL0     C15108   0.332   5.583   1.624 -0.0457  0.4591 -0.2839
  110MOL0     C15109   0.390   5.657   1.523 -0.8064  1.6939 -0.5456
  110MOL0     C15110   0.542   5.624   1.502  0.1551 -0.0021 -0.4611
  110MOL0     H15111   0.363   6.162   1.276 -1.6397  3.8162 -1.8593
  110MOL0     H15112   0.499   6.297   1.105  0.4309 -0.5671  1.6245
  110MOL0     H15113   0.489   6.191   0.732  0.6799  2.2135 -1.1839
  110MOL0     H15114   0.659   6.115   0.737  0.6432  0.6464  0.6345
  110MOL0     H15115   0.622   6.307   0.596  1.7238 -0.7203 -0.2171
  110MOL0     H15116   0.599   6.411   0.742 -3.5611 -1.6726  0.9707
  110MOL0     H15117   0.819   6.450   0.682 -2.7010  0.5314  1.9192
  110MOL0     H15118   0.824   6.358   0.830 -0.2298 -0.7426  1.0695
  110MOL0     H15119   0.879   6.143   0.700 -2.3514  0.1611 -0.2822
  110MOL0     H15120   0.864   6.242   0.552  0.9256 -0.0246 -0.4094
  110MOL0     H15121   1.067   6.292   0.761 -1.5071  3.5788  0.3360
  110MOL0     H15122   1.046   6.384   0.609  1.4142 -0.0497 -1.5951
  110MOL0     H15123   1.154   6.101   0.672  1.7676  1.8686  1.5858
  110MOL0     H15124   1.092   6.121   0.508 -0.4860  1.3610 -0.4427
  110MOL0     H15125   1.322   6.283   0.629  1.9241 -0.2990 -0.1375
  110MOL0     H15126   1.256   6.318   0.474  0.9153  0.7641  0.5043
  110MOL0     H15127   1.334   6.121   0.371  0.8520  0.6311  0.8232
  110MOL0     H15128   1.453   6.182   0.476  1.2046 -2.9320  1.6733
  110MOL0     H15129   1.478   6.037   0.720  1.4204  1.8383 -3.9137
  110MOL0     H15130   1.407   5.818   0.902 -2.5514  3.9269 -1.5645
  110MOL0     H15131   1.547   5.820   0.808 -1.4714  2.2799  0.1098
  110MOL0     H15132   1.320   5.606   0.811  0.7519 -2.8739 -0.6660
  110MOL0     H15133   1.468   5.584   0.717  1.1599 -0.2461  1.1309
  110MOL0     H15134   1.385   5.573   1.004 -0.4503  2.0686 -0.8664
  110MOL0     H15135   1.461   5.443   0.918  2.2126 -0.2802  0.4059
  110MOL0     H15136   1.588   5.681   1.036 -0.7239 -1.2236  0.9573
  110MOL0     H15137   1.626   5.510   1.075 -2.2953  0.6362  1.7694
  110MOL0     H15138   1.864   5.656   0.714  1.5866 -0.8733 -0.8202
  110MOL0     H15139   2.206   5.686   0.720 -0.6571  0.0924 -2.0136
  110MOL0     H15140   2.185   5.840   0.731  2.0980 -1.9103  2.7384
  110MOL0     H15141   2.065   5.749   0.619 -1.8838 -0.7669  0.6030
  110MOL0     H15142   2.465   5.748   1.213 -1.4222  0.2608 -0.8524
  110MOL0     H15143   2.698   5.876   1.227  2.1866  0.8876 -1.4885
  110MOL0     H15144   2.842   5.976   0.814 -1.5156  0.0651 -0.6561
  110MOL0     H15145   2.817   6.136   0.897  1.8218  0.5869  2.0462
  110MOL0     H15146   3.076   6.089   0.835  0.0180  0.8966 -0.6804
  110MOL0     H15147   3.049   6.123   1.006 -0.0871  0.2653  0.0811
  110MOL0     H15148   3.057   5.876   1.045 -0.2497 -0.1466 -1.3911
  110MOL0     H15149   3.203   5.951   0.991  0.7575 -0.1799 -0.6665
  110MOL0     H15150   3.127   5.882   0.753 -0.4439 -0.6761  0.2953
  110MOL0     H15151   3.017   5.765   0.830 -1.1754  1.4693  0.3042
  110MOL0     H15152   3.226   5.655   0.763  0.4156  1.6849 -1.4948
  110MOL0     H15153   3.310   5.770   0.877  0.5465 -0.0838 -1.5224
  110MOL0     H15154   3.079   5.570   0.933 -0.9296  2.4958 -0.8597
  110MOL0     H15155   3.140   5.677   1.064 -2.5618 -1.4898  0.6272
  110MOL0     H15156   3.336   5.575   1.070  1.9731  0.7000 -3.1278
  110MOL0     H15157   3.305   5.452   0.929 -2.3380 -5.0941  1.6386
  110MOL0     H15158   3.269   5.344   1.136 -0.5800  1.2236  4.5433
  110MOL0     H15159   3.105   5.374   1.058 -1.9077  2.4304 -0.0188
  110MOL0     H15160   2.636   6.037   0.841 -0.8461 -0.9142 -0.1136
  110MOL0     H15161   2.410   5.916   0.821 -0.4743 -0.8654  0.0055
  110MOL0     H15162   2.038   5.725   1.167 -1.7095  0.6855  1.0165
  110MOL0     H15163   1.831   5.617   1.139 -2.3001 -1.4302 -1.8288
  110MOL0     H15164   0.556   5.955   0.871 -0.3485 -3.0943  1.9960
  110MOL0     H15165   0.411   5.808   1.052 -1.9021  0.7151 -0.5022
  110MOL0     H15166   0.113   5.855   1.448 -0.8164  0.5416 -0.0712
  110MOL0     H15167   0.020   5.717   1.608 -1.2612 -2.2935  0.6790
  110MOL0     H15168   0.166   5.558   1.962 -1.5909 -2.0726  1.1652
  110MOL0     H15169   0.096   5.688   1.880  2.7880 -0.8287 -2.6859
  110MOL0     H15170  -0.021   5.418   1.873  0.5647  0.4473 -1.1746
  110MOL0     H15171  -0.119   5.567   1.848 -0.3592  1.1020  2.2562
  110MOL0     H15172  -0.136   5.466   2.083  0.0116 -0.8357 -1.0392
  110MOL0     H15173   0.030   5.516   2.100 -0.7902  0.9308  1.6790
  110MOL0     H15174  -0.053   5.762   2.026  0.9626 -0.1804  0.5783
  110MOL0     H15175  -0.087   5.718   2.190  2.6202 -2.6498 -0.1617
  110MOL0     H15176  -0.473   5.723   2.017  0.2811  2.2127 -0.7220
  110MOL0     H15177   0.379   5.497   1.671 -1.5798 -0.7129 -0.7682
  110MOL0     H15178   0.599   5.711   1.536  1.4660 -1.1896  0.5582
  110MOL0     H15179   0.570   5.536   1.561 -2.1951  0.1364  0.9903
  110MOL0     H15180   0.554   5.603   1.396 -2.2786 -3.1396 -0.2810
  111MOL0     O15181   6.737   8.519   9.019 -0.5304 -0.5672 -0.4630
  111MOL0     C15182   6.727   8.536   8.901 -0.3808 -0.3984 -0.0679
  111MOL0     O15183   6.611   8.543   8.835 -0.4296 -0.0301 -0.0242
  111MOL0     C15184   6.494   8.485   8.882 -0.4790  0.2150  0.3377
  111MOL0     C15185   6.376   8.564   8.888  1.2841 -0.3474 -1.4691
  111MOL0     C15186   6.257   8.505   8.934  0.2112  0.2301  0.1915
  111MOL0     C15187   6.247   8.371   8.971  0.0893  0.2426  0.6827
  111MOL0     O15188   6.126   8.326   9.012  0.9911 -0.5022 -0.0281
  111MOL0     C15189   6.080   8.202   8.964  0.5300  0.7608  1.1398
  111MOL0     C15190   6.106   8.099   9.067 -0.4139  0.0271 -0.0500
  111MOL0     C15191   6.019   7.979   9.063 -0.1395  0.2141  0.1327
  111MOL0     C15192   6.053   7.891   9.187 -0.1670 -0.3580  0.1938
  111MOL0     C15193   5.992   7.748   9.182  0.4521  0.1025  0.3143
  111MOL0     C15194   6.050   7.668   9.068  0.3589 -0.2959 -0.4644
  111MOL0     C15195   6.024   7.517   9.063 -0.3320  0.4967 -1.0899
  111MOL0     C15196   5.879   7.479   9.088 -0.5830 -0.3091  0.2280
  111MOL0     N15197   5.859   7.330   9.076 -0.2247 -0.4226 -0.6801
  111MOL0     C15198   5.747   7.264   9.080 -0.6485  0.8066 -0.1796
  111MOL0     C15199   5.788   7.132   9.076 -0.3610 -0.2490 -0.3474
  111MOL0     C15200   5.696   7.025   9.118  0.2997 -0.1810 -0.1010
  111MOL0     C15201   5.574   7.017   9.015  0.2534 -0.4347 -0.9379
  111MOL0     C15202   5.476   6.900   9.042 -0.8010  0.0986  0.3523
  111MOL0     C15203   5.355   6.918   8.961  0.1549  0.5606 -0.2259
  111MOL0     O15204   5.270   7.022   9.008 -0.1345  0.9779 -0.1487
  111MOL0     C15205   5.152   7.039   8.940 -0.3653 -0.4430 -0.4473
  111MOL0     C15206   5.087   7.149   8.984  0.3963  0.5957  0.2927
  111MOL0     C15207   4.966   7.192   8.932  0.4738 -0.1743 -0.6664
  111MOL0     C15208   4.894   7.312   9.007 -0.5824  0.6450 -0.3753
  111MOL0     C15209   4.915   7.125   8.815 -0.1824  1.0223 -0.5111
  111MOL0     C15210   4.786   7.151   8.749 -0.3199 -1.3012  0.1629
  111MOL0     O15211   4.738   7.051   8.670 -0.4227  0.3472  0.6006
  111MOL0     C15212   4.618   7.052   8.598  0.1701 -0.5034  0.2962
  111MOL0     C15213   4.571   6.934   8.556 -0.0762  0.4828  0.6177
  111MOL0     C15214   4.445   6.922   8.483  0.5245 -0.3422 -0.8444
  111MOL0     C15215   4.366   7.033   8.439 -0.7863  0.7515 -0.5469
  111MOL0     O15216   4.248   7.039   8.372 -0.1984 -0.1963 -0.5430
  111MOL0     C15217   4.225   6.922   8.286  0.0678 -0.6179  0.0889
  111MOL0     C15218   4.106   6.922   8.190 -0.2596  0.2332  0.0301
  111MOL0     C15219   4.086   6.777   8.140  0.2743 -0.0407  0.2972
  111MOL0     C15220   3.996   6.770   8.026 -0.1500 -0.2463  1.0103
  111MOL0     C15221   4.008   6.652   7.934 -0.5562 -0.1302  0.4134
  111MOL0     C15222   3.924   6.662   7.810 -0.9336  0.5627 -0.4445
  111MOL0     C15223   3.962   6.783   7.730  0.1371  0.0932  0.1395
  111MOL0     C15224   3.908   6.780   7.585  0.9460 -0.7447  0.5686
  111MOL0    Cl15225   3.726   6.751   7.559  0.1603  0.1612 -0.1500
  111MOL0     C15226   4.423   7.155   8.477 -0.1078 -0.1620  0.1844
  111MOL0     C15227   4.539   7.163   8.552 -0.1151 -0.1137 -0.6835
  111MOL0     O15228   4.725   7.258   8.775  0.2081 -0.1372 -0.1081
  111MOL0     C15229   4.990   7.006   8.770  0.6627  0.2875 -0.4842
  111MOL0     C15230   5.102   6.965   8.833 -0.1003  0.0644  0.2969
  111MOL0     N15231   5.921   7.127   9.059 -0.0456  0.3954 -0.8143
  111MOL0     N15232   5.961   7.244   9.057  0.3681 -0.2788 -0.1662
  111MOL0     C15233   6.361   8.293   8.959  0.9841  0.1329 -0.1750
  111MOL0     C15234   6.483   8.352   8.905  0.0229  0.6311 -0.2323
  111MOL0     C15235   6.861   8.560   8.837  0.3916  0.8432 -0.3461
  111MOL0     C15236   6.843   8.626   8.715  0.2280 -0.4390 -0.2383
  111MOL0     C15237   6.962   8.654   8.644  0.2764  0.3956 -0.5531
  111MOL0     C15238   7.091   8.622   8.691  0.0462 -0.1167  0.5392
  111MOL0     O15239   7.196   8.660   8.619  0.5378 -0.8529  0.2644
  111MOL0     C15240   7.322   8.599   8.634  0.3523  0.7594  0.6218
  111MOL0     C15241   7.429   8.644   8.537 -0.5277 -0.6019  0.9414
  111MOL0     C15242   7.484   8.787   8.567 -0.4779  0.1228 -0.0704
  111MOL0     C15243   7.387   8.893   8.510  0.2480  0.7850  0.5978
  111MOL0     C15244   7.463   9.012   8.479  0.6003 -0.1150  0.0285
  111MOL0     C15245   7.536   9.099   8.437  0.4392  0.5896  0.0459
  111MOL0     C15246   7.097   8.546   8.818 -0.1162  0.3226  0.3588
  111MOL0     C15247   6.984   8.509   8.884  0.0244 -0.6017 -0.0009
  111MOL0     C15248   6.996   8.408   9.001  0.1509  0.4635 -0.4698
  111MOL0     H15249   6.395   8.670   8.874  3.2145  0.0605  2.7420
  111MOL0     H15250   6.169   8.566   8.952 -1.3225 -0.9689 -2.5035
  111MOL0     H15251   6.140   8.176   8.876 -0.9110  1.1591 -0.0149
  111MOL0     H15252   5.974   8.205   8.937  1.0087  0.7485 -0.9831
  111MOL0     H15253   6.211   8.069   9.060 -0.3617  0.2280 -0.1399
  111MOL0     H15254   6.086   8.153   9.160  1.4220  0.5861  0.0636
  111MOL0     H15255   5.914   8.008   9.064 -0.7544 -1.8273  1.6646
  111MOL0     H15256   6.035   7.922   8.971  0.2311  0.8109 -0.1817
  111MOL0     H15257   6.160   7.899   9.208 -0.5378  3.4640  1.3489
  111MOL0     H15258   6.003   7.943   9.269  1.1809  3.3529 -1.1127
  111MOL0     H15259   5.884   7.754   9.166  0.5297 -0.5313 -0.4937
  111MOL0     H15260   6.010   7.701   9.279 -0.3739 -0.2661  0.2980
  111MOL0     H15261   6.010   7.709   8.975 -3.6909 -0.1968  1.1215
  111MOL0     H15262   6.158   7.682   9.070  0.3456 -0.2358  0.0217
  111MOL0     H15263   6.081   7.481   9.150 -2.1921  2.6766  1.1727
  111MOL0     H15264   6.058   7.464   8.973 -0.8957 -0.9297 -0.5021
  111MOL0     H15265   5.843   7.504   9.188  0.1241  0.7613  0.2342
  111MOL0     H15266   5.819   7.529   9.012 -0.6293  3.5306  2.5238
  111MOL0     H15267   5.649   7.306   9.097 -1.9088 -1.5855 -1.1047
  111MOL0     H15268   5.667   7.043   9.222  4.1803  0.0880  1.0968
  111MOL0     H15269   5.742   6.926   9.121  1.5524  0.3531 -1.1796
  111MOL0     H15270   5.524   7.115   9.014  0.8195 -0.1205  0.2692
  111MOL0     H15271   5.601   6.996   8.911  0.6273 -2.3054 -0.4884
  111MOL0     H15272   5.528   6.807   9.016 -2.3556 -0.7042  0.0266
  111MOL0     H15273   5.457   6.889   9.149  1.0448 -1.1508  0.6090
  111MOL0     H15274   5.392   6.942   8.861  1.8969  1.4072  0.5958
  111MOL0     H15275   5.300   6.823   8.957  1.4106 -0.2145  0.1362
  111MOL0     H15276   5.128   7.202   9.069  1.3261 -2.0864  1.6384
  111MOL0     H15277   4.805   7.278   9.062  1.4998 -2.3987  1.4182
  111MOL0     H15278   4.864   7.390   8.936  2.5608  1.0098 -1.4574
  111MOL0     H15279   4.963   7.356   9.079  2.6629 -1.3086 -2.0343
  111MOL0     H15280   4.629   6.843   8.567 -1.5426 -0.6528 -0.6857
  111MOL0     H15281   4.423   6.817   8.468  1.3052 -0.4160 -1.5653
  111MOL0     H15282   4.306   6.926   8.212  0.6585  2.1900  0.7552
  111MOL0     H15283   4.228   6.829   8.344 -0.8198 -2.1580 -2.1887
  111MOL0     H15284   4.010   6.953   8.232 -1.0813 -2.0838  0.0132
  111MOL0     H15285   4.138   6.980   8.104 -1.4925  0.0361 -0.5867
  111MOL0     H15286   4.045   6.715   8.220 -1.6906  2.6648  1.5428
  111MOL0     H15287   4.181   6.734   8.107 -1.3860 -1.7499 -2.7367
  111MOL0     H15288   4.012   6.865   7.974 -1.9153 -1.5292 -2.1709
  111MOL0     H15289   3.890   6.774   8.056 -1.4509 -3.8376 -2.2374
  111MOL0     H15290   4.112   6.639   7.903 -1.6315 -1.0016 -3.3970
  111MOL0     H15291   3.981   6.560   7.986 -0.1908 -1.4334 -1.5719
  111MOL0     H15292   3.820   6.668   7.842 -0.7052 -0.3999  0.5361
  111MOL0     H15293   3.919   6.569   7.752 -0.4973 -0.6685  1.4022
  111MOL0     H15294   4.071   6.784   7.725  0.1394  0.7686  0.2347
  111MOL0     H15295   3.930   6.878   7.775 -1.5773 -0.5391  0.3530
  111MOL0     H15296   3.951   6.690   7.539  1.0053 -0.2855 -0.3107
  111MOL0     H15297   3.938   6.860   7.516  3.1259 -2.2450 -0.3261
  111MOL0     H15298   4.376   7.245   8.438 -0.8932  1.1379  3.7865
  111MOL0     H15299   4.581   7.260   8.575  2.3131 -1.1814 -0.3822
  111MOL0     H15300   4.957   6.943   8.688  1.3227 -0.4807 -0.1708
  111MOL0     H15301   5.144   6.870   8.800  0.3750 -0.2751  1.7938
  111MOL0     H15302   6.358   8.186   8.978 -0.2436  0.1067 -0.4509
  111MOL0     H15303   6.563   8.285   8.876 -0.1418  0.3260  0.0144
  111MOL0     H15304   6.745   8.655   8.680  0.3420  2.0813  1.2663
  111MOL0     H15305   6.954   8.708   8.550  0.6692 -0.3994 -1.0535
  111MOL0     H15306   7.357   8.595   8.738  1.3138 -2.7817  0.2906
  111MOL0     H15307   7.306   8.492   8.617 -3.1830  1.4531 -1.5212
  111MOL0     H15308   7.403   8.626   8.432  0.0307  0.1304  0.6676
  111MOL0     H15309   7.520   8.582   8.536 -0.4050 -0.5544 -2.1972
  111MOL0     H15310   7.506   8.795   8.674 -1.4434 -0.4872  0.1796
  111MOL0     H15311   7.580   8.797   8.514  0.9018 -5.7062  0.6062
  111MOL0     H15312   7.312   8.916   8.586  0.7769  0.6769  1.1650
  111MOL0     H15313   7.339   8.844   8.424  0.7208  1.3573 -0.0042
  111MOL0     H15314   7.588   9.179   8.388 -0.6704  1.9557  1.0228
  111MOL0     H15315   7.191   8.510   8.859  0.2181 -2.1103 -2.2238
  111MOL0     H15316   7.079   8.344   8.970 -0.1573  0.3373 -1.0479
  111MOL0     H15317   7.026   8.465   9.089 -1.3907 -1.6938  1.5851
  111MOL0     H15318   6.908   8.348   9.027  1.2512 -1.8915 -1.8250
  112MOL0     O15319   9.209   0.487   9.327 -0.2910  0.5697 -0.0584
  112MOL0     C15320   9.180   0.607   9.338  0.3485 -0.3552 -0.2708
  112MOL0     O15321   9.179   0.681   9.452  0.2875  0.0199  0.1348
  112MOL0     C15322   9.145   0.629   9.576  0.5181 -0.5091 -0.1859
  112MOL0     C15323   9.100   0.504   9.606 -0.5794 -0.7358  0.0234
  112MOL0     C15324   9.078   0.463   9.736  0.1740  1.0942  0.0441
  112MOL0     C15325   9.096   0.544   9.850 -1.0482 -0.5113 -0.3412
  112MOL0     O15326   9.070   0.481   9.972  1.0639  0.2019  0.3451
  112MOL0     C15327   9.088   0.552  10.086 -0.4462 -0.1966 -0.1300
  112MOL0     C15328   9.233   0.567  10.125  0.2106 -0.1151 -0.3123
  112MOL0     C15329   9.275   0.441  10.200  0.0322  0.5184 -0.0545
  112MOL0     C15330   9.425   0.426  10.221 -0.0022 -0.4719  0.5671
  112MOL0     C15331   9.455   0.340  10.344  0.3868  0.4652  0.4309
  112MOL0     C15332   9.423   0.190  10.344  0.2309 -0.5975 -0.7429
  112MOL0     C15333   9.461   0.117  10.216  0.0962 -0.4731  0.0595
  112MOL0     C15334   9.437  -0.033  10.240 -0.7583  0.2558 -0.1283
  112MOL0     N15335   9.537  -0.079  10.339 -0.1820 -0.7059  0.5866
  112MOL0     C15336   9.674  -0.057  10.341  0.5813  0.1602  0.2127
  112MOL0     C15337   9.709  -0.124  10.455  0.0640 -0.4839  0.0194
  112MOL0     C15338   9.847  -0.153  10.499 -0.0346 -1.3095  0.4988
  112MOL0     C15339   9.887  -0.300  10.486 -0.4513  0.8628  0.6005
  112MOL0     C15340   9.918  -0.354  10.338 -0.8268 -0.2881  0.8646
  112MOL0     C15341  10.050  -0.303  10.298 -0.0867  0.8435 -0.5136
  112MOL0     O15342  10.063  -0.345  10.158 -0.3032 -0.3148 -1.1591
  112MOL0     C15343  10.186  -0.326  10.096 -0.8373 -0.5158 -0.3087
  112MOL0     C15344  10.189  -0.341   9.960  0.0137 -0.9316  0.7395
  112MOL0     C15345  10.305  -0.333   9.877  0.5169  0.2080 -0.9050
  112MOL0     C15346  10.288  -0.351   9.726  0.6204  0.0381 -0.7063
  112MOL0     C15347  10.429  -0.296   9.932 -0.0754 -0.7930 -0.3387
  112MOL0     C15348  10.552  -0.281   9.844 -0.2904  0.6137 -0.9323
  112MOL0     O15349  10.657  -0.262   9.917 -0.1909 -0.0823 -0.4460
  112MOL0     C15350  10.781  -0.248   9.858  0.0386  0.1937  0.0168
  112MOL0     C15351  10.832  -0.337   9.764 -0.3163 -0.3164 -0.1790
  112MOL0     C15352  10.971  -0.317   9.721  0.4929  0.5743 -0.0077
  112MOL0     C15353  11.056  -0.218   9.785 -0.2354  0.3474  0.2331
  112MOL0     O15354  11.192  -0.192   9.751  0.0058 -0.5665 -0.8591
  112MOL0     C15355  11.263  -0.289   9.669  0.9843 -0.1389 -0.7889
  112MOL0     C15356  11.407  -0.239   9.648 -0.9382  0.7146  0.7419
  112MOL0     C15357  11.487  -0.340   9.549 -0.4356 -0.1700 -0.7070
  112MOL0     C15358  11.636  -0.297   9.531  0.5834  0.2737  0.2846
  112MOL0     C15359  11.714  -0.408   9.466  0.4407 -0.7059  0.5270
  112MOL0     C15360  11.855  -0.361   9.480 -0.6783 -0.2678  0.0288
  112MOL0     C15361  11.947  -0.475   9.424  0.3691  0.1629  0.1899
  112MOL0     C15362  12.092  -0.436   9.419 -0.3218  0.3542 -0.1700
  112MOL0    Cl15363  12.186  -0.538   9.319 -0.6284  0.0696 -0.2870
  112MOL0     C15364  10.996  -0.133   9.880 -0.0710 -0.4576 -0.0669
  112MOL0     C15365  10.867  -0.156   9.911  0.2748 -0.3836 -0.2460
  112MOL0     O15366  10.552  -0.278   9.721 -0.4679  0.1944  0.2435
  112MOL0     C15367  10.431  -0.288  10.071 -0.4304  0.7490 -0.3832
  112MOL0     C15368  10.310  -0.296  10.151  1.1828  0.3434 -0.3293
  112MOL0     N15369   9.595  -0.171  10.520 -0.1404  0.5835  0.0863
  112MOL0     N15370   9.491  -0.145  10.449 -0.8227 -0.5669  0.0421
  112MOL0     C15371   9.144   0.670   9.818 -0.8789 -0.4881  0.5256
  112MOL0     C15372   9.168   0.711   9.684 -0.5350 -0.3070  1.4680
  112MOL0     C15373   9.138   0.669   9.212 -0.4061 -0.1240 -0.0579
  112MOL0     C15374   9.112   0.584   9.101 -0.7037  0.3876  0.9090
  112MOL0     C15375   9.077   0.628   8.975 -1.1993 -0.6692  0.4585
  112MOL0     C15376   9.060   0.766   8.955 -0.2248  0.2914  0.3946
  112MOL0     O15377   9.029   0.819   8.832  0.0932  0.4385  0.4420
  112MOL0     C15378   9.038   0.741   8.714  0.6639  1.1240  0.7222
  112MOL0     C15379   8.978   0.841   8.607 -0.2811  0.3204 -1.3002
  112MOL0     C15380   9.085   0.954   8.582 -0.4458 -0.9388 -0.0757
  112MOL0     C15381   9.035   1.071   8.505 -0.5179 -0.0135  0.0403
  112MOL0     C15382   9.021   1.019   8.362  0.0243 -0.2470 -0.6440
  112MOL0     C15383   9.010   0.973   8.248  0.3462  0.7128  0.3292
  112MOL0     C15384   9.080   0.857   9.058 -0.3388 -1.1128  0.8529
  112MOL0     C15385   9.118   0.813   9.182 -0.1391 -0.0721 -0.5836
  112MOL0     C15386   9.137   0.912   9.281  0.3389  0.9236  0.0782
  112MOL0     H15387   9.065   0.432   9.532 -2.4894  0.4423 -0.2741
  112MOL0     H15388   9.024   0.368   9.735 -0.0114  1.1204  2.2360
  112MOL0     H15389   9.036   0.505  10.170  1.2279  0.1841  1.1779
  112MOL0     H15390   9.049   0.651  10.059 -0.5026 -1.3436 -5.2059
  112MOL0     H15391   9.291   0.571  10.033  0.2885 -0.7257 -0.2948
  112MOL0     H15392   9.252   0.650  10.193  3.5694 -2.6220  2.1277
  112MOL0     H15393   9.223   0.445  10.296  0.2584  4.4405  0.0671
  112MOL0     H15394   9.232   0.348  10.160 -0.2984 -0.7265  2.9101
  112MOL0     H15395   9.478   0.377  10.138  2.9500  0.0204  2.0231
  112MOL0     H15396   9.478   0.520  10.239  0.6384 -1.0161  1.6106
  112MOL0     H15397   9.404   0.391  10.427 -1.9687 -0.0742 -0.6101
  112MOL0     H15398   9.562   0.348  10.366  0.1672  0.1687  1.6563
  112MOL0     H15399   9.483   0.148  10.425  1.9953 -0.1691 -1.7773
  112MOL0     H15400   9.315   0.176  10.357  0.5202 -0.3899  2.7946
  112MOL0     H15401   9.560   0.134  10.172  0.5907 -0.7230  1.0585
  112MOL0     H15402   9.395   0.156  10.138  1.9810  0.2131 -1.2745
  112MOL0     H15403   9.335  -0.060  10.268 -0.3393  0.0534  1.2448
  112MOL0     H15404   9.459  -0.081  10.144  1.2331  0.4608  0.1884
  112MOL0     H15405   9.722  -0.006  10.259 -2.8901  1.1123 -1.3871
  112MOL0     H15406   9.866  -0.122  10.602  1.9325 -0.1799 -0.1532
  112MOL0     H15407   9.919  -0.090  10.446 -0.8582 -0.2238  0.6355
  112MOL0     H15408   9.977  -0.318  10.545  0.2544 -0.1846 -0.7268
  112MOL0     H15409   9.802  -0.361  10.517 -1.0183  0.6220 -1.2690
  112MOL0     H15410   9.907  -0.462  10.322 -1.3762 -0.4542  2.2635
  112MOL0     H15411   9.853  -0.305  10.264 -0.2406  1.8035  1.6529
  112MOL0     H15412  10.071  -0.199  10.320  1.1746  0.3879  0.5015
  112MOL0     H15413  10.118  -0.363  10.358  1.9798 -0.9439 -4.2720
  112MOL0     H15414  10.100  -0.375   9.908  0.6175 -2.9053  0.9193
  112MOL0     H15415  10.359  -0.421   9.681  0.8331  1.4155 -2.6199
  112MOL0     H15416  10.300  -0.252   9.682  4.9072  1.0964  2.1927
  112MOL0     H15417  10.185  -0.381   9.707  0.8530 -1.9937  0.9063
  112MOL0     H15418  10.765  -0.406   9.713 -2.6543  1.4136  0.3906
  112MOL0     H15419  11.014  -0.383   9.646 -0.5741  0.4552 -0.5403
  112MOL0     H15420  11.275  -0.381   9.728 -0.1773 -0.3800 -0.9130
  112MOL0     H15421  11.214  -0.315   9.575  1.6180  2.2106 -1.8535
  112MOL0     H15422  11.414  -0.133   9.624  1.8367  0.2134 -1.0988
  112MOL0     H15423  11.461  -0.250   9.743  0.4200  1.2740  0.0531
  112MOL0     H15424  11.439  -0.336   9.451 -1.1815  1.6117 -0.3169
  112MOL0     H15425  11.486  -0.445   9.580  2.5873  0.4029  1.8467
  112MOL0     H15426  11.674  -0.274   9.631  0.1323  1.4195  0.2141
  112MOL0     H15427  11.642  -0.204   9.474  1.9174  0.3479  0.5161
  112MOL0     H15428  11.701  -0.506   9.512 -2.1693 -0.1902  1.0247
  112MOL0     H15429  11.684  -0.415   9.361 -1.3180  0.8000  0.8906
  112MOL0     H15430  11.889  -0.340   9.581  0.2009 -0.8510 -0.1338
  112MOL0     H15431  11.874  -0.267   9.428 -0.3714 -0.1373  0.3773
  112MOL0     H15432  11.913  -0.495   9.322  0.6413  1.3600 -0.1469
  112MOL0     H15433  11.932  -0.562   9.489  0.4057  0.8913  1.1963
  112MOL0     H15434  12.138  -0.440   9.518 -0.7086 -3.4103  0.0157
  112MOL0     H15435  12.104  -0.336   9.377 -1.2780  0.8380  0.6438
  112MOL0     H15436  11.058  -0.060   9.931  0.7767 -1.6061  0.5862
  112MOL0     H15437  10.821  -0.097   9.990 -0.3110  1.1556 -1.6813
  112MOL0     H15438  10.529  -0.279  10.117 -0.1572 -0.8194 -0.6072
  112MOL0     H15439  10.318  -0.289  10.259 -1.7119 -1.2586  0.0970
  112MOL0     H15440   9.183   0.739   9.892  0.8962  0.5002 -1.2347
  112MOL0     H15441   9.214   0.807   9.669 -0.9525  0.2921  3.6572
  112MOL0     H15442   9.113   0.475   9.109  4.5277 -0.1101 -2.2870
  112MOL0     H15443   9.047   0.563   8.893  0.9923  0.7848 -1.6065
  112MOL0     H15444   9.139   0.706   8.693  0.0441 -1.6363  1.8642
  112MOL0     H15445   8.977   0.650   8.723 -0.6266  1.6164 -1.9519
  112MOL0     H15446   8.881   0.879   8.640  0.3205  0.9715 -0.2337
  112MOL0     H15447   8.967   0.784   8.514 -2.8484 -0.2272 -0.7375
  112MOL0     H15448   9.116   0.990   8.681 -0.3690  0.4054 -0.5648
  112MOL0     H15449   9.173   0.915   8.531 -0.4465 -1.0059 -0.0247
  112MOL0     H15450   9.109   1.152   8.516 -1.2750  0.8409 -0.9270
  112MOL0     H15451   8.936   1.099   8.542 -2.2564 -3.4639 -1.5658
  112MOL0     H15452   9.000   0.924   8.153  1.9186 -0.6800  0.8421
  112MOL0     H15453   9.057   0.960   9.033  1.9413 -0.6440  0.4792
  112MOL0     H15454   9.130   1.018   9.259  1.3994  0.5769 -2.2838
  112MOL0     H15455   9.051   0.896   9.347 -0.6132 -0.5710 -1.4282
  112MOL0     H15456   9.228   0.893   9.339  0.3280 -0.2471 -0.2630
  113MOL0     O15457  10.347   0.760   3.012  0.3068 -0.1151  0.0408
  113MOL0     C15458  10.423   0.796   2.922 -0.0409 -0.7341 -0.3039
  113MOL0     O15459  10.399   0.902   2.835  0.6563  0.0046 -0.2898
  113MOL0     C15460  10.265   0.958   2.839 -0.1043  0.5847 -0.1726
  113MOL0     C15461  10.142   0.898   2.854  0.6347 -0.3874 -0.5371
  113MOL0     C15462  10.019   0.968   2.851 -0.2449  0.7353  0.0208
  113MOL0     C15463  10.018   1.109   2.828  0.4725  0.5180 -0.1689
  113MOL0     O15464   9.895   1.170   2.809 -0.1555  0.1976 -0.2038
  113MOL0     C15465   9.888   1.314   2.806 -0.1508 -0.5469  0.0643
  113MOL0     C15466   9.748   1.360   2.825 -0.0498 -0.7666 -0.1786
  113MOL0     C15467   9.695   1.300   2.956  0.0732  0.6512  0.7057
  113MOL0     C15468   9.555   1.352   2.980 -0.0847  0.0163 -0.0911
  113MOL0     C15469   9.500   1.331   3.120 -0.6314  0.7858  0.3224
  113MOL0     C15470   9.353   1.360   3.142  0.9337  0.0161 -0.1655
  113MOL0     C15471   9.311   1.503   3.164  0.3848 -0.1641  0.1883
  113MOL0     C15472   9.311   1.526   3.317 -0.0829  0.2268  0.1349
  113MOL0     N15473   9.247   1.658   3.349  0.9036  0.8181 -0.3601
  113MOL0     C15474   9.307   1.754   3.423  0.5326  0.2547 -0.6197
  113MOL0     C15475   9.207   1.819   3.487  0.0313  0.5646 -0.4100
  113MOL0     C15476   9.221   1.932   3.581  1.4098 -0.2908  0.4692
  113MOL0     C15477   9.189   2.061   3.502  0.3269  0.7318  0.2684
  113MOL0     C15478   9.246   2.191   3.564 -0.3574 -0.4718  1.2081
  113MOL0     C15479   9.241   2.210   3.723 -0.6803 -0.2922 -0.5689
  113MOL0     O15480   9.325   2.315   3.768 -0.8030  0.1496  0.6022
  113MOL0     C15481   9.461   2.281   3.774 -0.8380  0.1161 -0.5757
  113MOL0     C15482   9.542   2.397   3.807 -0.7645  0.0791 -0.0918
  113MOL0     C15483   9.685   2.387   3.792  0.0485 -0.4110  0.7474
  113MOL0     C15484   9.774   2.498   3.814 -0.2082 -0.6062 -0.7916
  113MOL0     C15485   9.745   2.260   3.762 -0.0454 -0.3877  0.6044
  113MOL0     C15486   9.892   2.243   3.753 -0.4561 -0.6253  0.2317
  113MOL0     O15487   9.962   2.264   3.874  0.7011 -0.3514  0.6058
  113MOL0     C15488  10.094   2.247   3.865  0.3447 -0.3029  0.8298
  113MOL0     C15489  10.159   2.124   3.874  0.4136  1.0165  0.1062
  113MOL0     C15490  10.295   2.127   3.849  0.7488  0.9344  0.2517
  113MOL0     C15491  10.374   2.240   3.844  0.3074 -0.3435 -0.1147
  113MOL0     O15492  10.508   2.229   3.852 -0.0624 -0.5940 -0.2830
  113MOL0     C15493  10.599   2.341   3.844  0.5614 -0.3385  0.6444
  113MOL0     C15494  10.741   2.318   3.901  0.3242  0.8392 -0.5715
  113MOL0     C15495  10.799   2.205   3.811 -0.5848 -0.4648  0.2936
  113MOL0     C15496  10.920   2.131   3.878  0.0541 -0.3744  1.3729
  113MOL0     C15497  11.004   2.058   3.769  0.4508  0.4251  0.0175
  113MOL0     C15498  11.111   1.968   3.834 -0.0308 -0.1799 -0.2082
  113MOL0     C15499  11.174   1.889   3.722  0.6086 -0.4676 -0.6545
  113MOL0     C15500  11.290   1.814   3.773 -0.1121  0.3671  0.4321
  113MOL0    Cl15501  11.393   1.753   3.647 -0.0169 -0.1779  0.2117
  113MOL0     C15502  10.312   2.363   3.843  0.5907  0.5504 -0.9081
  113MOL0     C15503  10.171   2.368   3.854  0.2761  0.4393  0.6249
  113MOL0     O15504   9.938   2.214   3.639  0.3784  0.5445 -0.4065
  113MOL0     C15505   9.661   2.153   3.740 -0.2258 -0.2247  0.2965
  113MOL0     C15506   9.521   2.166   3.750 -0.8562  0.7368 -0.4349
  113MOL0     N15507   9.082   1.765   3.433  0.4621 -0.4437 -0.3916
  113MOL0     N15508   9.112   1.686   3.342 -0.6546  0.1901 -0.0980
  113MOL0     C15509  10.140   1.178   2.828 -0.5090 -0.0780 -0.0411
  113MOL0     C15510  10.261   1.104   2.827  0.4854  0.2205 -0.1861
  113MOL0     C15511  10.548   0.724   2.917 -0.4648 -0.7588 -0.6829
  113MOL0     C15512  10.575   0.608   2.987  0.0883  0.0221 -0.5400
  113MOL0     C15513  10.695   0.540   2.965 -0.1058 -1.1202  0.4002
  113MOL0     C15514  10.795   0.573   2.880  0.1155 -0.3322  0.4516
  113MOL0     O15515  10.912   0.502   2.889  0.5575 -0.1320 -0.7919
  113MOL0     C15516  10.969   0.467   2.766  0.4426  0.6045 -0.3994
  113MOL0     C15517  11.030   0.326   2.785 -0.5396 -0.7205  0.2068
  113MOL0     C15518  11.147   0.332   2.874 -0.3601  0.2570  0.5226
  113MOL0     C15519  11.271   0.246   2.821 -1.1052  0.1496 -0.4989
  113MOL0     C15520  11.249   0.101   2.833 -0.2041  0.2685  1.1705
  113MOL0     C15521  11.257  -0.016   2.820 -0.0627  0.4407  0.2516
  113MOL0     C15522  10.766   0.684   2.802  0.4428  0.0602 -0.0740
  113MOL0     C15523  10.646   0.761   2.820 -0.1137  0.7261  0.3563
  113MOL0     C15524  10.641   0.876   2.718  0.3732  0.0739  0.6950
  113MOL0     H15525  10.155   0.791   2.838 -2.0492 -0.9900  0.7150
  113MOL0     H15526   9.930   0.908   2.836  0.9651 -1.1986  0.2576
  113MOL0     H15527   9.928   1.347   2.709 -0.4407  3.5138  1.1245
  113MOL0     H15528   9.952   1.351   2.887  0.9209 -1.0282 -0.5450
  113MOL0     H15529   9.748   1.469   2.821 -0.5387 -0.7902 -0.8898
  113MOL0     H15530   9.702   1.334   2.729  0.1330 -2.4794  0.1729
  113MOL0     H15531   9.690   1.191   2.952 -1.6126  0.7197  0.0482
  113MOL0     H15532   9.752   1.329   3.044 -0.3087 -1.0268  1.5615
  113MOL0     H15533   9.567   1.460   2.984  3.1987 -0.3036  2.1748
  113MOL0     H15534   9.481   1.315   2.908 -0.7564  0.5081  0.3328
  113MOL0     H15535   9.552   1.398   3.190 -0.7729  0.4597  0.7452
  113MOL0     H15536   9.516   1.228   3.153 -1.7960  1.2709  2.6021
  113MOL0     H15537   9.292   1.332   3.056 -1.7484 -6.1142  3.1279
  113MOL0     H15538   9.318   1.297   3.224  1.8485  1.1399  1.1464
  113MOL0     H15539   9.208   1.505   3.126 -0.3357 -1.5779  1.9147
  113MOL0     H15540   9.361   1.586   3.112  1.3017  1.1142  2.9230
  113MOL0     H15541   9.258   1.443   3.365 -0.8062  0.2859 -0.5394
  113MOL0     H15542   9.414   1.524   3.352  0.0386 -0.8228 -0.2520
  113MOL0     H15543   9.412   1.765   3.445 -0.0918  1.7871  2.0803
  113MOL0     H15544   9.321   1.937   3.625  1.0748  0.1186  1.2126
  113MOL0     H15545   9.145   1.925   3.660 -2.0469 -1.2088 -2.6822
  113MOL0     H15546   9.218   2.052   3.397 -2.9592  4.4360 -1.2112
  113MOL0     H15547   9.081   2.075   3.490  0.3232 -0.9365 -2.4614
  113MOL0     H15548   9.349   2.202   3.531 -0.7404 -0.2107  0.0381
  113MOL0     H15549   9.190   2.276   3.524  1.0261  0.0519  0.3327
  113MOL0     H15550   9.139   2.234   3.757 -0.1161 -1.9310  2.7122
  113MOL0     H15551   9.268   2.117   3.774  1.3332  0.6927  0.2560
  113MOL0     H15552   9.489   2.487   3.838 -3.5865  0.3306 -4.7947
  113MOL0     H15553   9.723   2.587   3.775 -2.8764 -1.3753  0.6657
  113MOL0     H15554   9.866   2.489   3.755  0.8893  1.2713  0.5511
  113MOL0     H15555   9.803   2.521   3.917  2.7404 -1.0708 -1.4156
  113MOL0     H15556  10.107   2.029   3.871  1.7208  0.2133  1.2194
  113MOL0     H15557  10.348   2.033   3.841 -1.0481 -0.0182 -1.1347
  113MOL0     H15558  10.607   2.366   3.738 -0.8348 -3.9389 -0.4807
  113MOL0     H15559  10.560   2.433   3.888 -1.1285 -0.0396 -1.3369
  113MOL0     H15560  10.798   2.411   3.913 -0.6316  1.4368 -0.5376
  113MOL0     H15561  10.740   2.275   4.002  2.6502  1.7758 -0.0923
  113MOL0     H15562  10.840   2.264   3.729  2.1875  0.9083  2.4934
  113MOL0     H15563  10.723   2.132   3.780 -3.0406  2.5518 -1.3000
  113MOL0     H15564  10.875   2.064   3.952 -0.2727  1.3174  2.7767
  113MOL0     H15565  10.977   2.207   3.932  0.8910  0.1007 -0.1048
  113MOL0     H15566  10.937   2.001   3.705 -2.5079  3.6209 -0.0407
  113MOL0     H15567  11.055   2.129   3.704 -0.0513 -1.3653 -2.4490
  113MOL0     H15568  11.073   1.899   3.910 -3.1553 -0.9405 -2.2505
  113MOL0     H15569  11.186   2.036   3.875  0.5474 -0.3064 -1.0344
  113MOL0     H15570  11.202   1.960   3.644  1.3710 -1.2790 -1.1336
  113MOL0     H15571  11.102   1.815   3.686  0.0305  0.2595 -1.0229
  113MOL0     H15572  11.264   1.727   3.835  1.1819 -2.4105 -2.6141
  113MOL0     H15573  11.356   1.879   3.831  1.2047  0.2812 -0.9044
  113MOL0     H15574  10.364   2.458   3.844  0.7468  0.5281  2.1155
  113MOL0     H15575  10.126   2.466   3.840  1.6310  1.0478  0.3944
  113MOL0     H15576   9.711   2.058   3.720 -1.8095 -0.7031 -1.8223
  113MOL0     H15577   9.473   2.073   3.721  1.0444 -0.0244 -1.2923
  113MOL0     H15578  10.147   1.286   2.822 -1.6729 -0.0090 -0.6431
  113MOL0     H15579  10.356   1.154   2.815  1.5072 -1.5033  0.2954
  113MOL0     H15580  10.492   0.571   3.048  2.4442 -1.0240  2.2749
  113MOL0     H15581  10.709   0.449   3.023  2.6033 -0.1667  1.3820
  113MOL0     H15582  10.892   0.449   2.690 -1.0011 -0.7516  1.2982
  113MOL0     H15583  11.034   0.547   2.728  0.6522 -1.0793 -4.1143
  113MOL0     H15584  11.065   0.298   2.685 -0.0607  3.6726 -1.0720
  113MOL0     H15585  10.953   0.257   2.821  0.6004 -1.4728  1.3276
  113MOL0     H15586  11.184   0.432   2.898 -0.0496  1.3543 -3.7512
  113MOL0     H15587  11.126   0.284   2.970  4.3994 -1.8587  0.7891
  113MOL0     H15588  11.361   0.269   2.880 -0.3213  0.7612 -1.8784
  113MOL0     H15589  11.295   0.270   2.717  0.2974 -1.1401 -0.5067
  113MOL0     H15590  11.233  -0.118   2.800  0.2121  0.5585 -0.7451
  113MOL0     H15591  10.840   0.728   2.735 -0.6128 -0.8525 -1.9156
  113MOL0     H15592  10.620   0.962   2.782 -3.6746 -0.1358 -0.0710
  113MOL0     H15593  10.734   0.900   2.666 -1.1339 -0.5801 -2.5847
  113MOL0     H15594  10.554   0.865   2.652  0.2974  2.0769  0.3889
  114MOL0     O15595   3.683  10.641   2.506  0.9053  1.0439  0.1272
  114MOL0     C15596   3.707  10.759   2.508 -0.0198 -0.5769 -0.9649
  114MOL0     O15597   3.652  10.857   2.432  0.3038  0.0120  0.3141
  114MOL0     C15598   3.578  10.819   2.327 -0.1392  0.0716  0.5353
  114MOL0     C15599   3.645  10.774   2.206 -0.0227 -0.3747 -0.7395
  114MOL0     C15600   3.570  10.719   2.103  0.0939  0.4458  0.0715
  114MOL0     C15601   3.436  10.714   2.103  0.0026  0.2694 -0.4261
  114MOL0     O15602   3.353  10.676   2.000  0.2078  0.0411 -0.3809
  114MOL0     C15603   3.410  10.597   1.892 -0.3224 -0.3503 -0.5073
  114MOL0     C15604   3.452  10.688   1.783  0.4348  0.4153  1.2333
  114MOL0     C15605   3.332  10.728   1.694 -0.1532 -0.5498  0.5048
  114MOL0     C15606   3.375  10.779   1.557  0.4779 -0.2083  0.8761
  114MOL0     C15607   3.256  10.761   1.457  0.8214 -0.3282 -0.7550
  114MOL0     C15608   3.285  10.832   1.329  0.3531 -0.1828  0.3375
  114MOL0     C15609   3.190  10.800   1.213 -0.6831  0.6484  0.4884
  114MOL0     C15610   3.237  10.869   1.090 -0.5896 -0.1815 -0.3503
  114MOL0     N15611   3.142  10.854   0.971  0.1523  1.1242 -0.7334
  114MOL0     C15612   3.166  10.888   0.836 -0.1767 -0.5907  0.3199
  114MOL0     C15613   3.046  10.880   0.783 -0.2003 -1.1413  0.5807
  114MOL0     C15614   3.005  10.930   0.640  0.7314  0.0439 -0.3444
  114MOL0     C15615   2.917  10.819   0.573 -0.5057  0.0609  0.6031
  114MOL0     C15616   2.854  10.860   0.446 -0.0921  0.1375 -0.0462
  114MOL0     C15617   2.772  10.749   0.381 -0.0184  0.0363 -0.1536
  114MOL0     O15618   2.650  10.732   0.461  0.3193 -0.0802 -0.4506
  114MOL0     C15619   2.555  10.638   0.420  0.8272 -0.3192  0.1147
  114MOL0     C15620   2.437  10.629   0.483 -0.4216 -0.5858  0.1714
  114MOL0     C15621   2.331  10.545   0.451  0.2901 -0.3013 -0.2576
  114MOL0     C15622   2.207  10.556   0.533 -0.0528 -0.2740 -0.3185
  114MOL0     C15623   2.351  10.450   0.351  0.3391 -0.0098 -0.1525
  114MOL0     C15624   2.252  10.352   0.307 -0.2103 -0.3306 -0.8068
  114MOL0     O15625   2.294  10.234   0.282  0.3372  0.8196 -0.1689
  114MOL0     C15626   2.202  10.143   0.238 -1.1953  0.0967  0.9006
  114MOL0     C15627   2.160  10.159   0.108  0.5896 -0.1207 -0.1059
  114MOL0     C15628   2.063  10.075   0.060 -0.6891 -1.3827  0.6083
  114MOL0     C15629   2.005   9.979   0.140 -0.5375  0.4451  1.2432
  114MOL0     O15630   1.910   9.893   0.088  0.2902  1.0835 -0.4279
  114MOL0     C15631   1.774   9.946   0.100 -0.6933 -1.0189  0.5836
  114MOL0     C15632   1.662   9.871   0.027 -0.3734  0.0927 -0.1000
  114MOL0     C15633   1.673   9.865  -0.121  0.0946 -0.3024 -0.0211
  114MOL0     C15634   1.551   9.821  -0.197  0.5424 -0.6014 -0.1301
  114MOL0     C15635   1.502   9.673  -0.165  0.5918 -0.3492 -0.3020
  114MOL0     C15636   1.369   9.644  -0.236 -0.1296 -0.5721 -1.1024
  114MOL0     C15637   1.295   9.536  -0.152 -0.2230  0.1754 -0.1480
  114MOL0     C15638   1.163   9.481  -0.208  0.0512 -0.2179 -0.4129
  114MOL0    Cl15639   1.046   9.625  -0.224 -0.7427  0.1367  0.2134
  114MOL0     C15640   2.043   9.967   0.271 -0.1808 -0.3785 -0.6181
  114MOL0     C15641   2.143  10.054   0.324 -0.4530  0.4241 -0.6145
  114MOL0     O15642   2.136  10.388   0.303 -0.1791 -0.3055  0.3640
  114MOL0     C15643   2.472  10.462   0.278  0.2149 -0.0806 -0.1875
  114MOL0     C15644   2.574  10.547   0.320  0.4833 -0.3047  0.0812
  114MOL0     N15645   2.954  10.827   0.872 -0.3431 -0.2875 -0.0162
  114MOL0     N15646   3.015  10.815   0.984  0.6034 -0.8746 -0.0369
  114MOL0     C15647   3.367  10.766   2.216 -0.6919  0.8467  0.0760
  114MOL0     C15648   3.442  10.808   2.330 -0.4103  0.5379  0.4316
  114MOL0     C15649   3.807  10.807   2.607 -0.1662  0.1511 -0.3625
  114MOL0     C15650   3.847  10.710   2.707  0.1308  0.5889 -1.4243
  114MOL0     C15651   3.950  10.741   2.805  0.0772 -0.7610 -0.5580
  114MOL0     C15652   4.006  10.865   2.811 -0.7612 -0.4687 -0.0681
  114MOL0     O15653   4.108  10.888   2.905  0.4352  0.1996  0.0586
  114MOL0     C15654   4.220  10.970   2.900 -0.3699 -0.3864  0.3491
  114MOL0     C15655   4.197  11.100   2.979  0.0193  0.6309 -0.3306
  114MOL0     C15656   4.251  11.211   2.890 -0.0635  0.7481 -0.3786
  114MOL0     C15657   4.190  11.343   2.933  0.0081  1.0567  0.0810
  114MOL0     C15658   4.279  11.456   2.895  0.2145 -0.3540 -0.2962
  114MOL0     C15659   4.339  11.559   2.867 -0.1003  0.2540 -0.6290
  114MOL0     C15660   3.969  10.967   2.713 -0.4213  0.0141 -0.5803
  114MOL0     C15661   3.876  10.936   2.607 -0.3804  0.9951  1.0967
  114MOL0     C15662   3.866  11.029   2.498 -1.4304  0.6798 -0.3866
  114MOL0     H15663   3.753  10.766   2.204  0.1777  1.4346  0.5776
  114MOL0     H15664   3.638  10.680   2.029  0.3619 -1.3399  1.2066
  114MOL0     H15665   3.336  10.526   1.853  0.7685 -0.8979 -1.6524
  114MOL0     H15666   3.493  10.534   1.926 -0.5544 -1.5708 -2.0686
  114MOL0     H15667   3.498  10.773   1.833  0.1756  0.8244  0.7836
  114MOL0     H15668   3.533  10.652   1.718 -0.0176  1.4051  0.0787
  114MOL0     H15669   3.270  10.642   1.670  0.7492 -0.4308 -2.6319
  114MOL0     H15670   3.263  10.796   1.744 -1.2517  0.9435 -2.7472
  114MOL0     H15671   3.386  10.888   1.556  0.1409 -0.0991 -2.4678
  114MOL0     H15672   3.464  10.728   1.520  1.5749  3.3108 -2.0428
  114MOL0     H15673   3.162  10.801   1.497  1.2104 -1.7922  1.8768
  114MOL0     H15674   3.242  10.654   1.438 -2.2770  0.0235 -0.8972
  114MOL0     H15675   3.269  10.938   1.351 -3.6972  0.0249 -2.5789
  114MOL0     H15676   3.390  10.820   1.300  0.2705 -2.6202  0.8355
  114MOL0     H15677   3.090  10.832   1.245 -1.0946 -0.3743  0.2677
  114MOL0     H15678   3.187  10.692   1.198 -3.4646  0.7899 -0.5830
  114MOL0     H15679   3.223  10.975   1.113 -0.8904 -0.1985 -0.4512
  114MOL0     H15680   3.344  10.860   1.068  0.3920  3.5216  1.9979
  114MOL0     H15681   3.255  10.928   0.790 -2.0691  1.6421 -1.6544
  114MOL0     H15682   3.092  10.957   0.580  0.5195  3.0393  0.5290
  114MOL0     H15683   2.948  11.021   0.664 -0.8531 -0.6644 -1.2312
  114MOL0     H15684   2.977  10.728   0.563 -0.7332  0.0900 -1.3391
  114MOL0     H15685   2.835  10.796   0.642 -1.6627  2.5640  0.1729
  114MOL0     H15686   2.788  10.944   0.467  1.5744  1.3053  0.6174
  114MOL0     H15687   2.925  10.906   0.377 -0.3464 -0.2967 -0.6096
  114MOL0     H15688   2.738  10.778   0.282 -1.2250 -0.4606  0.1032
  114MOL0     H15689   2.838  10.662   0.371 -1.7344 -1.2933 -0.3662
  114MOL0     H15690   2.423  10.694   0.569  1.4607 -2.7715  2.2451
  114MOL0     H15691   2.172  10.458   0.567  0.5777 -0.5181 -0.3642
  114MOL0     H15692   2.127  10.607   0.479  2.3542  2.7142 -1.3308
  114MOL0     H15693   2.218  10.620   0.621 -1.0498  0.7623 -0.9110
  114MOL0     H15694   2.216  10.225   0.043  3.2329 -2.1796 -0.0968
  114MOL0     H15695   2.045  10.084  -0.047  1.8163 -0.1572  0.2173
  114MOL0     H15696   1.752   9.947   0.207 -0.6791  3.3166  0.7365
  114MOL0     H15697   1.780  10.049   0.062 -0.6155 -1.1204  0.3183
  114MOL0     H15698   1.657   9.774   0.076  1.4372  0.6171  1.2306
  114MOL0     H15699   1.562   9.908   0.053 -0.6130  0.6957 -1.7504
  114MOL0     H15700   1.746   9.783  -0.131 -0.0391 -0.7860  2.2867
  114MOL0     H15701   1.708   9.961  -0.159  1.7820 -0.9980 -0.3135
  114MOL0     H15702   1.579   9.820  -0.302  1.5427  0.1081  0.1232
  114MOL0     H15703   1.477   9.899  -0.176  0.8593 -0.7811  1.8766
  114MOL0     H15704   1.573   9.596  -0.196 -1.5867 -1.5271 -2.7029
  114MOL0     H15705   1.496   9.665  -0.056 -1.9679 -1.7529 -0.4899
  114MOL0     H15706   1.387   9.607  -0.337 -1.6938 -1.5071 -1.0657
  114MOL0     H15707   1.314   9.738  -0.247 -0.3647 -0.1270  2.5733
  114MOL0     H15708   1.272   9.589  -0.059  1.9792 -2.1465  1.8856
  114MOL0     H15709   1.360   9.453  -0.124 -3.7209 -1.9352  2.5287
  114MOL0     H15710   1.120   9.399  -0.150  1.3204 -2.8903 -2.9930
  114MOL0     H15711   1.172   9.447  -0.312 -1.7193  0.3436 -0.7869
  114MOL0     H15712   2.009   9.876   0.319 -2.9941  0.3808 -1.0246
  114MOL0     H15713   2.166  10.039   0.428  1.5180  1.1792 -0.8917
  114MOL0     H15714   2.489  10.398   0.192  0.8946  2.1373 -1.7685
  114MOL0     H15715   2.664  10.543   0.260  0.5304 -2.1429  0.2227
  114MOL0     H15716   3.259  10.762   2.207 -0.7569  0.2511  0.9524
  114MOL0     H15717   3.390  10.848   2.416  1.0964  0.5605  1.3509
  114MOL0     H15718   3.788  10.623   2.735  3.2583 -1.0631  0.6578
  114MOL0     H15719   3.972  10.669   2.883  2.8251  0.2755 -0.2826
  114MOL0     H15720   4.310  10.921   2.937  0.4389 -0.7404 -1.8979
  114MOL0     H15721   4.238  10.986   2.793 -0.6330 -2.1943  0.0042
  114MOL0     H15722   4.258  11.094   3.070  1.9294  1.3940 -1.5046
  114MOL0     H15723   4.096  11.130   3.009 -0.2337  0.9903 -1.4793
  114MOL0     H15724   4.359  11.208   2.906  0.0199 -1.2686 -0.9811
  114MOL0     H15725   4.219  11.201   2.786 -1.2672 -3.1235  0.1927
  114MOL0     H15726   4.183  11.343   3.042 -0.4186  1.1304  0.0564
  114MOL0     H15727   4.092  11.366   2.890  0.2332  0.2360 -0.9151
  114MOL0     H15728   4.396  11.645   2.837  0.0960  0.2892 -0.1682
  114MOL0     H15729   4.020  11.062   2.721 -0.9478  0.1631  1.9343
  114MOL0     H15730   3.886  10.981   2.402  1.9968  0.1320  0.4645
  114MOL0     H15731   3.765  11.069   2.489 -1.7899 -0.1673 -0.2267
  114MOL0     H15732   3.935  11.111   2.519  0.2575 -0.7035 -0.3068
  115MOL0     O15733   8.238   8.187   2.101  0.1065 -0.2124 -0.0631
  115MOL0     C15734   8.207   8.147   1.989  0.0278  0.7307 -0.3295
  115MOL0     O15735   8.215   8.219   1.877  1.1050 -0.5971 -0.3706
  115MOL0     C15736   8.232   8.355   1.888  0.5649 -0.1167  0.0821
  115MOL0     C15737   8.132   8.432   1.837 -0.4670 -0.2082 -0.0254
  115MOL0     C15738   8.143   8.570   1.849 -0.3374  0.3849 -0.0417
  115MOL0     C15739   8.257   8.632   1.903  0.2682  0.4017 -0.1599
  115MOL0     O15740   8.249   8.768   1.908 -0.9016 -0.2502 -0.2886
  115MOL0     C15741   8.370   8.848   1.935  0.1673 -0.3963  0.0010
  115MOL0     C15742   8.456   8.851   1.814  0.1870 -0.0820 -0.4737
  115MOL0     C15743   8.564   8.949   1.825 -0.9177  0.4939  0.8118
  115MOL0     C15744   8.618   8.983   1.681 -0.1960 -0.0428  0.0225
  115MOL0     C15745   8.760   9.047   1.681  1.0203 -0.4224  0.6967
  115MOL0     C15746   8.767   9.193   1.717  0.6983 -0.1125  0.9833
  115MOL0     C15747   8.905   9.257   1.691 -0.6605 -0.2377 -0.1789
  115MOL0     C15748   8.943   9.309   1.549  0.1322  0.4164  0.7900
  115MOL0     N15749   9.069   9.386   1.540  0.3548 -0.6123 -0.0695
  115MOL0     C15750   9.178   9.337   1.481  0.0781  1.6714 -0.0434
  115MOL0     C15751   9.270   9.436   1.482  0.0284 -0.0361  0.6307
  115MOL0     C15752   9.413   9.425   1.423 -0.0237 -0.1786  0.3494
  115MOL0     C15753   9.506   9.374   1.529 -0.2506  0.1144  1.2188
  115MOL0     C15754   9.537   9.468   1.643 -0.1200  0.4569  0.4852
  115MOL0     C15755   9.671   9.467   1.698  0.1645  0.0263 -0.1133
  115MOL0     O15756   9.770   9.493   1.599 -0.7572  0.0770  0.4309
  115MOL0     C15757   9.906   9.476   1.636  0.3679  0.5752 -0.6892
  115MOL0     C15758  10.005   9.494   1.533  0.2524 -0.1547 -0.1185
  115MOL0     C15759  10.145   9.483   1.560  0.0079  0.3049 -0.0697
  115MOL0     C15760  10.240   9.510   1.441 -0.0337 -0.5138 -0.2824
  115MOL0     C15761  10.188   9.439   1.687 -0.1137 -0.0591  0.0617
  115MOL0     C15762  10.324   9.390   1.720 -1.1868 -0.0342  0.0211
  115MOL0     O15763  10.382   9.426   1.839 -0.1689 -0.1843 -0.5528
  115MOL0     C15764  10.488   9.353   1.885 -0.4263  0.6368  0.4545
  115MOL0     C15765  10.474   9.304   2.017  0.6280 -1.0112  0.8524
  115MOL0     C15766  10.579   9.234   2.081  0.0286  0.0094  0.4170
  115MOL0     C15767  10.703   9.230   2.017  0.3319  0.2714 -0.4582
  115MOL0     O15768  10.812   9.175   2.084  0.1665 -0.4932 -0.0802
  115MOL0     C15769  10.811   9.169   2.234  0.1431  0.4147  0.5870
  115MOL0     C15770  10.782   9.024   2.284  0.3627 -0.3342 -0.3714
  115MOL0     C15771  10.875   8.926   2.213 -0.2446  0.5099 -0.6854
  115MOL0     C15772  10.854   8.774   2.242  0.6451 -0.4461 -0.2183
  115MOL0     C15773  10.947   8.718   2.351  0.1791  0.4469  0.0799
  115MOL0     C15774  10.908   8.767   2.486 -0.6207 -0.8926 -0.6772
  115MOL0     C15775  11.000   8.699   2.588 -0.7121  0.6004  0.2804
  115MOL0     C15776  10.956   8.721   2.740 -0.1322 -0.1244 -0.0356
  115MOL0    Cl15777  11.050   8.614   2.860 -0.2076  0.2021  0.0693
  115MOL0     C15778  10.722   9.291   1.891  0.0576 -0.0305  0.1405
  115MOL0     C15779  10.616   9.359   1.831  0.1549  0.2018 -0.6127
  115MOL0     O15780  10.376   9.319   1.635  0.3322 -1.2867 -0.5676
  115MOL0     C15781  10.082   9.420   1.785 -0.6417 -0.1971  0.4904
  115MOL0     C15782   9.945   9.449   1.766  0.0046 -0.5575  0.1416
  115MOL0     N15783   9.205   9.546   1.541 -0.1918  0.8759 -0.6336
  115MOL0     N15784   9.084   9.514   1.581  0.0379 -0.5634 -0.4886
  115MOL0     C15785   8.354   8.552   1.954  0.4922 -0.3356  0.4529
  115MOL0     C15786   8.343   8.412   1.951 -0.1624 -0.4822 -0.0430
  115MOL0     C15787   8.153   8.010   1.975 -1.2493 -0.1144  0.6641
  115MOL0     C15788   8.168   7.949   1.841 -0.5782 -0.1311 -0.4392
  115MOL0     C15789   8.113   7.819   1.822 -0.3051  0.1240  1.5002
  115MOL0     C15790   8.054   7.744   1.917  0.2219 -0.2042 -0.4332
  115MOL0     O15791   8.021   7.619   1.889  0.0339  0.7503  0.6856
  115MOL0     C15792   8.006   7.525   1.999  0.1148 -0.5930 -0.8061
  115MOL0     C15793   8.032   7.387   1.959 -0.0663  0.8059 -0.2913
  115MOL0     C15794   7.966   7.354   1.825  0.1900  0.9873 -0.1947
  115MOL0     C15795   8.058   7.361   1.704 -0.2078  0.3475 -0.0592
  115MOL0     C15796   7.985   7.296   1.589  0.3379 -0.1729 -0.0305
  115MOL0     C15797   7.918   7.243   1.499 -0.0949  0.0043 -0.1386
  115MOL0     C15798   8.033   7.806   2.042 -0.0867 -0.6442 -0.1887
  115MOL0     C15799   8.089   7.928   2.077 -0.2774  0.7290 -0.1255
  115MOL0     C15800   8.067   7.980   2.213 -0.7722 -0.2308  0.3395
  115MOL0     H15801   8.053   8.383   1.779 -1.3166  2.1155 -0.9778
  115MOL0     H15802   8.059   8.627   1.810  0.9814  0.2412 -3.4537
  115MOL0     H15803   8.424   8.808   2.021  1.2963 -1.2909 -1.0831
  115MOL0     H15804   8.334   8.943   1.976  1.7261 -0.7272  2.3435
  115MOL0     H15805   8.508   8.755   1.807 -0.0970 -0.2395 -0.4298
  115MOL0     H15806   8.393   8.873   1.728  1.2805  4.1515 -0.4053
  115MOL0     H15807   8.531   9.042   1.872 -0.5024  1.1817 -0.2293
  115MOL0     H15808   8.640   8.903   1.889 -0.9927  1.1940  1.4158
  115MOL0     H15809   8.617   8.884   1.635 -1.7426 -1.2735  2.4666
  115MOL0     H15810   8.551   9.052   1.631  1.6020  1.7093 -0.0948
  115MOL0     H15811   8.785   9.048   1.575  1.2455 -1.0828  0.7407
  115MOL0     H15812   8.831   8.984   1.734 -0.2726 -0.1212  2.9438
  115MOL0     H15813   8.687   9.249   1.669 -0.3099 -1.8332  0.5598
  115MOL0     H15814   8.753   9.207   1.825 -0.9400 -0.0276  0.7848
  115MOL0     H15815   8.972   9.186   1.740 -3.6647 -0.9221  3.4685
  115MOL0     H15816   8.906   9.349   1.750  0.8926  0.1573 -0.7916
  115MOL0     H15817   8.939   9.228   1.475 -0.8397  1.4357 -0.3087
  115MOL0     H15818   8.866   9.375   1.510 -1.3175 -0.4148  2.1395
  115MOL0     H15819   9.192   9.239   1.437  4.4655  1.4999  1.2334
  115MOL0     H15820   9.438   9.522   1.380 -1.2488  0.3216  0.7142
  115MOL0     H15821   9.412   9.350   1.344  1.2827  1.0862 -0.9266
  115MOL0     H15822   9.480   9.277   1.572 -0.6905 -1.6578 -2.6678
  115MOL0     H15823   9.597   9.364   1.469  0.0024  1.8569  1.2668
  115MOL0     H15824   9.520   9.569   1.604  0.0910 -1.0212 -4.0682
  115MOL0     H15825   9.460   9.456   1.720 -2.7297 -0.4388 -2.0527
  115MOL0     H15826   9.679   9.543   1.777  1.5829  0.9756 -1.1178
  115MOL0     H15827   9.687   9.375   1.754 -2.7498 -0.2006  0.5162
  115MOL0     H15828   9.978   9.498   1.428  0.1932  0.0724 -0.0955
  115MOL0     H15829  10.268   9.413   1.399 -1.7110 -0.8443 -0.7220
  115MOL0     H15830  10.318   9.578   1.475 -1.8211  0.5782  1.8877
  115MOL0     H15831  10.192   9.558   1.356 -1.8171  0.0827  0.9982
  115MOL0     H15832  10.376   9.312   2.062  0.2423 -1.6786  0.1624
  115MOL0     H15833  10.561   9.192   2.180 -0.2059 -0.2689  0.2594
  115MOL0     H15834  10.908   9.200   2.274  0.4114 -0.1988  0.4194
  115MOL0     H15835  10.742   9.233   2.290  0.2831  0.9082  0.2018
  115MOL0     H15836  10.793   9.031   2.392  2.2714  2.2971 -0.6334
  115MOL0     H15837  10.680   8.990   2.264  0.7319 -3.0520  1.8311
  115MOL0     H15838  10.978   8.961   2.223 -0.2501  1.2824 -2.7801
  115MOL0     H15839  10.851   8.936   2.107 -1.6229  1.4892 -0.3098
  115MOL0     H15840  10.874   8.723   2.147 -4.5481  0.1045 -1.9088
  115MOL0     H15841  10.751   8.741   2.256  0.2877 -0.8301 -3.0374
  115MOL0     H15842  10.963   8.610   2.345 -1.2476  0.2565 -0.6522
  115MOL0     H15843  11.040   8.762   2.314  0.4212 -1.9925 -2.4573
  115MOL0     H15844  10.803   8.748   2.509 -1.4894 -1.5456 -4.5061
  115MOL0     H15845  10.914   8.876   2.485 -1.8837 -0.6762  2.4973
  115MOL0     H15846  11.104   8.734   2.587  0.9513 -3.5507  2.7359
  115MOL0     H15847  10.996   8.592   2.568 -0.1501  0.4238  1.0517
  115MOL0     H15848  10.849   8.700   2.748 -0.0956  0.0173  0.8522
  115MOL0     H15849  10.957   8.828   2.758 -0.4229  0.3491 -2.4390
  115MOL0     H15850  10.821   9.282   1.847  0.6395 -2.0692  1.6846
  115MOL0     H15851  10.623   9.417   1.739 -1.0808 -3.3156 -3.1671
  115MOL0     H15852  10.121   9.389   1.881 -1.1730 -0.0651  0.7572
  115MOL0     H15853   9.870   9.434   1.842  0.5815  1.1946  1.1121
  115MOL0     H15854   8.435   8.598   2.009  0.2952 -2.1889  2.4110
  115MOL0     H15855   8.413   8.346   2.002  0.8694 -2.8748 -4.0530
  115MOL0     H15856   8.210   8.004   1.758 -2.6483  1.8156 -0.3066
  115MOL0     H15857   8.139   7.779   1.724  1.5444 -3.0987  3.1441
  115MOL0     H15858   8.067   7.551   2.087 -1.9949  1.1059  0.2491
  115MOL0     H15859   7.902   7.534   2.031  0.3453  2.1046 -0.5599
  115MOL0     H15860   7.993   7.324   2.040  1.5327 -1.8025 -1.4013
  115MOL0     H15861   8.138   7.360   1.959 -0.4910 -1.3431 -2.8819
  115MOL0     H15862   7.939   7.249   1.812  2.4420  0.5726 -1.9762
  115MOL0     H15863   7.872   7.408   1.806 -1.1224 -0.8460  0.7099
  115MOL0     H15864   8.152   7.315   1.736  0.6497  2.4343  0.6382
  115MOL0     H15865   8.077   7.468   1.689  1.5760  0.3446  1.6522
  115MOL0     H15866   7.857   7.203   1.421  0.3508 -0.3527 -0.3092
  115MOL0     H15867   7.982   7.764   2.127  1.7288 -2.7225 -0.0472
  115MOL0     H15868   8.162   7.989   2.267 -0.5911 -2.0099  0.3517
  115MOL0     H15869   8.021   8.079   2.213 -2.2263 -0.7055  4.5794
  115MOL0     H15870   8.000   7.913   2.267  0.8833 -1.5083  0.9086
  116MOL0     O15871   9.198   0.013   5.952  0.9282 -0.4828 -0.5242
  116MOL0     C15872   9.258  -0.092   5.925 -0.0939 -1.0706 -0.9458
  116MOL0     O15873   9.251  -0.154   5.802 -0.5701 -0.3133 -0.1753
  116MOL0     C15874   9.208  -0.080   5.695  1.2103 -0.8453 -0.3760
  116MOL0     C15875   9.073  -0.056   5.681 -0.1434  0.7340 -0.4842
  116MOL0     C15876   9.032   0.009   5.567 -0.5381 -0.2893 -0.1613
  116MOL0     C15877   9.116   0.055   5.469 -0.8742 -0.4285 -0.4261
  116MOL0     O15878   9.059   0.104   5.353  0.8672 -0.3205  0.3633
  116MOL0     C15879   9.147   0.146   5.249  0.1764  0.9702  0.5981
  116MOL0     C15880   9.069   0.186   5.118  0.3396  0.5805  0.4996
  116MOL0     C15881   8.970   0.074   5.083  0.7400 -0.1913  0.4561
  116MOL0     C15882   9.038  -0.065   5.088 -0.5351  0.2360 -1.1241
  116MOL0     C15883   8.978  -0.155   4.985  0.6493  0.7714  0.3142
  116MOL0     C15884   9.059  -0.283   4.984 -1.3066 -0.4341 -0.0727
  116MOL0     C15885   9.035  -0.363   4.851  0.8775 -0.0320  0.1186
  116MOL0     C15886   8.887  -0.404   4.822 -0.4562  0.3507  0.1465
  116MOL0     N15887   8.825  -0.475   4.933 -0.3485  0.4822 -0.3514
  116MOL0     C15888   8.830  -0.610   4.951 -0.2516 -0.6426  0.0247
  116MOL0     C15889   8.722  -0.634   5.032  0.0120  0.1839  0.3289
  116MOL0     C15890   8.676  -0.769   5.086  0.2030  0.0235  0.0975
  116MOL0     C15891   8.532  -0.794   5.047  0.5305 -0.2893  0.4490
  116MOL0     C15892   8.502  -0.856   4.907 -0.0754  0.2123  0.6179
  116MOL0     C15893   8.355  -0.890   4.901  0.5854  0.2680  0.2026
  116MOL0     O15894   8.285  -0.762   4.868  0.8362 -0.0785  0.4290
  116MOL0     C15895   8.150  -0.761   4.838 -0.4107  0.4488 -1.1597
  116MOL0     C15896   8.099  -0.631   4.811 -0.3551  0.0356  0.0730
  116MOL0     C15897   7.966  -0.612   4.765  0.0778  0.1947  0.0038
  116MOL0     C15898   7.909  -0.467   4.736 -0.0550 -0.0951 -0.2528
  116MOL0     C15899   7.889  -0.729   4.728  0.2070  0.7531  0.5321
  116MOL0     C15900   7.752  -0.729   4.677 -0.0940  0.4994 -0.0160
  116MOL0     O15901   7.708  -0.850   4.658 -0.2773 -0.2225  0.0514
  116MOL0     C15902   7.575  -0.863   4.636 -0.4657 -0.4838 -0.6506
  116MOL0     C15903   7.484  -0.851   4.749 -0.2837  0.2662 -0.4897
  116MOL0     C15904   7.350  -0.874   4.725 -0.0650  0.5646 -0.6190
  116MOL0     C15905   7.294  -0.897   4.606 -0.9718  0.1152 -0.0609
  116MOL0     O15906   7.158  -0.921   4.601  0.0740  0.3331  0.1450
  116MOL0     C15907   7.118  -1.006   4.508  0.5383  1.2808  1.3311
  116MOL0     C15908   6.971  -1.015   4.537  0.0602  0.3752 -0.3125
  116MOL0     C15909   6.954  -1.099   4.666  0.0988 -0.5638  0.6095
  116MOL0     C15910   6.808  -1.114   4.708  0.2797  0.9460 -0.1382
  116MOL0     C15911   6.804  -1.213   4.827  0.0172 -0.8182 -0.1457
  116MOL0     C15912   6.668  -1.218   4.899  0.2684  0.2811 -0.8957
  116MOL0     C15913   6.666  -1.306   5.031  0.3350 -0.9112  1.3270
  116MOL0     C15914   6.782  -1.397   5.062 -0.3803  0.3320  0.1017
  116MOL0    Cl15915   6.767  -1.537   4.953  0.2526 -0.1191 -0.1890
  116MOL0     C15916   7.383  -0.896   4.499  0.0190 -1.2226  0.0535
  116MOL0     C15917   7.522  -0.877   4.510  0.4476 -0.4755  0.3511
  116MOL0     O15918   7.688  -0.627   4.673 -0.9495  1.1197  1.1595
  116MOL0     C15919   7.951  -0.857   4.759 -0.8679 -0.4975  0.3574
  116MOL0     C15920   8.075  -0.878   4.815  0.2068 -0.0619  0.1848
  116MOL0     N15921   8.663  -0.514   5.062  0.0086  0.2158 -0.7895
  116MOL0     N15922   8.718  -0.423   4.996  0.0780 -0.4098 -0.9152
  116MOL0     C15923   9.254   0.047   5.491  0.4671  0.1924  0.8756
  116MOL0     C15924   9.297  -0.010   5.604 -0.9410 -0.0572 -0.0588
  116MOL0     C15925   9.328  -0.152   6.041  0.3062  0.5474 -0.0017
  116MOL0     C15926   9.443  -0.237   6.006  0.2094 -0.4507  0.2411
  116MOL0     C15927   9.520  -0.286   6.112  0.0675  0.2705 -0.6291
  116MOL0     C15928   9.488  -0.269   6.245  0.0831  0.1427 -0.8477
  116MOL0     O15929   9.581  -0.325   6.329  0.5216  0.7951  0.0128
  116MOL0     C15930   9.557  -0.318   6.464 -0.0410 -0.9309  0.1149
  116MOL0     C15931   9.564  -0.169   6.521  0.3064  0.5514 -1.1363
  116MOL0     C15932   9.683  -0.091   6.464  0.4871  0.2982  0.6016
  116MOL0     C15933   9.811  -0.129   6.528  0.4401 -0.2562 -0.4107
  116MOL0     C15934   9.925  -0.035   6.516 -0.4327 -0.1574 -0.0147
  116MOL0     C15935  10.015   0.042   6.504 -0.0096 -0.4954  1.3706
  116MOL0     C15936   9.372  -0.196   6.273  0.7864  0.0771 -0.4194
  116MOL0     C15937   9.289  -0.134   6.177 -0.6541 -0.2225 -0.1737
  116MOL0     C15938   9.169  -0.053   6.223  0.0617 -0.4128  0.3543
  116MOL0     H15939   9.006  -0.104   5.753  2.9696 -2.5224  0.5565
  116MOL0     H15940   8.926   0.034   5.560 -0.6407 -0.4343  0.8101
  116MOL0     H15941   9.221   0.069   5.224 -0.2102  0.5789  0.6382
  116MOL0     H15942   9.211   0.229   5.279 -0.9799  2.1289 -0.0583
  116MOL0     H15943   9.012   0.278   5.133 -1.3829 -0.3893  0.1299
  116MOL0     H15944   9.143   0.214   5.042  0.4656  3.4546  1.5667
  116MOL0     H15945   8.882   0.091   5.145 -0.6408 -1.7803 -0.9635
  116MOL0     H15946   8.943   0.096   4.979  2.0308 -0.1849  0.0944
  116MOL0     H15947   9.144  -0.050   5.068  0.0212 -0.5182  0.9954
  116MOL0     H15948   9.027  -0.101   5.191 -0.6287  1.0234 -0.8532
  116MOL0     H15949   8.990  -0.108   4.887 -4.1517  0.1871 -0.8168
  116MOL0     H15950   8.870  -0.166   4.989  0.8536 -2.2434 -0.1612
  116MOL0     H15951   9.164  -0.253   4.984 -0.2452 -3.7420  1.1537
  116MOL0     H15952   9.029  -0.346   5.068 -1.6056  0.8169  0.7752
  116MOL0     H15953   9.094  -0.456   4.847 -0.8338 -1.2578  1.6380
  116MOL0     H15954   9.069  -0.308   4.763  2.3655  1.8862  1.8127
  116MOL0     H15955   8.832  -0.315   4.793  1.4292  1.6602  0.3837
  116MOL0     H15956   8.880  -0.476   4.741 -1.2035  0.5984 -0.0153
  116MOL0     H15957   8.901  -0.675   4.901 -1.2170 -1.3286 -0.4894
  116MOL0     H15958   8.671  -0.776   5.195  2.8079 -0.5140  0.2367
  116MOL0     H15959   8.731  -0.861   5.064  1.5478  0.9811 -0.6931
  116MOL0     H15960   8.495  -0.854   5.131 -0.9637 -0.0311  0.0070
  116MOL0     H15961   8.474  -0.702   5.035  0.1951 -0.5819 -0.1901
  116MOL0     H15962   8.541  -0.788   4.830  1.6700 -2.9089 -1.4587
  116MOL0     H15963   8.561  -0.947   4.890 -0.3992  0.5341 -3.0626
  116MOL0     H15964   8.325  -0.963   4.825 -3.4711  1.9013 -0.0347
  116MOL0     H15965   8.331  -0.929   5.000 -1.2640 -1.6569 -0.9364
  116MOL0     H15966   8.169  -0.550   4.828 -0.2035  0.2049 -1.2915
  116MOL0     H15967   7.857  -0.445   4.830 -0.4133  0.9662 -0.6920
  116MOL0     H15968   7.841  -0.444   4.653 -0.9896  0.2202  0.5693
  116MOL0     H15969   7.995  -0.401   4.728  2.0460 -2.4178  1.6822
  116MOL0     H15970   7.520  -0.852   4.851 -0.6157  2.8629 -0.2881
  116MOL0     H15971   7.287  -0.880   4.814  0.7976  0.5145  0.0077
  116MOL0     H15972   7.130  -0.975   4.404  0.5510 -4.7920 -0.8727
  116MOL0     H15973   7.173  -1.100   4.508 -1.1169  0.1767 -1.6417
  116MOL0     H15974   6.927  -0.916   4.555  1.2729  0.6115  1.6871
  116MOL0     H15975   6.927  -1.084   4.465 -0.4455 -0.5411  0.8577
  116MOL0     H15976   7.015  -1.044   4.739  1.3001 -1.3286  0.2267
  116MOL0     H15977   7.005  -1.195   4.650  1.5718  0.3312 -0.3469
  116MOL0     H15978   6.742  -1.158   4.633  0.9605  1.0036 -0.7813
  116MOL0     H15979   6.768  -1.015   4.732 -0.6753  0.1486  1.7571
  116MOL0     H15980   6.839  -1.313   4.801  1.6281 -0.6459  1.2169
  116MOL0     H15981   6.884  -1.180   4.894  1.1809 -0.8765 -1.4707
  116MOL0     H15982   6.597  -1.274   4.836  2.7029 -1.6937 -2.0704
  116MOL0     H15983   6.644  -1.112   4.913  1.7688  0.6610 -1.0915
  116MOL0     H15984   6.574  -1.362   5.046  0.6689 -1.8393  0.0069
  116MOL0     H15985   6.663  -1.233   5.113  0.9655 -0.7350  1.1987
  116MOL0     H15986   6.777  -1.435   5.165 -1.6225 -3.8235 -1.2640
  116MOL0     H15987   6.874  -1.352   5.023 -0.8813 -1.4662 -3.5717
  116MOL0     H15988   7.340  -0.918   4.401 -0.5634 -0.3310  0.1021
  116MOL0     H15989   7.593  -0.890   4.429  0.9046  0.5879  0.5646
  116MOL0     H15990   7.900  -0.949   4.733  1.7929 -1.9601 -0.0257
  116MOL0     H15991   8.114  -0.977   4.836 -0.4685  0.0042  1.8733
  116MOL0     H15992   9.328   0.095   5.428 -1.9010  1.5988 -0.9655
  116MOL0     H15993   9.398  -0.010   5.641 -1.0578 -1.4079  0.3114
  116MOL0     H15994   9.471  -0.247   5.902  5.2613 -2.2597  1.4854
  116MOL0     H15995   9.614  -0.339   6.093 -2.1765 -4.6860  0.3754
  116MOL0     H15996   9.464  -0.373   6.481 -1.6051  0.8690 -2.0588
  116MOL0     H15997   9.638  -0.385   6.496  0.7787 -2.7401 -4.8494
  116MOL0     H15998   9.568  -0.175   6.630 -0.5410  3.1337 -0.8973
  116MOL0     H15999   9.467  -0.119   6.516  0.2205  1.6850  4.6357
  116MOL0     H16000   9.680  -0.114   6.357 -1.8559  2.0571  0.2117
  116MOL0     H16001   9.660   0.016   6.474 -0.2438  0.2682 -0.5577
  116MOL0     H16002   9.842  -0.225   6.486  0.1347  0.0763 -1.4279
  116MOL0     H16003   9.801  -0.143   6.636 -2.3869  1.3492 -0.3683
  116MOL0     H16004  10.093   0.112   6.482 -0.6546  0.0553  0.7928
  116MOL0     H16005   9.332  -0.195   6.374 -1.0866  0.4182 -1.1052
  116MOL0     H16006   9.168   0.055   6.203  1.0577  0.0120  2.3829
  116MOL0     H16007   9.085  -0.091   6.164  0.2713  1.4443 -1.2826
  116MOL0     H16008   9.144  -0.059   6.329  0.3747  0.1507  0.4645
  117MOL0     O16009   9.158   0.510   7.084  0.4768  0.3510 -0.0454
  117MOL0     C16010   9.244   0.490   6.995 -0.3603  0.1775 -0.3575
  117MOL0     O16011   9.242   0.386   6.907 -0.5402 -0.0510  0.0799
  117MOL0     C16012   9.121   0.333   6.892  1.3125 -0.4831  0.0333
  117MOL0     C16013   9.048   0.368   6.781 -1.0104 -0.2929  0.6573
  117MOL0     C16014   8.915   0.330   6.757 -0.5136  0.3496 -0.4123
  117MOL0     C16015   8.861   0.237   6.854 -0.6429 -0.4209 -0.6141
  117MOL0     O16016   8.736   0.182   6.850  0.7427  0.0549  0.2632
  117MOL0     C16017   8.667   0.168   6.726 -0.0723  0.0186 -0.2107
  117MOL0     C16018   8.536   0.251   6.742  0.0837  0.8100  0.7799
  117MOL0     C16019   8.436   0.217   6.634  0.8383 -0.0092 -0.2301
  117MOL0     C16020   8.369   0.078   6.638 -0.5347  0.6726 -0.4035
  117MOL0     C16021   8.303   0.038   6.508 -0.2311 -0.0748  0.4183
  117MOL0     C16022   8.195   0.137   6.464  0.5151  0.7412  0.1303
  117MOL0     C16023   8.099   0.077   6.357  0.2582  0.2003 -0.3261
  117MOL0     C16024   8.022   0.191   6.300  0.1168  0.6161  0.3473
  117MOL0     N16025   7.922   0.144   6.205  0.4198 -0.0580  0.4919
  117MOL0     C16026   7.807   0.079   6.240 -0.4237 -0.0604  0.2561
  117MOL0     C16027   7.755   0.034   6.121  0.3597  0.3886  0.0775
  117MOL0     C16028   7.630  -0.049   6.092  0.5472  0.4983  0.0013
  117MOL0     C16029   7.624  -0.181   6.172  0.0585  0.2521 -0.5426
  117MOL0     C16030   7.672  -0.305   6.094 -0.4753 -0.2838  0.2555
  117MOL0     C16031   7.821  -0.286   6.061 -0.0345  0.2755  0.5254
  117MOL0     O16032   7.887  -0.405   6.010  0.6389 -1.0800  0.3943
  117MOL0     C16033   8.023  -0.407   5.991  0.0153  1.3227 -0.6371
  117MOL0     C16034   8.113  -0.305   6.023 -0.9824  0.3930  0.6211
  117MOL0     C16035   8.252  -0.329   6.016 -0.7859 -0.4348  0.5913
  117MOL0     C16036   8.354  -0.220   6.076  0.3880 -0.3004  0.8524
  117MOL0     C16037   8.302  -0.456   5.976  0.1893  1.2783  0.0748
  117MOL0     C16038   8.448  -0.489   5.966 -0.2626 -1.0042  0.0452
  117MOL0     O16039   8.544  -0.385   5.965  0.0889 -0.8860 -0.1050
  117MOL0     C16040   8.669  -0.403   5.912 -0.1264  0.6590  0.7766
  117MOL0     C16041   8.703  -0.499   5.817 -1.8317  0.6804  1.1869
  117MOL0     C16042   8.833  -0.520   5.765  0.2802 -0.5316  0.1085
  117MOL0     C16043   8.936  -0.431   5.812  0.3464  0.3666  0.4567
  117MOL0     O16044   9.069  -0.439   5.773  0.1477 -0.4616  0.1185
  117MOL0     C16045   9.119  -0.573   5.740 -0.8733 -0.0382  0.0205
  117MOL0     C16046   9.257  -0.565   5.810  0.3208  0.5905  0.4789
  117MOL0     C16047   9.342  -0.688   5.792  0.2012  0.4335  0.5736
  117MOL0     C16048   9.472  -0.692   5.875 -0.2539  0.1708  0.6239
  117MOL0     C16049   9.464  -0.734   6.017  0.3549  0.0158  0.4081
  117MOL0     C16050   9.593  -0.727   6.104 -0.0284  0.3051 -0.4031
  117MOL0     C16051   9.556  -0.716   6.257  0.0251  0.0115 -0.5869
  117MOL0     C16052   9.666  -0.774   6.344 -0.8057 -0.0783 -0.5364
  117MOL0    Cl16053   9.630  -0.701   6.506  0.0468 -0.1081 -0.0652
  117MOL0     C16054   8.896  -0.328   5.904 -0.0514 -0.8201 -0.1117
  117MOL0     C16055   8.764  -0.312   5.950 -0.7438 -0.3136  0.0612
  117MOL0     O16056   8.473  -0.606   5.964  0.2149 -0.5356 -0.2346
  117MOL0     C16057   8.204  -0.553   5.933 -0.2002  0.2274  0.0835
  117MOL0     C16058   8.064  -0.531   5.942 -0.0886 -0.0605 -0.8987
  117MOL0     N16059   7.836   0.084   6.011  0.5237 -0.1787  0.3289
  117MOL0     N16060   7.926   0.155   6.070 -0.3593  0.0051 -0.5191
  117MOL0     C16061   8.936   0.203   6.972 -0.2640 -0.8545  0.0840
  117MOL0     C16062   9.063   0.249   6.985  0.4993  0.6104 -0.0774
  117MOL0     C16063   9.372   0.563   7.007 -0.9826 -0.2902 -0.2474
  117MOL0     C16064   9.484   0.511   6.945  0.1356  0.1403 -0.4283
  117MOL0     C16065   9.614   0.567   6.957  0.0093 -0.1458  0.3155
  117MOL0     C16066   9.623   0.690   7.027  0.5157  0.1223 -0.6765
  117MOL0     O16067   9.753   0.728   7.055  0.0114  0.0165 -1.3992
  117MOL0     C16068   9.780   0.846   7.127 -0.1459 -0.5590 -0.2703
  117MOL0     C16069   9.757   0.965   7.026 -0.0725 -0.5500 -0.2619
  117MOL0     C16070   9.804   1.107   7.082  0.8477 -0.0788  0.5733
  117MOL0     C16071   9.750   1.140   7.215  0.8146  0.2906 -0.6378
  117MOL0     C16072   9.608   1.125   7.226  0.1109  0.1626 -0.3288
  117MOL0     C16073   9.493   1.095   7.271  0.2593  0.5150  0.5956
  117MOL0     C16074   9.506   0.748   7.091  0.4551 -0.2254  0.2921
  117MOL0     C16075   9.383   0.692   7.067 -0.3361  0.2862  0.2305
  117MOL0     C16076   9.266   0.765   7.123 -0.4383  0.1181 -0.2203
  117MOL0     H16077   9.093   0.427   6.702  1.4491 -0.3906  1.8803
  117MOL0     H16078   8.857   0.368   6.674 -0.9657 -0.5352 -0.5204
  117MOL0     H16079   8.636   0.065   6.707 -1.0035  0.7050 -2.8093
  117MOL0     H16080   8.727   0.195   6.639  3.3383  0.3958  2.0512
  117MOL0     H16081   8.489   0.240   6.840 -2.1529 -0.1563 -0.3124
  117MOL0     H16082   8.565   0.356   6.733 -2.8728  1.7278  0.8327
  117MOL0     H16083   8.354   0.287   6.655  1.0423  0.5662 -1.2892
  117MOL0     H16084   8.480   0.245   6.538  0.9485 -0.6869 -0.3804
  117MOL0     H16085   8.439  -0.000   6.668 -1.9904 -0.2346  0.7108
  117MOL0     H16086   8.301   0.076   6.723  2.1811  2.3836  2.0127
  117MOL0     H16087   8.255  -0.060   6.515  1.5071 -1.1560 -1.6115
  117MOL0     H16088   8.385   0.027   6.436  0.4311 -1.3221  1.3322
  117MOL0     H16089   8.140   0.190   6.543 -1.9207 -1.5519  0.1203
  117MOL0     H16090   8.252   0.213   6.410  1.8308  0.0437  0.5078
  117MOL0     H16091   8.033   0.013   6.417 -0.0531 -1.5806 -2.4522
  117MOL0     H16092   8.149   0.017   6.281  0.2112 -1.7093  1.0688
  117MOL0     H16093   7.980   0.251   6.382 -2.4589 -2.2272  1.2698
  117MOL0     H16094   8.101   0.246   6.248 -0.9655 -0.6842 -2.9436
  117MOL0     H16095   7.770   0.065   6.341  0.8901  0.7147  0.8814
  117MOL0     H16096   7.643  -0.078   5.987  0.9249  0.4152  0.0707
  117MOL0     H16097   7.543   0.015   6.110  1.6588  1.3083  3.0206
  117MOL0     H16098   7.669  -0.166   6.271  0.3409  1.4318 -0.8281
  117MOL0     H16099   7.518  -0.188   6.197  0.0409  0.3070 -0.6006
  117MOL0     H16100   7.649  -0.398   6.146 -1.8704 -0.5589 -0.7923
  117MOL0     H16101   7.610  -0.323   6.006  0.3579  3.0219 -1.1838
  117MOL0     H16102   7.830  -0.201   5.993 -1.9401  0.5061  0.5172
  117MOL0     H16103   7.883  -0.263   6.149  0.9689  1.2403 -0.3994
  117MOL0     H16104   8.069  -0.211   6.052 -2.5319  1.1149 -3.4402
  117MOL0     H16105   8.304  -0.127   6.104 -0.3748 -0.0821 -1.0530
  117MOL0     H16106   8.423  -0.196   5.994  0.0340 -1.9310  0.0238
  117MOL0     H16107   8.411  -0.260   6.160  1.3216 -0.4669  0.1561
  117MOL0     H16108   8.621  -0.562   5.784 -2.4857  1.4581  1.3238
  117MOL0     H16109   8.843  -0.601   5.694 -3.4065 -1.2872  0.2464
  117MOL0     H16110   9.060  -0.657   5.779 -1.8464  0.7630  0.3229
  117MOL0     H16111   9.123  -0.585   5.632 -2.8041 -1.0603  0.0126
  117MOL0     H16112   9.316  -0.481   5.774  1.2771 -0.6056 -0.8648
  117MOL0     H16113   9.245  -0.551   5.918  2.2888  2.8111  0.4851
  117MOL0     H16114   9.351  -0.694   5.683  1.7897 -1.3220  0.7426
  117MOL0     H16115   9.283  -0.773   5.829  0.4365 -0.3711 -0.7994
  117MOL0     H16116   9.514  -0.592   5.882 -0.1479  0.0819  1.3041
  117MOL0     H16117   9.537  -0.760   5.818 -0.6296  2.2414 -2.5772
  117MOL0     H16118   9.401  -0.653   6.056  1.8322  1.0321  0.7761
  117MOL0     H16119   9.418  -0.833   6.022  0.7055 -0.0711  3.0941
  117MOL0     H16120   9.644  -0.634   6.075  2.8477 -1.0595 -0.0128
  117MOL0     H16121   9.650  -0.818   6.087 -3.5891 -2.2163 -0.0545
  117MOL0     H16122   9.461  -0.762   6.285  0.1890  1.0862  2.1023
  117MOL0     H16123   9.543  -0.609   6.279  1.8039  0.0317  0.5608
  117MOL0     H16124   9.763  -0.727   6.324 -1.3983  1.2079 -0.5303
  117MOL0     H16125   9.661  -0.883   6.343 -0.5824 -0.1170  0.6691
  117MOL0     H16126   8.973  -0.259   5.936 -0.8224 -0.3939  0.8664
  117MOL0     H16127   8.747  -0.241   6.031 -0.2623  0.3189 -0.3848
  117MOL0     H16128   8.230  -0.650   5.891 -2.8393 -0.9247  0.9034
  117MOL0     H16129   8.003  -0.613   5.907 -1.0212  0.3422 -0.2686
  117MOL0     H16130   8.893   0.132   7.042  0.1297  0.5633  1.8308
  117MOL0     H16131   9.122   0.226   7.073  0.9712  1.6468 -0.1145
  117MOL0     H16132   9.474   0.421   6.885  0.4195 -0.7232  0.7910
  117MOL0     H16133   9.706   0.517   6.929 -0.4983 -0.6587 -0.4835
  117MOL0     H16134   9.712   0.849   7.212  1.7841 -2.2672  1.4625
  117MOL0     H16135   9.882   0.844   7.166 -0.4894 -1.6880  0.6247
  117MOL0     H16136   9.650   0.977   7.011 -0.3085 -1.3360  0.7146
  117MOL0     H16137   9.803   0.937   6.931 -1.0451 -0.5223 -0.7439
  117MOL0     H16138   9.913   1.102   7.081  0.8720 -5.0719 -2.1148
  117MOL0     H16139   9.770   1.186   7.014  0.5129  0.5641  1.4525
  117MOL0     H16140   9.774   1.243   7.244 -0.2153 -0.0889  1.8637
  117MOL0     H16141   9.799   1.080   7.293 -2.0808  0.0359  1.1338
  117MOL0     H16142   9.395   1.062   7.300  0.1565 -1.2324 -1.4455
  117MOL0     H16143   9.512   0.844   7.141 -2.9218  0.1107  0.2556
  117MOL0     H16144   9.297   0.863   7.161 -0.1978 -0.0427  0.0058
  117MOL0     H16145   9.186   0.771   7.049 -1.6014 -0.3807  0.9613
  117MOL0     H16146   9.217   0.712   7.205 -1.6287 -0.6896 -1.4320
  118MOL0     O16147  11.438   2.797   9.742 -0.0213 -0.1526 -0.1831
  118MOL0     C16148  11.377   2.705   9.797 -0.5723 -0.2356 -0.8911
  118MOL0     O16149  11.374   2.572   9.769 -0.2665  0.3376  0.1833
  118MOL0     C16150  11.479   2.512   9.711 -0.6539  0.3323  0.8645
  118MOL0     C16151  11.540   2.561   9.595  0.1284  0.2577 -1.4645
  118MOL0     C16152  11.631   2.487   9.520 -0.2519 -0.4337 -0.4586
  118MOL0     C16153  11.661   2.352   9.565  0.1229 -0.4201  0.1762
  118MOL0     O16154  11.727   2.251   9.502  0.2474  1.2044  0.0682
  118MOL0     C16155  11.843   2.281   9.425  0.2082 -0.0186  0.7670
  118MOL0     C16156  11.968   2.309   9.508 -0.0028  0.3581  0.2045
  118MOL0     C16157  12.008   2.183   9.594  0.1837 -0.3749  0.4187
  118MOL0     C16158  12.091   2.216   9.716 -0.7321 -0.2085 -0.6716
  118MOL0     C16159  12.090   2.101   9.824 -0.6431 -0.4255  0.1625
  118MOL0     C16160  12.170   2.152   9.944  0.3834 -0.7991 -0.9494
  118MOL0     C16161  12.169   2.062  10.070 -0.6963  0.0764 -0.5144
  118MOL0     C16162  12.253   1.929  10.043  0.0989  0.5538  0.1140
  118MOL0     N16163  12.257   1.831  10.151  0.8166 -0.8259 -0.5939
  118MOL0     C16164  12.329   1.840  10.266  0.0540  0.1550  0.7139
  118MOL0     C16165  12.276   1.753  10.354 -0.5485  0.0648  0.2638
  118MOL0     C16166  12.330   1.718  10.489 -0.5862 -0.5163  0.3642
  118MOL0     C16167  12.440   1.616  10.486 -0.3720 -0.2907 -1.1038
  118MOL0     C16168  12.531   1.605  10.360  0.4460 -0.5998  1.1094
  118MOL0     C16169  12.647   1.511  10.383  0.4920 -0.2216 -0.6915
  118MOL0     O16170  12.760   1.573  10.456  0.0584  0.5455  0.1624
  118MOL0     C16171  12.885   1.502  10.465  0.5206  0.9737 -0.3431
  118MOL0     C16172  12.985   1.562  10.542  0.8381  0.6809 -0.6960
  118MOL0     C16173  13.108   1.503  10.572 -0.5748  0.3908  0.4781
  118MOL0     C16174  13.213   1.588  10.650  0.5080 -0.0426 -0.1309
  118MOL0     C16175  13.131   1.375  10.515  0.5668  1.3031  0.9571
  118MOL0     C16176  13.266   1.306  10.504 -0.5399  0.4195  0.3052
  118MOL0     O16177  13.373   1.369  10.567 -1.1128 -0.3522 -0.3609
  118MOL0     C16178  13.508   1.347  10.533  0.3047  0.1454  0.2078
  118MOL0     C16179  13.546   1.331  10.397  0.5556 -0.8955  0.2444
  118MOL0     C16180  13.677   1.318  10.357  0.0669  0.1318  0.2157
  118MOL0     C16181  13.772   1.323  10.454 -0.6466 -0.2107 -0.4035
  118MOL0     O16182  13.908   1.302  10.429 -0.0397 -0.6935  0.2965
  118MOL0     C16183  13.944   1.358  10.305 -0.9111  0.8464 -0.2474
  118MOL0     C16184  14.093   1.369  10.316 -0.8773  0.2800  0.7958
  118MOL0     C16185  14.166   1.225  10.311  0.0682  0.2307  0.4710
  118MOL0     C16186  14.316   1.243  10.312  0.8860 -0.5921 -0.2654
  118MOL0     C16187  14.382   1.101  10.312 -0.2891 -0.2919 -0.2893
  118MOL0     C16188  14.538   1.104  10.335  0.0615  0.3767  0.1946
  118MOL0     C16189  14.606   0.964  10.312 -0.5012 -1.2253 -0.0297
  118MOL0     C16190  14.756   0.986  10.316 -0.1788 -0.3873  0.3249
  118MOL0    Cl16191  14.815   1.032  10.482  0.2161  0.7513  0.4253
  118MOL0     C16192  13.743   1.343  10.588  0.3657  0.9286 -0.8121
  118MOL0     C16193  13.610   1.344  10.630  0.6648 -0.1780 -0.1102
  118MOL0     O16194  13.277   1.202  10.440  0.0447 -0.2289  0.4361
  118MOL0     C16195  13.028   1.313  10.437 -0.0054 -0.1310  0.0006
  118MOL0     C16196  12.907   1.378  10.412  0.5350 -0.3736  0.0309
  118MOL0     N16197  12.180   1.672  10.286 -0.4307 -0.1755  0.0904
  118MOL0     N16198  12.176   1.728  10.166  0.6653  0.1850 -0.0028
  118MOL0     C16199  11.595   2.308   9.683 -0.4479  0.0619 -0.2859
  118MOL0     C16200  11.504   2.380   9.756  0.3024 -0.5279  0.4271
  118MOL0     C16201  11.274   2.757   9.886 -0.0753 -0.2500 -0.3613
  118MOL0     C16202  11.166   2.832   9.836 -0.5229 -0.3011 -0.5412
  118MOL0     C16203  11.085   2.897   9.929 -0.6470 -0.1370  0.7317
  118MOL0     C16204  11.095   2.871  10.066  0.2354  0.1614  0.2015
  118MOL0     O16205  10.987   2.921  10.136  0.0785  0.5277  0.0825
  118MOL0     C16206  11.018   3.040  10.217 -0.0081  0.4237  0.4834
  118MOL0     C16207  10.975   3.167  10.142 -0.0277 -0.2969  0.3811
  118MOL0     C16208  11.085   3.275  10.137 -0.3074 -0.2405 -0.0629
  118MOL0     C16209  11.214   3.258  10.047  0.7832  0.3097  0.4591
  118MOL0     C16210  11.325   3.174  10.102  0.3689 -0.4640 -0.3791
  118MOL0     C16211  11.393   3.093  10.152  0.0798  0.2955 -0.0351
  118MOL0     C16212  11.198   2.795  10.119  0.2567  0.5124 -0.0668
  118MOL0     C16213  11.294   2.732  10.027 -0.9028 -1.0969  0.8655
  118MOL0     C16214  11.414   2.668  10.095  0.3037 -0.3014  0.2928
  118MOL0     H16215  11.517   2.661   9.561  2.8770  1.6828  0.5435
  118MOL0     H16216  11.676   2.536   9.434  0.7944  2.5219  1.6050
  118MOL0     H16217  11.824   2.357   9.349  1.8812 -0.6677 -0.3799
  118MOL0     H16218  11.865   2.196   9.359  0.3935  0.9397 -0.4600
  118MOL0     H16219  12.046   2.327   9.433 -3.2966  0.1068 -3.6533
  118MOL0     H16220  11.955   2.395   9.574  2.2637  2.2406 -1.6061
  118MOL0     H16221  11.923   2.127   9.633 -0.8460  0.8358 -0.0000
  118MOL0     H16222  12.076   2.114   9.544  0.1165 -3.4886  4.1590
  118MOL0     H16223  12.195   2.242   9.696 -0.1478 -1.9820 -0.1163
  118MOL0     H16224  12.040   2.302   9.759 -1.8405 -0.9866 -0.4001
  118MOL0     H16225  12.133   2.010   9.782 -1.1559 -0.7610  0.3489
  118MOL0     H16226  11.984   2.078   9.843 -0.5972 -0.1256  0.7822
  118MOL0     H16227  12.270   2.176   9.904  0.3385  2.5023  0.6102
  118MOL0     H16228  12.134   2.249   9.978  1.5986 -0.4957 -0.4795
  118MOL0     H16229  12.068   2.031  10.098  0.4447 -3.3081  0.3755
  118MOL0     H16230  12.214   2.103  10.160 -2.8657  0.7900  0.2928
  118MOL0     H16231  12.212   1.878   9.954 -0.6136  2.1970 -0.5319
  118MOL0     H16232  12.358   1.950  10.019  0.9813 -0.8390  2.4206
  118MOL0     H16233  12.402   1.919  10.281  0.4830  1.4034 -5.2692
  118MOL0     H16234  12.247   1.677  10.548 -0.9779 -0.4600 -0.1386
  118MOL0     H16235  12.374   1.810  10.529 -0.5247 -1.2769  2.1334
  118MOL0     H16236  12.502   1.647  10.571 -3.5083 -1.2801  1.7520
  118MOL0     H16237  12.398   1.517  10.507  1.8270 -1.1403 -0.4386
  118MOL0     H16238  12.474   1.550  10.285 -1.3310 -0.5656  2.3726
  118MOL0     H16239  12.566   1.704  10.329  0.6232  0.3758  4.0278
  118MOL0     H16240  12.615   1.424  10.441 -1.4196 -0.6545 -2.2935
  118MOL0     H16241  12.679   1.473  10.285 -0.7912 -1.1423 -0.7756
  118MOL0     H16242  12.960   1.662  10.577 -1.1708  0.1439 -0.4306
  118MOL0     H16243  13.292   1.625  10.584  0.2957  0.5722 -0.0483
  118MOL0     H16244  13.262   1.539  10.735 -0.4019  1.0123  1.0361
  118MOL0     H16245  13.171   1.681  10.688 -0.4473 -1.6981  3.2487
  118MOL0     H16246  13.471   1.335  10.319  0.8504 -1.9804 -0.1187
  118MOL0     H16247  13.683   1.315  10.249 -0.6554  0.5379  0.1593
  118MOL0     H16248  13.923   1.297  10.217  0.5830  1.0916 -0.7966
  118MOL0     H16249  13.894   1.453  10.286  1.0347  1.6008 -1.9852
  118MOL0     H16250  14.115   1.430  10.228 -1.1897  1.4434  1.5031
  118MOL0     H16251  14.131   1.420  10.405  1.5301 -0.9664  0.5749
  118MOL0     H16252  14.129   1.171  10.224 -0.4231  0.3340  0.6158
  118MOL0     H16253  14.134   1.166  10.397  0.0631  2.2003  1.9137
  118MOL0     H16254  14.335   1.293  10.407 -2.1747 -0.8926  0.6254
  118MOL0     H16255  14.354   1.304  10.229 -0.2343  0.4882 -0.0184
  118MOL0     H16256  14.335   1.042  10.392 -0.1783 -2.2633 -1.6050
  118MOL0     H16257  14.365   1.062  10.211 -0.9350 -2.0175  0.4340
  118MOL0     H16258  14.565   1.130  10.438  1.8829 -2.2321  0.4772
  118MOL0     H16259  14.567   1.180  10.262  0.3175  0.3104  0.2264
  118MOL0     H16260  14.576   0.926  10.214  0.6501 -1.5317 -0.2810
  118MOL0     H16261  14.577   0.888  10.385 -1.5206 -0.4307  0.4238
  118MOL0     H16262  14.785   1.064  10.244  2.0234 -3.3948 -2.3241
  118MOL0     H16263  14.810   0.897  10.282 -0.6092 -0.1452 -1.0547
  118MOL0     H16264  13.815   1.356  10.669 -2.5001  1.2570  1.8696
  118MOL0     H16265  13.580   1.346  10.734 -1.5299 -2.0400 -0.6293
  118MOL0     H16266  13.040   1.219  10.384  0.2520 -0.5623  0.8104
  118MOL0     H16267  12.842   1.309  10.358  2.0217 -2.1689  0.4281
  118MOL0     H16268  11.621   2.208   9.715 -1.1773  0.2108  0.8246
  118MOL0     H16269  11.457   2.360   9.851 -2.3076  1.2494 -0.3814
  118MOL0     H16270  11.142   2.845   9.731  0.2617  3.3866 -0.3961
  118MOL0     H16271  11.001   2.951   9.887  0.3206 -0.2296 -1.4581
  118MOL0     H16272  10.952   3.026  10.303  0.9855 -3.5862  0.7949
  118MOL0     H16273  11.124   3.028  10.242 -0.1584 -3.3830  0.0054
  118MOL0     H16274  10.879   3.208  10.173 -0.3405  0.8468 -1.8593
  118MOL0     H16275  10.958   3.133  10.039  1.1813 -1.9019  0.6578
  118MOL0     H16276  11.029   3.365  10.112 -1.0810 -0.4085  0.9658
  118MOL0     H16277  11.106   3.299  10.242 -1.7076  0.4566  0.0844
  118MOL0     H16278  11.255   3.358  10.028 -3.0150  1.8344 -0.6894
  118MOL0     H16279  11.184   3.206   9.955  0.0923 -0.5901  1.1769
  118MOL0     H16280  11.469   3.034  10.199  1.4355  1.4270 -0.7387
  118MOL0     H16281  11.210   2.782  10.226  3.8587 -0.5660 -0.4687
  118MOL0     H16282  11.435   2.567  10.062  1.1441  0.4720 -1.6755
  118MOL0     H16283  11.500   2.725  10.061 -0.2702 -0.4311 -1.4743
  118MOL0     H16284  11.413   2.680  10.204 -1.2746 -1.1522  0.4031
  119MOL0     O16285   0.999   6.288   2.782  0.4902  0.3444  0.2586
  119MOL0     C16286   0.908   6.269   2.861 -0.0748  0.1085  0.6746
  119MOL0     O16287   0.913   6.302   2.996 -0.3449  0.3017 -0.0762
  119MOL0     C16288   1.038   6.336   3.045 -0.4166 -0.0351 -0.5331
  119MOL0     C16289   1.084   6.265   3.158 -0.1124  0.1877  0.8484
  119MOL0     C16290   1.195   6.305   3.234  0.1618  0.5355 -1.0414
  119MOL0     C16291   1.268   6.422   3.195  0.6569  0.0153 -0.0259
  119MOL0     O16292   1.375   6.468   3.250 -0.4116  0.1155 -0.0275
  119MOL0     C16293   1.423   6.413   3.369 -0.2670  0.1626  0.0756
  119MOL0     C16294   1.506   6.283   3.356 -0.9852 -0.0293  0.7077
  119MOL0     C16295   1.549   6.224   3.496 -0.0143 -0.0534 -0.1315
  119MOL0     C16296   1.610   6.082   3.471 -0.4149  0.2759 -0.0778
  119MOL0     C16297   1.712   6.048   3.590 -0.6247 -0.0024 -0.1375
  119MOL0     C16298   1.779   5.911   3.576 -0.0679  0.2437 -0.9118
  119MOL0     C16299   1.681   5.798   3.537  0.3280  0.1865  0.7126
  119MOL0     C16300   1.739   5.661   3.574 -0.3256  0.2398 -0.1351
  119MOL0     N16301   1.870   5.627   3.516  0.7198 -0.6459 -0.8919
  119MOL0     C16302   1.989   5.648   3.571 -0.0053 -0.3100 -0.7438
  119MOL0     C16303   2.083   5.604   3.486 -0.4238 -1.1579  0.2901
  119MOL0     C16304   2.237   5.621   3.504 -0.2820 -0.3263 -0.5279
  119MOL0     C16305   2.287   5.760   3.518  0.5414 -0.3152 -0.2514
  119MOL0     C16306   2.436   5.785   3.495 -0.8722  0.1338  0.2168
  119MOL0     C16307   2.536   5.696   3.581  0.1414 -0.0294  0.5036
  119MOL0     O16308   2.573   5.582   3.497  0.8211  0.3749 -0.4618
  119MOL0     C16309   2.686   5.507   3.538  0.9317 -1.1216  0.2466
  119MOL0     C16310   2.733   5.402   3.458 -0.2105 -0.0536 -0.7357
  119MOL0     C16311   2.842   5.330   3.494  0.6115 -0.0245  0.7209
  119MOL0     C16312   2.876   5.218   3.404  0.1132  0.5309 -0.1035
  119MOL0     C16313   2.907   5.360   3.615 -0.2834  0.7451 -0.1620
  119MOL0     C16314   3.038   5.302   3.656  0.1084  1.0825 -0.0644
  119MOL0     O16315   3.120   5.368   3.756 -0.4275 -0.3395 -0.2471
  119MOL0     C16316   3.253   5.351   3.734 -1.0361 -0.5267 -0.1855
  119MOL0     C16317   3.340   5.332   3.845  0.2451  0.0381  0.3148
  119MOL0     C16318   3.475   5.326   3.839  0.9698 -0.3059  0.3509
  119MOL0     C16319   3.543   5.334   3.711 -0.8930  0.5727 -0.0373
  119MOL0     O16320   3.677   5.347   3.684 -0.8253  0.6780 -0.3378
  119MOL0     C16321   3.772   5.339   3.791  0.3133  0.1117 -0.0025
  119MOL0     C16322   3.902   5.372   3.714 -0.4234  0.7286  1.0228
  119MOL0     C16323   4.030   5.361   3.807 -0.1100 -0.2614  0.3633
  119MOL0     C16324   4.161   5.352   3.727 -0.5442  0.1068 -0.0079
  119MOL0     C16325   4.244   5.228   3.767  0.2599 -0.2763 -0.4907
  119MOL0     C16326   4.378   5.217   3.697  0.0789  0.5531 -0.1747
  119MOL0     C16327   4.359   5.176   3.543 -0.9505 -0.2208  0.1754
  119MOL0     C16328   4.488   5.158   3.479 -0.4874  0.3201  0.6929
  119MOL0    Cl16329   4.577   5.323   3.457 -0.0125  0.0692 -0.0292
  119MOL0     C16330   3.454   5.345   3.601  0.2320 -0.8226 -0.1633
  119MOL0     C16331   3.316   5.356   3.611 -0.2743 -0.2774 -0.3039
  119MOL0     O16332   3.070   5.195   3.604 -0.4014  0.2583  0.2997
  119MOL0     C16333   2.854   5.453   3.707  0.2834  0.4085  0.6849
  119MOL0     C16334   2.740   5.525   3.668 -0.6899 -0.7295 -0.8030
  119MOL0     N16335   2.022   5.554   3.371  0.5848  0.0182 -0.5524
  119MOL0     N16336   1.895   5.572   3.396  0.5956 -0.3206  0.7084
  119MOL0     C16337   1.225   6.481   3.071 -0.4731 -0.0563 -0.1651
  119MOL0     C16338   1.108   6.450   3.006 -0.7988  0.2137  0.3622
  119MOL0     C16339   0.774   6.233   2.801 -0.3848  0.6183  0.0327
  119MOL0     C16340   0.651   6.265   2.868 -0.3726  0.7309  0.2766
  119MOL0     C16341   0.530   6.244   2.801 -0.4927  0.1944 -0.4252
  119MOL0     C16342   0.525   6.186   2.669 -0.1663  0.2038  0.5584
  119MOL0     O16343   0.408   6.154   2.605 -0.7910 -0.1234  0.0395
  119MOL0     C16344   0.328   6.046   2.657 -0.3660  0.7170 -0.7979
  119MOL0     C16345   0.267   5.955   2.550  1.0156  0.0429 -0.3827
  119MOL0     C16346   0.362   5.872   2.463 -1.0260  0.1203 -0.0248
  119MOL0     C16347   0.312   5.785   2.356 -0.0476  0.7691 -0.4189
  119MOL0     C16348   0.212   5.699   2.423 -0.2111 -0.7270  0.6723
  119MOL0     C16349   0.121   5.649   2.483 -0.9131  0.0676  0.0187
  119MOL0     C16350   0.641   6.144   2.611 -0.3079  0.3910 -0.1711
  119MOL0     C16351   0.763   6.163   2.675  0.4518  0.1966 -0.1010
  119MOL0     C16352   0.883   6.122   2.589  0.5269 -0.5744 -0.2191
  119MOL0     H16353   1.033   6.170   3.174  0.3057  0.0023  1.0777
  119MOL0     H16354   1.222   6.248   3.322 -2.3151  3.0634  1.5736
  119MOL0     H16355   1.342   6.389   3.438 -1.6908 -1.3551 -1.9586
  119MOL0     H16356   1.485   6.483   3.425 -3.7043 -0.0014  4.5927
  119MOL0     H16357   1.468   6.208   3.287 -0.9477  1.0387 -0.5128
  119MOL0     H16358   1.595   6.323   3.306 -2.7226  2.5228 -0.5787
  119MOL0     H16359   1.609   6.297   3.551 -0.5556  0.5616 -0.3424
  119MOL0     H16360   1.460   6.217   3.560 -0.0819 -0.9973 -0.3109
  119MOL0     H16361   1.536   6.004   3.450  0.3006  0.0129 -1.8183
  119MOL0     H16362   1.671   6.084   3.380  1.5521  0.9895  1.2051
  119MOL0     H16363   1.662   6.058   3.687 -1.0340  1.7189 -0.4906
  119MOL0     H16364   1.793   6.120   3.604  0.9285 -1.8150  0.5632
  119MOL0     H16365   1.847   5.922   3.491  0.4251  0.4477 -0.4953
  119MOL0     H16366   1.832   5.894   3.670 -0.6050  0.1535 -0.6229
  119MOL0     H16367   1.682   5.820   3.429  2.4883 -0.1657  0.6159
  119MOL0     H16368   1.583   5.808   3.585  1.2422 -0.8355  2.8919
  119MOL0     H16369   1.745   5.648   3.682  3.8905  0.6852 -0.1715
  119MOL0     H16370   1.671   5.589   3.527  1.2168  0.2951 -2.6005
  119MOL0     H16371   2.032   5.684   3.665  2.5003 -2.7490 -0.8038
  119MOL0     H16372   2.283   5.582   3.413 -3.0416 -1.8813 -1.3803
  119MOL0     H16373   2.270   5.554   3.584  1.6200 -0.9999 -1.8126
  119MOL0     H16374   2.241   5.828   3.445  1.9411 -1.0545 -1.8773
  119MOL0     H16375   2.271   5.790   3.622 -1.4834 -3.1638  0.3851
  119MOL0     H16376   2.465   5.781   3.390  0.0547  4.3119  0.1416
  119MOL0     H16377   2.451   5.890   3.525  0.0985 -0.5091  2.1637
  119MOL0     H16378   2.624   5.755   3.609  0.4093 -1.4354  2.9345
  119MOL0     H16379   2.498   5.665   3.679  3.3163  0.2680  1.9590
  119MOL0     H16380   2.675   5.377   3.369  0.3630 -4.6143 -0.0669
  119MOL0     H16381   2.792   5.211   3.334 -0.4449 -0.9798  0.6716
  119MOL0     H16382   2.891   5.127   3.463  2.3610  0.9541  0.0662
  119MOL0     H16383   2.971   5.225   3.349  1.1063 -0.9430  1.3037
  119MOL0     H16384   3.285   5.311   3.936  0.4754 -0.4469  0.3438
  119MOL0     H16385   3.521   5.297   3.933 -1.5480 -0.9665  1.4407
  119MOL0     H16386   3.746   5.411   3.869  1.0805 -0.1783  0.5356
  119MOL0     H16387   3.771   5.238   3.832  0.5010  0.4569  0.8777
  119MOL0     H16388   3.920   5.306   3.628 -1.5950  1.9644 -0.2164
  119MOL0     H16389   3.912   5.472   3.672  1.3250  0.7985  1.5088
  119MOL0     H16390   4.011   5.273   3.868  2.3142 -0.6022  0.7412
  119MOL0     H16391   4.030   5.450   3.871 -1.7839 -0.8247  1.1962
  119MOL0     H16392   4.226   5.439   3.740  0.3131 -0.4513 -0.4873
  119MOL0     H16393   4.143   5.344   3.619 -0.0202 -1.5697  0.0045
  119MOL0     H16394   4.260   5.235   3.874  0.0921  0.2726 -0.5019
  119MOL0     H16395   4.192   5.133   3.751  2.2818 -1.3079 -1.3298
  119MOL0     H16396   4.436   5.132   3.734 -2.4816 -2.2142 -1.9972
  119MOL0     H16397   4.433   5.312   3.693  2.4974 -0.7411  0.3392
  119MOL0     H16398   4.296   5.243   3.484 -0.7442  0.6323  0.8835
  119MOL0     H16399   4.310   5.078   3.543 -1.5106  0.0312  1.4044
  119MOL0     H16400   4.471   5.110   3.382 -2.4806 -3.5872  2.7104
  119MOL0     H16401   4.541   5.090   3.546  0.9745  1.1986  0.4561
  119MOL0     H16402   3.500   5.380   3.509 -0.8424 -2.1242 -1.2204
  119MOL0     H16403   3.244   5.366   3.530 -0.6967 -0.4987  0.0444
  119MOL0     H16404   2.899   5.486   3.800  1.0677  1.1287  0.0636
  119MOL0     H16405   2.700   5.589   3.747  2.6586  0.9111 -0.2664
  119MOL0     H16406   1.278   6.559   3.019  0.9017 -0.3431  0.7471
  119MOL0     H16407   1.075   6.514   2.925 -0.5772 -1.8373 -1.4238
  119MOL0     H16408   0.639   6.302   2.970  3.0905  0.5820  0.8780
  119MOL0     H16409   0.439   6.281   2.846  0.7889  2.1906  0.7023
  119MOL0     H16410   0.380   5.986   2.732  0.7195 -1.2386 -2.9924
  119MOL0     H16411   0.240   6.082   2.711  0.2924 -3.0961  3.3723
  119MOL0     H16412   0.210   6.022   2.485  0.4856 -0.8186 -0.8228
  119MOL0     H16413   0.185   5.898   2.593  0.5807  0.1434 -1.0620
  119MOL0     H16414   0.436   5.942   2.424 -1.3788  0.4278 -0.1448
  119MOL0     H16415   0.407   5.802   2.535 -6.0665  0.3115  3.8367
  119MOL0     H16416   0.392   5.734   2.302  0.8796  1.2093  0.5079
  119MOL0     H16417   0.280   5.856   2.279  0.0701 -1.8745 -3.0584
  119MOL0     H16418   0.051   5.602   2.548  0.5323 -3.4513 -0.7260
  119MOL0     H16419   0.638   6.089   2.518 -0.8297  3.1782 -1.9264
  119MOL0     H16420   0.944   6.209   2.560 -1.3694  0.7668 -0.4040
  119MOL0     H16421   0.945   6.054   2.647 -0.0690 -0.6621  0.3264
  119MOL0     H16422   0.849   6.071   2.498 -0.8712 -0.5922  0.2898
  120MOL0     O16423   0.705   2.644   7.527  0.6424  0.5404 -0.0711
  120MOL0     C16424   0.614   2.695   7.590 -0.5038  0.5008 -0.0330
  120MOL0     O16425   0.621   2.746   7.710  0.2921  0.4400 -0.2602
  120MOL0     C16426   0.749   2.759   7.766 -0.1664 -0.4167  1.2506
  120MOL0     C16427   0.797   2.885   7.789  0.2614  0.2916 -0.7713
  120MOL0     C16428   0.928   2.909   7.839  0.1463 -0.4214  0.1743
  120MOL0     C16429   0.998   2.799   7.882 -0.0443  0.7946 -0.6262
  120MOL0     O16430   1.110   2.817   7.963 -0.5883 -0.0246 -0.0601
  120MOL0     C16431   1.212   2.895   7.896 -0.6077  0.6085  0.1768
  120MOL0     C16432   1.358   2.826   7.876  0.5158  0.2190 -0.5444
  120MOL0     C16433   1.349   2.676   7.819 -0.3042 -0.8242  0.3405
  120MOL0     C16434   1.493   2.617   7.818 -0.7725  0.1941 -0.0832
  120MOL0     C16435   1.497   2.493   7.737  0.1041  0.5007  0.2058
  120MOL0     C16436   1.642   2.446   7.712 -0.4002 -0.3389  0.3977
  120MOL0     C16437   1.648   2.317   7.632 -0.0436 -1.2653 -0.3142
  120MOL0     C16438   1.616   2.197   7.721 -0.2311  0.0397  0.0853
  120MOL0     N16439   1.723   2.136   7.802 -0.4306 -0.0886  0.0325
  120MOL0     C16440   1.846   2.077   7.761 -0.9282 -0.5108 -0.1420
  120MOL0     C16441   1.909   2.034   7.874  0.3842  0.7562 -0.5337
  120MOL0     C16442   2.042   1.973   7.894 -0.9616  0.1396 -0.1245
  120MOL0     C16443   2.049   1.815   7.904 -0.1032  0.4481  0.4799
  120MOL0     C16444   2.039   1.733   7.773 -0.8345 -0.4525 -0.1878
  120MOL0     C16445   2.053   1.580   7.801  0.4858  0.4054 -0.0730
  120MOL0     O16446   2.189   1.541   7.837  0.1884 -0.7943  0.0898
  120MOL0     C16447   2.260   1.472   7.745 -0.4164  0.2286  1.0267
  120MOL0     C16448   2.246   1.344   7.726  0.6141  0.4004  0.0200
  120MOL0     C16449   2.304   1.283   7.617  0.1343  0.9639 -0.3877
  120MOL0     C16450   2.258   1.135   7.596  1.1150  0.2048  0.5793
  120MOL0     C16451   2.381   1.354   7.522 -0.1239 -1.2756  0.2903
  120MOL0     C16452   2.437   1.299   7.391  0.1296  0.1171 -0.1236
  120MOL0     O16453   2.476   1.170   7.394 -0.1831  0.5908  0.1319
  120MOL0     C16454   2.571   1.110   7.311 -0.4487  0.3841 -0.5775
  120MOL0     C16455   2.552   0.974   7.276 -0.3908 -0.3845  0.2677
  120MOL0     C16456   2.649   0.906   7.212 -0.6353  0.4714 -0.5855
  120MOL0     C16457   2.761   0.968   7.156  0.2844 -0.8523 -0.4964
  120MOL0     O16458   2.856   0.912   7.078  0.3340  0.0537 -0.0298
  120MOL0     C16459   2.843   0.766   7.053 -0.0314  0.4225  0.5466
  120MOL0     C16460   2.959   0.720   6.949 -0.6281  1.1113 -0.2179
  120MOL0     C16461   3.079   0.651   7.017 -0.0790  0.5201 -0.5361
  120MOL0     C16462   3.177   0.599   6.917 -0.3949  0.6304  0.7946
  120MOL0     C16463   3.242   0.477   6.986  0.1980  0.0125  0.0615
  120MOL0     C16464   3.366   0.427   6.916  0.9959 -0.1533  0.0964
  120MOL0     C16465   3.483   0.526   6.900  0.0985  0.2390 -0.2581
  120MOL0     C16466   3.612   0.453   6.879 -0.0166  0.0969  0.5705
  120MOL0    Cl16467   3.675   0.430   7.045  0.4656  0.0076 -0.3092
  120MOL0     C16468   2.779   1.110   7.179  0.5907  0.0449 -0.4836
  120MOL0     C16469   2.677   1.178   7.253 -0.1805  0.0367  0.4199
  120MOL0     O16470   2.448   1.367   7.296  0.4293  0.6456 -0.3940
  120MOL0     C16471   2.400   1.496   7.550  0.5050  0.6204 -0.4842
  120MOL0     C16472   2.331   1.549   7.655  0.7890 -0.1447 -0.1988
  120MOL0     N16473   1.825   2.078   7.977  0.0966  0.5524  0.0394
  120MOL0     N16474   1.714   2.129   7.927  0.6233  0.5962  0.3285
  120MOL0     C16475   0.951   2.663   7.862 -0.7527 -0.5710  0.3739
  120MOL0     C16476   0.826   2.647   7.802  0.8278  0.3636 -0.1430
  120MOL0     C16477   0.474   2.696   7.534 -0.4485 -0.7789 -0.9139
  120MOL0     C16478   0.376   2.786   7.594 -0.3315  0.5502  0.1843
  120MOL0     C16479   0.249   2.791   7.540 -0.5197  0.1446  0.5202
  120MOL0     C16480   0.211   2.705   7.433 -0.5589  0.7711 -0.0291
  120MOL0     O16481   0.088   2.686   7.380  0.4319 -0.1877  0.2443
  120MOL0     C16482  -0.024   2.726   7.460  0.1793  0.1163  0.2000
  120MOL0     C16483  -0.157   2.681   7.402  0.2141 -0.4675  0.6281
  120MOL0     C16484  -0.282   2.724   7.491  1.0860  0.2279 -0.0685
  120MOL0     C16485  -0.395   2.785   7.411 -0.9611 -0.3926 -0.1634
  120MOL0     C16486  -0.464   2.689   7.330 -0.1204  0.8889 -0.5252
  120MOL0     C16487  -0.517   2.593   7.273 -0.2755  0.2791 -0.5822
  120MOL0     C16488   0.304   2.620   7.381  0.2943 -0.0402 -0.2914
  120MOL0     C16489   0.437   2.616   7.420 -0.3136 -0.8776 -0.4408
  120MOL0     C16490   0.520   2.522   7.343 -0.5366 -0.8493  0.7308
  120MOL0     H16491   0.718   2.957   7.769 -1.3836 -1.2875 -0.1830
  120MOL0     H16492   0.962   3.003   7.881 -0.0884 -0.7275  1.0542
  120MOL0     H16493   1.227   2.980   7.964  1.1450  1.6142 -1.3992
  120MOL0     H16494   1.172   2.937   7.803 -0.2528  0.0212 -0.2391
  120MOL0     H16495   1.421   2.886   7.810 -0.0548 -1.1640 -2.4622
  120MOL0     H16496   1.405   2.824   7.974 -2.1236 -1.1511  0.8019
  120MOL0     H16497   1.288   2.606   7.877 -1.1154  0.0268  0.5347
  120MOL0     H16498   1.306   2.683   7.719 -0.8125  1.4426  0.6690
  120MOL0     H16499   1.560   2.686   7.766 -1.3126 -0.8567 -2.3129
  120MOL0     H16500   1.524   2.595   7.920  0.0977  1.2144 -0.1117
  120MOL0     H16501   1.450   2.497   7.638 -1.2764 -0.4372  0.7962
  120MOL0     H16502   1.440   2.417   7.791 -2.0671  1.0438 -1.2154
  120MOL0     H16503   1.693   2.529   7.662  0.3753 -0.0748  1.5774
  120MOL0     H16504   1.694   2.434   7.808  1.8518  0.4928 -0.6445
  120MOL0     H16505   1.746   2.307   7.585  1.1776 -2.2920  2.2600
  120MOL0     H16506   1.575   2.316   7.551  0.0830  2.2778 -0.6505
  120MOL0     H16507   1.536   2.230   7.789 -0.6025  1.7916 -1.1299
  120MOL0     H16508   1.595   2.132   7.636  3.1954  0.7893 -1.4828
  120MOL0     H16509   1.883   2.067   7.659 -1.4228 -2.1902 -0.1847
  120MOL0     H16510   2.076   2.016   7.989  2.0976  1.4925 -1.6989
  120MOL0     H16511   2.113   2.013   7.822  1.6257  1.6093  3.0298
  120MOL0     H16512   2.134   1.774   7.960 -1.9966 -1.7166  1.9981
  120MOL0     H16513   1.962   1.789   7.965 -1.2721  3.5157  0.2928
  120MOL0     H16514   1.947   1.759   7.720 -0.0213  0.4829 -1.1946
  120MOL0     H16515   2.123   1.767   7.711 -0.2207 -0.5058  0.6023
  120MOL0     H16516   1.989   1.537   7.878  1.3949  0.4060  0.6900
  120MOL0     H16517   2.027   1.525   7.709 -0.4411  0.0063  0.4150
  120MOL0     H16518   2.200   1.292   7.809  0.2998  2.1107  0.9610
  120MOL0     H16519   2.211   1.123   7.498 -0.4742 -1.8918  1.5003
  120MOL0     H16520   2.177   1.098   7.660  1.2340 -1.0834  0.0316
  120MOL0     H16521   2.345   1.069   7.607  1.1738 -0.1456 -1.5140
  120MOL0     H16522   2.478   0.916   7.331 -1.8888 -0.1380 -1.3943
  120MOL0     H16523   2.628   0.800   7.199 -0.4752  0.4559 -0.7166
  120MOL0     H16524   2.861   0.720   7.150  1.6562  2.5586  1.3188
  120MOL0     H16525   2.747   0.743   7.004  1.0734  1.6865 -2.4558
  120MOL0     H16526   2.900   0.649   6.890  1.5482 -0.9019 -0.0887
  120MOL0     H16527   3.000   0.801   6.887  0.6216 -1.1899 -2.5756
  120MOL0     H16528   3.052   0.564   7.079  3.9869 -1.9806 -1.9054
  120MOL0     H16529   3.124   0.735   7.070 -1.4790  0.9526  0.0072
  120MOL0     H16530   3.250   0.675   6.889  3.6332 -2.9100  0.6741
  120MOL0     H16531   3.137   0.567   6.820  0.8096  3.5394 -0.7738
  120MOL0     H16532   3.271   0.499   7.089 -2.6572  1.2365  0.6793
  120MOL0     H16533   3.169   0.396   6.981 -1.5735  1.4762  1.1147
  120MOL0     H16534   3.344   0.385   6.817 -0.6200 -1.8088  1.0942
  120MOL0     H16535   3.396   0.353   6.991 -2.2932  0.7309  2.5431
  120MOL0     H16536   3.485   0.588   6.990 -0.7017 -1.7985  1.2366
  120MOL0     H16537   3.469   0.591   6.813 -0.8470 -1.0931 -1.1409
  120MOL0     H16538   3.685   0.507   6.818  2.3854  0.7275  3.7391
  120MOL0     H16539   3.594   0.356   6.833  0.6370  0.7560 -1.1400
  120MOL0     H16540   2.857   1.166   7.129  0.6620  0.8956  0.5477
  120MOL0     H16541   2.699   1.284   7.262 -2.7174  0.8406 -1.5610
  120MOL0     H16542   2.468   1.554   7.489  1.9183 -0.6400 -0.1433
  120MOL0     H16543   2.344   1.655   7.674  2.4765 -0.4329  0.3540
  120MOL0     H16544   1.019   2.587   7.897  1.1541 -0.2202 -2.1935
  120MOL0     H16545   0.789   2.545   7.800 -0.7020  0.8709  0.6706
  120MOL0     H16546   0.396   2.842   7.684 -0.8129  1.7282 -0.4238
  120MOL0     H16547   0.168   2.855   7.571 -1.4799 -0.6121 -0.3518
  120MOL0     H16548  -0.010   2.692   7.563 -1.6813 -0.6497  0.2425
  120MOL0     H16549  -0.039   2.835   7.462 -1.3206 -0.0811  0.8098
  120MOL0     H16550  -0.148   2.572   7.402  0.0763 -0.4781  0.7097
  120MOL0     H16551  -0.173   2.712   7.298 -0.0478 -0.5368  0.6480
  120MOL0     H16552  -0.314   2.630   7.537 -0.3783 -0.9513 -3.2143
  120MOL0     H16553  -0.242   2.802   7.556  1.4542 -0.7432  0.8983
  120MOL0     H16554  -0.365   2.872   7.353  0.7001 -0.7577  0.1133
  120MOL0     H16555  -0.461   2.827   7.488 -0.7949  0.5080 -0.5058
  120MOL0     H16556  -0.569   2.520   7.214 -3.8409  1.4730  0.7938
  120MOL0     H16557   0.271   2.553   7.302 -1.5967 -0.5696  0.8857
  120MOL0     H16558   0.581   2.574   7.268 -0.1957 -1.7123  0.3865
  120MOL0     H16559   0.580   2.460   7.410 -0.1447 -1.9575 -0.5931
  120MOL0     H16560   0.459   2.449   7.288  1.6980 -2.8186  0.6952
  121MOL0     O16561   3.580   2.141   4.371  0.4673  0.0537  0.1184
  121MOL0     C16562   3.610   2.252   4.342  0.6580  0.2075  0.4888
  121MOL0     O16563   3.555   2.363   4.395 -0.6986 -0.1891 -0.0636
  121MOL0     C16564   3.443   2.348   4.468 -0.0786  0.4519  0.2061
  121MOL0     C16565   3.322   2.354   4.395  0.8944 -0.0884 -0.3085
  121MOL0     C16566   3.204   2.357   4.472 -0.3998  0.0027 -0.7402
  121MOL0     C16567   3.203   2.344   4.612 -0.9517  0.3064 -0.1597
  121MOL0     O16568   3.094   2.340   4.690  0.5555 -0.1704  0.3026
  121MOL0     C16569   3.002   2.447   4.668  0.3664 -0.1830 -0.3172
  121MOL0     C16570   2.917   2.468   4.793  0.2134 -0.5037 -0.0415
  121MOL0     C16571   2.835   2.345   4.843  0.4336 -0.0105  0.0494
  121MOL0     C16572   2.694   2.377   4.899  0.8678 -0.1216 -0.6335
  121MOL0     C16573   2.617   2.243   4.932 -1.0512 -0.1941  0.9214
  121MOL0     C16574   2.484   2.263   4.997 -0.0824 -0.4880 -0.0564
  121MOL0     C16575   2.393   2.134   4.992 -0.3236 -0.7436  0.1610
  121MOL0     C16576   2.268   2.147   5.069  0.2491 -0.3184  0.3544
  121MOL0     N16577   2.145   2.078   5.026 -0.7110  0.8358 -0.1069
  121MOL0     C16578   2.133   1.964   4.943  0.0977 -0.0165  0.5836
  121MOL0     C16579   2.006   1.963   4.901 -0.0068 -0.3184  0.7602
  121MOL0     C16580   1.949   1.855   4.813  0.7369 -0.0704 -1.1194
  121MOL0     C16581   1.923   1.894   4.667  0.0485 -0.0376  0.2976
  121MOL0     C16582   1.836   2.018   4.640 -0.5774 -0.6659 -0.9603
  121MOL0     C16583   1.699   2.008   4.704  0.1229 -0.5239  0.3522
  121MOL0     O16584   1.616   1.910   4.641  0.7629 -0.1822  0.8886
  121MOL0     C16585   1.506   1.881   4.717  0.3394  0.3493  0.5228
  121MOL0     C16586   1.436   1.777   4.656 -0.1451  0.4984  0.0848
  121MOL0     C16587   1.323   1.734   4.710  0.2607  0.2661 -0.2463
  121MOL0     C16588   1.261   1.618   4.644 -0.5838  0.8064 -0.1267
  121MOL0     C16589   1.270   1.789   4.836  0.1807 -1.0804  0.0676
  121MOL0     C16590   1.130   1.764   4.891 -0.5694 -0.2513  0.3905
  121MOL0     O16591   1.028   1.748   4.808 -0.8969 -0.3102  0.3015
  121MOL0     C16592   0.909   1.748   4.864  0.2861 -0.4197  0.6460
  121MOL0     C16593   0.848   1.867   4.889 -0.4391 -0.4027  0.4725
  121MOL0     C16594   0.714   1.878   4.916  0.1746  0.2825 -0.9121
  121MOL0     C16595   0.636   1.766   4.953  0.4097 -0.5359  0.7498
  121MOL0     O16596   0.498   1.786   4.968 -0.7428 -0.7795  0.1852
  121MOL0     C16597   0.408   1.686   4.947 -0.0167  0.2228  0.2735
  121MOL0     C16598   0.272   1.731   4.985 -0.3572  0.0598  0.9653
  121MOL0     C16599   0.161   1.641   4.937 -0.6223  0.1802  0.0894
  121MOL0     C16600   0.025   1.703   4.966  0.3762  0.3663 -0.2535
  121MOL0     C16601  -0.093   1.632   4.909  0.2031 -0.5008  0.1509
  121MOL0     C16602  -0.076   1.632   4.754 -0.0109 -1.1648  0.9160
  121MOL0     C16603  -0.202   1.568   4.688 -1.0495 -0.9797  0.3899
  121MOL0     C16604  -0.214   1.623   4.540 -0.1413 -0.8134 -0.2258
  121MOL0    Cl16605  -0.085   1.566   4.426 -0.0515 -0.3445 -0.3030
  121MOL0     C16606   0.697   1.647   4.923  1.0236  0.3442  0.2923
  121MOL0     C16607   0.833   1.644   4.887  0.3729 -0.0139 -0.2760
  121MOL0     O16608   1.125   1.764   5.012 -0.1867  0.3994  0.0575
  121MOL0     C16609   1.345   1.892   4.899  0.8134  0.2994 -0.4842
  121MOL0     C16610   1.470   1.926   4.841 -0.8002  0.1282 -0.5041
  121MOL0     N16611   1.940   2.073   4.949  0.0057 -0.7709  0.1966
  121MOL0     N16612   2.026   2.142   5.020  0.4620 -0.4333  0.0940
  121MOL0     C16613   3.329   2.309   4.674 -0.0655  0.0356  0.1579
  121MOL0     C16614   3.450   2.324   4.607 -0.2341 -0.4825 -0.5256
  121MOL0     C16615   3.718   2.278   4.247  0.1550  0.6110  0.2680
  121MOL0     C16616   3.714   2.389   4.173 -0.2203 -0.3421  0.0850
  121MOL0     C16617   3.802   2.419   4.064  0.0625  0.0870 -0.3970
  121MOL0     C16618   3.900   2.323   4.035 -0.2620  0.0495  0.5238
  121MOL0     O16619   3.999   2.340   3.939 -0.2820 -0.2545  0.1789
  121MOL0     C16620   4.032   2.463   3.894 -0.0630 -0.7026  0.4244
  121MOL0     C16621   4.097   2.556   4.005  0.1353  0.1053 -0.2618
  121MOL0     C16622   4.223   2.504   4.062 -0.0227 -0.0697 -0.2566
  121MOL0     C16623   4.285   2.588   4.175 -0.1949  0.0399 -0.3654
  121MOL0     C16624   4.197   2.607   4.298  0.3724  0.9019 -0.0619
  121MOL0     C16625   4.147   2.623   4.402  0.6673  0.5161  0.5240
  121MOL0     C16626   3.910   2.211   4.118 -0.1015  0.6764  0.3688
  121MOL0     C16627   3.824   2.184   4.226  0.0222 -1.7516 -0.6420
  121MOL0     C16628   3.835   2.062   4.304 -0.1347  0.4143 -0.1046
  121MOL0     H16629   3.316   2.366   4.287  0.6086  0.6268 -0.2203
  121MOL0     H16630   3.107   2.365   4.424 -0.9928 -0.8966  0.2762
  121MOL0     H16631   2.928   2.422   4.592 -1.5980  1.5012  0.9408
  121MOL0     H16632   3.046   2.546   4.649  0.4593  0.6036  3.2795
  121MOL0     H16633   2.984   2.499   4.873  0.2930 -1.6146  0.3409
  121MOL0     H16634   2.856   2.557   4.772  1.1621 -0.1617 -1.5345
  121MOL0     H16635   2.826   2.281   4.755  5.3123 -0.5062 -0.3645
  121MOL0     H16636   2.893   2.296   4.922 -0.4403 -1.3995 -0.1385
  121MOL0     H16637   2.700   2.437   4.990 -0.8029 -1.7906  0.6501
  121MOL0     H16638   2.637   2.438   4.828 -1.1010 -0.4652  0.5707
  121MOL0     H16639   2.673   2.185   5.006 -2.6489 -0.0594  2.2950
  121MOL0     H16640   2.620   2.185   4.839  0.8080  3.7426 -1.7468
  121MOL0     H16641   2.490   2.295   5.102 -1.7701 -0.9484  0.2215
  121MOL0     H16642   2.425   2.336   4.940 -2.1200  0.5255  3.0471
  121MOL0     H16643   2.450   2.047   5.026  1.4968  0.5901  0.6846
  121MOL0     H16644   2.382   2.113   4.885  1.5249  1.1645 -0.4748
  121MOL0     H16645   2.287   2.122   5.174 -0.5897 -0.6451  0.4357
  121MOL0     H16646   2.235   2.252   5.068 -1.3138 -0.7730 -0.8223
  121MOL0     H16647   2.214   1.892   4.937 -0.4719 -0.5688 -0.9919
  121MOL0     H16648   1.856   1.823   4.861  1.7255 -1.4915 -0.0606
  121MOL0     H16649   2.002   1.759   4.811 -3.6567 -2.9214  1.2384
  121MOL0     H16650   2.016   1.902   4.609 -0.5256  1.2171 -0.5167
  121MOL0     H16651   1.869   1.816   4.613 -3.2254  0.2039  2.9263
  121MOL0     H16652   1.887   2.106   4.679 -2.3181  0.5277 -1.2750
  121MOL0     H16653   1.832   2.031   4.531 -0.6844  2.2178 -0.6919
  121MOL0     H16654   1.721   1.990   4.810  2.9111  0.0149 -0.0591
  121MOL0     H16655   1.651   2.106   4.701  1.0852  0.0387  1.9467
  121MOL0     H16656   1.486   1.738   4.568 -1.8894  0.6837 -1.0573
  121MOL0     H16657   1.191   1.652   4.567 -1.8074 -2.1212 -0.4240
  121MOL0     H16658   1.203   1.562   4.718 -3.1249  0.2994 -2.3373
  121MOL0     H16659   1.336   1.552   4.599  1.8051  2.7010  0.8235
  121MOL0     H16660   0.917   1.949   4.873 -0.7777  0.3259  2.4523
  121MOL0     H16661   0.658   1.971   4.912 -1.3596 -0.3449  2.3718
  121MOL0     H16662   0.411   1.658   4.842 -1.2945 -1.6926  0.6878
  121MOL0     H16663   0.423   1.595   5.007 -2.5025 -1.1864 -1.1098
  121MOL0     H16664   0.283   1.727   5.093 -1.4381 -3.3924  1.0816
  121MOL0     H16665   0.255   1.829   4.940 -0.0093 -1.6855 -3.5429
  121MOL0     H16666   0.164   1.542   4.983 -1.3601  0.4507  0.7333
  121MOL0     H16667   0.184   1.612   4.834 -0.7622  1.2915 -0.2662
  121MOL0     H16668   0.024   1.805   4.925  0.4111  0.7211  0.6131
  121MOL0     H16669   0.019   1.704   5.075  0.0846 -4.5445  0.0045
  121MOL0     H16670  -0.085   1.530   4.948 -0.5175 -1.0205 -1.0012
  121MOL0     H16671  -0.184   1.684   4.942  0.8147 -0.5119  1.9311
  121MOL0     H16672   0.014   1.577   4.726  1.1314  1.7427 -1.6939
  121MOL0     H16673  -0.074   1.736   4.718  2.3988 -1.6406 -0.5385
  121MOL0     H16674  -0.291   1.607   4.737 -0.1012 -0.0912  1.4631
  121MOL0     H16675  -0.194   1.459   4.696 -0.0759 -0.9435  0.1225
  121MOL0     H16676  -0.225   1.732   4.546  3.2128 -0.4321  1.1198
  121MOL0     H16677  -0.313   1.585   4.513 -1.0063  1.2892 -0.1545
  121MOL0     H16678   0.626   1.566   4.912  0.2299  1.0977 -0.2057
  121MOL0     H16679   0.878   1.547   4.868  0.3434 -0.7674  2.9025
  121MOL0     H16680   1.303   1.931   4.991 -1.0382 -1.2084 -0.6306
  121MOL0     H16681   1.536   1.992   4.896 -0.2993 -0.4094 -0.4541
  121MOL0     H16682   3.323   2.282   4.779 -1.1775  0.4877  0.2181
  121MOL0     H16683   3.546   2.300   4.652 -0.0737  0.1024 -0.5485
  121MOL0     H16684   3.637   2.463   4.193  0.6770  0.3177  1.2520
  121MOL0     H16685   3.793   2.509   4.005  0.4327  0.1595 -0.3435
  121MOL0     H16686   4.109   2.454   3.816  0.2041 -1.8573  0.8084
  121MOL0     H16687   3.942   2.510   3.853  0.4503 -0.8194 -0.9016
  121MOL0     H16688   4.025   2.567   4.087  0.7658  2.0880  0.0962
  121MOL0     H16689   4.107   2.660   3.972  2.6586  0.1617  0.4521
  121MOL0     H16690   4.208   2.412   4.119  1.8515 -0.2745 -0.0367
  121MOL0     H16691   4.297   2.497   3.982 -2.9531  0.2710 -3.2284
  121MOL0     H16692   4.305   2.692   4.146  1.8592  0.0519  0.8791
  121MOL0     H16693   4.372   2.529   4.206 -0.4654 -0.3478 -0.3451
  121MOL0     H16694   4.087   2.635   4.490  0.5674 -0.4654  0.6074
  121MOL0     H16695   3.981   2.131   4.100 -1.3796 -0.2793 -0.5685
  121MOL0     H16696   3.938   2.025   4.315  0.5070  2.2963  0.6276
  121MOL0     H16697   3.811   2.082   4.409 -1.3324  0.2874 -0.3429
  121MOL0     H16698   3.763   1.984   4.278 -1.3627 -0.5231  4.9666
  122MOL0     O16699   2.226  10.350  10.792  0.1680  0.7584  0.2476
  122MOL0     C16700   2.151  10.440  10.750  0.6801 -0.2710 -0.1276
  122MOL0     O16701   2.182  10.569  10.726 -1.3154  0.6744  0.8137
  122MOL0     C16702   2.315  10.608  10.756 -0.3104 -0.5106 -1.2516
  122MOL0     C16703   2.332  10.709  10.850  0.4171  0.5892 -0.4282
  122MOL0     C16704   2.464  10.761  10.879  0.8418 -0.1835  0.4395
  122MOL0     C16705   2.575  10.705  10.805  0.6659  0.2531  0.2571
  122MOL0     O16706   2.694  10.756  10.830  0.0075  0.1873 -0.7985
  122MOL0     C16707   2.792  10.658  10.850 -0.1188  0.4812 -0.2210
  122MOL0     C16708   2.919  10.741  10.871 -0.4531 -0.0289 -0.0812
  122MOL0     C16709   3.033  10.662  10.930 -0.3311 -0.3474 -0.8933
  122MOL0     C16710   3.157  10.756  10.941  0.0715  0.0670 -0.7372
  122MOL0     C16711   3.278  10.667  10.982  0.2061  0.3232  0.0975
  122MOL0     C16712   3.414  10.734  10.965 -0.4909  0.2540  0.7485
  122MOL0     C16713   3.526  10.638  11.023  0.0565  0.8532  0.4535
  122MOL0     C16714   3.545  10.637  11.175 -0.0739  0.5890  0.7730
  122MOL0     N16715   3.636  10.527  11.216  0.0862  0.4155 -0.1036
  122MOL0     C16716   3.628  10.386  11.202 -0.0305 -0.7458  0.3642
  122MOL0     C16717   3.745  10.331  11.244 -0.0302 -0.0495 -0.0866
  122MOL0     C16718   3.797  10.191  11.246  1.4430  0.2639 -0.3098
  122MOL0     C16719   3.796  10.123  11.381  0.4831 -0.1645 -0.2130
  122MOL0     C16720   3.701  10.186  11.487  0.1645  0.0083 -0.0226
  122MOL0     C16721   3.556  10.150  11.444 -0.0525  0.7195  0.5481
  122MOL0     O16722   3.525  10.009  11.466  1.0799 -0.4048  0.0269
  122MOL0     C16723   3.393   9.967  11.449 -0.1061  0.1974 -0.0019
  122MOL0     C16724   3.351   9.849  11.518 -0.2842 -0.2268 -0.0934
  122MOL0     C16725   3.223   9.782  11.501  0.4404 -0.9121 -0.3891
  122MOL0     C16726   3.198   9.654  11.583 -0.4502  0.7168 -0.4874
  122MOL0     C16727   3.134   9.833  11.395 -0.5009 -0.0965  1.0481
  122MOL0     C16728   3.002   9.785  11.367 -0.4848  0.7479 -1.2469
  122MOL0     O16729   2.936   9.845  11.255 -0.2493 -0.3102 -0.5014
  122MOL0     C16730   2.820   9.792  11.202 -0.5766  0.2036  0.3079
  122MOL0     C16731   2.753   9.674  11.236  0.4015 -0.6706 -0.3832
  122MOL0     C16732   2.630   9.638  11.170 -0.2662  0.0217  0.7005
  122MOL0     C16733   2.574   9.721  11.077 -0.8445  0.3476 -0.5145
  122MOL0     O16734   2.449   9.686  11.028  0.3159 -0.3842 -0.2406
  122MOL0     C16735   2.431   9.699  10.888 -1.0691  0.0689  0.5810
  122MOL0     C16736   2.345   9.579  10.861  0.0948 -0.3321  0.0211
  122MOL0     C16737   2.190   9.595  10.911  0.0278  0.1896 -0.5412
  122MOL0     C16738   2.134   9.459  10.961  0.5984 -0.1381  0.4480
  122MOL0     C16739   2.006   9.463  11.043 -0.8866 -0.0574  0.2698
  122MOL0     C16740   1.874   9.469  10.964  0.1271  0.0727 -0.2275
  122MOL0     C16741   1.760   9.490  11.061 -0.0525 -0.7747  0.4509
  122MOL0     C16742   1.614   9.488  10.998 -0.9519  0.8447 -0.3579
  122MOL0    Cl16743   1.591   9.633  10.909  0.3770  0.0071 -0.7063
  122MOL0     C16744   2.646   9.840  11.051  0.0722 -0.2652 -0.0018
  122MOL0     C16745   2.770   9.875  11.103 -1.2982 -0.2537 -0.2154
  122MOL0     O16746   2.955   9.703  11.449 -0.4544 -0.0882  0.2426
  122MOL0     C16747   3.175   9.951  11.337 -0.7343 -0.0404 -0.2423
  122MOL0     C16748   3.298  10.021  11.369  0.7018 -0.3982  0.2009
  122MOL0     N16749   3.821  10.439  11.299  0.4416  0.2275 -0.6755
  122MOL0     N16750   3.754  10.548  11.286  0.4989 -0.0863  0.3987
  122MOL0     C16751   2.547  10.597  10.716  0.3105 -0.2051 -1.0341
  122MOL0     C16752   2.414  10.555  10.682 -0.0892 -0.2794  0.3372
  122MOL0     C16753   2.008  10.400  10.721  0.3501 -0.8930  0.0833
  122MOL0     C16754   1.985  10.266  10.727 -0.2468  0.1791 -0.1375
  122MOL0     C16755   1.854  10.214  10.714  0.3179  0.3382 -0.1928
  122MOL0     C16756   1.747  10.294  10.695 -0.1458 -0.5850  0.2747
  122MOL0     O16757   1.611  10.278  10.687  0.2079 -0.0141 -0.6671
  122MOL0     C16758   1.566  10.144  10.685  0.9389 -0.7020 -1.2765
  122MOL0     C16759   1.414  10.138  10.686  0.7414  0.3312  0.7032
  122MOL0     C16760   1.324  10.155  10.556 -0.3672 -0.2753  0.2669
  122MOL0     C16761   1.176  10.111  10.579 -0.1561 -1.0765 -0.2846
  122MOL0     C16762   1.103  10.216  10.649 -1.0375  1.1808  0.6123
  122MOL0     C16763   1.064  10.294  10.722  1.0454 -0.0956 -0.3175
  122MOL0     C16764   1.771  10.432  10.688 -0.4418 -0.0778 -0.3989
  122MOL0     C16765   1.896  10.487  10.701 -0.3247  0.9825 -0.1286
  122MOL0     C16766   1.916  10.631  10.671 -0.4979  0.4156  0.4958
  122MOL0     H16767   2.241  10.743  10.898  0.2180  0.0416 -0.4092
  122MOL0     H16768   2.484  10.838  10.952  3.3117  0.6000 -0.9263
  122MOL0     H16769   2.802  10.604  10.756 -2.1023  0.7134 -0.6126
  122MOL0     H16770   2.773  10.598  10.940  2.3101 -0.7653 -0.4457
  122MOL0     H16771   2.953  10.777  10.773  1.3997  0.5610  0.7424
  122MOL0     H16772   2.894  10.823  10.939 -0.8784 -0.7748  0.6779
  122MOL0     H16773   3.003  10.622  11.028 -0.3402 -0.7764 -1.0686
  122MOL0     H16774   3.054  10.571  10.873 -0.7240 -0.8180 -0.3070
  122MOL0     H16775   3.179  10.794  10.841 -4.5825  0.0604 -1.9710
  122MOL0     H16776   3.139  10.837  11.013 -0.6305 -1.6450  1.1286
  122MOL0     H16777   3.278  10.577  10.920 -0.3446  1.5639 -1.7704
  122MOL0     H16778   3.274  10.634  11.087  3.9193  2.0955  0.9782
  122MOL0     H16779   3.416  10.758  10.859  1.2230  3.0303  1.3238
  122MOL0     H16780   3.423  10.832  11.013  0.5965  0.3714  0.3209
  122MOL0     H16781   3.617  10.671  10.971  0.4593 -1.1773 -0.1860
  122MOL0     H16782   3.503  10.539  10.984  0.2590  0.7195  0.6675
  122MOL0     H16783   3.584  10.733  11.211 -1.9146  1.0290  1.7265
  122MOL0     H16784   3.452  10.613  11.227 -0.8069  1.7234  0.0240
  122MOL0     H16785   3.542  10.331  11.166 -1.6223  0.4975  2.0580
  122MOL0     H16786   3.896  10.178  11.201  0.2266  0.2969 -3.2318
  122MOL0     H16787   3.727  10.140  11.179  0.1959  2.5650 -0.8732
  122MOL0     H16788   3.777  10.016  11.388 -0.9561  0.1307  1.1418
  122MOL0     H16789   3.891  10.151  11.427  1.7244 -1.9825 -1.5391
  122MOL0     H16790   3.715  10.144  11.588 -1.1163 -1.1440 -0.2959
  122MOL0     H16791   3.727  10.289  11.513 -0.7542 -0.2986  2.4508
  122MOL0     H16792   3.480  10.205  11.501 -2.2604  0.1665 -1.6913
  122MOL0     H16793   3.542  10.192  11.344  1.9763  3.6687  1.3540
  122MOL0     H16794   3.426   9.801  11.579 -0.7985  0.4522  1.1270
  122MOL0     H16795   3.168   9.570  11.520  0.7329 -1.0578  1.2006
  122MOL0     H16796   3.113   9.666  11.652  0.1438  0.2021  0.3612
  122MOL0     H16797   3.288   9.634  11.642 -0.1407  0.6345 -0.9855
  122MOL0     H16798   2.779   9.619  11.326 -3.9967  0.4715  1.8193
  122MOL0     H16799   2.567   9.552  11.190 -0.9949 -0.1637 -1.9997
  122MOL0     H16800   2.373   9.788  10.861  0.1693  1.5009  2.3664
  122MOL0     H16801   2.520   9.695  10.826 -1.5868 -0.7561 -0.1362
  122MOL0     H16802   2.341   9.582  10.751 -2.0211  2.4436  0.0653
  122MOL0     H16803   2.396   9.487  10.891 -1.9122 -1.7955 -0.7284
  122MOL0     H16804   2.129   9.645  10.836 -0.2838  2.8148  1.2948
  122MOL0     H16805   2.209   9.669  10.990  2.6147 -1.3632  0.4440
  122MOL0     H16806   2.217   9.425  11.024  1.9970 -2.0500 -2.2447
  122MOL0     H16807   2.123   9.397  10.872  0.2694  0.1434  0.2930
  122MOL0     H16808   2.009   9.375  11.107  2.6177  0.7868  1.5347
  122MOL0     H16809   2.016   9.547  11.113  1.3047  0.4918 -0.5948
  122MOL0     H16810   1.859   9.374  10.912  2.6625  0.1352 -1.2404
  122MOL0     H16811   1.879   9.548  10.889 -0.8526  0.5653  0.2141
  122MOL0     H16812   1.765   9.594  11.097  0.3032 -1.2855  1.9233
  122MOL0     H16813   1.768   9.421  11.145 -0.2447  0.3812  1.4422
  122MOL0     H16814   1.536   9.455  11.068 -1.9841 -0.0381 -1.8767
  122MOL0     H16815   1.615   9.398  10.936 -2.1633 -0.2958  1.1843
  122MOL0     H16816   2.597   9.905  10.980  0.3980 -1.6594 -1.5474
  122MOL0     H16817   2.823   9.957  11.057 -1.6623  0.0991 -0.0093
  122MOL0     H16818   3.119  10.000  11.258  0.5914 -0.0407 -1.2159
  122MOL0     H16819   3.323  10.106  11.307  3.1419 -0.1198  1.4512
  122MOL0     H16820   2.629  10.542  10.669 -0.5965 -2.7386  0.1500
  122MOL0     H16821   2.395  10.480  10.605  1.1972  0.1549 -0.4365
  122MOL0     H16822   2.069  10.197  10.737  0.8892  1.3170 -1.3828
  122MOL0     H16823   1.835  10.108  10.731 -1.0713  0.5536 -0.3208
  122MOL0     H16824   1.612  10.109  10.593 -1.1164  0.5192 -2.8728
  122MOL0     H16825   1.604  10.088  10.771  3.6882  0.5447 -1.5736
  122MOL0     H16826   1.372  10.196  10.769 -2.1498 -0.0769 -0.3654
  122MOL0     H16827   1.395  10.033  10.711  0.7591  0.4186  1.0922
  122MOL0     H16828   1.325  10.258  10.522 -1.8302  0.6458  2.7003
  122MOL0     H16829   1.362  10.091  10.477  0.0566  0.3485 -0.0371
  122MOL0     H16830   1.178  10.022  10.642  1.2747  1.0832  2.9717
  122MOL0     H16831   1.127  10.084  10.484  0.2847 -0.4125 -0.7057
  122MOL0     H16832   1.016  10.367  10.785 -1.2089 -2.1470  0.4815
  122MOL0     H16833   1.677  10.479  10.661 -1.7192 -1.6193  1.1247
  122MOL0     H16834   1.986  10.643  10.588  1.8512 -0.0031  2.3039
  122MOL0     H16835   1.822  10.686  10.660 -0.8207  0.1127  1.5770
  122MOL0     H16836   1.970  10.690  10.746 -0.3192  0.6502  0.1877
  123MOL0     O16837   5.502   8.460   5.204 -1.1615 -0.1134  0.9766
  123MOL0     C16838   5.563   8.378   5.141  0.2901 -0.4413 -0.5230
  123MOL0     O16839   5.586   8.374   5.006  0.5470 -0.0796 -0.4586
  123MOL0     C16840   5.507   8.467   4.931  0.9646  1.0386 -0.0508
  123MOL0     C16841   5.371   8.506   4.956  0.5123 -0.3237  0.3459
  123MOL0     C16842   5.309   8.585   4.865  0.6543  0.8197 -0.4691
  123MOL0     C16843   5.380   8.641   4.752 -0.7854  1.6818 -0.4039
  123MOL0     O16844   5.314   8.726   4.664  0.3536  0.3555 -0.6241
  123MOL0     C16845   5.383   8.847   4.622  0.4727  0.2480 -1.0079
  123MOL0     C16846   5.304   8.959   4.669  0.7562 -0.0333  0.1437
  123MOL0     C16847   5.352   9.099   4.625 -0.1381 -0.0820  0.3881
  123MOL0     C16848   5.258   9.207   4.676  0.2041 -0.5977  0.3401
  123MOL0     C16849   5.304   9.333   4.615 -1.0443 -0.1137 -0.2187
  123MOL0     C16850   5.215   9.448   4.669 -0.2840  0.2958 -1.3121
  123MOL0     C16851   5.267   9.584   4.625  0.6643  0.3446 -0.9781
  123MOL0     C16852   5.189   9.695   4.692  0.6691  0.8324  0.3167
  123MOL0     N16853   5.257   9.830   4.676  0.6658 -0.1312 -0.0663
  123MOL0     C16854   5.294   9.897   4.562 -0.8275  0.5730 -0.0981
  123MOL0     C16855   5.364  10.004   4.599 -0.3491 -0.6344 -0.2125
  123MOL0     C16856   5.465  10.088   4.527  0.0365 -0.2861 -0.1504
  123MOL0     C16857   5.607  10.029   4.552 -0.9131  0.0258 -0.2922
  123MOL0     C16858   5.703  10.117   4.461 -1.2425 -0.2391  0.0756
  123MOL0     C16859   5.846  10.100   4.507 -1.3841 -0.4873 -0.1831
  123MOL0     O16860   5.926  10.189   4.430 -0.4670 -0.1948 -0.4001
  123MOL0     C16861   6.062  10.165   4.400  0.3819 -0.2480  0.3447
  123MOL0     C16862   6.116  10.248   4.308 -0.2279 -0.9107  0.1960
  123MOL0     C16863   6.250  10.263   4.287 -0.7152 -0.3643  0.3355
  123MOL0     C16864   6.284  10.390   4.207 -0.5392  1.5974  0.4177
  123MOL0     C16865   6.335  10.159   4.330  0.1706 -0.1482  0.0649
  123MOL0     C16866   6.481  10.152   4.307 -0.3092 -0.2099 -1.3233
  123MOL0     O16867   6.554  10.050   4.365 -0.3022 -1.2071 -1.1073
  123MOL0     C16868   6.696  10.052   4.354  1.0503  0.2435 -0.3059
  123MOL0     C16869   6.766  10.034   4.477 -0.5758 -0.3408 -0.0098
  123MOL0     C16870   6.905  10.035   4.475 -0.5355  0.5299  1.1137
  123MOL0     C16871   6.971  10.057   4.353  0.5605 -0.9539  0.4229
  123MOL0     O16872   7.110  10.054   4.361  0.4575 -0.5783 -1.0105
  123MOL0     C16873   7.201  10.098   4.253  0.3916  0.0556  0.4443
  123MOL0     C16874   7.335  10.013   4.248  0.4419  0.3400  0.1297
  123MOL0     C16875   7.321   9.862   4.223 -0.5012 -0.0432 -0.0874
  123MOL0     C16876   7.236   9.786   4.333  0.0134  0.6659  0.4870
  123MOL0     C16877   7.265   9.821   4.477  0.5251  0.4248  0.3758
  123MOL0     C16878   7.177   9.741   4.573  0.1464 -0.2171 -0.7222
  123MOL0     C16879   7.198   9.795   4.714 -0.5035 -0.8170 -0.0260
  123MOL0     C16880   7.112   9.720   4.809  0.1304 -0.2606  0.1714
  123MOL0    Cl16881   7.168   9.542   4.845  0.2691  0.1894  0.3465
  123MOL0     C16882   6.897  10.063   4.230  0.0915 -0.5082 -0.7339
  123MOL0     C16883   6.755  10.063   4.231 -0.4565  0.6149  0.2861
  123MOL0     O16884   6.530  10.234   4.237 -0.2866  0.2739 -0.4460
  123MOL0     C16885   6.278  10.059   4.407 -0.6637  0.2967 -0.1634
  123MOL0     C16886   6.149  10.065   4.449 -0.1955 -0.4725  0.1690
  123MOL0     N16887   5.357  10.009   4.739 -0.5455 -0.2364 -0.1451
  123MOL0     N16888   5.294   9.906   4.783 -0.5912  0.6609  0.3388
  123MOL0     C16889   5.516   8.613   4.739  0.3863 -0.2788  0.1352
  123MOL0     C16890   5.570   8.522   4.823  0.6653 -0.0168  0.6064
  123MOL0     C16891   5.638   8.280   5.224 -0.0108 -0.1918  0.1970
  123MOL0     C16892   5.755   8.220   5.173  0.3384  0.4019 -0.6204
  123MOL0     C16893   5.829   8.139   5.247 -0.3599 -0.7258  0.9552
  123MOL0     C16894   5.794   8.104   5.380  0.1989  0.0788 -0.6028
  123MOL0     O16895   5.859   8.021   5.465 -0.3340 -0.2393  0.2586
  123MOL0     C16896   5.917   7.901   5.411  0.9796  0.1649  0.0190
  123MOL0     C16897   6.061   7.933   5.387 -0.1935  0.9652  1.1787
  123MOL0     C16898   6.095   7.876   5.243 -1.0408  0.0404  0.0334
  123MOL0     C16899   6.166   7.737   5.254 -0.0630  0.9735  0.4036
  123MOL0     C16900   6.153   7.659   5.127 -0.3672 -0.2286 -0.4544
  123MOL0     C16901   6.134   7.602   5.021  0.2166  0.9521 -0.5683
  123MOL0     C16902   5.691   8.170   5.432 -0.6493  0.1744  0.1661
  123MOL0     C16903   5.614   8.257   5.359 -0.0672  0.5583 -1.0592
  123MOL0     C16904   5.496   8.318   5.436  0.3518  0.1936 -0.5162
  123MOL0     H16905   5.316   8.471   5.044  0.1690 -2.0518 -0.5197
  123MOL0     H16906   5.210   8.622   4.889  0.5861 -0.6190  1.7286
  123MOL0     H16907   5.395   8.833   4.514 -1.9553 -0.3553 -1.2448
  123MOL0     H16908   5.483   8.855   4.667 -0.5659 -3.1633  2.5377
  123MOL0     H16909   5.201   8.949   4.636  0.2450  2.4138  0.7727
  123MOL0     H16910   5.304   8.950   4.778  0.7101 -0.5847  0.1025
  123MOL0     H16911   5.452   9.105   4.670 -0.8256  1.9169  1.8372
  123MOL0     H16912   5.363   9.092   4.516 -3.2663 -2.6499  0.1133
  123MOL0     H16913   5.155   9.186   4.647 -0.0373 -0.5852  1.1561
  123MOL0     H16914   5.267   9.212   4.785  2.6512 -2.5743  0.3365
  123MOL0     H16915   5.298   9.324   4.506  1.2545  2.2515 -0.6340
  123MOL0     H16916   5.403   9.363   4.651 -1.3018 -2.2331  2.6398
  123MOL0     H16917   5.113   9.434   4.634 -0.1190 -2.3546 -0.9098
  123MOL0     H16918   5.220   9.441   4.778 -2.0337  0.0774 -1.2232
  123MOL0     H16919   5.268   9.605   4.517 -2.0294 -0.1897 -1.1832
  123MOL0     H16920   5.370   9.596   4.661  0.7460 -1.1120 -0.6380
  123MOL0     H16921   5.090   9.701   4.644  1.4170 -3.1072 -2.1822
  123MOL0     H16922   5.158   9.670   4.794  0.6380 -1.1415 -0.1413
  123MOL0     H16923   5.266   9.861   4.463 -3.0620  0.8323  0.3704
  123MOL0     H16924   5.464  10.191   4.563 -0.6615 -0.6687  0.9711
  123MOL0     H16925   5.433  10.091   4.422 -2.0078 -1.0104  0.4195
  123MOL0     H16926   5.641  10.042   4.655  3.1642  0.8056 -1.5728
  123MOL0     H16927   5.630   9.925   4.527 -0.0127  0.4253 -1.1625
  123MOL0     H16928   5.686  10.080   4.359 -4.0968 -0.2433  0.4719
  123MOL0     H16929   5.688  10.224   4.473 -0.0047  0.1074 -1.2650
  123MOL0     H16930   5.850  10.124   4.614  1.6410 -0.7798 -0.1383
  123MOL0     H16931   5.884   9.998   4.493 -1.3838 -0.7536  1.4824
  123MOL0     H16932   6.051  10.319   4.258  2.0150  1.0660 -0.1188
  123MOL0     H16933   6.195  10.451   4.188  0.0230  2.0634 -0.8220
  123MOL0     H16934   6.327  10.358   4.112 -2.6264 -0.0368 -0.0590
  123MOL0     H16935   6.358  10.445   4.265  1.7508 -2.3887  1.6152
  123MOL0     H16936   6.718  10.029   4.574  1.1338 -0.9479  0.8392
  123MOL0     H16937   6.971  10.029   4.561 -0.1186 -0.1482  0.7613
  123MOL0     H16938   7.151  10.101   4.155  2.0899 -0.6223 -0.4888
  123MOL0     H16939   7.216  10.203   4.281  1.5190 -0.6514  2.7019
  123MOL0     H16940   7.385  10.060   4.162  2.6243 -2.1561 -0.1042
  123MOL0     H16941   7.395  10.020   4.339  4.9864 -2.5585 -2.2364
  123MOL0     H16942   7.418   9.812   4.224 -1.1755 -1.4027  0.6534
  123MOL0     H16943   7.277   9.841   4.125  1.7816  0.2402 -1.2287
  123MOL0     H16944   7.265   9.682   4.348  2.9914  1.6669  2.7538
  123MOL0     H16945   7.135   9.802   4.296  0.2016 -0.6495 -0.6809
  123MOL0     H16946   7.369   9.802   4.505  0.2999  0.3863  1.1862
  123MOL0     H16947   7.239   9.926   4.489  0.0935  0.9208 -3.5602
  123MOL0     H16948   7.206   9.635   4.568  3.4008  0.0195  5.1166
  123MOL0     H16949   7.071   9.757   4.551 -0.1411 -1.8480 -0.6521
  123MOL0     H16950   7.175   9.902   4.726 -0.6517 -0.8188 -0.2853
  123MOL0     H16951   7.305   9.795   4.738 -0.3819 -2.2063 -0.5175
  123MOL0     H16952   7.009   9.734   4.776  0.1051 -2.0351 -0.5905
  123MOL0     H16953   7.128   9.777   4.901  2.9217 -0.5343 -0.0654
  123MOL0     H16954   6.936  10.064   4.129  3.9613 -3.4275  0.4876
  123MOL0     H16955   6.701  10.062   4.137 -2.2911 -0.4048  1.3124
  123MOL0     H16956   6.346   9.982   4.439  1.9016  2.4590 -0.0406
  123MOL0     H16957   6.118   9.986   4.517 -1.5531 -0.0376  0.0749
  123MOL0     H16958   5.567   8.665   4.658  1.9196  0.7781  1.6948
  123MOL0     H16959   5.673   8.493   4.805  1.3604  2.3038  0.5853
  123MOL0     H16960   5.794   8.225   5.072 -0.1535  1.7899 -0.7665
  123MOL0     H16961   5.911   8.091   5.195 -1.1608 -1.7806  0.6179
  123MOL0     H16962   5.910   7.825   5.489 -0.6396  1.1184  0.8598
  123MOL0     H16963   5.864   7.862   5.323 -0.4798 -2.1407  1.7992
  123MOL0     H16964   6.125   7.905   5.471  0.7721 -1.2270 -0.1910
  123MOL0     H16965   6.086   8.039   5.381  0.1129  1.0942  3.6797
  123MOL0     H16966   6.016   7.868   5.168 -0.8427  0.5770 -0.2352
  123MOL0     H16967   6.168   7.951   5.210 -1.2086 -0.0427 -0.5253
  123MOL0     H16968   6.131   7.672   5.334  1.5866 -0.2437  0.2036
  123MOL0     H16969   6.272   7.748   5.282 -0.7474 -0.3243  4.1002
  123MOL0     H16970   6.110   7.532   4.944  2.6510  2.9698 -3.3885
  123MOL0     H16971   5.680   8.154   5.539 -1.0271  0.4409  0.1662
  123MOL0     H16972   5.402   8.325   5.379  0.3329  0.7459 -0.4216
  123MOL0     H16973   5.493   8.266   5.532  3.6445 -0.7818 -0.8182
  123MOL0     H16974   5.527   8.422   5.449  1.7682 -0.3925  1.0438
  124MOL0     O16975   2.440  11.284   7.763  0.0522 -0.3459 -0.2518
  124MOL0     C16976   2.442  11.168   7.801 -0.7368  0.7486 -1.1658
  124MOL0     O16977   2.459  11.058   7.719  0.2901 -0.2676  0.1436
  124MOL0     C16978   2.450  11.089   7.588  0.1194  0.0352 -0.4450
  124MOL0     C16979   2.323  11.083   7.532 -0.6654  0.6829 -0.2766
  124MOL0     C16980   2.305  11.105   7.397  0.0121  1.0030  0.2300
  124MOL0     C16981   2.415  11.140   7.318  0.1111  0.3501 -0.0654
  124MOL0     O16982   2.391  11.168   7.185 -0.3786 -0.0700 -0.4890
  124MOL0     C16983   2.513  11.182   7.103 -0.2544  0.0544  0.2778
  124MOL0     C16984   2.459  11.167   6.955  0.2585 -0.0433  0.6087
  124MOL0     C16985   2.449  11.016   6.902 -0.5795  0.3401 -0.6178
  124MOL0     C16986   2.566  10.927   6.933 -0.1559  0.2900  0.3018
  124MOL0     C16987   2.539  10.794   6.857  0.3401  0.4451 -0.1718
  124MOL0     C16988   2.603  10.683   6.948 -0.1208  0.8607  1.0133
  124MOL0     C16989   2.762  10.678   6.924 -0.2637  0.5932  0.2337
  124MOL0     C16990   2.825  10.569   7.007 -0.2908 -0.4933 -0.7890
  124MOL0     N16991   2.973  10.544   6.989 -0.1881 -0.5455  1.1327
  124MOL0     C16992   3.066  10.631   6.936 -0.1588  0.0614  0.2910
  124MOL0     C16993   3.180  10.557   6.923 -0.5757  0.3489  0.4758
  124MOL0     C16994   3.291  10.619   6.845 -0.1499 -0.0382  0.0057
  124MOL0     C16995   3.434  10.583   6.871 -0.1058  0.7240 -0.1525
  124MOL0     C16996   3.523  10.650   6.760 -0.5411 -0.2061 -1.2274
  124MOL0     C16997   3.678  10.639   6.781  0.4370 -0.6377 -0.8286
  124MOL0     O16998   3.717  10.779   6.805 -0.3560  0.3240 -0.2223
  124MOL0     C16999   3.848  10.801   6.861 -0.3020 -0.0691  0.0570
  124MOL0     C17000   3.870  10.922   6.922 -0.0054 -0.2735  0.5921
  124MOL0     C17001   3.994  10.959   6.972 -0.3172  0.4868 -1.4439
  124MOL0     C17002   3.998  11.089   7.048  0.5258 -0.2735 -0.2851
  124MOL0     C17003   4.101  10.863   6.969  0.4371 -0.3714  0.4421
  124MOL0     C17004   4.238  10.901   7.026 -1.0640  0.0460 -0.0829
  124MOL0     O17005   4.342  10.806   7.004  0.1225  0.3173  0.2951
  124MOL0     C17006   4.476  10.835   7.020  0.2820 -0.5065 -0.5970
  124MOL0     C17007   4.555  10.714   7.017 -0.1655 -1.1077 -0.6807
  124MOL0     C17008   4.692  10.729   7.024  0.7099  0.0976  0.1758
  124MOL0     C17009   4.754  10.846   7.062  0.3198 -0.3420 -0.0278
  124MOL0     O17010   4.892  10.837   7.081  0.3729  0.4584 -0.3361
  124MOL0     C17011   4.961  10.957   7.130 -0.1307 -0.2639 -0.4708
  124MOL0     C17012   5.113  10.921   7.150  0.4694 -0.1283 -0.5758
  124MOL0     C17013   5.197  11.041   7.205  0.6471  0.6333  0.1610
  124MOL0     C17014   5.305  10.988   7.302 -0.2170 -0.8916  0.6951
  124MOL0     C17015   5.409  11.087   7.342 -0.5674 -0.1846  1.2939
  124MOL0     C17016   5.534  11.062   7.257 -0.6580  0.1081 -0.0892
  124MOL0     C17017   5.650  11.153   7.294 -0.3980 -0.8125 -0.3063
  124MOL0     C17018   5.770  11.143   7.205 -0.3097 -1.0778  0.3540
  124MOL0    Cl17019   5.882  11.262   7.261  0.3015  0.3483  0.2831
  124MOL0     C17020   4.678  10.959   7.067  0.1120 -0.6449  0.1605
  124MOL0     C17021   4.537  10.960   7.040 -0.0040  0.0477  0.3469
  124MOL0     O17022   4.255  10.997   7.104 -0.3010  0.3982  0.7594
  124MOL0     C17023   4.066  10.732   6.933 -1.0885 -0.0305 -0.0318
  124MOL0     C17024   3.942  10.706   6.877  0.4479  0.6619 -1.0893
  124MOL0     N17025   3.155  10.426   6.964 -1.1008 -0.4312 -0.7903
  124MOL0     N17026   3.027  10.422   7.011  0.2978  0.5676 -0.9734
  124MOL0     C17027   2.545  11.155   7.381  0.6170 -0.0277 -0.5394
  124MOL0     C17028   2.560  11.131   7.521 -0.5068 -0.0136  0.7191
  124MOL0     C17029   2.433  11.156   7.956 -0.2133 -0.4297  0.4392
  124MOL0     C17030   2.486  11.263   8.046 -0.5666 -0.3493 -0.3253
  124MOL0     C17031   2.488  11.250   8.178 -0.6241  0.4335 -0.5118
  124MOL0     C17032   2.438  11.135   8.239  0.4781  0.7278 -0.9191
  124MOL0     O17033   2.452  11.135   8.380  0.7258  0.1600 -0.1841
  124MOL0     C17034   2.382  11.033   8.452  0.1035  0.3509 -0.5715
  124MOL0     C17035   2.230  11.054   8.449 -0.2130 -0.8000 -0.3675
  124MOL0     C17036   2.189  11.175   8.532 -0.4352 -0.5160 -0.1252
  124MOL0     C17037   2.031  11.207   8.523  0.2194 -0.6369 -1.2083
  124MOL0     C17038   1.950  11.104   8.582 -0.6400 -0.0833 -0.7902
  124MOL0     C17039   1.880  11.015   8.621 -0.5194 -0.2138  0.5231
  124MOL0     C17040   2.379  11.033   8.156  0.3288  0.4930 -0.2916
  124MOL0     C17041   2.359  11.053   8.022 -0.6740 -0.5465  0.3634
  124MOL0     C17042   2.278  10.954   7.949  0.4795 -0.2815  0.1716
  124MOL0     H17043   2.245  11.044   7.597  1.3224 -2.9860  0.1372
  124MOL0     H17044   2.211  11.103   7.344  1.4382 -0.8584 -2.4471
  124MOL0     H17045   2.587  11.104   7.123  0.0530  0.5594  1.1628
  124MOL0     H17046   2.567  11.277   7.109 -1.8453  1.1184 -1.3545
  124MOL0     H17047   2.371  11.231   6.942  1.5362  1.6790  0.2068
  124MOL0     H17048   2.528  11.214   6.885  0.6864  0.7505  1.5411
  124MOL0     H17049   2.362  10.961   6.938  0.7936 -0.5144  1.6324
  124MOL0     H17050   2.457  11.027   6.793  0.5111 -0.0616 -0.6005
  124MOL0     H17051   2.660  10.967   6.893  1.6321 -1.1903  2.7113
  124MOL0     H17052   2.573  10.918   7.042  1.9065 -2.0872  0.0588
  124MOL0     H17053   2.588  10.799   6.759  0.8499  1.2671  0.1129
  124MOL0     H17054   2.432  10.780   6.844  0.8767 -1.8426 -3.2792
  124MOL0     H17055   2.577  10.686   7.054 -0.2823  2.4240  0.9519
  124MOL0     H17056   2.557  10.588   6.919  4.2391 -1.2052  0.0004
  124MOL0     H17057   2.814  10.772   6.944  0.8883  0.1181 -0.4456
  124MOL0     H17058   2.785  10.657   6.819 -1.5525 -0.9941  0.2332
  124MOL0     H17059   2.811  10.599   7.112  0.7876  1.4472 -1.1493
  124MOL0     H17060   2.783  10.472   6.981 -0.2707 -0.9904  0.9064
  124MOL0     H17061   3.057  10.733   6.899  0.8842 -0.1522 -0.6052
  124MOL0     H17062   3.283  10.728   6.852 -0.6907 -0.1159  0.6972
  124MOL0     H17063   3.275  10.588   6.742 -0.4823 -1.8077  0.5594
  124MOL0     H17064   3.469  10.624   6.966 -1.8416  3.4130 -0.5627
  124MOL0     H17065   3.447  10.475   6.869  0.9271  0.8151  0.6877
  124MOL0     H17066   3.503  10.605   6.662  2.2724  0.3557 -2.1616
  124MOL0     H17067   3.495  10.755   6.755  1.3443  0.2974 -2.5753
  124MOL0     H17068   3.710  10.574   6.862 -1.2192  0.9170  1.1770
  124MOL0     H17069   3.735  10.598   6.697 -0.8808 -1.1184 -1.5170
  124MOL0     H17070   3.785  10.989   6.914 -2.8291 -3.5530  1.2266
  124MOL0     H17071   3.900  11.135   7.030 -0.1191 -1.3002  0.4683
  124MOL0     H17072   4.077  11.147   7.001  0.9278 -1.5285 -1.2050
  124MOL0     H17073   4.015  11.080   7.156 -1.3287  1.6657  0.2240
  124MOL0     H17074   4.491  10.628   7.005 -1.0714 -0.9960  2.5207
  124MOL0     H17075   4.762  10.646   7.014  1.0117  0.2954  0.6478
  124MOL0     H17076   4.954  11.034   7.053 -0.6669  0.9644  0.7792
  124MOL0     H17077   4.929  10.992   7.228  3.0997 -0.2471  0.7072
  124MOL0     H17078   5.122  10.837   7.220  1.6043 -0.4230 -1.0570
  124MOL0     H17079   5.153  10.887   7.054  3.1067 -0.1425  0.4386
  124MOL0     H17080   5.133  11.119   7.247 -1.2845 -0.0376 -1.4052
  124MOL0     H17081   5.249  11.084   7.119 -0.7124 -0.3585 -1.2012
  124MOL0     H17082   5.337  10.901   7.245  1.6761  1.1588 -1.5988
  124MOL0     H17083   5.252  10.966   7.395  1.3408 -1.5568  1.4646
  124MOL0     H17084   5.371  11.187   7.319  2.4503  1.0149  1.0273
  124MOL0     H17085   5.441  11.082   7.446  1.6410  2.1180  0.8309
  124MOL0     H17086   5.510  11.081   7.152 -1.3964 -1.2834 -0.1932
  124MOL0     H17087   5.559  10.956   7.265 -2.7304 -0.6858 -2.6183
  124MOL0     H17088   5.678  11.135   7.399 -2.3946  2.3815  0.9033
  124MOL0     H17089   5.609  11.254   7.303 -0.6173 -0.8383 -0.9823
  124MOL0     H17090   5.740  11.179   7.106  2.4007  1.3079  0.2616
  124MOL0     H17091   5.825  11.048   7.213  1.1698 -0.5576 -2.2480
  124MOL0     H17092   4.722  11.056   7.088 -1.8098  0.6611 -1.4180
  124MOL0     H17093   4.484  11.054   7.047 -1.5973 -0.9676  4.3861
  124MOL0     H17094   4.143  10.654   6.934 -0.9753  0.0425  2.1615
  124MOL0     H17095   3.922  10.600   6.863  2.3556  0.1895 -0.5744
  124MOL0     H17096   2.627  11.195   7.321  0.4907 -0.3453 -0.9317
  124MOL0     H17097   2.656  11.158   7.565  1.0868  2.5997 -3.6441
  124MOL0     H17098   2.530  11.354   8.006 -0.5587  0.4698  1.4814
  124MOL0     H17099   2.530  11.322   8.248 -2.3981 -0.1007  1.1991
  124MOL0     H17100   2.400  10.932   8.412 -0.5877  0.0672 -0.1760
  124MOL0     H17101   2.413  11.038   8.557  1.9063  2.3572 -1.1278
  124MOL0     H17102   2.179  10.975   8.505  0.5013  0.4271  2.1975
  124MOL0     H17103   2.196  11.071   8.347 -0.1887 -0.2630 -0.2924
  124MOL0     H17104   2.223  11.158   8.635 -0.2919 -0.5552 -0.1796
  124MOL0     H17105   2.248  11.258   8.492  1.8303 -1.2794  1.4016
  124MOL0     H17106   2.009  11.236   8.420  0.7286  1.3378 -0.8118
  124MOL0     H17107   2.025  11.300   8.580  2.9633 -0.9281 -0.2772
  124MOL0     H17108   1.815  10.941   8.662 -2.4818  0.3660 -1.3732
  124MOL0     H17109   2.351  10.938   8.200 -0.7557  0.4484 -1.0391
  124MOL0     H17110   2.326  10.881   7.883  2.4867  0.0928  1.1567
  124MOL0     H17111   2.223  10.901   8.027  2.5674 -0.0254  1.9077
  124MOL0     H17112   2.195  11.001   7.895 -1.7538 -0.5743  3.0964
  125MOL0     O17113   3.543   7.679  10.319 -0.0535  0.1948 -0.0699
  125MOL0     C17114   3.551   7.568  10.382 -0.3133  0.4674  0.1494
  125MOL0     O17115   3.656   7.528  10.452  0.1613  0.3982  0.4632
  125MOL0     C17116   3.766   7.599  10.469 -0.9870 -0.2839 -0.0735
  125MOL0     C17117   3.886   7.546  10.428 -0.2753  0.0766 -0.2474
  125MOL0     C17118   4.010   7.617  10.451  0.0474 -0.3751 -0.1109
  125MOL0     C17119   4.012   7.743  10.512 -0.0462 -0.5174 -0.3138
  125MOL0     O17120   4.111   7.831  10.536  0.3207  0.1313  0.6683
  125MOL0     C17121   4.244   7.804  10.492 -0.1777  0.0309  0.2266
  125MOL0     C17122   4.299   7.937  10.457  0.1189 -0.1829 -0.2567
  125MOL0     C17123   4.257   7.971  10.309  0.5965  0.1624  0.2278
  125MOL0     C17124   4.334   8.095  10.256 -0.7339  0.4756  0.6091
  125MOL0     C17125   4.465   8.053  10.173 -0.1868  0.3834  0.0134
  125MOL0     C17126   4.523   8.184  10.104 -0.4769  1.0130  0.5677
  125MOL0     C17127   4.664   8.179  10.058 -0.0359  0.2597 -0.6513
  125MOL0     C17128   4.759   8.157  10.177 -0.9240  0.1770  0.2830
  125MOL0     N17129   4.893   8.218  10.150  0.8866  0.5419  0.1788
  125MOL0     C17130   5.018   8.168  10.183  0.1520  0.6277 -0.0379
  125MOL0     C17131   5.110   8.262  10.161 -0.4457  0.2025  0.5122
  125MOL0     C17132   5.256   8.243  10.177 -0.4063 -0.0083 -0.0576
  125MOL0     C17133   5.312   8.313  10.296  0.3844 -1.1268 -0.0349
  125MOL0     C17134   5.465   8.322  10.298 -0.0623 -0.8559  0.1629
  125MOL0     C17135   5.530   8.389  10.423 -0.7688  0.1451  0.9312
  125MOL0     O17136   5.488   8.307  10.533 -0.5682 -1.2929  0.2921
  125MOL0     C17137   5.582   8.281  10.627 -0.0152 -0.0934  0.8259
  125MOL0     C17138   5.699   8.212  10.595 -0.2029  0.6507 -1.5659
  125MOL0     C17139   5.811   8.187  10.690  0.2506 -0.0906 -0.2580
  125MOL0     C17140   5.935   8.117  10.651 -0.4123  0.2535  0.1714
  125MOL0     C17141   5.794   8.244  10.822  0.2020 -0.2673 -0.2588
  125MOL0     C17142   5.894   8.262  10.928 -0.9002  0.7835 -0.5131
  125MOL0     O17143   5.852   8.319  11.038  0.4069  0.6042 -0.6750
  125MOL0     C17144   5.941   8.337  11.141 -1.3873 -0.3259 -0.0833
  125MOL0     C17145   5.927   8.281  11.270 -0.0070 -0.3712 -0.5269
  125MOL0     C17146   5.997   8.336  11.380  0.2727  0.0330  0.1545
  125MOL0     C17147   6.100   8.428  11.362  0.4616  1.1556 -0.1731
  125MOL0     O17148   6.190   8.477  11.451 -0.0569  0.2202  0.1764
  125MOL0     C17149   6.317   8.406  11.451 -0.5750  0.5586  0.0968
  125MOL0     C17150   6.311   8.282  11.540  0.3340  0.2303 -0.3501
  125MOL0     C17151   6.273   8.314  11.692 -0.3701 -0.0003  1.0927
  125MOL0     C17152   6.259   8.190  11.788  0.2532 -0.0379 -0.0494
  125MOL0     C17153   6.196   8.230  11.927 -0.2653  0.1013  0.6400
  125MOL0     C17154   6.267   8.319  12.014  0.1598 -0.0240  0.0078
  125MOL0     C17155   6.192   8.339  12.140  0.3602  0.0399  0.5800
  125MOL0     C17156   6.240   8.453  12.228  0.2932  0.1056  0.1644
  125MOL0    Cl17157   6.390   8.400  12.313 -0.1943 -0.0380  0.0429
  125MOL0     C17158   6.120   8.479  11.229 -0.6331 -0.5927 -0.3876
  125MOL0     C17159   6.045   8.435  11.125  0.2297 -0.6613  0.0427
  125MOL0     O17160   6.008   8.233  10.906 -0.0759  0.3598  0.3966
  125MOL0     C17161   5.675   8.307  10.844 -0.7995  0.2472  0.2289
  125MOL0     C17162   5.575   8.321  10.755  1.0985  0.3963  0.6879
  125MOL0     N17163   5.034   8.372  10.107 -0.0094  0.9113 -0.5064
  125MOL0     N17164   4.911   8.341  10.099 -0.0953  0.0250 -0.3278
  125MOL0     C17165   3.886   7.796  10.564 -0.5477  0.6374  0.2114
  125MOL0     C17166   3.770   7.732  10.526  0.1598 -0.0197 -0.3289
  125MOL0     C17167   3.424   7.491  10.386  0.0404  0.1481 -0.1815
  125MOL0     C17168   3.335   7.506  10.277  0.2619  0.0400  0.0569
  125MOL0     C17169   3.228   7.424  10.251 -0.3838 -0.3693 -0.7337
  125MOL0     C17170   3.190   7.332  10.347  0.0019  0.2306 -0.5394
  125MOL0     O17171   3.101   7.230  10.318 -0.0286 -0.3516  0.5561
  125MOL0     C17172   2.959   7.274  10.301 -0.6162  0.2254 -0.0756
  125MOL0     C17173   2.883   7.307  10.429  0.5753 -0.3357 -0.7453
  125MOL0     C17174   2.894   7.188  10.528 -0.3828 -0.2659 -0.6181
  125MOL0     C17175   2.801   7.081  10.479  0.1259  0.1945  0.4323
  125MOL0     C17176   2.664   7.115  10.522 -0.1657  0.3835 -0.6907
  125MOL0     C17177   2.550   7.151  10.551 -0.1359 -0.4416  0.8321
  125MOL0     C17178   3.267   7.323  10.461  0.1221 -0.4790  0.0018
  125MOL0     C17179   3.388   7.396  10.476 -0.1905 -0.3551 -0.2039
  125MOL0     C17180   3.478   7.349  10.585  0.6578 -0.3413 -0.1811
  125MOL0     H17181   3.883   7.455  10.367 -0.9001  1.1574 -1.9051
  125MOL0     H17182   4.099   7.574  10.406 -1.3932 -2.9793 -0.6928
  125MOL0     H17183   4.257   7.729  10.413  1.0746 -1.7321  2.0036
  125MOL0     H17184   4.286   7.764  10.585 -0.4076  0.4401  0.5104
  125MOL0     H17185   4.263   8.002  10.538 -0.5927 -2.6516  1.5100
  125MOL0     H17186   4.409   7.933  10.453  0.1925  1.5642 -1.3362
  125MOL0     H17187   4.265   7.883  10.245 -1.0445  1.0241 -1.2448
  125MOL0     H17188   4.155   8.009  10.311  0.5047 -0.0111 -0.7693
  125MOL0     H17189   4.262   8.157  10.200 -1.5937 -0.1131  1.0381
  125MOL0     H17190   4.366   8.152  10.344 -0.5441 -2.0611  2.2986
  125MOL0     H17191   4.432   7.991  10.090 -4.3579  2.7374 -0.4037
  125MOL0     H17192   4.537   8.004  10.239 -0.0126  2.1960  1.2481
  125MOL0     H17193   4.457   8.208  10.020  1.0866  2.1238 -0.3948
  125MOL0     H17194   4.508   8.272  10.168 -2.0889  0.0654  1.5843
  125MOL0     H17195   4.673   8.281  10.020  0.9025  0.8630  1.0455
  125MOL0     H17196   4.692   8.112   9.976  1.0166 -0.3571  0.1844
  125MOL0     H17197   4.715   8.195  10.270  0.1645  1.5049  0.2840
  125MOL0     H17198   4.776   8.049  10.186  2.4344  0.5409 -0.3395
  125MOL0     H17199   5.025   8.072  10.233 -1.8273 -0.1913 -1.2194
  125MOL0     H17200   5.313   8.265  10.087 -0.2012  0.1780  0.1184
  125MOL0     H17201   5.269   8.135  10.194  0.5768  0.4570  2.5257
  125MOL0     H17202   5.288   8.418  10.281  3.4020  0.2285  3.1529
  125MOL0     H17203   5.264   8.268  10.384 -0.3150  1.5137  1.0432
  125MOL0     H17204   5.501   8.219  10.290 -0.7434 -1.0741 -0.1519
  125MOL0     H17205   5.508   8.376  10.213  0.1954 -1.5157 -0.1316
  125MOL0     H17206   5.639   8.378  10.413 -1.0021 -6.5323  1.2126
  125MOL0     H17207   5.490   8.491  10.428 -1.3874 -0.0916  0.7897
  125MOL0     H17208   5.710   8.179  10.492  0.1985 -0.6685 -1.1221
  125MOL0     H17209   5.994   8.182  10.586 -1.9030  2.7697  1.1738
  125MOL0     H17210   5.920   8.015  10.613  3.0355 -0.2020 -0.3012
  125MOL0     H17211   5.989   8.088  10.742 -2.7765  1.0729  1.9557
  125MOL0     H17212   5.850   8.210  11.297 -0.7687  1.7346  3.6620
  125MOL0     H17213   5.979   8.303  11.482  1.2988  0.7525  0.5783
  125MOL0     H17214   6.353   8.397  11.349  0.9926  2.0054  0.4821
  125MOL0     H17215   6.391   8.471  11.498  0.8285 -0.5032 -0.6040
  125MOL0     H17216   6.237   8.209  11.505  0.1061  1.1758 -1.9424
  125MOL0     H17217   6.410   8.236  11.540  0.0736 -0.3625 -1.4433
  125MOL0     H17218   6.176   8.364  11.689 -1.0983 -1.3161  1.9730
  125MOL0     H17219   6.349   8.387  11.720 -1.3255  0.4125  2.6744
  125MOL0     H17220   6.359   8.151  11.811  0.5975  0.7260 -0.2428
  125MOL0     H17221   6.195   8.113  11.744  2.1367 -1.0549 -1.1149
  125MOL0     H17222   6.100   8.280  11.910  1.2749  2.6037 -1.3503
  125MOL0     H17223   6.181   8.135  11.979  0.3174 -0.5370 -0.3221
  125MOL0     H17224   6.290   8.412  11.961  3.5395  0.8520  2.6560
  125MOL0     H17225   6.362   8.271  12.039 -0.7385 -1.7024  0.3026
  125MOL0     H17226   6.171   8.242  12.186  0.8066 -2.2231 -3.5215
  125MOL0     H17227   6.094   8.377  12.109  0.0934  0.4684  1.8903
  125MOL0     H17228   6.168   8.481  12.305  0.3566  1.5648 -0.2657
  125MOL0     H17229   6.266   8.542  12.169 -1.6526  1.7980  1.7302
  125MOL0     H17230   6.204   8.547  11.223 -0.8238  0.4069  4.3314
  125MOL0     H17231   6.048   8.486  11.030 -1.7244 -1.2640 -0.4002
  125MOL0     H17232   5.648   8.355  10.938 -1.7356 -0.0763  0.1363
  125MOL0     H17233   5.487   8.380  10.779  0.1885 -0.9867  0.8361
  125MOL0     H17234   3.875   7.898  10.597 -0.3173  0.6656  0.2030
  125MOL0     H17235   3.675   7.775  10.555 -0.2365 -0.8613 -0.3385
  125MOL0     H17236   3.367   7.583  10.208  4.4661 -1.1966  0.4066
  125MOL0     H17237   3.175   7.431  10.156 -1.9193 -0.9946  0.0346
  125MOL0     H17238   2.952   7.368  10.246  0.0244  0.7323  0.6933
  125MOL0     H17239   2.910   7.205  10.232  0.1324 -0.4292  0.0277
  125MOL0     H17240   2.777   7.321  10.402  0.7130 -1.2448 -1.8316
  125MOL0     H17241   2.939   7.386  10.479  4.4841 -3.6068  0.5898
  125MOL0     H17242   2.996   7.147  10.535 -0.8613 -1.1843  2.7127
  125MOL0     H17243   2.868   7.215  10.630  0.6200 -1.7374  0.0684
  125MOL0     H17244   2.825   6.986  10.526 -2.2411  0.5992  2.7010
  125MOL0     H17245   2.807   7.068  10.371 -1.1593 -0.3190  0.4063
  125MOL0     H17246   2.447   7.173  10.567 -0.5165 -0.7503 -0.9779
  125MOL0     H17247   3.241   7.243  10.530  0.4799  1.0035  1.9583
  125MOL0     H17248   3.427   7.284  10.657  0.0117  1.5163  1.1123
  125MOL0     H17249   3.567   7.300  10.542  0.5831  0.5365 -1.3794
  125MOL0     H17250   3.520   7.431  10.643  2.3765 -1.6532  0.5375
  126MOL0     O17251   6.778   6.139   7.436  0.0228 -0.6484 -0.6105
  126MOL0     C17252   6.752   6.195   7.329 -0.1721 -0.8451  0.2300
  126MOL0     O17253   6.824   6.291   7.271 -0.1864 -0.0667  0.6919
  126MOL0     C17254   6.924   6.356   7.331 -0.1024  0.2188  0.0962
  126MOL0     C17255   6.899   6.418   7.455  0.1966  0.2196  0.2847
  126MOL0     C17256   6.997   6.488   7.522 -0.0684 -0.4814  0.1119
  126MOL0     C17257   7.129   6.503   7.475  0.5964 -0.0597  0.0977
  126MOL0     O17258   7.213   6.598   7.542 -0.4945 -0.5017  0.2201
  126MOL0     C17259   7.352   6.569   7.505 -0.1594  0.2749 -0.4625
  126MOL0     C17260   7.440   6.678   7.567 -0.0633 -0.1347 -0.1898
  126MOL0     C17261   7.588   6.663   7.529  0.6983  0.8001  0.4493
  126MOL0     C17262   7.653   6.525   7.563  0.2830 -0.6146  0.3390
  126MOL0     C17263   7.795   6.503   7.521  0.0030  0.1153 -0.4301
  126MOL0     C17264   7.852   6.367   7.565 -0.4480 -0.1131  0.2430
  126MOL0     C17265   7.985   6.324   7.497  0.0422  0.0560 -0.5074
  126MOL0     C17266   8.100   6.413   7.535  0.6125 -0.2787 -0.4323
  126MOL0     N17267   8.218   6.371   7.470  0.2618  0.2689 -0.0123
  126MOL0     C17268   8.295   6.265   7.502  0.6732  1.6082 -0.3458
  126MOL0     C17269   8.388   6.252   7.406  0.1585  0.1805 -0.1009
  126MOL0     C17270   8.515   6.168   7.399 -0.4625 -0.4664 -0.2944
  126MOL0     C17271   8.618   6.191   7.280 -0.1314  0.0978  0.5048
  126MOL0     C17272   8.576   6.148   7.135  0.0646  0.3083 -0.6433
  126MOL0     C17273   8.679   6.194   7.030 -1.1033 -0.2807 -0.2879
  126MOL0     O17274   8.793   6.097   7.029 -0.2650 -0.8636  0.3240
  126MOL0     C17275   8.895   6.106   6.933  0.2040  0.0822  0.0140
  126MOL0     C17276   8.897   6.219   6.841 -0.5350 -0.2003 -0.4636
  126MOL0     C17277   8.993   6.224   6.736  0.0056 -0.4325 -0.5595
  126MOL0     C17278   9.001   6.354   6.661 -0.5031  0.1852 -0.2414
  126MOL0     C17279   9.094   6.127   6.728  0.2316  0.2127 -0.2525
  126MOL0     C17280   9.212   6.138   6.642  0.1052  1.3585  0.1677
  126MOL0     O17281   9.238   6.261   6.592  0.0042 -0.1327  0.2048
  126MOL0     C17282   9.362   6.307   6.549 -0.0932 -0.4467  0.4108
  126MOL0     C17283   9.437   6.242   6.451 -0.9544 -0.2137  0.5357
  126MOL0     C17284   9.550   6.308   6.405 -0.2495  0.7271 -0.6692
  126MOL0     C17285   9.596   6.429   6.452  0.6743  0.0796 -0.2369
  126MOL0     O17286   9.705   6.485   6.395  0.3450  0.8556 -0.1153
  126MOL0     C17287   9.824   6.413   6.448  1.0916  0.4597  0.1365
  126MOL0     C17288   9.926   6.404   6.334  0.0177  1.1386 -0.4641
  126MOL0     C17289   9.991   6.542   6.308 -0.4160  0.5620 -0.8243
  126MOL0     C17290  10.132   6.520   6.242 -0.0472 -0.1582  0.9127
  126MOL0     C17291  10.234   6.472   6.339  0.1329  0.3770  0.4154
  126MOL0     C17292  10.366   6.431   6.268  1.5756  0.2526 -0.2061
  126MOL0     C17293  10.434   6.553   6.203  0.8435  0.5705  0.8181
  126MOL0     C17294  10.554   6.513   6.119  0.6891 -0.2411 -0.3060
  126MOL0    Cl17295  10.669   6.428   6.228 -0.2137 -0.0621 -0.0134
  126MOL0     C17296   9.521   6.497   6.545 -0.0819  0.0452 -0.7906
  126MOL0     C17297   9.402   6.432   6.594 -0.7024 -0.1130 -0.5469
  126MOL0     O17298   9.268   6.035   6.608  0.1096  0.7668 -0.1935
  126MOL0     C17299   9.085   6.016   6.816  0.7478  0.1600  0.3112
  126MOL0     C17300   8.983   6.001   6.917  0.1500 -0.1874 -0.0669
  126MOL0     N17301   8.370   6.355   7.308  0.2658  0.2120  0.1750
  126MOL0     N17302   8.259   6.414   7.352 -0.1657 -0.9520 -0.0867
  126MOL0     C17303   7.151   6.440   7.348 -0.6587 -0.0403  0.2046
  126MOL0     C17304   7.052   6.366   7.275 -1.0497 -0.6585 -0.0193
  126MOL0     C17305   6.641   6.160   7.252  0.5107 -0.1412  0.5245
  126MOL0     C17306   6.672   6.068   7.142  1.3426  1.2100  0.1270
  126MOL0     C17307   6.572   6.032   7.057  0.6078 -0.0670  0.7511
  126MOL0     C17308   6.442   6.091   7.063 -0.8279  0.0142  0.0720
  126MOL0     O17309   6.336   6.057   6.979 -0.9612 -0.1685 -0.0591
  126MOL0     C17310   6.366   5.993   6.854 -0.5056  0.1043 -0.2501
  126MOL0     C17311   6.245   6.002   6.761 -0.5125 -1.1719  0.9977
  126MOL0     C17312   6.273   5.941   6.627 -0.0885  0.2354 -0.5387
  126MOL0     C17313   6.154   5.957   6.534  0.1293  0.0905  0.2098
  126MOL0     C17314   6.189   5.891   6.408  0.3714 -1.1555 -1.6091
  126MOL0     C17315   6.223   5.820   6.320  0.0172 -0.4304 -0.7021
  126MOL0     C17316   6.416   6.182   7.167 -0.0428  0.4675  0.9640
  126MOL0     C17317   6.511   6.221   7.254  0.2335 -0.3887 -0.4009
  126MOL0     C17318   6.467   6.326   7.357  0.5047 -0.2079  0.6945
  126MOL0     H17319   6.799   6.414   7.496  0.3954 -0.6927  0.7099
  126MOL0     H17320   6.975   6.549   7.609  0.1717 -1.1695  0.6577
  126MOL0     H17321   7.377   6.579   7.399  0.8412  0.1581 -0.2468
  126MOL0     H17322   7.383   6.470   7.539 -1.0340  0.1602  0.0316
  126MOL0     H17323   7.410   6.783   7.552  1.5996  0.4688  0.4354
  126MOL0     H17324   7.433   6.660   7.674 -0.2775 -0.5161 -0.2665
  126MOL0     H17325   7.609   6.684   7.424  3.6736  1.2023  1.0351
  126MOL0     H17326   7.647   6.735   7.587  1.7666 -0.3760  0.8581
  126MOL0     H17327   7.636   6.512   7.671 -1.7569 -0.1420  0.1226
  126MOL0     H17328   7.586   6.449   7.522 -0.9673  0.1730  0.8404
  126MOL0     H17329   7.855   6.585   7.563  0.0355  1.6485 -3.1848
  126MOL0     H17330   7.804   6.513   7.412 -1.0795 -2.1352 -0.7714
  126MOL0     H17331   7.859   6.384   7.673  0.8127  0.2460  0.1275
  126MOL0     H17332   7.783   6.285   7.545 -1.2493  0.7534 -0.6408
  126MOL0     H17333   7.957   6.336   7.392 -0.2004  0.4986 -0.3954
  126MOL0     H17334   8.013   6.220   7.513  1.8394  0.6990  0.7539
  126MOL0     H17335   8.089   6.522   7.529 -2.3726 -0.1794  2.8935
  126MOL0     H17336   8.122   6.400   7.642 -0.3509 -0.6502 -0.2609
  126MOL0     H17337   8.286   6.216   7.598 -1.0054  1.2475 -0.6655
  126MOL0     H17338   8.479   6.065   7.397 -2.5717  0.2214 -0.1663
  126MOL0     H17339   8.565   6.179   7.495  1.4006  1.6483 -1.4108
  126MOL0     H17340   8.617   6.300   7.278 -3.8223  0.1910  1.3517
  126MOL0     H17341   8.712   6.147   7.314  0.4296 -0.0345 -1.1204
  126MOL0     H17342   8.559   6.040   7.135  0.3277  0.1419  3.0832
  126MOL0     H17343   8.484   6.202   7.107 -0.2361 -1.3866 -3.1725
  126MOL0     H17344   8.625   6.212   6.937  1.0889  4.1921 -0.9622
  126MOL0     H17345   8.717   6.293   7.054  1.5196 -0.9101 -1.5144
  126MOL0     H17346   8.819   6.293   6.854  0.9653  1.2168  0.8105
  126MOL0     H17347   9.076   6.415   6.712 -1.5218 -0.7932  2.6172
  126MOL0     H17348   8.901   6.398   6.673 -0.5568  0.2944 -1.0165
  126MOL0     H17349   9.002   6.343   6.552 -1.2363 -1.8153 -0.0820
  126MOL0     H17350   9.431   6.142   6.409  2.1631  0.2376 -1.2948
  126MOL0     H17351   9.613   6.251   6.338 -0.5334 -0.3744 -0.0147
  126MOL0     H17352   9.864   6.471   6.532 -1.0996  3.0406 -0.4436
  126MOL0     H17353   9.803   6.311   6.479  0.3042  0.0012 -1.7518
  126MOL0     H17354   9.997   6.324   6.358  0.4908  1.1683 -1.7114
  126MOL0     H17355   9.880   6.364   6.244 -2.1658 -0.7711  1.3644
  126MOL0     H17356   9.999   6.584   6.409  1.6495  0.6065 -0.9628
  126MOL0     H17357   9.928   6.602   6.242  1.8787  2.2848 -1.5912
  126MOL0     H17358  10.163   6.605   6.181  1.7085 -2.2812 -1.3901
  126MOL0     H17359  10.120   6.447   6.160  1.3298  1.0616 -0.4309
  126MOL0     H17360  10.262   6.552   6.408  1.1924  0.4474 -0.0754
  126MOL0     H17361  10.186   6.391   6.394 -3.4315  0.2300 -2.5393
  126MOL0     H17362  10.357   6.349   6.196  0.6613  1.0918 -1.0805
  126MOL0     H17363  10.439   6.387   6.337 -1.7086 -2.5517  1.7661
  126MOL0     H17364  10.466   6.604   6.294  1.2259  2.0398 -0.1104
  126MOL0     H17365  10.371   6.616   6.139 -0.3581 -1.4234 -0.0888
  126MOL0     H17366  10.597   6.603   6.073 -1.1566  2.1969  2.3796
  126MOL0     H17367  10.515   6.453   6.037  0.5357 -2.3851  1.2582
  126MOL0     H17368   9.538   6.601   6.571  0.3000  0.2658 -1.8660
  126MOL0     H17369   9.333   6.490   6.655 -0.4822  0.0399 -0.4417
  126MOL0     H17370   9.171   5.950   6.811  2.3591  1.7833  3.6136
  126MOL0     H17371   8.987   5.918   6.985  4.9100 -0.4465 -0.2945
  126MOL0     H17372   7.244   6.458   7.294 -1.8833  3.3810 -1.0744
  126MOL0     H17373   7.072   6.323   7.178  5.6426 -1.3018  1.1103
  126MOL0     H17374   6.767   6.018   7.127  1.3179  0.9005  0.9908
  126MOL0     H17375   6.590   5.954   6.984 -2.9395 -0.2590 -0.0833
  126MOL0     H17376   6.462   6.031   6.817 -0.7399 -0.5911 -1.6140
  126MOL0     H17377   6.375   5.888   6.882 -1.2780  0.9152  3.7392
  126MOL0     H17378   6.232   6.109   6.741 -0.3199 -1.2027  0.6999
  126MOL0     H17379   6.161   5.958   6.815 -1.1079  0.0884  1.1471
  126MOL0     H17380   6.356   6.002   6.590  1.3334 -0.8231  0.7573
  126MOL0     H17381   6.305   5.837   6.634 -4.3390 -1.2082  0.9106
  126MOL0     H17382   6.140   6.064   6.520  1.3264  0.5583  2.2420
  126MOL0     H17383   6.070   5.906   6.583  0.1419 -1.3271 -1.1305
  126MOL0     H17384   6.263   5.767   6.235 -1.4075 -0.9561 -1.0852
  126MOL0     H17385   6.316   6.225   7.166  0.4081  1.9216 -3.0262
  126MOL0     H17386   6.428   6.416   7.308  2.0282  0.5117  0.7455
  126MOL0     H17387   6.379   6.286   7.408 -1.2620 -1.3094 -2.8252
  126MOL0     H17388   6.552   6.347   7.422 -0.3270 -3.2516  2.9785
  127MOL0     O17389   9.257   7.904   2.517  0.7438  0.2387 -0.4160
  127MOL0     C17390   9.320   7.927   2.421 -0.6953  0.3714  0.4000
  127MOL0     O17391   9.439   7.874   2.395 -0.5945  0.4013 -0.4775
  127MOL0     C17392   9.487   7.780   2.491 -0.2284 -0.0419  0.7723
  127MOL0     C17393   9.430   7.654   2.491  0.6156  0.3311  0.1172
  127MOL0     C17394   9.482   7.555   2.573 -0.1586 -0.6354 -0.6912
  127MOL0     C17395   9.587   7.582   2.655 -0.4554 -0.5198 -0.1641
  127MOL0     O17396   9.626   7.479   2.733  0.5817  0.7295 -0.0664
  127MOL0     C17397   9.771   7.459   2.760 -0.0943 -0.0212  0.0678
  127MOL0     C17398   9.800   7.304   2.754  0.3007 -0.5434  0.6934
  127MOL0     C17399   9.802   7.249   2.616 -0.1160  0.9308  0.3055
  127MOL0     C17400   9.912   7.307   2.531 -0.5254  0.2688  0.4927
  127MOL0     C17401   9.913   7.232   2.388 -1.0459 -0.6119  0.0405
  127MOL0     C17402   9.989   7.091   2.383  0.4251  1.0256  0.7036
  127MOL0     C17403   9.970   7.036   2.234  0.2439  0.2375  0.9368
  127MOL0     C17404  10.044   6.890   2.219  0.5163  0.1475 -0.6990
  127MOL0     N17405  10.181   6.873   2.280  0.2482 -0.2472  0.2577
  127MOL0     C17406  10.225   6.743   2.309 -0.2477  0.8812 -0.2505
  127MOL0     C17407  10.358   6.743   2.304  0.2063  0.2102 -0.9270
  127MOL0     C17408  10.461   6.621   2.312  0.2567  0.1602 -0.3529
  127MOL0     C17409  10.469   6.582   2.459 -0.1437  0.5398  0.1853
  127MOL0     C17410  10.562   6.686   2.517  0.3319 -0.5593 -0.0433
  127MOL0     C17411  10.554   6.686   2.670  0.4738 -0.3974 -0.0061
  127MOL0     O17412  10.662   6.607   2.743 -0.2876 -0.1716  0.2083
  127MOL0     C17413  10.792   6.652   2.766  0.5908 -0.1205  0.6113
  127MOL0     C17414  10.855   6.599   2.872 -0.0865 -0.8575 -0.3585
  127MOL0     C17415  10.978   6.655   2.914  0.2266  0.4997 -0.1560
  127MOL0     C17416  11.044   6.592   3.029  0.2494 -0.4209  0.3764
  127MOL0     C17417  11.036   6.759   2.847 -0.0111 -0.8697  0.2375
  127MOL0     C17418  11.162   6.813   2.892 -0.2464 -0.1187 -0.0647
  127MOL0     O17419  11.245   6.827   2.779  0.2384 -1.1348 -0.2586
  127MOL0     C17420  11.353   6.908   2.792 -0.2927  0.4901 -1.3374
  127MOL0     C17421  11.355   7.043   2.826 -0.1246 -0.3202 -0.2463
  127MOL0     C17422  11.474   7.119   2.817  0.1376  0.3637 -0.5970
  127MOL0     C17423  11.586   7.068   2.760  0.6222  0.4304 -0.1373
  127MOL0     O17424  11.707   7.142   2.753  0.1493 -0.1452 -0.7260
  127MOL0     C17425  11.755   7.178   2.882 -0.3982 -0.1362 -0.0580
  127MOL0     C17426  11.907   7.182   2.881  0.2376  0.0283  1.0411
  127MOL0     C17427  11.970   7.041   2.909  0.6295 -0.2022 -0.2682
  127MOL0     C17428  12.122   7.045   2.947 -0.6175  0.3859 -0.3403
  127MOL0     C17429  12.173   6.919   3.006 -0.4862 -0.1479 -0.9829
  127MOL0     C17430  12.333   6.906   3.019  0.6454 -0.2574  0.2457
  127MOL0     C17431  12.404   7.028   3.078  0.4424 -0.0780 -0.1600
  127MOL0     C17432  12.545   6.996   3.072 -0.4615 -0.2701  0.3622
  127MOL0    Cl17433  12.637   7.117   3.164 -0.3048  0.0267 -0.1029
  127MOL0     C17434  11.593   6.932   2.721 -0.0508 -0.8709 -0.4970
  127MOL0     C17435  11.478   6.856   2.735  0.3626  0.0525  0.1837
  127MOL0     O17436  11.193   6.838   3.008  0.3920  0.0484 -0.1065
  127MOL0     C17437  10.964   6.810   2.733  0.0924 -0.3750  0.1755
  127MOL0     C17438  10.843   6.761   2.697 -0.6190  0.7757  0.0416
  127MOL0     N17439  10.395   6.872   2.268 -0.2826  0.3216 -0.5195
  127MOL0     N17440  10.292   6.945   2.248  0.2502 -0.2394 -0.6413
  127MOL0     C17441   9.635   7.714   2.663 -0.7079  0.1454  0.7205
  127MOL0     C17442   9.584   7.817   2.583  0.3872  0.2379 -0.8489
  127MOL0     C17443   9.274   8.013   2.319 -0.4554 -0.5406 -0.0916
  127MOL0     C17444   9.356   8.047   2.211  0.3639 -0.4795  1.3688
  127MOL0     C17445   9.318   8.136   2.111 -0.2705 -0.4454  0.7409
  127MOL0     C17446   9.203   8.211   2.124 -0.8404 -0.6025  0.5277
  127MOL0     O17447   9.186   8.319   2.039 -0.4366 -0.0721  0.9649
  127MOL0     C17448   9.061   8.400   2.041  0.2099  0.5235 -0.0922
  127MOL0     C17449   8.950   8.344   1.955  0.0740  0.7789  0.0741
  127MOL0     C17450   8.813   8.314   2.026 -0.6930  0.8018 -0.2357
  127MOL0     C17451   8.696   8.265   1.928 -0.0068  0.0965  0.0314
  127MOL0     C17452   8.610   8.187   2.004  0.3533  0.3437  0.2117
  127MOL0     C17453   8.542   8.122   2.083  0.0380 -1.1349  0.3570
  127MOL0     C17454   9.120   8.180   2.230 -0.1582  0.6634  0.9398
  127MOL0     C17455   9.142   8.081   2.323  0.4994  0.1579 -0.1832
  127MOL0     C17456   9.027   8.060   2.411  0.4441 -0.5684 -0.1230
  127MOL0     H17457   9.344   7.632   2.428 -1.0451  3.2120  1.2016
  127MOL0     H17458   9.429   7.463   2.593 -0.2617 -0.4809 -0.2266
  127MOL0     H17459   9.809   7.495   2.856  0.9810  0.1562 -0.4136
  127MOL0     H17460   9.830   7.516   2.687 -0.9177 -0.0253 -0.6215
  127MOL0     H17461   9.899   7.282   2.796  0.5750  0.1176  0.4139
  127MOL0     H17462   9.718   7.251   2.801 -0.4759  0.0647  0.0594
  127MOL0     H17463   9.820   7.141   2.617 -1.8498  0.5508 -2.0544
  127MOL0     H17464   9.705   7.267   2.571  0.3789  1.5227 -0.5508
  127MOL0     H17465   9.907   7.416   2.532  0.0093  0.2941  1.2709
  127MOL0     H17466  10.011   7.287   2.574 -0.8619  0.3721  1.3458
  127MOL0     H17467   9.968   7.294   2.318  0.7608 -1.3588  0.7414
  127MOL0     H17468   9.811   7.227   2.348  0.4375 -1.6114 -4.1703
  127MOL0     H17469  10.094   7.114   2.402  0.0690  1.3031  2.6080
  127MOL0     H17470   9.964   7.024   2.467  0.1278  0.6805  0.3465
  127MOL0     H17471  10.035   7.099   2.172  2.1442 -0.6974  1.8697
  127MOL0     H17472   9.864   7.040   2.208 -0.2500 -0.1401  2.7153
  127MOL0     H17473   9.975   6.822   2.269 -1.2171  1.4950 -1.1706
  127MOL0     H17474  10.052   6.858   2.115 -0.5703 -3.8351  0.2828
  127MOL0     H17475  10.171   6.650   2.327 -0.0520  0.8947  0.4544
  127MOL0     H17476  10.555   6.650   2.265  0.0573  0.4854 -0.5519
  127MOL0     H17477  10.423   6.531   2.262  0.1131 -1.8025  2.9476
  127MOL0     H17478  10.375   6.573   2.515 -1.2479 -0.0062 -1.6529
  127MOL0     H17479  10.521   6.486   2.468 -0.1444  0.5419  0.2105
  127MOL0     H17480  10.663   6.669   2.479  1.0796  1.6341  0.7916
  127MOL0     H17481  10.528   6.780   2.475 -0.8742 -0.8443  0.2637
  127MOL0     H17482  10.544   6.789   2.704  2.3693 -0.4139  0.6777
  127MOL0     H17483  10.460   6.633   2.688 -0.4673  0.4064 -2.1292
  127MOL0     H17484  10.807   6.528   2.938 -0.2227  0.6944  1.2919
  127MOL0     H17485  11.005   6.497   3.067 -1.0244  1.2607  3.7141
  127MOL0     H17486  11.040   6.658   3.116 -0.6562  3.2046 -2.2209
  127MOL0     H17487  11.152   6.590   3.014  0.2299  0.9285 -0.0048
  127MOL0     H17488  11.265   7.095   2.857  0.2010  1.0990 -1.5520
  127MOL0     H17489  11.489   7.224   2.837  3.2660  0.1155 -1.1943
  127MOL0     H17490  11.721   7.278   2.911  0.0043 -0.5112  1.8094
  127MOL0     H17491  11.717   7.109   2.958 -2.4837  0.0431 -0.8632
  127MOL0     H17492  11.946   7.239   2.796  0.1249 -0.3342  0.7479
  127MOL0     H17493  11.943   7.246   2.962  2.8187 -3.3879  2.8140
  127MOL0     H17494  11.951   6.975   2.824 -0.4921  1.7133 -1.5846
  127MOL0     H17495  11.918   7.009   2.999 -0.6464  0.7390 -0.6428
  127MOL0     H17496  12.142   7.132   3.011  1.5928 -0.5672  0.3616
  127MOL0     H17497  12.181   7.058   2.856  1.6575 -0.7003  0.9082
  127MOL0     H17498  12.122   6.892   3.099  0.8655  0.0584 -0.1535
  127MOL0     H17499  12.149   6.829   2.950  0.0782 -2.1120  1.7252
  127MOL0     H17500  12.381   6.878   2.925  3.6508 -0.0057  1.5970
  127MOL0     H17501  12.346   6.815   3.079  3.3679  0.1755  0.4494
  127MOL0     H17502  12.373   7.042   3.182  1.8852 -0.2593  0.3246
  127MOL0     H17503  12.380   7.118   3.021  0.8772 -0.8792 -1.6637
  127MOL0     H17504  12.581   6.981   2.970 -3.0114 -2.0441 -0.3771
  127MOL0     H17505  12.574   6.895   3.103  3.1969  0.7502  0.7757
  127MOL0     H17506  11.689   6.890   2.691  1.6835  1.2344  1.6372
  127MOL0     H17507  11.477   6.749   2.715  0.2795  0.3435 -1.5898
  127MOL0     H17508  11.008   6.892   2.677  3.9912 -2.0210  0.4600
  127MOL0     H17509  10.797   6.799   2.606 -0.3654  0.2655 -0.3066
  127MOL0     H17510   9.720   7.725   2.730  0.5571  0.6302 -0.8834
  127MOL0     H17511   9.612   7.921   2.583 -0.3215  0.4370 -0.3364
  127MOL0     H17512   9.451   7.998   2.195 -0.8405 -2.1266 -1.5946
  127MOL0     H17513   9.380   8.167   2.027 -2.0897  1.9194  0.1666
  127MOL0     H17514   9.038   8.432   2.143  0.3090  1.3475 -0.3230
  127MOL0     H17515   9.098   8.493   1.997 -1.8720  1.4929  0.1240
  127MOL0     H17516   8.985   8.243   1.928  1.7576  0.8346  1.8265
  127MOL0     H17517   8.938   8.391   1.857  2.8025 -0.9337 -1.2245
  127MOL0     H17518   8.833   8.238   2.102 -0.7786 -1.1956 -2.1158
  127MOL0     H17519   8.783   8.404   2.081 -2.1253 -0.8493  1.8470
  127MOL0     H17520   8.740   8.207   1.846 -0.6675  0.0943 -0.3199
  127MOL0     H17521   8.641   8.352   1.892  2.0305  2.3542  1.9536
  127MOL0     H17522   8.471   8.069   2.142 -0.1853 -0.4593  0.7145
  127MOL0     H17523   9.035   8.241   2.259  0.7832  1.6727  1.6345
  127MOL0     H17524   9.001   8.155   2.461  0.1187  1.5312 -3.9079
  127MOL0     H17525   8.950   8.030   2.340  1.2412 -1.0369 -0.7999
  127MOL0     H17526   9.033   7.971   2.474  0.2571 -0.9727 -0.6717
  128MOL0     O17527   8.430   0.546   1.106 -0.2739  0.7252 -0.0863
  128MOL0     C17528   8.361   0.493   1.192 -0.4108 -0.8146 -0.4131
  128MOL0     O17529   8.282   0.378   1.182 -0.5870  0.1802 -0.2791
  128MOL0     C17530   8.250   0.311   1.065  0.2328  0.6556  0.4381
  128MOL0     C17531   8.244   0.364   0.931  0.3214 -0.0572  0.7220
  128MOL0     C17532   8.204   0.283   0.827  1.0455  0.4918 -0.1057
  128MOL0     C17533   8.170   0.146   0.846  0.5069  0.3060 -0.1245
  128MOL0     O17534   8.133   0.076   0.738 -0.2122  0.0791 -0.0832
  128MOL0     C17535   8.023  -0.015   0.751 -0.0364 -0.4299 -0.4980
  128MOL0     C17536   7.895   0.049   0.703  0.1302  0.1690 -0.8508
  128MOL0     C17537   7.901   0.067   0.554  0.6048 -0.0159 -0.9942
  128MOL0     C17538   7.774   0.150   0.507  0.3858 -0.5924 -0.6355
  128MOL0     C17539   7.760   0.130   0.353  0.1755  0.7908 -0.3750
  128MOL0     C17540   7.662   0.233   0.286 -0.1572 -1.0892 -0.6282
  128MOL0     C17541   7.518   0.216   0.320  1.0370  0.3085  0.4479
  128MOL0     C17542   7.446   0.330   0.254  0.5730 -0.8952  0.1606
  128MOL0     N17543   7.372   0.394   0.369  0.0940 -0.5877  0.4528
  128MOL0     C17544   7.358   0.531   0.401 -1.4016 -0.3329  0.5649
  128MOL0     C17545   7.273   0.547   0.502 -0.1393  0.8600  0.0201
  128MOL0     C17546   7.223   0.679   0.557 -0.5129  0.1771 -0.0770
  128MOL0     C17547   7.262   0.685   0.710 -0.3927  0.2887  0.0202
  128MOL0     C17548   7.406   0.748   0.745  0.0607  0.1675 -0.0611
  128MOL0     C17549   7.429   0.753   0.893 -0.6931 -0.0238  0.3727
  128MOL0     O17550   7.564   0.789   0.912  0.5943 -0.2712 -0.5294
  128MOL0     C17551   7.641   0.736   1.016  0.1191 -0.0083  0.1611
  128MOL0     C17552   7.773   0.725   1.002  0.0139  0.6500  0.4731
  128MOL0     C17553   7.855   0.680   1.107  0.4793 -0.0805  0.1488
  128MOL0     C17554   8.006   0.680   1.069 -0.0334  0.6970  1.0150
  128MOL0     C17555   7.796   0.636   1.229  0.3486  0.0422 -0.2292
  128MOL0     C17556   7.872   0.573   1.345  0.0292  0.0679  1.1712
  128MOL0     O17557   7.798   0.507   1.432  0.2908 -0.2010 -0.3356
  128MOL0     C17558   7.861   0.473   1.550  0.0948 -0.7311  0.2200
  128MOL0     C17559   7.905   0.341   1.568 -0.5562 -0.4283  1.2236
  128MOL0     C17560   7.966   0.291   1.682  0.1694 -0.4865 -0.4367
  128MOL0     C17561   7.974   0.370   1.794 -0.8310 -0.0879  0.5328
  128MOL0     O17562   8.029   0.311   1.901  0.2055  0.5505 -0.4527
  128MOL0     C17563   7.970   0.348   2.033 -0.1614  0.3728 -0.0323
  128MOL0     C17564   8.018   0.238   2.132  0.8634 -0.1887  0.7077
  128MOL0     C17565   8.174   0.235   2.140 -0.4449 -0.0760 -0.0742
  128MOL0     C17566   8.216   0.160   2.275  0.1005  0.2013 -0.4791
  128MOL0     C17567   8.365   0.131   2.258  0.9442 -0.2435  0.6855
  128MOL0     C17568   8.438   0.268   2.275  0.7295  0.5133  0.7399
  128MOL0     C17569   8.591   0.244   2.294  0.5429  0.1464 -0.1863
  128MOL0     C17570   8.658   0.375   2.353  0.4936 -0.0261 -0.1871
  128MOL0    Cl17571   8.626   0.395   2.527  0.3316  0.0934 -0.1023
  128MOL0     C17572   7.948   0.507   1.777  0.1047 -0.0078 -0.1595
  128MOL0     C17573   7.885   0.561   1.654 -0.3559  0.4534  0.5394
  128MOL0     O17574   7.987   0.600   1.360  0.1687 -0.3498  0.4117
  128MOL0     C17575   7.659   0.652   1.244 -0.2529  0.8781 -0.0966
  128MOL0     C17576   7.578   0.698   1.136 -0.2565 -0.2139  0.4282
  128MOL0     N17577   7.225   0.423   0.532  0.0665  0.8850 -0.6532
  128MOL0     N17578   7.274   0.337   0.448  0.4395 -0.2170 -0.1067
  128MOL0     C17579   8.196   0.091   0.977  0.1266 -0.1913  0.0681
  128MOL0     C17580   8.229   0.178   1.083  0.6861  0.1046  0.0605
  128MOL0     C17581   8.363   0.560   1.327 -0.0027  0.1908 -1.3397
  128MOL0     C17582   8.271   0.514   1.430 -0.6803  0.1911 -0.9070
  128MOL0     C17583   8.268   0.558   1.561  0.7040 -0.9322 -0.4335
  128MOL0     C17584   8.356   0.664   1.594 -0.2808  0.6573  0.2005
  128MOL0     O17585   8.348   0.743   1.713 -0.1842  0.4060  0.0684
  128MOL0     C17586   8.226   0.728   1.795 -0.8414  0.5739  0.4207
  128MOL0     C17587   8.205   0.832   1.908  0.1015  0.2019  0.9139
  128MOL0     C17588   8.137   0.964   1.873  0.1480  0.2936 -0.2188
  128MOL0     C17589   8.126   1.064   1.984  0.1585 -0.7887 -0.6738
  128MOL0     C17590   8.018   1.037   2.086 -0.2647  0.1240  0.9177
  128MOL0     C17591   7.924   1.013   2.158 -0.2552 -0.7834  0.1505
  128MOL0     C17592   8.453   0.711   1.502  0.5109  0.3794  0.1276
  128MOL0     C17593   8.447   0.664   1.374  0.3130 -0.2617  0.7706
  128MOL0     C17594   8.530   0.740   1.273  0.2200  0.9013 -0.5142
  128MOL0     H17595   8.282   0.463   0.906 -2.2195  0.5927 -1.0956
  128MOL0     H17596   8.189   0.338   0.735  1.7815  0.8950  0.0070
  128MOL0     H17597   8.010  -0.039   0.857 -1.3711  2.1982  0.0055
  128MOL0     H17598   8.044  -0.110   0.700  0.3416 -0.6881  0.1249
  128MOL0     H17599   7.817  -0.022   0.732 -0.2894  2.0813  3.3869
  128MOL0     H17600   7.878   0.145   0.752 -3.3672 -0.8137  0.2020
  128MOL0     H17601   7.991   0.123   0.530  1.6618 -1.3925 -0.3453
  128MOL0     H17602   7.924  -0.027   0.504  2.2320 -0.4480  0.4884
  128MOL0     H17603   7.683   0.111   0.554  1.6117 -1.6759  0.9280
  128MOL0     H17604   7.775   0.257   0.532  3.4755  0.2589 -3.6278
  128MOL0     H17605   7.733   0.025   0.333  0.8422 -0.0262  2.5259
  128MOL0     H17606   7.853   0.143   0.298  0.1489 -0.5064 -0.7683
  128MOL0     H17607   7.687   0.335   0.316 -0.1830 -0.3576 -2.9447
  128MOL0     H17608   7.665   0.242   0.177  0.2079 -1.6046 -0.6636
  128MOL0     H17609   7.494   0.203   0.426  1.5508 -1.8572  0.3377
  128MOL0     H17610   7.482   0.125   0.271 -3.2495  2.6744 -1.4139
  128MOL0     H17611   7.508   0.406   0.207  1.7942 -0.5649  2.1756
  128MOL0     H17612   7.385   0.295   0.170  1.6039  1.3726 -1.6319
  128MOL0     H17613   7.417   0.613   0.361 -0.8356 -0.1294  1.7732
  128MOL0     H17614   7.115   0.679   0.542 -0.7536  0.8319  1.4818
  128MOL0     H17615   7.281   0.751   0.498 -1.0981 -0.4337 -1.4407
  128MOL0     H17616   7.197   0.755   0.763  3.6289  3.1602  1.6144
  128MOL0     H17617   7.260   0.585   0.756  0.1619  0.0462 -0.4659
  128MOL0     H17618   7.494   0.697   0.705  1.1865  2.1662 -0.2732
  128MOL0     H17619   7.409   0.846   0.697  2.0378 -1.6416 -4.1821
  128MOL0     H17620   7.363   0.822   0.947 -0.5586 -1.9562  3.2267
  128MOL0     H17621   7.399   0.660   0.943 -0.1643  0.5095  1.7271
  128MOL0     H17622   7.811   0.769   0.910 -0.9766 -0.2318 -0.3800
  128MOL0     H17623   8.015   0.688   0.960 -0.6509 -0.4493  0.8593
  128MOL0     H17624   8.054   0.588   1.103 -0.7514  0.6766  2.0017
  128MOL0     H17625   8.060   0.763   1.116  0.5241 -0.1893  2.0020
  128MOL0     H17626   7.901   0.272   1.484 -0.1443 -0.9814  1.6467
  128MOL0     H17627   7.995   0.187   1.687  0.7614 -0.2745  0.7203
  128MOL0     H17628   7.998   0.449   2.065  1.1721  0.2558 -0.7642
  128MOL0     H17629   7.863   0.331   2.021 -0.2103 -2.0698  2.6276
  128MOL0     H17630   7.968   0.266   2.225 -0.1564 -1.2001  0.4844
  128MOL0     H17631   7.987   0.137   2.103 -0.1778  0.4682 -0.5680
  128MOL0     H17632   8.204   0.340   2.135 -1.4833  0.2450  0.0513
  128MOL0     H17633   8.204   0.184   2.048 -0.9825  0.4540 -0.5483
  128MOL0     H17634   8.160   0.066   2.273 -0.3279  0.4604 -1.0170
  128MOL0     H17635   8.190   0.217   2.365  2.2706  0.7988 -0.1570
  128MOL0     H17636   8.387   0.058   2.336 -2.6538  1.3369  3.4827
  128MOL0     H17637   8.377   0.081   2.162 -1.0356  0.5681 -0.0413
  128MOL0     H17638   8.394   0.325   2.357 -1.6349  2.4893 -1.7194
  128MOL0     H17639   8.417   0.334   2.190  0.7912 -0.3142  0.0677
  128MOL0     H17640   8.648   0.216   2.204 -1.4248 -1.9293 -0.8907
  128MOL0     H17641   8.603   0.173   2.376  1.2425  2.7051  2.0657
  128MOL0     H17642   8.620   0.466   2.305  1.0199 -0.3954 -1.3263
  128MOL0     H17643   8.765   0.373   2.334  0.5044 -0.6413 -0.0814
  128MOL0     H17644   7.978   0.564   1.864  0.6228 -3.3477  2.0424
  128MOL0     H17645   7.864   0.667   1.660  0.4774  0.7392 -1.1298
  128MOL0     H17646   7.599   0.631   1.332 -0.6982 -2.3182 -1.0215
  128MOL0     H17647   7.472   0.711   1.155 -0.9320 -1.4191 -2.0616
  128MOL0     H17648   8.170  -0.013   0.996 -3.6628  0.5328 -0.5189
  128MOL0     H17649   8.250   0.130   1.178 -1.9666 -2.0080 -0.3314
  128MOL0     H17650   8.206   0.428   1.416  0.7767 -0.7506 -2.3165
  128MOL0     H17651   8.195   0.524   1.633  0.7721  1.3978  0.8160
  128MOL0     H17652   8.150   0.743   1.719 -1.4979  0.3949  1.0319
  128MOL0     H17653   8.225   0.627   1.837  1.4304  1.4100  2.7780
  128MOL0     H17654   8.310   0.852   1.930  0.7495  0.3609 -1.8662
  128MOL0     H17655   8.163   0.787   1.998 -1.5707 -2.1473 -0.9035
  128MOL0     H17656   8.201   1.012   1.799  1.6014 -1.3478 -0.0679
  128MOL0     H17657   8.037   0.945   1.831  0.4376 -2.3754  0.0988
  128MOL0     H17658   8.102   1.162   1.940 -0.6050 -1.6242 -2.1969
  128MOL0     H17659   8.221   1.100   2.025 -0.8299  2.4040 -0.8577
  128MOL0     H17660   7.842   1.006   2.228  0.8365  0.5798  1.6248
  128MOL0     H17661   8.521   0.786   1.540  0.6123  1.0897 -1.3987
  128MOL0     H17662   8.603   0.682   1.215 -0.8851 -1.3786  0.2242
  128MOL0     H17663   8.467   0.799   1.206 -2.0144  1.3364  1.8262
  128MOL0     H17664   8.582   0.818   1.328  2.0737  0.9391 -2.2122
  129MOL0     O17665  11.339  10.249   1.645 -0.8209 -0.5537 -0.2205
  129MOL0     C17666  11.220  10.213   1.621  0.0594  0.3893  0.3482
  129MOL0     O17667  11.168  10.091   1.658  0.0744  0.1965 -0.3328
  129MOL0     C17668  11.258  10.013   1.739  0.0362  0.0548  0.2881
  129MOL0     C17669  11.238   9.999   1.880  0.0104  0.2718  0.2191
  129MOL0     C17670  11.319   9.919   1.952 -1.3985 -0.2549  0.9237
  129MOL0     C17671  11.432   9.854   1.888  0.4913 -0.0370 -0.3308
  129MOL0     O17672  11.513   9.770   1.960  0.1969  0.5420  0.3373
  129MOL0     C17673  11.441   9.664   2.024 -0.4664 -0.0322 -0.2498
  129MOL0     C17674  11.553   9.583   2.108  1.4001 -0.3511 -1.2116
  129MOL0     C17675  11.596   9.671   2.223  0.7885 -0.4276 -0.8413
  129MOL0     C17676  11.548   9.648   2.363  0.3457  0.7934 -0.5293
  129MOL0     C17677  11.589   9.769   2.456  0.1934  0.6337  0.5381
  129MOL0     C17678  11.509   9.892   2.449  0.6195  0.0854 -0.4198
  129MOL0     C17679  11.585  10.011   2.503 -0.1913 -0.2085  0.6305
  129MOL0     C17680  11.481  10.112   2.547 -0.4007 -0.0315  0.3933
  129MOL0     N17681  11.546  10.239   2.567 -0.3296  0.5873 -0.1063
  129MOL0     C17682  11.549  10.337   2.480 -0.4712 -0.0205 -0.2315
  129MOL0     C17683  11.601  10.441   2.545  0.0099 -0.6720 -0.1561
  129MOL0     C17684  11.638  10.582   2.506  0.3241 -0.3691  0.7157
  129MOL0     C17685  11.754  10.599   2.410  0.9363 -0.1810  0.1278
  129MOL0     C17686  11.763  10.748   2.361 -0.4592  0.5220  0.0689
  129MOL0     C17687  11.666  10.791   2.259 -0.0714 -1.3212 -0.2219
  129MOL0     O17688  11.695  10.923   2.210  0.3720  0.4591 -0.2337
  129MOL0     C17689  11.616  10.969   2.112 -0.1903 -0.3209 -0.1702
  129MOL0     C17690  11.644  11.100   2.075 -1.1552  1.4023  0.1378
  129MOL0     C17691  11.579  11.161   1.968  0.1975 -0.5075 -0.8635
  129MOL0     C17692  11.626  11.301   1.934 -0.0633  0.1055 -0.5558
  129MOL0     C17693  11.480  11.096   1.888 -0.7973  0.3051  0.0861
  129MOL0     C17694  11.403  11.146   1.776 -0.2354 -0.0699  0.1604
  129MOL0     O17695  11.386  11.066   1.667  0.0591  0.4846 -0.3161
  129MOL0     C17696  11.315  11.116   1.561  0.1512 -0.9852 -0.4320
  129MOL0     C17697  11.181  11.090   1.535 -0.0296 -0.4633  0.3687
  129MOL0     C17698  11.115  11.144   1.422 -0.1963  0.1473  0.1225
  129MOL0     C17699  11.187  11.220   1.326 -0.7089 -0.6608  1.4064
  129MOL0     O17700  11.138  11.252   1.200  0.2041  0.4671 -0.3326
  129MOL0     C17701  11.005  11.217   1.163  0.9458 -0.4417 -0.3033
  129MOL0     C17702  10.981  11.247   1.013 -0.3458  0.2652  0.6684
  129MOL0     C17703  10.854  11.182   0.968 -0.4902 -0.2844  0.8924
  129MOL0     C17704  10.828  11.195   0.812  0.7670 -0.0013 -0.1669
  129MOL0     C17705  10.676  11.164   0.786 -0.4121 -0.6258  1.2094
  129MOL0     C17706  10.647  11.195   0.644 -0.4316 -0.6815 -0.2354
  129MOL0     C17707  10.500  11.166   0.619 -0.2463 -1.4346  0.5325
  129MOL0     C17708  10.439  11.212   0.486 -0.1075  0.2393 -0.9651
  129MOL0    Cl17709  10.484  11.370   0.442 -0.6763  0.4331  0.0085
  129MOL0     C17710  11.323  11.239   1.349 -0.5681  0.9444  0.7651
  129MOL0     C17711  11.387  11.191   1.463  0.0640 -0.0767 -0.4953
  129MOL0     O17712  11.368  11.259   1.786 -0.4089 -0.4724 -0.0707
  129MOL0     C17713  11.457  10.957   1.922  0.4597  0.9998 -0.2190
  129MOL0     C17714  11.517  10.897   2.038 -0.2047 -0.1389  0.0505
  129MOL0     N17715  11.645  10.397   2.665 -0.8879 -0.2083 -1.0663
  129MOL0     N17716  11.604  10.276   2.680  0.2754  0.1327 -0.0618
  129MOL0     C17717  11.456   9.880   1.758 -0.3058  0.4050  0.0036
  129MOL0     C17718  11.366   9.951   1.677 -0.6239 -0.4874 -0.3848
  129MOL0     C17719  11.125  10.293   1.539  0.1385 -0.1655  0.0155
  129MOL0     C17720  11.167  10.358   1.431 -0.4451 -0.6685  0.4842
  129MOL0     C17721  11.091  10.450   1.364 -0.8967 -0.1491 -0.8895
  129MOL0     C17722  10.955  10.464   1.392  0.1470 -0.6805 -0.3015
  129MOL0     O17723  10.872  10.550   1.334 -0.2683 -0.4977 -0.3397
  129MOL0     C17724  10.930  10.639   1.232 -0.4753 -0.5729 -0.1773
  129MOL0     C17725  10.823  10.715   1.150 -0.2737 -0.1401 -1.2378
  129MOL0     C17726  10.727  10.617   1.097 -0.9187  0.5369  0.1440
  129MOL0     C17727  10.615  10.683   1.028 -0.2062  0.7710  0.2600
  129MOL0     C17728  10.550  10.580   0.943 -0.4082 -0.3228  0.2605
  129MOL0     C17729  10.505  10.484   0.885 -0.0332 -0.1409  0.4136
  129MOL0     C17730  10.912  10.398   1.506 -0.3309  0.2524 -0.3682
  129MOL0     C17731  10.990  10.316   1.579 -0.0851  0.0390 -0.1091
  129MOL0     C17732  10.932  10.243   1.700  0.1069 -0.0941 -0.3056
  129MOL0     H17733  11.152  10.049   1.922  0.2391  1.0427 -0.1956
  129MOL0     H17734  11.318   9.901   2.059  2.1564  0.0193  1.1051
  129MOL0     H17735  11.393   9.594   1.955 -2.1296  2.5909 -1.9404
  129MOL0     H17736  11.367   9.705   2.094  0.0017 -1.1155  0.9384
  129MOL0     H17737  11.501   9.493   2.141 -2.0809  1.4217 -1.4250
  129MOL0     H17738  11.634   9.558   2.039  3.1144 -1.1043  0.9482
  129MOL0     H17739  11.704   9.679   2.236  0.7507 -0.8000 -0.2240
  129MOL0     H17740  11.573   9.774   2.197 -2.2871 -0.9041 -0.4162
  129MOL0     H17741  11.439   9.637   2.368  0.4559 -0.1821 -0.0268
  129MOL0     H17742  11.593   9.552   2.391 -1.1585  0.0991 -0.3692
  129MOL0     H17743  11.692   9.803   2.438  0.2273  0.9348  1.2555
  129MOL0     H17744  11.586   9.738   2.561 -2.3255  1.9970  0.9443
  129MOL0     H17745  11.504   9.914   2.342  1.0803  1.5044 -0.1737
  129MOL0     H17746  11.413   9.883   2.499 -0.2541  2.2558 -1.5621
  129MOL0     H17747  11.654  10.058   2.433 -1.2598  1.2331  0.4932
  129MOL0     H17748  11.641   9.989   2.595 -0.9619 -0.3615  1.0740
  129MOL0     H17749  11.397  10.139   2.482  0.6483 -0.1618 -1.0725
  129MOL0     H17750  11.429  10.071   2.633 -2.8794  0.2943 -0.8463
  129MOL0     H17751  11.506  10.343   2.380  3.5933 -1.3358 -2.2956
  129MOL0     H17752  11.671  10.625   2.600  2.4609  0.1291 -0.2108
  129MOL0     H17753  11.553  10.640   2.467  0.2589 -0.2327  1.0648
  129MOL0     H17754  11.842  10.559   2.461  0.0058  0.0350  1.9698
  129MOL0     H17755  11.719  10.544   2.322 -0.5449  0.9548 -0.0453
  129MOL0     H17756  11.746  10.813   2.448  2.2226  3.3057 -1.3165
  129MOL0     H17757  11.868  10.767   2.338 -0.0079  0.4275  1.8706
  129MOL0     H17758  11.665  10.724   2.172 -1.0674  0.4973 -1.6875
  129MOL0     H17759  11.567  10.797   2.304  0.8408  1.4715  1.7400
  129MOL0     H17760  11.720  11.142   2.140 -1.2396 -1.3020  2.1402
  129MOL0     H17761  11.569  11.382   1.981  1.8417  1.0566  0.2265
  129MOL0     H17762  11.631  11.319   1.826  0.7013  0.8349 -0.4067
  129MOL0     H17763  11.729  11.307   1.972 -0.0561 -0.2224 -0.5177
  129MOL0     H17764  11.134  11.026   1.609  0.8001  0.7831  2.0526
  129MOL0     H17765  11.021  11.104   1.385  0.1795 -2.8488  2.0512
  129MOL0     H17766  10.990  11.110   1.177 -3.6974  0.0011 -0.3406
  129MOL0     H17767  10.930  11.266   1.226  0.5156  0.6548 -1.6205
  129MOL0     H17768  10.972  11.355   0.996 -1.7809 -0.1475 -1.5958
  129MOL0     H17769  11.069  11.201   0.968 -0.1911 -0.5119  1.7157
  129MOL0     H17770  10.776  11.241   1.017  0.0543  0.7831  0.5071
  129MOL0     H17771  10.849  11.081   1.010 -1.4464 -0.2872  0.8005
  129MOL0     H17772  10.897  11.130   0.757  1.1922 -0.4757  0.8849
  129MOL0     H17773  10.863  11.291   0.776 -0.0067  0.7931  1.1110
  129MOL0     H17774  10.651  11.060   0.808 -2.1462 -0.3623  0.5992
  129MOL0     H17775  10.612  11.234   0.841 -0.4989 -0.2468  0.6317
  129MOL0     H17776  10.711  11.131   0.582  1.1241  0.4685  0.1282
  129MOL0     H17777  10.667  11.299   0.617  0.2394 -1.2547 -2.1186
  129MOL0     H17778  10.439  11.207   0.701 -2.3091 -2.9350 -0.1500
  129MOL0     H17779  10.499  11.057   0.626  1.3135 -1.3893  2.0045
  129MOL0     H17780  10.330  11.212   0.480 -0.2100  0.4016  0.5870
  129MOL0     H17781  10.474  11.143   0.408  2.0253  0.0242  0.1146
  129MOL0     H17782  11.384  11.286   1.273 -1.1635 -1.6607 -1.4724
  129MOL0     H17783  11.487  11.227   1.485 -0.3702  0.9155 -0.0417
  129MOL0     H17784  11.396  10.898   1.856 -1.0773  1.1816  0.9869
  129MOL0     H17785  11.493  10.796   2.071 -1.3659  0.6685  1.7976
  129MOL0     H17786  11.543   9.838   1.709 -1.2332 -0.6960 -0.7724
  129MOL0     H17787  11.370   9.952   1.569  0.1648 -1.0195 -0.3688
  129MOL0     H17788  11.271  10.342   1.405 -0.1452 -0.2862  1.4086
  129MOL0     H17789  11.145  10.509   1.291 -0.8551 -0.2398 -0.9319
  129MOL0     H17790  10.986  10.714   1.289  0.0021 -1.0730  0.0147
  129MOL0     H17791  10.996  10.591   1.160  3.6258  0.8530  2.2980
  129MOL0     H17792  10.864  10.781   1.073  2.9738 -0.1315  0.3567
  129MOL0     H17793  10.762  10.780   1.213 -1.4699 -3.1256  0.8762
  129MOL0     H17794  10.784  10.552   1.029  0.7506  2.3170 -0.2391
  129MOL0     H17795  10.689  10.564   1.185 -1.8392  2.7661  1.1438
  129MOL0     H17796  10.662  10.767   0.976 -0.0505 -0.0451 -0.9644
  129MOL0     H17797  10.537  10.716   1.098  0.2757 -0.5253  1.4649
  129MOL0     H17798  10.477  10.405   0.819  1.1314 -0.6337  0.4950
  129MOL0     H17799  10.810  10.416   1.537 -0.0629  3.0915 -0.7852
  129MOL0     H17800  10.990  10.244   1.793  1.1256 -0.8468 -0.9130
  129MOL0     H17801  10.838  10.286   1.736 -0.0413 -1.0686  0.5266
  129MOL0     H17802  10.914  10.139   1.668 -0.5489  0.0214 -0.3152
  130MOL0     O17803   1.605   0.897   0.720  0.4690 -0.7732 -0.6181
  130MOL0     C17804   1.594   0.775   0.746  0.7681  0.3908 -0.0413
  130MOL0     O17805   1.640   0.666   0.673 -0.2890 -0.0391 -0.0150
  130MOL0     C17806   1.758   0.660   0.602 -0.4055  0.8954 -0.1301
  130MOL0     C17807   1.788   0.529   0.543  0.3238 -0.6391 -0.2616
  130MOL0     C17808   1.902   0.503   0.469 -0.4732  0.5848 -0.2819
  130MOL0     C17809   1.986   0.611   0.441  0.3666  0.1656 -0.6332
  130MOL0     O17810   2.106   0.599   0.369  0.1249 -0.2379 -0.1784
  130MOL0     C17811   2.154   0.465   0.332  0.6511  0.5425 -0.2261
  130MOL0     C17812   2.265   0.455   0.229 -0.3203 -0.1122 -0.4625
  130MOL0     C17813   2.328   0.322   0.185  0.7499 -0.2734 -1.0245
  130MOL0     C17814   2.453   0.347   0.100  0.1672  0.0582 -0.3745
  130MOL0     C17815   2.515   0.225   0.043 -0.0251  0.3163  0.1178
  130MOL0     C17816   2.656   0.256  -0.013  0.3952  0.7375  0.1326
  130MOL0     C17817   2.703   0.129  -0.107 -0.3966 -0.3886 -0.6039
  130MOL0     C17818   2.743   0.004  -0.019  0.9699  0.3237 -0.0600
  130MOL0     N17819   2.832   0.047   0.089 -0.2073  0.5087 -0.5239
  130MOL0     C17820   2.947   0.129   0.076  0.3760  0.8058 -0.3687
  130MOL0     C17821   2.974   0.158   0.204  0.0244  0.4796 -0.3393
  130MOL0     C17822   3.103   0.218   0.267  0.4156 -0.2558  1.2641
  130MOL0     C17823   3.190   0.109   0.336 -0.3077 -0.1364  0.3458
  130MOL0     C17824   3.323   0.163   0.385  0.0952  0.3066 -0.6952
  130MOL0     C17825   3.411   0.048   0.437 -1.0956 -0.0958  0.8641
  130MOL0     O17826   3.487  -0.004   0.322 -0.0848 -0.2493 -0.7374
  130MOL0     C17827   3.624  -0.004   0.325 -0.6867 -0.0558  0.5417
  130MOL0     C17828   3.690  -0.071   0.423 -0.1995 -0.1896  0.5099
  130MOL0     C17829   3.830  -0.071   0.437 -0.3577 -0.0271 -0.7307
  130MOL0     C17830   3.889  -0.145   0.560 -0.1756  0.2781 -0.0695
  130MOL0     C17831   3.915  -0.007   0.335  0.8391  1.1097 -0.3766
  130MOL0     C17832   4.056  -0.006   0.328 -0.5616 -0.0127  0.2846
  130MOL0     O17833   4.128  -0.025   0.439 -0.4966 -0.0712 -0.0285
  130MOL0     C17834   4.258  -0.052   0.431 -0.2851  0.8740 -0.3840
  130MOL0     C17835   4.292  -0.167   0.507 -0.3167 -0.6881  0.4686
  130MOL0     C17836   4.425  -0.203   0.507  0.2362 -0.7402 -0.0229
  130MOL0     C17837   4.526  -0.121   0.451 -0.6133  0.3632  0.3135
  130MOL0     O17838   4.654  -0.154   0.473 -0.9869  0.1460  0.6707
  130MOL0     C17839   4.726  -0.048   0.537  0.2680  0.4205  0.0371
  130MOL0     C17840   4.861  -0.085   0.589 -0.4866 -0.1400  0.5698
  130MOL0     C17841   4.964  -0.124   0.480  0.9853  0.5802  0.2127
  130MOL0     C17842   5.025  -0.008   0.403 -0.5032  0.3915 -0.9953
  130MOL0     C17843   5.153  -0.047   0.332 -0.1034 -0.7253  0.7601
  130MOL0     C17844   5.235   0.070   0.280 -1.0356  0.4740  0.8515
  130MOL0     C17845   5.369  -0.005   0.228  0.6084 -0.8823 -0.6372
  130MOL0     C17846   5.475   0.092   0.169  0.2656  0.6594  0.2688
  130MOL0    Cl17847   5.393   0.171   0.036  0.1756 -0.3505  0.0195
  130MOL0     C17848   4.489  -0.010   0.371 -0.4452 -0.2680 -0.2382
  130MOL0     C17849   4.351   0.022   0.370  0.5754 -0.8315  0.0090
  130MOL0     O17850   4.108   0.013   0.214 -0.4696 -0.4821  0.6997
  130MOL0     C17851   3.838   0.060   0.236 -0.2989 -0.5711 -0.6095
  130MOL0     C17852   3.700   0.069   0.228  0.0493  1.0965  0.3474
  130MOL0     N17853   2.880   0.098   0.291 -0.2284  0.0786  0.6518
  130MOL0     N17854   2.795   0.037   0.218  0.0346 -0.3509  0.2466
  130MOL0     C17855   1.958   0.734   0.488  0.4340 -0.3346  0.3787
  130MOL0     C17856   1.848   0.762   0.574 -0.9682 -0.2323 -0.5759
  130MOL0     C17857   1.520   0.755   0.868 -0.1866 -0.1455 -0.4282
  130MOL0     C17858   1.442   0.643   0.870 -0.6144  0.1948  0.5734
  130MOL0     C17859   1.347   0.615   0.973 -0.3376  0.9465  0.2240
  130MOL0     C17860   1.337   0.703   1.085  0.3176  0.0422  0.1091
  130MOL0     O17861   1.247   0.700   1.194 -0.1019  0.5328  0.3866
  130MOL0     C17862   1.159   0.585   1.202  0.4136 -0.2404 -0.7888
  130MOL0     C17863   1.063   0.582   1.321 -0.2742 -0.7929 -0.2406
  130MOL0     C17864   0.957   0.703   1.333 -0.5280  0.2477  0.8264
  130MOL0     C17865   0.867   0.695   1.459 -0.1268 -0.2410  0.5944
  130MOL0     C17866   0.769   0.588   1.440  0.9064 -0.9804 -0.4132
  130MOL0     C17867   0.695   0.503   1.427  0.3689 -0.0481 -0.1456
  130MOL0     C17868   1.421   0.815   1.087 -0.3795  0.0562  0.1998
  130MOL0     C17869   1.511   0.847   0.985 -0.5084  0.5633 -1.4017
  130MOL0     C17870   1.614   0.960   1.006 -0.3694 -0.9715  0.0116
  130MOL0     H17871   1.717   0.449   0.564 -1.7641  1.3184  0.4856
  130MOL0     H17872   1.912   0.402   0.431  0.5786  0.4887  0.2289
  130MOL0     H17873   2.073   0.417   0.277  0.6783  1.4799 -1.1030
  130MOL0     H17874   2.201   0.419   0.420  0.0268  1.8665  0.8389
  130MOL0     H17875   2.236   0.513   0.140  1.0246 -0.8676 -1.4218
  130MOL0     H17876   2.344   0.517   0.273 -0.9384 -0.1153  0.7013
  130MOL0     H17877   2.355   0.265   0.274  1.3445  0.6972 -0.5630
  130MOL0     H17878   2.256   0.268   0.123  2.1215 -0.9768 -2.0741
  130MOL0     H17879   2.419   0.418   0.024 -0.4810  0.7064  0.5011
  130MOL0     H17880   2.527   0.394   0.165  0.9939 -1.7349  0.0365
  130MOL0     H17881   2.446   0.191  -0.035  0.4808  1.9266 -1.0894
  130MOL0     H17882   2.526   0.146   0.117  1.8870  0.8133  0.4312
  130MOL0     H17883   2.648   0.351  -0.068 -0.3325  1.3216  1.2164
  130MOL0     H17884   2.734   0.273   0.061  0.5913  1.0220 -0.1356
  130MOL0     H17885   2.790   0.165  -0.162  0.1326 -0.1657  0.3511
  130MOL0     H17886   2.628   0.097  -0.180  1.8044 -1.1325 -2.6673
  130MOL0     H17887   2.659  -0.044   0.033  1.9142 -0.8382  0.4610
  130MOL0     H17888   2.783  -0.075  -0.084 -2.1648 -3.1463  1.8358
  130MOL0     H17889   2.999   0.136  -0.020 -1.1005 -0.0566 -1.2745
  130MOL0     H17890   3.077   0.299   0.337 -0.1219 -0.5196  1.3758
  130MOL0     H17891   3.157   0.264   0.184 -1.0815 -1.1994 -0.2927
  130MOL0     H17892   3.128   0.060   0.412  1.7859 -0.4098  1.9834
  130MOL0     H17893   3.214   0.035   0.259 -1.2578 -0.4682  0.3498
  130MOL0     H17894   3.374   0.228   0.312  0.7207 -1.3918 -1.8208
  130MOL0     H17895   3.292   0.218   0.474  3.5720 -1.3955  1.7550
  130MOL0     H17896   3.485   0.097   0.501 -0.4616  1.3030 -0.8391
  130MOL0     H17897   3.340  -0.021   0.483 -0.7875  0.0272  1.5290
  130MOL0     H17898   3.618  -0.125   0.485 -0.6852  0.8430  0.8689
  130MOL0     H17899   3.935  -0.071   0.626 -0.1436  0.8150 -0.6759
  130MOL0     H17900   3.974  -0.208   0.532  2.5712  2.1833  3.2674
  130MOL0     H17901   3.816  -0.209   0.611  1.8309 -1.1003  1.2301
  130MOL0     H17902   4.208  -0.211   0.559 -0.9195  1.3396  1.2882
  130MOL0     H17903   4.464  -0.281   0.571  1.5090 -1.3597 -1.4754
  130MOL0     H17904   4.733   0.042   0.476  0.2769  0.6858  0.4302
  130MOL0     H17905   4.666  -0.015   0.623 -2.9165 -1.9810 -1.0561
  130MOL0     H17906   4.891   0.000   0.651 -2.0104  0.0529  1.0977
  130MOL0     H17907   4.854  -0.169   0.658 -3.2135 -0.3112  0.1984
  130MOL0     H17908   4.914  -0.198   0.417  1.1038  1.4687 -0.9571
  130MOL0     H17909   5.050  -0.175   0.524  1.7963 -0.2646 -2.2276
  130MOL0     H17910   5.053   0.068   0.477  2.5305 -0.7354 -0.8280
  130MOL0     H17911   4.953   0.030   0.331 -0.6316 -0.6011 -1.4110
  130MOL0     H17912   5.221  -0.107   0.393  1.2377 -0.9511 -0.8797
  130MOL0     H17913   5.121  -0.107   0.246 -0.1851  0.6577 -0.1985
  130MOL0     H17914   5.243   0.151   0.353  1.7811 -0.1260  1.3410
  130MOL0     H17915   5.178   0.110   0.195 -1.9016 -0.8340  0.7885
  130MOL0     H17916   5.341  -0.084   0.159  0.6345 -2.6514  1.2814
  130MOL0     H17917   5.418  -0.045   0.317 -1.0247  0.0833  0.7568
  130MOL0     H17918   5.567   0.039   0.146 -1.4620 -2.6284  0.2869
  130MOL0     H17919   5.499   0.169   0.243  1.5041  0.2993  0.2623
  130MOL0     H17920   4.561   0.049   0.315 -1.3586 -0.7825 -2.0365
  130MOL0     H17921   4.316   0.114   0.326  0.3695 -0.0075  1.7886
  130MOL0     H17922   3.878   0.132   0.165  1.3505 -0.0338  0.7858
  130MOL0     H17923   3.655   0.116   0.141  1.6536  0.3127 -0.9606
  130MOL0     H17924   2.025   0.816   0.463 -1.8172  0.9954 -1.8140
  130MOL0     H17925   1.831   0.862   0.614  2.8958  0.3844 -0.1161
  130MOL0     H17926   1.448   0.582   0.781 -1.4439 -1.1203  1.3815
  130MOL0     H17927   1.288   0.525   0.955  1.9423 -0.8784  1.3787
  130MOL0     H17928   1.085   0.581   1.121  0.9351  1.0827 -1.3497
  130MOL0     H17929   1.219   0.494   1.194 -3.7243 -3.3688 -0.2499
  130MOL0     H17930   1.125   0.577   1.411  1.9755 -2.2176 -1.7611
  130MOL0     H17931   1.012   0.485   1.322  2.2155 -2.3656 -3.6129
  130MOL0     H17932   1.006   0.801   1.337  1.5739 -0.7791  2.6735
  130MOL0     H17933   0.895   0.692   1.244  3.0158 -1.1938 -1.6863
  130MOL0     H17934   0.813   0.789   1.473 -1.5751 -0.6269 -1.8312
  130MOL0     H17935   0.921   0.670   1.551 -0.6840 -0.6056  0.8266
  130MOL0     H17936   0.638   0.412   1.425  2.0374 -1.3007  2.4830
  130MOL0     H17937   1.413   0.862   1.185 -2.2958 -1.7663  0.9783
  130MOL0     H17938   1.621   0.983   1.113  0.4031 -1.6133  0.1014
  130MOL0     H17939   1.716   0.933   0.977 -0.9751 -0.9383 -2.2744
  130MOL0     H17940   1.585   1.050   0.951  0.6223 -0.3496  0.4713
  131MOL0     O17941   8.576   4.858   4.619 -0.3614  0.3230  0.5609
  131MOL0     C17942   8.476   4.914   4.584  0.2339  0.5386 -0.1949
  131MOL0     O17943   8.456   5.042   4.605  1.3003 -0.0410 -0.0446
  131MOL0     C17944   8.545   5.126   4.668 -0.0581 -0.7592 -0.7187
  131MOL0     C17945   8.658   5.154   4.603 -0.2226 -1.3987  0.4846
  131MOL0     C17946   8.755   5.244   4.654  0.1094  0.2473 -0.1403
  131MOL0     C17947   8.731   5.303   4.778  0.1587  0.5767 -0.3690
  131MOL0     O17948   8.825   5.370   4.855 -0.3222  0.3569 -0.0856
  131MOL0     C17949   8.944   5.430   4.805  0.3987 -0.5928  0.2980
  131MOL0     C17950   8.933   5.566   4.885  0.4115  0.4478 -0.2988
  131MOL0     C17951   8.992   5.540   5.025 -0.3626  0.3442 -0.1333
  131MOL0     C17952   9.064   5.668   5.079  0.6163  0.1097  0.0860
  131MOL0     C17953   9.137   5.652   5.218  0.3800  0.7121  0.4702
  131MOL0     C17954   9.257   5.752   5.237 -0.0298 -0.0323  0.8446
  131MOL0     C17955   9.379   5.716   5.150  0.1808 -0.6047  0.3362
  131MOL0     C17956   9.447   5.847   5.109  0.4539 -0.5303 -1.1444
  131MOL0     N17957   9.583   5.825   5.063  0.0158 -0.1429 -0.3538
  131MOL0     C17958   9.698   5.836   5.141  0.5441  0.0711  0.5343
  131MOL0     C17959   9.795   5.844   5.050 -0.5002 -0.3333  0.7260
  131MOL0     C17960   9.948   5.859   5.073 -0.5566 -0.2006  0.0501
  131MOL0     C17961  10.023   5.724   5.072 -0.3383  0.6571 -0.2661
  131MOL0     C17962  10.157   5.728   5.147 -0.4770  0.4595  0.0404
  131MOL0     C17963  10.260   5.839   5.127 -0.2539 -0.4209 -0.6159
  131MOL0     O17964  10.382   5.782   5.177 -0.2207 -0.3660 -0.9708
  131MOL0     C17965  10.501   5.800   5.113 -0.6023 -0.3658 -0.1389
  131MOL0     C17966  10.537   5.923   5.038 -0.1333  1.4456  0.4426
  131MOL0     C17967  10.665   5.929   4.982 -0.8402 -0.3141  0.0534
  131MOL0     C17968  10.723   6.057   4.923  0.8615  0.6088 -1.0054
  131MOL0     C17969  10.755   5.819   5.004 -0.1472 -0.7735  0.0430
  131MOL0     C17970  10.891   5.837   4.962 -0.2118  0.0354  0.2858
  131MOL0     O17971  11.001   5.859   5.050  0.7943 -0.2855 -0.2198
  131MOL0     C17972  11.127   5.876   4.994 -0.8587 -0.5011 -0.3515
  131MOL0     C17973  11.196   5.998   4.983  0.6305  1.1738 -0.5111
  131MOL0     C17974  11.338   6.009   4.965 -0.3334  0.0948 -1.0134
  131MOL0     C17975  11.413   5.894   4.950  0.9615  0.7062  0.3889
  131MOL0     O17976  11.546   5.899   4.926  1.0330  0.1984  0.1631
  131MOL0     C17977  11.613   6.015   4.971  0.7079 -0.3320 -0.1029
  131MOL0     C17978  11.756   5.965   4.997  0.4874  0.1768  0.1081
  131MOL0     C17979  11.768   5.863   5.106  0.4419  0.2239 -0.7575
  131MOL0     C17980  11.753   5.720   5.053 -0.2833  0.1228  0.6356
  131MOL0     C17981  11.784   5.624   5.168  0.6573 -0.1243  0.0313
  131MOL0     C17982  11.650   5.549   5.209 -0.6985  0.4658  0.6004
  131MOL0     C17983  11.657   5.486   5.349  0.2069  0.2636  0.2811
  131MOL0     C17984  11.754   5.373   5.366 -0.2527  0.1298 -0.4464
  131MOL0    Cl17985  11.791   5.355   5.541 -0.1839  0.1514 -0.2029
  131MOL0     C17986  11.349   5.770   4.959 -0.1892  0.3218 -0.3792
  131MOL0     C17987  11.207   5.763   4.979 -0.6052 -0.6991  0.3005
  131MOL0     O17988  10.907   5.827   4.840  0.7380  0.7309  0.1813
  131MOL0     C17989  10.717   5.702   5.064  0.2706  0.4623  0.0354
  131MOL0     C17990  10.585   5.689   5.120 -0.5146 -0.2715 -0.8897
  131MOL0     N17991   9.747   5.846   4.921 -0.7553  0.2543  0.1882
  131MOL0     N17992   9.624   5.834   4.936 -0.0393  0.3326  0.2910
  131MOL0     C17993   8.602   5.286   4.834  0.2784 -0.3966  0.8204
  131MOL0     C17994   8.514   5.189   4.780 -0.4455 -1.6240 -0.1764
  131MOL0     C17995   8.358   4.842   4.525 -0.0485  0.0285  0.1204
  131MOL0     C17996   8.251   4.914   4.480  0.3186 -0.8804  0.8269
  131MOL0     C17997   8.140   4.842   4.434 -0.1628 -0.2526  0.6352
  131MOL0     C17998   8.126   4.706   4.427 -0.1127  0.5246 -0.6311
  131MOL0     O17999   8.025   4.649   4.349  0.1162 -0.6619 -0.3866
  131MOL0     C18000   8.010   4.503   4.338 -0.2265 -0.3613 -0.3596
  131MOL0     C18001   8.113   4.448   4.241  0.4789 -0.3236 -0.7302
  131MOL0     C18002   8.189   4.330   4.315  0.1044  0.3873 -0.1497
  131MOL0     C18003   8.303   4.279   4.221  0.5669  0.5034 -0.9561
  131MOL0     C18004   8.411   4.378   4.207 -0.0540  0.4937 -0.9532
  131MOL0     C18005   8.502   4.459   4.207  0.3545  0.1650 -0.0433
  131MOL0     C18006   8.233   4.634   4.481 -0.1474  0.7318 -0.7822
  131MOL0     C18007   8.353   4.695   4.517 -0.1809  0.0558 -0.3972
  131MOL0     C18008   8.461   4.611   4.571  0.3088  0.0409 -0.0914
  131MOL0     H18009   8.673   5.112   4.504  4.5277  2.6601 -0.9274
  131MOL0     H18010   8.850   5.260   4.605  0.3500 -0.0012  0.2402
  131MOL0     H18011   8.921   5.453   4.701  0.6229  0.4095  0.4570
  131MOL0     H18012   9.035   5.369   4.809  0.2398 -1.0125 -1.7071
  131MOL0     H18013   8.993   5.632   4.822  2.6232 -1.2089 -0.0748
  131MOL0     H18014   8.837   5.615   4.901  0.7771  0.5426  1.8759
  131MOL0     H18015   8.920   5.506   5.100 -0.0595  1.0122  0.4707
  131MOL0     H18016   9.068   5.462   5.012 -0.3358  0.2730  0.4373
  131MOL0     H18017   9.136   5.700   5.003  1.6579 -0.0060  0.9950
  131MOL0     H18018   8.997   5.753   5.097  1.0435  0.4077  0.2905
  131MOL0     H18019   9.175   5.549   5.219 -0.2214  0.3548 -2.8875
  131MOL0     H18020   9.067   5.668   5.301 -0.0560 -0.3772  0.3413
  131MOL0     H18021   9.213   5.852   5.224 -1.4831 -0.4787  2.0225
  131MOL0     H18022   9.296   5.743   5.338  0.5757  0.7224  0.6890
  131MOL0     H18023   9.349   5.661   5.061  0.1947 -1.8253  1.0684
  131MOL0     H18024   9.435   5.646   5.213 -0.1606  0.4766  1.8933
  131MOL0     H18025   9.380   5.894   5.037 -1.1747 -0.6087  0.2625
  131MOL0     H18026   9.457   5.922   5.188  3.7124 -1.9945  0.0189
  131MOL0     H18027   9.701   5.837   5.250  0.2703 -1.2353  0.5655
  131MOL0     H18028   9.977   5.911   5.165 -0.4600 -1.5701  0.8248
  131MOL0     H18029   9.996   5.920   4.996  1.4273 -2.5892 -0.7355
  131MOL0     H18030   9.962   5.655   5.130 -0.7950  2.9790  2.1963
  131MOL0     H18031  10.040   5.709   4.965 -0.4157  2.1080 -0.5093
  131MOL0     H18032  10.135   5.723   5.254  1.1817  1.6141  0.4668
  131MOL0     H18033  10.205   5.630   5.143  2.4860  1.7844  0.8657
  131MOL0     H18034  10.274   5.860   5.020  1.1932  1.7108 -0.0775
  131MOL0     H18035  10.234   5.935   5.173 -3.9887 -0.7613 -1.6705
  131MOL0     H18036  10.477   6.011   5.058  0.5389  2.0064  0.0179
  131MOL0     H18037  10.790   6.100   4.998 -0.0446 -1.3382  1.0466
  131MOL0     H18038  10.647   6.132   4.904 -1.9561 -1.1208  2.1978
  131MOL0     H18039  10.773   6.037   4.828 -0.1120 -0.6148 -1.2885
  131MOL0     H18040  11.143   6.089   5.011  0.7686  1.4265 -1.0427
  131MOL0     H18041  11.383   6.107   4.976 -2.1108  0.7921  0.4899
  131MOL0     H18042  11.602   6.100   4.904  1.8337 -2.2289 -2.8864
  131MOL0     H18043  11.580   6.050   5.069  1.0242  2.5951 -0.9713
  131MOL0     H18044  11.789   5.926   4.901  1.2546 -0.4130  0.5990
  131MOL0     H18045  11.811   6.057   5.021 -2.9992  2.1751  1.0206
  131MOL0     H18046  11.692   5.877   5.184  2.1334  1.2822  0.7995
  131MOL0     H18047  11.865   5.873   5.157 -0.7713 -2.4129  2.4172
  131MOL0     H18048  11.816   5.701   4.965 -2.1863 -2.3009 -0.3105
  131MOL0     H18049  11.648   5.705   5.027 -0.0508 -2.0449  0.7253
  131MOL0     H18050  11.856   5.544   5.148 -1.0966 -2.2103  1.5403
  131MOL0     H18051  11.813   5.667   5.264 -1.6347 -3.1615  2.2828
  131MOL0     H18052  11.638   5.474   5.130 -1.3616  1.8378 -0.6507
  131MOL0     H18053  11.565   5.617   5.202 -1.1997 -0.2838 -1.3276
  131MOL0     H18054  11.560   5.440   5.368  0.2455  0.4460  0.9399
  131MOL0     H18055  11.683   5.549   5.434 -2.0634 -1.7304  2.6084
  131MOL0     H18056  11.848   5.389   5.313  0.0078 -0.2361 -0.0943
  131MOL0     H18057  11.715   5.280   5.325 -1.0979  0.6747 -0.9277
  131MOL0     H18058  11.405   5.678   4.949 -1.7826 -0.5298 -2.1470
  131MOL0     H18059  11.151   5.669   4.980  1.0724 -1.7382  0.9176
  131MOL0     H18060  10.783   5.617   5.073  0.4913  0.5511 -0.6590
  131MOL0     H18061  10.567   5.598   5.175 -0.6355 -0.9701 -2.0410
  131MOL0     H18062   8.581   5.350   4.919 -1.5657  3.5887 -2.2624
  131MOL0     H18063   8.420   5.170   4.830  0.6492 -1.1027  2.2315
  131MOL0     H18064   8.243   5.022   4.493 -0.4573 -1.0584  2.0447
  131MOL0     H18065   8.061   4.901   4.387  0.9374 -0.9876 -2.3568
  131MOL0     H18066   8.016   4.454   4.436 -0.4318  0.1413 -0.0913
  131MOL0     H18067   7.916   4.474   4.291  1.0690 -1.8247 -2.1866
  131MOL0     H18068   8.178   4.531   4.213  0.7072 -0.3821 -0.3757
  131MOL0     H18069   8.058   4.405   4.157  1.6446 -1.8174 -0.7837
  131MOL0     H18070   8.234   4.337   4.414 -1.1452 -0.0589  0.4669
  131MOL0     H18071   8.120   4.248   4.333 -1.6215  1.8371  0.1470
  131MOL0     H18072   8.264   4.257   4.121 -0.3966 -1.5907 -0.1710
  131MOL0     H18073   8.341   4.186   4.262 -2.1418 -0.4452 -0.4319
  131MOL0     H18074   8.575   4.536   4.223  2.7087 -1.8797 -0.4281
  131MOL0     H18075   8.222   4.527   4.497 -1.1432  1.1081  1.4784
  131MOL0     H18076   8.439   4.504   4.575  2.3153 -0.3820  3.3526
  131MOL0     H18077   8.555   4.620   4.516 -0.4926  1.0030 -1.3529
  131MOL0     H18078   8.469   4.637   4.677 -1.8468  0.2458  0.0778
  132MOL0     O18079   2.422   0.884   1.041  0.3330  0.3057 -0.1300
  132MOL0     C18080   2.362   0.828   0.953  0.5447  0.5178  1.0805
  132MOL0     O18081   2.386   0.848   0.823  0.1794  0.5450  0.7076
  132MOL0     C18082   2.511   0.901   0.776  0.0510 -0.0227  0.4880
  132MOL0     C18083   2.518   0.930   0.634 -0.1880 -0.0343  0.3363
  132MOL0     C18084   2.635   0.972   0.568  0.1122  0.4666 -0.4674
  132MOL0     C18085   2.753   0.983   0.641 -0.2421  0.6327  0.6605
  132MOL0     O18086   2.870   1.020   0.581  1.0323  0.0873 -0.1032
  132MOL0     C18087   2.892   1.017   0.434  0.1570  0.8179 -0.5254
  132MOL0     C18088   3.035   1.047   0.388  0.4639 -0.3696  0.4008
  132MOL0     C18089   3.060   1.001   0.247  0.6991  0.7319  0.0826
  132MOL0     C18090   3.204   0.954   0.214 -0.8331  0.9754  0.2326
  132MOL0     C18091   3.305   1.066   0.211  0.7730 -1.1811  0.3341
  132MOL0     C18092   3.447   1.033   0.262  0.1930  0.2651  0.8039
  132MOL0     C18093   3.456   1.042   0.420 -0.1190 -0.5861 -0.6186
  132MOL0     C18094   3.461   1.186   0.483  1.2318 -0.6476 -0.1645
  132MOL0     N18095   3.599   1.237   0.487 -0.3903  0.7176 -0.2981
  132MOL0     C18096   3.704   1.189   0.560 -0.2921 -0.1668 -0.2082
  132MOL0     C18097   3.809   1.267   0.528 -0.0112 -0.5633 -0.5554
  132MOL0     C18098   3.943   1.263   0.593 -0.2596  1.1351  0.4253
  132MOL0     C18099   4.045   1.366   0.540  0.2069 -0.3335  0.2875
  132MOL0     C18100   4.184   1.333   0.593  1.2727  0.8975 -0.3831
  132MOL0     C18101   4.287   1.419   0.523  0.3045 -0.0813  0.1427
  132MOL0     O18102   4.421   1.376   0.539 -1.0672  0.7559 -0.6453
  132MOL0     C18103   4.516   1.453   0.478  0.8454  0.1733 -0.1948
  132MOL0     C18104   4.497   1.573   0.410 -0.7222  0.7382 -0.6628
  132MOL0     C18105   4.596   1.649   0.354  0.2977  0.6168 -0.7608
  132MOL0     C18106   4.560   1.761   0.274 -0.1772 -0.2023 -0.3878
  132MOL0     C18107   4.730   1.598   0.359  1.1000  0.2398 -0.6143
  132MOL0     C18108   4.846   1.666   0.309 -0.4948 -0.3196 -0.1239
  132MOL0     O18109   4.861   1.798   0.354  0.1502  0.1978  0.4380
  132MOL0     C18110   4.989   1.849   0.353  0.6955  0.2898 -0.0883
  132MOL0     C18111   5.052   1.876   0.473 -0.8171 -0.3248 -0.0941
  132MOL0     C18112   5.185   1.915   0.472  0.2448  0.5275 -0.1658
  132MOL0     C18113   5.253   1.917   0.354 -0.2269  0.1584  0.7278
  132MOL0     O18114   5.380   1.979   0.355  0.2894  0.6138  0.4714
  132MOL0     C18115   5.484   1.909   0.281  0.1554 -0.0603 -0.5176
  132MOL0     C18116   5.539   1.996   0.170 -0.6122 -0.8228  0.4218
  132MOL0     C18117   5.618   2.121   0.216 -0.1339 -0.0171 -0.5760
  132MOL0     C18118   5.749   2.063   0.274 -0.5875  0.1400  0.2641
  132MOL0     C18119   5.865   2.166   0.279  0.1793 -0.5128  0.0945
  132MOL0     C18120   5.837   2.285   0.370 -0.4379  0.1597 -0.1637
  132MOL0     C18121   5.967   2.366   0.381  0.3550  0.0971  0.0968
  132MOL0     C18122   5.954   2.462   0.498 -0.3766  0.2805 -0.4273
  132MOL0    Cl18123   6.134   2.519   0.544  0.3281  0.5595 -0.0797
  132MOL0     C18124   5.185   1.904   0.233 -0.4511  0.7740 -0.6039
  132MOL0     C18125   5.054   1.861   0.230  0.6371 -0.0884 -1.3328
  132MOL0     O18126   4.923   1.597   0.237  0.1040 -0.7560  0.3391
  132MOL0     C18127   4.757   1.476   0.424 -1.3285  0.1935  1.1150
  132MOL0     C18128   4.649   1.406   0.485 -1.0961  0.0905 -0.2442
  132MOL0     N18129   3.765   1.358   0.431 -0.1767  0.2575 -0.1384
  132MOL0     N18130   3.634   1.337   0.401  0.2950  0.4184  0.2465
  132MOL0     C18131   2.756   0.956   0.778 -0.5522  0.5263  0.4436
  132MOL0     C18132   2.638   0.919   0.846  0.0822  0.0424 -0.2177
  132MOL0     C18133   2.228   0.759   0.987 -0.3741  0.5088 -0.1807
  132MOL0     C18134   2.129   0.755   0.881 -1.0256  0.5111  0.8588
  132MOL0     C18135   2.014   0.682   0.897 -1.0324  0.2538  0.0897
  132MOL0     C18136   1.998   0.614   1.014  0.4325 -0.0927 -0.1988
  132MOL0     O18137   1.890   0.531   1.034 -0.2608  0.8618  0.0237
  132MOL0     C18138   1.765   0.555   0.976  0.2560  0.1600 -0.0549
  132MOL0     C18139   1.671   0.466   1.048 -0.0921  0.2282  0.4935
  132MOL0     C18140   1.623   0.500   1.196 -0.4511 -0.8921 -0.4612
  132MOL0     C18141   1.507   0.419   1.247  0.1669  0.2006  0.5954
  132MOL0     C18142   1.546   0.300   1.320 -0.7270 -0.0534  0.3450
  132MOL0     C18143   1.564   0.218   1.408  0.8570 -0.4017  0.5703
  132MOL0     C18144   2.093   0.628   1.126  0.3699 -0.3724  0.1569
  132MOL0     C18145   2.205   0.700   1.110 -0.1173  0.2583 -1.1739
  132MOL0     C18146   2.300   0.707   1.226  0.8257  0.5123 -1.0376
  132MOL0     H18147   2.433   0.905   0.571  0.4557  0.6021 -0.8288
  132MOL0     H18148   2.635   0.982   0.460 -2.9191  1.3156 -0.4794
  132MOL0     H18149   2.824   1.091   0.390 -0.9479  0.6083  0.7939
  132MOL0     H18150   2.860   0.918   0.401 -1.0603  1.3438 -1.0003
  132MOL0     H18151   3.050   1.155   0.385 -0.2596 -0.2681  0.2116
  132MOL0     H18152   3.093   0.997   0.465 -4.5231 -3.2009  2.8393
  132MOL0     H18153   2.994   0.921   0.211 -0.4915  0.7288  2.1024
  132MOL0     H18154   3.028   1.082   0.182 -3.8020 -2.4136 -2.1757
  132MOL0     H18155   3.225   0.887   0.298  0.0897  1.1153  0.1196
  132MOL0     H18156   3.214   0.905   0.117  0.9289  2.4362 -0.3853
  132MOL0     H18157   3.274   1.146   0.279  0.2886 -0.6164 -0.5303
  132MOL0     H18158   3.305   1.098   0.106 -2.5035 -1.9053 -0.0168
  132MOL0     H18159   3.472   0.937   0.215 -1.4581  0.8860 -1.5530
  132MOL0     H18160   3.521   1.100   0.220  0.4721  0.3149  1.3662
  132MOL0     H18161   3.550   0.995   0.449 -0.8021 -0.6502  1.7060
  132MOL0     H18162   3.373   0.984   0.460 -1.8478  1.6740 -0.7116
  132MOL0     H18163   3.405   1.262   0.427  1.5207  0.3294  0.8363
  132MOL0     H18164   3.425   1.169   0.584  3.0181 -0.3435  0.5632
  132MOL0     H18165   3.700   1.101   0.624  0.8459  0.1686  0.3388
  132MOL0     H18166   3.973   1.159   0.582 -1.8655  0.5390  1.4096
  132MOL0     H18167   3.932   1.275   0.701 -3.3997  3.3611  0.0019
  132MOL0     H18168   4.045   1.361   0.431  1.4429  1.2092  0.1834
  132MOL0     H18169   4.014   1.468   0.564  0.8833 -0.0578  0.0212
  132MOL0     H18170   4.189   1.340   0.702 -1.6320 -2.7561  0.1821
  132MOL0     H18171   4.201   1.226   0.578  1.0569  0.9974 -1.3531
  132MOL0     H18172   4.273   1.412   0.415  0.1579 -1.1565  0.2176
  132MOL0     H18173   4.276   1.521   0.563  2.4671  0.1947  0.1789
  132MOL0     H18174   4.397   1.606   0.386 -1.6286 -1.1441  0.3054
  132MOL0     H18175   4.479   1.812   0.327  0.3793 -0.3720  0.6678
  132MOL0     H18176   4.551   1.728   0.170  3.2047 -3.0034  0.0318
  132MOL0     H18177   4.638   1.838   0.277 -3.4019  3.3508  1.9036
  132MOL0     H18178   4.998   1.861   0.567 -0.7353  2.1131  0.3896
  132MOL0     H18179   5.231   1.929   0.569 -3.2596 -1.5464  2.0365
  132MOL0     H18180   5.556   1.883   0.358 -0.0293  1.7663  0.3311
  132MOL0     H18181   5.446   1.819   0.232  0.6721 -1.4060  1.4495
  132MOL0     H18182   5.608   1.942   0.104 -2.8485 -1.8132 -1.2512
  132MOL0     H18183   5.466   2.027   0.095  0.4959 -0.1316 -0.4146
  132MOL0     H18184   5.560   2.183   0.284  1.5609  2.1660 -0.9986
  132MOL0     H18185   5.637   2.177   0.124  3.8450 -0.1622 -0.0069
  132MOL0     H18186   5.790   1.990   0.204 -3.9644  0.3043 -2.1383
  132MOL0     H18187   5.744   1.999   0.362  0.7734 -2.5958 -1.5145
  132MOL0     H18188   5.953   2.114   0.318  0.1416  1.3548  2.9510
  132MOL0     H18189   5.897   2.203   0.181  0.3367  0.1417  0.3891
  132MOL0     H18190   5.815   2.241   0.468  1.2755  0.0644  0.2060
  132MOL0     H18191   5.752   2.337   0.325 -0.4121 -2.1496 -3.2178
  132MOL0     H18192   5.989   2.432   0.296 -1.9257 -0.1670 -0.7471
  132MOL0     H18193   6.049   2.298   0.406  1.3430  1.0830 -0.3522
  132MOL0     H18194   5.907   2.419   0.586  0.7386 -0.2083 -0.0535
  132MOL0     H18195   5.897   2.553   0.475 -1.9055 -1.1818 -2.8061
  132MOL0     H18196   5.252   1.916   0.149  0.1823  0.5394 -0.1373
  132MOL0     H18197   5.002   1.834   0.138 -2.4891 -0.5627  0.4102
  132MOL0     H18198   4.858   1.436   0.421 -1.0216  0.9883 -0.4533
  132MOL0     H18199   4.667   1.319   0.546 -1.3617 -1.0755 -1.7734
  132MOL0     H18200   2.856   0.955   0.819 -0.6479 -1.4525  0.7636
  132MOL0     H18201   2.654   0.885   0.948 -1.4803 -1.1310 -0.3429
  132MOL0     H18202   2.140   0.807   0.786 -0.9773  0.0911  0.6309
  132MOL0     H18203   1.937   0.656   0.825 -1.6054  0.9133  0.4548
  132MOL0     H18204   1.727   0.656   0.996  0.3614  0.6335 -2.0487
  132MOL0     H18205   1.754   0.529   0.870 -0.4287  0.2438 -0.0073
  132MOL0     H18206   1.712   0.365   1.045 -2.3799 -0.7536 -2.3878
  132MOL0     H18207   1.584   0.452   0.984  1.5330 -0.8405 -1.6097
  132MOL0     H18208   1.703   0.474   1.267  0.9927  0.2721 -1.6045
  132MOL0     H18209   1.604   0.607   1.192  1.5959 -0.4769 -0.2126
  132MOL0     H18210   1.440   0.393   1.164 -0.4075 -0.3891  1.2309
  132MOL0     H18211   1.453   0.479   1.320  0.9476  2.6269 -0.7259
  132MOL0     H18212   1.580   0.138   1.477  2.2123  1.9570  3.1732
  132MOL0     H18213   2.074   0.572   1.217  0.2093  0.2873  0.5445
  132MOL0     H18214   2.402   0.705   1.188  0.3227 -0.1955 -2.4367
  132MOL0     H18215   2.274   0.793   1.288 -0.3417 -0.4401 -0.1357
  132MOL0     H18216   2.268   0.631   1.298 -1.4485  0.9296 -1.5121
  133MOL0     O18217   4.198   7.301   0.758 -0.0396 -0.2834  0.2756
  133MOL0     C18218   4.217   7.197   0.697 -0.0637 -0.1392 -0.3588
  133MOL0     O18219   4.270   7.195   0.567  0.9737  0.2306 -1.1895
  133MOL0     C18220   4.300   7.312   0.508  0.7715  0.0294  0.0843
  133MOL0     C18221   4.212   7.409   0.464 -0.0629  0.4061  0.6016
  133MOL0     C18222   4.248   7.532   0.406 -0.5495  0.4011  0.6494
  133MOL0     C18223   4.383   7.573   0.406 -0.2728  0.5172  0.8445
  133MOL0     O18224   4.429   7.674   0.327 -0.2212 -0.1768 -0.5367
  133MOL0     C18225   4.357   7.792   0.298 -0.3386 -0.0347 -0.5260
  133MOL0     C18226   4.437   7.860   0.189 -1.2192 -0.3454 -0.6126
  133MOL0     C18227   4.382   7.994   0.150  0.7161  0.9857 -0.1983
  133MOL0     C18228   4.477   8.072   0.062  0.6993  0.1179 -0.1733
  133MOL0     C18229   4.444   8.221   0.058  0.4149 -0.3268  0.4182
  133MOL0     C18230   4.526   8.294  -0.051 -0.5200  0.8859 -0.5194
  133MOL0     C18231   4.494   8.444  -0.060 -1.1473  0.6772 -0.0323
  133MOL0     C18232   4.610   8.517  -0.136 -0.0160 -0.3401  0.9601
  133MOL0     N18233   4.575   8.660  -0.155  0.0686  0.5302  0.3466
  133MOL0     C18234   4.620   8.765  -0.071 -0.8072 -0.1428  0.0939
  133MOL0     C18235   4.552   8.877  -0.103  0.2327  0.9189 -0.1497
  133MOL0     C18236   4.565   9.023  -0.050  0.4902 -0.1521  0.2446
  133MOL0     C18237   4.528   9.036   0.094  0.6874 -1.0381  0.4817
  133MOL0     C18238   4.513   9.184   0.151  0.2896  0.0152  0.7652
  133MOL0     C18239   4.636   9.266   0.142 -0.2494 -0.9104 -0.5988
  133MOL0     O18240   4.739   9.182   0.202  0.4397 -0.6459  0.1109
  133MOL0     C18241   4.867   9.228   0.183  0.8606  0.1563  0.8921
  133MOL0     C18242   4.930   9.291   0.290  0.2665 -0.3454  0.2993
  133MOL0     C18243   5.070   9.325   0.288 -0.2344 -0.6544  0.4177
  133MOL0     C18244   5.126   9.394   0.404 -0.9854 -0.5158 -0.0590
  133MOL0     C18245   5.136   9.310   0.165 -0.6334 -0.0624 -0.5981
  133MOL0     C18246   5.276   9.357   0.146 -0.2589 -0.3551 -0.3013
  133MOL0     O18247   5.333   9.437   0.236 -0.5398  0.1082  0.4052
  133MOL0     C18248   5.470   9.451   0.228  0.0933  0.5303 -0.3073
  133MOL0     C18249   5.561   9.339   0.240  0.1027  0.5024  0.5870
  133MOL0     C18250   5.699   9.370   0.244  0.0010 -0.2386  0.3657
  133MOL0     C18251   5.750   9.504   0.231  0.3736  0.0317 -0.1826
  133MOL0     O18252   5.883   9.543   0.241  0.0935  0.3744 -0.5395
  133MOL0     C18253   5.977   9.452   0.296  0.1646 -0.1266  0.2277
  133MOL0     C18254   6.107   9.524   0.297  0.2189  0.5904  0.5362
  133MOL0     C18255   6.205   9.422   0.372 -0.5992 -0.2688  0.0411
  133MOL0     C18256   6.191   9.437   0.517  0.3565 -0.3951  0.5805
  133MOL0     C18257   6.250   9.316   0.593 -0.4491  0.2068  0.0536
  133MOL0     C18258   6.403   9.289   0.567  0.1853  0.2609  0.3952
  133MOL0     C18259   6.457   9.181   0.664 -0.7186 -0.6152  0.1154
  133MOL0     C18260   6.605   9.161   0.647  0.4909 -0.2779 -0.0656
  133MOL0    Cl18261   6.665   9.056   0.777 -0.3274 -0.3496  0.3049
  133MOL0     C18262   5.664   9.609   0.227  0.1954 -0.6311  0.4834
  133MOL0     C18263   5.523   9.580   0.232  0.7059 -0.3930  0.2939
  133MOL0     O18264   5.335   9.323   0.042  0.2769  0.1876 -0.0089
  133MOL0     C18265   5.075   9.243   0.057  0.3965  0.4509  0.7182
  133MOL0     C18266   4.940   9.206   0.066  0.8117  0.6469 -0.4786
  133MOL0     N18267   4.459   8.834  -0.194  0.2885 -0.2958 -0.2768
  133MOL0     N18268   4.471   8.710  -0.229 -0.6313 -0.3111 -0.9780
  133MOL0     C18269   4.476   7.471   0.437 -0.3197  0.1137 -0.6924
  133MOL0     C18270   4.438   7.344   0.482  1.0465  0.2378 -0.6292
  133MOL0     C18271   4.194   7.069   0.757  0.4044  0.7794  0.5226
  133MOL0     C18272   4.283   6.953   0.727 -0.1020 -0.6093 -0.9930
  133MOL0     C18273   4.277   6.835   0.808  0.2012 -0.6821  0.2790
  133MOL0     C18274   4.183   6.819   0.903  0.6553  0.2919  0.7651
  133MOL0     O18275   4.173   6.710   0.985  0.3000  0.1182 -0.4390
  133MOL0     C18276   4.182   6.580   0.917  1.0613  0.8512  0.3189
  133MOL0     C18277   4.298   6.496   0.954  0.2036 -0.7089  0.9246
  133MOL0     C18278   4.330   6.495   1.096  0.7954 -0.4728 -0.3098
  133MOL0     C18279   4.447   6.404   1.122  0.4965  0.2993 -0.4015
  133MOL0     C18280   4.418   6.265   1.082 -0.4298  0.5442  1.0231
  133MOL0     C18281   4.399   6.149   1.048  0.3594 -0.2553  0.6373
  133MOL0     C18282   4.078   6.910   0.910 -0.6606 -0.4298 -0.2319
  133MOL0     C18283   4.084   7.032   0.838 -0.3077  0.1236  0.3634
  133MOL0     C18284   3.967   7.114   0.864 -0.4366 -0.1010  0.6471
  133MOL0     H18285   4.110   7.380   0.488  0.8402 -3.2888  0.6095
  133MOL0     H18286   4.176   7.592   0.351 -0.5308 -0.5237 -0.4276
  133MOL0     H18287   4.354   7.855   0.388 -3.3154  0.7042 -1.0459
  133MOL0     H18288   4.252   7.767   0.279 -0.3941 -1.4477  1.3682
  133MOL0     H18289   4.535   7.883   0.232 -0.3174 -0.3036 -2.5932
  133MOL0     H18290   4.449   7.797   0.101 -1.9998 -1.7310  0.2346
  133MOL0     H18291   4.284   7.990   0.101  0.5312 -0.9405  0.2547
  133MOL0     H18292   4.371   8.050   0.244  1.5155  2.0912 -0.7377
  133MOL0     H18293   4.574   8.066   0.113  1.2795  1.5429 -1.0496
  133MOL0     H18294   4.485   8.023  -0.036 -0.1480 -0.7591  0.1794
  133MOL0     H18295   4.470   8.273   0.151  0.7048 -0.2705  0.3071
  133MOL0     H18296   4.339   8.225   0.028  0.2515 -0.8416  0.9171
  133MOL0     H18297   4.632   8.281  -0.031 -0.3844 -0.7936 -2.1600
  133MOL0     H18298   4.504   8.251  -0.149 -3.1098 -1.6690  1.0475
  133MOL0     H18299   4.483   8.483   0.042 -0.4749 -0.6125  0.5555
  133MOL0     H18300   4.401   8.453  -0.116 -0.9255  0.0520 -0.5115
  133MOL0     H18301   4.701   8.520  -0.076  0.8030 -0.7545 -0.2279
  133MOL0     H18302   4.632   8.473  -0.234  2.4157 -1.3693  1.8932
  133MOL0     H18303   4.700   8.764   0.002 -0.0339  2.1044 -0.6428
  133MOL0     H18304   4.502   9.089  -0.110 -1.0600 -1.2947  0.5592
  133MOL0     H18305   4.669   9.054  -0.065  1.1997 -2.0327  1.0289
  133MOL0     H18306   4.430   8.988   0.097  0.9808 -1.5881  1.6748
  133MOL0     H18307   4.599   8.971   0.146 -1.8524 -4.8366 -0.3949
  133MOL0     H18308   4.431   9.236   0.101 -0.4914 -1.3998  0.5384
  133MOL0     H18309   4.497   9.175   0.259 -0.8539 -0.3632  0.5758
  133MOL0     H18310   4.660   9.291   0.038 -1.8095  0.0782 -0.7499
  133MOL0     H18311   4.607   9.359   0.192 -0.0430 -0.2420 -1.6750
  133MOL0     H18312   4.868   9.304   0.378  2.1724 -0.5678  1.7500
  133MOL0     H18313   5.063   9.381   0.493 -1.4437  2.2811  0.1117
  133MOL0     H18314   5.153   9.500   0.402  3.3322 -1.4639 -0.9733
  133MOL0     H18315   5.217   9.341   0.433 -1.4988  0.0010  2.8081
  133MOL0     H18316   5.532   9.235   0.242  0.4754  0.4069  1.7621
  133MOL0     H18317   5.769   9.289   0.260 -0.0899  0.1350  3.2021
  133MOL0     H18318   5.950   9.410   0.394  1.7264  0.0334  0.7571
  133MOL0     H18319   6.002   9.369   0.229  0.2089  1.5713 -1.9727
  133MOL0     H18320   6.135   9.543   0.193 -1.3194 -0.5808 -0.1452
  133MOL0     H18321   6.095   9.617   0.353 -0.7591  0.1522  1.0832
  133MOL0     H18322   6.306   9.443   0.335 -0.8443 -0.9736 -1.0864
  133MOL0     H18323   6.180   9.318   0.349 -3.5623  0.2894  0.4126
  133MOL0     H18324   6.087   9.465   0.539  0.6802  0.0503  1.6170
  133MOL0     H18325   6.249   9.519   0.560  2.6154 -2.4714  1.7765
  133MOL0     H18326   6.234   9.340   0.699 -0.3873  0.3979  0.0201
  133MOL0     H18327   6.192   9.230   0.560 -0.0691  1.0501 -3.0501
  133MOL0     H18328   6.463   9.379   0.584  0.5473  0.0485  0.2559
  133MOL0     H18329   6.417   9.260   0.462 -0.0104 -2.8765  1.1424
  133MOL0     H18330   6.419   9.079   0.655  2.6872 -1.9432 -0.5681
  133MOL0     H18331   6.430   9.216   0.764  1.8359 -0.9874  0.9900
  133MOL0     H18332   6.665   9.253   0.644 -1.2398  0.9574  1.6413
  133MOL0     H18333   6.619   9.113   0.549 -0.4527 -1.6617  0.4526
  133MOL0     H18334   5.701   9.710   0.213  1.1936 -1.1940 -1.2530
  133MOL0     H18335   5.450   9.661   0.241  0.4982 -0.6094  0.5795
  133MOL0     H18336   5.129   9.220  -0.033 -0.8501 -3.6210  0.8321
  133MOL0     H18337   4.902   9.142  -0.013 -2.8962 -3.2454  3.8749
  133MOL0     H18338   4.582   7.490   0.419 -0.5878  1.4450 -0.9634
  133MOL0     H18339   4.516   7.269   0.492 -0.5255 -1.2914  0.7761
  133MOL0     H18340   4.356   6.961   0.646  1.1196 -3.7808 -0.3441
  133MOL0     H18341   4.351   6.757   0.795  1.6955  1.1072 -3.2534
  133MOL0     H18342   4.087   6.527   0.931  1.9032 -0.8971 -0.3248
  133MOL0     H18343   4.173   6.592   0.808  2.5951  0.1729  0.0861
  133MOL0     H18344   4.385   6.543   0.906 -0.5138 -0.4254 -0.1275
  133MOL0     H18345   4.291   6.395   0.911 -0.6736  0.7677 -2.7626
  133MOL0     H18346   4.346   6.596   1.137 -0.3763 -0.7387  0.8822
  133MOL0     H18347   4.247   6.468   1.162  2.7757 -0.0372  2.5309
  133MOL0     H18348   4.467   6.394   1.229  0.8554 -0.3188 -0.5245
  133MOL0     H18349   4.539   6.453   1.087  1.2569  0.7961  2.0840
  133MOL0     H18350   4.375   6.045   1.033 -0.7012 -0.0382  0.7464
  133MOL0     H18351   3.997   6.883   0.977  0.4138 -0.3780  1.1232
  133MOL0     H18352   3.981   7.180   0.950  1.1313  1.2923 -0.6210
  133MOL0     H18353   3.954   7.187   0.784 -0.6253  1.1597  1.7870
  133MOL0     H18354   3.869   7.066   0.871 -0.8275  0.7064  0.8220
  134MOL0     O18355   5.994   2.379   2.025 -0.1156  0.1453 -0.6912
  134MOL0     C18356   5.993   2.255   2.008 -0.1788  0.0980  0.0093
  134MOL0     O18357   6.024   2.161   2.112 -0.3631  0.0731  0.5707
  134MOL0     C18358   6.039   2.218   2.236  0.0652  0.0392  0.2250
  134MOL0     C18359   6.143   2.309   2.265 -0.5083 -0.3042  0.0228
  134MOL0     C18360   6.143   2.361   2.403  0.3538 -0.4300  0.6014
  134MOL0     C18361   6.040   2.330   2.493  0.0620  0.1699 -0.4797
  134MOL0     O18362   6.056   2.371   2.626 -0.4017 -0.5182 -0.4815
  134MOL0     C18363   6.031   2.267   2.722  0.7122 -0.3657 -1.1836
  134MOL0     C18364   6.008   2.311   2.865  0.2144 -0.1517 -0.2662
  134MOL0     C18365   6.135   2.370   2.938 -0.3710  0.1908 -0.1746
  134MOL0     C18366   6.109   2.491   3.019 -0.7305 -0.3791 -0.7203
  134MOL0     C18367   6.235   2.580   3.039  0.4702 -0.6815  0.4865
  134MOL0     C18368   6.331   2.536   3.152 -0.1484  0.2268 -0.6866
  134MOL0     C18369   6.408   2.407   3.130 -0.6601  0.9311  0.0215
  134MOL0     C18370   6.533   2.400   3.227 -0.2050 -1.0279 -0.2889
  134MOL0     N18371   6.609   2.274   3.215 -0.6527 -0.2075  0.7394
  134MOL0     C18372   6.742   2.261   3.262 -0.4750  0.3967 -0.9016
  134MOL0     C18373   6.779   2.134   3.234  1.2435 -0.0670 -0.2778
  134MOL0     C18374   6.907   2.068   3.258 -0.6146 -0.4823  0.4785
  134MOL0     C18375   6.923   2.026   3.407 -0.1132 -0.3868  0.1711
  134MOL0     C18376   7.043   1.943   3.435  0.3855 -0.5441  1.0800
  134MOL0     C18377   7.077   1.939   3.578  0.6787  0.0362 -0.8243
  134MOL0     O18378   7.174   1.837   3.605 -0.8040  0.1646 -0.2670
  134MOL0     C18379   7.308   1.881   3.623 -0.8951  0.1844 -0.7303
  134MOL0     C18380   7.385   1.804   3.706 -0.8355  0.1790 -0.4289
  134MOL0     C18381   7.513   1.841   3.737 -0.6904  0.4060  0.3072
  134MOL0     C18382   7.590   1.743   3.834  0.8614 -0.4362  0.5948
  134MOL0     C18383   7.571   1.953   3.689 -0.6785 -0.6980 -0.1080
  134MOL0     C18384   7.713   1.980   3.714 -0.9459 -0.1660 -0.2537
  134MOL0     O18385   7.793   2.000   3.606 -0.0551 -0.0623  0.4386
  134MOL0     C18386   7.931   2.025   3.609 -0.6541 -1.2744  0.3151
  134MOL0     C18387   8.001   2.076   3.723  0.1245 -0.0768  0.3706
  134MOL0     C18388   8.140   2.098   3.717  0.9355 -1.0482 -0.0193
  134MOL0     C18389   8.216   2.081   3.596 -0.1940 -0.3023 -0.5790
  134MOL0     O18390   8.353   2.092   3.575  0.2893  0.4974 -0.3449
  134MOL0     C18391   8.416   2.165   3.682  0.3644 -0.4925 -0.1881
  134MOL0     C18392   8.543   2.234   3.644 -0.5071 -0.2434  0.0669
  134MOL0     C18393   8.615   2.296   3.765 -0.5829  0.3208  0.1509
  134MOL0     C18394   8.744   2.369   3.724  0.0149  0.2888  0.7053
  134MOL0     C18395   8.827   2.409   3.842  0.1114  0.5669  0.3476
  134MOL0     C18396   8.950   2.501   3.800  0.3179  0.1357  0.6100
  134MOL0     C18397   9.024   2.511   3.923 -0.3980 -0.5888 -0.4914
  134MOL0     C18398   9.154   2.588   3.913  0.2418 -0.8173 -0.4021
  134MOL0    Cl18399   9.106   2.757   3.924  0.2477  0.1712 -0.0829
  134MOL0     C18400   8.140   2.039   3.488 -0.0646 -0.1170  1.1834
  134MOL0     C18401   8.003   2.011   3.494  0.4704  0.0199 -0.2455
  134MOL0     O18402   7.746   1.998   3.831  0.1339  0.2627 -0.1956
  134MOL0     C18403   7.498   2.036   3.600  0.9397  0.0949 -0.4936
  134MOL0     C18404   7.365   2.006   3.568  0.6003  0.4968 -0.3673
  134MOL0     N18405   6.667   2.074   3.172 -0.3401  0.3546 -0.4492
  134MOL0     N18406   6.560   2.152   3.170 -0.7822  0.1363 -0.3772
  134MOL0     C18407   5.929   2.263   2.447  0.1726  0.7017  0.7337
  134MOL0     C18408   5.930   2.206   2.319  0.1498  0.2894  0.1255
  134MOL0     C18409   5.947   2.203   1.880 -0.2252  0.0540 -0.3519
  134MOL0     C18410   5.961   2.288   1.770 -0.0499 -0.0253  0.2568
  134MOL0     C18411   5.915   2.246   1.644  0.3977  1.0856 -0.5286
  134MOL0     C18412   5.869   2.112   1.624 -0.2561  1.5886 -0.4147
  134MOL0     O18413   5.820   2.064   1.500 -0.0685  0.1812  0.0092
  134MOL0     C18414   5.809   2.159   1.389 -0.8545 -0.4086 -0.6990
  134MOL0     C18415   5.713   2.108   1.286 -0.8605 -0.1334  0.5207
  134MOL0     C18416   5.726   1.963   1.235  0.4224  0.6582  0.3858
  134MOL0     C18417   5.850   1.944   1.149  0.3267  0.1134 -0.1457
  134MOL0     C18418   5.867   1.804   1.102 -0.4297  0.4856  0.3520
  134MOL0     C18419   5.866   1.695   1.047  0.6006 -0.6061 -0.4993
  134MOL0     C18420   5.866   2.026   1.733  0.2203  0.2920 -0.3165
  134MOL0     C18421   5.902   2.072   1.865  0.0711  0.3996 -0.0503
  134MOL0     C18422   5.877   1.974   1.971 -0.0326  0.1733 -1.3909
  134MOL0     H18423   6.211   2.343   2.187 -2.4569  0.9739 -1.2080
  134MOL0     H18424   6.222   2.427   2.437  2.0001 -1.7489 -0.4971
  134MOL0     H18425   6.119   2.201   2.729  1.1712  0.2415 -1.1528
  134MOL0     H18426   5.948   2.206   2.687 -0.1361  1.0646 -1.7356
  134MOL0     H18427   5.934   2.392   2.863  1.7363  1.2922 -0.5122
  134MOL0     H18428   5.956   2.237   2.926  0.9974 -0.0160  0.5853
  134MOL0     H18429   6.165   2.293   3.010  0.9924  2.2760  1.6354
  134MOL0     H18430   6.212   2.376   2.860 -0.7057 -2.1889 -0.7777
  134MOL0     H18431   6.025   2.535   2.965 -1.0066 -2.8960 -2.4954
  134MOL0     H18432   6.077   2.471   3.122  1.1019  3.8574  0.9142
  134MOL0     H18433   6.192   2.678   3.062 -0.5563 -0.8832 -0.4722
  134MOL0     H18434   6.291   2.587   2.945  1.0146  0.0905  0.8648
  134MOL0     H18435   6.404   2.618   3.157  2.7669 -2.1960 -0.8839
  134MOL0     H18436   6.266   2.528   3.240  0.6773  0.6198 -0.0178
  134MOL0     H18437   6.447   2.403   3.028 -2.2763  1.5845 -0.6652
  134MOL0     H18438   6.339   2.324   3.149 -1.2267  1.2736 -0.4902
  134MOL0     H18439   6.606   2.470   3.185  3.2098 -4.3000 -0.3807
  134MOL0     H18440   6.508   2.420   3.332  1.7517 -0.7823  0.1684
  134MOL0     H18441   6.794   2.327   3.330  1.3056 -0.1257 -1.6740
  134MOL0     H18442   6.977   2.149   3.235 -1.2767 -0.3739 -1.3923
  134MOL0     H18443   6.924   1.983   3.190 -4.2203 -1.3088  0.4312
  134MOL0     H18444   6.922   2.115   3.471  1.8567  1.8817 -2.6941
  134MOL0     H18445   6.836   1.965   3.435  1.1168 -1.7401  1.2034
  134MOL0     H18446   7.023   1.840   3.403  0.3210 -0.4568  0.8323
  134MOL0     H18447   7.128   1.970   3.372  1.4140 -2.6950  1.4405
  134MOL0     H18448   7.111   2.038   3.610  0.7764 -0.1045 -0.4874
  134MOL0     H18449   6.987   1.917   3.635  2.2892  1.4040  2.5726
  134MOL0     H18450   7.337   1.718   3.753  3.4926 -3.1905 -1.5604
  134MOL0     H18451   7.678   1.704   3.782  2.5303  3.2728  0.2715
  134MOL0     H18452   7.522   1.661   3.859 -0.4997  0.5094  0.0825
  134MOL0     H18453   7.609   1.798   3.927 -6.0382  2.7355  0.7780
  134MOL0     H18454   7.965   2.088   3.825  1.3126  0.3247  0.7498
  134MOL0     H18455   8.182   2.145   3.805  2.0519 -1.4975 -0.2933
  134MOL0     H18456   8.361   2.252   3.718  0.1599  0.1714 -2.0290
  134MOL0     H18457   8.438   2.094   3.762 -0.0314 -0.9275 -0.4616
  134MOL0     H18458   8.609   2.161   3.596  0.5098  0.2906  0.6247
  134MOL0     H18459   8.515   2.304   3.565  0.0053  0.7301  0.7275
  134MOL0     H18460   8.646   2.223   3.840  1.1083  3.0257  2.2846
  134MOL0     H18461   8.559   2.377   3.813 -2.0556  1.3353 -3.0124
  134MOL0     H18462   8.713   2.457   3.666 -0.3952  1.3311  2.4318
  134MOL0     H18463   8.803   2.301   3.663 -1.0906  0.2131 -0.3202
  134MOL0     H18464   8.764   2.469   3.909 -0.6773  0.3366 -0.1642
  134MOL0     H18465   8.860   2.312   3.880 -1.0856 -0.1079 -0.2468
  134MOL0     H18466   8.939   2.601   3.756 -1.9660 -0.0565  0.6190
  134MOL0     H18467   9.011   2.445   3.728  2.3538  1.2475  1.4019
  134MOL0     H18468   9.062   2.411   3.946  1.9244  0.2787 -0.2374
  134MOL0     H18469   8.971   2.546   4.012  4.2551  3.1263  1.2478
  134MOL0     H18470   9.226   2.559   3.837 -0.7059 -1.0749 -1.2187
  134MOL0     H18471   9.198   2.553   4.007 -3.6631 -1.0534  1.5444
  134MOL0     H18472   8.196   2.035   3.395 -0.1548  0.6979  1.0867
  134MOL0     H18473   7.941   1.974   3.413  0.3345  2.0332 -1.1306
  134MOL0     H18474   7.536   2.128   3.557  1.7297 -0.2788 -0.6307
  134MOL0     H18475   7.302   2.070   3.507  1.1350  1.7929  0.3991
  134MOL0     H18476   5.839   2.238   2.502 -0.4431  0.1701 -0.4905
  134MOL0     H18477   5.851   2.145   2.277 -0.4555  0.6217  0.7760
  134MOL0     H18478   6.007   2.386   1.780 -0.9437  0.3347  0.9788
  134MOL0     H18479   5.913   2.315   1.561 -5.2294  0.6140 -1.1807
  134MOL0     H18480   5.785   2.259   1.425  1.1978 -0.7851  2.0553
  134MOL0     H18481   5.906   2.169   1.339  0.5558 -1.0376  1.7178
  134MOL0     H18482   5.723   2.173   1.198  1.5706  0.3066  1.0536
  134MOL0     H18483   5.608   2.111   1.318 -1.6387  0.1515 -1.8255
  134MOL0     H18484   5.718   1.895   1.320 -0.8231 -0.3585 -0.5168
  134MOL0     H18485   5.645   1.943   1.165  0.1308  0.1339  0.8690
  134MOL0     H18486   5.940   1.976   1.203  0.2179  0.5511 -0.2158
  134MOL0     H18487   5.840   2.010   1.062 -1.7144  1.7156  1.2301
  134MOL0     H18488   5.877   1.597   1.004  4.2730  0.1691 -1.6054
  134MOL0     H18489   5.823   1.928   1.713  0.3905  0.4608 -1.6407
  134MOL0     H18490   5.970   1.920   1.988  1.7050  3.1827 -0.6250
  134MOL0     H18491   5.848   2.025   2.063  0.0883 -2.2942  0.1000
  134MOL0     H18492   5.796   1.904   1.949  1.2116 -1.3919 -1.1693
  135MOL0     O18493   8.084   9.070  10.633 -0.6468 -1.2336  0.5150
  135MOL0     C18494   8.135   9.163  10.692 -1.0210 -0.5672  0.4103
  135MOL0     O18495   8.126   9.299  10.662  1.1341  0.6818 -1.0248
  135MOL0     C18496   8.039   9.335  10.558 -0.5670 -0.1223 -0.1615
  135MOL0     C18497   8.087   9.431  10.475 -0.4661  0.0875 -0.7639
  135MOL0     C18498   8.010   9.489  10.373 -0.9452 -0.3787  0.3648
  135MOL0     C18499   7.876   9.451  10.355  0.2299 -0.4467  0.1946
  135MOL0     O18500   7.793   9.513  10.261  0.2163 -0.2313  0.1204
  135MOL0     C18501   7.853   9.589  10.159  0.5158  0.3568  0.8140
  135MOL0     C18502   7.739   9.620  10.055  0.3267  0.3807 -1.2384
  135MOL0     C18503   7.697   9.493   9.980  0.1127 -0.5147  0.0152
  135MOL0     C18504   7.591   9.522   9.875  1.2257  0.1175  0.1432
  135MOL0     C18505   7.533   9.389   9.819 -1.1898 -1.0125 -0.5477
  135MOL0     C18506   7.389   9.412   9.772 -0.0850 -0.9285  0.1691
  135MOL0     C18507   7.319   9.302   9.702  0.2329  0.1796 -0.1726
  135MOL0     C18508   7.385   9.260   9.566  0.2481  0.4403 -0.2972
  135MOL0     N18509   7.422   9.365   9.476  0.5475 -0.3758  0.5764
  135MOL0     C18510   7.548   9.421   9.478 -0.2218 -0.6208 -0.4642
  135MOL0     C18511   7.537   9.524   9.392  1.0860  0.3091 -0.3817
  135MOL0     C18512   7.649   9.607   9.364  0.5937 -0.1817 -0.9767
  135MOL0     C18513   7.651   9.737   9.456  0.3180  0.1965 -0.2430
  135MOL0     C18514   7.776   9.816   9.431  0.4426  0.2764 -0.1781
  135MOL0     C18515   7.778   9.908   9.303  0.5422  0.9205 -0.4127
  135MOL0     O18516   7.776   9.815   9.196  0.2835  0.4300  0.3351
  135MOL0     C18517   7.894   9.747   9.153 -0.2384 -0.2458  0.3542
  135MOL0     C18518   7.885   9.658   9.045  0.3494 -0.6390 -0.2770
  135MOL0     C18519   8.002   9.595   8.992 -0.3518 -0.4074  0.1471
  135MOL0     C18520   7.976   9.507   8.872 -0.6800 -1.1621 -0.3010
  135MOL0     C18521   8.134   9.615   9.053  0.1662  0.4791  0.0074
  135MOL0     C18522   8.261   9.536   9.010 -0.1704 -0.3908  0.4117
  135MOL0     O18523   8.377   9.590   9.040 -0.2503  0.5990  0.7161
  135MOL0     C18524   8.505   9.548   9.007  0.6306  0.0093 -0.0403
  135MOL0     C18525   8.537   9.437   8.926 -0.2449  0.1895  0.2187
  135MOL0     C18526   8.670   9.394   8.909 -0.3251 -0.0742 -0.0088
  135MOL0     C18527   8.783   9.452   8.981 -1.1516  0.3666  0.5367
  135MOL0     O18528   8.915   9.411   8.970  0.2836  0.1750  0.1777
  135MOL0     C18529   8.952   9.292   8.907 -0.8828  0.0624  0.3973
  135MOL0     C18530   9.082   9.248   8.981 -0.1737  0.3054  0.1331
  135MOL0     C18531   9.125   9.116   8.937 -0.0533 -0.3488 -0.2771
  135MOL0     C18532   9.264   9.087   8.995 -0.1167  0.6609  0.0637
  135MOL0     C18533   9.385   9.131   8.915  0.2843  0.1587 -0.0722
  135MOL0     C18534   9.526   9.110   8.983 -0.3566 -0.0414 -0.7185
  135MOL0     C18535   9.643   9.111   8.883 -0.3738 -0.3909  0.4904
  135MOL0     C18536   9.786   9.116   8.949  0.0761 -0.2771  0.0154
  135MOL0    Cl18537   9.835   8.939   8.988  0.2401  0.0027 -0.0113
  135MOL0     C18538   8.743   9.557   9.068 -0.9553  0.4973 -0.1602
  135MOL0     C18539   8.610   9.605   9.082  0.3321  1.2431  0.0336
  135MOL0     O18540   8.248   9.421   8.959  0.1217  0.0436 -0.1697
  135MOL0     C18541   8.139   9.701   9.165 -0.2844  0.0350 -0.3109
  135MOL0     C18542   8.027   9.773   9.208  0.7891 -0.5861 -0.0999
  135MOL0     N18543   7.419   9.512   9.327 -0.8050 -0.4679  0.4538
  135MOL0     N18544   7.346   9.421   9.381  0.2035 -0.1937  0.4297
  135MOL0     C18545   7.816   9.358  10.442  0.1120  0.4588  0.0460
  135MOL0     C18546   7.901   9.295  10.543  0.1405  0.2704 -0.1129
  135MOL0     C18547   8.212   9.131  10.806  0.2589  0.4922  0.4580
  135MOL0     C18548   8.164   9.038  10.903 -0.4638  0.0660  0.1669
  135MOL0     C18549   8.254   8.995  11.006 -0.6199 -0.0672 -0.2818
  135MOL0     C18550   8.382   9.041  11.018 -0.7785 -0.3418 -0.1265
  135MOL0     O18551   8.453   8.968  11.112 -0.0675 -0.2451 -0.3511
  135MOL0     C18552   8.538   8.870  11.059 -0.3337 -1.0758  0.8828
  135MOL0     C18553   8.681   8.887  11.100 -0.3647 -0.8599  0.0141
  135MOL0     C18554   8.700   8.840  11.247  0.1129 -0.2853  0.2372
  135MOL0     C18555   8.838   8.870  11.309 -0.0095 -0.1242 -0.4921
  135MOL0     C18556   8.854   9.017  11.335  0.1183 -0.6830 -0.9841
  135MOL0     C18557   8.849   9.136  11.359  0.0096  0.2786  0.1010
  135MOL0     C18558   8.430   9.139  10.933  0.4043  0.1518 -0.1624
  135MOL0     C18559   8.340   9.186  10.822  0.5755 -0.3166 -0.2440
  135MOL0     C18560   8.404   9.267  10.707 -0.7487 -0.2660 -0.2018
  135MOL0     H18561   8.189   9.468  10.480  0.7235 -2.9470 -0.1289
  135MOL0     H18562   8.059   9.562  10.310  0.9352  0.2754  2.4598
  135MOL0     H18563   7.935   9.547  10.099 -3.4038 -1.4015 -4.0117
  135MOL0     H18564   7.887   9.684  10.201  1.5504  0.1756  0.4234
  135MOL0     H18565   7.655   9.667  10.107  1.8691 -0.3084  2.1805
  135MOL0     H18566   7.790   9.676   9.976  0.2553  2.7225  0.2684
  135MOL0     H18567   7.792   9.456   9.941  1.2924  2.1251  0.2275
  135MOL0     H18568   7.655   9.416  10.046 -2.3483  1.2596  0.6900
  135MOL0     H18569   7.518   9.585   9.926  2.3137  0.6759  1.0530
  135MOL0     H18570   7.627   9.582   9.791 -1.5478  0.6559 -0.7754
  135MOL0     H18571   7.523   9.314   9.898  1.8713  0.9251  1.9125
  135MOL0     H18572   7.586   9.340   9.736 -0.8129  0.3959 -1.1674
  135MOL0     H18573   7.326   9.433   9.858  1.9933  0.8559  1.3436
  135MOL0     H18574   7.384   9.493   9.699 -1.4673 -1.1082  0.0438
  135MOL0     H18575   7.212   9.312   9.684  0.0398  1.4327  1.3961
  135MOL0     H18576   7.319   9.222   9.777 -2.1391 -0.3962 -0.7168
  135MOL0     H18577   7.475   9.202   9.584  0.5874  0.2134 -2.4874
  135MOL0     H18578   7.312   9.194   9.517  1.1053 -3.5523  3.1889
  135MOL0     H18579   7.638   9.392   9.531  0.2512 -1.6723 -1.7943
  135MOL0     H18580   7.646   9.626   9.256  0.8487 -2.2391 -1.3749
  135MOL0     H18581   7.740   9.551   9.387 -0.7320 -0.7252  4.3445
  135MOL0     H18582   7.561   9.794   9.430 -1.5658 -1.5138  2.0063
  135MOL0     H18583   7.632   9.723   9.563 -1.2989  0.6141 -0.4377
  135MOL0     H18584   7.787   9.878   9.521 -0.8653  0.5910 -0.2186
  135MOL0     H18585   7.855   9.740   9.429 -0.9433 -1.2052 -1.1250
  135MOL0     H18586   7.699   9.984   9.314  1.0072  1.1489  1.9604
  135MOL0     H18587   7.867   9.971   9.300 -0.3830  2.2397 -1.4124
  135MOL0     H18588   7.790   9.639   8.996 -0.1759  0.3635  0.3190
  135MOL0     H18589   8.041   9.527   8.786 -0.1148  0.0772  0.4074
  135MOL0     H18590   7.874   9.524   8.836 -0.6602  0.0064  0.1796
  135MOL0     H18591   7.978   9.401   8.899 -1.4125 -1.5648 -1.6963
  135MOL0     H18592   8.468   9.383   8.862  1.1423  1.8846 -2.9326
  135MOL0     H18593   8.675   9.311   8.839  0.5738 -0.8293  0.9128
  135MOL0     H18594   8.876   9.214   8.914 -0.3012 -0.5053  0.5422
  135MOL0     H18595   8.979   9.304   8.801  0.2567 -2.5236  0.3180
  135MOL0     H18596   9.164   9.319   8.966  1.2317 -1.1767  0.4953
  135MOL0     H18597   9.053   9.248   9.086 -0.7007  0.7576 -0.0089
  135MOL0     H18598   9.121   9.102   8.828  2.7011 -2.5357 -0.2346
  135MOL0     H18599   9.051   9.047   8.977  1.0111 -1.9285 -0.9327
  135MOL0     H18600   9.268   8.978   9.000  0.7832  0.7335  1.4598
  135MOL0     H18601   9.275   9.127   9.096 -0.5658  2.3227 -0.5076
  135MOL0     H18602   9.380   9.075   8.821 -1.6071  0.0793  0.0386
  135MOL0     H18603   9.368   9.234   8.885 -0.1525  0.7894  2.1585
  135MOL0     H18604   9.531   9.014   9.034  0.3622  1.4371  2.2179
  135MOL0     H18605   9.550   9.187   9.057  2.5663  0.6009 -2.1798
  135MOL0     H18606   9.629   9.190   8.808 -0.2992 -2.4676 -1.8244
  135MOL0     H18607   9.636   9.020   8.822  1.9955 -2.3479  2.9029
  135MOL0     H18608   9.777   9.181   9.037  0.9212 -0.3453  0.1610
  135MOL0     H18609   9.854   9.149   8.870  1.6555 -0.4715  1.2388
  135MOL0     H18610   8.805   9.609   9.141 -0.7048 -0.6647  0.4806
  135MOL0     H18611   8.584   9.676   9.161 -0.0126  2.7278 -1.3694
  135MOL0     H18612   8.233   9.738   9.205 -2.2893  3.1051  2.0506
  135MOL0     H18613   8.041   9.844   9.288 -0.4738  0.5990 -0.8920
  135MOL0     H18614   7.718   9.314  10.428  1.5033 -3.5671  1.5461
  135MOL0     H18615   7.852   9.227  10.613 -2.9534  1.9296 -0.5143
  135MOL0     H18616   8.064   8.997  10.893 -1.2006  1.6843  0.5563
  135MOL0     H18617   8.224   8.916  11.075 -1.3534 -0.7909 -1.3803
  135MOL0     H18618   8.498   8.780  11.108  1.4382 -1.4515  1.7440
  135MOL0     H18619   8.534   8.855  10.951  0.1683  0.7014  0.5829
  135MOL0     H18620   8.709   8.991  11.084 -0.5208 -1.0728 -1.9221
  135MOL0     H18621   8.739   8.830  11.028  0.5897  0.2650 -0.1282
  135MOL0     H18622   8.616   8.875  11.309  0.6494 -0.1531  0.8993
  135MOL0     H18623   8.682   8.733  11.238 -0.7792 -0.0044 -2.1674
  135MOL0     H18624   8.912   8.842  11.234  0.8142 -0.0319  0.2721
  135MOL0     H18625   8.868   8.813  11.397  0.1557  1.5930  0.6074
  135MOL0     H18626   8.825   9.236  11.389  0.2259  0.1398  0.7464
  135MOL0     H18627   8.534   9.169  10.944  0.1251  1.3980 -0.7705
  135MOL0     H18628   8.502   9.226  10.683 -1.3928 -1.5947 -0.7024
  135MOL0     H18629   8.353   9.276  10.610 -1.5011  1.4200  0.3218
  135MOL0     H18630   8.416   9.372  10.736 -1.2946 -0.9340  2.6552
  136MOL0     O18631  10.032  10.511   1.285 -0.2480  0.2791 -0.4488
  136MOL0     C18632  10.064  10.403   1.235  0.0477 -0.8895 -0.5884
  136MOL0     O18633  10.194  10.349   1.233  0.4417  0.4424 -0.4458
  136MOL0     C18634  10.286  10.402   1.324  0.2049 -1.1583  0.3562
  136MOL0     C18635  10.260  10.372   1.457  1.2908 -0.5094 -0.7356
  136MOL0     C18636  10.356  10.398   1.559  1.1632  0.8597 -0.5157
  136MOL0     C18637  10.479  10.456   1.528 -0.3095  0.1294 -0.5419
  136MOL0     O18638  10.576  10.490   1.620  0.1905  0.4373  0.6321
  136MOL0     C18639  10.575  10.431   1.750 -0.0524 -0.0614  0.4676
  136MOL0     C18640  10.686  10.502   1.836 -0.2526  0.5204  0.7633
  136MOL0     C18641  10.697  10.420   1.973 -0.4254  0.1444  0.9667
  136MOL0     C18642  10.829  10.444   2.041 -0.2029 -0.2590 -0.0132
  136MOL0     C18643  10.863  10.351   2.152  0.0261 -0.7915 -0.0477
  136MOL0     C18644  10.901  10.211   2.122 -0.2058 -0.2932 -0.1161
  136MOL0     C18645  10.795  10.105   2.147  1.0034  0.4203 -0.3906
  136MOL0     C18646  10.844   9.966   2.115  0.1017 -0.2357 -0.3170
  136MOL0     N18647  10.952   9.917   2.200  0.0253  0.3469  0.5598
  136MOL0     C18648  10.960   9.926   2.337 -0.8045 -0.4018  0.0833
  136MOL0     C18649  11.079   9.878   2.362 -0.4827 -0.2094  0.7302
  136MOL0     C18650  11.121   9.849   2.500  0.2567  0.0294  0.2099
  136MOL0     C18651  11.177   9.711   2.529 -0.1937 -0.2107 -0.6665
  136MOL0     C18652  11.224   9.726   2.676 -0.6809  0.2361 -0.4755
  136MOL0     C18653  11.333   9.619   2.708  0.4763 -0.4021  0.1500
  136MOL0     O18654  11.308   9.607   2.852 -0.5865  0.8546  0.3080
  136MOL0     C18655  11.396   9.518   2.912  0.1213  0.4993 -0.8617
  136MOL0     C18656  11.383   9.495   3.050  0.5680  0.1336 -0.1777
  136MOL0     C18657  11.461   9.406   3.125 -0.2040  0.3551  0.7090
  136MOL0     C18658  11.415   9.357   3.257 -0.1095  0.1215 -0.1270
  136MOL0     C18659  11.564   9.340   3.057  0.2081 -0.1992 -1.0637
  136MOL0     C18660  11.651   9.245   3.123  0.4784 -0.2074 -0.2363
  136MOL0     O18661  11.707   9.268   3.252 -0.8308 -0.1150  0.2222
  136MOL0     C18662  11.841   9.228   3.265 -0.9539 -1.3348 -0.1426
  136MOL0     C18663  11.946   9.316   3.259 -0.2466 -1.5629 -0.8143
  136MOL0     C18664  12.081   9.277   3.248  0.2347 -0.1219 -0.4915
  136MOL0     C18665  12.119   9.138   3.274  0.0100  0.0144  0.4131
  136MOL0     O18666  12.252   9.087   3.260 -0.0802 -0.3399 -0.9366
  136MOL0     C18667  12.351   9.165   3.204 -0.4831  0.1292  0.8008
  136MOL0     C18668  12.417   9.259   3.303 -0.2646  0.0187 -0.2831
  136MOL0     C18669  12.543   9.331   3.251 -0.0705  0.2882  0.9226
  136MOL0     C18670  12.550   9.460   3.333 -0.6235 -0.0224  0.3712
  136MOL0     C18671  12.674   9.554   3.303  0.0296 -0.5241 -0.1214
  136MOL0     C18672  12.673   9.604   3.154  0.3204 -0.9005  1.1142
  136MOL0     C18673  12.721   9.753   3.160 -0.5981  0.3264  0.2894
  136MOL0     C18674  12.751   9.789   3.012  0.3164  0.5078 -0.7258
  136MOL0    Cl18675  12.609   9.863   2.931 -0.2283 -0.2048 -0.0950
  136MOL0     C18676  12.017   9.045   3.293  0.2729 -0.6252  0.5633
  136MOL0     C18677  11.879   9.085   3.275  0.2885 -0.9187 -0.5734
  136MOL0     O18678  11.683   9.149   3.056  0.0520  0.1691 -0.1527
  136MOL0     C18679  11.585   9.359   2.923  1.0025  0.2462  0.5166
  136MOL0     C18680  11.501   9.443   2.849 -0.6967 -0.1048 -0.2037
  136MOL0     N18681  11.146   9.855   2.250  0.9068  0.5501 -0.5650
  136MOL0     N18682  11.069   9.880   2.146 -0.4366  0.0910 -0.9900
  136MOL0     C18683  10.498  10.496   1.391  0.0899 -0.3128 -0.1623
  136MOL0     C18684  10.406  10.469   1.292  0.5702 -1.5059  0.6695
  136MOL0     C18685   9.963  10.340   1.146 -0.9818 -1.1443  0.6140
  136MOL0     C18686  10.008  10.285   1.032 -0.2358  0.2372  0.8065
  136MOL0     C18687   9.910  10.226   0.944 -0.2108 -0.6637 -0.3422
  136MOL0     C18688   9.779  10.214   0.970 -0.0698  0.3865 -0.1527
  136MOL0     O18689   9.709  10.158   0.865 -0.7026 -0.4316 -0.1399
  136MOL0     C18690   9.567  10.147   0.870  0.2344 -0.2967  0.7321
  136MOL0     C18691   9.530  10.293   0.852 -1.5323 -0.2324 -0.9328
  136MOL0     C18692   9.523  10.336   0.704  0.5446 -0.9066 -0.3265
  136MOL0     C18693   9.627  10.447   0.672  0.3341 -0.5845  0.3568
  136MOL0     C18694   9.582  10.581   0.722 -0.4052 -0.0517  0.7099
  136MOL0     C18695   9.546  10.687   0.771 -0.6011 -0.2154 -0.4730
  136MOL0     C18696   9.734  10.267   1.095  1.1930 -0.0445 -0.0850
  136MOL0     C18697   9.824  10.335   1.177  0.6884  0.5903 -0.3134
  136MOL0     C18698   9.763  10.398   1.298  0.5119 -0.1339 -0.7112
  136MOL0     H18699  10.171  10.317   1.485 -0.3899  3.1151  1.6947
  136MOL0     H18700  10.329  10.370   1.661 -1.4206  1.4378 -0.9613
  136MOL0     H18701  10.604  10.326   1.742  0.2527  0.1470 -2.0824
  136MOL0     H18702  10.481  10.438   1.805 -1.4431 -1.9279 -1.4914
  136MOL0     H18703  10.787  10.498   1.795 -1.1526 -1.4207 -1.4233
  136MOL0     H18704  10.679  10.611   1.849 -0.3538  0.4856  1.0185
  136MOL0     H18705  10.617  10.442   2.044 -1.3526 -0.1547  0.0315
  136MOL0     H18706  10.680  10.314   1.956 -1.1041  0.7409 -3.2645
  136MOL0     H18707  10.914  10.453   1.973  0.0572  0.4917  0.3895
  136MOL0     H18708  10.825  10.549   2.074  4.5530  0.1661 -0.1921
  136MOL0     H18709  10.771  10.349   2.211 -1.3533  3.3433 -1.6443
  136MOL0     H18710  10.929  10.399   2.226 -0.2563 -1.2706  0.5208
  136MOL0     H18711  10.929  10.212   2.016  2.5018  2.6088  0.4874
  136MOL0     H18712  10.982  10.189   2.192 -0.8452  0.5436  0.9137
  136MOL0     H18713  10.720  10.127   2.070  0.5154 -0.8266 -0.2966
  136MOL0     H18714  10.762  10.123   2.250 -1.3636  0.8897 -1.1582
  136MOL0     H18715  10.761   9.898   2.136 -2.3015  2.5420 -0.2618
  136MOL0     H18716  10.869   9.961   2.009 -1.1557  0.7445 -0.6852
  136MOL0     H18717  10.890   9.964   2.410  1.6109 -0.1717  2.4702
  136MOL0     H18718  11.043   9.869   2.574 -0.4356  1.2616 -0.8128
  136MOL0     H18719  11.192   9.930   2.519 -0.1867  0.1664  1.3474
  136MOL0     H18720  11.107   9.629   2.513 -0.9780  0.6344 -1.7506
  136MOL0     H18721  11.267   9.695   2.470 -0.0729  0.0128 -0.5452
  136MOL0     H18722  11.262   9.826   2.699  2.6291 -0.7239 -1.2333
  136MOL0     H18723  11.135   9.706   2.736 -0.7464  0.2409 -0.5705
  136MOL0     H18724  11.321   9.527   2.649  1.8476  1.3916 -3.2353
  136MOL0     H18725  11.420   9.670   2.666 -0.7843  1.1563 -0.6537
  136MOL0     H18726  11.317   9.558   3.108  3.5006  3.4732 -0.1070
  136MOL0     H18727  11.485   9.383   3.336 -0.6460 -2.5788  1.3654
  136MOL0     H18728  11.399   9.249   3.260  0.7696 -0.0367 -0.7134
  136MOL0     H18729  11.323   9.410   3.281 -0.1775  0.3267 -0.7944
  136MOL0     H18730  11.930   9.423   3.246 -0.3396 -1.3074  1.1104
  136MOL0     H18731  12.155   9.353   3.223  0.0853  0.9487  2.0254
  136MOL0     H18732  12.420   9.100   3.148 -0.2833  2.0499 -1.3301
  136MOL0     H18733  12.308   9.221   3.120 -1.0190 -0.8120  0.4268
  136MOL0     H18734  12.345   9.339   3.326  0.7469  0.7752  0.3334
  136MOL0     H18735  12.441   9.208   3.397  0.2716 -0.2153 -0.5428
  136MOL0     H18736  12.534   9.350   3.144  1.5867  0.2867  0.7589
  136MOL0     H18737  12.632   9.269   3.261 -1.2678 -2.1148 -1.9283
  136MOL0     H18738  12.556   9.426   3.437  3.3743 -2.8288 -0.5676
  136MOL0     H18739  12.467   9.529   3.311  1.6254  2.7250 -0.0709
  136MOL0     H18740  12.674   9.634   3.378  0.4394 -0.0044 -0.6667
  136MOL0     H18741  12.761   9.493   3.330 -0.8096 -1.7797 -0.2319
  136MOL0     H18742  12.572   9.599   3.112  0.9215 -0.2648 -0.4852
  136MOL0     H18743  12.738   9.554   3.082  0.3351  0.6312  0.0112
  136MOL0     H18744  12.817   9.750   3.212 -0.3532  1.9519 -0.0231
  136MOL0     H18745  12.655   9.827   3.205  0.1776  0.1412  1.7745
  136MOL0     H18746  12.798   9.713   2.949 -2.1045 -0.8216 -1.0524
  136MOL0     H18747  12.825   9.868   3.030  2.7261 -1.6941 -0.3714
  136MOL0     H18748  12.044   8.940   3.290  0.0394 -0.6821  0.3899
  136MOL0     H18749  11.797   9.016   3.260 -1.6213  0.9616  0.5858
  136MOL0     H18750  11.668   9.304   2.881 -0.0183 -1.9505  1.2124
  136MOL0     H18751  11.525   9.470   2.747  0.9903  1.2456  0.4995
  136MOL0     H18752  10.596  10.541   1.380 -0.7703  1.3001 -1.6261
  136MOL0     H18753  10.423  10.482   1.185 -3.7031 -0.5158 -0.0970
  136MOL0     H18754  10.113  10.293   1.004 -0.3782 -2.0935 -0.7032
  136MOL0     H18755   9.946  10.189   0.848 -0.9326 -1.9509 -0.1363
  136MOL0     H18756   9.520  10.098   0.784  1.5610  0.4913 -0.4724
  136MOL0     H18757   9.530  10.106   0.965  0.8852 -0.3883  0.9519
  136MOL0     H18758   9.596  10.362   0.905 -1.2636 -2.0722  1.2329
  136MOL0     H18759   9.436  10.308   0.906 -0.7444  1.6974 -0.0038
  136MOL0     H18760   9.549  10.249   0.642  1.1885 -0.3509 -0.8576
  136MOL0     H18761   9.426  10.370   0.667  0.7561  1.4650  1.1345
  136MOL0     H18762   9.651  10.437   0.566 -1.9698 -3.1306 -0.0412
  136MOL0     H18763   9.718  10.414   0.723 -0.3144 -2.4210  0.3864
  136MOL0     H18764   9.515  10.785   0.802 -3.2966 -0.8705 -0.8875
  136MOL0     H18765   9.626  10.269   1.102  1.1942 -2.8182  2.4447
  136MOL0     H18766   9.748  10.504   1.278  1.0050  0.9243  3.5502
  136MOL0     H18767   9.666  10.357   1.328  0.7350  0.6053  1.1968
  136MOL0     H18768   9.829  10.393   1.386 -0.7872  1.8275  0.4441
  137MOL0     O18769  10.538   1.848   0.625  0.5028 -0.0551 -0.7223
  137MOL0     C18770  10.599   1.953   0.644  0.0195 -0.0660  0.0937
  137MOL0     O18771  10.728   1.961   0.687 -0.6220 -0.1974 -0.1215
  137MOL0     C18772  10.792   1.843   0.737 -0.1342 -0.3332  0.2496
  137MOL0     C18773  10.825   1.735   0.650 -0.6307 -0.2060 -0.0449
  137MOL0     C18774  10.897   1.622   0.703  0.2056 -0.4698 -0.9835
  137MOL0     C18775  10.950   1.626   0.835 -0.3913  0.1299 -0.1408
  137MOL0     O18776  11.040   1.534   0.880  0.1111  0.6616  0.8608
  137MOL0     C18777  11.050   1.493   1.015  0.0780  0.2800 -0.0567
  137MOL0     C18778  10.940   1.395   1.054 -0.6538  0.5363  0.8069
  137MOL0     C18779  10.959   1.268   0.964 -0.2394  0.6429 -0.3136
  137MOL0     C18780  10.863   1.151   1.016 -0.3867 -0.0153 -0.3494
  137MOL0     C18781  10.880   1.019   0.936  1.0080 -0.3050  0.0832
  137MOL0     C18782  10.812   0.907   1.016 -0.1298  0.2277 -0.0785
  137MOL0     C18783  10.854   0.769   0.956 -0.6524 -0.2576 -0.2420
  137MOL0     C18784  10.814   0.651   1.038  0.0923 -0.1609  0.3535
  137MOL0     N18785  10.868   0.527   0.994  0.6171 -0.0450  0.0131
  137MOL0     C18786  10.880   0.478   0.866  0.5643 -0.3774 -0.4484
  137MOL0     C18787  10.954   0.367   0.882 -0.1735  1.0032  0.8604
  137MOL0     C18788  10.996   0.285   0.755  0.7423 -0.1858  0.6618
  137MOL0     C18789  11.109   0.184   0.778  0.3456 -0.3136  0.3222
  137MOL0     C18790  11.159   0.112   0.647 -0.6527 -0.6224 -0.0036
  137MOL0     C18791  11.242   0.213   0.563  0.1907 -0.3263  0.8932
  137MOL0     O18792  11.371   0.228   0.630  0.2789  0.5629 -0.3459
  137MOL0     C18793  11.452   0.326   0.588  0.6422 -0.1832 -0.2672
  137MOL0     C18794  11.416   0.412   0.488 -0.0721 -0.9667  0.8422
  137MOL0     C18795  11.513   0.503   0.438 -0.1859  0.0822  0.8483
  137MOL0     C18796  11.477   0.608   0.333  0.0110  0.7366 -0.8573
  137MOL0     C18797  11.641   0.508   0.500 -0.3854 -0.9873 -0.2418
  137MOL0     C18798  11.741   0.622   0.480 -0.2713 -0.7887 -0.0876
  137MOL0     O18799  11.859   0.596   0.540 -0.1026 -0.3823  0.5956
  137MOL0     C18800  11.961   0.690   0.521  1.1837 -0.4810 -0.3194
  137MOL0     C18801  11.959   0.815   0.585  0.6831 -0.0271  0.6706
  137MOL0     C18802  12.060   0.906   0.552  0.4483 -0.1048  1.0297
  137MOL0     C18803  12.157   0.886   0.462 -0.0622 -0.2013  0.4794
  137MOL0     O18804  12.250   0.988   0.445 -0.3820  0.7492  0.0320
  137MOL0     C18805  12.386   0.946   0.432 -0.5204  0.8046  0.5630
  137MOL0     C18806  12.452   0.844   0.528 -0.2686  0.9903 -0.1146
  137MOL0     C18807  12.440   0.868   0.680 -0.2591  0.2623 -0.1072
  137MOL0     C18808  12.500   0.748   0.767  0.9258  0.5372  0.4428
  137MOL0     C18809  12.416   0.615   0.790  0.3200 -0.2555 -0.2808
  137MOL0     C18810  12.285   0.648   0.867  0.5955  0.4131  0.1098
  137MOL0     C18811  12.198   0.511   0.896 -0.9381  0.5411  0.3247
  137MOL0     C18812  12.071   0.527   0.974  0.4587  0.3307  0.1088
  137MOL0    Cl18813  11.954   0.627   0.876  0.3259  0.0612  0.3034
  137MOL0     C18814  12.161   0.760   0.406 -0.1528 -0.2945  0.4025
  137MOL0     C18815  12.066   0.661   0.433  1.4788 -0.7309  0.9646
  137MOL0     O18816  11.719   0.726   0.421  0.1976 -0.6420 -0.5816
  137MOL0     C18817  11.672   0.409   0.595  0.3765 -0.0823 -0.4858
  137MOL0     C18818  11.578   0.321   0.640 -0.5134 -1.3228 -0.3925
  137MOL0     N18819  10.996   0.350   1.007 -0.7785  0.8698 -0.2002
  137MOL0     N18820  10.946   0.448   1.073 -0.1594  0.1106  0.3669
  137MOL0     C18821  10.920   1.738   0.916  0.0180  0.3765  0.3388
  137MOL0     C18822  10.844   1.850   0.867  0.2127  0.5949  0.2172
  137MOL0     C18823  10.531   2.085   0.616 -0.4099 -0.2635  0.5225
  137MOL0     C18824  10.616   2.189   0.592 -0.3741 -1.2018 -0.4477
  137MOL0     C18825  10.564   2.322   0.579 -0.0086 -0.0176 -0.2086
  137MOL0     C18826  10.431   2.352   0.575 -0.2097 -0.0121  0.9836
  137MOL0     O18827  10.381   2.481   0.546 -0.2816  0.3662 -0.6339
  137MOL0     C18828  10.447   2.547   0.436  0.6097  0.0300  0.0745
  137MOL0     C18829  10.351   2.646   0.382 -0.2701  0.4313 -0.7812
  137MOL0     C18830  10.414   2.760   0.303 -1.0151 -0.0246  0.2556
  137MOL0     C18831  10.311   2.879   0.282 -0.2091  0.3541  0.0605
  137MOL0     C18832  10.174   2.839   0.253  0.0776 -0.6218 -0.8274
  137MOL0     C18833  10.055   2.820   0.224 -0.2171  0.3254 -0.7374
  137MOL0     C18834  10.345   2.253   0.582  0.0511  0.3198  0.0994
  137MOL0     C18835  10.394   2.118   0.600  0.0820 -0.1530  0.4089
  137MOL0     C18836  10.286   2.016   0.633  0.0304 -0.9679 -0.3930
  137MOL0     H18837  10.787   1.727   0.549  4.3552 -2.2043 -2.0280
  137MOL0     H18838  10.913   1.535   0.640  0.0742  0.1338 -1.8758
  137MOL0     H18839  11.040   1.573   1.089 -2.6469 -0.5481  0.6018
  137MOL0     H18840  11.153   1.458   1.024  0.5853  1.3659 -1.3939
  137MOL0     H18841  10.948   1.369   1.160  0.3954  2.4808  1.2410
  137MOL0     H18842  10.840   1.431   1.031 -1.7337 -0.5267  3.4340
  137MOL0     H18843  10.941   1.287   0.857 -1.1565 -1.6253 -0.6160
  137MOL0     H18844  11.062   1.233   0.976  0.8439  0.2290 -6.8169
  137MOL0     H18845  10.897   1.150   1.120 -1.3062 -1.0818 -0.0424
  137MOL0     H18846  10.757   1.177   1.027  0.2497  3.1591 -0.7030
  137MOL0     H18847  10.988   1.009   0.924  1.2538  2.1930 -0.3346
  137MOL0     H18848  10.838   1.020   0.835  1.2540 -1.1921 -0.0378
  137MOL0     H18849  10.841   0.896   1.121  0.1374  0.8255 -0.0857
  137MOL0     H18850  10.704   0.909   1.003 -0.2249 -1.3429  0.2195
  137MOL0     H18851  10.961   0.768   0.933 -0.2553  0.6006  1.3933
  137MOL0     H18852  10.803   0.757   0.860  1.8231  0.6671 -1.7505
  137MOL0     H18853  10.852   0.656   1.141  1.4686  0.7119 -0.1789
  137MOL0     H18854  10.704   0.656   1.034  0.1176  2.7896  1.0325
  137MOL0     H18855  10.854   0.523   0.771  0.9475 -1.6728 -1.1837
  137MOL0     H18856  11.021   0.362   0.682  2.1019 -1.3612 -0.1463
  137MOL0     H18857  10.908   0.232   0.717  0.9648 -1.0056  1.2737
  137MOL0     H18858  11.191   0.242   0.821 -0.0429 -0.7107  1.6430
  137MOL0     H18859  11.087   0.111   0.856 -0.5342 -0.9010 -0.4498
  137MOL0     H18860  11.231   0.035   0.673 -0.1147 -0.5505 -1.2063
  137MOL0     H18861  11.068   0.088   0.590 -0.1129  1.3497 -1.8605
  137MOL0     H18862  11.249   0.184   0.458 -1.9985  1.3013  0.2255
  137MOL0     H18863  11.185   0.306   0.567 -0.2768 -0.6484  2.3526
  137MOL0     H18864  11.320   0.403   0.438  0.9540 -2.7580 -0.9475
  137MOL0     H18865  11.454   0.708   0.371  0.2663  0.8715 -1.0582
  137MOL0     H18866  11.386   0.578   0.280 -0.4585  0.4919  0.0679
  137MOL0     H18867  11.560   0.607   0.261 -0.5199 -1.1023 -1.5098
  137MOL0     H18868  11.885   0.853   0.654  0.8227  3.2437 -0.8074
  137MOL0     H18869  12.056   1.008   0.588 -0.0944 -0.1171  1.0119
  137MOL0     H18870  12.408   0.924   0.327  2.9979  2.6823  0.7571
  137MOL0     H18871  12.439   1.041   0.435 -0.9715  1.0583  3.1754
  137MOL0     H18872  12.413   0.745   0.504 -2.3979  2.2253 -2.3038
  137MOL0     H18873  12.558   0.839   0.500 -0.3233  1.6864 -0.4773
  137MOL0     H18874  12.337   0.895   0.703 -1.4509 -2.9885 -0.9609
  137MOL0     H18875  12.511   0.948   0.702  0.8541 -0.4870 -0.8419
  137MOL0     H18876  12.495   0.801   0.862 -3.9363  2.8259 -0.7454
  137MOL0     H18877  12.600   0.721   0.733  1.5730  0.2115  2.4592
  137MOL0     H18878  12.386   0.572   0.694  2.6640 -0.7383 -0.8618
  137MOL0     H18879  12.477   0.534   0.831 -0.8562 -2.1530 -2.1175
  137MOL0     H18880  12.224   0.712   0.803 -0.8723 -2.4820 -1.6178
  137MOL0     H18881  12.311   0.701   0.959  1.0231  0.3469  0.0276
  137MOL0     H18882  12.262   0.439   0.947  0.5370 -0.7241 -2.9658
  137MOL0     H18883  12.175   0.463   0.800 -2.5122  1.2630  0.3145
  137MOL0     H18884  12.086   0.568   1.075  1.1474 -1.3636  0.7363
  137MOL0     H18885  12.021   0.430   0.985 -0.3228  0.9244  2.4349
  137MOL0     H18886  12.239   0.739   0.333 -0.5417 -1.4997  0.3182
  137MOL0     H18887  12.066   0.564   0.386  2.5711 -0.4093  0.2567
  137MOL0     H18888  11.765   0.418   0.650  0.9017  0.5524 -1.4408
  137MOL0     H18889  11.606   0.247   0.714  1.6713 -0.9717 -0.8042
  137MOL0     H18890  10.949   1.742   1.021 -0.9049 -0.0664  0.6260
  137MOL0     H18891  10.826   1.936   0.931  0.3203  1.7568 -1.2687
  137MOL0     H18892  10.722   2.167   0.596 -0.4710 -1.5112  1.6520
  137MOL0     H18893  10.641   2.398   0.569  2.0640 -1.9359  0.5115
  137MOL0     H18894  10.545   2.583   0.466  0.4244 -1.1623  2.4171
  137MOL0     H18895  10.457   2.476   0.354  0.1842 -0.8591  0.7662
  137MOL0     H18896  10.289   2.689   0.461  0.6999  1.7187 -0.6754
  137MOL0     H18897  10.286   2.595   0.309 -1.7696 -0.5255  1.1387
  137MOL0     H18898  10.503   2.796   0.357  0.3381 -4.4301  1.3993
  137MOL0     H18899  10.457   2.729   0.208  0.0247  2.1867 -0.0650
  137MOL0     H18900  10.349   2.933   0.195  0.3974  0.0188  0.1138
  137MOL0     H18901  10.314   2.951   0.365 -1.2396 -1.8986  2.1867
  137MOL0     H18902   9.955   2.786   0.210 -0.2077 -0.0638  0.0853
  137MOL0     H18903  10.240   2.278   0.575 -0.1082 -0.2131  0.5931
  137MOL0     H18904  10.296   1.926   0.571 -0.4842 -0.3708 -1.3768
  137MOL0     H18905  10.293   1.983   0.737  1.9385 -0.1707 -0.2252
  137MOL0     H18906  10.188   2.058   0.611  0.5219  0.3358 -0.1501
  138MOL0     O18907   0.398   9.578   4.856 -0.0811  0.0710  1.0141
  138MOL0     C18908   0.355   9.463   4.829 -0.4046  0.2205  0.0620
  138MOL0     O18909   0.435   9.347   4.811 -0.1897  0.2784 -0.2096
  138MOL0     C18910   0.572   9.348   4.838 -0.7913 -0.8967  1.1985
  138MOL0     C18911   0.640   9.399   4.951  0.1305  0.3259 -0.4023
  138MOL0     C18912   0.776   9.369   4.963 -0.3940 -0.3888 -0.0139
  138MOL0     C18913   0.851   9.296   4.871 -0.6624  0.1372  0.3447
  138MOL0     O18914   0.987   9.266   4.901  0.2684  0.0869  0.9181
  138MOL0     C18915   1.050   9.151   4.839  0.2611 -0.4242  0.5029
  138MOL0     C18916   1.197   9.179   4.813 -0.1445  1.0202 -0.4332
  138MOL0     C18917   1.270   9.177   4.946 -0.6370 -0.5960  0.5025
  138MOL0     C18918   1.415   9.220   4.931 -0.7313  0.2311 -0.6354
  138MOL0     C18919   1.431   9.367   4.949 -0.4342 -0.1233  0.3660
  138MOL0     C18920   1.580   9.406   4.917  0.5258 -0.7378  0.0531
  138MOL0     C18921   1.620   9.543   4.963 -0.5536 -0.1000 -0.4105
  138MOL0     C18922   1.769   9.571   4.954  0.2750 -0.3752 -0.0447
  138MOL0     N18923   1.811   9.584   4.818  0.4864  0.7162  0.6582
  138MOL0     C18924   1.806   9.700   4.739  0.6013 -0.2999  1.1259
  138MOL0     C18925   1.845   9.650   4.618 -0.1220 -0.2696  0.4846
  138MOL0     C18926   1.880   9.714   4.488  0.6415 -1.5491  0.4915
  138MOL0     C18927   1.762   9.814   4.454 -0.9286  0.7037 -0.3010
  138MOL0     C18928   1.775   9.865   4.311 -0.2900 -0.2155  0.8298
  138MOL0     C18929   1.646   9.935   4.268  0.8819 -0.5227  0.5730
  138MOL0     O18930   1.643  10.067   4.325 -0.1766 -0.1094 -0.5147
  138MOL0     C18931   1.537  10.155   4.293 -0.0692 -0.5061  0.4204
  138MOL0     C18932   1.415  10.125   4.225 -0.3375  1.3521  0.0099
  138MOL0     C18933   1.307  10.210   4.204 -0.8045  0.7967 -0.7908
  138MOL0     C18934   1.181  10.152   4.130  0.1754 -0.2521 -0.5265
  138MOL0     C18935   1.319  10.347   4.249 -0.0462  0.1176 -0.2751
  138MOL0     C18936   1.213  10.449   4.240  0.4564  0.0811 -0.2192
  138MOL0     O18937   1.224  10.561   4.312  0.1804  1.0328 -0.1929
  138MOL0     C18938   1.154  10.673   4.280  0.5960  0.5756  0.3819
  138MOL0     C18939   1.215  10.764   4.197 -0.3916 -0.7893  0.0369
  138MOL0     C18940   1.155  10.883   4.172 -0.2434  0.3264  0.0025
  138MOL0     C18941   1.034  10.916   4.226 -0.2393 -1.1883  0.5286
  138MOL0     O18942   0.961  11.025   4.180  0.9205 -0.0205 -0.2622
  138MOL0     C18943   1.019  11.150   4.140  0.4372 -0.3130  0.0674
  138MOL0     C18944   0.924  11.256   4.190  0.6042 -0.5608 -0.2695
  138MOL0     C18945   0.933  11.265   4.342 -0.0163  0.2884 -0.2015
  138MOL0     C18946   0.832  11.373   4.394  0.7637 -0.8219 -0.2536
  138MOL0     C18947   0.834  11.403   4.544 -0.4000 -0.3876 -0.2546
  138MOL0     C18948   0.719  11.486   4.612 -0.0317 -0.2744  0.1382
  138MOL0     C18949   0.717  11.497   4.764 -0.4545  0.3145 -0.0203
  138MOL0     C18950   0.710  11.356   4.827  0.6600  0.0373 -0.3624
  138MOL0    Cl18951   0.856  11.239   4.829  0.1247 -0.2790  0.5298
  138MOL0     C18952   0.966  10.825   4.306  0.4258  0.4976 -0.0214
  138MOL0     C18953   1.027  10.703   4.332  0.0476 -0.3661 -0.3395
  138MOL0     O18954   1.128  10.431   4.159 -0.7308  0.3853 -0.1951
  138MOL0     C18955   1.441  10.380   4.316 -0.1357  0.7654 -0.7699
  138MOL0     C18956   1.542  10.286   4.335 -0.3038 -0.6268 -0.4090
  138MOL0     N18957   1.862   9.512   4.622  0.5390  0.7201 -0.2768
  138MOL0     N18958   1.824   9.472   4.738  0.2913  0.0853  0.2049
  138MOL0     C18959   0.780   9.254   4.757 -0.1086  0.8768  1.5877
  138MOL0     C18960   0.643   9.266   4.754  0.4005 -0.1669 -0.8337
  138MOL0     C18961   0.210   9.443   4.797  0.1218 -0.1154  0.3883
  138MOL0     C18962   0.176   9.322   4.736  0.0476  0.4156  0.4203
  138MOL0     C18963   0.040   9.301   4.698  0.4067 -0.2282 -0.9201
  138MOL0     C18964  -0.064   9.399   4.733  0.8477 -0.6536 -0.0301
  138MOL0     O18965  -0.199   9.387   4.707 -0.5059  0.2309 -0.0893
  138MOL0     C18966  -0.249   9.266   4.658  0.3595 -0.1518 -0.5716
  138MOL0     C18967  -0.260   9.267   4.506  0.3692  0.3223  0.0407
  138MOL0     C18968  -0.324   9.145   4.433 -0.2892 -0.3914  0.3321
  138MOL0     C18969  -0.258   9.015   4.485 -0.2587 -0.4062  0.9106
  138MOL0     C18970  -0.303   8.902   4.410  0.8682  0.1765 -0.2741
  138MOL0     C18971  -0.350   8.810   4.347 -0.2460  0.4645 -0.7881
  138MOL0     C18972  -0.024   9.526   4.787 -0.7863  0.6058  0.2232
  138MOL0     C18973   0.116   9.541   4.822  1.0187 -0.4420  0.8380
  138MOL0     C18974   0.140   9.677   4.893  0.0172  0.3370  0.4098
  138MOL0     H18975   0.587   9.460   5.025  3.7427  0.4612  2.3633
  138MOL0     H18976   0.824   9.396   5.056 -2.5419 -0.1299  1.0861
  138MOL0     H18977   0.996   9.116   4.751 -0.9077  0.2981  0.8983
  138MOL0     H18978   1.037   9.066   4.906  0.7337 -0.6681  0.2812
  138MOL0     H18979   1.242   9.103   4.748 -1.0380  0.7145 -0.7061
  138MOL0     H18980   1.198   9.281   4.774  0.7200  1.1022 -0.2200
  138MOL0     H18981   1.214   9.243   5.013 -1.9574 -1.1732 -0.0070
  138MOL0     H18982   1.263   9.073   4.980 -0.7214 -1.4725 -1.9749
  138MOL0     H18983   1.471   9.170   5.011 -2.8438 -0.2821  0.6168
  138MOL0     H18984   1.456   9.181   4.838  0.5072 -0.3200  0.1150
  138MOL0     H18985   1.400   9.397   5.049 -3.5632  2.2019 -1.1406
  138MOL0     H18986   1.370   9.423   4.878  2.2616  3.3668  0.5324
  138MOL0     H18987   1.649   9.332   4.958 -1.0695 -1.1323  2.2072
  138MOL0     H18988   1.587   9.401   4.808 -1.8717  1.9357 -0.3518
  138MOL0     H18989   1.585   9.558   5.065 -1.3730  0.1133 -0.7084
  138MOL0     H18990   1.574   9.617   4.897 -0.1560  0.4905 -0.0325
  138MOL0     H18991   1.794   9.669   4.995 -3.5545  0.8578 -0.2401
  138MOL0     H18992   1.823   9.489   5.003 -1.6511 -1.7745 -0.1429
  138MOL0     H18993   1.771   9.798   4.767 -0.9395  0.8454 -3.8361
  138MOL0     H18994   1.889   9.645   4.404 -1.0236 -0.5648 -0.5379
  138MOL0     H18995   1.975   9.767   4.499  0.5397 -1.2499 -0.0450
  138MOL0     H18996   1.679   9.744   4.461 -0.1222 -0.5867 -2.4752
  138MOL0     H18997   1.749   9.901   4.519  2.3297  0.1816  1.2513
  138MOL0     H18998   1.866   9.924   4.297  1.6673 -2.6525  2.4012
  138MOL0     H18999   1.783   9.773   4.254  0.1126  1.0738 -1.3232
  138MOL0     H19000   1.638   9.944   4.159  2.3406  0.1867  0.5100
  138MOL0     H19001   1.563   9.876   4.308  0.3808 -0.2227  0.0034
  138MOL0     H19002   1.402  10.021   4.195 -0.2153  0.7198  2.0102
  138MOL0     H19003   1.152  10.214   4.044  0.6450 -0.0492 -0.5401
  138MOL0     H19004   1.098  10.152   4.202  0.3086  0.2512 -0.3671
  138MOL0     H19005   1.198  10.047   4.105 -0.0547 -0.1751 -1.0230
  138MOL0     H19006   1.312  10.742   4.152 -0.4415  0.4089 -0.7066
  138MOL0     H19007   1.201  10.957   4.106  1.2929 -0.7823 -0.2107
  138MOL0     H19008   1.114  11.170   4.192  1.0956  2.2437 -1.9191
  138MOL0     H19009   1.039  11.149   4.033  0.2568  0.8768  0.0061
  138MOL0     H19010   0.942  11.354   4.145  1.5708 -1.2405 -1.4420
  138MOL0     H19011   0.822  11.226   4.164 -0.1025  0.3034  1.3443
  138MOL0     H19012   1.039  11.279   4.366  0.2066  3.9854 -2.5075
  138MOL0     H19013   0.908  11.170   4.389 -4.3739  0.9375 -0.8323
  138MOL0     H19014   0.734  11.355   4.349  0.5873 -0.2809 -0.0866
  138MOL0     H19015   0.867  11.464   4.344 -0.6567 -0.4690 -0.6508
  138MOL0     H19016   0.842  11.308   4.597 -0.3785  0.4391  1.2710
  138MOL0     H19017   0.934  11.443   4.558 -0.3553 -0.5235 -0.1858
  138MOL0     H19018   0.622  11.444   4.584 -1.2375  0.0098  3.4666
  138MOL0     H19019   0.722  11.587   4.568  2.5525 -1.1143 -1.8878
  138MOL0     H19020   0.629  11.549   4.801 -0.0420  1.7347 -0.9544
  138MOL0     H19021   0.804  11.558   4.788 -0.7760  0.9334 -0.4103
  138MOL0     H19022   0.622  11.310   4.781 -0.0402  1.5141 -0.5337
  138MOL0     H19023   0.686  11.371   4.932  0.7090  1.4271 -0.5353
  138MOL0     H19024   0.869  10.851   4.348  0.2333 -0.4182  0.1382
  138MOL0     H19025   0.985  10.635   4.405  2.4857  1.3941  2.9879
  138MOL0     H19026   1.467  10.482   4.343  2.9797 -0.3276  0.9325
  138MOL0     H19027   1.631  10.330   4.378 -0.8043  1.0449 -0.9760
  138MOL0     H19028   0.826   9.199   4.676 -1.7219  3.1142 -1.0061
  138MOL0     H19029   0.585   9.217   4.676 -0.0332 -0.2923 -0.4347
  138MOL0     H19030   0.245   9.240   4.718  0.9689  0.9202  1.5656
  138MOL0     H19031   0.015   9.205   4.654  0.6279 -1.9881  2.4248
  138MOL0     H19032  -0.198   9.181   4.704  1.9715  1.4526  0.7084
  138MOL0     H19033  -0.354   9.265   4.692  0.7782 -2.0291  0.8555
  138MOL0     H19034  -0.159   9.283   4.466 -0.4063  3.1345 -1.0001
  138MOL0     H19035  -0.314   9.357   4.477 -0.1675 -0.6195 -2.0604
  138MOL0     H19036  -0.430   9.137   4.458 -0.5588 -0.4536 -0.7477
  138MOL0     H19037  -0.309   9.159   4.325 -1.5361  0.6468  0.2627
  138MOL0     H19038  -0.277   8.993   4.590 -0.0005 -1.7838  0.6818
  138MOL0     H19039  -0.151   9.034   4.472 -0.9367  3.6697 -0.0551
  138MOL0     H19040  -0.373   8.716   4.299 -1.6655  0.0784  0.5736
  138MOL0     H19041  -0.101   9.601   4.798 -1.7346 -0.1913 -0.7567
  138MOL0     H19042   0.217   9.733   4.839  1.0227 -0.6640  0.7647
  138MOL0     H19043   0.056   9.748   4.894  0.2092  0.5612  1.5382
  138MOL0     H19044   0.180   9.654   4.992  0.3659 -2.7387 -0.3534
  139MOL0     O19045   9.295   7.463   1.718  0.4839  0.1766  1.1749
  139MOL0     C19046   9.367   7.364   1.703  0.5704 -0.8551 -0.1268
  139MOL0     O19047   9.502   7.375   1.656 -0.4388  0.3254 -0.4811
  139MOL0     C19048   9.536   7.481   1.580  0.2396 -0.1189  1.0876
  139MOL0     C19049   9.587   7.595   1.643  0.3255 -0.3389  0.6325
  139MOL0     C19050   9.620   7.707   1.564  0.6058  0.5653 -0.1260
  139MOL0     C19051   9.607   7.710   1.422 -0.2034 -0.0071  0.2476
  139MOL0     O19052   9.634   7.814   1.338  0.0788  0.5539 -0.4766
  139MOL0     C19053   9.722   7.918   1.395  0.4651 -0.2993 -0.5055
  139MOL0     C19054   9.716   8.046   1.304 -0.7584 -0.7882 -0.7156
  139MOL0     C19055   9.582   8.122   1.300  0.1430 -0.1466  0.5825
  139MOL0     C19056   9.489   8.068   1.182 -0.0043 -0.3912 -0.5159
  139MOL0     C19057   9.353   8.150   1.159 -0.7146 -0.7472  0.2227
  139MOL0     C19058   9.262   8.087   1.058 -0.1147  0.3634 -0.1156
  139MOL0     C19059   9.136   8.170   1.042  0.4148  0.2493  0.3792
  139MOL0     C19060   9.054   8.118   0.922 -0.3665  0.6218  0.8890
  139MOL0     N19061   9.126   8.105   0.794 -0.2254  0.5265 -0.1456
  139MOL0     C19062   9.140   8.211   0.717 -0.2911 -0.8318 -0.1865
  139MOL0     C19063   9.196   8.161   0.599  0.0627  0.2769 -0.5246
  139MOL0     C19064   9.248   8.255   0.495 -0.3859 -0.3548 -0.2744
  139MOL0     C19065   9.229   8.182   0.361  0.5632  0.1458 -1.0464
  139MOL0     C19066   9.293   8.260   0.243  0.2070  0.0573  0.3970
  139MOL0     C19067   9.317   8.158   0.124  0.2010  0.2866  0.2774
  139MOL0     O19068   9.193   8.121   0.053  0.9025 -0.2484  0.4917
  139MOL0     C19069   9.147   8.216  -0.036 -0.4060 -0.1103  1.4512
  139MOL0     C19070   9.033   8.183  -0.107 -0.4992 -1.1035 -1.5956
  139MOL0     C19071   8.988   8.265  -0.211 -0.4535  0.0844 -0.2976
  139MOL0     C19072   8.869   8.208  -0.277 -0.0709  0.9741  0.0418
  139MOL0     C19073   9.057   8.382  -0.253  0.3949  0.1796  0.0461
  139MOL0     C19074   9.011   8.475  -0.356  0.3523  0.2113  0.0743
  139MOL0     O19075   8.973   8.421  -0.472 -0.1834 -0.1474  0.2747
  139MOL0     C19076   8.898   8.502  -0.558  0.5059 -0.0436  0.0009
  139MOL0     C19077   8.761   8.486  -0.561  1.0171  0.1358  0.5573
  139MOL0     C19078   8.679   8.576  -0.631  0.0381  0.0702 -0.5105
  139MOL0     C19079   8.734   8.683  -0.706 -0.7653 -0.0011  0.9339
  139MOL0     O19080   8.644   8.758  -0.771  0.3165 -0.3483 -0.1751
  139MOL0     C19081   8.697   8.862  -0.852 -0.6405 -0.4539  0.1606
  139MOL0     C19082   8.587   8.943  -0.919  0.0395  0.4743  0.3036
  139MOL0     C19083   8.464   8.874  -0.968 -0.0261  0.1713 -1.0998
  139MOL0     C19084   8.373   8.981  -1.040 -0.7639  0.2042  0.1606
  139MOL0     C19085   8.247   8.912  -1.100  0.1741 -0.7024  0.5302
  139MOL0     C19086   8.148   9.021  -1.140  0.2981 -1.0326 -0.6041
  139MOL0     C19087   8.027   8.974  -1.213  0.8068  0.6869  0.1922
  139MOL0     C19088   7.946   9.088  -1.263 -0.1032  0.1270  0.5477
  139MOL0    Cl19089   7.799   9.032  -1.358 -0.0979 -0.1465  0.0405
  139MOL0     C19090   8.876   8.693  -0.707  0.5337 -0.4355 -0.0865
  139MOL0     C19091   8.954   8.603  -0.636 -0.3599 -0.2541 -1.1657
  139MOL0     O19092   9.005   8.600  -0.329  0.3217  0.3213 -0.4966
  139MOL0     C19093   9.179   8.402  -0.199  0.5869  0.8244 -0.0434
  139MOL0     C19094   9.219   8.324  -0.087 -0.3662  0.0867  0.2429
  139MOL0     N19095   9.216   8.024   0.612 -0.7968 -0.7564  0.3090
  139MOL0     N19096   9.162   7.991   0.724 -0.5127 -0.1238  0.3581
  139MOL0     C19097   9.558   7.591   1.360 -0.7764  0.2277 -0.6833
  139MOL0     C19098   9.525   7.480   1.440 -0.3824  0.6483  0.7038
  139MOL0     C19099   9.336   7.240   1.776 -0.3664  0.4071 -0.4554
  139MOL0     C19100   9.442   7.139   1.789  0.2495  0.2407  0.0204
  139MOL0     C19101   9.412   7.012   1.841  0.1628 -0.1466 -0.5449
  139MOL0     C19102   9.290   6.987   1.901 -0.7734 -0.4252  0.1967
  139MOL0     O19103   9.273   6.873   1.973 -0.4917 -0.3999 -0.0413
  139MOL0     C19104   9.180   6.773   1.925  0.4700 -0.6446  0.2088
  139MOL0     C19105   9.213   6.702   1.793 -0.3119  0.5884  0.9963
  139MOL0     C19106   9.306   6.585   1.793  0.0643  0.8149 -1.0846
  139MOL0     C19107   9.444   6.615   1.868 -0.2517 -0.9846  0.5165
  139MOL0     C19108   9.547   6.510   1.860  0.6836 -0.0583 -0.4184
  139MOL0     C19109   9.631   6.422   1.850  0.1527  0.1959  0.5401
  139MOL0     C19110   9.184   7.078   1.893 -0.3885  0.3237 -0.7180
  139MOL0     C19111   9.209   7.205   1.834 -0.3780  0.4996 -0.1373
  139MOL0     C19112   9.093   7.305   1.830 -0.6225  0.3319 -0.3486
  139MOL0     H19113   9.595   7.593   1.751 -0.6849 -0.7254  0.7040
  139MOL0     H19114   9.643   7.793   1.627  0.9892 -0.1256  0.7033
  139MOL0     H19115   9.822   7.877   1.405  1.8701  3.2895  2.9529
  139MOL0     H19116   9.692   7.953   1.495  0.9618  2.8566 -1.3335
  139MOL0     H19117   9.784   8.117   1.351 -1.5191 -0.3280 -0.2985
  139MOL0     H19118   9.769   8.012   1.214  2.2822 -1.4336  1.1718
  139MOL0     H19119   9.530   8.107   1.395 -0.3105 -0.9149  0.2225
  139MOL0     H19120   9.606   8.225   1.273 -4.2547  0.5959 -1.4065
  139MOL0     H19121   9.553   8.063   1.093  1.9967  0.3825  0.8049
  139MOL0     H19122   9.450   7.973   1.220 -0.0188  0.3336  1.4081
  139MOL0     H19123   9.368   8.255   1.135 -0.1562 -0.8274  0.2080
  139MOL0     H19124   9.296   8.149   1.252 -2.2975  0.5622 -0.6913
  139MOL0     H19125   9.314   8.088   0.961 -1.3239  1.4537 -0.7789
  139MOL0     H19126   9.236   7.985   1.087  2.0806 -0.0998  0.4520
  139MOL0     H19127   9.156   8.278   1.039  1.8717 -0.0160 -2.0572
  139MOL0     H19128   9.077   8.156   1.133  0.3992  2.1212  0.7118
  139MOL0     H19129   9.009   8.021   0.945 -2.4300  0.9608 -1.3136
  139MOL0     H19130   8.968   8.185   0.910 -0.6367  0.6667  2.8321
  139MOL0     H19131   9.122   8.315   0.743  1.0653 -1.3118  3.0747
  139MOL0     H19132   9.354   8.273   0.517 -1.3567  4.2777  1.8982
  139MOL0     H19133   9.196   8.351   0.485 -0.6053 -0.3995  0.3624
  139MOL0     H19134   9.267   8.079   0.365 -1.7426 -0.7189  1.3899
  139MOL0     H19135   9.120   8.175   0.350  0.6054 -2.0247 -0.6239
  139MOL0     H19136   9.225   8.337   0.206 -1.5957 -1.3681  0.5917
  139MOL0     H19137   9.388   8.306   0.273 -0.0434  1.1266 -0.3693
  139MOL0     H19138   9.393   8.199   0.057  0.4879  0.1556  0.5203
  139MOL0     H19139   9.359   8.062   0.155  0.7627  0.2108 -0.7006
  139MOL0     H19140   8.979   8.093  -0.080 -4.7822  1.7739  0.4566
  139MOL0     H19141   8.819   8.272  -0.350  1.0260  0.0332 -1.6079
  139MOL0     H19142   8.792   8.190  -0.201  1.6069 -2.4832  1.1375
  139MOL0     H19143   8.904   8.117  -0.326  0.7513  0.7051  1.0894
  139MOL0     H19144   8.718   8.404  -0.504  2.0057 -0.7606  0.0476
  139MOL0     H19145   8.574   8.550  -0.644 -0.3410  1.7629 -1.0457
  139MOL0     H19146   8.748   8.930  -0.783  1.4404  1.7620 -3.2193
  139MOL0     H19147   8.765   8.811  -0.920  1.3697 -1.5356  2.7950
  139MOL0     H19148   8.564   9.012  -0.838 -0.1310 -1.4843  2.0116
  139MOL0     H19149   8.622   9.001  -1.005  3.5876 -0.4173  0.9745
  139MOL0     H19150   8.413   8.839  -0.878  2.4348  2.6744  1.5037
  139MOL0     H19151   8.496   8.792  -1.032  0.4995 -0.2032 -0.3797
  139MOL0     H19152   8.426   9.033  -1.121 -0.2201  1.6205  1.3769
  139MOL0     H19153   8.345   9.056  -0.965 -0.4262  0.6781 -0.1771
  139MOL0     H19154   8.282   8.862  -1.191 -2.6576 -1.1051 -0.4626
  139MOL0     H19155   8.202   8.841  -1.030 -0.2695  1.7878  2.9291
  139MOL0     H19156   8.195   9.091  -1.210 -1.6249 -1.1262 -2.0574
  139MOL0     H19157   8.100   9.070  -1.055 -4.0557 -1.0267 -2.7604
  139MOL0     H19158   7.962   8.908  -1.154  1.6733 -1.0231 -0.6698
  139MOL0     H19159   8.049   8.913  -1.302  0.5005  2.0517 -0.8534
  139MOL0     H19160   8.014   9.151  -1.321 -2.1832  1.6099 -0.4050
  139MOL0     H19161   7.908   9.150  -1.181  0.2896  2.3070 -0.8236
  139MOL0     H19162   8.931   8.771  -0.757  2.7312 -1.6013  0.3534
  139MOL0     H19163   9.061   8.615  -0.635 -0.1292 -1.8908  1.8123
  139MOL0     H19164   9.234   8.485  -0.243 -0.3011  0.9624 -0.9326
  139MOL0     H19165   9.300   8.360  -0.024  0.7663 -0.2048 -0.9927
  139MOL0     H19166   9.535   7.575   1.256 -1.7975 -0.2695 -0.3951
  139MOL0     H19167   9.490   7.387   1.397  0.0555  1.1951 -0.9402
  139MOL0     H19168   9.540   7.155   1.747 -0.9829  3.3756 -1.9926
  139MOL0     H19169   9.489   6.936   1.842 -0.4598 -0.7844 -0.2584
  139MOL0     H19170   9.164   6.705   2.009  2.0880 -0.9661  0.2819
  139MOL0     H19171   9.082   6.819   1.907  1.3557  0.5690 -1.8181
  139MOL0     H19172   9.267   6.768   1.725  1.9222 -0.8169  1.3024
  139MOL0     H19173   9.114   6.677   1.754  0.1004 -0.1439  0.3933
  139MOL0     H19174   9.264   6.502   1.850  0.1061  1.5492  0.0650
  139MOL0     H19175   9.335   6.561   1.690  6.1080 -1.8771  0.7936
  139MOL0     H19176   9.421   6.646   1.971 -2.0946  1.0285 -0.4168
  139MOL0     H19177   9.494   6.706   1.833 -1.2693 -0.6973 -0.2415
  139MOL0     H19178   9.707   6.348   1.840 -1.2277 -1.1446 -0.3335
  139MOL0     H19179   9.086   7.055   1.933  0.5055 -1.2041  0.6998
  139MOL0     H19180   9.135   7.393   1.879  0.5669 -0.5906  0.3477
  139MOL0     H19181   9.062   7.323   1.727 -0.1341 -1.2562 -0.7994
  139MOL0     H19182   9.007   7.273   1.890  0.0043 -1.1229 -0.1793
  140MOL0     O19183   7.015   0.037   7.444 -0.5609  0.2508  0.1071
  140MOL0     C19184   7.094   0.019   7.346 -0.1717 -1.1156  0.7241
  140MOL0     O19185   7.187   0.112   7.307 -0.4765  0.1868 -0.2322
  140MOL0     C19186   7.195   0.219   7.399  0.0272 -0.7402  0.5561
  140MOL0     C19187   7.284   0.212   7.499 -0.0822 -0.4172 -0.2244
  140MOL0     C19188   7.295   0.314   7.594 -0.5776  0.2124 -0.7049
  140MOL0     C19189   7.243   0.441   7.572 -0.1129 -0.0149  0.1312
  140MOL0     O19190   7.261   0.539   7.663  0.3749 -0.0280  0.3377
  140MOL0     C19191   7.373   0.528   7.746  0.4153 -0.9937 -0.1584
  140MOL0     C19192   7.388   0.650   7.821 -0.4342 -0.3853  0.2908
  140MOL0     C19193   7.403   0.775   7.733  0.9351 -0.4979 -0.1374
  140MOL0     C19194   7.421   0.903   7.807 -0.0150 -0.3099  0.1112
  140MOL0     C19195   7.554   0.919   7.879  0.1436  0.4052 -0.2185
  140MOL0     C19196   7.676   0.892   7.800  0.3038  0.0306  0.3513
  140MOL0     C19197   7.809   0.959   7.863  0.3787  0.1348  0.4944
  140MOL0     C19198   7.945   0.926   7.793  0.3712 -0.2100 -0.3699
  140MOL0     N19199   8.047   0.906   7.898 -0.0354 -0.2325 -0.2724
  140MOL0     C19200   8.057   0.806   7.986  0.8459  0.1206  0.2442
  140MOL0     C19201   8.152   0.849   8.074  1.1697 -0.3693 -0.2385
  140MOL0     C19202   8.200   0.790   8.208  0.1640 -0.5456 -0.1817
  140MOL0     C19203   8.156   0.879   8.329 -0.0609  0.7474 -0.3702
  140MOL0     C19204   8.185   0.804   8.457  0.1119  0.1438  1.0558
  140MOL0     C19205   8.137   0.876   8.576 -0.3242  0.2420  0.1635
  140MOL0     O19206   8.186   0.812   8.694 -0.9254  0.1877  0.8617
  140MOL0     C19207   8.238   0.897   8.785 -0.5305  0.1843  0.2504
  140MOL0     C19208   8.192   0.886   8.915  0.1898 -0.4865  0.6111
  140MOL0     C19209   8.226   0.978   9.017  0.4452  0.5476  0.6358
  140MOL0     C19210   8.176   0.954   9.161  0.6231  0.2897 -0.1733
  140MOL0     C19211   8.308   1.091   8.983 -0.1898  0.6070 -0.6703
  140MOL0     C19212   8.342   1.208   9.069 -0.3383  0.2464 -0.1920
  140MOL0     O19213   8.450   1.290   9.040 -0.3543 -0.0497 -0.3447
  140MOL0     C19214   8.468   1.414   9.108 -0.1776  0.5535  0.0644
  140MOL0     C19215   8.589   1.441   9.167  0.1931  0.4046 -0.0222
  140MOL0     C19216   8.611   1.559   9.241 -0.1210 -0.3573  0.2983
  140MOL0     C19217   8.518   1.655   9.259 -0.1907 -0.0106  0.0862
  140MOL0     O19218   8.530   1.772   9.319 -0.0943 -1.0385  0.0583
  140MOL0     C19219   8.630   1.793   9.416  0.3195  0.5226 -0.7904
  140MOL0     C19220   8.564   1.783   9.548 -1.0704 -0.2138 -0.6608
  140MOL0     C19221   8.494   1.655   9.577 -0.0314 -0.9724 -1.0684
  140MOL0     C19222   8.450   1.657   9.728  0.1820  0.4815  0.3201
  140MOL0     C19223   8.381   1.523   9.761 -0.0454  0.4196 -0.7542
  140MOL0     C19224   8.328   1.516   9.904  0.2769  0.2331  1.6801
  140MOL0     C19225   8.434   1.518  10.013  0.3442  0.2806  0.6299
  140MOL0     C19226   8.392   1.617  10.131  0.7542 -0.0851  0.4455
  140MOL0    Cl19227   8.431   1.780  10.070 -0.6288 -0.0483 -0.5321
  140MOL0     C19228   8.399   1.633   9.194 -0.6570  0.1015  0.4937
  140MOL0     C19229   8.373   1.514   9.119 -0.2503  0.2224  0.5411
  140MOL0     O19230   8.256   1.236   9.154 -0.0636 -0.2204  0.5818
  140MOL0     C19231   8.368   1.091   8.856 -0.4268  0.0452  0.5285
  140MOL0     C19232   8.334   0.991   8.762 -0.2298 -0.2794  0.8147
  140MOL0     N19233   8.207   0.964   8.025 -0.2622 -0.1409  0.0972
  140MOL0     N19234   8.139   0.995   7.926 -0.2014  0.4387  0.8370
  140MOL0     C19235   7.144   0.450   7.473  0.5107  0.3993 -0.0810
  140MOL0     C19236   7.120   0.339   7.386 -1.1741  0.2220  0.1870
  140MOL0     C19237   7.085  -0.110   7.270  0.6878 -0.3052  0.2831
  140MOL0     C19238   7.135  -0.114   7.146 -0.3347  1.1403 -0.1809
  140MOL0     C19239   7.132  -0.234   7.077  0.6707  0.1326 -0.3438
  140MOL0     C19240   7.086  -0.360   7.131  0.7821 -1.3026 -0.2638
  140MOL0     O19241   7.073  -0.466   7.044  0.4230  0.3584 -0.2081
  140MOL0     C19242   7.028  -0.599   7.086  0.3355  0.3920  0.1556
  140MOL0     C19243   7.138  -0.686   7.149 -0.5100 -0.7915  0.8979
  140MOL0     C19244   7.204  -0.625   7.271  0.1244  0.5601 -0.2362
  140MOL0     C19245   7.291  -0.721   7.351 -0.1230 -0.3701 -0.0100
  140MOL0     C19246   7.386  -0.644   7.432 -0.2065 -0.9942  0.5760
  140MOL0     C19247   7.473  -0.586   7.494  0.6828  0.3815 -0.2585
  140MOL0     C19248   7.025  -0.348   7.260  0.0463  0.4389 -0.0045
  140MOL0     C19249   7.031  -0.228   7.334 -0.1487  0.2282  0.2122
  140MOL0     C19250   6.986  -0.238   7.481  0.7417 -0.0529 -0.3142
  140MOL0     H19251   7.332   0.117   7.521 -1.9558 -0.6942  3.5463
  140MOL0     H19252   7.351   0.297   7.686  0.5545  3.4140 -0.6602
  140MOL0     H19253   7.467   0.501   7.697  0.6069 -2.7712  1.0670
  140MOL0     H19254   7.361   0.443   7.814  0.9075 -1.2799 -0.4255
  140MOL0     H19255   7.308   0.668   7.893  1.7558 -0.7905  3.0164
  140MOL0     H19256   7.471   0.630   7.890  0.7872 -1.6286 -1.4574
  140MOL0     H19257   7.482   0.759   7.658  2.6471  0.1506  1.4385
  140MOL0     H19258   7.309   0.788   7.678  2.0262  0.2736 -1.9347
  140MOL0     H19259   7.415   0.987   7.737  0.2211 -0.2926  0.1091
  140MOL0     H19260   7.337   0.919   7.875 -1.2174 -2.5926 -0.7492
  140MOL0     H19261   7.570   0.852   7.964 -0.7874 -1.0415 -1.1446
  140MOL0     H19262   7.554   1.024   7.910  0.5436 -0.0022  1.2080
  140MOL0     H19263   7.689   0.784   7.796  0.4730  0.0859 -1.6791
  140MOL0     H19264   7.659   0.923   7.696 -1.2210 -2.6190 -0.2783
  140MOL0     H19265   7.818   0.929   7.968 -1.2848 -1.6632  0.1730
  140MOL0     H19266   7.793   1.067   7.851 -0.8471 -0.1241 -0.3162
  140MOL0     H19267   7.939   0.842   7.722  1.4499 -0.9896  0.4411
  140MOL0     H19268   7.963   1.007   7.722 -2.4002 -0.9913 -2.1184
  140MOL0     H19269   7.984   0.726   7.983 -0.5445  1.3598 -0.8711
  140MOL0     H19270   8.308   0.773   8.209 -0.1229 -2.8473  1.6026
  140MOL0     H19271   8.159   0.690   8.224 -0.0585 -0.5211 -0.5792
  140MOL0     H19272   8.220   0.968   8.329  2.4038 -0.9137 -0.9025
  140MOL0     H19273   8.051   0.906   8.313 -0.4892  0.1517  1.2450
  140MOL0     H19274   8.136   0.706   8.460 -1.6125  0.7981 -1.8014
  140MOL0     H19275   8.294   0.799   8.460  0.3270  0.5172 -2.4201
  140MOL0     H19276   8.179   0.977   8.570  0.8976 -0.2913 -1.1202
  140MOL0     H19277   8.028   0.876   8.583 -0.2288 -0.5264  3.5346
  140MOL0     H19278   8.122   0.806   8.938 -0.6084 -0.1089 -0.4404
  140MOL0     H19279   8.077   0.997   9.177 -0.3159 -1.6356 -0.4817
  140MOL0     H19280   8.245   0.993   9.236 -1.0135  0.5329  1.2818
  140MOL0     H19281   8.163   0.849   9.187 -2.7301  1.0937  2.0560
  140MOL0     H19282   8.679   1.380   9.172  2.9548  4.1697  4.2169
  140MOL0     H19283   8.710   1.548   9.284  0.2606 -0.6891 -0.6298
  140MOL0     H19284   8.731   1.752   9.412  1.4009  2.6158  2.0812
  140MOL0     H19285   8.642   1.902   9.414  0.6174  0.5082 -0.0094
  140MOL0     H19286   8.644   1.788   9.622 -1.4663 -1.5689 -0.1125
  140MOL0     H19287   8.499   1.870   9.560 -3.2527 -1.7145 -0.9443
  140MOL0     H19288   8.557   1.568   9.553 -3.3500 -3.3250 -1.9627
  140MOL0     H19289   8.400   1.653   9.521 -1.3072 -0.5946  0.9525
  140MOL0     H19290   8.386   1.744   9.741 -0.3185  0.5142 -1.9218
  140MOL0     H19291   8.534   1.675   9.797  1.0361 -2.5441  0.2100
  140MOL0     H19292   8.299   1.495   9.695 -0.6657  0.2773  0.0639
  140MOL0     H19293   8.460   1.447   9.767 -1.0011 -0.6005 -0.7775
  140MOL0     H19294   8.269   1.424   9.914 -1.6513  1.2597  0.5122
  140MOL0     H19295   8.256   1.597   9.921 -1.9142 -1.6269  1.8256
  140MOL0     H19296   8.535   1.540   9.978 -0.2575 -2.0499 -3.0308
  140MOL0     H19297   8.436   1.416  10.051  0.4039  0.5443  1.3586
  140MOL0     H19298   8.449   1.589  10.220 -0.2156 -0.4854  0.9575
  140MOL0     H19299   8.283   1.620  10.143  0.5949  0.2845 -0.9916
  140MOL0     H19300   8.326   1.712   9.208 -2.2808 -1.6121  2.2905
  140MOL0     H19301   8.273   1.500   9.079  0.2129 -1.9441  0.0138
  140MOL0     H19302   8.445   1.164   8.835 -0.2972 -0.2772 -0.1302
  140MOL0     H19303   8.366   0.989   8.658 -3.0063 -0.6620 -0.1209
  140MOL0     H19304   7.093   0.545   7.469 -0.7405 -0.3006 -1.1865
  140MOL0     H19305   7.049   0.341   7.304  0.9646 -2.3175 -1.9083
  140MOL0     H19306   7.187  -0.029   7.103 -1.4413  1.6381 -0.5929
  140MOL0     H19307   7.162  -0.224   6.973  0.6471  2.3652 -0.1770
  140MOL0     H19308   6.954  -0.608   7.165 -0.0345 -0.9913 -0.3174
  140MOL0     H19309   6.978  -0.646   7.001  0.1578  4.3664 -2.1692
  140MOL0     H19310   7.215  -0.696   7.072  0.3114  0.4805  1.5100
  140MOL0     H19311   7.094  -0.781   7.178 -0.4249 -0.9297  0.5774
  140MOL0     H19312   7.267  -0.539   7.245  2.2717 -1.3117 -1.5879
  140MOL0     H19313   7.134  -0.581   7.343  0.9466  1.5790 -0.0373
  140MOL0     H19314   7.343  -0.786   7.280  0.7192 -3.1821  2.9226
  140MOL0     H19315   7.240  -0.786   7.422 -3.4840 -0.4409 -2.2788
  140MOL0     H19316   7.556  -0.529   7.529  2.4827 -1.4094 -1.3833
  140MOL0     H19317   6.960  -0.428   7.295 -0.1396 -0.7098 -2.7209
  140MOL0     H19318   6.877  -0.241   7.474  0.7387 -1.1449  0.0457
  140MOL0     H19319   7.031  -0.326   7.528  0.7403 -0.3611 -0.8841
  140MOL0     H19320   7.016  -0.156   7.547  2.1268 -0.6359 -0.1946
  141MOL0     O19321   0.889  10.988   5.281  0.2190  0.0392  0.0288
  141MOL0     C19322   0.837  10.880   5.257 -0.5184 -0.3813  0.1302
  141MOL0     O19323   0.884  10.755   5.299  0.4260 -0.2804  0.4494
  141MOL0     C19324   1.008  10.740   5.366 -0.1143 -0.4839  0.7573
  141MOL0     C19325   1.051  10.814   5.473  0.2367 -0.7583 -0.2436
  141MOL0     C19326   1.168  10.777   5.539 -0.0540 -0.2453 -1.1323
  141MOL0     C19327   1.258  10.682   5.491  0.4430 -0.9431 -0.0549
  141MOL0     O19328   1.364  10.658   5.562  0.6307  0.1361 -0.8823
  141MOL0     C19329   1.481  10.616   5.488 -0.2464 -0.8547 -0.1983
  141MOL0     C19330   1.604  10.703   5.526 -0.6513 -0.1370 -0.0286
  141MOL0     C19331   1.588  10.857   5.528 -0.2178  0.2598  0.1461
  141MOL0     C19332   1.557  10.911   5.390  0.1829 -0.1355 -0.1383
  141MOL0     C19333   1.691  10.897   5.304  0.5375  0.6871  0.5562
  141MOL0     C19334   1.685  10.943   5.156 -0.1979 -1.1301 -0.6651
  141MOL0     C19335   1.609  10.844   5.070  0.0851  0.5320  0.4137
  141MOL0     C19336   1.566  10.899   4.935  0.1874  1.0319 -0.4111
  141MOL0     N19337   1.682  10.934   4.848  0.8482 -0.8510  0.7144
  141MOL0     C19338   1.773  10.848   4.790 -0.4385 -0.4583 -1.1563
  141MOL0     C19339   1.840  10.929   4.703  0.8377  0.8684  0.2535
  141MOL0     C19340   1.939  10.873   4.606  0.2169 -0.4191  0.5490
  141MOL0     C19341   2.068  10.961   4.618 -0.0753 -0.3691  0.3101
  141MOL0     C19342   2.131  10.959   4.755  0.1512 -0.0210 -0.0704
  141MOL0     C19343   2.169  10.826   4.810 -0.2583 -0.2052 -1.2621
  141MOL0     O19344   2.261  10.846   4.919 -0.2165  0.1200 -0.4385
  141MOL0     C19345   2.216  10.865   5.045 -0.2498  0.0999 -0.3952
  141MOL0     C19346   2.320  10.868   5.135  0.3065 -0.7828 -0.1743
  141MOL0     C19347   2.297  10.893   5.275  0.6500  0.3786  0.0145
  141MOL0     C19348   2.410  10.874   5.367 -0.3978 -0.7806  0.0339
  141MOL0     C19349   2.164  10.894   5.319 -0.1526  0.4008 -0.0502
  141MOL0     C19350   2.126  10.911   5.462 -0.1508 -0.3754  0.2602
  141MOL0     O19351   2.013  10.854   5.502  0.5533  0.2707 -0.7996
  141MOL0     C19352   1.971  10.845   5.630  0.8061 -0.5927 -0.8144
  141MOL0     C19353   1.950  10.965   5.704  0.3463  0.9037 -0.5879
  141MOL0     C19354   1.893  10.952   5.838 -0.2408  0.2689 -0.1545
  141MOL0     C19355   1.841  10.825   5.889 -0.2563  0.0885 -0.1650
  141MOL0     O19356   1.786  10.824   6.005  0.1470 -0.0550 -0.2840
  141MOL0     C19357   1.648  10.777   6.021 -0.4944 -0.5355 -0.0012
  141MOL0     C19358   1.556  10.891   5.988  0.3352 -1.0304 -0.7948
  141MOL0     C19359   1.400  10.862   6.015 -0.0127 -0.3283  0.3566
  141MOL0     C19360   1.353  10.723   5.959 -0.5009 -0.1135 -0.0416
  141MOL0     C19361   1.205  10.710   5.981 -1.4825  0.5114  0.5803
  141MOL0     C19362   1.181  10.654   6.128  0.4893 -0.6009 -0.2335
  141MOL0     C19363   1.044  10.577   6.130  1.0572 -0.7670 -0.1516
  141MOL0     C19364   0.919  10.662   6.096 -0.3696  0.2603 -0.2834
  141MOL0    Cl19365   0.898  10.772   6.224  0.4645  0.2309  0.4954
  141MOL0     C19366   1.850  10.713   5.803 -0.5398 -0.3397  0.0907
  141MOL0     C19367   1.913  10.723   5.675 -0.7208 -0.7509  0.4884
  141MOL0     O19368   2.195  10.976   5.538 -0.3315 -0.4040  0.7926
  141MOL0     C19369   2.062  10.880   5.227 -0.5096 -0.4445  0.2948
  141MOL0     C19370   2.086  10.879   5.086  0.0016  1.4386 -0.7582
  141MOL0     N19371   1.794  11.056   4.707 -0.3858  0.1914 -0.0354
  141MOL0     N19372   1.699  11.052   4.788  0.4951 -0.2462  0.1655
  141MOL0     C19373   1.220  10.621   5.372  1.0587 -0.0445  0.5257
  141MOL0     C19374   1.094  10.649   5.318 -0.4531 -0.1082 -0.6090
  141MOL0     C19375   0.702  10.878   5.206  0.0585  0.3906  0.3875
  141MOL0     C19376   0.626  10.767   5.244  0.3504  0.8008  0.2400
  141MOL0     C19377   0.488  10.753   5.208 -0.1771  0.5691  0.5374
  141MOL0     C19378   0.434  10.840   5.112 -0.3553 -0.1451 -0.1804
  141MOL0     O19379   0.298  10.810   5.082 -0.2240 -0.3169 -0.2531
  141MOL0     C19380   0.243  10.908   4.996  0.7934 -0.8754 -0.0520
  141MOL0     C19381   0.090  10.900   4.979  0.6068 -0.3203  0.7389
  141MOL0     C19382   0.011  10.929   5.106 -0.1091 -0.8352 -0.1225
  141MOL0     C19383  -0.138  10.906   5.106 -0.6251  0.2645 -0.1163
  141MOL0     C19384  -0.205  11.008   5.025  0.4327  0.4834 -0.1686
  141MOL0     C19385  -0.253  11.091   4.948 -0.6411 -0.0288 -0.2627
  141MOL0     C19386   0.512  10.940   5.051  0.1739 -1.0748 -0.1909
  141MOL0     C19387   0.642  10.963   5.109 -0.0675  0.6273  0.4654
  141MOL0     C19388   0.710  11.079   5.055 -0.8636 -1.0649  1.1781
  141MOL0     H19389   1.005  10.907   5.505  1.8266 -0.4770  1.3809
  141MOL0     H19390   1.204  10.819   5.632  0.9744 -1.8456 -0.7836
  141MOL0     H19391   1.470  10.616   5.379  1.1544 -3.5186 -0.4162
  141MOL0     H19392   1.507  10.516   5.523  0.3700 -0.4803  0.4328
  141MOL0     H19393   1.634  10.669   5.625  1.8732  1.5173 -0.1254
  141MOL0     H19394   1.690  10.681   5.461  1.0684 -0.5592  2.2571
  141MOL0     H19395   1.511  10.883   5.600 -1.2890  0.9682 -1.2067
  141MOL0     H19396   1.687  10.890   5.560 -0.8118  3.4464 -0.9575
  141MOL0     H19397   1.472  10.865   5.340  0.0959  0.9849 -1.0682
  141MOL0     H19398   1.541  11.018   5.410 -1.5805 -0.3585 -0.1753
  141MOL0     H19399   1.734  10.797   5.298 -0.8631 -0.0206  1.7076
  141MOL0     H19400   1.761  10.969   5.347 -1.1533  2.4241  0.5537
  141MOL0     H19401   1.629  11.037   5.158 -1.4076 -1.8039 -1.5888
  141MOL0     H19402   1.785  10.948   5.113 -0.9397 -2.1461 -2.6582
  141MOL0     H19403   1.519  10.812   5.124  0.5368  0.7227  1.3007
  141MOL0     H19404   1.676  10.760   5.051  0.7435  1.5616 -2.2208
  141MOL0     H19405   1.510  10.827   4.876  1.5402 -1.2423  0.9373
  141MOL0     H19406   1.501  10.984   4.958 -2.3924 -0.5251 -1.5709
  141MOL0     H19407   1.783  10.743   4.814  2.0477 -0.0802 -0.1670
  141MOL0     H19408   1.893  10.868   4.507  0.8978 -0.3178  0.2222
  141MOL0     H19409   1.970  10.771   4.628  1.6561 -0.0877  0.1717
  141MOL0     H19410   2.148  10.931   4.551  0.9797 -0.3754  1.5440
  141MOL0     H19411   2.052  11.064   4.585  1.2426 -0.1325  0.3608
  141MOL0     H19412   2.225  11.013   4.743 -0.5455  0.7510 -2.7278
  141MOL0     H19413   2.072  11.016   4.827 -1.8587 -1.3587 -0.5752
  141MOL0     H19414   2.081  10.764   4.829 -0.8770  0.9646 -0.1785
  141MOL0     H19415   2.226  10.771   4.734  0.7809 -1.4410  0.3393
  141MOL0     H19416   2.422  10.850   5.106  1.7897  0.8685  3.3317
  141MOL0     H19417   2.497  10.832   5.315 -1.8631 -1.6363 -1.8361
  141MOL0     H19418   2.393  10.795   5.441  0.6467 -0.4585  0.6405
  141MOL0     H19419   2.442  10.970   5.409 -1.8800  0.1150 -0.7716
  141MOL0     H19420   1.995  11.059   5.674  0.9457  2.2716  3.8363
  141MOL0     H19421   1.851  11.029   5.902  1.7056  2.5040 -1.4223
  141MOL0     H19422   1.631  10.697   5.948 -0.0316  1.3539 -2.3158
  141MOL0     H19423   1.621  10.736   6.118 -1.2950 -0.3619 -0.1443
  141MOL0     H19424   1.592  10.968   6.057  0.0725 -0.8817 -0.8234
  141MOL0     H19425   1.577  10.935   5.890  1.6138  2.4664  0.8556
  141MOL0     H19426   1.341  10.936   5.961  1.5738 -0.0260 -1.0748
  141MOL0     H19427   1.380  10.869   6.122  1.6573  0.2163  0.6632
  141MOL0     H19428   1.400  10.637   6.007 -2.4691 -0.0291  2.2571
  141MOL0     H19429   1.369  10.713   5.851 -1.5637 -1.9791 -0.0610
  141MOL0     H19430   1.143  10.800   5.976 -2.4754 -0.1761  0.2082
  141MOL0     H19431   1.173  10.633   5.911  0.4516 -0.1753  0.4051
  141MOL0     H19432   1.177  10.732   6.204 -0.6183  1.3656 -2.2012
  141MOL0     H19433   1.261  10.585   6.155  2.6957  1.6441 -0.6288
  141MOL0     H19434   1.035  10.533   6.230 -0.0046 -0.5057 -0.1158
  141MOL0     H19435   1.044  10.496   6.057  2.1123 -1.0416  0.1382
  141MOL0     H19436   0.830  10.598   6.092 -2.2690  2.7633 -1.0334
  141MOL0     H19437   0.924  10.714   6.000 -0.0454 -2.2934 -1.7321
  141MOL0     H19438   1.822  10.610   5.822  0.8201 -0.5735  0.9334
  141MOL0     H19439   1.924  10.636   5.613 -1.0467  0.3097 -1.1113
  141MOL0     H19440   1.957  10.888   5.255 -1.1431  1.1664 -2.1441
  141MOL0     H19441   2.003  10.878   5.017 -0.6353  0.6005 -0.0026
  141MOL0     H19442   1.285  10.548   5.326  0.5506 -1.6881  2.2712
  141MOL0     H19443   1.080  10.602   5.221 -3.1081  0.1422 -0.4118
  141MOL0     H19444   0.665  10.686   5.304 -0.5730 -0.8901 -1.3511
  141MOL0     H19445   0.425  10.672   5.244  1.1740 -0.2493  1.1392
  141MOL0     H19446   0.268  11.005   5.039  3.9120 -0.5379 -2.2830
  141MOL0     H19447   0.298  10.907   4.902 -0.5980 -0.0380 -0.9099
  141MOL0     H19448   0.061  10.802   4.940  3.9944 -0.4327 -1.9034
  141MOL0     H19449   0.054  10.975   4.907 -0.5174  0.4772  2.0736
  141MOL0     H19450   0.050  10.868   5.188 -4.0662  1.5558  4.0036
  141MOL0     H19451   0.023  11.036   5.127 -2.8927 -1.0516  3.3535
  141MOL0     H19452  -0.174  10.912   5.209 -0.4224 -0.1059 -0.0247
  141MOL0     H19453  -0.165  10.809   5.064  1.2260  0.3671 -1.6534
  141MOL0     H19454  -0.279  11.167   4.877 -2.9088 -1.0704 -0.6326
  141MOL0     H19455   0.478  10.989   4.960  0.6456  2.2347  1.2986
  141MOL0     H19456   0.808  11.045   5.021 -1.4573 -0.6752 -1.1119
  141MOL0     H19457   0.645  11.124   4.978  0.3629 -2.0681 -0.5194
  141MOL0     H19458   0.733  11.147   5.137 -0.4243  1.4610 -0.9012
  142MOL0     O19459   6.407   7.641   0.854  0.1180 -0.1863 -0.0728
  142MOL0     C19460   6.374   7.720   0.767  0.0292 -0.3856  0.1690
  142MOL0     O19461   6.469   7.797   0.697  0.3308  0.4188  0.0727
  142MOL0     C19462   6.596   7.777   0.730 -0.4054  0.5505  0.3227
  142MOL0     C19463   6.658   7.656   0.685 -0.5900  0.0515 -0.4971
  142MOL0     C19464   6.791   7.628   0.705  0.9648 -0.3813  0.4102
  142MOL0     C19465   6.866   7.727   0.771  0.9936 -0.3703 -0.2833
  142MOL0     O19466   7.001   7.718   0.795 -0.7740 -0.1550 -0.3628
  142MOL0     C19467   7.046   7.598   0.859  0.2213 -0.5757  0.7599
  142MOL0     C19468   7.196   7.588   0.844 -0.1131  0.6301 -0.0888
  142MOL0     C19469   7.249   7.440   0.857 -0.2089  0.2866  0.0696
  142MOL0     C19470   7.404   7.425   0.858 -0.0342 -0.6180 -0.5754
  142MOL0     C19471   7.437   7.278   0.874 -0.8427  0.2974 -0.9511
  142MOL0     C19472   7.401   7.194   0.754 -0.1955 -0.1316 -0.3415
  142MOL0     C19473   7.507   7.076   0.729 -0.3597 -0.0136  1.1421
  142MOL0     C19474   7.532   6.987   0.847 -0.1261  0.0057 -0.2955
  142MOL0     N19475   7.600   6.866   0.807 -0.0435 -0.9563 -0.0572
  142MOL0     C19476   7.739   6.872   0.783 -0.0199  0.7754  0.4538
  142MOL0     C19477   7.755   6.752   0.717  0.7695 -0.6129  0.7634
  142MOL0     C19478   7.879   6.675   0.669  0.4681 -1.3342  1.3072
  142MOL0     C19479   7.966   6.664   0.784 -0.4490 -0.2913 -0.5232
  142MOL0     C19480   8.110   6.635   0.748 -0.4779 -0.4238  0.3739
  142MOL0     C19481   8.209   6.662   0.861  1.0482 -0.1765  0.1860
  142MOL0     O19482   8.194   6.790   0.919  0.2636 -0.2274 -0.0705
  142MOL0     C19483   8.318   6.842   0.933 -0.0445  1.2937 -0.0325
  142MOL0     C19484   8.414   6.816   1.028 -0.1134 -0.5724 -0.2742
  142MOL0     C19485   8.538   6.891   1.028  0.1804  0.1330 -0.5348
  142MOL0     C19486   8.631   6.855   1.134 -0.4677 -0.0023 -0.2572
  142MOL0     C19487   8.556   6.999   0.941 -0.9496 -0.0635  0.5212
  142MOL0     C19488   8.675   7.094   0.938 -0.2921 -0.0072  1.2861
  142MOL0     O19489   8.680   7.196   0.834  0.0994  0.3618 -0.1682
  142MOL0     C19490   8.768   7.299   0.839  0.1374  0.2856 -0.1334
  142MOL0     C19491   8.904   7.286   0.824  0.2671 -0.8899  0.0912
  142MOL0     C19492   8.994   7.396   0.836  0.3003 -0.3088  0.5856
  142MOL0     C19493   8.943   7.517   0.856  0.1790 -0.0537 -0.1822
  142MOL0     O19494   9.008   7.636   0.868  0.3506  0.2931 -0.1278
  142MOL0     C19495   9.136   7.646   0.923  0.1158 -0.1234 -0.1863
  142MOL0     C19496   9.146   7.644   1.072 -0.3916  0.1469 -0.2442
  142MOL0     C19497   9.046   7.737   1.143  0.0275  0.0201  0.2371
  142MOL0     C19498   9.062   7.727   1.295 -0.3239  0.3810  0.5985
  142MOL0     C19499   9.170   7.821   1.343 -0.1898  0.1172  0.1919
  142MOL0     C19500   9.209   7.804   1.499 -0.6717  0.1103  1.2296
  142MOL0     C19501   9.302   7.917   1.546 -0.2089  0.5312 -0.9691
  142MOL0     C19502   9.312   7.909   1.704  1.3448 -0.1589  0.0779
  142MOL0    Cl19503   9.393   8.054   1.772 -0.2244 -0.0962 -0.3913
  142MOL0     C19504   8.804   7.533   0.854 -0.2002 -0.6017  1.0245
  142MOL0     C19505   8.714   7.431   0.842  0.1220  0.2472  0.0228
  142MOL0     O19506   8.741   7.093   1.037  0.4293 -0.1997  0.6489
  142MOL0     C19507   8.455   7.021   0.846 -0.8753  0.0873 -0.1429
  142MOL0     C19508   8.341   6.947   0.843 -0.3198  0.1656  0.3816
  142MOL0     N19509   7.634   6.688   0.703  0.0498 -0.5134  0.2073
  142MOL0     N19510   7.541   6.760   0.762  0.9952  0.3333 -0.7586
  142MOL0     C19511   6.810   7.855   0.813 -0.5609  0.3798 -0.2271
  142MOL0     C19512   6.673   7.878   0.796 -0.3319  0.2635  0.5780
  142MOL0     C19513   6.227   7.738   0.733 -0.4469 -0.1515 -0.3052
  142MOL0     C19514   6.188   7.842   0.653  0.4264 -0.0290 -0.5808
  142MOL0     C19515   6.055   7.864   0.611  0.0819 -0.5474 -0.2286
  142MOL0     C19516   5.958   7.778   0.664 -0.6727 -0.5340 -0.6898
  142MOL0     O19517   5.822   7.792   0.648 -0.0816 -0.5567  1.1004
  142MOL0     C19518   5.783   7.850   0.522  0.1049 -0.7690  0.4037
  142MOL0     C19519   5.819   7.753   0.412 -0.3533 -0.0097 -0.6305
  142MOL0     C19520   5.782   7.607   0.451 -0.5510  0.8309  0.2044
  142MOL0     C19521   5.751   7.520   0.324  0.2093  0.3091 -0.2909
  142MOL0     C19522   5.731   7.380   0.367 -0.6983 -0.6482  0.1387
  142MOL0     C19523   5.729   7.263   0.405 -0.7262 -0.2049  0.9159
  142MOL0     C19524   5.999   7.681   0.752  0.5703 -0.2153 -0.2958
  142MOL0     C19525   6.126   7.656   0.792 -0.2161 -0.2342 -0.9048
  142MOL0     C19526   6.143   7.549   0.903 -0.0008 -0.5933  0.0552
  142MOL0     H19527   6.601   7.582   0.631  1.5172 -2.3876  0.4055
  142MOL0     H19528   6.833   7.540   0.657 -0.4605 -0.4220 -0.8407
  142MOL0     H19529   6.999   7.510   0.813  0.3444 -1.2748  1.9396
  142MOL0     H19530   7.017   7.596   0.964 -2.5004 -1.4044  0.0701
  142MOL0     H19531   7.235   7.627   0.750 -0.3733  1.2339  0.0506
  142MOL0     H19532   7.257   7.644   0.915  2.1254 -0.3765 -1.1327
  142MOL0     H19533   7.205   7.395   0.947  0.2653  1.2791  0.8249
  142MOL0     H19534   7.218   7.388   0.767  2.5449  3.2581 -2.8757
  142MOL0     H19535   7.443   7.454   0.760  1.2364 -2.4519 -0.6663
  142MOL0     H19536   7.444   7.491   0.936  3.3040  0.5315 -3.0292
  142MOL0     H19537   7.403   7.232   0.967 -1.3945 -2.9058 -2.5791
  142MOL0     H19538   7.546   7.281   0.883 -1.0145  0.5498  2.6383
  142MOL0     H19539   7.299   7.159   0.771 -0.2243  0.2310  0.2436
  142MOL0     H19540   7.407   7.252   0.661 -0.3625 -1.4133 -1.1655
  142MOL0     H19541   7.599   7.102   0.676 -1.2610 -2.1124 -1.7047
  142MOL0     H19542   7.466   7.013   0.650  2.5696 -1.7492  0.8890
  142MOL0     H19543   7.593   7.035   0.924 -1.3698  0.2110  0.5981
  142MOL0     H19544   7.441   6.954   0.898  1.2135 -1.2533  1.4111
  142MOL0     H19545   7.813   6.946   0.810  1.5221 -1.5041  2.9936
  142MOL0     H19546   7.932   6.729   0.590 -0.2733  0.3428  1.9036
  142MOL0     H19547   7.848   6.578   0.628  1.0036 -1.1622  0.4638
  142MOL0     H19548   7.963   6.751   0.850  1.2054 -1.4410  1.1702
  142MOL0     H19549   7.928   6.586   0.851  1.6031 -0.5110  0.4810
  142MOL0     H19550   8.123   6.531   0.716 -1.8174 -0.6536  0.5113
  142MOL0     H19551   8.141   6.704   0.669  0.4977  0.6017  1.6196
  142MOL0     H19552   8.196   6.585   0.938 -1.5661  2.0055  2.1250
  142MOL0     H19553   8.306   6.636   0.817  0.0059 -0.7796 -1.9178
  142MOL0     H19554   8.389   6.740   1.102 -0.7189  1.3286  1.5561
  142MOL0     H19555   8.589   6.769   1.187 -0.1206 -1.5802 -2.4316
  142MOL0     H19556   8.652   6.934   1.206 -1.5632 -0.5603  0.7037
  142MOL0     H19557   8.725   6.842   1.079 -0.4172 -1.4873  0.1396
  142MOL0     H19558   8.944   7.186   0.819 -1.6569 -1.9075  2.8503
  142MOL0     H19559   9.101   7.381   0.847  0.3582 -0.8239 -0.4619
  142MOL0     H19560   9.207   7.570   0.889  0.4182 -1.6715  3.4849
  142MOL0     H19561   9.182   7.739   0.887 -0.5926  0.6616  0.8771
  142MOL0     H19562   9.134   7.541   1.109  0.2782 -0.2097 -0.9797
  142MOL0     H19563   9.246   7.669   1.108 -0.4626 -0.0752  0.1141
  142MOL0     H19564   8.946   7.693   1.135 -0.9817  1.2044  4.1546
  142MOL0     H19565   9.058   7.838   1.104 -1.7864  0.6047  1.1044
  142MOL0     H19566   9.089   7.628   1.333  0.5323  1.2197  2.2714
  142MOL0     H19567   8.965   7.758   1.335 -1.4525  0.6187 -2.1033
  142MOL0     H19568   9.258   7.796   1.283 -0.2688 -0.2146  0.2123
  142MOL0     H19569   9.137   7.924   1.327 -2.4483 -0.3985  1.1763
  142MOL0     H19570   9.251   7.704   1.503 -1.6737 -0.3436  0.6889
  142MOL0     H19571   9.119   7.811   1.561 -3.7696  0.8035 -2.9203
  142MOL0     H19572   9.252   8.010   1.518 -0.4416 -0.2716 -3.5281
  142MOL0     H19573   9.401   7.916   1.499  1.0678 -0.0789  1.5638
  142MOL0     H19574   9.376   7.829   1.743  2.6740  0.9080  0.1544
  142MOL0     H19575   9.208   7.900   1.734  1.3008  2.6528  1.0741
  142MOL0     H19576   8.771   7.636   0.855  2.1530  0.4287 -2.9177
  142MOL0     H19577   8.607   7.446   0.857 -0.2171 -2.1385  0.5325
  142MOL0     H19578   8.454   7.099   0.771  1.1152 -0.5816 -0.9364
  142MOL0     H19579   8.264   6.966   0.769  0.0553  0.3718  0.0432
  142MOL0     H19580   6.867   7.925   0.873 -1.3510 -0.6204  1.7686
  142MOL0     H19581   6.630   7.971   0.832 -1.0050 -0.2194  1.0356
  142MOL0     H19582   6.267   7.908   0.618 -0.0502  0.8772  0.0134
  142MOL0     H19583   6.022   7.940   0.541  0.6701  0.8795  0.9991
  142MOL0     H19584   5.676   7.869   0.510 -0.1410 -3.0938 -1.9389
  142MOL0     H19585   5.832   7.946   0.499  1.3937 -2.0412 -2.7601
  142MOL0     H19586   5.926   7.765   0.395  0.5441  0.6745  4.1808
  142MOL0     H19587   5.765   7.785   0.322  0.5707  0.2132 -1.1187
  142MOL0     H19588   5.860   7.554   0.505 -2.0617  0.0104  1.6826
  142MOL0     H19589   5.689   7.613   0.508 -2.7721 -1.5314 -2.8193
  142MOL0     H19590   5.835   7.526   0.254  0.5618  2.2911  0.2374
  142MOL0     H19591   5.658   7.550   0.273 -0.8930 -2.2363  0.0776
  142MOL0     H19592   5.723   7.166   0.449  2.6565 -0.0628  1.9908
  142MOL0     H19593   5.922   7.625   0.804  0.7294 -0.6782 -0.5602
  142MOL0     H19594   6.193   7.596   0.987 -2.2757 -2.2442  2.4799
  142MOL0     H19595   6.043   7.515   0.929 -1.1014 -0.7254 -3.7187
  142MOL0     H19596   6.220   7.480   0.867  0.5493 -0.0487  0.1697
  143MOL0     O19597   3.979   0.036   7.891  0.2395  0.3631  0.5414
  143MOL0     C19598   3.921  -0.050   7.958  0.0719  0.2459  0.0331
  143MOL0     O19599   3.968  -0.084   8.080 -0.1221  0.6504  0.1840
  143MOL0     C19600   4.101  -0.046   8.115  0.1177  0.0374  0.2095
  143MOL0     C19601   4.110   0.056   8.210  0.5926 -0.5767  0.1011
  143MOL0     C19602   4.234   0.110   8.241  0.5765 -1.1176  0.1526
  143MOL0     C19603   4.350   0.057   8.191 -0.0460 -0.3534 -0.5531
  143MOL0     O19604   4.458   0.120   8.239 -0.3624  0.6186 -0.1115
  143MOL0     C19605   4.584   0.052   8.226  0.6670  0.9582 -0.1269
  143MOL0     C19606   4.710   0.125   8.273  0.5621 -0.1735 -0.3234
  143MOL0     C19607   4.687   0.217   8.392  0.5489 -0.0086 -0.4910
  143MOL0     C19608   4.807   0.294   8.433 -0.4079  0.1780 -0.2425
  143MOL0     C19609   4.776   0.414   8.530  0.7400  0.8469  0.6260
  143MOL0     C19610   4.900   0.499   8.530  0.1428 -0.0648 -0.4734
  143MOL0     C19611   4.891   0.624   8.619  0.7734 -0.4163 -0.5917
  143MOL0     C19612   5.018   0.710   8.622 -0.7206 -0.7400  0.8045
  143MOL0     N19613   5.153   0.637   8.630  0.3408 -0.3278  0.4651
  143MOL0     C19614   5.226   0.590   8.519 -1.6047  0.2938 -0.5441
  143MOL0     C19615   5.329   0.529   8.586  0.2438 -0.3466 -0.2102
  143MOL0     C19616   5.453   0.476   8.530  0.4062  0.1676  0.1071
  143MOL0     C19617   5.575   0.568   8.546  0.6308  0.3023 -0.1823
  143MOL0     C19618   5.616   0.612   8.694 -0.2509 -0.9670  0.6924
  143MOL0     C19619   5.650   0.488   8.783  0.1843 -0.5309 -0.7787
  143MOL0     O19620   5.715   0.530   8.904  0.5302 -0.7900  0.3441
  143MOL0     C19621   5.850   0.562   8.897  0.2290  0.0083  0.3743
  143MOL0     C19622   5.927   0.554   9.016  0.1114  0.4520  0.2811
  143MOL0     C19623   6.068   0.552   9.028  0.0767  0.2520 -0.4905
  143MOL0     C19624   6.111   0.552   9.176  0.2426 -0.3297 -1.0598
  143MOL0     C19625   6.143   0.580   8.908  0.1958 -0.0083 -0.3787
  143MOL0     C19626   6.290   0.607   8.898  0.6446 -0.3779  0.2508
  143MOL0     O19627   6.363   0.627   9.013 -0.3692 -0.1915 -0.4049
  143MOL0     C19628   6.498   0.673   8.997 -0.3944  0.1433 -0.2632
  143MOL0     C19629   6.552   0.782   9.070  0.3406 -0.1292 -0.9712
  143MOL0     C19630   6.692   0.809   9.058  0.9690  0.5318  0.3502
  143MOL0     C19631   6.774   0.722   8.981  0.0107 -0.9290 -0.4889
  143MOL0     O19632   6.908   0.752   8.969  0.1559 -0.4961  0.2595
  143MOL0     C19633   6.968   0.845   9.062  0.3347 -0.1350  0.8019
  143MOL0     C19634   7.116   0.838   9.023 -0.3576 -0.2438  0.1016
  143MOL0     C19635   7.201   0.890   9.133  0.1057 -1.0356  0.5213
  143MOL0     C19636   7.334   0.811   9.130 -0.5483 -0.5093  0.0896
  143MOL0     C19637   7.415   0.852   9.257  0.5136  0.4270 -0.0965
  143MOL0     C19638   7.547   0.786   9.271 -0.5299  0.6570 -0.0415
  143MOL0     C19639   7.662   0.838   9.186 -0.3634  0.1198 -0.7149
  143MOL0     C19640   7.805   0.842   9.253 -0.3420 -0.5773  0.3543
  143MOL0    Cl19641   7.816   0.980   9.367 -0.5869  0.0542 -0.2999
  143MOL0     C19642   6.711   0.617   8.913 -0.5722  0.8735 -0.1431
  143MOL0     C19643   6.583   0.588   8.931  0.8948  0.1088 -0.6142
  143MOL0     O19644   6.333   0.623   8.785  0.4071 -0.4688 -0.5973
  143MOL0     C19645   6.070   0.588   8.792 -0.2068  1.2462 -0.1812
  143MOL0     C19646   5.927   0.577   8.780  0.8649  0.7998  0.5004
  143MOL0     N19647   5.307   0.532   8.723 -0.3996  0.1358  1.0082
  143MOL0     N19648   5.212   0.611   8.745 -0.0661 -0.6880  0.2516
  143MOL0     C19649   4.347  -0.052   8.105 -0.8199  0.2360 -0.0445
  143MOL0     C19650   4.219  -0.107   8.072  0.8173 -0.1818 -0.5658
  143MOL0     C19651   3.789  -0.103   7.927  0.7227 -1.1696 -0.3909
  143MOL0     C19652   3.765  -0.127   7.791 -0.2184 -0.0801 -0.2282
  143MOL0     C19653   3.646  -0.186   7.747 -0.4250 -0.2297  0.2848
  143MOL0     C19654   3.546  -0.223   7.832  0.5625  0.6644  0.3019
  143MOL0     O19655   3.426  -0.276   7.778  0.0084 -0.0865 -0.1751
  143MOL0     C19656   3.319  -0.327   7.868  0.0582  1.1043 -0.4795
  143MOL0     C19657   3.196  -0.350   7.773  0.5538 -0.2351 -0.5338
  143MOL0     C19658   3.128  -0.227   7.715  0.0593  0.0239  0.1357
  143MOL0     C19659   2.983  -0.238   7.673  0.6356 -0.0260 -0.5729
  143MOL0     C19660   2.896  -0.291   7.776  0.9653  0.4652 -0.3308
  143MOL0     C19661   2.808  -0.320   7.851  0.2562  0.5374  0.0794
  143MOL0     C19662   3.561  -0.182   7.961  0.4314 -0.3434 -0.7641
  143MOL0     C19663   3.682  -0.130   8.014 -0.1622  0.4595 -0.0635
  143MOL0     C19664   3.692  -0.097   8.166  0.3479 -0.2844 -0.3689
  143MOL0     H19665   4.011   0.092   8.234  0.4436 -0.8183 -0.1354
  143MOL0     H19666   4.228   0.187   8.317 -1.0190 -0.0561 -0.9691
  143MOL0     H19667   4.600   0.031   8.120 -0.9334  1.8883 -0.5847
  143MOL0     H19668   4.583  -0.043   8.281 -2.5894  1.4654  0.9339
  143MOL0     H19669   4.786   0.048   8.293 -0.9685 -1.6085  0.2247
  143MOL0     H19670   4.745   0.185   8.188  0.2986 -0.1974 -0.4488
  143MOL0     H19671   4.606   0.282   8.356  0.4601 -0.1599 -0.5645
  143MOL0     H19672   4.651   0.156   8.475 -2.3549  1.0618 -0.8327
  143MOL0     H19673   4.865   0.216   8.484 -2.2232 -3.4997 -3.2606
  143MOL0     H19674   4.861   0.324   8.343  0.7088  1.0370  0.6694
  143MOL0     H19675   4.738   0.378   8.626 -1.0069 -0.5303 -0.5108
  143MOL0     H19676   4.697   0.466   8.475 -0.4425 -3.7872 -2.7420
  143MOL0     H19677   4.984   0.442   8.570 -2.3944 -2.1379  2.3612
  143MOL0     H19678   4.923   0.534   8.429 -0.4164 -0.8168 -0.8637
  143MOL0     H19679   4.846   0.602   8.716  0.7721  1.5723 -0.0927
  143MOL0     H19680   4.817   0.690   8.571  0.1027 -1.4259 -0.9877
  143MOL0     H19681   5.016   0.772   8.533 -0.1465  1.9087  2.5381
  143MOL0     H19682   5.013   0.776   8.709 -1.9116  0.8114 -0.4002
  143MOL0     H19683   5.208   0.612   8.414 -0.5957  3.0092 -0.2069
  143MOL0     H19684   5.435   0.456   8.424 -3.3081  2.4515  0.1627
  143MOL0     H19685   5.486   0.387   8.584  2.1605  1.2962  1.0124
  143MOL0     H19686   5.662   0.517   8.503  1.8155  0.1590  2.2181
  143MOL0     H19687   5.541   0.654   8.488 -2.8275  0.9397  2.4907
  143MOL0     H19688   5.699   0.682   8.687 -1.9012  0.9079 -2.0829
  143MOL0     H19689   5.541   0.668   8.750 -2.0121 -1.7384 -0.7645
  143MOL0     H19690   5.565   0.426   8.813 -0.7277  0.7515 -0.6430
  143MOL0     H19691   5.718   0.413   8.743  1.0860 -1.8367  2.8640
  143MOL0     H19692   5.878   0.544   9.112 -0.3293  1.1157  0.1279
  143MOL0     H19693   6.064   0.464   9.223  1.2855 -1.9822 -2.9368
  143MOL0     H19694   6.059   0.636   9.222 -0.0354  0.1660 -2.2367
  143MOL0     H19695   6.217   0.550   9.203 -0.2229 -1.7778  0.9505
  143MOL0     H19696   6.484   0.845   9.126  0.5754 -1.9599  1.5513
  143MOL0     H19697   6.724   0.900   9.108 -0.8934  0.9493  0.8400
  143MOL0     H19698   6.915   0.938   9.042  0.6964 -0.4287 -1.8855
  143MOL0     H19699   6.948   0.817   9.166 -1.0823 -2.0431  0.0907
  143MOL0     H19700   7.146   0.734   9.007 -0.1420 -0.0304 -0.9499
  143MOL0     H19701   7.122   0.888   8.926 -1.2143 -0.4744 -0.0781
  143MOL0     H19702   7.151   0.879   9.230 -0.5904 -0.2418  0.2625
  143MOL0     H19703   7.212   0.998   9.124 -0.4740 -1.1131 -1.4930
  143MOL0     H19704   7.398   0.838   9.045  1.2948  2.1736  2.1665
  143MOL0     H19705   7.316   0.703   9.133 -3.0779 -0.1500  0.2279
  143MOL0     H19706   7.420   0.961   9.265 -0.9002  0.4105  1.4132
  143MOL0     H19707   7.359   0.806   9.339  3.3331 -0.2121  1.5898
  143MOL0     H19708   7.523   0.682   9.245 -1.8258 -0.6400  5.1510
  143MOL0     H19709   7.571   0.763   9.375  1.8107  0.5823 -0.5452
  143MOL0     H19710   7.645   0.942   9.156  1.2475  1.2941  2.0749
  143MOL0     H19711   7.675   0.777   9.096  0.8475 -1.0723  0.2348
  143MOL0     H19712   7.879   0.841   9.173 -0.2907 -0.9511  0.4051
  143MOL0     H19713   7.819   0.747   9.306  0.3279 -0.6459  0.0588
  143MOL0     H19714   6.769   0.539   8.865 -1.2913 -0.1027  0.5293
  143MOL0     H19715   6.541   0.497   8.890  1.4731 -1.7280  2.5475
  143MOL0     H19716   6.123   0.602   8.698 -1.9716 -0.0230 -1.4505
  143MOL0     H19717   5.884   0.552   8.683 -0.0697 -1.0746  1.3517
  143MOL0     H19718   4.435  -0.103   8.066 -1.2706  0.4159 -1.3232
  143MOL0     H19719   4.211  -0.187   7.999  1.8137 -1.2333  0.4435
  143MOL0     H19720   3.850  -0.100   7.728  1.4590 -1.7395  1.2149
  143MOL0     H19721   3.638  -0.199   7.640 -3.3761  2.2707  0.0730
  143MOL0     H19722   3.360  -0.418   7.912 -0.0907  1.5755  0.6635
  143MOL0     H19723   3.301  -0.263   7.954  1.5830  0.2037  0.5528
  143MOL0     H19724   3.131  -0.415   7.833  0.8860  1.3203  1.6429
  143MOL0     H19725   3.217  -0.413   7.686 -0.8483  1.5730 -2.2671
  143MOL0     H19726   3.141  -0.142   7.783 -0.5907  1.4478 -1.4604
  143MOL0     H19727   3.185  -0.188   7.630 -2.8531  0.9192 -1.5521
  143MOL0     H19728   2.972  -0.312   7.593 -2.7440 -2.3942  1.7716
  143MOL0     H19729   2.947  -0.144   7.631  1.1617  0.2876 -0.3248
  143MOL0     H19730   2.732  -0.337   7.924  0.0618  0.8559 -0.0455
  143MOL0     H19731   3.491  -0.195   8.044  2.7071 -0.2999  1.2836
  143MOL0     H19732   3.594  -0.061   8.200  1.5860  4.1824 -0.8940
  143MOL0     H19733   3.733  -0.186   8.215 -1.7655 -1.2398 -0.1992
  143MOL0     H19734   3.752  -0.007   8.181  0.9970 -0.5858 -1.1350
  144MOL0     O19735   2.556   3.379   1.304  0.3153 -0.5989 -0.1965
  144MOL0     C19736   2.545   3.441   1.413 -0.7223 -0.3710  0.8700
  144MOL0     O19737   2.598   3.397   1.530 -0.3175  0.2531 -0.0704
  144MOL0     C19738   2.651   3.273   1.545  0.2047  0.1911  0.7713
  144MOL0     C19739   2.765   3.278   1.625  0.3267  0.2251  0.6211
  144MOL0     C19740   2.826   3.155   1.652 -0.0945  0.4280 -0.5027
  144MOL0     C19741   2.776   3.039   1.598  0.5782  0.3222 -0.6851
  144MOL0     O19742   2.835   2.915   1.610  0.0019 -0.3544 -0.1971
  144MOL0     C19743   2.800   2.847   1.731 -0.0923 -0.8094  0.7007
  144MOL0     C19744   2.897   2.739   1.762  0.2385 -0.3402 -0.2300
  144MOL0     C19745   3.032   2.796   1.808 -0.6519 -0.9513  0.2427
  144MOL0     C19746   3.123   2.683   1.826 -0.7927  0.0806 -0.4149
  144MOL0     C19747   3.268   2.727   1.849 -0.1683  0.6062 -0.0534
  144MOL0     C19748   3.294   2.775   1.998  0.3934 -1.1389 -0.2793
  144MOL0     C19749   3.438   2.828   2.014 -0.2451  0.2511 -1.0564
  144MOL0     C19750   3.547   2.717   2.012 -0.8401  0.2386  0.5343
  144MOL0     N19751   3.657   2.752   2.101 -0.6484  1.0244  0.2722
  144MOL0     C19752   3.791   2.732   2.056  0.4282 -0.0757 -1.1437
  144MOL0     C19753   3.865   2.781   2.159  0.3383  0.1822 -0.5099
  144MOL0     C19754   4.015   2.762   2.168  0.0472  0.9182  0.2706
  144MOL0     C19755   4.086   2.832   2.061 -0.4233 -0.6321 -0.3887
  144MOL0     C19756   4.235   2.848   2.085 -0.1608 -0.8465  0.4321
  144MOL0     C19757   4.299   2.724   2.138 -0.0344  0.1121  0.4726
  144MOL0     O19758   4.435   2.766   2.152 -0.3291 -0.2531 -0.1740
  144MOL0     C19759   4.523   2.677   2.204 -0.4137  0.6563  0.7794
  144MOL0     C19760   4.486   2.547   2.249 -0.5480 -0.0318 -0.0916
  144MOL0     C19761   4.582   2.449   2.287  0.5736 -0.2986 -0.5190
  144MOL0     C19762   4.529   2.318   2.326 -0.1205 -0.0355 -0.5658
  144MOL0     C19763   4.717   2.487   2.306  0.6740  0.1874 -0.1418
  144MOL0     C19764   4.821   2.400   2.367  0.4082  0.3033 -0.4385
  144MOL0     O19765   4.938   2.372   2.300  0.0964  0.0127 -0.0312
  144MOL0     C19766   5.024   2.285   2.358  0.4823 -0.3567 -0.8150
  144MOL0     C19767   5.032   2.151   2.302  0.0763 -0.4832  0.5281
  144MOL0     C19768   5.134   2.066   2.342 -1.1064  0.5249  0.0208
  144MOL0     C19769   5.205   2.098   2.461 -0.2506  0.5956  0.3346
  144MOL0     O19770   5.294   2.011   2.523  0.0027 -1.0223  0.1501
  144MOL0     C19771   5.379   1.931   2.444  0.3007  0.0166  0.1904
  144MOL0     C19772   5.522   1.950   2.507  1.1224 -0.9993  0.2901
  144MOL0     C19773   5.624   1.847   2.445 -0.2346 -0.4414  0.1564
  144MOL0     C19774   5.582   1.700   2.488 -0.6701 -0.2661  0.3589
  144MOL0     C19775   5.664   1.599   2.408  0.8592  0.1028  0.2929
  144MOL0     C19776   5.633   1.598   2.257 -0.4485 -1.0617 -0.0986
  144MOL0     C19777   5.484   1.586   2.221 -0.7703 -0.1514  0.7083
  144MOL0     C19778   5.458   1.509   2.089 -0.1219 -0.3732  0.5949
  144MOL0    Cl19779   5.552   1.581   1.958 -0.3449 -0.2963 -0.3538
  144MOL0     C19780   5.199   2.224   2.516 -0.2977 -0.5988  0.1813
  144MOL0     C19781   5.120   2.321   2.456  0.3322  0.4202  0.2054
  144MOL0     O19782   4.790   2.368   2.481 -0.5331 -0.2760  0.1122
  144MOL0     C19783   4.757   2.616   2.259  0.0887  0.5798  0.1624
  144MOL0     C19784   4.660   2.713   2.216 -0.1379 -0.3793  0.2694
  144MOL0     N19785   3.777   2.831   2.262 -0.5591  1.2996  0.6952
  144MOL0     N19786   3.657   2.803   2.228 -0.1832 -0.2792  0.6728
  144MOL0     C19787   2.659   3.044   1.524  1.3618  1.3799 -0.5396
  144MOL0     C19788   2.605   3.162   1.489  0.1665  0.2125  1.0093
  144MOL0     C19789   2.468   3.570   1.420 -0.4182 -0.0982  0.7178
  144MOL0     C19790   2.475   3.651   1.537 -0.1379  0.5307  0.2382
  144MOL0     C19791   2.418   3.776   1.546  0.6591 -0.3057 -0.1585
  144MOL0     C19792   2.342   3.824   1.447  0.2234 -0.2755  0.3127
  144MOL0     O19793   2.285   3.953   1.452 -0.3295  0.5318  0.0333
  144MOL0     C19794   2.264   4.025   1.571 -0.1032  0.0566 -1.4093
  144MOL0     C19795   2.172   4.136   1.545  0.6171  0.5129 -0.2861
  144MOL0     C19796   2.223   4.237   1.451  0.4874 -0.0167 -0.6425
  144MOL0     C19797   2.151   4.375   1.464  0.7308 -1.1230 -0.0655
  144MOL0     C19798   2.012   4.369   1.425 -0.7028  0.4864  0.5301
  144MOL0     C19799   1.891   4.372   1.406 -0.3401  0.0891 -0.3084
  144MOL0     C19800   2.342   3.755   1.323  0.3984  0.5613 -0.9259
  144MOL0     C19801   2.398   3.628   1.307 -0.1854  0.0175 -0.6669
  144MOL0     C19802   2.383   3.571   1.167 -0.1149 -0.1735 -0.0276
  144MOL0     H19803   2.798   3.373   1.664 -0.6566  1.0955 -0.5916
  144MOL0     H19804   2.916   3.145   1.712  0.5742 -0.4189 -1.6074
  144MOL0     H19805   2.692   2.829   1.729  0.1224 -2.1486 -0.7094
  144MOL0     H19806   2.797   2.923   1.809  0.4329 -1.5442  1.4524
  144MOL0     H19807   2.847   2.689   1.846 -1.3122 -0.0068 -0.9103
  144MOL0     H19808   2.906   2.667   1.681 -2.5786 -1.4157  0.3009
  144MOL0     H19809   3.075   2.861   1.731 -0.7854 -0.9554  0.1630
  144MOL0     H19810   3.016   2.845   1.904 -3.2920 -1.3467  0.0955
  144MOL0     H19811   3.090   2.616   1.905  1.6562  0.8111  1.3350
  144MOL0     H19812   3.123   2.627   1.732 -2.3301 -2.8873  1.2261
  144MOL0     H19813   3.297   2.805   1.778  4.0900  0.3548  1.1714
  144MOL0     H19814   3.337   2.644   1.830 -1.0902 -0.6609  1.8238
  144MOL0     H19815   3.227   2.859   2.018  2.5891  1.2724 -2.2973
  144MOL0     H19816   3.278   2.692   2.068 -0.9410  2.5236  4.2843
  144MOL0     H19817   3.446   2.876   2.112  0.3415  1.3383 -1.6144
  144MOL0     H19818   3.465   2.895   1.932  0.4058  0.7286 -0.4640
  144MOL0     H19819   3.501   2.638   2.073  3.1454 -0.6914  2.6663
  144MOL0     H19820   3.579   2.676   1.916  0.2260  0.2297  0.8875
  144MOL0     H19821   3.820   2.675   1.968 -1.8535 -1.7685 -0.8909
  144MOL0     H19822   4.039   2.656   2.158 -0.9212  0.8054 -1.3240
  144MOL0     H19823   4.045   2.793   2.268  1.9211 -3.3806  1.2883
  144MOL0     H19824   4.071   2.785   1.964  0.5699  1.4103 -1.5893
  144MOL0     H19825   4.042   2.930   2.046 -1.6312 -1.2891 -1.3212
  144MOL0     H19826   4.278   2.884   1.991  0.8535  0.5777  1.4025
  144MOL0     H19827   4.245   2.937   2.148 -0.1839 -0.8190  0.3974
  144MOL0     H19828   4.268   2.702   2.241 -0.1414 -0.2488  0.3647
  144MOL0     H19829   4.297   2.636   2.073  0.1723 -0.2476  0.9495
  144MOL0     H19830   4.383   2.516   2.265 -1.0198  0.0784 -2.5065
  144MOL0     H19831   4.435   2.299   2.272 -2.8665  1.9026  3.1031
  144MOL0     H19832   4.505   2.316   2.433 -1.0923  0.3245 -0.7606
  144MOL0     H19833   4.607   2.245   2.304 -1.4815 -2.2256  1.3524
  144MOL0     H19834   4.963   2.125   2.222  1.0924 -0.5815 -0.3462
  144MOL0     H19835   5.144   1.968   2.297 -2.2879  0.6359 -0.5206
  144MOL0     H19836   5.333   1.833   2.457 -0.6486  0.7156  2.8433
  144MOL0     H19837   5.381   1.964   2.340 -3.0159  1.2002  0.3507
  144MOL0     H19838   5.553   2.055   2.506 -0.7683 -0.3128  2.7466
  144MOL0     H19839   5.525   1.932   2.614  4.2971  1.5537  0.7765
  144MOL0     H19840   5.724   1.880   2.474  0.0771  0.2969 -1.5963
  144MOL0     H19841   5.613   1.857   2.336  0.7974  0.9195  0.1544
  144MOL0     H19842   5.474   1.686   2.474 -0.5965  0.2108 -0.8244
  144MOL0     H19843   5.608   1.693   2.594 -3.0844  2.3901  1.2490
  144MOL0     H19844   5.773   1.611   2.407  0.6207  3.1171  1.3888
  144MOL0     H19845   5.634   1.503   2.451  0.9209  0.4367  1.0854
  144MOL0     H19846   5.695   1.518   2.217  1.3319  0.1061  0.2285
  144MOL0     H19847   5.667   1.691   2.210 -2.3186 -0.3516 -0.1540
  144MOL0     H19848   5.427   1.679   2.226  0.0390  0.5499 -1.5432
  144MOL0     H19849   5.441   1.518   2.295  0.3532 -1.0252  0.5818
  144MOL0     H19850   5.355   1.523   2.055 -0.1805  3.3002  1.7785
  144MOL0     H19851   5.488   1.405   2.103  0.3764 -0.5906 -1.7286
  144MOL0     H19852   5.267   2.243   2.598  2.5782  2.2719 -2.5580
  144MOL0     H19853   5.122   2.426   2.482 -0.4264  0.0283  1.9941
  144MOL0     H19854   4.861   2.645   2.265 -0.2595  1.7139  1.1975
  144MOL0     H19855   4.690   2.808   2.174 -1.8901 -0.7597 -1.9806
  144MOL0     H19856   2.615   2.958   1.474  1.1403  2.0247 -1.4750
  144MOL0     H19857   2.526   3.162   1.414  0.1378 -0.2221  1.0373
  144MOL0     H19858   2.533   3.617   1.622  0.3635  1.7633  0.4182
  144MOL0     H19859   2.433   3.829   1.639 -0.8109  1.0142 -0.6160
  144MOL0     H19860   2.224   3.968   1.655  0.0777  2.1772  0.2170
  144MOL0     H19861   2.352   4.066   1.622 -2.7255  2.5358  1.5249
  144MOL0     H19862   2.154   4.184   1.642  0.6883  2.1629 -1.0482
  144MOL0     H19863   2.077   4.096   1.509 -0.4300 -0.0335  2.7604
  144MOL0     H19864   2.330   4.259   1.460  0.5347  1.3433 -3.4803
  144MOL0     H19865   2.212   4.199   1.349 -2.7763  0.7249 -0.6743
  144MOL0     H19866   2.205   4.450   1.407 -1.7271  1.2482  0.5388
  144MOL0     H19867   2.140   4.413   1.566  1.1233 -4.2372  1.2537
  144MOL0     H19868   1.785   4.371   1.388 -0.0885 -1.4825 -2.0148
  144MOL0     H19869   2.287   3.814   1.251 -2.2446  2.1298  2.1021
  144MOL0     H19870   2.335   3.473   1.172  2.4974 -1.5452  0.3026
  144MOL0     H19871   2.321   3.636   1.105 -1.6022 -0.0187  1.5530
  144MOL0     H19872   2.481   3.555   1.122 -0.0040 -0.0546  0.1673
  145MOL0     O19873   3.866   7.713   8.000 -0.6231 -0.2232 -0.0834
  145MOL0     C19874   3.965   7.772   7.952 -0.3929  0.3316 -0.2918
  145MOL0     O19875   4.009   7.766   7.820  0.4361  0.1384 -0.4287
  145MOL0     C19876   3.941   7.702   7.723  0.2482 -0.1788 -0.2495
  145MOL0     C19877   3.821   7.771   7.691  0.0701  0.3939 -0.2516
  145MOL0     C19878   3.752   7.723   7.583 -0.4221 -0.1356  0.1881
  145MOL0     C19879   3.781   7.599   7.524  0.3204 -0.8686 -0.5336
  145MOL0     O19880   3.709   7.542   7.426  0.1296  0.3638  0.1884
  145MOL0     C19881   3.620   7.628   7.347  0.1079 -0.3085 -0.1642
  145MOL0     C19882   3.579   7.527   7.240  0.0091 -0.1086  0.5733
  145MOL0     C19883   3.450   7.580   7.173  0.1988 -0.5667 -0.5275
  145MOL0     C19884   3.397   7.491   7.059  0.4220 -0.8508 -0.4567
  145MOL0     C19885   3.303   7.568   6.969 -0.7315 -0.1308 -0.1375
  145MOL0     C19886   3.230   7.475   6.869 -0.2270 -0.2036  0.4988
  145MOL0     C19887   3.341   7.413   6.775 -0.3571  0.2003  0.0850
  145MOL0     C19888   3.268   7.358   6.656 -0.0031 -0.9949  0.0832
  145MOL0     N19889   3.362   7.269   6.584 -0.4343 -0.3831 -0.4507
  145MOL0     C19890   3.414   7.288   6.462  0.3820  0.3222 -1.3845
  145MOL0     C19891   3.487   7.177   6.436  0.4654  0.4769  0.0636
  145MOL0     C19892   3.548   7.133   6.308  0.0134  0.3892 -0.1012
  145MOL0     C19893   3.704   7.167   6.311 -0.2334  0.5014 -0.0670
  145MOL0     C19894   3.780   7.042   6.347 -0.0499  0.1064  0.0406
  145MOL0     C19895   3.917   7.075   6.398  1.5962  0.4118  0.2708
  145MOL0     O19896   3.970   6.953   6.438 -0.3909  0.3343  0.7770
  145MOL0     C19897   4.104   6.934   6.463 -0.1907  0.4450  0.4118
  145MOL0     C19898   4.213   7.025   6.439  0.5077  1.2277  0.0505
  145MOL0     C19899   4.343   7.000   6.466  0.2570 -0.0890 -0.0769
  145MOL0     C19900   4.441   7.112   6.419  0.1357 -0.2002  0.1199
  145MOL0     C19901   4.382   6.874   6.519 -0.4954 -0.0998 -0.5790
  145MOL0     C19902   4.530   6.839   6.559  0.2721  0.0826  0.6361
  145MOL0     O19903   4.561   6.703   6.546 -0.4497 -0.6086  0.1673
  145MOL0     C19904   4.675   6.646   6.614 -0.1482 -0.1207 -0.0345
  145MOL0     C19905   4.705   6.681   6.752 -0.8193  0.1240  0.3314
  145MOL0     C19906   4.814   6.620   6.824 -0.4379 -0.2788  0.7400
  145MOL0     C19907   4.890   6.523   6.770  0.0612 -1.0731  1.5239
  145MOL0     O19908   4.994   6.465   6.833  1.0534 -0.2837  0.5245
  145MOL0     C19909   5.063   6.537   6.939 -1.0882 -0.8122  0.0445
  145MOL0     C19910   5.193   6.463   6.985 -0.3829  0.0277 -0.4913
  145MOL0     C19911   5.307   6.550   7.044 -0.2964 -0.4335 -0.6657
  145MOL0     C19912   5.277   6.606   7.185  0.0410 -0.1420  0.3071
  145MOL0     C19913   5.402   6.670   7.260 -0.5722  0.4446 -0.1480
  145MOL0     C19914   5.368   6.726   7.397 -0.3664 -0.5897 -0.0004
  145MOL0     C19915   5.475   6.787   7.483  0.5589  0.0485  1.2924
  145MOL0     C19916   5.573   6.686   7.541 -0.1244 -0.0877  0.3612
  145MOL0    Cl19917   5.513   6.573   7.668  0.2050 -0.4056 -0.0375
  145MOL0     C19918   4.861   6.489   6.635 -0.5467  0.0742  0.4505
  145MOL0     C19919   4.759   6.544   6.552  0.2727  0.4474 -1.3722
  145MOL0     O19920   4.606   6.925   6.607 -0.0256  0.3935  0.3284
  145MOL0     C19921   4.280   6.783   6.543 -0.6791 -0.6023  0.5777
  145MOL0     C19922   4.142   6.816   6.519 -0.1456 -1.0193  0.2358
  145MOL0     N19923   3.483   7.093   6.541  0.3507  0.4386 -0.4009
  145MOL0     N19924   3.396   7.141   6.625  1.2824 -0.3852  0.2435
  145MOL0     C19925   3.900   7.530   7.567 -0.3900 -0.6400 -0.0537
  145MOL0     C19926   3.972   7.584   7.669  0.4801  0.9371  0.1004
  145MOL0     C19927   4.051   7.856   8.039 -0.3366 -0.4785 -1.3473
  145MOL0     C19928   4.162   7.918   7.979 -0.1975  0.3656  0.1155
  145MOL0     C19929   4.273   7.964   8.054  0.4575  0.2800 -0.3232
  145MOL0     C19930   4.267   7.971   8.191 -0.3696  0.5555  0.0819
  145MOL0     O19931   4.365   8.007   8.281 -0.2322 -0.7750 -0.4727
  145MOL0     C19932   4.491   8.045   8.227 -0.4112  0.1709  1.1954
  145MOL0     C19933   4.580   8.132   8.320  0.6504  0.0269  0.4810
  145MOL0     C19934   4.671   8.234   8.242  0.0271  0.3211  1.1812
  145MOL0     C19935   4.601   8.341   8.161  0.1345  0.6451 -0.6584
  145MOL0     C19936   4.690   8.444   8.104  0.3309 -0.3822 -0.1544
  145MOL0     C19937   4.752   8.538   8.045  0.6526 -0.0207  0.3913
  145MOL0     C19938   4.148   7.919   8.250  0.4753  0.2026  0.0793
  145MOL0     C19939   4.040   7.859   8.182  0.1607 -0.0848 -0.5819
  145MOL0     C19940   3.921   7.806   8.268  0.0465 -0.7145 -0.0505
  145MOL0     H19941   3.800   7.864   7.744 -3.2570 -0.2262 -0.2892
  145MOL0     H19942   3.660   7.774   7.557  0.6254  0.4730 -2.7318
  145MOL0     H19943   3.674   7.712   7.302 -2.3229 -0.2663 -3.3624
  145MOL0     H19944   3.529   7.670   7.390 -0.1709 -1.4005  0.3281
  145MOL0     H19945   3.664   7.507   7.174  0.2394 -0.7912  1.0614
  145MOL0     H19946   3.558   7.426   7.276 -0.4378 -0.6889 -1.1943
  145MOL0     H19947   3.370   7.600   7.245  0.3656 -0.3920 -0.3899
  145MOL0     H19948   3.482   7.671   7.121  0.5675 -1.5269 -2.0441
  145MOL0     H19949   3.488   7.463   7.004  1.3043  1.4503 -0.2855
  145MOL0     H19950   3.338   7.410   7.102 -1.9148  0.2035 -1.5440
  145MOL0     H19951   3.348   7.654   6.918 -0.4146 -0.5285 -0.5340
  145MOL0     H19952   3.224   7.608   7.033 -1.0021  0.2215 -0.6816
  145MOL0     H19953   3.172   7.391   6.910  4.2871 -3.3214  1.2857
  145MOL0     H19954   3.166   7.541   6.809  2.6134  0.6019 -1.8955
  145MOL0     H19955   3.400   7.333   6.820 -1.3911 -0.2622  0.6568
  145MOL0     H19956   3.414   7.492   6.756  1.2795 -0.0412  4.3603
  145MOL0     H19957   3.182   7.300   6.691  0.9856 -2.2407  0.5300
  145MOL0     H19958   3.238   7.437   6.588 -1.3074 -1.0590  0.5611
  145MOL0     H19959   3.408   7.375   6.397 -0.5543  1.0578 -0.3691
  145MOL0     H19960   3.497   7.187   6.228 -1.2040 -0.4734  0.0502
  145MOL0     H19961   3.542   7.026   6.289  4.4209 -0.0138 -0.1407
  145MOL0     H19962   3.735   7.198   6.211  3.8687  1.5231  1.3238
  145MOL0     H19963   3.714   7.249   6.384 -4.1620  0.3020  0.9034
  145MOL0     H19964   3.732   6.988   6.429  1.1231 -3.3334 -1.3672
  145MOL0     H19965   3.805   6.971   6.267 -1.5725 -0.1757 -0.2281
  145MOL0     H19966   3.972   7.130   6.321  2.0674 -0.9711 -0.4149
  145MOL0     H19967   3.899   7.140   6.484  1.0656 -0.3451  0.7402
  145MOL0     H19968   4.179   7.110   6.381  0.3039 -0.0620 -1.8191
  145MOL0     H19969   4.399   7.166   6.333 -1.4631 -2.9103 -0.9047
  145MOL0     H19970   4.539   7.077   6.387  1.2525  1.7085  1.2362
  145MOL0     H19971   4.454   7.181   6.503 -0.4453  1.7830 -1.3269
  145MOL0     H19972   4.636   6.748   6.803  0.4988  0.4992  1.7025
  145MOL0     H19973   4.839   6.653   6.924  1.5045 -2.1256  0.9531
  145MOL0     H19974   5.088   6.638   6.904 -0.0099 -0.1897  2.3347
  145MOL0     H19975   4.996   6.540   7.025 -1.0717  0.8827  0.0368
  145MOL0     H19976   5.156   6.405   7.071 -0.6198 -0.8498 -1.1719
  145MOL0     H19977   5.234   6.406   6.902 -2.0026  0.9404 -1.9810
  145MOL0     H19978   5.316   6.633   6.973  0.0143 -0.7738 -1.0331
  145MOL0     H19979   5.410   6.512   7.049 -0.5306 -1.2886 -1.7185
  145MOL0     H19980   5.241   6.524   7.248 -1.4371 -1.8076 -2.4748
  145MOL0     H19981   5.206   6.688   7.171 -1.3476 -0.8864  2.5970
  145MOL0     H19982   5.482   6.597   7.277 -1.5258 -0.9603 -1.3863
  145MOL0     H19983   5.446   6.743   7.191 -1.8360 -1.2201 -2.9001
  145MOL0     H19984   5.326   6.639   7.450  2.0813 -2.4254 -0.8848
  145MOL0     H19985   5.295   6.807   7.385 -0.6118 -1.0671 -1.9870
  145MOL0     H19986   5.427   6.830   7.571 -0.5397  1.1519  0.1930
  145MOL0     H19987   5.533   6.860   7.426 -0.2240 -1.4137 -1.6016
  145MOL0     H19988   5.656   6.743   7.583 -2.1299  1.1050  3.0105
  145MOL0     H19989   5.609   6.623   7.459 -1.0281  1.6929 -1.4978
  145MOL0     H19990   4.932   6.429   6.578 -0.6587  1.0588 -0.7852
  145MOL0     H19991   4.742   6.504   6.453 -0.0252  0.7232 -1.4321
  145MOL0     H19992   4.304   6.683   6.578 -1.7998 -0.0269  3.3110
  145MOL0     H19993   4.070   6.736   6.526 -0.2264 -0.8084  3.6415
  145MOL0     H19994   3.915   7.435   7.517 -1.7350  1.3562 -4.7698
  145MOL0     H19995   4.064   7.533   7.698  0.7357  2.2536  1.8142
  145MOL0     H19996   4.178   7.917   7.871  2.0717 -1.3676  0.4178
  145MOL0     H19997   4.354   7.997   7.989  1.0907  0.3316  0.4749
  145MOL0     H19998   4.551   7.954   8.221 -1.1334 -0.4435  2.6574
  145MOL0     H19999   4.487   8.084   8.125 -2.2191 -0.5111  0.9665
  145MOL0     H20000   4.636   8.062   8.382  0.4737 -1.0964 -0.5764
  145MOL0     H20001   4.511   8.188   8.383  0.0260  2.5077 -2.2105
  145MOL0     H20002   4.739   8.280   8.314  1.3716  2.9655 -1.5887
  145MOL0     H20003   4.722   8.178   8.163 -2.5050 -0.8721  0.2851
  145MOL0     H20004   4.532   8.391   8.229  1.8014 -2.3047  3.6388
  145MOL0     H20005   4.553   8.297   8.073  2.2940  2.2357 -2.7759
  145MOL0     H20006   4.809   8.612   7.992  2.2085 -3.8542 -3.9364
  145MOL0     H20007   4.134   7.922   8.357 -1.6505 -0.2745 -0.1254
  145MOL0     H20008   3.900   7.701   8.250 -0.2686 -0.9324  1.4417
  145MOL0     H20009   3.931   7.808   8.377  0.3582 -2.1104 -0.0439
  145MOL0     H20010   3.835   7.872   8.250  2.6308  2.8482 -0.3952
  146MOL0     O20011  10.023   7.978   9.530  0.1183 -0.3574  0.4971
  146MOL0     C20012  10.087   8.077   9.479 -0.4990  0.2163  0.1764
  146MOL0     O20013  10.034   8.199   9.447  0.1833  0.5623 -0.0126
  146MOL0     C20014   9.899   8.195   9.432 -0.1797 -0.3497 -0.0449
  146MOL0     C20015   9.814   8.199   9.542 -0.3034  0.2380  0.8421
  146MOL0     C20016   9.677   8.193   9.521 -0.8871 -0.1085 -0.4269
  146MOL0     C20017   9.626   8.204   9.387 -0.4646 -0.2806  0.5078
  146MOL0     O20018   9.491   8.197   9.377  0.0896 -0.0914 -0.4032
  146MOL0     C20019   9.416   8.246   9.271  0.1694 -0.0739  0.2798
  146MOL0     C20020   9.433   8.398   9.253  0.0490  0.9461  0.2432
  146MOL0     C20021   9.385   8.474   9.376 -0.3031 -0.5171 -1.2740
  146MOL0     C20022   9.380   8.621   9.347 -0.7961  0.3167  0.1866
  146MOL0     C20023   9.327   8.692   9.467 -0.1879 -0.3549 -0.3125
  146MOL0     C20024   9.398   8.661   9.605  0.0456  0.0082  0.0706
  146MOL0     C20025   9.372   8.779   9.700  0.7743  0.3062  0.3740
  146MOL0     C20026   9.435   8.757   9.833  0.0126 -0.4248  0.9277
  146MOL0     N20027   9.417   8.873   9.920 -0.1570 -0.2899 -0.2238
  146MOL0     C20028   9.298   8.927   9.957  0.4983 -0.0219  0.0143
  146MOL0     C20029   9.333   9.024  10.056  0.3288  0.6885  0.0569
  146MOL0     C20030   9.248   9.115  10.136  0.3354  0.2556 -0.1941
  146MOL0     C20031   9.310   9.257  10.124 -0.1577  0.5728  0.0327
  146MOL0     C20032   9.399   9.294  10.242  0.3620 -0.0532 -0.5132
  146MOL0     C20033   9.488   9.409  10.205  0.7155 -0.5588  0.2997
  146MOL0     O20034   9.593   9.417  10.301 -0.1269  0.1227 -0.4521
  146MOL0     C20035   9.706   9.356  10.254 -0.2576 -0.4338 -0.6948
  146MOL0     C20036   9.741   9.234  10.287 -0.5914 -0.9226 -0.3213
  146MOL0     C20037   9.865   9.178  10.247  1.6425  0.0902  0.2465
  146MOL0     C20038   9.892   9.038  10.308 -0.8978 -0.3646 -0.7683
  146MOL0     C20039   9.959   9.255  10.173  0.1338  0.2637 -0.3361
  146MOL0     C20040  10.103   9.205  10.151 -0.7532  0.2181 -0.1127
  146MOL0     O20041  10.198   9.300  10.153  0.5344 -0.2068  0.3600
  146MOL0     C20042  10.320   9.260  10.109 -0.6250  0.0056 -0.5217
  146MOL0     C20043  10.349   9.274   9.982 -0.4328 -0.4279 -0.0645
  146MOL0     C20044  10.472   9.233   9.929 -0.9325 -0.1799  0.4261
  146MOL0     C20045  10.576   9.195  10.008 -0.3815  0.6654  0.0006
  146MOL0     O20046  10.690   9.177   9.948  0.0683 -0.3249 -0.3181
  146MOL0     C20047  10.798   9.106  10.001  0.6466  0.7983 -1.0449
  146MOL0     C20048  10.906   9.101   9.893 -0.3162  0.8465  0.0419
  146MOL0     C20049  10.874   8.991   9.784 -0.7084 -0.2096 -0.4685
  146MOL0     C20050  10.993   8.997   9.676 -0.0021 -0.1009 -0.1906
  146MOL0     C20051  10.992   8.904   9.547  1.1418 -0.4760 -0.2529
  146MOL0     C20052  10.984   8.749   9.598  0.4097 -0.1907  0.4627
  146MOL0     C20053  11.081   8.711   9.710  0.0754  0.4628  0.1908
  146MOL0     C20054  11.226   8.730   9.660  0.0284 -0.7717  0.3220
  146MOL0    Cl20055  11.327   8.589   9.695  0.1563  0.3053  0.0279
  146MOL0     C20056  10.545   9.169  10.143  0.1130  0.4125 -0.8472
  146MOL0     C20057  10.419   9.215  10.198 -0.3827 -0.1133  0.1767
  146MOL0     O20058  10.120   9.092  10.111  0.3271  0.9629 -0.7485
  146MOL0     C20059   9.930   9.392  10.156 -0.1768 -0.4004  0.0029
  146MOL0     C20060   9.797   9.442  10.192 -0.6953  0.2754  1.6989
  146MOL0     N20061   9.471   9.019  10.066  0.1959 -0.8513 -0.6840
  146MOL0     N20062   9.522   8.935   9.981  0.0126  0.3490 -1.0309
  146MOL0     C20063   9.715   8.217   9.273 -0.3335 -0.3634  0.4097
  146MOL0     C20064   9.855   8.201   9.296 -0.4589  0.3399 -0.2480
  146MOL0     C20065  10.228   8.071   9.424 -0.2946  0.0711 -0.1156
  146MOL0     C20066  10.292   8.194   9.402 -0.0802  1.1203  0.1356
  146MOL0     C20067  10.432   8.203   9.384 -0.5702  0.5403  0.0805
  146MOL0     C20068  10.504   8.087   9.355 -0.3978  0.1300 -0.0748
  146MOL0     O20069  10.633   8.107   9.317 -0.1069 -0.0804  0.0074
  146MOL0     C20070  10.733   8.002   9.315  0.1198 -0.7986 -0.2603
  146MOL0     C20071  10.747   7.927   9.179  0.8267 -0.2302 -0.1340
  146MOL0     C20072  10.868   7.846   9.197 -0.8279 -0.0088 -0.1849
  146MOL0     C20073  10.857   7.719   9.281  0.8253 -0.5295 -0.0691
  146MOL0     C20074  10.725   7.646   9.262 -0.1171 -0.2513  0.2362
  146MOL0     C20075  10.618   7.596   9.222  0.1889  0.4426 -0.0967
  146MOL0     C20076  10.443   7.968   9.377 -0.4160 -0.3422 -0.6414
  146MOL0     C20077  10.308   7.956   9.417  0.1766  0.2641  1.6596
  146MOL0     C20078  10.245   7.828   9.450  0.4812 -0.1887 -0.1216
  146MOL0     H20079   9.856   8.203   9.642  2.1757  2.6426 -0.1659
  146MOL0     H20080   9.613   8.195   9.608  2.2092  2.8243  2.0409
  146MOL0     H20081   9.310   8.228   9.289  0.0031  1.3990  0.8538
  146MOL0     H20082   9.430   8.191   9.177 -3.1730 -0.5336 -0.0498
  146MOL0     H20083   9.539   8.414   9.231 -0.0909  0.2519 -1.0521
  146MOL0     H20084   9.378   8.442   9.169 -2.4465  1.7132  2.1452
  146MOL0     H20085   9.286   8.435   9.403 -0.0239 -1.1651 -1.1666
  146MOL0     H20086   9.458   8.449   9.453 -0.1407  0.1278 -1.2117
  146MOL0     H20087   9.478   8.651   9.311 -0.4213 -0.8301  0.1979
  146MOL0     H20088   9.309   8.646   9.268 -0.0499 -1.3164 -1.0481
  146MOL0     H20089   9.219   8.677   9.476 -0.0855  0.3066  3.4156
  146MOL0     H20090   9.342   8.800   9.460 -1.4110  0.0027  1.8181
  146MOL0     H20091   9.358   8.567   9.644 -2.7568  1.2476  0.4388
  146MOL0     H20092   9.504   8.653   9.581 -0.1110  1.5670 -1.3473
  146MOL0     H20093   9.263   8.780   9.704  0.7181  1.6690 -0.8067
  146MOL0     H20094   9.409   8.877   9.670  0.4595  1.3967  3.2233
  146MOL0     H20095   9.405   8.666   9.885  2.2970 -0.1433  2.9267
  146MOL0     H20096   9.542   8.739   9.823 -0.1512 -1.6497  1.2268
  146MOL0     H20097   9.199   8.905   9.919 -0.0798  3.7867 -1.1670
  146MOL0     H20098   9.241   9.096  10.243  0.9759  0.9159 -0.0316
  146MOL0     H20099   9.149   9.104  10.090 -0.7655  4.8215  0.5692
  146MOL0     H20100   9.366   9.266  10.030 -0.1669  0.7335  0.0419
  146MOL0     H20101   9.225   9.326  10.132 -0.5467  0.3913 -2.0133
  146MOL0     H20102   9.357   9.339  10.332  4.3416 -0.5581  1.8252
  146MOL0     H20103   9.455   9.206  10.274 -1.6769 -0.0884  3.6322
  146MOL0     H20104   9.530   9.407  10.103  2.6871 -3.0465  1.0630
  146MOL0     H20105   9.425   9.499  10.209 -0.4818 -1.4398  3.5138
  146MOL0     H20106   9.678   9.170  10.348  0.9052 -2.3892 -0.2509
  146MOL0     H20107   9.810   8.998  10.369  1.4375 -0.8065  2.2774
  146MOL0     H20108   9.976   9.034  10.377 -2.3246 -4.0972  1.0401
  146MOL0     H20109   9.902   8.965  10.227  0.1296 -0.9260 -0.1599
  146MOL0     H20110  10.285   9.312   9.903 -0.5863 -0.6259 -0.0365
  146MOL0     H20111  10.494   9.251   9.824 -0.8319  1.3011  0.6687
  146MOL0     H20112  10.827   9.164  10.089  1.1279 -2.7018  1.2756
  146MOL0     H20113  10.766   9.007  10.034  0.3371  1.0218 -0.6651
  146MOL0     H20114  10.923   9.195   9.840 -1.3442 -0.0469 -1.9807
  146MOL0     H20115  10.996   9.074   9.950 -0.5585  0.8135  0.4126
  146MOL0     H20116  10.777   9.003   9.736 -1.9412 -0.5647  1.7854
  146MOL0     H20117  10.879   8.894   9.835  0.9783 -0.1118 -0.3982
  146MOL0     H20118  11.091   8.988   9.723  0.1781  0.1233 -0.5121
  146MOL0     H20119  10.993   9.101   9.641  1.4169  0.7279  2.0848
  146MOL0     H20120  10.900   8.933   9.495 -1.0543  1.1780  4.1049
  146MOL0     H20121  11.089   8.916   9.498  2.9055 -2.6817  2.4551
  146MOL0     H20122  10.999   8.685   9.511  2.8301 -0.4913  1.0245
  146MOL0     H20123  10.882   8.721   9.624  1.0452 -4.0513 -0.6376
  146MOL0     H20124  11.049   8.609   9.736 -1.0280  0.2116 -1.9507
  146MOL0     H20125  11.085   8.769   9.802  0.2512  1.0809 -0.2056
  146MOL0     H20126  11.277   8.816   9.705 -0.4346 -0.2013 -0.2336
  146MOL0     H20127  11.222   8.745   9.552 -4.6266 -0.5719  0.3298
  146MOL0     H20128  10.611   9.137  10.223 -2.1126 -1.2391  0.4716
  146MOL0     H20129  10.399   9.209  10.304  0.0463 -0.3434  0.2472
  146MOL0     H20130  10.010   9.455  10.117  0.3631  0.2758  2.0673
  146MOL0     H20131   9.780   9.548  10.175  0.8127  0.6923  2.6166
  146MOL0     H20132   9.672   8.236   9.175  1.5151  1.8271 -0.0800
  146MOL0     H20133   9.931   8.196   9.219 -1.6809  1.0574 -1.5603
  146MOL0     H20134  10.245   8.292   9.401 -1.6211  0.4771 -3.4218
  146MOL0     H20135  10.477   8.301   9.372  0.0942  0.4458  1.4940
  146MOL0     H20136  10.827   8.056   9.335  1.1465 -2.0580 -1.4595
  146MOL0     H20137  10.711   7.936   9.399  0.9194  0.8244  1.2934
  146MOL0     H20138  10.767   7.993   9.094  2.0872 -0.5510 -0.0995
  146MOL0     H20139  10.661   7.869   9.145  1.3703 -0.8131 -0.5265
  146MOL0     H20140  10.911   7.815   9.101  1.6458 -3.5747  1.8168
  146MOL0     H20141  10.955   7.894   9.243  1.4811 -3.8259 -0.0978
  146MOL0     H20142  10.866   7.754   9.385  0.2706 -0.9748  0.1397
  146MOL0     H20143  10.928   7.643   9.249 -1.0912 -2.7602  0.6089
  146MOL0     H20144  10.525   7.549   9.197 -0.9191  2.0800  0.7811
  146MOL0     H20145  10.512   7.886   9.363 -0.2682 -0.3640  0.1901
  146MOL0     H20146  10.327   7.756   9.448  1.3495  0.7644 -1.5151
  146MOL0     H20147  10.201   7.820   9.550 -0.2665 -1.8513 -0.5655
  146MOL0     H20148  10.177   7.804   9.368  2.9240 -1.3603 -1.9203
  147MOL0     O20149   1.252   5.635   9.828 -0.2910 -0.1947 -0.3567
  147MOL0     C20150   1.277   5.755   9.833 -0.5023 -0.4714 -0.9346
  147MOL0     O20151   1.378   5.813   9.768 -0.3272  0.4805  0.3779
  147MOL0     C20152   1.425   5.741   9.663 -0.6021  0.4547  0.1769
  147MOL0     C20153   1.346   5.683   9.557  0.5111  0.2546 -0.4090
  147MOL0     C20154   1.399   5.606   9.458 -0.9080  0.6170  0.1098
  147MOL0     C20155   1.543   5.591   9.450 -0.4248  0.2301  0.3168
  147MOL0     O20156   1.610   5.530   9.348  0.4436  0.3109 -0.0560
  147MOL0     C20157   1.559   5.397   9.316  0.5956  0.4665  0.1063
  147MOL0     C20158   1.619   5.354   9.183  0.1728  0.2971  0.0522
  147MOL0     C20159   1.554   5.435   9.067 -0.4646  0.5363  0.2998
  147MOL0     C20160   1.633   5.405   8.937 -0.8128 -0.4337 -1.0303
  147MOL0     C20161   1.564   5.481   8.820  0.1337  0.8641 -0.5848
  147MOL0     C20162   1.640   5.468   8.685 -0.1738  0.0734  0.6242
  147MOL0     C20163   1.555   5.549   8.587 -0.0733 -0.5465  0.0895
  147MOL0     C20164   1.643   5.568   8.466  0.7576 -0.1182 -0.2255
  147MOL0     N20165   1.594   5.677   8.381 -0.5459 -0.0886  0.2778
  147MOL0     C20166   1.470   5.716   8.369  0.3287  0.3499  0.0237
  147MOL0     C20167   1.480   5.830   8.299 -0.2740  0.4909 -0.2720
  147MOL0     C20168   1.363   5.912   8.238 -1.0940  0.2008  0.0421
  147MOL0     C20169   1.403   6.057   8.203  1.3112  0.5941  0.7058
  147MOL0     C20170   1.413   6.134   8.337  0.2204  0.3414  0.3191
  147MOL0     C20171   1.457   6.284   8.311 -0.1955 -0.2445 -0.7967
  147MOL0     O20172   1.514   6.329   8.441 -0.1633 -0.2866 -0.1044
  147MOL0     C20173   1.647   6.307   8.470  0.0380  0.4735 -1.2660
  147MOL0     C20174   1.734   6.220   8.405 -0.5293  0.1483  0.4364
  147MOL0     C20175   1.877   6.212   8.429 -0.1856  0.0520 -0.0634
  147MOL0     C20176   1.958   6.118   8.354  0.8023  1.4155 -0.0767
  147MOL0     C20177   1.939   6.300   8.528  1.0592 -0.0210 -0.6608
  147MOL0     C20178   2.095   6.299   8.575 -0.0885 -0.5915  0.4001
  147MOL0     O20179   2.117   6.355   8.692  0.3364 -0.0526 -0.7058
  147MOL0     C20180   2.208   6.306   8.781  0.6232  0.9141 -0.2632
  147MOL0     C20181   2.242   6.173   8.799 -0.9448  0.2677  0.5339
  147MOL0     C20182   2.337   6.142   8.905 -0.3055  0.0899  0.4149
  147MOL0     C20183   2.398   6.241   8.985  0.0591 -0.1734 -0.0817
  147MOL0     O20184   2.497   6.209   9.070  0.5117 -0.0963  0.2087
  147MOL0     C20185   2.594   6.311   9.112 -0.7397 -1.3249 -0.1917
  147MOL0     C20186   2.718   6.231   9.153  0.1325  0.9583 -0.5889
  147MOL0     C20187   2.769   6.142   9.040  0.1516  0.5724 -0.4168
  147MOL0     C20188   2.909   6.080   9.057  0.5907  0.0378 -0.3373
  147MOL0     C20189   2.955   5.972   8.950 -0.0172 -1.0571 -0.1824
  147MOL0     C20190   3.078   5.891   8.989  1.0851  0.6184 -0.1682
  147MOL0     C20191   3.190   5.997   9.013  0.1909 -0.0265  0.3431
  147MOL0     C20192   3.325   5.926   9.031  0.9271  0.1350  0.0317
  147MOL0    Cl20193   3.338   5.788   8.908 -0.3250  0.1686  0.2738
  147MOL0     C20194   2.355   6.375   8.968 -0.7667  0.2193 -0.9119
  147MOL0     C20195   2.253   6.403   8.873 -0.3373 -0.0454  0.1453
  147MOL0     O20196   2.176   6.230   8.510 -0.1629 -0.0458  0.8510
  147MOL0     C20197   1.847   6.375   8.606  0.3030  0.6785  0.2979
  147MOL0     C20198   1.711   6.377   8.574 -0.0704  0.7374 -0.4381
  147MOL0     N20199   1.608   5.853   8.268 -0.5535 -0.1923 -0.3114
  147MOL0     N20200   1.680   5.765   8.323  0.4498 -0.7050  0.0175
  147MOL0     C20201   1.619   5.652   9.548  0.2658  0.4915 -0.0671
  147MOL0     C20202   1.564   5.725   9.647  0.9450 -0.1896 -0.0667
  147MOL0     C20203   1.188   5.841   9.922 -1.0261  0.5848  0.0901
  147MOL0     C20204   1.167   5.978   9.892 -0.5246 -0.2892  0.9900
  147MOL0     C20205   1.083   6.062   9.965 -0.1551  0.2659 -0.7592
  147MOL0     C20206   1.000   6.013  10.068 -0.4326 -0.8587  0.4919
  147MOL0     O20207   0.911   6.106  10.103  0.1970 -0.8012 -0.1233
  147MOL0     C20208   0.794   6.044  10.163 -0.4603 -0.0967 -0.2417
  147MOL0     C20209   0.818   6.036  10.322 -0.6883 -0.0069  0.2081
  147MOL0     C20210   0.688   6.055  10.391 -0.2286 -0.1291 -0.3741
  147MOL0     C20211   0.580   5.956  10.346 -0.2627  0.1880 -0.1213
  147MOL0     C20212   0.478   5.920  10.449 -0.9603 -0.1915  0.8998
  147MOL0     C20213   0.385   5.892  10.520  0.8840  0.3179  0.4912
  147MOL0     C20214   1.028   5.877  10.112 -0.4890 -0.5826 -0.8834
  147MOL0     C20215   1.111   5.790  10.035 -0.0482 -1.1206  0.1711
  147MOL0     C20216   1.124   5.652  10.075  0.3550 -0.0513  0.0814
  147MOL0     H20217   1.239   5.701   9.555  0.1565 -1.2279  1.7163
  147MOL0     H20218   1.345   5.562   9.375  0.1639  1.1151 -0.8771
  147MOL0     H20219   1.450   5.395   9.313  0.6113  0.7120 -0.8879
  147MOL0     H20220   1.596   5.340   9.402 -1.5730 -1.0947  0.0760
  147MOL0     H20221   1.729   5.361   9.183  0.1454  0.9355  1.1582
  147MOL0     H20222   1.609   5.245   9.174  1.4627  0.1801 -0.1982
  147MOL0     H20223   1.448   5.412   9.052 -0.2820  0.5928 -1.2896
  147MOL0     H20224   1.556   5.544   9.077  0.0852  0.9061 -2.7817
  147MOL0     H20225   1.737   5.439   8.941 -0.1785 -2.3983  0.0344
  147MOL0     H20226   1.634   5.299   8.912  1.0651 -0.2723 -1.8282
  147MOL0     H20227   1.567   5.587   8.848 -1.8395  0.9058 -0.4022
  147MOL0     H20228   1.460   5.451   8.801 -0.0458  0.7261  0.5587
  147MOL0     H20229   1.744   5.500   8.698  0.9314 -3.3426  1.4191
  147MOL0     H20230   1.631   5.362   8.659 -1.3291  0.5945 -1.2943
  147MOL0     H20231   1.507   5.634   8.637  1.6590  0.5869 -0.0930
  147MOL0     H20232   1.470   5.494   8.546  0.3331 -0.6024 -0.6996
  147MOL0     H20233   1.744   5.596   8.497 -0.1508  0.1407  2.7473
  147MOL0     H20234   1.651   5.472   8.414 -1.6329 -1.4667  1.6698
  147MOL0     H20235   1.374   5.671   8.392 -0.1777  1.9740  1.2866
  147MOL0     H20236   1.268   5.906   8.293 -1.1425  0.4388 -0.0130
  147MOL0     H20237   1.337   5.860   8.146 -0.4985  2.2528 -1.3526
  147MOL0     H20238   1.494   6.064   8.143  0.1459  2.7276 -0.9517
  147MOL0     H20239   1.308   6.090   8.159 -1.3342 -4.9216  1.3270
  147MOL0     H20240   1.316   6.126   8.387 -0.4813 -2.1039 -1.2469
  147MOL0     H20241   1.490   6.086   8.399  2.1113 -2.3514 -3.6679
  147MOL0     H20242   1.534   6.277   8.233 -0.4502 -0.8168 -0.9945
  147MOL0     H20243   1.381   6.359   8.285  1.3743  3.2037  3.2107
  147MOL0     H20244   1.700   6.158   8.322 -2.7944 -0.3054  1.6212
  147MOL0     H20245   2.022   6.179   8.289  0.8716  1.7121  0.2691
  147MOL0     H20246   1.882   6.063   8.298 -0.4611  2.4393  0.6011
  147MOL0     H20247   2.014   6.053   8.422 -0.7149  0.5970  0.4278
  147MOL0     H20248   2.217   6.093   8.731  0.4855  0.5230 -0.3266
  147MOL0     H20249   2.379   6.044   8.926 -1.2566 -0.4229 -0.0248
  147MOL0     H20250   2.632   6.370   9.028 -0.0104 -0.4859  0.7087
  147MOL0     H20251   2.566   6.370   9.200 -0.3281  0.5188 -1.2514
  147MOL0     H20252   2.796   6.299   9.188  1.6996 -1.2854  0.5205
  147MOL0     H20253   2.686   6.165   9.234  2.4207 -1.3133 -1.4112
  147MOL0     H20254   2.779   6.200   8.947  3.9219  1.3240  0.2953
  147MOL0     H20255   2.700   6.062   9.013  1.2498  0.3390 -2.8097
  147MOL0     H20256   2.924   6.036   9.155  1.2854 -1.8132 -1.2322
  147MOL0     H20257   2.982   6.162   9.055  2.2393 -1.1207  3.8092
  147MOL0     H20258   2.866   5.909   8.938 -1.2737  0.5018  0.6073
  147MOL0     H20259   2.960   6.026   8.855 -2.2869  0.5088  0.5048
  147MOL0     H20260   3.096   5.829   8.900 -1.2022  1.2784 -1.1651
  147MOL0     H20261   3.069   5.824   9.075  0.9043  0.5539 -0.2376
  147MOL0     H20262   3.166   6.058   9.101 -0.6113 -1.6774  1.3400
  147MOL0     H20263   3.207   6.064   8.929 -0.3895 -0.0512  0.2004
  147MOL0     H20264   3.333   5.889   9.134 -0.4929 -0.1825  0.0472
  147MOL0     H20265   3.403   6.002   9.019 -1.2687  2.2928 -1.7319
  147MOL0     H20266   2.391   6.465   9.018 -2.7332  0.8612 -0.5666
  147MOL0     H20267   2.217   6.505   8.881  0.1435  0.0599  1.0853
  147MOL0     H20268   1.882   6.432   8.692 -0.8331 -0.2270  1.4067
  147MOL0     H20269   1.646   6.434   8.641 -1.3783 -3.1236  1.8974
  147MOL0     H20270   1.724   5.626   9.551 -0.3343 -2.4939 -1.6866
  147MOL0     H20271   1.625   5.764   9.728  0.4177 -0.4021  0.4323
  147MOL0     H20272   1.220   6.021   9.808 -1.6581  1.5362  1.1378
  147MOL0     H20273   1.075   6.168   9.942 -0.6217  1.2301  3.2565
  147MOL0     H20274   0.707   6.104  10.134 -1.1138  0.5615  2.7071
  147MOL0     H20275   0.778   5.939  10.138 -3.7140  0.5832 -1.4983
  147MOL0     H20276   0.881   6.120  10.352 -2.3171  1.7637 -1.1408
  147MOL0     H20277   0.858   5.936  10.342 -0.6709 -0.4507 -1.7514
  147MOL0     H20278   0.692   6.052  10.500 -3.3373  2.0901 -0.0507
  147MOL0     H20279   0.661   6.158  10.366  0.8169 -0.2665 -2.2532
  147MOL0     H20280   0.628   5.858  10.332  0.7016  0.3228  1.8749
  147MOL0     H20281   0.525   5.993  10.259 -0.0702  1.5303  0.3130
  147MOL0     H20282   0.297   5.861  10.574 -0.5707  0.5459 -1.6160
  147MOL0     H20283   0.965   5.824  10.184  2.6364 -1.1385  1.6631
  147MOL0     H20284   1.056   5.621  10.155 -0.8039 -3.2390 -1.9318
  147MOL0     H20285   1.098   5.565  10.013  2.2947  0.1218 -1.0696
  147MOL0     H20286   1.223   5.634  10.120 -0.4054 -2.5609  0.9171
  148MOL0     O20287   6.246   7.861   4.618 -0.2520 -0.4734 -0.4078
  148MOL0     C20288   6.186   7.967   4.594 -0.1785  0.2006  0.8103
  148MOL0     O20289   6.238   8.063   4.503  0.7060  0.1918  0.2493
  148MOL0     C20290   6.361   8.049   4.444  0.1973 -0.0443 -0.8862
  148MOL0     C20291   6.448   8.160   4.441 -0.9109  0.0673  0.1356
  148MOL0     C20292   6.564   8.158   4.360  0.5204 -0.2460 -0.0748
  148MOL0     C20293   6.609   8.038   4.303 -0.4194  1.0632 -0.9014
  148MOL0     O20294   6.741   8.036   4.244 -0.3106  0.7741 -0.3609
  148MOL0     C20295   6.804   7.906   4.265  0.2744 -0.2677  1.2498
  148MOL0     C20296   6.955   7.904   4.279  0.0191 -0.0421 -0.0638
  148MOL0     C20297   7.015   7.986   4.169  0.2751 -0.6889 -0.1521
  148MOL0     C20298   7.161   8.006   4.193  0.4437  0.3333  0.2861
  148MOL0     C20299   7.237   8.028   4.057 -0.1250  0.5060 -0.4154
  148MOL0     C20300   7.383   8.073   4.087  0.3667 -0.1345  0.6010
  148MOL0     C20301   7.463   8.087   3.957  1.6240  0.3812 -0.7954
  148MOL0     C20302   7.553   8.213   3.963 -0.6913 -0.7787  0.5732
  148MOL0     N20303   7.668   8.203   3.866  0.8291  0.3886 -0.0496
  148MOL0     C20304   7.771   8.114   3.858 -0.2255  0.8872 -1.5038
  148MOL0     C20305   7.856   8.162   3.771 -0.0106 -0.1264 -0.0683
  148MOL0     C20306   7.985   8.110   3.718 -0.1372  0.0221  0.4259
  148MOL0     C20307   8.072   8.052   3.840  0.1059  0.8092 -0.7270
  148MOL0     C20308   8.040   7.902   3.859  0.1818  0.2501  0.2962
  148MOL0     C20309   8.161   7.828   3.924  0.6102  0.4345  0.3543
  148MOL0     O20310   8.139   7.686   3.911  0.2522 -0.1536 -0.0519
  148MOL0     C20311   8.096   7.628   4.033 -0.2375 -0.5522  0.0002
  148MOL0     C20312   8.184   7.587   4.135 -0.3102  0.1511  0.3241
  148MOL0     C20313   8.143   7.547   4.265 -0.6869 -0.3780  0.9533
  148MOL0     C20314   8.253   7.515   4.359 -0.0993 -0.5987 -0.6462
  148MOL0     C20315   8.002   7.524   4.288 -0.0214 -0.5798  0.6925
  148MOL0     C20316   7.938   7.467   4.411 -0.3475 -0.3513 -0.8503
  148MOL0     O20317   7.813   7.418   4.408  0.3193  0.3805 -0.1527
  148MOL0     C20318   7.743   7.383   4.522 -0.2174 -0.1664 -0.8987
  148MOL0     C20319   7.710   7.251   4.550 -0.6231 -0.0993  0.4860
  148MOL0     C20320   7.648   7.215   4.671  0.0462  0.5135 -0.4626
  148MOL0     C20321   7.612   7.313   4.766  0.3243 -0.4983  0.2398
  148MOL0     O20322   7.550   7.288   4.884  0.1934 -0.1120  0.7568
  148MOL0     C20323   7.579   7.170   4.959 -0.7872 -0.3134 -0.3568
  148MOL0     C20324   7.507   7.164   5.099 -0.2994 -0.2957 -0.5809
  148MOL0     C20325   7.554   7.289   5.183  0.4308  0.0472 -0.1276
  148MOL0     C20326   7.485   7.321   5.319  0.0775 -0.4105  0.5238
  148MOL0     C20327   7.559   7.253   5.421 -0.3924 -0.5626 -0.1671
  148MOL0     C20328   7.485   7.253   5.546  0.3019 -0.7503 -1.0337
  148MOL0     C20329   7.390   7.135   5.563  0.5689  0.1938  0.3647
  148MOL0     C20330   7.245   7.185   5.597 -1.2124 -0.0127  0.7665
  148MOL0    Cl20331   7.249   7.288   5.738  0.1062  0.1847  0.0126
  148MOL0     C20332   7.628   7.444   4.727  0.3473  0.8504  0.1424
  148MOL0     C20333   7.694   7.486   4.612 -1.3755  0.2118 -0.4579
  148MOL0     O20334   8.004   7.478   4.514  0.5330 -0.6290 -0.2817
  148MOL0     C20335   7.914   7.559   4.188  0.7930  0.0154  0.9075
  148MOL0     C20336   7.964   7.611   4.067  0.0039 -0.0807  0.5206
  148MOL0     N20337   7.809   8.279   3.722 -0.4573  0.2036  0.7290
  148MOL0     N20338   7.701   8.303   3.776  0.4611  0.1158 -0.1463
  148MOL0     C20339   6.523   7.929   4.302 -0.6437 -0.7805  0.0911
  148MOL0     C20340   6.398   7.933   4.372 -0.1680 -0.2358 -0.1489
  148MOL0     C20341   6.067   8.013   4.667 -0.7140 -0.0554  0.2823
  148MOL0     C20342   6.028   8.148   4.653  0.1917 -0.3313 -0.2995
  148MOL0     C20343   5.914   8.200   4.708  0.0707  0.0325 -1.6933
  148MOL0     C20344   5.833   8.113   4.775  0.3559  0.3252 -0.5507
  148MOL0     O20345   5.716   8.171   4.820  0.3263  0.6768  0.0629
  148MOL0     C20346   5.583   8.119   4.809  0.0616 -0.1142 -0.1796
  148MOL0     C20347   5.505   8.135   4.667  0.4059 -1.0886 -0.9157
  148MOL0     C20348   5.358   8.094   4.675 -0.0509 -0.2733 -0.2894
  148MOL0     C20349   5.274   8.202   4.758  0.3004 -0.1511  0.1899
  148MOL0     C20350   5.131   8.168   4.760  0.4561 -0.9909 -0.1224
  148MOL0     C20351   5.016   8.129   4.775 -0.1124 -0.0304  0.7484
  148MOL0     C20352   5.867   7.981   4.787  0.0725  0.6402 -0.2381
  148MOL0     C20353   5.983   7.923   4.729  0.3009  0.1113 -0.1945
  148MOL0     C20354   6.002   7.774   4.736 -0.2593 -0.1758 -0.4319
  148MOL0     H20355   6.430   8.255   4.491  1.1675 -0.4790  2.0584
  148MOL0     H20356   6.636   8.239   4.365  0.7378 -0.2483 -2.3494
  148MOL0     H20357   6.785   7.850   4.172 -0.0319  2.7620 -0.6512
  148MOL0     H20358   6.755   7.852   4.346 -1.8232  1.4178  1.1888
  148MOL0     H20359   6.976   7.951   4.375 -2.1975  2.3834 -0.6466
  148MOL0     H20360   6.987   7.800   4.286 -1.2222 -0.3072  3.1931
  148MOL0     H20361   6.991   7.938   4.073  1.0804 -0.2605 -0.5734
  148MOL0     H20362   6.975   8.087   4.155  1.0491 -0.3036  0.3656
  148MOL0     H20363   7.177   8.094   4.257  0.3331 -0.0661  0.8731
  148MOL0     H20364   7.215   7.922   4.237  2.3332  0.2689 -1.9939
  148MOL0     H20365   7.191   8.099   3.988 -1.4999 -1.5620 -1.7402
  148MOL0     H20366   7.232   7.931   4.008 -0.3484  0.1277  0.3332
  148MOL0     H20367   7.377   8.172   4.134  0.5325 -0.5199  1.4620
  148MOL0     H20368   7.429   8.001   4.155 -1.3430  0.9323  3.0646
  148MOL0     H20369   7.400   8.114   3.872  1.3873 -1.0317 -1.1011
  148MOL0     H20370   7.516   7.997   3.925 -0.7403 -0.5193 -2.4501
  148MOL0     H20371   7.486   8.297   3.945  2.8282  1.8059 -1.5364
  148MOL0     H20372   7.603   8.208   4.061 -0.1194 -3.4110  0.2437
  148MOL0     H20373   7.783   8.018   3.908 -1.0461  1.4084 -0.2535
  148MOL0     H20374   8.035   8.190   3.663 -1.6024  1.4117  1.0185
  148MOL0     H20375   7.960   8.027   3.651 -1.4096  0.3691  0.4469
  148MOL0     H20376   8.179   8.056   3.816  0.3640 -3.0273 -0.8834
  148MOL0     H20377   8.059   8.109   3.932  0.1189 -1.1231  0.5450
  148MOL0     H20378   7.954   7.904   3.926  0.1185  0.9983  0.1997
  148MOL0     H20379   8.019   7.852   3.764 -1.3154 -1.3820  1.4215
  148MOL0     H20380   8.245   7.862   3.864 -0.3747  4.2474  0.8422
  148MOL0     H20381   8.171   7.871   4.024  2.4423  1.5817 -0.2724
  148MOL0     H20382   8.290   7.601   4.118 -0.1571 -0.9861  0.2616
  148MOL0     H20383   8.244   7.444   4.442  0.2794  0.3297  0.2080
  148MOL0     H20384   8.281   7.608   4.409  0.7976 -1.7913  1.1970
  148MOL0     H20385   8.333   7.473   4.297  0.3647 -0.2477 -0.2932
  148MOL0     H20386   7.745   7.185   4.471 -1.0626 -0.4172  0.5563
  148MOL0     H20387   7.623   7.110   4.686 -2.0117  1.0823  0.3147
  148MOL0     H20388   7.549   7.089   4.891  2.9194 -0.9568 -1.4267
  148MOL0     H20389   7.687   7.170   4.972 -0.6996  3.5972 -0.0137
  148MOL0     H20390   7.400   7.181   5.081 -0.7913  0.7523  2.6634
  148MOL0     H20391   7.518   7.067   5.147  1.6892 -0.3636 -1.0884
  148MOL0     H20392   7.535   7.368   5.110  1.6670 -1.7623 -2.5513
  148MOL0     H20393   7.661   7.270   5.200  0.4737  0.0495 -0.3918
  148MOL0     H20394   7.379   7.295   5.327 -0.0263  0.5040  3.2174
  148MOL0     H20395   7.488   7.424   5.356  0.4495 -0.3804  0.4108
  148MOL0     H20396   7.585   7.152   5.389 -2.9828 -1.8091  1.3811
  148MOL0     H20397   7.654   7.308   5.428  1.2370 -3.1392 -0.8594
  148MOL0     H20398   7.425   7.344   5.551 -0.5507 -1.2756 -1.3891
  148MOL0     H20399   7.540   7.273   5.638 -0.8172  1.1394 -0.7323
  148MOL0     H20400   7.422   7.068   5.643  1.1274  1.6148  1.3691
  148MOL0     H20401   7.395   7.081   5.468 -1.0118  1.5182 -0.5205
  148MOL0     H20402   7.177   7.100   5.609 -0.4209 -0.4361  2.5668
  148MOL0     H20403   7.209   7.234   5.506  0.0395 -2.3915 -1.1187
  148MOL0     H20404   7.583   7.513   4.799  1.4221  0.9015  0.8001
  148MOL0     H20405   7.728   7.589   4.605  1.2291 -0.5762 -0.3782
  148MOL0     H20406   7.807   7.553   4.204  0.6305  1.2367  0.4246
  148MOL0     H20407   7.886   7.653   4.005  0.7854 -0.7309 -0.9564
  148MOL0     H20408   6.543   7.836   4.250 -1.8965 -1.1764  0.2888
  148MOL0     H20409   6.330   7.849   4.379 -0.4934  0.1187  1.1284
  148MOL0     H20410   6.097   8.219   4.607 -0.4254  1.6609  1.6898
  148MOL0     H20411   5.893   8.305   4.692 -0.6800  0.3114  0.7109
  148MOL0     H20412   5.580   8.015   4.843 -2.2265  0.8059  2.8711
  148MOL0     H20413   5.526   8.153   4.896  2.4449 -2.2410  2.4237
  148MOL0     H20414   5.546   8.067   4.591  1.0503 -1.2109 -0.4686
  148MOL0     H20415   5.515   8.238   4.630  2.6986 -0.3675  1.3990
  148MOL0     H20416   5.330   8.092   4.570  2.3938  1.5916 -1.0772
  148MOL0     H20417   5.334   7.999   4.725 -3.2982  0.6631  0.1614
  148MOL0     H20418   5.277   8.309   4.732 -0.2754  0.8863  3.8784
  148MOL0     H20419   5.316   8.201   4.859 -0.5645  2.6765  0.6658
  148MOL0     H20420   4.915   8.105   4.799 -0.9860  0.5196 -2.1186
  148MOL0     H20421   5.804   7.915   4.846 -0.0275  1.6380  0.8019
  148MOL0     H20422   6.072   7.755   4.818  0.5005 -0.0777 -1.0451
  148MOL0     H20423   5.906   7.723   4.745  1.0321 -2.6501  0.3279
  148MOL0     H20424   6.046   7.729   4.647 -1.3085  0.4574 -1.2944
  149MOL0     O20425   6.794   6.478   1.438  0.3522 -0.5205  0.4073
  149MOL0     C20426   6.805   6.415   1.333  0.5869 -0.0215 -0.4786
  149MOL0     O20427   6.697   6.363   1.263  0.9196 -1.2937  0.5831
  149MOL0     C20428   6.574   6.406   1.308 -0.5519 -0.4043  0.0508
  149MOL0     C20429   6.489   6.328   1.380 -0.1369  0.5171  0.0912
  149MOL0     C20430   6.358   6.356   1.394 -0.2749 -0.0184 -1.0062
  149MOL0     C20431   6.304   6.476   1.342  1.0204 -0.7417 -0.7953
  149MOL0     O20432   6.175   6.499   1.374  0.4599  0.0330  0.4766
  149MOL0     C20433   6.125   6.619   1.337  0.6446 -0.8175  0.3815
  149MOL0     C20434   5.975   6.629   1.354 -0.8337  0.2946 -0.5140
  149MOL0     C20435   5.920   6.610   1.488  0.6626 -0.3045  0.1796
  149MOL0     C20436   5.957   6.723   1.587  0.4195  0.1612 -0.1059
  149MOL0     C20437   5.874   6.718   1.724 -0.1050 -1.1048 -0.5599
  149MOL0     C20438   5.909   6.849   1.803 -0.1630  0.1756  0.2268
  149MOL0     C20439   5.886   6.857   1.957 -0.1678 -0.4332 -0.3737
  149MOL0     C20440   5.771   6.792   2.014  0.1854 -0.3113 -0.4130
  149MOL0     N20441   5.650   6.859   1.966 -0.2774 -0.8037 -0.6355
  149MOL0     C20442   5.560   6.812   1.880  1.0205 -0.1232  0.2019
  149MOL0     C20443   5.480   6.921   1.862 -0.1053 -0.5522  1.0667
  149MOL0     C20444   5.351   6.937   1.779  0.6062 -0.0572 -0.8266
  149MOL0     C20445   5.316   7.082   1.737  0.4234  0.4486 -0.3296
  149MOL0     C20446   5.424   7.172   1.663  0.2179  0.6626  0.1776
  149MOL0     C20447   5.470   7.097   1.539  0.3614  0.7289  0.5307
  149MOL0     O20448   5.557   7.188   1.472  0.5676  0.0709  0.1007
  149MOL0     C20449   5.691   7.153   1.462  0.2849 -0.7243 -0.6373
  149MOL0     C20450   5.783   7.178   1.563 -0.9753  0.7675  0.1991
  149MOL0     C20451   5.917   7.138   1.553  0.4421  0.1623 -0.1755
  149MOL0     C20452   6.011   7.179   1.655 -0.1085 -0.1453 -0.2413
  149MOL0     C20453   5.956   7.078   1.434  0.0732 -0.5349 -0.9175
  149MOL0     C20454   6.095   7.023   1.413  0.3755 -0.1869 -0.8731
  149MOL0     O20455   6.136   7.029   1.280  0.1648  0.2155  0.3382
  149MOL0     C20456   6.253   6.985   1.222  0.0853  0.8383  0.4414
  149MOL0     C20457   6.260   6.952   1.087  0.1553 -0.4353 -0.2331
  149MOL0     C20458   6.380   6.911   1.024 -0.4554  0.0254  0.3471
  149MOL0     C20459   6.504   6.909   1.095 -0.8244  0.3020  0.3115
  149MOL0     O20460   6.628   6.854   1.059  1.3785 -0.4260 -0.5639
  149MOL0     C20461   6.629   6.763   0.958  0.1607  0.1204  0.3418
  149MOL0     C20462   6.755   6.676   0.954  0.7256 -0.0443  0.3266
  149MOL0     C20463   6.876   6.760   0.998 -0.2846  0.0593  0.3627
  149MOL0     C20464   7.011   6.689   0.992  1.0228  0.0026 -0.0908
  149MOL0     C20465   7.058   6.651   0.854  0.8567 -0.1487  0.5687
  149MOL0     C20466   7.141   6.758   0.782  0.8879  0.9875  0.1404
  149MOL0     C20467   7.170   6.709   0.643  0.2790 -0.0547  0.1581
  149MOL0     C20468   7.244   6.810   0.551 -0.2851  0.6197  0.5523
  149MOL0    Cl20469   7.165   6.967   0.541 -0.0459 -0.2288  0.4908
  149MOL0     C20470   6.495   6.923   1.236  0.2790  0.0108 -0.1069
  149MOL0     C20471   6.374   6.971   1.292 -0.3424 -0.2150 -0.5630
  149MOL0     O20472   6.160   6.977   1.512  0.2998 -0.5262 -0.5409
  149MOL0     C20473   5.863   7.051   1.333  0.6734 -0.4391 -0.0770
  149MOL0     C20474   5.730   7.092   1.342 -0.2112 -0.5617  1.2448
  149MOL0     N20475   5.527   7.028   1.939 -0.7302  0.4856  0.6143
  149MOL0     N20476   5.627   6.987   2.011 -0.1119  0.6501  0.4185
  149MOL0     C20477   6.392   6.568   1.280 -0.3515 -0.7708 -0.6084
  149MOL0     C20478   6.525   6.530   1.267  1.2832 -0.1751 -0.3292
  149MOL0     C20479   6.941   6.396   1.271  0.8965 -0.9644  0.4365
  149MOL0     C20480   6.941   6.338   1.143 -0.1838  0.9504 -0.0252
  149MOL0     C20481   7.054   6.288   1.092  0.3207 -0.2158 -0.6208
  149MOL0     C20482   7.182   6.318   1.152 -0.3317  0.1991 -0.2425
  149MOL0     O20483   7.298   6.284   1.085  0.3002 -0.2420 -0.1712
  149MOL0     C20484   7.312   6.365   0.963  0.4349 -0.0403  0.0952
  149MOL0     C20485   7.419   6.306   0.869 -0.4740  0.0852  0.1076
  149MOL0     C20486   7.572   6.305   0.934  1.1491 -0.1089  0.2762
  149MOL0     C20487   7.669   6.269   0.826 -0.0580 -0.7268  0.1847
  149MOL0     C20488   7.814   6.304   0.852  0.2464  0.5333  1.2056
  149MOL0     C20489   7.926   6.334   0.883 -0.1738  0.5918  0.3398
  149MOL0     C20490   7.185   6.387   1.266 -0.5573  0.0384 -0.0716
  149MOL0     C20491   7.066   6.428   1.333 -0.4534  1.0109 -0.0300
  149MOL0     C20492   7.067   6.485   1.474  0.8571 -0.2265 -0.1854
  149MOL0     H20493   6.508   6.227   1.414 -0.0788  1.3144  2.6314
  149MOL0     H20494   6.291   6.284   1.439 -1.2909  1.3011 -0.3185
  149MOL0     H20495   6.137   6.641   1.230 -3.3528  1.8696  0.2793
  149MOL0     H20496   6.168   6.697   1.400 -2.2433  0.3176  1.0785
  149MOL0     H20497   5.952   6.731   1.320  2.0534  0.8513 -1.0814
  149MOL0     H20498   5.930   6.553   1.290 -0.7961 -0.6107  0.5079
  149MOL0     H20499   5.812   6.596   1.480  0.3282 -0.2897  3.3466
  149MOL0     H20500   5.961   6.518   1.529  0.8366 -2.1748 -3.7065
  149MOL0     H20501   6.066   6.733   1.595  0.4760 -0.6430  0.1943
  149MOL0     H20502   5.919   6.807   1.528  1.9108  0.2835 -0.9637
  149MOL0     H20503   5.909   6.624   1.767  1.0694 -0.5130 -0.1788
  149MOL0     H20504   5.766   6.706   1.714 -0.1924 -2.9062  1.7748
  149MOL0     H20505   6.015   6.871   1.789  0.4128 -0.4520  2.9139
  149MOL0     H20506   5.857   6.926   1.746 -0.2814 -1.1628 -1.5502
  149MOL0     H20507   5.890   6.961   1.990  0.2628 -0.9979  1.4410
  149MOL0     H20508   5.977   6.809   1.995 -0.7839 -0.5296  1.0240
  149MOL0     H20509   5.765   6.685   1.993  0.1424 -0.0243 -1.9671
  149MOL0     H20510   5.779   6.805   2.123  2.4415 -0.2591 -0.5355
  149MOL0     H20511   5.546   6.711   1.842 -1.0808 -0.0930  0.7327
  149MOL0     H20512   5.268   6.882   1.825 -0.9026 -0.0142 -3.2590
  149MOL0     H20513   5.372   6.891   1.682  0.4305  2.1804 -2.0038
  149MOL0     H20514   5.228   7.073   1.672  0.2296 -2.5260  0.2012
  149MOL0     H20515   5.295   7.142   1.826  3.2611 -0.8003  1.3180
  149MOL0     H20516   5.373   7.266   1.642  2.0669  1.5272 -0.6892
  149MOL0     H20517   5.507   7.206   1.725  3.2859 -1.5780 -2.3666
  149MOL0     H20518   5.525   7.004   1.555  0.8633  0.5111 -2.0924
  149MOL0     H20519   5.382   7.078   1.477  2.1153  0.2279 -1.9263
  149MOL0     H20520   5.754   7.221   1.659 -0.9390  1.4287 -0.0867
  149MOL0     H20521   6.044   7.103   1.727 -0.1677  0.1226  0.0718
  149MOL0     H20522   5.968   7.253   1.724 -0.9814 -1.2448  0.4427
  149MOL0     H20523   6.093   7.236   1.612 -2.4149  1.6903 -2.5564
  149MOL0     H20524   6.177   6.965   1.018  1.2578  0.3660 -1.4494
  149MOL0     H20525   6.378   6.901   0.916  1.1913  2.5917  0.0045
  149MOL0     H20526   6.545   6.693   0.958 -1.3058  1.8027 -0.9561
  149MOL0     H20527   6.619   6.818   0.865  1.3706  0.6943  0.5207
  149MOL0     H20528   6.743   6.589   1.020 -1.6132  1.2302  1.7231
  149MOL0     H20529   6.768   6.648   0.849  3.9907  1.0985  0.3223
  149MOL0     H20530   6.850   6.789   1.100 -1.5956 -3.8007  1.3295
  149MOL0     H20531   6.897   6.843   0.931  1.2239 -0.8699 -0.3657
  149MOL0     H20532   6.991   6.595   1.046  2.4027 -0.1236  0.2371
  149MOL0     H20533   7.077   6.757   1.046 -2.2134  3.4185 -0.0426
  149MOL0     H20534   7.121   6.562   0.867  0.8779 -0.3924 -1.0242
  149MOL0     H20535   6.970   6.620   0.798  1.3510  0.8805 -0.8262
  149MOL0     H20536   7.235   6.767   0.837  0.4833  0.1272  0.9937
  149MOL0     H20537   7.081   6.850   0.791 -1.3988 -0.5885  2.5615
  149MOL0     H20538   7.079   6.677   0.591 -1.3806  2.0470  1.5549
  149MOL0     H20539   7.234   6.624   0.667 -0.1199 -0.0527  1.2981
  149MOL0     H20540   7.258   6.765   0.453 -3.0330 -3.9171  1.8971
  149MOL0     H20541   7.349   6.809   0.580  0.1350 -3.6855 -0.3707
  149MOL0     H20542   6.586   6.914   1.294  0.9180  2.8664 -0.5129
  149MOL0     H20543   6.373   6.983   1.400  0.0702 -0.3091 -0.5444
  149MOL0     H20544   5.890   7.007   1.237 -0.2509  0.4307 -0.7585
  149MOL0     H20545   5.659   7.080   1.261  1.0154  1.4878 -0.2433
  149MOL0     H20546   6.387   6.670   1.244  2.0844 -0.3680 -0.0297
  149MOL0     H20547   6.583   6.602   1.208  0.0700  0.6424 -0.5601
  149MOL0     H20548   6.849   6.308   1.095 -2.2266  0.3586  3.8811
  149MOL0     H20549   7.060   6.231   1.000 -0.2361 -0.3068 -0.6018
  149MOL0     H20550   7.214   6.353   0.917 -0.2516  0.7813  1.2842
  149MOL0     H20551   7.325   6.472   0.982 -0.6800 -0.5829  5.7799
  149MOL0     H20552   7.421   6.365   0.777  0.1635 -0.8275 -0.4747
  149MOL0     H20553   7.382   6.206   0.849 -3.3859  0.4510  2.8372
  149MOL0     H20554   7.602   6.406   0.964  0.0989 -0.1434  1.4766
  149MOL0     H20555   7.580   6.241   1.022  0.6701  1.1732  1.2779
  149MOL0     H20556   7.640   6.322   0.735 -0.1765  0.3942  0.8561
  149MOL0     H20557   7.672   6.162   0.804 -1.7667 -0.3237 -2.4090
  149MOL0     H20558   8.025   6.363   0.909  1.4979 -0.7591 -3.7331
  149MOL0     H20559   7.281   6.420   1.304 -0.5697  0.7447 -0.6340
  149MOL0     H20560   7.166   6.522   1.500  0.6308  1.1580 -1.1480
  149MOL0     H20561   7.008   6.578   1.480 -4.6165 -3.3131  0.7607
  149MOL0     H20562   7.019   6.413   1.540 -0.7913  1.9579  1.1508
  150MOL0     O20563   3.240   5.626   7.698 -0.4577 -0.5089 -0.2759
  150MOL0     C20564   3.177   5.659   7.598 -0.0176  0.0376  0.6948
  150MOL0     O20565   3.195   5.774   7.535  0.0558  0.5544  0.6096
  150MOL0     C20566   3.286   5.869   7.588 -0.0013  1.1889  0.2574
  150MOL0     C20567   3.419   5.851   7.617 -0.8025  0.8150 -0.6504
  150MOL0     C20568   3.505   5.959   7.632  0.1548 -1.1716  1.1764
  150MOL0     C20569   3.461   6.089   7.649  0.6352 -0.6809  0.5206
  150MOL0     O20570   3.554   6.183   7.679 -0.3081 -0.4702 -0.3404
  150MOL0     C20571   3.514   6.313   7.723 -0.0868  0.3894  0.0921
  150MOL0     C20572   3.627   6.381   7.798 -0.1793  0.6799 -0.0790
  150MOL0     C20573   3.644   6.322   7.934 -0.1053 -0.3507  0.2168
  150MOL0     C20574   3.748   6.403   8.018  0.5077  0.6865  0.5812
  150MOL0     C20575   3.794   6.336   8.144  0.0148 -0.2453 -0.7156
  150MOL0     C20576   3.910   6.412   8.206  0.0688 -0.4071  0.3616
  150MOL0     C20577   3.953   6.344   8.338  0.4090  0.3035 -0.4281
  150MOL0     C20578   4.044   6.429   8.422 -0.0658 -0.2328  0.6946
  150MOL0     N20579   4.171   6.469   8.364 -0.0316  0.8145 -0.0714
  150MOL0     C20580   4.254   6.398   8.289  0.6993 -0.2760  0.7580
  150MOL0     C20581   4.372   6.469   8.289 -0.3469 -1.1040  0.0282
  150MOL0     C20582   4.490   6.426   8.217  0.1781  0.3606 -0.9346
  150MOL0     C20583   4.619   6.470   8.291 -1.0812  0.3261  0.8684
  150MOL0     C20584   4.651   6.618   8.247 -1.2080 -0.4397 -0.5200
  150MOL0     C20585   4.780   6.674   8.306 -1.0038  0.2954 -0.4120
  150MOL0     O20586   4.782   6.658   8.450 -0.0707 -0.1843 -0.8736
  150MOL0     C20587   4.901   6.649   8.514 -0.0944 -0.3846 -0.4307
  150MOL0     C20588   4.896   6.576   8.626  0.5931 -0.2713 -0.5557
  150MOL0     C20589   5.007   6.558   8.709  0.2693 -0.2269  0.4928
  150MOL0     C20590   4.984   6.482   8.838 -0.2504  0.7282 -0.5343
  150MOL0     C20591   5.128   6.622   8.660 -0.2259  1.0247 -0.4282
  150MOL0     C20592   5.260   6.612   8.735 -0.0878 -0.0339  0.6751
  150MOL0     O20593   5.268   6.527   8.844 -0.0700  0.0148 -0.2620
  150MOL0     C20594   5.389   6.542   8.915 -0.1818 -0.8999  1.1970
  150MOL0     C20595   5.521   6.541   8.855  0.3010  1.0960  0.1029
  150MOL0     C20596   5.632   6.536   8.935 -0.0266 -0.6858  0.4292
  150MOL0     C20597   5.633   6.529   9.073 -0.1612 -0.6132 -0.1344
  150MOL0     O20598   5.756   6.555   9.128  0.8160  0.3891 -0.7144
  150MOL0     C20599   5.757   6.567   9.272 -0.6105  0.6050  0.5327
  150MOL0     C20600   5.905   6.591   9.306 -0.3274 -0.6276 -0.1283
  150MOL0     C20601   5.937   6.737   9.275 -0.1591 -0.2696 -0.6767
  150MOL0     C20602   6.083   6.777   9.315 -0.4993 -0.2734 -0.4807
  150MOL0     C20603   6.194   6.691   9.256  0.0773 -0.1562 -0.6867
  150MOL0     C20604   6.338   6.706   9.322 -0.2088  0.7040 -0.0989
  150MOL0     C20605   6.438   6.670   9.218 -0.2261  0.0466  0.8429
  150MOL0     C20606   6.588   6.679   9.256  0.7079 -0.0298  0.2936
  150MOL0    Cl20607   6.622   6.838   9.328 -0.7042 -0.0251  0.3793
  150MOL0     C20608   5.509   6.533   9.135  1.0748 -0.1185  0.2060
  150MOL0     C20609   5.389   6.539   9.057 -1.0821 -0.3850  0.5786
  150MOL0     O20610   5.338   6.705   8.711 -0.0200 -1.0992 -0.3953
  150MOL0     C20611   5.126   6.704   8.545 -0.3579  0.3991 -0.6694
  150MOL0     C20612   5.013   6.727   8.472  0.1592 -0.5172  0.4588
  150MOL0     N20613   4.356   6.578   8.369 -0.1149  0.7276 -0.2223
  150MOL0     N20614   4.244   6.568   8.432 -0.3693 -0.2646  0.2397
  150MOL0     C20615   3.321   6.106   7.634 -0.0136  0.8538 -0.0242
  150MOL0     C20616   3.239   6.000   7.599  0.5471  0.8659 -0.5758
  150MOL0     C20617   3.070   5.574   7.537 -0.2172  0.9787  0.4704
  150MOL0     C20618   2.989   5.625   7.432 -0.1936 -0.3400  0.1990
  150MOL0     C20619   2.880   5.565   7.376  0.7702  0.5779 -0.2131
  150MOL0     C20620   2.834   5.444   7.425  1.0120 -0.1715  0.0330
  150MOL0     O20621   2.724   5.372   7.384 -0.4117  0.1203 -0.6102
  150MOL0     C20622   2.623   5.440   7.314  0.7883 -0.2116  0.1998
  150MOL0     C20623   2.532   5.524   7.400  0.2204  0.2429 -0.1932
  150MOL0     C20624   2.446   5.446   7.495 -0.7885 -0.0086  0.6338
  150MOL0     C20625   2.326   5.536   7.538 -0.2090  0.0195 -0.1076
  150MOL0     C20626   2.217   5.514   7.449  0.5533 -0.4690  0.1167
  150MOL0     C20627   2.128   5.484   7.374 -0.0910 -0.2726  0.4370
  150MOL0     C20628   2.910   5.383   7.522 -0.0980 -0.1457 -1.0870
  150MOL0     C20629   3.020   5.452   7.581 -0.0161  0.4482  0.2374
  150MOL0     C20630   3.078   5.398   7.704 -1.1329  0.9003 -0.3336
  150MOL0     H20631   3.448   5.748   7.605  2.6368  1.3978  1.2760
  150MOL0     H20632   3.612   5.951   7.615  0.1184  2.6808 -2.8756
  150MOL0     H20633   3.422   6.305   7.782 -0.6208 -1.3680 -0.8954
  150MOL0     H20634   3.495   6.359   7.626  2.2719 -0.2290 -0.7319
  150MOL0     H20635   3.712   6.368   7.730 -1.2836 -1.0298 -1.2046
  150MOL0     H20636   3.602   6.487   7.813 -0.3825  0.5027  0.8702
  150MOL0     H20637   3.552   6.327   7.994  1.0232  0.1247  1.9890
  150MOL0     H20638   3.682   6.222   7.913 -0.1904  0.0146 -1.8876
  150MOL0     H20639   3.836   6.420   7.955  2.4252 -1.3261  2.5334
  150MOL0     H20640   3.708   6.501   8.046 -1.0055  0.2897 -0.0709
  150MOL0     H20641   3.819   6.233   8.121 -0.2349 -0.3186 -0.6693
  150MOL0     H20642   3.704   6.325   8.205 -0.4359 -1.8687 -1.6222
  150MOL0     H20643   4.000   6.404   8.145  0.7557 -1.3365  1.4630
  150MOL0     H20644   3.878   6.514   8.229 -0.9336 -0.5580 -0.2849
  150MOL0     H20645   4.009   6.257   8.302 -0.6188  0.2252 -1.9339
  150MOL0     H20646   3.869   6.312   8.399  2.3856  1.6162  3.3582
  150MOL0     H20647   3.992   6.520   8.452  1.8736  0.3332  2.6562
  150MOL0     H20648   4.063   6.373   8.514 -0.6333 -0.0967  0.8938
  150MOL0     H20649   4.237   6.300   8.246 -3.5157  1.0860 -1.2854
  150MOL0     H20650   4.478   6.459   8.114  0.5697 -0.5326 -1.2812
  150MOL0     H20651   4.498   6.318   8.200 -1.6022 -0.1286  0.9836
  150MOL0     H20652   4.616   6.462   8.400  1.1879  0.5671  0.9907
  150MOL0     H20653   4.699   6.399   8.271 -2.0024 -0.5498  0.1739
  150MOL0     H20654   4.667   6.620   8.139  2.5509 -0.1580 -0.1082
  150MOL0     H20655   4.567   6.685   8.270 -0.3510  0.5522 -0.1879
  150MOL0     H20656   4.868   6.632   8.257  0.8812  2.5216  0.8839
  150MOL0     H20657   4.778   6.783   8.296  0.1322  0.7121  2.7965
  150MOL0     H20658   4.801   6.542   8.667  0.9780 -1.7658 -0.8238
  150MOL0     H20659   4.881   6.447   8.855 -0.4655  1.2299 -0.7729
  150MOL0     H20660   5.016   6.534   8.928 -1.2923  0.2596  0.1214
  150MOL0     H20661   5.046   6.392   8.842  0.6617  1.1680 -2.9400
  150MOL0     H20662   5.519   6.559   8.748 -0.6967 -2.0172 -0.5361
  150MOL0     H20663   5.729   6.539   8.887  0.4699  0.9722  1.4675
  150MOL0     H20664   5.690   6.646   9.307 -2.7366 -1.0978  0.5036
  150MOL0     H20665   5.736   6.468   9.315  1.2622 -1.5574 -3.0051
  150MOL0     H20666   5.940   6.561   9.405  1.6075 -0.7905 -0.8291
  150MOL0     H20667   5.959   6.538   9.228 -0.3747  0.2213 -0.7470
  150MOL0     H20668   5.876   6.804   9.338  0.5365  0.0475 -0.3247
  150MOL0     H20669   5.919   6.771   9.172  2.5701  0.5334 -0.9470
  150MOL0     H20670   6.090   6.770   9.423 -1.8033 -1.8223 -0.4592
  150MOL0     H20671   6.104   6.882   9.290 -2.8638  0.2086 -0.6498
  150MOL0     H20672   6.165   6.586   9.267  1.6295 -0.4097  2.0806
  150MOL0     H20673   6.205   6.712   9.150  1.1003 -0.0253 -0.5677
  150MOL0     H20674   6.356   6.655   9.417  1.6068 -0.9399 -1.2417
  150MOL0     H20675   6.338   6.815   9.324 -0.8765  0.8193 -2.7464
  150MOL0     H20676   6.430   6.739   9.134  4.0349  1.5875  1.4270
  150MOL0     H20677   6.432   6.574   9.166  1.0135  1.9519 -3.2267
  150MOL0     H20678   6.654   6.678   9.169  0.2139  3.0283 -0.2243
  150MOL0     H20679   6.624   6.601   9.323  1.6555  0.0608 -0.0985
  150MOL0     H20680   5.507   6.535   9.244  0.8523 -1.9076  0.2744
  150MOL0     H20681   5.294   6.530   9.107 -1.0929 -2.0739  0.3136
  150MOL0     H20682   5.219   6.744   8.506 -0.1036  0.2186 -0.2450
  150MOL0     H20683   5.013   6.790   8.384 -0.7094 -3.4607 -1.8240
  150MOL0     H20684   3.270   6.202   7.636  0.9205  1.3770 -0.6522
  150MOL0     H20685   3.132   6.016   7.587  0.3048 -0.6654 -0.6566
  150MOL0     H20686   3.014   5.722   7.391 -4.2353 -0.3098 -2.8837
  150MOL0     H20687   2.814   5.623   7.312  0.8221  0.3314 -0.4941
  150MOL0     H20688   2.657   5.515   7.242 -1.2794  1.4887  0.8969
  150MOL0     H20689   2.563   5.367   7.259 -1.9863  0.5049  2.0878
  150MOL0     H20690   2.459   5.575   7.336 -2.0894 -0.8217  1.5014
  150MOL0     H20691   2.598   5.600   7.443  3.8402 -2.4238 -0.5172
  150MOL0     H20692   2.407   5.357   7.445 -3.1035  0.5087  1.3943
  150MOL0     H20693   2.506   5.420   7.583  0.5240 -0.4587 -0.3724
  150MOL0     H20694   2.359   5.639   7.550  0.7783  0.5929 -5.2850
  150MOL0     H20695   2.291   5.486   7.629  0.3726  0.8677  0.6009
  150MOL0     H20696   2.048   5.455   7.309  0.2763  2.3962 -1.3752
  150MOL0     H20697   2.875   5.284   7.549  4.4101 -2.6839 -3.4312
  150MOL0     H20698   3.069   5.474   7.782  0.2944 -0.0238  0.7734
  150MOL0     H20699   3.012   5.316   7.735 -0.1670 -0.9616 -2.8452
  150MOL0     H20700   3.178   5.356   7.689 -0.8265  1.4190  0.2032
  151MOL0     O20701  10.522   8.766  10.872  0.4756 -0.1150  0.1368
  151MOL0     C20702  10.423   8.778  10.939 -0.1461  0.0318  0.6572
  151MOL0     O20703  10.388   8.898  10.989  0.3194  0.2713  0.4817
  151MOL0     C20704  10.434   9.012  10.927  0.4797 -1.1158  0.1541
  151MOL0     C20705  10.351   9.075  10.830 -0.7258 -0.3175 -0.3759
  151MOL0     C20706  10.386   9.194  10.774  0.4764  0.8326  0.2748
  151MOL0     C20707  10.506   9.256  10.807 -0.0810  0.3845  0.6363
  151MOL0     O20708  10.534   9.372  10.743  0.0227 -0.2659 -0.0941
  151MOL0     C20709  10.669   9.429  10.741 -0.7634  0.5643  0.5336
  151MOL0     C20710  10.656   9.555  10.665 -0.6660 -0.7984 -0.3820
  151MOL0     C20711  10.786   9.636  10.632 -1.4947  0.4976 -0.6912
  151MOL0     C20712  10.767   9.769  10.555 -0.1226 -0.2160 -0.1772
  151MOL0     C20713  10.661   9.854  10.626 -0.0839  0.0204  0.0222
  151MOL0     C20714  10.649   9.999  10.585 -0.0211  0.1945  0.3356
  151MOL0     C20715  10.572  10.014  10.452 -1.2849 -0.5834 -0.9878
  151MOL0     C20716  10.433   9.959  10.450 -0.5906 -0.1942 -0.1254
  151MOL0     N20717  10.357  10.032  10.348  0.3397  0.5140 -0.2482
  151MOL0     C20718  10.388  10.047  10.215 -0.5727 -0.2442 -0.2455
  151MOL0     C20719  10.323  10.165  10.179 -0.1727  0.6926 -0.3477
  151MOL0     C20720  10.319  10.240  10.050 -0.6944 -0.9658 -0.2940
  151MOL0     C20721  10.455  10.294  10.022  0.6550  0.5770  0.4682
  151MOL0     C20722  10.482  10.287   9.866 -0.1134  0.0410 -0.1721
  151MOL0     C20723  10.524  10.140   9.816  0.0096 -0.9427  0.1400
  151MOL0     O20724  10.637  10.087   9.888  0.0202 -0.5425 -0.1578
  151MOL0     C20725  10.762  10.072   9.825  1.3751 -0.5880  0.0964
  151MOL0     C20726  10.790  10.122   9.699 -0.8759 -0.2097  0.6228
  151MOL0     C20727  10.919  10.109   9.651 -1.2065 -0.0957  0.2496
  151MOL0     C20728  10.923  10.163   9.510  0.3768  0.5070  0.2018
  151MOL0     C20729  11.025  10.044   9.726  0.3466  0.6985 -0.5441
  151MOL0     C20730  11.166  10.049   9.684 -0.1158  0.5444  0.5676
  151MOL0     O20731  11.251   9.975   9.758 -0.1562  0.8579 -0.1441
  151MOL0     C20732  11.379   9.983   9.739  0.2403 -0.6853  0.2257
  151MOL0     C20733  11.457   9.889   9.670  0.5012  0.0013  0.3743
  151MOL0     C20734  11.596   9.921   9.671 -0.2810  1.5604 -0.0745
  151MOL0     C20735  11.655  10.024   9.742 -0.6593 -0.8221  0.1678
  151MOL0     O20736  11.794  10.035   9.734  0.1203  0.2396 -0.0889
  151MOL0     C20737  11.855  10.153   9.770  0.9414 -0.5496  0.0683
  151MOL0     C20738  11.983  10.156   9.704  0.2786  0.1229 -0.0177
  151MOL0     C20739  12.071  10.036   9.743 -0.2782 -0.1920 -0.5765
  151MOL0     C20740  12.216  10.039   9.686  0.2450 -0.4017  0.5192
  151MOL0     C20741  12.300   9.912   9.699  1.0502  0.5918  0.5218
  151MOL0     C20742  12.398   9.893   9.591 -0.1592 -0.4455  0.2527
  151MOL0     C20743  12.472   9.763   9.615  0.5717  0.1037  0.6165
  151MOL0     C20744  12.569   9.728   9.508  0.4491 -0.4012 -0.4722
  151MOL0    Cl20745  12.619   9.555   9.527  0.3233 -0.0525 -0.1514
  151MOL0     C20746  11.579  10.112   9.809  0.5231 -0.0526  0.2740
  151MOL0     C20747  11.440  10.094   9.805 -0.4489 -0.3546  0.0024
  151MOL0     O20748  11.199  10.122   9.594  0.0451  0.1274 -0.4535
  151MOL0     C20749  10.991  10.003   9.859 -0.2437 -0.2936 -0.8021
  151MOL0     C20750  10.859  10.016   9.907  0.1966  0.4072  0.5957
  151MOL0     N20751  10.257  10.208  10.285  0.2345 -0.2457 -0.0258
  151MOL0     N20752  10.275  10.128  10.381  0.3924 -0.4046 -0.1788
  151MOL0     C20753  10.601   9.179  10.875 -1.0085 -0.3071 -0.5757
  151MOL0     C20754  10.565   9.058  10.940 -0.3789  0.0218 -0.5923
  151MOL0     C20755  10.340   8.663  10.964  0.3237  0.7966 -0.3425
  151MOL0     C20756  10.398   8.538  10.959  0.0342  0.8099  0.1058
  151MOL0     C20757  10.325   8.425  10.978  0.4367 -0.0539  0.0036
  151MOL0     C20758  10.187   8.435  10.982  0.7399  0.8270 -0.3655
  151MOL0     O20759  10.111   8.320  11.013  0.4439 -0.1537 -0.0439
  151MOL0     C20760  10.005   8.337  11.110  0.7607  0.0907 -0.1508
  151MOL0     C20761   9.950   8.205  11.158  0.0411 -0.8394 -0.0065
  151MOL0     C20762  10.059   8.124  11.231  0.1101 -1.3044  0.1846
  151MOL0     C20763  10.019   7.979  11.233 -0.3056 -0.4514  0.5648
  151MOL0     C20764  10.058   7.925  11.366  0.5605  0.1273 -0.5012
  151MOL0     C20765  10.095   7.864  11.463 -0.6188 -0.1087  0.2343
  151MOL0     C20766  10.126   8.554  10.981 -0.6129 -0.6832 -0.0050
  151MOL0     C20767  10.199   8.670  10.977 -0.2170 -0.1994 -0.5471
  151MOL0     C20768  10.121   8.798  10.985  0.5791 -0.5146 -0.6194
  151MOL0     H20769  10.265   9.027  10.785 -1.7511  1.5049 -0.4423
  151MOL0     H20770  10.319   9.240  10.702 -0.8509 -2.5296 -0.7908
  151MOL0     H20771  10.729   9.356  10.685 -1.6447 -1.6675  2.3264
  151MOL0     H20772  10.718   9.448  10.837  1.8928 -0.6368 -0.4845
  151MOL0     H20773  10.607   9.536  10.569 -0.6922  0.6181 -0.6789
  151MOL0     H20774  10.577   9.605  10.723  0.7419 -0.2015  1.1039
  151MOL0     H20775  10.839   9.662  10.724 -2.1004 -0.5988 -0.0088
  151MOL0     H20776  10.856   9.575  10.575 -1.0255  1.0843 -0.7525
  151MOL0     H20777  10.867   9.812  10.547 -0.0933 -0.3856 -0.7354
  151MOL0     H20778  10.734   9.754  10.452 -0.9348  0.8602 -0.0948
  151MOL0     H20779  10.675   9.855  10.735 -0.6049  0.9591  0.0807
  151MOL0     H20780  10.568   9.797  10.623  0.6473 -1.4000  1.7749
  151MOL0     H20781  10.587  10.051  10.660  0.5305  1.4287 -0.0422
  151MOL0     H20782  10.751  10.036  10.576 -0.4523  1.0924 -1.0504
  151MOL0     H20783  10.632   9.969  10.372  1.3044 -0.2240  0.6401
  151MOL0     H20784  10.574  10.122  10.435 -1.9173 -0.5143 -0.6712
  151MOL0     H20785  10.440   9.852  10.428  0.2190 -0.9099  3.1385
  151MOL0     H20786  10.380   9.962  10.546  0.6775 -2.7817  0.7333
  151MOL0     H20787  10.448   9.988  10.145 -0.4772  0.7464 -1.0212
  151MOL0     H20788  10.249  10.324  10.051 -0.3570 -0.5987 -2.1627
  151MOL0     H20789  10.289  10.171   9.970  0.8645 -0.9677 -0.9170
  151MOL0     H20790  10.447  10.402  10.041 -1.0778  0.1329  2.6434
  151MOL0     H20791  10.536  10.252  10.082  1.8297 -0.4846 -1.7195
  151MOL0     H20792  10.393  10.321   9.812  0.5135  2.4718  0.2299
  151MOL0     H20793  10.564  10.356   9.844  0.2034 -0.2049  0.2267
  151MOL0     H20794  10.434  10.078   9.826 -0.6682  0.1230  0.8160
  151MOL0     H20795  10.533  10.148   9.707  0.6227  1.5914  0.3165
  151MOL0     H20796  10.718  10.175   9.638  1.7103  1.4157 -1.2447
  151MOL0     H20797  10.848  10.104   9.455 -1.7533  1.1715  2.2329
  151MOL0     H20798  11.017  10.139   9.458  0.2379  1.1661 -0.3596
  151MOL0     H20799  10.890  10.267   9.506  0.2269  0.4441 -2.8729
  151MOL0     H20800  11.420   9.800   9.622 -2.0648 -0.0953  2.3119
  151MOL0     H20801  11.648   9.850   9.608 -1.9276  1.0187 -0.8703
  151MOL0     H20802  11.804  10.245   9.740 -0.0003 -1.1165 -0.0816
  151MOL0     H20803  11.869  10.150   9.879  0.6981  0.9326  0.1618
  151MOL0     H20804  11.981  10.147   9.595  1.7712  0.6597 -0.1149
  151MOL0     H20805  12.047  10.241   9.731 -0.0375  0.2729  0.2629
  151MOL0     H20806  12.016   9.947   9.710  2.8354 -1.4537 -2.8135
  151MOL0     H20807  12.076  10.040   9.852 -0.2363 -2.1717 -0.4639
  151MOL0     H20808  12.269  10.122   9.732  4.8246 -1.9143 -1.4793
  151MOL0     H20809  12.199  10.064   9.580 -0.4067 -1.8561  0.2655
  151MOL0     H20810  12.341   9.909   9.801 -3.0424  1.3782  2.3710
  151MOL0     H20811  12.231   9.828   9.697 -0.7314  2.0212 -1.0739
  151MOL0     H20812  12.471   9.974   9.578  0.1546 -1.1216 -2.9648
  151MOL0     H20813  12.352   9.892   9.492  0.3538 -0.5704  0.0072
  151MOL0     H20814  12.399   9.682   9.628 -0.9309  1.4994  1.1017
  151MOL0     H20815  12.528   9.773   9.709 -0.7318 -0.1169  1.4368
  151MOL0     H20816  12.658   9.792   9.502  0.5886 -0.7325 -3.3441
  151MOL0     H20817  12.525   9.740   9.409 -0.2074 -1.1256 -0.2778
  151MOL0     H20818  11.618  10.190   9.873 -0.8642  1.2472 -0.4250
  151MOL0     H20819  11.380  10.173   9.848  1.3006  0.5105  0.9728
  151MOL0     H20820  11.065   9.956   9.923 -0.5935 -2.2413 -1.7746
  151MOL0     H20821  10.834  10.000  10.011 -2.4921  0.8762  0.1000
  151MOL0     H20822  10.703   9.215  10.887 -2.1332  2.6263  1.3969
  151MOL0     H20823  10.639   8.997  10.993 -1.5926 -3.4097 -2.5478
  151MOL0     H20824  10.504   8.521  10.943 -0.1151  1.1968 -1.4990
  151MOL0     H20825  10.382   8.333  10.979  1.2794  0.4564  0.8418
  151MOL0     H20826  10.040   8.388  11.201  1.3462  0.1909 -0.4216
  151MOL0     H20827   9.934   8.412  11.074  2.1751  1.4162 -0.2849
  151MOL0     H20828   9.911   8.143  11.077 -0.1954 -1.8448  0.8455
  151MOL0     H20829   9.874   8.227  11.235  0.3832 -1.4388  0.5066
  151MOL0     H20830  10.152   8.130  11.173  1.3256  2.3656  2.1583
  151MOL0     H20831  10.078   8.163  11.331 -2.1689 -1.9252  0.9195
  151MOL0     H20832  10.061   7.928  11.146 -0.4948 -1.7830  1.2212
  151MOL0     H20833   9.910   7.974  11.229 -0.4384 -2.6245  3.5412
  151MOL0     H20834  10.118   7.807  11.551 -0.2745 -1.3669 -0.6393
  151MOL0     H20835  10.018   8.558  10.981 -0.5823  1.5596 -1.1985
  151MOL0     H20836  10.139   8.848  11.080  1.9293 -1.8756 -0.1021
  151MOL0     H20837  10.141   8.860  10.897 -1.4439  3.2110  1.3200
  151MOL0     H20838  10.014   8.778  10.988  0.7754 -1.7703 -1.0083
  152MOL0     O20839   2.847   0.036   9.244  0.8432  0.0986  0.1763
  152MOL0     C20840   2.788   0.103   9.330  0.6618  0.1273  0.5774
  152MOL0     O20841   2.737   0.050   9.446 -0.1671  0.4821  0.3255
  152MOL0     C20842   2.793  -0.065   9.499 -0.6593  0.0495 -0.2084
  152MOL0     C20843   2.834  -0.181   9.433 -0.6540 -0.2756 -0.1256
  152MOL0     C20844   2.874  -0.297   9.508  0.1448 -0.4936  0.0242
  152MOL0     C20845   2.872  -0.300   9.650  0.2798 -0.3994 -0.1835
  152MOL0     O20846   2.895  -0.422   9.710 -0.2644 -0.1949 -0.2034
  152MOL0     C20847   2.901  -0.434   9.853  1.1344 -0.3097 -1.4422
  152MOL0     C20848   2.754  -0.468   9.907 -0.3832 -0.5537  0.7408
  152MOL0     C20849   2.758  -0.497  10.058  0.4188  0.3103 -0.8633
  152MOL0     C20850   2.623  -0.479  10.119  0.8238  0.4613 -0.2999
  152MOL0     C20851   2.612  -0.536  10.261 -0.5668  0.7258  0.0367
  152MOL0     C20852   2.483  -0.486  10.336 -0.1573 -0.4774 -0.1313
  152MOL0     C20853   2.482  -0.536  10.487  0.7981 -0.3460 -0.2670
  152MOL0     C20854   2.339  -0.498  10.533 -0.5104 -0.2505 -0.4217
  152MOL0     N20855   2.324  -0.355  10.569 -0.3585  0.1451  0.6641
  152MOL0     C20856   2.296  -0.251  10.482 -0.5495 -0.1277  1.0422
  152MOL0     C20857   2.241  -0.161  10.561 -0.9673  0.2738 -0.1784
  152MOL0     C20858   2.208  -0.020  10.529 -0.0359  0.1568  0.5343
  152MOL0     C20859   2.319   0.069  10.585 -0.7531 -0.9487 -0.5547
  152MOL0     C20860   2.332   0.204  10.515 -0.4212 -0.2139 -0.3717
  152MOL0     C20861   2.443   0.309  10.563  0.3182  0.2276 -0.3019
  152MOL0     O20862   2.440   0.425  10.485  0.6399 -0.2926 -0.1240
  152MOL0     C20863   2.523   0.524  10.529  0.3445 -0.2334  0.2153
  152MOL0     C20864   2.467   0.631  10.597  0.4664 -0.1017 -0.5261
  152MOL0     C20865   2.534   0.748  10.603 -0.2281 -0.2060 -0.7225
  152MOL0     C20866   2.462   0.864  10.668  0.2633 -0.2918 -0.7295
  152MOL0     C20867   2.675   0.744  10.577 -0.0487 -0.6681  0.7357
  152MOL0     C20868   2.754   0.868  10.615  0.4440  0.0896 -1.1685
  152MOL0     O20869   2.706   0.961  10.709  0.1876  0.1047 -0.7065
  152MOL0     C20870   2.770   1.087  10.718  0.3261  0.2336  0.6908
  152MOL0     C20871   2.910   1.099  10.762 -0.1973  0.2149  0.7571
  152MOL0     C20872   2.969   1.229  10.755 -0.0753  0.6803  0.3939
  152MOL0     C20873   2.900   1.343  10.712 -0.4290 -0.2143  0.8915
  152MOL0     O20874   2.966   1.458  10.724  0.4208 -0.5908  0.3299
  152MOL0     C20875   2.890   1.584  10.723 -0.3299 -0.2570 -0.0652
  152MOL0     C20876   2.986   1.701  10.755  0.2308 -0.5477  0.0296
  152MOL0     C20877   3.107   1.697  10.665  0.3633  0.1451  0.8971
  152MOL0     C20878   3.193   1.815  10.699 -0.1251 -0.5192  0.0130
  152MOL0     C20879   3.310   1.846  10.608  0.6468  0.2470 -0.1723
  152MOL0     C20880   3.423   1.737  10.632 -0.4191 -0.2299  0.5695
  152MOL0     C20881   3.513   1.700  10.512 -0.1992  0.6884  0.0681
  152MOL0     C20882   3.438   1.629  10.392  0.4432  0.1003 -0.2345
  152MOL0    Cl20883   3.356   1.474  10.457  0.0039  0.0396  0.4542
  152MOL0     C20884   2.762   1.326  10.668  0.1439  0.1062 -0.0931
  152MOL0     C20885   2.700   1.197  10.674  0.4066 -0.0483  0.4856
  152MOL0     O20886   2.865   0.871  10.564 -0.8264  0.0281  0.4571
  152MOL0     C20887   2.732   0.625  10.510 -0.0804 -0.3631 -0.1099
  152MOL0     C20888   2.652   0.520  10.481  1.1120  0.2643  0.2968
  152MOL0     N20889   2.222  -0.205  10.693  0.3590 -1.1830  0.2439
  152MOL0     N20890   2.278  -0.324  10.693  0.2955 -0.3577 -1.8701
  152MOL0     C20891   2.833  -0.184   9.714  0.1826 -0.6923  0.3526
  152MOL0     C20892   2.801  -0.064   9.646  0.2181  0.8146 -1.0353
  152MOL0     C20893   2.753   0.243   9.300 -0.0740  1.3053 -0.3588
  152MOL0     C20894   2.629   0.294   9.361  0.0720  0.2553 -0.1384
  152MOL0     C20895   2.590   0.423   9.343  0.3836 -0.2296  0.3817
  152MOL0     C20896   2.673   0.517   9.280 -0.2476 -1.0946 -0.3179
  152MOL0     O20897   2.637   0.652   9.264  0.3072 -0.0461  0.1779
  152MOL0     C20898   2.521   0.718   9.321 -0.4029 -0.2629  0.2763
  152MOL0     C20899   2.465   0.847   9.255  0.3704  0.0040 -0.2930
  152MOL0     C20900   2.327   0.896   9.293  0.1760  0.5544  0.6063
  152MOL0     C20901   2.314   0.881   9.449  0.2170  0.6074 -0.5700
  152MOL0     C20902   2.212   0.974   9.498 -0.5971 -0.5997 -0.4581
  152MOL0     C20903   2.142   1.065   9.527  0.3023 -0.0539 -1.4711
  152MOL0     C20904   2.795   0.471   9.222  0.4314 -0.5977 -0.0153
  152MOL0     C20905   2.834   0.330   9.221  1.2070  0.1361  0.6712
  152MOL0     C20906   2.960   0.291   9.139  0.5729  0.3474  0.0151
  152MOL0     H20907   2.842  -0.189   9.325  1.9377 -0.4888  0.0216
  152MOL0     H20908   2.894  -0.381   9.442 -1.5880 -0.0539 -1.1292
  152MOL0     H20909   2.939  -0.343   9.899  0.1802 -0.4696 -0.2952
  152MOL0     H20910   2.963  -0.516   9.891  0.0003  0.1038  1.4973
  152MOL0     H20911   2.702  -0.371   9.897  0.3103 -0.0680  1.6905
  152MOL0     H20912   2.711  -0.546   9.844 -0.5876  0.6576 -0.6922
  152MOL0     H20913   2.778  -0.601  10.085 -3.2604  0.0483  1.5630
  152MOL0     H20914   2.830  -0.434  10.111  0.1394  1.1527 -1.4545
  152MOL0     H20915   2.599  -0.373  10.121 -0.1072  0.2554  1.5598
  152MOL0     H20916   2.554  -0.538  10.057 -0.7072  0.9782  0.8535
  152MOL0     H20917   2.696  -0.494  10.318 -0.2540 -0.0863  0.1873
  152MOL0     H20918   2.618  -0.645  10.268  0.6010  0.5769 -2.4991
  152MOL0     H20919   2.475  -0.377  10.330  1.6234 -0.2362  0.9938
  152MOL0     H20920   2.403  -0.533  10.278 -0.9639 -0.0944  0.6490
  152MOL0     H20921   2.554  -0.478  10.545 -0.2727  1.3880 -0.6083
  152MOL0     H20922   2.501  -0.643  10.500  0.5631 -0.2217  1.3304
  152MOL0     H20923   2.271  -0.524  10.452 -0.1786 -0.5709 -0.6033
  152MOL0     H20924   2.302  -0.550  10.622 -1.6096  2.2268  0.6600
  152MOL0     H20925   2.295  -0.241  10.374  0.3846  0.6457  1.0932
  152MOL0     H20926   2.107   0.003  10.563 -0.5582 -0.0825 -0.8016
  152MOL0     H20927   2.207   0.001  10.422  0.2771  3.1532  1.0371
  152MOL0     H20928   2.303   0.080  10.693  1.6342  1.6134 -0.3191
  152MOL0     H20929   2.418   0.022  10.579 -0.7715 -1.0813  0.0893
  152MOL0     H20930   2.336   0.201  10.406 -4.0034  0.5368 -0.6352
  152MOL0     H20931   2.248   0.268  10.542  1.3899  2.4570 -0.6393
  152MOL0     H20932   2.440   0.315  10.672  0.6283 -4.5798  0.1972
  152MOL0     H20933   2.544   0.272  10.541  0.2618  1.1384 -2.3063
  152MOL0     H20934   2.364   0.625  10.630  0.2173 -0.4592 -1.3276
  152MOL0     H20935   2.354   0.851  10.683  0.0689  0.3107 -1.5143
  152MOL0     H20936   2.473   0.950  10.601  1.9188  1.5415  1.7308
  152MOL0     H20937   2.496   0.869  10.772 -0.8662 -1.1926 -0.2937
  152MOL0     H20938   2.962   1.013  10.805  0.1119  0.3084  0.5733
  152MOL0     H20939   3.075   1.236  10.778  0.5868 -0.3320 -2.0522
  152MOL0     H20940   2.846   1.600  10.623  1.6665 -1.7900 -1.2728
  152MOL0     H20941   2.811   1.591  10.799 -1.1655  1.5332 -1.0279
  152MOL0     H20942   2.936   1.794  10.730  2.4654  0.0551 -2.7919
  152MOL0     H20943   3.016   1.702  10.860 -0.9476 -0.1892  0.3765
  152MOL0     H20944   3.087   1.712  10.558  0.9367  2.1753  1.0258
  152MOL0     H20945   3.158   1.602  10.675  2.3807  0.6435 -2.6929
  152MOL0     H20946   3.234   1.805  10.799  0.0689  0.7485  0.0781
  152MOL0     H20947   3.143   1.912  10.695  2.2806  0.8923  1.6198
  152MOL0     H20948   3.285   1.848  10.501  1.8851  1.5441 -0.4608
  152MOL0     H20949   3.348   1.945  10.636 -3.0652  1.4153  1.4677
  152MOL0     H20950   3.381   1.642  10.666  1.8163 -1.1938  0.7881
  152MOL0     H20951   3.488   1.780  10.709 -1.4204  0.6179  0.9721
  152MOL0     H20952   3.593   1.631  10.537  0.4506  2.6375  4.0106
  152MOL0     H20953   3.566   1.791  10.485 -0.3290  0.4788 -0.9557
  152MOL0     H20954   3.508   1.616  10.309 -1.0941  0.2244 -1.5850
  152MOL0     H20955   3.354   1.691  10.361 -0.4542  0.9514  3.4716
  152MOL0     H20956   2.702   1.410  10.634 -2.1523 -0.7008  1.7166
  152MOL0     H20957   2.602   1.176  10.632  1.6166  2.0401 -3.8920
  152MOL0     H20958   2.838   0.617  10.490  0.0342 -1.9908  0.9596
  152MOL0     H20959   2.679   0.430  10.426 -0.9473 -0.3086  0.1294
  152MOL0     H20960   2.836  -0.173   9.822 -3.0658  2.3069  0.2852
  152MOL0     H20961   2.766   0.020   9.706 -0.3168 -1.5104  2.1504
  152MOL0     H20962   2.572   0.221   9.417  0.8825  1.0944  1.8626
  152MOL0     H20963   2.502   0.463   9.393 -0.9492 -2.6258  0.1180
  152MOL0     H20964   2.437   0.648   9.319 -0.6166 -0.1599  2.8206
  152MOL0     H20965   2.548   0.742   9.424  0.4415  0.1822 -0.0381
  152MOL0     H20966   2.458   0.818   9.149  2.1256 -1.6589 -0.0090
  152MOL0     H20967   2.539   0.927   9.260 -1.0658  1.3202  0.8275
  152MOL0     H20968   2.315   1.002   9.272  0.4625  0.0883 -2.2419
  152MOL0     H20969   2.242   0.848   9.245  1.4140  0.4373 -1.5983
  152MOL0     H20970   2.407   0.894   9.505  0.5606 -1.3954 -0.6079
  152MOL0     H20971   2.275   0.783   9.479  3.1559 -0.2214  0.9299
  152MOL0     H20972   2.082   1.148   9.558  0.0291 -0.4371 -0.9685
  152MOL0     H20973   2.869   0.535   9.175 -0.5518 -0.9671 -2.1883
  152MOL0     H20974   2.947   0.232   9.047  2.2850 -0.4460  0.2448
  152MOL0     H20975   3.014   0.380   9.106  1.3901  0.0264  0.4598
  152MOL0     H20976   3.027   0.245   9.212  1.5008  3.6402  1.3964
  153MOL0     O20977   0.094   2.629   2.064  0.3605 -0.6990  0.3994
  153MOL0     C20978   0.019   2.706   2.006 -0.3510  0.4907  0.2554
  153MOL0     O20979   0.051   2.772   1.886  0.3614  0.0198 -0.1923
  153MOL0     C20980   0.182   2.819   1.853 -0.0396  0.1889 -0.5009
  153MOL0     C20981   0.289   2.827   1.944 -1.4416  0.2131  0.1842
  153MOL0     C20982   0.420   2.874   1.902  0.7713 -0.6680 -0.6996
  153MOL0     C20983   0.443   2.918   1.769  0.4215  0.4581  0.7129
  153MOL0     O20984   0.554   2.980   1.721  0.1498  0.0628  0.1803
  153MOL0     C20985   0.656   3.027   1.817  1.7907 -0.3887  0.1709
  153MOL0     C20986   0.737   3.156   1.777  0.5312  0.5662  0.0495
  153MOL0     C20987   0.813   3.122   1.643 -0.5319  0.4905 -0.3281
  153MOL0     C20988   0.878   3.250   1.592 -0.0860 -0.0532 -0.3959
  153MOL0     C20989   0.926   3.251   1.450  0.0451 -0.4555 -0.2403
  153MOL0     C20990   1.041   3.144   1.428 -0.5077 -0.8180  0.2601
  153MOL0     C20991   1.077   3.122   1.278  0.9299  0.6821 -0.4086
  153MOL0     C20992   1.189   3.020   1.263 -1.1701 -0.0345 -0.0835
  153MOL0     N20993   1.264   3.065   1.146  0.0032 -0.6114  1.0657
  153MOL0     C20994   1.239   3.040   1.017 -0.2421 -0.5826  0.1317
  153MOL0     C20995   1.339   3.102   0.950 -0.4412 -0.0854  0.2735
  153MOL0     C20996   1.353   3.121   0.805 -0.4826 -0.1372 -0.6327
  153MOL0     C20997   1.506   3.098   0.775 -0.5257 -0.0794 -0.1713
  153MOL0     C20998   1.536   3.136   0.631  0.8647 -0.5228 -0.2248
  153MOL0     C20999   1.678   3.124   0.591 -0.0270 -0.0824 -1.0747
  153MOL0     O21000   1.715   2.987   0.586  0.2426  0.0548 -0.0330
  153MOL0     C21001   1.831   2.953   0.646 -0.2356 -0.0511  0.0183
  153MOL0     C21002   1.834   2.869   0.760 -0.6481 -0.4238 -1.1034
  153MOL0     C21003   1.957   2.832   0.809  0.3510 -0.6871 -0.2706
  153MOL0     C21004   1.955   2.744   0.937 -0.2413 -0.2493  0.1312
  153MOL0     C21005   2.079   2.863   0.731  0.5950  0.0309 -0.2907
  153MOL0     C21006   2.216   2.831   0.783 -0.8092 -0.2403  0.2772
  153MOL0     O21007   2.322   2.883   0.711  0.2934  0.4468  0.3815
  153MOL0     C21008   2.419   2.801   0.663 -0.6780 -0.1139  0.9219
  153MOL0     C21009   2.407   2.668   0.619  0.6949  0.0417  0.5380
  153MOL0     C21010   2.517   2.599   0.566 -0.3130 -0.2068  0.3329
  153MOL0     C21011   2.643   2.664   0.560 -0.5647  0.2123  1.2626
  153MOL0     O21012   2.745   2.598   0.492 -0.1030 -0.3879  0.1514
  153MOL0     C21013   2.763   2.461   0.504  1.2710  0.2836 -0.2141
  153MOL0     C21014   2.881   2.424   0.419  0.2904  0.8595  0.9811
  153MOL0     C21015   2.890   2.274   0.375  0.1325 -0.7393  0.4804
  153MOL0     C21016   2.942   2.175   0.482  0.5964  0.4603  0.0536
  153MOL0     C21017   2.875   2.045   0.460  0.0129 -0.3107  0.2421
  153MOL0     C21018   2.735   2.040   0.540  0.7022  0.2762 -0.3881
  153MOL0     C21019   2.693   1.900   0.570  0.4529 -0.4171 -0.4867
  153MOL0     C21020   2.549   1.887   0.629 -0.7661  0.2160  0.8187
  153MOL0    Cl21021   2.543   1.885   0.806 -0.0071  0.1647 -0.2818
  153MOL0     C21022   2.658   2.796   0.589 -0.2995 -0.1447  0.3092
  153MOL0     C21023   2.543   2.864   0.643  0.2275 -0.6202  0.8319
  153MOL0     O21024   2.234   2.757   0.879  0.2425  0.1911 -0.0872
  153MOL0     C21025   2.074   2.944   0.622 -0.6437 -0.1974  0.7045
  153MOL0     C21026   1.950   2.998   0.580 -0.3097  0.5988 -0.9650
  153MOL0     N21027   1.414   3.173   1.033  0.5637  0.2932  0.0967
  153MOL0     N21028   1.377   3.143   1.155  0.1576  0.4343 -0.6986
  153MOL0     C21029   0.330   2.909   1.678  0.2317 -0.2143  0.7715
  153MOL0     C21030   0.206   2.860   1.724  0.1273 -0.2968  0.4715
  153MOL0     C21031  -0.120   2.725   2.065  0.6386  0.1756 -1.0154
  153MOL0     C21032  -0.192   2.842   2.031 -0.5086  0.9775 -0.2667
  153MOL0     C21033  -0.309   2.878   2.092 -0.4383  0.2577 -0.1717
  153MOL0     C21034  -0.359   2.799   2.200  0.5044 -0.2171 -0.2870
  153MOL0     O21035  -0.474   2.817   2.267 -0.2535 -0.2526  0.0955
  153MOL0     C21036  -0.559   2.936   2.258 -0.5173  0.2702  0.1180
  153MOL0     C21037  -0.487   3.038   2.347 -0.1620  1.1201 -0.4934
  153MOL0     C21038  -0.566   3.169   2.364  0.4398 -0.3929  0.2155
  153MOL0     C21039  -0.701   3.156   2.442  0.1588  0.4894  0.6629
  153MOL0     C21040  -0.815   3.110   2.359 -0.5546  0.4737 -0.8888
  153MOL0     C21041  -0.894   3.083   2.271 -0.1042 -0.2779 -0.8574
  153MOL0     C21042  -0.292   2.687   2.233 -0.2048 -0.3279 -0.4145
  153MOL0     C21043  -0.172   2.646   2.174 -0.4581 -0.4325 -0.5953
  153MOL0     C21044  -0.111   2.516   2.224  0.2129 -0.2990  0.5258
  153MOL0     H21045   0.282   2.777   2.040 -3.3564 -1.7669 -0.9090
  153MOL0     H21046   0.491   2.884   1.984 -1.5609 -1.7485  1.5972
  153MOL0     H21047   0.716   2.938   1.836 -1.9380 -3.1749  0.1193
  153MOL0     H21048   0.608   3.045   1.914  0.2979 -2.5707 -0.0959
  153MOL0     H21049   0.671   3.242   1.761 -0.7776 -0.4276 -0.0695
  153MOL0     H21050   0.813   3.192   1.847  0.5138  1.7259 -0.5008
  153MOL0     H21051   0.893   3.049   1.658  2.7089  3.7154 -0.7386
  153MOL0     H21052   0.757   3.078   1.560 -2.0844  0.2283  0.8090
  153MOL0     H21053   0.793   3.318   1.602 -2.3486 -2.9441  2.2796
  153MOL0     H21054   0.962   3.290   1.649 -2.0859  3.1267  0.5534
  153MOL0     H21055   0.953   3.354   1.426 -1.5847 -0.3551 -1.8410
  153MOL0     H21056   0.843   3.221   1.384 -3.7391  2.7482  2.5757
  153MOL0     H21057   1.133   3.167   1.483  0.6275 -1.3584 -1.3403
  153MOL0     H21058   1.005   3.048   1.466  1.9156 -2.5763 -1.6083
  153MOL0     H21059   1.113   3.219   1.244  0.1387  1.5309  1.1336
  153MOL0     H21060   0.989   3.077   1.230  1.7722 -2.2681  0.5624
  153MOL0     H21061   1.258   3.027   1.347 -2.4881 -2.3275  1.3003
  153MOL0     H21062   1.162   2.916   1.247  0.6512 -0.5713  0.1477
  153MOL0     H21063   1.152   2.994   0.971 -0.3049 -0.6708  0.3408
  153MOL0     H21064   1.321   3.223   0.781 -2.2487  0.2422  2.6843
  153MOL0     H21065   1.283   3.054   0.756 -0.8772 -0.4705  0.3490
  153MOL0     H21066   1.565   3.157   0.845 -0.6025 -0.4164  0.1778
  153MOL0     H21067   1.536   2.996   0.802  0.0673  0.8600  3.1098
  153MOL0     H21068   1.460   3.088   0.568  1.1746  0.0966 -1.0904
  153MOL0     H21069   1.515   3.243   0.631  1.0141 -0.4779  1.3573
  153MOL0     H21070   1.686   3.165   0.490 -2.5183 -1.4033 -1.9135
  153MOL0     H21071   1.737   3.181   0.663  0.1790 -1.0111 -0.4986
  153MOL0     H21072   1.746   2.853   0.822  0.2938  1.2103  0.7382
  153MOL0     H21073   1.997   2.651   0.897  1.4501  1.8461 -3.5003
  153MOL0     H21074   1.854   2.726   0.974 -0.5749 -0.7543 -0.9775
  153MOL0     H21075   2.015   2.790   1.017  1.3748 -2.3588  0.2362
  153MOL0     H21076   2.308   2.629   0.641  0.1723  2.7181  3.7807
  153MOL0     H21077   2.489   2.500   0.532 -0.1521  0.1570 -0.8983
  153MOL0     H21078   2.773   2.441   0.611 -0.7469 -0.2145 -0.0797
  153MOL0     H21079   2.670   2.415   0.469  2.2919 -1.8950 -0.2241
  153MOL0     H21080   2.886   2.485   0.329  2.5070  2.3778  2.0378
  153MOL0     H21081   2.973   2.453   0.471 -0.7927  1.6761  2.5216
  153MOL0     H21082   2.961   2.269   0.292  0.3419  1.1495  0.4946
  153MOL0     H21083   2.792   2.248   0.335  0.0933  1.1742 -0.8267
  153MOL0     H21084   2.916   2.208   0.583  2.6505  1.9452  0.1645
  153MOL0     H21085   3.051   2.165   0.479  0.5181 -0.3338 -0.2467
  153MOL0     H21086   2.883   2.019   0.354  2.5335  0.4946  0.1702
  153MOL0     H21087   2.935   1.971   0.513  1.3209  0.2439 -0.4250
  153MOL0     H21088   2.668   2.083   0.465 -0.4635  0.2313  0.5911
  153MOL0     H21089   2.740   2.099   0.633  2.3990 -0.1309 -0.2007
  153MOL0     H21090   2.766   1.857   0.639 -0.3591 -1.4023 -0.2066
  153MOL0     H21091   2.682   1.848   0.475  1.5002  1.3947 -1.6583
  153MOL0     H21092   2.510   1.799   0.577  2.6916  1.4750 -4.7335
  153MOL0     H21093   2.485   1.961   0.580  0.0661 -0.8435 -2.0803
  153MOL0     H21094   2.752   2.850   0.580 -0.3450 -0.0981  0.0994
  153MOL0     H21095   2.554   2.969   0.671 -3.6141  0.8143 -2.0647
  153MOL0     H21096   2.163   2.981   0.573 -0.7637 -1.3407 -0.4219
  153MOL0     H21097   1.936   3.067   0.498 -3.8060 -1.4195 -2.2664
  153MOL0     H21098   0.327   2.954   1.579  0.4515  0.9393  1.2744
  153MOL0     H21099   0.121   2.867   1.658  1.3400 -2.7700 -1.5489
  153MOL0     H21100  -0.144   2.906   1.957  0.2012  0.8041  0.0339
  153MOL0     H21101  -0.346   2.976   2.064  1.3476  0.1353 -3.3788
  153MOL0     H21102  -0.579   2.969   2.156  3.3856 -0.3042 -1.0054
  153MOL0     H21103  -0.653   2.909   2.306 -0.4147  3.5765  2.6010
  153MOL0     H21104  -0.390   3.053   2.299  1.3480 -3.5855  0.6264
  153MOL0     H21105  -0.468   2.995   2.446 -3.4730 -1.0444 -0.6292
  153MOL0     H21106  -0.506   3.244   2.415  1.1154 -1.8797  1.7298
  153MOL0     H21107  -0.582   3.201   2.261  1.0397 -0.5980  0.0573
  153MOL0     H21108  -0.719   3.257   2.478  0.2923  1.4144 -1.7200
  153MOL0     H21109  -0.679   3.088   2.526  1.0925  0.0548  0.0881
  153MOL0     H21110  -0.962   3.046   2.197 -0.2825 -3.2332  0.6369
  153MOL0     H21111  -0.337   2.629   2.312  0.8628  1.2167  1.4164
  153MOL0     H21112  -0.173   2.466   2.298 -0.8829 -1.4933 -1.1154
  153MOL0     H21113  -0.074   2.447   2.147  1.6610  1.4492 -0.4157
  153MOL0     H21114  -0.020   2.536   2.280 -0.4428  0.1099  1.4645
  154MOL0     O21115   3.242   6.982   6.293 -0.6398 -0.1046 -0.9487
  154MOL0     C21116   3.185   6.894   6.358 -0.0230 -0.0032 -0.7070
  154MOL0     O21117   3.241   6.773   6.390  0.4571 -0.5830  0.3298
  154MOL0     C21118   3.363   6.747   6.335  0.3190 -0.3239 -0.0953
  154MOL0     C21119   3.371   6.678   6.217 -1.3284 -0.3035  0.0938
  154MOL0     C21120   3.497   6.645   6.169 -0.2876  0.2169  0.0949
  154MOL0     C21121   3.615   6.670   6.236  1.3791  0.0519 -0.6226
  154MOL0     O21122   3.725   6.631   6.165 -0.3686  0.4810  0.5287
  154MOL0     C21123   3.843   6.620   6.238  0.1248  0.1356  0.4636
  154MOL0     C21124   3.935   6.519   6.178 -0.7417 -0.2080 -0.9059
  154MOL0     C21125   4.061   6.506   6.269  0.1503  0.0823 -0.3568
  154MOL0     C21126   4.147   6.387   6.223 -0.2066  0.1814  0.6249
  154MOL0     C21127   4.279   6.361   6.299 -1.0654 -0.0950  0.9591
  154MOL0     C21128   4.277   6.354   6.448  0.0344  0.0685 -0.7047
  154MOL0     C21129   4.420   6.327   6.501 -1.0468 -0.1403 -0.3718
  154MOL0     C21130   4.449   6.173   6.511 -0.7443 -0.9830  0.1660
  154MOL0     N21131   4.596   6.163   6.514 -0.5111 -0.5022 -0.6961
  154MOL0     C21132   4.666   6.167   6.638 -0.9912 -0.2213 -0.2802
  154MOL0     C21133   4.801   6.168   6.607  0.1188 -0.4904  0.1572
  154MOL0     C21134   4.902   6.160   6.716  0.4418 -0.4006 -0.9461
  154MOL0     C21135   5.049   6.151   6.680  0.3357 -0.8060 -0.2292
  154MOL0     C21136   5.083   6.015   6.618 -0.1025 -0.2590 -0.7026
  154MOL0     C21137   5.229   6.022   6.563  0.0846  0.1714  0.2522
  154MOL0     O21138   5.311   6.025   6.681  0.2088 -1.1402 -0.2616
  154MOL0     C21139   5.402   5.923   6.698  0.6435 -0.0592 -0.4447
  154MOL0     C21140   5.515   5.944   6.773  0.2465 -0.1911 -0.7305
  154MOL0     C21141   5.612   5.847   6.798  0.7969 -0.4422 -0.3101
  154MOL0     C21142   5.727   5.894   6.890 -0.3339  0.4402  1.0537
  154MOL0     C21143   5.597   5.719   6.744  0.0100 -0.0916 -0.0164
  154MOL0     C21144   5.696   5.608   6.757 -0.0157 -0.7332 -0.2544
  154MOL0     O21145   5.640   5.485   6.732  0.0133 -0.3367  0.3040
  154MOL0     C21146   5.733   5.377   6.728 -0.0614 -0.0584 -0.5934
  154MOL0     C21147   5.826   5.370   6.625  0.1204 -0.0479 -0.0077
  154MOL0     C21148   5.912   5.264   6.624 -0.6515  0.4439  0.0252
  154MOL0     C21149   5.915   5.166   6.734  0.0101 -0.1273 -0.2379
  154MOL0     O21150   6.009   5.065   6.719  0.1507 -0.1340  0.1006
  154MOL0     C21151   5.945   4.931   6.703 -0.6885  0.1433  0.0310
  154MOL0     C21152   6.054   4.816   6.720  0.4720 -0.9122  0.1798
  154MOL0     C21153   5.996   4.672   6.740  0.8457 -0.0235 -1.3056
  154MOL0     C21154   5.940   4.605   6.611 -0.0093 -0.9143 -0.3865
  154MOL0     C21155   5.868   4.471   6.642  0.5652 -0.2580  0.4752
  154MOL0     C21156   5.812   4.395   6.520 -0.7795 -0.0639 -0.2809
  154MOL0     C21157   5.678   4.447   6.485 -0.3448 -0.0654 -0.2335
  154MOL0     C21158   5.616   4.395   6.355 -1.1599  0.3069 -0.1562
  154MOL0    Cl21159   5.565   4.223   6.368 -0.4300  0.1622 -0.3452
  154MOL0     C21160   5.810   5.175   6.836  0.2210 -0.5035 -0.2505
  154MOL0     C21161   5.721   5.285   6.828 -0.6385 -1.2514 -0.3906
  154MOL0     O21162   5.810   5.616   6.804 -0.6544 -0.3956  0.3654
  154MOL0     C21163   5.471   5.687   6.697  0.3417  0.4765 -0.1259
  154MOL0     C21164   5.375   5.782   6.671 -0.1628 -0.4084  0.8905
  154MOL0     N21165   4.804   6.173   6.470 -0.2088 -0.1836  0.0108
  154MOL0     N21166   4.683   6.181   6.417  0.1030  0.7282 -0.6208
  154MOL0     C21167   3.602   6.732   6.358 -0.2335  0.3122  0.4206
  154MOL0     C21168   3.482   6.781   6.406  0.3972 -0.4911 -0.9430
  154MOL0     C21169   3.042   6.926   6.387  0.0289 -0.2162 -0.0014
  154MOL0     C21170   3.010   7.050   6.449  0.2316  0.2914 -0.2197
  154MOL0     C21171   2.876   7.089   6.465 -0.8665 -0.3196 -0.2895
  154MOL0     C21172   2.775   7.005   6.434  0.3545  0.1892  0.4324
  154MOL0     O21173   2.639   7.031   6.453  0.1893 -0.0635  0.1251
  154MOL0     C21174   2.584   7.154   6.502  0.6666  0.4196 -0.1593
  154MOL0     C21175   2.434   7.161   6.500  1.2018 -0.3386 -0.2089
  154MOL0     C21176   2.383   7.294   6.566 -0.3178  0.0585 -0.3625
  154MOL0     C21177   2.326   7.258   6.704 -0.3529  0.7280  0.3264
  154MOL0     C21178   2.202   7.181   6.687  0.7484  0.6045  0.2328
  154MOL0     C21179   2.108   7.108   6.675  0.7430  0.8291 -1.0865
  154MOL0     C21180   2.803   6.886   6.366 -0.1919  0.3320 -0.5372
  154MOL0     C21181   2.934   6.850   6.340  0.0220  0.1493  0.6131
  154MOL0     C21182   2.947   6.720   6.255 -0.4325 -0.1856  0.6329
  154MOL0     H21183   3.284   6.641   6.163 -1.5386  0.2890  0.0272
  154MOL0     H21184   3.510   6.592   6.075 -0.7080  0.3303 -0.0275
  154MOL0     H21185   3.825   6.573   6.335 -1.5884 -1.5100 -0.5700
  154MOL0     H21186   3.892   6.717   6.252 -3.4315  2.1954 -0.1464
  154MOL0     H21187   3.893   6.418   6.177  2.7024 -1.8026 -1.2169
  154MOL0     H21188   3.959   6.560   6.079  1.4543 -0.4108 -0.5235
  154MOL0     H21189   4.110   6.604   6.267 -0.4567  0.3972 -2.0515
  154MOL0     H21190   4.030   6.480   6.370 -1.8516 -0.3207 -1.0393
  154MOL0     H21191   4.083   6.299   6.231  2.3260 -1.8365 -0.2670
  154MOL0     H21192   4.157   6.402   6.115  0.2359 -1.2786  0.4507
  154MOL0     H21193   4.356   6.434   6.272  1.3142 -2.5806  0.6021
  154MOL0     H21194   4.318   6.268   6.257 -1.4839  0.5600 -0.9837
  154MOL0     H21195   4.247   6.451   6.490 -1.7330  0.5770 -2.9448
  154MOL0     H21196   4.202   6.279   6.476 -1.5923  1.4206 -1.2539
  154MOL0     H21197   4.436   6.368   6.601 -0.0769 -1.2645 -0.0374
  154MOL0     H21198   4.493   6.381   6.440  1.4503 -3.8244 -0.9487
  154MOL0     H21199   4.397   6.136   6.600 -2.8158  1.2043 -0.0255
  154MOL0     H21200   4.410   6.129   6.419  2.7319 -0.7183 -1.6066
  154MOL0     H21201   4.630   6.187   6.738  3.0091  0.6404  1.1536
  154MOL0     H21202   4.882   6.073   6.779 -2.8631  1.7025  1.2264
  154MOL0     H21203   4.879   6.246   6.780  1.2670 -1.1470  0.4168
  154MOL0     H21204   5.077   6.234   6.615 -0.4235 -0.3298  0.0364
  154MOL0     H21205   5.100   6.169   6.775 -1.8602  0.9082  0.7133
  154MOL0     H21206   5.075   5.938   6.695 -1.7188  2.0360  1.5971
  154MOL0     H21207   5.008   6.006   6.539 -0.8635  0.8891 -0.1261
  154MOL0     H21208   5.256   5.944   6.491  3.8176  0.8032  0.7174
  154MOL0     H21209   5.231   6.122   6.519  0.3486 -0.1667 -0.5169
  154MOL0     H21210   5.533   6.044   6.811 -1.4083 -0.5237  1.0615
  154MOL0     H21211   5.724   5.829   6.978  0.0894 -1.0144  0.0468
  154MOL0     H21212   5.717   5.998   6.920 -4.2156  0.2299  0.9769
  154MOL0     H21213   5.815   5.878   6.826 -3.0147 -2.4924 -2.3728
  154MOL0     H21214   5.831   5.446   6.548  1.7616 -1.0948 -1.0086
  154MOL0     H21215   5.987   5.248   6.547 -0.1150 -2.4070  1.0085
  154MOL0     H21216   5.862   4.918   6.773 -1.7341 -1.6031 -1.4472
  154MOL0     H21217   5.908   4.922   6.600 -1.4375 -1.5902  0.4205
  154MOL0     H21218   6.116   4.808   6.630  1.1828 -2.3171  0.7769
  154MOL0     H21219   6.122   4.851   6.797 -1.1645 -0.0504  1.3037
  154MOL0     H21220   5.913   4.666   6.811  2.1743 -1.1033  0.2306
  154MOL0     H21221   6.069   4.596   6.771  0.3072  0.0900  0.3564
  154MOL0     H21222   6.019   4.575   6.542 -0.0901  2.0717 -1.9671
  154MOL0     H21223   5.876   4.671   6.551 -0.6484 -0.7829  0.4214
  154MOL0     H21224   5.940   4.414   6.701  1.9601  0.6731 -0.2568
  154MOL0     H21225   5.782   4.498   6.703 -0.1923 -1.9999  0.2554
  154MOL0     H21226   5.807   4.289   6.548  1.5116  0.0926  1.0491
  154MOL0     H21227   5.875   4.391   6.431 -0.6391  1.2109 -0.2563
  154MOL0     H21228   5.681   4.556   6.484 -0.0178 -0.0391  1.4005
  154MOL0     H21229   5.613   4.423   6.570  0.6306 -0.5506  0.3972
  154MOL0     H21230   5.693   4.415   6.279  0.1664  0.8843  1.2883
  154MOL0     H21231   5.528   4.453   6.326 -0.4615  0.2749 -2.6053
  154MOL0     H21232   5.808   5.112   6.924 -1.7269 -0.5991 -0.3228
  154MOL0     H21233   5.656   5.291   6.914  1.8231 -4.8523  1.9750
  154MOL0     H21234   5.437   5.589   6.663  0.4804  0.0406  0.9538
  154MOL0     H21235   5.274   5.753   6.644  0.1979  0.4083 -1.5544
  154MOL0     H21236   3.691   6.748   6.418  0.8461 -2.4806 -0.2975
  154MOL0     H21237   3.475   6.816   6.508 -0.8911  3.4509 -2.1645
  154MOL0     H21238   3.099   7.107   6.473 -0.1952 -0.0388  2.4528
  154MOL0     H21239   2.873   7.191   6.503  1.7289  0.4614 -1.9308
  154MOL0     H21240   2.611   7.188   6.602 -2.0942  2.7730 -0.0817
  154MOL0     H21241   2.618   7.236   6.438  1.2999 -0.1118 -0.5135
  154MOL0     H21242   2.393   7.074   6.553 -1.1695  0.7500 -0.1296
  154MOL0     H21243   2.391   7.150   6.400  1.8489 -0.7655 -0.4475
  154MOL0     H21244   2.460   7.371   6.564 -2.3019  2.1668  0.4219
  154MOL0     H21245   2.298   7.338   6.513  0.5191  1.2848 -0.7222
  154MOL0     H21246   2.311   7.359   6.741  2.8502  2.2431 -2.0348
  154MOL0     H21247   2.401   7.195   6.754  1.4382  1.9893 -0.6773
  154MOL0     H21248   2.020   7.047   6.668  0.1032  1.1277  2.3617
  154MOL0     H21249   2.714   6.840   6.326  0.5016 -0.3671 -1.3075
  154MOL0     H21250   2.856   6.717   6.194 -1.2831 -0.7872  1.8764
  154MOL0     H21251   3.038   6.723   6.194 -1.8744 -0.3669 -1.6712
  154MOL0     H21252   2.952   6.632   6.320  3.6777  0.9301  2.1294
  155MOL0     O21253   6.402   5.354   4.456  0.9991 -0.4243  1.0513
  155MOL0     C21254   6.383   5.269   4.545  0.3126 -0.7686 -0.0319
  155MOL0     O21255   6.485   5.207   4.617 -0.0162 -0.5430 -0.1783
  155MOL0     C21256   6.612   5.260   4.602  0.3519 -0.0543 -0.0900
  155MOL0     C21257   6.694   5.209   4.505  0.1191 -0.0691  0.2826
  155MOL0     C21258   6.812   5.277   4.474  0.0718  0.3023 -0.4376
  155MOL0     C21259   6.840   5.403   4.530  0.5131 -0.0986  0.2032
  155MOL0     O21260   6.949   5.474   4.484 -0.2465 -0.7298 -0.1737
  155MOL0     C21261   6.973   5.599   4.566 -0.6834  0.9680  0.6530
  155MOL0     C21262   7.086   5.670   4.495  1.2356 -0.2602  0.7624
  155MOL0     C21263   7.218   5.624   4.556  0.8334  0.4287  0.1959
  155MOL0     C21264   7.322   5.689   4.467  0.4998 -0.1624 -0.0832
  155MOL0     C21265   7.470   5.662   4.509 -0.1424 -0.1769 -0.9737
  155MOL0     C21266   7.566   5.758   4.445 -0.6878 -0.5133  0.7684
  155MOL0     C21267   7.717   5.723   4.467 -0.0219  0.6749  0.1733
  155MOL0     C21268   7.759   5.767   4.608  0.4496  0.2679 -0.1387
  155MOL0     N21269   7.905   5.780   4.620 -0.8490  0.8589 -0.6921
  155MOL0     C21270   7.991   5.701   4.696  0.2969 -0.1440  0.7364
  155MOL0     C21271   8.109   5.758   4.676 -0.1532 -0.4578  0.1847
  155MOL0     C21272   8.236   5.683   4.703 -0.0450 -0.3568 -0.4103
  155MOL0     C21273   8.304   5.718   4.844  0.4108  0.8324 -0.1918
  155MOL0     C21274   8.429   5.661   4.870 -0.1065  0.6335  0.8560
  155MOL0     C21275   8.480   5.671   5.016  0.6185  0.2068 -1.0942
  155MOL0     O21276   8.456   5.804   5.076 -0.9228  0.5793 -0.4769
  155MOL0     C21277   8.568   5.864   5.120 -0.2243  0.5626 -1.1732
  155MOL0     C21278   8.626   5.825   5.241  0.3706  0.2717  0.7707
  155MOL0     C21279   8.745   5.887   5.283 -0.9091  0.2985 -0.0690
  155MOL0     C21280   8.802   5.821   5.404  0.5047  0.3568  0.1646
  155MOL0     C21281   8.811   5.989   5.211 -0.3760  0.0944  0.2195
  155MOL0     C21282   8.936   6.064   5.260  0.0572 -0.2202  0.8200
  155MOL0     O21283   8.965   6.175   5.184 -0.2652 -0.1263 -0.0711
  155MOL0     C21284   9.093   6.226   5.211 -0.7413 -0.3128 -1.0011
  155MOL0     C21285   9.099   6.349   5.281 -0.6559  0.2315  0.3335
  155MOL0     C21286   9.225   6.408   5.313 -0.0598  0.5037  0.7909
  155MOL0     C21287   9.350   6.337   5.285 -0.1307 -1.0999  0.5858
  155MOL0     O21288   9.465   6.386   5.341 -0.2004 -0.3976 -0.4928
  155MOL0     C21289   9.588   6.307   5.334  1.1403  0.3621  0.1452
  155MOL0     C21290   9.689   6.404   5.376 -0.7021 -0.3237 -0.4249
  155MOL0     C21291   9.715   6.524   5.289 -0.0519 -0.7864 -0.4456
  155MOL0     C21292   9.802   6.638   5.339 -0.1031  0.1645  0.6513
  155MOL0     C21293   9.944   6.615   5.302  0.3859  0.2134 -0.0565
  155MOL0     C21294  10.036   6.741   5.340 -0.6164  0.6613 -1.5098
  155MOL0     C21295  10.181   6.707   5.315  0.3305 -0.9543  0.6302
  155MOL0     C21296  10.290   6.804   5.356 -0.5043 -0.1989 -0.1393
  155MOL0    Cl21297  10.444   6.743   5.278  0.5069 -0.2123  0.0765
  155MOL0     C21298   9.340   6.220   5.203  0.7059  0.0110  0.1019
  155MOL0     C21299   9.212   6.165   5.167 -0.1024 -0.4134 -0.0437
  155MOL0     O21300   8.997   6.024   5.360  0.5604 -0.8529  0.1887
  155MOL0     C21301   8.744   6.032   5.085  0.0939  0.3192  0.1309
  155MOL0     C21302   8.624   5.959   5.043 -0.2479 -0.2045 -0.1155
  155MOL0     N21303   8.099   5.866   4.578 -0.2191 -0.3549  0.1678
  155MOL0     N21304   7.978   5.871   4.537  0.4574 -0.0739 -0.4862
  155MOL0     C21305   6.756   5.449   4.634  0.0870 -0.2783  0.6325
  155MOL0     C21306   6.646   5.370   4.673 -0.3575 -0.2823 -0.5869
  155MOL0     C21307   6.247   5.221   4.592 -0.4454 -0.6132 -0.0206
  155MOL0     C21308   6.246   5.132   4.699 -0.2629  0.3538  0.1436
  155MOL0     C21309   6.123   5.083   4.756  0.8532  0.7234 -0.1073
  155MOL0     C21310   5.994   5.120   4.707 -0.6281 -0.2635 -0.0247
  155MOL0     O21311   5.883   5.071   4.777 -0.5418  0.3407  0.7726
  155MOL0     C21312   5.756   5.087   4.711  0.5499 -0.3569  0.4629
  155MOL0     C21313   5.630   5.018   4.774  0.6044 -0.8484 -0.1543
  155MOL0     C21314   5.583   5.087   4.903 -0.5964  0.0875 -0.0018
  155MOL0     C21315   5.463   5.014   4.970 -1.0666 -0.1816 -0.1524
  155MOL0     C21316   5.356   5.114   4.983 -0.6471 -0.4120  0.4481
  155MOL0     C21317   5.254   5.173   5.006  0.3389 -0.6806  0.5470
  155MOL0     C21318   5.997   5.209   4.601 -0.3374  0.9430  0.4737
  155MOL0     C21319   6.119   5.263   4.541  0.1893 -0.0772 -0.6787
  155MOL0     C21320   6.107   5.377   4.440 -0.3693  0.7706  0.1454
  155MOL0     H21321   6.676   5.122   4.442  2.8741  0.1894 -0.9923
  155MOL0     H21322   6.871   5.239   4.391 -1.5308 -0.1696 -1.4100
  155MOL0     H21323   7.007   5.584   4.669 -1.3160 -1.5059  0.5675
  155MOL0     H21324   6.887   5.666   4.561 -2.3082 -1.0506 -2.7739
  155MOL0     H21325   7.077   5.674   4.386 -1.0908  0.8772  0.9100
  155MOL0     H21326   7.081   5.775   4.526  0.0177  1.2309 -3.6163
  155MOL0     H21327   7.211   5.658   4.660 -2.0469  0.9662 -0.0715
  155MOL0     H21328   7.242   5.518   4.557  1.8816  0.6508  1.3013
  155MOL0     H21329   7.311   5.655   4.363  0.3498  0.3729 -0.2476
  155MOL0     H21330   7.308   5.797   4.473 -0.8403 -0.2570 -0.9735
  155MOL0     H21331   7.486   5.557   4.486 -1.1273 -0.8058  0.9881
  155MOL0     H21332   7.474   5.670   4.618  0.5437 -0.3798 -0.9800
  155MOL0     H21333   7.542   5.738   4.340 -0.5360 -3.2292  1.1646
  155MOL0     H21334   7.533   5.856   4.479 -0.0816  0.0338 -0.1684
  155MOL0     H21335   7.777   5.772   4.390 -1.9650  1.2610 -1.0057
  155MOL0     H21336   7.738   5.617   4.454 -0.3599  0.4296  1.5023
  155MOL0     H21337   7.723   5.865   4.641  1.8488  0.1160  2.0126
  155MOL0     H21338   7.725   5.690   4.678  1.4738  1.3486  1.6177
  155MOL0     H21339   7.966   5.615   4.757  0.7730  1.9463  4.1496
  155MOL0     H21340   8.309   5.712   4.627  1.6499  0.7676  1.5362
  155MOL0     H21341   8.219   5.576   4.690 -1.0382 -0.1994 -0.4303
  155MOL0     H21342   8.317   5.825   4.828 -0.7141  0.7327 -2.1080
  155MOL0     H21343   8.237   5.694   4.928 -0.3233 -0.0888 -1.0051
  155MOL0     H21344   8.441   5.559   4.830 -0.8338  0.9812 -0.2878
  155MOL0     H21345   8.500   5.732   4.826 -1.3193  0.7427 -1.0694
  155MOL0     H21346   8.433   5.605   5.089  2.3166 -0.7776 -0.8473
  155MOL0     H21347   8.586   5.649   5.028  0.5715  1.1368  1.6027
  155MOL0     H21348   8.564   5.759   5.302 -2.0188  0.5466 -1.2203
  155MOL0     H21349   8.746   5.733   5.438 -0.1405  0.8833  0.4862
  155MOL0     H21350   8.783   5.888   5.488 -1.4687  0.0268  0.0336
  155MOL0     H21351   8.911   5.814   5.407  0.6910  2.7041  0.4167
  155MOL0     H21352   9.002   6.383   5.316 -0.1985 -0.9413  2.9201
  155MOL0     H21353   9.224   6.502   5.366  2.4812  2.7119 -2.6114
  155MOL0     H21354   9.582   6.214   5.391  0.5532  0.7232  0.6741
  155MOL0     H21355   9.604   6.277   5.230 -1.7220  1.5490 -0.7246
  155MOL0     H21356   9.656   6.443   5.473  1.0094  0.3341 -0.0742
  155MOL0     H21357   9.783   6.348   5.385 -1.1872 -1.0981 -0.0801
  155MOL0     H21358   9.620   6.571   5.265  0.9960  1.9459  0.3763
  155MOL0     H21359   9.762   6.485   5.198 -0.3710 -1.3972 -0.3507
  155MOL0     H21360   9.794   6.662   5.445 -2.0521 -0.5119  0.7148
  155MOL0     H21361   9.769   6.728   5.287  1.4247  0.0909 -0.5039
  155MOL0     H21362   9.977   6.526   5.355 -2.6077 -2.6196 -2.5621
  155MOL0     H21363   9.957   6.581   5.199  0.7855 -2.9861  0.9437
  155MOL0     H21364  10.018   6.739   5.448 -1.2368 -0.7566 -1.6066
  155MOL0     H21365  10.001   6.834   5.294 -0.9912  1.7571  0.8235
  155MOL0     H21366  10.196   6.694   5.207 -0.9095  1.0807  0.1538
  155MOL0     H21367  10.203   6.616   5.372  0.2783 -1.7852 -0.6147
  155MOL0     H21368  10.289   6.816   5.465  0.7367  1.1139 -0.2462
  155MOL0     H21369  10.262   6.898   5.307 -0.3523 -1.0411 -1.9247
  155MOL0     H21370   9.431   6.176   5.163  1.6160 -0.5599  2.6208
  155MOL0     H21371   9.201   6.085   5.094 -2.8187  0.6726 -0.9543
  155MOL0     H21372   8.791   6.109   5.026  1.9000 -0.6702  0.2103
  155MOL0     H21373   8.587   5.986   4.945  0.9044  2.2419  0.0511
  155MOL0     H21374   6.773   5.539   4.691 -1.2221  0.2680  0.1970
  155MOL0     H21375   6.581   5.418   4.746 -2.7519  1.1293 -3.3825
  155MOL0     H21376   6.330   5.090   4.753 -1.6807 -0.4990  1.7643
  155MOL0     H21377   6.127   5.013   4.838 -0.9092  0.4659 -0.1900
  155MOL0     H21378   5.733   5.192   4.692 -2.1304 -0.8015  0.8280
  155MOL0     H21379   5.776   5.028   4.621  0.3694  0.5924 -0.2195
  155MOL0     H21380   5.641   4.912   4.797 -1.5970 -0.5657  2.7443
  155MOL0     H21381   5.551   5.021   4.699  0.1097  0.9276  0.3763
  155MOL0     H21382   5.663   5.102   4.975  0.6761 -1.5647 -0.9945
  155MOL0     H21383   5.565   5.184   4.857  3.6187 -0.4013 -3.3586
  155MOL0     H21384   5.490   4.984   5.072 -1.5967 -0.9458 -0.2314
  155MOL0     H21385   5.428   4.927   4.915 -0.1379 -2.5050  2.6411
  155MOL0     H21386   5.168   5.233   5.028  1.2892  0.1760  2.1115
  155MOL0     H21387   5.903   5.248   4.563  0.3599  2.3473  0.1487
  155MOL0     H21388   6.001   5.403   4.431 -0.5380  1.5145  3.1995
  155MOL0     H21389   6.149   5.474   4.470  2.1172  0.5229 -2.1988
  155MOL0     H21390   6.154   5.354   4.344  1.5725 -0.9462  1.4260
  156MOL0     O21391   1.350   7.308   9.208 -0.7745 -0.2895  0.6218
  156MOL0     C21392   1.307   7.195   9.191  0.3172  0.6343  1.2804
  156MOL0     O21393   1.381   7.077   9.180  0.2127  0.1385 -0.1519
  156MOL0     C21394   1.511   7.106   9.151 -0.5581 -0.2875 -0.6844
  156MOL0     C21395   1.540   7.137   9.020 -0.4927  0.0315 -0.3823
  156MOL0     C21396   1.668   7.163   8.974 -0.6811 -0.1221 -0.1314
  156MOL0     C21397   1.777   7.158   9.070 -0.5455 -0.0646  0.5716
  156MOL0     O21398   1.906   7.197   9.042 -0.4181  0.0393 -0.3687
  156MOL0     C21399   1.930   7.257   8.913  0.2823 -0.4803 -0.2655
  156MOL0     C21400   2.070   7.312   8.899 -0.4380  0.3228  0.0544
  156MOL0     C21401   2.088   7.380   8.756 -0.3000  0.5916  0.6385
  156MOL0     C21402   2.075   7.276   8.638  1.1003  0.3424  0.3230
  156MOL0     C21403   2.087   7.345   8.506 -0.1473  0.0568  0.5192
  156MOL0     C21404   2.230   7.391   8.483 -0.6825  0.1850  0.3499
  156MOL0     C21405   2.248   7.453   8.343  0.5747 -0.1437 -0.2002
  156MOL0     C21406   2.202   7.592   8.314  0.2285  0.1188 -0.1481
  156MOL0     N21407   2.279   7.688   8.390  0.0704  0.4875 -0.1518
  156MOL0     C21408   2.249   7.730   8.522  0.2775 -0.0491 -0.0870
  156MOL0     C21409   2.356   7.800   8.566  0.1684  0.8534  0.7073
  156MOL0     C21410   2.377   7.873   8.692  0.6539 -0.9653  0.2492
  156MOL0     C21411   2.449   7.797   8.804 -0.1539 -0.4331  0.2930
  156MOL0     C21412   2.489   7.893   8.916 -0.2812  0.3174  0.2036
  156MOL0     C21413   2.596   7.829   9.008  0.4248  0.2892 -0.0955
  156MOL0     O21414   2.572   7.689   9.044 -0.6244 -0.4449  0.1793
  156MOL0     C21415   2.456   7.651   9.115  0.4597 -0.1215 -0.3857
  156MOL0     C21416   2.372   7.735   9.183  0.1199  0.2956 -0.2023
  156MOL0     C21417   2.250   7.691   9.250 -0.1718 -0.1110  1.1152
  156MOL0     C21418   2.159   7.797   9.307 -0.2717 -0.0710  0.5778
  156MOL0     C21419   2.218   7.557   9.251  0.3662 -0.2011 -0.1696
  156MOL0     C21420   2.113   7.494   9.326 -0.2397 -0.2086  0.0177
  156MOL0     O21421   1.994   7.566   9.337 -0.7326 -0.1628  0.2307
  156MOL0     C21422   1.900   7.508   9.429 -0.8797 -1.3799 -0.0909
  156MOL0     C21423   1.918   7.540   9.570  0.3612  0.0421  0.3864
  156MOL0     C21424   1.820   7.495   9.668  0.1688 -0.6640  0.8726
  156MOL0     C21425   1.715   7.407   9.622 -0.1735  0.0786  0.0755
  156MOL0     O21426   1.643   7.357   9.723  0.0545 -0.1033 -0.0595
  156MOL0     C21427   1.573   7.226   9.707  0.5431 -0.2277 -0.5780
  156MOL0     C21428   1.427   7.249   9.647 -0.7720  0.4775  0.1344
  156MOL0     C21429   1.354   7.118   9.663  0.3631  0.3160  0.0580
  156MOL0     C21430   1.223   7.112   9.583  0.4579  0.3325 -0.3812
  156MOL0     C21431   1.110   7.222   9.616 -0.7870  0.3822 -0.1525
  156MOL0     C21432   1.045   7.185   9.747  0.0406  0.3338 -0.8966
  156MOL0     C21433   0.938   7.285   9.795  0.9701  0.5877 -0.3210
  156MOL0     C21434   0.818   7.285   9.690 -0.2371  0.6747  0.2216
  156MOL0    Cl21435   0.688   7.386   9.762 -0.2253  0.1745  0.1196
  156MOL0     C21436   1.703   7.375   9.481 -0.1488 -0.4397 -0.8386
  156MOL0     C21437   1.801   7.424   9.389  0.2748 -0.4116 -0.6387
  156MOL0     O21438   2.147   7.400   9.390 -0.2291  0.5959 -0.3732
  156MOL0     C21439   2.307   7.468   9.186  0.3784  0.4198  0.8034
  156MOL0     C21440   2.420   7.518   9.127  0.1015 -0.2643  0.0873
  156MOL0     N21441   2.433   7.829   8.453  0.4257 -0.4965  0.1730
  156MOL0     N21442   2.398   7.746   8.355 -0.3996 -0.4635 -0.1608
  156MOL0     C21443   1.742   7.111   9.202 -0.2609 -0.6199 -0.3088
  156MOL0     C21444   1.608   7.082   9.240 -0.2423  0.5857  0.1687
  156MOL0     C21445   1.152   7.180   9.185 -1.1435  0.0130 -0.3944
  156MOL0     C21446   1.104   7.055   9.144  1.0026 -0.7472 -0.8445
  156MOL0     C21447   0.970   7.021   9.146  0.0052  0.1086 -0.4775
  156MOL0     C21448   0.879   7.113   9.193  0.1247  0.1024 -0.1582
  156MOL0     O21449   0.742   7.081   9.198 -0.1266 -0.2772  0.4060
  156MOL0     C21450   0.677   7.107   9.317 -0.3488  0.2193 -0.1490
  156MOL0     C21451   0.547   7.029   9.326 -0.5449  0.2585  0.1536
  156MOL0     C21452   0.563   6.880   9.340 -0.4053  0.3841  0.4908
  156MOL0     C21453   0.431   6.818   9.379  0.0830  0.3187  0.1004
  156MOL0     C21454   0.447   6.667   9.398  0.6038 -0.3229  0.2271
  156MOL0     C21455   0.454   6.546   9.411 -0.1476  0.1009 -0.2873
  156MOL0     C21456   0.921   7.240   9.224  0.1772  0.1591 -0.0261
  156MOL0     C21457   1.053   7.275   9.235  0.5323  0.1535  0.9815
  156MOL0     C21458   1.083   7.421   9.285 -0.6477  0.5372 -0.5119
  156MOL0     H21459   1.458   7.154   8.952 -0.8137 -3.5186 -1.0843
  156MOL0     H21460   1.681   7.204   8.875  1.9697  1.6105  0.8341
  156MOL0     H21461   1.864   7.344   8.916 -1.0624 -1.4976  1.6093
  156MOL0     H21462   1.896   7.191   8.833  0.4296 -0.3625 -0.4238
  156MOL0     H21463   2.093   7.386   8.977 -2.6439 -1.8005  2.9618
  156MOL0     H21464   2.148   7.236   8.907  1.8985  2.7066  1.2576
  156MOL0     H21465   2.013   7.459   8.748  0.0849  0.8631 -0.4104
  156MOL0     H21466   2.187   7.427   8.754  0.4380 -0.9164  0.1423
  156MOL0     H21467   2.146   7.194   8.654 -0.9340 -1.1070  2.9358
  156MOL0     H21468   1.980   7.222   8.641  2.4236 -2.1645  0.6811
  156MOL0     H21469   2.018   7.430   8.508  1.8673  1.9349 -2.2367
  156MOL0     H21470   2.054   7.275   8.428  1.3506 -0.5388  0.3862
  156MOL0     H21471   2.239   7.462   8.566  1.7207 -3.4148  3.4994
  156MOL0     H21472   2.290   7.302   8.502 -1.6508 -0.8544 -1.2694
  156MOL0     H21473   2.201   7.383   8.273 -1.8391  1.8724 -0.7203
  156MOL0     H21474   2.355   7.462   8.321  0.9612 -0.1977  1.5212
  156MOL0     H21475   2.225   7.631   8.215  0.7984  3.4837  1.1708
  156MOL0     H21476   2.094   7.605   8.316 -0.0450 -1.5433 -1.7352
  156MOL0     H21477   2.163   7.690   8.575  2.5116 -2.3846  2.0539
  156MOL0     H21478   2.276   7.896   8.727  1.2209 -2.5112  3.2546
  156MOL0     H21479   2.430   7.966   8.669 -2.3580  0.5394 -1.1243
  156MOL0     H21480   2.388   7.717   8.848  1.3010 -1.7773 -0.0347
  156MOL0     H21481   2.538   7.754   8.757 -0.4256 -0.0280 -0.6173
  156MOL0     H21482   2.536   7.984   8.877  0.9193 -0.5669 -0.4610
  156MOL0     H21483   2.399   7.915   8.974  0.2040  2.0993  0.3585
  156MOL0     H21484   2.689   7.818   8.950  0.4051  0.6816 -0.2027
  156MOL0     H21485   2.615   7.890   9.096  0.7246 -1.6624  1.2517
  156MOL0     H21486   2.414   7.835   9.191 -0.6008  0.6479 -0.6715
  156MOL0     H21487   2.078   7.816   9.236 -0.4420  0.2530  0.8575
  156MOL0     H21488   2.217   7.889   9.317 -0.3300 -0.0784  1.0021
  156MOL0     H21489   2.122   7.772   9.407  1.3728 -1.2888  0.9254
  156MOL0     H21490   2.008   7.590   9.605 -1.4546  2.9660  1.2691
  156MOL0     H21491   1.844   7.505   9.773  3.0735  0.3647  0.2022
  156MOL0     H21492   1.609   7.160   9.627 -1.2343 -0.6679 -1.0799
  156MOL0     H21493   1.586   7.174   9.802  1.7379  2.0772  0.5951
  156MOL0     H21494   1.370   7.321   9.705  0.9101  0.2278  2.2093
  156MOL0     H21495   1.429   7.279   9.542 -2.5816  1.8723  0.4662
  156MOL0     H21496   1.348   7.102   9.771  3.3951  1.0696  0.4064
  156MOL0     H21497   1.410   7.031   9.627 -1.3472 -1.5350  1.6156
  156MOL0     H21498   1.177   7.014   9.600 -2.2225  1.7193  0.8841
  156MOL0     H21499   1.248   7.122   9.477 -1.0389  1.3088 -0.6618
  156MOL0     H21500   1.162   7.318   9.623  1.8548 -0.7009 -2.9574
  156MOL0     H21501   1.036   7.218   9.536  0.0452 -2.4177 -0.8815
  156MOL0     H21502   1.119   7.183   9.828 -1.0543  2.4009  0.2098
  156MOL0     H21503   1.007   7.082   9.737  0.1269 -0.0762  2.2453
  156MOL0     H21504   0.963   7.385   9.831  1.3967  1.0853 -1.9071
  156MOL0     H21505   0.897   7.231   9.881  0.7503 -0.3538 -1.0004
  156MOL0     H21506   0.786   7.183   9.667  0.5337  0.6988 -1.0490
  156MOL0     H21507   0.856   7.326   9.595  1.0655 -2.1617 -0.6078
  156MOL0     H21508   1.632   7.304   9.439 -0.3600  0.0531 -1.3244
  156MOL0     H21509   1.803   7.404   9.282  0.3383  1.7159 -1.0814
  156MOL0     H21510   2.287   7.362   9.172 -1.7246  0.7266  1.0449
  156MOL0     H21511   2.484   7.444   9.080 -1.0440 -1.9623  1.1334
  156MOL0     H21512   1.820   7.104   9.278  0.2613  3.6763 -0.2086
  156MOL0     H21513   1.587   7.058   9.343  0.1298  2.2815  0.6623
  156MOL0     H21514   1.164   6.965   9.130 -0.3038 -1.7612 -0.1875
  156MOL0     H21515   0.924   6.931   9.105 -1.2819 -0.7900  2.7003
  156MOL0     H21516   0.739   7.071   9.400  2.0840  2.5329 -0.8463
  156MOL0     H21517   0.652   7.213   9.330  0.8137  0.4342  0.4446
  156MOL0     H21518   0.485   7.049   9.238 -1.8416 -1.9863  0.5007
  156MOL0     H21519   0.487   7.055   9.413  0.3522 -0.7454  1.1084
  156MOL0     H21520   0.606   6.830   9.253 -0.7187 -1.7640  1.4923
  156MOL0     H21521   0.642   6.860   9.414  0.6183  0.7223 -0.4786
  156MOL0     H21522   0.353   6.831   9.304 -0.4501  1.2139  0.7838
  156MOL0     H21523   0.398   6.870   9.470  0.4407  4.2314 -1.7921
  156MOL0     H21524   0.459   6.439   9.412  0.8701  0.1016  2.5847
  156MOL0     H21525   0.844   7.313   9.247  0.3305  0.4572 -0.4435
  156MOL0     H21526   1.125   7.488   9.209 -0.5320 -0.6918 -1.5499
  156MOL0     H21527   0.984   7.458   9.313 -0.5523 -1.1390  2.4257
  156MOL0     H21528   1.148   7.428   9.373 -1.7026  0.5379  0.2851
  157MOL0     O21529  10.544   6.267   5.869 -0.2198  0.2283 -0.0863
  157MOL0     C21530  10.609   6.190   5.941  0.8134 -0.1472 -0.4892
  157MOL0     O21531  10.743   6.165   5.929 -0.5707 -0.5148 -0.9314
  157MOL0     C21532  10.832   6.229   5.845 -0.7930  0.0201  0.2750
  157MOL0     C21533  10.954   6.274   5.902 -0.1719  0.2876 -0.2521
  157MOL0     C21534  11.053   6.317   5.811 -0.9169 -0.2187 -0.1817
  157MOL0     C21535  11.046   6.315   5.675  0.1518  0.5470 -0.3963
  157MOL0     O21536  11.143   6.366   5.591  0.2646  0.1981  0.3363
  157MOL0     C21537  11.173   6.297   5.469 -0.3856  0.4305 -0.2664
  157MOL0     C21538  11.322   6.286   5.456  0.6950 -0.3583 -0.0430
  157MOL0     C21539  11.387   6.172   5.550  0.1403 -0.5844  0.5211
  157MOL0     C21540  11.359   6.041   5.477 -0.0309 -0.8727 -0.4131
  157MOL0     C21541  11.435   5.921   5.553  0.6970 -0.9369  0.0175
  157MOL0     C21542  11.436   5.804   5.468 -0.6713 -0.0767 -0.7106
  157MOL0     C21543  11.285   5.752   5.443 -0.0430 -0.5393 -0.1474
  157MOL0     C21544  11.289   5.601   5.400  0.3196 -0.0074  0.7651
  157MOL0     N21545  11.149   5.576   5.360  0.5513 -0.1555  0.3834
  157MOL0     C21546  11.042   5.556   5.441 -0.3151 -0.1577  0.6106
  157MOL0     C21547  10.939   5.537   5.358 -0.1908 -0.2477  0.3460
  157MOL0     C21548  10.803   5.505   5.402  0.2962  0.2371 -0.1958
  157MOL0     C21549  10.731   5.617   5.483 -0.0741 -0.2913  0.0538
  157MOL0     C21550  10.605   5.589   5.564  0.1413  0.0222 -0.3925
  157MOL0     C21551  10.488   5.552   5.469  1.2079 -0.0829  0.0610
  157MOL0     O21552  10.396   5.467   5.544 -0.1363  0.8862  1.0470
  157MOL0     C21553  10.275   5.432   5.486  0.4118 -0.3331  0.2290
  157MOL0     C21554  10.177   5.366   5.570  0.0714  0.3249  0.1184
  157MOL0     C21555  10.049   5.343   5.518  0.2443  0.0158 -0.3864
  157MOL0     C21556   9.949   5.271   5.608 -0.7718  0.0717  0.7904
  157MOL0     C21557  10.023   5.377   5.385 -0.4825  0.0084 -0.1239
  157MOL0     C21558   9.895   5.353   5.321 -0.0626 -0.7197  0.2194
  157MOL0     O21559   9.843   5.452   5.243 -0.5648 -0.4976 -0.4068
  157MOL0     C21560   9.716   5.442   5.198 -0.3114 -0.4602  0.6732
  157MOL0     C21561   9.602   5.409   5.280  0.2617 -0.9596  0.2395
  157MOL0     C21562   9.479   5.373   5.219 -0.6726 -0.7868  1.3578
  157MOL0     C21563   9.475   5.347   5.079 -0.4222 -0.2903  0.7227
  157MOL0     O21564   9.372   5.285   5.008 -1.0686  0.3148 -0.0773
  157MOL0     C21565   9.284   5.204   5.085  0.7437 -0.0762 -0.2118
  157MOL0     C21566   9.192   5.131   4.987 -1.0862  0.1442  1.0822
  157MOL0     C21567   9.061   5.092   5.048 -1.0253 -0.5360  0.5946
  157MOL0     C21568   8.979   5.006   4.942  0.1599 -0.1565 -0.2340
  157MOL0     C21569   8.852   4.973   5.010 -0.1193  0.2745 -0.5059
  157MOL0     C21570   8.783   4.875   4.927  0.4476  0.4803  0.5269
  157MOL0     C21571   8.687   4.786   5.012 -0.1262 -0.5518  0.2367
  157MOL0     C21572   8.560   4.751   4.938  0.0377 -0.1718 -0.6009
  157MOL0    Cl21573   8.446   4.653   5.035  0.4101  0.1313 -0.0939
  157MOL0     C21574   9.588   5.380   5.003  0.1458 -0.5457  0.2904
  157MOL0     C21575   9.704   5.427   5.060  0.0080 -0.5672 -0.4568
  157MOL0     O21576   9.835   5.247   5.347 -1.0570 -0.6965 -0.0087
  157MOL0     C21577  10.120   5.430   5.299  0.9280  0.5615 -0.7327
  157MOL0     C21578  10.245   5.455   5.348 -0.2214  0.8405 -0.3343
  157MOL0     N21579  10.981   5.546   5.230  0.9666 -0.1517  0.1310
  157MOL0     N21580  11.109   5.568   5.230  0.4298  0.5555 -0.0496
  157MOL0     C21581  10.913   6.291   5.633 -0.6013 -0.4721  0.0579
  157MOL0     C21582  10.803   6.245   5.710 -0.9513 -0.0328 -0.5291
  157MOL0     C21583  10.556   6.125   6.058 -0.5064  0.5083 -0.0639
  157MOL0     C21584  10.633   6.092   6.170 -0.1490 -0.6199  0.5873
  157MOL0     C21585  10.576   6.024   6.284 -0.2214  0.4874  0.1462
  157MOL0     C21586  10.442   5.982   6.290 -0.0314  0.0647  0.2401
  157MOL0     O21587  10.388   5.912   6.395 -0.4951  0.3120 -0.2654
  157MOL0     C21588  10.244   5.913   6.403  0.2976 -0.0974 -0.7255
  157MOL0     C21589  10.191   6.057   6.441  0.9110 -0.1081  0.6536
  157MOL0     C21590  10.034   6.071   6.442 -0.7028 -0.3937 -0.2374
  157MOL0     C21591   9.943   5.974   6.519 -0.5536  0.4761 -0.6318
  157MOL0     C21592   9.976   5.957   6.661 -1.2781 -0.3314  0.2469
  157MOL0     C21593  10.014   5.957   6.781  0.1216  0.2739 -0.2085
  157MOL0     C21594  10.367   6.034   6.183  0.3743 -0.2024  0.1572
  157MOL0     C21595  10.420   6.102   6.073  0.0606 -0.9159  0.2804
  157MOL0     C21596  10.305   6.162   5.976 -0.8966  0.3498 -0.1047
  157MOL0     H21597  10.959   6.280   6.011 -0.7105  4.2617 -0.2840
  157MOL0     H21598  11.151   6.349   5.843 -1.9581  2.9060  0.2303
  157MOL0     H21599  11.147   6.363   5.386  1.6569  0.9499 -0.5463
  157MOL0     H21600  11.122   6.200   5.463  0.2881  0.1546 -3.6715
  157MOL0     H21601  11.354   6.282   5.352 -2.1029 -0.2475 -0.9688
  157MOL0     H21602  11.363   6.379   5.498 -0.4957  1.0463 -1.8634
  157MOL0     H21603  11.495   6.187   5.557  0.1126  0.9975 -1.5563
  157MOL0     H21604  11.362   6.177   5.656  3.4746  0.5951  1.3720
  157MOL0     H21605  11.250   6.034   5.488  0.1201  0.5254  3.2880
  157MOL0     H21606  11.402   6.050   5.377  1.3896  0.9475  0.3206
  157MOL0     H21607  11.383   5.905   5.648 -2.6366  1.0152 -1.3134
  157MOL0     H21608  11.538   5.951   5.577 -0.0139  1.1956  0.6842
  157MOL0     H21609  11.482   5.817   5.369  1.2903  0.9454  0.2901
  157MOL0     H21610  11.497   5.730   5.521  2.2306 -0.7386 -4.5217
  157MOL0     H21611  11.242   5.821   5.370  0.4765 -0.3602 -0.2931
  157MOL0     H21612  11.229   5.747   5.537 -0.3072 -0.1064 -0.2798
  157MOL0     H21613  11.349   5.587   5.309  1.0613 -2.2758  1.5387
  157MOL0     H21614  11.326   5.534   5.478  0.8281 -1.8289 -0.9580
  157MOL0     H21615  11.044   5.559   5.550  0.8924 -1.0446  0.6298
  157MOL0     H21616  10.818   5.415   5.463  2.3640  1.3425  1.0366
  157MOL0     H21617  10.739   5.475   5.319 -2.0295 -5.0906  2.9972
  157MOL0     H21618  10.807   5.659   5.549  0.4554  0.4483 -1.0000
  157MOL0     H21619  10.711   5.693   5.407  0.5949 -0.2699 -0.1039
  157MOL0     H21620  10.617   5.505   5.632 -1.1518  0.5348  0.5054
  157MOL0     H21621  10.580   5.677   5.624 -0.9201  1.5890 -2.9627
  157MOL0     H21622  10.436   5.645   5.443 -0.4180 -1.2550 -1.0467
  157MOL0     H21623  10.521   5.498   5.379 -1.5913 -0.9485 -0.5292
  157MOL0     H21624  10.190   5.359   5.678 -3.7916  1.3174  0.8237
  157MOL0     H21625   9.970   5.293   5.713  1.6027  0.5928  0.2506
  157MOL0     H21626   9.964   5.163   5.599  1.0388  0.3319  0.3251
  157MOL0     H21627   9.847   5.302   5.583  0.0970  1.7559 -0.8935
  157MOL0     H21628   9.602   5.404   5.388  1.9770 -0.2372  0.3019
  157MOL0     H21629   9.393   5.354   5.283 -1.8747  0.7185  0.2571
  157MOL0     H21630   9.338   5.126   5.141 -0.3440 -1.4925 -1.0740
  157MOL0     H21631   9.232   5.273   5.152 -0.1045 -0.4537 -0.4741
  157MOL0     H21632   9.180   5.197   4.900 -0.2651 -3.1378 -1.7141
  157MOL0     H21633   9.252   5.046   4.954  0.0436  1.3121  0.0061
  157MOL0     H21634   9.002   5.180   5.074 -0.9351  0.1551 -1.3850
  157MOL0     H21635   9.079   5.043   5.144 -0.3044 -3.1858 -0.7921
  157MOL0     H21636   9.031   4.914   4.914 -1.2548 -0.8826 -0.5590
  157MOL0     H21637   8.964   5.070   4.855 -0.4158 -0.3152 -0.2543
  157MOL0     H21638   8.867   4.930   5.110 -0.3606  0.4714 -0.3824
  157MOL0     H21639   8.791   5.063   5.024 -0.2403 -0.0053  0.9918
  157MOL0     H21640   8.860   4.819   4.872 -1.0782  1.8775 -3.3320
  157MOL0     H21641   8.721   4.921   4.850  2.1141 -0.9541 -1.8022
  157MOL0     H21642   8.662   4.839   5.104  1.9568  0.3385  0.3429
  157MOL0     H21643   8.728   4.689   5.040  1.0133 -0.3723 -0.7445
  157MOL0     H21644   8.587   4.694   4.848  0.5367 -3.5722  1.5456
  157MOL0     H21645   8.500   4.837   4.907 -0.2462 -0.7829 -1.8007
  157MOL0     H21646   9.584   5.379   4.895 -0.4348 -0.3378  0.3030
  157MOL0     H21647   9.785   5.439   4.988  1.0927 -1.0851  0.6290
  157MOL0     H21648  10.094   5.456   5.197 -0.4598 -1.5325 -0.9653
  157MOL0     H21649  10.314   5.514   5.289  1.5858  1.2627  2.0472
  157MOL0     H21650  10.890   6.319   5.531 -0.6385 -1.2072 -0.1413
  157MOL0     H21651  10.706   6.226   5.665 -0.3854 -1.4253 -1.2142
  157MOL0     H21652  10.739   6.115   6.174 -0.6854  2.0113  1.7321
  157MOL0     H21653  10.645   5.988   6.359  0.7352  1.4341 -0.2417
  157MOL0     H21654  10.192   5.870   6.317 -1.2541 -0.9366  0.5668
  157MOL0     H21655  10.220   5.852   6.490 -0.0146  0.7094 -0.2348
  157MOL0     H21656  10.241   6.131   6.377  1.2237  0.5263  1.6054
  157MOL0     H21657  10.229   6.082   6.540 -0.3996 -0.8002  1.3578
  157MOL0     H21658  10.019   6.170   6.485 -0.6512 -0.4692 -0.0424
  157MOL0     H21659  10.003   6.060   6.338  2.4410 -0.7913 -1.2580
  157MOL0     H21660   9.942   5.878   6.466 -0.8639  0.5594 -0.7799
  157MOL0     H21661   9.838   6.004   6.520 -2.1524 -4.0871 -2.8120
  157MOL0     H21662  10.061   5.942   6.876  1.4727  0.0875 -0.8693
  157MOL0     H21663  10.260   6.026   6.166  0.2042  2.0888 -0.1913
  157MOL0     H21664  10.207   6.181   6.020 -2.0447 -0.6356 -2.0966
  157MOL0     H21665  10.329   6.255   5.924 -1.1835  1.0561  0.9901
  157MOL0     H21666  10.273   6.077   5.916 -0.4055 -0.4712  0.7711
  158MOL0     O21667  11.382   9.313   7.347 -0.2999  0.1169  0.1012
  158MOL0     C21668  11.467   9.352   7.424  0.3156 -0.1255 -0.1984
  158MOL0     O21669  11.600   9.353   7.405 -0.2914  0.6852  0.1153
  158MOL0     C21670  11.648   9.355   7.275 -0.5332  0.5819 -0.2943
  158MOL0     C21671  11.644   9.462   7.194  0.0125 -0.3382 -0.0795
  158MOL0     C21672  11.687   9.461   7.062 -0.7277 -0.3425  0.3934
  158MOL0     C21673  11.744   9.341   7.009 -0.1947 -0.1102 -1.1195
  158MOL0     O21674  11.773   9.321   6.882 -0.9589 -0.1667  0.1998
  158MOL0     C21675  11.815   9.433   6.798  0.5127 -0.4246 -0.7606
  158MOL0     C21676  11.901   9.381   6.677 -0.1343  0.1123  0.1634
  158MOL0     C21677  11.956   9.492   6.581  0.2501  0.3291  0.1398
  158MOL0     C21678  12.113   9.513   6.579 -0.7861  0.3399 -0.4697
  158MOL0     C21679  12.194   9.387   6.534 -0.4685  0.4004 -0.0892
  158MOL0     C21680  12.348   9.413   6.518 -0.8367 -0.5114  0.0134
  158MOL0     C21681  12.437   9.288   6.528 -0.1913  0.0075  0.5033
  158MOL0     C21682  12.400   9.184   6.425  0.3168  0.0294  0.5297
  158MOL0     N21683  12.447   9.221   6.287 -0.5156  0.0935 -0.1509
  158MOL0     C21684  12.582   9.246   6.255 -0.0422 -0.2356  0.6623
  158MOL0     C21685  12.580   9.267   6.120  0.2559  0.8423  0.0689
  158MOL0     C21686  12.700   9.275   6.037 -0.9059 -0.4775  0.0443
  158MOL0     C21687  12.777   9.144   6.050  0.1471  1.2720  0.1724
  158MOL0     C21688  12.918   9.137   6.004 -0.5950 -0.2138 -0.4449
  158MOL0     C21689  12.936   9.173   5.856 -0.0345  0.2385 -0.3793
  158MOL0     O21690  13.071   9.228   5.842  0.4937 -0.1533  0.2064
  158MOL0     C21691  13.119   9.245   5.708 -0.1855  0.3797 -1.3035
  158MOL0     C21692  13.040   9.216   5.586 -0.6403 -0.4921 -0.0826
  158MOL0     C21693  13.085   9.255   5.458  0.0017  0.3188 -0.2016
  158MOL0     C21694  12.991   9.250   5.341  0.3294 -0.4045 -0.2366
  158MOL0     C21695  13.219   9.313   5.448  0.3417  0.2256  0.4171
  158MOL0     C21696  13.286   9.342   5.314 -0.3250 -0.7131 -0.0383
  158MOL0     O21697  13.413   9.303   5.311  0.1676  0.3652 -0.2237
  158MOL0     C21698  13.494   9.364   5.221  0.0605  0.7579  0.7518
  158MOL0     C21699  13.501   9.500   5.196  0.0346  0.3195 -1.0246
  158MOL0     C21700  13.579   9.553   5.097  1.2737  0.4481 -0.2535
  158MOL0     C21701  13.656   9.470   5.019  0.8511 -0.4950 -0.0315
  158MOL0     O21702  13.745   9.526   4.943  0.4017 -0.5241  0.5559
  158MOL0     C21703  13.686   9.622   4.846  0.3848 -0.1146  0.0090
  158MOL0     C21704  13.785   9.682   4.757 -0.0931 -0.5822  0.5995
  158MOL0     C21705  13.862   9.574   4.685 -0.1240 -0.1638  0.0554
  158MOL0     C21706  13.982   9.642   4.617 -0.3917 -0.3635  0.1517
  158MOL0     C21707  14.014   9.572   4.486 -0.0712  0.2309  0.3732
  158MOL0     C21708  14.035   9.424   4.495  0.3453  0.0539  0.2292
  158MOL0     C21709  14.081   9.361   4.366 -0.4094 -0.2616 -0.0917
  158MOL0     C21710  14.111   9.214   4.382 -0.4130  0.5683 -0.0637
  158MOL0    Cl21711  13.966   9.123   4.373  0.3596 -0.0702 -0.2749
  158MOL0     C21712  13.670   9.332   5.049 -0.1719 -1.0729  0.5888
  158MOL0     C21713  13.577   9.280   5.142  0.5371 -0.6383 -0.3495
  158MOL0     O21714  13.223   9.398   5.224 -0.0281  0.5251 -0.6835
  158MOL0     C21715  13.300   9.337   5.563  0.0383 -0.4183 -0.1551
  158MOL0     C21716  13.251   9.306   5.688  0.5961  0.2527  0.2961
  158MOL0     N21717  12.451   9.242   6.075  0.1945  0.8508 -0.3196
  158MOL0     N21718  12.379   9.216   6.171  0.1570  0.5146 -0.2988
  158MOL0     C21719  11.769   9.235   7.098  0.5274  0.0374 -0.2891
  158MOL0     C21720  11.712   9.236   7.228  0.6475 -0.2636  0.0295
  158MOL0     C21721  11.414   9.391   7.558 -0.3285  0.1266 -0.1169
  158MOL0     C21722  11.272   9.412   7.564 -0.2040  0.0805  0.0302
  158MOL0     C21723  11.213   9.451   7.682 -0.5786 -0.2072 -0.2158
  158MOL0     C21724  11.285   9.446   7.806  0.2406 -0.2056 -0.6395
  158MOL0     O21725  11.216   9.474   7.928 -0.0589 -0.0823  0.4349
  158MOL0     C21726  11.260   9.440   8.061 -0.1939 -0.2910  0.5697
  158MOL0     C21727  11.159   9.491   8.170  0.2279  0.3831 -0.0961
  158MOL0     C21728  11.148   9.643   8.186 -0.1958  0.1882 -0.3549
  158MOL0     C21729  11.034   9.692   8.277  0.3084  0.5679  0.9352
  158MOL0     C21730  10.911   9.698   8.201 -0.3500  0.2667  0.5564
  158MOL0     C21731  10.812   9.707   8.137  0.8343  0.5160  0.8624
  158MOL0     C21732  11.420   9.428   7.801 -0.9246  0.0323 -0.3913
  158MOL0     C21733  11.489   9.401   7.679  0.3330  0.3859 -0.1272
  158MOL0     C21734  11.638   9.404   7.687  0.1497 -0.2068 -0.1036
  158MOL0     H21735  11.597   9.548   7.241  2.0786 -0.1511  1.7794
  158MOL0     H21736  11.663   9.547   7.001 -1.0684 -1.8688 -1.7117
  158MOL0     H21737  11.876   9.502   6.856 -1.7637  0.0732  1.2044
  158MOL0     H21738  11.728   9.487   6.760 -0.6926 -2.2358 -0.7438
  158MOL0     H21739  11.980   9.323   6.726 -2.1159 -2.2202  0.8121
  158MOL0     H21740  11.839   9.313   6.619 -1.2979  1.0023  0.3220
  158MOL0     H21741  11.910   9.481   6.482 -1.1055  3.1720  0.3440
  158MOL0     H21742  11.918   9.589   6.615 -2.8659 -0.4372 -0.7965
  158MOL0     H21743  12.149   9.588   6.508  0.9225 -2.9529 -3.3515
  158MOL0     H21744  12.146   9.545   6.679 -2.3111 -0.8203  0.4576
  158MOL0     H21745  12.155   9.356   6.437  0.2957 -1.6262  0.2102
  158MOL0     H21746  12.171   9.307   6.605  2.2194 -0.4410 -0.0717
  158MOL0     H21747  12.358   9.463   6.421 -0.2037 -0.7886 -0.0699
  158MOL0     H21748  12.373   9.491   6.590 -0.2487  1.4321 -2.1640
  158MOL0     H21749  12.435   9.229   6.620 -4.4902 -1.0931 -0.0799
  158MOL0     H21750  12.539   9.324   6.512 -0.3441  0.5414  0.7350
  158MOL0     H21751  12.458   9.098   6.458 -0.6942 -0.3002  1.5015
  158MOL0     H21752  12.291   9.169   6.422  0.2303  0.5785 -2.1285
  158MOL0     H21753  12.667   9.238   6.321  1.0952 -0.9673 -0.8224
  158MOL0     H21754  12.766   9.355   6.072 -0.2921  0.4611 -2.9451
  158MOL0     H21755  12.665   9.302   5.937  3.5926 -0.6586 -1.8256
  158MOL0     H21756  12.758   9.098   6.148  1.2531  1.3551  0.4362
  158MOL0     H21757  12.730   9.073   5.981 -0.6384  2.3928 -0.4700
  158MOL0     H21758  12.968   9.218   6.059 -0.0840 -1.9570  1.7571
  158MOL0     H21759  12.970   9.050   6.043 -0.9132  0.1122  0.7262
  158MOL0     H21760  12.919   9.080   5.802 -0.2925  0.8945 -1.4447
  158MOL0     H21761  12.863   9.250   5.830  0.3367  1.7481  2.5216
  158MOL0     H21762  12.940   9.173   5.588 -1.1703  0.6950  1.9793
  158MOL0     H21763  12.907   9.183   5.357  1.7765 -2.4120 -0.7024
  158MOL0     H21764  13.057   9.208   5.265  2.5492 -0.7078  1.7133
  158MOL0     H21765  12.956   9.350   5.314 -2.0307 -1.3722 -0.9254
  158MOL0     H21766  13.467   9.572   5.269  3.1218 -1.4733  2.4800
  158MOL0     H21767  13.600   9.659   5.100 -1.2189  1.0719 -1.5013
  158MOL0     H21768  13.613   9.574   4.780  2.7661 -0.7761 -2.3210
  158MOL0     H21769  13.632   9.703   4.897 -2.5401 -0.0681 -2.8668
  158MOL0     H21770  13.735   9.754   4.690 -3.5533 -0.4393  3.0928
  158MOL0     H21771  13.850   9.740   4.822  0.6154  0.1808 -0.7364
  158MOL0     H21772  13.805   9.510   4.617 -0.4753 -0.5557  0.7093
  158MOL0     H21773  13.896   9.501   4.760  1.4493  0.4677 -0.0053
  158MOL0     H21774  14.073   9.654   4.677  1.1060 -0.9292 -1.8937
  158MOL0     H21775  13.953   9.746   4.601  2.0376  0.8639  2.7265
  158MOL0     H21776  13.933   9.579   4.413 -0.5440  2.0925  1.0271
  158MOL0     H21777  14.094   9.628   4.437  0.5263  0.7444  1.8769
  158MOL0     H21778  13.945   9.373   4.529 -0.5814  0.6291 -1.2558
  158MOL0     H21779  14.109   9.413   4.575  0.6907  0.1218 -0.0784
  158MOL0     H21780  14.173   9.405   4.325 -0.5409 -0.8368 -1.0430
  158MOL0     H21781  14.012   9.365   4.281  1.5313  2.3709 -1.7129
  158MOL0     H21782  14.164   9.190   4.475  2.4086  0.6758 -1.5367
  158MOL0     H21783  14.168   9.182   4.295 -0.1509  0.6624  0.0712
  158MOL0     H21784  13.729   9.282   4.972 -0.0969  1.3075 -1.0077
  158MOL0     H21785  13.581   9.172   5.149  1.4736 -0.5917  0.0202
  158MOL0     H21786  13.404   9.369   5.559 -0.6219  2.0537  0.5476
  158MOL0     H21787  13.325   9.332   5.763 -0.5919  0.3916  1.4612
  158MOL0     H21788  11.820   9.146   7.064 -2.3100 -1.1423 -1.7715
  158MOL0     H21789  11.719   9.156   7.301 -0.5486 -0.5471 -0.1536
  158MOL0     H21790  11.204   9.397   7.480  0.7057 -2.1474 -0.3935
  158MOL0     H21791  11.105   9.450   7.686 -0.7505 -4.1387 -1.2654
  158MOL0     H21792  11.266   9.332   8.075  0.2741 -0.5440 -1.3049
  158MOL0     H21793  11.357   9.484   8.084 -1.4088  1.9884  1.7526
  158MOL0     H21794  11.176   9.462   8.274  0.2412  0.1398 -0.1656
  158MOL0     H21795  11.064   9.450   8.136  0.3581 -0.5165  0.5924
  158MOL0     H21796  11.239   9.687   8.229  1.6679 -1.0940 -2.7092
  158MOL0     H21797  11.131   9.697   8.092  1.2366  2.8888  0.8208
  158MOL0     H21798  11.057   9.791   8.316 -3.3762  1.4943  1.0509
  158MOL0     H21799  11.018   9.628   8.364  1.9088 -2.6342 -0.9096
  158MOL0     H21800  10.722   9.722   8.082  1.0665  2.1549  0.8945
  158MOL0     H21801  11.481   9.438   7.891  0.3580  0.6862 -1.3022
  158MOL0     H21802  11.669   9.398   7.791  1.1235  0.5028 -0.3352
  158MOL0     H21803  11.680   9.326   7.622  1.8020  1.4543 -1.1515
  158MOL0     H21804  11.670   9.503   7.651  0.4517  0.4435  1.8536
  159MOL0     O21805   7.199   2.348   9.878 -0.0451  0.3729 -0.5607
  159MOL0     C21806   7.235   2.333   9.995  0.4776 -0.0859  0.0591
  159MOL0     O21807   7.145   2.323  10.096  0.0917  0.0499  0.2708
  159MOL0     C21808   7.014   2.340  10.066  0.9750 -0.6991  0.2127
  159MOL0     C21809   6.931   2.230  10.092  0.5112 -0.6318 -0.1951
  159MOL0     C21810   6.801   2.221  10.047  0.2325 -0.9028  0.2763
  159MOL0     C21811   6.744   2.333   9.979  0.5836 -0.2513 -0.2946
  159MOL0     O21812   6.621   2.353   9.929  0.3123  0.1389  0.2726
  159MOL0     C21813   6.540   2.234   9.910  0.4990 -0.1659  0.2398
  159MOL0     C21814   6.412   2.279   9.839 -0.2952 -0.0783  0.5792
  159MOL0     C21815   6.446   2.352   9.707  0.2931  0.3097  0.3354
  159MOL0     C21816   6.319   2.396   9.633  0.0993 -0.3984  1.1001
  159MOL0     C21817   6.351   2.467   9.506  0.2197 -0.4338  0.2820
  159MOL0     C21818   6.399   2.618   9.510 -0.4090 -0.4387  0.1927
  159MOL0     C21819   6.387   2.693   9.375  0.2891 -0.1538 -0.1277
  159MOL0     C21820   6.475   2.634   9.260  0.3980 -0.2744 -0.2463
  159MOL0     N21821   6.621   2.644   9.296 -0.1288  0.4698  0.2658
  159MOL0     C21822   6.697   2.753   9.334  0.5238  0.2207 -0.0750
  159MOL0     C21823   6.824   2.704   9.338 -0.3742  0.4880  0.4715
  159MOL0     C21824   6.943   2.782   9.384  0.3915 -0.5525  0.6910
  159MOL0     C21825   7.038   2.711   9.475 -0.0241 -0.2695  0.0477
  159MOL0     C21826   7.118   2.593   9.424 -0.2601  0.6686  0.0478
  159MOL0     C21827   7.214   2.515   9.522  0.1490 -0.5634  0.5697
  159MOL0     O21828   7.304   2.615   9.586  0.2215 -0.3255  0.2053
  159MOL0     C21829   7.424   2.663   9.531  0.6263  0.1073 -0.7598
  159MOL0     C21830   7.478   2.629   9.404  0.1479  0.0170  0.6439
  159MOL0     C21831   7.586   2.699   9.343  0.4234  0.2717 -0.7309
  159MOL0     C21832   7.622   2.680   9.200 -0.1729 -0.4147 -1.0199
  159MOL0     C21833   7.655   2.796   9.433  0.2018 -0.1496  0.1136
  159MOL0     C21834   7.777   2.881   9.392 -0.0106  0.0273  0.8120
  159MOL0     O21835   7.827   2.971   9.475 -0.6434  0.1040 -0.2830
  159MOL0     C21836   7.947   3.038   9.438 -0.9818  0.0586  0.4915
  159MOL0     C21837   8.071   2.986   9.455  0.0277  0.1412  0.7821
  159MOL0     C21838   8.190   3.056   9.421 -0.3084  0.9893  0.7788
  159MOL0     C21839   8.191   3.183   9.377 -0.1303 -0.1965 -1.0945
  159MOL0     O21840   8.299   3.260   9.369 -0.0301 -0.6889  0.2130
  159MOL0     C21841   8.418   3.234   9.449  0.0787 -0.5581  0.8520
  159MOL0     C21842   8.494   3.359   9.443 -0.3846  0.2977 -0.9553
  159MOL0     C21843   8.526   3.406   9.297 -0.6644 -0.7413 -0.3147
  159MOL0     C21844   8.629   3.519   9.298  0.5699 -0.2629  0.5114
  159MOL0     C21845   8.771   3.461   9.309 -0.7784  0.5705  0.4651
  159MOL0     C21846   8.882   3.565   9.292  0.5712 -0.1897  0.7390
  159MOL0     C21847   9.026   3.516   9.314  0.1188  1.0515 -0.1953
  159MOL0     C21848   9.070   3.543   9.451  0.4998 -0.0300 -0.3875
  159MOL0    Cl21849   8.982   3.441   9.575 -0.1949 -0.6985 -0.0360
  159MOL0     C21850   8.065   3.244   9.377 -0.2554 -0.2211  0.9545
  159MOL0     C21851   7.946   3.176   9.398  0.3299  0.3016 -0.5982
  159MOL0     O21852   7.827   2.850   9.283 -0.5734 -0.3721 -0.5867
  159MOL0     C21853   7.604   2.815   9.557  0.5156 -0.5614 -0.2130
  159MOL0     C21854   7.488   2.753   9.606  0.5265 -0.5313  0.3338
  159MOL0     N21855   6.823   2.569   9.311  0.1378  0.2136 -0.2447
  159MOL0     N21856   6.705   2.539   9.280  0.0668 -0.6768  0.0662
  159MOL0     C21857   6.824   2.450   9.975  0.2189 -0.8454 -1.2977
  159MOL0     C21858   6.961   2.451  10.018  0.1643  0.9577 -0.0384
  159MOL0     C21859   7.385   2.344  10.007  0.4208  0.3125  0.1123
  159MOL0     C21860   7.461   2.401   9.895  0.3537 -0.2508 -0.5103
  159MOL0     C21861   7.603   2.406   9.912  0.3744 -0.2373  0.0796
  159MOL0     C21862   7.675   2.346  10.018 -0.1701 -1.1764  0.4651
  159MOL0     O21863   7.811   2.336  10.007  0.0005  0.4501  0.5243
  159MOL0     C21864   7.882   2.273  10.111 -0.2105 -0.4591 -0.6049
  159MOL0     C21865   7.929   2.377  10.216  0.4071 -0.6131  1.1745
  159MOL0     C21866   8.012   2.310  10.328 -0.2069  0.4975  0.0151
  159MOL0     C21867   7.921   2.233  10.432  0.4994  0.5449  0.3641
  159MOL0     C21868   7.819   2.311  10.502  0.0208 -0.6014  0.3000
  159MOL0     C21869   7.764   2.370  10.591  0.7001 -0.4970 -0.5504
  159MOL0     C21870   7.593   2.308  10.126 -0.3457 -0.2086 -0.6032
  159MOL0     C21871   7.459   2.310  10.119  1.0875  0.7837  0.3518
  159MOL0     C21872   7.388   2.255  10.243 -0.4619  0.5046 -0.1279
  159MOL0     H21873   6.962   2.142  10.150 -3.7668 -1.8787  0.5257
  159MOL0     H21874   6.747   2.127  10.056  3.4726 -3.2333 -2.2772
  159MOL0     H21875   6.510   2.177   9.998  0.5267  1.2464  1.2081
  159MOL0     H21876   6.593   2.173   9.836  0.5272  0.2852 -0.1233
  159MOL0     H21877   6.346   2.195   9.815  0.4183 -0.1147 -1.4463
  159MOL0     H21878   6.354   2.338   9.910  1.4776  1.5585  0.7596
  159MOL0     H21879   6.524   2.428   9.722  0.4586 -0.2411  2.6314
  159MOL0     H21880   6.494   2.276   9.645  0.7599 -0.8648  2.0542
  159MOL0     H21881   6.245   2.318   9.617 -2.6110  1.8267  2.0039
  159MOL0     H21882   6.273   2.474   9.694  2.2124  2.5157 -0.7235
  159MOL0     H21883   6.260   2.467   9.446 -0.1361  1.6931  0.7421
  159MOL0     H21884   6.435   2.418   9.457  0.3479  0.0553  0.0108
  159MOL0     H21885   6.344   2.676   9.585  0.4455 -0.0564  0.5259
  159MOL0     H21886   6.499   2.620   9.554 -0.1626 -2.0163 -0.2155
  159MOL0     H21887   6.387   2.802   9.381 -4.9921  0.2583 -2.1245
  159MOL0     H21888   6.281   2.680   9.353 -0.4421  2.3766  1.5276
  159MOL0     H21889   6.438   2.531   9.253 -4.3755  0.9557  2.1729
  159MOL0     H21890   6.468   2.695   9.170  0.4107  3.6722  2.1999
  159MOL0     H21891   6.669   2.856   9.350 -1.1265 -0.4495  1.7834
  159MOL0     H21892   6.899   2.872   9.428 -1.6797 -0.3440 -1.5730
  159MOL0     H21893   7.001   2.824   9.301  1.0188  0.3440  1.5547
  159MOL0     H21894   7.107   2.792   9.504  1.1862 -1.2004 -0.1584
  159MOL0     H21895   6.981   2.668   9.557 -0.1457 -3.3125 -1.5101
  159MOL0     H21896   7.055   2.511   9.389  2.0301 -1.3659  0.4191
  159MOL0     H21897   7.170   2.627   9.334 -0.8785  0.8130 -0.2633
  159MOL0     H21898   7.152   2.458   9.592 -1.9765  1.4174  0.3867
  159MOL0     H21899   7.282   2.448   9.468 -0.5703 -0.2898 -0.7095
  159MOL0     H21900   7.422   2.565   9.337  1.8499  1.1768 -2.0924
  159MOL0     H21901   7.561   2.602   9.152 -0.5124 -1.5742  1.1693
  159MOL0     H21902   7.723   2.644   9.180  1.4641  3.3254 -0.2152
  159MOL0     H21903   7.593   2.771   9.146 -1.6343 -0.2209  0.0236
  159MOL0     H21904   8.084   2.880   9.476 -2.0694 -0.2888  0.0923
  159MOL0     H21905   8.279   2.994   9.430 -1.0529 -0.3509 -0.5097
  159MOL0     H21906   8.399   3.222   9.556  0.1024 -1.0115  0.8042
  159MOL0     H21907   8.471   3.154   9.398  1.1009  0.3589  0.4396
  159MOL0     H21908   8.459   3.439   9.508 -0.0666 -1.9656  2.2699
  159MOL0     H21909   8.593   3.328   9.480 -1.1041  1.5965  2.3079
  159MOL0     H21910   8.435   3.456   9.261 -1.6688 -0.7160  2.0211
  159MOL0     H21911   8.557   3.330   9.226 -0.0712  0.1947 -1.0835
  159MOL0     H21912   8.602   3.590   9.376 -1.1516  0.4921 -0.7042
  159MOL0     H21913   8.630   3.562   9.197  1.4028  0.0291  0.6377
  159MOL0     H21914   8.774   3.423   9.411 -0.4585  0.9830  0.6129
  159MOL0     H21915   8.798   3.383   9.238  1.3094  1.3203  0.3471
  159MOL0     H21916   8.863   3.654   9.353  0.3080  1.1497 -1.2209
  159MOL0     H21917   8.870   3.602   9.190 -0.8054  1.8606  1.5588
  159MOL0     H21918   9.095   3.573   9.251  1.1392  2.3881  2.0299
  159MOL0     H21919   9.031   3.408   9.298  1.4572  1.2257 -1.1425
  159MOL0     H21920   9.058   3.649   9.478  0.5134 -0.0318 -0.3737
  159MOL0     H21921   9.178   3.526   9.460  0.9909  1.1522 -3.1150
  159MOL0     H21922   8.070   3.345   9.337 -1.4163 -0.6196 -0.2835
  159MOL0     H21923   7.845   3.206   9.371  0.5016 -1.5288 -3.8714
  159MOL0     H21924   7.653   2.879   9.629 -0.4765 -0.4625  0.3920
  159MOL0     H21925   7.433   2.771   9.698  1.3012  0.0986  0.6819
  159MOL0     H21926   6.771   2.536   9.936  0.1668 -1.3380 -2.3606
  159MOL0     H21927   7.024   2.538  10.002 -0.3665  1.2374 -0.6762
  159MOL0     H21928   7.397   2.447   9.821 -1.5648 -1.4153  0.3669
  159MOL0     H21929   7.667   2.460   9.842  0.0620  1.8117  1.2648
  159MOL0     H21930   7.827   2.192  10.159 -0.4710 -0.9987 -1.7537
  159MOL0     H21931   7.975   2.236  10.065 -0.8014 -0.8809 -1.4898
  159MOL0     H21932   7.841   2.427  10.258 -0.0644  0.3351 -0.8337
  159MOL0     H21933   7.993   2.444  10.159 -1.6120 -3.4974 -5.5379
  159MOL0     H21934   8.078   2.235  10.283 -2.8275 -1.5671 -0.6819
  159MOL0     H21935   8.068   2.380  10.390 -2.7302  2.0395  0.7314
  159MOL0     H21936   7.986   2.190  10.509  0.6603  1.1304  0.5599
  159MOL0     H21937   7.875   2.151  10.376 -0.4389  1.5306 -0.3453
  159MOL0     H21938   7.710   2.422  10.666  1.2784 -3.8255  2.4687
  159MOL0     H21939   7.641   2.262  10.212 -0.8252 -3.8865 -2.1050
  159MOL0     H21940   7.321   2.175  10.210 -0.4610  0.4387  0.0268
  159MOL0     H21941   7.450   2.205  10.319 -1.2288 -3.3889 -1.8098
  159MOL0     H21942   7.328   2.323  10.304  0.6937 -0.7485  2.5995
  160MOL0     O21943  11.190   5.799   7.341 -0.1841  0.1283 -0.5065
  160MOL0     C21944  11.074   5.834   7.358  0.5039  0.3326 -0.1083
  160MOL0     O21945  10.998   5.898   7.270 -0.5566 -0.8201  0.1845
  160MOL0     C21946  11.042   5.947   7.146 -0.1678 -0.4509 -0.4338
  160MOL0     C21947  10.986   6.066   7.094 -0.1301 -0.4049 -0.4271
  160MOL0     C21948  11.027   6.116   6.968 -0.4004 -0.3991 -0.6319
  160MOL0     C21949  11.121   6.053   6.891 -0.3013 -0.4777 -0.4131
  160MOL0     O21950  11.165   6.114   6.777 -0.2186  0.3609 -0.1897
  160MOL0     C21951  11.311   6.110   6.761 -0.3064  0.2578  0.7426
  160MOL0     C21952  11.340   6.231   6.665 -0.6006 -0.4526  0.2082
  160MOL0     C21953  11.486   6.266   6.661 -0.4311 -0.8457 -0.1599
  160MOL0     C21954  11.505   6.395   6.584 -1.0661  0.0374 -0.1769
  160MOL0     C21955  11.518   6.377   6.432  0.1829  0.7454  0.8134
  160MOL0     C21956  11.489   6.513   6.375  0.0032  0.3260  0.0380
  160MOL0     C21957  11.484   6.517   6.221 -0.7573 -0.3851 -0.1022
  160MOL0     C21958  11.629   6.520   6.169  0.1307 -0.2557  0.9207
  160MOL0     N21959  11.656   6.651   6.102  0.6976  0.6248  0.0709
  160MOL0     C21960  11.712   6.763   6.159 -0.1145 -0.0244 -0.6117
  160MOL0     C21961  11.673   6.865   6.082 -0.2251  0.1905 -0.2547
  160MOL0     C21962  11.699   7.008   6.103 -0.8657 -0.1167 -0.5691
  160MOL0     C21963  11.802   7.044   5.990 -0.4686  0.7251 -0.1628
  160MOL0     C21964  11.818   7.193   5.971 -0.5258  0.2773  0.4347
  160MOL0     C21965  11.923   7.212   5.863 -0.0967  0.0444  0.1745
  160MOL0     O21966  12.050   7.153   5.913 -0.4566  0.1220 -0.3675
  160MOL0     C21967  12.156   7.146   5.829  0.5966  0.3957  0.6921
  160MOL0     C21968  12.146   7.150   5.689  0.3590  0.3648 -0.3023
  160MOL0     C21969  12.259   7.149   5.606  0.5482 -0.3693 -0.2270
  160MOL0     C21970  12.236   7.149   5.455 -0.2046  0.2970  0.9262
  160MOL0     C21971  12.383   7.132   5.674 -0.6436  0.8319  0.0781
  160MOL0     C21972  12.517   7.110   5.598 -0.1368 -0.7057  0.5538
  160MOL0     O21973  12.622   7.144   5.669  0.5198  0.0632  0.3593
  160MOL0     C21974  12.750   7.146   5.621 -0.7041  0.9613 -0.1734
  160MOL0     C21975  12.849   7.096   5.702 -0.0304 -1.1256 -0.7598
  160MOL0     C21976  12.982   7.099   5.661  0.0520 -0.3918  0.6887
  160MOL0     C21977  13.015   7.141   5.532 -0.2966 -0.8815  0.6069
  160MOL0     O21978  13.148   7.126   5.505 -0.3115  0.1281  0.1726
  160MOL0     C21979  13.209   7.177   5.389  0.4840 -0.1093  0.5594
  160MOL0     C21980  13.219   7.332   5.415 -0.4736 -0.6327 -0.7551
  160MOL0     C21981  13.294   7.398   5.300 -1.0683 -0.4024 -0.3749
  160MOL0     C21982  13.446   7.381   5.286  0.3361 -0.3059 -0.5581
  160MOL0     C21983  13.516   7.448   5.167  0.3060 -0.2115  0.8280
  160MOL0     C21984  13.666   7.410   5.154 -0.0593  0.0626  1.0630
  160MOL0     C21985  13.740   7.464   5.034 -0.2898  0.1634  0.1256
  160MOL0     C21986  13.891   7.450   5.057 -0.1842  0.3603  0.8486
  160MOL0    Cl21987  13.977   7.474   4.901 -0.1683  0.3916 -0.0674
  160MOL0     C21988  12.917   7.183   5.449  0.1724 -0.6998 -0.0244
  160MOL0     C21989  12.784   7.192   5.498  1.3583 -0.1625 -0.4214
  160MOL0     O21990  12.512   7.066   5.487  0.6470  0.4513 -0.6679
  160MOL0     C21991  12.387   7.125   5.814  0.8355 -0.1247 -0.1590
  160MOL0     C21992  12.277   7.124   5.887  0.1933 -0.4039  0.4102
  160MOL0     N21993  11.588   6.815   5.985  0.1022  0.3937  0.3877
  160MOL0     N21994  11.599   6.683   5.986  0.1223 -0.8213  0.1354
  160MOL0     C21995  11.170   5.931   6.941 -0.2273 -0.4428 -1.2193
  160MOL0     C21996  11.135   5.879   7.068 -0.6561 -0.3545  0.5089
  160MOL0     C21997  11.009   5.799   7.489  0.5893  0.1027 -0.3440
  160MOL0     C21998  11.079   5.725   7.582  0.8281  0.1166  0.4122
  160MOL0     C21999  11.027   5.673   7.703  0.3516  1.1026 -0.7199
  160MOL0     C22000  10.908   5.720   7.754 -0.3667  0.0871  0.7173
  160MOL0     O22001  10.874   5.676   7.879  0.7790 -0.1211 -0.5390
  160MOL0     C22002  10.743   5.708   7.937 -0.7931 -0.8727 -0.3422
  160MOL0     C22003  10.648   5.601   7.937  0.3205 -0.2600  0.4990
  160MOL0     C22004  10.612   5.563   7.795  0.3723 -0.6121 -0.3195
  160MOL0     C22005  10.497   5.458   7.791 -0.7920  0.3452 -0.4306
  160MOL0     C22006  10.359   5.510   7.816  0.0922 -0.8003 -1.1759
  160MOL0     C22007  10.256   5.572   7.844  0.0645 -0.4648 -0.5461
  160MOL0     C22008  10.836   5.806   7.660  0.7304  0.6821  0.1619
  160MOL0     C22009  10.875   5.828   7.527 -0.5335  0.2294  0.6160
  160MOL0     C22010  10.775   5.912   7.450  0.2432 -0.2318 -0.5906
  160MOL0     H22011  10.915   6.116   7.159 -0.4322 -2.8620  1.2699
  160MOL0     H22012  10.988   6.201   6.914  0.9103  0.3934 -0.3789
  160MOL0     H22013  11.335   6.017   6.709  0.3907 -0.2210  1.8809
  160MOL0     H22014  11.374   6.115   6.850  2.7060 -1.3695 -1.1139
  160MOL0     H22015  11.309   6.201   6.565 -1.0477 -0.1914  0.2682
  160MOL0     H22016  11.292   6.319   6.709 -3.8610 -0.8653 -2.1258
  160MOL0     H22017  11.529   6.277   6.761 -0.5591  0.6821 -0.2578
  160MOL0     H22018  11.542   6.186   6.612  0.0300 -0.5969 -0.0499
  160MOL0     H22019  11.409   6.446   6.595  0.5351  3.4623 -0.8106
  160MOL0     H22020  11.582   6.459   6.628 -2.9419  1.6256  0.9743
  160MOL0     H22021  11.447   6.302   6.396  1.3731  0.1970 -0.5256
  160MOL0     H22022  11.612   6.337   6.392 -2.6148 -2.2586 -3.7770
  160MOL0     H22023  11.396   6.559   6.407 -1.5425  0.1218 -3.6118
  160MOL0     H22024  11.574   6.570   6.414 -0.7007  0.1233  1.9536
  160MOL0     H22025  11.426   6.605   6.194  0.4568  0.3248 -0.4732
  160MOL0     H22026  11.421   6.437   6.181  0.6934 -1.5082 -0.2449
  160MOL0     H22027  11.703   6.515   6.250  1.1602  2.3916  0.2618
  160MOL0     H22028  11.643   6.438   6.098  3.9423 -0.2446  1.4354
  160MOL0     H22029  11.741   6.767   6.264  0.4151  2.8785 -0.7668
  160MOL0     H22030  11.735   7.026   6.205 -1.3305  0.0413 -0.4309
  160MOL0     H22031  11.611   7.069   6.082  0.0307  1.5282  0.2258
  160MOL0     H22032  11.896   6.993   6.016 -0.5628  0.1326 -0.9466
  160MOL0     H22033  11.766   7.001   5.896 -1.3831  1.8720 -0.3559
  160MOL0     H22034  11.725   7.226   5.925  1.2352  1.4178 -2.5937
  160MOL0     H22035  11.838   7.235   6.070 -0.3182  1.8421 -0.2575
  160MOL0     H22036  11.877   7.170   5.772 -1.3668 -2.9785  2.0499
  160MOL0     H22037  11.946   7.316   5.840 -0.7929 -0.3297 -2.6665
  160MOL0     H22038  12.049   7.167   5.643  0.1284  1.2332  0.4587
  160MOL0     H22039  12.273   7.059   5.404 -2.2376  0.0991 -0.2988
  160MOL0     H22040  12.292   7.229   5.406  1.4901 -1.7076 -0.6432
  160MOL0     H22041  12.129   7.150   5.435 -0.6785 -1.2534  2.9639
  160MOL0     H22042  12.821   7.070   5.804 -0.4218  1.4438 -0.1388
  160MOL0     H22043  13.065   7.060   5.720  1.2768  0.3871 -0.4593
  160MOL0     H22044  13.311   7.137   5.383 -0.2079 -2.0488  1.2058
  160MOL0     H22045  13.152   7.138   5.305  0.3813 -0.8335  0.9625
  160MOL0     H22046  13.117   7.370   5.419 -0.5344 -0.7141 -1.3464
  160MOL0     H22047  13.270   7.354   5.509 -1.3618 -0.9600 -0.1946
  160MOL0     H22048  13.255   7.500   5.300 -0.1796 -0.0567 -0.4540
  160MOL0     H22049  13.254   7.356   5.207  0.7471 -1.8465 -0.5766
  160MOL0     H22050  13.470   7.275   5.286 -2.8210 -1.1546  0.8067
  160MOL0     H22051  13.488   7.421   5.378  0.1814 -0.9936 -0.1877
  160MOL0     H22052  13.476   7.424   5.068  1.4014 -1.1033  0.5774
  160MOL0     H22053  13.515   7.557   5.175  2.6188 -0.1927  1.6854
  160MOL0     H22054  13.694   7.304   5.149  1.4075  0.4458 -2.8731
  160MOL0     H22055  13.695   7.456   5.249 -3.2621  2.0392  1.2336
  160MOL0     H22056  13.721   7.572   5.031  0.4868  0.3215  0.5614
  160MOL0     H22057  13.707   7.409   4.946 -0.5619  2.6577 -1.4147
  160MOL0     H22058  13.916   7.346   5.083  0.5100  0.3330  0.1374
  160MOL0     H22059  13.940   7.515   5.130  0.0116 -0.6813  1.6688
  160MOL0     H22060  12.939   7.222   5.350  1.5804 -1.1621  0.0812
  160MOL0     H22061  12.704   7.225   5.432  1.7808 -1.2649 -1.5244
  160MOL0     H22062  12.481   7.113   5.868  2.2276 -0.5367 -2.5082
  160MOL0     H22063  12.269   7.106   5.994  1.0988 -0.0705  0.5449
  160MOL0     H22064  11.240   5.866   6.890 -1.5185 -2.8938 -0.0352
  160MOL0     H22065  11.168   5.778   7.089  0.3015 -0.8922 -2.9063
  160MOL0     H22066  11.185   5.709   7.565  0.6829 -2.3082  1.3810
  160MOL0     H22067  11.080   5.604   7.767 -2.6903  0.2251  1.0299
  160MOL0     H22068  10.758   5.729   8.043 -1.2636  0.2067 -0.4779
  160MOL0     H22069  10.696   5.796   7.891 -0.9039 -0.4904  0.5004
  160MOL0     H22070  10.562   5.616   8.003  0.8078 -0.3188  1.1545
  160MOL0     H22071  10.698   5.510   7.972 -0.0094 -0.2165  1.0864
  160MOL0     H22072  10.577   5.647   7.734 -0.2423 -0.0183  0.8176
  160MOL0     H22073  10.708   5.526   7.757  1.9505  1.7067  1.1520
  160MOL0     H22074  10.519   5.375   7.859 -1.5927 -0.1777 -0.7965
  160MOL0     H22075  10.506   5.410   7.693 -0.3327 -0.4669 -0.0024
  160MOL0     H22076  10.170   5.631   7.870 -0.0108 -2.2467  4.2531
  160MOL0     H22077  10.738   5.838   7.692 -1.3676 -1.4016 -3.4936
  160MOL0     H22078  10.770   5.861   7.354  2.2342  1.5950 -1.7401
  160MOL0     H22079  10.676   5.922   7.497 -0.0974  0.0085 -1.3396
  160MOL0     H22080  10.811   6.015   7.445 -0.4307  0.0629  0.3518
  161MOL0     O22081   9.608   5.228   3.073 -0.4721  0.1202 -0.0789
  161MOL0     C22082   9.576   5.137   3.007  0.2789 -0.1723 -0.4960
  161MOL0     O22083   9.609   5.009   3.038  1.0547 -0.7682  0.0709
  161MOL0     C22084   9.692   4.979   3.146 -0.9562  0.4172  0.2801
  161MOL0     C22085   9.788   5.057   3.203  0.6502  0.3131  0.2176
  161MOL0     C22086   9.867   5.010   3.308 -0.2658  0.0818  0.3085
  161MOL0     C22087   9.847   4.879   3.365  0.2973 -0.5450  0.2247
  161MOL0     O22088   9.941   4.819   3.442 -0.6230  0.3265 -0.2621
  161MOL0     C22089  10.082   4.813   3.400 -0.3769 -0.7087  0.1724
  161MOL0     C22090  10.150   4.722   3.503 -0.4663 -0.1942 -1.1305
  161MOL0     C22091  10.300   4.698   3.475 -0.2026 -0.3308  0.3203
  161MOL0     C22092  10.392   4.808   3.542 -0.0197  0.6220  0.5706
  161MOL0     C22093  10.542   4.751   3.540  0.3539  0.9318 -0.3951
  161MOL0     C22094  10.554   4.650   3.663 -0.4041 -1.1767  0.8181
  161MOL0     C22095  10.693   4.580   3.655 -0.1969  0.1141  0.2599
  161MOL0     C22096  10.712   4.471   3.754  0.7384  0.1324 -0.2235
  161MOL0     N22097  10.819   4.381   3.729 -0.4412  0.5963  0.0348
  161MOL0     C22098  10.947   4.399   3.764  0.0794  0.0430  0.1823
  161MOL0     C22099  11.015   4.284   3.734  0.1179  0.1395 -0.2915
  161MOL0     C22100  11.141   4.230   3.779 -1.0771  0.4462  0.3776
  161MOL0     C22101  11.209   4.325   3.876  0.6596 -0.0125  0.2285
  161MOL0     C22102  11.357   4.287   3.904 -0.0496  0.7759 -0.4323
  161MOL0     C22103  11.454   4.305   3.784 -0.6132  0.0347  0.9970
  161MOL0     O22104  11.578   4.257   3.839 -0.2552 -0.0097 -0.3196
  161MOL0     C22105  11.682   4.212   3.762  0.4833 -0.7296  0.7205
  161MOL0     C22106  11.803   4.175   3.818 -0.3362 -0.3563 -0.3656
  161MOL0     C22107  11.918   4.131   3.745 -0.7769 -0.8351  0.3692
  161MOL0     C22108  12.042   4.105   3.828  0.2732  0.4421  0.0508
  161MOL0     C22109  11.917   4.137   3.602 -0.3349 -0.6115  0.1925
  161MOL0     C22110  12.027   4.086   3.507  0.2869 -0.0677  0.8660
  161MOL0     O22111  12.144   4.053   3.562 -0.0221 -0.1444 -0.9930
  161MOL0     C22112  12.255   4.006   3.486 -0.2042  0.6182 -1.4281
  161MOL0     C22113  12.284   3.870   3.484  0.6138  0.1560  0.2618
  161MOL0     C22114  12.378   3.812   3.386  0.4020  0.1318 -0.9112
  161MOL0     C22115  12.448   3.900   3.302 -0.2104  0.5943 -0.2563
  161MOL0     O22116  12.527   3.830   3.216 -0.3446 -0.2808  0.4717
  161MOL0     C22117  12.619   3.894   3.121  0.4278 -0.2559 -0.4707
  161MOL0     C22118  12.689   3.779   3.042  0.0582 -0.0863 -1.0857
  161MOL0     C22119  12.804   3.839   2.968  0.6727  0.0800  0.6478
  161MOL0     C22120  12.863   3.725   2.884  0.4454  0.4187 -0.3336
  161MOL0     C22121  12.998   3.756   2.834 -0.0683 -0.9316 -0.3834
  161MOL0     C22122  13.104   3.691   2.915  0.6510 -0.4212  0.2795
  161MOL0     C22123  13.243   3.738   2.879 -0.0272  0.1847 -0.1219
  161MOL0     C22124  13.351   3.653   2.942  0.6920 -0.4808 -1.1464
  161MOL0    Cl22125  13.337   3.480   2.889 -0.0549 -0.0406  0.0876
  161MOL0     C22126  12.397   4.037   3.300  0.1953  0.3558  0.0305
  161MOL0     C22127  12.311   4.083   3.394  0.1377 -0.4465 -0.1178
  161MOL0     O22128  11.997   4.075   3.385  0.8363 -0.2494  0.1025
  161MOL0     C22129  11.788   4.165   3.550 -0.2410 -0.6441  0.0381
  161MOL0     C22130  11.680   4.197   3.629  0.7217 -0.1618  0.2183
  161MOL0     N22131  10.928   4.204   3.668 -0.1763  0.6632  0.0754
  161MOL0     N22132  10.809   4.271   3.652 -0.3833  0.1784 -0.9581
  161MOL0     C22133   9.747   4.798   3.301  0.5672  0.0567  0.7780
  161MOL0     C22134   9.677   4.847   3.184 -0.3133  0.5693 -0.5073
  161MOL0     C22135   9.503   5.168   2.881 -1.0529  0.0857 -0.3960
  161MOL0     C22136   9.495   5.064   2.788 -0.0380  0.6901  0.7223
  161MOL0     C22137   9.422   5.080   2.672 -0.0822  0.1313 -0.3056
  161MOL0     C22138   9.375   5.202   2.640 -0.7202  0.2134  0.0768
  161MOL0     O22139   9.313   5.250   2.524  0.4658  0.0042 -0.2048
  161MOL0     C22140   9.278   5.161   2.416  0.3796  0.2396 -0.3180
  161MOL0     C22141   9.122   5.178   2.410  0.1444  0.2711  0.2711
  161MOL0     C22142   9.057   5.077   2.310 -0.2950 -1.0399 -0.0982
  161MOL0     C22143   8.910   5.069   2.315  0.0290 -0.4324 -0.0571
  161MOL0     C22144   8.867   4.966   2.216 -0.2039 -0.8570 -0.0668
  161MOL0     C22145   8.829   4.880   2.138 -0.5086  0.5227 -0.3338
  161MOL0     C22146   9.385   5.305   2.731 -0.0984 -0.2565  0.4965
  161MOL0     C22147   9.439   5.288   2.854  0.0613 -0.8544 -0.6903
  161MOL0     C22148   9.411   5.403   2.948  0.3618  0.2142  0.1902
  161MOL0     H22149   9.800   5.161   3.174  0.2849  0.3819  0.2985
  161MOL0     H22150   9.945   5.069   3.354 -0.8370 -0.3898  1.9329
  161MOL0     H22151  10.124   4.914   3.402 -1.3569 -0.0749 -3.3428
  161MOL0     H22152  10.095   4.771   3.299  2.6502  2.9746 -1.1959
  161MOL0     H22153  10.137   4.756   3.607  2.1344  1.7437 -1.3541
  161MOL0     H22154  10.097   4.627   3.494  0.3309 -0.6499 -1.0770
  161MOL0     H22155  10.317   4.599   3.517  0.9324 -0.3984 -0.2706
  161MOL0     H22156  10.326   4.694   3.369  1.2888 -0.2662  0.6607
  161MOL0     H22157  10.377   4.895   3.478  0.1272 -1.2038 -2.1066
  161MOL0     H22158  10.368   4.833   3.646 -0.9783  2.2512 -0.0149
  161MOL0     H22159  10.625   4.821   3.548 -0.0196  1.2328  1.1182
  161MOL0     H22160  10.558   4.691   3.449 -0.0067 -2.2471  1.4827
  161MOL0     H22161  10.535   4.693   3.761  0.7268 -1.0290  0.9815
  161MOL0     H22162  10.487   4.565   3.643 -1.1897 -1.0427  2.7370
  161MOL0     H22163  10.777   4.649   3.657  2.8936 -2.9196 -4.0713
  161MOL0     H22164  10.693   4.526   3.559  1.5419  3.4795 -1.7972
  161MOL0     H22165  10.725   4.523   3.850  0.0785  0.0201 -0.0628
  161MOL0     H22166  10.615   4.421   3.757  1.2350 -0.8253  1.8728
  161MOL0     H22167  10.983   4.491   3.809 -0.1002 -1.3785  3.5515
  161MOL0     H22168  11.207   4.211   3.694 -1.4601 -0.2030  0.2150
  161MOL0     H22169  11.117   4.131   3.819  1.4106 -0.9389 -1.2730
  161MOL0     H22170  11.200   4.425   3.831 -0.7902  0.4598  1.4704
  161MOL0     H22171  11.150   4.344   3.966 -3.5943 -0.6502 -2.1762
  161MOL0     H22172  11.389   4.365   3.974 -2.1186  2.1049 -0.8523
  161MOL0     H22173  11.361   4.185   3.944  2.0501  0.3594 -1.5583
  161MOL0     H22174  11.427   4.250   3.693 -0.2647  0.8506  0.3829
  161MOL0     H22175  11.456   4.414   3.768  1.4465 -0.0963 -0.0199
  161MOL0     H22176  11.818   4.195   3.923  0.0181 -0.4883 -0.3896
  161MOL0     H22177  12.097   4.017   3.794  2.1821  1.0388  1.4483
  161MOL0     H22178  12.030   4.093   3.936  0.7558 -0.2281  0.0364
  161MOL0     H22179  12.105   4.193   3.812  3.2205 -1.2767  1.3420
  161MOL0     H22180  12.236   3.793   3.544  1.2103 -1.1765 -0.9294
  161MOL0     H22181  12.383   3.704   3.394  1.7238  0.2875  1.2290
  161MOL0     H22182  12.555   3.965   3.068  0.7149  1.8451  1.7803
  161MOL0     H22183  12.698   3.943   3.179 -0.1675  1.0821 -0.7455
  161MOL0     H22184  12.725   3.703   3.111  0.0404 -0.7982 -1.8403
  161MOL0     H22185  12.618   3.724   2.979  2.1496  0.4561 -4.1149
  161MOL0     H22186  12.881   3.879   3.034 -1.3023  2.1330  1.8577
  161MOL0     H22187  12.764   3.919   2.905  1.7566 -0.0701 -0.2686
  161MOL0     H22188  12.798   3.703   2.799 -1.4895 -1.3559  1.5183
  161MOL0     H22189  12.871   3.635   2.946 -2.4698  0.6354  0.5063
  161MOL0     H22190  13.000   3.713   2.733 -2.0503 -1.1327 -0.3786
  161MOL0     H22191  13.021   3.863   2.830  1.8207 -1.2050  1.3828
  161MOL0     H22192  13.090   3.584   2.898 -3.4570 -0.0665  0.4453
  161MOL0     H22193  13.079   3.723   3.016  0.4545 -0.6502  0.3058
  161MOL0     H22194  13.253   3.833   2.932 -3.3488 -1.0439  3.1448
  161MOL0     H22195  13.249   3.740   2.770  0.4628 -0.1590 -0.1026
  161MOL0     H22196  13.354   3.659   3.051  0.3606  0.0483 -1.1652
  161MOL0     H22197  13.451   3.692   2.921  1.5104 -1.1794  1.1156
  161MOL0     H22198  12.425   4.108   3.223 -1.6532  3.3112  1.9034
  161MOL0     H22199  12.267   4.182   3.396  1.0247 -0.0089 -1.3170
  161MOL0     H22200  11.766   4.161   3.443  0.5827  6.1468 -0.8106
  161MOL0     H22201  11.593   4.218   3.567  0.7051 -1.6244 -0.3136
  161MOL0     H22202   9.716   4.701   3.338 -0.3424 -0.0426 -0.1714
  161MOL0     H22203   9.615   4.783   3.124  0.8336 -0.8496 -0.2307
  161MOL0     H22204   9.556   4.974   2.799 -0.0766  0.8007  1.9965
  161MOL0     H22205   9.416   4.997   2.602 -0.1196  1.1587 -1.5628
  161MOL0     H22206   9.337   5.194   2.330  3.9966  0.2653  1.9561
  161MOL0     H22207   9.306   5.057   2.441 -0.7919  0.3004  1.4325
  161MOL0     H22208   9.086   5.279   2.386 -0.1015  0.8422  2.7460
  161MOL0     H22209   9.080   5.153   2.508 -0.3833  3.3655  0.9559
  161MOL0     H22210   9.086   5.117   2.212  0.7465  0.2336  0.7026
  161MOL0     H22211   9.101   4.978   2.325 -0.4717 -0.8917  1.5954
  161MOL0     H22212   8.873   5.168   2.286  0.9040  0.3656  1.4588
  161MOL0     H22213   8.877   5.051   2.418 -0.9990  0.1696 -0.2668
  161MOL0     H22214   8.796   4.797   2.078 -0.7674 -0.4029  1.0507
  161MOL0     H22215   9.339   5.401   2.708 -1.4143 -1.3860 -1.9650
  161MOL0     H22216   9.505   5.451   2.976 -0.2483  1.9405 -0.6020
  161MOL0     H22217   9.346   5.484   2.915  3.6353  2.6860 -0.7873
  161MOL0     H22218   9.375   5.354   3.039  2.4047 -3.4940 -0.7560
  162MOL0     O22219   2.918  11.311   6.430 -0.0285  0.6476  0.5062
  162MOL0     C22220   3.013  11.335   6.504 -0.2346  0.0614  0.5493
  162MOL0     O22221   3.107  11.423   6.474  0.0415 -0.5276  0.3960
  162MOL0     C22222   3.118  11.476   6.348 -0.5806 -0.0596 -0.5786
  162MOL0     C22223   3.094  11.615   6.328 -1.2537  0.1710 -0.6828
  162MOL0     C22224   3.114  11.675   6.206  0.5379  0.3912 -0.2700
  162MOL0     C22225   3.157  11.609   6.095 -0.1950  0.3643 -0.7242
  162MOL0     O22226   3.166  11.677   5.974  0.0281 -0.1500  0.6518
  162MOL0     C22227   3.268  11.655   5.879 -0.1015 -0.1038  1.0511
  162MOL0     C22228   3.248  11.707   5.733 -0.2522 -0.0132  0.1740
  162MOL0     C22229   3.117  11.651   5.680 -0.3187  0.6246 -0.7202
  162MOL0     C22230   3.148  11.527   5.598 -0.3159  0.1582 -0.3455
  162MOL0     C22231   3.014  11.481   5.539  0.3246  0.1575  0.2010
  162MOL0     C22232   3.032  11.374   5.428  0.0257 -0.1464 -1.2023
  162MOL0     C22233   3.026  11.228   5.461 -0.2382 -0.0573 -0.3054
  162MOL0     C22234   3.038  11.138   5.335 -0.0837  0.1244  0.5797
  162MOL0     N22235   3.008  11.002   5.379 -0.4604 -0.4057 -0.7982
  162MOL0     C22236   2.889  10.934   5.378  0.0576 -0.0661  0.1123
  162MOL0     C22237   2.910  10.825   5.451 -0.0182 -0.5175  0.0779
  162MOL0     C22238   2.816  10.708   5.453  0.1330 -0.1163 -1.3159
  162MOL0     C22239   2.721  10.721   5.578 -0.7954  0.2517  0.3123
  162MOL0     C22240   2.790  10.699   5.718 -0.3298  0.1006  0.4219
  162MOL0     C22241   2.843  10.550   5.737 -0.3130 -0.0567 -0.3910
  162MOL0     O22242   2.757  10.444   5.724 -0.3340 -0.2112 -0.4594
  162MOL0     C22243   2.671  10.409   5.827 -0.9116 -0.0235 -0.2645
  162MOL0     C22244   2.661  10.473   5.949  0.8092 -0.2490 -0.4329
  162MOL0     C22245   2.577  10.426   6.051  0.2267  0.2746 -0.3160
  162MOL0     C22246   2.564  10.508   6.187 -0.3502 -0.2921  0.0374
  162MOL0     C22247   2.501  10.306   6.023 -0.4513  0.4067 -0.5913
  162MOL0     C22248   2.392  10.251   6.111 -0.2321 -0.3512 -0.4572
  162MOL0     O22249   2.351  10.127   6.080 -0.6582 -0.1474  1.1678
  162MOL0     C22250   2.249  10.068   6.142 -0.2230 -0.7235  0.3647
  162MOL0     C22251   2.256   9.986   6.254  0.5691 -0.4645  0.1338
  162MOL0     C22252   2.151   9.913   6.307  0.9405  0.0061 -0.2716
  162MOL0     C22253   2.026   9.928   6.243  1.0276  0.1170  0.0436
  162MOL0     O22254   1.918   9.852   6.281 -0.9641  0.0430  0.5321
  162MOL0     C22255   1.844   9.898   6.394 -0.7312 -0.7900 -0.3845
  162MOL0     C22256   1.743   9.794   6.438 -0.7017  0.3529  0.3321
  162MOL0     C22257   1.617   9.848   6.500  0.8989  0.7190  1.0939
  162MOL0     C22258   1.521   9.736   6.562 -0.4915  0.4904  0.3299
  162MOL0     C22259   1.470   9.628   6.457 -0.6272  0.0651  0.0168
  162MOL0     C22260   1.373   9.531   6.514  0.2160 -0.7905  0.4675
  162MOL0     C22261   1.242   9.601   6.568 -0.8286 -0.1721 -0.9366
  162MOL0     C22262   1.166   9.675   6.454 -0.7640 -0.1350 -0.4147
  162MOL0    Cl22263   1.161   9.574   6.305 -0.1046  0.6826 -0.1627
  162MOL0     C22264   2.016  10.006   6.125 -0.9022 -0.0561  0.3818
  162MOL0     C22265   2.127  10.081   6.084  0.4303  1.4487 -0.3827
  162MOL0     O22266   2.356  10.308   6.212 -0.1479 -0.1585 -0.3856
  162MOL0     C22267   2.515  10.252   5.901  0.8010 -0.2673  0.0128
  162MOL0     C22268   2.610  10.292   5.809  0.0761 -0.5752 -0.2627
  162MOL0     N22269   3.042  10.818   5.486  0.0528  0.0532  0.2829
  162MOL0     N22270   3.095  10.919   5.440 -0.0158 -0.1512  0.0044
  162MOL0     C22271   3.185  11.468   6.114  0.1113 -0.3038 -0.1462
  162MOL0     C22272   3.157  11.398   6.234 -1.3350  0.6010 -0.8088
  162MOL0     C22273   3.010  11.259   6.636 -0.4112 -0.1391  0.7323
  162MOL0     C22274   3.132  11.251   6.699  0.2586 -0.2510  0.8994
  162MOL0     C22275   3.154  11.168   6.813 -0.4355 -1.0222 -0.2982
  162MOL0     C22276   3.053  11.094   6.869 -0.2406  0.1443 -0.2356
  162MOL0     O22277   3.058  11.027   6.986 -0.2864  0.0985 -0.2158
  162MOL0     C22278   3.174  11.025   7.066 -0.7483 -0.9088 -0.0794
  162MOL0     C22279   3.192  11.170   7.136  0.0653  0.3669 -0.8187
  162MOL0     C22280   3.104  11.180   7.269 -0.5318 -0.8957  0.5936
  162MOL0     C22281   2.955  11.156   7.254  0.5056  0.3002 -0.3789
  162MOL0     C22282   2.898  11.235   7.145  0.1756  0.0364 -0.1101
  162MOL0     C22283   2.845  11.303   7.065  0.6479 -1.0412  1.0835
  162MOL0     C22284   2.925  11.104   6.812 -0.7009  0.1000 -0.3834
  162MOL0     C22285   2.907  11.185   6.697  0.6524 -0.1795  0.1366
  162MOL0     C22286   2.762  11.199   6.653  0.6566  0.6966  0.6311
  162MOL0     H22287   3.064  11.673   6.416  0.9227  0.4843 -0.0919
  162MOL0     H22288   3.090  11.780   6.189  1.1266  0.2208 -2.4689
  162MOL0     H22289   3.292  11.548   5.876 -0.3794 -0.1638  0.9114
  162MOL0     H22290   3.361  11.695   5.918 -1.5584  1.4916  3.0990
  162MOL0     H22291   3.246  11.816   5.724 -2.4706  0.0527  0.9741
  162MOL0     H22292   3.334  11.666   5.679  0.9128  2.5265 -0.0129
  162MOL0     H22293   3.046  11.642   5.763  2.8377  0.7965  2.1882
  162MOL0     H22294   3.077  11.733   5.620  2.4103  4.4402  2.2200
  162MOL0     H22295   3.219  11.540   5.516 -0.6106 -0.8934 -0.7865
  162MOL0     H22296   3.197  11.452   5.662  0.0179  0.3197 -0.4130
  162MOL0     H22297   2.969  11.568   5.489  1.4296 -1.1592 -3.4296
  162MOL0     H22298   2.939  11.445   5.610  1.7235 -4.0829 -0.2024
  162MOL0     H22299   2.963  11.402   5.348 -2.7007  4.7699  2.3507
  162MOL0     H22300   3.133  11.387   5.387  0.4006  1.4201  0.1149
  162MOL0     H22301   2.926  11.207   5.501  0.1167  2.1942  2.0186
  162MOL0     H22302   3.103  11.196   5.531 -1.8170  0.6520  1.8810
  162MOL0     H22303   2.975  11.181   5.257 -0.3778 -0.5387  0.4506
  162MOL0     H22304   3.139  11.140   5.294 -0.2157 -1.5551  0.1249
  162MOL0     H22305   2.792  10.968   5.343  1.0449  2.3340 -0.5147
  162MOL0     H22306   2.872  10.614   5.463 -1.5081 -0.8895  2.4840
  162MOL0     H22307   2.753  10.696   5.365 -2.2487 -0.4538  0.3442
  162MOL0     H22308   2.659  10.811   5.573 -1.4167 -0.2090 -0.4270
  162MOL0     H22309   2.646  10.642   5.571 -2.9384  2.1003  1.2967
  162MOL0     H22310   2.871  10.770   5.737 -0.8246  0.6832  0.4016
  162MOL0     H22311   2.709  10.722   5.787 -1.0860 -0.9171 -0.1108
  162MOL0     H22312   2.925  10.538   5.666 -1.0434 -2.2315 -0.9334
  162MOL0     H22313   2.885  10.537   5.838  1.9758 -1.0259 -1.4023
  162MOL0     H22314   2.701  10.570   5.976 -3.6972  1.2286  1.8504
  162MOL0     H22315   2.468  10.558   6.196 -0.3871  0.1339 -2.1720
  162MOL0     H22316   2.635  10.591   6.195  0.8263 -1.4360  2.7974
  162MOL0     H22317   2.577  10.448   6.277  2.6266  0.8403  0.4710
  162MOL0     H22318   2.354   9.951   6.285  0.7586  0.8246  1.0675
  162MOL0     H22319   2.162   9.826   6.371 -0.0249 -1.3724 -1.9059
  162MOL0     H22320   1.904   9.929   6.480 -4.0450  2.6820  0.9362
  162MOL0     H22321   1.792   9.991   6.369  1.4183  0.8011  0.7393
  162MOL0     H22322   1.723   9.732   6.350  1.9121 -1.7850  1.0988
  162MOL0     H22323   1.799   9.726   6.504  1.0651 -0.4367 -1.8258
  162MOL0     H22324   1.561   9.900   6.423  0.3235 -2.3377 -0.7021
  162MOL0     H22325   1.653   9.913   6.581  0.1005  1.6661  0.6938
  162MOL0     H22326   1.438   9.790   6.609  1.6901  2.7569  1.8209
  162MOL0     H22327   1.566   9.683   6.647  0.5252  3.6412  1.9078
  162MOL0     H22328   1.435   9.684   6.370 -0.8713 -1.1927 -0.7216
  162MOL0     H22329   1.561   9.576   6.426  0.5309  1.6831  0.5318
  162MOL0     H22330   1.432   9.499   6.601 -0.5582  1.8021  2.0706
  162MOL0     H22331   1.357   9.443   6.451  2.4436  0.8729 -2.6529
  162MOL0     H22332   1.266   9.676   6.644 -0.5797 -1.2143  0.0449
  162MOL0     H22333   1.185   9.526   6.623  0.0389  0.8052  1.3885
  162MOL0     H22334   1.203   9.775   6.433 -1.5763  0.3273  0.2978
  162MOL0     H22335   1.067   9.694   6.497  0.3225  2.8088  0.9907
  162MOL0     H22336   1.928  10.023   6.064 -0.8306  2.6283  0.9242
  162MOL0     H22337   2.131  10.145   5.997 -1.0498  2.8405  0.5197
  162MOL0     H22338   2.465  10.162   5.868  1.4748 -0.2540 -1.1095
  162MOL0     H22339   2.627  10.237   5.717 -1.4983  1.2958 -1.7620
  162MOL0     H22340   3.220  11.422   6.022  1.5701  0.0298  0.2162
  162MOL0     H22341   3.184  11.294   6.244 -0.2769  0.5064 -3.7950
  162MOL0     H22342   3.219  11.305   6.663  1.7068 -0.9932  3.0239
  162MOL0     H22343   3.253  11.182   6.855 -1.0829 -1.6613  1.5383
  162MOL0     H22344   3.174  10.944   7.140 -0.7684  1.1909  2.3337
  162MOL0     H22345   3.260  11.012   6.999  0.5048 -2.7070  1.7582
  162MOL0     H22346   3.173  11.252   7.066 -1.4478 -1.1376 -2.2525
  162MOL0     H22347   3.294  11.173   7.176 -0.8120 -1.9837  1.9347
  162MOL0     H22348   3.135  11.108   7.345 -2.1625 -1.7998  0.4585
  162MOL0     H22349   3.127  11.276   7.317  2.2295  0.1509 -2.4631
  162MOL0     H22350   2.903  11.192   7.343 -0.9454  2.6330 -2.0459
  162MOL0     H22351   2.931  11.050   7.243 -2.6531  0.8375  0.3744
  162MOL0     H22352   2.790  11.356   6.990  3.1510 -0.0966 -0.2038
  162MOL0     H22353   2.849  11.039   6.853  0.1880  0.2345  1.6212
  162MOL0     H22354   2.696  11.242   6.728  1.8830  1.0507  1.5347
  162MOL0     H22355   2.743  11.270   6.572 -2.1342 -1.3685 -0.6544
  162MOL0     H22356   2.723  11.101   6.627 -1.4318  1.7730 -0.5517
  163MOL0     O22357   3.837   4.223   8.401  0.0472  0.6931  0.1134
  163MOL0     C22358   3.854   4.298   8.308 -0.4112  0.4016  0.8975
  163MOL0     O22359   3.950   4.407   8.301  0.6639 -0.1209  0.3536
  163MOL0     C22360   4.052   4.422   8.392 -0.1906  0.3051 -0.3202
  163MOL0     C22361   4.173   4.434   8.330 -0.3826 -0.4665 -0.2129
  163MOL0     C22362   4.284   4.462   8.409  0.0522  0.9186  0.4083
  163MOL0     C22363   4.261   4.479   8.546 -0.0427  0.3026  0.2313
  163MOL0     O22364   4.386   4.486   8.620 -0.1993  0.1762  1.4703
  163MOL0     C22365   4.380   4.564   8.739 -0.5122  0.4692  0.4004
  163MOL0     C22366   4.495   4.665   8.752  0.4080  0.0202  0.4027
  163MOL0     C22367   4.616   4.615   8.822 -0.0331 -0.1749 -0.2544
  163MOL0     C22368   4.581   4.600   8.976  0.3249  0.3684  0.5665
  163MOL0     C22369   4.674   4.503   9.050  0.2543  0.7050 -0.0444
  163MOL0     C22370   4.816   4.539   9.047 -0.3012  0.1702  0.7720
  163MOL0     C22371   4.842   4.675   9.111 -0.4541  0.2433  0.3756
  163MOL0     C22372   4.982   4.702   9.163 -0.3901 -0.2426 -0.0233
  163MOL0     N22373   5.004   4.833   9.225 -0.3338  0.9417  0.0424
  163MOL0     C22374   5.023   4.945   9.144  0.4120  0.0348 -1.1307
  163MOL0     C22375   5.066   5.035   9.233 -0.8125 -0.3837 -0.6515
  163MOL0     C22376   5.110   5.177   9.215  0.5617 -0.3064  0.0325
  163MOL0     C22377   5.247   5.189   9.263 -0.5642  0.4674  0.0335
  163MOL0     C22378   5.287   5.330   9.243 -1.5525  0.1148 -0.6452
  163MOL0     C22379   5.418   5.345   9.318  0.2320 -0.7377 -0.5776
  163MOL0     O22380   5.467   5.480   9.293  0.0917  0.4267  0.0328
  163MOL0     C22381   5.591   5.519   9.350 -0.5016  0.4414 -0.7147
  163MOL0     C22382   5.651   5.636   9.311  0.1906 -0.9182 -0.0350
  163MOL0     C22383   5.774   5.677   9.365 -0.2664 -0.9209 -0.0985
  163MOL0     C22384   5.824   5.795   9.290  0.4755 -0.0418  0.1117
  163MOL0     C22385   5.850   5.605   9.456  0.0374 -0.9842 -0.0412
  163MOL0     C22386   5.990   5.632   9.498 -0.4910  0.7549  0.2472
  163MOL0     O22387   6.051   5.525   9.565  0.0281 -0.0207 -0.0875
  163MOL0     C22388   6.174   5.550   9.626 -0.6213  0.5728 -0.0049
  163MOL0     C22389   6.287   5.604   9.561 -0.6630 -0.0866 -0.8282
  163MOL0     C22390   6.396   5.638   9.629  0.0459  0.4702 -0.6026
  163MOL0     C22391   6.406   5.611   9.763 -0.2330 -0.1226 -1.3887
  163MOL0     O22392   6.506   5.647   9.851 -0.3976 -0.0781 -0.3372
  163MOL0     C22393   6.636   5.667   9.801  0.5146  0.3410 -0.0237
  163MOL0     C22394   6.737   5.684   9.908  0.9126  0.3336 -0.8010
  163MOL0     C22395   6.683   5.773  10.022 -0.8125 -0.1263  0.3136
  163MOL0     C22396   6.798   5.796  10.130  0.1739 -0.9511  0.0585
  163MOL0     C22397   6.736   5.874  10.248 -1.2374  0.7962 -0.3678
  163MOL0     C22398   6.855   5.886  10.349  0.4045 -0.3954  0.0603
  163MOL0     C22399   6.794   5.932  10.485  0.1347 -0.0593 -0.1720
  163MOL0     C22400   6.891   5.908  10.591  0.1464 -1.0293  0.0247
  163MOL0    Cl22401   7.015   6.031  10.575 -0.0183 -0.0178 -0.0343
  163MOL0     C22402   6.306   5.538   9.825  0.0330 -0.4738 -0.3492
  163MOL0     C22403   6.184   5.515   9.761 -0.2068  0.2006  0.3634
  163MOL0     O22404   6.054   5.730   9.466 -0.3637  0.1271 -0.8505
  163MOL0     C22405   5.788   5.481   9.490 -0.2243  0.7695  0.3957
  163MOL0     C22406   5.660   5.442   9.445 -0.4026 -0.3234 -0.0763
  163MOL0     N22407   5.075   4.983   9.357  0.8717  0.1490 -0.1802
  163MOL0     N22408   5.034   4.860   9.354 -0.2369  0.3013  0.5379
  163MOL0     C22409   4.137   4.462   8.604 -0.1544  0.5070  0.0548
  163MOL0     C22410   4.027   4.441   8.523  0.4885  0.5058  0.1050
  163MOL0     C22411   3.765   4.295   8.185  0.5867 -0.1604 -0.5148
  163MOL0     C22412   3.808   4.371   8.075 -1.0605 -0.0231 -0.5964
  163MOL0     C22413   3.736   4.368   7.951 -0.1926  0.6342 -0.4944
  163MOL0     C22414   3.615   4.305   7.941  0.4910 -0.4426  0.3375
  163MOL0     O22415   3.539   4.315   7.825 -0.2241  0.7253 -0.1095
  163MOL0     C22416   3.417   4.243   7.801 -0.3574 -0.1946  0.3125
  163MOL0     C22417   3.290   4.317   7.858 -0.1690 -0.4258 -0.4524
  163MOL0     C22418   3.302   4.471   7.844 -0.1333  0.5250  0.2769
  163MOL0     C22419   3.201   4.547   7.942  0.3917 -0.1610 -0.8441
  163MOL0     C22420   3.070   4.475   7.948  0.5619  0.0640  0.5107
  163MOL0     C22421   2.962   4.428   7.934  0.2309 -0.5389 -0.0854
  163MOL0     C22422   3.569   4.237   8.062  0.5480 -0.1928 -0.0055
  163MOL0     C22423   3.640   4.228   8.184 -0.1148  0.3669  0.5125
  163MOL0     C22424   3.570   4.163   8.293 -0.0183 -0.1681  0.6066
  163MOL0     H22425   4.182   4.434   8.222  1.2393 -0.5085 -0.0919
  163MOL0     H22426   4.379   4.469   8.358  0.7032 -3.2410  0.7106
  163MOL0     H22427   4.380   4.498   8.827 -3.3597  1.2257  1.0635
  163MOL0     H22428   4.287   4.620   8.744  0.4596  2.0951  1.1562
  163MOL0     H22429   4.528   4.696   8.653  1.6792  1.3976  1.2155
  163MOL0     H22430   4.451   4.745   8.812  2.2188 -0.3331  2.2945
  163MOL0     H22431   4.643   4.519   8.778  0.9235  0.0586 -0.1925
  163MOL0     H22432   4.707   4.673   8.811  1.4173 -2.6215 -2.1822
  163MOL0     H22433   4.587   4.694   9.032  0.5942  0.7932 -0.1573
  163MOL0     H22434   4.475   4.572   8.981  0.4264  0.1733  1.9733
  163MOL0     H22435   4.661   4.404   9.004 -1.7718  0.2525  1.3368
  163MOL0     H22436   4.636   4.503   9.152 -3.1861  1.4496 -1.1892
  163MOL0     H22437   4.876   4.464   9.099  1.1827  0.9860  0.3248
  163MOL0     H22438   4.866   4.531   8.949  0.7431 -0.3428  1.3272
  163MOL0     H22439   4.759   4.703   9.176 -1.6571 -0.0667 -0.9686
  163MOL0     H22440   4.831   4.752   9.034  0.7622  0.9166  0.8532
  163MOL0     H22441   5.009   4.631   9.242 -2.0835 -0.3215  0.5246
  163MOL0     H22442   5.059   4.686   9.087 -1.2403  4.8167 -2.3852
  163MOL0     H22443   5.004   4.950   9.037 -1.8026  0.8019 -0.7625
  163MOL0     H22444   5.041   5.246   9.265  2.6907 -0.1529  3.0389
  163MOL0     H22445   5.102   5.200   9.108  0.1712 -0.8242 -0.0491
  163MOL0     H22446   5.235   5.170   9.370 -2.4565 -2.2260 -0.5530
  163MOL0     H22447   5.313   5.122   9.207  0.5611  2.5591 -1.2776
  163MOL0     H22448   5.307   5.354   9.138 -2.1385  0.3056 -0.7181
  163MOL0     H22449   5.223   5.409   9.282  1.8571  1.4472  2.8568
  163MOL0     H22450   5.406   5.321   9.424  1.1855  1.0367 -0.0239
  163MOL0     H22451   5.484   5.268   9.279 -1.4676 -2.1463 -0.7898
  163MOL0     H22452   5.599   5.707   9.246  0.8981  0.0816  0.4621
  163MOL0     H22453   5.830   5.878   9.361 -0.4282 -0.4506  0.6911
  163MOL0     H22454   5.753   5.836   9.217  2.2673  1.8750 -0.6591
  163MOL0     H22455   5.922   5.768   9.249 -0.3584 -1.1623 -1.2344
  163MOL0     H22456   6.275   5.627   9.456 -1.1705 -0.2014 -0.8020
  163MOL0     H22457   6.478   5.685   9.576  1.3027 -2.7934 -1.8084
  163MOL0     H22458   6.667   5.593   9.727 -1.8393 -1.0256  0.2646
  163MOL0     H22459   6.634   5.760   9.743  0.5565 -0.6092 -1.6062
  163MOL0     H22460   6.748   5.584   9.952 -0.4820 -0.9065 -3.0919
  163MOL0     H22461   6.831   5.724   9.868  0.2879  1.2070 -1.4224
  163MOL0     H22462   6.594   5.736  10.074 -0.2690 -0.6155  0.9091
  163MOL0     H22463   6.660   5.860   9.960  0.2084 -0.1573 -0.1262
  163MOL0     H22464   6.867   5.860  10.074 -0.4887 -1.2789 -1.1821
  163MOL0     H22465   6.840   5.701  10.162 -0.7727 -1.5241 -0.3638
  163MOL0     H22466   6.705   5.973  10.214  0.7312  1.6434  0.1627
  163MOL0     H22467   6.651   5.817  10.285 -1.7107  0.1712 -2.3136
  163MOL0     H22468   6.925   5.966  10.323 -1.0112  0.5970 -0.9061
  163MOL0     H22469   6.907   5.791  10.354  3.3818  1.1804  2.5961
  163MOL0     H22470   6.706   5.871  10.510  0.1691 -0.0367  0.0070
  163MOL0     H22471   6.771   6.039  10.486  0.6783  0.0588  0.2397
  163MOL0     H22472   6.945   5.813  10.587  2.1765  0.0459  0.5439
  163MOL0     H22473   6.844   5.916  10.690 -0.6183 -2.7534 -0.1683
  163MOL0     H22474   6.306   5.525   9.933  0.3462 -0.3981 -0.3391
  163MOL0     H22475   6.101   5.469   9.815 -1.5955  1.7885 -0.3183
  163MOL0     H22476   5.840   5.410   9.552  1.7165  1.2526 -0.6176
  163MOL0     H22477   5.617   5.348   9.478 -1.6024  0.1225 -0.3012
  163MOL0     H22478   4.123   4.463   8.712  1.4765 -1.6028  0.3482
  163MOL0     H22479   3.930   4.421   8.567  2.1738 -1.2522  3.4334
  163MOL0     H22480   3.906   4.419   8.074 -0.3155 -1.4439 -2.7010
  163MOL0     H22481   3.766   4.407   7.854  0.0791 -2.5474 -1.7969
  163MOL0     H22482   3.403   4.239   7.693  4.1146  0.5271 -0.5145
  163MOL0     H22483   3.422   4.144   7.847 -1.6890  1.0076  3.3469
  163MOL0     H22484   3.278   4.279   7.960  1.3635 -0.3566 -0.2305
  163MOL0     H22485   3.202   4.285   7.801 -1.2432  0.3253  0.7033
  163MOL0     H22486   3.405   4.494   7.873  0.2615 -2.0247  1.1013
  163MOL0     H22487   3.289   4.501   7.740 -0.4572 -0.6278 -0.0224
  163MOL0     H22488   3.185   4.652   7.917 -1.3102 -0.7366 -2.3906
  163MOL0     H22489   3.256   4.552   8.037  1.1809  1.5949 -1.3467
  163MOL0     H22490   2.864   4.386   7.919  1.1750 -3.4197  1.1375
  163MOL0     H22491   3.469   4.198   8.050  0.5806 -0.7293  1.3020
  163MOL0     H22492   3.559   4.239   8.371  1.5302 -0.4780  1.1614
  163MOL0     H22493   3.476   4.114   8.266  0.1156 -2.1393  3.3171
  163MOL0     H22494   3.638   4.082   8.323 -2.2138 -1.8664  1.2451
  164MOL0     O22495   3.635   8.584   5.003 -0.0027  0.1594  0.3376
  164MOL0     C22496   3.593   8.585   4.882 -0.8679  1.0501 -0.4064
  164MOL0     O22497   3.611   8.690   4.796 -0.2423  0.4362  0.3955
  164MOL0     C22498   3.647   8.812   4.834  1.0164  1.1062  0.0286
  164MOL0     C22499   3.752   8.876   4.769  0.2895  0.3041  0.3328
  164MOL0     C22500   3.803   8.988   4.834 -0.9565  0.5014  0.2458
  164MOL0     C22501   3.743   9.057   4.939 -0.2429  0.1841  0.2178
  164MOL0     O22502   3.809   9.165   5.003  0.4708 -0.3040  0.2538
  164MOL0     C22503   3.758   9.247   5.114 -0.2159 -0.1640  0.4072
  164MOL0     C22504   3.867   9.289   5.210 -0.6852  0.2299  0.2312
  164MOL0     C22505   4.006   9.320   5.140 -0.0265 -0.1984 -0.1296
  164MOL0     C22506   4.121   9.367   5.235  0.3767  0.1915  0.1936
  164MOL0     C22507   4.102   9.490   5.328  0.1280 -0.2150  0.9132
  164MOL0     C22508   4.226   9.587   5.330 -0.5089  0.8004 -0.1280
  164MOL0     C22509   4.333   9.547   5.427  0.5184 -0.3524  0.3217
  164MOL0     C22510   4.456   9.644   5.444 -0.4905 -0.4186 -0.2231
  164MOL0     N22511   4.418   9.782   5.483  0.0742  0.1707  0.3736
  164MOL0     C22512   4.352   9.810   5.597 -0.9348 -0.2294  0.7692
  164MOL0     C22513   4.301   9.934   5.572  0.1949  0.0080 -0.1755
  164MOL0     C22514   4.218  10.013   5.668  0.2634  0.0511  0.7239
  164MOL0     C22515   4.311  10.128   5.707  0.3822  0.2471 -0.5418
  164MOL0     C22516   4.305  10.246   5.608  0.6347  0.2778  0.1125
  164MOL0     C22517   4.421  10.336   5.628  0.3001  0.0746 -0.0570
  164MOL0     O22518   4.383  10.396   5.750  0.6432 -0.4598  0.0103
  164MOL0     C22519   4.475  10.469   5.816  0.7080 -0.9870  0.5971
  164MOL0     C22520   4.446  10.523   5.940  0.4257 -0.6797 -0.4254
  164MOL0     C22521   4.534  10.605   6.014 -0.6467  0.2077 -0.2078
  164MOL0     C22522   4.472  10.658   6.139  0.5146  0.5357  0.6518
  164MOL0     C22523   4.659  10.632   5.958  0.1174  0.8353 -0.6543
  164MOL0     C22524   4.756  10.725   6.011 -0.0956  0.1492 -0.5230
  164MOL0     O22525   4.883  10.723   5.950  0.0823  0.0339 -0.2303
  164MOL0     C22526   4.978  10.804   6.003 -0.2903  0.0211  0.5513
  164MOL0     C22527   5.072  10.856   5.910 -0.6378  0.0432  0.8688
  164MOL0     C22528   5.174  10.935   5.943 -0.3053  0.3322 -0.2031
  164MOL0     C22529   5.210  10.955   6.073 -0.4400  0.9000 -0.0834
  164MOL0     O22530   5.324  11.020   6.102  0.1729  0.2289 -0.2876
  164MOL0     C22531   5.410  10.940   6.191 -0.8931 -0.2040 -0.0331
  164MOL0     C22532   5.556  10.991   6.177 -0.0486 -0.0386 -0.1658
  164MOL0     C22533   5.620  11.008   6.034  0.7873 -0.1502 -0.2503
  164MOL0     C22534   5.653  10.864   5.980  0.3677 -0.0964  1.2338
  164MOL0     C22535   5.731  10.873   5.840  0.0478 -0.4727 -0.6878
  164MOL0     C22536   5.872  10.934   5.851 -0.6314 -0.2267 -0.9421
  164MOL0     C22537   5.987  10.837   5.885  0.2810  0.2115 -0.0688
  164MOL0     C22538   6.122  10.859   5.821 -0.1131 -0.1430  0.2426
  164MOL0    Cl22539   6.098  10.866   5.644 -0.6105 -0.1885  0.0361
  164MOL0     C22540   5.124  10.899   6.177 -0.2359  0.0724 -0.1762
  164MOL0     C22541   5.007  10.826   6.140 -0.3366  0.9448  0.7376
  164MOL0     O22542   4.708  10.812   6.085 -0.4687 -0.1644 -1.1599
  164MOL0     C22543   4.698  10.573   5.830  0.3143 -0.0091 -0.9382
  164MOL0     C22544   4.602  10.501   5.763 -0.0805  0.1185 -0.6828
  164MOL0     N22545   4.307   9.965   5.442 -0.8823  0.3226  0.2452
  164MOL0     N22546   4.389   9.875   5.387  0.2296 -1.1115 -0.6665
  164MOL0     C22547   3.616   9.001   4.980 -0.2562  0.9023  0.0217
  164MOL0     C22548   3.571   8.879   4.932 -0.2331 -0.1071  0.3960
  164MOL0     C22549   3.540   8.454   4.829 -0.8089  0.2674 -0.1684
  164MOL0     C22550   3.505   8.444   4.698  0.5438  0.8547  0.4697
  164MOL0     C22551   3.446   8.327   4.649  0.5569  0.4089 -0.8513
  164MOL0     C22552   3.407   8.215   4.728 -0.1137 -0.7047  0.4336
  164MOL0     O22553   3.327   8.116   4.673 -0.4224 -0.4591 -1.0901
  164MOL0     C22554   3.363   7.976   4.677 -0.0311  0.0012  0.0655
  164MOL0     C22555   3.432   7.920   4.555 -0.0239  0.0615 -0.1641
  164MOL0     C22556   3.457   7.776   4.584  0.1713  0.8283  0.2506
  164MOL0     C22557   3.532   7.706   4.481 -0.2393 -0.1746 -0.1902
  164MOL0     C22558   3.472   7.718   4.352  1.0860  0.4691 -0.2292
  164MOL0     C22559   3.408   7.738   4.250 -0.7682 -0.5867 -0.3307
  164MOL0     C22560   3.443   8.224   4.867 -0.9737  0.1405  1.4565
  164MOL0     C22561   3.510   8.341   4.917 -0.2390 -1.0218 -0.1222
  164MOL0     C22562   3.524   8.331   5.072  0.5808  0.0945  0.2779
  164MOL0     H22563   3.804   8.819   4.693  0.3027  1.8688 -0.8846
  164MOL0     H22564   3.902   9.019   4.801 -1.1470  2.2496  1.2032
  164MOL0     H22565   3.690   9.195   5.183 -0.9764  0.8107  0.4055
  164MOL0     H22566   3.707   9.338   5.082  1.8301  0.6492 -0.7638
  164MOL0     H22567   3.838   9.373   5.273  0.4903  1.6788 -1.0946
  164MOL0     H22568   3.893   9.217   5.288  4.9411  1.0992 -0.4331
  164MOL0     H22569   4.053   9.233   5.092 -1.6557 -0.0778 -2.0394
  164MOL0     H22570   3.998   9.402   5.068  2.8275  1.0907  0.8607
  164MOL0     H22571   4.159   9.280   5.289 -1.1525 -1.5038 -1.3001
  164MOL0     H22572   4.195   9.407   5.165 -1.2475  3.9059  0.3933
  164MOL0     H22573   4.079   9.452   5.428 -2.2789 -2.0046 -0.2298
  164MOL0     H22574   4.020   9.556   5.296  1.8764  1.8860  0.4824
  164MOL0     H22575   4.272   9.580   5.231 -0.5344  2.4289 -0.2720
  164MOL0     H22576   4.203   9.690   5.357  0.3792  0.3814  2.6114
  164MOL0     H22577   4.371   9.452   5.387 -1.4291 -2.0136  2.2014
  164MOL0     H22578   4.285   9.513   5.519 -0.4555 -1.9650 -0.7204
  164MOL0     H22579   4.521   9.614   5.527  0.3995 -0.3064 -0.8700
  164MOL0     H22580   4.503   9.656   5.346 -2.7325  2.6296 -1.0618
  164MOL0     H22581   4.335   9.757   5.690  1.1929 -1.4043  0.5410
  164MOL0     H22582   4.190   9.954   5.755  0.4210 -0.0518  0.7056
  164MOL0     H22583   4.124  10.050   5.625 -0.3116 -1.1422  0.9264
  164MOL0     H22584   4.272  10.157   5.805 -3.3969  0.6508 -2.0079
  164MOL0     H22585   4.412  10.086   5.715 -0.6185 -2.0955  0.9989
  164MOL0     H22586   4.294  10.210   5.505 -4.0635 -1.9029  1.1266
  164MOL0     H22587   4.205  10.290   5.610 -1.3344 -3.7108  2.2365
  164MOL0     H22588   4.513  10.277   5.641 -0.7336 -1.2332  1.8238
  164MOL0     H22589   4.432  10.416   5.555 -0.0522  1.7450  1.6629
  164MOL0     H22590   4.347  10.493   5.972 -0.2345  2.0257  0.3098
  164MOL0     H22591   4.391  10.588   6.163  2.5198 -2.8126 -1.5075
  164MOL0     H22592   4.428  10.756   6.121  0.2200  0.2022 -0.5358
  164MOL0     H22593   4.550  10.658   6.215  1.3774  3.2936 -0.1319
  164MOL0     H22594   5.063  10.822   5.807  0.1331 -0.3809  0.9325
  164MOL0     H22595   5.242  10.979   5.870  1.0470 -2.6771 -0.9502
  164MOL0     H22596   5.379  10.953   6.295 -2.1594 -1.9902 -0.1374
  164MOL0     H22597   5.403  10.833   6.166 -0.7094 -0.0989 -0.5472
  164MOL0     H22598   5.568  11.081   6.238 -2.3126 -0.4634  1.0359
  164MOL0     H22599   5.613  10.920   6.237 -1.7506 -0.9947  0.3668
  164MOL0     H22600   5.711  11.068   6.031  0.9524 -0.4206 -1.4335
  164MOL0     H22601   5.547  11.051   5.965 -0.6971 -2.0231  0.0884
  164MOL0     H22602   5.564  10.801   5.971  1.5439 -1.6372 -0.3534
  164MOL0     H22603   5.717  10.817   6.055 -2.6660 -2.9927  2.2583
  164MOL0     H22604   5.720  10.784   5.778 -0.4290  1.0470 -2.8881
  164MOL0     H22605   5.674  10.939   5.773 -0.6398 -1.6312 -1.2797
  164MOL0     H22606   5.875  11.026   5.911  2.1560  0.8531 -2.5069
  164MOL0     H22607   5.892  10.974   5.751  0.4692  1.2007 -0.1921
  164MOL0     H22608   5.957  10.736   5.854  1.9539  0.6763 -3.8048
  164MOL0     H22609   5.995  10.839   5.994  1.5159 -1.8015 -0.0710
  164MOL0     H22610   6.183  10.776   5.858  1.4023  1.1711  0.8224
  164MOL0     H22611   6.164  10.952   5.861 -0.3596 -0.7064  1.8941
  164MOL0     H22612   5.145  10.897   6.284 -1.1192  0.7054  0.0148
  164MOL0     H22613   4.949  10.786   6.222 -1.7906  3.9710  1.3286
  164MOL0     H22614   4.794  10.589   5.782 -0.0097  2.5824 -0.8616
  164MOL0     H22615   4.623  10.480   5.658 -2.4064 -2.8168 -0.7229
  164MOL0     H22616   3.555   9.059   5.048 -0.4103 -0.5105  1.1279
  164MOL0     H22617   3.488   8.821   4.970  0.9983 -0.9546  1.8801
  164MOL0     H22618   3.533   8.523   4.630  1.6395  1.1464  1.2300
  164MOL0     H22619   3.409   8.325   4.547 -0.4553 -0.7499 -0.4864
  164MOL0     H22620   3.420   7.964   4.770  2.4009  1.7459 -1.1004
  164MOL0     H22621   3.277   7.909   4.692  0.7440 -1.5226 -1.9684
  164MOL0     H22622   3.519   7.979   4.525 -0.1425  2.5625  3.7277
  164MOL0     H22623   3.354   7.929   4.478 -2.0949 -2.1286  1.4900
  164MOL0     H22624   3.508   7.760   4.680  0.1601  0.3581  0.1836
  164MOL0     H22625   3.363   7.720   4.593 -0.1787  1.2091 -0.9064
  164MOL0     H22626   3.541   7.599   4.499  1.5647  0.1113  0.8003
  164MOL0     H22627   3.638   7.736   4.479 -0.5418  1.0459  1.1083
  164MOL0     H22628   3.348   7.752   4.162 -2.1615  1.6547  0.8749
  164MOL0     H22629   3.419   8.139   4.929 -1.7696 -0.9338 -0.2595
  164MOL0     H22630   3.487   8.415   5.132  1.4524  1.6367 -1.2434
  164MOL0     H22631   3.475   8.237   5.101 -1.3694  1.1196  0.4926
  164MOL0     H22632   3.624   8.317   5.112 -0.1711  0.7378  2.5121
  165MOL0     O22633   6.055   3.862   1.913  0.0706  0.2672  0.0004
  165MOL0     C22634   6.019   3.777   2.001  1.3532 -0.2997 -0.0468
  165MOL0     O22635   6.085   3.660   2.029  0.0390 -0.0487 -0.5203
  165MOL0     C22636   6.198   3.636   1.958  0.3897  0.6924 -0.4787
  165MOL0     C22637   6.200   3.612   1.827  0.4945 -0.8632  0.2792
  165MOL0     C22638   6.319   3.586   1.754  0.8208  0.5369 -0.0447
  165MOL0     C22639   6.435   3.581   1.829  0.0202  0.3956 -1.0373
  165MOL0     O22640   6.551   3.573   1.770  0.1448 -0.3438 -0.6631
  165MOL0     C22641   6.675   3.547   1.842 -0.0453 -0.3388 -0.4644
  165MOL0     C22642   6.786   3.543   1.741  0.0058  0.1799  0.0281
  165MOL0     C22643   6.797   3.411   1.665  0.1269  0.2933 -0.8133
  165MOL0     C22644   6.938   3.355   1.642  0.8524 -0.0631  0.3073
  165MOL0     C22645   6.936   3.254   1.533 -1.2054  0.4161  0.4757
  165MOL0     C22646   7.076   3.210   1.500 -0.1253 -0.1319  0.5049
  165MOL0     C22647   7.067   3.114   1.387  0.8326 -0.0489  0.2413
  165MOL0     C22648   7.003   2.972   1.432 -0.1497 -0.8339  0.3612
  165MOL0     N22649   7.091   2.906   1.525 -0.3367 -0.0425  0.1210
  165MOL0     C22650   7.226   2.898   1.517  0.1004 -1.0544 -0.6523
  165MOL0     C22651   7.271   2.828   1.626 -0.2155  0.5330  1.1795
  165MOL0     C22652   7.413   2.805   1.653 -0.4515  0.8032 -0.8739
  165MOL0     C22653   7.482   2.926   1.730  0.6754 -0.6780 -0.4710
  165MOL0     C22654   7.453   3.066   1.674  0.5160  0.3011 -0.0570
  165MOL0     C22655   7.530   3.175   1.750 -0.7936 -0.0954 -0.0565
  165MOL0     O22656   7.664   3.126   1.775  0.6231 -0.0412 -0.1513
  165MOL0     C22657   7.753   3.213   1.835  0.1391  0.3023 -0.1972
  165MOL0     C22658   7.719   3.315   1.927  0.5036  0.5153  0.6903
  165MOL0     C22659   7.813   3.398   1.990 -0.6058 -1.2407 -0.7798
  165MOL0     C22660   7.773   3.496   2.094  0.0971 -0.5563  0.2872
  165MOL0     C22661   7.956   3.362   1.959  0.3835  0.4243  0.8170
  165MOL0     C22662   8.070   3.433   2.020 -0.4912 -0.3553 -0.2299
  165MOL0     O22663   8.056   3.567   2.046 -0.0035 -1.0784  0.1387
  165MOL0     C22664   8.137   3.629   2.145 -0.8162 -0.7103  0.4269
  165MOL0     C22665   8.244   3.721   2.122 -0.5870 -0.0202  0.6165
  165MOL0     C22666   8.314   3.781   2.227 -0.1919  0.0640 -0.4038
  165MOL0     C22667   8.294   3.754   2.363 -0.2707  0.2929 -0.3692
  165MOL0     O22668   8.376   3.816   2.448 -0.1934 -0.0612  0.4346
  165MOL0     C22669   8.350   3.829   2.586 -0.2310 -0.5816 -0.7188
  165MOL0     C22670   8.475   3.859   2.658  0.3034  0.0346  0.1823
  165MOL0     C22671   8.570   3.730   2.673 -0.1619 -1.1833 -0.6262
  165MOL0     C22672   8.691   3.749   2.764  0.1292  0.3319 -1.1592
  165MOL0     C22673   8.792   3.633   2.767 -0.2224  0.5018 -0.1010
  165MOL0     C22674   8.889   3.651   2.890  0.3904  0.1023  0.0083
  165MOL0     C22675   9.013   3.564   2.877  1.0770 -1.1107 -0.4675
  165MOL0     C22676   9.000   3.427   2.948  0.1563  0.1494  0.3807
  165MOL0    Cl22677   8.965   3.452   3.126 -0.1263  0.2732  0.0464
  165MOL0     C22678   8.191   3.660   2.384 -0.0978  0.4511 -0.1808
  165MOL0     C22679   8.113   3.607   2.282 -0.2066 -0.2259  0.1167
  165MOL0     O22680   8.172   3.375   2.031  0.2349  0.3172  0.0658
  165MOL0     C22681   7.990   3.256   1.876  0.5923 -0.3915 -0.3469
  165MOL0     C22682   7.883   3.181   1.811  0.0283  0.7783 -0.1990
  165MOL0     N22683   7.159   2.803   1.697  0.2109  0.2447 -0.9541
  165MOL0     N22684   7.054   2.844   1.638  0.1621  0.3595 -0.3436
  165MOL0     C22685   6.432   3.621   1.959 -0.3017  0.1465  0.0891
  165MOL0     C22686   6.314   3.644   2.024  0.9365 -0.5382 -0.8133
  165MOL0     C22687   5.916   3.812   2.111 -0.3828  0.2660 -0.2705
  165MOL0     C22688   5.784   3.776   2.091 -0.3361 -0.8761 -0.6935
  165MOL0     C22689   5.694   3.814   2.190 -0.6348 -0.0537 -0.0417
  165MOL0     C22690   5.722   3.887   2.308 -0.1015  1.5813  0.6745
  165MOL0     O22691   5.634   3.927   2.404  0.5369  0.1209 -0.5223
  165MOL0     C22692   5.490   3.903   2.390 -0.7615 -0.4062 -0.5417
  165MOL0     C22693   5.459   3.766   2.443 -0.1116 -0.5571  0.4777
  165MOL0     C22694   5.303   3.735   2.431 -1.5067  0.2205  0.5331
  165MOL0     C22695   5.208   3.836   2.504  0.1024 -0.2445  1.3584
  165MOL0     C22696   5.189   3.954   2.425 -0.2627 -0.0236  0.4311
  165MOL0     C22697   5.170   4.052   2.362  0.6047  0.3780 -0.3004
  165MOL0     C22698   5.856   3.922   2.325 -0.3941 -0.0764 -0.3309
  165MOL0     C22699   5.957   3.881   2.231  0.6391  0.0834  0.4217
  165MOL0     C22700   6.102   3.906   2.256 -0.8058  0.0910 -0.1615
  165MOL0     H22701   6.106   3.604   1.774  0.6339 -0.5618 -0.0154
  165MOL0     H22702   6.322   3.571   1.647  2.3837 -0.6913  0.1258
  165MOL0     H22703   6.668   3.454   1.900 -3.2760 -1.9445 -3.0941
  165MOL0     H22704   6.687   3.628   1.915 -0.4425 -0.8399  0.1602
  165MOL0     H22705   6.771   3.625   1.670 -0.4904  0.9935  1.0540
  165MOL0     H22706   6.874   3.555   1.805  0.6602  2.0068 -1.1406
  165MOL0     H22707   6.747   3.335   1.726  1.8181 -2.9078 -3.1308
  165MOL0     H22708   6.735   3.416   1.575  1.8272  0.6869 -2.0004
  165MOL0     H22709   6.997   3.442   1.613  1.1842 -0.5057 -0.3643
  165MOL0     H22710   6.980   3.320   1.736  0.0960 -2.0412 -0.0414
  165MOL0     H22711   6.887   3.306   1.451 -1.0177  0.2726  0.2701
  165MOL0     H22712   6.867   3.177   1.569 -1.6535  0.8663  0.5783
  165MOL0     H22713   7.132   3.293   1.457  0.1337 -0.6592 -0.2037
  165MOL0     H22714   7.131   3.175   1.587  1.1070  3.3162  1.2560
  165MOL0     H22715   7.170   3.101   1.352  1.8870  2.7992  1.8946
  165MOL0     H22716   7.003   3.146   1.304 -1.0975 -2.5978  0.6466
  165MOL0     H22717   6.900   2.984   1.466 -0.7620 -0.7637 -1.4196
  165MOL0     H22718   6.992   2.910   1.342 -1.0389  0.2927 -0.3445
  165MOL0     H22719   7.280   2.931   1.428 -0.3218  2.0483  0.1212
  165MOL0     H22720   7.473   2.777   1.565  0.8623 -0.3448  0.3318
  165MOL0     H22721   7.415   2.719   1.721  0.8397 -0.1580 -2.0596
  165MOL0     H22722   7.450   2.928   1.835  3.5017  1.7272  0.4609
  165MOL0     H22723   7.590   2.906   1.736  0.5829 -0.9628  0.4949
  165MOL0     H22724   7.481   3.066   1.568  2.3490 -3.1834  0.2648
  165MOL0     H22725   7.346   3.086   1.681  0.2138 -1.2989  0.4537
  165MOL0     H22726   7.538   3.269   1.694  3.0297  0.9801  1.9762
  165MOL0     H22727   7.483   3.203   1.845 -1.0377  0.9834 -0.4787
  165MOL0     H22728   7.614   3.343   1.938 -0.3607 -2.4260  1.0083
  165MOL0     H22729   7.853   3.529   2.161 -0.0252  4.3757 -1.6000
  165MOL0     H22730   7.692   3.450   2.152 -0.9774  1.7844  0.7685
  165MOL0     H22731   7.736   3.588   2.049  0.3453 -1.2669 -1.4401
  165MOL0     H22732   8.271   3.753   2.021  1.6980  1.3602  1.5729
  165MOL0     H22733   8.393   3.853   2.209 -0.9244  1.1351  0.5023
  165MOL0     H22734   8.283   3.914   2.605  0.2821 -0.5790  1.1969
  165MOL0     H22735   8.293   3.746   2.630 -1.9653  0.8963 -0.0419
  165MOL0     H22736   8.521   3.950   2.618  0.1812  0.9240  1.9387
  165MOL0     H22737   8.447   3.892   2.759 -1.0353  2.7303 -0.9520
  165MOL0     H22738   8.613   3.710   2.574  2.6814  1.1173  0.0219
  165MOL0     H22739   8.511   3.644   2.706 -0.3156 -1.2493 -1.0681
  165MOL0     H22740   8.651   3.756   2.865 -1.5450 -3.1778 -1.4137
  165MOL0     H22741   8.742   3.843   2.743 -1.6639  2.0944  1.8715
  165MOL0     H22742   8.741   3.539   2.790  1.4754 -0.1823  1.0669
  165MOL0     H22743   8.847   3.632   2.672  2.5376  1.2924  1.3836
  165MOL0     H22744   8.823   3.627   2.974 -0.3115 -1.9997 -1.0525
  165MOL0     H22745   8.908   3.758   2.898  0.9558  0.1394 -1.4425
  165MOL0     H22746   9.094   3.617   2.929 -0.7616  0.9975  0.4540
  165MOL0     H22747   9.031   3.568   2.769 -1.2439  1.2812 -0.8839
  165MOL0     H22748   9.099   3.381   2.935  0.4793  1.1781 -0.9711
  165MOL0     H22749   8.918   3.367   2.908  0.8022  0.3028 -1.2643
  165MOL0     H22750   8.163   3.629   2.484 -3.8730  0.7303 -1.0120
  165MOL0     H22751   8.038   3.532   2.305 -0.1917 -0.0407  0.7724
  165MOL0     H22752   8.092   3.225   1.853  1.0163  0.4783  0.3171
  165MOL0     H22753   7.915   3.101   1.745  2.2193  2.1572 -0.9044
  165MOL0     H22754   6.516   3.616   2.027 -3.0429  0.8917  3.8486
  165MOL0     H22755   6.316   3.659   2.131 -0.3512 -1.4567 -0.6475
  165MOL0     H22756   5.742   3.735   2.000 -3.3616  0.4498 -0.0232
  165MOL0     H22757   5.592   3.779   2.179  0.1920 -2.9991  0.7122
  165MOL0     H22758   5.431   3.977   2.446  2.0506  0.9508  0.8899
  165MOL0     H22759   5.461   3.906   2.285  1.1879 -1.9227 -1.1653
  165MOL0     H22760   5.493   3.758   2.547 -0.5046 -1.5832  0.5423
  165MOL0     H22761   5.508   3.691   2.381  0.5371 -1.6440  2.2075
  165MOL0     H22762   5.270   3.724   2.327 -1.5688  1.8255  0.3669
  165MOL0     H22763   5.297   3.642   2.488  1.0828 -2.2778 -2.8431
  165MOL0     H22764   5.250   3.860   2.602 -0.9944 -1.9857  2.3081
  165MOL0     H22765   5.113   3.787   2.528  0.6882 -0.5542  3.1877
  165MOL0     H22766   5.134   4.124   2.290 -0.5451 -0.5251 -0.6548
  165MOL0     H22767   5.888   3.985   2.408  5.5819 -1.9916 -0.7142
  165MOL0     H22768   6.129   3.994   2.197  0.9363 -0.0861  0.3059
  165MOL0     H22769   6.120   3.927   2.362 -0.5994 -0.7500 -0.0253
  165MOL0     H22770   6.178   3.830   2.235  2.3602  3.0702 -0.3673
  166MOL0     O22771   5.133  10.742   2.097 -0.1961  0.5485  1.0094
  166MOL0     C22772   5.028  10.714   2.050 -0.1711 -0.2209 -0.3548
  166MOL0     O22773   4.905  10.731   2.120  0.0720  0.7465 -0.1845
  166MOL0     C22774   4.916  10.755   2.257 -1.0079 -0.2500 -0.2301
  166MOL0     C22775   4.920  10.642   2.340  0.0992 -0.1199  0.7197
  166MOL0     C22776   4.926  10.652   2.482 -0.3787  0.5132  0.0535
  166MOL0     C22777   4.945  10.773   2.547 -0.1555 -0.2988  0.5132
  166MOL0     O22778   4.956  10.801   2.676  0.9855 -0.3141 -0.5659
  166MOL0     C22779   4.945  10.689   2.771 -0.0660  0.4091  0.1398
  166MOL0     C22780   4.977  10.744   2.908 -0.3416  0.3483 -0.1899
  166MOL0     C22781   5.095  10.838   2.916 -0.7306  0.0794 -0.1594
  166MOL0     C22782   5.223  10.805   2.834  0.0902 -0.7693 -0.5413
  166MOL0     C22783   5.340  10.893   2.890  0.5550  1.0199 -0.5369
  166MOL0     C22784   5.335  11.031   2.853  0.7098  0.6124 -0.3096
  166MOL0     C22785   5.456  11.114   2.909 -0.3048 -0.0140 -0.5796
  166MOL0     C22786   5.464  11.118   3.062  0.0329  0.3802  0.3780
  166MOL0     N22787   5.346  11.171   3.128  0.3489 -0.3985  0.5612
  166MOL0     C22788   5.234  11.095   3.167  0.8777  0.1880  0.4592
  166MOL0     C22789   5.149  11.192   3.216  0.1587 -0.1406 -0.1862
  166MOL0     C22790   5.021  11.156   3.279  0.0218  0.3156 -0.6311
  166MOL0     C22791   4.942  11.064   3.186 -0.1300 -0.1417  0.3066
  166MOL0     C22792   4.798  11.042   3.235  0.7211  0.1230 -0.9415
  166MOL0     C22793   4.727  10.912   3.181  0.0938  0.1033 -0.2098
  166MOL0     O22794   4.702  10.943   3.037 -0.5598 -0.2256 -0.3264
  166MOL0     C22795   4.638  10.858   2.955  0.3877  0.3411  0.3358
  166MOL0     C22796   4.645  10.879   2.817  0.0320  0.1975  0.1643
  166MOL0     C22797   4.562  10.806   2.728 -0.3523  0.0355 -0.3198
  166MOL0     C22798   4.581  10.825   2.586 -0.6423 -0.2242  0.2076
  166MOL0     C22799   4.463  10.717   2.778 -0.9502  0.5341  0.0262
  166MOL0     C22800   4.372  10.643   2.690  0.4066  0.5959 -0.7478
  166MOL0     O22801   4.423  10.577   2.584  0.8136 -0.1263  0.0298
  166MOL0     C22802   4.347  10.474   2.536 -1.2590  0.4169  0.0676
  166MOL0     C22803   4.295  10.478   2.407  0.3571 -0.2385 -0.2745
  166MOL0     C22804   4.238  10.369   2.345  0.1647  0.0004  0.0587
  166MOL0     C22805   4.222  10.247   2.419  0.1332 -0.0455  0.3407
  166MOL0     O22806   4.170  10.135   2.367  0.2884  0.0680 -0.1628
  166MOL0     C22807   4.049  10.158   2.297 -0.6901  0.0528 -0.4264
  166MOL0     C22808   3.959  10.031   2.268 -0.1593  0.2535 -0.1817
  166MOL0     C22809   4.024   9.908   2.214 -0.3714  1.0264 -0.2193
  166MOL0     C22810   4.086   9.914   2.064  0.6346 -0.4196 -0.6645
  166MOL0     C22811   4.132   9.769   2.027 -0.3882 -1.0036 -0.9460
  166MOL0     C22812   4.029   9.657   2.024  0.0351 -0.4236  0.1705
  166MOL0     C22813   3.908   9.655   1.926  0.2643  0.3405  0.1373
  166MOL0     C22814   3.955   9.626   1.780 -0.0089 -0.5665  0.3258
  166MOL0    Cl22815   4.057   9.758   1.694 -0.4021 -0.1446  0.3734
  166MOL0     C22816   4.270  10.239   2.550 -0.6827  0.0654 -0.1555
  166MOL0     C22817   4.328  10.353   2.610 -0.0182  0.2449 -0.4913
  166MOL0     O22818   4.257  10.615   2.739  0.8506 -1.0194 -0.2681
  166MOL0     C22819   4.456  10.696   2.913 -0.8199  0.1685 -1.0796
  166MOL0     C22820   4.548  10.759   3.004 -0.1863 -1.1563  0.6588
  166MOL0     N22821   5.212  11.315   3.206 -0.2414 -0.4669  0.4368
  166MOL0     N22822   5.330  11.309   3.149  1.0072  0.4544  0.1685
  166MOL0     C22823   4.952  10.888   2.453  0.2041  0.4509 -0.4498
  166MOL0     C22824   4.930  10.875   2.320 -0.1613 -0.7170  0.1464
  166MOL0     C22825   5.020  10.671   1.911  0.3040 -0.1774 -0.1297
  166MOL0     C22826   4.893  10.634   1.867 -0.4712 -0.5774  0.1891
  166MOL0     C22827   4.863  10.596   1.741 -0.1334  0.4852  0.7118
  166MOL0     C22828   4.970  10.579   1.649 -0.7937 -0.1451 -0.3877
  166MOL0     O22829   4.928  10.526   1.533 -0.0525  0.0734  0.0192
  166MOL0     C22830   5.034  10.486   1.439 -0.1631 -0.9670 -0.4152
  166MOL0     C22831   4.963  10.403   1.335 -0.4525 -0.3062 -0.3825
  166MOL0     C22832   5.061  10.359   1.226 -0.3787 -0.1827 -0.3050
  166MOL0     C22833   5.019  10.254   1.122  0.2821 -1.2369 -0.9591
  166MOL0     C22834   4.951  10.141   1.184 -0.3434 -1.5405  0.4597
  166MOL0     C22835   4.888  10.058   1.240 -0.3110  0.9076 -1.0773
  166MOL0     C22836   5.105  10.607   1.690 -0.3771 -0.7999 -0.4065
  166MOL0     C22837   5.128  10.656   1.821 -0.2333 -0.0304 -0.6407
  166MOL0     C22838   5.281  10.671   1.847  0.2783 -0.6915 -0.3148
  166MOL0     H22839   4.920  10.548   2.286 -0.6352  0.8298 -1.0196
  166MOL0     H22840   4.911  10.559   2.537 -1.3277 -3.0416 -5.3713
  166MOL0     H22841   5.005  10.603   2.738 -1.1568  0.1533 -1.2567
  166MOL0     H22842   4.841  10.654   2.769  0.5027 -1.3970 -0.2134
  166MOL0     H22843   4.893  10.810   2.934 -0.8659  0.5672 -2.2692
  166MOL0     H22844   4.988  10.664   2.982  1.8144 -2.3099 -3.1390
  166MOL0     H22845   5.057  10.932   2.876 -1.4350  0.1203  0.5631
  166MOL0     H22846   5.124  10.844   3.022 -0.4237 -0.3100 -0.2183
  166MOL0     H22847   5.235  10.696   2.837 -0.0121 -0.7659  0.5808
  166MOL0     H22848   5.211  10.826   2.727 -3.0761  0.4774 -0.0361
  166MOL0     H22849   5.433  10.851   2.849 -0.5812 -0.2629 -1.9486
  166MOL0     H22850   5.329  10.891   2.999  0.5934 -2.4671 -0.4658
  166MOL0     H22851   5.336  11.037   2.744  3.8077  1.5074 -0.3374
  166MOL0     H22852   5.244  11.078   2.892  1.2762  1.5249 -0.0370
  166MOL0     H22853   5.437  11.219   2.884  0.1804  0.0294 -0.7858
  166MOL0     H22854   5.547  11.071   2.866 -1.3151 -1.0043 -1.8100
  166MOL0     H22855   5.490  11.021   3.105  4.9654  1.4011  0.2879
  166MOL0     H22856   5.553  11.178   3.088  1.3552 -1.2154 -0.3141
  166MOL0     H22857   5.228  10.987   3.165  0.3224  0.1210  2.8182
  166MOL0     H22858   4.952  11.235   3.309 -0.3828 -1.4414  3.8247
  166MOL0     H22859   5.036  11.106   3.375  0.7154  2.3425  0.3834
  166MOL0     H22860   4.933  11.108   3.086  0.1880 -1.0708 -0.1402
  166MOL0     H22861   4.988  10.966   3.172 -1.6734 -0.6408 -1.7990
  166MOL0     H22862   4.797  11.042   3.344  3.7994  2.1236 -0.7767
  166MOL0     H22863   4.742  11.123   3.187  0.7154  1.5865  1.3935
  166MOL0     H22864   4.789  10.822   3.190 -2.5632 -1.9738 -1.3301
  166MOL0     H22865   4.636  10.882   3.234  1.4821 -0.5385  1.9555
  166MOL0     H22866   4.704  10.963   2.783 -2.2750  2.4527  1.4073
  166MOL0     H22867   4.595  10.735   2.526  0.3826 -0.5243  0.8839
  166MOL0     H22868   4.664  10.893   2.565  0.7430 -2.0216 -0.3772
  166MOL0     H22869   4.490  10.864   2.538 -0.6868  0.7270  1.0442
  166MOL0     H22870   4.305  10.575   2.359 -1.0731 -0.9061 -2.0321
  166MOL0     H22871   4.214  10.385   2.241 -1.4613  1.9552  0.6663
  166MOL0     H22872   3.991  10.223   2.362  1.7212 -1.1371  3.1909
  166MOL0     H22873   4.061  10.198   2.196 -0.8585 -1.0615 -0.9029
  166MOL0     H22874   3.910  10.002   2.361 -2.5170 -2.7162 -2.1737
  166MOL0     H22875   3.873  10.058   2.206 -0.8490 -0.1160  0.5915
  166MOL0     H22876   3.956   9.822   2.210  1.0513 -0.1828  0.6037
  166MOL0     H22877   4.109   9.879   2.276 -0.8354  0.3316  0.1061
  166MOL0     H22878   4.166   9.988   2.063  0.2941 -0.0497 -0.5563
  166MOL0     H22879   3.995   9.917   2.003 -1.9059 -1.9395  2.6717
  166MOL0     H22880   4.188   9.784   1.934  1.4495  0.7785  0.3430
  166MOL0     H22881   4.199   9.740   2.109 -1.2290  1.2358  0.6342
  166MOL0     H22882   3.969   9.643   2.115 -0.0759  1.4938  0.4331
  166MOL0     H22883   4.089   9.567   2.008 -0.0219 -0.0550 -2.5408
  166MOL0     H22884   3.843   9.744   1.930 -1.8601 -1.1575  2.6942
  166MOL0     H22885   3.844   9.575   1.964  0.6314  0.4238  0.9648
  166MOL0     H22886   3.868   9.602   1.720 -1.1857 -0.4329  1.9191
  166MOL0     H22887   4.019   9.538   1.793  3.8986  2.1548  1.7691
  166MOL0     H22888   4.256  10.152   2.613  0.2218 -0.6165 -0.8603
  166MOL0     H22889   4.373  10.343   2.708  0.7349  0.1521 -0.8368
  166MOL0     H22890   4.382  10.631   2.957 -0.3383  0.5376  0.3247
  166MOL0     H22891   4.532  10.752   3.111 -1.4284  1.9544  0.7708
  166MOL0     H22892   4.977  10.986   2.493  2.7662 -0.4577  0.3454
  166MOL0     H22893   4.932  10.962   2.255 -0.0848 -1.9057 -1.5025
  166MOL0     H22894   4.804  10.642   1.930 -1.0790  1.0248 -0.8177
  166MOL0     H22895   4.758  10.575   1.722 -0.2690  0.3452  1.6135
  166MOL0     H22896   5.090  10.567   1.391  1.6320 -0.4186  2.3705
  166MOL0     H22897   5.121  10.428   1.472  1.5132  0.9101 -1.2633
  166MOL0     H22898   4.872  10.447   1.292 -0.2570  0.1096 -0.3716
  166MOL0     H22899   4.932  10.315   1.392 -1.2049 -0.2794 -0.7353
  166MOL0     H22900   5.095  10.447   1.172 -0.1807  0.3504  0.6687
  166MOL0     H22901   5.147  10.310   1.273  0.5845 -1.2633 -2.9932
  166MOL0     H22902   5.105  10.225   1.061  1.0366  1.1976 -1.1486
  166MOL0     H22903   4.957  10.302   1.047 -1.4342 -1.3719  0.3146
  166MOL0     H22904   4.823   9.998   1.300 -2.3817  3.1467 -0.9209
  166MOL0     H22905   5.194  10.600   1.628  1.6162  3.8886  1.4224
  166MOL0     H22906   5.307  10.693   1.951 -1.9783 -2.5999  0.7316
  166MOL0     H22907   5.340  10.582   1.819  1.8380  0.8877 -2.4096
  166MOL0     H22908   5.329  10.750   1.789  0.3893  0.3304  1.1343
  167MOL0     O22909   9.891   0.172  11.165 -0.7247  0.1191 -0.3209
  167MOL0     C22910   9.911   0.089  11.256  0.3935  0.3023 -0.4753
  167MOL0     O22911  10.012   0.006  11.255 -0.2799 -0.3842  0.1466
  167MOL0     C22912  10.094   0.008  11.148  0.6192  0.5984  0.0355
  167MOL0     C22913  10.054  -0.024  11.019  0.5137 -0.1068  0.3463
  167MOL0     C22914  10.150  -0.054  10.918 -0.0598  0.2890 -0.5884
  167MOL0     C22915  10.288  -0.032  10.939 -0.7781 -0.1632  0.1934
  167MOL0     O22916  10.391  -0.040  10.846 -0.1480 -0.6849 -0.0088
  167MOL0     C22917  10.435   0.080  10.798 -1.1763 -0.2576  0.4685
  167MOL0     C22918  10.501   0.072  10.660  0.2963  0.2880 -0.0052
  167MOL0     C22919  10.398   0.034  10.549  0.6121 -0.7782 -0.0949
  167MOL0     C22920  10.313   0.153  10.495  1.0458  0.1386 -0.3987
  167MOL0     C22921  10.202   0.110  10.396 -0.1234 -0.0536  0.3748
  167MOL0     C22922  10.118   0.224  10.346  1.0256 -0.1768 -0.6230
  167MOL0     C22923   9.986   0.174  10.288 -0.8623 -0.8390  0.0072
  167MOL0     C22924   9.904   0.286  10.220 -0.2158  0.1406  0.3592
  167MOL0     N22925   9.875   0.409  10.298  0.3295 -0.1085 -0.3810
  167MOL0     C22926   9.838   0.404  10.431 -0.8519  0.4101  0.1314
  167MOL0     C22927   9.859   0.532  10.470 -0.1312 -0.9482 -0.3279
  167MOL0     C22928   9.819   0.589  10.603  0.2090  0.1549  0.2491
  167MOL0     C22929   9.746   0.720  10.576 -0.1890  0.4987  0.0357
  167MOL0     C22930   9.614   0.705  10.496 -0.0786  0.9482  0.1954
  167MOL0     C22931   9.504   0.670  10.592 -0.8185 -0.2352 -0.6070
  167MOL0     O22932   9.472   0.779  10.672  0.0005  0.7992  0.1827
  167MOL0     C22933   9.381   0.761  10.777  0.2656 -0.2323  0.8706
  167MOL0     C22934   9.279   0.657  10.784 -1.0701  0.5096  0.5342
  167MOL0     C22935   9.176   0.662  10.877 -0.8972 -0.1335 -0.1712
  167MOL0     C22936   9.081   0.545  10.869  0.3305 -0.8409 -0.4913
  167MOL0     C22937   9.192   0.765  10.980 -0.3474 -0.2523 -0.6088
  167MOL0     C22938   9.117   0.762  11.111 -0.0180 -0.6822 -0.2005
  167MOL0     O22939   9.098   0.882  11.187  0.5616 -0.0312  0.6275
  167MOL0     C22940   9.015   0.881  11.297  1.1076 -0.4430  0.6219
  167MOL0     C22941   9.053   0.830  11.427  0.8316 -0.1218 -0.0978
  167MOL0     C22942   8.971   0.837  11.538  0.6793  0.8530 -0.6495
  167MOL0     C22943   8.850   0.896  11.526 -0.3254 -0.3560 -0.8072
  167MOL0     O22944   8.778   0.925  11.642 -0.8096  0.1969  0.1409
  167MOL0     C22945   8.635   0.910  11.644 -0.6942  0.0645  0.4478
  167MOL0     C22946   8.604   0.924  11.793  0.3794  1.2366  1.4134
  167MOL0     C22947   8.460   0.944  11.833  0.2676  0.2718  0.0664
  167MOL0     C22948   8.416   1.081  11.824 -0.1940  0.5141 -0.1450
  167MOL0     C22949   8.272   1.100  11.883  0.2276  0.1395  0.3376
  167MOL0     C22950   8.226   1.246  11.877  0.3747  0.2373  0.4802
  167MOL0     C22951   8.076   1.268  11.882 -0.4884 -0.2842 -0.3344
  167MOL0     C22952   8.030   1.418  11.889 -0.7624  0.0257 -0.2101
  167MOL0    Cl22953   8.080   1.508  11.737 -0.1003 -0.1406 -0.2670
  167MOL0     C22954   8.806   0.946  11.399 -0.0035 -0.0457  0.2934
  167MOL0     C22955   8.884   0.929  11.287 -0.8374  0.6625  0.2207
  167MOL0     O22956   9.092   0.650  11.155 -0.1105  0.2784 -0.0122
  167MOL0     C22957   9.287   0.864  10.967  0.6605  0.3950 -0.9259
  167MOL0     C22958   9.381   0.861  10.867 -0.5205 -0.6328 -0.2995
  167MOL0     N22959   9.912   0.599  10.370  0.4827 -0.0926  1.1257
  167MOL0     N22960   9.916   0.537  10.266  0.5037  1.2661  0.2358
  167MOL0     C22961  10.321   0.014  11.067 -0.3906 -0.0796 -0.6628
  167MOL0     C22962  10.230   0.032  11.171  0.1895  0.3122 -0.3248
  167MOL0     C22963   9.809   0.060  11.360 -0.6209 -0.2187  0.0583
  167MOL0     C22964   9.796  -0.066  11.417  0.0323  0.9112  0.4203
  167MOL0     C22965   9.700  -0.108  11.507  0.5705 -0.7033  0.4249
  167MOL0     C22966   9.622  -0.013  11.562 -0.3228 -0.7757 -0.2238
  167MOL0     O22967   9.529  -0.047  11.657 -0.6675 -0.2208  0.8999
  167MOL0     C22968   9.407  -0.076  11.592  0.7208 -0.7470 -1.3452
  167MOL0     C22969   9.332  -0.195  11.648 -0.6891 -1.1695 -0.7220
  167MOL0     C22970   9.193  -0.212  11.591 -0.8526 -0.6550 -0.0766
  167MOL0     C22971   9.137  -0.357  11.611  0.5146 -0.5147  0.2288
  167MOL0     C22972   8.995  -0.352  11.575 -0.6529 -0.1815  0.3674
  167MOL0     C22973   8.889  -0.310  11.537  0.6014  0.9846 -0.1469
  167MOL0     C22974   9.637   0.123  11.517  0.1033  0.0335 -0.6094
  167MOL0     C22975   9.727   0.156  11.415 -0.0171 -1.1329  0.1669
  167MOL0     C22976   9.744   0.304  11.384  0.5632 -0.4669  0.0378
  167MOL0     H22977   9.950  -0.032  10.989  0.3179  1.9489  0.3164
  167MOL0     H22978  10.119  -0.070  10.816  0.0004  3.0290 -1.1125
  167MOL0     H22979  10.505   0.119  10.871  2.4670 -2.7535 -1.3741
  167MOL0     H22980  10.345   0.141  10.782 -0.9621 -0.8050 -4.2978
  167MOL0     H22981  10.554   0.167  10.646 -3.2972  3.9166  6.4787
  167MOL0     H22982  10.572  -0.011  10.663  0.5228  0.5029  0.7311
  167MOL0     H22983  10.452  -0.021  10.470 -0.6384 -1.3998 -0.5414
  167MOL0     H22984  10.335  -0.035  10.606  3.8168 -2.5177  1.6463
  167MOL0     H22985  10.263   0.200  10.579  0.9309  1.8206 -1.3624
  167MOL0     H22986  10.372   0.232  10.448  2.6434 -0.6461  0.2130
  167MOL0     H22987  10.141   0.031  10.441 -1.6374  0.6192 -0.4323
  167MOL0     H22988  10.246   0.072  10.303  0.3529 -0.9868  0.9627
  167MOL0     H22989  10.095   0.299  10.424  0.7381 -1.1310  0.2304
  167MOL0     H22990  10.172   0.272  10.265 -0.8121 -0.1466 -1.8873
  167MOL0     H22991   9.911   0.135  10.359 -0.4444  0.2800  1.1078
  167MOL0     H22992  10.013   0.091  10.222  1.6248 -2.0167  2.3278
  167MOL0     H22993   9.966   0.318  10.135  2.0147 -3.2864  0.5256
  167MOL0     H22994   9.808   0.248  10.183 -0.2839  0.5282  0.1287
  167MOL0     H22995   9.783   0.326  10.484 -0.6419  0.8350  1.0006
  167MOL0     H22996   9.905   0.628  10.658  1.0559 -2.0359  0.5923
  167MOL0     H22997   9.763   0.523  10.671  3.1530 -2.5479  0.2726
  167MOL0     H22998   9.719   0.773  10.668 -1.2494  1.0088 -0.5387
  167MOL0     H22999   9.809   0.794  10.526  0.5211  0.2653  0.5853
  167MOL0     H23000   9.589   0.797  10.442  0.4040  0.5240 -0.7835
  167MOL0     H23001   9.636   0.620  10.431 -0.4422 -1.9632  3.5727
  167MOL0     H23002   9.410   0.643  10.544 -3.3960  0.5109  3.5987
  167MOL0     H23003   9.542   0.588  10.653  0.6458  2.9581  3.2177
  167MOL0     H23004   9.266   0.597  10.695  0.8980  1.8646 -0.7535
  167MOL0     H23005   9.083   0.490  10.774 -0.8381  0.0512 -1.0737
  167MOL0     H23006   8.983   0.590  10.886  1.5158  1.8078 -0.1359
  167MOL0     H23007   9.098   0.473  10.948  1.5917  2.6915  2.7563
  167MOL0     H23008   9.148   0.779  11.437 -0.1866 -1.6690  2.3892
  167MOL0     H23009   9.019   0.814  11.633 -2.2608 -2.4477  0.2543
  167MOL0     H23010   8.592   0.990  11.582 -1.4872  1.0300  2.1843
  167MOL0     H23011   8.604   0.816  11.598 -1.1159  1.0084 -1.3276
  167MOL0     H23012   8.625   0.830  11.845  0.2913  1.1799  1.3471
  167MOL0     H23013   8.653   1.012  11.835  0.6980  1.4791  0.5557
  167MOL0     H23014   8.445   0.911  11.936  3.0286 -1.5828 -0.0050
  167MOL0     H23015   8.395   0.903  11.755  2.4068  1.5948 -2.6267
  167MOL0     H23016   8.414   1.112  11.720  1.3422 -0.5735 -0.5265
  167MOL0     H23017   8.485   1.148  11.876  0.1431  0.8814 -1.0551
  167MOL0     H23018   8.195   1.043  11.830 -1.4750  3.3257 -0.9496
  167MOL0     H23019   8.273   1.058  11.984  0.5900 -3.6834 -1.1174
  167MOL0     H23020   8.258   1.279  11.778 -1.5059  3.2780  0.7623
  167MOL0     H23021   8.276   1.303  11.956 -3.3214  0.1402  3.1471
  167MOL0     H23022   8.037   1.222  11.973  1.5601  2.1397  1.9248
  167MOL0     H23023   8.023   1.213  11.803 -2.6604  0.4139  0.5632
  167MOL0     H23024   8.080   1.472  11.970 -0.4074  1.7886 -1.5528
  167MOL0     H23025   7.924   1.425  11.914 -0.6506  0.6039  0.1241
  167MOL0     H23026   8.715   1.006  11.398 -0.0523 -0.0539 -2.5947
  167MOL0     H23027   8.857   0.955  11.185  3.6294 -0.9775 -1.6267
  167MOL0     H23028   9.294   0.946  11.038  2.0640  0.3439 -0.9819
  167MOL0     H23029   9.447   0.946  10.860  2.2569 -2.3890  2.0115
  167MOL0     H23030  10.419   0.052  11.093  0.6235 -3.4731  1.1336
  167MOL0     H23031  10.264   0.082  11.261  0.6223  1.8063 -1.2923
  167MOL0     H23032   9.848  -0.141  11.357  1.5435  1.7313  0.6430
  167MOL0     H23033   9.687  -0.212  11.534  0.3044 -0.7848 -0.0168
  167MOL0     H23034   9.342   0.010  11.612  0.6248 -1.2993  1.0093
  167MOL0     H23035   9.419  -0.092  11.485 -3.1173 -2.5863 -1.6371
  167MOL0     H23036   9.319  -0.172  11.755 -0.4341  4.5084 -1.6000
  167MOL0     H23037   9.396  -0.281  11.630 -0.4042 -0.5637 -2.8581
  167MOL0     H23038   9.126  -0.141  11.639 -0.0416  0.0778 -0.0022
  167MOL0     H23039   9.184  -0.183  11.486 -1.6208 -0.8770 -0.0812
  167MOL0     H23040   9.157  -0.388  11.714  0.5893 -2.4144 -0.3005
  167MOL0     H23041   9.198  -0.425  11.549  0.9776 -1.4959  1.7075
  167MOL0     H23042   8.803  -0.270  11.486 -1.4878  1.0249  3.1164
  167MOL0     H23043   9.591   0.205  11.571  1.9535  1.4009 -1.0037
  167MOL0     H23044   9.702   0.361  11.467  0.9467 -2.9353  2.0725
  167MOL0     H23045   9.852   0.323  11.382  0.0997  2.6299 -1.1396
  167MOL0     H23046   9.697   0.332  11.290 -0.2692  5.0139  1.7044
  168MOL0     O23047   6.969   8.826   0.817  0.0370 -0.0031  0.1921
  168MOL0     C23048   6.996   8.751   0.726  0.3857  0.3581  0.0201
  168MOL0     O23049   7.042   8.619   0.752  0.3877 -0.5471  0.4385
  168MOL0     C23050   7.103   8.586   0.866  0.2256  0.3703  0.7900
  168MOL0     C23051   7.114   8.446   0.882  0.6497 -1.2236 -0.3710
  168MOL0     C23052   7.158   8.397   1.011 -0.4485  0.2827  0.2190
  168MOL0     C23053   7.179   8.471   1.119  0.0473 -0.9234 -0.1562
  168MOL0     O23054   7.219   8.426   1.247 -0.0087 -0.1247 -0.2838
  168MOL0     C23055   7.337   8.341   1.239  0.2766 -0.2981 -0.7118
  168MOL0     C23056   7.423   8.350   1.358 -0.2002 -0.0428 -1.4864
  168MOL0     C23057   7.469   8.495   1.378 -0.1530  0.2559  0.6011
  168MOL0     C23058   7.560   8.490   1.507  0.6665 -0.0332 -0.5800
  168MOL0     C23059   7.606   8.637   1.531 -0.4274  0.3090  0.0280
  168MOL0     C23060   7.680   8.641   1.658  0.1331  0.5423 -0.1972
  168MOL0     C23061   7.734   8.777   1.692  0.2858  0.0390  0.3847
  168MOL0     C23062   7.812   8.778   1.836  0.3018 -0.4729  0.0161
  168MOL0     N23063   7.716   8.804   1.946  0.8715  0.7914  0.1330
  168MOL0     C23064   7.629   8.709   1.997  0.1799  0.5623 -0.7260
  168MOL0     C23065   7.556   8.784   2.083  0.4282  0.8660 -0.1230
  168MOL0     C23066   7.453   8.743   2.183  1.0899  0.1772  0.6269
  168MOL0     C23067   7.322   8.711   2.113  0.3476  0.3621  0.4552
  168MOL0     C23068   7.230   8.831   2.074  1.1758  1.7589  1.1703
  168MOL0     C23069   7.099   8.789   2.016 -0.4875  0.1239 -0.2111
  168MOL0     O23070   7.132   8.743   1.882 -0.0553  0.4493 -0.0418
  168MOL0     C23071   7.035   8.744   1.780  1.2098 -0.3727 -1.5693
  168MOL0     C23072   7.076   8.708   1.650  0.7907 -0.7419 -0.6050
  168MOL0     C23073   6.981   8.700   1.550 -0.3293 -0.7706  0.5063
  168MOL0     C23074   7.034   8.653   1.416  0.1306 -0.2660 -0.6743
  168MOL0     C23075   6.844   8.729   1.578 -0.0833 -0.0956  0.1925
  168MOL0     C23076   6.736   8.743   1.473 -0.5687 -0.2874 -0.0876
  168MOL0     O23077   6.761   8.760   1.345 -0.0147 -0.0547  0.2550
  168MOL0     C23078   6.765   8.884   1.279 -0.2468  0.2941  0.4215
  168MOL0     C23079   6.727   9.006   1.334 -0.5648 -0.1926 -0.5612
  168MOL0     C23080   6.741   9.120   1.251  0.6215  0.2108 -0.5352
  168MOL0     C23081   6.789   9.116   1.126 -0.7004 -0.1736  0.8270
  168MOL0     O23082   6.825   9.224   1.038  0.2651  0.0848 -0.0617
  168MOL0     C23083   6.734   9.336   1.042 -0.2298 -0.0122  0.1358
  168MOL0     C23084   6.722   9.413   0.911  0.4675  0.1878  0.2428
  168MOL0     C23085   6.637   9.540   0.928 -0.0888  0.0088 -0.2508
  168MOL0     C23086   6.608   9.599   0.790  0.8035 -0.5160 -0.4590
  168MOL0     C23087   6.536   9.739   0.801 -0.1805  1.0255 -0.1057
  168MOL0     C23088   6.627   9.854   0.842  0.0125 -0.9271  0.5839
  168MOL0     C23089   6.576  10.004   0.845 -0.5254  0.5217 -0.4106
  168MOL0     C23090   6.455  10.018   0.938 -0.4176  0.4347  0.1536
  168MOL0    Cl23091   6.399  10.180   0.938  0.0733 -0.2246 -0.3790
  168MOL0     C23092   6.829   8.988   1.070 -0.5772 -1.2624 -0.1719
  168MOL0     C23093   6.813   8.876   1.147 -0.0178  0.1715  0.3109
  168MOL0     O23094   6.622   8.737   1.510 -0.4043 -0.3549  0.0624
  168MOL0     C23095   6.807   8.755   1.716  0.0448  0.4925  0.3452
  168MOL0     C23096   6.898   8.765   1.812 -0.5139 -0.3085 -0.5040
  168MOL0     N23097   7.607   8.914   2.088 -0.8607 -0.0605 -0.1148
  168MOL0     N23098   7.703   8.923   2.006  0.0732  0.3577 -0.7294
  168MOL0     C23099   7.170   8.617   1.100 -0.3774  0.0732  0.2466
  168MOL0     C23100   7.144   8.668   0.969  0.5863 -0.7577 -0.1108
  168MOL0     C23101   6.984   8.814   0.587  0.0156  0.7003  0.3327
  168MOL0     C23102   6.933   8.946   0.582 -0.2827  0.1729  0.1855
  168MOL0     C23103   6.908   8.998   0.460  0.5036 -0.0739  1.0346
  168MOL0     C23104   6.930   8.935   0.337  0.1228 -0.8504  0.4345
  168MOL0     O23105   6.909   9.005   0.217  0.8166  0.0253 -0.5727
  168MOL0     C23106   6.868   8.925   0.095 -0.8510 -0.5190 -0.5699
  168MOL0     C23107   6.821   9.014  -0.020 -0.0535  0.1231 -0.4770
  168MOL0     C23108   6.926   9.111  -0.079 -0.0762 -0.1512 -0.2061
  168MOL0     C23109   6.865   9.174  -0.208  0.0655 -0.1294  0.4026
  168MOL0     C23110   6.929   9.302  -0.233 -0.1399  0.1990  0.1642
  168MOL0     C23111   6.957   9.418  -0.250 -0.8898 -0.0997  0.9610
  168MOL0     C23112   6.980   8.813   0.340  0.8876  0.0352  0.3077
  168MOL0     C23113   7.010   8.745   0.461  1.0321 -0.8194  0.0468
  168MOL0     C23114   7.052   8.601   0.451  1.1144 -0.1147  0.0701
  168MOL0     H23115   7.098   8.378   0.798  1.8508 -2.6422  0.4978
  168MOL0     H23116   7.160   8.290   1.031 -1.2688  0.7999  3.7532
  168MOL0     H23117   7.401   8.385   1.161 -2.8816  0.4341 -3.0671
  168MOL0     H23118   7.308   8.239   1.212  0.3201 -1.8444  4.0984
  168MOL0     H23119   7.356   8.318   1.438 -0.4861  0.5836 -1.4684
  168MOL0     H23120   7.511   8.285   1.360 -1.0126 -1.1537 -0.3183
  168MOL0     H23121   7.525   8.527   1.291 -0.8461  0.3086  0.1653
  168MOL0     H23122   7.381   8.560   1.388 -1.7602 -1.7129 -0.1416
  168MOL0     H23123   7.497   8.450   1.587  1.1129  1.6383  0.6866
  168MOL0     H23124   7.652   8.433   1.499  1.4749  0.8982  1.2561
  168MOL0     H23125   7.525   8.709   1.539  0.0824  0.7751  1.1883
  168MOL0     H23126   7.672   8.671   1.450 -0.6652  1.7088  0.3985
  168MOL0     H23127   7.618   8.592   1.734  1.3084 -3.1622 -1.4268
  168MOL0     H23128   7.768   8.576   1.656 -2.3580 -3.1607 -0.8757
  168MOL0     H23129   7.665   8.861   1.682  0.3805  0.0075 -0.7713
  168MOL0     H23130   7.808   8.798   1.614  0.2029 -0.0268  0.2872
  168MOL0     H23131   7.867   8.688   1.864  3.5684  0.7246 -1.9970
  168MOL0     H23132   7.891   8.852   1.842  1.8584 -2.1142  0.6645
  168MOL0     H23133   7.611   8.603   1.991 -0.2479  0.7032 -2.4952
  168MOL0     H23134   7.435   8.825   2.254 -0.7177  0.1306  0.2882
  168MOL0     H23135   7.485   8.655   2.239 -1.2733 -1.3872 -0.2999
  168MOL0     H23136   7.332   8.657   2.018 -1.5232  1.1452 -0.2459
  168MOL0     H23137   7.269   8.641   2.179 -0.0889  0.6066  0.3664
  168MOL0     H23138   7.192   8.883   2.162 -1.4182 -0.4739  1.5034
  168MOL0     H23139   7.287   8.891   2.004  2.3871 -1.6207 -0.9771
  168MOL0     H23140   7.055   8.719   2.087 -1.3562 -0.0243 -0.8682
  168MOL0     H23141   7.043   8.883   2.011  1.0762  1.0967 -0.0433
  168MOL0     H23142   7.174   8.670   1.626  1.2688  0.8858 -1.3626
  168MOL0     H23143   6.966   8.589   1.360 -0.9879  1.1100 -0.9294
  168MOL0     H23144   7.128   8.597   1.431  1.7649  2.5643  0.4206
  168MOL0     H23145   7.048   8.743   1.355 -3.9135  2.1813  1.5885
  168MOL0     H23146   6.671   9.011   1.427  0.5561 -0.8675  0.1711
  168MOL0     H23147   6.702   9.217   1.282  2.2142  0.9396 -0.6729
  168MOL0     H23148   6.633   9.307   1.072  0.2391 -1.4930  0.3663
  168MOL0     H23149   6.768   9.408   1.117  1.9091  1.2838 -1.9346
  168MOL0     H23150   6.824   9.439   0.881  1.7406 -3.3253  1.0520
  168MOL0     H23151   6.689   9.338   0.839  3.8835  0.5084 -1.8822
  168MOL0     H23152   6.691   9.611   0.992  0.1878 -0.9656  0.6243
  168MOL0     H23153   6.542   9.517   0.976 -0.3691  1.4300 -0.0587
  168MOL0     H23154   6.538   9.532   0.740 -1.6430 -1.0564  3.2351
  168MOL0     H23155   6.698   9.624   0.733  0.4922  1.1591 -0.2674
  168MOL0     H23156   6.488   9.755   0.704 -0.9688 -1.1135 -0.1203
  168MOL0     H23157   6.457   9.726   0.876  1.4349  0.9513  1.6619
  168MOL0     H23158   6.718   9.864   0.782  1.1025 -3.2155  1.7043
  168MOL0     H23159   6.676   9.837   0.938  5.0720 -1.8750 -1.8474
  168MOL0     H23160   6.560  10.028   0.739  1.9424  0.5574 -0.8289
  168MOL0     H23161   6.649  10.078   0.879 -1.6425  1.1247  0.7528
  168MOL0     H23162   6.476   9.981   1.039  0.2000  2.7449  0.9335
  168MOL0     H23163   6.376   9.959   0.890 -0.5845  1.7243 -1.2389
  168MOL0     H23164   6.895   8.966   0.987  0.7503 -0.3385  0.6166
  168MOL0     H23165   6.848   8.783   1.105 -0.2167  0.3437 -0.2398
  168MOL0     H23166   6.701   8.778   1.726 -0.0317  0.1084  0.4368
  168MOL0     H23167   6.869   8.817   1.903  2.8120  0.8069  0.0690
  168MOL0     H23168   7.179   8.682   1.187 -0.0087 -0.3382  0.5194
  168MOL0     H23169   7.141   8.775   0.949 -0.6079 -0.2861  2.2081
  168MOL0     H23170   6.941   9.006   0.673 -2.2739 -2.0092  1.9425
  168MOL0     H23171   6.871   9.098   0.439  4.1196  1.2768  0.4063
  168MOL0     H23172   6.959   8.872   0.066 -0.5844 -0.4129  0.0608
  168MOL0     H23173   6.794   8.851   0.125 -1.4075  0.1602 -0.2381
  168MOL0     H23174   6.741   9.077   0.022  0.6853  0.6480  0.1687
  168MOL0     H23175   6.781   8.952  -0.101 -0.3770 -0.9002  0.4357
  168MOL0     H23176   6.943   9.182   0.002 -2.0165 -1.2452  1.2558
  168MOL0     H23177   7.019   9.061  -0.105 -1.0873 -0.1219 -4.6267
  168MOL0     H23178   6.758   9.192  -0.194  0.2107 -0.3685  2.0677
  168MOL0     H23179   6.875   9.110  -0.295 -1.4023 -0.3926  0.4016
  168MOL0     H23180   7.014   9.509  -0.258 -1.3320  0.1048  0.0342
  168MOL0     H23181   7.005   8.761   0.249  0.1617  0.6923 -0.2838
  168MOL0     H23182   7.039   8.552   0.354  1.1969 -0.9098  0.4536
  168MOL0     H23183   7.160   8.598   0.470  1.1578  1.5397  0.2284
  168MOL0     H23184   6.996   8.542   0.524 -0.5023  0.9803 -0.2480
  169MOL0     O23185   6.142   9.365  11.398 -0.7257  0.6667 -0.0486
  169MOL0     C23186   6.136   9.410  11.286 -0.7079  0.5888 -0.3702
  169MOL0     O23187   6.246   9.459  11.223 -0.0029 -0.1563 -0.0304
  169MOL0     C23188   6.364   9.496  11.282  0.4556 -0.1631 -0.4138
  169MOL0     C23189   6.462   9.497  11.191 -0.3101 -0.2206  0.5286
  169MOL0     C23190   6.591   9.521  11.232  0.3379  0.3297 -0.1154
  169MOL0     C23191   6.623   9.556  11.363 -0.6297  0.5198 -0.4988
  169MOL0     O23192   6.759   9.578  11.387 -0.7538 -0.3733 -0.6673
  169MOL0     C23193   6.798   9.642  11.511  0.2763 -1.1341 -0.2653
  169MOL0     C23194   6.946   9.673  11.481  0.6831  0.8801 -0.5907
  169MOL0     C23195   7.014   9.791  11.560 -1.0082 -0.0186  0.7640
  169MOL0     C23196   7.144   9.829  11.491  0.0294  0.3106 -0.0402
  169MOL0     C23197   7.253   9.718  11.500 -0.3555 -0.4325 -0.3688
  169MOL0     C23198   7.385   9.768  11.437 -0.7753  0.0089  0.3902
  169MOL0     C23199   7.486   9.656  11.453 -0.0036 -0.0499  0.7794
  169MOL0     C23200   7.522   9.627  11.598 -0.8048  0.0356  0.8578
  169MOL0     N23201   7.566   9.751  11.669  0.4058 -0.1534  0.8542
  169MOL0     C23202   7.667   9.843  11.635 -0.0660  0.9573 -0.1400
  169MOL0     C23203   7.653   9.937  11.738 -0.0352  0.6701  0.9678
  169MOL0     C23204   7.750  10.044  11.774  0.2780 -0.2827  1.0300
  169MOL0     C23205   7.736  10.171  11.687  0.4615 -0.3143 -0.5999
  169MOL0     C23206   7.840  10.281  11.715 -0.0497  0.0966 -0.5018
  169MOL0     C23207   7.776  10.381  11.812  0.0345  0.0239 -0.5611
  169MOL0     O23208   7.889  10.476  11.849  0.2473 -0.7810  0.1259
  169MOL0     C23209   7.846  10.562  11.951  0.9198  0.1803 -0.2268
  169MOL0     C23210   7.903  10.554  12.068 -0.1521 -0.2751  0.0376
  169MOL0     C23211   7.869  10.654  12.158 -0.8631  0.3354  0.8428
  169MOL0     C23212   7.955  10.654  12.279 -0.3775  0.1960  0.3417
  169MOL0     C23213   7.768  10.750  12.129  0.6243 -0.1898 -0.8248
  169MOL0     C23214   7.716  10.848  12.232 -0.4687 -0.3761 -0.7097
  169MOL0     O23215   7.646  10.953  12.180 -0.4306  0.1114  0.1259
  169MOL0     C23216   7.579  11.041  12.267  0.5148  0.1791 -0.1743
  169MOL0     C23217   7.434  11.037  12.278 -0.6726 -0.4541  0.1157
  169MOL0     C23218   7.365  11.119  12.367 -0.5353 -0.4882 -0.2792
  169MOL0     C23219   7.434  11.189  12.466  0.6971 -0.3005 -0.5707
  169MOL0     O23220   7.374  11.240  12.579 -0.4629 -0.0318 -0.2259
  169MOL0     C23221   7.232  11.228  12.592 -1.1988  0.8174  0.4683
  169MOL0     C23222   7.191  11.282  12.735 -0.2895  0.6686 -0.3689
  169MOL0     C23223   7.212  11.434  12.727 -0.5065 -0.2610  0.1147
  169MOL0     C23224   7.228  11.495  12.866  0.5041  0.4102  0.4592
  169MOL0     C23225   7.082  11.519  12.916  0.5476  0.2285 -0.9356
  169MOL0     C23226   7.078  11.550  13.069  0.2754 -0.1246  0.4010
  169MOL0     C23227   6.932  11.561  13.122  0.2685 -0.0963  0.1102
  169MOL0     C23228   6.877  11.706  13.095 -0.0567 -0.3087  0.1262
  169MOL0    Cl23229   6.971  11.810  13.192  0.2105  0.6688 -0.1992
  169MOL0     C23230   7.571  11.194  12.456 -0.1352 -0.8027  0.4368
  169MOL0     C23231   7.641  11.134  12.348 -0.8435  0.4534  0.2184
  169MOL0     O23232   7.730  10.821  12.348  1.0240  0.6019  0.4627
  169MOL0     C23233   7.701  10.744  12.009 -0.2383 -0.1683 -1.3233
  169MOL0     C23234   7.742  10.654  11.911  0.1214  0.4166  0.2416
  169MOL0     N23235   7.538   9.912  11.811 -0.1327  0.3106  0.2221
  169MOL0     N23236   7.488   9.804  11.765 -0.0154  0.1408  0.1628
  169MOL0     C23237   6.517   9.562  11.460 -0.1807 -0.8270  0.1733
  169MOL0     C23238   6.384   9.526  11.420  0.1573  0.8882 -0.3515
  169MOL0     C23239   6.020   9.388  11.202 -0.9094 -0.4998 -0.1597
  169MOL0     C23240   6.039   9.400  11.060  0.0910 -0.1877 -0.5065
  169MOL0     C23241   5.936   9.380  10.974  0.4670 -0.3508  0.2589
  169MOL0     C23242   5.813   9.341  11.022 -0.0972 -0.3900 -0.2403
  169MOL0     O23243   5.715   9.303  10.935 -0.4515  0.9159  0.2929
  169MOL0     C23244   5.667   9.171  10.955 -0.6534  0.6209 -0.2396
  169MOL0     C23245   5.598   9.119  10.828 -0.2134  0.1527  0.4989
  169MOL0     C23246   5.679   9.102  10.704  0.4757  0.7034 -0.4783
  169MOL0     C23247   5.595   9.064  10.586  0.2669  0.2877  0.2405
  169MOL0     C23248   5.498   9.168  10.548  0.3884  0.2766  0.4659
  169MOL0     C23249   5.423   9.253  10.508 -0.0312  0.5064  0.3815
  169MOL0     C23250   5.791   9.334  11.163  0.1822 -0.2066  0.2804
  169MOL0     C23251   5.895   9.353  11.249  0.5238 -0.3999 -0.5357
  169MOL0     C23252   5.853   9.332  11.401 -0.1601 -0.3122 -0.1877
  169MOL0     H23253   6.439   9.483  11.086  0.6468  0.8944  0.1436
  169MOL0     H23254   6.667   9.526  11.155 -1.3384  3.4241 -1.7615
  169MOL0     H23255   6.799   9.573  11.596 -3.5228 -2.9925 -1.5081
  169MOL0     H23256   6.733   9.728  11.529 -0.3078 -1.4797 -0.6884
  169MOL0     H23257   7.008   9.586  11.506 -3.1458 -1.0502  3.4469
  169MOL0     H23258   6.953   9.694  11.374  4.1854  1.6932 -0.3502
  169MOL0     H23259   6.941   9.873  11.555 -0.5358  0.4924  1.9570
  169MOL0     H23260   7.041   9.769  11.664  0.5504  4.4812  1.5483
  169MOL0     H23261   7.119   9.851  11.387 -1.3095 -0.6820  0.0394
  169MOL0     H23262   7.193   9.916  11.533  0.5228 -0.1512  0.3531
  169MOL0     H23263   7.222   9.623  11.455  0.8240 -1.1080  0.1844
  169MOL0     H23264   7.267   9.704  11.608 -5.0557 -0.1030  0.4994
  169MOL0     H23265   7.363   9.789  11.332 -0.8938 -2.1319 -0.0572
  169MOL0     H23266   7.415   9.868  11.471 -2.4264  2.1075 -3.5425
  169MOL0     H23267   7.573   9.680  11.391 -2.4959  1.0011 -2.6346
  169MOL0     H23268   7.443   9.562  11.417  0.2698 -0.0216  0.3693
  169MOL0     H23269   7.440   9.590  11.661  1.0214 -0.9512  2.7754
  169MOL0     H23270   7.595   9.546  11.594  1.0595  1.6854 -2.1622
  169MOL0     H23271   7.734   9.837  11.550 -0.7370  0.9959 -0.6885
  169MOL0     H23272   7.852  10.006  11.763  0.8043  1.2638  0.2307
  169MOL0     H23273   7.735  10.077  11.877 -3.2355 -1.5151  1.0296
  169MOL0     H23274   7.746  10.150  11.581 -0.6842  1.6670 -1.1589
  169MOL0     H23275   7.631  10.201  11.701  1.0624  0.7839  2.2891
  169MOL0     H23276   7.927  10.243  11.769 -0.0860  1.8793  0.9117
  169MOL0     H23277   7.878  10.337  11.629  3.7034  3.2600  2.8366
  169MOL0     H23278   7.698  10.438  11.761 -0.0027  1.9533  1.5266
  169MOL0     H23279   7.722  10.332  11.894 -1.6322 -1.6945 -2.5418
  169MOL0     H23280   7.986  10.492  12.099 -0.0271  1.1430  2.8917
  169MOL0     H23281   7.963  10.758  12.312  3.2146 -0.2114  1.0958
  169MOL0     H23282   8.057  10.618  12.260  0.1813  2.0941 -0.4465
  169MOL0     H23283   7.918  10.584  12.355 -1.1539  0.5820  0.3317
  169MOL0     H23284   7.385  10.955  12.228  0.2641 -0.8063 -0.2453
  169MOL0     H23285   7.257  11.104  12.359 -0.4412 -0.0135 -4.1376
  169MOL0     H23286   7.189  11.284  12.509  0.9214 -0.5802 -1.7074
  169MOL0     H23287   7.194  11.126  12.585  0.1304  0.3371 -0.1862
  169MOL0     H23288   7.089  11.244  12.747  0.3139 -0.9981 -0.2663
  169MOL0     H23289   7.254  11.231  12.809 -0.8505  1.2243  0.5109
  169MOL0     H23290   7.124  11.470  12.674 -0.5937 -1.9036 -0.9317
  169MOL0     H23291   7.292  11.462  12.658 -1.0196  0.3098 -0.2500
  169MOL0     H23292   7.292  11.583  12.862 -2.2294  2.5270 -0.0402
  169MOL0     H23293   7.281  11.422  12.927  0.0409 -1.1913 -0.9745
  169MOL0     H23294   7.032  11.598  12.860 -2.7222 -0.9541  0.1055
  169MOL0     H23295   7.018  11.432  12.903 -0.2287  0.8611 -1.3801
  169MOL0     H23296   7.147  11.634  13.084  2.1738 -0.6857 -3.7148
  169MOL0     H23297   7.136  11.467  13.111 -0.8488 -0.9212  0.4278
  169MOL0     H23298   6.923  11.541  13.229  0.0257 -0.1603  0.0791
  169MOL0     H23299   6.869  11.487  13.070  0.0491 -0.8396  1.3819
  169MOL0     H23300   6.771  11.706  13.120  0.1071  0.2995  0.8507
  169MOL0     H23301   6.882  11.725  12.987 -0.6631 -3.1811 -0.4887
  169MOL0     H23302   7.626  11.249  12.532 -1.2420 -1.6259  1.9092
  169MOL0     H23303   7.749  11.140  12.350 -0.8156 -0.1467  0.8353
  169MOL0     H23304   7.622  10.816  11.992 -1.5367 -0.1951  3.2499
  169MOL0     H23305   7.693  10.644  11.814 -0.1912 -2.1522  0.5891
  169MOL0     H23306   6.541   9.590  11.562 -0.7739 -0.1876  0.1440
  169MOL0     H23307   6.304   9.527  11.494 -0.9089  1.8899 -1.4646
  169MOL0     H23308   6.139   9.415  11.021 -0.5022  5.4075 -0.6683
  169MOL0     H23309   5.975   9.359  10.875  1.4756  0.6447  0.4179
  169MOL0     H23310   5.755   9.107  10.967  0.2541  1.9820  0.6701
  169MOL0     H23311   5.602   9.163  11.043 -0.3097 -0.6173 -0.0838
  169MOL0     H23312   5.512   9.183  10.805  2.3400  3.4506 -0.6151
  169MOL0     H23313   5.572   9.017  10.860 -1.7118  1.0189  2.2009
  169MOL0     H23314   5.738   9.190  10.679  0.8143  1.5617  2.7997
  169MOL0     H23315   5.734   9.008  10.718 -1.5287 -0.8892 -2.6127
  169MOL0     H23316   5.533   8.975  10.598 -1.7904  1.1152 -2.9562
  169MOL0     H23317   5.649   9.035  10.496 -1.4260  0.4086 -0.8620
  169MOL0     H23318   5.349   9.320  10.469 -1.5057  0.5011  2.9902
  169MOL0     H23319   5.691   9.305  11.193  0.4007 -0.8359  0.3994
  169MOL0     H23320   5.747   9.304  11.411  0.1743 -0.7293  3.2627
  169MOL0     H23321   5.906   9.244  11.439 -0.2177 -0.8517 -1.2967
  169MOL0     H23322   5.868   9.422  11.461  1.7738 -1.3162  0.9205
  170MOL0     O23323  10.370   3.683   3.192 -0.5662  0.4278 -0.4512
  170MOL0     C23324  10.441   3.602   3.259  0.2444  0.5887  0.2625
  170MOL0     O23325  10.433   3.467   3.242  0.1177  0.3420 -0.1408
  170MOL0     C23326  10.339   3.431   3.156  0.4224  0.2709 -0.0367
  170MOL0     C23327  10.381   3.432   3.021  0.9468 -0.0492  0.3084
  170MOL0     C23328  10.286   3.382   2.923 -0.2905 -0.6479  0.9093
  170MOL0     C23329  10.158   3.333   2.962 -0.0503 -0.1573 -0.2272
  170MOL0     O23330  10.057   3.290   2.883  0.4531  0.3557 -0.9922
  170MOL0     C23331  10.074   3.301   2.743 -0.1991  0.1615 -0.4290
  170MOL0     C23332  10.083   3.439   2.684  0.6896 -0.0326 -1.1178
  170MOL0     C23333   9.947   3.516   2.690  0.0272  0.3882  0.1349
  170MOL0     C23334   9.962   3.655   2.630  0.2397  0.1376  0.5146
  170MOL0     C23335   9.822   3.728   2.619 -0.3289  0.1744  0.1982
  170MOL0     C23336   9.718   3.665   2.536 -0.2586  0.4015 -0.2288
  170MOL0     C23337   9.590   3.758   2.518 -1.0757 -0.2926 -0.8406
  170MOL0     C23338   9.537   3.825   2.639 -0.2496 -0.1921 -0.5992
  170MOL0     N23339   9.488   3.723   2.734  0.6216 -0.5954  0.0101
  170MOL0     C23340   9.535   3.692   2.853  0.3424 -0.1986  0.0987
  170MOL0     C23341   9.462   3.598   2.908  0.2730  0.2887  0.6911
  170MOL0     C23342   9.502   3.528   3.040  0.7254 -0.0836  0.3957
  170MOL0     C23343   9.368   3.477   3.113  0.2200 -0.1030  0.0149
  170MOL0     C23344   9.396   3.416   3.244  0.3059  0.9079  0.0715
  170MOL0     C23345   9.484   3.488   3.348  0.5510  0.1669  0.2522
  170MOL0     O23346   9.538   3.379   3.420  0.2391 -0.6014  0.8618
  170MOL0     C23347   9.666   3.389   3.453 -0.5169  0.7608 -0.0818
  170MOL0     C23348   9.742   3.273   3.458 -0.6019  0.5427 -0.6343
  170MOL0     C23349   9.872   3.267   3.503 -1.2544 -0.4784 -0.3589
  170MOL0     C23350   9.952   3.146   3.485  0.1584 -0.1671  0.7130
  170MOL0     C23351   9.926   3.387   3.550  0.7681  0.0447  0.4585
  170MOL0     C23352  10.069   3.401   3.582  1.4558  0.0638  0.7420
  170MOL0     O23353  10.136   3.286   3.618  0.1718  0.0532 -0.6171
  170MOL0     C23354  10.268   3.289   3.650 -0.1418 -0.8095 -0.9232
  170MOL0     C23355  10.375   3.259   3.557  0.0245  0.0905 -0.3328
  170MOL0     C23356  10.510   3.272   3.594  0.5556 -0.0899  0.0002
  170MOL0     C23357  10.544   3.298   3.727  0.6141 -0.8415 -1.8664
  170MOL0     O23358  10.673   3.302   3.770 -0.2644  0.5507 -0.5474
  170MOL0     C23359  10.765   3.369   3.685 -0.3022  0.1284  0.2395
  170MOL0     C23360  10.883   3.290   3.652  0.1737  1.1114  0.6555
  170MOL0     C23361  10.974   3.278   3.775  0.0723  0.3934 -0.0137
  170MOL0     C23362  11.115   3.310   3.746  0.4070  0.2056 -0.3401
  170MOL0     C23363  11.211   3.284   3.864  0.6230 -0.1498 -0.7233
  170MOL0     C23364  11.220   3.386   3.975 -0.4808 -0.1216  0.6980
  170MOL0     C23365  11.318   3.357   4.079 -1.0228  0.8413 -0.3424
  170MOL0     C23366  11.428   3.460   4.098 -0.1606 -0.0568 -0.0384
  170MOL0    Cl23367  11.561   3.430   3.979  0.9586 -0.1754 -0.2344
  170MOL0     C23368  10.440   3.330   3.817  0.3253  0.5055  0.0228
  170MOL0     C23369  10.304   3.322   3.778  0.5801  1.2745 -0.3787
  170MOL0     O23370  10.112   3.514   3.581 -0.0769  1.0312  0.2642
  170MOL0     C23371   9.855   3.501   3.559  0.3490 -0.5627 -0.0618
  170MOL0     C23372   9.722   3.504   3.512  0.4598 -0.2669 -0.4447
  170MOL0     N23373   9.360   3.570   2.816  0.7568 -1.0867  0.3464
  170MOL0     N23374   9.382   3.643   2.713 -0.5551 -0.1413  0.7813
  170MOL0     C23375  10.131   3.327   3.096  0.6450  0.0724  0.9069
  170MOL0     C23376  10.220   3.366   3.196  0.6013  0.1295  0.7756
  170MOL0     C23377  10.516   3.656   3.370 -0.5356  0.5509  0.4117
  170MOL0     C23378  10.492   3.607   3.501 -0.4530  0.2548 -0.6727
  170MOL0     C23379  10.565   3.659   3.609 -0.6366 -0.6606 -0.7288
  170MOL0     C23380  10.655   3.759   3.591  0.2905  0.1053  1.2106
  170MOL0     O23381  10.724   3.806   3.701 -0.0927  0.1401 -0.6948
  170MOL0     C23382  10.847   3.885   3.685 -0.3806 -0.2890 -0.0275
  170MOL0     C23383  10.958   3.799   3.612  0.0111 -0.3161 -0.6227
  170MOL0     C23384  11.092   3.868   3.609  0.4804  0.4231  0.9660
  170MOL0     C23385  11.186   3.822   3.493  0.3056  0.0543  0.2669
  170MOL0     C23386  11.261   3.697   3.532  0.5844 -0.3471  0.1534
  170MOL0     C23387  11.326   3.591   3.546 -1.0010 -0.2238  0.3461
  170MOL0     C23388  10.680   3.808   3.459  0.3309  0.3061 -0.2898
  170MOL0     C23389  10.609   3.763   3.349  0.3264 -0.1996 -1.2986
  170MOL0     C23390  10.629   3.819   3.215  0.0847  0.4731  0.3066
  170MOL0     H23391  10.475   3.480   2.999  0.4319  2.4977  3.0729
  170MOL0     H23392  10.310   3.386   2.817 -2.3726  1.8823  0.4475
  170MOL0     H23393   9.996   3.255   2.682  2.2913 -1.2565 -2.7796
  170MOL0     H23394  10.158   3.238   2.710 -1.2006 -2.2572  1.3861
  170MOL0     H23395  10.158   3.491   2.743 -1.3359  0.2773  1.3593
  170MOL0     H23396  10.114   3.438   2.579  2.0777 -1.6136 -0.7308
  170MOL0     H23397   9.878   3.458   2.628  0.1366  1.0964 -0.6626
  170MOL0     H23398   9.910   3.514   2.793  0.5547 -0.1594  0.3190
  170MOL0     H23399  10.029   3.716   2.692  2.1707 -0.4398 -0.9215
  170MOL0     H23400  10.013   3.649   2.534 -0.9219 -1.2481 -0.0569
  170MOL0     H23401   9.832   3.831   2.583 -0.2402 -0.8348 -3.0487
  170MOL0     H23402   9.782   3.724   2.721 -1.2318  1.5354 -0.0643
  170MOL0     H23403   9.761   3.650   2.437 -2.3573 -0.0634 -1.1152
  170MOL0     H23404   9.684   3.573   2.585 -2.1166  1.5342  0.7391
  170MOL0     H23405   9.511   3.694   2.477 -3.8484  1.9458  0.6755
  170MOL0     H23406   9.607   3.842   2.450 -1.0787  0.7749  0.4385
  170MOL0     H23407   9.606   3.893   2.689  0.9601  0.1066 -2.5826
  170MOL0     H23408   9.455   3.888   2.602  0.2039  0.3339 -0.7047
  170MOL0     H23409   9.620   3.736   2.904  0.9174 -0.7730 -0.3291
  170MOL0     H23410   9.550   3.602   3.104 -0.6959 -0.0146  1.4276
  170MOL0     H23411   9.583   3.454   3.035  5.0685  4.0661  2.0699
  170MOL0     H23412   9.292   3.556   3.115  1.1855  0.8402 -0.1637
  170MOL0     H23413   9.333   3.394   3.050  1.9723 -1.5433  0.8525
  170MOL0     H23414   9.299   3.389   3.287  0.6041 -0.3173  0.0212
  170MOL0     H23415   9.450   3.323   3.222 -0.8497 -0.0383  1.1009
  170MOL0     H23416   9.570   3.533   3.297  0.6553  0.1034  0.3725
  170MOL0     H23417   9.424   3.561   3.402 -0.0431 -0.4162  0.3898
  170MOL0     H23418   9.697   3.182   3.421  2.5409 -2.1692  1.5985
  170MOL0     H23419  10.040   3.161   3.421 -0.5042  0.9381  0.0198
  170MOL0     H23420   9.896   3.061   3.444  3.8708 -1.9191 -1.3085
  170MOL0     H23421   9.990   3.106   3.579 -0.3369  1.2941  1.5660
  170MOL0     H23422  10.367   3.247   3.449  0.9700  1.8087 -0.6321
  170MOL0     H23423  10.580   3.256   3.513 -1.1724 -0.0379 -1.5521
  170MOL0     H23424  10.726   3.390   3.585 -0.6561 -3.3311 -0.4665
  170MOL0     H23425  10.794   3.468   3.720  3.6397 -0.1384 -1.6727
  170MOL0     H23426  10.849   3.194   3.613 -3.2818  2.4211  0.0594
  170MOL0     H23427  10.949   3.331   3.575  1.1990  0.1061  0.9769
  170MOL0     H23428  10.961   3.173   3.803  0.7797  0.4223  0.4633
  170MOL0     H23429  10.935   3.344   3.853 -1.9390 -2.0851  1.2442
  170MOL0     H23430  11.117   3.415   3.714 -2.2605  0.3098 -0.4281
  170MOL0     H23431  11.141   3.254   3.655 -0.5979 -0.6345 -0.1323
  170MOL0     H23432  11.187   3.190   3.916 -2.5742  0.5625 -0.7218
  170MOL0     H23433  11.308   3.256   3.823  2.3664  2.6542  1.1223
  170MOL0     H23434  11.122   3.389   4.022 -3.0199 -0.3190 -4.0115
  170MOL0     H23435  11.248   3.484   3.934  0.3433 -0.5795  0.1337
  170MOL0     H23436  11.353   3.253   4.070 -1.4849  0.7650 -1.4590
  170MOL0     H23437  11.268   3.356   4.176  2.2448 -0.3613  1.4823
  170MOL0     H23438  11.466   3.433   4.197  2.2455  0.6067 -0.7145
  170MOL0     H23439  11.403   3.566   4.091  3.9753  1.0382 -1.2284
  170MOL0     H23440  10.460   3.367   3.917  1.4263 -0.4837  0.1886
  170MOL0     H23441  10.221   3.340   3.846 -0.0443 -1.3653 -0.3652
  170MOL0     H23442   9.889   3.594   3.602  0.3896  0.3997 -2.0445
  170MOL0     H23443   9.666   3.597   3.509  0.8784  0.0225  0.2679
  170MOL0     H23444  10.037   3.284   3.128  0.1609  1.4818  1.4512
  170MOL0     H23445  10.192   3.364   3.301 -4.0500 -0.3407 -0.2904
  170MOL0     H23446  10.423   3.526   3.522  1.4257 -1.4039 -0.4908
  170MOL0     H23447  10.540   3.615   3.705 -0.3598  1.2566  0.2778
  170MOL0     H23448  10.824   3.977   3.630  1.6620  0.5478  0.4395
  170MOL0     H23449  10.891   3.906   3.782 -0.5738  1.6722 -0.3294
  170MOL0     H23450  10.947   3.783   3.505  3.0874  3.8465 -1.8475
  170MOL0     H23451  10.966   3.704   3.665  1.2336 -0.0189 -0.2441
  170MOL0     H23452  11.058   3.968   3.582 -2.6466 -1.5505 -3.9309
  170MOL0     H23453  11.146   3.862   3.704  1.8251  1.4508  0.3077
  170MOL0     H23454  11.258   3.901   3.472  0.3438 -0.4985 -2.0367
  170MOL0     H23455  11.131   3.810   3.399  1.4776  0.5330 -0.5039
  170MOL0     H23456  11.381   3.499   3.552  2.3501  1.6871  1.7278
  170MOL0     H23457  10.756   3.882   3.436  1.6611 -0.4123  1.5259
  170MOL0     H23458  10.549   3.891   3.192  3.1460  3.2229 -2.8019
  170MOL0     H23459  10.722   3.872   3.193 -0.3139  1.4539  0.8723
  170MOL0     H23460  10.623   3.744   3.136 -0.3974  1.1734 -0.3413
  171MOL0     O23461   1.758  11.295   4.022  0.6897  0.1270 -1.1976
  171MOL0     C23462   1.774  11.249   4.131 -0.1352 -0.0868 -0.1952
  171MOL0     O23463   1.892  11.256   4.199 -0.9571  0.0429 -0.3066
  171MOL0     C23464   1.989  11.342   4.152 -0.7025  0.5787  0.1042
  171MOL0     C23465   2.037  11.440   4.245  0.1463  0.2842  0.1316
  171MOL0     C23466   2.150  11.517   4.224  0.0107  0.0668  1.1372
  171MOL0     C23467   2.225  11.495   4.105  0.9786 -0.2153  0.6754
  171MOL0     O23468   2.327  11.572   4.065  0.2632 -0.0999  0.8045
  171MOL0     C23469   2.389  11.671   4.151  0.6268 -0.2552  1.2461
  171MOL0     C23470   2.488  11.597   4.249 -0.1837  1.0431 -0.3922
  171MOL0     C23471   2.532  11.680   4.369 -0.0839 -0.3469  0.4344
  171MOL0     C23472   2.639  11.618   4.455  0.0566 -0.1675  0.3250
  171MOL0     C23473   2.777  11.654   4.416  0.9084 -0.2869  0.3460
  171MOL0     C23474   2.875  11.562   4.482  0.5015 -0.0618  0.3554
  171MOL0     C23475   2.882  11.423   4.426 -0.5233 -0.1936 -0.1174
  171MOL0     C23476   2.950  11.415   4.282 -0.3142  1.0847  0.7380
  171MOL0     N23477   3.082  11.462   4.283 -0.2395 -0.1547 -0.7039
  171MOL0     C23478   3.199  11.408   4.325 -0.1336  1.1162 -0.3392
  171MOL0     C23479   3.290  11.498   4.335  0.4169 -0.2966  0.4872
  171MOL0     C23480   3.438  11.470   4.373  0.9212 -0.2225  0.2763
  171MOL0     C23481   3.520  11.500   4.250  0.0450  0.8747 -0.6978
  171MOL0     C23482   3.673  11.481   4.266  0.1530  0.7372  0.1705
  171MOL0     C23483   3.722  11.349   4.298  0.2000  0.4549  0.6386
  171MOL0     O23484   3.679  11.321   4.435  0.2627  0.9878  0.3606
  171MOL0     C23485   3.725  11.192   4.462  0.0196 -0.2345 -0.8314
  171MOL0     C23486   3.682  11.075   4.391  0.0611 -1.4647 -0.5446
  171MOL0     C23487   3.746  10.952   4.400  0.9561  0.6663  0.3599
  171MOL0     C23488   3.712  10.844   4.304 -0.1675 -0.0961 -0.2147
  171MOL0     C23489   3.846  10.942   4.498 -0.4910 -0.8608 -1.0585
  171MOL0     C23490   3.918  10.808   4.499 -0.8534 -0.1349  0.0083
  171MOL0     O23491   3.837  10.702   4.520 -0.7044  0.5909 -0.3362
  171MOL0     C23492   3.896  10.577   4.526 -0.1514  0.1001 -0.0817
  171MOL0     C23493   3.976  10.544   4.632 -0.7673 -0.0606  0.2387
  171MOL0     C23494   4.047  10.419   4.627 -0.3803  0.0031 -0.0205
  171MOL0     C23495   4.020  10.320   4.527 -0.3839 -0.0698 -0.6926
  171MOL0     O23496   4.092  10.204   4.513  0.6223  0.4006 -0.5362
  171MOL0     C23497   4.165  10.154   4.625  0.7998  0.8696 -0.0361
  171MOL0     C23498   4.259  10.032   4.587  0.6286 -0.0294 -0.2866
  171MOL0     C23499   4.365  10.084   4.488  0.0673 -0.3368  0.1501
  171MOL0     C23500   4.470   9.989   4.441 -0.3422  0.2809 -0.0667
  171MOL0     C23501   4.409   9.885   4.354 -0.3018  0.0503  0.2334
  171MOL0     C23502   4.513   9.787   4.316  0.1650  0.0973  0.3793
  171MOL0     C23503   4.479   9.712   4.189  0.9126 -0.0251  0.5715
  171MOL0     C23504   4.592   9.610   4.151  0.1015  0.4200 -0.4914
  171MOL0    Cl23505   4.730   9.677   4.084  0.3412 -0.1995 -0.0556
  171MOL0     C23506   3.933  10.349   4.420  0.6477  0.1073  0.0733
  171MOL0     C23507   3.875  10.477   4.421 -0.0376  0.0478  0.3100
  171MOL0     O23508   4.039  10.806   4.484 -0.0443  0.1590  0.4066
  171MOL0     C23509   3.884  11.048   4.585  0.6609  0.1143  0.0674
  171MOL0     C23510   3.811  11.172   4.574 -0.2146  0.0673  0.8911
  171MOL0     N23511   3.245  11.617   4.280  0.7289 -0.5911 -0.9215
  171MOL0     N23512   3.120  11.592   4.254  0.2598 -0.1145 -0.0753
  171MOL0     C23513   2.162  11.423   4.001  0.1412 -0.3027  0.2819
  171MOL0     C23514   2.052  11.343   4.024  0.2103 -0.1444 -0.0798
  171MOL0     C23515   1.669  11.179   4.211 -0.2881 -0.0398 -0.4826
  171MOL0     C23516   1.699  11.123   4.342  0.6921 -0.4485 -0.5016
  171MOL0     C23517   1.607  11.046   4.413  0.3172 -0.6810  0.5582
  171MOL0     C23518   1.476  11.026   4.363  0.5213 -0.1620 -0.3781
  171MOL0     O23519   1.376  10.940   4.406 -0.2725 -0.8403  0.1151
  171MOL0     C23520   1.418  10.843   4.511 -0.1361  0.1672  0.3891
  171MOL0     C23521   1.308  10.844   4.619  0.0815 -0.6833 -0.2179
  171MOL0     C23522   1.293  10.981   4.689  0.2318  0.9068  0.7487
  171MOL0     C23523   1.171  10.980   4.784  0.3165  0.0053 -0.2107
  171MOL0     C23524   1.191  10.891   4.893  0.2481 -0.6968 -0.3307
  171MOL0     C23525   1.197  10.812   4.983 -0.2041 -0.0121  0.0018
  171MOL0     C23526   1.447  11.075   4.239 -0.5888 -0.4133  0.2342
  171MOL0     C23527   1.542  11.150   4.156  0.3244  0.2477  0.9175
  171MOL0     C23528   1.492  11.189   4.016 -0.7059 -0.2753 -0.8280
  171MOL0     H23529   1.985  11.448   4.341  1.2031 -0.7473  0.8207
  171MOL0     H23530   2.192  11.580   4.301 -2.3687 -0.4563  3.0114
  171MOL0     H23531   2.315  11.733   4.202 -0.9678 -2.6310  1.9565
  171MOL0     H23532   2.446  11.739   4.086 -0.0436 -0.7635  0.1093
  171MOL0     H23533   2.452  11.497   4.274 -0.0085  1.0797  0.0228
  171MOL0     H23534   2.579  11.585   4.191 -0.6699  3.9624 -1.9450
  171MOL0     H23535   2.563  11.779   4.334  0.3411 -0.7827 -0.4531
  171MOL0     H23536   2.447  11.690   4.437  0.7367  0.3952  1.3904
  171MOL0     H23537   2.629  11.650   4.559 -1.9661  1.5105 -0.3249
  171MOL0     H23538   2.627  11.509   4.459 -0.4262 -0.0907  1.6343
  171MOL0     H23539   2.809  11.757   4.433  1.5823 -0.3032 -0.6956
  171MOL0     H23540   2.787  11.649   4.307 -0.7319  0.9267  0.1129
  171MOL0     H23541   2.975  11.607   4.492 -1.1088  3.8163  1.1129
  171MOL0     H23542   2.857  11.556   4.590 -3.2299  2.3947  0.0697
  171MOL0     H23543   2.779  11.388   4.415 -1.0314  1.2967 -0.4928
  171MOL0     H23544   2.937  11.352   4.487 -0.4977 -1.8306 -1.9760
  171MOL0     H23545   2.948  11.309   4.252  4.0611  0.6140  1.4936
  171MOL0     H23546   2.884  11.471   4.215 -0.6355  0.9155  0.9091
  171MOL0     H23547   3.214  11.310   4.370 -4.3729  0.8533  0.9275
  171MOL0     H23548   3.446  11.373   4.422 -1.3742 -0.2294  0.7458
  171MOL0     H23549   3.458  11.557   4.437  0.8080  1.2752 -1.6202
  171MOL0     H23550   3.484  11.433   4.170 -1.4152  2.4067 -1.3833
  171MOL0     H23551   3.500  11.601   4.212  2.5800  1.6943 -0.0225
  171MOL0     H23552   3.729  11.514   4.178  0.8222  0.5431  0.5160
  171MOL0     H23553   3.708  11.551   4.342  0.9471 -0.3829  0.8686
  171MOL0     H23554   3.683  11.274   4.228 -0.5169 -1.6371  3.1268
  171MOL0     H23555   3.831  11.344   4.291  0.2117  2.2679 -1.4311
  171MOL0     H23556   3.605  11.090   4.316  1.5756  3.0422 -1.5033
  171MOL0     H23557   3.694  10.887   4.205 -5.3736 -2.4528 -0.5903
  171MOL0     H23558   3.626  10.784   4.336  0.0211 -0.9055 -1.1961
  171MOL0     H23559   3.796  10.774   4.295  0.9762  1.2090 -0.0764
  171MOL0     H23560   4.003  10.615   4.709  0.0924  0.7739 -0.7762
  171MOL0     H23561   4.108  10.397   4.713 -2.3059 -4.0990  0.5765
  171MOL0     H23562   4.232  10.229   4.668  1.2406  1.0633 -1.0342
  171MOL0     H23563   4.095  10.117   4.701  1.7190  0.0571  0.4396
  171MOL0     H23564   4.304   9.974   4.668  1.5568 -2.3035 -2.3132
  171MOL0     H23565   4.192   9.965   4.531  0.7183  0.7434 -1.3553
  171MOL0     H23566   4.419  10.168   4.533  0.3589 -0.5408  0.1851
  171MOL0     H23567   4.303  10.119   4.405 -0.3872 -1.7434 -0.1374
  171MOL0     H23568   4.526   9.948   4.525 -1.0342 -2.0460 -0.6763
  171MOL0     H23569   4.532  10.044   4.369 -3.2648  2.1585 -1.3496
  171MOL0     H23570   4.330   9.832   4.408  0.3789 -1.0444  0.1859
  171MOL0     H23571   4.367   9.936   4.267  1.8288  2.8224  0.7176
  171MOL0     H23572   4.527   9.714   4.396  3.5560  0.3100  0.1072
  171MOL0     H23573   4.609   9.836   4.302 -0.3083  2.0708  3.2575
  171MOL0     H23574   4.458   9.780   4.107  1.1371 -0.7942 -0.1456
  171MOL0     H23575   4.384   9.658   4.194 -0.3035  1.8956 -0.4621
  171MOL0     H23576   4.549   9.536   4.083 -1.5669  1.3897 -0.5589
  171MOL0     H23577   4.616   9.553   4.241  1.1537  1.5959  0.0096
  171MOL0     H23578   3.901  10.276   4.346 -2.1490  3.9640 -2.9249
  171MOL0     H23579   3.810  10.506   4.339 -1.8217 -1.4254  1.1094
  171MOL0     H23580   3.967  11.029   4.653  1.2867 -0.9426 -0.9453
  171MOL0     H23581   3.833  11.251   4.645 -3.6144  1.4576  0.5874
  171MOL0     H23582   2.199  11.420   3.899  0.2245  2.7335  0.1202
  171MOL0     H23583   2.012  11.282   3.944  1.3321  1.0468 -1.6118
  171MOL0     H23584   1.798  11.134   4.385  0.8658 -0.1422 -0.9704
  171MOL0     H23585   1.658  11.002   4.498  4.1103  2.2929  0.1068
  171MOL0     H23586   1.416  10.742   4.468  0.6799  0.7025 -0.9840
  171MOL0     H23587   1.515  10.856   4.559 -0.7287 -0.4446  1.8058
  171MOL0     H23588   1.342  10.779   4.700  1.0079  0.4109  0.3115
  171MOL0     H23589   1.214  10.812   4.573  0.4492 -2.6996  0.3455
  171MOL0     H23590   1.383  11.003   4.747  1.8618 -1.6275 -0.6211
  171MOL0     H23591   1.279  11.071   4.627 -1.4392  0.5925  0.6316
  171MOL0     H23592   1.076  10.957   4.734  0.2184 -6.8982  2.0980
  171MOL0     H23593   1.167  11.075   4.838 -0.4376 -0.9701  1.5255
  171MOL0     H23594   1.198  10.745   5.068 -0.5357 -0.9373 -0.6998
  171MOL0     H23595   1.347  11.058   4.201 -0.9849 -0.0930  1.1128
  171MOL0     H23596   1.468  11.296   4.020 -2.1282 -0.6119  2.5365
  171MOL0     H23597   1.569  11.169   3.942 -0.0203  3.3902 -1.3139
  171MOL0     H23598   1.396  11.145   3.986 -2.2447  1.9936  0.4071
  172MOL0     O23599   1.579   2.473   2.347 -0.1067 -0.0603  0.4907
  172MOL0     C23600   1.464   2.454   2.300 -0.4815 -0.6634  0.0290
  172MOL0     O23601   1.409   2.333   2.273  0.4835  0.0784  0.4359
  172MOL0     C23602   1.481   2.215   2.273 -0.4676  0.0283 -0.0692
  172MOL0     C23603   1.399   2.101   2.279 -0.1804 -0.0746  0.1275
  172MOL0     C23604   1.455   1.980   2.282  0.0259  0.4534  0.0425
  172MOL0     C23605   1.588   1.957   2.261 -0.0943 -0.2938 -0.7602
  172MOL0     O23606   1.641   1.834   2.247  0.4654  0.7020  0.0399
  172MOL0     C23607   1.751   1.808   2.160  0.5605 -0.1379  0.5043
  172MOL0     C23608   1.777   1.654   2.166 -0.6322 -0.8792  0.0561
  172MOL0     C23609   1.856   1.601   2.043  0.0937  0.2416  0.8659
  172MOL0     C23610   1.839   1.452   2.018 -0.5629 -0.3846  0.5311
  172MOL0     C23611   1.941   1.385   1.918  0.6130  0.1947  0.2152
  172MOL0     C23612   2.082   1.373   1.976  0.3128 -0.8352 -0.2063
  172MOL0     C23613   2.166   1.289   1.881  0.3683  0.3177  0.1806
  172MOL0     C23614   2.182   1.338   1.735  0.0222  0.5180 -0.1915
  172MOL0     N23615   2.275   1.260   1.659 -0.5901  0.3671  0.6099
  172MOL0     C23616   2.262   1.245   1.523  0.2753 -0.4027 -0.2297
  172MOL0     C23617   2.372   1.180   1.478  0.2516 -0.6770 -0.2902
  172MOL0     C23618   2.392   1.140   1.336  0.1028  0.8872  1.1166
  172MOL0     C23619   2.531   1.132   1.276 -0.6160  0.3177  0.0344
  172MOL0     C23620   2.563   1.232   1.161 -0.7104 -0.6998  0.2994
  172MOL0     C23621   2.696   1.205   1.101 -0.2752  0.3729 -0.2588
  172MOL0     O23622   2.692   1.309   1.003 -0.2876  0.1853 -0.0461
  172MOL0     C23623   2.807   1.339   0.934  0.4346 -0.3189 -0.9496
  172MOL0     C23624   2.926   1.255   0.938  0.3965  0.9882  0.1379
  172MOL0     C23625   3.045   1.288   0.872 -0.2898  0.3442 -0.3460
  172MOL0     C23626   3.169   1.207   0.904 -0.3863 -0.5820  0.2494
  172MOL0     C23627   3.046   1.405   0.790 -0.2913  0.0303 -0.2643
  172MOL0     C23628   3.174   1.451   0.719 -1.0236  0.6330 -0.2104
  172MOL0     O23629   3.171   1.584   0.686 -0.4633  0.3021  0.3884
  172MOL0     C23630   3.264   1.639   0.603  0.4695 -0.1605  0.6594
  172MOL0     C23631   3.395   1.589   0.580  0.6683 -0.2248  0.5066
  172MOL0     C23632   3.475   1.633   0.475 -0.1334 -0.3004 -0.5370
  172MOL0     C23633   3.439   1.752   0.411 -0.4053 -0.6665 -0.4853
  172MOL0     O23634   3.530   1.791   0.320 -0.9333 -0.0781  0.7893
  172MOL0     C23635   3.512   1.914   0.236 -0.7896  0.2893 -0.1408
  172MOL0     C23636   3.649   1.944   0.170  0.6747 -1.4349  1.5390
  172MOL0     C23637   3.693   1.847   0.057 -0.4014  0.2196  1.2079
  172MOL0     C23638   3.847   1.865   0.040  0.0187  0.0747  0.1321
  172MOL0     C23639   3.921   1.738  -0.022 -0.6183 -0.1877  0.0643
  172MOL0     C23640   4.068   1.762  -0.037  0.9864  0.0861 -0.2265
  172MOL0     C23641   4.163   1.765   0.091  0.4611 -0.1655  0.5589
  172MOL0     C23642   4.161   1.644   0.192  0.5463 -0.4090  0.7527
  172MOL0    Cl23643   4.029   1.683   0.295 -0.0896  0.5259  0.1603
  172MOL0     C23644   3.320   1.821   0.432  0.1394  0.3005 -0.0556
  172MOL0     C23645   3.240   1.758   0.535 -0.9670 -0.5169  0.0727
  172MOL0     O23646   3.255   1.363   0.681  0.8888  0.3677  0.3993
  172MOL0     C23647   2.934   1.491   0.792  0.4147  0.7928  0.0878
  172MOL0     C23648   2.823   1.460   0.865  0.9171 -0.1408  0.0765
  172MOL0     N23649   2.451   1.151   1.587 -0.0074 -0.1732  0.2718
  172MOL0     N23650   2.399   1.210   1.695 -1.4831  0.4013  0.3743
  172MOL0     C23651   1.665   2.068   2.233  0.7759  0.1605  0.1183
  172MOL0     C23652   1.617   2.204   2.242 -0.2421 -0.1257 -0.4242
  172MOL0     C23653   1.379   2.575   2.277 -1.2615  0.2803 -0.7899
  172MOL0     C23654   1.308   2.580   2.167 -0.2431  0.1727  0.6648
  172MOL0     C23655   1.228   2.694   2.131 -0.0612  0.1731  0.0280
  172MOL0     C23656   1.234   2.802   2.216  0.1059  0.1884  0.2546
  172MOL0     O23657   1.158   2.916   2.177 -0.4141 -0.3230  0.2146
  172MOL0     C23658   1.143   3.029   2.249  0.2432 -1.4405  0.0925
  172MOL0     C23659   1.015   3.098   2.199 -0.5380  0.6074 -0.2764
  172MOL0     C23660   0.896   3.021   2.251 -0.4336 -0.5071 -0.0437
  172MOL0     C23661   0.766   3.076   2.198 -0.4634  0.4320 -0.5332
  172MOL0     C23662   0.651   2.992   2.233  0.4250  0.4715 -0.2004
  172MOL0     C23663   0.547   2.925   2.259 -0.0467  0.0007 -0.2220
  172MOL0     C23664   1.306   2.799   2.335  0.0392 -0.3328 -0.5056
  172MOL0     C23665   1.384   2.690   2.363  0.1661  0.1439  0.6298
  172MOL0     C23666   1.450   2.674   2.500 -0.7003  0.7668 -0.1059
  172MOL0     H23667   1.295   2.122   2.298 -0.0588  1.9049 -1.0653
  172MOL0     H23668   1.396   1.891   2.300 -0.8231  0.6554 -1.5050
  172MOL0     H23669   1.838   1.866   2.194 -0.5771  0.6285  2.2730
  172MOL0     H23670   1.731   1.845   2.060  0.8872  0.2783  0.5916
  172MOL0     H23671   1.829   1.631   2.259 -0.5480 -1.7800 -0.2022
  172MOL0     H23672   1.681   1.603   2.170 -1.0760  0.0201  2.3299
  172MOL0     H23673   1.817   1.646   1.951  0.9010 -0.5058  0.1239
  172MOL0     H23674   1.964   1.616   2.057  0.2405  0.1465 -0.0352
  172MOL0     H23675   1.846   1.398   2.113 -0.1828 -0.3063  0.5490
  172MOL0     H23676   1.738   1.440   1.977  0.7234 -0.8072 -2.8528
  172MOL0     H23677   1.943   1.446   1.828 -0.4347 -0.2484 -0.1158
  172MOL0     H23678   1.909   1.282   1.898  2.6588 -0.5059  0.2717
  172MOL0     H23679   2.119   1.475   1.992  2.8936 -1.6342 -0.6764
  172MOL0     H23680   2.068   1.326   2.074 -1.3006  2.0547  1.1115
  172MOL0     H23681   2.131   1.185   1.886 -0.4326  0.5090 -0.9998
  172MOL0     H23682   2.269   1.297   1.917  0.1056  4.0197  0.4738
  172MOL0     H23683   2.087   1.324   1.682  0.1120  2.1317 -0.8351
  172MOL0     H23684   2.211   1.442   1.748 -0.0403  0.9530 -3.0581
  172MOL0     H23685   2.183   1.280   1.457 -0.4827 -0.0648  0.8350
  172MOL0     H23686   2.338   1.214   1.276 -0.9377 -0.8702 -0.2110
  172MOL0     H23687   2.356   1.037   1.322  4.2574 -0.4187 -2.0883
  172MOL0     H23688   2.609   1.129   1.353 -0.9055 -0.1697  0.3164
  172MOL0     H23689   2.542   1.036   1.225  2.5321  0.7729 -0.3470
  172MOL0     H23690   2.489   1.227   1.080 -0.0830 -1.0413 -0.2686
  172MOL0     H23691   2.558   1.329   1.211 -1.4276  0.2464 -1.5009
  172MOL0     H23692   2.786   1.207   1.164 -0.9761 -3.1781  1.0899
  172MOL0     H23693   2.693   1.110   1.047 -0.5812  0.1069  0.2237
  172MOL0     H23694   2.940   1.164   0.996  1.0033 -0.1077 -1.6388
  172MOL0     H23695   3.252   1.276   0.919  2.4123 -3.1724 -1.9596
  172MOL0     H23696   3.177   1.134   0.822 -0.7686  2.2170 -2.4632
  172MOL0     H23697   3.156   1.155   1.000  0.8999 -1.0776  0.1714
  172MOL0     H23698   3.439   1.505   0.633 -0.7507  0.3339  2.6773
  172MOL0     H23699   3.572   1.592   0.450 -0.2419  0.3139 -2.0648
  172MOL0     H23700   3.429   1.902   0.167 -1.5314 -3.0082  1.1178
  172MOL0     H23701   3.492   1.994   0.308 -1.3578 -1.7040  2.0571
  172MOL0     H23702   3.652   2.050   0.140  0.5003 -1.3170  1.9329
  172MOL0     H23703   3.715   1.933   0.256 -1.5735 -3.4429  3.1161
  172MOL0     H23704   3.652   1.872  -0.041  0.8349 -2.4251 -0.1010
  172MOL0     H23705   3.654   1.748   0.083 -3.8177  0.9471 -0.5936
  172MOL0     H23706   3.890   1.868   0.140  1.9139  0.3733 -0.6383
  172MOL0     H23707   3.866   1.954  -0.021  1.5171  1.1405  2.0322
  172MOL0     H23708   3.899   1.648   0.035  0.9633 -1.6028 -1.4672
  172MOL0     H23709   3.887   1.732  -0.125  0.8728 -0.3291 -0.4383
  172MOL0     H23710   4.080   1.855  -0.093 -1.4023  1.4728  1.3732
  172MOL0     H23711   4.106   1.677  -0.094 -0.3773 -0.0749 -0.9522
  172MOL0     H23712   4.145   1.863   0.137 -1.0451  0.3577 -1.0377
  172MOL0     H23713   4.265   1.778   0.054 -0.8921  1.1318 -3.2243
  172MOL0     H23714   4.245   1.623   0.258 -0.4945 -0.9346  1.9497
  172MOL0     H23715   4.129   1.562   0.126 -1.1779 -0.6834  1.8741
  172MOL0     H23716   3.293   1.912   0.380 -0.0079  0.9066  1.0561
  172MOL0     H23717   3.145   1.805   0.557 -1.5803 -2.1291  1.0143
  172MOL0     H23718   2.944   1.582   0.733  0.6962  0.5701 -0.2141
  172MOL0     H23719   2.735   1.522   0.851  0.7737  0.3019  2.4606
  172MOL0     H23720   1.771   2.074   2.209  0.2576  4.6698 -1.9738
  172MOL0     H23721   1.685   2.288   2.243  0.2120 -0.4807 -0.6856
  172MOL0     H23722   1.311   2.501   2.094 -0.2379 -0.3759  1.2538
  172MOL0     H23723   1.160   2.693   2.047 -1.0573 -1.1445  0.8211
  172MOL0     H23724   1.137   3.007   2.356  1.2384  2.2241  1.0102
  172MOL0     H23725   1.228   3.097   2.242  0.9528 -2.2672  0.4531
  172MOL0     H23726   1.008   3.105   2.090 -1.5706  0.8333 -0.2002
  172MOL0     H23727   1.027   3.201   2.233 -0.0647  1.6023 -3.1998
  172MOL0     H23728   0.899   2.916   2.221 -0.4816 -0.5970  0.2629
  172MOL0     H23729   0.885   3.031   2.359  2.6936 -0.4542  0.3506
  172MOL0     H23730   0.767   3.091   2.090  1.0002  2.4947 -0.2859
  172MOL0     H23731   0.754   3.176   2.242  0.5956 -0.2153  1.3578
  172MOL0     H23732   0.449   2.884   2.274 -0.4117  0.7932 -0.3536
  172MOL0     H23733   1.311   2.877   2.410  1.0147  1.2125 -2.0966
  172MOL0     H23734   1.445   2.771   2.551  0.7521  1.7167 -1.6474
  172MOL0     H23735   1.409   2.595   2.562 -0.9338  0.9976  0.0361
  172MOL0     H23736   1.556   2.649   2.503 -1.1587 -1.7125 -1.3781
  173MOL0     O23737   7.642   3.578   8.393 -0.7270  0.6732  0.2066
  173MOL0     C23738   7.581   3.681   8.401  0.7578  0.3910  0.2994
  173MOL0     O23739   7.571   3.781   8.306 -0.1276  0.3266  0.0946
  173MOL0     C23740   7.665   3.770   8.203 -0.3873  0.0377  0.2119
  173MOL0     C23741   7.806   3.739   8.226 -0.1137  1.2393 -0.2894
  173MOL0     C23742   7.905   3.739   8.121  0.7032  0.7297 -0.4765
  173MOL0     C23743   7.856   3.749   7.987  0.8161 -0.0933 -0.2335
  173MOL0     O23744   7.936   3.751   7.875 -0.3066  0.3605  0.5130
  173MOL0     C23745   8.084   3.751   7.887 -0.1925  0.2162  0.4350
  173MOL0     C23746   8.154   3.746   7.746  0.6340 -0.2552  0.4498
  173MOL0     C23747   8.118   3.619   7.661 -0.1712  0.2736  0.9740
  173MOL0     C23748   8.234   3.581   7.569 -0.5135 -0.3994 -0.9249
  173MOL0     C23749   8.188   3.450   7.503 -0.3694 -0.3625  0.4112
  173MOL0     C23750   8.300   3.387   7.410  0.0795  0.3112  0.8246
  173MOL0     C23751   8.236   3.268   7.331  0.7323 -0.2311 -0.9786
  173MOL0     C23752   8.334   3.179   7.262 -0.5214  0.0113  0.0988
  173MOL0     N23753   8.413   3.251   7.161 -0.0346  0.2707  0.5068
  173MOL0     C23754   8.541   3.281   7.191  1.1341 -0.8013 -0.0556
  173MOL0     C23755   8.584   3.353   7.090 -0.2815 -0.3959  0.5061
  173MOL0     C23756   8.722   3.403   7.057 -0.1520 -0.3771 -0.6891
  173MOL0     C23757   8.716   3.535   6.975 -0.4724  0.2320 -0.5623
  173MOL0     C23758   8.841   3.626   6.995 -0.7966  0.1801  0.5334
  173MOL0     C23759   8.973   3.548   6.964 -0.0133 -0.6386  0.1556
  173MOL0     O23760   9.074   3.627   7.026  0.4600 -0.7112 -0.3569
  173MOL0     C23761   9.202   3.621   6.970 -0.1197  0.4022 -0.7473
  173MOL0     C23762   9.279   3.740   6.982 -0.2081  0.8528 -0.2678
  173MOL0     C23763   9.400   3.746   6.918  0.5139  0.3784 -0.7947
  173MOL0     C23764   9.462   3.879   6.925  0.0289  0.2761  0.5922
  173MOL0     C23765   9.464   3.639   6.861 -0.1858  0.2119  0.2474
  173MOL0     C23766   9.591   3.645   6.778  0.3669  0.0800 -0.2295
  173MOL0     O23767   9.644   3.527   6.743  0.0867 -0.7722  0.1763
  173MOL0     C23768   9.768   3.507   6.690  0.1415  0.8282 -0.5269
  173MOL0     C23769   9.784   3.375   6.657 -1.1256  0.2973 -0.1506
  173MOL0     C23770   9.908   3.331   6.612 -0.4366 -0.1324  0.1276
  173MOL0     C23771  10.022   3.422   6.602 -0.3020 -0.1925  0.2644
  173MOL0     O23772  10.151   3.387   6.561 -1.2172 -0.1380  0.1370
  173MOL0     C23773  10.190   3.246   6.572 -0.9403  0.0555  0.2874
  173MOL0     C23774  10.335   3.242   6.552 -0.0056 -1.0699 -0.1589
  173MOL0     C23775  10.399   3.097   6.557 -0.3823 -0.6320  0.2275
  173MOL0     C23776  10.395   3.026   6.695  0.4808  0.0202 -0.0746
  173MOL0     C23777  10.439   2.875   6.687  0.5637  0.5726 -0.6085
  173MOL0     C23778  10.430   2.822   6.829  0.7647  0.3724  0.1459
  173MOL0     C23779  10.501   2.685   6.843  2.1729  0.6334 -0.1272
  173MOL0     C23780  10.538   2.644   6.984  0.4208 -0.0840  0.5293
  173MOL0    Cl23781  10.403   2.678   7.108  0.0163  0.0163 -0.0379
  173MOL0     C23782  10.002   3.555   6.632  0.0155 -1.1842  0.2690
  173MOL0     C23783   9.876   3.601   6.674  0.7949 -0.1682 -0.0340
  173MOL0     O23784   9.642   3.756   6.741  0.3926 -0.4631  1.0295
  173MOL0     C23785   9.398   3.513   6.872  0.2924  0.5161 -0.8896
  173MOL0     C23786   9.264   3.509   6.919 -0.1824 -0.4814 -0.2516
  173MOL0     N23787   8.480   3.366   6.995 -0.6731 -0.1955  0.4792
  173MOL0     N23788   8.377   3.305   7.039  0.2844  0.3485  0.6918
  173MOL0     C23789   7.719   3.768   7.965 -0.0682  0.6225  0.1465
  173MOL0     C23790   7.625   3.777   8.070 -0.1417  0.4448 -0.7815
  173MOL0     C23791   7.494   3.711   8.520 -0.5124  0.5185  0.5809
  173MOL0     C23792   7.386   3.811   8.520  0.8513  0.3857  0.3579
  173MOL0     C23793   7.292   3.825   8.626 -0.1007 -0.4290  0.3607
  173MOL0     C23794   7.334   3.773   8.746 -0.4635  0.4572  0.0192
  173MOL0     O23795   7.248   3.757   8.857  0.7518  0.1810  0.0157
  173MOL0     C23796   7.156   3.862   8.897 -0.8280  0.3281  0.2490
  173MOL0     C23797   7.252   3.932   8.998 -0.4674 -0.3880 -0.1095
  173MOL0     C23798   7.288   3.851   9.122 -1.0885 -0.0968 -0.4698
  173MOL0     C23799   7.387   3.944   9.203 -0.0041 -0.2641  0.8027
  173MOL0     C23800   7.521   3.941   9.143 -0.2528 -0.5799  0.5883
  173MOL0     C23801   7.636   3.931   9.091 -0.4031  0.3369 -0.1016
  173MOL0     C23802   7.444   3.693   8.748  0.0455  0.2005  0.7593
  173MOL0     C23803   7.523   3.657   8.645 -0.3667 -0.6577  0.3422
  173MOL0     C23804   7.635   3.558   8.664 -0.7031 -0.2760 -0.4476
  173MOL0     H23805   7.845   3.729   8.327 -1.0891  0.5372  0.0391
  173MOL0     H23806   8.011   3.723   8.140  0.6353 -2.8703 -2.2252
  173MOL0     H23807   8.128   3.669   7.945  3.0022 -1.4510 -3.8215
  173MOL0     H23808   8.112   3.841   7.942  0.4381  0.0824  0.3418
  173MOL0     H23809   8.147   3.845   7.700  2.5639 -0.2018  0.1826
  173MOL0     H23810   8.260   3.730   7.765  0.3226 -1.8838  1.0284
  173MOL0     H23811   8.091   3.541   7.733  1.2128 -0.0196  1.2211
  173MOL0     H23812   8.035   3.644   7.595  2.1117  2.9049 -1.1598
  173MOL0     H23813   8.259   3.663   7.502 -1.4217 -0.7420 -1.7095
  173MOL0     H23814   8.332   3.558   7.612 -0.4790 -3.1949 -2.2577
  173MOL0     H23815   8.096   3.471   7.447  0.1764  1.1235  0.0348
  173MOL0     H23816   8.169   3.373   7.578 -0.6995  1.3439  2.1417
  173MOL0     H23817   8.331   3.468   7.343 -1.0583  1.7304  1.9403
  173MOL0     H23818   8.393   3.356   7.459  0.6637 -0.0460 -0.4607
  173MOL0     H23819   8.162   3.300   7.257 -0.1989 -0.9558 -0.3790
  173MOL0     H23820   8.183   3.199   7.397  2.6718 -0.5525  0.3226
  173MOL0     H23821   8.409   3.145   7.335 -2.9672  1.4564  3.5507
  173MOL0     H23822   8.286   3.086   7.230 -0.5182 -0.3899  1.1954
  173MOL0     H23823   8.592   3.245   7.280 -2.1522 -1.4193  1.7284
  173MOL0     H23824   8.775   3.322   7.005 -0.4599 -3.4909  3.3221
  173MOL0     H23825   8.769   3.429   7.152 -0.6606  1.1640 -0.8398
  173MOL0     H23826   8.708   3.510   6.868 -0.2757  0.9878 -0.7634
  173MOL0     H23827   8.625   3.590   6.999 -1.3700 -0.5406 -2.0469
  173MOL0     H23828   8.842   3.714   6.930 -0.8541  0.7325  1.2647
  173MOL0     H23829   8.848   3.674   7.094  1.5335 -2.1281  1.6153
  173MOL0     H23830   8.979   3.445   7.001 -1.9264 -1.1059 -0.7363
  173MOL0     H23831   8.976   3.553   6.855 -2.7678  4.3910 -0.0080
  173MOL0     H23832   9.236   3.823   7.038  2.1540  1.6554  0.4927
  173MOL0     H23833   9.431   3.940   6.840  0.4740 -0.9726 -0.4945
  173MOL0     H23834   9.568   3.877   6.949  0.1188 -0.5934  0.1484
  173MOL0     H23835   9.419   3.938   7.007  2.4381  1.7298  0.8978
  173MOL0     H23836   9.701   3.308   6.676 -0.3752 -0.3768  0.8659
  173MOL0     H23837   9.936   3.231   6.579  0.4970  0.1043  0.1735
  173MOL0     H23838  10.169   3.211   6.673 -0.6813  0.1126  0.3601
  173MOL0     H23839  10.140   3.180   6.500 -2.6990  1.8234 -0.2280
  173MOL0     H23840  10.349   3.283   6.452  0.0101 -0.7214 -0.0140
  173MOL0     H23841  10.380   3.303   6.632 -3.1164 -0.3794  1.2385
  173MOL0     H23842  10.501   3.102   6.518  0.3091  0.3706  2.0365
  173MOL0     H23843  10.347   3.034   6.484  1.5691  0.5599 -2.3311
  173MOL0     H23844  10.291   3.014   6.727  0.2822  3.2723  0.8276
  173MOL0     H23845  10.449   3.087   6.768  1.3296 -1.6824  0.7927
  173MOL0     H23846  10.379   2.805   6.629 -0.1218 -1.3390  2.2001
  173MOL0     H23847  10.542   2.874   6.651  0.8323 -0.7404  0.1429
  173MOL0     H23848  10.326   2.819   6.864  0.9185 -0.6458  0.5507
  173MOL0     H23849  10.478   2.890   6.901  0.9596  1.0177 -0.5787
  173MOL0     H23850  10.597   2.681   6.792  0.6636 -1.2653 -3.0824
  173MOL0     H23851  10.443   2.601   6.804  0.9380  0.9524  0.9422
  173MOL0     H23852  10.621   2.708   7.014  0.1985  1.7857 -2.4328
  173MOL0     H23853  10.576   2.542   6.991  1.4441  0.2430 -0.0201
  173MOL0     H23854  10.084   3.625   6.617 -0.1925 -0.8783  0.5315
  173MOL0     H23855   9.867   3.704   6.706 -0.5638  0.6389 -2.6967
  173MOL0     H23856   9.440   3.423   6.827  2.3343  0.7917  0.3009
  173MOL0     H23857   9.205   3.419   6.934  0.3707 -0.5833  1.5674
  173MOL0     H23858   7.689   3.774   7.861  1.2232 -2.4544 -0.5115
  173MOL0     H23859   7.520   3.790   8.047 -0.5913  0.6210  1.2207
  173MOL0     H23860   7.374   3.864   8.426  3.7984  0.4044 -0.1247
  173MOL0     H23861   7.198   3.878   8.617  0.3253  0.2653 -0.0891
  173MOL0     H23862   7.125   3.934   8.821 -1.5207 -2.0941 -1.8995
  173MOL0     H23863   7.066   3.815   8.935 -1.5401  0.1734 -1.5172
  173MOL0     H23864   7.195   4.014   9.042 -1.1009  0.5003 -2.4352
  173MOL0     H23865   7.336   3.976   8.946 -1.6433  0.6376 -1.2000
  173MOL0     H23866   7.200   3.829   9.183 -0.8000  1.2569  0.4614
  173MOL0     H23867   7.344   3.757   9.112 -1.1101 -0.1812  0.1524
  173MOL0     H23868   7.388   3.896   9.302 -2.7486  0.1944  1.1393
  173MOL0     H23869   7.348   4.045   9.221 -1.8757 -0.8160  0.1031
  173MOL0     H23870   7.732   3.934   9.043 -1.5114  0.8166 -2.4532
  173MOL0     H23871   7.468   3.638   8.839 -0.9541 -0.2353  0.7816
  173MOL0     H23872   7.668   3.547   8.767 -1.4836 -1.8958 -0.3363
  173MOL0     H23873   7.618   3.459   8.621  0.6442 -0.6677 -0.1357
  173MOL0     H23874   7.726   3.605   8.626  0.4724  0.1524  2.6320
  174MOL0     O23875   4.062   1.445   1.912  0.6939 -0.2035  0.3026
  174MOL0     C23876   4.091   1.501   2.022 -0.8916 -0.4463  0.5521
  174MOL0     O23877   4.000   1.537   2.118 -0.0468 -0.3472 -0.4514
  174MOL0     C23878   3.869   1.517   2.094 -0.0678 -0.3210  0.5193
  174MOL0     C23879   3.802   1.522   1.975  0.2912 -0.0601  0.7815
  174MOL0     C23880   3.666   1.514   1.959 -0.0875  1.5585  0.1630
  174MOL0     C23881   3.585   1.491   2.077 -0.4022  0.2818  1.4939
  174MOL0     O23882   3.456   1.465   2.057  0.2641  0.4811 -0.0144
  174MOL0     C23883   3.399   1.360   2.143 -0.3504  0.0202 -0.6175
  174MOL0     C23884   3.250   1.353   2.111 -0.2963 -0.8149 -0.2723
  174MOL0     C23885   3.169   1.269   2.216 -0.4426 -0.9197  0.7962
  174MOL0     C23886   3.197   1.113   2.200 -0.2257 -1.0957 -1.1608
  174MOL0     C23887   3.295   1.070   2.304  0.2782  0.5821 -0.1144
  174MOL0     C23888   3.297   0.921   2.326  0.4839  0.6347 -0.6508
  174MOL0     C23889   3.373   0.847   2.215  0.3294 -1.4877  0.8003
  174MOL0     C23890   3.390   0.705   2.257  0.7090 -0.3896  0.5060
  174MOL0     N23891   3.449   0.624   2.155  0.0210 -0.0198 -0.5874
  174MOL0     C23892   3.581   0.637   2.104  0.5775 -0.6450 -0.3646
  174MOL0     C23893   3.589   0.567   1.995  0.9657 -0.7045  1.2170
  174MOL0     C23894   3.705   0.562   1.894  0.0468  0.1101  0.1539
  174MOL0     C23895   3.770   0.422   1.876 -0.1280  0.4932 -0.2283
  174MOL0     C23896   3.860   0.411   1.751 -0.1262  0.3031  1.0170
  174MOL0     C23897   3.896   0.268   1.721  0.3590  0.0528  0.4338
  174MOL0     O23898   3.773   0.225   1.658  0.9395  0.8298  0.6301
  174MOL0     C23899   3.763   0.100   1.603  0.3748 -0.0139 -0.4920
  174MOL0     C23900   3.662   0.065   1.521  0.8138 -0.0355  0.1701
  174MOL0     C23901   3.647  -0.067   1.470  0.3571  0.0016  1.1855
  174MOL0     C23902   3.514  -0.104   1.401  0.0389  0.7099  0.3790
  174MOL0     C23903   3.764  -0.160   1.474  0.7783 -0.7534  0.0226
  174MOL0     C23904   3.771  -0.291   1.412  0.1897  0.8132 -1.0533
  174MOL0     O23905   3.859  -0.385   1.472 -0.5442  0.1433 -0.0165
  174MOL0     C23906   3.855  -0.515   1.437 -0.7172 -0.0517 -0.2349
  174MOL0     C23907   3.898  -0.563   1.315  0.5735 -0.8933  0.6508
  174MOL0     C23908   3.894  -0.698   1.284 -0.4422 -0.4131  0.0324
  174MOL0     C23909   3.853  -0.786   1.382 -0.3793  1.3065 -0.8955
  174MOL0     O23910   3.844  -0.922   1.343  0.8953 -0.0538  0.1456
  174MOL0     C23911   3.853  -1.043   1.427 -0.3352  0.1482  0.5075
  174MOL0     C23912   3.714  -1.116   1.436 -0.2727  0.4716  0.6963
  174MOL0     C23913   3.695  -1.222   1.539  0.8505 -0.1706 -0.1637
  174MOL0     C23914   3.550  -1.255   1.560 -0.1887  0.3788 -0.7747
  174MOL0     C23915   3.458  -1.148   1.629 -0.1465  0.5948 -0.4441
  174MOL0     C23916   3.322  -1.216   1.643  0.0067  0.0172  0.8104
  174MOL0     C23917   3.221  -1.112   1.656 -0.1540 -0.4182 -1.5472
  174MOL0     C23918   3.087  -1.177   1.646 -0.1064  0.2775  0.8519
  174MOL0    Cl23919   3.060  -1.314   1.757  0.3524 -0.2178  0.3108
  174MOL0     C23920   3.810  -0.738   1.507  0.3301  0.6801  1.1418
  174MOL0     C23921   3.804  -0.599   1.530  0.1228  0.1994 -0.0276
  174MOL0     O23922   3.692  -0.313   1.322  0.4848 -0.2811 -0.1260
  174MOL0     C23923   3.875  -0.114   1.540 -0.3695  0.1042 -0.7312
  174MOL0     C23924   3.872   0.007   1.603  0.2918 -0.2666 -0.4658
  174MOL0     N23925   3.470   0.506   1.975  0.6610 -1.0609  0.7317
  174MOL0     N23926   3.388   0.538   2.072  0.0023 -0.8506  0.6316
  174MOL0     C23927   3.651   1.480   2.198 -0.3877  0.8551  0.4566
  174MOL0     C23928   3.790   1.493   2.203 -0.2822  0.2236 -0.3930
  174MOL0     C23929   4.239   1.518   2.060  0.5314 -0.1228 -1.1288
  174MOL0     C23930   4.272   1.512   2.195  0.4731  0.2310  0.1215
  174MOL0     C23931   4.392   1.553   2.246  0.6765  0.1086 -1.1658
  174MOL0     C23932   4.495   1.583   2.162 -0.4284 -0.0296 -0.0358
  174MOL0     O23933   4.623   1.604   2.206 -0.5092  0.2477  0.3686
  174MOL0     C23934   4.626   1.708   2.310  0.2893  0.0431  0.9233
  174MOL0     C23935   4.765   1.773   2.309  0.5171  0.3539  0.6161
  174MOL0     C23936   4.803   1.851   2.437 -0.0099  0.3713 -1.0491
  174MOL0     C23937   4.709   1.967   2.472  0.7661  0.3777  0.0788
  174MOL0     C23938   4.577   1.932   2.522  0.1059  0.1794  0.0397
  174MOL0     C23939   4.469   1.901   2.576 -0.0698  0.0902 -0.1992
  174MOL0     C23940   4.477   1.565   2.027 -0.0032 -0.1349  0.6600
  174MOL0     C23941   4.349   1.538   1.977  0.1932 -0.0914 -0.6300
  174MOL0     C23942   4.329   1.545   1.821 -0.0343  0.4454  0.7138
  174MOL0     H23943   3.856   1.544   1.884  0.3434  0.9350  1.0434
  174MOL0     H23944   3.633   1.483   1.860  2.2342 -3.0910  0.5498
  174MOL0     H23945   3.414   1.395   2.246 -0.2028  4.1942 -1.8980
  174MOL0     H23946   3.439   1.260   2.125 -4.2650 -1.9569  0.5312
  174MOL0     H23947   3.208   1.454   2.109 -1.9384 -1.4278  0.8072
  174MOL0     H23948   3.225   1.308   2.014 -1.8224 -1.8580  0.5647
  174MOL0     H23949   3.206   1.310   2.310  0.9326 -1.0649  0.3513
  174MOL0     H23950   3.061   1.283   2.204  0.0041  1.7943 -0.6604
  174MOL0     H23951   3.100   1.074   2.232 -1.7585  4.0224  1.5048
  174MOL0     H23952   3.216   1.083   2.096  0.8215 -0.6642 -1.1071
  174MOL0     H23953   3.265   1.112   2.400  3.9424 -1.8472  2.3450
  174MOL0     H23954   3.396   1.112   2.299  0.1020  1.6353  3.1056
  174MOL0     H23955   3.353   0.908   2.419  1.4420  3.2330 -0.7801
  174MOL0     H23956   3.194   0.885   2.338  1.1875 -1.4249 -0.4618
  174MOL0     H23957   3.473   0.887   2.200 -0.3556 -0.2470 -0.7827
  174MOL0     H23958   3.320   0.865   2.121  2.9833  2.4560 -0.1827
  174MOL0     H23959   3.452   0.700   2.347  1.7130  0.5816 -0.1169
  174MOL0     H23960   3.293   0.672   2.295 -0.2488  2.0576  0.3377
  174MOL0     H23961   3.664   0.696   2.143  0.4278  2.2078 -3.8332
  174MOL0     H23962   3.780   0.628   1.938  0.2822 -0.0607  0.0141
  174MOL0     H23963   3.668   0.610   1.803  0.0773  0.9587  0.5796
  174MOL0     H23964   3.833   0.411   1.965  0.3018 -0.1639 -0.6096
  174MOL0     H23965   3.690   0.348   1.861  1.2887 -0.8989 -1.1812
  174MOL0     H23966   3.803   0.447   1.665  0.0699 -3.8876 -1.1080
  174MOL0     H23967   3.952   0.470   1.758 -0.1973  0.3814  1.3115
  174MOL0     H23968   3.976   0.254   1.648 -2.3054 -1.4638 -2.4641
  174MOL0     H23969   3.915   0.194   1.799 -0.0411 -0.5177  0.0069
  174MOL0     H23970   3.579   0.131   1.500  0.0264 -1.2402 -0.6662
  174MOL0     H23971   3.532  -0.100   1.293 -0.5857  1.9630  0.2994
  174MOL0     H23972   3.448  -0.018   1.419 -1.0785 -0.1616  0.5093
  174MOL0     H23973   3.466  -0.196   1.433  0.3553  0.0639 -0.9364
  174MOL0     H23974   3.951  -0.491   1.254 -2.1516  0.7304  0.0071
  174MOL0     H23975   3.924  -0.739   1.187 -0.8457 -0.0703 -0.2429
  174MOL0     H23976   3.930  -1.106   1.382 -1.0932  1.8635 -3.6034
  174MOL0     H23977   3.888  -1.010   1.526 -0.3185  1.3600  0.1130
  174MOL0     H23978   3.635  -1.046   1.462 -0.1462  0.8920 -0.0304
  174MOL0     H23979   3.680  -1.158   1.341 -0.4374 -0.5937  1.2066
  174MOL0     H23980   3.737  -1.197   1.637 -2.1193  1.2806  0.8523
  174MOL0     H23981   3.744  -1.317   1.518 -1.3985 -1.7310  1.1909
  174MOL0     H23982   3.550  -1.340   1.629  2.9033  3.0635  2.9656
  174MOL0     H23983   3.515  -1.299   1.466 -0.8535  2.6853 -1.6656
  174MOL0     H23984   3.497  -1.132   1.730  2.5068 -0.9980 -1.1241
  174MOL0     H23985   3.457  -1.053   1.575  0.2866  0.6032 -0.4435
  174MOL0     H23986   3.326  -1.285   1.727  0.1181 -1.9320 -0.7262
  174MOL0     H23987   3.307  -1.276   1.553  1.6455 -1.1592  1.2727
  174MOL0     H23988   3.233  -1.021   1.596 -0.0380  0.9928  0.5097
  174MOL0     H23989   3.224  -1.077   1.760  2.5043 -0.9338 -1.3732
  174MOL0     H23990   3.075  -1.209   1.542  1.4502  1.0082  0.4189
  174MOL0     H23991   3.008  -1.103   1.662  0.4082  0.5318  2.3724
  174MOL0     H23992   3.761  -0.808   1.573  1.6300 -2.1332 -0.6648
  174MOL0     H23993   3.758  -0.560   1.620 -0.3584  1.0277 -0.6210
  174MOL0     H23994   3.969  -0.168   1.548 -0.8892 -0.5573  2.1361
  174MOL0     H23995   3.969   0.024   1.649 -1.3111  2.3695  2.3222
  174MOL0     H23996   3.590   1.460   2.286 -0.5868 -1.3367 -0.0992
  174MOL0     H23997   3.842   1.463   2.293 -0.2357  2.1215  0.2493
  174MOL0     H23998   4.190   1.490   2.263  1.1701 -3.0504  0.0894
  174MOL0     H23999   4.409   1.550   2.353 -1.5053  0.6520 -0.7621
  174MOL0     H24000   4.540   1.774   2.297 -2.2183 -3.4094 -2.1867
  174MOL0     H24001   4.615   1.655   2.405 -0.4744 -2.1287 -0.2955
  174MOL0     H24002   4.786   1.832   2.219  0.0875  1.9133  1.4937
  174MOL0     H24003   4.837   1.691   2.314 -0.2887 -0.3033  2.0427
  174MOL0     H24004   4.808   1.774   2.515 -2.8600 -1.0868 -2.1441
  174MOL0     H24005   4.905   1.889   2.429  0.4292 -0.9665 -2.2112
  174MOL0     H24006   4.680   2.031   2.388 -1.1092 -0.9143 -0.3142
  174MOL0     H24007   4.754   2.015   2.559  1.0561  0.1306  0.0677
  174MOL0     H24008   4.377   1.881   2.627  0.1222 -1.8556 -0.5215
  174MOL0     H24009   4.559   1.575   1.957  0.0921 -0.3402  0.7428
  174MOL0     H24010   4.322   1.644   1.775 -0.8976 -0.4535 -1.1983
  174MOL0     H24011   4.416   1.492   1.782 -1.0849 -1.0305  0.3306
  174MOL0     H24012   4.246   1.482   1.789  1.3127 -0.8479 -0.4006
  175MOL0     O24013   7.345  10.612   5.598  0.5857  0.3266  0.0963
  175MOL0     C24014   7.285  10.693   5.525 -0.0056  0.0310 -0.0332
  175MOL0     O24015   7.342  10.807   5.462  0.3511  0.1637  0.6453
  175MOL0     C24016   7.474  10.830   5.496 -0.6562  0.1127 -0.5714
  175MOL0     C24017   7.508  10.933   5.589  0.4714 -0.1023  0.0311
  175MOL0     C24018   7.637  10.946   5.634 -0.2698  0.7136  1.0333
  175MOL0     C24019   7.739  10.865   5.580 -0.3194 -0.5642  0.2468
  175MOL0     O24020   7.867  10.859   5.625 -0.2255  0.0766 -1.0526
  175MOL0     C24021   7.951  10.981   5.602  0.8629  1.0146  0.1635
  175MOL0     C24022   8.038  10.960   5.473  0.4341  0.3557 -0.5107
  175MOL0     C24023   8.130  10.839   5.487  0.5844  0.6807  0.4237
  175MOL0     C24024   8.213  10.817   5.355 -0.2952  0.4331  1.7206
  175MOL0     C24025   8.310  10.705   5.380 -0.0072  0.0476 -0.0977
  175MOL0     C24026   8.441  10.745   5.451 -1.2587  0.3739 -0.1742
  175MOL0     C24027   8.516  10.622   5.505 -0.8567 -0.4193 -0.8943
  175MOL0     C24028   8.656  10.651   5.572 -0.0458 -0.6754 -1.4004
  175MOL0     N24029   8.695  10.532   5.661  0.4597  0.8476 -0.1939
  175MOL0     C24030   8.776  10.430   5.622 -0.0183 -0.9815  0.4681
  175MOL0     C24031   8.756  10.335   5.722 -0.3047 -0.2778 -0.0191
  175MOL0     C24032   8.814  10.206   5.723 -0.5426 -0.1942 -0.1486
  175MOL0     C24033   8.836  10.150   5.861 -0.8210  0.8104  0.0879
  175MOL0     C24034   8.890  10.000   5.856 -0.1070 -0.7929 -0.8672
  175MOL0     C24035   9.028   9.983   5.790 -0.1855 -0.9249 -0.0213
  175MOL0     O24036   9.122  10.019   5.892 -0.1730 -0.2126  0.5395
  175MOL0     C24037   9.202   9.917   5.919 -0.9000  0.3371  0.7831
  175MOL0     C24038   9.294   9.864   5.817  0.3251 -0.5654 -0.1587
  175MOL0     C24039   9.408   9.798   5.850 -0.7619 -0.0294  1.3897
  175MOL0     C24040   9.499   9.766   5.728  1.0172 -0.3911  0.3695
  175MOL0     C24041   9.431   9.766   5.981 -0.1672  1.0505  0.5789
  175MOL0     C24042   9.549   9.685   6.029 -0.6202  1.2098 -0.2604
  175MOL0     O24043   9.558   9.673   6.162  0.1711 -0.8026  0.0161
  175MOL0     C24044   9.655   9.598   6.221  0.2843  1.2468  0.4788
  175MOL0     C24045   9.671   9.463   6.203  0.3057  0.3624 -0.6356
  175MOL0     C24046   9.767   9.386   6.276  0.0552  0.2741 -0.1450
  175MOL0     C24047   9.853   9.447   6.373  0.5716  0.1123  0.1754
  175MOL0     O24048   9.953   9.390   6.448  0.1261 -0.3068  0.9145
  175MOL0     C24049   9.963   9.248   6.451  0.1537 -0.2264 -0.2109
  175MOL0     C24050  10.049   9.198   6.328  0.7938  0.1910 -0.1302
  175MOL0     C24051  10.085   9.052   6.332  0.2454  1.2518  0.4189
  175MOL0     C24052  10.164   9.011   6.208  0.1891 -0.9060 -0.3976
  175MOL0     C24053  10.234   8.880   6.233  0.2132 -0.6097 -0.7776
  175MOL0     C24054  10.362   8.899   6.319  0.3619 -0.5888  0.0563
  175MOL0     C24055  10.437   8.764   6.319  0.5423  1.0934  0.6717
  175MOL0     C24056  10.574   8.756   6.380 -0.1740 -0.2344 -0.4116
  175MOL0    Cl24057  10.576   8.828   6.550 -0.2499 -0.3769 -0.1676
  175MOL0     C24058   9.842   9.584   6.388  0.3210 -0.8260  0.2355
  175MOL0     C24059   9.752   9.658   6.309  0.1098 -0.4005 -0.5414
  175MOL0     O24060   9.635   9.635   5.954 -0.1185 -0.5064 -0.1293
  175MOL0     C24061   9.336   9.807   6.080 -0.3235 -1.3386 -0.6326
  175MOL0     C24062   9.221   9.884   6.050  0.0786  0.5664  0.3130
  175MOL0     N24063   8.653  10.378   5.808 -1.1167  0.3544 -0.2414
  175MOL0     N24064   8.622  10.493   5.761 -0.1423 -0.3804 -0.0356
  175MOL0     C24065   7.718  10.776   5.477  0.5499  0.2902  0.0286
  175MOL0     C24066   7.580  10.754   5.448  0.1725 -0.3502  0.4312
  175MOL0     C24067   7.140  10.660   5.502 -0.4081 -0.5389 -0.3240
  175MOL0     C24068   7.071  10.596   5.605  0.1391 -0.6840 -0.1339
  175MOL0     C24069   6.936  10.574   5.601  0.1698  0.0700  0.0409
  175MOL0     C24070   6.856  10.596   5.495 -0.4442  0.1603  0.7936
  175MOL0     O24071   6.726  10.542   5.477 -0.0732  0.8554 -0.4191
  175MOL0     C24072   6.635  10.584   5.577  0.5178 -0.4142 -0.5756
  175MOL0     C24073   6.498  10.526   5.549 -0.7737 -0.2184  0.6940
  175MOL0     C24074   6.417  10.545   5.668 -0.2543  0.1441  0.3679
  175MOL0     C24075   6.271  10.488   5.663 -0.1636  0.4096  0.1574
  175MOL0     C24076   6.192  10.507   5.788 -0.2358  0.4888  0.6931
  175MOL0     C24077   6.126  10.507   5.891  0.2040  0.0993 -0.1351
  175MOL0     C24078   6.919  10.670   5.392  0.1511 -0.2034 -0.1729
  175MOL0     C24079   7.062  10.700   5.392 -0.5524  0.5470  0.8655
  175MOL0     C24080   7.116  10.781   5.280  0.0457  0.2395 -0.7815
  175MOL0     H24081   7.430  11.000   5.625 -1.0103 -1.5418 -0.3533
  175MOL0     H24082   7.670  11.017   5.710  1.1206  0.2561  0.8709
  175MOL0     H24083   8.023  10.994   5.683  3.0871  1.7702 -1.8197
  175MOL0     H24084   7.898  11.076   5.592 -1.0707  0.1283  1.3988
  175MOL0     H24085   7.968  10.956   5.389  3.2595  3.8937 -3.3754
  175MOL0     H24086   8.101  11.048   5.454  1.4982  0.0486  1.3338
  175MOL0     H24087   8.188  10.849   5.578  1.3523  0.2277 -0.0068
  175MOL0     H24088   8.049  10.766   5.493 -0.4786  1.6046 -1.4099
  175MOL0     H24089   8.138  10.781   5.284 -1.2544 -1.7320  3.7219
  175MOL0     H24090   8.253  10.913   5.320 -1.9965 -0.2187 -2.6305
  175MOL0     H24091   8.336  10.678   5.277 -0.8921  2.9391 -1.1944
  175MOL0     H24092   8.255  10.615   5.409 -1.5146  0.4191 -1.6056
  175MOL0     H24093   8.506  10.806   5.387  0.1682  1.7343  2.4214
  175MOL0     H24094   8.404  10.806   5.533 -4.0612 -0.3578 -0.7820
  175MOL0     H24095   8.537  10.561   5.416  3.2626  0.0623 -0.4360
  175MOL0     H24096   8.450  10.578   5.581 -1.4056  0.1946 -1.0044
  175MOL0     H24097   8.735  10.658   5.497  0.5004 -4.2574 -1.3546
  175MOL0     H24098   8.636  10.736   5.638 -2.0080 -2.7836  0.9656
  175MOL0     H24099   8.839  10.430   5.533 -2.2971 -0.2425 -1.2694
  175MOL0     H24100   8.909  10.219   5.670  0.4412 -2.8684  0.7393
  175MOL0     H24101   8.752  10.138   5.663 -1.9828  1.3392 -0.4524
  175MOL0     H24102   8.909  10.213   5.914  0.3893 -1.5395  1.3696
  175MOL0     H24103   8.741  10.152   5.915 -1.8701  0.4254 -1.6596
  175MOL0     H24104   8.892   9.960   5.958  0.8074 -2.7783 -1.6105
  175MOL0     H24105   8.820   9.937   5.802  0.1790 -0.3381 -1.7911
  175MOL0     H24106   9.039   9.885   5.744  2.4581 -0.3069 -0.8619
  175MOL0     H24107   9.034  10.058   5.710 -3.8131  1.0135  1.2646
  175MOL0     H24108   9.275   9.889   5.713  3.6103 -1.2461 -1.0376
  175MOL0     H24109   9.555   9.672   5.739  3.3863  0.7117 -1.4213
  175MOL0     H24110   9.568   9.844   5.695 -0.1598  0.1602 -0.8732
  175MOL0     H24111   9.438   9.741   5.640 -1.3386  0.2715  1.7112
  175MOL0     H24112   9.601   9.405   6.144 -2.0381  0.2753  2.0476
  175MOL0     H24113   9.775   9.279   6.260 -0.9393  0.4254 -1.9791
  175MOL0     H24114  10.017   9.217   6.541 -0.4955  4.6550  2.1571
  175MOL0     H24115   9.867   9.195   6.450 -0.1807  0.1459  2.6358
  175MOL0     H24116   9.985   9.209   6.240  2.6676  1.3659 -1.4118
  175MOL0     H24117  10.135   9.263   6.309  2.5157 -1.5986  1.1751
  175MOL0     H24118  10.002   8.982   6.341  0.7776  0.5010 -0.2798
  175MOL0     H24119  10.146   9.030   6.420  0.2230 -1.0966 -0.0750
  175MOL0     H24120  10.231   9.096   6.192  0.5782 -0.5824  2.4522
  175MOL0     H24121  10.095   9.017   6.123  1.1451  4.7143 -1.1581
  175MOL0     H24122  10.166   8.803   6.272  2.2898 -2.9693 -1.5814
  175MOL0     H24123  10.268   8.841   6.137 -2.2731 -0.7700 -1.6719
  175MOL0     H24124  10.329   8.926   6.420 -0.5642 -1.7038  0.0795
  175MOL0     H24125  10.417   8.983   6.275 -1.5314  0.0006 -1.3144
  175MOL0     H24126  10.449   8.734   6.215  2.4573  2.7838  0.3518
  175MOL0     H24127  10.369   8.695   6.371 -3.8924  3.1902 -1.8009
  175MOL0     H24128  10.654   8.810   6.328  0.8496  0.2335  1.5491
  175MOL0     H24129  10.610   8.653   6.387  0.9040  0.2212  0.9941
  175MOL0     H24130   9.907   9.646   6.449 -1.2857  1.2381 -0.0234
  175MOL0     H24131   9.737   9.766   6.315 -1.5875 -0.5320 -1.6762
  175MOL0     H24132   9.351   9.800   6.187  2.1846  1.0417 -0.7320
  175MOL0     H24133   9.153   9.910   6.130 -1.1872 -2.5690  0.4085
  175MOL0     H24134   7.787  10.699   5.446  0.2614 -0.3263  0.8876
  175MOL0     H24135   7.540  10.684   5.376 -1.6245  0.2272  0.8316
  175MOL0     H24136   7.131  10.574   5.693  0.9338  3.1925  0.4641
  175MOL0     H24137   6.900  10.510   5.681 -0.5569 -0.7681 -0.9317
  175MOL0     H24138   6.673  10.546   5.672  2.1191  1.4598 -0.3826
  175MOL0     H24139   6.626  10.693   5.568  2.0469 -0.3129 -1.2131
  175MOL0     H24140   6.506  10.420   5.520 -3.0806  0.1599 -1.7018
  175MOL0     H24141   6.452  10.571   5.461  1.0043 -0.3882 -0.3813
  175MOL0     H24142   6.467  10.504   5.757 -0.8762 -2.2811 -0.3305
  175MOL0     H24143   6.404  10.653   5.678  3.4851  0.8454 -0.6888
  175MOL0     H24144   6.276  10.381   5.640 -2.1177  0.3849 -0.3679
  175MOL0     H24145   6.227  10.538   5.577 -2.8382  0.4108  1.4146
  175MOL0     H24146   6.071  10.501   5.983  3.5844 -1.6106  2.0303
  175MOL0     H24147   6.854  10.697   5.310 -0.7054 -2.7947 -0.4405
  175MOL0     H24148   7.214  10.741   5.251  1.1415  1.0269  1.6144
  175MOL0     H24149   7.048  10.792   5.195  1.4007  1.0138 -1.8087
  175MOL0     H24150   7.137  10.881   5.319  1.0984 -0.5128  0.6518
  176MOL0     O24151   3.884   5.081  10.377 -0.5285 -0.7358 -0.0103
  176MOL0     C24152   3.788   5.090  10.303  0.0395 -0.5408 -0.5413
  176MOL0     O24153   3.778   5.179  10.196  1.0101  0.3108 -0.6970
  176MOL0     C24154   3.887   5.247  10.151  0.7351  0.2168 -0.0868
  176MOL0     C24155   3.931   5.367  10.211 -0.5318 -0.3722 -0.0672
  176MOL0     C24156   4.048   5.434  10.164 -0.1522 -0.1827 -0.1024
  176MOL0     C24157   4.118   5.385  10.053  0.1744  0.1134 -0.7059
  176MOL0     O24158   4.227   5.443   9.996 -0.1858  0.6613  0.7619
  176MOL0     C24159   4.192   5.575   9.951 -0.0350  1.1043 -0.6085
  176MOL0     C24160   4.305   5.617   9.857 -0.0691  0.2611  0.4831
  176MOL0     C24161   4.412   5.703   9.929  0.0606  0.4300 -0.3252
  176MOL0     C24162   4.358   5.843   9.955  0.3700  0.5894  0.3555
  176MOL0     C24163   4.431   5.898  10.076  0.4866 -0.1846 -0.3109
  176MOL0     C24164   4.420   6.050  10.090  0.4491  0.6635  0.1510
  176MOL0     C24165   4.509   6.104  10.210  0.2608  1.2167  0.3913
  176MOL0     C24166   4.644   6.138  10.145 -0.0845 -0.7172 -0.0344
  176MOL0     N24167   4.746   6.159  10.255  0.2890  0.2372  0.5257
  176MOL0     C24168   4.832   6.056  10.294  0.2778  0.2046  0.1285
  176MOL0     C24169   4.900   6.110  10.391 -0.0347 -0.0008  0.9052
  176MOL0     C24170   5.013   6.045  10.462  0.3426  0.5716  0.3701
  176MOL0     C24171   5.147   6.117  10.434  0.0510  0.4670  0.0788
  176MOL0     C24172   5.203   6.204  10.545 -0.2686 -0.3043  0.7391
  176MOL0     C24173   5.338   6.272  10.506 -0.6508 -0.4023 -0.6029
  176MOL0     O24174   5.336   6.350  10.377 -0.2307  1.7675 -0.3726
  176MOL0     C24175   5.441   6.435  10.352  0.7983 -0.5228  0.0431
  176MOL0     C24176   5.425   6.516  10.237  0.6106 -0.0205  0.0687
  176MOL0     C24177   5.518   6.609  10.193 -0.3716 -0.6424  0.7315
  176MOL0     C24178   5.489   6.688  10.067  0.7738 -0.1160  0.7829
  176MOL0     C24179   5.637   6.627  10.272  0.3919 -0.5350 -0.6257
  176MOL0     C24180   5.756   6.722  10.226 -0.0463  0.1158  0.7973
  176MOL0     O24181   5.860   6.728  10.314 -0.1945  0.3913  0.3002
  176MOL0     C24182   5.981   6.778  10.271  1.1741 -0.3809 -0.5313
  176MOL0     C24183   6.080   6.701  10.199  0.2937 -0.1956 -0.8031
  176MOL0     C24184   6.200   6.760  10.151  0.2482  0.8843 -0.3821
  176MOL0     C24185   6.221   6.895  10.175  1.0208  0.2682 -1.4207
  176MOL0     O24186   6.331   6.967  10.140 -0.6093 -0.2939  0.3885
  176MOL0     C24187   6.451   6.894  10.102  0.5039  0.4764 -0.4891
  176MOL0     C24188   6.578   6.982  10.121 -0.6214 -1.3241 -0.1222
  176MOL0     C24189   6.710   6.928  10.079  0.3716 -0.0766 -0.3565
  176MOL0     C24190   6.799   6.885  10.186  0.0761  0.8345 -0.6384
  176MOL0     C24191   6.925   6.806  10.149 -0.1975 -0.2857 -0.1323
  176MOL0     C24192   7.037   6.910  10.109 -0.0207 -0.1436  0.1199
  176MOL0     C24193   7.169   6.855  10.084  0.1808  0.4993  1.3086
  176MOL0     C24194   7.164   6.773   9.951  0.2979 -0.3159 -0.4803
  176MOL0    Cl24195   7.166   6.869   9.807 -0.0889 -0.0997 -0.5956
  176MOL0     C24196   6.126   6.967  10.251  0.5748 -0.1707  0.4936
  176MOL0     C24197   6.001   6.917  10.292 -0.6872  0.3548  0.7303
  176MOL0     O24198   5.746   6.778  10.118 -0.4837 -0.0377  0.0917
  176MOL0     C24199   5.657   6.548  10.392  0.0145 -0.2526  1.1041
  176MOL0     C24200   5.559   6.453  10.430  0.3735  0.3368 -0.9264
  176MOL0     N24201   4.857   6.233  10.417  0.2049 -0.8093 -0.4070
  176MOL0     N24202   4.761   6.262  10.342  0.1010  0.2824  0.0560
  176MOL0     C24203   4.064   5.266   9.991 -0.5077  0.5764  0.1712
  176MOL0     C24204   3.952   5.203  10.035  0.4668  0.7416 -0.4581
  176MOL0     C24205   3.666   5.013  10.343  0.5566  0.6151  0.3845
  176MOL0     C24206   3.546   5.073  10.294 -0.6838  0.2501  0.0957
  176MOL0     C24207   3.420   5.022  10.323  0.4733  1.1025  1.1184
  176MOL0     C24208   3.419   4.905  10.404  0.9439  0.2399 -0.0295
  176MOL0     O24209   3.304   4.834  10.407 -0.4085  0.1674 -0.0666
  176MOL0     C24210   3.233   4.847  10.536 -0.0189 -0.5236 -0.1132
  176MOL0     C24211   3.119   4.949  10.523  0.4621 -0.9869 -0.6827
  176MOL0     C24212   3.008   4.886  10.423  0.2825 -0.6291 -0.9164
  176MOL0     C24213   3.021   4.954  10.288 -0.0245  0.0981 -0.2855
  176MOL0     C24214   2.931   4.885  10.197 -0.5922  0.2150  1.1433
  176MOL0     C24215   2.843   4.834  10.123 -0.5667  0.6821 -0.1069
  176MOL0     C24216   3.535   4.840  10.449  0.3638 -0.2270  0.6678
  176MOL0     C24217   3.656   4.893  10.415 -0.2028 -0.6921  0.7645
  176MOL0     C24218   3.777   4.819  10.463 -0.3623  0.6106  0.5274
  176MOL0     H24219   3.873   5.405  10.294 -1.5330  0.9809 -1.3146
  176MOL0     H24220   4.095   5.521  10.208 -1.0990  0.0735  0.4268
  176MOL0     H24221   4.191   5.633  10.044 -0.4442  0.2456 -0.0654
  176MOL0     H24222   4.100   5.569   9.893 -2.0288 -1.5474  2.4805
  176MOL0     H24223   4.351   5.528   9.813  1.6097  1.6544 -0.6754
  176MOL0     H24224   4.261   5.686   9.785  0.0114  0.1239  0.3014
  176MOL0     H24225   4.432   5.654  10.025 -0.1265  0.3302 -0.3375
  176MOL0     H24226   4.508   5.700   9.878 -0.6848 -0.6469 -1.7334
  176MOL0     H24227   4.371   5.905   9.866 -0.8876 -1.6202 -1.4814
  176MOL0     H24228   4.250   5.847   9.971  0.3570  1.4454  0.0783
  176MOL0     H24229   4.538   5.881  10.067  0.4387 -1.6191  1.3913
  176MOL0     H24230   4.390   5.851  10.166  0.0174 -0.0552 -0.4496
  176MOL0     H24231   4.444   6.101   9.997 -0.5637 -1.1789 -1.1777
  176MOL0     H24232   4.316   6.080  10.108  0.3446  1.3048 -1.3857
  176MOL0     H24233   4.521   6.028  10.288  0.8892 -1.4117 -2.0648
  176MOL0     H24234   4.463   6.197  10.246 -0.1720  0.7436  1.0927
  176MOL0     H24235   4.679   6.061  10.075  2.6749  0.3960 -0.0064
  176MOL0     H24236   4.628   6.233  10.094 -4.5215 -1.2171 -0.0097
  176MOL0     H24237   4.832   5.957  10.250  0.3509 -0.6770  2.0307
  176MOL0     H24238   5.025   5.939  10.437  2.8429  1.1821 -1.4064
  176MOL0     H24239   4.989   6.046  10.569 -0.1947  0.8770  0.2513
  176MOL0     H24240   5.217   6.038  10.404 -0.9439  0.9937 -4.3167
  176MOL0     H24241   5.136   6.178  10.344 -2.5401 -0.3945 -0.2708
  176MOL0     H24242   5.123   6.277  10.558 -2.0237 -1.9083 -0.4977
  176MOL0     H24243   5.232   6.146  10.632  2.2565  0.1115  0.2420
  176MOL0     H24244   5.365   6.340  10.588  3.9705 -2.5946 -0.0052
  176MOL0     H24245   5.415   6.195  10.499  1.0138  1.3532 -4.2465
  176MOL0     H24246   5.334   6.506  10.178  0.5748  1.9592 -0.2609
  176MOL0     H24247   5.512   6.793  10.087 -2.7170  0.6999  1.0598
  176MOL0     H24248   5.383   6.691  10.040  1.1394 -0.3071 -0.7727
  176MOL0     H24249   5.547   6.656   9.979 -1.2160 -1.5251 -0.1105
  176MOL0     H24250   6.064   6.595  10.188 -0.7546 -0.0708 -0.6194
  176MOL0     H24251   6.264   6.705  10.083 -0.0891  0.2916 -0.2308
  176MOL0     H24252   6.467   6.800  10.156 -2.3539 -0.9372 -1.8654
  176MOL0     H24253   6.446   6.869   9.996  1.4956  1.5296 -0.8070
  176MOL0     H24254   6.553   7.065  10.053 -1.9014 -0.9522  0.7598
  176MOL0     H24255   6.581   7.023  10.222 -1.0022 -0.0842 -0.5951
  176MOL0     H24256   6.774   7.005  10.036  2.0585 -0.6320  1.0162
  176MOL0     H24257   6.699   6.845  10.009 -0.1237 -1.3429  1.1652
  176MOL0     H24258   6.742   6.826  10.258 -1.5881  0.8155 -1.9196
  176MOL0     H24259   6.834   6.978  10.233  1.5772 -0.9612  2.1080
  176MOL0     H24260   6.969   6.743  10.227 -1.7513 -2.3180 -0.8184
  176MOL0     H24261   6.889   6.754  10.060  1.1702  0.4025 -1.1236
  176MOL0     H24262   7.052   6.985  10.187  2.0360 -0.3763 -0.0128
  176MOL0     H24263   7.003   6.962  10.020  2.8539 -0.1063 -1.0590
  176MOL0     H24264   7.184   6.783  10.165 -0.2879  1.1079  1.9566
  176MOL0     H24265   7.239   6.939  10.081  0.7646  0.0770 -2.8327
  176MOL0     H24266   7.082   6.700   9.945 -0.2565  0.3978 -1.9396
  176MOL0     H24267   7.258   6.720   9.934  0.3588 -0.6703  0.8689
  176MOL0     H24268   6.141   7.074  10.260  0.1641 -0.2190  2.2185
  176MOL0     H24269   5.919   6.979  10.329 -1.7807 -2.4022  3.3716
  176MOL0     H24270   5.752   6.564  10.443  0.6177 -2.5844  0.8484
  176MOL0     H24271   5.574   6.395  10.520 -1.9029  0.1358 -0.6192
  176MOL0     H24272   4.118   5.231   9.904 -2.8736 -1.2032 -0.6847
  176MOL0     H24273   3.913   5.122   9.974 -2.9240  3.0780 -1.7270
  176MOL0     H24274   3.565   5.164  10.238  2.4013  0.7853  1.7682
  176MOL0     H24275   3.337   5.081  10.286  0.3042 -0.9473 -2.1128
  176MOL0     H24276   3.194   4.749  10.565 -0.8076 -0.5864 -1.3237
  176MOL0     H24277   3.302   4.884  10.612  0.5918  0.5529 -1.1594
  176MOL0     H24278   3.155   5.047  10.489  1.1232 -0.6458  0.8852
  176MOL0     H24279   3.072   4.958  10.622 -0.9909 -2.5959 -1.1744
  176MOL0     H24280   3.015   4.777  10.420  0.2846 -0.7112  0.8629
  176MOL0     H24281   2.912   4.912  10.469  1.1195  0.3387  0.3557
  176MOL0     H24282   3.122   4.939  10.250  0.4915 -2.1536  1.7760
  176MOL0     H24283   3.005   5.063  10.288  4.2164  0.8841 -0.8682
  176MOL0     H24284   2.765   4.787  10.068 -0.8197  1.6362 -0.5802
  176MOL0     H24285   3.525   4.739  10.488 -2.6019 -1.1988 -2.1346
  176MOL0     H24286   3.740   4.717  10.471  0.3939  0.1872 -1.0386
  176MOL0     H24287   3.860   4.819  10.392  0.2285 -0.0361  1.2003
  176MOL0     H24288   3.818   4.852  10.559 -1.3620 -1.0921  1.5936
  177MOL0     O24289  10.783   6.468   1.991 -0.1173 -0.3365 -0.4136
  177MOL0     C24290  10.874   6.387   1.983 -0.6220 -0.5182 -0.3196
  177MOL0     O24291  10.999   6.404   1.933  0.0937  0.6099  0.0952
  177MOL0     C24292  11.038   6.539   1.929  0.5539 -0.0196  0.3997
  177MOL0     C24293  10.989   6.635   1.830 -0.0834  0.0137 -0.2267
  177MOL0     C24294  11.040   6.765   1.819  0.8679  0.1219  0.0185
  177MOL0     C24295  11.133   6.814   1.907 -0.4749 -0.4609 -0.6440
  177MOL0     O24296  11.164   6.944   1.877  0.6592 -0.0048 -0.2719
  177MOL0     C24297  11.246   7.022   1.956 -0.2713  0.3472  0.2052
  177MOL0     C24298  11.190   7.047   2.094 -0.3441  0.6710  0.3646
  177MOL0     C24299  11.280   7.144   2.167  0.4954  0.2548  0.9134
  177MOL0     C24300  11.192   7.210   2.275 -0.3173 -0.0380  0.3448
  177MOL0     C24301  11.280   7.275   2.393 -1.1065  0.1420  0.7395
  177MOL0     C24302  11.401   7.358   2.348  0.3082  0.2364 -0.5292
  177MOL0     C24303  11.452   7.478   2.441 -0.3008 -1.1191  0.0449
  177MOL0     C24304  11.593   7.535   2.401  0.2766 -0.2399 -0.6367
  177MOL0     N24305  11.697   7.437   2.365  0.4244 -0.1858 -0.1741
  177MOL0     C24306  11.764   7.352   2.447 -0.4386 -0.0123 -0.1690
  177MOL0     C24307  11.842   7.268   2.373 -0.1393 -0.0837  0.1808
  177MOL0     C24308  11.930   7.158   2.427 -0.4849  0.0215 -0.5151
  177MOL0     C24309  12.077   7.197   2.420 -0.4045 -0.2778 -0.5319
  177MOL0     C24310  12.166   7.079   2.463  1.4085  0.3017  0.4004
  177MOL0     C24311  12.309   7.122   2.482  0.0968 -0.0046 -0.3647
  177MOL0     O24312  12.316   7.213   2.605  0.1726  0.0944 -0.0576
  177MOL0     C24313  12.438   7.233   2.671 -0.3706  0.6320 -0.2802
  177MOL0     C24314  12.564   7.198   2.623 -0.2774  0.6879 -0.5771
  177MOL0     C24315  12.684   7.204   2.699  0.6637 -0.3074 -0.1914
  177MOL0     C24316  12.811   7.171   2.621 -0.4294  0.1560  0.1611
  177MOL0     C24317  12.673   7.245   2.830  0.3022  0.7248  0.6466
  177MOL0     C24318  12.791   7.265   2.916  0.4650 -0.8290  0.4209
  177MOL0     O24319  12.793   7.378   2.988 -0.1349  1.2847  0.3289
  177MOL0     C24320  12.896   7.398   3.065  0.8370 -0.3474 -0.0103
  177MOL0     C24321  12.919   7.322   3.181  0.0655 -0.3401  0.4696
  177MOL0     C24322  13.020   7.361   3.276 -0.6522 -0.9093 -0.5421
  177MOL0     C24323  13.091   7.474   3.256 -1.1799  0.2419 -0.7722
  177MOL0     O24324  13.185   7.508   3.354 -0.0108 -0.0569  0.2940
  177MOL0     C24325  13.197   7.643   3.394 -0.7778  0.0330  0.0518
  177MOL0     C24326  13.082   7.694   3.483  0.1863  0.3015 -0.3042
  177MOL0     C24327  13.087   7.609   3.612 -0.1927  0.0384 -0.7881
  177MOL0     C24328  13.001   7.669   3.733 -0.8488 -0.0709  0.5508
  177MOL0     C24329  13.032   7.589   3.854 -0.6397 -0.3352  0.5095
  177MOL0     C24330  13.153   7.630   3.937 -0.8489  0.3933 -0.5358
  177MOL0     C24331  13.153   7.559   4.075 -0.2667  0.8421  0.0626
  177MOL0     C24332  13.270   7.613   4.162  0.3203 -0.3626  0.3793
  177MOL0    Cl24333  13.280   7.534   4.328 -0.0481 -0.0626  0.2336
  177MOL0     C24334  13.073   7.552   3.142  0.7310  0.2809 -0.3719
  177MOL0     C24335  12.967   7.516   3.051 -0.5787  0.4967 -0.0886
  177MOL0     O24336  12.874   7.172   2.933  0.6869 -0.3589  0.8822
  177MOL0     C24337  12.549   7.288   2.880  0.3594  0.3038  0.0894
  177MOL0     C24338  12.429   7.274   2.802 -0.1589  0.9546  0.1179
  177MOL0     N24339  11.807   7.305   2.236  0.4181  0.5848 -0.3784
  177MOL0     N24340  11.723   7.395   2.240 -0.2845  0.4527  0.0616
  177MOL0     C24341  11.187   6.726   1.996 -1.4847  0.7679  0.1205
  177MOL0     C24342  11.141   6.586   2.008  0.8778  0.1415 -0.3357
  177MOL0     C24343  10.855   6.246   2.030  0.4491  0.5882  0.6029
  177MOL0     C24344  10.964   6.179   2.081  0.7966  0.3900 -0.5191
  177MOL0     C24345  10.958   6.048   2.130  0.2477  0.2644 -0.0308
  177MOL0     C24346  10.844   5.976   2.121 -1.0004 -0.0028  0.0303
  177MOL0     O24347  10.837   5.855   2.174  0.5055  0.8921 -0.8081
  177MOL0     C24348  10.725   5.777   2.144  0.7350 -0.0226 -0.0986
  177MOL0     C24349  10.750   5.620   2.174  0.1646 -0.5278 -0.4013
  177MOL0     C24350  10.811   5.601   2.317  1.0066  0.3519  0.0035
  177MOL0     C24351  10.844   5.448   2.335 -0.1967 -0.1971  0.2904
  177MOL0     C24352  10.867   5.439   2.476  0.9244 -0.0441 -0.5291
  177MOL0     C24353  10.881   5.419   2.597  0.4764  0.9189  0.2984
  177MOL0     C24354  10.729   6.043   2.069 -0.2157  0.5827 -0.3855
  177MOL0     C24355  10.735   6.174   2.029 -0.6690 -0.6384 -0.2749
  177MOL0     C24356  10.605   6.233   1.994 -0.4646  0.6520  0.2744
  177MOL0     H24357  10.908   6.591   1.773 -1.1602  0.1211  1.1856
  177MOL0     H24358  11.006   6.828   1.737 -1.9563 -2.9704 -1.4361
  177MOL0     H24359  11.253   7.120   1.907 -4.4854  1.7533  1.9970
  177MOL0     H24360  11.348   6.984   1.952  0.1376  1.4522 -0.7732
  177MOL0     H24361  11.091   7.091   2.088 -0.6641  0.5336  3.2908
  177MOL0     H24362  11.184   6.955   2.153 -1.9706  1.2112  1.0857
  177MOL0     H24363  11.370   7.100   2.212  1.6273  1.4708 -0.0592
  177MOL0     H24364  11.315   7.222   2.098 -0.8053  0.9325  0.9866
  177MOL0     H24365  11.120   7.284   2.239 -1.0990  0.1510  2.1910
  177MOL0     H24366  11.131   7.131   2.319 -2.4420  0.2416 -1.8902
  177MOL0     H24367  11.317   7.196   2.459  1.4436  0.1950 -0.5051
  177MOL0     H24368  11.224   7.344   2.457 -1.0740  0.0311  0.8883
  177MOL0     H24369  11.481   7.285   2.330 -0.1588  0.0068 -1.7451
  177MOL0     H24370  11.367   7.400   2.253 -0.0006  1.6725  0.1858
  177MOL0     H24371  11.456   7.451   2.547 -3.6813  1.2674  0.9534
  177MOL0     H24372  11.372   7.552   2.438 -0.3389 -1.1402  0.4835
  177MOL0     H24373  11.582   7.596   2.311  1.5088 -2.4551 -2.3880
  177MOL0     H24374  11.623   7.602   2.482 -0.3173 -2.4904  1.5732
  177MOL0     H24375  11.756   7.351   2.555 -0.3611 -0.9041 -0.1698
  177MOL0     H24376  11.906   7.075   2.360 -2.0882  0.2093 -0.2083
  177MOL0     H24377  11.909   7.140   2.532  1.9592  1.3769  0.2944
  177MOL0     H24378  12.101   7.227   2.318 -1.3883  0.6841 -0.4944
  177MOL0     H24379  12.071   7.286   2.483 -3.1011  0.7082 -2.0473
  177MOL0     H24380  12.127   7.033   2.554 -0.1001 -0.1981 -0.4739
  177MOL0     H24381  12.168   7.005   2.383 -1.0826 -2.2195  2.4508
  177MOL0     H24382  12.383   7.042   2.477  0.3959  0.3671 -3.3756
  177MOL0     H24383  12.333   7.185   2.396 -0.5543  1.4173  0.4514
  177MOL0     H24384  12.573   7.166   2.520  1.0960  3.0323 -1.2745
  177MOL0     H24385  12.811   7.225   2.526 -0.0972 -0.8156 -0.4061
  177MOL0     H24386  12.805   7.065   2.594 -2.7288 -0.2777  2.0335
  177MOL0     H24387  12.899   7.202   2.678 -0.2195  0.5434 -0.3681
  177MOL0     H24388  12.867   7.234   3.215  2.6110 -2.9065 -1.7831
  177MOL0     H24389  13.020   7.307   3.371 -0.6303 -1.5629 -0.9089
  177MOL0     H24390  13.287   7.648   3.455 -0.3515 -3.2156 -0.1472
  177MOL0     H24391  13.209   7.707   3.306 -0.3909  1.6745  1.2446
  177MOL0     H24392  13.085   7.800   3.509 -0.7738  0.6748 -1.5796
  177MOL0     H24393  12.982   7.671   3.445 -0.9092  2.0021  1.3819
  177MOL0     H24394  13.186   7.608   3.658  0.3923  1.8490 -1.8536
  177MOL0     H24395  13.053   7.512   3.577  1.1766  0.4615 -3.6585
  177MOL0     H24396  12.897   7.646   3.709 -0.1585 -1.2173 -1.6110
  177MOL0     H24397  13.025   7.774   3.749  4.0549 -1.2168  2.6196
  177MOL0     H24398  12.949   7.607   3.923  1.0991  0.1106  2.5774
  177MOL0     H24399  13.039   7.486   3.819 -1.5729  0.0309 -0.8340
  177MOL0     H24400  13.152   7.739   3.948  1.4102  0.2959  1.5975
  177MOL0     H24401  13.243   7.613   3.876 -1.6047  0.1134 -1.5983
  177MOL0     H24402  13.164   7.456   4.041 -0.9818  0.9346 -0.4583
  177MOL0     H24403  13.058   7.573   4.128 -1.0706 -0.0267 -1.1090
  177MOL0     H24404  13.247   7.719   4.177 -1.0963 -0.4453 -0.9797
  177MOL0     H24405  13.362   7.600   4.104  0.6360  1.1711  0.4947
  177MOL0     H24406  13.140   7.632   3.112 -1.4631  1.7377 -1.7167
  177MOL0     H24407  12.943   7.584   2.970 -0.7370  0.1460 -0.3372
  177MOL0     H24408  12.540   7.316   2.984  2.2464  1.9239 -0.1400
  177MOL0     H24409  12.331   7.279   2.848 -0.1770 -1.3554  0.4462
  177MOL0     H24410  11.280   6.758   2.044 -0.4361  1.3368 -2.1545
  177MOL0     H24411  11.183   6.516   2.080 -2.1387 -2.2661 -0.7353
  177MOL0     H24412  11.064   6.218   2.094  1.5111 -1.5720  0.2848
  177MOL0     H24413  11.045   5.998   2.173 -2.1268 -2.8298  1.5883
  177MOL0     H24414  10.638   5.814   2.198  2.1046  2.2620  0.6854
  177MOL0     H24415  10.716   5.779   2.035  0.8186 -0.1866 -0.1084
  177MOL0     H24416  10.821   5.580   2.102  1.7150  2.8331 -0.9272
  177MOL0     H24417  10.659   5.559   2.177  0.3969 -1.0182 -2.2987
  177MOL0     H24418  10.893   5.669   2.338 -0.0514  2.6207 -2.6442
  177MOL0     H24419  10.729   5.616   2.388  1.0061  2.8264 -0.4599
  177MOL0     H24420  10.936   5.432   2.277 -1.0546 -0.3929 -1.0536
  177MOL0     H24421  10.763   5.385   2.299 -1.1408  1.7774 -1.2535
  177MOL0     H24422  10.890   5.406   2.703 -0.8832 -0.1087  0.3218
  177MOL0     H24423  10.630   5.999   2.060  0.5096 -0.6825 -3.7608
  177MOL0     H24424  10.520   6.165   1.980 -0.9065  1.0972  0.7448
  177MOL0     H24425  10.565   6.307   2.064 -3.6303  0.3282 -1.0127
  177MOL0     H24426  10.618   6.274   1.893 -1.1292  1.5614  0.5390
  178MOL0     O24427   8.531   2.201  11.217  0.1112 -0.5806  0.3192
  178MOL0     C24428   8.538   2.229  11.096 -0.0453  0.2014 -0.1759
  178MOL0     O24429   8.463   2.165  11.000 -0.8690  0.4185 -0.5398
  178MOL0     C24430   8.368   2.080  11.049  0.2697  0.1934 -0.4035
  178MOL0     C24431   8.253   2.121  11.118 -0.1893  0.2758  0.6870
  178MOL0     C24432   8.157   2.028  11.155 -0.2604 -0.5532  0.2922
  178MOL0     C24433   8.160   1.904  11.116  0.0705  0.3355 -0.2585
  178MOL0     O24434   8.058   1.825  11.163  0.1449  0.0153  0.1701
  178MOL0     C24435   8.060   1.687  11.133  0.0655 -0.1029 -0.1874
  178MOL0     C24436   7.945   1.632  11.218 -0.7576 -0.3198  0.6127
  178MOL0     C24437   7.952   1.657  11.364  0.8346 -0.5615  0.8677
  178MOL0     C24438   7.842   1.593  11.450  0.4709  0.3488 -0.0049
  178MOL0     C24439   7.704   1.621  11.395 -0.5480  0.1218  1.0669
  178MOL0     C24440   7.584   1.595  11.487  0.5919 -0.5638  1.1582
  178MOL0     C24441   7.456   1.623  11.403  0.1231 -0.3952 -0.2956
  178MOL0     C24442   7.345   1.671  11.502  0.4112  0.3386  0.2132
  178MOL0     N24443   7.299   1.561  11.590  0.2007 -0.0201  0.1920
  178MOL0     C24444   7.205   1.473  11.564  0.0998 -0.9445  0.2587
  178MOL0     C24445   7.191   1.392  11.671  0.2651 -0.3524  0.4408
  178MOL0     C24446   7.087   1.290  11.722  0.1488 -0.3725  0.6552
  178MOL0     C24447   7.101   1.153  11.652 -0.1631  0.2438  0.0506
  178MOL0     C24448   7.231   1.081  11.708  0.7456  0.4454  1.0026
  178MOL0     C24449   7.253   0.943  11.647  0.5485  0.9572  0.6547
  178MOL0     O24450   7.144   0.845  11.670 -0.5169 -0.5030 -0.3630
  178MOL0     C24451   7.148   0.731  11.606 -0.4906  0.5939 -0.5163
  178MOL0     C24452   7.072   0.625  11.652  0.3475 -0.4049  0.6082
  178MOL0     C24453   7.065   0.504  11.594  1.3380  0.7539  0.6422
  178MOL0     C24454   6.962   0.411  11.647 -0.8956 -0.5050  0.0995
  178MOL0     C24455   7.158   0.470  11.489  0.5076  0.0555  0.0657
  178MOL0     C24456   7.168   0.327  11.433 -0.6184 -0.2899 -0.8844
  178MOL0     O24457   7.268   0.322  11.336  0.8210  0.1137 -0.0321
  178MOL0     C24458   7.297   0.218  11.251 -0.5152  0.5692 -0.0429
  178MOL0     C24459   7.433   0.193  11.231 -0.4176 -0.7796  0.9521
  178MOL0     C24460   7.472   0.085  11.144  0.1602  0.0466  0.2562
  178MOL0     C24461   7.378   0.004  11.086 -0.6240 -0.2617  0.5833
  178MOL0     O24462   7.412  -0.103  11.009 -0.3406 -0.8085 -0.3173
  178MOL0     C24463   7.545  -0.096  10.954 -0.4985  0.1029 -0.1038
  178MOL0     C24464   7.545  -0.212  10.857 -0.6427  0.0431 -0.4769
  178MOL0     C24465   7.560  -0.348  10.927 -0.5207  0.6135 -0.8645
  178MOL0     C24466   7.577  -0.461  10.828 -0.8357 -0.0076  0.5443
  178MOL0     C24467   7.636  -0.579  10.917 -0.7297  0.7877  0.8945
  178MOL0     C24468   7.667  -0.699  10.825  1.2639 -0.8518 -0.0883
  178MOL0     C24469   7.750  -0.806  10.892 -0.3508  0.3356  0.2688
  178MOL0     C24470   7.902  -0.766  10.906 -0.7441  0.1073  0.6923
  178MOL0    Cl24471   8.026  -0.891  10.973  0.2903  0.3231  0.0443
  178MOL0     C24472   7.239   0.032  11.110  0.4801 -0.6791 -0.3336
  178MOL0     C24473   7.200   0.138  11.191  0.2435  0.0922 -0.7487
  178MOL0     O24474   7.093   0.232  11.459 -0.7812  0.3478  0.1801
  178MOL0     C24475   7.243   0.579  11.445  0.0046 -0.2216  0.5714
  178MOL0     C24476   7.231   0.708  11.498 -0.3077  0.3488 -0.3053
  178MOL0     N24477   7.292   1.424  11.759 -0.2036 -0.0554  0.5744
  178MOL0     N24478   7.348   1.533  11.711 -0.0223  0.8419  1.3799
  178MOL0     C24479   8.270   1.861  11.031 -0.0674  0.4993 -0.5215
  178MOL0     C24480   8.374   1.944  11.005 -0.0365  0.4671 -0.0789
  178MOL0     C24481   8.642   2.326  11.054 -0.8596  1.0940 -0.0716
  178MOL0     C24482   8.717   2.322  10.932 -0.0494 -0.0270 -0.5428
  178MOL0     C24483   8.811   2.415  10.893 -0.6579  1.0195 -0.3442
  178MOL0     C24484   8.846   2.519  10.969  0.6037  0.5028  0.4373
  178MOL0     O24485   8.947   2.602  10.929 -0.2371 -0.4111  0.0873
  178MOL0     C24486   8.925   2.738  10.941 -0.8081 -0.0415 -0.4874
  178MOL0     C24487   8.985   2.787  10.811  0.8874 -0.7758 -0.1435
  178MOL0     C24488   8.997   2.932  10.779 -0.2704 -1.1236  0.2223
  178MOL0     C24489   9.070   2.937  10.642 -0.0135  1.0073  0.0338
  178MOL0     C24490   9.085   3.073  10.589  0.1323  0.5408 -0.3481
  178MOL0     C24491   9.085   3.188  10.548 -0.3434  0.8820  1.3730
  178MOL0     C24492   8.782   2.526  11.095 -0.5049  0.0369  1.0611
  178MOL0     C24493   8.683   2.429  11.140  0.3372 -0.1420 -0.6475
  178MOL0     C24494   8.631   2.461  11.270 -0.1324  0.0562  0.7071
  178MOL0     H24495   8.237   2.225  11.144 -2.8333  0.3217 -0.7434
  178MOL0     H24496   8.079   2.069  11.219  1.3472 -0.5237  2.3253
  178MOL0     H24497   8.159   1.650  11.162 -0.0386 -1.7927 -1.7650
  178MOL0     H24498   8.058   1.669  11.025  0.7946 -1.7118  0.0281
  178MOL0     H24499   7.854   1.668  11.170  0.3569  3.1860  0.8613
  178MOL0     H24500   7.959   1.523  11.221 -3.0891 -0.6607  3.3717
  178MOL0     H24501   8.052   1.644  11.406  1.1614  1.0407  0.6489
  178MOL0     H24502   7.929   1.763  11.372  1.3219 -0.3360 -0.3803
  178MOL0     H24503   7.876   1.489  11.452  3.0532  0.9249 -3.3909
  178MOL0     H24504   7.834   1.621  11.555 -1.6550 -2.6240  0.7755
  178MOL0     H24505   7.683   1.574  11.298 -2.4519 -0.8866  1.9176
  178MOL0     H24506   7.708   1.727  11.368  3.2615 -0.0940  0.2060
  178MOL0     H24507   7.590   1.495  11.529  1.9710 -0.6893  0.6972
  178MOL0     H24508   7.590   1.660  11.575  0.4779  0.1516  0.6485
  178MOL0     H24509   7.425   1.528  11.358  0.4154 -1.9547  2.5914
  178MOL0     H24510   7.473   1.700  11.326  2.0051  0.3547  0.8076
  178MOL0     H24511   7.391   1.752  11.560  1.8401 -0.2965  0.0006
  178MOL0     H24512   7.260   1.720  11.453  0.7074  0.7103  0.0581
  178MOL0     H24513   7.138   1.487  11.480  1.4176  5.2318 -0.2495
  178MOL0     H24514   6.985   1.318  11.694  0.9491  1.9868 -0.1311
  178MOL0     H24515   7.087   1.284  11.831  0.1551 -1.4134  0.6155
  178MOL0     H24516   7.024   1.090  11.698  1.3563 -0.5364  1.6495
  178MOL0     H24517   7.107   1.166  11.544 -0.6269  2.2609  0.2333
  178MOL0     H24518   7.322   1.138  11.685  1.5274 -1.6241 -1.4243
  178MOL0     H24519   7.218   1.073  11.817 -2.9795  1.4939  0.7750
  178MOL0     H24520   7.272   0.959  11.540  1.2368 -0.7217  0.4776
  178MOL0     H24521   7.345   0.898  11.687  1.2645 -1.2277 -2.9612
  178MOL0     H24522   7.001   0.657  11.728  0.4395 -0.8627  0.8883
  178MOL0     H24523   6.903   0.438  11.735 -1.4826 -1.9119  0.1780
  178MOL0     H24524   7.012   0.324  11.692 -0.0672 -0.2949 -0.3971
  178MOL0     H24525   6.901   0.363  11.570  0.1065 -2.1307  0.2704
  178MOL0     H24526   7.496   0.264  11.284 -0.2457  0.3175 -0.6720
  178MOL0     H24527   7.579   0.067  11.134  0.1270  0.3585 -0.7088
  178MOL0     H24528   7.554  -0.008  10.890  2.1300 -0.6895 -0.9521
  178MOL0     H24529   7.632  -0.103  11.020 -1.2362 -0.5213  0.8440
  178MOL0     H24530   7.450  -0.217  10.803  0.8702  0.6499 -3.3851
  178MOL0     H24531   7.629  -0.206  10.787  0.8527  1.1276  1.3187
  178MOL0     H24532   7.472  -0.371  10.988 -0.1828 -2.3481 -1.3353
  178MOL0     H24533   7.652  -0.345  10.985 -1.1937 -0.2160  0.2863
  178MOL0     H24534   7.648  -0.439  10.748  0.0014 -1.6696  0.7874
  178MOL0     H24535   7.479  -0.481  10.783 -0.9094 -0.5908  0.9529
  178MOL0     H24536   7.726  -0.553  10.972  1.2370 -0.1775 -1.6784
  178MOL0     H24537   7.552  -0.601  10.984 -2.2908 -0.2192 -1.2642
  178MOL0     H24538   7.715  -0.668  10.732  0.8036 -0.3054 -0.1566
  178MOL0     H24539   7.570  -0.745  10.802  0.1792 -0.9222  3.8888
  178MOL0     H24540   7.756  -0.892  10.825  2.5071  0.0591  0.7543
  178MOL0     H24541   7.704  -0.830  10.988 -2.5202 -3.5449 -1.4950
  178MOL0     H24542   7.919  -0.678  10.968 -2.0374  0.4254  0.6220
  178MOL0     H24543   7.939  -0.740  10.806 -0.9975  1.2814  0.8861
  178MOL0     H24544   7.168  -0.039  11.070  0.6827  0.3704 -2.6578
  178MOL0     H24545   7.098   0.157  11.221  0.4052 -2.6040  1.8941
  178MOL0     H24546   7.321   0.564  11.372 -1.1272  1.3548 -1.0505
  178MOL0     H24547   7.300   0.779  11.453 -2.1198  1.1206 -2.0095
  178MOL0     H24548   8.276   1.757  11.000  1.7976  0.2991  0.3852
  178MOL0     H24549   8.440   1.887  10.940 -1.8346 -1.5434 -0.2684
  178MOL0     H24550   8.698   2.239  10.864  1.6521  0.5002 -1.7385
  178MOL0     H24551   8.853   2.404  10.794  0.0683 -0.4521  0.0972
  178MOL0     H24552   8.818   2.763  10.951 -0.8420  0.4174 -1.8329
  178MOL0     H24553   8.985   2.775  11.024  0.3129 -1.6733 -0.5395
  178MOL0     H24554   8.937   2.744  10.723 -0.9914  0.6942  0.0806
  178MOL0     H24555   9.090   2.756  10.807  0.6116 -1.8935  0.9495
  178MOL0     H24556   8.903   2.987  10.772  0.6479  0.4564 -0.1007
  178MOL0     H24557   9.063   2.977  10.853  0.9432 -3.7415  0.8513
  178MOL0     H24558   9.001   2.892  10.570  0.4700 -0.4290  0.4539
  178MOL0     H24559   9.169   2.892  10.645 -0.5411 -0.3477 -1.5146
  178MOL0     H24560   9.096   3.286  10.504  0.8484  0.0748 -0.2107
  178MOL0     H24561   8.808   2.616  11.150 -2.8689 -0.0259  2.3950
  178MOL0     H24562   8.653   2.566  11.289 -0.6630 -0.0410  1.9816
  178MOL0     H24563   8.523   2.441  11.269  0.0693 -1.1910 -1.2709
  178MOL0     H24564   8.673   2.401  11.352 -0.8950  0.5440  1.4812
  179MOL0     O24565   6.619   9.849   8.362  0.0600 -0.3049  1.1335
  179MOL0     C24566   6.709   9.888   8.441  0.9569  0.4549  0.2214
  179MOL0     O24567   6.676   9.949   8.564 -0.3551  0.5918  0.4716
  179MOL0     C24568   6.545   9.966   8.584  0.4979 -0.2060  0.7607
  179MOL0     C24569   6.478  10.077   8.530  0.4607 -0.4029 -0.0470
  179MOL0     C24570   6.333  10.082   8.552 -0.1188  0.2765 -0.4480
  179MOL0     C24571   6.270   9.997   8.651 -0.3164  0.2027 -0.4092
  179MOL0     O24572   6.144  10.001   8.698  0.0454  0.6017 -0.0850
  179MOL0     C24573   6.052  10.018   8.593 -0.8446 -0.9304  0.2754
  179MOL0     C24574   5.914   9.945   8.625  0.2785 -0.3177  0.3766
  179MOL0     C24575   5.802   9.982   8.531 -0.2380  0.5107  0.2965
  179MOL0     C24576   5.673   9.885   8.542 -0.5456  0.3897 -0.8612
  179MOL0     C24577   5.618   9.862   8.687 -0.6727  0.8653  0.3472
  179MOL0     C24578   5.471   9.818   8.695  0.2329  0.0888 -0.0354
  179MOL0     C24579   5.397   9.870   8.816  0.0726 -0.7505  0.0620
  179MOL0     C24580   5.263   9.805   8.851  0.1143 -0.0215 -0.1838
  179MOL0     N24581   5.289   9.692   8.938  0.6121 -0.2587 -0.4085
  179MOL0     C24582   5.361   9.696   9.058  0.1126 -0.8951 -0.0734
  179MOL0     C24583   5.396   9.570   9.068  0.7029 -0.2741  0.2267
  179MOL0     C24584   5.486   9.516   9.176 -0.5538 -0.4732  0.2547
  179MOL0     C24585   5.635   9.525   9.134  0.9384  0.3936 -0.0249
  179MOL0     C24586   5.669   9.667   9.090 -0.1509  0.6302  0.2913
  179MOL0     C24587   5.816   9.675   9.044  0.4126  0.1526  0.1957
  179MOL0     O24588   5.855   9.645   8.905  0.0982  0.1883 -0.4417
  179MOL0     C24589   5.984   9.612   8.890 -0.7016  0.5435  0.4979
  179MOL0     C24590   6.086   9.655   8.977  0.9963 -0.0461 -0.1784
  179MOL0     C24591   6.220   9.626   8.937 -0.2852 -0.5309 -0.2174
  179MOL0     C24592   6.320   9.691   9.024 -0.2833  0.5852 -0.9013
  179MOL0     C24593   6.257   9.555   8.822 -0.7665  0.0481 -0.4258
  179MOL0     C24594   6.398   9.517   8.777  0.0299  0.4742 -0.2687
  179MOL0     O24595   6.415   9.450   8.659  0.5954 -0.3353 -0.9090
  179MOL0     C24596   6.543   9.428   8.622 -0.3062  0.2548 -0.0979
  179MOL0     C24597   6.594   9.522   8.543 -0.4928  0.1782  0.7239
  179MOL0     C24598   6.731   9.520   8.515  0.0784 -0.8793  0.0329
  179MOL0     C24599   6.806   9.411   8.552 -0.2134  0.1882  0.0760
  179MOL0     O24600   6.928   9.379   8.503 -0.7105  0.0925  0.1410
  179MOL0     C24601   7.028   9.484   8.498 -1.0614  0.3399 -0.5757
  179MOL0     C24602   7.161   9.426   8.445  0.0536 -0.3282  0.0738
  179MOL0     C24603   7.147   9.352   8.311  0.0871  0.4654 -0.5508
  179MOL0     C24604   7.131   9.446   8.192 -0.3650 -0.3548 -0.1440
  179MOL0     C24605   7.145   9.378   8.051 -0.4508  0.8549  0.0331
  179MOL0     C24606   7.293   9.342   8.014 -0.0258 -0.7871  0.2346
  179MOL0     C24607   7.298   9.210   7.950  0.1200 -0.6803 -1.0528
  179MOL0     C24608   7.436   9.178   7.897  0.9257 -0.4784  0.5493
  179MOL0    Cl24609   7.537   9.097   8.015  0.0217 -0.0599  0.2710
  179MOL0     C24610   6.747   9.314   8.631 -0.3713  0.2570 -0.3547
  179MOL0     C24611   6.617   9.319   8.669  0.0028  0.0111  0.3528
  179MOL0     O24612   6.497   9.564   8.843 -0.3327 -0.3035  0.7978
  179MOL0     C24613   6.149   9.512   8.741 -0.1424  0.4360  0.7980
  179MOL0     C24614   6.015   9.546   8.774  0.5519  0.5980  0.3083
  179MOL0     N24615   5.332   9.484   8.970 -0.4400 -0.4289 -0.4748
  179MOL0     N24616   5.274   9.567   8.887  0.3652  0.3040 -0.7832
  179MOL0     C24617   6.344   9.892   8.695 -0.1712  0.4784  0.6557
  179MOL0     C24618   6.479   9.873   8.662  0.7293 -0.6209 -0.3528
  179MOL0     C24619   6.855   9.868   8.414  0.0476  0.7982 -0.0143
  179MOL0     C24620   6.942   9.900   8.515 -0.0620 -0.1188 -0.3205
  179MOL0     C24621   7.076   9.864   8.511  0.1339 -0.5835 -0.0894
  179MOL0     C24622   7.128   9.803   8.396 -0.2747  0.6465 -0.4328
  179MOL0     O24623   7.261   9.770   8.401 -0.3620 -0.3517  0.4615
  179MOL0     C24624   7.341   9.785   8.283 -0.4740  0.1981 -0.5164
  179MOL0     C24625   7.485   9.792   8.331  0.0654 -0.0370  0.2823
  179MOL0     C24626   7.520   9.914   8.414  0.1648 -0.2092  0.5103
  179MOL0     C24627   7.620   9.883   8.528  0.3498 -0.6805 -0.2967
  179MOL0     C24628   7.612   9.998   8.613  0.3607 -0.6746 -0.4996
  179MOL0     C24629   7.623  10.090   8.695 -0.3010  0.2825  0.3800
  179MOL0     C24630   7.040   9.777   8.292 -0.5869 -0.0655 -0.0093
  179MOL0     C24631   6.904   9.802   8.304  1.3935 -0.0181  0.3127
  179MOL0     C24632   6.822   9.743   8.188 -0.4461  0.0720  0.4990
  179MOL0     H24633   6.534  10.133   8.455 -0.5961 -0.4915 -0.9387
  179MOL0     H24634   6.278  10.160   8.500 -0.9367  1.2511  1.7510
  179MOL0     H24635   6.080   9.969   8.500 -3.1755  0.9810 -1.5546
  179MOL0     H24636   6.032  10.124   8.576 -0.4333 -0.6376  1.4527
  179MOL0     H24637   5.922   9.837   8.609  0.4468 -0.1844 -0.4608
  179MOL0     H24638   5.885   9.972   8.728  3.3865  1.1786  0.9911
  179MOL0     H24639   5.770  10.086   8.526  1.6414  1.0668 -1.5166
  179MOL0     H24640   5.841   9.958   8.432  1.7708 -0.4724  1.2748
  179MOL0     H24641   5.599   9.929   8.475 -1.1820 -2.5928 -2.3141
  179MOL0     H24642   5.694   9.785   8.502 -1.9508 -0.4838  0.4694
  179MOL0     H24643   5.627   9.951   8.750 -1.9228  1.1424  0.1649
  179MOL0     H24644   5.684   9.785   8.727  1.6160  2.2072 -0.6245
  179MOL0     H24645   5.421   9.846   8.601 -0.6066 -0.0253  0.3679
  179MOL0     H24646   5.472   9.709   8.698  2.0702  0.1019  0.8063
  179MOL0     H24647   5.386   9.973   8.781  0.6748 -0.7979 -0.2755
  179MOL0     H24648   5.467   9.870   8.900 -2.1633 -0.4870  2.0202
  179MOL0     H24649   5.199   9.877   8.903 -0.7725 -0.0670 -1.1675
  179MOL0     H24650   5.208   9.783   8.759  1.6465  2.4241 -1.7973
  179MOL0     H24651   5.385   9.775   9.128  1.2771  1.5474 -2.9688
  179MOL0     H24652   5.452   9.413   9.188 -0.5359 -0.4301  0.6849
  179MOL0     H24653   5.471   9.581   9.263  1.4477  0.9204 -0.3632
  179MOL0     H24654   5.685   9.500   9.228 -2.0052 -1.5025  1.1762
  179MOL0     H24655   5.657   9.447   9.061 -1.0278  0.7358 -1.0507
  179MOL0     H24656   5.608   9.696   9.004 -1.3510 -0.3967  0.7604
  179MOL0     H24657   5.661   9.738   9.173  0.1587  0.1222  0.7703
  179MOL0     H24658   5.856   9.772   9.072 -2.7132  1.4340  0.6866
  179MOL0     H24659   5.863   9.604   9.111 -0.1506 -0.2004  0.2287
  179MOL0     H24660   6.053   9.705   9.067  0.5200 -0.1832 -0.2757
  179MOL0     H24661   6.377   9.768   8.970 -0.7418  1.4844 -0.1409
  179MOL0     H24662   6.379   9.608   9.063 -0.0805  1.9593  2.0060
  179MOL0     H24663   6.274   9.735   9.113  0.1762 -0.3169 -0.1949
  179MOL0     H24664   6.535   9.603   8.501  0.8977  0.6914 -0.2975
  179MOL0     H24665   6.787   9.593   8.457 -0.7765 -0.4494 -0.2626
  179MOL0     H24666   6.993   9.560   8.427  2.3543  2.3436 -0.3627
  179MOL0     H24667   7.061   9.522   8.595  0.1686 -1.7227 -0.1389
  179MOL0     H24668   7.240   9.501   8.437  0.3100 -0.3268  2.0515
  179MOL0     H24669   7.195   9.352   8.518 -1.4946 -0.4637  0.6950
  179MOL0     H24670   7.069   9.276   8.314 -0.0481  0.6416  0.6607
  179MOL0     H24671   7.246   9.308   8.295  0.9546  1.6356  1.2213
  179MOL0     H24672   7.201   9.529   8.207 -0.3733 -0.6452  1.6894
  179MOL0     H24673   7.028   9.482   8.193 -0.3614 -0.3557  0.1953
  179MOL0     H24674   7.087   9.286   8.040  0.0215  0.7280 -1.8290
  179MOL0     H24675   7.115   9.453   7.977 -0.1896 -0.0821 -1.0501
  179MOL0     H24676   7.360   9.341   8.100 -1.2664  1.9589  1.3726
  179MOL0     H24677   7.326   9.428   7.954 -2.6425 -0.5115 -0.9416
  179MOL0     H24678   7.228   9.195   7.867  1.3691 -0.4932 -2.1861
  179MOL0     H24679   7.270   9.143   8.032  2.7398  1.1203  1.4825
  179MOL0     H24680   7.486   9.267   7.857 -1.5138  1.0143  0.6668
  179MOL0     H24681   7.413   9.097   7.826 -1.5877 -0.9571  1.8192
  179MOL0     H24682   6.799   9.225   8.664 -2.4459 -0.5075  1.0437
  179MOL0     H24683   6.579   9.243   8.736 -1.2270 -1.9614 -2.3924
  179MOL0     H24684   6.172   9.469   8.644  1.5848  1.0538  0.9024
  179MOL0     H24685   5.936   9.545   8.699  1.9418  1.4151 -1.2253
  179MOL0     H24686   6.292   9.832   8.768 -4.3813  1.9753 -0.8485
  179MOL0     H24687   6.528   9.799   8.724  0.0623  1.7677  3.3994
  179MOL0     H24688   6.917   9.951   8.608 -2.4448 -0.6010 -0.6189
  179MOL0     H24689   7.149   9.886   8.588  0.7778 -1.9409 -0.2948
  179MOL0     H24690   7.322   9.700   8.217 -0.8461 -2.2394  2.5112
  179MOL0     H24691   7.306   9.881   8.244 -2.9505  0.1029  1.2926
  179MOL0     H24692   7.541   9.797   8.237  0.0971  3.1804  0.3693
  179MOL0     H24693   7.494   9.693   8.377  0.1111 -0.4437 -0.5731
  179MOL0     H24694   7.568   9.997   8.361 -0.9784  0.0687 -0.1289
  179MOL0     H24695   7.436   9.959   8.466  1.2739  2.3364  0.2506
  179MOL0     H24696   7.718   9.862   8.484  0.0622 -0.9697 -0.8039
  179MOL0     H24697   7.579   9.793   8.575  1.6488 -2.5672 -2.5749
  179MOL0     H24698   7.643  10.163   8.771  2.4525  0.3925 -0.3407
  179MOL0     H24699   7.084   9.724   8.208  1.9228  0.6306  0.7780
  179MOL0     H24700   6.780   9.648   8.221 -0.4689  0.7268  2.4786
  179MOL0     H24701   6.737   9.806   8.159  0.7611  1.2084 -0.7755
  179MOL0     H24702   6.887   9.722   8.102 -3.2463  1.4059 -2.1222
  180MOL0     O24703   1.489  10.739  10.770  0.6310  0.0612 -0.1760
  180MOL0     C24704   1.415  10.831  10.810 -0.5659  0.6701 -0.2755
  180MOL0     O24705   1.459  10.945  10.872 -0.7954  0.0351 -0.3234
  180MOL0     C24706   1.593  10.946  10.903 -0.6747 -0.7441 -0.0179
  180MOL0     C24707   1.682  11.002  10.806 -0.3593 -0.3486 -0.3508
  180MOL0     C24708   1.814  10.997  10.838 -0.1650 -0.9682  0.7501
  180MOL0     C24709   1.867  10.948  10.962  0.7903  0.0044  0.5414
  180MOL0     O24710   1.997  10.946  11.009 -0.5222 -0.2809  0.0035
  180MOL0     C24711   2.092  11.049  10.962  0.6720 -0.3915 -0.4011
  180MOL0     C24712   2.191  11.069  11.074 -0.9982  0.4012  0.2291
  180MOL0     C24713   2.134  11.146  11.194  0.4566  0.1148  0.3678
  180MOL0     C24714   2.106  11.046  11.301  0.8184  0.7244  0.0770
  180MOL0     C24715   2.067  11.117  11.433 -0.3139  0.1921  0.2424
  180MOL0     C24716   1.952  11.221  11.409 -0.3574  0.1374  0.0238
  180MOL0     C24717   1.806  11.169  11.379 -0.4222 -0.5386 -0.5499
  180MOL0     C24718   1.712  11.292  11.359  0.0428  1.0563  0.4505
  180MOL0     N24719   1.575  11.238  11.356 -0.4714 -0.3981 -0.0365
  180MOL0     C24720   1.524  11.187  11.245  0.3478 -0.1674  0.3272
  180MOL0     C24721   1.398  11.157  11.280 -0.4836 -0.7395  0.7210
  180MOL0     C24722   1.299  11.079  11.207  0.1283  0.0603 -0.5382
  180MOL0     C24723   1.183  11.154  11.129 -0.4456  0.0007  0.6858
  180MOL0     C24724   1.232  11.274  11.038  0.1584  0.2044  0.1032
  180MOL0     C24725   1.270  11.408  11.113 -0.4992  0.1533 -0.0736
  180MOL0     O24726   1.301  11.489  11.004  0.3407 -0.0207  0.5959
  180MOL0     C24727   1.433  11.515  10.994 -0.3091 -0.1575  0.2825
  180MOL0     C24728   1.522  11.418  10.947 -0.3486  0.5423  1.0252
  180MOL0     C24729   1.657  11.439  10.960  0.0029  0.3157 -1.0351
  180MOL0     C24730   1.740  11.323  10.908 -0.3909 -0.1678 -0.2521
  180MOL0     C24731   1.705  11.576  10.985  0.5935 -0.1476  0.5266
  180MOL0     C24732   1.837  11.632  10.946  0.4161 -0.2269 -0.3456
  180MOL0     O24733   1.929  11.549  10.903  0.5689  0.0702  0.8124
  180MOL0     C24734   2.063  11.579  10.916 -0.3744 -0.0219  0.5680
  180MOL0     C24735   2.116  11.706  10.884 -0.7629  0.1353 -0.7752
  180MOL0     C24736   2.243  11.745  10.920 -0.4154  0.5415 -0.7050
  180MOL0     C24737   2.329  11.644  10.982  0.4819  0.7579  0.1585
  180MOL0     O24738   2.457  11.678  11.021  0.4487 -0.4815  0.3260
  180MOL0     C24739   2.552  11.648  10.921 -0.3233  0.6991 -0.0534
  180MOL0     C24740   2.671  11.585  10.987 -0.4083 -0.8952  1.0174
  180MOL0     C24741   2.796  11.615  10.899 -0.5934  0.1555  0.2165
  180MOL0     C24742   2.811  11.550  10.764  0.1438  0.3144  0.0477
  180MOL0     C24743   2.948  11.592  10.696  0.4651 -0.1959  0.1287
  180MOL0     C24744   3.072  11.521  10.754  0.5395 -0.3422  0.4068
  180MOL0     C24745   3.192  11.571  10.671  0.0292  0.0498 -0.4023
  180MOL0     C24746   3.189  11.538  10.517  0.1183 -0.5882 -0.3142
  180MOL0    Cl24747   3.351  11.482  10.455 -0.0778  0.8062 -0.5505
  180MOL0     C24748   2.283  11.515  10.998  0.3128 -0.3554 -0.0320
  180MOL0     C24749   2.151  11.482  10.967  0.1909  0.0845 -0.9748
  180MOL0     O24750   1.847  11.755  10.969  0.0849 -0.2293 -0.6136
  180MOL0     C24751   1.605  11.669  11.045  0.3112  0.0695  0.5124
  180MOL0     C24752   1.472  11.637  11.051 -0.6394  0.1233 -0.5026
  180MOL0     N24753   1.377  11.207  11.408  0.3725 -0.1601  0.4656
  180MOL0     N24754   1.480  11.263  11.447  0.5954  0.6606 -0.4896
  180MOL0     C24755   1.772  10.906  11.060  0.2474  0.5251  0.0678
  180MOL0     C24756   1.633  10.902  11.025  0.5914  0.1025 -0.6746
  180MOL0     C24757   1.268  10.819  10.768 -0.5767  0.1642  0.7525
  180MOL0     C24758   1.183  10.930  10.773 -1.3702 -0.4120 -0.1061
  180MOL0     C24759   1.064  10.949  10.701  0.3228  0.4796  0.3634
  180MOL0     C24760   1.013  10.837  10.632 -0.2209  0.9992 -0.6982
  180MOL0     O24761   0.890  10.839  10.583  0.3421  0.0061  0.5376
  180MOL0     C24762   0.868  10.938  10.484  0.0272 -0.6701  0.5082
  180MOL0     C24763   0.737  11.005  10.512  0.5074 -0.1783  0.3459
  180MOL0     C24764   0.702  11.120  10.406  0.3610 -0.2819  0.5118
  180MOL0     C24765   0.566  11.184  10.413  0.0318 -0.1491 -0.3643
  180MOL0     C24766   0.465  11.091  10.364  0.0654 -0.4691  0.4297
  180MOL0     C24767   0.380  11.020  10.326  0.4822 -1.5316 -0.1559
  180MOL0     C24768   1.086  10.718  10.641  0.1018 -0.1694 -0.1914
  180MOL0     C24769   1.213  10.708  10.692 -0.5412  0.5809 -0.7174
  180MOL0     C24770   1.279  10.576  10.672 -1.0746 -1.0641 -0.1813
  180MOL0     H24771   1.647  11.052  10.715  2.1190  0.0724 -1.1366
  180MOL0     H24772   1.892  11.029  10.770  0.2650 -1.3891  1.0350
  180MOL0     H24773   2.037  11.138  10.930 -0.2788 -0.5882  0.6001
  180MOL0     H24774   2.143  11.000  10.879  1.9782  1.5933 -0.8370
  180MOL0     H24775   2.238  10.974  11.101 -1.5275 -0.0971 -0.5562
  180MOL0     H24776   2.264  11.139  11.033 -0.7617  2.0226  3.1725
  180MOL0     H24777   2.189  11.233  11.231 -1.5224  1.1909  0.9369
  180MOL0     H24778   2.040  11.196  11.170  0.7287  2.1450  3.0984
  180MOL0     H24779   2.023  10.979  11.278 -0.1979  1.7049  0.7572
  180MOL0     H24780   2.186  10.973  11.314  0.4440 -0.0069 -1.5168
  180MOL0     H24781   2.160  11.151  11.479  0.8865 -1.5659 -0.7486
  180MOL0     H24782   2.029  11.045  11.506  1.2922 -2.8995 -1.7058
  180MOL0     H24783   1.950  11.267  11.508 -0.5282 -1.5241  0.8268
  180MOL0     H24784   1.983  11.301  11.342  0.4744 -1.6015 -1.7595
  180MOL0     H24785   1.779  11.103  11.462  1.7555 -1.3644 -0.4404
  180MOL0     H24786   1.795  11.110  11.288  2.1837  1.8071 -2.5611
  180MOL0     H24787   1.733  11.365  11.437  0.5171  0.9908  0.3911
  180MOL0     H24788   1.743  11.333  11.262  1.6628 -0.1716  0.3948
  180MOL0     H24789   1.574  11.149  11.156  1.1827 -2.0358  1.5450
  180MOL0     H24790   1.260  11.002  11.274  0.3674  1.4704  1.3005
  180MOL0     H24791   1.356  11.023  11.132  1.0829 -0.0035  0.2140
  180MOL0     H24792   1.119  11.081  11.079 -0.7262  1.2102 -0.7780
  180MOL0     H24793   1.127  11.197  11.213  1.6232  0.3367  1.9606
  180MOL0     H24794   1.322  11.243  10.985  1.7916  2.5902  1.3390
  180MOL0     H24795   1.157  11.281  10.959 -2.0473 -0.4608  2.0098
  180MOL0     H24796   1.183  11.442  11.170 -1.0956  0.7190 -1.2926
  180MOL0     H24797   1.351  11.380  11.181  1.6297  0.6968 -2.2579
  180MOL0     H24798   1.494  11.320  10.911 -0.5417  0.3658  1.6429
  180MOL0     H24799   1.733  11.319  10.799 -0.6379 -0.8807 -0.2122
  180MOL0     H24800   1.700  11.233  10.955 -1.9153 -0.9322 -2.8135
  180MOL0     H24801   1.846  11.338  10.932 -0.4496  0.5787 -0.4087
  180MOL0     H24802   2.055  11.780  10.834 -1.1361  2.6099  2.9122
  180MOL0     H24803   2.276  11.848  10.909 -0.5045  0.4186 -2.2791
  180MOL0     H24804   2.516  11.579  10.844  0.1741 -0.6572  0.9095
  180MOL0     H24805   2.581  11.739  10.868 -1.4221  0.8316 -0.4597
  180MOL0     H24806   2.682  11.632  11.085  3.2396 -0.9459  0.7636
  180MOL0     H24807   2.660  11.476  10.998 -2.6545 -0.7314  0.8271
  180MOL0     H24808   2.885  11.588  10.958 -0.5385  1.8887  0.9839
  180MOL0     H24809   2.806  11.721  10.877 -1.5872 -0.5330 -4.6050
  180MOL0     H24810   2.730  11.597  10.708 -1.0695 -0.9788  0.6750
  180MOL0     H24811   2.805  11.441  10.773  0.0082  0.3369  0.2430
  180MOL0     H24812   2.923  11.544  10.601 -2.5838  0.1461  0.6577
  180MOL0     H24813   2.960  11.701  10.688 -0.6452  0.0402  1.3590
  180MOL0     H24814   3.071  11.412  10.743  2.5743 -0.1716 -3.5707
  180MOL0     H24815   3.090  11.542  10.860  0.2372 -0.3749  0.4670
  180MOL0     H24816   3.282  11.535  10.722  1.1668  1.8767 -1.0218
  180MOL0     H24817   3.190  11.678  10.693 -1.9512 -0.6043  3.5972
  180MOL0     H24818   3.161  11.633  10.471 -2.2743 -0.7733  0.6344
  180MOL0     H24819   3.123  11.454  10.496  1.7097 -0.9848 -4.9727
  180MOL0     H24820   2.340  11.439  11.050 -0.0528  1.0737  2.5862
  180MOL0     H24821   2.107  11.387  10.994  0.7388 -0.2307 -1.1908
  180MOL0     H24822   1.627  11.769  11.078 -2.0797  0.7262  0.2737
  180MOL0     H24823   1.392  11.698  11.091 -1.0950 -1.8930  1.9147
  180MOL0     H24824   1.808  10.873  11.157 -1.0444  2.7841  1.4271
  180MOL0     H24825   1.572  10.881  11.112  1.0621 -1.9412 -0.7832
  180MOL0     H24826   1.233  11.013  10.822  1.1332 -0.4978 -2.2859
  180MOL0     H24827   1.011  11.043  10.712 -0.4644 -0.0315  1.0733
  180MOL0     H24828   0.944  11.017  10.479 -2.9699  2.3373 -0.6244
  180MOL0     H24829   0.855  10.889  10.387  0.4015 -1.3311  0.7785
  180MOL0     H24830   0.737  11.054  10.610 -2.6982  4.0626 -1.5120
  180MOL0     H24831   0.661  10.926  10.513  1.2973 -0.9729  0.1162
  180MOL0     H24832   0.778  11.198  10.412 -0.0219  0.4732 -2.8378
  180MOL0     H24833   0.703  11.073  10.307 -0.1335  2.0425 -0.6468
  180MOL0     H24834   0.566  11.271  10.347  2.5093 -0.2556 -0.5769
  180MOL0     H24835   0.537  11.213  10.515 -3.1834 -1.1261 -0.8757
  180MOL0     H24836   0.307  10.946  10.298  0.1149 -2.2823  2.4530
  180MOL0     H24837   1.041  10.637  10.584  0.2656  0.3080 -1.0047
  180MOL0     H24838   1.363  10.606  10.609 -2.0432  2.5154  0.0347
  180MOL0     H24839   1.312  10.522  10.761  0.4989 -2.5666 -1.5911
  180MOL0     H24840   1.221  10.509  10.607 -1.0873 -0.9775 -0.2598
  181MOL0     O24841   4.039   0.888   8.791  0.4767 -0.1122 -0.8489
  181MOL0     C24842   4.151   0.914   8.747 -0.3709 -0.2895 -0.3814
  181MOL0     O24843   4.203   0.869   8.623 -0.2844  0.4450  0.0262
  181MOL0     C24844   4.113   0.831   8.531  0.1985 -0.3124  0.3624
  181MOL0     C24845   4.043   0.711   8.555  0.8002 -0.2779  0.8846
  181MOL0     C24846   3.941   0.673   8.466 -0.0326 -0.1232 -0.2357
  181MOL0     C24847   3.926   0.737   8.345  0.3010 -0.7066 -0.2920
  181MOL0     O24848   3.813   0.690   8.275  0.7571  0.3327  0.0116
  181MOL0     C24849   3.797   0.733   8.146 -0.3141 -0.7366 -0.5869
  181MOL0     C24850   3.686   0.643   8.079  0.3322 -0.6184 -0.0858
  181MOL0     C24851   3.549   0.695   8.112  0.3001  0.2459  0.0833
  181MOL0     C24852   3.440   0.598   8.071  0.7321  0.2942 -0.4536
  181MOL0     C24853   3.313   0.663   8.034 -0.7100 -0.4678  0.1985
  181MOL0     C24854   3.203   0.562   7.993 -0.0313 -0.7134 -0.2134
  181MOL0     C24855   3.093   0.635   7.936  0.0189 -0.2028  0.0668
  181MOL0     C24856   2.970   0.547   7.896  0.7878 -0.9615  0.1887
  181MOL0     N24857   2.888   0.502   8.007  0.5282 -0.2379  0.0696
  181MOL0     C24858   2.885   0.369   8.037  0.1590  0.1486 -0.4172
  181MOL0     C24859   2.772   0.359   8.111 -0.3491 -0.0746  0.0157
  181MOL0     C24860   2.699   0.241   8.171 -0.5241 -0.1284  0.1472
  181MOL0     C24861   2.772   0.192   8.304 -0.1461  0.6013  0.1228
  181MOL0     C24862   2.694   0.085   8.392 -0.9194  0.1906  0.0102
  181MOL0     C24863   2.550   0.122   8.441 -0.6056 -0.5674  0.3323
  181MOL0     O24864   2.459   0.064   8.351 -0.1022  0.8136 -0.1858
  181MOL0     C24865   2.333   0.113   8.367 -0.0537  1.2601  0.6785
  181MOL0     C24866   2.263   0.115   8.485  0.5248  0.3310  0.4309
  181MOL0     C24867   2.130   0.172   8.480 -0.1139 -0.0920  0.1094
  181MOL0     C24868   2.072   0.203   8.621 -1.0774 -0.2434 -0.1552
  181MOL0     C24869   2.072   0.228   8.356 -0.0723  0.3107 -0.3246
  181MOL0     C24870   1.929   0.277   8.345 -0.7039 -0.8735 -0.1856
  181MOL0     O24871   1.873   0.281   8.222  0.0768 -0.1628  0.3990
  181MOL0     C24872   1.735   0.274   8.203 -0.5913 -0.0125  0.0636
  181MOL0     C24873   1.653   0.201   8.289  0.3202 -0.8276  0.7265
  181MOL0     C24874   1.513   0.192   8.260  0.8848 -0.0569 -0.3565
  181MOL0     C24875   1.451   0.253   8.145 -0.8533  0.5104  0.4175
  181MOL0     O24876   1.319   0.243   8.126  0.4057 -0.4637  0.4530
  181MOL0     C24877   1.253   0.335   8.041 -0.2047  0.0742  0.2699
  181MOL0     C24878   1.109   0.352   8.072 -0.0915 -0.2166 -0.1911
  181MOL0     C24879   1.041   0.212   8.087 -0.1181  0.0626  0.5263
  181MOL0     C24880   0.898   0.234   8.121  0.5493  0.5840 -0.0214
  181MOL0     C24881   0.850   0.097   8.179 -0.2515 -0.1266 -0.8850
  181MOL0     C24882   0.699   0.092   8.183 -0.5268 -0.2392 -0.5819
  181MOL0     C24883   0.652  -0.051   8.222  0.1374 -0.0017  0.0166
  181MOL0     C24884   0.503  -0.072   8.212  0.1596  0.4773 -0.0377
  181MOL0    Cl24885   0.423  -0.015   8.359  0.3272  0.2578  0.4010
  181MOL0     C24886   1.540   0.323   8.060 -0.0979  0.4041 -1.1314
  181MOL0     C24887   1.679   0.336   8.087  0.9300  0.6040 -0.0617
  181MOL0     O24888   1.870   0.303   8.448 -0.3075 -0.0530 -0.0534
  181MOL0     C24889   2.149   0.203   8.241 -0.3394 -0.4093  0.5334
  181MOL0     C24890   2.277   0.147   8.249  0.5522 -0.3364 -1.0988
  181MOL0     N24891   2.715   0.494   8.122  0.1908 -0.0239  0.5488
  181MOL0     N24892   2.793   0.569   8.071 -0.1463 -1.2671  0.2864
  181MOL0     C24893   4.003   0.849   8.317 -0.5931 -1.1100 -0.1595
  181MOL0     C24894   4.091   0.900   8.414  0.1423  0.6970  0.6942
  181MOL0     C24895   4.236   0.993   8.847  0.1224 -0.2608  0.2496
  181MOL0     C24896   4.193   0.992   8.982  0.3457  0.9812  0.1185
  181MOL0     C24897   4.273   1.054   9.088 -0.1203  0.2167  0.6541
  181MOL0     C24898   4.390   1.116   9.061  0.1704  0.5227 -0.2224
  181MOL0     O24899   4.475   1.163   9.162  0.6830  0.5461 -0.3196
  181MOL0     C24900   4.603   1.225   9.129 -0.0755  0.1671 -0.4389
  181MOL0     C24901   4.666   1.255   9.265 -0.3109  0.0537 -0.2767
  181MOL0     C24902   4.722   1.122   9.324 -0.2087  0.7194  0.0285
  181MOL0     C24903   4.865   1.094   9.275  0.1623  0.1709 -0.0766
  181MOL0     C24904   4.959   1.194   9.330  0.5013  0.4996  0.5879
  181MOL0     C24905   5.033   1.281   9.376 -1.2400 -0.2297  0.1512
  181MOL0     C24906   4.432   1.127   8.930 -0.5084 -0.2650 -0.0332
  181MOL0     C24907   4.360   1.069   8.825  0.5881  0.0838 -0.1905
  181MOL0     C24908   4.412   1.078   8.685 -0.6538  0.1054  0.5872
  181MOL0     H24909   4.050   0.644   8.640 -0.4618  2.3146  3.2195
  181MOL0     H24910   3.874   0.590   8.485 -0.0480 -0.7901 -2.7731
  181MOL0     H24911   3.888   0.721   8.086 -0.6507  0.2927 -1.3368
  181MOL0     H24912   3.772   0.839   8.143 -0.0990 -0.6933 -0.9569
  181MOL0     H24913   3.711   0.644   7.973 -0.5476 -1.5404 -0.3224
  181MOL0     H24914   3.688   0.545   8.129 -1.5907  0.6597  2.7991
  181MOL0     H24915   3.542   0.714   8.220 -1.2163  2.3561 -0.3138
  181MOL0     H24916   3.526   0.787   8.057  0.9960  1.6864  2.0588
  181MOL0     H24917   3.488   0.535   7.995 -0.7506 -1.1643 -0.2364
  181MOL0     H24918   3.421   0.525   8.150 -2.1737  0.3634 -0.9943
  181MOL0     H24919   3.319   0.738   7.955 -1.9650  1.7158  2.0552
  181MOL0     H24920   3.278   0.713   8.125 -0.4953 -0.5110  0.3074
  181MOL0     H24921   3.247   0.487   7.927 -0.1450  0.1982 -1.3459
  181MOL0     H24922   3.170   0.504   8.080  0.1362  0.6510  0.7860
  181MOL0     H24923   3.126   0.679   7.841 -2.1315 -0.5325 -0.9157
  181MOL0     H24924   3.058   0.720   7.995 -0.6551 -0.1592 -0.3814
  181MOL0     H24925   2.905   0.611   7.835  1.8137 -0.5134 -0.4675
  181MOL0     H24926   2.999   0.460   7.836 -0.6992 -2.0001  0.8974
  181MOL0     H24927   2.961   0.294   8.016  2.0545  1.1010  2.4328
  181MOL0     H24928   2.678   0.168   8.092  0.3868  2.1334 -2.3280
  181MOL0     H24929   2.599   0.273   8.204  0.6985  2.4878  1.7123
  181MOL0     H24930   2.866   0.148   8.270 -0.5365 -2.2415  2.3032
  181MOL0     H24931   2.803   0.281   8.359  0.2412  0.7077 -0.2643
  181MOL0     H24932   2.696  -0.013   8.343 -0.3087  1.0267 -1.7553
  181MOL0     H24933   2.770   0.069   8.469  0.0843 -1.8756 -1.3308
  181MOL0     H24934   2.535   0.076   8.539 -0.0710 -4.1758 -1.1284
  181MOL0     H24935   2.532   0.230   8.450 -2.6868 -0.7799 -0.5137
  181MOL0     H24936   2.316   0.086   8.575  0.0506  2.5612  1.4764
  181MOL0     H24937   1.968   0.173   8.633 -0.3662 -2.8893  0.0434
  181MOL0     H24938   2.091   0.307   8.648  1.9154 -0.6046 -0.4718
  181MOL0     H24939   2.133   0.144   8.691  1.2144  1.6504 -0.4346
  181MOL0     H24940   1.696   0.131   8.359  1.1177 -1.2320 -0.1411
  181MOL0     H24941   1.451   0.135   8.329  1.4721  1.3129  1.3821
  181MOL0     H24942   1.297   0.433   8.061  0.7234 -0.9393  3.9844
  181MOL0     H24943   1.253   0.301   7.937  1.0771 -1.2731  0.6902
  181MOL0     H24944   1.103   0.406   8.167  1.0645 -0.5038  0.0525
  181MOL0     H24945   1.059   0.404   7.990  2.3459 -1.3430 -2.4981
  181MOL0     H24946   1.091   0.159   8.168 -3.1822 -1.9559  1.2892
  181MOL0     H24947   1.055   0.157   7.994 -0.4469 -1.0080  1.0877
  181MOL0     H24948   0.839   0.254   8.031 -1.6026  0.5103  1.3255
  181MOL0     H24949   0.883   0.321   8.185  2.6152  1.9936 -1.3175
  181MOL0     H24950   0.888   0.022   8.110 -0.9696  0.8650 -2.4068
  181MOL0     H24951   0.886   0.081   8.281  3.4392 -0.0050 -2.0445
  181MOL0     H24952   0.651   0.120   8.089  0.4516 -0.7680 -1.2539
  181MOL0     H24953   0.666   0.166   8.257  0.1672 -1.7331  1.3116
  181MOL0     H24954   0.683  -0.063   8.327  1.0120 -2.5124 -0.4461
  181MOL0     H24955   0.700  -0.121   8.153 -0.5936 -2.1220  1.5221
  181MOL0     H24956   0.475  -0.175   8.189 -3.2282  0.1205  4.3682
  181MOL0     H24957   0.468  -0.006   8.132  1.2117  0.5859 -0.4249
  181MOL0     H24958   1.509   0.372   7.968 -1.4635  2.7775  0.4941
  181MOL0     H24959   1.749   0.393   8.027 -0.4473  1.2384 -1.1442
  181MOL0     H24960   2.102   0.245   8.152  0.9226  1.3135  0.6378
  181MOL0     H24961   2.329   0.125   8.157  0.5303 -3.1496 -0.5402
  181MOL0     H24962   3.985   0.911   8.229  0.5072  0.5513  0.7340
  181MOL0     H24963   4.133   0.999   8.394  0.9579 -0.2093 -2.9712
  181MOL0     H24964   4.109   0.925   9.001 -1.0624  2.0862 -1.8515
  181MOL0     H24965   4.257   1.048   9.195  2.2260 -0.3084  1.0291
  181MOL0     H24966   4.672   1.168   9.065  1.3052 -0.8017  1.7702
  181MOL0     H24967   4.588   1.322   9.080 -1.7626  0.7258  1.0870
  181MOL0     H24968   4.586   1.294   9.328 -1.1211  0.7211 -1.6865
  181MOL0     H24969   4.744   1.331   9.259 -0.6627  1.0499  4.0153
  181MOL0     H24970   4.722   1.133   9.433 -1.1551 -0.6106  0.1895
  181MOL0     H24971   4.663   1.032   9.304  3.2760 -1.7621 -0.0587
  181MOL0     H24972   4.874   1.095   9.166  0.6513 -1.0004 -0.0683
  181MOL0     H24973   4.893   0.994   9.311 -0.3123  0.5328  1.3555
  181MOL0     H24974   5.109   1.343   9.420 -1.0952 -0.7538  0.6490
  181MOL0     H24975   4.527   1.171   8.902 -0.3019  0.3520  1.5464
  181MOL0     H24976   4.451   0.979   8.660  0.7004  1.4111 -3.1414
  181MOL0     H24977   4.330   1.112   8.621 -1.7587  1.0292  2.3730
  181MOL0     H24978   4.498   1.145   8.683 -1.5184  1.2594 -2.3156
  182MOL0     O24979   8.769  10.746   9.228  0.0606  0.6007  0.3029
  182MOL0     C24980   8.752  10.860   9.275 -0.2339 -0.6156  0.1115
  182MOL0     O24981   8.770  10.977   9.206 -0.5569 -0.3337 -0.0254
  182MOL0     C24982   8.863  10.986   9.101  0.1722 -0.3443 -0.2590
  182MOL0     C24983   8.959  10.892   9.077 -0.5232 -0.4998  0.6749
  182MOL0     C24984   9.066  10.909   8.982 -0.8988 -0.2279 -0.1764
  182MOL0     C24985   9.056  11.023   8.905 -0.1417 -1.3436 -0.4130
  182MOL0     O24986   9.148  11.031   8.799 -0.7971 -0.2322 -0.0003
  182MOL0     C24987   9.155  11.157   8.732  0.0763 -0.0705  0.4100
  182MOL0     C24988   9.275  11.145   8.630 -0.0210  0.1796  0.4586
  182MOL0     C24989   9.275  11.016   8.549  0.7128 -0.4926 -0.1132
  182MOL0     C24990   9.380  11.031   8.434  0.0246 -0.4253  0.1642
  182MOL0     C24991   9.313  10.986   8.294 -0.0313  0.2283 -0.1758
  182MOL0     C24992   9.284  10.837   8.276  0.0045 -0.4311  0.0237
  182MOL0     C24993   9.261  10.808   8.129  0.2023  0.2553 -0.3001
  182MOL0     C24994   9.379  10.731   8.067  0.1767  1.0166 -0.9880
  182MOL0     N24995   9.498  10.819   8.069  0.2624  0.1205  0.8937
  182MOL0     C24996   9.515  10.930   7.987  0.1291  0.7480 -0.1206
  182MOL0     C24997   9.646  10.959   7.989  0.8163 -0.0313  0.2488
  182MOL0     C24998   9.709  11.082   7.933 -0.7445 -0.5117  0.6489
  182MOL0     C24999   9.850  11.111   7.995  0.7337  0.5220  0.2783
  182MOL0     C25000   9.926  11.224   7.945  0.3701 -0.5791  0.9996
  182MOL0     C25001  10.049  11.251   8.033 -0.4671  0.2625 -0.8339
  182MOL0     O25002  10.162  11.183   7.986  0.1759  0.7358  0.1764
  182MOL0     C25003  10.267  11.258   7.937 -0.4625  0.8177 -0.6976
  182MOL0     C25004  10.395  11.197   7.932 -0.7171  0.3932  0.6707
  182MOL0     C25005  10.501  11.246   7.856 -0.0747 -0.5169  0.2263
  182MOL0     C25006  10.628  11.167   7.855 -0.1534  0.6725  0.1996
  182MOL0     C25007  10.487  11.372   7.793  0.5699  0.6633 -0.5778
  182MOL0     C25008  10.591  11.448   7.721 -0.1270  0.1900  0.5850
  182MOL0     O25009  10.556  11.527   7.617  1.1318  0.2364 -0.8638
  182MOL0     C25010  10.644  11.592   7.535 -0.3276 -0.0644 -0.0594
  182MOL0     C25011  10.683  11.716   7.576 -0.0408 -0.4661 -0.8747
  182MOL0     C25012  10.743  11.805   7.487  0.0127 -0.4023 -1.1662
  182MOL0     C25013  10.789  11.759   7.362  0.9170 -0.0896 -0.1835
  182MOL0     O25014  10.866  11.835   7.271 -0.2970 -0.4992 -0.1932
  182MOL0     C25015  10.883  11.968   7.310 -0.1993  0.2853  0.7172
  182MOL0     C25016  10.935  12.069   7.199 -0.4841  0.3433  0.1343
  182MOL0     C25017  11.078  12.032   7.144  0.2338  0.1786  0.7975
  182MOL0     C25018  11.101  12.077   6.997  0.1236  0.0616  0.2064
  182MOL0     C25019  11.241  12.044   6.937  0.1862 -0.6179 -0.2014
  182MOL0     C25020  11.324  12.170   6.921 -0.0796  0.4179  0.4137
  182MOL0     C25021  11.461  12.125   6.882 -0.9395  0.3373  0.4811
  182MOL0     C25022  11.518  12.222   6.783 -0.5081  0.4127  0.2295
  182MOL0    Cl25023  11.530  12.390   6.843 -0.1938 -0.5358 -0.4511
  182MOL0     C25024  10.756  11.625   7.325  0.2137 -0.2733  0.9381
  182MOL0     C25025  10.690  11.538   7.410 -0.1028 -1.0121 -1.0097
  182MOL0     O25026  10.707  11.425   7.743  0.1940 -0.4722  0.0498
  182MOL0     C25027  10.356  11.426   7.800  0.3600 -0.7850  0.4041
  182MOL0     C25028  10.243  11.376   7.867 -0.4463  0.1706 -0.4590
  182MOL0     N25029   9.714  10.860   8.064  0.8680 -0.8846  0.2262
  182MOL0     N25030   9.625  10.779   8.110  0.1438 -0.6028  1.2213
  182MOL0     C25031   8.966  11.129   8.939  0.2801  0.3881  0.4673
  182MOL0     C25032   8.866  11.102   9.029 -0.9071 -0.4412 -0.5633
  182MOL0     C25033   8.670  10.870   9.399 -0.6378 -0.7703  0.0972
  182MOL0     C25034   8.550  10.949   9.405  0.1559  0.3422 -0.8720
  182MOL0     C25035   8.453  10.946   9.507  0.1291 -0.6700  0.9137
  182MOL0     C25036   8.486  10.863   9.620 -0.1246  0.7847 -0.3818
  182MOL0     O25037   8.416  10.865   9.739 -0.0554 -0.0655 -0.5031
  182MOL0     C25038   8.420  10.991   9.798  0.5448  0.7238 -0.3386
  182MOL0     C25039   8.415  10.973   9.951  0.1315  0.2874 -0.1072
  182MOL0     C25040   8.260  10.950   9.991  0.7186  0.5829  0.0800
  182MOL0     C25041   8.228  10.912  10.134  0.1004  0.4811 -0.5718
  182MOL0     C25042   8.319  10.808  10.177 -0.4484 -0.5268 -0.8718
  182MOL0     C25043   8.407  10.727  10.214  0.0456  0.1217  0.5777
  182MOL0     C25044   8.609  10.788   9.616 -0.1163  0.2595 -0.1634
  182MOL0     C25045   8.697  10.791   9.509  0.1153  0.1616 -0.4307
  182MOL0     C25046   8.826  10.703   9.518  0.2987 -0.5759 -0.0159
  182MOL0     H25047   8.969  10.795   9.124  0.7932 -0.9321 -0.4453
  182MOL0     H25048   9.147  10.838   8.965 -1.0302 -0.2897 -0.5696
  182MOL0     H25049   9.180  11.226   8.813  1.8664 -0.3844  0.1798
  182MOL0     H25050   9.063  11.184   8.681  0.8762 -1.2119 -1.7734
  182MOL0     H25051   9.261  11.226   8.557 -3.4034 -2.2295 -1.8774
  182MOL0     H25052   9.365  11.163   8.689  0.1361  0.3272  0.1800
  182MOL0     H25053   9.309  10.928   8.604 -1.7018  0.1750  2.6513
  182MOL0     H25054   9.172  11.013   8.513 -0.0503  0.2275  1.8969
  182MOL0     H25055   9.402  11.138   8.430 -1.1707 -0.0801  1.7076
  182MOL0     H25056   9.467  10.969   8.457  0.0482  0.2510  2.0198
  182MOL0     H25057   9.372  11.016   8.207 -0.4025  1.1063 -0.1311
  182MOL0     H25058   9.217  11.037   8.284 -0.9361 -1.2082  0.8399
  182MOL0     H25059   9.371  10.776   8.303 -0.0934 -0.9131 -0.6999
  182MOL0     H25060   9.205  10.817   8.349 -1.8635  2.8922 -0.8829
  182MOL0     H25061   9.250  10.902   8.073  2.6423  1.2161  0.6864
  182MOL0     H25062   9.169  10.749   8.120  0.3731  0.2920 -3.2057
  182MOL0     H25063   9.399  10.635   8.115 -1.9345  1.1260  0.1877
  182MOL0     H25064   9.351  10.709   7.964  1.9687  0.9641 -1.5078
  182MOL0     H25065   9.447  10.994   7.931  1.7181  0.6502 -2.2558
  182MOL0     H25066   9.650  11.172   7.954  0.3960  0.9788 -1.9935
  182MOL0     H25067   9.732  11.071   7.827  1.0061 -0.9583  1.0426
  182MOL0     H25068   9.842  11.116   8.104  0.2701  0.3909  0.2531
  182MOL0     H25069   9.912  11.023   7.976 -1.5178 -1.3781  1.1369
  182MOL0     H25070   9.952  11.219   7.839  4.2272  0.5225  1.7235
  182MOL0     H25071   9.862  11.312   7.955  2.8195  1.1976  2.1744
  182MOL0     H25072  10.061  11.359   8.047 -2.1920  0.2064  1.8037
  182MOL0     H25073  10.039  11.209   8.134  0.8779  1.5777 -0.1129
  182MOL0     H25074  10.406  11.096   7.972  1.8390 -0.2699 -1.4227
  182MOL0     H25075  10.625  11.089   7.932  0.6786  2.7381  2.4931
  182MOL0     H25076  10.709  11.231   7.894  0.2503 -0.4702  1.2963
  182MOL0     H25077  10.664  11.140   7.756 -2.6062  0.8069 -0.7881
  182MOL0     H25078  10.630  11.748   7.665  1.6738 -0.5025  0.2148
  182MOL0     H25079  10.774  11.900   7.529 -3.6890  0.5535 -0.2176
  182MOL0     H25080  10.786  12.003   7.348  0.0825  0.3286  1.4018
  182MOL0     H25081  10.957  11.961   7.390  0.4348  3.1336  0.4736
  182MOL0     H25082  10.859  12.060   7.120  2.0491 -1.4680 -2.2835
  182MOL0     H25083  10.938  12.170   7.239 -3.3505  0.7935 -0.5283
  182MOL0     H25084  11.091  11.924   7.159  0.5883 -0.1055 -1.2862
  182MOL0     H25085  11.153  12.081   7.207  1.5162  0.5584 -0.9490
  182MOL0     H25086  11.090  12.186   7.001 -3.8917 -0.2366  0.4557
  182MOL0     H25087  11.027  12.034   6.930  0.3897 -3.0958  1.7341
  182MOL0     H25088  11.296  11.966   6.990  1.5164 -1.0518 -2.1171
  182MOL0     H25089  11.221  11.996   6.841  1.3309  2.0082 -1.8904
  182MOL0     H25090  11.333  12.226   7.014  1.5918  2.1914 -0.7308
  182MOL0     H25091  11.289  12.229   6.835  1.3966  1.3140  0.3877
  182MOL0     H25092  11.456  12.023   6.844 -2.5377  0.7204 -0.4292
  182MOL0     H25093  11.526  12.127   6.971 -1.3989 -2.2461  0.9521
  182MOL0     H25094  11.447  12.215   6.700 -0.0937 -1.2279 -0.0307
  182MOL0     H25095  11.613  12.184   6.747 -1.5631 -2.2019 -0.0269
  182MOL0     H25096  10.793  11.586   7.230 -1.7944 -0.8429  0.3564
  182MOL0     H25097  10.669  11.434   7.386  0.1138 -1.6695  1.3975
  182MOL0     H25098  10.339  11.513   7.738  3.3458 -1.1524 -1.1375
  182MOL0     H25099  10.145  11.420   7.856 -1.3539 -2.0688 -2.0304
  182MOL0     H25100   8.950  11.222   8.886 -1.5261 -1.0329 -1.6419
  182MOL0     H25101   8.797  11.183   9.051  0.3967  1.0484 -1.8047
  182MOL0     H25102   8.525  11.015   9.323  3.0975  3.4550  0.4821
  182MOL0     H25103   8.358  10.998   9.514  0.7879  0.5035  1.4651
  182MOL0     H25104   8.503  11.052   9.761  1.0946  1.3153  1.7494
  182MOL0     H25105   8.332  11.054   9.782  2.2305  3.2638 -0.0744
  182MOL0     H25106   8.465  11.055  10.003  1.9551  0.5152 -2.1052
  182MOL0     H25107   8.474  10.885   9.979  0.8801  0.6628 -0.4769
  182MOL0     H25108   8.213  11.046   9.969  1.5811  1.9474  3.5076
  182MOL0     H25109   8.214  10.861   9.945  0.0254 -1.5775  4.4173
  182MOL0     H25110   8.124  10.882  10.148  0.0839  0.3546 -0.9456
  182MOL0     H25111   8.254  10.998  10.197  2.8447 -1.3624  1.0555
  182MOL0     H25112   8.497  10.682  10.251 -0.0014 -0.8585 -0.4278
  182MOL0     H25113   8.639  10.736   9.706 -1.4506 -1.9730 -0.9119
  182MOL0     H25114   8.851  10.689   9.623 -1.2576  1.4344  0.6928
  182MOL0     H25115   8.811  10.608   9.466  4.4808 -0.9567 -0.8399
  182MOL0     H25116   8.911  10.747   9.465 -0.5084  0.6277 -0.3581
  183MOL0     O25117   6.663   8.433  10.937 -0.6230  0.5029  0.0141
  183MOL0     C25118   6.549   8.465  10.937  0.5437  0.1593  0.9076
  183MOL0     O25119   6.445   8.414  11.012 -0.1003  0.0875 -0.0666
  183MOL0     C25120   6.462   8.306  11.098 -0.5494 -0.3489 -0.1950
  183MOL0     C25121   6.347   8.229  11.121 -0.2839  0.9511  0.8525
  183MOL0     C25122   6.345   8.116  11.194  0.2272 -0.0290 -0.8130
  183MOL0     C25123   6.452   8.070  11.264 -0.6204 -0.2498 -0.2444
  183MOL0     O25124   6.426   7.966  11.345  0.3733 -0.1192 -0.2481
  183MOL0     C25125   6.539   7.894  11.400 -0.0187 -0.0130  0.7517
  183MOL0     C25126   6.491   7.750  11.422 -0.1647  0.1201  0.5070
  183MOL0     C25127   6.458   7.648  11.312  0.3017  0.0403  0.4597
  183MOL0     C25128   6.307   7.667  11.263 -0.5142  0.3361 -0.2213
  183MOL0     C25129   6.263   7.562  11.164  0.3211  0.6439  0.8337
  183MOL0     C25130   6.284   7.413  11.197 -0.3222 -0.0924 -0.1210
  183MOL0     C25131   6.222   7.369  11.330 -0.0960 -0.2360 -0.2817
  183MOL0     C25132   6.273   7.227  11.371 -0.2401 -0.3071  0.3191
  183MOL0     N25133   6.256   7.129  11.262 -1.0000  0.3264 -0.2032
  183MOL0     C25134   6.137   7.098  11.202 -0.7756 -0.4529  0.3316
  183MOL0     C25135   6.164   6.992  11.121  0.2846  0.2895 -0.5974
  183MOL0     C25136   6.069   6.913  11.041 -0.2290 -0.4187  0.1190
  183MOL0     C25137   5.937   6.891  11.112  0.4906  0.5486  0.1053
  183MOL0     C25138   5.868   6.774  11.054  0.6008  0.4831 -0.0210
  183MOL0     C25139   5.720   6.784  11.089  1.3493 -0.1191 -0.5828
  183MOL0     O25140   5.668   6.861  10.984 -0.4547 -0.0764  0.1983
  183MOL0     C25141   5.566   6.950  11.004 -0.0433 -0.7742 -0.3816
  183MOL0     C25142   5.478   6.950  11.112  0.9877  0.0138 -0.4266
  183MOL0     C25143   5.381   7.049  11.133  0.7172 -0.6767  0.0522
  183MOL0     C25144   5.292   7.046  11.255  0.4481 -0.4697  0.3707
  183MOL0     C25145   5.368   7.149  11.032 -0.3014 -0.1602 -0.9986
  183MOL0     C25146   5.258   7.256  11.026 -0.5124 -0.3004  0.1534
  183MOL0     O25147   5.167   7.267  11.122 -0.1919 -0.5166  0.4942
  183MOL0     C25148   5.078   7.372  11.111  1.1374  0.4734  0.7108
  183MOL0     C25149   5.111   7.505  11.086  1.1074  0.2840  0.2032
  183MOL0     C25150   5.014   7.607  11.095  0.0003 -0.3977  0.2113
  183MOL0     C25151   4.881   7.578  11.131  0.2213  0.4177 -0.8879
  183MOL0     O25152   4.776   7.664  11.141 -0.0206 -0.1659 -0.4211
  183MOL0     C25153   4.815   7.799  11.156  0.7995  0.0250  0.4992
  183MOL0     C25154   4.684   7.862  11.199 -0.3801 -0.4098 -0.4589
  183MOL0     C25155   4.575   7.874  11.092 -0.3477  0.3718 -0.1472
  183MOL0     C25156   4.456   7.950  11.146 -0.4662 -0.7995  0.3299
  183MOL0     C25157   4.351   7.861  11.200  0.6264  0.3576 -0.5240
  183MOL0     C25158   4.226   7.947  11.235 -0.5098  0.5372  0.2456
  183MOL0     C25159   4.125   7.877  11.319  0.5461  0.8814 -0.2172
  183MOL0     C25160   4.036   7.779  11.232 -0.3938 -0.1819 -0.3671
  183MOL0    Cl25161   3.925   7.886  11.144  0.2050  0.7050 -0.7053
  183MOL0     C25162   4.851   7.446  11.166  0.1310 -1.4116 -0.1500
  183MOL0     C25163   4.948   7.343  11.152  0.4438  0.1673  0.7514
  183MOL0     O25164   5.258   7.327  10.925 -0.4264  0.3436 -0.3897
  183MOL0     C25165   5.465   7.150  10.927 -0.6588 -0.6790 -0.5223
  183MOL0     C25166   5.558   7.048  10.915 -0.2015 -0.8265 -0.6638
  183MOL0     N25167   6.298   6.964  11.125  0.6513 -0.6480 -0.5701
  183MOL0     N25168   6.352   7.052  11.204 -0.3405  0.8726  0.8968
  183MOL0     C25169   6.573   8.141  11.241 -0.8829 -0.3749 -0.0908
  183MOL0     C25170   6.583   8.256  11.159  0.1189 -0.4219  0.0355
  183MOL0     C25171   6.497   8.572  10.841  0.3250 -0.2323 -0.2275
  183MOL0     C25172   6.361   8.608  10.835  0.2574  0.0070  0.7850
  183MOL0     C25173   6.312   8.705  10.750 -0.4016 -0.4542  0.9939
  183MOL0     C25174   6.393   8.782  10.660 -0.7796 -0.7580 -0.0613
  183MOL0     O25175   6.340   8.892  10.600  0.6673  1.0942  0.0635
  183MOL0     C25176   6.275   8.866  10.484 -0.2412  0.2333 -0.2255
  183MOL0     C25177   6.212   8.997  10.449 -0.6860 -1.3342  0.1758
  183MOL0     C25178   6.102   9.029  10.551  1.2644  0.0947 -0.0875
  183MOL0     C25179   6.023   9.155  10.511 -0.4288 -0.0761  0.5398
  183MOL0     C25180   5.948   9.144  10.384  0.0395  0.3727 -0.9831
  183MOL0     C25181   5.875   9.140  10.293  0.2675  0.2734  1.0052
  183MOL0     C25182   6.528   8.754  10.666 -0.2779  0.3340  0.6032
  183MOL0     C25183   6.590   8.655  10.752  0.0188  0.4639  0.1832
  183MOL0     C25184   6.732   8.624  10.731  0.3703 -0.4692 -0.1250
  183MOL0     H25185   6.249   8.248  11.078  0.3770  2.7465  0.0275
  183MOL0     H25186   6.249   8.068  11.208  0.9454 -0.7046  2.9531
  183MOL0     H25187   6.574   7.933  11.496  1.3632 -1.3358  0.8182
  183MOL0     H25188   6.628   7.893  11.337  0.5522 -1.3225  1.5235
  183MOL0     H25189   6.569   7.693  11.473  2.7889 -1.2482 -4.7816
  183MOL0     H25190   6.404   7.749  11.489  0.3392  1.4180  1.2193
  183MOL0     H25191   6.532   7.652  11.232  1.5828 -0.4281  1.5919
  183MOL0     H25192   6.466   7.545  11.347 -0.6824 -0.4874 -0.7624
  183MOL0     H25193   6.242   7.679  11.350 -0.4064  0.9587 -0.2175
  183MOL0     H25194   6.299   7.762  11.209  1.1498  0.7353  0.1648
  183MOL0     H25195   6.318   7.580  11.071  0.5201  0.3629  0.8953
  183MOL0     H25196   6.156   7.563  11.144  0.8134 -0.1078 -2.4027
  183MOL0     H25197   6.250   7.356  11.110 -1.3631  0.4687 -0.1027
  183MOL0     H25198   6.392   7.396  11.202 -0.6306 -1.8029  2.2283
  183MOL0     H25199   6.113   7.356  11.324  0.1077 -1.8425 -0.7578
  183MOL0     H25200   6.247   7.451  11.399  1.9368 -0.5441 -0.6045
  183MOL0     H25201   6.378   7.249  11.390  0.0054 -2.0303  1.2303
  183MOL0     H25202   6.226   7.190  11.463 -1.0521  1.4107  0.6320
  183MOL0     H25203   6.039   7.140  11.226  0.5552  4.9954 -2.1228
  183MOL0     H25204   6.126   6.822  11.022 -2.2720 -2.1150  1.7678
  183MOL0     H25205   6.048   6.962  10.945  1.8469  1.4828  0.5495
  183MOL0     H25206   5.947   6.887  11.220  0.7483  3.0589  0.2222
  183MOL0     H25207   5.875   6.979  11.095 -0.4299  0.3424  2.1562
  183MOL0     H25208   5.886   6.776  10.946 -1.4987  3.1761 -0.4389
  183MOL0     H25209   5.900   6.684  11.108  1.0956  0.8414  0.2892
  183MOL0     H25210   5.679   6.683  11.082  2.8453 -1.1215  2.8195
  183MOL0     H25211   5.709   6.819  11.192  0.2077 -2.6057  0.2275
  183MOL0     H25212   5.469   6.873  11.188 -2.2321  0.2861 -0.4071
  183MOL0     H25213   5.187   7.018  11.239 -0.3383  0.8579  2.7679
  183MOL0     H25214   5.286   7.145  11.301 -0.9115  0.4630 -1.6794
  183MOL0     H25215   5.319   6.971  11.330 -0.1421 -0.0286  1.0364
  183MOL0     H25216   5.212   7.543  11.077  2.2975 -2.9358 -2.1417
  183MOL0     H25217   5.040   7.707  11.060  2.7785 -1.2326 -0.3674
  183MOL0     H25218   4.896   7.812  11.229 -0.1185  1.1972  1.3654
  183MOL0     H25219   4.843   7.839  11.058  0.5687 -1.3243 -0.1296
  183MOL0     H25220   4.654   7.804  11.287  1.0312  1.2102  1.1950
  183MOL0     H25221   4.705   7.965  11.231  0.4717 -0.8207  0.3635
  183MOL0     H25222   4.551   7.782  11.038  1.3902 -0.8236  1.0330
  183MOL0     H25223   4.615   7.928  11.005  1.3103 -2.5548 -1.3595
  183MOL0     H25224   4.420   8.016  11.067  3.4707  0.9909 -0.2255
  183MOL0     H25225   4.500   8.010  11.226 -0.6750 -1.0313  0.6223
  183MOL0     H25226   4.326   7.789  11.122  2.1557 -0.6374 -0.1417
  183MOL0     H25227   4.381   7.804  11.288 -1.2749  0.5716  0.3106
  183MOL0     H25228   4.183   7.979  11.139  0.4966  1.7972  0.1846
  183MOL0     H25229   4.264   8.031  11.293 -0.1950  0.6248 -0.0810
  183MOL0     H25230   4.054   7.944  11.368 -1.3290 -0.9222 -0.3140
  183MOL0     H25231   4.180   7.832  11.402  3.7896  0.7538 -2.2696
  183MOL0     H25232   3.987   7.703  11.294 -0.6480 -0.4534 -0.8993
  183MOL0     H25233   4.099   7.724  11.162  1.5075 -0.0270  1.1203
  183MOL0     H25234   4.756   7.411  11.205  0.3177 -1.8679 -0.0921
  183MOL0     H25235   4.909   7.243  11.165 -0.5186  0.6666  1.8779
  183MOL0     H25236   5.473   7.221  10.846  3.5844  0.2527  0.4283
  183MOL0     H25237   5.623   7.058  10.828  1.0392  2.1175  0.4665
  183MOL0     H25238   6.660   8.103  11.294 -2.1826 -0.0787  2.4512
  183MOL0     H25239   6.678   8.304  11.139 -0.5082  0.5155 -0.8351
  183MOL0     H25240   6.294   8.558  10.904 -1.6270 -3.2399 -3.0527
  183MOL0     H25241   6.205   8.721  10.760 -0.7127 -1.7902  0.0191
  183MOL0     H25242   6.345   8.830  10.408  0.1759 -2.7942  1.4490
  183MOL0     H25243   6.205   8.782  10.484 -1.7405  1.4501  0.1961
  183MOL0     H25244   6.168   9.004  10.349 -1.3405 -0.8060  0.4964
  183MOL0     H25245   6.289   9.074  10.452 -0.2835 -1.7515  1.1349
  183MOL0     H25246   6.025   8.951  10.553  1.4483 -0.0839 -0.0741
  183MOL0     H25247   6.148   9.047  10.648  2.2486 -0.4704 -0.4348
  183MOL0     H25248   6.094   9.237  10.497 -0.0321 -0.4808  0.1645
  183MOL0     H25249   5.960   9.176  10.598  0.9534 -0.7102  1.7153
  183MOL0     H25250   5.809   9.131  10.209  2.5165  0.3522 -0.8717
  183MOL0     H25251   6.591   8.819  10.607 -1.4374  0.2613 -0.7480
  183MOL0     H25252   6.794   8.673  10.806 -0.1099 -1.7920  1.1954
  183MOL0     H25253   6.765   8.521  10.716  1.9110  0.1407 -1.1952
  183MOL0     H25254   6.760   8.675  10.638 -2.3041  0.3065 -0.5934
  184MOL0     O25255  11.441   4.669   4.729 -0.3187 -0.5050  0.2159
  184MOL0     C25256  11.381   4.662   4.832  0.7167 -0.3248  0.2284
  184MOL0     O25257  11.419   4.609   4.943 -0.4358  0.2010  0.1307
  184MOL0     C25258  11.546   4.573   4.966 -0.3291  1.0198 -0.5696
  184MOL0     C25259  11.613   4.600   5.095 -0.1518  0.1788  0.1864
  184MOL0     C25260  11.748   4.561   5.115 -0.5048 -0.2554 -0.1773
  184MOL0     C25261  11.825   4.499   5.013  0.7777 -0.3201  0.3977
  184MOL0     O25262  11.956   4.471   5.036  0.0005 -0.2376  0.3903
  184MOL0     C25263  12.040   4.571   4.979 -0.2730 -0.4142  0.3408
  184MOL0     C25264  12.175   4.585   5.041  0.3420  0.6815  0.7265
  184MOL0     C25265  12.242   4.445   5.051 -0.5015  0.3996 -0.0847
  184MOL0     C25266  12.390   4.464   5.082 -0.2527  0.2598  0.0485
  184MOL0     C25267  12.458   4.326   5.069 -0.3641  0.2702 -0.4376
  184MOL0     C25268  12.599   4.348   5.117 -0.5175 -0.7963 -0.1153
  184MOL0     C25269  12.667   4.210   5.138 -0.6423  0.4384 -0.1220
  184MOL0     C25270  12.808   4.233   5.207  1.1205  0.1956  0.6710
  184MOL0     N25271  12.871   4.107   5.234  1.0117 -0.7393  0.0651
  184MOL0     C25272  12.921   4.026   5.140 -0.5902  0.2650  0.5985
  184MOL0     C25273  12.977   3.928   5.205 -0.5025  0.1383  0.3472
  184MOL0     C25274  13.063   3.810   5.158  0.1308 -0.2060 -0.4833
  184MOL0     C25275  13.046   3.684   5.249  0.0034 -0.6271 -0.2978
  184MOL0     C25276  13.136   3.579   5.207 -0.4138  0.8839  0.2195
  184MOL0     C25277  13.143   3.464   5.313  0.6773  0.2169  0.3729
  184MOL0     O25278  13.213   3.347   5.258  0.1228  0.2712 -0.2570
  184MOL0     C25279  13.347   3.330   5.267  0.2458  0.7461  0.3015
  184MOL0     C25280  13.412   3.218   5.214 -0.6140 -0.3622  0.4747
  184MOL0     C25281  13.551   3.206   5.224  0.0058  0.0131  0.2318
  184MOL0     C25282  13.611   3.092   5.156 -0.2111  0.7781  0.2870
  184MOL0     C25283  13.627   3.314   5.279  0.0987 -0.1187  0.3382
  184MOL0     C25284  13.775   3.324   5.271  0.6943 -0.0518 -0.2725
  184MOL0     O25285  13.831   3.417   5.352  0.3534 -0.2907 -0.6494
  184MOL0     C25286  13.964   3.451   5.346  0.6879  0.6820 -1.0040
  184MOL0     C25287  14.067   3.391   5.285 -0.5389  0.2806 -0.5672
  184MOL0     C25288  14.197   3.436   5.307  0.1122  0.9381  0.6500
  184MOL0     C25289  14.227   3.540   5.390  0.0715  0.2447 -0.1171
  184MOL0     O25290  14.357   3.591   5.400 -0.4527 -0.7912 -0.3703
  184MOL0     C25291  14.469   3.523   5.348  0.6758 -0.4362 -0.1773
  184MOL0     C25292  14.607   3.556   5.418 -0.2086 -0.4006 -0.0613
  184MOL0     C25293  14.585   3.596   5.566  0.3334  0.5029  1.0568
  184MOL0     C25294  14.717   3.621   5.627  0.2462  0.1729  0.8376
  184MOL0     C25295  14.703   3.666   5.769 -0.4052 -0.2460  0.2045
  184MOL0     C25296  14.841   3.699   5.833 -0.1432 -0.9143  0.0608
  184MOL0     C25297  14.837   3.750   5.976 -0.4311 -0.3016  0.0632
  184MOL0     C25298  14.780   3.894   5.997 -0.5635 -0.7163 -0.0270
  184MOL0    Cl25299  14.884   4.026   5.963  0.3130 -0.4398 -0.0223
  184MOL0     C25300  14.126   3.613   5.437  0.0328  0.1868 -0.4287
  184MOL0     C25301  13.991   3.569   5.415 -0.2341 -0.3761 -0.0141
  184MOL0     O25302  13.841   3.253   5.195  0.3162 -0.0589 -0.2218
  184MOL0     C25303  13.568   3.408   5.350  0.4054  0.0291 -0.1894
  184MOL0     C25304  13.426   3.409   5.348 -0.0055  0.2740  0.6216
  184MOL0     N25305  12.964   3.963   5.339  0.4315  0.1712 -0.4716
  184MOL0     N25306  12.903   4.072   5.361 -0.1762 -0.6091  0.2457
  184MOL0     C25307  11.763   4.472   4.891  0.6284  0.8239  0.5282
  184MOL0     C25308  11.625   4.503   4.876 -0.7194 -0.2899 -0.4143
  184MOL0     C25309  11.251   4.736   4.820  0.1063  0.1671  0.4462
  184MOL0     C25310  11.174   4.725   4.700 -0.8679  0.0469 -0.0370
  184MOL0     C25311  11.049   4.799   4.696  0.7475  0.7073 -0.0525
  184MOL0     C25312  10.987   4.868   4.803 -0.4503 -0.6772 -0.5500
  184MOL0     O25313  10.856   4.907   4.800 -0.9642 -1.1115  0.1085
  184MOL0     C25314  10.791   4.976   4.907 -0.3260  0.1242 -0.6399
  184MOL0     C25315  10.639   4.949   4.890 -0.1385  0.6734  0.4356
  184MOL0     C25316  10.600   4.808   4.946 -0.7271  0.7873  0.1279
  184MOL0     C25317  10.492   4.823   5.056 -0.4804 -0.3164 -0.0892
  184MOL0     C25318  10.469   4.718   5.153  0.8117 -1.2121 -0.1004
  184MOL0     C25319  10.448   4.629   5.233 -0.4210  0.2395  0.3474
  184MOL0     C25320  11.068   4.873   4.921 -0.7367 -0.1434  0.1440
  184MOL0     C25321  11.193   4.812   4.929  0.2373 -0.2144  0.1652
  184MOL0     C25322  11.248   4.830   5.065 -0.2143 -0.0479  0.2669
  184MOL0     H25323  11.559   4.658   5.169 -0.7842 -1.4944  1.0898
  184MOL0     H25324  11.798   4.571   5.211  1.2324 -2.9913 -0.6950
  184MOL0     H25325  11.986   4.666   4.970 -1.5171 -1.2542 -1.9503
  184MOL0     H25326  12.052   4.542   4.874 -3.5692  0.1176 -0.3164
  184MOL0     H25327  12.234   4.658   4.986 -0.5234  1.7210  1.1431
  184MOL0     H25328  12.152   4.626   5.140 -0.3080 -1.1215  1.3609
  184MOL0     H25329  12.198   4.380   5.127  0.2593  0.7916  0.7090
  184MOL0     H25330  12.236   4.401   4.952  1.0185 -0.1516  0.0487
  184MOL0     H25331  12.432   4.528   5.004  0.0265 -2.4876 -2.2284
  184MOL0     H25332  12.404   4.511   5.180  0.2099  0.0470  0.0854
  184MOL0     H25333  12.459   4.287   4.966  0.2268  0.9805 -0.7072
  184MOL0     H25334  12.413   4.250   5.134 -1.4113  1.9455  0.8685
  184MOL0     H25335  12.656   4.406   5.043  1.0400 -3.0163 -0.7537
  184MOL0     H25336  12.597   4.389   5.218 -1.9651 -4.2485  1.3882
  184MOL0     H25337  12.685   4.165   5.040 -0.8472  1.0345 -0.4438
  184MOL0     H25338  12.601   4.144   5.195 -0.7747  2.0480  1.6863
  184MOL0     H25339  12.873   4.306   5.158  0.2327  0.4788 -0.1257
  184MOL0     H25340  12.803   4.292   5.300  1.9514  2.1514 -0.4509
  184MOL0     H25341  12.919   4.044   5.033 -0.4297  0.9052  0.6947
  184MOL0     H25342  13.166   3.844   5.168  0.4282 -1.3810  0.8292
  184MOL0     H25343  13.054   3.792   5.051  4.0976  0.6108 -1.1132
  184MOL0     H25344  13.080   3.703   5.351 -0.4004 -0.3089 -0.2232
  184MOL0     H25345  12.944   3.648   5.237 -0.8795  1.0139  1.7244
  184MOL0     H25346  13.105   3.541   5.110 -0.1337  1.0682  0.0562
  184MOL0     H25347  13.240   3.611   5.199 -0.3445  0.8908  1.0256
  184MOL0     H25348  13.177   3.498   5.411 -0.3549  1.2673  0.3913
  184MOL0     H25349  13.042   3.423   5.323  1.3659 -1.6306  0.1410
  184MOL0     H25350  13.357   3.142   5.159  1.6207 -1.5036 -0.2944
  184MOL0     H25351  13.620   3.126   5.052 -1.6977 -1.1449 -0.5372
  184MOL0     H25352  13.541   3.008   5.150 -1.4450  1.5370  2.9202
  184MOL0     H25353  13.702   3.050   5.199  0.6814  2.5671  0.2173
  184MOL0     H25354  14.065   3.296   5.234 -1.9420 -1.2757  2.1611
  184MOL0     H25355  14.277   3.366   5.281  1.8528  2.8112  0.7241
  184MOL0     H25356  14.449   3.417   5.364 -1.2579  0.0787  1.2508
  184MOL0     H25357  14.484   3.540   5.241  0.9059  0.2815 -0.0322
  184MOL0     H25358  14.668   3.465   5.414 -2.1494 -1.8091  0.3031
  184MOL0     H25359  14.646   3.641   5.363 -2.8317  0.6506 -0.4496
  184MOL0     H25360  14.538   3.517   5.625 -2.2504  1.5102  0.4647
  184MOL0     H25361  14.527   3.688   5.568  1.9019  1.7092 -1.8544
  184MOL0     H25362  14.779   3.688   5.567  0.6093 -0.4771  0.4798
  184MOL0     H25363  14.775   3.529   5.639  2.7660  1.8461  2.9877
  184MOL0     H25364  14.629   3.747   5.765 -0.3827 -0.2094  0.5305
  184MOL0     H25365  14.660   3.593   5.837  1.8159  0.2413  2.2422
  184MOL0     H25366  14.901   3.758   5.763  1.5927  1.0816  3.0053
  184MOL0     H25367  14.893   3.604   5.843 -0.8689 -1.4493 -1.0034
  184MOL0     H25368  14.930   3.735   6.031 -3.6739 -0.2800  6.4692
  184MOL0     H25369  14.776   3.685   6.039 -0.0092 -0.1030  0.6843
  184MOL0     H25370  14.763   3.923   6.101  2.4222  1.4945 -0.0555
  184MOL0     H25371  14.683   3.905   5.947  0.3019  1.6849 -1.3217
  184MOL0     H25372  14.156   3.703   5.490  1.7978 -0.3530 -0.4600
  184MOL0     H25373  13.905   3.629   5.443 -0.1263  0.6353 -1.7455
  184MOL0     H25374  13.624   3.490   5.394  1.2371  0.1688 -1.4597
  184MOL0     H25375  13.371   3.486   5.402 -2.3148 -0.3921 -0.6600
  184MOL0     H25376  11.821   4.444   4.804  0.9727 -0.5334  1.1639
  184MOL0     H25377  11.579   4.463   4.785  1.6032 -1.2445 -1.2430
  184MOL0     H25378  11.208   4.675   4.609 -0.1785 -0.6996  0.6081
  184MOL0     H25379  10.980   4.808   4.613 -3.0050 -0.4735  2.6709
  184MOL0     H25380  10.822   4.937   5.005 -0.1894 -1.3892 -1.2559
  184MOL0     H25381  10.826   5.079   4.897 -1.4588  0.5400 -0.5316
  184MOL0     H25382  10.625   4.934   4.782  0.4177 -2.1333  0.6786
  184MOL0     H25383  10.568   5.023   4.926 -1.2169 -0.4543  0.7163
  184MOL0     H25384  10.547   4.742   4.877 -3.1124  0.1816  2.4001
  184MOL0     H25385  10.687   4.760   4.991 -1.1354 -1.3590 -1.2205
  184MOL0     H25386  10.391   4.845   5.021 -1.8520 -1.2919  2.9055
  184MOL0     H25387  10.528   4.904   5.120 -2.9559  0.7764  0.0276
  184MOL0     H25388  10.418   4.572   5.319  2.7279 -0.6867  0.9557
  184MOL0     H25389  11.026   4.908   5.015  0.2792 -3.0045  1.7949
  184MOL0     H25390  11.302   4.741   5.098 -0.6564  0.5990  3.0151
  184MOL0     H25391  11.303   4.923   5.080  0.0064  0.1475 -1.5070
  184MOL0     H25392  11.168   4.820   5.139 -2.7636 -2.1712 -2.5659
  185MOL0     O25393   3.463   9.552   9.195  0.1861 -0.5335 -0.6308
  185MOL0     C25394   3.375   9.589   9.123 -0.6786  0.5412 -0.3960
  185MOL0     O25395   3.351   9.720   9.080 -0.5309 -0.6834 -0.0148
  185MOL0     C25396   3.426   9.834   9.125  0.2929 -0.3883 -0.2078
  185MOL0     C25397   3.367   9.954   9.085 -0.2475  0.1876 -0.6896
  185MOL0     C25398   3.434  10.081   9.103  1.0906  0.9268  0.0504
  185MOL0     C25399   3.566  10.078   9.160 -0.1883 -0.8484  0.5793
  185MOL0     O25400   3.633  10.200   9.173  0.8474  0.7091  0.7412
  185MOL0     C25401   3.774  10.206   9.207 -0.8384 -0.4757  0.1186
  185MOL0     C25402   3.845  10.327   9.158  0.3502  0.3416 -0.0379
  185MOL0     C25403   3.829  10.347   9.008  0.0077 -0.5720 -0.7443
  185MOL0     C25404   3.890  10.480   8.970 -0.3588  0.0960  0.5529
  185MOL0     C25405   3.856  10.513   8.826 -0.7533  0.4353  0.1264
  185MOL0     C25406   3.928  10.641   8.774  0.0982 -0.7628 -0.1322
  185MOL0     C25407   3.848  10.769   8.818  0.1046 -0.0267 -0.2331
  185MOL0     C25408   3.711  10.790   8.750  0.6157 -0.4089  0.2790
  185MOL0     N25409   3.727  10.782   8.600  0.2180  0.5615  0.4049
  185MOL0     C25410   3.742  10.890   8.517  0.1287 -0.0693  0.1587
  185MOL0     C25411   3.763  10.839   8.399 -0.7222 -0.7509  0.1873
  185MOL0     C25412   3.821  10.914   8.284  0.3452 -0.5157  0.6035
  185MOL0     C25413   3.971  10.926   8.285 -0.3687  0.4596 -0.1260
  185MOL0     C25414   4.002  11.012   8.161 -0.4695 -0.1533 -0.1235
  185MOL0     C25415   4.146  10.976   8.126 -0.4709  0.4623  0.6785
  185MOL0     O25416   4.148  10.850   8.052  0.1359  0.1100 -0.0354
  185MOL0     C25417   4.266  10.778   8.061 -0.1989 -0.2391  0.1481
  185MOL0     C25418   4.256  10.637   8.044 -0.1144  0.1607  0.4264
  185MOL0     C25419   4.371  10.557   8.042  0.2451 -0.2731 -0.3083
  185MOL0     C25420   4.344  10.411   8.021 -0.4212  0.3366 -0.2564
  185MOL0     C25421   4.506  10.615   8.049  1.2014  0.2048 -0.8643
  185MOL0     C25422   4.633  10.539   8.044  0.7770 -0.1909 -0.0288
  185MOL0     O25423   4.741  10.620   8.034  0.0060 -0.2455 -0.0230
  185MOL0     C25424   4.875  10.572   8.023 -0.6011  0.2261 -0.3460
  185MOL0     C25425   4.921  10.451   8.076 -0.5685  0.3527  0.4758
  185MOL0     C25426   5.052  10.404   8.053  0.6021 -0.4411 -0.2656
  185MOL0     C25427   5.141  10.485   7.980 -0.7832 -0.0508  0.2425
  185MOL0     O25428   5.272  10.450   7.968 -0.0450 -0.2110  0.2264
  185MOL0     C25429   5.331  10.436   8.096 -0.3622  0.9353  0.2363
  185MOL0     C25430   5.439  10.531   8.134 -0.3168  0.0254  0.9590
  185MOL0     C25431   5.568  10.522   8.063  0.9677  0.9457 -0.2193
  185MOL0     C25432   5.681  10.582   8.141 -0.9305 -0.7511  0.2330
  185MOL0     C25433   5.817  10.573   8.057  0.1007  0.1063 -0.2144
  185MOL0     C25434   5.941  10.609   8.145 -0.3248 -0.3777 -0.1864
  185MOL0     C25435   6.054  10.626   8.047 -1.0132  0.7024  0.2202
  185MOL0     C25436   6.191  10.658   8.120  0.7520 -0.1838 -0.6148
  185MOL0    Cl25437   6.323  10.676   7.996 -0.4032  0.0648  0.1460
  185MOL0     C25438   5.104  10.610   7.936  0.6029 -0.6369 -0.1742
  185MOL0     C25439   4.970  10.651   7.948  0.3929 -0.4823 -0.1501
  185MOL0     O25440   4.636  10.420   8.016 -0.4830 -0.4078  0.1331
  185MOL0     C25441   4.511  10.753   8.079  0.2040 -0.1755 -0.6413
  185MOL0     C25442   4.392  10.834   8.080 -0.7534  0.6656  0.3566
  185MOL0     N25443   3.742  10.702   8.411  0.4739  0.3447  0.1966
  185MOL0     N25444   3.735  10.665   8.530  1.0210 -0.1658  0.7574
  185MOL0     C25445   3.617   9.956   9.201 -0.3722  0.3005 -0.5263
  185MOL0     C25446   3.552   9.835   9.184 -0.0722  0.8130  0.3752
  185MOL0     C25447   3.269   9.487   9.084  0.0747 -0.2245 -0.0497
  185MOL0     C25448   3.300   9.346   9.100 -0.0716 -0.6240 -0.0917
  185MOL0     C25449   3.216   9.241   9.063 -0.7106 -0.4097 -1.5117
  185MOL0     C25450   3.100   9.275   9.007  0.2659  0.1914 -0.0602
  185MOL0     O25451   3.021   9.175   8.958 -0.3480 -0.3992 -0.4236
  185MOL0     C25452   2.917   9.190   8.862  0.7173  0.1900 -1.2323
  185MOL0     C25453   2.857   9.043   8.829  0.2211 -0.1442 -1.2437
  185MOL0     C25454   2.954   8.960   8.747 -0.3236 -1.1033  0.5706
  185MOL0     C25455   2.885   8.840   8.683 -0.5086 -0.2971 -0.5832
  185MOL0     C25456   2.809   8.750   8.776  0.8504  0.1719  0.4918
  185MOL0     C25457   2.760   8.660   8.845 -0.9374 -0.6321  0.1870
  185MOL0     C25458   3.068   9.405   8.981 -0.1511 -1.0176  0.2019
  185MOL0     C25459   3.138   9.517   9.021  0.0984 -1.5923  0.4259
  185MOL0     C25460   3.073   9.658   9.016  0.0188 -0.2344 -0.3423
  185MOL0     H25461   3.274   9.952   9.029 -0.2172  3.6966 -1.0939
  185MOL0     H25462   3.379  10.168   9.070 -0.0449  1.4068  2.9152
  185MOL0     H25463   3.827  10.119   9.168 -1.8144 -1.2077  0.3762
  185MOL0     H25464   3.778  10.204   9.316 -2.8607  1.5687  0.3116
  185MOL0     H25465   3.815  10.414   9.218  1.2134 -0.0144  0.9347
  185MOL0     H25466   3.950  10.312   9.183  0.4772  1.2375  0.0229
  185MOL0     H25467   3.884  10.263   8.964  1.9689 -0.7856  1.8231
  185MOL0     H25468   3.726  10.344   8.974 -1.0218  0.0205  2.0412
  185MOL0     H25469   3.847  10.558   9.034 -1.3285 -0.6171  0.8046
  185MOL0     H25470   3.998  10.481   8.988  0.0955  1.9556 -1.6775
  185MOL0     H25471   3.749  10.509   8.807 -0.9184  0.5642  1.0112
  185MOL0     H25472   3.909  10.438   8.765 -0.1879 -0.2251  1.3701
  185MOL0     H25473   4.028  10.648   8.816 -0.5366  1.3491  1.1993
  185MOL0     H25474   3.945  10.638   8.666  1.2479  1.5753 -0.0768
  185MOL0     H25475   3.910  10.857   8.796 -1.6124  0.9241 -1.4779
  185MOL0     H25476   3.845  10.763   8.928 -0.1841 -1.2429 -0.2988
  185MOL0     H25477   3.636  10.723   8.793  0.6899  0.3459  1.6648
  185MOL0     H25478   3.687  10.895   8.769  0.9811 -0.4535  1.0503
  185MOL0     H25479   3.751  10.994   8.544 -2.1099 -0.2916  1.9841
  185MOL0     H25480   3.791  11.019   8.292  0.9858 -0.4070  1.8209
  185MOL0     H25481   3.775  10.868   8.196 -0.0772  0.8046  0.1219
  185MOL0     H25482   3.996  10.983   8.375 -1.2218 -1.3005  1.3201
  185MOL0     H25483   4.021  10.829   8.296 -3.6010 -1.2629  0.5735
  185MOL0     H25484   3.945  10.997   8.069  0.1071  0.8417 -0.6629
  185MOL0     H25485   3.999  11.120   8.179  1.0368  0.3164 -2.2719
  185MOL0     H25486   4.197  11.048   8.062 -0.3492 -1.0742 -1.0465
  185MOL0     H25487   4.202  10.967   8.220  1.3759  0.3973 -0.3957
  185MOL0     H25488   4.153  10.605   8.043 -0.4867  1.3059  0.6017
  185MOL0     H25489   4.394  10.360   8.104  1.5177  1.6670 -0.5596
  185MOL0     H25490   4.367  10.377   7.920 -0.9782 -0.5370 -0.0991
  185MOL0     H25491   4.241  10.381   8.047 -1.1435  1.6735 -1.4344
  185MOL0     H25492   4.857  10.382   8.128 -2.6648  0.9798 -1.1402
  185MOL0     H25493   5.090  10.309   8.090  2.1767  0.2094 -0.1230
  185MOL0     H25494   5.262  10.435   8.181 -1.5485  0.9689 -0.6928
  185MOL0     H25495   5.380  10.338   8.094  1.4258  1.8125 -0.0741
  185MOL0     H25496   5.396  10.627   8.106 -2.1309 -1.1702 -0.6334
  185MOL0     H25497   5.449  10.534   8.243  1.6654 -1.7954  0.9008
  185MOL0     H25498   5.555  10.573   7.967 -3.7437  0.5948 -0.0120
  185MOL0     H25499   5.592  10.416   8.050 -0.6809  0.4623  0.4234
  185MOL0     H25500   5.695  10.531   8.237 -2.0660 -0.0798  0.7660
  185MOL0     H25501   5.659  10.686   8.164 -0.8903  0.0574 -2.9064
  185MOL0     H25502   5.823  10.468   8.026 -0.7330  0.0235 -0.1055
  185MOL0     H25503   5.807  10.634   7.967  0.9021  2.5392  1.2642
  185MOL0     H25504   5.960  10.537   8.225 -0.2763  3.2845  3.4058
  185MOL0     H25505   5.916  10.703   8.194  3.1177  1.5337 -1.7366
  185MOL0     H25506   6.039  10.711   7.979  0.9248  0.0258 -1.1722
  185MOL0     H25507   6.063  10.538   7.983  0.2724  0.3002  0.9134
  185MOL0     H25508   6.220  10.582   8.193 -1.7985 -1.6349 -0.9904
  185MOL0     H25509   6.181  10.742   8.189  0.6555 -0.0834 -0.7504
  185MOL0     H25510   5.178  10.685   7.914 -1.3719  1.1464 -1.0360
  185MOL0     H25511   4.937  10.748   7.911  0.3787 -1.5021 -3.1016
  185MOL0     H25512   4.601  10.814   8.083 -0.4216  1.0309 -2.9954
  185MOL0     H25513   4.402  10.942   8.077  0.6432  0.5315 -1.4316
  185MOL0     H25514   3.717   9.954   9.244 -0.4991 -4.8803  0.1664
  185MOL0     H25515   3.603   9.749   9.226  2.3256  0.7556 -2.3203
  185MOL0     H25516   3.401   9.320   9.131  0.8461 -2.0002 -3.6837
  185MOL0     H25517   3.239   9.135   9.072 -1.8624 -0.5415  0.3582
  185MOL0     H25518   2.838   9.254   8.904  1.1601  0.0911 -0.2234
  185MOL0     H25519   2.953   9.238   8.770  0.3486  1.4698 -0.7339
  185MOL0     H25520   2.761   9.048   8.777 -0.7655 -2.3932  0.1831
  185MOL0     H25521   2.834   8.995   8.925 -2.2762 -0.4285 -1.9329
  185MOL0     H25522   2.985   9.021   8.662  2.3282 -2.0616  0.7695
  185MOL0     H25523   3.045   8.927   8.798  0.2446 -1.1548 -0.4612
  185MOL0     H25524   2.953   8.784   8.618  0.4912  0.0980  0.0957
  185MOL0     H25525   2.816   8.880   8.608  0.3100 -0.6531 -1.5475
  185MOL0     H25526   2.718   8.581   8.905 -1.5906  0.1201  0.7427
  185MOL0     H25527   2.975   9.425   8.930 -0.3448 -0.1293  0.8830
  185MOL0     H25528   2.966   9.661   8.993  0.0836  1.8568 -0.5528
  185MOL0     H25529   3.071   9.704   9.115  0.1398 -1.2448  0.1391
  185MOL0     H25530   3.133   9.718   8.947  0.1731  2.3941  1.9209
  186MOL0     O25531  11.278   6.857   8.923 -0.2887  0.3447  0.4854
  186MOL0     C25532  11.274   6.847   9.047  0.7355 -0.0337  1.0076
  186MOL0     O25533  11.381   6.816   9.128  0.0131  0.1452  0.5323
  186MOL0     C25534  11.510   6.804   9.075 -0.2556 -0.5861  0.1601
  186MOL0     C25535  11.579   6.694   9.127  0.9311 -0.3222 -0.5630
  186MOL0     C25536  11.704   6.672   9.072 -0.1147  0.4046  0.4996
  186MOL0     C25537  11.757   6.747   8.968  0.4101 -0.2991 -0.4668
  186MOL0     O25538  11.881   6.724   8.914  0.3714  0.2452 -0.0915
  186MOL0     C25539  11.999   6.770   8.993  0.8139 -0.3033  0.4971
  186MOL0     C25540  12.022   6.909   8.934 -0.3003  0.0487 -0.1425
  186MOL0     C25541  12.080   6.913   8.788 -0.3257 -0.5385 -0.0766
  186MOL0     C25542  12.079   7.056   8.736 -0.3026  0.0547  0.8039
  186MOL0     C25543  12.139   7.057   8.597  0.2151  0.8959  0.3433
  186MOL0     C25544  12.049   7.006   8.484 -0.5337 -0.1875  0.0555
  186MOL0     C25545  12.078   7.085   8.355  0.5753 -0.4365 -0.3648
  186MOL0     C25546  11.986   7.048   8.239  0.6831  0.9610  0.3554
  186MOL0     N25547  12.055   7.059   8.115 -0.9034 -0.4401  0.2744
  186MOL0     C25548  12.041   7.160   8.011  0.1199  0.9602  1.0371
  186MOL0     C25549  12.140   7.137   7.923 -0.4535 -1.6113  0.3537
  186MOL0     C25550  12.179   7.214   7.800 -0.4079  0.5001 -0.8448
  186MOL0     C25551  12.311   7.291   7.804  0.6148  0.7500  0.1337
  186MOL0     C25552  12.361   7.345   7.675  0.3213 -0.7928  0.9574
  186MOL0     C25553  12.453   7.473   7.690  0.3691  0.3797 -0.0529
  186MOL0     O25554  12.579   7.448   7.763 -0.8188 -0.4233  1.1302
  186MOL0     C25555  12.694   7.423   7.685  0.4047  0.0480  0.5365
  186MOL0     C25556  12.811   7.419   7.748 -0.7137  0.2469 -0.0881
  186MOL0     C25557  12.937   7.410   7.676 -0.0746 -0.0725  0.5054
  186MOL0     C25558  13.063   7.421   7.753  0.4195 -0.1810  0.5774
  186MOL0     C25559  12.939   7.387   7.534 -0.4953  0.6600 -1.0182
  186MOL0     C25560  13.070   7.374   7.455 -0.5347  0.6548  0.0621
  186MOL0     O25561  13.050   7.312   7.325 -0.9303 -1.1207 -0.2985
  186MOL0     C25562  13.155   7.282   7.254 -0.2175  0.0773  0.3333
  186MOL0     C25563  13.180   7.327   7.128 -0.3267  1.0530  0.7866
  186MOL0     C25564  13.284   7.278   7.048 -0.4804  0.1699  0.6378
  186MOL0     C25565  13.365   7.176   7.089 -0.8830 -0.3659  0.9724
  186MOL0     O25566  13.444   7.115   6.995  0.7446  0.4360 -0.4176
  186MOL0     C25567  13.574   7.070   7.020  0.2382 -0.6255  0.6465
  186MOL0     C25568  13.584   6.913   7.020 -0.6846 -0.3326  0.3047
  186MOL0     C25569  13.731   6.873   7.033 -0.1335 -0.4699 -0.3264
  186MOL0     C25570  13.824   6.929   6.926  0.2694 -0.3553  0.2568
  186MOL0     C25571  13.945   6.835   6.911  1.0865 -0.4280  0.7749
  186MOL0     C25572  14.061   6.898   6.832 -0.4295 -0.3515  0.6055
  186MOL0     C25573  14.170   6.798   6.821 -0.3832  0.3292  0.4575
  186MOL0     C25574  14.280   6.876   6.762 -0.0416  0.0072 -0.4412
  186MOL0    Cl25575  14.434   6.795   6.786  0.1996  0.1440 -0.0009
  186MOL0     C25576  13.337   7.120   7.213  0.2102 -0.1162 -0.2057
  186MOL0     C25577  13.236   7.175   7.301  0.7941  0.4042  0.2941
  186MOL0     O25578  13.162   7.442   7.489  0.0583 -0.3460 -0.0723
  186MOL0     C25579  12.810   7.370   7.476 -0.4943  0.1504 -0.3309
  186MOL0     C25580  12.694   7.390   7.545 -0.3084  0.8160  1.0520
  186MOL0     N25581  12.215   7.024   7.968 -0.2842  0.6302  0.9282
  186MOL0     N25582  12.165   6.982   8.084  0.8189 -0.3348  0.3909
  186MOL0     C25583  11.683   6.862   8.932  0.5972 -0.0108 -0.1241
  186MOL0     C25584  11.564   6.889   8.981  0.2421  0.1410 -0.1584
  186MOL0     C25585  11.152   6.863   9.126  0.2777  0.6465  0.3568
  186MOL0     C25586  11.147   6.837   9.261  0.1566 -0.0481 -0.4672
  186MOL0     C25587  11.040   6.859   9.348  0.7914 -0.0081  1.1384
  186MOL0     C25588  10.919   6.893   9.282 -1.0751  1.0165 -0.3438
  186MOL0     O25589  10.804   6.888   9.355  0.3596  0.4694 -0.2874
  186MOL0     C25590  10.813   6.842   9.500  0.8762 -0.4276  0.0886
  186MOL0     C25591  10.676   6.808   9.549  0.2344  0.6125  0.5290
  186MOL0     C25592  10.591   6.942   9.556 -1.2057  0.1936  0.7614
  186MOL0     C25593  10.455   6.907   9.626 -0.2072  0.6221  0.1853
  186MOL0     C25594  10.367   6.816   9.546 -0.0087 -0.0968  0.7062
  186MOL0     C25595  10.289   6.761   9.468 -0.1534 -0.2583 -0.0120
  186MOL0     C25596  10.918   6.916   9.145 -0.6202  0.5835  1.1622
  186MOL0     C25597  11.036   6.908   9.062  0.4268  0.3271 -0.2759
  186MOL0     C25598  11.017   6.936   8.915  0.1113  0.0706  0.0545
  186MOL0     H25599  11.548   6.615   9.194  1.1079 -0.7824 -1.0239
  186MOL0     H25600  11.760   6.580   9.090  0.7078  0.3479 -1.9752
  186MOL0     H25601  12.085   6.706   8.974 -0.3136 -0.8653 -3.7169
  186MOL0     H25602  11.977   6.755   9.099 -0.4960 -2.5327 -0.0328
  186MOL0     H25603  11.929   6.963   8.949 -1.2693 -1.5859  0.0211
  186MOL0     H25604  12.094   6.961   8.998 -1.4802  1.3288  0.1870
  186MOL0     H25605  12.180   6.870   8.793  1.4203  3.2331  1.4320
  186MOL0     H25606  12.019   6.854   8.719  1.4394  1.3381 -3.5391
  186MOL0     H25607  11.974   7.083   8.719  0.1048 -0.3805 -3.6473
  186MOL0     H25608  12.130   7.129   8.800 -0.0158  0.1616  0.4567
  186MOL0     H25609  12.231   6.998   8.606 -0.2037 -0.8056 -4.0240
  186MOL0     H25610  12.165   7.159   8.568  0.6575  0.5869 -0.3796
  186MOL0     H25611  12.091   6.910   8.455  0.9191  0.8977 -1.6532
  186MOL0     H25612  11.942   7.004   8.507 -0.7105 -1.5086 -0.7592
  186MOL0     H25613  12.183   7.082   8.326  0.5882  2.8510 -1.0920
  186MOL0     H25614  12.063   7.193   8.369  0.2658 -0.5056 -0.1449
  186MOL0     H25615  11.946   6.946   8.246 -1.9562  1.8411 -0.5327
  186MOL0     H25616  11.893   7.105   8.242 -0.1805 -0.4037  0.3858
  186MOL0     H25617  11.971   7.242   8.018  0.0975  0.9621  0.7779
  186MOL0     H25618  12.103   7.289   7.776 -2.5507 -0.8817  1.2827
  186MOL0     H25619  12.184   7.144   7.716 -1.8016  1.0759 -1.4314
  186MOL0     H25620  12.313   7.373   7.877  0.7083  0.4920  0.4224
  186MOL0     H25621  12.382   7.217   7.841 -0.1580 -1.1991 -2.0353
  186MOL0     H25622  12.409   7.272   7.609  1.5942 -0.3766  1.3823
  186MOL0     H25623  12.269   7.388   7.633  0.4803 -1.7240 -0.4099
  186MOL0     H25624  12.476   7.505   7.588 -0.0085  2.4846  0.4579
  186MOL0     H25625  12.396   7.540   7.756  0.7685  1.0962 -0.4162
  186MOL0     H25626  12.819   7.436   7.855 -0.5064 -0.4187  0.0057
  186MOL0     H25627  13.119   7.511   7.727  1.1100 -0.9607 -0.7779
  186MOL0     H25628  13.122   7.329   7.748 -1.6521 -1.7143  2.2457
  186MOL0     H25629  13.037   7.424   7.859  2.4052  0.7245  1.0941
  186MOL0     H25630  13.102   7.397   7.099 -0.4943  2.2966  3.8180
  186MOL0     H25631  13.297   7.326   6.951 -2.7536  0.6102  0.4935
  186MOL0     H25632  13.644   7.118   6.951 -0.8495 -2.6688 -2.0469
  186MOL0     H25633  13.607   7.098   7.121  1.2578  0.9939 -0.1044
  186MOL0     H25634  13.533   6.877   7.110 -0.6806 -3.1502 -0.7387
  186MOL0     H25635  13.531   6.862   6.939 -1.4349  2.0965 -0.8195
  186MOL0     H25636  13.744   6.765   7.040 -0.0126 -0.3933  0.8811
  186MOL0     H25637  13.763   6.907   7.132 -3.7132 -0.0681  0.8335
  186MOL0     H25638  13.857   7.031   6.948 -0.6534  0.9291 -3.5450
  186MOL0     H25639  13.776   6.928   6.828 -1.1066  1.3366  0.8381
  186MOL0     H25640  13.975   6.798   7.009 -0.4059 -2.2738  0.5817
  186MOL0     H25641  13.901   6.753   6.853 -0.6965 -0.0503  1.5123
  186MOL0     H25642  14.108   6.983   6.882  0.8300 -0.0563 -0.9750
  186MOL0     H25643  14.035   6.932   6.731 -0.0146 -1.0124  0.2639
  186MOL0     H25644  14.169   6.712   6.753 -0.0840 -0.0256  0.8984
  186MOL0     H25645  14.199   6.754   6.917  0.9791 -1.7454 -0.8356
  186MOL0     H25646  14.302   6.975   6.804  2.1408  0.3572 -2.1921
  186MOL0     H25647  14.265   6.896   6.656  1.4443 -0.5627 -0.7808
  186MOL0     H25648  13.396   7.031   7.232 -1.1989 -0.9153  0.6078
  186MOL0     H25649  13.219   7.126   7.397  1.5662 -1.0729 -0.2991
  186MOL0     H25650  12.808   7.354   7.368 -1.1606 -3.7206  0.1333
  186MOL0     H25651  12.609   7.380   7.479  1.1859 -1.9962 -0.6526
  186MOL0     H25652  11.729   6.932   8.863  1.5554  1.4149  1.8769
  186MOL0     H25653  11.516   6.983   8.954  0.2254 -0.3724 -2.0298
  186MOL0     H25654  11.232   6.810   9.322  0.4536 -0.3441 -1.0013
  186MOL0     H25655  11.043   6.825   9.451  2.4440 -2.9971  0.2373
  186MOL0     H25656  10.872   6.751   9.511  2.4172  0.6224  1.0586
  186MOL0     H25657  10.860   6.909   9.574 -0.8731  0.3729  0.5406
  186MOL0     H25658  10.673   6.752   9.642  1.3837  1.2392  0.9698
  186MOL0     H25659  10.627   6.754   9.467 -0.0533  0.3034  0.9068
  186MOL0     H25660  10.637   7.016   9.621 -3.4988  0.9496  1.6486
  186MOL0     H25661  10.595   6.991   9.458  1.0160  1.6948  1.5382
  186MOL0     H25662  10.411   7.004   9.650  2.5638  1.5575  2.0502
  186MOL0     H25663  10.470   6.858   9.723  1.1039  0.4492 -0.0768
  186MOL0     H25664  10.231   6.699   9.402 -1.3217 -0.9382  1.6080
  186MOL0     H25665  10.825   6.953   9.102 -0.1736 -0.4625 -0.8107
  186MOL0     H25666  10.923   6.981   8.882  0.7103  1.1757 -0.1744
  186MOL0     H25667  11.097   7.002   8.880 -0.1975  1.9550  2.5948
  186MOL0     H25668  11.023   6.842   8.859  0.8712  0.9896 -1.4449
  187MOL0     O25669   3.239   6.651   8.263 -0.1333  0.7852 -0.7304
  187MOL0     C25670   3.267   6.559   8.191  1.0015  0.0935 -0.6096
  187MOL0     O25671   3.398   6.539   8.152 -0.4021 -0.3131  0.1261
  187MOL0     C25672   3.488   6.630   8.190  0.0443 -0.5862 -0.5667
  187MOL0     C25673   3.490   6.766   8.148  0.2943  0.1004 -0.1044
  187MOL0     C25674   3.582   6.858   8.186 -0.2983  0.6368 -0.7658
  187MOL0     C25675   3.680   6.823   8.276 -0.3078 -1.1734 -0.0030
  187MOL0     O25676   3.768   6.918   8.323 -0.2302  0.6596 -0.4280
  187MOL0     C25677   3.725   7.048   8.360 -0.9951 -0.2038  0.7056
  187MOL0     C25678   3.837   7.130   8.417  0.1422  0.1079 -0.4008
  187MOL0     C25679   3.859   7.078   8.564 -0.6557  0.4607  0.1248
  187MOL0     C25680   4.011   7.094   8.597 -0.3888 -0.6334  0.2722
  187MOL0     C25681   4.027   7.126   8.744  0.4970 -0.3176 -1.3502
  187MOL0     C25682   3.960   7.259   8.794  0.6411 -0.4194 -0.3093
  187MOL0     C25683   4.013   7.379   8.718  0.6387 -0.3179 -0.6233
  187MOL0     C25684   4.162   7.410   8.721 -0.1059 -0.8267  0.4063
  187MOL0     N25685   4.222   7.416   8.856 -0.8382 -1.4318 -0.4965
  187MOL0     C25686   4.352   7.365   8.888 -0.1506  0.1698 -0.6020
  187MOL0     C25687   4.370   7.401   9.020  0.8095 -0.4743 -0.2720
  187MOL0     C25688   4.481   7.354   9.102 -0.5406 -0.6202  0.0877
  187MOL0     C25689   4.501   7.202   9.101 -0.4944 -0.2836  0.5482
  187MOL0     C25690   4.401   7.125   9.187  0.3615  0.5395  0.7477
  187MOL0     C25691   4.253   7.133   9.160  0.6629  0.4916  0.4572
  187MOL0     O25692   4.237   7.066   9.035 -1.2971  0.4411  0.1727
  187MOL0     C25693   4.196   6.933   9.026 -0.2047  0.3338  0.3612
  187MOL0     C25694   4.202   6.895   8.895 -0.2160  0.7605  0.0563
  187MOL0     C25695   4.159   6.767   8.857 -0.6999 -0.2410 -0.5655
  187MOL0     C25696   4.180   6.728   8.709  0.7638 -0.2223  0.0607
  187MOL0     C25697   4.092   6.676   8.946 -0.5634  0.1968 -0.4590
  187MOL0     C25698   4.044   6.543   8.911 -0.3701  0.2932 -0.5938
  187MOL0     O25699   4.031   6.456   9.025  0.5333  0.2933 -0.2722
  187MOL0     C25700   3.977   6.332   9.021  0.5863  0.2240 -0.2627
  187MOL0     C25701   4.040   6.230   9.082 -0.0373  0.2831 -0.3571
  187MOL0     C25702   3.994   6.100   9.095 -0.1216  0.4178 -0.7172
  187MOL0     C25703   3.867   6.075   9.041 -0.3691  0.8041  0.0421
  187MOL0     O25704   3.807   5.946   9.049  0.0090 -0.2404  0.6738
  187MOL0     C25705   3.894   5.832   9.041 -0.0917 -0.1800 -0.4457
  187MOL0     C25706   3.829   5.710   8.981  0.3646  0.4535  0.3906
  187MOL0     C25707   3.704   5.670   9.063 -0.4901  0.7095 -0.6726
  187MOL0     C25708   3.645   5.544   8.993 -0.2061 -0.3468 -0.1249
  187MOL0     C25709   3.517   5.484   9.049 -0.5197 -1.1139 -0.1848
  187MOL0     C25710   3.543   5.424   9.191 -0.2004  0.0160  0.2504
  187MOL0     C25711   3.416   5.411   9.268  0.9794 -0.2117  0.1268
  187MOL0     C25712   3.321   5.534   9.274 -0.0578  0.3547 -0.0364
  187MOL0    Cl25713   3.413   5.687   9.302 -0.1580 -0.0822  0.3004
  187MOL0     C25714   3.796   6.178   8.971 -0.2381 -0.0739 -1.2100
  187MOL0     C25715   3.844   6.310   8.971 -0.2428  0.9296 -0.4011
  187MOL0     O25716   4.023   6.507   8.792  0.7796 -0.4147 -0.1234
  187MOL0     C25717   4.092   6.725   9.082 -0.2130 -0.1778  0.5114
  187MOL0     C25718   4.133   6.848   9.121 -0.4321 -0.4489 -0.1894
  187MOL0     N25719   4.265   7.473   9.066 -0.2649  0.0125  0.8012
  187MOL0     N25720   4.175   7.486   8.968 -0.5348  0.3419 -0.3869
  187MOL0     C25721   3.677   6.697   8.327 -0.2541  0.2859 -0.1571
  187MOL0     C25722   3.585   6.601   8.278  0.1937  0.0175  0.2344
  187MOL0     C25723   3.170   6.447   8.164 -0.0626  0.2802  0.9704
  187MOL0     C25724   3.213   6.320   8.119 -0.8486 -0.8678  0.0731
  187MOL0     C25725   3.126   6.216   8.077  0.0497 -0.5691 -0.2302
  187MOL0     C25726   2.989   6.232   8.092  0.2829  0.2122  0.0216
  187MOL0     O25727   2.902   6.131   8.084 -0.1820  0.3637 -0.1170
  187MOL0     C25728   2.946   5.996   8.056  0.0519  0.4874  0.1310
  187MOL0     C25729   2.836   5.897   8.069 -0.3528 -0.4465  0.2513
  187MOL0     C25730   2.888   5.755   8.067 -0.3959 -0.3292  0.1421
  187MOL0     C25731   2.912   5.704   7.919 -0.4114  0.3088  0.0363
  187MOL0     C25732   2.827   5.588   7.911  0.2273  0.6260 -0.5572
  187MOL0     C25733   2.753   5.490   7.910 -0.5153  0.1649  0.2573
  187MOL0     C25734   2.940   6.360   8.128 -0.0156 -0.0915 -0.6106
  187MOL0     C25735   3.028   6.470   8.166 -0.0049  0.5826 -0.9359
  187MOL0     C25736   2.967   6.600   8.220 -0.0088  0.3451 -0.7418
  187MOL0     H25737   3.408   6.793   8.083 -1.9897 -3.1337  1.1554
  187MOL0     H25738   3.561   6.957   8.146 -1.3708 -0.6187 -3.5061
  187MOL0     H25739   3.647   7.035   8.435 -1.6312  0.7002  0.2202
  187MOL0     H25740   3.693   7.106   8.272  1.3532  0.4174  0.2104
  187MOL0     H25741   3.925   7.111   8.356  0.7540 -1.9027  0.9775
  187MOL0     H25742   3.817   7.238   8.413 -0.5184 -0.0242 -0.8180
  187MOL0     H25743   3.796   7.117   8.644  1.1771 -0.0223  1.8982
  187MOL0     H25744   3.843   6.970   8.565  0.4563  0.2337 -1.5216
  187MOL0     H25745   4.077   7.009   8.579 -0.3361 -1.1076  2.4830
  187MOL0     H25746   4.058   7.178   8.544  1.2945 -1.2848  0.6760
  187MOL0     H25747   4.135   7.129   8.763 -0.0878  0.1729  2.9487
  187MOL0     H25748   3.986   7.045   8.805  1.4885  0.2018  0.0440
  187MOL0     H25749   3.853   7.257   8.771 -0.4591  1.1907  3.7042
  187MOL0     H25750   3.969   7.264   8.903 -0.1638 -0.7224 -0.2183
  187MOL0     H25751   3.961   7.461   8.768  2.3369  0.2996  0.2423
  187MOL0     H25752   3.982   7.368   8.613  1.7137 -1.1566 -0.8813
  187MOL0     H25753   4.216   7.332   8.667  0.4662  0.3695 -0.8067
  187MOL0     H25754   4.180   7.502   8.666  0.3913 -1.0012  0.2750
  187MOL0     H25755   4.413   7.307   8.819 -0.1013  2.0440 -2.2112
  187MOL0     H25756   4.482   7.378   9.208  1.2976 -0.2967  0.0364
  187MOL0     H25757   4.573   7.404   9.068 -1.7971  2.3472  0.7627
  187MOL0     H25758   4.503   7.148   9.006  0.5966 -2.3409  1.6758
  187MOL0     H25759   4.596   7.174   9.148 -1.4436 -1.8063  1.6259
  187MOL0     H25760   4.422   7.019   9.166 -1.3006  1.0543 -5.2035
  187MOL0     H25761   4.430   7.157   9.288  2.3927 -1.7062  0.9733
  187MOL0     H25762   4.186   7.084   9.231 -2.2239  0.7927 -1.8513
  187MOL0     H25763   4.218   7.235   9.146 -1.3167 -0.3559 -1.1924
  187MOL0     H25764   4.247   6.963   8.823 -0.6906  2.0210  0.9115
  187MOL0     H25765   4.265   6.782   8.666 -0.1104  2.1323  1.0725
  187MOL0     H25766   4.089   6.754   8.654  0.3798  1.6003  1.4555
  187MOL0     H25767   4.204   6.622   8.694 -1.0265 -0.5427 -0.8264
  187MOL0     H25768   4.137   6.248   9.127  2.0884 -2.3528 -3.4500
  187MOL0     H25769   4.050   6.025   9.151 -0.9920 -3.0482 -4.0734
  187MOL0     H25770   3.972   5.861   8.971 -1.1660  1.8673 -0.8835
  187MOL0     H25771   3.924   5.809   9.144 -0.7054  2.7439  0.4915
  187MOL0     H25772   3.800   5.731   8.878  0.3822 -0.5292  0.1752
  187MOL0     H25773   3.892   5.621   8.973  0.8322  0.9102 -1.2132
  187MOL0     H25774   3.628   5.747   9.080 -2.8992 -1.1009 -2.5956
  187MOL0     H25775   3.744   5.650   9.163  2.2898 -0.9357 -1.9887
  187MOL0     H25776   3.722   5.468   9.006 -0.9718 -0.7046  3.3183
  187MOL0     H25777   3.626   5.569   8.888 -2.4232  2.0020  0.7218
  187MOL0     H25778   3.452   5.572   9.056 -0.3299 -0.9982  0.1700
  187MOL0     H25779   3.465   5.421   8.976 -0.7976  0.2987 -1.2310
  187MOL0     H25780   3.607   5.490   9.250  2.2088  1.7248 -3.8565
  187MOL0     H25781   3.602   5.332   9.180  2.2057  0.8279  4.2816
  187MOL0     H25782   3.431   5.367   9.368  0.7930 -0.1847  0.1687
  187MOL0     H25783   3.357   5.336   9.215 -3.3886  1.8729  1.5478
  187MOL0     H25784   3.249   5.520   9.356 -0.1933 -0.7009 -0.3178
  187MOL0     H25785   3.254   5.531   9.188  1.4205 -2.4357 -1.2332
  187MOL0     H25786   3.699   6.146   8.935 -0.6036  1.5498 -1.7605
  187MOL0     H25787   3.778   6.386   8.930 -1.1471 -0.2423 -1.1605
  187MOL0     H25788   4.056   6.679   9.174  0.4560  1.6344  1.7171
  187MOL0     H25789   4.121   6.877   9.225  0.0800 -0.1741 -0.2012
  187MOL0     H25790   3.757   6.661   8.390 -0.7240 -2.0366 -0.7859
  187MOL0     H25791   3.581   6.506   8.330 -2.8755  2.2499  4.8070
  187MOL0     H25792   3.321   6.309   8.115 -0.6103  1.3352 -1.0347
  187MOL0     H25793   3.158   6.121   8.035  1.8458  0.5909 -1.6428
  187MOL0     H25794   3.010   5.992   7.968  1.5360 -1.7752  1.1952
  187MOL0     H25795   3.013   5.979   8.142 -1.4223  1.1043  1.4430
  187MOL0     H25796   2.773   5.909   7.981 -1.9432  1.2993  1.5522
  187MOL0     H25797   2.786   5.925   8.163  3.0088  0.3131  1.9892
  187MOL0     H25798   2.984   5.755   8.118 -1.6788 -2.1245  2.7382
  187MOL0     H25799   2.815   5.697   8.124  0.3521 -1.1420  0.2848
  187MOL0     H25800   3.016   5.678   7.896 -0.4212  1.2629 -1.2031
  187MOL0     H25801   2.885   5.781   7.847  0.9206  0.1956 -0.6135
  187MOL0     H25802   2.699   5.398   7.898  1.7838 -0.9659 -2.5380
  187MOL0     H25803   2.834   6.371   8.150 -0.0896 -2.5013  0.6291
  187MOL0     H25804   2.966   6.589   8.329 -2.0073  0.3453 -0.7214
  187MOL0     H25805   3.016   6.693   8.192 -1.3631  1.8022  1.4125
  187MOL0     H25806   2.865   6.604   8.181 -0.1312  1.9745 -0.3075
  188MOL0     O25807   0.160   5.375   1.338 -0.2288  0.8772 -0.3583
  188MOL0     C25808   0.165   5.474   1.267  0.1014  0.6886  1.0330
  188MOL0     O25809   0.270   5.505   1.191 -0.5294  0.1475 -0.6741
  188MOL0     C25810   0.363   5.407   1.162  1.0399 -1.2622  0.3778
  188MOL0     C25811   0.330   5.274   1.130 -0.2566 -0.8535 -0.3483
  188MOL0     C25812   0.425   5.172   1.096 -0.0721  0.7221  0.1088
  188MOL0     C25813   0.562   5.214   1.074 -0.2243  0.1879  0.5942
  188MOL0     O25814   0.662   5.119   1.040 -0.2707 -1.4830  0.0449
  188MOL0     C25815   0.773   5.106   1.127  0.3296 -0.2055  0.4909
  188MOL0     C25816   0.889   5.024   1.073 -0.7246 -0.5242  0.9610
  188MOL0     C25817   0.942   5.079   0.939 -0.4626  0.1882  0.5295
  188MOL0     C25818   1.009   5.220   0.958  0.4815 -0.4063 -0.1139
  188MOL0     C25819   1.085   5.253   0.835 -1.2194 -1.0015  0.2320
  188MOL0     C25820   1.208   5.166   0.799 -0.0269 -0.5390 -0.1514
  188MOL0     C25821   1.293   5.227   0.693  0.0695 -0.7138 -0.3063
  188MOL0     C25822   1.428   5.162   0.659  0.3918 -0.9290 -0.9518
  188MOL0     N25823   1.453   5.148   0.518 -0.1752 -0.1446 -0.0585
  188MOL0     C25824   1.380   5.057   0.445  0.5232 -0.7330  0.2999
  188MOL0     C25825   1.395   5.103   0.320 -0.1780  0.0807 -0.4712
  188MOL0     C25826   1.312   5.054   0.203  0.2003 -0.7835 -0.3346
  188MOL0     C25827   1.279   5.182   0.117  0.2159 -0.1979  0.0532
  188MOL0     C25828   1.199   5.147  -0.008  1.0468  0.4748 -0.8678
  188MOL0     C25829   1.203   5.269  -0.084  0.2748 -0.1582  0.0943
  188MOL0     O25830   1.151   5.227  -0.205  0.9556 -0.8462 -0.0197
  188MOL0     C25831   1.202   5.291  -0.316 -0.5121  0.0083  0.1266
  188MOL0     C25832   1.119   5.361  -0.394  0.2228 -0.4341 -0.2009
  188MOL0     C25833   1.165   5.423  -0.516  0.2537  0.7657 -0.6024
  188MOL0     C25834   1.071   5.501  -0.600  0.5350 -0.3119  0.2969
  188MOL0     C25835   1.308   5.395  -0.557  0.1847 -1.5508 -0.6213
  188MOL0     C25836   1.369   5.440  -0.692 -0.1987 -0.6667 -0.0826
  188MOL0     O25837   1.488   5.373  -0.722 -0.0485 -0.7452  0.3772
  188MOL0     C25838   1.564   5.410  -0.831 -0.0375 -0.1557  0.0914
  188MOL0     C25839   1.698   5.400  -0.807 -0.4014  0.3704 -0.1242
  188MOL0     C25840   1.795   5.448  -0.907  0.0569  0.5974  1.2845
  188MOL0     C25841   1.747   5.493  -1.030 -0.2485  0.5523 -0.3495
  188MOL0     O25842   1.828   5.527  -1.133  0.9870  0.0078  0.3288
  188MOL0     C25843   1.943   5.457  -1.157 -0.7051  1.2484  0.4124
  188MOL0     C25844   2.007   5.522  -1.275 -0.5007 -0.5508 -1.1907
  188MOL0     C25845   2.134   5.450  -1.329 -0.0970  0.3293  0.2464
  188MOL0     C25846   2.211   5.522  -1.444 -0.7624 -0.6585  0.3493
  188MOL0     C25847   2.328   5.430  -1.486  0.0714  0.4629 -0.0949
  188MOL0     C25848   2.413   5.493  -1.610  0.3970  0.5855  0.0842
  188MOL0     C25849   2.496   5.393  -1.687 -1.0757  0.8276  0.1861
  188MOL0     C25850   2.586   5.465  -1.785  0.3960 -0.3565 -0.5394
  188MOL0    Cl25851   2.707   5.348  -1.862  0.3074 -0.2863  0.5512
  188MOL0     C25852   1.611   5.499  -1.054  0.1435 -0.1324  0.1032
  188MOL0     C25853   1.516   5.457  -0.955 -0.1640  0.5581  0.1521
  188MOL0     O25854   1.320   5.532  -0.762 -0.2564  0.1267  0.5770
  188MOL0     C25855   1.391   5.326  -0.470  1.1682  0.0147  0.0053
  188MOL0     C25856   1.336   5.276  -0.352 -0.2584 -0.1412  0.2166
  188MOL0     N25857   1.471   5.214   0.323  0.4844 -0.1462 -0.4311
  188MOL0     N25858   1.520   5.235   0.438 -0.5086  0.7525  0.1576
  188MOL0     C25859   0.592   5.347   1.105 -0.9726  0.2679  0.7744
  188MOL0     C25860   0.492   5.443   1.151  0.4244 -0.0378  0.0251
  188MOL0     C25861   0.050   5.576   1.275  0.0364 -1.4098 -0.1204
  188MOL0     C25862   0.057   5.685   1.188 -1.2118 -0.3563  0.3382
  188MOL0     C25863  -0.023   5.793   1.197  0.3767 -0.5449  0.3244
  188MOL0     C25864  -0.128   5.795   1.289 -0.6960  0.2952  0.1981
  188MOL0     O25865  -0.206   5.912   1.303 -0.0761 -0.0338 -0.6391
  188MOL0     C25866  -0.339   5.893   1.246  0.6270 -0.2468 -0.6158
  188MOL0     C25867  -0.403   6.026   1.204  0.4230  0.2317  1.0370
  188MOL0     C25868  -0.550   6.015   1.160  0.1213  0.6540 -0.0310
  188MOL0     C25869  -0.607   6.146   1.121  0.1326  0.2004 -1.0793
  188MOL0     C25870  -0.723   6.112   1.037  0.8736  0.5250 -0.4872
  188MOL0     C25871  -0.826   6.087   0.969  0.8156 -0.1245  0.5948
  188MOL0     C25872  -0.153   5.684   1.366  0.1198  0.0471  0.0203
  188MOL0     C25873  -0.062   5.574   1.362  0.6364 -0.5388  0.3508
  188MOL0     C25874  -0.090   5.453   1.457 -1.2169 -0.0312  0.2828
  188MOL0     H25875   0.229   5.237   1.146 -0.0212 -0.9769  1.0259
  188MOL0     H25876   0.397   5.068   1.082 -0.8496  0.7050  1.5868
  188MOL0     H25877   0.731   5.064   1.218  0.9136  0.3165  1.0127
  188MOL0     H25878   0.812   5.203   1.160 -0.8950 -0.7841  4.0822
  188MOL0     H25879   0.976   5.027   1.139 -0.4287  0.8683  0.5624
  188MOL0     H25880   0.859   4.920   1.062 -1.9189 -0.0415 -0.8399
  188MOL0     H25881   1.010   5.000   0.906 -3.1520 -3.3958  2.8401
  188MOL0     H25882   0.868   5.079   0.858  0.5588 -0.2677 -0.4311
  188MOL0     H25883   0.926   5.289   0.976 -0.2242 -1.1241 -0.5386
  188MOL0     H25884   1.075   5.214   1.045 -1.7939 -1.8375  1.6487
  188MOL0     H25885   1.121   5.357   0.842  0.8458 -1.4231 -2.2511
  188MOL0     H25886   1.012   5.246   0.754  0.1433 -0.8773 -1.0591
  188MOL0     H25887   1.272   5.141   0.883 -0.4917 -3.3310 -0.5382
  188MOL0     H25888   1.173   5.076   0.748 -1.0616  0.2202 -0.8360
  188MOL0     H25889   1.311   5.330   0.725  1.5020 -1.2142  0.6400
  188MOL0     H25890   1.238   5.226   0.599 -0.6327 -4.4565 -0.0193
  188MOL0     H25891   1.507   5.220   0.709 -0.3767  0.8906 -1.7312
  188MOL0     H25892   1.423   5.065   0.709  0.5531 -0.3525  0.2180
  188MOL0     H25893   1.302   4.987   0.470 -1.4476 -0.6321 -4.5141
  188MOL0     H25894   1.216   5.023   0.245  0.0637 -1.1156 -0.8805
  188MOL0     H25895   1.358   4.972   0.147  0.3497 -0.1644 -1.1394
  188MOL0     H25896   1.237   5.254   0.187 -2.0585 -1.2188 -0.1706
  188MOL0     H25897   1.367   5.240   0.086 -0.9865  1.0776 -1.1173
  188MOL0     H25898   1.241   5.060  -0.061 -0.1031 -0.5386 -0.1805
  188MOL0     H25899   1.096   5.122   0.017  1.0535 -0.4945 -1.7080
  188MOL0     H25900   1.128   5.334  -0.038  1.4455  1.0200  0.4084
  188MOL0     H25901   1.300   5.319  -0.094 -0.2169  0.8771  0.3382
  188MOL0     H25902   1.016   5.353  -0.361 -0.3342  1.8739 -1.1631
  188MOL0     H25903   1.110   5.603  -0.613 -0.7235  0.0030 -1.2374
  188MOL0     H25904   0.980   5.506  -0.539  0.3780  0.7003 -0.0026
  188MOL0     H25905   1.043   5.466  -0.700 -0.6084 -2.2405  1.2430
  188MOL0     H25906   1.744   5.365  -0.715 -0.5733 -2.8687 -1.1547
  188MOL0     H25907   1.904   5.454  -0.902  0.4463 -0.3479 -2.9122
  188MOL0     H25908   2.016   5.467  -1.076 -0.1082  2.0582 -0.2078
  188MOL0     H25909   1.924   5.351  -1.177  3.2069  0.3799  0.6399
  188MOL0     H25910   1.926   5.522  -1.348 -0.5931  1.2985 -1.1254
  188MOL0     H25911   2.016   5.630  -1.259 -0.8489 -0.8037  0.9293
  188MOL0     H25912   2.099   5.355  -1.370 -0.1578  0.7466 -0.7022
  188MOL0     H25913   2.202   5.428  -1.246  0.6039 -2.3431 -0.9270
  188MOL0     H25914   2.259   5.612  -1.406 -2.5266  1.5648 -2.3416
  188MOL0     H25915   2.149   5.548  -1.531  0.7743  2.7760  0.1248
  188MOL0     H25916   2.401   5.434  -1.405 -0.5520  0.7143  0.4627
  188MOL0     H25917   2.291   5.328  -1.505  0.2761  0.3126  0.3067
  188MOL0     H25918   2.485   5.567  -1.574  2.6271 -0.9708 -0.8967
  188MOL0     H25919   2.347   5.549  -1.677 -0.2346  0.6406  0.7413
  188MOL0     H25920   2.432   5.321  -1.739 -3.4236  1.3965  2.1117
  188MOL0     H25921   2.556   5.344  -1.610 -3.2856  0.6998  1.9021
  188MOL0     H25922   2.644   5.543  -1.734  0.3898  0.0565 -1.1558
  188MOL0     H25923   2.531   5.516  -1.865  0.3592  0.9583  0.2818
  188MOL0     H25924   1.574   5.530  -1.152  3.5194  1.5484 -0.7894
  188MOL0     H25925   1.409   5.463  -0.968 -0.7100 -1.9048  2.6301
  188MOL0     H25926   1.495   5.310  -0.495  1.3832  0.9014  0.3132
  188MOL0     H25927   1.404   5.209  -0.300  0.6924  0.7401  0.1373
  188MOL0     H25928   0.693   5.383   1.090 -0.1805 -0.9550  2.7089
  188MOL0     H25929   0.525   5.546   1.160  3.7839 -1.0530  0.6976
  188MOL0     H25930   0.141   5.694   1.120 -2.4614  4.1983 -0.9925
  188MOL0     H25931   0.009   5.877   1.136  0.8120  0.6927  2.1640
  188MOL0     H25932  -0.350   5.823   1.163 -1.7419 -0.4794 -0.1905
  188MOL0     H25933  -0.386   5.846   1.332 -1.8787  0.9041 -1.2456
  188MOL0     H25934  -0.350   6.067   1.117 -1.3841 -0.0668 -0.2705
  188MOL0     H25935  -0.398   6.089   1.293  2.1875  0.3658  0.8772
  188MOL0     H25936  -0.545   5.950   1.072  0.1345 -0.2096  0.6031
  188MOL0     H25937  -0.607   5.981   1.246 -1.3129  4.2462  0.6358
  188MOL0     H25938  -0.532   6.210   1.074  1.4431  1.5385  2.4700
  188MOL0     H25939  -0.629   6.201   1.214  1.4321 -1.2581  0.1528
  188MOL0     H25940  -0.918   6.070   0.918  1.0455 -1.8404  0.6997
  188MOL0     H25941  -0.244   5.690   1.424  1.2925 -1.5971  2.1831
  188MOL0     H25942  -0.190   5.450   1.501 -1.3805  0.5216 -0.0357
  188MOL0     H25943  -0.065   5.363   1.399 -0.6267  0.4805 -0.2808
  188MOL0     H25944  -0.014   5.462   1.534 -0.2795 -1.3441 -0.4518
  189MOL0     O25945   5.694   0.686   9.855 -0.1787  0.7609  0.1844
  189MOL0     C25946   5.634   0.750   9.934 -0.3057  0.0679  0.7047
  189MOL0     O25947   5.691   0.798  10.047  0.7789  0.4487 -0.0640
  189MOL0     C25948   5.824   0.770  10.071 -0.1619  0.1674 -0.4835
  189MOL0     C25949   5.854   0.703  10.187 -0.4892 -0.4438  1.0368
  189MOL0     C25950   5.994   0.674  10.222  0.5408 -0.1602 -0.5712
  189MOL0     C25951   6.091   0.722  10.138  0.3553  0.4302  1.2459
  189MOL0     O25952   6.225   0.701  10.169  0.3921  0.1211  0.1108
  189MOL0     C25953   6.287   0.791  10.259 -0.0602  0.4719  0.2988
  189MOL0     C25954   6.433   0.784  10.244 -0.6570  0.0409  0.0548
  189MOL0     C25955   6.515   0.863  10.339  0.3434 -0.1687 -0.6136
  189MOL0     C25956   6.665   0.833  10.325  0.5801 -0.8089 -0.8000
  189MOL0     C25957   6.717   0.697  10.375  0.4653  0.3017 -0.1102
  189MOL0     C25958   6.834   0.719  10.472 -0.5455  0.9765  0.1941
  189MOL0     C25959   6.895   0.569  10.504 -0.3916 -0.6474  0.8566
  189MOL0     C25960   7.027   0.542  10.445 -0.4672  0.0904  0.1077
  189MOL0     N25961   7.129   0.636  10.491  0.5003 -0.0545 -0.0669
  189MOL0     C25962   7.168   0.650  10.625 -0.5641 -1.0835  0.0050
  189MOL0     C25963   7.252   0.766  10.634 -0.6929  1.2793 -0.0619
  189MOL0     C25964   7.313   0.827  10.754 -1.2165  0.1153 -0.1626
  189MOL0     C25965   7.446   0.762  10.783  0.8256  0.3506  0.4573
  189MOL0     C25966   7.540   0.846  10.878 -0.3175 -0.7028 -0.1504
  189MOL0     C25967   7.644   0.754  10.946  0.1298  0.0838 -0.2583
  189MOL0     O25968   7.734   0.685  10.853  0.5240 -0.9491 -0.0760
  189MOL0     C25969   7.851   0.753  10.807 -0.4925  0.0288 -0.2049
  189MOL0     C25970   7.915   0.863  10.857  0.3503  0.3419  0.3523
  189MOL0     C25971   8.022   0.925  10.796  0.0503  0.3936 -0.0430
  189MOL0     C25972   8.078   1.049  10.861 -0.6569  0.4313  0.0049
  189MOL0     C25973   8.085   0.859  10.684 -0.7266 -0.4921 -0.0930
  189MOL0     C25974   8.205   0.911  10.624  0.1424 -0.4266 -0.8659
  189MOL0     O25975   8.303   0.819  10.589 -0.1335  0.1463 -0.7011
  189MOL0     C25976   8.374   0.835  10.478  0.5667 -0.1469  0.3651
  189MOL0     C25977   8.367   0.734  10.383 -0.1969  1.2466  0.1128
  189MOL0     C25978   8.435   0.739  10.265  0.0083 -0.3881  0.3165
  189MOL0     C25979   8.531   0.843  10.249  0.1827 -0.0772 -0.4970
  189MOL0     O25980   8.601   0.849  10.136  0.1873 -0.0204  0.1002
  189MOL0     C25981   8.566   0.776  10.021  0.6201  0.3700  0.8710
  189MOL0     C25982   8.638   0.838   9.895  0.5932  0.9785 -0.1469
  189MOL0     C25983   8.603   0.766   9.760 -0.4855  0.3856  0.4513
  189MOL0     C25984   8.702   0.813   9.645 -0.1605 -0.0957 -0.5606
  189MOL0     C25985   8.681   0.723   9.527 -0.9632 -1.1407 -0.1762
  189MOL0     C25986   8.786   0.743   9.428  0.4081 -0.1233 -0.9158
  189MOL0     C25987   8.761   0.660   9.303  0.6276  0.4438  0.2349
  189MOL0     C25988   8.779   0.504   9.338 -0.4010  0.4102 -0.4758
  189MOL0    Cl25989   8.737   0.406   9.205  0.5189 -0.0552  0.1303
  189MOL0     C25990   8.543   0.939  10.343 -0.6605  0.3060  0.9631
  189MOL0     C25991   8.462   0.937  10.455  0.1043 -0.4816 -0.2806
  189MOL0     O25992   8.218   1.024  10.596  0.2036 -0.2018 -0.0093
  189MOL0     C25993   8.030   0.742  10.633  0.2372 -0.7509  0.1659
  189MOL0     C25994   7.912   0.697  10.691 -0.1024 -0.6074  0.0931
  189MOL0     N25995   7.273   0.806  10.501  0.5434 -0.0476  0.4149
  189MOL0     N25996   7.200   0.733  10.421  0.0284 -0.6378 -0.5205
  189MOL0     C25997   6.059   0.795  10.024  0.1424  0.2336 -0.2554
  189MOL0     C25998   5.926   0.817   9.987 -0.7416  0.0411  1.5877
  189MOL0     C25999   5.489   0.756   9.921  0.9685 -0.1651  0.0833
  189MOL0     C26000   5.420   0.733  10.039  0.2786 -0.7187  0.3649
  189MOL0     C26001   5.284   0.717  10.040  0.3624  1.2771  0.2706
  189MOL0     C26002   5.206   0.741   9.925 -0.2353  0.0105 -0.4723
  189MOL0     O26003   5.065   0.724   9.934 -0.2475  0.2578 -0.2362
  189MOL0     C26004   4.974   0.801   9.856 -0.2056  0.3342  0.5260
  189MOL0     C26005   4.990   0.948   9.859  0.3171  0.0535  0.5313
  189MOL0     C26006   4.933   1.014   9.736 -0.3118  0.3617  0.2504
  189MOL0     C26007   4.961   1.165   9.734  0.2550 -0.8258  0.5012
  189MOL0     C26008   4.897   1.251   9.836  0.6852  1.4312 -0.3574
  189MOL0     C26009   4.840   1.321   9.917 -1.1357 -0.1483  0.8705
  189MOL0     C26010   5.280   0.768   9.808 -0.0081 -0.0263  0.0297
  189MOL0     C26011   5.425   0.771   9.797  0.6435 -0.3458  0.2521
  189MOL0     C26012   5.490   0.811   9.672 -0.3295 -0.6473 -0.4720
  189MOL0     H26013   5.768   0.681  10.249 -0.6761 -2.1623  0.2316
  189MOL0     H26014   6.035   0.636  10.315  1.9580  1.9701 -0.2483
  189MOL0     H26015   6.257   0.764  10.361  1.4441 -2.3188  0.0858
  189MOL0     H26016   6.246   0.889  10.233 -1.2177  0.3938  1.6535
  189MOL0     H26017   6.478   0.685  10.261  1.0062  0.7032 -0.2949
  189MOL0     H26018   6.462   0.812  10.142 -0.3216 -1.1304 -0.1914
  189MOL0     H26019   6.507   0.969  10.314  0.2847 -0.1970 -0.7154
  189MOL0     H26020   6.483   0.835  10.440  1.0092 -0.1520 -0.3892
  189MOL0     H26021   6.700   0.838  10.222  0.3528 -3.4424 -1.0659
  189MOL0     H26022   6.712   0.919  10.374 -1.5024 -0.4227  0.6544
  189MOL0     H26023   6.746   0.640  10.286 -0.3743 -1.4181  0.6526
  189MOL0     H26024   6.644   0.632  10.425 -0.1226 -1.0148 -2.5263
  189MOL0     H26025   6.915   0.781  10.431 -2.1507  1.2991 -2.7781
  189MOL0     H26026   6.809   0.771  10.564  0.0368 -0.8813  1.4512
  189MOL0     H26027   6.834   0.484  10.471  0.6860 -0.9665 -0.4150
  189MOL0     H26028   6.894   0.557  10.613 -2.3916  0.6661  1.0276
  189MOL0     H26029   7.058   0.442  10.477 -1.8616  0.3452  2.4721
  189MOL0     H26030   7.026   0.556  10.336 -1.2744 -0.1972  0.0730
  189MOL0     H26031   7.126   0.599  10.711 -1.9954  2.4056  1.5840
  189MOL0     H26032   7.251   0.821  10.844 -0.3664  0.2149  0.4360
  189MOL0     H26033   7.337   0.930  10.726  0.5471 -0.0857  0.4748
  189MOL0     H26034   7.426   0.660  10.816  2.3040 -1.2793 -3.1302
  189MOL0     H26035   7.505   0.752  10.691  0.5412  1.1245  0.1800
  189MOL0     H26036   7.595   0.912  10.810 -0.2753 -1.3615 -0.7670
  189MOL0     H26037   7.486   0.903  10.954  0.6003  0.1423 -0.1110
  189MOL0     H26038   7.700   0.828  11.004  2.7568 -1.2885 -0.8726
  189MOL0     H26039   7.589   0.685  11.010 -0.4504  0.5411 -0.2537
  189MOL0     H26040   7.876   0.903  10.950  1.5968 -1.1125  1.5642
  189MOL0     H26041   8.174   1.013  10.899 -2.1036 -0.4782  3.0281
  189MOL0     H26042   8.032   1.074  10.956  1.3493 -1.3344  1.5331
  189MOL0     H26043   8.102   1.128  10.789 -0.7337  0.1656 -0.3146
  189MOL0     H26044   8.306   0.647  10.406  0.3210  0.5051 -1.1622
  189MOL0     H26045   8.419   0.669  10.184 -0.2544  0.4097 -0.3445
  189MOL0     H26046   8.600   0.674  10.041 -1.9874 -1.0989 -1.3802
  189MOL0     H26047   8.459   0.774   9.999  0.8513 -1.0922 -0.3412
  189MOL0     H26048   8.601   0.940   9.887 -0.1494  0.9954  2.5223
  189MOL0     H26049   8.743   0.821   9.921 -0.2076 -1.5976  1.8445
  189MOL0     H26050   8.500   0.781   9.725 -0.5451 -1.9363 -0.5374
  189MOL0     H26051   8.617   0.658   9.773 -1.6068  0.2682  0.7829
  189MOL0     H26052   8.808   0.805   9.673 -0.2639 -0.0740 -0.1621
  189MOL0     H26053   8.680   0.915   9.611 -0.4183  0.0769  0.1095
  189MOL0     H26054   8.707   0.620   9.556  0.0862 -0.6954  0.5325
  189MOL0     H26055   8.580   0.736   9.486 -1.1299  0.0922  0.5654
  189MOL0     H26056   8.881   0.707   9.468  0.4725  0.6138 -0.3815
  189MOL0     H26057   8.796   0.852   9.415  1.4239  0.6282  4.2849
  189MOL0     H26058   8.821   0.698   9.220  0.2970  0.7611  0.1358
  189MOL0     H26059   8.660   0.686   9.267  2.3316  3.1657 -3.1862
  189MOL0     H26060   8.708   0.460   9.409  0.7768 -0.2055  0.3531
  189MOL0     H26061   8.881   0.478   9.367 -0.7021 -0.6603 -0.3225
  189MOL0     H26062   8.617   1.017  10.326  0.8045 -1.4015 -0.8969
  189MOL0     H26063   8.470   1.015  10.530  1.4974 -0.3494 -0.5368
  189MOL0     H26064   8.079   0.690  10.551 -2.6017 -1.7627 -1.0008
  189MOL0     H26065   7.867   0.606  10.654  0.7460 -0.6454 -0.8833
  189MOL0     H26066   6.146   0.838   9.975  1.7566  3.8399  4.8897
  189MOL0     H26067   5.911   0.872   9.894  3.9622  1.5548  1.4515
  189MOL0     H26068   5.463   0.743  10.138 -0.4973 -3.0254  1.0113
  189MOL0     H26069   5.239   0.686  10.133  0.6898  1.8037  0.6134
  189MOL0     H26070   4.978   0.770   9.751 -1.5072  1.2513  0.1853
  189MOL0     H26071   4.872   0.771   9.879  0.2472 -1.2860  0.5841
  189MOL0     H26072   5.097   0.973   9.865  0.1447  0.5695  1.9481
  189MOL0     H26073   4.943   0.999   9.944 -1.3625  0.2806 -0.5060
  189MOL0     H26074   4.977   0.978   9.643  1.3657 -0.0913  1.1925
  189MOL0     H26075   4.825   0.997   9.734 -0.0359 -1.5092 -0.8412
  189MOL0     H26076   4.931   1.207   9.638  0.9558 -2.6673 -0.5894
  189MOL0     H26077   5.068   1.186   9.744  0.5526 -0.3415 -2.7089
  189MOL0     H26078   4.793   1.387   9.987 -1.9032  0.1671  0.0843
  189MOL0     H26079   5.226   0.772   9.714 -2.4030  1.1393  1.3576
  189MOL0     H26080   5.423   0.813   9.586  0.2554 -2.2169 -0.9948
  189MOL0     H26081   5.537   0.908   9.691  1.0029 -1.2665 -0.5110
  189MOL0     H26082   5.575   0.750   9.641  1.0657  1.6302 -1.3490
  190MOL0     O26083   6.171   6.801   3.931 -0.3504  0.6973 -0.1582
  190MOL0     C26084   6.076   6.866   3.890 -0.2839 -0.8551  0.8325
  190MOL0     O26085   6.073   7.001   3.887  0.5120  0.2592 -0.4131
  190MOL0     C26086   6.188   7.074   3.903 -0.3413  0.3373 -0.1567
  190MOL0     C26087   6.245   7.123   3.785  0.3766  0.2178 -0.1419
  190MOL0     C26088   6.361   7.197   3.790 -0.0485  0.5972  0.6555
  190MOL0     C26089   6.419   7.233   3.913 -0.8917 -0.2546 -0.3894
  190MOL0     O26090   6.526   7.317   3.919  0.1071  0.7856 -0.5227
  190MOL0     C26091   6.630   7.292   3.824 -0.0955  0.0945 -0.2386
  190MOL0     C26092   6.662   7.409   3.736 -0.4883 -0.1835 -0.3690
  190MOL0     C26093   6.744   7.370   3.614 -0.4310 -0.7685  1.2222
  190MOL0     C26094   6.644   7.376   3.497 -0.4078  0.5116  0.4431
  190MOL0     C26095   6.696   7.327   3.369  0.2570 -0.3127  0.0712
  190MOL0     C26096   6.687   7.171   3.379 -0.1210  0.0871 -0.6985
  190MOL0     C26097   6.741   7.100   3.247 -0.6091  0.7156 -0.0310
  190MOL0     C26098   6.627   7.056   3.157  0.2863 -0.1895 -0.0739
  190MOL0     N26099   6.689   7.024   3.027  0.5207  0.2207 -0.3825
  190MOL0     C26100   6.718   7.110   2.920  0.2082 -1.1890 -0.8418
  190MOL0     C26101   6.802   7.046   2.840 -0.7059 -0.8504 -0.1220
  190MOL0     C26102   6.871   7.096   2.717  0.4839  0.3623 -0.3712
  190MOL0     C26103   7.012   7.138   2.738  0.5051  0.2845 -0.2703
  190MOL0     C26104   7.025   7.282   2.778 -0.4762  0.1053 -0.3616
  190MOL0     C26105   7.172   7.311   2.801 -0.5331  0.0318 -0.5325
  190MOL0     O26106   7.196   7.452   2.856  0.4086 -0.4225  0.7409
  190MOL0     C26107   7.327   7.486   2.894  0.2973  0.1896  0.3589
  190MOL0     C26108   7.336   7.611   2.959 -0.0299 -0.2165 -0.9313
  190MOL0     C26109   7.455   7.662   3.009 -0.4055 -0.6315  0.6469
  190MOL0     C26110   7.448   7.805   3.062  0.0411  0.3932 -0.6393
  190MOL0     C26111   7.566   7.577   3.004  0.1644  0.8386  0.5841
  190MOL0     C26112   7.700   7.622   3.055  0.3014  0.2373  0.9400
  190MOL0     O26113   7.808   7.583   2.983 -0.4000 -0.6762  0.4317
  190MOL0     C26114   7.929   7.618   3.030  0.2163  0.9479 -0.6473
  190MOL0     C26115   8.001   7.728   2.985  0.9510 -1.0567 -0.1285
  190MOL0     C26116   8.134   7.748   3.020  0.2243  0.5470 -0.2721
  190MOL0     C26117   8.195   7.668   3.115  0.1276 -0.3582 -0.2879
  190MOL0     O26118   8.325   7.699   3.143 -0.3310 -0.1944  0.6482
  190MOL0     C26119   8.413   7.603   3.203 -1.0405  1.0418  0.0620
  190MOL0     C26120   8.553   7.661   3.183 -0.0258  0.4050  0.2048
  190MOL0     C26121   8.654   7.551   3.234 -0.0517  0.6995 -0.5358
  190MOL0     C26122   8.794   7.613   3.259  0.7022  0.4942 -0.1927
  190MOL0     C26123   8.917   7.518   3.281  0.1934 -1.1301  0.6050
  190MOL0     C26124   8.897   7.431   3.404 -0.4776 -0.7059  0.2595
  190MOL0     C26125   9.012   7.337   3.428 -0.8198  0.9760 -0.1730
  190MOL0     C26126   8.990   7.246   3.549  0.1259 -0.0424  0.1378
  190MOL0    Cl26127   9.068   7.093   3.524 -0.3604  0.2642 -0.1925
  190MOL0     C26128   8.123   7.559   3.167  0.1942 -0.6979  0.2635
  190MOL0     C26129   7.990   7.544   3.123 -0.5860 -0.9262  0.0771
  190MOL0     O26130   7.709   7.695   3.152  0.0981  0.6996 -0.2188
  190MOL0     C26131   7.560   7.451   2.952  0.0542  1.4846  0.3268
  190MOL0     C26132   7.437   7.400   2.900  0.0675 -0.7010  1.0830
  190MOL0     N26133   6.813   6.916   2.881 -1.4053 -0.2270  0.1875
  190MOL0     N26134   6.749   6.908   2.988 -0.2926  0.7458  0.1460
  190MOL0     C26135   6.343   7.206   4.025  0.5192  0.0698 -0.4889
  190MOL0     C26136   6.225   7.127   4.024  0.5739  0.0203 -1.2340
  190MOL0     C26137   5.953   6.793   3.854  0.8479  0.0071 -1.1331
  190MOL0     C26138   5.962   6.654   3.846  0.6390 -0.3479  0.0131
  190MOL0     C26139   5.855   6.576   3.801  0.8183 -0.9905  0.5154
  190MOL0     C26140   5.734   6.634   3.760 -0.4087 -0.5048 -0.6644
  190MOL0     O26141   5.645   6.539   3.712 -0.0448  0.6782  0.0977
  190MOL0     C26142   5.520   6.580   3.678  0.2797  0.3418 -0.1845
  190MOL0     C26143   5.445   6.458   3.631 -0.4245  0.1303 -0.7215
  190MOL0     C26144   5.486   6.431   3.483 -0.0138 -0.7361  0.2271
  190MOL0     C26145   5.413   6.529   3.387 -0.3235  0.8608 -0.0547
  190MOL0     C26146   5.458   6.505   3.244  0.4731  0.4405  0.2815
  190MOL0     C26147   5.498   6.477   3.136  0.6304  0.9564  0.1094
  190MOL0     C26148   5.721   6.782   3.763  0.6657  0.0135  0.5390
  190MOL0     C26149   5.829   6.857   3.805 -0.6614  0.6859  0.0362
  190MOL0     C26150   5.819   7.012   3.804 -0.2853  0.1057 -1.4503
  190MOL0     H26151   6.209   7.097   3.686 -1.7722  3.7511 -0.4398
  190MOL0     H26152   6.413   7.228   3.699 -2.3904 -0.9158 -1.3335
  190MOL0     H26153   6.619   7.202   3.763  0.6751 -0.1403 -0.0507
  190MOL0     H26154   6.726   7.280   3.876  1.0124  0.6603 -2.0592
  190MOL0     H26155   6.572   7.468   3.718 -0.6234 -0.0636  0.6342
  190MOL0     H26156   6.727   7.467   3.803  0.6652  0.4665 -2.0011
  190MOL0     H26157   6.828   7.439   3.601  1.5223 -3.2910 -0.9234
  190MOL0     H26158   6.788   7.269   3.621  3.2728  0.6915  1.3752
  190MOL0     H26159   6.547   7.331   3.522  0.8901 -3.4425 -0.8740
  190MOL0     H26160   6.635   7.485   3.494 -0.6111  0.5628  2.0705
  190MOL0     H26161   6.801   7.355   3.352 -0.4948  1.7886 -1.5667
  190MOL0     H26162   6.630   7.367   3.291  0.4553  0.5717  0.3408
  190MOL0     H26163   6.755   7.132   3.455  0.4504 -1.2342 -1.8505
  190MOL0     H26164   6.588   7.136   3.408  0.9103  0.5591  4.2525
  190MOL0     H26165   6.805   7.015   3.274 -0.3022  0.7519 -0.6213
  190MOL0     H26166   6.816   7.164   3.199  2.7849 -1.9659  1.2702
  190MOL0     H26167   6.562   6.980   3.202  0.1135  1.2327  2.2330
  190MOL0     H26168   6.547   7.130   3.146 -1.9013 -2.1263  1.5458
  190MOL0     H26169   6.694   7.215   2.909  1.7185 -0.3981  2.1934
  190MOL0     H26170   6.815   7.173   2.664  0.5831  0.1094 -0.8478
  190MOL0     H26171   6.866   7.012   2.647  1.1365  1.3639 -1.6678
  190MOL0     H26172   7.049   7.076   2.820 -0.5677  0.9549  0.7537
  190MOL0     H26173   7.076   7.111   2.653  1.5776 -1.3442  0.9897
  190MOL0     H26174   6.984   7.346   2.699 -1.1758  0.5579  0.3531
  190MOL0     H26175   6.987   7.306   2.878  0.3694  0.0821 -0.0203
  190MOL0     H26176   7.211   7.239   2.874 -2.2187 -2.1416 -1.6740
  190MOL0     H26177   7.231   7.305   2.709  2.1340  0.8950  0.9839
  190MOL0     H26178   7.247   7.672   2.957  2.0987  3.4502  1.6426
  190MOL0     H26179   7.449   7.794   3.171 -0.5300  0.7744 -0.5932
  190MOL0     H26180   7.366   7.864   3.020 -1.2757 -2.3261 -2.1636
  190MOL0     H26181   7.542   7.858   3.043  1.4373 -0.5299  2.7877
  190MOL0     H26182   7.935   7.793   2.927 -3.1931 -1.9075  3.1219
  190MOL0     H26183   8.187   7.839   2.990 -0.2972  0.3220 -1.9772
  190MOL0     H26184   8.396   7.589   3.310  0.9573 -0.4272  0.2278
  190MOL0     H26185   8.397   7.504   3.158 -3.5204  1.5609 -0.3710
  190MOL0     H26186   8.566   7.686   3.077  0.0385  2.6481  0.7024
  190MOL0     H26187   8.556   7.756   3.237 -0.4640  0.0965  0.7740
  190MOL0     H26188   8.664   7.461   3.173  1.2116 -0.8388  1.7896
  190MOL0     H26189   8.614   7.513   3.329  2.6403 -0.2829  0.2899
  190MOL0     H26190   8.794   7.679   3.347 -0.5851  3.9498 -2.5398
  190MOL0     H26191   8.820   7.683   3.179  0.3543  0.3685 -0.4178
  190MOL0     H26192   8.933   7.458   3.191 -0.1983 -0.2078 -0.1035
  190MOL0     H26193   9.003   7.587   3.288 -0.4334 -0.4007  1.3295
  190MOL0     H26194   8.805   7.371   3.395 -0.9280  0.0604 -0.4434
  190MOL0     H26195   8.890   7.500   3.488 -2.1177 -0.7266  0.1869
  190MOL0     H26196   9.102   7.396   3.446 -0.6239  0.1368  1.8853
  190MOL0     H26197   9.028   7.272   3.342  1.1155  1.4576 -0.2242
  190MOL0     H26198   8.887   7.209   3.551  1.0717 -2.9686  0.3112
  190MOL0     H26199   9.004   7.279   3.652 -3.9527 -0.4175  0.9839
  190MOL0     H26200   8.165   7.491   3.241  1.0861  0.5098  0.9061
  190MOL0     H26201   7.938   7.462   3.172  0.7546 -1.8972 -0.0758
  190MOL0     H26202   7.642   7.380   2.954 -0.9331  0.2318 -0.8436
  190MOL0     H26203   7.439   7.303   2.850 -6.5833 -0.0498 -1.5480
  190MOL0     H26204   6.365   7.254   4.120 -3.6191  1.2410  0.0990
  190MOL0     H26205   6.184   7.094   4.118  3.5489  0.4504  0.3589
  190MOL0     H26206   6.057   6.604   3.864  0.3915 -0.6057  0.6031
  190MOL0     H26207   5.851   6.468   3.790 -1.3924 -1.0706  1.5055
  190MOL0     H26208   5.463   6.627   3.759  1.7705  2.2177 -0.1439
  190MOL0     H26209   5.524   6.667   3.611  0.7921  1.8181  1.6911
  190MOL0     H26210   5.336   6.462   3.640 -0.8544 -3.3291 -2.8653
  190MOL0     H26211   5.483   6.373   3.688 -1.4318 -0.5644 -1.0678
  190MOL0     H26212   5.588   6.469   3.474  0.3446 -2.0166 -1.5510
  190MOL0     H26213   5.490   6.325   3.458  2.9062 -1.1302  1.8938
  190MOL0     H26214   5.411   6.634   3.420 -1.0402  0.0948  2.5981
  190MOL0     H26215   5.307   6.502   3.386  0.0922 -0.8520 -0.6823
  190MOL0     H26216   5.527   6.436   3.041 -0.1869 -0.2703  0.3536
  190MOL0     H26217   5.624   6.827   3.747 -0.4147 -2.6244 -0.9891
  190MOL0     H26218   5.722   7.035   3.758 -1.9902 -1.9235  0.8480
  190MOL0     H26219   5.828   7.054   3.904  2.0906 -3.3853 -0.0247
  190MOL0     H26220   5.896   7.057   3.741  0.4081 -0.4068 -0.9862
  191MOL0     O26221   9.874   1.682   4.841 -0.2186 -0.0385  0.3186
  191MOL0     C26222   9.787   1.690   4.756  0.8976 -0.5983  0.1770
  191MOL0     O26223   9.803   1.692   4.616 -0.2985 -0.1576  0.0963
  191MOL0     C26224   9.907   1.616   4.567  0.1847  0.5082  0.0252
  191MOL0     C26225  10.038   1.662   4.582 -0.1859  0.3134 -0.4124
  191MOL0     C26226  10.137   1.586   4.532 -0.9387  0.9945 -0.0112
  191MOL0     C26227  10.117   1.457   4.477 -0.4355 -0.5292 -0.0904
  191MOL0     O26228  10.232   1.387   4.433 -0.1172 -0.7873  0.9043
  191MOL0     C26229  10.216   1.364   4.292 -0.1131  0.8791  0.1099
  191MOL0     C26230  10.343   1.343   4.211 -0.7157  0.8856  0.2361
  191MOL0     C26231  10.323   1.348   4.057  0.6838  1.4186 -0.4716
  191MOL0     C26232  10.462   1.344   3.995  0.2257 -0.2002  0.1391
  191MOL0     C26233  10.527   1.203   3.983 -0.4142  0.6968 -0.2892
  191MOL0     C26234  10.664   1.220   3.908 -0.4669  0.5930  0.5023
  191MOL0     C26235  10.739   1.096   3.904 -0.8154  0.3804 -0.3494
  191MOL0     C26236  10.881   1.116   3.854  0.0138  0.2517  0.5286
  191MOL0     N26237  10.943   0.982   3.826 -0.2193 -0.8323  0.1095
  191MOL0     C26238  11.016   0.957   3.714  0.6177  0.5300 -0.3640
  191MOL0     C26239  11.074   0.840   3.736 -0.2282 -0.7692 -0.9011
  191MOL0     C26240  11.186   0.795   3.641  0.5736 -0.3110  0.1991
  191MOL0     C26241  11.329   0.776   3.718  0.8883 -0.6795 -0.0246
  191MOL0     C26242  11.352   0.634   3.777  0.3351 -0.4212 -0.2993
  191MOL0     C26243  11.502   0.614   3.825 -0.4597  0.1097 -0.1686
  191MOL0     O26244  11.508   0.481   3.889  0.1227 -0.0014  1.2595
  191MOL0     C26245  11.633   0.444   3.926 -0.7066  0.6119  0.0421
  191MOL0     C26246  11.755   0.514   3.913  0.0162 -0.0901  0.8191
  191MOL0     C26247  11.885   0.450   3.918 -0.7548  0.6357 -0.6348
  191MOL0     C26248  12.013   0.536   3.909  0.1209  0.2226 -0.2150
  191MOL0     C26249  11.896   0.315   3.960 -1.0147  0.1058 -0.0672
  191MOL0     C26250  12.026   0.237   3.979 -0.4188  0.2067  0.2530
  191MOL0     O26251  12.137   0.273   3.908  0.3455  0.2997 -0.3806
  191MOL0     C26252  12.235   0.181   3.888 -1.1226 -0.4833  0.4216
  191MOL0     C26253  12.225   0.042   3.864  0.7750  0.5027  0.7693
  191MOL0     C26254  12.331  -0.034   3.827 -0.2737 -0.1165 -0.2521
  191MOL0     C26255  12.461   0.028   3.822  0.7027  0.4574 -0.6326
  191MOL0     O26256  12.580  -0.025   3.783  0.0843  0.2698 -0.4899
  191MOL0     C26257  12.577  -0.157   3.733 -0.1825 -0.6029 -0.6144
  191MOL0     C26258  12.715  -0.204   3.715  0.7304  0.4512  0.7579
  191MOL0     C26259  12.726  -0.352   3.677  0.0844  0.1797 -0.7585
  191MOL0     C26260  12.866  -0.408   3.628  0.4197 -0.3446 -0.3761
  191MOL0     C26261  12.876  -0.563   3.607 -0.3334  1.1819  0.0445
  191MOL0     C26262  13.025  -0.611   3.613 -0.2573 -0.6629  0.0482
  191MOL0     C26263  13.027  -0.773   3.610 -0.5702 -0.8649 -0.4788
  191MOL0     C26264  13.057  -0.822   3.474 -0.2673  0.4278 -0.6775
  191MOL0    Cl26265  13.225  -0.784   3.435 -0.1562  0.1161  0.0148
  191MOL0     C26266  12.478   0.160   3.852 -0.2766 -0.2328 -0.0897
  191MOL0     C26267  12.367   0.244   3.883 -0.9949 -0.2601  0.1964
  191MOL0     O26268  12.022   0.144   4.055 -0.3762  0.0611 -0.1181
  191MOL0     C26269  11.771   0.253   3.971 -0.4999 -0.4620 -0.5293
  191MOL0     C26270  11.646   0.311   3.949  0.4239  1.1327  1.0643
  191MOL0     N26271  11.025   0.785   3.857 -0.9070 -0.9719 -0.0420
  191MOL0     N26272  10.941   0.874   3.908 -0.6751 -0.1352  0.4197
  191MOL0     C26273   9.986   1.410   4.459  0.3103 -0.1844  0.3085
  191MOL0     C26274   9.882   1.493   4.511  0.9688 -0.3964 -0.0437
  191MOL0     C26275   9.652   1.735   4.792  0.3665 -0.4171 -0.2816
  191MOL0     C26276   9.570   1.802   4.699 -0.1440 -0.4137  0.3436
  191MOL0     C26277   9.435   1.853   4.728 -0.8970 -0.2974  0.9762
  191MOL0     C26278   9.387   1.827   4.860 -0.3175 -0.5100  0.5629
  191MOL0     O26279   9.252   1.838   4.886  0.4271 -0.2417 -0.0887
  191MOL0     C26280   9.180   1.950   4.831 -0.0814  0.2852  0.3714
  191MOL0     C26281   9.043   1.957   4.889 -0.2509 -0.8830  0.7332
  191MOL0     C26282   8.980   2.096   4.851 -0.1650  0.1724 -0.0435
  191MOL0     C26283   8.891   2.090   4.727 -0.7465  0.1882  0.2592
  191MOL0     C26284   8.971   2.068   4.610  0.2095  0.4426 -0.0850
  191MOL0     C26285   9.006   2.062   4.494  0.3616 -1.0908 -0.2741
  191MOL0     C26286   9.465   1.747   4.948 -0.3708 -0.1290 -0.2317
  191MOL0     C26287   9.590   1.707   4.918  0.3582  0.4097 -0.4881
  191MOL0     C26288   9.657   1.624   5.032  0.4274 -0.0765  0.2003
  191MOL0     H26289  10.056   1.763   4.619 -0.6157  0.4059 -0.4452
  191MOL0     H26290  10.241   1.619   4.535 -1.2130  1.8816  2.5353
  191MOL0     H26291  10.171   1.454   4.250 -0.1226  1.6631  1.7190
  191MOL0     H26292  10.152   1.279   4.266  1.3484 -0.3932  0.4843
  191MOL0     H26293  10.417   1.415   4.246 -1.2781  1.5169  0.1358
  191MOL0     H26294  10.386   1.245   4.234  1.4697  1.6573 -0.3418
  191MOL0     H26295  10.258   1.265   4.028  2.5265 -0.9118  1.6115
  191MOL0     H26296  10.271   1.441   4.031  0.5823  1.7854  0.9289
  191MOL0     H26297  10.440   1.381   3.895 -0.6050 -0.0775  0.3616
  191MOL0     H26298  10.529   1.419   4.038  0.3988  0.0551 -0.5581
  191MOL0     H26299  10.466   1.150   3.910  1.2780 -1.9257  0.1055
  191MOL0     H26300  10.543   1.144   4.074 -1.3271 -0.7065 -1.0143
  191MOL0     H26301  10.651   1.248   3.803 -0.7997 -2.2049 -0.2675
  191MOL0     H26302  10.722   1.293   3.966 -0.2954  0.6103  0.3117
  191MOL0     H26303  10.688   1.020   3.844 -1.7619 -0.4645  1.4315
  191MOL0     H26304  10.754   1.047   4.001 -0.3400  2.8509  0.8818
  191MOL0     H26305  10.883   1.174   3.761  0.0655 -2.3146 -1.1745
  191MOL0     H26306  10.938   1.177   3.924 -0.4147  4.1513 -2.1536
  191MOL0     H26307  11.020   1.017   3.624  0.6844  0.8798 -0.1295
  191MOL0     H26308  11.207   0.871   3.565  0.8200  0.4697  1.0196
  191MOL0     H26309  11.160   0.699   3.598 -0.8640  0.0413  0.2242
  191MOL0     H26310  11.413   0.800   3.652 -0.4313  1.1810 -1.1353
  191MOL0     H26311  11.327   0.852   3.796 -2.0749  1.8076 -2.2421
  191MOL0     H26312  11.285   0.616   3.862  1.4207  1.0193  0.9015
  191MOL0     H26313  11.330   0.565   3.694  0.0172  1.0512 -1.4754
  191MOL0     H26314  11.575   0.609   3.744  1.2347 -2.1530  1.3585
  191MOL0     H26315  11.522   0.693   3.898  1.8945 -1.0041  0.4682
  191MOL0     H26316  11.743   0.617   3.880  0.5584 -0.7160 -1.5271
  191MOL0     H26317  11.996   0.643   3.894  1.2542  0.3473 -0.7145
  191MOL0     H26318  12.067   0.497   3.822 -0.1121 -2.6842  0.8337
  191MOL0     H26319  12.070   0.511   3.999 -0.2695 -0.5569 -0.1763
  191MOL0     H26320  12.124   0.000   3.871  0.0131  2.3019  1.0718
  191MOL0     H26321  12.311  -0.139   3.808 -2.5808  0.5676 -2.0075
  191MOL0     H26322  12.522  -0.224   3.800 -1.8734  0.6383 -0.6710
  191MOL0     H26323  12.533  -0.151   3.633 -0.5457  2.5987 -0.3716
  191MOL0     H26324  12.771  -0.142   3.644  1.4347  1.9240  2.5263
  191MOL0     H26325  12.765  -0.198   3.812 -1.5271 -3.3343  2.3873
  191MOL0     H26326  12.649  -0.382   3.606 -0.9278  1.9427 -0.4543
  191MOL0     H26327  12.707  -0.396   3.775  4.5960 -0.1957  0.1711
  191MOL0     H26328  12.944  -0.368   3.693  0.7381  1.3315 -1.7025
  191MOL0     H26329  12.894  -0.356   3.535 -0.6468  1.3070  0.1763
  191MOL0     H26330  12.815  -0.622   3.675 -0.4954 -0.2257 -1.2545
  191MOL0     H26331  12.835  -0.596   3.511  0.2913 -0.2175  0.2226
  191MOL0     H26332  13.067  -0.576   3.708  1.9589 -3.0225  0.0681
  191MOL0     H26333  13.088  -0.558   3.541  0.1353 -0.1618  0.7497
  191MOL0     H26334  12.932  -0.816   3.643 -0.4505 -0.7826 -0.0088
  191MOL0     H26335  13.106  -0.808   3.678  0.7192 -1.8819 -2.3949
  191MOL0     H26336  12.986  -0.778   3.403 -0.2673  1.4030 -0.0937
  191MOL0     H26337  13.041  -0.930   3.470 -1.8609  0.6501 -0.8849
  191MOL0     H26338  12.581   0.193   3.841  0.9079 -2.1656  3.6427
  191MOL0     H26339  12.372   0.351   3.899  0.8345  0.0788 -2.1274
  191MOL0     H26340  11.750   0.151   4.002  0.0384 -0.5312 -0.3810
  191MOL0     H26341  11.558   0.248   3.936 -0.4167  2.7490 -1.8717
  191MOL0     H26342   9.955   1.319   4.409 -1.2230  0.1094  0.6779
  191MOL0     H26343   9.781   1.466   4.484  1.2433  0.6618 -2.4545
  191MOL0     H26344   9.604   1.832   4.600 -0.1639  2.2854  1.0759
  191MOL0     H26345   9.380   1.915   4.658 -0.3013 -0.1698  0.6030
  191MOL0     H26346   9.236   2.043   4.838 -0.3192  0.6201 -1.6627
  191MOL0     H26347   9.185   1.933   4.723  0.2610 -2.3770  0.7172
  191MOL0     H26348   9.053   1.953   4.998  0.1362  0.1841  0.7545
  191MOL0     H26349   8.978   1.875   4.860 -3.3617  2.2241 -2.0436
  191MOL0     H26350   8.921   2.130   4.936  0.3987 -1.5083  1.0551
  191MOL0     H26351   9.048   2.181   4.839  0.2439  0.0424  1.2233
  191MOL0     H26352   8.843   2.188   4.733 -3.9298 -1.3045  3.6143
  191MOL0     H26353   8.814   2.015   4.745  2.7562 -3.3245  2.2798
  191MOL0     H26354   9.017   2.062   4.387 -2.8305 -1.5859 -0.7102
  191MOL0     H26355   9.417   1.720   5.042  0.3270 -3.6072 -0.7698
  191MOL0     H26356   9.677   1.524   4.990  2.8137 -1.0914  3.3109
  191MOL0     H26357   9.752   1.666   5.066 -0.2521  0.0118  2.1085
  191MOL0     H26358   9.598   1.604   5.121  1.3348 -0.5293  0.7129
  192MOL0     O26359   9.617   5.053   2.081  0.1370  0.4185  0.8012
  192MOL0     C26360   9.534   4.973   2.127  0.1658 -0.8503 -0.1436
  192MOL0     O26361   9.546   4.905   2.239  0.0130 -0.6264  0.1283
  192MOL0     C26362   9.632   4.935   2.343 -0.3000 -0.2518 -0.3008
  192MOL0     C26363   9.640   5.063   2.403  1.0592 -0.4661  0.1889
  192MOL0     C26364   9.712   5.079   2.522 -0.3354  0.5612 -0.5498
  192MOL0     C26365   9.777   4.974   2.590 -0.1560  0.2637  0.1603
  192MOL0     O26366   9.846   5.003   2.703 -0.2513 -0.5353  0.0154
  192MOL0     C26367   9.858   4.891   2.790  0.1980  0.0382  1.2906
  192MOL0     C26368   9.912   4.939   2.924  0.4052 -0.0694  1.1134
  192MOL0     C26369  10.061   4.969   2.919 -0.4376 -0.5141  0.5919
  192MOL0     C26370  10.134   4.969   3.057 -0.0244  0.2612  0.7744
  192MOL0     C26371  10.283   5.009   3.049  0.7052 -0.1142 -0.0036
  192MOL0     C26372  10.339   5.030   3.189  0.1218  0.3578 -1.8489
  192MOL0     C26373  10.461   5.113   3.212  0.1236  1.1381  0.5476
  192MOL0     C26374  10.581   5.022   3.167 -0.3466  0.0369  0.2428
  192MOL0     N26375  10.602   5.020   3.021  0.2120  0.1443  0.3247
  192MOL0     C26376  10.556   5.110   2.923 -0.3827 -0.1532  0.6205
  192MOL0     C26377  10.580   5.054   2.805 -0.7902 -0.3590  0.4448
  192MOL0     C26378  10.514   5.109   2.677  0.0575  0.3325 -1.2632
  192MOL0     C26379  10.605   5.193   2.592 -0.4157 -1.2156 -0.1653
  192MOL0     C26380  10.697   5.110   2.512 -0.4603 -0.3249  0.0612
  192MOL0     C26381  10.631   5.006   2.419  0.4000  0.7604  1.2602
  192MOL0     O26382  10.729   4.955   2.326 -0.4126 -0.6747  0.1098
  192MOL0     C26383  10.731   4.985   2.191  0.0878  0.3597 -0.3304
  192MOL0     C26384  10.689   5.101   2.131 -0.9059  0.2306 -0.0557
  192MOL0     C26385  10.704   5.109   1.980  0.7499  0.4798 -0.0644
  192MOL0     C26386  10.637   5.234   1.915 -0.9195 -0.7545  0.3280
  192MOL0     C26387  10.746   5.004   1.903 -0.0430 -0.6425  0.9701
  192MOL0     C26388  10.762   4.995   1.750  0.1529 -0.5723  0.4040
  192MOL0     O26389  10.707   5.097   1.687 -0.1226  0.2685 -0.4323
  192MOL0     C26390  10.647   5.068   1.569  0.2151  0.4533  0.6993
  192MOL0     C26391  10.677   5.149   1.460 -0.1701 -0.0742  0.2326
  192MOL0     C26392  10.608   5.134   1.340 -0.9937  0.7238  0.3488
  192MOL0     C26393  10.507   5.041   1.326  0.5232 -0.0659 -0.2293
  192MOL0     O26394  10.431   5.027   1.207  0.0021  0.7526  0.4951
  192MOL0     C26395  10.408   5.144   1.136  0.7403  0.6055  0.5775
  192MOL0     C26396  10.315   5.110   1.014  0.3492 -0.3360  0.6624
  192MOL0     C26397  10.227   5.234   0.978 -0.3754 -0.3354 -0.4192
  192MOL0     C26398  10.313   5.353   0.925  1.2270 -0.4148 -0.4322
  192MOL0     C26399  10.224   5.479   0.876  0.2013 -0.4162  0.5851
  192MOL0     C26400  10.091   5.510   0.955 -0.2428  0.0497 -0.2495
  192MOL0     C26401  10.020   5.625   0.887 -0.3129  0.6660 -0.2490
  192MOL0     C26402   9.951   5.585   0.755 -0.2406  0.0668 -0.2818
  192MOL0    Cl26403   9.834   5.708   0.738  0.1851 -0.0761 -0.3191
  192MOL0     C26404  10.465   4.965   1.433 -0.6229 -0.2856  0.2539
  192MOL0     C26405  10.534   4.976   1.552 -0.6810  0.1250  0.2158
  192MOL0     O26406  10.843   4.909   1.705 -0.6691  0.0891 -0.9498
  192MOL0     C26407  10.811   4.897   1.970  0.0609 -0.3713 -0.4658
  192MOL0     C26408  10.800   4.889   2.111 -0.1175 -1.0557 -0.8723
  192MOL0     N26409  10.666   4.944   2.827  0.3390 -0.7952 -0.3308
  192MOL0     N26410  10.677   4.930   2.954 -0.2551 -0.0964  0.4096
  192MOL0     C26411   9.754   4.842   2.533  0.8082 -0.7446  0.7771
  192MOL0     C26412   9.690   4.825   2.410  0.5663 -0.1798 -0.0572
  192MOL0     C26413   9.411   4.942   2.049 -0.0921  0.4885 -1.4113
  192MOL0     C26414   9.297   4.890   2.113 -0.0425  0.2195 -1.3423
  192MOL0     C26415   9.183   4.860   2.042 -0.2848 -0.2762  0.8547
  192MOL0     C26416   9.170   4.876   1.902  0.1745  0.0876  0.8544
  192MOL0     O26417   9.057   4.852   1.828  0.0340  0.1973 -0.5758
  192MOL0     C26418   9.061   4.751   1.723  0.4773  0.1400  0.1622
  192MOL0     C26419   8.928   4.697   1.707  0.2511  0.4979  0.0566
  192MOL0     C26420   8.951   4.554   1.645 -0.6705 -0.7928 -0.2246
  192MOL0     C26421   8.824   4.491   1.605 -0.4967  0.0546 -0.4430
  192MOL0     C26422   8.739   4.473   1.723 -0.0428 -0.5215 -0.1990
  192MOL0     C26423   8.673   4.462   1.829  0.5091 -0.7339  0.2440
  192MOL0     C26424   9.284   4.925   1.839  0.1357  0.1414  0.3945
  192MOL0     C26425   9.402   4.961   1.912 -0.3186 -0.5059  1.5683
  192MOL0     C26426   9.516   5.018   1.830  0.2645 -0.3964  0.1357
  192MOL0     H26427   9.591   5.150   2.361  1.9387  1.1923  2.4442
  192MOL0     H26428   9.719   5.184   2.545  0.4286  0.1977  1.0410
  192MOL0     H26429   9.918   4.813   2.742  1.5164  2.4444 -1.2602
  192MOL0     H26430   9.756   4.856   2.802 -0.8914  1.9406 -1.5385
  192MOL0     H26431   9.872   5.035   2.959  3.0318  1.3593  0.4554
  192MOL0     H26432   9.886   4.857   2.992  2.0780  2.1530  4.7126
  192MOL0     H26433  10.099   4.898   2.845 -3.0715 -1.4597  0.0465
  192MOL0     H26434  10.078   5.072   2.884  0.6171 -1.4669 -1.9394
  192MOL0     H26435  10.071   5.036   3.116  0.3014  4.2620 -2.9486
  192MOL0     H26436  10.122   4.867   3.096 -0.7491 -0.1030 -0.3208
  192MOL0     H26437  10.298   5.106   3.000  0.2554  0.5974  1.2337
  192MOL0     H26438  10.336   4.930   2.994 -1.9400 -3.6971  2.1273
  192MOL0     H26439  10.257   5.084   3.236  0.2538  0.9220 -2.2493
  192MOL0     H26440  10.363   4.933   3.233 -0.6092  0.1838 -1.8346
  192MOL0     H26441  10.473   5.148   3.315 -0.9257 -2.4347  2.0363
  192MOL0     H26442  10.466   5.195   3.141 -0.7943 -1.7447 -3.1863
  192MOL0     H26443  10.675   5.062   3.206  0.6857 -1.2270 -0.8738
  192MOL0     H26444  10.570   4.922   3.209 -2.2139  0.5619  1.1317
  192MOL0     H26445  10.501   5.204   2.928 -2.1508 -1.0074 -1.1207
  192MOL0     H26446  10.424   5.168   2.697 -0.6818 -0.9503 -0.6504
  192MOL0     H26447  10.487   5.020   2.619 -0.6663  1.0790 -2.1113
  192MOL0     H26448  10.545   5.255   2.524  0.6054  0.9273  0.7692
  192MOL0     H26449  10.657   5.262   2.659  1.8701 -2.9275 -0.0424
  192MOL0     H26450  10.754   5.180   2.451  1.2944  2.2755  4.1898
  192MOL0     H26451  10.760   5.052   2.581 -1.8866  0.2230  1.9152
  192MOL0     H26452  10.590   4.917   2.469 -3.3240  0.1620 -2.2576
  192MOL0     H26453  10.544   5.057   2.376  0.1370  0.1372  1.0464
  192MOL0     H26454  10.649   5.181   2.192 -3.4680  0.2894 -1.6736
  192MOL0     H26455  10.557   5.206   1.846 -1.1795 -0.5141  0.5298
  192MOL0     H26456  10.710   5.302   1.870 -0.4595  0.8243  3.2163
  192MOL0     H26457  10.580   5.297   1.983 -0.9606 -1.2024  0.7101
  192MOL0     H26458  10.756   5.224   1.460 -0.0854 -0.1608 -0.1069
  192MOL0     H26459  10.652   5.189   1.258 -1.6497 -0.0011 -0.5147
  192MOL0     H26460  10.378   5.225   1.203  2.2967  0.3242  1.6734
  192MOL0     H26461  10.499   5.192   1.097 -0.1455  2.3905  0.6078
  192MOL0     H26462  10.375   5.073   0.930  1.4286 -3.1410  2.5187
  192MOL0     H26463  10.256   5.025   1.050  1.0092 -0.7559  0.7708
  192MOL0     H26464  10.178   5.268   1.070 -0.6168  0.6885 -0.9168
  192MOL0     H26465  10.150   5.213   0.903 -0.6280 -1.2994  0.0806
  192MOL0     H26466  10.374   5.314   0.843  1.0984  0.9372 -1.2166
  192MOL0     H26467  10.386   5.382   1.002  2.8269 -4.1350 -0.3267
  192MOL0     H26468  10.296   5.560   0.858  3.7694 -3.0221  1.9325
  192MOL0     H26469  10.193   5.444   0.777  0.6450  0.7165  0.0264
  192MOL0     H26470  10.115   5.536   1.059 -1.2777 -0.3379  0.1010
  192MOL0     H26471  10.033   5.417   0.960  1.5013 -1.0287  1.9373
  192MOL0     H26472  10.100   5.695   0.862  2.0432 -2.1861 -1.2394
  192MOL0     H26473   9.946   5.668   0.955  2.2419  1.2603  2.3883
  192MOL0     H26474   9.898   5.492   0.775  0.8523 -1.3926 -3.5634
  192MOL0     H26475  10.009   5.574   0.664 -0.4272  3.0036 -0.8785
  192MOL0     H26476  10.383   4.894   1.425 -1.2139 -0.0557  3.2470
  192MOL0     H26477  10.512   4.907   1.633  0.4127 -2.0606 -1.2515
  192MOL0     H26478  10.862   4.812   1.925  4.7681  0.6241  2.3013
  192MOL0     H26479  10.845   4.812   2.173  2.5198  2.4576  1.9943
  192MOL0     H26480   9.780   4.758   2.596 -0.2827 -1.6328  0.0705
  192MOL0     H26481   9.686   4.723   2.374  0.4502  0.6908 -2.6692
  192MOL0     H26482   9.304   4.866   2.218 -0.7911 -2.0253 -1.7453
  192MOL0     H26483   9.101   4.823   2.102 -3.6231 -0.8869 -3.5320
  192MOL0     H26484   9.090   4.799   1.629 -0.2566  0.2677 -0.0129
  192MOL0     H26485   9.138   4.676   1.741 -0.9603 -1.0365  1.7130
  192MOL0     H26486   8.877   4.762   1.636  0.5685  1.1912  0.4508
  192MOL0     H26487   8.875   4.697   1.803  2.5708  0.4102  1.4202
  192MOL0     H26488   9.022   4.562   1.562  1.4309 -0.6412  1.4892
  192MOL0     H26489   8.998   4.482   1.713 -0.7058 -1.2758 -0.7063
  192MOL0     H26490   8.849   4.393   1.563 -1.8561 -0.8358  0.7049
  192MOL0     H26491   8.765   4.545   1.530 -0.0682 -0.5128 -1.1973
  192MOL0     H26492   8.619   4.454   1.921 -0.1463  0.0395 -0.0504
  192MOL0     H26493   9.284   4.936   1.731  0.6841  0.6221  0.4416
  192MOL0     H26494   9.537   5.122   1.857  0.3444 -0.3960  0.0708
  192MOL0     H26495   9.608   4.960   1.841 -0.3732 -1.9133 -1.8526
  192MOL0     H26496   9.482   5.016   1.726 -2.2440  2.0049  0.7765
  193MOL0     O26497   8.953   5.109   0.272  0.1699  0.7319 -0.2746
  193MOL0     C26498   8.932   4.991   0.245 -0.2222  0.5889  0.7384
  193MOL0     O26499   9.013   4.904   0.170  0.0643 -0.3891  0.2955
  193MOL0     C26500   9.105   4.945   0.080  1.3591 -0.9843  0.9504
  193MOL0     C26501   9.133   5.077   0.051 -0.0669 -0.7448 -0.6587
  193MOL0     C26502   9.240   5.115  -0.025 -0.2136 -0.6062 -0.0646
  193MOL0     C26503   9.323   5.023  -0.089  1.1243  0.1609  0.0044
  193MOL0     O26504   9.429   5.072  -0.168 -1.0072 -0.6255 -0.0484
  193MOL0     C26505   9.561   5.018  -0.142  0.1042 -0.0283  0.6052
  193MOL0     C26506   9.661   5.080  -0.242 -0.9186  0.1358  0.5472
  193MOL0     C26507   9.786   4.996  -0.262 -0.1090 -0.8394  0.2383
  193MOL0     C26508   9.900   5.071  -0.330 -0.8691  0.3109  1.1120
  193MOL0     C26509   9.881   5.063  -0.482  0.7557 -0.4662 -0.4373
  193MOL0     C26510   9.967   5.165  -0.555  0.5985 -0.5346  0.7305
  193MOL0     C26511  10.111   5.142  -0.520 -0.1013  0.1446  0.2940
  193MOL0     C26512  10.208   5.235  -0.587 -0.2225  0.3814  0.5822
  193MOL0     N26513  10.349   5.197  -0.565  0.2804 -0.4203 -0.5554
  193MOL0     C26514  10.404   5.077  -0.601 -0.2840  0.2764 -0.4294
  193MOL0     C26515  10.544   5.093  -0.571  0.0246  0.5938 -0.1194
  193MOL0     C26516  10.645   4.980  -0.598 -0.6938 -0.7365 -0.0802
  193MOL0     C26517  10.646   4.886  -0.475  0.7303  0.2978  0.4668
  193MOL0     C26518  10.732   4.769  -0.498 -0.6576  0.8383 -0.1689
  193MOL0     C26519  10.883   4.800  -0.467 -0.2249  0.2881  0.1521
  193MOL0     O26520  10.946   4.673  -0.501 -0.2915  0.5880 -0.0538
  193MOL0     C26521  11.037   4.668  -0.604 -0.0087  0.8920 -0.5155
  193MOL0     C26522  11.125   4.562  -0.599  0.1077  0.3953 -0.7522
  193MOL0     C26523  11.208   4.527  -0.714  1.1254 -0.0104  0.5056
  193MOL0     C26524  11.293   4.406  -0.699 -1.3563  1.1466  0.2541
  193MOL0     C26525  11.212   4.615  -0.826 -0.8914  0.8031 -0.1169
  193MOL0     C26526  11.304   4.596  -0.947 -0.2570 -0.2638  0.1487
  193MOL0     O26527  11.424   4.541  -0.918 -0.8639 -0.1868  0.3938
  193MOL0     C26528  11.503   4.512  -1.026 -0.3343  0.8071  0.9539
  193MOL0     C26529  11.641   4.524  -1.012 -0.4051 -0.2894 -0.0195
  193MOL0     C26530  11.726   4.503  -1.117  0.2652  0.1128 -0.3512
  193MOL0     C26531  11.673   4.472  -1.248 -0.1051  1.2444 -0.0440
  193MOL0     O26532  11.745   4.479  -1.359  0.7567 -0.4210 -0.1788
  193MOL0     C26533  11.864   4.400  -1.365 -0.5499  0.1980 -0.4654
  193MOL0     C26534  11.935   4.427  -1.499 -0.1053 -0.1636  0.6501
  193MOL0     C26535  12.089   4.376  -1.501  0.8201 -0.1031 -0.9477
  193MOL0     C26536  12.151   4.413  -1.640 -0.7746 -0.1640 -0.4512
  193MOL0     C26537  12.310   4.411  -1.621 -0.0937 -0.5146  0.5914
  193MOL0     C26538  12.377   4.422  -1.746 -0.5938 -0.2137  0.5161
  193MOL0     C26539  12.520   4.423  -1.708 -0.3296  0.8345 -0.4068
  193MOL0     C26540  12.613   4.449  -1.830  0.0255  0.9424  0.4479
  193MOL0    Cl26541  12.769   4.527  -1.771  0.3241 -0.2300  0.1477
  193MOL0     C26542  11.543   4.443  -1.261  0.4369  0.7661 -0.9924
  193MOL0     C26543  11.458   4.470  -1.155  0.0462 -0.5867  0.2923
  193MOL0     O26544  11.278   4.651  -1.057  0.6232 -0.6760 -0.4804
  193MOL0     C26545  11.121   4.719  -0.828 -0.2329  0.0513  0.3707
  193MOL0     C26546  11.032   4.747  -0.719  0.0351 -0.6233  0.1165
  193MOL0     N26547  10.553   5.216  -0.510 -0.4668  0.0208  0.0336
  193MOL0     N26548  10.441   5.277  -0.502 -0.3391  0.6362  0.9924
  193MOL0     C26549   9.295   4.884  -0.067 -0.7833 -1.0253  0.6127
  193MOL0     C26550   9.189   4.852   0.024  0.3041 -0.2320 -0.3423
  193MOL0     C26551   8.806   4.932   0.308 -0.0803 -0.5869 -0.0188
  193MOL0     C26552   8.728   5.016   0.401  0.0468 -0.1225  0.7896
  193MOL0     C26553   8.614   4.965   0.466  0.3543 -0.4412 -0.5155
  193MOL0     C26554   8.587   4.826   0.449 -0.2492  0.4085 -0.6846
  193MOL0     O26555   8.464   4.773   0.485 -0.0054 -0.0096  0.1665
  193MOL0     C26556   8.384   4.830   0.584 -0.1111 -0.3492 -0.5009
  193MOL0     C26557   8.285   4.721   0.634  0.8547  0.0230 -0.3619
  193MOL0     C26558   8.180   4.783   0.724  0.4058  0.1137 -0.2910
  193MOL0     C26559   8.067   4.679   0.748 -0.8072  0.2484  0.4893
  193MOL0     C26560   7.991   4.692   0.872  0.5412 -0.4754 -1.0698
  193MOL0     C26561   7.926   4.708   0.974 -0.1612 -0.1249 -1.0174
  193MOL0     C26562   8.662   4.753   0.362 -0.8150 -0.3215 -0.2704
  193MOL0     C26563   8.763   4.800   0.284 -0.0238 -0.7429 -0.5819
  193MOL0     C26564   8.833   4.708   0.198 -0.6983  0.5519 -0.0719
  193MOL0     H26565   9.066   5.154   0.089 -0.8995 -1.0278 -1.5114
  193MOL0     H26566   9.258   5.222  -0.026  0.5266 -0.6469  2.7112
  193MOL0     H26567   9.557   4.911  -0.165 -0.4483  0.0147  0.4852
  193MOL0     H26568   9.587   5.022  -0.036  0.0729 -4.3027  0.9353
  193MOL0     H26569   9.612   5.080  -0.340 -2.0836  0.6177  1.1169
  193MOL0     H26570   9.684   5.182  -0.210 -3.4892  0.6301  1.0248
  193MOL0     H26571   9.819   4.973  -0.160  0.9397 -1.7959 -0.2974
  193MOL0     H26572   9.761   4.906  -0.319  0.5084 -0.7028 -0.2605
  193MOL0     H26573   9.904   5.178  -0.308  0.6594  0.4840  0.1924
  193MOL0     H26574   9.996   5.031  -0.294 -0.3521  2.5675  2.4458
  193MOL0     H26575   9.777   5.088  -0.508  0.9368  2.0460  0.8652
  193MOL0     H26576   9.904   4.961  -0.514  0.9369 -0.2402 -1.0417
  193MOL0     H26577   9.946   5.142  -0.660  1.9219  0.2218  0.2800
  193MOL0     H26578   9.934   5.267  -0.535 -1.7114 -0.7301 -1.5878
  193MOL0     H26579  10.122   5.039  -0.556 -2.7147  0.2548 -1.0773
  193MOL0     H26580  10.127   5.140  -0.412  1.3571  3.2013  0.2265
  193MOL0     H26581  10.181   5.214  -0.691 -1.6358 -1.6066  1.2798
  193MOL0     H26582  10.183   5.341  -0.573  2.1778  0.7436  2.9297
  193MOL0     H26583  10.362   4.991  -0.653  2.7335 -1.3259 -0.4160
  193MOL0     H26584  10.739   5.035  -0.609  0.0579 -1.8221  0.7136
  193MOL0     H26585  10.615   4.926  -0.688 -2.3806  0.4651 -0.2980
  193MOL0     H26586  10.683   4.930  -0.381 -1.0857 -0.3714  1.5443
  193MOL0     H26587  10.542   4.853  -0.465 -0.1497  3.0834  1.2483
  193MOL0     H26588  10.709   4.681  -0.437  1.7649  0.1543 -0.1386
  193MOL0     H26589  10.721   4.727  -0.598 -1.5517  0.6868 -0.0115
  193MOL0     H26590  10.911   4.885  -0.531 -1.3652  1.4368  1.1237
  193MOL0     H26591  10.888   4.822  -0.360  1.7166 -1.4794  0.5003
  193MOL0     H26592  11.131   4.496  -0.513  2.5138 -3.0850 -3.3190
  193MOL0     H26593  11.400   4.431  -0.696 -0.4444 -2.0817 -0.7155
  193MOL0     H26594  11.264   4.331  -0.774  0.2226  0.8224 -0.0770
  193MOL0     H26595  11.273   4.365  -0.600 -2.8098  0.7986 -0.1696
  193MOL0     H26596  11.678   4.562  -0.918  0.4110 -0.7332 -0.1535
  193MOL0     H26597  11.832   4.511  -1.099  0.3187  2.2248 -1.2643
  193MOL0     H26598  11.926   4.447  -1.288  1.1135 -1.3095 -0.8266
  193MOL0     H26599  11.838   4.294  -1.357  0.1138  0.1681  3.8400
  193MOL0     H26600  11.875   4.390  -1.582  0.0123 -0.5931  0.7510
  193MOL0     H26601  11.934   4.535  -1.517  1.9628 -0.1578  0.2504
  193MOL0     H26602  12.089   4.268  -1.482  0.6790  0.2809  1.5544
  193MOL0     H26603  12.152   4.418  -1.422  0.5914 -2.0647  0.3539
  193MOL0     H26604  12.126   4.514  -1.673  1.3161  0.2838 -0.8179
  193MOL0     H26605  12.121   4.338  -1.714  0.1180 -1.2269  0.2253
  193MOL0     H26606  12.336   4.492  -1.552  2.7270  0.0462 -0.9501
  193MOL0     H26607  12.340   4.318  -1.573 -0.4440  0.2101  2.2751
  193MOL0     H26608  12.344   4.508  -1.806  1.5539  1.3092  1.4012
  193MOL0     H26609  12.355   4.335  -1.809 -2.2661  1.3111 -1.0991
  193MOL0     H26610  12.552   4.330  -1.659 -2.5950  1.3341  2.2242
  193MOL0     H26611  12.538   4.506  -1.639 -4.3433  0.5967  1.1643
  193MOL0     H26612  12.565   4.512  -1.906 -0.0912  0.9901  0.5598
  193MOL0     H26613  12.631   4.354  -1.882 -0.9250  0.4594  0.9836
  193MOL0     H26614  11.509   4.405  -1.357 -0.4475 -0.6743 -0.1388
  193MOL0     H26615  11.351   4.462  -1.171 -0.7000  1.2671  3.5127
  193MOL0     H26616  11.106   4.789  -0.910 -0.0490  1.1865  1.2941
  193MOL0     H26617  10.968   4.834  -0.725 -1.5872 -1.6715  1.5104
  193MOL0     H26618   9.348   4.806  -0.121  2.5552  0.3102  1.7368
  193MOL0     H26619   9.168   4.748   0.049  0.6166  0.1656  1.7380
  193MOL0     H26620   8.765   5.116   0.422  0.5679 -0.4203  1.3326
  193MOL0     H26621   8.551   5.026   0.530 -1.2332  0.2766 -2.6604
  193MOL0     H26622   8.443   4.875   0.664 -0.4218  1.7372 -1.3950
  193MOL0     H26623   8.319   4.904   0.537 -0.7992  1.6154  3.1915
  193MOL0     H26624   8.330   4.647   0.701 -0.0629 -2.3314 -2.2284
  193MOL0     H26625   8.235   4.672   0.551 -1.2904  0.7061  0.4509
  193MOL0     H26626   8.214   4.836   0.813 -1.3069  3.3356 -1.3901
  193MOL0     H26627   8.132   4.868   0.675 -2.0388  2.1165  4.8955
  193MOL0     H26628   8.107   4.577   0.740 -0.2719  0.3130  2.0370
  193MOL0     H26629   8.001   4.691   0.661 -0.3678 -2.4729 -0.3176
  193MOL0     H26630   7.871   4.731   1.063 -0.1917 -3.7481  0.0783
  193MOL0     H26631   8.640   4.647   0.356 -0.4585 -0.4153  0.0606
  193MOL0     H26632   8.927   4.680   0.247 -1.2220 -1.7361 -0.2684
  193MOL0     H26633   8.787   4.609   0.206 -1.6784  1.0688  0.9812
  193MOL0     H26634   8.867   4.744   0.101  1.2639 -2.0818 -0.4847
  194MOL0     O26635   3.727   8.003   5.827  0.8946 -0.9368  0.0943
  194MOL0     C26636   3.625   8.007   5.757 -1.3888  0.2588  0.3741
  194MOL0     O26637   3.564   8.115   5.702 -0.2830  0.1418 -1.1986
  194MOL0     C26638   3.600   8.241   5.758 -1.0008  0.6015 -0.3484
  194MOL0     C26639   3.516   8.288   5.855  0.2536 -0.3441  0.0784
  194MOL0     C26640   3.553   8.402   5.931  0.3647 -0.7331  0.0227
  194MOL0     C26641   3.666   8.478   5.895  0.2102 -0.6016 -0.0046
  194MOL0     O26642   3.706   8.605   5.952  0.6550 -0.6632  0.0677
  194MOL0     C26643   3.660   8.658   6.075 -0.1915 -1.1819 -0.3469
  194MOL0     C26644   3.749   8.780   6.121  1.4453 -1.0918 -0.2650
  194MOL0     C26645   3.713   8.854   6.251 -0.8627 -0.1061 -0.3118
  194MOL0     C26646   3.759   8.773   6.376  0.4410 -1.0432 -0.0737
  194MOL0     C26647   3.739   8.862   6.505  0.1678 -0.0490  0.6938
  194MOL0     C26648   3.829   8.984   6.505  0.4204 -0.2190  0.4638
  194MOL0     C26649   3.971   8.966   6.456  0.6132  0.2484  0.6328
  194MOL0     C26650   4.045   9.095   6.478  0.6459  0.3865  1.0015
  194MOL0     N26651   4.182   9.091   6.428 -0.1432  0.1194 -0.7213
  194MOL0     C26652   4.213   9.145   6.298 -0.7702  0.1258 -1.7413
  194MOL0     C26653   4.342   9.113   6.278 -0.4491 -0.1968  0.0126
  194MOL0     C26654   4.448   9.137   6.167  0.1327  0.4884 -0.0600
  194MOL0     C26655   4.570   9.210   6.213 -0.3230 -0.0705 -0.1365
  194MOL0     C26656   4.703   9.170   6.149  0.2097 -0.1287  0.7041
  194MOL0     C26657   4.716   9.205   5.999 -0.6054 -0.5060  0.8458
  194MOL0     O26658   4.608   9.151   5.920 -0.1164 -0.1488 -0.2967
  194MOL0     C26659   4.614   9.031   5.861  0.2325 -0.2842  1.0602
  194MOL0     C26660   4.736   8.967   5.828  0.2182  0.0801  0.1994
  194MOL0     C26661   4.738   8.841   5.774  0.1924 -0.3120  0.1429
  194MOL0     C26662   4.873   8.776   5.757 -0.9144 -0.1843  0.3530
  194MOL0     C26663   4.613   8.781   5.739  0.4723  0.2382  0.4213
  194MOL0     C26664   4.589   8.642   5.677 -0.4057 -1.1679 -0.1758
  194MOL0     O26665   4.467   8.601   5.647  0.8992  0.5015  0.0289
  194MOL0     C26666   4.422   8.473   5.675 -0.6601  0.0003  0.0555
  194MOL0     C26667   4.499   8.358   5.720  0.6420  0.6705 -0.3990
  194MOL0     C26668   4.443   8.235   5.753  0.1274  0.7054  0.0532
  194MOL0     C26669   4.301   8.226   5.757 -0.3393  0.6125  0.1799
  194MOL0     O26670   4.250   8.097   5.779 -0.5667 -0.1943 -1.0651
  194MOL0     C26671   4.122   8.094   5.847 -0.2223  0.7767 -1.4593
  194MOL0     C26672   4.083   7.960   5.907 -1.1236 -0.1597 -0.2476
  194MOL0     C26673   4.131   7.950   6.054 -0.4503  0.7088  0.2790
  194MOL0     C26674   4.032   7.987   6.162 -0.1369  0.2042 -0.1293
  194MOL0     C26675   4.101   7.970   6.296  0.4471 -0.1392  0.5553
  194MOL0     C26676   4.005   8.017   6.406 -0.1841 -0.9605 -0.0116
  194MOL0     C26677   4.066   7.957   6.533 -0.0505  0.1390  0.0920
  194MOL0     C26678   4.022   8.045   6.654  0.4269  0.2053 -0.5119
  194MOL0    Cl26679   4.093   7.982   6.806  0.1399 -0.1379  0.1039
  194MOL0     C26680   4.222   8.332   5.718  0.0306 -0.0876  1.1645
  194MOL0     C26681   4.288   8.450   5.673  0.0636 -0.2988 -0.1352
  194MOL0     O26682   4.692   8.588   5.635  0.1361 -0.2822  0.5282
  194MOL0     C26683   4.492   8.848   5.764 -0.2297  0.0160 -0.0620
  194MOL0     C26684   4.495   8.974   5.819  0.7845  0.6121 -0.2808
  194MOL0     N26685   4.388   9.037   6.389 -0.2606  0.4335 -0.9024
  194MOL0     N26686   4.293   9.024   6.481 -0.2215 -1.1383  0.3337
  194MOL0     C26687   3.742   8.437   5.791  0.3865  1.3104  0.3949
  194MOL0     C26688   3.715   8.308   5.731 -0.3787 -0.4647 -0.2727
  194MOL0     C26689   3.559   7.872   5.722  0.4971 -0.1165 -0.8218
  194MOL0     C26690   3.435   7.881   5.657  0.1141  0.5030  0.9344
  194MOL0     C26691   3.368   7.770   5.611  0.0655  0.4967 -0.3578
  194MOL0     C26692   3.418   7.642   5.639  1.0236  0.4315 -0.1645
  194MOL0     O26693   3.339   7.540   5.587 -0.0024 -0.2160 -0.2605
  194MOL0     C26694   3.365   7.411   5.636  1.0110 -0.1644 -0.4604
  194MOL0     C26695   3.237   7.328   5.604 -0.3147 -0.1467  0.1190
  194MOL0     C26696   3.122   7.385   5.681 -0.0923 -0.4772 -0.4941
  194MOL0     C26697   2.991   7.308   5.657  1.2767  0.4114 -0.6329
  194MOL0     C26698   2.895   7.375   5.745  0.5384  0.1363 -0.6468
  194MOL0     C26699   2.808   7.419   5.830 -0.2708 -0.2548  1.5824
  194MOL0     C26700   3.539   7.629   5.701 -0.3193  0.5628  0.4285
  194MOL0     C26701   3.617   7.743   5.742 -0.4396 -0.0555  0.2947
  194MOL0     C26702   3.747   7.721   5.810 -0.5199  1.0442 -0.1869
  194MOL0     H26703   3.425   8.237   5.886  1.3652 -2.5612 -0.1222
  194MOL0     H26704   3.499   8.421   6.023  0.3388  0.1632 -0.1647
  194MOL0     H26705   3.645   8.579   6.149 -1.2754 -0.5282  0.1537
  194MOL0     H26706   3.561   8.698   6.050  1.0810  0.9694 -2.3365
  194MOL0     H26707   3.854   8.750   6.124  1.0637 -2.6235 -1.1430
  194MOL0     H26708   3.741   8.857   6.044 -1.3111  0.5114  1.4557
  194MOL0     H26709   3.760   8.952   6.255  2.3987 -1.5871  0.5159
  194MOL0     H26710   3.609   8.887   6.253  0.3169  4.1750  0.9458
  194MOL0     H26711   3.703   8.680   6.367  2.5724 -2.2549 -2.0323
  194MOL0     H26712   3.862   8.736   6.370  1.1482  0.6165  1.0059
  194MOL0     H26713   3.762   8.802   6.594 -1.5211  0.9112  1.8358
  194MOL0     H26714   3.635   8.892   6.517  0.5465  1.8965 -0.4598
  194MOL0     H26715   3.784   9.063   6.443 -2.6859 -1.3549  1.1035
  194MOL0     H26716   3.814   9.013   6.609 -1.8881 -0.0078  0.1135
  194MOL0     H26717   3.977   8.942   6.350  0.9281  0.2527  0.6499
  194MOL0     H26718   4.011   8.885   6.518 -1.3620 -2.0731 -0.9610
  194MOL0     H26719   4.002   9.182   6.428  3.3877  0.5870 -1.2431
  194MOL0     H26720   4.059   9.119   6.583  2.9835  3.5874  0.0946
  194MOL0     H26721   4.150   9.205   6.232  1.3717  2.4562 -1.8110
  194MOL0     H26722   4.393   9.205   6.101  1.1233 -0.2041 -1.6527
  194MOL0     H26723   4.471   9.043   6.117 -0.8626 -0.2860  0.8911
  194MOL0     H26724   4.557   9.314   6.184 -0.7827  0.9734  3.3341
  194MOL0     H26725   4.582   9.208   6.322  1.9992  0.6595 -0.3243
  194MOL0     H26726   4.793   9.209   6.197 -0.8286  4.1576 -0.4061
  194MOL0     H26727   4.716   9.062   6.160 -0.7270 -0.3644 -0.3053
  194MOL0     H26728   4.710   9.312   5.978  0.2789 -0.8167 -1.1469
  194MOL0     H26729   4.812   9.167   5.965  1.2282  3.0003  1.6345
  194MOL0     H26730   4.831   9.016   5.849  0.5739 -1.2389  1.9577
  194MOL0     H26731   4.959   8.826   5.804 -0.4038 -2.3362  1.8666
  194MOL0     H26732   4.905   8.763   5.653  0.3820 -1.1004  0.8352
  194MOL0     H26733   4.869   8.670   5.782  0.7079 -0.4739 -0.4740
  194MOL0     H26734   4.607   8.347   5.729  0.4061 -1.2088  0.4394
  194MOL0     H26735   4.511   8.155   5.781 -0.6665  0.7957  2.5391
  194MOL0     H26736   4.138   8.159   5.934  0.3616 -2.2298  0.8419
  194MOL0     H26737   4.048   8.123   5.773 -0.9094 -0.7159 -1.3979
  194MOL0     H26738   3.975   7.943   5.914 -0.7423 -2.1341  1.7990
  194MOL0     H26739   4.127   7.886   5.840  2.7997  0.3555  1.4960
  194MOL0     H26740   4.226   8.004   6.058 -0.1299  0.3924 -1.7720
  194MOL0     H26741   4.167   7.846   6.058  1.1541  1.0434 -2.4714
  194MOL0     H26742   3.948   7.918   6.153 -0.2483  0.4527 -1.1180
  194MOL0     H26743   3.998   8.090   6.150 -1.8295 -0.1282  1.4149
  194MOL0     H26744   4.127   7.864   6.295 -2.2891 -0.8892  1.6188
  194MOL0     H26745   4.186   8.039   6.295 -0.4473  0.9981 -0.6233
  194MOL0     H26746   3.902   7.981   6.398 -1.4341  1.7508  2.3332
  194MOL0     H26747   4.004   8.125   6.420 -0.7864 -1.2052  2.2549
  194MOL0     H26748   4.175   7.954   6.530 -0.0685 -0.0008 -1.6035
  194MOL0     H26749   4.032   7.853   6.533  0.2200  0.0300 -1.3662
  194MOL0     H26750   3.913   8.050   6.663  0.6183  2.0758  1.9048
  194MOL0     H26751   4.056   8.146   6.631 -1.5718  1.1212  0.3063
  194MOL0     H26752   4.115   8.320   5.714  0.1333 -0.8107  0.2415
  194MOL0     H26753   4.232   8.534   5.634  1.2544 -0.2878 -1.9531
  194MOL0     H26754   4.392   8.816   5.738 -1.7236  3.9374  0.1915
  194MOL0     H26755   4.397   9.015   5.843  1.3316  1.1854  1.0621
  194MOL0     H26756   3.831   8.497   5.781  0.6096  1.5669  3.1098
  194MOL0     H26757   3.786   8.270   5.660 -0.0482  1.2406 -0.9054
  194MOL0     H26758   3.388   7.977   5.640  0.8535  0.7331  0.1571
  194MOL0     H26759   3.271   7.780   5.564 -0.7065 -3.3128  0.0401
  194MOL0     H26760   3.457   7.365   5.598  1.0032 -1.8753  1.4311
  194MOL0     H26761   3.371   7.421   5.744 -1.6801  1.7252 -0.3847
  194MOL0     H26762   3.254   7.228   5.645 -1.3270 -1.2722 -2.0322
  194MOL0     H26763   3.210   7.338   5.498  0.0687  0.1859  0.0488
  194MOL0     H26764   3.156   7.375   5.784 -1.2585 -0.1654 -0.0663
  194MOL0     H26765   3.109   7.493   5.671 -1.9003 -0.2638  2.7504
  194MOL0     H26766   3.006   7.205   5.692 -2.4303 -0.3671 -0.9393
  194MOL0     H26767   2.953   7.321   5.555  0.9287  1.6374 -0.3658
  194MOL0     H26768   2.729   7.451   5.895 -0.1482 -0.3479  1.7771
  194MOL0     H26769   3.582   7.530   5.709 -0.9663  0.3829  1.9960
  194MOL0     H26770   3.746   7.759   5.913 -3.1217  1.3675 -0.2644
  194MOL0     H26771   3.784   7.619   5.800  3.2474  2.1142  1.1955
  194MOL0     H26772   3.821   7.784   5.760 -1.1605  1.5613 -0.5011
  195MOL0     O26773   5.477   3.020   5.372 -0.2848 -0.0524  0.0399
  195MOL0     C26774   5.533   2.927   5.441 -0.1306 -1.2701 -0.3979
  195MOL0     O26775   5.663   2.912   5.457  0.4784 -0.2916  0.0254
  195MOL0     C26776   5.748   2.990   5.384 -0.9176  0.7174 -0.0470
  195MOL0     C26777   5.860   3.045   5.446  0.0049  0.1057  0.6377
  195MOL0     C26778   5.959   3.100   5.369 -0.7365  1.0473 -0.2113
  195MOL0     C26779   5.961   3.106   5.235 -0.2297 -0.7208 -0.0013
  195MOL0     O26780   6.077   3.149   5.169  0.1466 -0.5331 -0.8684
  195MOL0     C26781   6.069   3.166   5.029 -1.1536  0.1212  0.0349
  195MOL0     C26782   6.195   3.236   4.985  0.5880  0.0517 -0.9416
  195MOL0     C26783   6.174   3.278   4.837  0.6668  0.0015  0.4914
  195MOL0     C26784   6.118   3.415   4.849  0.1751 -0.2516  0.4556
  195MOL0     C26785   6.069   3.463   4.706  0.5091  0.2134 -0.6941
  195MOL0     C26786   5.917   3.460   4.703 -0.4442  0.3997  0.8910
  195MOL0     C26787   5.866   3.514   4.566 -0.8516  0.0457 -0.2716
  195MOL0     C26788   5.713   3.505   4.548 -0.3948  0.0258  0.6998
  195MOL0     N26789   5.658   3.372   4.559  0.3074 -0.2885  0.0125
  195MOL0     C26790   5.596   3.327   4.668  0.4707  0.5400 -0.9703
  195MOL0     C26791   5.604   3.185   4.659  1.2499 -0.1124 -0.6508
  195MOL0     C26792   5.536   3.076   4.746  0.2216 -1.1189  0.2335
  195MOL0     C26793   5.552   3.080   4.896  0.3685  0.1771  0.8712
  195MOL0     C26794   5.450   3.180   4.961 -0.3510 -0.3123 -1.1410
  195MOL0     C26795   5.495   3.242   5.099  1.4541  0.7760 -0.3083
  195MOL0     O26796   5.606   3.329   5.088  0.0422  0.2545 -0.4225
  195MOL0     C26797   5.688   3.352   5.191 -0.0052  0.3594  0.1086
  195MOL0     C26798   5.809   3.422   5.164  0.4608  1.1537 -1.2885
  195MOL0     C26799   5.894   3.476   5.264 -0.3185  0.2651  0.9493
  195MOL0     C26800   6.030   3.543   5.224  0.6282  0.7583  0.5194
  195MOL0     C26801   5.853   3.444   5.397  0.0987 -0.3108  0.1929
  195MOL0     C26802   5.923   3.489   5.527 -0.2036 -0.2348 -0.6705
  195MOL0     O26803   6.037   3.569   5.509 -1.6464  0.2234 -0.7390
  195MOL0     C26804   6.134   3.610   5.599  0.0801 -0.4213 -0.2021
  195MOL0     C26805   6.252   3.658   5.539 -0.6671 -0.0457 -0.5039
  195MOL0     C26806   6.358   3.712   5.620  0.6817  0.0546 -0.0805
  195MOL0     C26807   6.342   3.710   5.764  0.4832 -0.6858 -0.4219
  195MOL0     O26808   6.434   3.769   5.843 -0.4787  0.0858 -0.2476
  195MOL0     C26809   6.491   3.676   5.942 -0.3912 -0.0080 -0.2951
  195MOL0     C26810   6.643   3.668   5.949  0.0126 -0.4385  0.8566
  195MOL0     C26811   6.706   3.640   5.808 -0.4328  0.1533 -0.0509
  195MOL0     C26812   6.674   3.484   5.783 -0.1762 -0.6802  1.1161
  195MOL0     C26813   6.707   3.425   5.645 -0.5890 -0.5890  0.1722
  195MOL0     C26814   6.857   3.430   5.632  0.1661  0.3008 -0.5588
  195MOL0     C26815   6.891   3.329   5.523  0.3788 -0.6386  0.0726
  195MOL0     C26816   7.034   3.287   5.516 -0.1323 -0.0787  0.3220
  195MOL0    Cl26817   7.149   3.415   5.562  0.3755 -0.0547 -0.2016
  195MOL0     C26818   6.230   3.662   5.822  0.8648 -0.2177 -0.1878
  195MOL0     C26819   6.122   3.611   5.745  0.5539  0.7002  0.2935
  195MOL0     O26820   5.889   3.446   5.642 -0.1253  0.3057 -0.0760
  195MOL0     C26821   5.736   3.374   5.418  0.2240 -0.6147  0.3192
  195MOL0     C26822   5.659   3.318   5.325  0.3049 -0.9010 -0.0167
  195MOL0     N26823   5.647   3.152   4.530 -0.7742 -0.8811  0.6885
  195MOL0     N26824   5.693   3.265   4.472 -0.9487 -0.3315  0.1131
  195MOL0     C26825   5.852   3.040   5.171  0.1590  0.2135 -0.0861
  195MOL0     C26826   5.750   2.978   5.250  0.3770 -0.6918  0.2956
  195MOL0     C26827   5.436   2.848   5.523  0.6772 -0.2622 -0.0133
  195MOL0     C26828   5.303   2.877   5.524 -0.3479  0.2894 -1.4524
  195MOL0     C26829   5.205   2.822   5.611 -1.0796 -0.9344 -0.1651
  195MOL0     C26830   5.245   2.723   5.705 -0.8920 -0.4199  0.9295
  195MOL0     O26831   5.175   2.648   5.790  0.0326 -0.7154  0.1358
  195MOL0     C26832   5.030   2.629   5.769  0.1517  0.0722  0.1353
  195MOL0     C26833   4.992   2.548   5.651 -0.1650 -0.1599  0.0752
  195MOL0     C26834   5.052   2.411   5.665  0.4105 -0.1894 -0.0636
  195MOL0     C26835   5.017   2.348   5.530 -1.1944 -0.4745 -0.0739
  195MOL0     C26836   4.876   2.308   5.523  0.3583  0.1681  0.2082
  195MOL0     C26837   4.762   2.288   5.520 -0.3042  0.4038  0.1734
  195MOL0     C26838   5.376   2.690   5.702  0.5174  0.2780  0.2740
  195MOL0     C26839   5.476   2.738   5.610 -0.1063 -0.9294 -0.1819
  195MOL0     C26840   5.608   2.667   5.591 -0.1149  0.5241 -0.0992
  195MOL0     H26841   5.870   3.032   5.554 -0.1522 -2.1690  0.4299
  195MOL0     H26842   6.046   3.134   5.425  0.2273 -3.4863  1.5199
  195MOL0     H26843   5.974   3.215   5.005 -2.4023 -1.0910  2.2473
  195MOL0     H26844   6.068   3.069   4.980 -2.1263  1.5982 -3.1664
  195MOL0     H26845   6.221   3.318   5.052 -2.4875 -0.1278  0.6552
  195MOL0     H26846   6.285   3.175   4.998  0.2701  0.0277  1.7011
  195MOL0     H26847   6.272   3.282   4.788  0.8831 -2.6683  0.5367
  195MOL0     H26848   6.112   3.210   4.778  0.7880  0.1254  0.2184
  195MOL0     H26849   6.033   3.407   4.918  0.1159 -1.3525  0.2741
  195MOL0     H26850   6.187   3.492   4.884 -0.6577 -0.1285  1.8813
  195MOL0     H26851   6.106   3.395   4.629 -2.1531 -1.5433 -0.5665
  195MOL0     H26852   6.098   3.567   4.690  1.1508 -0.1013 -1.6893
  195MOL0     H26853   5.889   3.354   4.704 -0.3860  0.0252 -4.5704
  195MOL0     H26854   5.885   3.517   4.791 -2.5110 -1.0645  1.1580
  195MOL0     H26855   5.912   3.455   4.486 -1.0584 -1.5216  0.7279
  195MOL0     H26856   5.914   3.612   4.558  0.4850 -0.4353  1.2983
  195MOL0     H26857   5.659   3.575   4.613 -0.6148  1.0970 -0.5807
  195MOL0     H26858   5.695   3.538   4.446  2.1417  0.7510  0.4041
  195MOL0     H26859   5.544   3.382   4.745 -1.2037 -0.1137 -1.5996
  195MOL0     H26860   5.569   2.976   4.714 -0.4327 -1.0354 -0.7259
  195MOL0     H26861   5.429   3.069   4.728 -0.6383 -1.2567  4.4288
  195MOL0     H26862   5.531   2.978   4.931 -1.0978 -0.4317 -1.5864
  195MOL0     H26863   5.652   3.116   4.922  0.9508  1.8471 -2.9940
  195MOL0     H26864   5.437   3.260   4.888 -1.7692  1.7404  1.2021
  195MOL0     H26865   5.350   3.137   4.965 -1.2003  1.4349 -2.5793
  195MOL0     H26866   5.409   3.293   5.145  0.3053 -1.6619  0.4154
  195MOL0     H26867   5.525   3.162   5.167  0.4100 -0.8647 -1.7088
  195MOL0     H26868   5.836   3.454   5.064  1.2891  1.0596 -1.0968
  195MOL0     H26869   6.114   3.481   5.257 -0.2512 -0.1351  1.1244
  195MOL0     H26870   6.038   3.640   5.274  3.0304  1.5190 -1.1320
  195MOL0     H26871   6.032   3.551   5.115 -0.3308 -1.8869  0.2269
  195MOL0     H26872   6.267   3.664   5.431  2.7886  0.9031 -0.0958
  195MOL0     H26873   6.446   3.761   5.580  1.3211 -0.3250  0.8335
  195MOL0     H26874   6.451   3.712   6.037  1.7421 -0.4975  0.8472
  195MOL0     H26875   6.460   3.574   5.917 -1.7827 -0.2670  2.1459
  195MOL0     H26876   6.686   3.759   5.991 -1.8761  0.8536  0.1233
  195MOL0     H26877   6.672   3.588   6.017 -3.6978 -1.5800  1.3519
  195MOL0     H26878   6.815   3.650   5.817 -0.0534 -3.0641  0.3195
  195MOL0     H26879   6.673   3.702   5.724 -0.6998 -0.6929 -0.5924
  195MOL0     H26880   6.565   3.476   5.773  0.1512 -3.1890 -2.3574
  195MOL0     H26881   6.726   3.416   5.850  1.6567 -0.4114  0.0301
  195MOL0     H26882   6.673   3.321   5.639 -0.9974 -0.7595  3.6031
  195MOL0     H26883   6.669   3.484   5.561 -2.7670 -1.5183  0.4287
  195MOL0     H26884   6.900   3.401   5.728 -0.4952 -1.6979 -0.8211
  195MOL0     H26885   6.883   3.536   5.621  0.9776  0.5047  2.4177
  195MOL0     H26886   6.862   3.371   5.426  0.6980 -2.3703 -0.8065
  195MOL0     H26887   6.829   3.240   5.526 -3.6105  1.9117  1.6118
  195MOL0     H26888   7.049   3.265   5.410 -1.6940  2.6693 -0.5506
  195MOL0     H26889   7.051   3.204   5.585 -2.9294 -2.5755 -1.7798
  195MOL0     H26890   6.214   3.667   5.929  0.8680  0.2301 -0.2057
  195MOL0     H26891   6.030   3.577   5.791  1.3823  0.4703  1.8390
  195MOL0     H26892   5.722   3.345   5.521 -0.0652  1.0867  0.7972
  195MOL0     H26893   5.575   3.250   5.339 -0.5913  0.3907  1.1085
  195MOL0     H26894   5.861   3.043   5.063 -2.6836  1.8721 -0.3744
  195MOL0     H26895   5.667   2.938   5.193 -0.2694  2.4522 -1.2015
  195MOL0     H26896   5.264   2.956   5.460 -2.4989 -1.9477 -3.0955
  195MOL0     H26897   5.101   2.850   5.602 -0.8563 -0.4243 -1.4139
  195MOL0     H26898   4.981   2.586   5.857 -2.4244  1.5201 -0.4851
  195MOL0     H26899   4.980   2.725   5.751  1.7514  0.5350 -2.2746
  195MOL0     H26900   5.033   2.596   5.562  1.1482 -0.9167  0.2357
  195MOL0     H26901   4.883   2.541   5.646 -0.1913  0.8890 -1.8997
  195MOL0     H26902   5.161   2.421   5.672  0.3743  0.9855 -0.9513
  195MOL0     H26903   5.017   2.354   5.752 -1.2450 -1.7897 -1.6705
  195MOL0     H26904   5.085   2.262   5.520 -0.6607 -0.1429  0.6398
  195MOL0     H26905   5.033   2.420   5.449 -2.4446 -0.0675  0.0191
  195MOL0     H26906   4.658   2.260   5.514 -0.3453 -0.8850  4.0361
  195MOL0     H26907   5.397   2.607   5.768 -0.6887 -0.9709 -0.8625
  195MOL0     H26908   5.687   2.734   5.627  1.2232 -1.0150 -0.0408
  195MOL0     H26909   5.612   2.577   5.652 -0.5189  0.4733 -0.1481
  195MOL0     H26910   5.630   2.642   5.487  1.5027  0.1995  0.2969
  196MOL0     O26911   3.177   2.266   8.668  0.3463  0.1902  0.2382
  196MOL0     C26912   3.269   2.218   8.735  0.4113 -0.0059  0.4642
  196MOL0     O26913   3.300   2.081   8.739  0.0926 -0.1919 -0.1544
  196MOL0     C26914   3.214   2.008   8.660  1.1499  0.8699 -0.4723
  196MOL0     C26915   3.090   1.963   8.705  0.0467  0.3375 -0.2051
  196MOL0     C26916   3.007   1.873   8.631 -0.1786 -0.6348 -0.4499
  196MOL0     C26917   3.046   1.831   8.504  0.2533 -0.5015 -0.0807
  196MOL0     O26918   2.969   1.759   8.421  0.0897  0.0299 -0.2525
  196MOL0     C26919   2.834   1.777   8.401 -0.6033 -0.7463  0.9694
  196MOL0     C26920   2.817   1.895   8.304  0.4648 -0.4793  0.1136
  196MOL0     C26921   2.860   2.040   8.351 -0.3543 -1.0581  0.5292
  196MOL0     C26922   2.783   2.141   8.266 -0.2877 -0.0793 -0.3586
  196MOL0     C26923   2.810   2.286   8.307  0.7346  0.7293 -0.0423
  196MOL0     C26924   2.734   2.328   8.438  0.4998  1.0478 -1.2780
  196MOL0     C26925   2.768   2.467   8.491  0.1107 -0.3056  1.0947
  196MOL0     C26926   2.912   2.469   8.555 -0.1140  0.0741 -0.6643
  196MOL0     N26927   2.955   2.603   8.585 -0.3338  0.8981 -0.6245
  196MOL0     C26928   2.898   2.682   8.677 -0.2127  0.1732 -0.1973
  196MOL0     C26929   2.946   2.799   8.652  0.3226 -0.0759 -0.0751
  196MOL0     C26930   2.894   2.923   8.725  0.0721  0.5111 -0.9212
  196MOL0     C26931   3.000   2.981   8.823 -0.1172  0.2225 -0.4926
  196MOL0     C26932   3.101   3.068   8.749  0.2303  0.0017  0.5972
  196MOL0     C26933   3.249   3.041   8.770 -0.5517  0.2140  0.1957
  196MOL0     O26934   3.272   3.029   8.910 -1.0613 -0.7727 -0.2553
  196MOL0     C26935   3.408   3.049   8.961 -0.2047 -0.4254 -0.0438
  196MOL0     C26936   3.522   2.998   8.899 -0.6688 -0.6262  0.7988
  196MOL0     C26937   3.647   3.010   8.960  0.0491 -0.7468 -0.1700
  196MOL0     C26938   3.755   2.949   8.889 -0.7139  0.4685 -0.4345
  196MOL0     C26939   3.659   3.072   9.084  0.6913 -0.3870 -0.3284
  196MOL0     C26940   3.781   3.074   9.164 -0.7256  1.1905 -0.2277
  196MOL0     O26941   3.899   3.134   9.127 -0.8693  0.1669 -0.5538
  196MOL0     C26942   4.003   3.138   9.215  0.9070 -0.7689  0.6323
  196MOL0     C26943   4.047   3.266   9.250 -0.1201  0.1254  0.5676
  196MOL0     C26944   4.165   3.279   9.326  0.2116 -0.6675  0.1842
  196MOL0     C26945   4.226   3.162   9.370  0.0859  0.1450  0.3882
  196MOL0     O26946   4.350   3.156   9.429 -0.3843 -0.5597 -0.3937
  196MOL0     C26947   4.421   3.277   9.459  0.2512 -0.1750 -0.6580
  196MOL0     C26948   4.560   3.233   9.486 -1.3978  0.0823 -0.4506
  196MOL0     C26949   4.652   3.352   9.514  1.0592  0.0597  0.3426
  196MOL0     C26950   4.790   3.305   9.551  0.5472  1.1568  1.1726
  196MOL0     C26951   4.876   3.429   9.570 -0.0336 -0.8140 -0.1126
  196MOL0     C26952   4.993   3.391   9.666 -0.4685 -0.6901  0.1245
  196MOL0     C26953   5.089   3.505   9.686  0.1312 -0.2815  0.1274
  196MOL0     C26954   5.213   3.465   9.759 -0.9448 -0.2668 -0.2821
  196MOL0    Cl26955   5.338   3.601   9.720 -0.4921  0.0831  0.1865
  196MOL0     C26956   4.179   3.039   9.339 -0.2251 -0.2732  0.4385
  196MOL0     C26957   4.066   3.020   9.262  0.5991 -0.5690 -0.8047
  196MOL0     O26958   3.774   2.989   9.253  0.2266  0.2011 -0.2664
  196MOL0     C26959   3.542   3.123   9.144  0.3836 -0.4103  0.2295
  196MOL0     C26960   3.416   3.111   9.086  0.9221  0.0188  0.1905
  196MOL0     N26961   3.029   2.794   8.542  0.0752 -0.2447 -0.7643
  196MOL0     N26962   3.040   2.672   8.511 -0.7002  0.2485  0.7471
  196MOL0     C26963   3.178   1.870   8.462  0.4706  0.6340  0.2238
  196MOL0     C26964   3.259   1.953   8.539  0.4429 -1.7598 -0.0631
  196MOL0     C26965   3.355   2.304   8.817 -0.3522  0.0942  0.2788
  196MOL0     C26966   3.455   2.241   8.897 -0.5307  0.3316 -0.6205
  196MOL0     C26967   3.530   2.310   8.997 -0.3093  0.3644 -0.2498
  196MOL0     C26968   3.514   2.445   9.016  0.2167 -0.4462 -0.1568
  196MOL0     O26969   3.585   2.512   9.111  0.1941 -0.5599 -0.3832
  196MOL0     C26970   3.662   2.621   9.073 -0.4757  0.2594  0.2044
  196MOL0     C26971   3.793   2.609   9.138  0.3142 -0.1899  0.5681
  196MOL0     C26972   3.866   2.488   9.084 -0.0938 -0.0671 -0.4277
  196MOL0     C26973   4.016   2.473   9.113  0.1212 -0.1645  0.4136
  196MOL0     C26974   4.042   2.517   9.253  0.3460 -0.7266 -0.4718
  196MOL0     C26975   4.078   2.553   9.367 -0.7818 -0.3937 -0.0474
  196MOL0     C26976   3.417   2.504   8.932  0.0947 -0.3866  0.2951
  196MOL0     C26977   3.345   2.443   8.827 -0.2329  0.5472  0.8948
  196MOL0     C26978   3.261   2.531   8.737  0.6698  0.0539 -0.4124
  196MOL0     H26979   3.037   2.017   8.783 -0.3343  0.1127 -0.3046
  196MOL0     H26980   2.912   1.844   8.674 -0.4614 -0.5655 -1.0210
  196MOL0     H26981   2.771   1.799   8.487 -1.6693  3.6872 -0.6646
  196MOL0     H26982   2.793   1.686   8.356  0.0970 -0.9710  0.7764
  196MOL0     H26983   2.864   1.865   8.210 -1.5752 -4.4124  0.1674
  196MOL0     H26984   2.712   1.904   8.276  0.3087 -0.0691  0.8065
  196MOL0     H26985   2.837   2.055   8.457  0.8888 -0.8299  0.7773
  196MOL0     H26986   2.967   2.052   8.334 -0.3360 -3.2615 -1.4160
  196MOL0     H26987   2.809   2.131   8.160  0.2943  1.9736 -0.4655
  196MOL0     H26988   2.675   2.129   8.272 -0.2144 -0.1514  1.2183
  196MOL0     H26989   2.781   2.350   8.224  0.1471  0.8545  0.2526
  196MOL0     H26990   2.917   2.297   8.327 -0.1639  4.7650  4.0657
  196MOL0     H26991   2.628   2.320   8.414  0.1684  0.9511  0.1446
  196MOL0     H26992   2.756   2.250   8.511 -0.0083 -2.5026 -4.5881
  196MOL0     H26993   2.693   2.483   8.569 -1.5651  1.9358 -0.8259
  196MOL0     H26994   2.743   2.539   8.412 -0.5943 -3.4767 -1.8004
  196MOL0     H26995   2.903   2.418   8.651  1.4965  3.2592  1.3494
  196MOL0     H26996   2.984   2.412   8.496  0.3484 -3.6225  3.0190
  196MOL0     H26997   2.821   2.660   8.751  2.7656 -1.8317  2.5387
  196MOL0     H26998   2.806   2.900   8.786 -0.4103 -2.0449 -2.4302
  196MOL0     H26999   2.864   2.999   8.653  1.9912  1.8371 -0.4022
  196MOL0     H27000   2.951   3.042   8.899 -0.1522 -1.5949  1.0064
  196MOL0     H27001   3.054   2.911   8.886  0.1285 -0.7314 -1.7242
  196MOL0     H27002   3.075   3.068   8.643 -2.9658  0.5883  1.2900
  196MOL0     H27003   3.083   3.172   8.776 -0.4437  0.4340 -1.3559
  196MOL0     H27004   3.281   2.944   8.730  0.5776  0.8738 -0.5748
  196MOL0     H27005   3.311   3.115   8.717 -1.6637 -0.2266 -1.8330
  196MOL0     H27006   3.499   2.941   8.810 -1.2530  1.3727 -0.3819
  196MOL0     H27007   3.808   3.023   8.828 -3.2399  0.5717 -2.6982
  196MOL0     H27008   3.724   2.875   8.814 -1.1098  1.9799 -1.8086
  196MOL0     H27009   3.826   2.906   8.960 -1.6764 -2.5493 -1.1493
  196MOL0     H27010   3.991   3.356   9.227 -2.0271 -0.4426  2.6580
  196MOL0     H27011   4.204   3.380   9.337 -2.8822  0.9609 -2.1371
  196MOL0     H27012   4.414   3.350   9.378 -1.2065  1.1330  0.5840
  196MOL0     H27013   4.386   3.321   9.552  2.2974 -0.0025  0.0869
  196MOL0     H27014   4.558   3.171   9.576 -1.5767  1.4286  0.5075
  196MOL0     H27015   4.597   3.178   9.399 -0.4721  0.1951 -0.1314
  196MOL0     H27016   4.614   3.407   9.600 -0.8270 -0.3623 -0.1611
  196MOL0     H27017   4.645   3.420   9.429 -1.0932  0.7442  0.9866
  196MOL0     H27018   4.843   3.247   9.476  1.5789  2.9570  0.4638
  196MOL0     H27019   4.791   3.243   9.642 -1.2028 -1.3598 -0.3834
  196MOL0     H27020   4.909   3.465   9.473  0.9324  0.3060  0.6007
  196MOL0     H27021   4.818   3.512   9.612 -0.7887 -0.8426 -1.0604
  196MOL0     H27022   5.039   3.295   9.641 -2.7393 -1.8128 -0.0173
  196MOL0     H27023   4.940   3.368   9.759 -1.0552 -1.4378 -0.3891
  196MOL0     H27024   5.036   3.585   9.739  1.4470  0.5009  0.2960
  196MOL0     H27025   5.119   3.547   9.590 -1.9206  0.4736 -0.2258
  196MOL0     H27026   5.243   3.367   9.722 -1.0359 -0.8893  1.2267
  196MOL0     H27027   5.203   3.460   9.868  1.4696 -2.1071 -0.0579
  196MOL0     H27028   4.231   2.946   9.361  1.2195 -0.0755 -1.7647
  196MOL0     H27029   4.024   2.926   9.229  1.7104 -0.5314 -2.4789
  196MOL0     H27030   3.558   3.178   9.236  1.1692 -0.1951 -0.0286
  196MOL0     H27031   3.327   3.155   9.131 -0.6219 -0.8690 -1.7863
  196MOL0     H27032   3.210   1.833   8.365  1.3125 -0.7114  0.9866
  196MOL0     H27033   3.347   2.001   8.499  3.2578 -1.3148  5.6422
  196MOL0     H27034   3.485   2.137   8.887  3.6296  1.3508 -0.7945
  196MOL0     H27035   3.605   2.253   9.050  0.1484  0.2958 -0.9674
  196MOL0     H27036   3.667   2.625   8.964 -1.1446 -1.9446  0.0513
  196MOL0     H27037   3.612   2.712   9.109 -1.2948 -0.5382  1.1534
  196MOL0     H27038   3.772   2.591   9.243 -4.3262  0.6972 -0.0175
  196MOL0     H27039   3.852   2.697   9.109 -0.3446  0.0077 -0.1881
  196MOL0     H27040   3.822   2.397   9.127  1.4720 -0.0855  1.2721
  196MOL0     H27041   3.850   2.479   8.976 -2.5826  2.1254 -0.3556
  196MOL0     H27042   4.065   2.546   9.048 -3.4653  3.3828  1.2360
  196MOL0     H27043   4.047   2.372   9.085 -0.9472 -0.1148 -1.0651
  196MOL0     H27044   4.118   2.571   9.465  0.2443 -0.1165 -0.5073
  196MOL0     H27045   3.393   2.610   8.940  0.5878 -0.2002 -0.5850
  196MOL0     H27046   3.269   2.636   8.766 -1.7801  0.4566 -0.9328
  196MOL0     H27047   3.290   2.527   8.632 -0.8448 -1.0499 -0.8242
  196MOL0     H27048   3.153   2.520   8.753  0.1776  1.6015 -2.1977
  197MOL0     O27049   2.993   3.388   1.889  0.4672 -0.6612  0.3819
  197MOL0     C27050   3.027   3.484   1.821 -0.3878 -0.0626  0.2787
  197MOL0     O27051   3.133   3.486   1.728  0.8272 -0.1157  0.1320
  197MOL0     C27052   3.202   3.369   1.714 -0.1027 -0.1361 -0.2905
  197MOL0     C27053   3.324   3.365   1.771 -0.8700 -0.5871  0.4893
  197MOL0     C27054   3.405   3.252   1.766  0.8201  0.2322 -0.0952
  197MOL0     C27055   3.354   3.140   1.693 -0.3537  0.0192 -0.2580
  197MOL0     O27056   3.431   3.024   1.690  0.8864  0.1857 -0.6951
  197MOL0     C27057   3.555   3.036   1.616  0.4371 -0.2169  0.2753
  197MOL0     C27058   3.631   2.910   1.667  0.6795  0.2286 -0.5874
  197MOL0     C27059   3.773   2.889   1.591  0.6211  0.8259  0.0940
  197MOL0     C27060   3.862   2.790   1.656  0.1071  0.0829 -0.3153
  197MOL0     C27061   4.004   2.783   1.602  0.0959  0.3951  1.1258
  197MOL0     C27062   4.007   2.772   1.449 -0.3940  0.4701  0.8657
  197MOL0     C27063   4.139   2.742   1.390  0.4665  0.2927  0.3638
  197MOL0     C27064   4.136   2.709   1.245  1.1098  0.1169  0.0695
  197MOL0     N27065   4.051   2.604   1.206  0.4776 -0.3444 -0.0039
  197MOL0     C27066   3.941   2.635   1.127  0.0505  0.2379 -0.1125
  197MOL0     C27067   3.881   2.519   1.102 -0.6149 -0.4759  0.5454
  197MOL0     C27068   3.751   2.518   1.027 -0.3565 -0.2708 -0.2885
  197MOL0     C27069   3.771   2.464   0.880  1.2385  0.1035  0.0287
  197MOL0     C27070   3.819   2.559   0.781 -0.2176  0.7184 -0.1647
  197MOL0     C27071   3.822   2.492   0.642 -0.3055  0.1629  0.3338
  197MOL0     O27072   3.915   2.385   0.638 -0.5328 -0.8382 -0.5849
  197MOL0     C27073   4.053   2.426   0.641  0.4044 -0.0714 -0.1794
  197MOL0     C27074   4.107   2.498   0.529 -0.4848  0.7480  0.1466
  197MOL0     C27075   4.247   2.520   0.520  0.8742  0.5329  0.2005
  197MOL0     C27076   4.290   2.572   0.388 -0.8975 -0.2683  0.9096
  197MOL0     C27077   4.337   2.474   0.618  1.0474  0.2155  0.3401
  197MOL0     C27078   4.486   2.488   0.613 -1.4526  0.3838 -0.5727
  197MOL0     O27079   4.544   2.517   0.497  0.0688  0.2619 -0.3396
  197MOL0     C27080   4.658   2.452   0.465  0.3105  0.2270 -0.4365
  197MOL0     C27081   4.657   2.353   0.364  0.0254  0.1821 -0.8466
  197MOL0     C27082   4.774   2.275   0.345 -0.1745  0.1610 -0.0890
  197MOL0     C27083   4.891   2.302   0.410 -0.8055 -0.5989 -0.5267
  197MOL0     O27084   4.994   2.222   0.373  0.0253  0.2598  0.4815
  197MOL0     C27085   5.121   2.285   0.341  0.8108  1.0292  0.2335
  197MOL0     C27086   5.215   2.269   0.468 -0.3088 -0.4533 -0.0972
  197MOL0     C27087   5.338   2.364   0.481 -0.4215  0.1093 -0.3262
  197MOL0     C27088   5.435   2.322   0.597 -0.3665  0.0753  0.6567
  197MOL0     C27089   5.556   2.402   0.605 -0.0895 -0.8544  0.0980
  197MOL0     C27090   5.632   2.385   0.737 -0.2039  0.1433 -0.4590
  197MOL0     C27091   5.684   2.246   0.755 -0.0495  0.0454 -0.7983
  197MOL0     C27092   5.746   2.228   0.889  0.0686 -0.0248 -0.8297
  197MOL0    Cl27093   5.890   2.322   0.905  0.2880  0.2831 -0.4398
  197MOL0     C27094   4.897   2.408   0.497  0.7779  0.0016 -0.1303
  197MOL0     C27095   4.785   2.486   0.525 -0.1883 -0.1811 -0.1788
  197MOL0     O27096   4.547   2.471   0.719  0.5806 -0.3545  0.0621
  197MOL0     C27097   4.282   2.394   0.723 -0.2488 -0.5247 -0.2010
  197MOL0     C27098   4.143   2.369   0.735 -0.2862  0.8352  0.4694
  197MOL0     N27099   3.952   2.418   1.167  0.1755 -0.5898 -0.7592
  197MOL0     N27100   4.046   2.472   1.242  0.9502  0.2238  0.2871
  197MOL0     C27101   3.227   3.144   1.636 -0.3554 -0.7068 -0.1795
  197MOL0     C27102   3.150   3.261   1.647  0.4022  0.7806  1.2805
  197MOL0     C27103   2.953   3.613   1.836  0.7240 -0.4714 -0.6016
  197MOL0     C27104   3.003   3.728   1.780 -0.2187 -0.2302  0.3010
  197MOL0     C27105   2.948   3.857   1.795 -0.3252  0.3733  0.6665
  197MOL0     C27106   2.821   3.862   1.862  0.6859 -1.0066 -0.1453
  197MOL0     O27107   2.746   3.973   1.900 -0.4151  0.3051  0.5717
  197MOL0     C27108   2.784   4.095   1.840 -0.0129  0.4546  0.4612
  197MOL0     C27109   2.685   4.197   1.888 -0.1353 -0.1444  0.4651
  197MOL0     C27110   2.537   4.170   1.866 -1.1200  0.1974 -0.5680
  197MOL0     C27111   2.455   4.250   1.963  0.0457  0.3008 -0.4412
  197MOL0     C27112   2.313   4.234   1.953 -0.4010 -0.0508  0.2724
  197MOL0     C27113   2.196   4.236   1.928  0.5240  0.0451  0.1845
  197MOL0     C27114   2.763   3.747   1.914 -0.0526  0.0187  0.0264
  197MOL0     C27115   2.830   3.622   1.908 -0.2260 -0.5744  0.0519
  197MOL0     C27116   2.751   3.513   1.948  0.0557 -0.1767  0.3490
  197MOL0     H27117   3.360   3.457   1.817 -1.0443 -0.8341  1.1274
  197MOL0     H27118   3.504   3.238   1.809  0.1154 -1.8650  1.0181
  197MOL0     H27119   3.610   3.131   1.621 -0.4664  0.4725 -1.8280
  197MOL0     H27120   3.520   3.024   1.514  2.9137 -3.8947 -0.3398
  197MOL0     H27121   3.655   2.911   1.774  1.8304 -2.4449 -0.7369
  197MOL0     H27122   3.562   2.827   1.646 -1.4908  1.4959  1.0587
  197MOL0     H27123   3.751   2.849   1.492 -0.2990  0.0465  0.5908
  197MOL0     H27124   3.827   2.983   1.584  1.3502  0.3550 -0.7331
  197MOL0     H27125   3.875   2.816   1.761  0.0164  1.3167 -0.5946
  197MOL0     H27126   3.815   2.692   1.646 -0.2824  0.1561  0.6610
  197MOL0     H27127   4.040   2.685   1.636 -0.7343 -1.1291 -2.0011
  197MOL0     H27128   4.079   2.854   1.639 -0.0078  2.4864 -2.2627
  197MOL0     H27129   3.952   2.683   1.416  1.9507  0.1784 -2.8770
  197MOL0     H27130   3.970   2.864   1.403  0.4134  0.4880  0.2160
  197MOL0     H27131   4.184   2.657   1.441 -0.0426  0.8447  1.7869
  197MOL0     H27132   4.204   2.829   1.403 -0.3823  0.9315  0.4685
  197MOL0     H27133   4.096   2.792   1.186 -1.5407 -0.4466  0.9485
  197MOL0     H27134   4.236   2.687   1.207  0.0853 -1.3510 -1.9211
  197MOL0     H27135   3.909   2.731   1.087  0.9942  1.0220  0.9395
  197MOL0     H27136   3.707   2.617   1.013  0.6751  0.0795 -1.1294
  197MOL0     H27137   3.684   2.452   1.084  0.1025 -1.2895 -0.8949
  197MOL0     H27138   3.829   2.372   0.877 -0.9042 -1.3140 -0.5295
  197MOL0     H27139   3.666   2.437   0.862  1.5703 -0.9030 -0.4960
  197MOL0     H27140   3.756   2.648   0.776  0.5422  1.2096 -2.1819
  197MOL0     H27141   3.919   2.583   0.819 -0.2745 -0.0086  0.4683
  197MOL0     H27142   3.728   2.454   0.600  0.4872 -0.7947 -0.6262
  197MOL0     H27143   3.851   2.580   0.584  0.7797 -0.8951 -0.7764
  197MOL0     H27144   4.045   2.529   0.446 -1.1196 -0.2167  0.2432
  197MOL0     H27145   4.376   2.512   0.359 -0.9753 -0.3092  0.7606
  197MOL0     H27146   4.325   2.676   0.394  2.7408 -1.3169  0.1708
  197MOL0     H27147   4.218   2.568   0.305 -0.7424  3.6013  0.4008
  197MOL0     H27148   4.567   2.328   0.310 -0.2487 -0.2135 -0.2081
  197MOL0     H27149   4.775   2.180   0.292  2.6630 -0.8777  1.5394
  197MOL0     H27150   5.166   2.263   0.243 -1.3989  0.0146 -0.6138
  197MOL0     H27151   5.110   2.393   0.332 -2.1022  0.7427 -0.5466
  197MOL0     H27152   5.158   2.289   0.559  2.0928 -1.6094  1.7718
  197MOL0     H27153   5.247   2.167   0.487  1.2145 -0.1394 -0.7872
  197MOL0     H27154   5.299   2.464   0.501 -1.0396 -0.5747  2.2255
  197MOL0     H27155   5.400   2.366   0.391 -1.7162  1.5878 -1.2388
  197MOL0     H27156   5.455   2.219   0.568 -1.4476  0.0742 -0.1235
  197MOL0     H27157   5.389   2.311   0.695 -3.7012 -1.6060 -0.9364
  197MOL0     H27158   5.627   2.363   0.530  0.2788 -2.3149  1.1568
  197MOL0     H27159   5.540   2.510   0.598  2.5586 -0.3268  0.9331
  197MOL0     H27160   5.571   2.412   0.824 -0.5070  2.6263 -1.3736
  197MOL0     H27161   5.715   2.456   0.733 -0.6190  0.6815  0.2632
  197MOL0     H27162   5.748   2.217   0.671  0.6722 -0.1067 -0.2127
  197MOL0     H27163   5.604   2.173   0.743  0.6361 -1.0106  0.7312
  197MOL0     H27164   5.773   2.123   0.902 -1.2188 -0.4053 -1.1347
  197MOL0     H27165   5.674   2.253   0.967 -0.7451 -1.4426 -1.0997
  197MOL0     H27166   4.988   2.425   0.552  1.2477 -2.3357 -0.0926
  197MOL0     H27167   4.789   2.549   0.613  2.1356  0.4457 -0.6627
  197MOL0     H27168   4.350   2.339   0.787  1.0250  1.6040  0.3389
  197MOL0     H27169   4.103   2.311   0.817  0.7107  1.9673  1.8073
  197MOL0     H27170   3.189   3.054   1.587 -0.2905 -0.7476 -0.1556
  197MOL0     H27171   3.056   3.261   1.592 -0.0073 -3.1055  1.6953
  197MOL0     H27172   3.102   3.718   1.737  0.2273  3.1691  0.3040
  197MOL0     H27173   2.994   3.941   1.744 -2.5897 -0.2750 -2.8152
  197MOL0     H27174   2.877   4.125   1.888  0.2490 -1.0758  0.9586
  197MOL0     H27175   2.788   4.089   1.731 -0.7666  0.5570  0.4168
  197MOL0     H27176   2.701   4.290   1.833 -0.8338  0.5989  1.4682
  197MOL0     H27177   2.710   4.210   1.994  1.1741 -0.9269  0.2768
  197MOL0     H27178   2.505   4.185   1.762  0.3890 -0.0814 -1.0918
  197MOL0     H27179   2.521   4.066   1.896 -1.9909  1.2139  2.9387
  197MOL0     H27180   2.481   4.356   1.959  0.5527  0.1429 -1.9684
  197MOL0     H27181   2.470   4.221   2.068 -1.3933  1.1659  0.0310
  197MOL0     H27182   2.090   4.246   1.912  0.4111 -0.4956  0.5538
  197MOL0     H27183   2.664   3.754   1.960 -0.5711  1.0459 -1.1933
  197MOL0     H27184   2.742   3.431   1.877  1.8229  0.7902 -1.0442
  197MOL0     H27185   2.782   3.476   2.047  1.4752  2.2980  0.9133
  197MOL0     H27186   2.650   3.555   1.959  1.1425  2.5933  0.2960
  198MOL0     O27187   8.362  10.468   6.495  0.0532  0.7838 -0.0081
  198MOL0     C27188   8.481  10.497   6.500 -0.2367 -0.2515  0.5798
  198MOL0     O27189   8.576  10.428   6.567 -0.5705  0.2795  0.3072
  198MOL0     C27190   8.549  10.313   6.642  0.1908  1.2254 -0.2482
  198MOL0     C27191   8.518  10.202   6.577  0.3526 -0.0564 -0.2487
  198MOL0     C27192   8.536  10.074   6.642  0.4011 -0.0112 -0.2849
  198MOL0     C27193   8.550  10.065   6.782 -0.6748  0.0499 -0.2691
  198MOL0     O27194   8.582   9.946   6.852  0.4829 -0.8211  0.8084
  198MOL0     C27195   8.554   9.816   6.795  0.9720 -0.1060  0.0097
  198MOL0     C27196   8.678   9.748   6.731  0.2950 -0.1965 -0.5291
  198MOL0     C27197   8.657   9.619   6.637 -0.3320 -0.6445  0.5586
  198MOL0     C27198   8.608   9.651   6.500  0.2216  0.2590  0.0332
  198MOL0     C27199   8.604   9.525   6.410 -0.4516  0.4703 -0.6747
  198MOL0     C27200   8.513   9.411   6.472  0.8615  0.7510 -1.1005
  198MOL0     C27201   8.474   9.310   6.359 -0.3039  0.0024  0.3966
  198MOL0     C27202   8.396   9.374   6.258  0.3401 -0.2573 -0.2332
  198MOL0     N27203   8.320   9.283   6.166  0.6433 -0.0137 -0.0873
  198MOL0     C27204   8.249   9.167   6.198  0.6695 -0.2792 -0.3855
  198MOL0     C27205   8.165   9.146   6.091 -0.8731  0.4790 -0.5761
  198MOL0     C27206   8.059   9.038   6.088  0.4217  0.5592 -0.3836
  198MOL0     C27207   8.091   8.904   6.006  0.0573 -0.8426  0.8012
  198MOL0     C27208   8.105   8.931   5.855  0.5463 -0.0794  0.1981
  198MOL0     C27209   8.158   8.809   5.781  0.3919 -0.2831  0.3991
  198MOL0     O27210   8.288   8.767   5.836 -0.0325  0.1968  0.1780
  198MOL0     C27211   8.347   8.660   5.772  0.3172 -0.5294 -0.0415
  198MOL0     C27212   8.300   8.592   5.667  0.3865 -0.4286  0.3442
  198MOL0     C27213   8.366   8.474   5.623  0.4220  0.0234  0.6349
  198MOL0     C27214   8.312   8.411   5.496  0.2507  0.5948 -0.2064
  198MOL0     C27215   8.485   8.431   5.687 -0.2377 -0.0673 -0.5087
  198MOL0     C27216   8.583   8.335   5.638 -0.3203 -0.8214 -0.1254
  198MOL0     O27217   8.716   8.370   5.649 -0.3203 -0.4326 -0.0955
  198MOL0     C27218   8.813   8.289   5.597 -0.1858 -0.5200 -0.2213
  198MOL0     C27219   8.812   8.245   5.469 -0.7890 -0.0532  0.4129
  198MOL0     C27220   8.919   8.169   5.419 -0.2983 -0.2530 -0.0925
  198MOL0     C27221   9.031   8.129   5.500  0.1829 -0.9056  0.1442
  198MOL0     O27222   9.141   8.065   5.441  0.5500  0.1098 -0.6136
  198MOL0     C27223   9.189   7.954   5.516  0.1294  1.5092  0.1049
  198MOL0     C27224   9.331   7.977   5.570  0.0646  0.1708 -0.0296
  198MOL0     C27225   9.379   8.116   5.615 -0.0414  0.1473  0.3977
  198MOL0     C27226   9.532   8.130   5.615 -0.6091  0.2690 -0.3980
  198MOL0     C27227   9.582   8.262   5.679 -0.2422 -1.0719  0.3610
  198MOL0     C27228   9.737   8.260   5.699 -0.4828 -0.0056  0.4062
  198MOL0     C27229   9.819   8.259   5.569  0.4455  0.1367  0.5347
  198MOL0     C27230   9.963   8.285   5.585  0.3092 -0.0575 -0.4662
  198MOL0    Cl27231  10.045   8.344   5.433  0.2282 -0.4730 -0.1466
  198MOL0     C27232   9.031   8.171   5.628 -0.0128  0.0285 -0.5049
  198MOL0     C27233   8.920   8.250   5.677 -1.0671 -0.6396 -0.3916
  198MOL0     O27234   8.546   8.226   5.595  0.5443  0.0498 -0.6069
  198MOL0     C27235   8.528   8.502   5.797  0.5853  1.0781  0.1976
  198MOL0     C27236   8.468   8.621   5.835  0.5034 -0.2270 -0.3986
  198MOL0     N27237   8.180   9.253   6.008 -0.4943 -0.4577  1.5303
  198MOL0     N27238   8.276   9.330   6.045 -0.5097 -0.0279 -0.3739
  198MOL0     C27239   8.563  10.185   6.844 -1.1917 -0.0131  0.1735
  198MOL0     C27240   8.573  10.309   6.777  1.1388 -0.6761  0.0199
  198MOL0     C27241   8.522  10.628   6.464  0.3402 -0.7115 -0.1049
  198MOL0     C27242   8.637  10.693   6.521 -1.0791  0.1008  0.5253
  198MOL0     C27243   8.663  10.832   6.509  0.1657 -0.3703  0.1875
  198MOL0     C27244   8.583  10.912   6.426 -0.3047  0.1424 -0.1269
  198MOL0     O27245   8.609  11.049   6.432  0.6320  0.0596 -0.3859
  198MOL0     C27246   8.658  11.101   6.313  0.7827  0.2994  0.3341
  198MOL0     C27247   8.679  11.254   6.313  0.5518 -0.0170  0.6901
  198MOL0     C27248   8.774  11.289   6.427  0.9525 -0.1320  0.4325
  198MOL0     C27249   8.767  11.439   6.458  0.2286  0.0760  0.7705
  198MOL0     C27250   8.804  11.522   6.338  0.0655 -0.4069  0.9355
  198MOL0     C27251   8.861  11.594   6.250  0.7177 -0.0796  0.2289
  198MOL0     C27252   8.480  10.851   6.354  0.3065 -0.0765  0.7468
  198MOL0     C27253   8.455  10.711   6.365 -0.1861  0.0401 -0.3048
  198MOL0     C27254   8.349  10.655   6.264  0.2400 -0.3212 -0.0740
  198MOL0     H27255   8.496  10.194   6.471  1.7493 -2.6498 -0.4256
  198MOL0     H27256   8.533   9.988   6.576  2.8212 -0.6367  0.3178
  198MOL0     H27257   8.466   9.816   6.729  0.5760 -1.4785  0.4956
  198MOL0     H27258   8.514   9.757   6.878 -2.4531  0.2939 -1.1816
  198MOL0     H27259   8.716   9.828   6.666  1.1592 -0.0030  0.1918
  198MOL0     H27260   8.749   9.723   6.810 -2.0344 -1.3176  1.3037
  198MOL0     H27261   8.758   9.577   6.636  0.9108  2.1248 -0.8431
  198MOL0     H27262   8.583   9.556   6.688 -0.1028  0.1458  1.9390
  198MOL0     H27263   8.509   9.695   6.517  0.9166  0.9976  2.7302
  198MOL0     H27264   8.683   9.722   6.465 -0.9881  0.7806 -1.6040
  198MOL0     H27265   8.707   9.490   6.401 -0.7010 -0.0357 -1.6014
  198MOL0     H27266   8.587   9.558   6.307  0.0844  2.0523 -0.2901
  198MOL0     H27267   8.556   9.358   6.558 -1.7046  1.9808  1.0617
  198MOL0     H27268   8.421   9.443   6.520  0.8450 -1.1413  0.2555
  198MOL0     H27269   8.417   9.230   6.408 -2.0528  1.6196  1.1623
  198MOL0     H27270   8.568   9.279   6.314 -0.4640  1.2725 -0.8928
  198MOL0     H27271   8.328   9.451   6.296 -0.2615 -1.4930  1.2988
  198MOL0     H27272   8.467   9.433   6.199  1.4568 -0.1105  1.1790
  198MOL0     H27273   8.265   9.097   6.280  3.3316  0.2380 -0.3528
  198MOL0     H27274   7.967   9.070   6.039 -0.3010 -0.0866  0.5091
  198MOL0     H27275   8.048   9.007   6.193  1.7787 -1.1407 -0.7112
  198MOL0     H27276   8.186   8.869   6.047  0.9884  0.3127 -0.3104
  198MOL0     H27277   8.009   8.834   6.027 -0.1503 -0.4361  1.3776
  198MOL0     H27278   8.013   8.968   5.809 -0.2271  0.2115  1.9007
  198MOL0     H27279   8.174   9.013   5.830 -0.3139  0.2146 -1.3390
  198MOL0     H27280   8.082   8.731   5.793 -0.6012  0.9195  2.4529
  198MOL0     H27281   8.166   8.829   5.674  1.0399 -2.7856 -0.0937
  198MOL0     H27282   8.205   8.618   5.623 -0.7841 -1.0192  2.3913
  198MOL0     H27283   8.286   8.307   5.521  1.3521  0.1129 -0.9678
  198MOL0     H27284   8.373   8.416   5.405 -2.9509 -0.8938 -2.6269
  198MOL0     H27285   8.222   8.464   5.465  0.8052  2.4432  1.2016
  198MOL0     H27286   8.737   8.285   5.401  2.6173  2.0493 -2.5137
  198MOL0     H27287   8.921   8.155   5.311 -1.0529  0.0032 -0.1446
  198MOL0     H27288   9.120   7.926   5.597  0.8152 -2.7185 -0.5853
  198MOL0     H27289   9.187   7.863   5.456 -0.0990  2.1494 -0.8929
  198MOL0     H27290   9.339   7.910   5.656  1.0941 -0.9540 -0.9647
  198MOL0     H27291   9.395   7.934   5.493 -1.8723 -0.5473 -1.3180
  198MOL0     H27292   9.344   8.150   5.713 -2.9585  1.7210 -1.0794
  198MOL0     H27293   9.320   8.185   5.555 -0.2310 -1.0254 -0.8175
  198MOL0     H27294   9.570   8.110   5.515  2.2653  0.9293  0.4522
  198MOL0     H27295   9.571   8.050   5.679  0.6989 -0.7221 -2.3367
  198MOL0     H27296   9.551   8.348   5.618  2.0713  0.1267  0.7301
  198MOL0     H27297   9.534   8.267   5.777 -0.8086 -2.7007  0.1903
  198MOL0     H27298   9.777   8.182   5.765  1.6125 -0.1764 -0.9946
  198MOL0     H27299   9.760   8.351   5.754 -0.7923 -1.7059  3.6128
  198MOL0     H27300   9.767   8.334   5.507 -2.4791  0.0786  2.7114
  198MOL0     H27301   9.810   8.161   5.522 -1.1470  1.2668 -1.7314
  198MOL0     H27302  10.005   8.190   5.619 -0.3668 -0.0036  0.5489
  198MOL0     H27303   9.976   8.352   5.670  1.1467 -4.0148  2.8605
  198MOL0     H27304   9.112   8.158   5.700  0.7635  1.8147 -1.0000
  198MOL0     H27305   8.939   8.287   5.777  1.1436 -3.1674  0.2409
  198MOL0     H27306   8.614   8.480   5.859  0.5733  1.5828  0.4015
  198MOL0     H27307   8.515   8.675   5.917 -0.0203 -0.6244  0.1692
  198MOL0     H27308   8.573  10.188   6.952  2.6835 -1.6159  0.0029
  198MOL0     H27309   8.595  10.397   6.836 -3.7584  1.2165 -0.5235
  198MOL0     H27310   8.694  10.642   6.598  0.0440 -0.6501 -0.7535
  198MOL0     H27311   8.735  10.887   6.570 -1.0684 -0.4144  1.7465
  198MOL0     H27312   8.753  11.051   6.294  1.0282  0.2458  1.6513
  198MOL0     H27313   8.584  11.075   6.236 -0.1187 -0.7755  1.5200
  198MOL0     H27314   8.587  11.312   6.307 -0.7020 -2.0317 -0.9860
  198MOL0     H27315   8.731  11.270   6.219  0.3131 -2.3792  0.0863
  198MOL0     H27316   8.762  11.230   6.518  4.2080  0.4512  1.3786
  198MOL0     H27317   8.873  11.258   6.393  0.0761 -0.9557 -1.4723
  198MOL0     H27318   8.850  11.467   6.523 -0.3262  0.9424  1.1171
  198MOL0     H27319   8.668  11.470   6.492 -1.8275 -1.1086 -3.4040
  198MOL0     H27320   8.887  11.672   6.181 -0.9330  0.0276 -0.3270
  198MOL0     H27321   8.424  10.900   6.274 -2.3008 -0.1047  2.4523
  198MOL0     H27322   8.364  10.549   6.244 -0.4834 -0.4188 -0.1409
  198MOL0     H27323   8.250  10.693   6.292  0.8661  2.2443 -1.0712
  198MOL0     H27324   8.352  10.707   6.168  0.8080  0.9685  0.6171
  199MOL0     O27325   4.330   8.100   0.555 -0.4699 -0.4063 -0.0748
  199MOL0     C27326   4.254   8.171   0.620  0.4152 -0.0404 -0.5360
  199MOL0     O27327   4.292   8.254   0.726 -0.4184  0.2187 -0.0195
  199MOL0     C27328   4.419   8.222   0.778  1.2136 -1.2797 -0.7022
  199MOL0     C27329   4.420   8.151   0.901 -0.6533 -0.9347 -0.0315
  199MOL0     C27330   4.539   8.107   0.958 -0.2793 -0.2855 -0.2443
  199MOL0     C27331   4.658   8.132   0.889 -0.0663  0.6024  0.1847
  199MOL0     O27332   4.778   8.092   0.947 -0.1622  0.0700 -0.3896
  199MOL0     C27333   4.871   8.211   0.948 -0.1200 -0.5703 -0.7286
  199MOL0     C27334   4.981   8.202   1.050 -0.4588  0.2599  0.2408
  199MOL0     C27335   5.077   8.319   1.005 -0.4860  0.4286 -0.4776
  199MOL0     C27336   5.207   8.313   1.094  0.4444 -0.2456  0.5659
  199MOL0     C27337   5.269   8.461   1.091  0.4168 -0.3099  0.4199
  199MOL0     C27338   5.415   8.463   1.133 -0.0600  0.0226  0.4246
  199MOL0     C27339   5.501   8.557   1.050 -0.0050  0.8674  0.9008
  199MOL0     C27340   5.652   8.545   1.077  0.0059 -0.5599 -0.1923
  199MOL0     N27341   5.730   8.645   0.994 -0.1267 -0.0245 -0.5076
  199MOL0     C27342   5.758   8.776   1.037  0.4388 -0.2775 -0.4709
  199MOL0     C27343   5.846   8.816   0.936 -0.3659 -0.4049  0.3748
  199MOL0     C27344   5.901   8.955   0.921 -0.0543 -0.3785 -0.6083
  199MOL0     C27345   6.035   8.948   0.843 -0.1980 -0.1954 -0.1491
  199MOL0     C27346   6.057   9.078   0.770 -0.5678 -0.0970  0.4647
  199MOL0     C27347   5.996   9.070   0.630  0.1902  0.1164 -0.3610
  199MOL0     O27348   6.093   9.016   0.538 -0.4661  0.2367  1.3290
  199MOL0     C27349   6.025   8.963   0.427 -1.3150  0.2067 -0.3952
  199MOL0     C27350   5.967   8.834   0.437  0.4578  0.0400 -0.5583
  199MOL0     C27351   5.896   8.779   0.320 -0.8084  0.5270 -0.2966
  199MOL0     C27352   5.876   8.627   0.329  0.8195 -0.4505 -0.1576
  199MOL0     C27353   5.870   8.863   0.205  0.4432  0.6373  0.7794
  199MOL0     C27354   5.767   8.820   0.099 -0.8122 -0.5394 -0.1538
  199MOL0     O27355   5.746   8.907   0.002 -0.0852  1.0413  0.1009
  199MOL0     C27356   5.687   8.858  -0.110 -0.3175  0.9135  0.5178
  199MOL0     C27357   5.749   8.758  -0.189  0.0873 -0.1961 -0.1888
  199MOL0     C27358   5.679   8.723  -0.306 -0.4892 -0.1140 -0.6955
  199MOL0     C27359   5.559   8.784  -0.345 -0.3990 -0.1204 -0.2310
  199MOL0     O27360   5.493   8.771  -0.468 -0.7926  0.5296  0.2412
  199MOL0     C27361   5.516   8.649  -0.549 -0.3266 -0.0795 -0.7514
  199MOL0     C27362   5.483   8.674  -0.702  0.1246  0.2765  0.1403
  199MOL0     C27363   5.332   8.685  -0.739  0.6015 -0.1743  0.6899
  199MOL0     C27364   5.241   8.602  -0.646 -0.2360 -0.8587  0.8205
  199MOL0     C27365   5.094   8.612  -0.684  0.7037  0.0619 -0.2388
  199MOL0     C27366   5.058   8.555  -0.828 -0.5408  0.2459  0.7650
  199MOL0     C27367   4.917   8.494  -0.846 -0.2047 -0.8423 -0.5415
  199MOL0     C27368   4.923   8.351  -0.919 -0.0030 -0.3964  0.2574
  199MOL0    Cl27369   4.751   8.293  -0.947  0.2825 -0.1916  0.1324
  199MOL0     C27370   5.500   8.877  -0.258  0.2695 -0.5314 -0.2711
  199MOL0     C27371   5.560   8.918  -0.139 -0.6308 -0.7521 -0.4975
  199MOL0     O27372   5.703   8.721   0.116  0.3430 -0.4645 -0.1613
  199MOL0     C27373   5.932   8.985   0.201 -0.2537  0.8738  0.0769
  199MOL0     C27374   6.015   9.031   0.303 -0.6788  0.1962 -0.3361
  199MOL0     N27375   5.855   8.720   0.840 -0.2633 -0.9456  1.0069
  199MOL0     N27376   5.779   8.624   0.871 -0.5909 -1.1553 -0.1631
  199MOL0     C27377   4.655   8.211   0.767 -0.4602  0.4905  0.0958
  199MOL0     C27378   4.534   8.251   0.716 -0.1191  0.5990  0.7797
  199MOL0     C27379   4.104   8.167   0.592 -0.1272  0.1384  0.6326
  199MOL0     C27380   4.007   8.156   0.694 -0.1338 -0.2661  0.1219
  199MOL0     C27381   3.870   8.150   0.667  0.0259 -0.2027  0.2251
  199MOL0     C27382   3.821   8.141   0.539 -0.2153 -0.1761  0.6393
  199MOL0     O27383   3.687   8.123   0.530  0.9073  0.7368 -0.2530
  199MOL0     C27384   3.622   8.109   0.408 -0.4820 -1.0780  0.8308
  199MOL0     C27385   3.480   8.037   0.430  0.2613  0.1227 -0.7586
  199MOL0     C27386   3.453   7.939   0.315  0.7185  0.1398 -0.8140
  199MOL0     C27387   3.316   7.873   0.329  0.0314 -0.9194 -0.0462
  199MOL0     C27388   3.321   7.804   0.462 -0.0944 -0.0195  0.2342
  199MOL0     C27389   3.315   7.747   0.567 -1.4715 -0.5856  0.6782
  199MOL0     C27390   3.914   8.151   0.432  0.2365 -0.0830  0.3865
  199MOL0     C27391   4.052   8.158   0.457  0.0125 -0.2639  0.5119
  199MOL0     C27392   4.148   8.176   0.340  0.6570  0.2215  0.3716
  199MOL0     H27393   4.327   8.116   0.945 -1.4663  1.9846  0.7798
  199MOL0     H27394   4.548   8.047   1.048  1.9382  0.9096  0.4080
  199MOL0     H27395   4.820   8.302   0.980 -1.4337 -2.1699  2.1799
  199MOL0     H27396   4.909   8.229   0.847  0.6237  0.9448 -0.1996
  199MOL0     H27397   4.928   8.208   1.146 -5.6003 -1.2531 -2.1472
  199MOL0     H27398   5.032   8.106   1.045 -1.4527 -0.2150 -3.0711
  199MOL0     H27399   5.097   8.302   0.899  1.4770 -0.9625  0.0526
  199MOL0     H27400   5.033   8.417   1.026 -0.7003  0.0118  1.1853
  199MOL0     H27401   5.196   8.285   1.199 -1.4848  3.4036  1.4928
  199MOL0     H27402   5.276   8.237   1.055 -1.0471 -0.3478 -2.0949
  199MOL0     H27403   5.211   8.540   1.140  1.8278  0.4947  0.8343
  199MOL0     H27404   5.262   8.503   0.990  2.3038 -0.6008  0.1304
  199MOL0     H27405   5.425   8.497   1.237 -1.8568  0.3695  0.5175
  199MOL0     H27406   5.458   8.362   1.128 -1.8282 -0.7555  0.2984
  199MOL0     H27407   5.467   8.659   1.071  0.0533  0.3322  4.0616
  199MOL0     H27408   5.482   8.541   0.943  0.0686 -2.1645  1.2458
  199MOL0     H27409   5.678   8.542   1.183  1.2830 -0.7576 -0.4949
  199MOL0     H27410   5.682   8.450   1.032 -0.4886 -1.0827  0.5657
  199MOL0     H27411   5.716   8.822   1.126  0.2720 -0.2639 -0.5549
  199MOL0     H27412   5.914   8.984   1.026 -0.6630 -2.4071  0.0694
  199MOL0     H27413   5.830   9.024   0.873 -2.7949 -1.9546  0.9078
  199MOL0     H27414   6.111   8.937   0.921  0.7832  0.7052 -0.9558
  199MOL0     H27415   6.062   8.868   0.774  3.4289  0.8328 -0.1411
  199MOL0     H27416   6.032   9.170   0.824 -1.0823  1.2969 -1.9758
  199MOL0     H27417   6.166   9.085   0.760 -0.8048  1.8050 -1.7395
  199MOL0     H27418   5.901   9.016   0.633 -0.7553  1.7389 -0.1625
  199MOL0     H27419   5.965   9.170   0.601  0.7695  0.5333  0.4118
  199MOL0     H27420   5.997   8.772   0.521 -0.6679 -1.4667 -1.2305
  199MOL0     H27421   5.898   8.587   0.230 -1.7767 -1.3057 -0.4614
  199MOL0     H27422   5.778   8.589   0.360  1.5315 -1.1274  1.3862
  199MOL0     H27423   5.952   8.586   0.397 -0.9959 -0.0718  2.2137
  199MOL0     H27424   5.845   8.709  -0.176 -0.1980 -0.7869 -0.2548
  199MOL0     H27425   5.720   8.642  -0.366  0.6839 -1.9483  2.3659
  199MOL0     H27426   5.615   8.604  -0.552 -1.4282 -2.9937  1.7129
  199MOL0     H27427   5.442   8.574  -0.519  0.0829  0.1016  0.7915
  199MOL0     H27428   5.534   8.770  -0.716  0.7226  0.3033  2.2027
  199MOL0     H27429   5.529   8.598  -0.765  0.2100  0.6621 -0.2701
  199MOL0     H27430   5.310   8.661  -0.843 -1.5253  1.9995  0.5372
  199MOL0     H27431   5.299   8.788  -0.723  1.7827  0.4467 -0.6657
  199MOL0     H27432   5.252   8.644  -0.545  0.7529  1.0219 -0.0129
  199MOL0     H27433   5.267   8.497  -0.656  2.9817  0.0434 -5.2774
  199MOL0     H27434   5.034   8.557  -0.612 -2.4241  0.8152 -2.0609
  199MOL0     H27435   5.051   8.710  -0.662  0.8453 -0.1861  1.2442
  199MOL0     H27436   5.131   8.476  -0.849  1.4691  2.6346 -1.9227
  199MOL0     H27437   5.073   8.641  -0.894 -0.9345 -0.3658 -0.1373
  199MOL0     H27438   4.853   8.561  -0.905  1.8191  1.3056 -0.4426
  199MOL0     H27439   4.869   8.472  -0.751  0.7121  0.3851  0.2357
  199MOL0     H27440   4.975   8.279  -0.856 -1.7659  0.1551  2.4987
  199MOL0     H27441   4.969   8.353  -1.018  0.3562 -2.6853  0.3320
  199MOL0     H27442   5.404   8.920  -0.286 -1.2249 -2.0398  2.1459
  199MOL0     H27443   5.523   9.004  -0.086  0.5991 -0.8959  0.6478
  199MOL0     H27444   5.926   9.034   0.104  0.5799 -1.1874 -1.0980
  199MOL0     H27445   6.072   9.123   0.304 -1.1797  0.5138 -0.5035
  199MOL0     H27446   4.746   8.241   0.715 -0.3013  0.8011  0.5422
  199MOL0     H27447   4.533   8.303   0.621  5.1047  0.5529  0.3647
  199MOL0     H27448   4.030   8.152   0.800  2.5798 -0.6291 -0.4206
  199MOL0     H27449   3.797   8.145   0.748 -0.2854 -1.0227 -0.1011
  199MOL0     H27450   3.603   8.206   0.361  0.3478 -0.4933  1.6580
  199MOL0     H27451   3.678   8.054   0.331  0.0126 -0.0261  0.4193
  199MOL0     H27452   3.410   8.120   0.445  1.6621  1.7223 -2.5997
  199MOL0     H27453   3.475   7.999   0.533  0.2635  1.1867 -0.3495
  199MOL0     H27454   3.479   7.989   0.221 -2.0996  2.8553 -0.3265
  199MOL0     H27455   3.530   7.863   0.334  1.0019  0.5450 -0.3255
  199MOL0     H27456   3.293   7.804   0.248  0.2530  0.2521 -1.1304
  199MOL0     H27457   3.231   7.943   0.323 -1.1632 -2.3764 -0.7603
  199MOL0     H27458   3.300   7.701   0.662 -2.7724 -3.3653 -0.7550
  199MOL0     H27459   3.867   8.153   0.334 -0.6673  0.5196  0.8140
  199MOL0     H27460   4.159   8.077   0.293 -1.6614 -0.1086  0.3968
  199MOL0     H27461   4.102   8.232   0.258 -0.4641  2.3454  2.3695
  199MOL0     H27462   4.244   8.218   0.369  0.8902  1.2625 -1.6749
  200MOL0     O27463   4.364   3.320   8.127  0.5065 -0.7882  0.3232
  200MOL0     C27464   4.437   3.424   8.127 -0.0571 -0.4001  0.2131
  200MOL0     O27465   4.399   3.545   8.069  0.7667  0.2430 -0.3288
  200MOL0     C27466   4.284   3.568   7.993  0.0852  0.2119  0.4827
  200MOL0     C27467   4.189   3.484   7.941  0.8054  0.1121 -0.3309
  200MOL0     C27468   4.079   3.520   7.861  0.3174 -0.9832 -0.3378
  200MOL0     C27469   4.059   3.663   7.842  1.0201 -0.1991 -0.1344
  200MOL0     O27470   3.936   3.708   7.793  0.0736  0.1220  0.6389
  200MOL0     C27471   3.840   3.622   7.724  0.0723 -0.4591  0.3387
  200MOL0     C27472   3.737   3.707   7.653  0.0768  0.2349 -0.7632
  200MOL0     C27473   3.678   3.820   7.752  0.3285  0.0276  1.3370
  200MOL0     C27474   3.596   3.936   7.677  0.9118 -0.1438  0.4881
  200MOL0     C27475   3.468   3.882   7.609 -0.3479 -0.1191 -0.0657
  200MOL0     C27476   3.408   3.991   7.510  0.3595 -0.0700 -0.0846
  200MOL0     C27477   3.293   3.932   7.425 -0.0656  0.5121 -0.0556
  200MOL0     C27478   3.262   4.040   7.320  0.2859  0.6984  0.3349
  200MOL0     N27479   3.213   4.166   7.373 -1.1249 -0.1798  0.9137
  200MOL0     C27480   3.126   4.175   7.477 -0.6824 -0.1008  0.0305
  200MOL0     C27481   3.127   4.306   7.506  0.5409 -0.0825  1.0872
  200MOL0     C27482   3.031   4.368   7.599  0.2699 -0.4038  0.8667
  200MOL0     C27483   2.909   4.441   7.537  0.8603  0.9379  0.7622
  200MOL0     C27484   2.813   4.339   7.468  0.2089 -0.2470 -0.3456
  200MOL0     C27485   2.707   4.429   7.393 -0.2502 -0.2750  0.3521
  200MOL0     O27486   2.623   4.487   7.488  0.1261 -0.1434  0.0238
  200MOL0     C27487   2.492   4.531   7.457 -0.2317 -0.2570 -0.9505
  200MOL0     C27488   2.413   4.570   7.570 -1.1140  0.7585  0.3514
  200MOL0     C27489   2.287   4.607   7.568 -0.2652 -0.1851 -0.5866
  200MOL0     C27490   2.238   4.667   7.698 -0.4700  0.6549 -0.2035
  200MOL0     C27491   2.220   4.603   7.445  0.9459 -0.3876 -0.4922
  200MOL0     C27492   2.072   4.629   7.435 -0.5054  0.2999  0.2959
  200MOL0     O27493   2.033   4.685   7.318  0.4867  0.2120 -0.1630
  200MOL0     C27494   1.898   4.707   7.290  0.6228 -0.4648  0.0112
  200MOL0     C27495   1.801   4.759   7.388 -0.4918  0.2761 -0.4433
  200MOL0     C27496   1.662   4.772   7.348  0.1981 -0.1518  0.0205
  200MOL0     C27497   1.631   4.745   7.210  0.1397  0.1715 -1.2886
  200MOL0     O27498   1.511   4.767   7.155  0.2372  0.2229 -0.6606
  200MOL0     C27499   1.393   4.806   7.233  0.3657 -0.3300  0.4353
  200MOL0     C27500   1.266   4.793   7.144 -0.6197  0.3822 -0.3210
  200MOL0     C27501   1.248   4.647   7.114  0.1661  0.3443  0.3149
  200MOL0     C27502   1.102   4.615   7.165 -0.4632  0.4864  0.2002
  200MOL0     C27503   1.049   4.472   7.116 -0.1562 -0.9281 -0.5171
  200MOL0     C27504   1.009   4.473   6.967 -0.0474  0.3232  0.7369
  200MOL0     C27505   0.968   4.337   6.915  0.2677  0.1544  0.1021
  200MOL0     C27506   0.960   4.322   6.770 -0.4636 -0.9162 -0.0009
  200MOL0    Cl27507   1.120   4.323   6.692 -0.0241  0.0195 -0.3674
  200MOL0     C27508   1.725   4.707   7.120 -0.6900  0.1459 -0.1711
  200MOL0     C27509   1.854   4.688   7.159 -0.0002 -0.1430 -0.1282
  200MOL0     O27510   2.008   4.603   7.525 -0.8294  0.0925 -1.0410
  200MOL0     C27511   2.291   4.557   7.327  0.7592  0.0228  0.4296
  200MOL0     C27512   2.423   4.519   7.329 -0.1243 -0.9759 -0.6610
  200MOL0     N27513   3.239   4.367   7.436  0.9498 -0.6004  1.0354
  200MOL0     N27514   3.291   4.277   7.356  0.1683  0.2472 -0.2533
  200MOL0     C27515   4.141   3.752   7.901 -0.4685 -0.0530 -0.8202
  200MOL0     C27516   4.261   3.708   7.974 -0.4892 -0.0900 -0.1141
  200MOL0     C27517   4.578   3.415   8.173  0.2021  0.1158 -1.0654
  200MOL0     C27518   4.623   3.528   8.239 -0.7030  0.3883  0.6601
  200MOL0     C27519   4.762   3.551   8.270  0.6806  1.0373  1.1800
  200MOL0     C27520   4.851   3.453   8.227  0.1430  0.1479 -0.6170
  200MOL0     O27521   4.982   3.473   8.270  0.2257  0.1629  0.3009
  200MOL0     C27522   5.090   3.435   8.187 -0.6222 -0.4701 -0.0104
  200MOL0     C27523   5.204   3.395   8.274 -0.5479  1.2531  0.0460
  200MOL0     C27524   5.274   3.519   8.316 -0.2604 -1.2584 -0.6071
  200MOL0     C27525   5.371   3.474   8.430  0.6912 -0.1223 -0.4884
  200MOL0     C27526   5.489   3.565   8.449 -0.3299  0.0445  0.0582
  200MOL0     C27527   5.575   3.645   8.484 -0.0123  0.7605  0.3714
  200MOL0     C27528   4.808   3.341   8.157 -0.0027  0.2334  0.3357
  200MOL0     C27529   4.674   3.320   8.123  0.0261 -0.1362  0.3532
  200MOL0     C27530   4.635   3.193   8.058 -0.0722 -0.6899  0.4140
  200MOL0     H27531   4.203   3.377   7.954  0.6734  0.1382  0.0279
  200MOL0     H27532   4.014   3.446   7.817  1.0305  0.1250 -3.5287
  200MOL0     H27533   3.790   3.551   7.790 -1.1580 -0.0216 -0.0944
  200MOL0     H27534   3.891   3.565   7.646  2.4447 -3.0848  3.5651
  200MOL0     H27535   3.778   3.743   7.558  1.6272 -1.3295 -0.7363
  200MOL0     H27536   3.654   3.646   7.616 -1.2826  0.7443  1.2979
  200MOL0     H27537   3.608   3.774   7.823  0.1843  0.5277  1.5238
  200MOL0     H27538   3.758   3.866   7.810  2.3618  0.4802 -1.6048
  200MOL0     H27539   3.572   4.024   7.736  1.9237  3.0146 -3.3422
  200MOL0     H27540   3.668   3.969   7.601  0.7665 -1.4105 -0.2405
  200MOL0     H27541   3.383   3.861   7.675 -1.4434  0.7885 -1.1477
  200MOL0     H27542   3.492   3.792   7.552 -0.2945 -0.2876  0.2206
  200MOL0     H27543   3.363   4.077   7.560 -0.9819 -2.1443  2.5167
  200MOL0     H27544   3.483   4.029   7.440  0.7715 -0.1889  0.2895
  200MOL0     H27545   3.204   3.909   7.484  0.5898  0.1280  0.8110
  200MOL0     H27546   3.333   3.839   7.384  0.0879 -0.3966  1.9931
  200MOL0     H27547   3.353   4.068   7.267  0.0871  1.3786  0.3502
  200MOL0     H27548   3.190   3.997   7.249  1.2625  2.4093 -1.8114
  200MOL0     H27549   3.062   4.097   7.516 -0.4183 -0.2619  0.1437
  200MOL0     H27550   3.071   4.454   7.653 -3.6271  1.5216  0.9990
  200MOL0     H27551   2.987   4.307   7.679 -1.2127  0.5068  0.7882
  200MOL0     H27552   2.838   4.479   7.612 -3.3291 -1.4643 -1.5948
  200MOL0     H27553   2.941   4.530   7.482  1.2884  0.1646 -0.2706
  200MOL0     H27554   2.870   4.283   7.394  0.0291  1.3417 -1.7485
  200MOL0     H27555   2.764   4.272   7.540 -1.7927  1.7171  0.2263
  200MOL0     H27556   2.742   4.500   7.317 -1.7911  1.4514  1.1737
  200MOL0     H27557   2.649   4.353   7.341 -0.5342 -0.1359  0.4655
  200MOL0     H27558   2.473   4.582   7.659  1.6118  0.2106 -1.2901
  200MOL0     H27559   2.185   4.590   7.756 -0.4435 -0.3307 -1.4375
  200MOL0     H27560   2.167   4.749   7.682 -0.7464  0.6966  1.1169
  200MOL0     H27561   2.317   4.708   7.761 -0.6801 -1.8601  1.8713
  200MOL0     H27562   1.829   4.790   7.489 -0.3207 -1.1793 -0.0268
  200MOL0     H27563   1.590   4.803   7.423  3.6447  2.8993  2.3884
  200MOL0     H27564   1.371   4.744   7.320 -1.2386 -0.8976 -0.3442
  200MOL0     H27565   1.393   4.908   7.274 -0.8308 -0.4099  0.6613
  200MOL0     H27566   1.185   4.843   7.197 -1.1298  0.1963 -0.9102
  200MOL0     H27567   1.267   4.838   7.044 -2.9809 -2.7979 -1.9634
  200MOL0     H27568   1.320   4.581   7.164  2.2867  1.9854 -0.3815
  200MOL0     H27569   1.259   4.632   7.006  2.0682 -0.7420  0.6085
  200MOL0     H27570   1.028   4.691   7.140 -0.5253  0.0427 -1.0080
  200MOL0     H27571   1.101   4.622   7.274  1.3477  0.1045  0.2791
  200MOL0     H27572   1.129   4.398   7.125  1.5306  1.0286  2.2772
  200MOL0     H27573   0.964   4.444   7.179  2.4094 -1.2645  3.1288
  200MOL0     H27574   1.096   4.501   6.907  0.7128 -2.3291  0.4689
  200MOL0     H27575   0.925   4.539   6.945 -1.6531 -1.5718  0.8361
  200MOL0     H27576   0.876   4.310   6.969  1.4508  2.4395  3.5922
  200MOL0     H27577   1.042   4.268   6.956  0.5977  1.2607  1.4325
  200MOL0     H27578   0.901   4.405   6.732 -2.6128 -1.9679  0.8647
  200MOL0     H27579   0.912   4.224   6.756  0.4837 -1.6998  1.8357
  200MOL0     H27580   1.682   4.700   7.021 -0.8040  0.3080 -0.1330
  200MOL0     H27581   1.929   4.672   7.082  0.7468  0.2633  0.4974
  200MOL0     H27582   2.262   4.551   7.222  2.9156 -0.8150 -0.1890
  200MOL0     H27583   2.481   4.491   7.241 -0.2298  1.2526 -1.5212
  200MOL0     H27584   4.139   3.859   7.886  0.8600  1.0754  4.8175
  200MOL0     H27585   4.334   3.778   8.012 -1.9886  0.8385  1.1455
  200MOL0     H27586   4.544   3.600   8.254 -0.8177  0.9724 -2.1627
  200MOL0     H27587   4.806   3.638   8.318  0.6633  0.9202  1.4091
  200MOL0     H27588   5.065   3.353   8.119  2.2363 -1.2059 -0.2872
  200MOL0     H27589   5.112   3.519   8.120  0.1298 -0.6697 -0.0254
  200MOL0     H27590   5.262   3.321   8.218  0.6504  2.4805 -0.3632
  200MOL0     H27591   5.161   3.350   8.365  1.2153 -2.3119 -0.6895
  200MOL0     H27592   5.337   3.555   8.234  1.0052 -3.3219 -0.6062
  200MOL0     H27593   5.204   3.594   8.354 -1.0310 -1.4057 -1.6883
  200MOL0     H27594   5.416   3.379   8.401  1.9716 -0.4417  2.2159
  200MOL0     H27595   5.316   3.456   8.523  2.0051 -3.0456 -0.1651
  200MOL0     H27596   5.646   3.721   8.510 -0.4637  1.7584 -1.2183
  200MOL0     H27597   4.882   3.261   8.152  0.9836  1.1837 -1.2300
  200MOL0     H27598   4.646   3.114   8.133  3.1875 -1.7978 -1.0453
  200MOL0     H27599   4.537   3.213   8.012  0.9412  2.4143 -0.6501
  200MOL0     H27600   4.704   3.169   7.977  1.0260  0.5453  0.9552
  201MOL0     O27601   3.835   8.621   9.395 -0.9817 -0.1978 -0.2305
  201MOL0     C27602   3.750   8.672   9.328  0.0742 -1.1385  0.1467
  201MOL0     O27603   3.757   8.800   9.290  0.0961 -0.1918  0.2688
  201MOL0     C27604   3.870   8.873   9.300 -0.2568 -0.1319 -0.5942
  201MOL0     C27605   3.927   8.900   9.422 -0.1896  0.0014 -0.7677
  201MOL0     C27606   4.061   8.951   9.435  0.3820 -0.5416 -0.3322
  201MOL0     C27607   4.130   8.999   9.319  0.6375  0.2106  0.4969
  201MOL0     O27608   4.249   9.066   9.315  0.1401  0.4597  0.0872
  201MOL0     C27609   4.326   9.061   9.428 -0.7524 -0.5538  0.3770
  201MOL0     C27610   4.476   9.103   9.389  0.8250 -0.3554  0.0186
  201MOL0     C27611   4.562   9.073   9.512 -0.3936  0.0597  0.1457
  201MOL0     C27612   4.714   9.096   9.471 -0.0062  0.4029 -0.1252
  201MOL0     C27613   4.748   9.246   9.490 -0.0256  0.4316 -0.4884
  201MOL0     C27614   4.888   9.278   9.417  1.1269 -0.4102 -0.5424
  201MOL0     C27615   4.958   9.408   9.460 -0.7512  0.7154 -0.2211
  201MOL0     C27616   5.084   9.440   9.368  0.0274 -0.1954  0.4278
  201MOL0     N27617   5.210   9.368   9.402 -0.0899 -0.2366  0.0124
  201MOL0     C27618   5.248   9.238   9.381  0.2389  0.5465 -0.4787
  201MOL0     C27619   5.377   9.227   9.417  0.3798  0.1907 -0.2601
  201MOL0     C27620   5.457   9.094   9.441  0.4883  0.6672  0.0674
  201MOL0     C27621   5.598   9.107   9.383 -0.4602  0.2463  0.2106
  201MOL0     C27622   5.709   9.169   9.467  0.0654  0.1562 -0.2112
  201MOL0     C27623   5.855   9.156   9.399 -0.1936  0.7517 -0.2068
  201MOL0     O27624   5.845   9.243   9.288  0.0306  0.0421 -0.3122
  201MOL0     C27625   5.937   9.210   9.197 -0.0041  0.7497  0.7167
  201MOL0     C27626   5.927   9.089   9.130 -0.3264  0.4532  0.6003
  201MOL0     C27627   6.016   9.048   9.031  0.2449  0.8374  0.0857
  201MOL0     C27628   5.989   8.913   8.973 -0.2076  0.1148 -0.0900
  201MOL0     C27629   6.115   9.143   8.994 -0.1902  0.2730  0.9831
  201MOL0     C27630   6.228   9.102   8.902  0.2837 -0.1132  1.0151
  201MOL0     O27631   6.248   8.971   8.882 -0.1281  0.2163 -0.4579
  201MOL0     C27632   6.333   8.939   8.778  0.3062  0.3469 -0.1656
  201MOL0     C27633   6.475   8.927   8.795 -0.5500 -0.1636 -0.4215
  201MOL0     C27634   6.555   8.900   8.692 -0.3602  0.0630 -0.0169
  201MOL0     C27635   6.503   8.858   8.572  0.5273 -0.7907 -0.4852
  201MOL0     O27636   6.566   8.814   8.463  0.4370  0.1001 -0.3061
  201MOL0     C27637   6.683   8.880   8.438  0.8357  0.4953 -0.2261
  201MOL0     C27638   6.697   8.896   8.283  0.4941 -0.1051 -0.2746
  201MOL0     C27639   6.818   8.979   8.248 -0.3401  0.1302 -0.1981
  201MOL0     C27640   6.824   9.022   8.105 -0.7070 -0.7937 -0.2580
  201MOL0     C27641   6.866   8.907   8.010  0.5397  0.8939  0.4807
  201MOL0     C27642   7.021   8.912   7.989 -0.1146  0.2158  1.2821
  201MOL0     C27643   7.057   8.816   7.879  0.4429 -0.0006 -0.0974
  201MOL0     C27644   7.186   8.865   7.819 -0.2727 -0.8221  0.2331
  201MOL0    Cl27645   7.222   8.749   7.688  0.2378 -0.0212  0.6649
  201MOL0     C27646   6.358   8.863   8.557 -0.0854 -0.2376  0.5676
  201MOL0     C27647   6.277   8.903   8.656 -0.2377 -0.5536 -0.3400
  201MOL0     O27648   6.283   9.185   8.832 -0.4254 -0.1018  0.0833
  201MOL0     C27649   6.117   9.266   9.052 -0.5421 -0.0627  0.0828
  201MOL0     C27650   6.034   9.300   9.156  0.6601  0.2177 -0.5631
  201MOL0     N27651   5.418   9.355   9.453  0.0966  0.5412 -0.5005
  201MOL0     N27652   5.320   9.431   9.459  0.7678 -0.8329  0.1209
  201MOL0     C27653   4.063   8.979   9.195  0.4582  0.4408  0.0580
  201MOL0     C27654   3.942   8.908   9.183 -0.1131 -0.1668 -0.2289
  201MOL0     C27655   3.641   8.585   9.283  0.3093  0.0131  0.5044
  201MOL0     C27656   3.517   8.650   9.265 -0.0584  0.3541  0.1426
  201MOL0     C27657   3.405   8.567   9.241 -0.3457 -0.7881  0.2964
  201MOL0     C27658   3.418   8.424   9.243 -0.7957  0.1043  0.7175
  201MOL0     O27659   3.315   8.328   9.243 -0.2148 -0.6071 -0.2292
  201MOL0     C27660   3.181   8.362   9.267 -0.0373 -1.0227 -0.0863
  201MOL0     C27661   3.089   8.242   9.284  1.2085  0.5503  0.2424
  201MOL0     C27662   3.152   8.120   9.370 -0.7309 -0.3220  0.0077
  201MOL0     C27663   3.043   8.016   9.378 -0.1616  0.3682 -0.2884
  201MOL0     C27664   3.021   7.949   9.241 -1.1746 -0.1866  0.9553
  201MOL0     C27665   2.996   7.878   9.150  0.2347  0.0789  0.2132
  201MOL0     C27666   3.541   8.369   9.253 -0.9354  0.3832  0.4560
  201MOL0     C27667   3.657   8.444   9.272 -0.3051 -0.2562  0.4092
  201MOL0     C27668   3.786   8.367   9.270  0.4652  0.4048  0.0022
  201MOL0     H27669   3.879   8.885   9.519  1.0955 -0.3614 -0.1530
  201MOL0     H27670   4.110   8.954   9.531 -0.2704 -0.9184  0.0220
  201MOL0     H27671   4.332   8.963   9.477 -1.8575 -0.1722  1.3028
  201MOL0     H27672   4.291   9.123   9.510  0.0261 -1.8943  1.7712
  201MOL0     H27673   4.511   9.049   9.301  1.5514  0.0638  0.0386
  201MOL0     H27674   4.484   9.211   9.369  1.6993 -0.6230 -1.1986
  201MOL0     H27675   4.539   9.139   9.597 -0.4682  0.8744 -0.4908
  201MOL0     H27676   4.549   8.968   9.539 -3.8237  0.6515  1.2809
  201MOL0     H27677   4.780   9.058   9.549  2.0968  0.0300 -1.9976
  201MOL0     H27678   4.750   9.049   9.379 -0.4404  2.1196 -1.2353
  201MOL0     H27679   4.753   9.278   9.594 -2.5766  3.8012 -1.2425
  201MOL0     H27680   4.669   9.304   9.443 -2.1627  0.4364  2.8587
  201MOL0     H27681   4.955   9.200   9.454  0.1052 -0.5390  1.1709
  201MOL0     H27682   4.865   9.285   9.311 -0.7125  0.5997 -0.1244
  201MOL0     H27683   4.979   9.410   9.567  1.8225  2.2907 -0.6462
  201MOL0     H27684   4.883   9.486   9.448 -0.6731  0.6655 -1.1207
  201MOL0     H27685   5.055   9.425   9.264  1.1795 -0.4911  0.1253
  201MOL0     H27686   5.104   9.547   9.378 -0.8079 -0.1009  1.1849
  201MOL0     H27687   5.179   9.158   9.358  1.4007 -0.3639 -0.8456
  201MOL0     H27688   5.398   9.011   9.401 -0.7372  2.2666 -1.5495
  201MOL0     H27689   5.466   9.058   9.544  0.7899 -1.7845 -0.7357
  201MOL0     H27690   5.625   9.006   9.351 -1.9168  0.4013 -1.7069
  201MOL0     H27691   5.593   9.156   9.285  1.7994  0.2512  0.0450
  201MOL0     H27692   5.689   9.271   9.499 -1.4534  0.4175 -1.8684
  201MOL0     H27693   5.719   9.108   9.558  2.3043 -0.5289 -0.8431
  201MOL0     H27694   5.922   9.191   9.477 -1.9000 -0.0560  1.7104
  201MOL0     H27695   5.879   9.050   9.385  1.8456  1.1669 -0.1127
  201MOL0     H27696   5.851   9.015   9.153  0.2830 -0.0987  0.8778
  201MOL0     H27697   5.908   8.862   9.027 -2.8359  0.5786 -3.2278
  201MOL0     H27698   6.078   8.850   8.981 -0.2156 -0.3876 -2.8503
  201MOL0     H27699   5.946   8.926   8.873 -1.6200 -0.6991  0.3757
  201MOL0     H27700   6.528   8.941   8.888  1.0962  3.6338 -1.7529
  201MOL0     H27701   6.660   8.926   8.704  0.5316 -2.1636 -2.1012
  201MOL0     H27702   6.695   8.979   8.484  1.2845  0.5522 -0.4636
  201MOL0     H27703   6.767   8.822   8.477 -0.8208 -2.0183 -0.1722
  201MOL0     H27704   6.697   8.793   8.246  1.7740 -0.7149  1.2962
  201MOL0     H27705   6.609   8.949   8.246  1.2761  0.5403 -1.2656
  201MOL0     H27706   6.916   8.933   8.265 -1.1491 -1.6323 -0.0775
  201MOL0     H27707   6.810   9.073   8.304 -1.3482  0.7380 -1.3158
  201MOL0     H27708   6.898   9.102   8.106  0.9753 -2.2758 -0.9241
  201MOL0     H27709   6.732   9.063   8.063  0.4712  1.1481 -1.0886
  201MOL0     H27710   6.837   8.805   8.037  0.5508  0.5011 -0.9138
  201MOL0     H27711   6.816   8.924   7.914  1.9045 -1.0106 -0.6284
  201MOL0     H27712   7.072   8.887   8.082  0.3947 -2.7518  0.2926
  201MOL0     H27713   7.049   9.015   7.963 -0.4975  0.0026 -0.0652
  201MOL0     H27714   6.978   8.816   7.803  1.4973 -0.6355 -1.2214
  201MOL0     H27715   7.067   8.714   7.917 -1.1914 -0.4649 -0.8184
  201MOL0     H27716   7.266   8.864   7.894 -2.2049 -1.4039  2.4128
  201MOL0     H27717   7.191   8.967   7.780  2.7745 -1.3741 -1.0760
  201MOL0     H27718   6.309   8.832   8.466  2.2512 -0.5356 -0.6605
  201MOL0     H27719   6.169   8.903   8.652 -0.3621  2.5280  0.4316
  201MOL0     H27720   6.184   9.343   9.012 -1.8421  1.2832  0.4155
  201MOL0     H27721   6.019   9.401   9.192 -1.8713  0.3760 -1.8162
  201MOL0     H27722   4.114   9.002   9.102  1.3233 -1.0619  0.1221
  201MOL0     H27723   3.907   8.870   9.088  1.8627 -2.2307 -0.2199
  201MOL0     H27724   3.516   8.758   9.272 -1.6962  0.2930  1.6917
  201MOL0     H27725   3.308   8.610   9.223 -0.8546 -2.3109 -0.8844
  201MOL0     H27726   3.182   8.434   9.350  2.6024  0.2051 -1.0626
  201MOL0     H27727   3.148   8.421   9.181 -0.2216 -1.6572 -0.4563
  201MOL0     H27728   3.054   8.216   9.183 -0.1750 -0.5952  0.9884
  201MOL0     H27729   2.996   8.276   9.330 -0.4113 -1.1255 -1.5999
  201MOL0     H27730   3.245   8.077   9.330 -0.4155  2.2751 -2.3689
  201MOL0     H27731   3.177   8.166   9.466  2.7573 -0.4859 -0.6779
  201MOL0     H27732   2.952   8.060   9.418  1.8880  2.7998  2.1286
  201MOL0     H27733   3.079   7.931   9.437 -0.7793  0.3211  0.0255
  201MOL0     H27734   2.986   7.814   9.065 -0.2205  0.5567 -0.0964
  201MOL0     H27735   3.553   8.262   9.248  2.6725  0.4889  2.9872
  201MOL0     H27736   3.864   8.421   9.216 -2.1815  2.7529 -1.7210
  201MOL0     H27737   3.810   8.357   9.376  3.4268 -1.8724 -0.7445
  201MOL0     H27738   3.794   8.265   9.230  1.0627 -1.2242  3.8148
  202MOL0     O27739   6.197   3.333   9.274  0.3423 -0.4916 -0.2114
  202MOL0     C27740   6.285   3.372   9.348  0.4992 -0.0705 -0.2137
  202MOL0     O27741   6.269   3.462   9.448  0.1888  0.5603 -1.2389
  202MOL0     C27742   6.157   3.539   9.464  0.2958 -0.8043 -0.5483
  202MOL0     C27743   6.138   3.598   9.591  0.0697  0.3612 -0.8607
  202MOL0     C27744   6.042   3.701   9.622 -0.9205 -0.3365  0.4108
  202MOL0     C27745   5.960   3.751   9.520  0.0948 -0.0236 -0.1709
  202MOL0     O27746   5.844   3.827   9.544 -0.6376  0.2179  0.0562
  202MOL0     C27747   5.819   3.858   9.677  0.4036  0.3993  0.0361
  202MOL0     C27748   5.763   3.731   9.758 -0.3841 -0.7526  0.8480
  202MOL0     C27749   5.733   3.775   9.900  0.0132 -0.5409 -0.2135
  202MOL0     C27750   5.628   3.686   9.964 -0.3392  0.1737  0.6380
  202MOL0     C27751   5.595   3.727  10.111 -0.0472 -0.7772 -0.0259
  202MOL0     C27752   5.472   3.638  10.147  0.8253 -0.1380 -1.0538
  202MOL0     C27753   5.418   3.658  10.296  0.5435  0.4240  0.1221
  202MOL0     C27754   5.299   3.564  10.328  0.9042 -1.2226 -0.3160
  202MOL0     N27755   5.220   3.612  10.436  0.4130  0.4824  0.0796
  202MOL0     C27756   5.110   3.695  10.428 -0.2558  0.7663 -0.1600
  202MOL0     C27757   5.081   3.730  10.556 -0.6206  0.0689  0.0491
  202MOL0     C27758   4.980   3.824  10.604  0.5907 -0.2127 -0.0205
  202MOL0     C27759   4.852   3.800  10.529 -0.0092  0.1904  0.6336
  202MOL0     C27760   4.793   3.662  10.565  0.4647 -0.0523  0.2229
  202MOL0     C27761   4.680   3.645  10.473 -0.1176  0.1941  0.2121
  202MOL0     O27762   4.639   3.515  10.477 -0.3247  1.1424 -0.7178
  202MOL0     C27763   4.543   3.464  10.394 -0.9976  0.7656  0.0434
  202MOL0     C27764   4.478   3.542  10.302 -0.5990  0.7132 -1.0024
  202MOL0     C27765   4.372   3.492  10.226  0.2740  0.4205 -0.0384
  202MOL0     C27766   4.309   3.588  10.129  0.4300  0.7157 -0.5985
  202MOL0     C27767   4.337   3.352  10.245  0.4860 -0.2707 -0.3516
  202MOL0     C27768   4.233   3.281  10.171 -0.1319 -0.0076  0.2146
  202MOL0     O27769   4.234   3.151  10.172 -0.6563 -0.0557 -0.0698
  202MOL0     C27770   4.130   3.073  10.138  0.6069 -0.4274  0.0506
  202MOL0     C27771   4.042   3.100  10.032 -0.1842 -0.2377  0.1325
  202MOL0     C27772   3.955   2.998   9.985 -0.1164  0.1434 -0.2243
  202MOL0     C27773   3.940   2.878  10.061  0.4697  0.8026  0.0765
  202MOL0     O27774   3.839   2.797  10.016 -0.6180 -0.2058  1.0305
  202MOL0     C27775   3.787   2.694  10.103 -0.1847 -1.3647  0.2816
  202MOL0     C27776   3.669   2.626  10.027 -0.4168  0.5127  0.3986
  202MOL0     C27777   3.615   2.518  10.122  1.2866  0.0511 -0.4338
  202MOL0     C27778   3.665   2.375  10.089  1.1695 -0.3211 -0.1156
  202MOL0     C27779   3.650   2.296  10.212  0.8262  0.3034  0.4331
  202MOL0     C27780   3.695   2.154  10.190  0.6731 -0.1996 -0.1421
  202MOL0     C27781   3.668   2.057  10.303  0.2030 -0.1962 -0.6352
  202MOL0     C27782   3.518   2.038  10.319 -0.6054  1.0234 -0.4210
  202MOL0    Cl27783   3.466   1.931  10.194 -0.2722 -0.1464 -0.2314
  202MOL0     C27784   4.035   2.843  10.161  0.4526  1.6095  0.2591
  202MOL0     C27785   4.119   2.946  10.201 -0.1458  0.5759 -0.1750
  202MOL0     O27786   4.141   3.346  10.123 -0.0149  0.1140  0.0171
  202MOL0     C27787   4.411   3.280  10.341 -0.5149  0.6036  0.3091
  202MOL0     C27788   4.513   3.334  10.415 -0.3310  0.1078  0.1926
  202MOL0     N27789   5.189   3.680  10.637  0.3711 -0.4772 -0.1442
  202MOL0     N27790   5.262   3.604  10.563 -0.1088 -0.1753 -0.4532
  202MOL0     C27791   5.978   3.696   9.389 -0.1846 -0.0479 -0.3277
  202MOL0     C27792   6.071   3.591   9.363  0.4012 -0.0417  0.3204
  202MOL0     C27793   6.416   3.321   9.310  0.0807  0.6319  0.5223
  202MOL0     C27794   6.422   3.179   9.266  0.7419 -0.1450 -0.4428
  202MOL0     C27795   6.537   3.119   9.221 -0.2758  0.7061 -0.5084
  202MOL0     C27796   6.655   3.193   9.218 -0.3645  0.0813  0.1159
  202MOL0     O27797   6.778   3.143   9.165 -0.3650 -0.1535 -0.0324
  202MOL0     C27798   6.856   3.235   9.083 -0.3246  0.7586  0.1320
  202MOL0     C27799   6.992   3.245   9.123  0.0518 -0.1226  0.6208
  202MOL0     C27800   7.048   3.371   9.053 -0.1454 -0.6813 -0.1536
  202MOL0     C27801   7.203   3.397   9.071 -0.0165  0.0001  0.3372
  202MOL0     C27802   7.227   3.465   9.203 -0.4525  0.5352 -0.9826
  202MOL0     C27803   7.237   3.511   9.315 -0.4382  0.0386 -0.0641
  202MOL0     C27804   6.652   3.324   9.281  0.1787  0.1152 -0.0245
  202MOL0     C27805   6.534   3.396   9.319 -0.7400  0.3741  0.4748
  202MOL0     C27806   6.541   3.540   9.352 -0.7076  0.1348 -0.0842
  202MOL0     H27807   6.216   3.573   9.662 -1.2984 -0.1060  0.5301
  202MOL0     H27808   6.037   3.733   9.726 -1.0807  0.9969  0.0156
  202MOL0     H27809   5.737   3.930   9.675  1.4991  1.7603 -3.4619
  202MOL0     H27810   5.899   3.910   9.730 -0.8231  1.4195  0.9505
  202MOL0     H27811   5.685   3.675   9.706 -1.0776  0.4762  0.5238
  202MOL0     H27812   5.838   3.654   9.779 -0.2580 -0.8623  0.0469
  202MOL0     H27813   5.826   3.775   9.959 -0.4187  0.9416  0.5263
  202MOL0     H27814   5.698   3.879   9.894 -0.5552 -0.6465  0.8784
  202MOL0     H27815   5.534   3.685   9.908  1.1303  1.1566 -1.9874
  202MOL0     H27816   5.660   3.581   9.963 -0.7318  0.0511 -0.0922
  202MOL0     H27817   5.554   3.828  10.099  0.0491 -0.7214  0.1127
  202MOL0     H27818   5.677   3.729  10.183  0.3691  0.8787 -0.5003
  202MOL0     H27819   5.390   3.669  10.081 -0.4563 -0.4169  0.3354
  202MOL0     H27820   5.492   3.531  10.132 -0.8141 -1.3146  3.3500
  202MOL0     H27821   5.393   3.764  10.302 -0.0846  0.3511 -0.9693
  202MOL0     H27822   5.491   3.641  10.376  3.4757  2.2172 -2.0092
  202MOL0     H27823   5.238   3.547  10.238 -1.1304  2.3285  0.1973
  202MOL0     H27824   5.320   3.463  10.364  1.2848 -0.0233  3.1583
  202MOL0     H27825   5.053   3.711  10.337 -1.4572 -0.5580  0.3219
  202MOL0     H27826   5.010   3.926  10.579 -3.0750  0.3052 -3.1266
  202MOL0     H27827   4.950   3.812  10.709 -2.1746 -3.1409 -0.9842
  202MOL0     H27828   4.798   3.894  10.544  3.8380  2.9231 -0.7879
  202MOL0     H27829   4.874   3.789  10.422 -5.4891 -0.9735 -0.6562
  202MOL0     H27830   4.871   3.588  10.543  0.4677 -0.3208  1.1248
  202MOL0     H27831   4.756   3.666  10.667  1.2946  2.1633  0.4901
  202MOL0     H27832   4.595   3.696  10.519 -1.2831 -2.5282  1.3067
  202MOL0     H27833   4.704   3.691  10.377  1.3383  0.1076  0.5081
  202MOL0     H27834   4.500   3.648  10.294  1.1457  0.4488 -0.0763
  202MOL0     H27835   4.345   3.690  10.146  2.2169 -0.3453  2.9114
  202MOL0     H27836   4.200   3.583  10.124  0.4771  0.2588 -1.6632
  202MOL0     H27837   4.334   3.559  10.026 -1.9784  0.6886 -1.2304
  202MOL0     H27838   4.050   3.192   9.975 -0.8204 -0.9221 -1.1069
  202MOL0     H27839   3.884   3.013   9.904  0.2556  1.1046 -0.3829
  202MOL0     H27840   3.857   2.617  10.136  2.0265  0.3106 -0.2480
  202MOL0     H27841   3.742   2.745  10.189 -3.2636 -0.2258 -1.8155
  202MOL0     H27842   3.582   2.684   9.996 -1.2699 -1.5397 -1.3259
  202MOL0     H27843   3.708   2.570   9.941 -1.1817 -1.7246  1.4230
  202MOL0     H27844   3.507   2.532  10.119  1.4117  1.0693 -0.6917
  202MOL0     H27845   3.650   2.542  10.223  1.2782  0.3181 -0.4924
  202MOL0     H27846   3.769   2.368  10.056  1.3056 -1.9096  0.5376
  202MOL0     H27847   3.600   2.329  10.014 -0.5112  0.0572  1.0509
  202MOL0     H27848   3.708   2.343  10.292 -0.0833 -1.5372  2.2769
  202MOL0     H27849   3.545   2.301  10.241  1.0290 -0.1518  1.2732
  202MOL0     H27850   3.800   2.146  10.162  0.0502 -0.4676 -2.6084
  202MOL0     H27851   3.641   2.121  10.101  0.6776  1.5281 -0.8051
  202MOL0     H27852   3.705   2.100  10.396 -3.1518 -3.1208  2.2981
  202MOL0     H27853   3.718   1.960  10.290  2.4957  0.2893  3.1283
  202MOL0     H27854   3.460   2.130  10.317 -2.3330 -0.0037 -2.2061
  202MOL0     H27855   3.496   1.991  10.415  1.2940  1.3503  0.2124
  202MOL0     H27856   4.029   2.756  10.226 -0.6525 -0.0271 -1.8798
  202MOL0     H27857   4.192   2.930  10.280 -1.4497  0.6980  1.0820
  202MOL0     H27858   4.382   3.178  10.365  2.3440 -0.5655 -0.8380
  202MOL0     H27859   4.557   3.275  10.494 -0.6685 -0.4974 -0.0616
  202MOL0     H27860   5.923   3.741   9.307 -0.3483 -0.5703 -0.5086
  202MOL0     H27861   6.096   3.557   9.263  0.5036  1.2617 -0.1108
  202MOL0     H27862   6.330   3.122   9.272  0.6321  0.0700  0.0160
  202MOL0     H27863   6.528   3.014   9.198 -0.5000  0.1249  1.9630
  202MOL0     H27864   6.854   3.188   8.984 -2.6853  2.5054 -0.7423
  202MOL0     H27865   6.806   3.331   9.070 -0.9553  0.2549 -1.3803
  202MOL0     H27866   7.044   3.156   9.088  0.4251  0.0221  0.8062
  202MOL0     H27867   6.996   3.247   9.232 -1.6405 -1.4186  0.7478
  202MOL0     H27868   7.035   3.361   8.945  2.4815  0.7727 -0.6914
  202MOL0     H27869   6.992   3.459   9.087  0.5516  0.4527 -1.8093
  202MOL0     H27870   7.220   3.466   8.988 -4.5694 -1.2757 -1.9890
  202MOL0     H27871   7.250   3.300   9.058 -0.8819 -0.0950 -2.7264
  202MOL0     H27872   7.243   3.544   9.417 -1.6730  0.4468 -0.1043
  202MOL0     H27873   6.752   3.365   9.295  0.3928  0.5050 -2.3466
  202MOL0     H27874   6.515   3.544   9.458 -0.7161 -2.3194  0.0738
  202MOL0     H27875   6.631   3.588   9.312 -0.2996 -0.6033 -0.0730
  202MOL0     H27876   6.462   3.596   9.301 -0.6846 -0.0100 -0.2811
  203MOL0     O27877   0.996   8.086   2.224 -0.2429  0.2482 -0.3733
  203MOL0     C27878   1.054   8.181   2.273  0.6993  0.2852 -0.6914
  203MOL0     O27879   1.179   8.226   2.253  0.1943 -0.2600 -0.5211
  203MOL0     C27880   1.249   8.142   2.186 -0.0835 -0.7685 -0.3741
  203MOL0     C27881   1.278   8.183   2.047 -0.3796  0.0736 -0.3630
  203MOL0     C27882   1.372   8.116   1.975  0.0877  0.5272  0.3082
  203MOL0     C27883   1.451   8.019   2.038 -0.4556  0.1807 -0.0397
  203MOL0     O27884   1.552   7.967   1.955  0.1768 -0.6556 -0.7063
  203MOL0     C27885   1.669   7.906   2.006 -0.6699  0.0735 -0.9678
  203MOL0     C27886   1.791   7.983   1.972 -0.6925  0.3322  0.3314
  203MOL0     C27887   1.914   7.908   2.028 -0.6505 -0.0678 -0.5674
  203MOL0     C27888   2.040   7.996   2.053  0.3313  0.0166  0.1199
  203MOL0     C27889   2.119   7.949   2.182 -1.0148 -0.6702  0.3881
  203MOL0     C27890   2.241   8.036   2.197  0.1951 -0.4181  0.3218
  203MOL0     C27891   2.327   7.978   2.311  0.8309 -0.2723  0.4411
  203MOL0     C27892   2.456   8.058   2.322  0.6686 -0.5569  0.2675
  203MOL0     N27893   2.569   7.986   2.355 -0.2303  0.9096 -0.0973
  203MOL0     C27894   2.668   8.053   2.434  0.1121  0.3044 -0.2978
  203MOL0     C27895   2.772   7.972   2.440 -0.5413  0.2630  0.4561
  203MOL0     C27896   2.892   8.009   2.520  0.2166  0.1249  0.7309
  203MOL0     C27897   2.999   7.887   2.523  0.8744 -0.0924  0.6491
  203MOL0     C27898   3.115   7.910   2.614  0.3225 -0.2969 -0.7438
  203MOL0     C27899   3.087   7.908   2.758  0.5953 -0.2551 -0.4140
  203MOL0     O27900   3.213   7.885   2.833 -0.0076 -0.2479 -0.4790
  203MOL0     C27901   3.266   7.752   2.835 -0.0764 -0.7700 -0.7555
  203MOL0     C27902   3.197   7.631   2.809 -0.8019  0.5466  0.0245
  203MOL0     C27903   3.260   7.503   2.805 -0.6212 -0.1523 -0.9895
  203MOL0     C27904   3.177   7.385   2.781  0.3659 -0.3637  0.7803
  203MOL0     C27905   3.400   7.494   2.818 -0.3763  0.8050 -0.1014
  203MOL0     C27906   3.483   7.367   2.803 -0.0653  0.0455  0.4423
  203MOL0     O27907   3.617   7.381   2.828 -1.0267  0.5118  0.4807
  203MOL0     C27908   3.711   7.294   2.770  0.0510 -0.0307  0.1992
  203MOL0     C27909   3.698   7.226   2.648 -0.4533  0.5261  0.7985
  203MOL0     C27910   3.810   7.162   2.598 -0.2412  0.5415  0.2653
  203MOL0     C27911   3.932   7.148   2.676 -0.1673 -0.7921  0.3068
  203MOL0     O27912   4.035   7.069   2.640 -0.2722  0.4597 -0.0715
  203MOL0     C27913   4.006   6.959   2.556 -1.2036  0.6982 -0.5382
  203MOL0     C27914   4.057   6.978   2.416  0.1093  0.0653  0.4125
  203MOL0     C27915   4.196   7.056   2.417  0.3564  0.3775  0.3009
  203MOL0     C27916   4.308   6.956   2.464 -0.7122 -0.4278  0.3477
  203MOL0     C27917   4.457   6.992   2.405  0.3778 -0.0117 -0.3905
  203MOL0     C27918   4.554   6.891   2.464 -0.9410  0.4293  0.1474
  203MOL0     C27919   4.699   6.908   2.401 -0.3455 -0.2795 -0.3544
  203MOL0     C27920   4.766   7.040   2.431 -0.2301  0.5218 -0.6168
  203MOL0    Cl27921   4.762   7.074   2.608  0.6443  0.2674 -0.0609
  203MOL0     C27922   3.936   7.219   2.792 -0.1814  0.3934 -0.3908
  203MOL0     C27923   3.826   7.288   2.844 -0.8958 -0.0826 -0.5474
  203MOL0     O27924   3.427   7.268   2.758  0.5542 -0.8565  0.3247
  203MOL0     C27925   3.467   7.614   2.860 -0.6873  0.1624  0.3514
  203MOL0     C27926   3.398   7.737   2.869  0.7821  0.3540 -0.8154
  203MOL0     N27927   2.746   7.860   2.350  0.1392 -0.0325 -0.3438
  203MOL0     N27928   2.620   7.864   2.309  0.4639 -0.2136  0.2498
  203MOL0     C27929   1.430   7.973   2.165  0.7305 -0.0669  0.2886
  203MOL0     C27930   1.329   8.040   2.240 -0.4491  0.3954 -0.1315
  203MOL0     C27931   0.982   8.245   2.381 -0.2826 -0.5115  0.8742
  203MOL0     C27932   0.996   8.384   2.389 -0.0294  0.7245  0.4379
  203MOL0     C27933   0.915   8.458   2.473  0.0145  0.1514 -0.2217
  203MOL0     C27934   0.820   8.400   2.555 -0.8692  0.0966 -0.3224
  203MOL0     O27935   0.748   8.478   2.649 -0.2370  0.0298  0.0083
  203MOL0     C27936   0.677   8.424   2.755 -0.8041 -0.0150 -0.7656
  203MOL0     C27937   0.626   8.539   2.836  0.1954  0.6701 -0.1085
  203MOL0     C27938   0.732   8.654   2.860 -0.0318 -0.8313  0.3783
  203MOL0     C27939   0.690   8.750   2.973  0.1185 -0.2647 -0.0484
  203MOL0     C27940   0.555   8.806   2.959  0.1157  0.7878  0.3854
  203MOL0     C27941   0.439   8.846   2.961 -0.2863  0.1981 -0.3511
  203MOL0     C27942   0.821   8.252   2.559 -0.4673 -0.0433  0.3281
  203MOL0     C27943   0.898   8.181   2.468  0.5706 -1.0165 -0.1950
  203MOL0     C27944   0.882   8.028   2.476 -0.2498  0.2038  0.1525
  203MOL0     H27945   1.243   8.277   2.005  0.3517  0.3131 -0.4613
  203MOL0     H27946   1.397   8.139   1.872  1.0829  2.6669  0.9778
  203MOL0     H27947   1.670   7.802   1.974 -1.4276 -0.8929  1.9347
  203MOL0     H27948   1.663   7.898   2.115  0.4223  0.5421 -0.8569
  203MOL0     H27949   1.796   7.992   1.863  1.7105 -0.0755  0.3566
  203MOL0     H27950   1.780   8.084   2.013 -1.1873  0.1089  0.7546
  203MOL0     H27951   1.887   7.870   2.126  1.1722  0.1829  0.0782
  203MOL0     H27952   1.944   7.826   1.962  1.6394 -0.4590  0.8192
  203MOL0     H27953   2.102   7.992   1.964 -0.8920  1.5457 -0.8530
  203MOL0     H27954   2.018   8.103   2.058  0.5173  0.3011 -3.2509
  203MOL0     H27955   2.147   7.843   2.175 -0.2634 -0.4729  0.3324
  203MOL0     H27956   2.051   7.960   2.266 -4.5912  0.5673 -2.3796
  203MOL0     H27957   2.291   8.033   2.100  2.7731  0.2334  1.5299
  203MOL0     H27958   2.211   8.141   2.210 -1.7834 -0.7353 -1.2901
  203MOL0     H27959   2.348   7.872   2.295  0.3672 -0.6881  2.2939
  203MOL0     H27960   2.279   7.990   2.409  2.3847  1.4899  1.0353
  203MOL0     H27961   2.478   8.091   2.220 -1.4157  2.6910  0.7123
  203MOL0     H27962   2.445   8.151   2.378 -0.3421 -1.9352  2.4798
  203MOL0     H27963   2.659   8.140   2.499  0.8094 -0.2540  0.5705
  203MOL0     H27964   2.873   8.046   2.621  1.6541 -0.9328  1.4422
  203MOL0     H27965   2.945   8.087   2.465 -0.3252  1.6600  2.3050
  203MOL0     H27966   2.943   7.798   2.553  1.5345 -0.7067  0.0999
  203MOL0     H27967   3.028   7.871   2.419  1.8947  1.0267  0.7354
  203MOL0     H27968   3.185   7.827   2.602 -3.9356 -4.0933 -2.2280
  203MOL0     H27969   3.151   8.011   2.592 -4.4440  1.7323 -0.4351
  203MOL0     H27970   3.048   8.007   2.784 -0.5512 -0.4050 -1.4699
  203MOL0     H27971   3.013   7.833   2.789 -0.2422  1.5897  2.4853
  203MOL0     H27972   3.090   7.638   2.791 -0.5502  2.0954 -1.1314
  203MOL0     H27973   3.177   7.323   2.871 -1.5424  1.4661  2.1282
  203MOL0     H27974   3.208   7.327   2.693  1.8028  1.9685 -0.3562
  203MOL0     H27975   3.074   7.420   2.777  0.8967  1.3812  1.5390
  203MOL0     H27976   3.604   7.219   2.594  0.0447  0.9953 -0.1570
  203MOL0     H27977   3.799   7.107   2.504  2.4800 -0.9068  0.6889
  203MOL0     H27978   4.065   6.873   2.589 -1.0881 -0.4258 -3.3564
  203MOL0     H27979   3.904   6.923   2.568 -0.9774  0.7041  1.7906
  203MOL0     H27980   4.078   6.883   2.366  1.8536  0.5288  0.1745
  203MOL0     H27981   3.980   7.030   2.357  0.0179 -0.0818  0.4017
  203MOL0     H27982   4.193   7.147   2.478  0.3116  0.7520 -0.2536
  203MOL0     H27983   4.227   7.099   2.322  1.4227  3.2877  1.8373
  203MOL0     H27984   4.291   6.852   2.433  0.9096 -0.4352 -0.6159
  203MOL0     H27985   4.320   6.965   2.572 -0.6131  0.6024  0.2609
  203MOL0     H27986   4.460   6.990   2.296  0.9986  0.6385 -0.3944
  203MOL0     H27987   4.477   7.095   2.436  0.0464  0.0973 -0.5306
  203MOL0     H27988   4.515   6.792   2.439 -2.3011  0.3659  2.2546
  203MOL0     H27989   4.569   6.886   2.572 -0.1683  1.1076  0.0818
  203MOL0     H27990   4.681   6.893   2.294  0.5814 -3.0566 -0.2026
  203MOL0     H27991   4.769   6.834   2.439 -0.5489 -1.1784 -1.6600
  203MOL0     H27992   4.716   7.123   2.380 -1.1308  1.1318  1.1996
  203MOL0     H27993   4.868   7.042   2.390  0.7162 -0.0726  1.5780
  203MOL0     H27994   4.028   7.226   2.848 -0.4756  4.4689 -0.0650
  203MOL0     H27995   3.830   7.345   2.936 -0.0744 -1.2690  0.1767
  203MOL0     H27996   3.575   7.606   2.863 -0.7314 -1.4420 -1.0043
  203MOL0     H27997   3.461   7.822   2.896 -0.5753  1.1575 -0.0134
  203MOL0     H27998   1.480   7.887   2.208 -0.4440 -2.1595 -2.2433
  203MOL0     H27999   1.319   8.011   2.344  0.3005 -1.0093 -0.4193
  203MOL0     H28000   1.070   8.433   2.326 -1.4193  0.6933 -1.2947
  203MOL0     H28001   0.913   8.567   2.476 -0.2668  0.1617 -0.7986
  203MOL0     H28002   0.597   8.361   2.717 -1.2323 -1.1348  1.8324
  203MOL0     H28003   0.746   8.358   2.808 -0.0430  0.2653 -1.3729
  203MOL0     H28004   0.593   8.499   2.933 -1.5551  0.1965 -0.8636
  203MOL0     H28005   0.538   8.577   2.784 -0.4026 -2.4046 -1.5587
  203MOL0     H28006   0.830   8.619   2.895  1.4079  0.2716 -2.2082
  203MOL0     H28007   0.748   8.715   2.770 -0.4926  2.0916  2.1291
  203MOL0     H28008   0.752   8.839   2.970 -2.7866  1.8973 -1.0084
  203MOL0     H28009   0.693   8.698   3.069 -0.1515  0.3171  0.2851
  203MOL0     H28010   0.344   8.895   2.962  0.5809  1.9740  1.2882
  203MOL0     H28011   0.753   8.195   2.623 -1.0038 -1.4478 -1.4129
  203MOL0     H28012   0.876   7.997   2.581  0.0308  0.0087  0.1127
  203MOL0     H28013   0.788   8.009   2.423  0.1344 -0.7873 -0.1780
  203MOL0     H28014   0.962   7.973   2.425  0.1899  1.3916 -0.4758
  204MOL0     O28015   1.083   7.756   6.024  0.6012 -0.0624 -0.4498
  204MOL0     C28016   1.042   7.814   6.124 -0.3341  0.0509 -0.5237
  204MOL0     O28017   1.107   7.845   6.240 -0.6604 -0.0314 -0.1205
  204MOL0     C28018   1.241   7.812   6.249 -0.7477 -0.3837  0.0573
  204MOL0     C28019   1.349   7.897   6.247 -0.3895 -0.7083  1.0847
  204MOL0     C28020   1.478   7.840   6.245 -0.2927  0.3913  0.4860
  204MOL0     C28021   1.501   7.696   6.260 -1.4387  0.1254  0.8280
  204MOL0     O28022   1.634   7.659   6.244 -0.4555 -0.6397  0.8136
  204MOL0     C28023   1.688   7.523   6.255  0.1606  0.9215 -0.2506
  204MOL0     C28024   1.712   7.486   6.401  0.2396 -0.7317 -0.2780
  204MOL0     C28025   1.861   7.495   6.448  0.1707  0.1987  0.6097
  204MOL0     C28026   1.865   7.465   6.590 -0.2724 -0.5332 -0.5290
  204MOL0     C28027   2.016   7.485   6.631 -0.6111 -0.0598  0.4376
  204MOL0     C28028   2.052   7.631   6.653  0.0311 -0.5128 -0.1845
  204MOL0     C28029   2.196   7.650   6.663 -0.5246  0.1371 -0.2289
  204MOL0     C28030   2.202   7.788   6.725 -0.5628 -0.0481 -0.8495
  204MOL0     N28031   2.352   7.833   6.713 -0.4249 -0.0307 -0.2122
  204MOL0     C28032   2.412   7.915   6.806  0.6912 -0.4527  0.2199
  204MOL0     C28033   2.545   7.917   6.771  0.5445 -0.2760  0.0566
  204MOL0     C28034   2.668   7.981   6.833 -0.0459  1.0191  0.3293
  204MOL0     C28035   2.717   8.098   6.758 -0.1220  0.0947  1.1659
  204MOL0     C28036   2.857   8.146   6.815 -0.0281  0.0268  0.2698
  204MOL0     C28037   2.878   8.281   6.765  0.1720 -0.7808  0.3164
  204MOL0     O28038   3.004   8.330   6.800  0.2647 -0.3177  0.6144
  204MOL0     C28039   3.030   8.393   6.912 -0.5203  0.0614  0.5106
  204MOL0     C28040   2.951   8.389   7.032 -0.3515 -0.3686 -0.2952
  204MOL0     C28041   3.003   8.424   7.165 -0.3948 -0.5349  0.4892
  204MOL0     C28042   2.910   8.440   7.280 -0.8546 -0.4199  0.5210
  204MOL0     C28043   3.143   8.461   7.170 -0.1053  0.4990  0.1096
  204MOL0     C28044   3.218   8.515   7.291  0.4725 -0.7539 -0.4416
  204MOL0     O28045   3.352   8.554   7.267  0.9115  0.1259  0.6174
  204MOL0     C28046   3.437   8.605   7.360  0.0280 -0.9516  0.5365
  204MOL0     C28047   3.438   8.568   7.501 -0.7996 -0.1251 -0.1866
  204MOL0     C28048   3.546   8.603   7.587  0.1400 -0.3876  0.0900
  204MOL0     C28049   3.660   8.668   7.534  0.4620  0.1628 -0.2977
  204MOL0     O28050   3.778   8.675   7.592 -0.0742 -0.5593 -0.0274
  204MOL0     C28051   3.790   8.656   7.736 -0.0699  0.1588 -0.4008
  204MOL0     C28052   3.935   8.666   7.780 -0.0185 -0.4695  0.3982
  204MOL0     C28053   3.983   8.813   7.763 -0.1148 -0.1559 -0.2522
  204MOL0     C28054   4.046   8.862   7.890  0.5949 -0.0398  1.2260
  204MOL0     C28055   3.950   8.926   7.991 -0.1407  0.1213  0.0985
  204MOL0     C28056   4.020   9.024   8.085 -0.1371  0.0318 -0.4323
  204MOL0     C28057   3.902   9.097   8.159  0.7566 -0.1327 -0.5176
  204MOL0     C28058   3.912   9.249   8.143 -0.8289  0.1421 -0.4151
  204MOL0    Cl28059   4.058   9.309   8.207  0.0085 -0.1536  0.0810
  204MOL0     C28060   3.653   8.703   7.401  0.0406 -0.4580 -1.3323
  204MOL0     C28061   3.547   8.668   7.312 -0.3011 -0.5721 -0.1420
  204MOL0     O28062   3.155   8.525   7.394  0.0010 -1.0073 -0.2402
  204MOL0     C28063   3.218   8.464   7.056  0.2122  0.3261  0.0977
  204MOL0     C28064   3.160   8.442   6.921  0.4229 -0.9051  0.1947
  204MOL0     N28065   2.556   7.832   6.659  0.1708 -0.2532 -0.0174
  204MOL0     N28066   2.446   7.788   6.622  0.5140  0.1250  0.2085
  204MOL0     C28067   1.393   7.616   6.287 -0.6129 -0.2200  0.0130
  204MOL0     C28068   1.265   7.674   6.284  0.7584 -0.9433 -0.2012
  204MOL0     C28069   0.899   7.860   6.116  0.0863 -0.0797  0.8413
  204MOL0     C28070   0.823   7.862   6.236 -0.6993 -0.6675  0.0770
  204MOL0     C28071   0.695   7.912   6.235 -0.1993 -0.0926  0.5110
  204MOL0     C28072   0.632   7.954   6.116  0.2223  0.1648  0.3716
  204MOL0     O28073   0.500   7.992   6.112  0.1638  0.1334 -0.8195
  204MOL0     C28074   0.416   7.990   5.994  0.1274  0.0690  0.8231
  204MOL0     C28075   0.270   7.989   6.028 -0.2451 -0.7038  0.1671
  204MOL0     C28076   0.244   8.074   6.154  0.6492 -0.2260 -0.7819
  204MOL0     C28077   0.094   8.074   6.184 -0.2886 -0.2119  0.3150
  204MOL0     C28078   0.076   8.145   6.313  0.0631  0.2629 -0.0716
  204MOL0     C28079   0.046   8.209   6.410 -0.0057  0.3229 -0.1951
  204MOL0     C28080   0.707   7.946   5.996 -0.1099  0.0569  0.2007
  204MOL0     C28081   0.843   7.903   5.993  0.2006 -0.3204 -0.7692
  204MOL0     C28082   0.904   7.914   5.856  0.5285 -0.0494  0.6137
  204MOL0     H28083   1.326   8.003   6.237 -1.9165 -1.0362  0.9101
  204MOL0     H28084   1.566   7.902   6.234  0.1071 -0.3961 -1.0102
  204MOL0     H28085   1.783   7.526   6.200 -0.4744  1.5174 -1.3463
  204MOL0     H28086   1.624   7.445   6.215  0.4689 -0.3387  1.6042
  204MOL0     H28087   1.668   7.568   6.458  0.1892  2.3953 -4.3210
  204MOL0     H28088   1.663   7.391   6.424  0.2180 -0.6493  0.0266
  204MOL0     H28089   1.914   7.416   6.394  1.7376 -2.2284  5.1454
  204MOL0     H28090   1.898   7.596   6.429 -1.7280  1.2795  2.1935
  204MOL0     H28091   1.811   7.539   6.650  1.3931  0.0830  0.2689
  204MOL0     H28092   1.826   7.364   6.605  0.2988 -0.4800  1.6702
  204MOL0     H28093   2.080   7.439   6.555 -0.7868  1.9394 -1.0032
  204MOL0     H28094   2.042   7.427   6.720  1.6629 -1.4881 -1.0504
  204MOL0     H28095   2.016   7.698   6.574 -0.6548  1.0697  1.3909
  204MOL0     H28096   2.007   7.664   6.748  1.3870 -0.3502  0.4286
  204MOL0     H28097   2.245   7.653   6.565  2.1341 -0.8459  0.9567
  204MOL0     H28098   2.246   7.578   6.729  0.4320 -1.0381 -2.1414
  204MOL0     H28099   2.146   7.861   6.666 -0.2062 -1.4047 -2.9538
  204MOL0     H28100   2.174   7.790   6.831  0.4836  3.0212 -0.5368
  204MOL0     H28101   2.363   7.968   6.887 -1.2823 -1.0674 -0.5131
  204MOL0     H28102   2.746   7.904   6.832 -1.2422 -0.2874  1.8714
  204MOL0     H28103   2.654   7.999   6.940 -0.4748 -1.3105  0.7210
  204MOL0     H28104   2.710   8.072   6.652 -1.6729 -1.4098  1.5945
  204MOL0     H28105   2.649   8.181   6.775  1.8232  1.7448  1.3292
  204MOL0     H28106   2.849   8.156   6.924  0.4726  1.7002  0.1684
  204MOL0     H28107   2.942   8.083   6.789 -0.4090  0.4006 -2.0603
  204MOL0     H28108   2.874   8.275   6.656 -0.7567 -0.5608  0.3311
  204MOL0     H28109   2.800   8.346   6.806  1.5071  0.6307  0.7254
  204MOL0     H28110   2.848   8.363   7.014 -1.5562  2.4655  1.6718
  204MOL0     H28111   2.931   8.529   7.340  2.9113 -0.5780 -0.2775
  204MOL0     H28112   2.914   8.351   7.344 -2.5127 -1.4532 -0.7349
  204MOL0     H28113   2.811   8.454   7.238 -0.7286  0.1845  0.4160
  204MOL0     H28114   3.341   8.529   7.532 -2.0579 -0.3664 -3.9516
  204MOL0     H28115   3.554   8.552   7.682  2.4303 -1.5611 -0.6450
  204MOL0     H28116   3.725   8.728   7.788 -0.7682  0.4820 -1.6732
  204MOL0     H28117   3.759   8.554   7.758  0.0481  0.6184  2.1704
  204MOL0     H28118   3.956   8.621   7.877 -1.1408  0.8090  1.2646
  204MOL0     H28119   3.982   8.604   7.703 -1.7142 -0.5884 -0.5995
  204MOL0     H28120   3.899   8.875   7.731  0.3649 -0.7778 -2.9267
  204MOL0     H28121   4.054   8.827   7.681 -0.7446 -1.9692 -1.1701
  204MOL0     H28122   4.123   8.931   7.853  0.2562 -1.8640 -3.7232
  204MOL0     H28123   4.097   8.784   7.947 -0.7907  0.0759  2.6767
  204MOL0     H28124   3.878   8.983   7.933 -2.6940 -0.5121  2.4441
  204MOL0     H28125   3.897   8.849   8.049 -0.3763 -1.5301 -2.1873
  204MOL0     H28126   4.071   9.093   8.016  0.0183 -0.6106 -0.9654
  204MOL0     H28127   4.084   8.987   8.165 -0.4041 -0.0432 -0.2514
  204MOL0     H28128   3.895   9.055   8.260  1.3220  0.8563 -0.0549
  204MOL0     H28129   3.804   9.072   8.118  1.3399 -1.5352 -1.1203
  204MOL0     H28130   3.832   9.304   8.193 -1.9752 -0.5768 -1.4158
  204MOL0     H28131   3.905   9.270   8.036 -1.2733 -5.2855 -1.7057
  204MOL0     H28132   3.741   8.755   7.363 -1.3207  1.7070 -1.7240
  204MOL0     H28133   3.564   8.683   7.206 -0.4291 -0.0767 -0.0913
  204MOL0     H28134   3.317   8.507   7.050 -0.7440  2.8068  0.7792
  204MOL0     H28135   3.216   8.454   6.829  0.8060  3.6645  0.8004
  204MOL0     H28136   1.407   7.511   6.307  1.1240  0.1217  0.7929
  204MOL0     H28137   1.177   7.616   6.309 -1.0315  0.7517 -2.1851
  204MOL0     H28138   0.862   7.821   6.329 -0.9500 -0.3132  0.3396
  204MOL0     H28139   0.633   7.904   6.324  0.0414 -0.7911  0.6216
  204MOL0     H28140   0.436   8.080   5.935 -1.8105  2.1536  3.1207
  204MOL0     H28141   0.440   7.902   5.934 -0.9601 -0.4646  1.1285
  204MOL0     H28142   0.241   7.884   6.041  1.2334 -1.1076  0.4503
  204MOL0     H28143   0.216   8.027   5.940 -1.4059 -2.0714  0.2623
  204MOL0     H28144   0.298   8.042   6.243  0.0217 -0.4398 -0.4737
  204MOL0     H28145   0.272   8.178   6.134  0.5403 -0.1113 -0.3551
  204MOL0     H28146   0.041   7.979   6.196 -2.6301  1.3286  4.1367
  204MOL0     H28147   0.049   8.133   6.103 -0.1102 -0.8153 -0.2345
  204MOL0     H28148   0.017   8.269   6.494  1.7828 -0.0547  0.7473
  204MOL0     H28149   0.667   7.973   5.899  1.0423  1.9807  0.2000
  204MOL0     H28150   0.837   7.966   5.786 -1.5408 -3.2634  0.0279
  204MOL0     H28151   0.987   7.985   5.865 -0.7220  1.3585  1.6033
  204MOL0     H28152   0.935   7.827   5.798  2.6207  2.6551 -2.7039
  205MOL0     O28153   2.941   9.214   7.128  0.1383 -0.0833  0.3086
  205MOL0     C28154   2.906   9.264   7.021  0.7733 -0.3801  0.0311
  205MOL0     O28155   2.969   9.368   6.954  0.3143  0.3662 -0.5543
  205MOL0     C28156   3.081   9.423   6.995 -0.8877  0.3436  0.6370
  205MOL0     C28157   3.083   9.552   7.029  0.0247 -0.5072 -0.2846
  205MOL0     C28158   3.197   9.615   7.066  0.4572 -0.6755 -0.3578
  205MOL0     C28159   3.322   9.549   7.059 -0.0787  0.1870  0.3256
  205MOL0     O28160   3.438   9.619   7.088 -1.0352  0.1888  0.0221
  205MOL0     C28161   3.565   9.547   7.115  0.1160  0.8173  0.0725
  205MOL0     C28162   3.636   9.604   7.237 -0.1939 -0.6567  0.5744
  205MOL0     C28163   3.786   9.569   7.237 -0.1949 -0.0419  0.2949
  205MOL0     C28164   3.873   9.648   7.332 -0.0216 -0.3862 -0.5128
  205MOL0     C28165   4.022   9.608   7.323  0.5804 -0.0233 -0.3283
  205MOL0     C28166   4.103   9.698   7.428  0.4807  0.6445  0.2849
  205MOL0     C28167   4.256   9.665   7.415 -0.0755  0.0049 -0.8179
  205MOL0     C28168   4.323   9.721   7.537  0.7236  0.5705  0.4464
  205MOL0     N28169   4.464   9.757   7.506 -0.5550 -0.2246 -0.8170
  205MOL0     C28170   4.552   9.725   7.399  0.4883 -1.3778  0.5424
  205MOL0     C28171   4.679   9.735   7.436  0.4858 -0.1232 -0.0665
  205MOL0     C28172   4.800   9.700   7.359 -0.2218 -0.6263 -0.1068
  205MOL0     C28173   4.826   9.558   7.342 -0.4713  0.7210  1.0104
  205MOL0     C28174   4.975   9.525   7.329  1.0657 -0.2106 -0.1488
  205MOL0     C28175   5.013   9.377   7.321 -0.9815  0.2127  0.3356
  205MOL0     O28176   4.989   9.320   7.193  0.2613 -0.3610 -0.4998
  205MOL0     C28177   5.060   9.348   7.077 -0.4916  0.3810 -0.3722
  205MOL0     C28178   5.021   9.282   6.963 -0.3297  0.7967 -0.7005
  205MOL0     C28179   5.085   9.301   6.844 -0.1379 -0.1647 -0.8077
  205MOL0     C28180   5.015   9.233   6.725 -0.4822 -0.4052 -0.8915
  205MOL0     C28181   5.200   9.381   6.836 -0.4709  0.1060  0.3149
  205MOL0     C28182   5.270   9.408   6.698  0.0521 -0.0098 -0.2697
  205MOL0     O28183   5.316   9.300   6.629  0.5634 -1.0018 -0.0774
  205MOL0     C28184   5.397   9.325   6.523  0.5530  1.2651  0.4727
  205MOL0     C28185   5.364   9.273   6.398  0.3820  0.3836  0.7666
  205MOL0     C28186   5.446   9.304   6.287  1.0975 -0.2124  0.3108
  205MOL0     C28187   5.561   9.381   6.305  0.2976  0.1317 -0.5076
  205MOL0     O28188   5.627   9.423   6.196 -0.1707  0.1505 -1.4198
  205MOL0     C28189   5.700   9.314   6.133 -0.2023 -0.0609  0.0503
  205MOL0     C28190   5.841   9.376   6.111 -0.6663  0.1448 -0.0705
  205MOL0     C28191   5.941   9.276   6.068  0.0330  0.0656  0.1085
  205MOL0     C28192   6.080   9.343   6.059  0.3587  0.0638 -0.1578
  205MOL0     C28193   6.166   9.230   6.014 -0.3507  0.1073  0.4950
  205MOL0     C28194   6.308   9.280   5.969  0.4038  0.0332 -0.3694
  205MOL0     C28195   6.411   9.164   5.967 -0.7998 -0.5102  0.3551
  205MOL0     C28196   6.554   9.231   5.943 -0.7026 -0.2952  0.6987
  205MOL0    Cl28197   6.606   9.366   6.062  0.7955 -0.1839  0.1294
  205MOL0     C28198   5.598   9.419   6.432 -0.2253  0.0318 -0.7886
  205MOL0     C28199   5.509   9.396   6.541 -1.0259  0.7744 -0.4486
  205MOL0     O28200   5.288   9.525   6.667  0.6965 -0.2503 -0.2295
  205MOL0     C28201   5.228   9.455   6.953  0.1147  0.6524 -0.2013
  205MOL0     C28202   5.161   9.433   7.069 -0.1593  0.8926 -0.8791
  205MOL0     N28203   4.678   9.774   7.565 -0.0677  0.3821  1.0029
  205MOL0     N28204   4.556   9.782   7.607  0.1655 -0.7244 -0.1688
  205MOL0     C28205   3.318   9.409   7.024  0.0421  0.7390 -0.3152
  205MOL0     C28206   3.200   9.347   6.986  0.2771 -0.2477 -0.1641
  205MOL0     C28207   2.774   9.206   6.971 -0.2129 -0.7795  0.4960
  205MOL0     C28208   2.678   9.169   7.064  0.1479 -0.2142 -0.2994
  205MOL0     C28209   2.559   9.116   7.022  0.3938  0.0886  0.6186
  205MOL0     C28210   2.523   9.114   6.885  0.9873  0.3593 -0.7172
  205MOL0     O28211   2.393   9.079   6.856 -0.1295  0.6388 -0.1198
  205MOL0     C28212   2.372   9.076   6.712  0.4349 -0.0564  1.3277
  205MOL0     C28213   2.230   9.016   6.671  0.1369  0.2895 -0.6856
  205MOL0     C28214   2.112   9.126   6.660 -0.0132  0.1173  0.0462
  205MOL0     C28215   1.968   9.074   6.677 -0.5688 -0.8391 -1.2831
  205MOL0     C28216   1.909   9.036   6.553 -0.0423  0.0469  0.0903
  205MOL0     C28217   1.857   8.986   6.460  0.0120  0.3539 -0.7088
  205MOL0     C28218   2.620   9.157   6.792 -0.2313  0.7607  0.8233
  205MOL0     C28219   2.753   9.197   6.829  0.3236  0.9546 -0.8839
  205MOL0     C28220   2.865   9.224   6.729 -0.6285  0.1940 -0.1676
  205MOL0     H28221   2.985   9.600   7.030  0.3711  0.2598 -1.3244
  205MOL0     H28222   3.192   9.719   7.096  1.6751 -0.6145 -0.3191
  205MOL0     H28223   3.626   9.559   7.025  0.0028  1.0749  0.0281
  205MOL0     H28224   3.556   9.439   7.130 -2.4179  0.8228 -0.8995
  205MOL0     H28225   3.624   9.713   7.233  1.4109 -0.4678  0.4840
  205MOL0     H28226   3.583   9.572   7.328 -0.0177  0.8335  1.2399
  205MOL0     H28227   3.794   9.461   7.250  0.1882 -0.1302 -0.5912
  205MOL0     H28228   3.820   9.596   7.137  2.8796  2.0006  1.7537
  205MOL0     H28229   3.862   9.755   7.308 -0.8334 -0.6128 -1.1957
  205MOL0     H28230   3.835   9.628   7.433  4.7515 -0.3062  1.5493
  205MOL0     H28231   4.066   9.619   7.224  1.3853  0.5166  0.0832
  205MOL0     H28232   4.027   9.505   7.360  0.3845  0.6883  1.8240
  205MOL0     H28233   4.090   9.805   7.408  1.2993  1.2587  2.6618
  205MOL0     H28234   4.076   9.675   7.531  1.2970  1.4501  0.6983
  205MOL0     H28235   4.303   9.719   7.332  3.8012  0.4664  1.4175
  205MOL0     H28236   4.289   9.561   7.406  1.8784  0.4997  0.0708
  205MOL0     H28237   4.256   9.797   7.578 -1.9625 -0.0216 -2.4918
  205MOL0     H28238   4.334   9.649   7.619  0.7385  0.8538  0.6937
  205MOL0     H28239   4.505   9.700   7.304 -1.3777  0.1159  1.0260
  205MOL0     H28240   4.885   9.745   7.412 -0.9756  2.4096 -1.2565
  205MOL0     H28241   4.793   9.749   7.262 -1.5604  3.3806  1.7871
  205MOL0     H28242   4.769   9.499   7.415 -0.6968 -1.0749 -0.5400
  205MOL0     H28243   4.773   9.527   7.252  0.2878 -0.9595  1.1061
  205MOL0     H28244   5.024   9.580   7.248  2.0977 -3.4745 -1.9374
  205MOL0     H28245   5.035   9.554   7.416  6.4593 -1.8064 -2.8752
  205MOL0     H28246   5.119   9.382   7.344 -1.7107  1.2676  4.1326
  205MOL0     H28247   4.968   9.319   7.402  1.4511 -0.9580  0.9429
  205MOL0     H28248   4.943   9.207   6.970 -0.4418  1.0542  3.9604
  205MOL0     H28249   4.908   9.215   6.738 -0.1432 -1.2089  1.1530
  205MOL0     H28250   5.054   9.133   6.704 -1.4260 -1.3667  1.5898
  205MOL0     H28251   5.021   9.295   6.635 -3.2793  0.6182 -0.4848
  205MOL0     H28252   5.271   9.218   6.383 -0.6281  2.5072 -1.2097
  205MOL0     H28253   5.413   9.284   6.185 -0.7862  0.2219  0.7967
  205MOL0     H28254   5.712   9.226   6.197 -2.0942  1.0473  2.0623
  205MOL0     H28255   5.664   9.286   6.034  0.8123  2.1082 -0.9923
  205MOL0     H28256   5.820   9.448   6.032 -2.4993 -0.4441 -0.1598
  205MOL0     H28257   5.867   9.423   6.206  1.4221 -2.9381  1.0296
  205MOL0     H28258   5.919   9.256   5.963  0.3128  0.9790 -0.1370
  205MOL0     H28259   5.943   9.188   6.133 -3.7357 -0.1551  0.1303
  205MOL0     H28260   6.121   9.393   6.148  2.0606 -1.7128  0.1203
  205MOL0     H28261   6.086   9.414   5.976  3.6896  0.6594  0.4446
  205MOL0     H28262   6.176   9.160   6.097 -0.1474  0.6609  0.9418
  205MOL0     H28263   6.119   9.182   5.928 -1.7642  1.0178  0.7342
  205MOL0     H28264   6.335   9.363   6.035 -2.2924 -0.1173  1.0751
  205MOL0     H28265   6.305   9.321   5.868  4.0250 -0.2182 -0.6870
  205MOL0     H28266   6.394   9.098   5.881 -1.4441 -0.6997  0.6252
  205MOL0     H28267   6.415   9.102   6.056  1.9599 -0.0094  0.6834
  205MOL0     H28268   6.562   9.268   5.840  4.4335  1.2040  1.3665
  205MOL0     H28269   6.635   9.158   5.942 -1.9547 -1.7323 -0.3464
  205MOL0     H28270   5.685   9.484   6.441 -0.8503  0.7510  0.2806
  205MOL0     H28271   5.527   9.430   6.642 -1.1097 -1.6465  0.4595
  205MOL0     H28272   5.312   9.523   6.950  0.1646  0.6559  0.8768
  205MOL0     H28273   5.206   9.480   7.157  0.6202 -1.7728  0.2425
  205MOL0     H28274   3.409   9.351   7.035  0.8574  2.2710  1.8988
  205MOL0     H28275   3.183   9.243   6.960 -0.6177 -0.2505  0.3933
  205MOL0     H28276   2.696   9.181   7.171  0.3509 -1.4634 -0.1687
  205MOL0     H28277   2.487   9.072   7.090 -1.6119  1.5890 -0.4003
  205MOL0     H28278   2.374   9.178   6.672 -3.2266 -0.6043 -0.6812
  205MOL0     H28279   2.447   9.008   6.671 -1.4282 -0.7118 -1.2369
  205MOL0     H28280   2.207   8.949   6.754  0.6984  0.4711 -0.3760
  205MOL0     H28281   2.231   8.964   6.575 -3.4689  1.5472 -1.5749
  205MOL0     H28282   2.124   9.203   6.737  2.3824  2.0127 -2.0134
  205MOL0     H28283   2.109   9.175   6.562 -1.0275 -1.9681 -1.0244
  205MOL0     H28284   1.898   9.148   6.716  0.2419 -0.7906  0.1317
  205MOL0     H28285   1.975   8.986   6.741 -1.8802  1.4569  2.3008
  205MOL0     H28286   1.819   8.939   6.372  0.8460 -0.2290 -0.7649
  205MOL0     H28287   2.609   9.158   6.685  1.4826 -1.0508  0.5721
  205MOL0     H28288   2.898   9.326   6.750  2.5654 -0.5438 -1.1804
  205MOL0     H28289   2.958   9.167   6.734  0.6601  1.9717 -2.2532
  205MOL0     H28290   2.823   9.218   6.628 -2.7980  0.9249  0.6134
  206MOL0     O28291   1.657   7.778   8.344  0.0051  0.2824 -0.1711
  206MOL0     C28292   1.603   7.756   8.232 -0.5317  0.1373  0.4561
  206MOL0     O28293   1.663   7.777   8.110 -0.2647  0.0286 -0.3095
  206MOL0     C28294   1.779   7.850   8.110  0.2348 -0.1711 -0.8573
  206MOL0     C28295   1.893   7.823   8.190  0.1967  0.5036  0.2123
  206MOL0     C28296   2.015   7.884   8.157 -0.0086  0.3687  0.2144
  206MOL0     C28297   2.025   7.978   8.054  0.2934  0.1007  0.2031
  206MOL0     O28298   2.138   8.048   8.032  0.3445  0.3542  0.0280
  206MOL0     C28299   2.261   7.965   8.043 -0.6190 -0.5740 -0.0636
  206MOL0     C28300   2.365   8.081   8.044 -0.4158  0.0233 -0.5846
  206MOL0     C28301   2.493   8.057   8.135  0.4876  0.3089  0.9210
  206MOL0     C28302   2.590   7.955   8.072  0.3055 -0.7186 -0.4907
  206MOL0     C28303   2.696   7.896   8.162  1.0836 -0.1712 -0.0476
  206MOL0     C28304   2.757   8.012   8.239  1.0068 -0.3414  0.3318
  206MOL0     C28305   2.841   7.959   8.352  0.0479 -0.4777 -0.2549
  206MOL0     C28306   2.957   7.863   8.306 -0.8404  0.1653 -0.4073
  206MOL0     N28307   3.051   7.926   8.212 -0.1717  0.3220 -0.2835
  206MOL0     C28308   3.087   8.059   8.204  0.0510 -0.0595  0.1124
  206MOL0     C28309   3.157   8.075   8.087 -0.9247  0.2405  0.0934
  206MOL0     C28310   3.213   8.208   8.039  0.0134 -0.0609 -0.0987
  206MOL0     C28311   3.296   8.191   7.910 -0.5851  0.2715 -0.8161
  206MOL0     C28312   3.319   8.331   7.847  0.4165 -0.0888  0.0651
  206MOL0     C28313   3.426   8.420   7.925 -0.1117 -0.3350  0.7694
  206MOL0     O28314   3.554   8.357   7.929 -0.2939 -0.3303 -0.2857
  206MOL0     C28315   3.634   8.407   8.031 -0.7845 -0.4156  0.1513
  206MOL0     C28316   3.716   8.314   8.099 -0.0559 -0.4920 -0.2449
  206MOL0     C28317   3.806   8.356   8.200 -0.3868  0.3981 -0.5869
  206MOL0     C28318   3.876   8.239   8.273 -0.1838  0.1898 -0.4094
  206MOL0     C28319   3.801   8.492   8.243  0.1902  0.4890 -0.7456
  206MOL0     C28320   3.868   8.544   8.368  0.4385 -0.3510 -0.4724
  206MOL0     O28321   3.946   8.657   8.347  0.0771  0.5189 -0.1404
  206MOL0     C28322   4.018   8.704   8.453  0.7637  0.6279 -0.5270
  206MOL0     C28323   3.982   8.707   8.584  0.0753  0.3209 -0.4146
  206MOL0     C28324   4.065   8.774   8.673 -0.0738  0.1025  0.1149
  206MOL0     C28325   4.179   8.851   8.638  1.0354  0.2754 -0.1162
  206MOL0     O28326   4.256   8.922   8.730  0.6059 -0.5590 -0.2241
  206MOL0     C28327   4.276   8.880   8.869  0.5945 -1.0450 -0.3731
  206MOL0     C28328   4.368   8.768   8.869 -0.2258  1.4482 -0.0736
  206MOL0     C28329   4.356   8.680   8.992 -0.5121  0.0866 -0.1850
  206MOL0     C28330   4.228   8.604   8.992  0.1505  0.4792  0.0896
  206MOL0     C28331   4.229   8.494   9.107  0.7556  0.2105 -0.3417
  206MOL0     C28332   4.142   8.524   9.228  0.5774  0.1589  0.1912
  206MOL0     C28333   4.240   8.582   9.330 -0.2031  0.3325  0.0353
  206MOL0     C28334   4.158   8.623   9.456  0.4189  0.1262  0.0568
  206MOL0    Cl28335   4.095   8.487   9.551  0.0060 -0.4425  0.1680
  206MOL0     C28336   4.217   8.841   8.506 -0.1968  0.7608  0.2221
  206MOL0     C28337   4.133   8.773   8.416 -0.3415  0.1886  0.3694
  206MOL0     O28338   3.873   8.473   8.468 -0.2729  0.5065  0.8208
  206MOL0     C28339   3.722   8.582   8.173  0.3588  0.1789  0.1250
  206MOL0     C28340   3.646   8.542   8.067 -0.4959 -0.6127 -0.4546
  206MOL0     N28341   3.163   7.952   8.025  0.1430  0.1312 -0.3801
  206MOL0     N28342   3.101   7.867   8.101  0.0815  0.3535  0.9084
  206MOL0     C28343   1.907   8.007   7.981 -0.0307 -0.1882 -0.3590
  206MOL0     C28344   1.784   7.951   8.006  0.7492  0.1919 -0.0090
  206MOL0     C28345   1.466   7.702   8.229 -0.6248  0.5981  0.5203
  206MOL0     C28346   1.409   7.686   8.358 -0.7120 -0.3317 -0.3595
  206MOL0     C28347   1.276   7.634   8.373  0.7083  0.1100  0.2208
  206MOL0     C28348   1.198   7.621   8.255 -0.2199  0.3412  0.2045
  206MOL0     O28349   1.070   7.564   8.264  0.0235  0.1624 -0.4884
  206MOL0     C28350   1.050   7.440   8.183  0.2393 -0.1037  0.2564
  206MOL0     C28351   0.916   7.370   8.223 -0.1858 -0.5977 -0.2911
  206MOL0     C28352   0.933   7.299   8.362 -0.1294  0.1145  0.1347
  206MOL0     C28353   1.005   7.160   8.356  0.6178  0.2600  1.0740
  206MOL0     C28354   1.151   7.169   8.378 -0.2273  1.2916  0.4130
  206MOL0     C28355   1.265   7.187   8.386 -0.4385  0.2031 -0.2896
  206MOL0     C28356   1.259   7.643   8.131  0.8757 -0.1106  0.3826
  206MOL0     C28357   1.389   7.682   8.114  0.2881  0.0737  0.3561
  206MOL0     C28358   1.434   7.713   7.975  0.9382 -0.4965 -0.2080
  206MOL0     H28359   1.888   7.742   8.262 -1.2806  1.2338  0.9781
  206MOL0     H28360   2.099   7.856   8.221 -0.6408  1.4652  1.5789
  206MOL0     H28361   2.281   7.895   7.962  1.8916 -0.0452  0.0052
  206MOL0     H28362   2.283   7.915   8.137  3.6126  0.7033 -0.1538
  206MOL0     H28363   2.397   8.096   7.941 -0.6779  0.9547 -0.5348
  206MOL0     H28364   2.333   8.181   8.075  4.3264  1.5086  0.3789
  206MOL0     H28365   2.541   8.155   8.148  1.0490  0.3070 -0.8791
  206MOL0     H28366   2.453   8.041   8.236  0.8718  0.1216  1.0459
  206MOL0     H28367   2.532   7.876   8.024  2.5494 -1.2374 -2.5885
  206MOL0     H28368   2.647   8.003   7.991  1.9780 -1.9846 -0.1049
  206MOL0     H28369   2.771   7.848   8.099  1.4682  2.1255 -1.4709
  206MOL0     H28370   2.660   7.825   8.237 -2.9121  0.1241 -1.4303
  206MOL0     H28371   2.811   8.075   8.168 -1.2002  0.7633 -0.4399
  206MOL0     H28372   2.675   8.066   8.287  1.6793  1.0204  0.0060
  206MOL0     H28373   2.776   7.909   8.425 -1.2686 -1.4564 -2.0401
  206MOL0     H28374   2.890   8.047   8.396  0.3073 -0.0414 -1.3790
  206MOL0     H28375   3.009   7.821   8.393  0.1985  1.0011 -0.5985
  206MOL0     H28376   2.917   7.776   8.253 -0.5435 -0.5402  0.4896
  206MOL0     H28377   3.061   8.140   8.272  0.0330  1.8602 -2.0471
  206MOL0     H28378   3.264   8.260   8.120  0.5798 -0.9986  0.1527
  206MOL0     H28379   3.120   8.258   8.009  0.7256  0.7304 -1.0590
  206MOL0     H28380   3.398   8.156   7.928  0.8910  4.1849 -0.5092
  206MOL0     H28381   3.247   8.131   7.833 -0.0451 -1.5053  0.1716
  206MOL0     H28382   3.356   8.318   7.745 -0.2206  1.9213 -0.4688
  206MOL0     H28383   3.229   8.392   7.834 -1.8275 -3.1760  0.0656
  206MOL0     H28384   3.434   8.513   7.870  1.4531 -1.6379 -1.3681
  206MOL0     H28385   3.401   8.445   8.029 -3.6292 -0.3956  0.0676
  206MOL0     H28386   3.707   8.207   8.091  0.0949 -0.4682 -0.7721
  206MOL0     H28387   3.819   8.217   8.364 -0.9263 -1.7809 -1.2829
  206MOL0     H28388   3.983   8.256   8.290  0.2429 -1.6843 -0.9449
  206MOL0     H28389   3.862   8.143   8.222 -0.2174  0.0722 -0.1857
  206MOL0     H28390   3.896   8.649   8.616  1.1925 -1.2413 -0.1568
  206MOL0     H28391   4.045   8.765   8.779 -3.5147 -1.5317 -0.5357
  206MOL0     H28392   4.318   8.965   8.924 -0.9492  1.2138 -2.4821
  206MOL0     H28393   4.185   8.845   8.917 -0.0996  0.2914 -0.6777
  206MOL0     H28394   4.349   8.706   8.781  2.9812 -2.1321  1.5124
  206MOL0     H28395   4.471   8.802   8.855  0.2206  0.7299  1.2565
  206MOL0     H28396   4.370   8.746   9.077  0.4953  0.6348 -0.7648
  206MOL0     H28397   4.446   8.620   8.982 -0.2673  0.0501  1.8407
  206MOL0     H28398   4.219   8.560   8.893 -2.6386 -0.3034  0.5892
  206MOL0     H28399   4.136   8.659   9.015  0.1030  0.4391 -0.0082
  206MOL0     H28400   4.180   8.410   9.057 -0.0442  1.5712 -1.9665
  206MOL0     H28401   4.332   8.466   9.126  1.6569  1.7074 -2.5437
  206MOL0     H28402   4.106   8.425   9.255  0.2420 -0.6953 -3.0053
  206MOL0     H28403   4.060   8.590   9.197 -0.4724 -1.6580 -1.0583
  206MOL0     H28404   4.276   8.678   9.292 -0.5445  1.7430  3.0016
  206MOL0     H28405   4.318   8.512   9.361 -1.9185 -1.6710  0.0254
  206MOL0     H28406   4.068   8.674   9.421  1.0189  0.3103 -1.2514
  206MOL0     H28407   4.225   8.686   9.515  1.3153  1.8566 -2.6187
  206MOL0     H28408   4.307   8.886   8.467  1.1008 -1.0018  1.0195
  206MOL0     H28409   4.162   8.748   8.314  0.6857 -2.6528  1.2626
  206MOL0     H28410   3.714   8.686   8.202 -1.5439 -0.0942  0.7271
  206MOL0     H28411   3.601   8.621   8.008  1.7540  1.5333  0.5615
  206MOL0     H28412   1.899   8.084   7.904  1.1852 -0.8835 -1.2254
  206MOL0     H28413   1.699   7.964   7.940  2.7714 -0.8291 -3.0948
  206MOL0     H28414   1.478   7.688   8.442 -0.5557  0.3360 -0.4988
  206MOL0     H28415   1.231   7.592   8.462  0.6496  0.0352  0.1563
  206MOL0     H28416   1.047   7.461   8.076 -1.2699  2.2078  0.6655
  206MOL0     H28417   1.131   7.372   8.210 -0.2959  0.1165  2.7345
  206MOL0     H28418   0.893   7.294   8.147 -1.4855 -0.1959 -0.3385
  206MOL0     H28419   0.832   7.441   8.224  0.0770 -0.2690 -1.0926
  206MOL0     H28420   0.994   7.364   8.426  0.5862 -1.4142  1.0606
  206MOL0     H28421   0.840   7.280   8.416  1.1684  0.0561  2.5151
  206MOL0     H28422   0.977   7.109   8.263  0.0063  1.0985  0.7872
  206MOL0     H28423   0.970   7.093   8.435 -2.0834 -1.9957 -1.8046
  206MOL0     H28424   1.367   7.218   8.391 -0.7064  1.7321 -2.7249
  206MOL0     H28425   1.193   7.632   8.045  1.5196 -0.4400 -0.0775
  206MOL0     H28426   1.514   7.644   7.946 -2.1933 -4.3835 -0.4145
  206MOL0     H28427   1.350   7.708   7.906  0.5345  1.5255  0.0763
  206MOL0     H28428   1.470   7.817   7.975 -1.9327  0.6043 -1.0495
  207MOL0     O28429   8.575   7.130   5.692 -0.0850 -0.2425 -0.0174
  207MOL0     C28430   8.552   7.055   5.603  0.0162  0.3822  0.3529
  207MOL0     O28431   8.476   6.938   5.613  0.2688 -0.1830 -0.0162
  207MOL0     C28432   8.425   6.897   5.737  0.0736  0.1159  1.0185
  207MOL0     C28433   8.496   6.815   5.816 -1.0854  0.0227  0.1910
  207MOL0     C28434   8.465   6.781   5.948 -0.4505  0.2035 -0.3776
  207MOL0     C28435   8.348   6.843   5.996  0.5431 -0.3018  0.0087
  207MOL0     O28436   8.287   6.791   6.113  0.4112 -0.7817  0.0544
  207MOL0     C28437   8.366   6.791   6.232 -0.5410 -0.5783 -0.5066
  207MOL0     C28438   8.277   6.822   6.355 -0.3771  0.1306  0.9258
  207MOL0     C28439   8.354   6.871   6.469  0.7439  0.2476  0.0835
  207MOL0     C28440   8.366   7.032   6.478  0.0899 -0.1276 -0.0914
  207MOL0     C28441   8.434   7.066   6.603 -0.2708  0.1588 -1.4633
  207MOL0     C28442   8.422   7.208   6.657 -0.2677  0.2391  0.3355
  207MOL0     C28443   8.466   7.309   6.556 -1.1791  0.1861  0.7647
  207MOL0     C28444   8.475   7.461   6.601  0.1519 -0.4071 -0.5038
  207MOL0     N28445   8.496   7.543   6.481  0.6624  0.1358 -0.2101
  207MOL0     C28446   8.399   7.602   6.397 -0.1317  0.7984  0.1412
  207MOL0     C28447   8.465   7.665   6.305  0.3637 -0.9126  0.7444
  207MOL0     C28448   8.399   7.738   6.190  0.2029  0.3887 -0.4365
  207MOL0     C28449   8.483   7.750   6.063  0.3568 -0.4201  0.0154
  207MOL0     C28450   8.517   7.620   5.992  0.4614 -0.8656  0.0718
  207MOL0     C28451   8.592   7.633   5.852  0.9143  0.8009  0.0472
  207MOL0     O28452   8.705   7.722   5.859  0.3733 -0.5912 -0.2190
  207MOL0     C28453   8.762   7.748   5.734 -0.0208  0.1599  0.1345
  207MOL0     C28454   8.850   7.658   5.680  0.3209  0.3024  0.9977
  207MOL0     C28455   8.902   7.676   5.550  0.2738 -0.4106 -0.0210
  207MOL0     C28456   9.009   7.586   5.500 -0.6421 -1.5924  0.0434
  207MOL0     C28457   8.851   7.775   5.470 -0.0396 -0.0049  0.2871
  207MOL0     C28458   8.882   7.786   5.327 -0.3897  0.7782 -0.3685
  207MOL0     O28459   8.881   7.915   5.276 -0.6116 -0.4119  0.4000
  207MOL0     C28460   8.913   7.929   5.134  0.5759  0.4348  0.0138
  207MOL0     C28461   8.808   7.914   5.045 -0.3878 -0.7321 -0.4172
  207MOL0     C28462   8.839   7.938   4.911 -0.3068 -0.3301  0.1493
  207MOL0     C28463   8.965   7.960   4.862 -0.1420 -0.0587  0.4151
  207MOL0     O28464   9.003   7.967   4.725 -0.4773 -0.2773 -0.4120
  207MOL0     C28465   8.924   8.060   4.656 -0.4100  0.4072  0.7344
  207MOL0     C28466   8.945   8.031   4.503  0.9358  0.2016  0.4680
  207MOL0     C28467   8.900   7.887   4.468 -0.7953  0.3552 -0.4190
  207MOL0     C28468   8.743   7.876   4.490  0.5266  0.6911 -0.0666
  207MOL0     C28469   8.670   7.789   4.393  0.3377  0.6966  0.5220
  207MOL0     C28470   8.666   7.828   4.238 -0.9897  0.9860 -0.3065
  207MOL0     C28471   8.555   7.766   4.159 -0.0665 -0.6275 -0.7052
  207MOL0     C28472   8.552   7.796   4.011  0.0968 -0.6562  0.6681
  207MOL0    Cl28473   8.542   7.980   3.989 -0.0055  0.3365  0.0088
  207MOL0     C28474   9.063   7.979   4.956  0.1165  1.7659  0.0835
  207MOL0     C28475   9.042   7.968   5.093  0.3559  0.7331  0.4974
  207MOL0     O28476   8.910   7.683   5.262 -0.3948 -0.7704  0.0910
  207MOL0     C28477   8.760   7.871   5.517 -0.5312 -0.2059  0.0330
  207MOL0     C28478   8.727   7.861   5.656 -0.2403  0.6900  0.3218
  207MOL0     N28479   8.597   7.646   6.323 -0.4858  0.4710 -0.6331
  207MOL0     N28480   8.614   7.579   6.434  0.0676 -0.0315 -1.0059
  207MOL0     C28481   8.272   6.925   5.923  0.9286 -0.1115 -0.1600
  207MOL0     C28482   8.318   6.954   5.792  0.2378 -0.4594 -0.2204
  207MOL0     C28483   8.601   7.077   5.463 -0.9957  0.2931  0.5574
  207MOL0     C28484   8.540   7.008   5.352 -0.3983  0.1612  1.3104
  207MOL0     C28485   8.597   7.019   5.227 -0.7481 -0.0204 -0.4587
  207MOL0     C28486   8.697   7.117   5.196  0.4123 -0.1745 -0.2074
  207MOL0     O28487   8.748   7.127   5.067 -0.2585 -0.1896  0.0758
  207MOL0     C28488   8.722   7.033   4.958 -0.3746  0.2779 -0.7296
  207MOL0     C28489   8.601   7.091   4.885 -0.3547  0.7147 -0.4014
  207MOL0     C28490   8.630   7.214   4.807 -0.0154 -0.2152 -0.3822
  207MOL0     C28491   8.535   7.226   4.693 -1.0411  0.8055  0.4648
  207MOL0     C28492   8.572   7.337   4.593 -0.8277 -0.3664  0.1004
  207MOL0     C28493   8.609   7.425   4.518  0.4988  0.3313  0.2351
  207MOL0     C28494   8.745   7.195   5.302  0.7266 -0.0295  0.2679
  207MOL0     C28495   8.702   7.176   5.437  0.2921 -0.4581  0.6370
  207MOL0     C28496   8.777   7.248   5.537 -0.8058  0.0436 -0.5015
  207MOL0     H28497   8.591   6.769   5.787 -0.2936 -1.6282  4.5695
  207MOL0     H28498   8.521   6.718   6.016 -0.4726  0.7332  0.1400
  207MOL0     H28499   8.446   6.867   6.227 -1.0459  0.5744  4.0914
  207MOL0     H28500   8.419   6.698   6.253 -0.0028  0.0353  1.0004
  207MOL0     H28501   8.202   6.898   6.331  1.5332  1.4531 -1.3082
  207MOL0     H28502   8.222   6.731   6.384 -0.1674  0.2486  1.7294
  207MOL0     H28503   8.295   6.838   6.555 -1.1617  0.7269 -0.9724
  207MOL0     H28504   8.456   6.831   6.478  0.9545  0.8891  0.6226
  207MOL0     H28505   8.433   7.073   6.403 -2.0675  2.3197 -0.8082
  207MOL0     H28506   8.264   7.072   6.471  0.6750  1.3921 -0.1499
  207MOL0     H28507   8.540   7.053   6.579  0.1543 -0.2106  0.4879
  207MOL0     H28508   8.417   6.993   6.683 -1.2995  1.2496 -0.6466
  207MOL0     H28509   8.316   7.222   6.682 -0.2079 -0.3260  0.9338
  207MOL0     H28510   8.488   7.214   6.744 -0.8155  0.9254  0.7210
  207MOL0     H28511   8.399   7.291   6.472 -2.0933 -1.6186  1.8345
  207MOL0     H28512   8.568   7.280   6.530 -0.6143  0.9349  2.0363
  207MOL0     H28513   8.388   7.493   6.659  1.4626  1.7769  0.3859
  207MOL0     H28514   8.559   7.489   6.665 -2.6284  0.9181  2.8402
  207MOL0     H28515   8.293   7.583   6.406  0.1830 -2.6538 -1.6353
  207MOL0     H28516   8.367   7.838   6.223  1.7229  1.3472 -1.7448
  207MOL0     H28517   8.311   7.680   6.159  2.0462 -2.4756 -0.6625
  207MOL0     H28518   8.433   7.821   5.996 -1.0724  0.7759  2.2204
  207MOL0     H28519   8.582   7.781   6.098  0.7470 -3.9375  2.5471
  207MOL0     H28520   8.579   7.561   6.060  0.6622 -1.4826 -0.6344
  207MOL0     H28521   8.429   7.556   5.981  1.4828 -2.5031  1.0578
  207MOL0     H28522   8.630   7.531   5.840 -0.0307  0.3125  1.0090
  207MOL0     H28523   8.530   7.667   5.768  1.9542  1.9460 -0.2934
  207MOL0     H28524   8.886   7.574   5.738  1.6800  1.2402  1.5949
  207MOL0     H28525   8.983   7.480   5.487  1.1086 -2.5344  3.1046
  207MOL0     H28526   9.079   7.589   5.584 -1.3284  0.0947  0.5840
  207MOL0     H28527   9.068   7.614   5.412  1.7580 -1.8508  1.4886
  207MOL0     H28528   8.707   7.877   5.061 -0.4505 -1.2574 -1.9033
  207MOL0     H28529   8.764   7.910   4.838 -0.3048 -1.6444  0.6225
  207MOL0     H28530   8.818   8.048   4.682  0.0656 -0.8678  2.1795
  207MOL0     H28531   8.962   8.162   4.666 -0.4303  0.5514 -0.4688
  207MOL0     H28532   8.883   8.096   4.441  2.1779  1.1951  0.2373
  207MOL0     H28533   9.045   8.064   4.473  0.7916 -0.3978 -0.7152
  207MOL0     H28534   8.950   7.813   4.531 -0.3607  1.6903  0.8575
  207MOL0     H28535   8.930   7.868   4.365  2.3960  0.3254  0.4306
  207MOL0     H28536   8.706   7.977   4.469  2.2093  0.8304 -2.7409
  207MOL0     H28537   8.713   7.850   4.592 -1.5947  2.4436 -0.1461
  207MOL0     H28538   8.723   7.693   4.399  2.1274  1.4727 -1.4502
  207MOL0     H28539   8.566   7.779   4.423  0.2702  0.4700  0.2240
  207MOL0     H28540   8.760   7.796   4.192  0.3292  2.3958  1.2644
  207MOL0     H28541   8.665   7.935   4.215  0.6981  0.7347 -1.7012
  207MOL0     H28542   8.463   7.800   4.209  0.7699 -0.5478  0.8491
  207MOL0     H28543   8.552   7.659   4.179 -0.7366 -0.1649  2.2242
  207MOL0     H28544   8.468   7.746   3.961  0.1275  2.1667 -2.6144
  207MOL0     H28545   8.644   7.763   3.962 -0.2779  3.3669 -3.5066
  207MOL0     H28546   9.160   8.005   4.913 -0.2155  1.2028 -1.0342
  207MOL0     H28547   9.122   7.993   5.162  0.3496  0.4278  0.6184
  207MOL0     H28548   8.735   7.962   5.463 -0.5139  0.2703  0.7965
  207MOL0     H28549   8.648   7.925   5.695 -0.9643 -1.5309  2.7586
  207MOL0     H28550   8.177   6.964   5.957  0.3515  0.3277 -2.1153
  207MOL0     H28551   8.274   7.035   5.734 -0.6824  1.9869  3.4937
  207MOL0     H28552   8.459   6.936   5.362 -1.9300  1.5249 -0.6714
  207MOL0     H28553   8.546   6.964   5.148  0.3378  0.6695 -1.6736
  207MOL0     H28554   8.806   7.028   4.888 -0.3520  0.4752 -0.7158
  207MOL0     H28555   8.691   6.935   4.995  0.0537  0.2026 -0.5637
  207MOL0     H28556   8.519   7.102   4.957 -0.0956  0.3896 -0.0456
  207MOL0     H28557   8.567   7.009   4.821 -0.4334  1.3182 -1.1336
  207MOL0     H28558   8.617   7.305   4.866  1.0784 -0.6987  0.6648
  207MOL0     H28559   8.736   7.209   4.778  0.5575 -0.2658  1.5653
  207MOL0     H28560   8.437   7.242   4.738  1.0424 -0.4243  6.3332
  207MOL0     H28561   8.539   7.133   4.635  0.3952  0.5370  0.9388
  207MOL0     H28562   8.640   7.488   4.437  2.1466 -0.3914  0.2482
  207MOL0     H28563   8.822   7.258   5.259  1.2330  0.1314  1.3906
  207MOL0     H28564   8.865   7.282   5.481  1.6136 -0.3069  2.7798
  207MOL0     H28565   8.728   7.335   5.583  0.0935  0.0854  0.4130
  207MOL0     H28566   8.825   7.183   5.611 -2.8287 -0.8302  0.1268
  208MOL0     O28567  10.642   7.568  11.030 -0.5538 -0.7177  0.3804
  208MOL0     C28568  10.595   7.526  10.922 -0.4715 -0.1127  0.0064
  208MOL0     O28569  10.652   7.555  10.800 -0.2347 -0.0099 -0.6854
  208MOL0     C28570  10.773   7.630  10.799  0.0246 -0.0077  1.3616
  208MOL0     C28571  10.776   7.737  10.708  0.2421  0.1798 -0.0566
  208MOL0     C28572  10.890   7.818  10.703 -0.1037 -0.1270 -0.8088
  208MOL0     C28573  11.006   7.779  10.781  0.0386  0.1675  0.5565
  208MOL0     O28574  11.111   7.872  10.763  0.7306 -0.4738 -0.3624
  208MOL0     C28575  11.247   7.851  10.817 -0.8003 -0.5210  0.1926
  208MOL0     C28576  11.334   7.817  10.693  0.0614  0.2230  0.5606
  208MOL0     C28577  11.273   7.703  10.611 -0.1614  0.2560  1.0294
  208MOL0     C28578  11.304   7.562  10.677 -0.4807 -0.5039  0.2537
  208MOL0     C28579  11.279   7.443  10.588 -0.4773 -1.2544  0.7996
  208MOL0     C28580  11.131   7.441  10.551 -0.1405  0.2383  0.0783
  208MOL0     C28581  11.081   7.305  10.488 -0.5516 -0.0532  0.5592
  208MOL0     C28582  10.929   7.317  10.484  0.6931  0.6205 -0.3139
  208MOL0     N28583  10.884   7.365  10.355 -2.1029  0.3318 -0.4693
  208MOL0     C28584  10.896   7.301  10.233 -0.2793 -0.3547 -0.6750
  208MOL0     C28585  10.854   7.395  10.137  0.2616 -0.1172 -0.1962
  208MOL0     C28586  10.845   7.389   9.990 -0.3050 -0.0446 -0.2637
  208MOL0     C28587  10.990   7.362   9.932  0.8687  0.7894 -0.3029
  208MOL0     C28588  11.075   7.491   9.924 -0.6048  0.0841  0.1971
  208MOL0     C28589  11.208   7.455   9.848  0.8027 -0.7462  0.5791
  208MOL0     O28590  11.267   7.349   9.929  0.0341  0.6587  0.0643
  208MOL0     C28591  11.393   7.303   9.882 -0.0220  0.0313 -0.6201
  208MOL0     C28592  11.464   7.361   9.779 -0.4698 -0.5037  0.8935
  208MOL0     C28593  11.593   7.320   9.734  0.8640  0.4582 -0.8867
  208MOL0     C28594  11.655   7.411   9.632 -0.2710 -1.2278 -0.3028
  208MOL0     C28595  11.642   7.194   9.793  0.1509 -0.1928 -0.6088
  208MOL0     C28596  11.764   7.134   9.749  0.3201  0.4678 -0.3395
  208MOL0     O28597  11.799   7.015   9.810  1.0848  0.2619  0.3785
  208MOL0     C28598  11.893   6.935   9.753 -0.2743  0.4063  0.5403
  208MOL0     C28599  12.020   6.975   9.749  0.3223 -0.2202 -0.4191
  208MOL0     C28600  12.124   6.882   9.741 -0.1667 -0.0617 -0.4134
  208MOL0     C28601  12.101   6.752   9.743  0.2294 -0.1591  0.3855
  208MOL0     O28602  12.212   6.671   9.750 -0.3869  0.3689 -0.2992
  208MOL0     C28603  12.179   6.530   9.767 -0.0435  1.2697  0.9265
  208MOL0     C28604  12.301   6.451   9.805 -0.1186 -0.3553  0.7004
  208MOL0     C28605  12.361   6.499   9.944  0.1201 -0.4356  1.1518
  208MOL0     C28606  12.502   6.561   9.931  0.5319 -0.1725  0.5962
  208MOL0     C28607  12.570   6.612  10.058 -0.6631  0.7895  0.1495
  208MOL0     C28608  12.661   6.735  10.057 -0.8971 -0.7530  0.4342
  208MOL0     C28609  12.783   6.712   9.960 -0.3512 -0.2665 -1.1224
  208MOL0     C28610  12.883   6.822   9.940 -0.4348 -0.1651  0.0392
  208MOL0    Cl28611  12.985   6.772   9.793  0.1730 -0.2228  0.1888
  208MOL0     C28612  11.970   6.707   9.737  0.6512 -0.3323 -0.9853
  208MOL0     C28613  11.864   6.803   9.736 -0.0614  0.8393  0.0596
  208MOL0     O28614  11.812   7.163   9.637 -0.1043 -0.6106 -0.4713
  208MOL0     C28615  11.564   7.132   9.889 -0.5238  0.8540 -0.0286
  208MOL0     C28616  11.442   7.181   9.932  0.6893 -1.0024 -0.3164
  208MOL0     N28617  10.831   7.509  10.205 -0.2409 -0.5953 -0.0969
  208MOL0     N28618  10.855   7.492  10.329  0.3102 -0.5693 -0.7883
  208MOL0     C28619  11.005   7.662  10.862 -0.2857 -0.2684 -0.3594
  208MOL0     C28620  10.892   7.589  10.866  0.5310 -0.6761  0.6805
  208MOL0     C28621  10.474   7.445  10.918  0.3200 -0.3322  0.6062
  208MOL0     C28622  10.413   7.420  10.794  0.0079 -0.2236  0.0664
  208MOL0     C28623  10.295   7.340  10.782 -1.0185 -0.0147 -0.2347
  208MOL0     C28624  10.243   7.278  10.888 -0.2488 -0.1190 -0.3102
  208MOL0     O28625  10.130   7.202  10.871 -0.2708  0.7357 -0.0708
  208MOL0     C28626  10.054   7.164  10.986 -0.4090  0.5628 -0.3094
  208MOL0     C28627   9.927   7.090  10.940 -0.4701  0.5957 -0.0139
  208MOL0     C28628   9.960   6.957  10.860  0.9049 -0.2204  1.0454
  208MOL0     C28629   9.836   6.922  10.763  0.7010 -0.0969 -0.1935
  208MOL0     C28630   9.705   6.922  10.834  0.7367  0.6051  0.7425
  208MOL0     C28631   9.591   6.929  10.881  0.1958 -0.1377 -0.5190
  208MOL0     C28632  10.311   7.292  11.010  0.9911 -0.2567  0.6427
  208MOL0     C28633  10.422   7.372  11.027  0.6806 -1.1246 -0.7997
  208MOL0     C28634  10.473   7.388  11.169 -0.6112  0.7375 -0.2367
  208MOL0     H28635  10.687   7.746  10.647 -1.9983 -2.7436  2.4837
  208MOL0     H28636  10.893   7.909  10.644  1.5257  0.2349 -0.2353
  208MOL0     H28637  11.255   7.775  10.895  1.9504 -0.5842 -0.0534
  208MOL0     H28638  11.284   7.942  10.866  0.5136 -1.3253  0.7640
  208MOL0     H28639  11.372   7.910  10.650  0.9364 -0.2876  0.2058
  208MOL0     H28640  11.420   7.770  10.742  1.0592  2.2732  0.8765
  208MOL0     H28641  11.165   7.717  10.598 -0.4575 -3.5788 -2.6528
  208MOL0     H28642  11.320   7.702  10.512 -0.8616  0.3449  0.6911
  208MOL0     H28643  11.409   7.559  10.708 -0.6571 -0.4914  0.8755
  208MOL0     H28644  11.243   7.563  10.768 -2.4175  0.7584 -0.9775
  208MOL0     H28645  11.306   7.363  10.659 -1.0459  1.2590  4.1175
  208MOL0     H28646  11.342   7.446  10.499 -1.1785  3.0713  0.2584
  208MOL0     H28647  11.076   7.464  10.643  0.1912 -2.8824  1.1855
  208MOL0     H28648  11.117   7.520  10.477 -0.4493 -0.1714 -0.3056
  208MOL0     H28649  11.102   7.224  10.558  3.3509 -0.1646 -0.5181
  208MOL0     H28650  11.120   7.289  10.387 -1.2852  0.0342  0.2564
  208MOL0     H28651  10.885   7.218  10.495  1.4839 -0.2025 -3.4729
  208MOL0     H28652  10.879   7.375  10.563  3.4906  1.0841  1.2490
  208MOL0     H28653  10.932   7.199  10.226 -2.2417 -1.0545 -1.3729
  208MOL0     H28654  10.813   7.484   9.948 -1.2777 -1.4789 -3.0469
  208MOL0     H28655  10.779   7.312   9.950  0.1999 -0.1282 -0.9759
  208MOL0     H28656  11.035   7.283   9.993 -0.8487 -1.6367 -1.9592
  208MOL0     H28657  10.986   7.318   9.832  1.2895 -4.0948  1.5748
  208MOL0     H28658  11.020   7.562   9.862  1.6717  2.2597  0.5449
  208MOL0     H28659  11.089   7.542  10.019  1.2967  2.4774 -1.2419
  208MOL0     H28660  11.185   7.420   9.747 -1.2602 -0.6850  0.9742
  208MOL0     H28661  11.270   7.545   9.837  0.4432 -0.6882 -1.5278
  208MOL0     H28662  11.420   7.447   9.730  2.0611  0.2397 -0.2225
  208MOL0     H28663  11.614   7.512   9.630  1.0832 -0.6654 -0.8730
  208MOL0     H28664  11.648   7.362   9.534  2.3164 -1.0233 -0.6473
  208MOL0     H28665  11.760   7.414   9.660 -0.6353 -2.9282  1.5181
  208MOL0     H28666  12.030   7.083   9.750 -2.4412  0.1411 -2.2482
  208MOL0     H28667  12.228   6.913   9.730 -0.8288  2.4914 -0.1267
  208MOL0     H28668  12.108   6.515   9.849  0.8649  0.8065  1.6447
  208MOL0     H28669  12.136   6.506   9.670  1.2449  1.3124  0.3202
  208MOL0     H28670  12.262   6.350   9.810 -1.9723  0.3051  0.3348
  208MOL0     H28671  12.375   6.471   9.726  0.7018  2.2767  2.0291
  208MOL0     H28672  12.368   6.408  10.004 -2.2930 -1.9269 -0.6468
  208MOL0     H28673  12.287   6.570   9.985 -2.9144 -2.3776 -0.5518
  208MOL0     H28674  12.499   6.649   9.865  3.8871 -1.9101 -2.1791
  208MOL0     H28675  12.560   6.487   9.876 -0.3724 -0.3607 -0.1393
  208MOL0     H28676  12.507   6.621  10.147 -0.3631  0.4803  0.3991
  208MOL0     H28677  12.628   6.523  10.087 -2.3899 -0.9544 -1.4362
  208MOL0     H28678  12.708   6.748  10.155  1.1152 -2.6883 -0.2102
  208MOL0     H28679  12.605   6.826  10.032  1.7821  0.5533 -1.4284
  208MOL0     H28680  12.743   6.698   9.860  2.7025  1.4199 -2.7497
  208MOL0     H28681  12.832   6.624  10.001 -2.0528  0.7019  3.7032
  208MOL0     H28682  12.949   6.840  10.026 -1.7099  0.6850  0.8843
  208MOL0     H28683  12.827   6.914   9.921 -1.2987 -0.9913 -1.5675
  208MOL0     H28684  11.951   6.600   9.736  2.5153 -0.6831 -2.5930
  208MOL0     H28685  11.766   6.757   9.740  0.4900 -0.4032  0.0282
  208MOL0     H28686  11.596   7.045   9.946  0.0877  1.8138  1.1492
  208MOL0     H28687  11.381   7.133  10.007  2.3373 -2.0077  0.4440
  208MOL0     H28688  11.091   7.638  10.924  1.2533  1.5204 -1.6996
  208MOL0     H28689  10.880   7.505  10.934  0.0881 -1.7467 -0.6797
  208MOL0     H28690  10.462   7.447  10.702  1.1806 -1.4559  0.2964
  208MOL0     H28691  10.249   7.337  10.683 -2.9388  1.6715  0.5269
  208MOL0     H28692  10.113   7.097  11.050  1.1122 -0.4142 -2.6169
  208MOL0     H28693  10.018   7.252  11.040  1.0692  1.7130 -1.1394
  208MOL0     H28694   9.857   7.149  10.880 -0.4486 -0.1292 -0.7704
  208MOL0     H28695   9.872   7.060  11.030 -1.1340  1.2276 -0.1945
  208MOL0     H28696  10.049   6.972  10.799  0.2405  0.4099  0.1972
  208MOL0     H28697  10.003   6.880  10.925 -0.7432 -3.8855 -1.8589
  208MOL0     H28698   9.844   6.820  10.724  2.3788 -1.1766  2.6778
  208MOL0     H28699   9.833   6.991  10.679  0.8632 -0.0836 -0.1886
  208MOL0     H28700   9.492   6.928  10.922  0.9556 -3.6593  1.6222
  208MOL0     H28701  10.257   7.262  11.099 -1.1001  0.9320 -0.1505
  208MOL0     H28702  10.565   7.330  11.177 -1.0620 -0.0506 -0.6537
  208MOL0     H28703  10.506   7.490  11.191  1.0292  0.4597 -1.2478
  208MOL0     H28704  10.405   7.353  11.247  2.6099 -0.1164  2.4154
  209MOL0     O28705   7.435   5.785   0.568  0.0532 -0.2103  0.2071
  209MOL0     C28706   7.449   5.841   0.682  0.5673  0.5491  0.0714
  209MOL0     O28707   7.565   5.874   0.736  0.1540 -0.3429  0.0695
  209MOL0     C28708   7.683   5.840   0.669  0.5125 -0.4682 -0.5358
  209MOL0     C28709   7.753   5.719   0.695 -0.2045  0.3406 -0.7690
  209MOL0     C28710   7.884   5.702   0.642  0.2273  0.5923 -1.4649
  209MOL0     C28711   7.940   5.789   0.546 -0.9741  0.3514 -0.1852
  209MOL0     O28712   8.055   5.768   0.480 -0.3226 -0.1548 -0.5571
  209MOL0     C28713   8.169   5.818   0.553  0.0679  0.4616 -0.4232
  209MOL0     C28714   8.246   5.928   0.483 -0.4210 -0.1026 -0.3853
  209MOL0     C28715   8.361   5.984   0.569 -0.1599 -0.0008  0.1295
  209MOL0     C28716   8.490   5.894   0.563 -0.3615 -0.0254 -0.2292
  209MOL0     C28717   8.614   5.936   0.642  0.2504  0.4784  0.8479
  209MOL0     C28718   8.679   6.063   0.601 -0.0406 -0.3760  0.7997
  209MOL0     C28719   8.818   6.084   0.671  0.2258  0.1545  1.1108
  209MOL0     C28720   8.815   6.123   0.823  0.2744  0.8849  0.3346
  209MOL0     N28721   8.941   6.177   0.864 -0.7860  0.3845 -0.0759
  209MOL0     C28722   9.068   6.127   0.847  0.3437  0.7912 -0.8229
  209MOL0     C28723   9.154   6.228   0.869  0.1368 -0.4131  0.6928
  209MOL0     C28724   9.308   6.234   0.877  0.5577  0.6944  0.1524
  209MOL0     C28725   9.379   6.181   1.005 -0.5749  1.0606 -0.3268
  209MOL0     C28726   9.301   6.218   1.135  0.7344 -1.1106 -0.0511
  209MOL0     C28727   9.373   6.187   1.264 -0.7018 -0.7315  0.7072
  209MOL0     O28728   9.319   6.228   1.390  0.6117 -0.3465 -0.6580
  209MOL0     C28729   9.375   6.176   1.502 -0.0591  1.3884  0.1799
  209MOL0     C28730   9.491   6.097   1.523  0.3716  0.2575 -0.0350
  209MOL0     C28731   9.547   6.060   1.649  0.5824 -0.1816  0.1217
  209MOL0     C28732   9.665   5.963   1.648 -0.2557 -0.6804 -0.2467
  209MOL0     C28733   9.470   6.104   1.761 -0.2950  0.8555 -0.2469
  209MOL0     C28734   9.500   6.063   1.903 -0.1275  0.3173 -0.2318
  209MOL0     O28735   9.602   5.978   1.930  0.0461  0.3522 -0.1563
  209MOL0     C28736   9.642   5.947   2.060  0.1415 -0.7923 -0.0641
  209MOL0     C28737   9.720   5.838   2.078 -0.0148  0.3970 -0.2184
  209MOL0     C28738   9.772   5.804   2.202 -0.6056  0.6036  0.3120
  209MOL0     C28739   9.743   5.882   2.316  0.0995 -0.2035 -0.6566
  209MOL0     O28740   9.804   5.855   2.434 -0.3111  0.4529  0.1655
  209MOL0     C28741   9.782   5.943   2.553 -0.9734  0.3807 -0.0187
  209MOL0     C28742   9.888   5.905   2.662  0.2637  0.3809  0.0292
  209MOL0     C28743   9.894   5.763   2.707 -0.6937  0.2334 -0.1759
  209MOL0     C28744   9.960   5.750   2.850  0.2902 -0.1018  0.1163
  209MOL0     C28745  10.109   5.766   2.847  0.6487 -0.0009  0.1089
  209MOL0     C28746  10.174   5.830   2.969  0.5301 -0.2913 -0.6012
  209MOL0     C28747  10.326   5.839   2.944  0.2557  0.5587  0.0167
  209MOL0     C28748  10.385   5.955   3.029  0.0961  1.1289  0.7011
  209MOL0    Cl28749  10.563   5.958   2.994 -0.1026 -0.3786 -0.1195
  209MOL0     C28750   9.658   5.986   2.298 -0.6230  0.3465 -0.5907
  209MOL0     C28751   9.617   6.027   2.171  0.0869  1.0325  0.0303
  209MOL0     O28752   9.426   6.121   1.985 -0.0136 -0.3578  0.1024
  209MOL0     C28753   9.362   6.190   1.740 -0.3698  0.4009  0.2571
  209MOL0     C28754   9.308   6.218   1.617 -0.1675 -0.2081  0.6515
  209MOL0     N28755   9.087   6.342   0.887 -0.2392  0.3711 -0.2785
  209MOL0     N28756   8.954   6.316   0.884  0.4322  0.3460  0.1066
  209MOL0     C28757   7.860   5.903   0.518  0.0627  0.0494 -0.2510
  209MOL0     C28758   7.737   5.933   0.586  0.0389  0.1943  0.0713
  209MOL0     C28759   7.322   5.853   0.760 -0.2564  0.3215 -0.5913
  209MOL0     C28760   7.337   5.917   0.879  0.2833 -0.4411  0.0518
  209MOL0     C28761   7.223   5.941   0.962  0.8986 -0.0032 -0.4888
  209MOL0     C28762   7.097   5.908   0.921 -0.1619 -0.6581  0.3136
  209MOL0     O28763   6.993   5.948   1.005 -1.3185 -0.1289  0.2580
  209MOL0     C28764   6.861   5.903   0.976 -1.5221 -0.1039  0.8107
  209MOL0     C28765   6.762   5.919   1.087 -0.3546  0.0856 -1.4241
  209MOL0     C28766   6.621   5.916   1.048  0.8113 -0.6869  0.3480
  209MOL0     C28767   6.530   5.982   1.150  0.6302 -0.2300  0.0661
  209MOL0     C28768   6.516   5.897   1.267 -0.1830 -0.2245 -1.0253
  209MOL0     C28769   6.503   5.835   1.367 -0.1139 -0.4299  0.5554
  209MOL0     C28770   7.084   5.852   0.794  0.0037 -0.4230  0.1291
  209MOL0     C28771   7.189   5.826   0.710  0.3437 -1.4233  0.1146
  209MOL0     C28772   7.152   5.766   0.581 -0.4326  0.3699  0.2123
  209MOL0     H28773   7.704   5.631   0.736 -1.4666  0.4478 -1.9932
  209MOL0     H28774   7.929   5.605   0.661  0.6102  0.7117 -1.7416
  209MOL0     H28775   8.234   5.731   0.569  0.8462  0.2230 -3.9903
  209MOL0     H28776   8.136   5.858   0.649 -0.8311  2.7836 -1.6126
  209MOL0     H28777   8.280   5.896   0.384 -1.0702 -0.4382 -0.5081
  209MOL0     H28778   8.180   6.012   0.462 -0.5901 -0.5558 -1.7791
  209MOL0     H28779   8.393   6.072   0.514 -0.5847 -0.1828 -0.4184
  209MOL0     H28780   8.328   6.007   0.671  1.9290 -2.0041  1.3433
  209MOL0     H28781   8.461   5.794   0.597  1.5078 -0.3426  0.5795
  209MOL0     H28782   8.524   5.889   0.459 -1.2556 -3.8919 -0.5007
  209MOL0     H28783   8.691   5.860   0.626  1.8305  2.2907 -0.6012
  209MOL0     H28784   8.581   5.957   0.744 -0.2796  0.9874  0.5768
  209MOL0     H28785   8.713   6.048   0.498 -0.0958 -1.8493  0.9806
  209MOL0     H28786   8.614   6.150   0.589  1.6908  0.7335 -1.1220
  209MOL0     H28787   8.858   6.175   0.626 -1.9509  0.6988  0.1893
  209MOL0     H28788   8.882   5.994   0.667  1.2341  0.8150  1.8379
  209MOL0     H28789   8.742   6.201   0.846  2.2414  2.3299  2.0523
  209MOL0     H28790   8.784   6.037   0.883 -0.0022 -0.0064 -1.0291
  209MOL0     H28791   9.091   6.021   0.843  2.5411  1.1884 -0.1326
  209MOL0     H28792   9.330   6.341   0.867 -2.6465  1.6411  1.5385
  209MOL0     H28793   9.340   6.179   0.788 -0.8583  1.2195 -0.7228
  209MOL0     H28794   9.381   6.072   1.002 -0.7006  1.0744 -1.0995
  209MOL0     H28795   9.482   6.217   1.008 -0.8720  2.2444  4.3242
  209MOL0     H28796   9.295   6.328   1.131  1.5562 -1.0905 -1.2125
  209MOL0     H28797   9.200   6.177   1.141  0.1827  0.1038 -0.6890
  209MOL0     H28798   9.397   6.080   1.259  2.6451 -0.0518 -0.6241
  209MOL0     H28799   9.470   6.236   1.250 -0.7336 -0.3749  1.6763
  209MOL0     H28800   9.535   6.059   1.432  0.7294 -0.3262  0.3781
  209MOL0     H28801   9.743   6.014   1.704 -0.2870 -1.1940  0.2848
  209MOL0     H28802   9.712   5.953   1.550 -1.3750  0.0411 -0.8829
  209MOL0     H28803   9.646   5.865   1.692 -0.5675 -0.9904 -1.0446
  209MOL0     H28804   9.742   5.785   1.986 -2.1348  0.3262 -0.7521
  209MOL0     H28805   9.825   5.711   2.218 -2.3058 -0.0074  2.9770
  209MOL0     H28806   9.801   6.048   2.529  0.4514 -0.0892 -1.0597
  209MOL0     H28807   9.677   5.938   2.582 -1.0286  2.2481  0.2275
  209MOL0     H28808   9.983   5.936   2.618  0.1802 -0.0931 -0.5056
  209MOL0     H28809   9.877   5.972   2.748  2.5797  1.3522 -0.3446
  209MOL0     H28810   9.943   5.698   2.634  1.0687 -1.4561  2.3526
  209MOL0     H28811   9.790   5.729   2.714 -1.1068  0.9432 -2.1867
  209MOL0     H28812   9.940   5.651   2.891  0.4721  0.7313  2.3406
  209MOL0     H28813   9.913   5.815   2.925 -0.4123  0.4992 -0.8133
  209MOL0     H28814  10.140   5.661   2.835 -3.3847 -2.4360  6.0940
  209MOL0     H28815  10.140   5.838   2.772 -2.6266  1.2215 -0.2113
  209MOL0     H28816  10.152   5.770   3.058 -1.5375 -0.7386 -1.3803
  209MOL0     H28817  10.124   5.926   2.986 -0.9274 -0.9631 -0.9470
  209MOL0     H28818  10.335   5.866   2.839 -0.5639 -0.5104 -0.3357
  209MOL0     H28819  10.381   5.745   2.954  1.5525  1.3373  0.7061
  209MOL0     H28820  10.366   5.930   3.134  2.1124 -3.4311  0.2395
  209MOL0     H28821  10.331   6.042   2.991 -0.1932  0.1736 -1.1898
  209MOL0     H28822   9.635   6.050   2.383  2.3466  0.9417 -0.1498
  209MOL0     H28823   9.565   6.122   2.159 -0.3245  0.5681 -2.4297
  209MOL0     H28824   9.304   6.228   1.823 -0.3348 -1.7643  1.3476
  209MOL0     H28825   9.220   6.281   1.607  0.3316  0.6419  1.5906
  209MOL0     H28826   7.906   5.983   0.460  0.4281 -1.1731 -1.7116
  209MOL0     H28827   7.686   6.026   0.561 -0.6646 -0.5063 -1.2299
  209MOL0     H28828   7.431   5.948   0.922  1.0149 -0.1198 -1.6933
  209MOL0     H28829   7.221   5.986   1.060  0.8135 -0.5954 -0.2145
  209MOL0     H28830   6.821   5.952   0.887  0.9015 -0.4992 -0.5754
  209MOL0     H28831   6.864   5.798   0.946 -2.9555  0.3252 -1.0203
  209MOL0     H28832   6.789   6.008   1.145  2.5419 -1.8744  0.5004
  209MOL0     H28833   6.787   5.838   1.157  0.3387  3.3419  2.4905
  209MOL0     H28834   6.611   5.962   0.949  2.2700 -1.1000 -0.0188
  209MOL0     H28835   6.592   5.811   1.041  0.9243 -0.7191  0.3610
  209MOL0     H28836   6.435   5.997   1.099 -0.6214 -0.8279  2.0729
  209MOL0     H28837   6.571   6.075   1.191  1.0888  0.6149 -2.1890
  209MOL0     H28838   6.491   5.766   1.448  0.0604  0.8985  1.7537
  209MOL0     H28839   6.982   5.823   0.769 -0.9332  2.0009  0.7751
  209MOL0     H28840   7.181   5.662   0.563  0.8752  0.9622 -1.3898
  209MOL0     H28841   7.045   5.776   0.562  0.1127  2.4599 -2.1727
  209MOL0     H28842   7.209   5.814   0.501  2.5447  0.8368  2.4139
  210MOL0     O28843   2.229   8.056   7.475  0.2788  0.3341  0.8340
  210MOL0     C28844   2.168   7.947   7.459 -0.8623 -0.3432 -0.3035
  210MOL0     O28845   2.221   7.840   7.408  0.5679  0.1565  0.1369
  210MOL0     C28846   2.351   7.835   7.351  0.0322  0.4535  0.0011
  210MOL0     C28847   2.369   7.754   7.239  0.4759  1.4521  0.3196
  210MOL0     C28848   2.498   7.727   7.189 -0.4803  0.0304 -0.1720
  210MOL0     C28849   2.613   7.781   7.244  0.2284 -0.1692  0.3626
  210MOL0     O28850   2.742   7.772   7.199 -0.0808 -0.1066  0.5483
  210MOL0     C28851   2.775   7.694   7.083  0.0159  0.8708 -0.6591
  210MOL0     C28852   2.924   7.672   7.057 -0.5067  0.8017 -0.0757
  210MOL0     C28853   3.018   7.787   7.002  0.2707  0.1186  0.2558
  210MOL0     C28854   3.062   7.876   7.122  1.7278 -0.3273  0.1537
  210MOL0     C28855   3.148   8.003   7.082 -0.0094  0.1373 -0.4620
  210MOL0     C28856   3.158   8.101   7.192 -0.3419  0.5602 -0.4283
  210MOL0     C28857   3.254   8.067   7.313  0.2415  0.3075  1.2954
  210MOL0     C28858   3.273   8.175   7.409 -0.1475 -0.0582  0.3521
  210MOL0     N28859   3.387   8.137   7.493 -0.2008 -0.3334  0.0323
  210MOL0     C28860   3.517   8.162   7.456 -0.0308 -0.0949 -0.0769
  210MOL0     C28861   3.588   8.107   7.557 -0.3919  0.6438  0.6186
  210MOL0     C28862   3.738   8.108   7.571 -0.2169 -0.7541 -0.1194
  210MOL0     C28863   3.766   8.138   7.718  0.1482 -0.5252  0.4519
  210MOL0     C28864   3.926   8.151   7.731  0.1489 -0.7075 -0.4269
  210MOL0     C28865   3.963   8.204   7.870 -0.4435  0.8961  0.6363
  210MOL0     O28866   4.104   8.188   7.867 -0.3788 -0.6033 -0.4348
  210MOL0     C28867   4.168   8.289   7.931 -0.0666  0.3559 -0.1031
  210MOL0     C28868   4.186   8.292   8.072  0.2567 -0.0875  0.1301
  210MOL0     C28869   4.245   8.414   8.132  0.2829  0.0611 -0.2812
  210MOL0     C28870   4.244   8.413   8.282  0.0276 -0.0335 -0.8309
  210MOL0     C28871   4.296   8.526   8.050 -0.2222  0.5507 -0.0436
  210MOL0     C28872   4.366   8.651   8.105 -0.4039 -0.1247  0.4787
  210MOL0     O28873   4.396   8.748   8.021 -0.6352 -0.0399  0.1035
  210MOL0     C28874   4.463   8.861   8.076 -0.6723 -0.2782  0.1127
  210MOL0     C28875   4.398   8.984   8.066  0.3069  0.2708  0.6353
  210MOL0     C28876   4.447   9.103   8.108 -0.1552 -1.0090  0.0279
  210MOL0     C28877   4.578   9.115   8.154 -0.9396  0.7775 -0.7659
  210MOL0     O28878   4.634   9.221   8.220  0.4630 -0.6021  0.0331
  210MOL0     C28879   4.552   9.289   8.320 -0.0241  1.1728  0.3939
  210MOL0     C28880   4.615   9.423   8.351 -0.1972  0.4709 -0.3726
  210MOL0     C28881   4.504   9.507   8.409  0.2462 -0.6098 -0.7038
  210MOL0     C28882   4.550   9.650   8.445 -0.6987  0.0439 -0.8310
  210MOL0     C28883   4.455   9.749   8.522 -0.2719  0.5617  1.0131
  210MOL0     C28884   4.405   9.694   8.661 -0.0062  0.2855  1.1646
  210MOL0     C28885   4.287   9.773   8.715 -0.2595 -0.3844  0.4392
  210MOL0     C28886   4.292   9.780   8.865  0.4098  0.6195  0.2246
  210MOL0    Cl28887   4.393   9.907   8.932  0.0086  0.0420  0.5709
  210MOL0     C28888   4.653   8.994   8.147  1.0956  0.3331  0.2753
  210MOL0     C28889   4.593   8.870   8.115 -0.3744 -0.0191 -0.0732
  210MOL0     O28890   4.387   8.658   8.226  0.5976  0.5197  0.0757
  210MOL0     C28891   4.282   8.507   7.910  0.8893  0.1516 -0.2372
  210MOL0     C28892   4.221   8.394   7.856 -0.5234 -0.1103 -0.1857
  210MOL0     N28893   3.508   8.017   7.631  0.0576  0.4017  0.0206
  210MOL0     N28894   3.383   8.033   7.585  0.6003 -0.2503 -0.4360
  210MOL0     C28895   2.594   7.860   7.362 -0.5416  0.0835 -0.4459
  210MOL0     C28896   2.463   7.887   7.417  0.2066  0.3591 -0.0703
  210MOL0     C28897   2.023   7.945   7.500 -0.0997  0.4181 -1.0242
  210MOL0     C28898   1.923   8.006   7.429 -0.3667  0.4761 -0.3036
  210MOL0     C28899   1.801   8.006   7.483  0.6259  0.3147 -0.4980
  210MOL0     C28900   1.755   7.918   7.580  0.1363  0.2205 -0.2806
  210MOL0     O28901   1.622   7.903   7.602  0.3305  0.1367 -0.4574
  210MOL0     C28902   1.583   7.774   7.640  0.0762 -0.2323 -0.8024
  210MOL0     C28903   1.436   7.764   7.620  1.1404  0.4050  0.3617
  210MOL0     C28904   1.406   7.810   7.468  0.0075 -0.4752 -0.1041
  210MOL0     C28905   1.480   7.724   7.359  1.0143 -0.8337 -0.3494
  210MOL0     C28906   1.423   7.769   7.230  0.7892  0.3222  0.7474
  210MOL0     C28907   1.368   7.801   7.127  0.1787  0.0003 -0.8669
  210MOL0     C28908   1.863   7.861   7.660 -0.2107 -0.0210 -0.1245
  210MOL0     C28909   1.997   7.883   7.626 -0.6149 -0.7440  0.4011
  210MOL0     C28910   2.117   7.843   7.713 -0.8475 -0.0030  1.0961
  210MOL0     H28911   2.272   7.730   7.197  1.1735 -0.1176 -0.4752
  210MOL0     H28912   2.507   7.678   7.093  0.2577 -0.2006  0.0096
  210MOL0     H28913   2.726   7.724   6.990 -0.3691 -0.2155 -0.8174
  210MOL0     H28914   2.734   7.598   7.115  1.4452 -0.0848 -1.6241
  210MOL0     H28915   2.959   7.642   7.156 -0.6272 -0.0237 -0.2774
  210MOL0     H28916   2.924   7.588   6.986  1.4639 -0.2303  1.0636
  210MOL0     H28917   3.103   7.748   6.945 -0.0534 -1.5239  0.8591
  210MOL0     H28918   2.972   7.854   6.929  1.0487  1.2532  0.7851
  210MOL0     H28919   2.972   7.917   7.167  0.9014  0.2063 -1.8946
  210MOL0     H28920   3.110   7.804   7.190  2.0569  0.0050  0.2760
  210MOL0     H28921   3.103   8.049   6.994 -0.1301 -1.7255 -1.4318
  210MOL0     H28922   3.251   7.974   7.056 -0.1342 -0.4747 -0.3073
  210MOL0     H28923   3.197   8.196   7.156  0.3443  0.4256 -0.0494
  210MOL0     H28924   3.057   8.110   7.234  0.1819  0.4703  0.9180
  210MOL0     H28925   3.348   8.029   7.272  0.0011 -0.6988  1.6505
  210MOL0     H28926   3.206   7.984   7.365  0.6920  0.5784  2.1674
  210MOL0     H28927   3.300   8.265   7.353  1.5263 -1.2050 -0.7947
  210MOL0     H28928   3.189   8.189   7.477 -0.3578 -0.4554  0.1818
  210MOL0     H28929   3.563   8.232   7.388  3.0632 -0.4927  1.4325
  210MOL0     H28930   3.773   8.185   7.503 -2.7842  0.5308 -0.0918
  210MOL0     H28931   3.785   8.015   7.535  3.6856  0.5890  0.9723
  210MOL0     H28932   3.713   8.221   7.766  0.6906 -0.5209  1.0491
  210MOL0     H28933   3.741   8.054   7.784 -0.0425  0.2998  1.4531
  210MOL0     H28934   3.966   8.049   7.721  0.3377 -0.6400 -0.3745
  210MOL0     H28935   3.979   8.206   7.653  0.0983  0.4345  0.3291
  210MOL0     H28936   3.939   8.308   7.892  3.8200  2.0342  0.7279
  210MOL0     H28937   3.931   8.132   7.946  3.6312 -0.6082  1.1697
  210MOL0     H28938   4.154   8.200   8.119  2.9912 -1.8721 -1.2358
  210MOL0     H28939   4.223   8.312   8.318  2.9282 -0.9836 -1.5481
  210MOL0     H28940   4.175   8.483   8.330 -0.4229 -1.5024  0.7761
  210MOL0     H28941   4.346   8.434   8.316 -0.4422  0.4735  0.3243
  210MOL0     H28942   4.299   8.993   8.022  1.1508  5.3750 -0.8852
  210MOL0     H28943   4.388   9.194   8.109  0.4294 -0.6114 -0.7478
  210MOL0     H28944   4.452   9.290   8.277  1.2435 -1.3797 -3.0489
  210MOL0     H28945   4.541   9.235   8.414 -0.9348 -2.5055 -1.6206
  210MOL0     H28946   4.701   9.422   8.419  0.9368  2.4234 -1.7069
  210MOL0     H28947   4.647   9.457   8.252  0.2668 -0.9599 -0.7441
  210MOL0     H28948   4.462   9.462   8.500 -0.8224  0.2343 -0.7562
  210MOL0     H28949   4.414   9.517   8.347 -1.2236 -2.0947  1.0553
  210MOL0     H28950   4.579   9.698   8.351 -0.9981 -0.7987 -1.3704
  210MOL0     H28951   4.641   9.634   8.504  1.0322 -1.4512 -3.6556
  210MOL0     H28952   4.508   9.843   8.537  1.7768 -0.3319 -0.2429
  210MOL0     H28953   4.363   9.763   8.465 -0.5476 -2.8096  0.4290
  210MOL0     H28954   4.493   9.694   8.726  0.5715  1.2701  0.3906
  210MOL0     H28955   4.371   9.592   8.640  0.6177  0.8124 -3.3988
  210MOL0     H28956   4.197   9.718   8.686  0.1426  0.1218 -2.0824
  210MOL0     H28957   4.264   9.872   8.672  0.3732 -1.0042 -1.4488
  210MOL0     H28958   4.327   9.682   8.897 -2.5120 -1.0220 -1.1473
  210MOL0     H28959   4.190   9.782   8.906 -0.2181 -2.1089 -0.9866
  210MOL0     H28960   4.753   9.009   8.188  2.7281  0.9960 -3.5686
  210MOL0     H28961   4.659   8.783   8.111 -0.5248 -0.3871  2.9629
  210MOL0     H28962   4.320   8.582   7.841  0.5164  1.0203  0.4747
  210MOL0     H28963   4.213   8.372   7.750 -2.0024 -0.0031 -0.1108
  210MOL0     H28964   2.676   7.907   7.416 -0.8937  3.5071 -2.5782
  210MOL0     H28965   2.447   7.941   7.511  0.7021 -1.4213  1.0888
  210MOL0     H28966   1.951   8.063   7.340 -1.2240  1.2038 -0.1137
  210MOL0     H28967   1.726   8.065   7.430  2.1842  1.2131 -1.8026
  210MOL0     H28968   1.633   7.693   7.586  0.1907 -1.1434  0.6010
  210MOL0     H28969   1.601   7.746   7.745 -1.3542  0.4990 -0.3348
  210MOL0     H28970   1.380   7.827   7.690  1.6194 -1.1381  2.2312
  210MOL0     H28971   1.402   7.662   7.642  0.4367  1.2115  3.4796
  210MOL0     H28972   1.302   7.809   7.432  0.6112 -0.9405 -1.9747
  210MOL0     H28973   1.441   7.913   7.461  0.0718 -0.1835  3.2505
  210MOL0     H28974   1.454   7.618   7.360  1.1061 -0.8786  1.4770
  210MOL0     H28975   1.587   7.744   7.349  0.8560 -0.4905 -1.5765
  210MOL0     H28976   1.323   7.826   7.033 -3.0433 -2.6129 -0.2001
  210MOL0     H28977   1.830   7.811   7.750  0.3112  1.7761  1.1206
  210MOL0     H28978   2.173   7.933   7.740 -1.0741  0.4677  0.0494
  210MOL0     H28979   2.085   7.789   7.802 -0.4576 -3.7593 -0.8428
  210MOL0     H28980   2.162   7.767   7.649  0.7752 -0.9682  3.2418
  211MOL0     O28981   1.764   9.149  10.486  0.2523 -0.7543 -0.1847
  211MOL0     C28982   1.735   9.261  10.532 -0.7709 -0.2000 -0.4794
  211MOL0     O28983   1.823   9.364  10.552  0.0693 -0.2616  0.6048
  211MOL0     C28984   1.944   9.371  10.488 -0.4567 -0.4833  0.1607
  211MOL0     C28985   2.055   9.377  10.569 -0.0685 -0.4384 -0.7665
  211MOL0     C28986   2.183   9.397  10.519  0.2257  1.0243  0.1656
  211MOL0     C28987   2.197   9.402  10.383 -0.2682 -0.5894 -0.2778
  211MOL0     O28988   2.318   9.431  10.333 -0.0712  0.5856  0.3125
  211MOL0     C28989   2.378   9.553  10.370 -0.2995  0.7003  0.4355
  211MOL0     C28990   2.513   9.549  10.446  0.1001  0.4336  0.4105
  211MOL0     C28991   2.623   9.493  10.363 -0.3434 -0.2306  0.4262
  211MOL0     C28992   2.747   9.484  10.451 -0.4829  0.1017 -0.1267
  211MOL0     C28993   2.863   9.413  10.375  0.0772  0.1017  0.1185
  211MOL0     C28994   2.962   9.508  10.284  0.9226  0.4097  0.1361
  211MOL0     C28995   3.029   9.621  10.358  0.0932  0.8787  0.0314
  211MOL0     C28996   3.134   9.555  10.450 -0.4552 -0.6269 -0.7264
  211MOL0     N28997   3.234   9.651  10.493  0.5337  0.2458 -0.0432
  211MOL0     C28998   3.357   9.674  10.437 -0.1781 -0.8898 -0.4785
  211MOL0     C28999   3.420   9.760  10.532 -0.7480 -0.4569 -0.2815
  211MOL0     C29000   3.571   9.802  10.528 -0.9975 -0.2933  0.2837
  211MOL0     C29001   3.610   9.902  10.632  0.3271 -0.5954 -0.4671
  211MOL0     C29002   3.756   9.947  10.616 -0.6738 -0.1233  0.5819
  211MOL0     C29003   3.787  10.053  10.721  0.3277  0.4339 -0.6712
  211MOL0     O29004   3.917  10.069  10.757 -0.4728 -0.9196 -0.6004
  211MOL0     C29005   3.964  10.190  10.803 -0.2609  0.7846  0.2437
  211MOL0     C29006   4.102  10.214  10.779  0.6120  0.0270 -0.1811
  211MOL0     C29007   4.159  10.336  10.812  0.4948  0.0364 -0.1175
  211MOL0     C29008   4.301  10.348  10.777  0.8379 -0.1734 -0.1438
  211MOL0     C29009   4.085  10.428  10.893  0.2200 -0.4399  0.1057
  211MOL0     C29010   4.145  10.550  10.959 -0.4026  0.9812  0.2034
  211MOL0     O29011   4.056  10.632  11.016  0.2352  0.0499  0.1436
  211MOL0     C29012   4.105  10.735  11.095 -0.2704 -0.3168 -0.1151
  211MOL0     C29013   4.155  10.848  11.032 -0.7953 -0.0952  0.5002
  211MOL0     C29014   4.188  10.954  11.117  0.0984  0.0594 -0.3476
  211MOL0     C29015   4.176  10.955  11.253  0.0332  0.0045 -0.0896
  211MOL0     O29016   4.205  11.076  11.315 -0.3360 -0.2815  0.3621
  211MOL0     C29017   4.185  11.094  11.456 -0.0057  0.4418  0.4796
  211MOL0     C29018   4.240  11.235  11.485 -0.4140 -0.2968  0.2684
  211MOL0     C29019   4.377  11.269  11.418 -0.3343  0.8684  0.3209
  211MOL0     C29020   4.449  11.386  11.496  0.2427  0.9730  0.3421
  211MOL0     C29021   4.582  11.433  11.437 -0.7691  0.3054  0.7757
  211MOL0     C29022   4.691  11.468  11.541 -0.6031  0.1859 -0.0075
  211MOL0     C29023   4.822  11.503  11.470  0.2189 -1.0885 -0.2417
  211MOL0     C29024   4.835  11.657  11.486 -0.8072 -0.0061 -0.0318
  211MOL0    Cl29025   4.973  11.698  11.386  0.0714 -0.3030 -0.1911
  211MOL0     C29026   4.124  10.838  11.316  0.7961  0.2714 -0.7011
  211MOL0     C29027   4.075  10.728  11.234 -0.9893  0.1813  0.1962
  211MOL0     O29028   4.265  10.577  10.948 -0.2021  0.8426  0.0373
  211MOL0     C29029   3.950  10.403  10.905  0.1252 -0.3523 -0.4981
  211MOL0     C29030   3.885  10.289  10.866 -0.4115 -0.6265  0.8055
  211MOL0     N29031   3.326   9.793  10.627  0.2862 -0.7092  0.1631
  211MOL0     N29032   3.223   9.725  10.605  0.4417  0.0551  0.1288
  211MOL0     C29033   2.085   9.387  10.292  0.1730  0.1437  0.2977
  211MOL0     C29034   1.959   9.376  10.350 -0.0787  0.2906 -0.5629
  211MOL0     C29035   1.597   9.288  10.574  0.0948 -0.2165  0.5065
  211MOL0     C29036   1.550   9.432  10.572 -0.6050 -0.9310  0.0475
  211MOL0     C29037   1.433   9.474  10.625  0.1422  0.6318 -0.1028
  211MOL0     C29038   1.355   9.378  10.687  0.4470  0.1643 -1.0178
  211MOL0     O29039   1.245   9.428  10.745  0.5455  0.9409  0.0451
  211MOL0     C29040   1.181   9.358  10.856  0.3972  0.4163 -0.2930
  211MOL0     C29041   1.056   9.428  10.897  0.4654 -0.3832  0.0226
  211MOL0     C29042   0.960   9.336  10.982 -0.7224 -0.1238  0.0239
  211MOL0     C29043   0.850   9.271  10.907  0.1392  0.2049  0.6245
  211MOL0     C29044   0.767   9.367  10.838  0.3924 -0.0439  0.0268
  211MOL0     C29045   0.681   9.443  10.796  0.5207  0.5373 -0.4600
  211MOL0     C29046   1.387   9.240  10.689  0.6828 -1.4092 -0.4293
  211MOL0     C29047   1.504   9.197  10.632 -0.0940 -0.2133 -0.8353
  211MOL0     C29048   1.541   9.049  10.655  0.3846 -0.0289 -0.1687
  211MOL0     H29049   2.032   9.372  10.675  1.1820 -1.4376 -0.5156
  211MOL0     H29050   2.269   9.402  10.586  1.2051  0.4913 -1.0007
  211MOL0     H29051   2.303   9.609  10.427 -0.1876  1.3582 -0.0471
  211MOL0     H29052   2.383   9.627  10.289  2.2583  3.4794  2.8560
  211MOL0     H29053   2.534   9.650  10.482 -2.6118  0.9394  0.7839
  211MOL0     H29054   2.494   9.493  10.537 -2.4666  3.1985  1.7511
  211MOL0     H29055   2.599   9.393  10.325 -0.2432 -0.6276  1.3750
  211MOL0     H29056   2.645   9.560  10.280  2.1307  2.5638  3.0625
  211MOL0     H29057   2.771   9.588  10.475 -0.1772  0.7476 -2.8818
  211MOL0     H29058   2.719   9.421  10.536 -0.7645  1.7447  1.0582
  211MOL0     H29059   2.826   9.331  10.312 -2.4506 -0.4936  2.2203
  211MOL0     H29060   2.926   9.367  10.452 -0.9303 -0.1564  0.8078
  211MOL0     H29061   3.043   9.458  10.229  1.2966  1.7412 -0.5709
  211MOL0     H29062   2.898   9.548  10.205  1.8293 -2.5256 -2.2797
  211MOL0     H29063   2.956   9.678  10.416  0.1579 -0.6166  1.6453
  211MOL0     H29064   3.062   9.686  10.275 -2.3192  0.6216 -1.2259
  211MOL0     H29065   3.078   9.520  10.537 -0.1085 -0.1225 -0.2922
  211MOL0     H29066   3.187   9.472  10.404  1.0436 -1.1682  1.7648
  211MOL0     H29067   3.398   9.625  10.350  0.6301 -0.0438 -0.5983
  211MOL0     H29068   3.594   9.855  10.435  0.2097  2.2544  1.9135
  211MOL0     H29069   3.634   9.712  10.521 -3.3631 -1.9227 -1.8762
  211MOL0     H29070   3.546   9.990  10.618  1.0279 -0.4992 -3.9267
  211MOL0     H29071   3.592   9.872  10.736 -0.5155 -2.6419 -1.1506
  211MOL0     H29072   3.827   9.863  10.618  0.6543  0.9633  0.0741
  211MOL0     H29073   3.768   9.997  10.520 -1.7046 -0.7790  0.0916
  211MOL0     H29074   3.751  10.147  10.677  1.0456 -0.0926 -2.5129
  211MOL0     H29075   3.733  10.040  10.815  0.7326  4.0625  0.2102
  211MOL0     H29076   4.171  10.142  10.736  1.5404  0.7778  0.0277
  211MOL0     H29077   4.347  10.270  10.715  0.7348  0.8079 -1.4833
  211MOL0     H29078   4.356  10.358  10.871 -0.0728 -0.7777  0.4647
  211MOL0     H29079   4.311  10.444  10.726  0.2585 -0.3972 -0.6874
  211MOL0     H29080   4.164  10.849  10.924  0.3284 -0.4372  0.5710
  211MOL0     H29081   4.219  11.046  11.070 -2.2853  0.5206 -1.1799
  211MOL0     H29082   4.078  11.081  11.473 -0.2283  2.0602  0.5069
  211MOL0     H29083   4.245  11.015  11.504  0.3514  0.2005 -0.3438
  211MOL0     H29084   4.168  11.310  11.452  1.0629  0.8689 -0.4700
  211MOL0     H29085   4.247  11.242  11.594 -0.6240 -0.2274  0.2783
  211MOL0     H29086   4.361  11.286  11.311  3.3844  0.4024 -0.4462
  211MOL0     H29087   4.447  11.185  11.425  1.9888  2.3588 -2.5586
  211MOL0     H29088   4.463  11.350  11.598 -0.0149  1.8648  0.7077
  211MOL0     H29089   4.374  11.466  11.501 -2.8396 -1.5880 -0.8071
  211MOL0     H29090   4.630  11.356  11.376 -1.5926 -0.2671  0.8462
  211MOL0     H29091   4.572  11.519  11.370 -1.4737  1.1558  1.9313
  211MOL0     H29092   4.702  11.386  11.612  0.8723  0.1402 -0.2582
  211MOL0     H29093   4.656  11.547  11.608  0.6214 -0.4131  1.3824
  211MOL0     H29094   4.807  11.481  11.364  0.7167  1.0634 -0.8156
  211MOL0     H29095   4.904  11.449  11.518 -0.3143  0.0735  2.1600
  211MOL0     H29096   4.856  11.680  11.591 -0.0492 -0.0628 -0.1673
  211MOL0     H29097   4.748  11.710  11.444 -0.6213 -1.5530 -2.5096
  211MOL0     H29098   4.129  10.827  11.424 -0.5763 -1.4750 -0.7805
  211MOL0     H29099   4.033  10.635  11.272 -0.6069  0.3097  0.9354
  211MOL0     H29100   3.889  10.467  10.968 -1.6570 -0.6983 -1.7913
  211MOL0     H29101   3.779  10.268  10.875 -0.8768  0.7025 -1.1108
  211MOL0     H29102   2.096   9.399  10.185 -2.3733 -1.8124 -0.2772
  211MOL0     H29103   1.878   9.368  10.278 -1.1230  1.3627  0.4586
  211MOL0     H29104   1.612   9.498  10.512 -0.5959 -0.0408  1.0086
  211MOL0     H29105   1.401   9.577  10.627 -1.0612  0.2816  2.3019
  211MOL0     H29106   1.146   9.258  10.833  0.3447  1.2144 -4.3522
  211MOL0     H29107   1.256   9.353  10.936 -0.0110  2.3510  0.2591
  211MOL0     H29108   0.999   9.445  10.805 -0.8449 -2.0996  0.4756
  211MOL0     H29109   1.087   9.520  10.948  0.3966 -1.1092  1.3959
  211MOL0     H29110   1.025   9.256  11.020  2.0905  2.6353  1.5822
  211MOL0     H29111   0.925   9.389  11.071  1.9898 -1.2864  1.9295
  211MOL0     H29112   0.790   9.213  10.978 -0.2944 -0.4273 -0.2481
  211MOL0     H29113   0.888   9.200  10.833 -0.3182  0.9932 -0.4002
  211MOL0     H29114   0.611   9.513  10.756 -0.1218  0.2789  0.1675
  211MOL0     H29115   1.314   9.178  10.740  0.4996 -0.0407  1.0454
  211MOL0     H29116   1.448   9.004  10.692 -0.4823  0.8307 -1.2005
  211MOL0     H29117   1.554   9.005  10.555  0.5606 -0.9789  0.2650
  211MOL0     H29118   1.625   9.031  10.721  1.3254  0.9295 -1.0680
  212MOL0     O29119   2.640   1.711   8.836  0.3340  0.2173  0.5666
  212MOL0     C29120   2.544   1.770   8.776  0.4575 -0.6652  0.1746
  212MOL0     O29121   2.529   1.903   8.767  0.0046 -0.6583  0.7193
  212MOL0     C29122   2.612   1.986   8.844  0.3512 -0.4126 -0.3859
  212MOL0     C29123   2.600   1.993   8.984  1.0755 -0.8105  1.1676
  212MOL0     C29124   2.666   2.092   9.047 -0.9489 -0.5534  0.0121
  212MOL0     C29125   2.761   2.171   8.985  1.0308  0.0229  0.2454
  212MOL0     O29126   2.838   2.250   9.068  0.2781 -1.0685 -0.0000
  212MOL0     C29127   2.964   2.302   9.012  0.5183  0.7009 -0.4326
  212MOL0     C29128   3.055   2.372   9.114  0.1301 -1.2403  0.0378
  212MOL0     C29129   2.994   2.495   9.178 -0.7039 -0.0638 -0.4108
  212MOL0     C29130   2.995   2.630   9.097  0.6460  0.0255  0.4956
  212MOL0     C29131   2.974   2.755   9.185  0.4977  1.0659  0.3547
  212MOL0     C29132   3.082   2.787   9.291 -0.6829  0.1090 -0.2326
  212MOL0     C29133   3.209   2.838   9.213 -0.4416 -0.0185  0.3548
  212MOL0     C29134   3.330   2.832   9.301 -0.6308  0.5675  0.0851
  212MOL0     N29135   3.328   2.925   9.423  0.4064 -0.3424  0.0441
  212MOL0     C29136   3.325   2.871   9.550 -0.0435 -0.1445  0.3123
  212MOL0     C29137   3.299   2.974   9.638  0.4481 -0.1822 -0.0636
  212MOL0     C29138   3.294   2.950   9.786  0.0269  0.0447 -0.3580
  212MOL0     C29139   3.367   3.047   9.878 -0.3026  1.2231 -0.4745
  212MOL0     C29140   3.518   3.042   9.861  0.5093  0.6062 -0.0961
  212MOL0     C29141   3.580   3.116   9.979  0.1958  0.1477  0.4272
  212MOL0     O29142   3.560   3.257   9.971 -0.2414  0.0740 -0.0571
  212MOL0     C29143   3.664   3.330  10.029  0.8864  1.4904  0.4296
  212MOL0     C29144   3.660   3.466  10.009 -0.1842  0.6951  1.3168
  212MOL0     C29145   3.744   3.564  10.070  0.2410  0.7882  0.6823
  212MOL0     C29146   3.736   3.716  10.039 -0.0036  0.5627 -0.2099
  212MOL0     C29147   3.833   3.514  10.175 -0.6565 -0.1797 -0.5942
  212MOL0     C29148   3.913   3.604  10.261 -0.4265  0.1193  0.3663
  212MOL0     O29149   3.945   3.559  10.383  0.8270 -0.5234 -0.1952
  212MOL0     C29150   4.006   3.647  10.472  0.0873  0.8975  0.1281
  212MOL0     C29151   4.140   3.628  10.496  0.1439  0.5583 -0.5226
  212MOL0     C29152   4.213   3.718  10.567 -0.3132  0.2966  0.8140
  212MOL0     C29153   4.145   3.828  10.633 -0.4664 -0.0138  0.1043
  212MOL0     O29154   4.222   3.900  10.709 -0.0087  0.2105 -1.0279
  212MOL0     C29155   4.162   3.991  10.806  0.4795  0.3878  0.5736
  212MOL0     C29156   4.281   4.040  10.883  0.0743  0.2521 -0.1089
  212MOL0     C29157   4.231   4.123  11.005  0.7378  0.6149 -0.1929
  212MOL0     C29158   4.205   4.263  10.965 -0.0161  0.0957 -0.5574
  212MOL0     C29159   4.130   4.338  11.072 -1.0975  0.5778 -0.2493
  212MOL0     C29160   4.087   4.477  11.028  0.1729  0.0089  0.2370
  212MOL0     C29161   4.213   4.565  11.020  0.3152  0.1300  0.4043
  212MOL0     C29162   4.262   4.612  11.156 -0.7272 -0.2193 -0.0358
  212MOL0    Cl29163   4.384   4.739  11.129 -0.2928 -0.2962 -0.0611
  212MOL0     C29164   4.005   3.846  10.616  0.0002 -0.4595  0.5450
  212MOL0     C29165   3.940   3.758  10.528 -0.3959  0.6391 -0.3130
  212MOL0     O29166   3.955   3.708  10.216 -0.2703  0.2222  0.3246
  212MOL0     C29167   3.838   3.369  10.198  0.2864  0.1495  0.1267
  212MOL0     C29168   3.762   3.281  10.120 -0.5543  1.4888  0.2076
  212MOL0     N29169   3.296   3.088   9.562 -0.3416  0.2103 -0.9066
  212MOL0     N29170   3.301   3.055   9.435 -0.5844 -0.7546  0.3209
  212MOL0     C29171   2.764   2.171   8.843  0.7185  0.3348 -0.0463
  212MOL0     C29172   2.693   2.074   8.775  0.1644  0.1942  0.1137
  212MOL0     C29173   2.455   1.686   8.697 -0.0315 -0.1632  0.4716
  212MOL0     C29174   2.519   1.597   8.610 -0.0158 -0.4481 -0.9344
  212MOL0     C29175   2.461   1.488   8.550  0.3491 -0.4195 -0.2490
  212MOL0     C29176   2.320   1.463   8.577 -0.5951 -0.9217 -0.6326
  212MOL0     O29177   2.245   1.359   8.535  0.1775 -0.2346  0.0557
  212MOL0     C29178   2.311   1.249   8.489 -0.2045 -0.3287 -0.2487
  212MOL0     C29179   2.328   1.266   8.337  0.7005  0.3259 -0.2739
  212MOL0     C29180   2.190   1.232   8.274 -0.2540 -0.6578 -0.2865
  212MOL0     C29181   2.204   1.233   8.122  0.2056 -0.8392 -0.2464
  212MOL0     C29182   2.297   1.129   8.076  0.3533  0.5648 -0.3335
  212MOL0     C29183   2.369   1.041   8.032  0.1932 -0.2439  0.4483
  212MOL0     C29184   2.254   1.559   8.672  0.0989  0.0680  0.1697
  212MOL0     C29185   2.319   1.669   8.726  0.0973 -0.0268  0.7639
  212MOL0     C29186   2.239   1.764   8.818  0.7161 -0.8169  0.9448
  212MOL0     H29187   2.524   1.931   9.031 -2.7103  0.6416 -2.4158
  212MOL0     H29188   2.641   2.104   9.152 -1.3614  1.3288 -0.2741
  212MOL0     H29189   2.962   2.375   8.931 -0.1994 -0.4628 -1.5076
  212MOL0     H29190   3.034   2.221   8.989  0.2396  0.5534 -0.7631
  212MOL0     H29191   3.078   2.302   9.195 -2.6343 -0.2068  1.8718
  212MOL0     H29192   3.152   2.398   9.071 -0.5085 -0.5527 -1.0396
  212MOL0     H29193   2.895   2.475   9.219 -0.0506 -0.6457  0.9305
  212MOL0     H29194   3.059   2.510   9.265 -1.9403 -0.0454  0.5426
  212MOL0     H29195   3.089   2.638   9.041  0.8748  0.0124  0.8748
  212MOL0     H29196   2.928   2.635   9.010  1.9936 -0.7900 -0.6473
  212MOL0     H29197   2.876   2.746   9.233  1.9556  0.1814  3.3959
  212MOL0     H29198   2.966   2.843   9.121  0.4247  0.2436 -0.7961
  212MOL0     H29199   3.043   2.855   9.367 -0.0935 -1.4271  1.5043
  212MOL0     H29200   3.106   2.698   9.349  1.9112  0.9734  0.1534
  212MOL0     H29201   3.194   2.940   9.177  1.0777  0.1750  0.1975
  212MOL0     H29202   3.215   2.781   9.119  1.9807  1.8572 -0.7364
  212MOL0     H29203   3.349   2.729   9.336  1.2288  0.8053 -0.0871
  212MOL0     H29204   3.411   2.868   9.238 -1.5490  1.4242 -0.6148
  212MOL0     H29205   3.342   2.772   9.591  1.0898  0.1961  0.6907
  212MOL0     H29206   3.318   2.846   9.809 -2.3405 -0.4882 -0.1144
  212MOL0     H29207   3.186   2.955   9.799  0.0352 -1.5935  0.6476
  212MOL0     H29208   3.323   3.145   9.857 -1.7034  0.4077 -1.5352
  212MOL0     H29209   3.340   3.028   9.982 -1.7994 -1.5080 -1.2475
  212MOL0     H29210   3.555   2.939   9.864 -3.4216 -0.9747  3.0348
  212MOL0     H29211   3.553   3.098   9.774  2.1701 -0.3543 -0.0878
  212MOL0     H29212   3.540   3.078  10.074  0.5602 -0.1176  0.4777
  212MOL0     H29213   3.686   3.094   9.966  0.6275  2.1777  0.2461
  212MOL0     H29214   3.592   3.508   9.935 -0.3530  2.3428  2.3517
  212MOL0     H29215   3.652   3.739   9.973  1.4949 -3.2537 -3.8768
  212MOL0     H29216   3.827   3.750   9.989  0.1624 -0.6000 -0.7292
  212MOL0     H29217   3.725   3.772  10.133  0.7509  0.9894 -0.3644
  212MOL0     H29218   4.191   3.541  10.455 -1.9694 -2.1924  2.1902
  212MOL0     H29219   4.314   3.703  10.604 -1.0594 -0.2811  2.7652
  212MOL0     H29220   4.109   4.063  10.744  0.3781 -0.0659  0.1244
  212MOL0     H29221   4.091   3.942  10.872 -0.6238  0.2075 -0.7179
  212MOL0     H29222   4.325   3.949  10.925 -4.0884 -1.9770  0.0294
  212MOL0     H29223   4.345   4.101  10.819  0.7527  2.1745  2.2565
  212MOL0     H29224   4.320   4.116  11.069 -0.4248  1.8918  1.6862
  212MOL0     H29225   4.154   4.069  11.062  1.5429  1.0874  1.4159
  212MOL0     H29226   4.158   4.273  10.867  1.5238  0.5960 -1.2749
  212MOL0     H29227   4.295   4.316  10.934 -2.0806  2.7948 -2.4497
  212MOL0     H29228   4.036   4.284  11.090  0.6886 -2.0946  1.9559
  212MOL0     H29229   4.173   4.325  11.171 -1.4953 -2.8595 -0.3790
  212MOL0     H29230   4.020   4.525  11.100  1.6299  2.4002  0.1347
  212MOL0     H29231   4.046   4.490  10.928 -4.5006  3.5686  2.2112
  212MOL0     H29232   4.179   4.649  10.960 -0.8097  0.4583  1.4535
  212MOL0     H29233   4.286   4.525  10.949  0.0094  1.9864 -1.0134
  212MOL0     H29234   4.310   4.530  11.211  1.8182  2.6037  2.3227
  212MOL0     H29235   4.182   4.648  11.222 -0.5567 -3.4612  2.1638
  212MOL0     H29236   3.948   3.922  10.667 -0.5808  2.6786 -4.1715
  212MOL0     H29237   3.833   3.760  10.507 -0.5081 -3.5035 -0.8253
  212MOL0     H29238   3.906   3.333  10.274  1.1828  0.8513 -0.3217
  212MOL0     H29239   3.767   3.176  10.150  0.4841  1.4851  0.0528
  212MOL0     H29240   2.823   2.241   8.785  0.4067  0.9876  0.4109
  212MOL0     H29241   2.701   2.062   8.668  1.6041 -1.3048  0.3483
  212MOL0     H29242   2.627   1.603   8.602 -0.1515  2.6392 -1.5838
  212MOL0     H29243   2.511   1.415   8.487  0.1698 -0.9704  0.2465
  212MOL0     H29244   2.405   1.230   8.542 -0.9856 -0.2734  1.1935
  212MOL0     H29245   2.241   1.168   8.507  0.8606 -1.0301  0.9470
  212MOL0     H29246   2.404   1.195   8.304  0.5794  0.1674 -0.2129
  212MOL0     H29247   2.349   1.369   8.308  1.4627  0.0655 -0.6544
  212MOL0     H29248   2.163   1.133   8.311  2.7535 -0.5852  2.5472
  212MOL0     H29249   2.116   1.306   8.306 -0.7890 -0.6073 -1.5925
  212MOL0     H29250   2.245   1.331   8.093  1.9091 -1.6543 -0.7123
  212MOL0     H29251   2.105   1.223   8.077  0.1647 -3.9935  0.3358
  212MOL0     H29252   2.431   0.956   8.009 -0.7289 -0.3771 -1.7680
  212MOL0     H29253   2.150   1.550   8.702 -0.2148  2.2717 -0.0731
  212MOL0     H29254   2.264   1.865   8.783  4.9639 -1.6439  1.0963
  212MOL0     H29255   2.132   1.745   8.806 -0.4535  4.2157  1.2356
  212MOL0     H29256   2.260   1.759   8.925  2.2818  0.0299  0.7124
  213MOL0     O29257   8.548   7.331   7.981  0.2637 -0.0392  0.2662
  213MOL0     C29258   8.501   7.218   8.002 -0.1442  0.4383 -0.8638
  213MOL0     O29259   8.576   7.104   8.013  0.4927  0.7097  0.5935
  213MOL0     C29260   8.705   7.128   7.972  0.4105  0.5649  0.0323
  213MOL0     C29261   8.813   7.098   8.058 -0.5320 -0.0194  0.4666
  213MOL0     C29262   8.942   7.112   8.016 -0.1441 -0.0014 -0.1701
  213MOL0     C29263   8.979   7.163   7.891  0.7562 -0.5397  0.1061
  213MOL0     O29264   9.115   7.170   7.853 -0.4491 -0.0652 -0.0140
  213MOL0     C29265   9.152   7.291   7.775 -0.5668  0.8499  0.9695
  213MOL0     C29266   9.295   7.268   7.721 -0.7095  0.4530  0.1979
  213MOL0     C29267   9.287   7.177   7.600  0.1987  0.0341  0.5104
  213MOL0     C29268   9.421   7.128   7.545 -0.0813  0.0019  0.0694
  213MOL0     C29269   9.510   7.246   7.502  0.4519 -0.0421  0.4406
  213MOL0     C29270   9.652   7.202   7.487 -0.3721 -0.2132 -1.0014
  213MOL0     C29271   9.726   7.318   7.412  0.0818 -0.2069  0.3670
  213MOL0     C29272   9.878   7.273   7.398  0.0164 -0.2359 -0.0535
  213MOL0     N29273   9.956   7.261   7.517  0.3775 -0.3219 -0.6506
  213MOL0     C29274   9.969   7.148   7.594 -0.0320  1.0924 -0.8369
  213MOL0     C29275  10.062   7.178   7.682 -0.2420 -1.0223  0.3658
  213MOL0     C29276  10.110   7.083   7.791  0.1967 -0.1294 -0.0812
  213MOL0     C29277  10.221   6.982   7.763  0.3968 -0.3453 -0.8424
  213MOL0     C29278  10.351   7.062   7.743 -0.4455  0.7691 -0.4650
  213MOL0     C29279  10.467   6.974   7.715 -0.5627 -0.4733  0.1361
  213MOL0     O29280  10.513   6.915   7.837  0.0343  0.3850  0.1850
  213MOL0     C29281  10.630   6.845   7.817  0.3645 -0.4560 -0.5492
  213MOL0     C29282  10.699   6.818   7.691  0.1737  0.2085  1.5461
  213MOL0     C29283  10.828   6.756   7.688  1.2621 -0.8686  0.0699
  213MOL0     C29284  10.898   6.741   7.548  0.2855  0.2765 -0.2778
  213MOL0     C29285  10.883   6.719   7.812 -0.4039 -0.3043 -0.4542
  213MOL0     C29286  10.999   6.629   7.819  0.0669  0.6145  0.5201
  213MOL0     O29287  11.037   6.590   7.942 -0.5847  0.0233 -0.6101
  213MOL0     C29288  11.165   6.550   7.954 -0.0252 -0.0349 -0.1595
  213MOL0     C29289  11.284   6.624   7.910  0.6971  0.5587 -0.4134
  213MOL0     C29290  11.410   6.585   7.955 -0.0480 -0.5386  0.2768
  213MOL0     C29291  11.427   6.475   8.042 -0.4281 -0.2673 -0.4810
  213MOL0     O29292  11.552   6.453   8.101 -0.5830  0.2880  0.1971
  213MOL0     C29293  11.671   6.467   8.018  0.1388 -1.1300 -0.3318
  213MOL0     C29294  11.780   6.379   8.084 -0.3702 -0.1259  0.6842
  213MOL0     C29295  11.912   6.432   8.013 -0.1816  0.5120 -0.0741
  213MOL0     C29296  12.028   6.346   8.065  0.2808 -0.0676  0.5665
  213MOL0     C29297  12.155   6.374   7.985  0.0332 -0.4191 -0.3516
  213MOL0     C29298  12.276   6.308   8.052 -0.2063  0.1600  0.1169
  213MOL0     C29299  12.409   6.320   7.979 -0.1824  0.6074  0.0827
  213MOL0     C29300  12.520   6.258   8.064  0.3156  0.0391 -0.0241
  213MOL0    Cl29301  12.578   6.366   8.192  0.2188 -0.2342 -0.0210
  213MOL0     C29302  11.317   6.409   8.080  0.5757 -0.0210 -0.5403
  213MOL0     C29303  11.187   6.436   8.044 -0.0691 -0.4599  0.5652
  213MOL0     O29304  11.045   6.588   7.713  0.2949  0.0126 -0.0539
  213MOL0     C29305  10.822   6.757   7.930  0.3391  0.4608 -0.2357
  213MOL0     C29306  10.697   6.806   7.926  0.9293 -0.1552 -0.0735
  213MOL0     N29307  10.105   7.315   7.660  0.0075 -1.0282  0.5360
  213MOL0     N29308  10.033   7.366   7.563 -0.3718  0.0600  0.2548
  213MOL0     C29309   8.873   7.208   7.806 -0.3303  0.9433 -0.4596
  213MOL0     C29310   8.739   7.178   7.845 -0.0405  0.1343  0.8402
  213MOL0     C29311   8.360   7.203   8.043  0.1782 -0.0341  0.1944
  213MOL0     C29312   8.285   7.328   8.062 -0.2042 -0.1272 -0.4037
  213MOL0     C29313   8.150   7.330   8.099  0.0230  0.7322 -1.0829
  213MOL0     C29314   8.091   7.206   8.136  0.0656  0.9497 -0.0262
  213MOL0     O29315   7.962   7.185   8.180  0.7438  0.0868  0.4709
  213MOL0     C29316   7.880   7.296   8.218 -0.8671  0.6595 -0.7363
  213MOL0     C29317   7.747   7.223   8.253  0.5837 -0.3180  0.0949
  213MOL0     C29318   7.635   7.337   8.281 -0.4555 -1.0118 -0.4992
  213MOL0     C29319   7.564   7.309   8.408  0.7249  0.0513  0.4893
  213MOL0     C29320   7.499   7.174   8.398  0.2789 -0.4448  0.4657
  213MOL0     C29321   7.454   7.056   8.394 -0.0632  0.1155 -0.2049
  213MOL0     C29322   8.162   7.092   8.119 -0.3767  0.4651 -0.8707
  213MOL0     C29323   8.294   7.081   8.074  0.2801  0.7111  0.5962
  213MOL0     C29324   8.349   6.942   8.026  1.7872 -0.1685  0.2677
  213MOL0     H29325   8.798   7.069   8.161 -0.7189  3.2492  1.4643
  213MOL0     H29326   9.022   7.077   8.080 -2.3151 -1.1402  2.0999
  213MOL0     H29327   9.147   7.382   7.836  0.0141  0.5206  1.5210
  213MOL0     H29328   9.086   7.303   7.689  0.7000  1.0431 -0.0189
  213MOL0     H29329   9.351   7.352   7.681  0.7361 -0.6858 -0.2602
  213MOL0     H29330   9.357   7.219   7.797 -0.5841  0.9441  0.4155
  213MOL0     H29331   9.227   7.090   7.627 -1.9652  0.9033 -1.1770
  213MOL0     H29332   9.231   7.225   7.519  0.7209 -1.6604 -0.9262
  213MOL0     H29333   9.463   7.074   7.630  0.9213  1.8159  0.7797
  213MOL0     H29334   9.413   7.065   7.455 -0.5940  1.1406 -0.7103
  213MOL0     H29335   9.519   7.326   7.576 -1.6585 -1.8181  2.7640
  213MOL0     H29336   9.480   7.287   7.405  1.8408  1.4450  0.6035
  213MOL0     H29337   9.694   7.185   7.586 -1.8609 -0.5193 -0.4009
  213MOL0     H29338   9.660   7.108   7.433 -2.2227  0.6979 -3.0253
  213MOL0     H29339   9.714   7.413   7.464 -0.1924 -0.1821  0.2563
  213MOL0     H29340   9.682   7.324   7.313  1.0448 -1.3603 -0.1650
  213MOL0     H29341   9.872   7.173   7.354 -1.6777 -0.5899  0.9091
  213MOL0     H29342   9.923   7.336   7.321 -2.1760 -0.1854 -1.3745
  213MOL0     H29343   9.920   7.052   7.580  2.3324 -0.5837  1.3046
  213MOL0     H29344  10.026   7.019   7.819  1.0627 -1.8023 -1.1394
  213MOL0     H29345  10.124   7.151   7.875 -1.5997  1.1465 -0.7396
  213MOL0     H29346  10.223   6.925   7.857  0.0289  1.0128  0.0155
  213MOL0     H29347  10.196   6.921   7.675  3.1864  0.3700 -2.2197
  213MOL0     H29348  10.332   7.119   7.651 -0.4001  1.3607 -0.1106
  213MOL0     H29349  10.381   7.130   7.823  2.9420 -2.5062  1.3407
  213MOL0     H29350  10.446   6.908   7.631 -0.0690  2.7661 -2.7768
  213MOL0     H29351  10.550   7.042   7.692 -2.0326  1.6064  0.7146
  213MOL0     H29352  10.652   6.833   7.595  2.2705  3.3667  0.8469
  213MOL0     H29353  10.909   6.638   7.514 -1.0277  0.2368 -0.6455
  213MOL0     H29354  10.998   6.786   7.549  0.7815 -0.7910  0.2660
  213MOL0     H29355  10.839   6.803   7.480 -1.8175 -1.0297  0.2433
  213MOL0     H29356  11.280   6.701   7.833  1.3100  0.1548 -0.8625
  213MOL0     H29357  11.496   6.649   7.936 -2.8416  4.2175  1.8062
  213MOL0     H29358  11.626   6.427   7.926 -1.6340 -1.2225  0.5200
  213MOL0     H29359  11.707   6.568   8.001 -2.2163  0.7501  4.1515
  213MOL0     H29360  11.777   6.397   8.192 -5.3694 -1.4534  1.0009
  213MOL0     H29361  11.764   6.271   8.075 -1.0355  0.0058  0.3026
  213MOL0     H29362  11.929   6.537   8.036 -0.7936  1.0747 -2.0730
  213MOL0     H29363  11.919   6.429   7.904  0.9620 -0.1223  0.0007
  213MOL0     H29364  11.998   6.241   8.055  0.7395 -0.3080  1.5477
  213MOL0     H29365  12.050   6.371   8.169  0.3603  0.9817  0.3087
  213MOL0     H29366  12.153   6.335   7.883  2.7879 -2.9976  0.4309
  213MOL0     H29367  12.161   6.483   7.982  2.6571 -0.5215 -0.7809
  213MOL0     H29368  12.260   6.201   8.069  1.7161 -0.4356 -1.4561
  213MOL0     H29369  12.296   6.361   8.146  2.7661 -1.4667  0.5036
  213MOL0     H29370  12.435   6.424   7.958  2.4734  0.5476  2.5610
  213MOL0     H29371  12.397   6.258   7.889 -2.1152  0.0941  0.6416
  213MOL0     H29372  12.610   6.234   8.007  1.7047 -0.2532  2.1993
  213MOL0     H29373  12.481   6.165   8.105  0.6290 -1.2189 -2.3754
  213MOL0     H29374  11.327   6.331   8.154  1.1584 -1.2212 -1.8357
  213MOL0     H29375  11.098   6.381   8.074 -0.9636 -1.5126 -3.4043
  213MOL0     H29376  10.856   6.744   8.032  2.1511 -0.0949 -0.8603
  213MOL0     H29377  10.661   6.820   8.028 -0.0965  0.2304 -0.4749
  213MOL0     H29378   8.879   7.248   7.705  0.1416  1.1861 -0.3379
  213MOL0     H29379   8.665   7.203   7.770 -0.0439 -0.0869  0.7670
  213MOL0     H29380   8.325   7.425   8.033  1.7401 -0.2472  1.6056
  213MOL0     H29381   8.096   7.423   8.117 -3.1734 -1.5396  2.4824
  213MOL0     H29382   7.929   7.347   8.302  1.3436  0.9305 -2.1116
  213MOL0     H29383   7.860   7.369   8.139 -0.9275 -0.2863 -1.6031
  213MOL0     H29384   7.768   7.159   8.338 -3.3240 -0.2373  1.3017
  213MOL0     H29385   7.709   7.168   8.167 -2.9267  3.2431 -0.9635
  213MOL0     H29386   7.683   7.434   8.295  1.3555 -2.2310  3.2004
  213MOL0     H29387   7.576   7.343   8.189  4.6889 -1.3897 -4.2593
  213MOL0     H29388   7.487   7.382   8.435 -1.1009 -2.0353  1.2059
  213MOL0     H29389   7.633   7.303   8.493 -1.3745 -1.6265  2.1853
  213MOL0     H29390   7.418   6.956   8.387 -2.3027  0.5773  2.5737
  213MOL0     H29391   8.114   6.996   8.135 -0.0134  0.8609  4.0024
  213MOL0     H29392   8.421   6.938   7.944  2.2237 -0.0743  0.6392
  213MOL0     H29393   8.405   6.914   8.116  2.1611 -3.3350 -0.7939
  213MOL0     H29394   8.258   6.884   8.012  0.6505  1.6365 -0.0732
  214MOL0     O29395   5.986   3.173   7.827  0.3845  0.4560  0.9018
  214MOL0     C29396   5.986   3.087   7.735 -0.2314 -0.1823 -0.0623
  214MOL0     O29397   6.090   3.033   7.673  0.0272  0.8045 -0.0902
  214MOL0     C29398   6.203   3.103   7.670 -0.7409  0.5624 -0.9000
  214MOL0     C29399   6.268   3.142   7.791  0.4058 -0.0706 -0.7377
  214MOL0     C29400   6.380   3.216   7.794 -0.4899 -0.1044  1.1746
  214MOL0     C29401   6.431   3.275   7.683  0.3599 -0.3139 -0.4902
  214MOL0     O29402   6.540   3.360   7.694 -0.5512  0.3515 -0.1454
  214MOL0     C29403   6.563   3.460   7.595 -0.0268 -0.7406 -0.1873
  214MOL0     C29404   6.678   3.545   7.646 -1.3485 -0.6691 -0.3238
  214MOL0     C29405   6.704   3.658   7.550 -0.1317 -1.0114 -0.0220
  214MOL0     C29406   6.821   3.748   7.593  0.0972  0.8976  0.3562
  214MOL0     C29407   6.858   3.837   7.462  0.0011 -0.0707 -0.1461
  214MOL0     C29408   6.975   3.933   7.489 -0.0131  0.9078  0.3727
  214MOL0     C29409   7.057   3.957   7.361  0.3435 -0.0871 -1.0542
  214MOL0     C29410   6.975   4.026   7.254 -0.3491 -1.0205 -0.3636
  214MOL0     N29411   7.064   4.031   7.141 -0.9910 -0.2659  0.7001
  214MOL0     C29412   7.129   3.925   7.075  1.1764  0.1374  0.6018
  214MOL0     C29413   7.189   3.990   6.969  0.5924  0.2733  0.2583
  214MOL0     C29414   7.286   3.937   6.869 -0.6383  0.9667 -0.6407
  214MOL0     C29415   7.412   3.876   6.932  0.0902  0.2338  0.4052
  214MOL0     C29416   7.499   3.791   6.837 -0.4476  0.1346  0.1685
  214MOL0     C29417   7.570   3.849   6.716  0.0901 -0.6149 -0.3726
  214MOL0     O29418   7.662   3.753   6.662  0.6401  0.1109  0.1006
  214MOL0     C29419   7.793   3.779   6.689 -0.6552  0.3160  0.2937
  214MOL0     C29420   7.860   3.709   6.789  0.3761  0.4288 -0.0178
  214MOL0     C29421   7.991   3.727   6.818  0.3799  0.6556  0.3728
  214MOL0     C29422   8.052   3.650   6.928 -0.4795 -0.0217  0.2775
  214MOL0     C29423   8.070   3.807   6.738  0.3357 -0.6673  0.5088
  214MOL0     C29424   8.213   3.835   6.745 -0.8863 -0.1744  0.3460
  214MOL0     O29425   8.300   3.722   6.735  0.1683 -0.5403  0.7456
  214MOL0     C29426   8.439   3.745   6.725 -0.9718  0.6870 -0.8605
  214MOL0     C29427   8.510   3.822   6.828 -0.2413  0.8423  0.6022
  214MOL0     C29428   8.641   3.843   6.809 -0.0796 -0.4163 -0.1282
  214MOL0     C29429   8.706   3.795   6.694 -0.0037 -0.2601 -0.1900
  214MOL0     O29430   8.844   3.817   6.685 -0.3756 -0.0587 -0.1143
  214MOL0     C29431   8.919   3.743   6.580 -0.5815  0.6211  0.3022
  214MOL0     C29432   9.055   3.801   6.573 -0.2260  0.1094 -0.2297
  214MOL0     C29433   9.142   3.700   6.495  0.0479 -0.4118 -0.3358
  214MOL0     C29434   9.292   3.707   6.535 -0.1541 -0.1760  0.0014
  214MOL0     C29435   9.385   3.599   6.465  0.6215 -0.4437 -1.1776
  214MOL0     C29436   9.339   3.468   6.509 -0.0284 -0.0341  0.0649
  214MOL0     C29437   9.444   3.356   6.508 -0.5511  0.7179 -0.1729
  214MOL0     C29438   9.400   3.225   6.568  0.9794 -0.3662 -0.1683
  214MOL0    Cl29439   9.541   3.112   6.600 -0.0258 -0.2609 -0.1181
  214MOL0     C29440   8.642   3.720   6.592 -1.0795  0.5763  0.0649
  214MOL0     C29441   8.503   3.696   6.619 -0.9768  0.1223  1.1070
  214MOL0     O29442   8.252   3.952   6.727  0.0110  0.1623  0.1717
  214MOL0     C29443   8.005   3.877   6.632 -0.2676 -0.2573  0.2642
  214MOL0     C29444   7.869   3.856   6.602 -0.0414  0.1985  0.4112
  214MOL0     N29445   7.159   4.129   6.972 -0.3931  0.4042 -0.2639
  214MOL0     N29446   7.086   4.155   7.078 -0.1099  0.0632  0.9942
  214MOL0     C29447   6.361   3.250   7.563  0.5250  0.2038 -0.4564
  214MOL0     C29448   6.251   3.173   7.551 -0.3075 -0.4481  0.5217
  214MOL0     C29449   5.856   3.047   7.686  0.7267  0.3685 -0.8746
  214MOL0     C29450   5.827   3.070   7.553  0.6891  0.5509 -0.1538
  214MOL0     C29451   5.710   3.007   7.500 -0.2150  0.0615 -0.2091
  214MOL0     C29452   5.612   2.945   7.579 -0.9430 -0.2998  1.4929
  214MOL0     O29453   5.511   2.875   7.529 -0.8559 -0.1075  0.4399
  214MOL0     C29454   5.394   2.945   7.510  0.4379 -0.4283  0.8402
  214MOL0     C29455   5.268   2.862   7.485 -0.3984  0.6033  0.1008
  214MOL0     C29456   5.219   2.764   7.605 -0.2635 -0.1685 -0.0291
  214MOL0     C29457   5.071   2.716   7.581 -0.0110 -1.2086 -0.5522
  214MOL0     C29458   5.044   2.670   7.442 -0.9760 -0.9382 -0.1462
  214MOL0     C29459   5.013   2.632   7.330  0.1447  0.4787  0.1255
  214MOL0     C29460   5.634   2.947   7.718  0.1729 -0.9371  0.3835
  214MOL0     C29461   5.753   2.997   7.771  0.5656  0.2199  0.2516
  214MOL0     C29462   5.772   2.991   7.921  0.5201  0.2621  0.2909
  214MOL0     H29463   6.226   3.114   7.887  4.2565  2.7156  2.0412
  214MOL0     H29464   6.425   3.244   7.889 -1.4705 -0.0067  1.6204
  214MOL0     H29465   6.472   3.521   7.594 -1.5347 -2.8325  0.8558
  214MOL0     H29466   6.590   3.415   7.499 -1.0330  0.4671 -1.0709
  214MOL0     H29467   6.662   3.587   7.745 -0.3115 -0.5705 -0.1889
  214MOL0     H29468   6.772   3.490   7.650 -1.2247 -0.3968  1.1886
  214MOL0     H29469   6.717   3.618   7.449  0.1067 -0.1784 -0.3334
  214MOL0     H29470   6.613   3.720   7.557 -0.9215 -2.2434  1.0310
  214MOL0     H29471   6.782   3.810   7.673 -0.2357  1.9302 -0.5836
  214MOL0     H29472   6.911   3.693   7.620  0.4615  1.9796  1.3848
  214MOL0     H29473   6.769   3.878   7.415 -0.4263  0.4461  1.0717
  214MOL0     H29474   6.891   3.766   7.385  0.3865  1.2083 -1.2082
  214MOL0     H29475   6.931   4.026   7.527  0.8650  1.3671  0.2996
  214MOL0     H29476   7.053   3.896   7.555  1.3596  2.8626 -0.0676
  214MOL0     H29477   7.098   3.859   7.333 -0.9600 -1.4139  1.2752
  214MOL0     H29478   7.138   4.020   7.398  0.0450  0.3433 -1.1398
  214MOL0     H29479   6.880   3.973   7.241 -2.4470  2.0452  1.1958
  214MOL0     H29480   6.948   4.127   7.288  2.5569 -1.5349  4.4092
  214MOL0     H29481   7.150   3.820   7.090 -1.3621 -0.8903 -2.0253
  214MOL0     H29482   7.312   4.013   6.795 -1.4732  0.1888 -1.7767
  214MOL0     H29483   7.228   3.860   6.817 -0.3576  0.5033 -0.2730
  214MOL0     H29484   7.477   3.961   6.953 -2.6423  2.3236  1.0271
  214MOL0     H29485   7.393   3.828   7.028  0.4071  1.1563  0.9404
  214MOL0     H29486   7.578   3.745   6.898 -2.1417  0.5382  2.8371
  214MOL0     H29487   7.435   3.711   6.802 -0.1212  0.4842 -1.2820
  214MOL0     H29488   7.501   3.870   6.633  2.9197 -2.2846 -3.3952
  214MOL0     H29489   7.616   3.946   6.740 -2.7157  0.0396  3.2394
  214MOL0     H29490   7.797   3.654   6.858 -0.5705  2.7522  1.0886
  214MOL0     H29491   8.123   3.707   6.988  0.1484 -1.8083  1.2907
  214MOL0     H29492   8.110   3.573   6.876 -0.1758  0.3772  0.0261
  214MOL0     H29493   7.974   3.601   6.987  3.1997 -3.3958  2.8416
  214MOL0     H29494   8.457   3.862   6.914  3.0494 -0.0382  3.2927
  214MOL0     H29495   8.697   3.903   6.879  0.0962 -0.7062 -0.0182
  214MOL0     H29496   8.916   3.638   6.610 -2.7816  0.3659 -0.6111
  214MOL0     H29497   8.879   3.756   6.479  0.7243 -1.2630 -0.5086
  214MOL0     H29498   9.054   3.900   6.527 -0.8269  2.2305  3.9252
  214MOL0     H29499   9.100   3.818   6.671  2.9551 -1.0501 -1.3527
  214MOL0     H29500   9.124   3.709   6.387 -1.6038 -0.1585 -0.0690
  214MOL0     H29501   9.100   3.601   6.513 -3.0862  0.7294 -0.7097
  214MOL0     H29502   9.302   3.698   6.644  1.7572 -2.1139 -0.2513
  214MOL0     H29503   9.339   3.799   6.501  0.5088 -0.8082 -0.8545
  214MOL0     H29504   9.386   3.611   6.356  0.3125  0.9099 -1.0483
  214MOL0     H29505   9.486   3.618   6.500 -0.1072  0.2940  0.6636
  214MOL0     H29506   9.253   3.442   6.446  1.0376  1.4773 -2.1653
  214MOL0     H29507   9.302   3.479   6.611 -1.5182 -1.0741 -0.3371
  214MOL0     H29508   9.536   3.379   6.563  0.6710 -1.8282 -1.0157
  214MOL0     H29509   9.488   3.331   6.411  1.0933 -1.3196  1.0102
  214MOL0     H29510   9.320   3.187   6.503 -1.2369  2.2586  0.7901
  214MOL0     H29511   9.350   3.240   6.665 -1.1179 -0.0524 -1.2323
  214MOL0     H29512   8.693   3.669   6.510 -0.3840  1.3848 -0.0193
  214MOL0     H29513   8.451   3.643   6.540 -2.2135 -0.4644  2.2804
  214MOL0     H29514   8.061   3.947   6.570 -1.6236  1.0322  0.4650
  214MOL0     H29515   7.814   3.912   6.527  0.7064 -0.0369 -0.3229
  214MOL0     H29516   6.397   3.293   7.470  0.5118  0.6712 -0.2462
  214MOL0     H29517   6.206   3.155   7.454  0.9151  0.2169 -0.2017
  214MOL0     H29518   5.898   3.116   7.485  1.0297 -1.3833 -1.1585
  214MOL0     H29519   5.693   3.020   7.393  0.1350 -0.4257 -0.3265
  214MOL0     H29520   5.368   2.993   7.604  0.6542 -2.6303  2.0968
  214MOL0     H29521   5.427   3.011   7.429  3.2357 -2.2049  0.3481
  214MOL0     H29522   5.272   2.799   7.396 -3.0502  3.1490 -2.0088
  214MOL0     H29523   5.190   2.935   7.464  0.2637  1.6766  1.2509
  214MOL0     H29524   5.286   2.679   7.617  1.2488  0.6108 -2.3858
  214MOL0     H29525   5.213   2.824   7.696 -1.0058  2.9693 -1.9733
  214MOL0     H29526   4.999   2.798   7.584  0.8466 -0.4107 -1.2109
  214MOL0     H29527   5.038   2.638   7.649  0.1260 -3.1643 -2.6054
  214MOL0     H29528   4.990   2.606   7.229 -3.3802  1.5948  0.4979
  214MOL0     H29529   5.552   2.912   7.779 -1.7368 -1.8111 -2.4558
  214MOL0     H29530   5.774   3.087   7.973 -3.0823  0.2284  0.7514
  214MOL0     H29531   5.690   2.934   7.966 -2.5689  2.4152 -2.2505
  214MOL0     H29532   5.868   2.951   7.955  1.5230  3.7225  1.9631
  215MOL0     O29533   6.584   1.529   2.000  0.1536  0.4876 -0.2436
  215MOL0     C29534   6.601   1.568   1.886 -0.4539 -0.5863 -0.3647
  215MOL0     O29535   6.694   1.666   1.855 -0.0777 -0.3670 -0.2117
  215MOL0     C29536   6.800   1.703   1.938  0.1940 -0.1385  0.1509
  215MOL0     C29537   6.863   1.619   2.029 -0.0411 -0.2636 -0.3418
  215MOL0     C29538   6.971   1.668   2.092  0.0080 -0.0882 -0.0095
  215MOL0     C29539   7.032   1.789   2.059  0.6824 -0.1909  1.2564
  215MOL0     O29540   7.143   1.812   2.132  0.2446 -0.5295 -0.9606
  215MOL0     C29541   7.226   1.933   2.102 -0.1453 -0.2708  0.1744
  215MOL0     C29542   7.324   1.954   2.219  0.2527  0.9913  0.1404
  215MOL0     C29543   7.440   1.843   2.210 -0.3263  0.8339  0.1859
  215MOL0     C29544   7.568   1.878   2.281 -0.1945  0.0361 -0.2682
  215MOL0     C29545   7.590   1.799   2.407 -0.3489  0.1614  0.0346
  215MOL0     C29546   7.703   1.877   2.474  0.4852 -0.2645 -0.3679
  215MOL0     C29547   7.771   1.795   2.584  0.1257 -0.5299 -0.4318
  215MOL0     C29548   7.683   1.736   2.689 -0.2800  0.4417  0.0673
  215MOL0     N29549   7.755   1.660   2.797  0.1462 -0.4905  0.5853
  215MOL0     C29550   7.863   1.577   2.777 -0.6985  0.7248  0.1075
  215MOL0     C29551   7.919   1.559   2.897 -0.4290 -0.5135 -0.3450
  215MOL0     C29552   8.030   1.473   2.949 -0.7481  0.5484 -0.1007
  215MOL0     C29553   7.994   1.326   2.956 -0.0738  0.1679  0.3931
  215MOL0     C29554   8.124   1.247   2.964 -0.0584  0.5048 -0.0824
  215MOL0     C29555   8.091   1.095   2.981  0.3193 -0.1337 -0.1560
  215MOL0     O29556   8.170   1.014   2.900  0.3502 -0.0575  0.6917
  215MOL0     C29557   8.275   0.951   2.945  0.5871 -0.2771  0.0604
  215MOL0     C29558   8.372   1.015   3.019  0.0550 -0.0494 -0.1303
  215MOL0     C29559   8.485   0.944   3.058  0.0599 -0.2155  0.1179
  215MOL0     C29560   8.595   1.024   3.129 -0.3367  0.0038 -0.0548
  215MOL0     C29561   8.494   0.806   3.043 -0.1207 -0.1364  0.6753
  215MOL0     C29562   8.610   0.731   3.096  0.0053 -0.3417 -0.3705
  215MOL0     O29563   8.736   0.791   3.101 -0.3322 -0.1651 -0.5201
  215MOL0     C29564   8.846   0.726   3.167  0.7837  0.1203  0.0871
  215MOL0     C29565   8.952   0.808   3.206  0.0613 -0.4633 -0.1041
  215MOL0     C29566   9.073   0.758   3.261 -0.9530 -0.2785 -0.1536
  215MOL0     C29567   9.090   0.619   3.284 -0.4913 -1.6941  1.0999
  215MOL0     O29568   9.206   0.576   3.348  0.5873 -0.8204 -0.0513
  215MOL0     C29569   9.222   0.441   3.389  0.2897 -0.0857 -0.1233
  215MOL0     C29570   9.358   0.424   3.460  0.1202  0.5492 -0.0900
  215MOL0     C29571   9.464   0.478   3.356  1.1520  0.0174 -0.0445
  215MOL0     C29572   9.597   0.462   3.436  0.1248 -0.8384  0.9423
  215MOL0     C29573   9.705   0.525   3.356 -0.4843  0.9200 -0.1555
  215MOL0     C29574   9.853   0.499   3.417  0.5866  0.3801 -0.5609
  215MOL0     C29575   9.898   0.351   3.380  0.9230 -0.4689 -0.5449
  215MOL0     C29576  10.050   0.342   3.390 -0.1346  0.5515 -1.0155
  215MOL0    Cl29577  10.122   0.391   3.549 -0.3222 -0.1485  0.4791
  215MOL0     C29578   8.988   0.538   3.231  0.8560 -0.2518  0.0287
  215MOL0     C29579   8.869   0.589   3.174  0.7558 -0.4599  0.2639
  215MOL0     O29580   8.584   0.622   3.146 -0.5083 -0.4020  0.3513
  215MOL0     C29581   8.398   0.739   2.965  0.1138 -0.2169  0.0949
  215MOL0     C29582   8.284   0.811   2.921 -0.0438  0.6144  0.0614
  215MOL0     N29583   7.838   1.620   2.990  0.2358 -0.1830 -0.3397
  215MOL0     N29584   7.744   1.682   2.934  0.1285 -0.0894  0.0425
  215MOL0     C29585   6.971   1.873   1.959  0.7027  0.6083  0.0377
  215MOL0     C29586   6.854   1.820   1.900 -0.7212 -1.2393  0.2342
  215MOL0     C29587   6.521   1.501   1.784 -0.4428 -0.3102  0.3506
  215MOL0     C29588   6.392   1.472   1.812  0.1807  0.1481 -0.0542
  215MOL0     C29589   6.297   1.418   1.728 -0.1863  0.4011 -0.5340
  215MOL0     C29590   6.341   1.378   1.601 -1.2036 -0.1894  0.1410
  215MOL0     O29591   6.263   1.320   1.505 -0.1634  0.0911  0.2762
  215MOL0     C29592   6.129   1.281   1.533 -0.5863 -0.4784 -0.0793
  215MOL0     C29593   6.078   1.237   1.397  0.2755  0.3653 -0.1901
  215MOL0     C29594   5.928   1.211   1.402 -0.0919  0.0449 -1.0989
  215MOL0     C29595   5.874   1.135   1.280  0.6778  0.4537 -0.1688
  215MOL0     C29596   5.923   0.992   1.283 -0.1277 -0.7780 -0.1774
  215MOL0     C29597   5.965   0.882   1.309  0.3555  0.7366 -0.2332
  215MOL0     C29598   6.474   1.403   1.560  0.7746 -0.3153 -0.1089
  215MOL0     C29599   6.557   1.472   1.647  0.5772  0.3030 -0.6939
  215MOL0     C29600   6.694   1.517   1.598  0.8137  0.2552 -0.1435
  215MOL0     H29601   6.819   1.525   2.060  0.2236  0.8359  3.9379
  215MOL0     H29602   7.013   1.613   2.176  1.1505  0.8980  0.1045
  215MOL0     H29603   7.166   2.022   2.079  2.7300  1.4868 -1.0461
  215MOL0     H29604   7.277   1.923   2.005 -0.7516 -0.0242 -0.1814
  215MOL0     H29605   7.363   2.055   2.207 -0.3777  1.0761 -1.4440
  215MOL0     H29606   7.275   1.943   2.316 -0.2492  2.2490  0.0450
  215MOL0     H29607   7.394   1.760   2.263  0.6773  0.4027  0.3966
  215MOL0     H29608   7.470   1.810   2.110 -0.4594  1.1957  0.0227
  215MOL0     H29609   7.650   1.855   2.213 -0.0206 -0.7854  0.2073
  215MOL0     H29610   7.574   1.985   2.304 -0.0965 -0.1261  0.5052
  215MOL0     H29611   7.620   1.694   2.402  3.1990  0.6576  4.3641
  215MOL0     H29612   7.496   1.795   2.462 -0.3865 -0.1289 -0.0475
  215MOL0     H29613   7.789   1.911   2.416 -0.4820  0.2687 -1.5456
  215MOL0     H29614   7.663   1.974   2.504  1.6318  0.5918 -1.4734
  215MOL0     H29615   7.851   1.851   2.632  0.3078 -1.2117  0.0777
  215MOL0     H29616   7.819   1.714   2.527  0.4466 -1.2137  0.7760
  215MOL0     H29617   7.626   1.815   2.738 -2.7697  0.7769 -3.0165
  215MOL0     H29618   7.612   1.671   2.636  1.3216 -0.5974 -0.8616
  215MOL0     H29619   7.887   1.543   2.677  1.0400  0.5408  0.5624
  215MOL0     H29620   8.065   1.494   3.051  0.7121 -0.0692 -0.4478
  215MOL0     H29621   8.112   1.487   2.878 -0.0531 -2.8874 -0.1508
  215MOL0     H29622   7.927   1.304   3.039 -0.3999 -1.4133 -0.2507
  215MOL0     H29623   7.941   1.306   2.862  2.6152  3.4872 -2.0808
  215MOL0     H29624   8.190   1.266   2.879  2.4358 -0.5548  1.5123
  215MOL0     H29625   8.183   1.270   3.054 -2.3600  0.6728  1.4687
  215MOL0     H29626   8.113   1.084   3.087  2.3794  4.2315  0.1016
  215MOL0     H29627   7.987   1.064   2.967  0.8269 -1.1276 -2.2453
  215MOL0     H29628   8.374   1.122   3.034  2.0345  0.1258 -1.3641
  215MOL0     H29629   8.638   0.976   3.217 -0.2676  0.4179  0.1405
  215MOL0     H29630   8.544   1.109   3.176 -2.4219 -2.5082  2.6109
  215MOL0     H29631   8.677   1.049   3.061 -1.6427 -2.5834 -2.7817
  215MOL0     H29632   8.922   0.912   3.199 -1.9591 -0.9996 -0.0500
  215MOL0     H29633   9.151   0.826   3.294 -1.0499 -1.2304  2.1931
  215MOL0     H29634   9.152   0.412   3.468  1.1310 -0.4664  0.4995
  215MOL0     H29635   9.222   0.368   3.308 -0.6121 -1.5169  1.1119
  215MOL0     H29636   9.341   0.479   3.553  0.2827  0.9027 -0.2654
  215MOL0     H29637   9.380   0.319   3.478 -0.4579  0.5359  0.5254
  215MOL0     H29638   9.438   0.582   3.332  2.6786  0.5613  0.5561
  215MOL0     H29639   9.473   0.412   3.270  2.5097 -0.2463  0.2753
  215MOL0     H29640   9.608   0.355   3.455 -2.0555 -1.5406 -1.2533
  215MOL0     H29641   9.591   0.517   3.531 -2.3045  2.0908 -0.6801
  215MOL0     H29642   9.707   0.488   3.253  2.8477 -0.7967  0.3702
  215MOL0     H29643   9.689   0.633   3.359  0.1957  1.0023  1.5855
  215MOL0     H29644   9.857   0.505   3.526  0.4507 -0.5370 -0.4988
  215MOL0     H29645   9.926   0.571   3.377 -0.7866  1.8710 -0.4894
  215MOL0     H29646   9.866   0.315   3.282  1.9594  1.1970 -1.5607
  215MOL0     H29647   9.864   0.280   3.455 -0.1230  0.0204 -0.5444
  215MOL0     H29648  10.093   0.411   3.316  1.4686 -0.2495 -0.8694
  215MOL0     H29649  10.084   0.240   3.372 -2.2648  0.1493 -3.3652
  215MOL0     H29650   8.987   0.430   3.238 -0.6439 -0.2844 -0.3255
  215MOL0     H29651   8.798   0.525   3.123  1.9551 -2.3292  0.8228
  215MOL0     H29652   8.416   0.633   2.951  0.1026 -0.1237 -0.6650
  215MOL0     H29653   8.206   0.758   2.868  2.0404 -0.1927 -2.3855
  215MOL0     H29654   7.006   1.972   1.932 -1.6246  1.0821 -1.5368
  215MOL0     H29655   6.795   1.872   1.826  1.7128 -0.4634 -1.2775
  215MOL0     H29656   6.356   1.498   1.911  2.1964  1.0976  0.4629
  215MOL0     H29657   6.191   1.404   1.749 -0.0704  0.2674 -0.0387
  215MOL0     H29658   6.127   1.205   1.612 -1.0603 -0.9141 -0.5000
  215MOL0     H29659   6.068   1.368   1.561  2.8670  1.4738  2.1110
  215MOL0     H29660   6.131   1.151   1.356 -0.5874  0.5100 -1.6908
  215MOL0     H29661   6.095   1.315   1.322 -1.2439 -0.6794 -1.6910
  215MOL0     H29662   5.900   1.160   1.495  0.5907  0.8588 -0.4354
  215MOL0     H29663   5.877   1.308   1.404 -3.1215 -1.4381 -0.5950
  215MOL0     H29664   5.890   1.190   1.187 -3.3263 -1.2318 -2.0832
  215MOL0     H29665   5.766   1.135   1.299 -0.3984  0.1644 -4.9970
  215MOL0     H29666   6.008   0.785   1.320  1.9405  1.5557  1.2711
  215MOL0     H29667   6.494   1.373   1.458  1.4080  0.3929 -0.1946
  215MOL0     H29668   6.688   1.601   1.529  2.1850 -0.6012 -1.3525
  215MOL0     H29669   6.761   1.527   1.685 -0.2756  0.9230  0.6478
  215MOL0     H29670   6.729   1.429   1.544 -3.5589 -3.0281  1.7899
  216MOL0     O29671   1.997   1.535   4.614  0.7129  0.9129 -0.0201
  216MOL0     C29672   1.977   1.416   4.620  0.2323 -0.7652  0.1266
  216MOL0     O29673   2.067   1.321   4.573 -0.2016 -0.7036  0.0815
  216MOL0     C29674   2.189   1.358   4.529 -0.3081 -0.0222 -0.5185
  216MOL0     C29675   2.271   1.439   4.601 -0.3714 -0.1643 -0.5241
  216MOL0     C29676   2.393   1.485   4.555 -0.8765  0.0922 -0.7358
  216MOL0     C29677   2.434   1.452   4.430  0.5756 -0.2057 -1.0422
  216MOL0     O29678   2.553   1.520   4.389  0.0560 -0.0676  0.1207
  216MOL0     C29679   2.614   1.486   4.266 -0.9693  0.0425 -0.2749
  216MOL0     C29680   2.745   1.567   4.245  0.3929  0.0789  0.0460
  216MOL0     C29681   2.807   1.533   4.106  0.2319 -0.0245 -0.4215
  216MOL0     C29682   2.940   1.612   4.073  0.4113  0.1348 -0.5927
  216MOL0     C29683   2.989   1.566   3.940  0.6188  0.0600 -0.4173
  216MOL0     C29684   3.108   1.651   3.898 -0.0224  0.1262  0.5400
  216MOL0     C29685   3.161   1.620   3.754  0.1770  0.5203  0.1041
  216MOL0     C29686   3.208   1.468   3.749  0.2164 -0.1569 -0.3710
  216MOL0     N29687   3.325   1.462   3.835  1.1318  0.1104  0.2033
  216MOL0     C29688   3.441   1.537   3.824  0.2519  0.1255 -0.1170
  216MOL0     C29689   3.500   1.517   3.948 -0.3972 -0.4412 -0.7506
  216MOL0     C29690   3.631   1.594   3.983  0.8050  0.0334 -0.2381
  216MOL0     C29691   3.754   1.504   3.955 -0.6113 -0.1639 -0.4567
  216MOL0     C29692   3.775   1.417   4.080  0.1493  0.1945 -0.4721
  216MOL0     C29693   3.887   1.304   4.044  0.9727 -0.1592 -0.0473
  216MOL0     O29694   4.015   1.359   4.020  0.6716 -0.2389 -0.1067
  216MOL0     C29695   4.094   1.410   4.122  0.0465  0.0878  0.1676
  216MOL0     C29696   4.212   1.476   4.080  0.0561 -0.1731  0.2847
  216MOL0     C29697   4.311   1.535   4.169  0.7584  0.6598 -0.9039
  216MOL0     C29698   4.438   1.608   4.104  0.5406  0.6518 -0.8138
  216MOL0     C29699   4.287   1.510   4.310 -0.7641  0.3863 -1.2296
  216MOL0     C29700   4.385   1.565   4.415 -0.4572  0.0884 -0.0010
  216MOL0     O29701   4.394   1.499   4.530 -0.9237  0.2986  0.1564
  216MOL0     C29702   4.431   1.567   4.643 -0.1851 -0.5748 -0.5017
  216MOL0     C29703   4.569   1.585   4.675  0.4055  0.3881  0.8382
  216MOL0     C29704   4.605   1.656   4.794 -0.4973  0.4357 -0.0448
  216MOL0     C29705   4.507   1.708   4.879 -0.3110  0.1483  1.2270
  216MOL0     O29706   4.568   1.756   4.989 -0.3139  0.5488  0.8460
  216MOL0     C29707   4.496   1.815   5.101  0.0089 -0.0673 -0.4594
  216MOL0     C29708   4.461   1.962   5.081 -0.8083  0.4045 -0.2610
  216MOL0     C29709   4.589   2.041   5.024  0.4931  0.5044 -0.4397
  216MOL0     C29710   4.710   2.026   5.111  0.1977 -0.3078 -0.3841
  216MOL0     C29711   4.838   2.078   5.043  0.5369  0.1623 -0.1223
  216MOL0     C29712   4.826   2.224   4.983  0.3231  0.0762 -1.1181
  216MOL0     C29713   4.964   2.279   4.957  1.0772 -0.4579  0.2491
  216MOL0     C29714   4.954   2.426   4.900  0.7187  0.6079 -0.6757
  216MOL0    Cl29715   5.121   2.468   4.845  0.2335  0.1028 -0.0125
  216MOL0     C29716   4.368   1.688   4.851 -0.2619 -0.6233 -0.8986
  216MOL0     C29717   4.328   1.619   4.729  0.5028 -0.7011  0.6781
  216MOL0     O29718   4.441   1.671   4.390 -0.2510  0.2815  0.7371
  216MOL0     C29719   4.175   1.427   4.354 -0.0786  0.2421  1.1898
  216MOL0     C29720   4.072   1.398   4.255 -0.4697  0.0974 -0.2286
  216MOL0     N29721   3.419   1.428   4.027  0.3568 -0.0459 -0.0220
  216MOL0     N29722   3.313   1.409   3.957  0.6106 -0.0656 -0.4705
  216MOL0     C29723   2.348   1.364   4.359  0.0802 -0.2041  0.3056
  216MOL0     C29724   2.223   1.327   4.403  0.3097 -0.9970  0.6944
  216MOL0     C29725   1.842   1.381   4.669  0.1317  0.0449  0.3796
  216MOL0     C29726   1.754   1.489   4.697 -0.1706  0.4008  0.1070
  216MOL0     C29727   1.637   1.460   4.772  0.5020 -0.6926 -0.1467
  216MOL0     C29728   1.597   1.332   4.793 -0.6239  0.1997 -0.6265
  216MOL0     O29729   1.479   1.322   4.858 -0.4313  0.1372  0.0270
  216MOL0     C29730   1.398   1.207   4.828 -0.0096  0.0614 -0.4190
  216MOL0     C29731   1.255   1.238   4.871  0.0871  0.2794 -0.6945
  216MOL0     C29732   1.246   1.230   5.026  0.8481 -0.3715 -0.0445
  216MOL0     C29733   1.104   1.272   5.089 -1.3399  0.5445  0.3719
  216MOL0     C29734   0.979   1.193   5.049  0.1852  0.9174 -0.4992
  216MOL0     C29735   0.878   1.125   5.037 -0.0948 -0.2722 -0.5877
  216MOL0     C29736   1.673   1.228   4.747 -1.0715 -0.4156  1.0724
  216MOL0     C29737   1.801   1.252   4.690 -0.5026  0.7405  0.6355
  216MOL0     C29738   1.890   1.132   4.688 -0.2728 -0.4788  0.2445
  216MOL0     H29739   2.232   1.475   4.696 -1.6324 -0.3839 -0.9315
  216MOL0     H29740   2.444   1.552   4.623 -0.8167 -2.2904  1.7571
  216MOL0     H29741   2.540   1.505   4.187 -2.3093  1.3052  1.2398
  216MOL0     H29742   2.641   1.380   4.267 -2.1228 -0.2618  0.2123
  216MOL0     H29743   2.725   1.674   4.254 -3.6148 -0.5370  0.2853
  216MOL0     H29744   2.805   1.533   4.330  1.9753 -0.7334 -1.3551
  216MOL0     H29745   2.831   1.427   4.098  2.3654  0.4826 -1.7218
  216MOL0     H29746   2.728   1.557   4.035 -0.6727 -0.8727  0.2645
  216MOL0     H29747   2.914   1.718   4.070  0.9306  0.4592  2.8021
  216MOL0     H29748   3.016   1.591   4.148 -0.6068  2.6755  1.2756
  216MOL0     H29749   2.916   1.588   3.862 -2.2905  0.4684  2.2271
  216MOL0     H29750   2.998   1.457   3.942 -2.9389 -0.3539 -0.9970
  216MOL0     H29751   3.091   1.759   3.901 -1.4362 -0.0770  0.5727
  216MOL0     H29752   3.194   1.635   3.964 -0.6711  2.4611  2.0406
  216MOL0     H29753   3.248   1.685   3.740  0.0731  0.9979  1.4902
  216MOL0     H29754   3.089   1.638   3.673 -2.7709  0.0570  2.4631
  216MOL0     H29755   3.130   1.398   3.779 -0.1465  1.2714  2.3070
  216MOL0     H29756   3.246   1.438   3.651  5.1559  0.2037  1.1616
  216MOL0     H29757   3.464   1.610   3.746  2.5699  0.1753  0.5182
  216MOL0     H29758   3.642   1.630   4.085 -2.4052 -1.1142  0.6192
  216MOL0     H29759   3.628   1.674   3.909 -1.1200 -0.9330 -1.2829
  216MOL0     H29760   3.730   1.441   3.869 -0.2058 -0.5788 -0.2664
  216MOL0     H29761   3.843   1.565   3.936  0.8406 -2.1527 -0.2661
  216MOL0     H29762   3.821   1.471   4.163  1.0060 -2.3218  0.8054
  216MOL0     H29763   3.678   1.373   4.107 -0.2163  0.7330 -0.8659
  216MOL0     H29764   3.877   1.234   4.127  0.3384 -0.6785 -0.5492
  216MOL0     H29765   3.857   1.238   3.963 -1.3572  0.6459  0.0793
  216MOL0     H29766   4.221   1.488   3.972 -0.2563 -0.9569  0.1653
  216MOL0     H29767   4.450   1.593   3.996 -1.0537  2.5959 -1.3216
  216MOL0     H29768   4.528   1.566   4.150  0.6027  1.2837 -0.3391
  216MOL0     H29769   4.435   1.717   4.118 -2.7129  0.5800 -0.3360
  216MOL0     H29770   4.634   1.550   4.595 -0.0935 -0.5622  0.8265
  216MOL0     H29771   4.706   1.673   4.830 -1.1501  0.2985  1.9264
  216MOL0     H29772   4.408   1.755   5.128 -0.0334 -0.1250 -0.7255
  216MOL0     H29773   4.568   1.809   5.184  1.5723 -3.6605 -1.8396
  216MOL0     H29774   4.381   1.976   5.007 -0.2761  2.1263 -0.5571
  216MOL0     H29775   4.432   2.002   5.178  1.3572 -2.2326  1.6235
  216MOL0     H29776   4.572   2.148   5.014  1.2044  1.0432  3.0034
  216MOL0     H29777   4.603   2.007   4.920  3.3384 -2.9938  0.8639
  216MOL0     H29778   4.740   1.924   5.140  2.9469  0.6047  0.3473
  216MOL0     H29779   4.694   2.074   5.208  1.6293 -1.8427  0.6705
  216MOL0     H29780   4.916   2.070   5.119 -1.6087  2.3483  2.5334
  216MOL0     H29781   4.855   2.004   4.964  2.4835  0.3918  0.0246
  216MOL0     H29782   4.764   2.282   5.052  1.4535 -0.0087  0.0167
  216MOL0     H29783   4.766   2.212   4.893  2.0721 -2.7653 -2.0495
  216MOL0     H29784   5.010   2.206   4.889  1.1720 -0.9355  0.8184
  216MOL0     H29785   5.023   2.294   5.047 -1.0148 -0.1100  1.6174
  216MOL0     H29786   4.927   2.499   4.976 -0.2206  0.3749 -0.7725
  216MOL0     H29787   4.894   2.425   4.809  0.1326 -0.5431 -0.3025
  216MOL0     H29788   4.295   1.733   4.918  3.4739  1.7134  2.0492
  216MOL0     H29789   4.227   1.608   4.693  0.8297 -2.3551  0.1722
  216MOL0     H29790   4.162   1.411   4.460  0.8638 -0.3277  1.2290
  216MOL0     H29791   3.980   1.353   4.291 -0.3177  1.3286  1.8667
  216MOL0     H29792   2.385   1.334   4.262  1.8521  1.8510  0.2612
  216MOL0     H29793   2.154   1.271   4.340 -1.0554  0.4466  0.8503
  216MOL0     H29794   1.768   1.592   4.665 -2.8485  1.4075  1.7708
  216MOL0     H29795   1.581   1.544   4.812  2.2550  1.2207 -1.4895
  216MOL0     H29796   1.400   1.193   4.719  1.1047 -0.4714 -0.3474
  216MOL0     H29797   1.436   1.114   4.871 -1.3081  0.1916  1.0722
  216MOL0     H29798   1.187   1.157   4.844  0.5609 -1.4922  2.8807
  216MOL0     H29799   1.223   1.340   4.844 -0.0540  0.9240  1.6558
  216MOL0     H29800   1.271   1.134   5.073  1.0914 -0.1020  0.3899
  216MOL0     H29801   1.323   1.294   5.071  0.9379  0.4545 -1.3233
  216MOL0     H29802   1.094   1.379   5.070  0.2414  0.6155 -0.2352
  216MOL0     H29803   1.112   1.263   5.197  0.6516  0.1170  0.2268
  216MOL0     H29804   0.800   1.054   5.018 -2.8152  2.1638  0.7175
  216MOL0     H29805   1.651   1.123   4.766  0.0719 -1.1433 -1.2451
  216MOL0     H29806   1.911   1.103   4.584  0.0312 -0.0525  0.1871
  216MOL0     H29807   1.982   1.147   4.744 -0.0628  0.5189 -0.3309
  216MOL0     H29808   1.829   1.047   4.721 -3.1402  0.6306 -1.7306
  217MOL0     O29809   1.459   1.518   9.667 -0.0388  0.7430  0.1927
  217MOL0     C29810   1.493   1.624   9.720 -0.2325 -0.2582 -0.3385
  217MOL0     O29811   1.507   1.646   9.852 -0.3087  0.4126 -0.7038
  217MOL0     C29812   1.507   1.540   9.932  0.2097 -0.9401 -0.9668
  217MOL0     C29813   1.387   1.462   9.946 -0.6830  0.1958  0.0674
  217MOL0     C29814   1.382   1.347  10.032 -0.1395 -0.3104 -0.0645
  217MOL0     C29815   1.494   1.298  10.092  0.2471  0.9591  0.1026
  217MOL0     O29816   1.476   1.196  10.176  0.5194 -0.3810  0.4138
  217MOL0     C29817   1.447   1.070  10.111 -0.0141 -0.7724  0.1007
  217MOL0     C29818   1.566   0.973  10.083  0.8813  0.3792 -0.3713
  217MOL0     C29819   1.651   0.942  10.208  0.3574  0.3723 -0.1611
  217MOL0     C29820   1.782   0.860  10.163 -0.1531 -0.5524  0.1784
  217MOL0     C29821   1.877   0.843  10.277 -0.6113  0.7135 -0.8837
  217MOL0     C29822   2.011   0.787  10.218  0.3942  0.0414 -0.3689
  217MOL0     C29823   2.124   0.759  10.317 -1.1221 -0.0267  0.2115
  217MOL0     C29824   2.152   0.610  10.337 -0.2911  0.2668  0.2997
  217MOL0     N29825   2.049   0.562  10.441  0.1470  0.8295 -0.1394
  217MOL0     C29826   1.956   0.462  10.434 -0.0830 -0.2686  0.4782
  217MOL0     C29827   1.916   0.425  10.560  0.7470 -0.0663  0.2200
  217MOL0     C29828   1.797   0.336  10.595  0.5466  0.4210  0.2150
  217MOL0     C29829   1.825   0.192  10.566 -0.3471 -0.0837  0.0765
  217MOL0     C29830   1.710   0.095  10.589 -0.4918  0.0270  0.6962
  217MOL0     C29831   1.758  -0.040  10.541  0.2777  0.0309  0.1395
  217MOL0     O29832   1.778  -0.063  10.403  0.5418  0.1837  0.2044
  217MOL0     C29833   1.839  -0.189  10.379  1.4814  0.2701 -0.2002
  217MOL0     C29834   1.853  -0.209  10.246 -0.1841 -0.0897  0.1545
  217MOL0     C29835   1.920  -0.326  10.201 -0.2878  0.2034 -0.3352
  217MOL0     C29836   1.963  -0.318  10.054 -0.0533 -0.1134 -0.1416
  217MOL0     C29837   1.956  -0.435  10.294  0.6337 -0.4644  0.0043
  217MOL0     C29838   2.028  -0.567  10.260 -0.0418 -0.7986 -0.6189
  217MOL0     O29839   2.026  -0.601  10.131 -0.4971 -0.0827  0.3064
  217MOL0     C29840   2.090  -0.716  10.088  0.1749  0.0254  0.4835
  217MOL0     C29841   2.017  -0.829  10.055 -0.2241 -0.4315  0.0279
  217MOL0     C29842   2.076  -0.936   9.988  0.1704  0.5561  0.5072
  217MOL0     C29843   2.204  -0.939   9.954  0.1406 -0.6853 -0.1539
  217MOL0     O29844   2.246  -1.052   9.889  0.5156 -0.3995 -0.2767
  217MOL0     C29845   2.360  -1.056   9.801 -0.5907 -0.1523 -0.6998
  217MOL0     C29846   2.329  -0.990   9.672 -0.6152  0.2071  0.1345
  217MOL0     C29847   2.201  -1.027   9.601 -0.0350  1.2437  0.2772
  217MOL0     C29848   2.212  -1.152   9.516  0.5626  0.2335  0.4818
  217MOL0     C29849   2.083  -1.193   9.429 -0.2722  0.6272  0.2779
  217MOL0     C29850   2.112  -1.317   9.348 -1.3004 -0.6207  0.2932
  217MOL0     C29851   2.187  -1.291   9.212  0.5402  0.9711 -0.0370
  217MOL0     C29852   2.237  -1.421   9.156 -0.7980 -0.8965  0.1302
  217MOL0    Cl29853   2.110  -1.527   9.103 -0.1696  0.4030 -0.2433
  217MOL0     C29854   2.285  -0.823   9.982  0.7710  0.4238  0.9188
  217MOL0     C29855   2.225  -0.710  10.049  0.3832  0.9040 -0.0109
  217MOL0     O29856   2.075  -0.635  10.349  0.1103 -0.1595 -0.2024
  217MOL0     C29857   1.933  -0.412  10.427 -0.1559  0.6740 -0.6101
  217MOL0     C29858   1.874  -0.294  10.473 -0.0809  0.1296 -0.1945
  217MOL0     N29859   1.992   0.504  10.640 -0.0457  0.5132 -0.0620
  217MOL0     N29860   2.071   0.581  10.577  0.7620 -0.3826  1.2949
  217MOL0     C29861   1.617   1.367  10.078 -0.3726  0.3205  0.6700
  217MOL0     C29862   1.620   1.489  10.009 -0.3899 -0.6358 -0.1756
  217MOL0     C29863   1.502   1.748   9.637  0.1719  0.0177 -0.6315
  217MOL0     C29864   1.447   1.758   9.507 -0.0218  0.1251 -0.5220
  217MOL0     C29865   1.451   1.868   9.423  1.0270 -0.9112 -0.4558
  217MOL0     C29866   1.512   1.981   9.469 -0.2485  0.4379 -0.6044
  217MOL0     O29867   1.523   2.101   9.406 -0.1206 -1.0193 -0.6996
  217MOL0     C29868   1.453   2.134   9.284  0.1222  0.0908  0.1337
  217MOL0     C29869   1.546   2.122   9.158 -1.0994  0.9654  0.0787
  217MOL0     C29870   1.464   2.157   9.029  0.1111  0.2312  0.6906
  217MOL0     C29871   1.554   2.177   8.907 -0.1754 -1.0673 -0.5293
  217MOL0     C29872   1.473   2.223   8.790  0.0135  0.1443  0.2586
  217MOL0     C29873   1.407   2.264   8.696 -1.1331 -0.2141 -0.8730
  217MOL0     C29874   1.574   1.977   9.598  0.0368 -0.2200  0.6068
  217MOL0     C29875   1.568   1.862   9.678 -0.7661 -0.5605 -0.8409
  217MOL0     C29876   1.649   1.878   9.805  0.7746 -0.4816  0.4657
  217MOL0     H29877   1.298   1.508   9.905 -0.8660 -0.5443 -0.3858
  217MOL0     H29878   1.287   1.312  10.073  0.8674  0.9682  3.7836
  217MOL0     H29879   1.405   1.083  10.011 -0.6996 -0.6475  0.4032
  217MOL0     H29880   1.375   1.007  10.165 -0.2580  0.6047  1.4408
  217MOL0     H29881   1.529   0.875  10.053  6.1414 -1.4019 -2.1761
  217MOL0     H29882   1.617   0.997   9.989 -1.7251 -0.0693 -2.0222
  217MOL0     H29883   1.671   1.038  10.256 -2.6083  2.0511 -1.9479
  217MOL0     H29884   1.596   0.875  10.276 -2.3610 -0.6642 -3.0995
  217MOL0     H29885   1.762   0.763  10.115  1.0657 -1.5906  1.6723
  217MOL0     H29886   1.838   0.921  10.092 -0.9670  0.3570  0.2959
  217MOL0     H29887   1.819   0.778  10.343  0.9638  0.2052  0.0600
  217MOL0     H29888   1.900   0.935  10.332  3.5768 -1.4575  1.5075
  217MOL0     H29889   1.998   0.697  10.158  1.2245  0.3219 -0.9916
  217MOL0     H29890   2.058   0.861  10.153 -1.7019  0.9538 -0.9231
  217MOL0     H29891   2.105   0.814  10.409 -0.8656  0.8371 -0.2351
  217MOL0     H29892   2.216   0.802  10.276 -3.0713  4.1276 -0.3033
  217MOL0     H29893   2.151   0.541  10.252  1.0196 -0.4802  0.8535
  217MOL0     H29894   2.255   0.588  10.368 -0.4064 -2.2859 -0.8780
  217MOL0     H29895   1.918   0.413  10.345  0.6625  1.5516 -0.9182
  217MOL0     H29896   1.718   0.365  10.525  1.7952  0.6709 -1.1439
  217MOL0     H29897   1.775   0.359  10.699 -1.9141  4.2347 -0.9479
  217MOL0     H29898   1.849   0.191  10.459 -1.1818 -0.8645 -0.1187
  217MOL0     H29899   1.911   0.157  10.623 -1.5817  1.7905  3.4248
  217MOL0     H29900   1.701   0.092  10.698  0.1885 -1.5842  0.7437
  217MOL0     H29901   1.617   0.121  10.537 -1.2246  0.6507  2.2717
  217MOL0     H29902   1.856  -0.062  10.584 -0.5822  0.5098  2.4806
  217MOL0     H29903   1.691  -0.120  10.573  2.2512 -1.2206  1.3395
  217MOL0     H29904   1.823  -0.135  10.172  3.9421 -0.0387 -1.7180
  217MOL0     H29905   2.062  -0.363  10.055  0.5979  1.1659 -2.1544
  217MOL0     H29906   1.983  -0.217  10.017  1.5986 -0.4037 -0.1229
  217MOL0     H29907   1.895  -0.370   9.985  0.8960  1.3184 -2.2499
  217MOL0     H29908   1.911  -0.847  10.071 -0.4543  0.9808  0.2160
  217MOL0     H29909   2.004  -1.016   9.973  1.4118 -0.9296  2.0990
  217MOL0     H29910   2.455  -1.018   9.838 -0.5102 -0.3812 -0.6683
  217MOL0     H29911   2.362  -1.163   9.779 -2.9774 -0.4605  0.2754
  217MOL0     H29912   2.323  -0.881   9.684 -0.9785  0.1201  0.7798
  217MOL0     H29913   2.411  -1.008   9.602 -1.1614 -0.7424 -0.2822
  217MOL0     H29914   2.184  -0.948   9.528  1.9074 -0.2972 -1.9804
  217MOL0     H29915   2.106  -1.022   9.655 -0.8606 -0.9920 -0.8283
  217MOL0     H29916   2.228  -1.232   9.589  1.4602 -0.4294 -0.4177
  217MOL0     H29917   2.304  -1.139   9.457 -0.1825  1.6096 -0.4379
  217MOL0     H29918   2.004  -1.215   9.502  1.2045 -2.6168  1.0828
  217MOL0     H29919   2.052  -1.112   9.363  0.5735 -0.9666 -2.2190
  217MOL0     H29920   2.017  -1.365   9.325 -1.0079 -1.2366  0.3446
  217MOL0     H29921   2.175  -1.383   9.408  0.6272  0.4032 -0.5225
  217MOL0     H29922   2.273  -1.224   9.224 -0.2823  2.0304  0.0519
  217MOL0     H29923   2.127  -1.242   9.134  0.5193  2.9905  1.1717
  217MOL0     H29924   2.298  -1.472   9.232  1.1766  1.6160  0.3794
  217MOL0     H29925   2.300  -1.410   9.067 -4.6724  0.2639 -2.7235
  217MOL0     H29926   2.390  -0.803   9.959  0.4871  0.9857  0.0310
  217MOL0     H29927   2.285  -0.619  10.057  0.8309  0.8431 -2.1730
  217MOL0     H29928   1.964  -0.489  10.497  1.2489 -0.0852 -2.0084
  217MOL0     H29929   1.853  -0.288  10.580  3.1366  0.5483  0.5201
  217MOL0     H29930   1.701   1.332  10.138 -0.9643 -2.1819  0.1490
  217MOL0     H29931   1.703   1.558  10.021 -0.8662 -0.0100 -0.4319
  217MOL0     H29932   1.387   1.671   9.481  0.4312  0.0769 -1.4478
  217MOL0     H29933   1.398   1.862   9.328  1.2717 -0.1943 -0.6407
  217MOL0     H29934   1.363   2.076   9.260 -0.0804  1.3802 -2.5906
  217MOL0     H29935   1.429   2.239   9.298  1.3534  0.3035  0.7659
  217MOL0     H29936   1.585   2.020   9.156 -1.3845  0.8461 -2.5658
  217MOL0     H29937   1.636   2.184   9.170  0.3024 -0.0145 -3.7692
  217MOL0     H29938   1.397   2.074   9.006 -1.1953  1.7523 -1.3055
  217MOL0     H29939   1.401   2.245   9.044 -2.2963 -1.1406 -0.6936
  217MOL0     H29940   1.608   2.090   8.870 -2.4602 -2.3011 -1.1610
  217MOL0     H29941   1.622   2.261   8.927 -1.4621 -0.4779  1.7047
  217MOL0     H29942   1.355   2.305   8.612  1.3490 -0.8372 -2.8389
  217MOL0     H29943   1.620   2.067   9.636  0.1609  1.1317 -2.4034
  217MOL0     H29944   1.739   1.938   9.792  2.3910 -3.1026 -1.5545
  217MOL0     H29945   1.585   1.915   9.885 -0.9131 -2.3029  0.0310
  217MOL0     H29946   1.685   1.779   9.836 -0.5160 -1.2536 -0.4190
  218MOL0     O29947  10.949   2.004   2.209 -0.1667  0.3338  0.1451
  218MOL0     C29948  11.007   1.900   2.240 -0.2347 -0.0310  0.0340
  218MOL0     O29949  10.950   1.795   2.284  0.4115  0.2549  0.3005
  218MOL0     C29950  10.831   1.813   2.347  0.6312 -0.3849 -0.3838
  218MOL0     C29951  10.810   1.900   2.458 -0.1975  0.3546  0.4892
  218MOL0     C29952  10.688   1.888   2.525  0.6485 -0.5882 -0.0389
  218MOL0     C29953  10.585   1.807   2.480  1.1699  0.9782 -0.4272
  218MOL0     O29954  10.457   1.802   2.541  0.1274 -0.2166  0.8479
  218MOL0     C29955  10.419   1.859   2.663 -0.1343 -0.7423  0.3855
  218MOL0     C29956  10.350   1.998   2.638  0.3957  0.0338  0.3003
  218MOL0     C29957  10.235   1.988   2.531  0.7416  0.0000 -0.1950
  218MOL0     C29958  10.158   2.126   2.525 -0.0601  0.4675 -0.0236
  218MOL0     C29959  10.002   2.111   2.523  0.0424  0.3641  0.9252
  218MOL0     C29960   9.930   2.232   2.464  0.0049 -0.6585 -0.7503
  218MOL0     C29961   9.775   2.232   2.492 -0.1060 -0.3169  0.0326
  218MOL0     C29962   9.730   2.370   2.455  0.5039  1.2288  1.1170
  218MOL0     N29963   9.584   2.373   2.479  0.0687  0.2141 -0.1239
  218MOL0     C29964   9.476   2.337   2.398  0.2633 -0.5268 -0.1902
  218MOL0     C29965   9.360   2.368   2.473 -0.5219 -0.5447  0.1570
  218MOL0     C29966   9.210   2.353   2.443  0.2013 -0.0438  0.3223
  218MOL0     C29967   9.147   2.492   2.439 -0.1279 -0.0025  0.1440
  218MOL0     C29968   9.000   2.480   2.396  0.5789 -0.0526 -0.0317
  218MOL0     C29969   8.942   2.620   2.349  1.2489 -0.6703 -1.2781
  218MOL0     O29970   8.803   2.602   2.308  0.2610 -0.3090  0.4292
  218MOL0     C29971   8.709   2.700   2.321 -0.2159  0.7420  0.3954
  218MOL0     C29972   8.731   2.833   2.289  0.2834  0.3821 -0.8867
  218MOL0     C29973   8.629   2.932   2.308  0.3460 -0.3239  0.1492
  218MOL0     C29974   8.665   3.075   2.277  0.0422 -0.0808 -0.6170
  218MOL0     C29975   8.500   2.897   2.356  0.4943  0.1760  0.3592
  218MOL0     C29976   8.383   2.980   2.369 -0.2340 -0.6882 -0.1864
  218MOL0     O29977   8.270   2.922   2.337 -0.2720 -0.2323 -0.0899
  218MOL0     C29978   8.151   2.996   2.347 -0.3557 -0.4125 -0.0127
  218MOL0     C29979   8.034   2.929   2.386  0.5580 -0.7811  0.3143
  218MOL0     C29980   7.908   2.991   2.369  0.1384  0.2166 -0.1678
  218MOL0     C29981   7.892   3.127   2.335  0.2440  0.5002 -0.4433
  218MOL0     O29982   7.782   3.205   2.351  0.0859  1.1393  0.3316
  218MOL0     C29983   7.653   3.139   2.374 -0.6942 -0.0237 -0.6349
  218MOL0     C29984   7.558   3.246   2.363  0.0121 -1.3477  0.2320
  218MOL0     C29985   7.418   3.214   2.432 -0.6854 -0.4495  0.3758
  218MOL0     C29986   7.325   3.332   2.435 -0.3405  0.3117  0.8736
  218MOL0     C29987   7.219   3.314   2.532  0.3773  0.2997 -0.1987
  218MOL0     C29988   7.093   3.395   2.494 -0.2294 -0.6250  0.2188
  218MOL0     C29989   6.984   3.400   2.608  0.7443  0.0792  0.2570
  218MOL0     C29990   6.846   3.416   2.551  0.0372 -1.0816 -0.2374
  218MOL0    Cl29991   6.700   3.355   2.644  0.4378  0.3333 -0.3131
  218MOL0     C29992   8.009   3.188   2.292  0.2653  1.1717 -0.3166
  218MOL0     C29993   8.136   3.127   2.298 -1.5218 -0.1211 -0.0967
  218MOL0     O29994   8.393   3.090   2.420 -0.3142  0.7047  0.3587
  218MOL0     C29995   8.485   2.756   2.383  0.3289 -0.3101  1.0833
  218MOL0     C29996   8.585   2.662   2.368  0.4470 -0.1597 -0.3059
  218MOL0     N29997   9.408   2.411   2.596  0.2032  0.3739  0.2347
  218MOL0     N29998   9.535   2.421   2.596 -0.0363  0.4454  0.0382
  218MOL0     C29999  10.605   1.730   2.359  0.4591  0.2847 -0.4872
  218MOL0     C30000  10.730   1.735   2.296  0.3715 -0.6135  0.4545
  218MOL0     C30001  11.158   1.874   2.211 -0.5577 -0.3224  0.1212
  218MOL0     C30002  11.207   1.739   2.221  0.3327 -0.0560  0.0814
  218MOL0     C30003  11.338   1.703   2.180  0.8797 -0.5662  0.8225
  218MOL0     C30004  11.429   1.794   2.135  1.4382 -0.2411  0.4005
  218MOL0     O30005  11.552   1.756   2.098 -0.4312 -0.1867 -0.2089
  218MOL0     C30006  11.629   1.856   2.023  0.0283  0.6887 -1.5250
  218MOL0     C30007  11.744   1.777   1.962  0.5502 -0.4246  0.8747
  218MOL0     C30008  11.847   1.735   2.062  0.2598 -0.3409  0.4582
  218MOL0     C30009  11.965   1.656   2.002 -0.0185 -0.6270  0.0430
  218MOL0     C30010  11.923   1.529   1.956  1.6717  0.1330 -0.1678
  218MOL0     C30011  11.870   1.416   1.943  0.5401  0.6661  0.4394
  218MOL0     C30012  11.382   1.929   2.134  0.4154 -0.3692  0.1788
  218MOL0     C30013  11.252   1.968   2.170  0.2971  0.0195  0.5112
  218MOL0     C30014  11.214   2.114   2.156  1.1141 -1.1247 -0.1797
  218MOL0     H30015  10.885   1.965   2.501  0.5393  1.0104 -1.6644
  218MOL0     H30016  10.674   1.958   2.606  1.5039  0.8504 -1.0755
  218MOL0     H30017  10.509   1.877   2.722 -0.0866  1.3389 -0.2497
  218MOL0     H30018  10.350   1.795   2.720  0.4230 -1.3040  0.4401
  218MOL0     H30019  10.321   2.026   2.740  0.3994 -2.8724  1.1878
  218MOL0     H30020  10.424   2.073   2.608  2.3969 -1.9366  0.0708
  218MOL0     H30021  10.276   1.972   2.431  0.6207 -0.3082 -0.1975
  218MOL0     H30022  10.167   1.903   2.543  0.2050  0.4448 -0.0863
  218MOL0     H30023  10.189   2.195   2.604  1.3201  1.1391 -1.0984
  218MOL0     H30024  10.184   2.178   2.432  0.8360  1.5233  0.7943
  218MOL0     H30025   9.971   2.087   2.625 -2.6243  1.0989  0.3577
  218MOL0     H30026   9.977   2.027   2.458 -0.5378 -2.4943  4.5066
  218MOL0     H30027   9.979   2.317   2.514 -3.5740  0.4175  1.3543
  218MOL0     H30028   9.959   2.247   2.360 -0.1753  3.1041 -0.4143
  218MOL0     H30029   9.762   2.198   2.595  0.8078  0.9118  0.5849
  218MOL0     H30030   9.721   2.151   2.443  0.2098 -2.2063  2.6271
  218MOL0     H30031   9.786   2.438   2.519  1.1520  1.0755  0.7263
  218MOL0     H30032   9.756   2.377   2.349 -1.6536 -0.4702  0.4030
  218MOL0     H30033   9.466   2.301   2.297  0.8101  2.6978 -1.5273
  218MOL0     H30034   9.167   2.282   2.514  2.0792 -2.5782 -0.8921
  218MOL0     H30035   9.200   2.296   2.350  3.6428  0.5431 -0.5468
  218MOL0     H30036   9.153   2.539   2.538 -0.6830 -0.5767  0.4500
  218MOL0     H30037   9.201   2.565   2.376 -2.2919  3.0400  1.5631
  218MOL0     H30038   8.990   2.419   2.305 -1.2897  0.9341 -0.5569
  218MOL0     H30039   8.928   2.431   2.463  1.0923 -2.2581 -0.9984
  218MOL0     H30040   8.955   2.690   2.431  1.0675 -0.7460 -1.1843
  218MOL0     H30041   8.991   2.656   2.258 -0.0792  1.2113 -1.3066
  218MOL0     H30042   8.822   2.874   2.246  1.3760 -1.1446 -0.1396
  218MOL0     H30043   8.578   3.137   2.253  1.2273  2.0283  0.2681
  218MOL0     H30044   8.744   3.094   2.204 -0.2052  0.3641 -0.7696
  218MOL0     H30045   8.702   3.110   2.374 -1.2853 -3.5800  1.3531
  218MOL0     H30046   8.035   2.827   2.423 -1.5569 -0.8494  0.2958
  218MOL0     H30047   7.823   2.931   2.396  0.3964  0.5775  1.5272
  218MOL0     H30048   7.627   3.062   2.302 -0.2399 -0.8905  0.1118
  218MOL0     H30049   7.649   3.086   2.470 -3.1857  0.6472 -0.2941
  218MOL0     H30050   7.605   3.335   2.405 -0.5079 -1.8619  1.9516
  218MOL0     H30051   7.543   3.261   2.255 -2.2516 -3.6638  0.1391
  218MOL0     H30052   7.439   3.188   2.536 -0.7412  3.3080  1.4671
  218MOL0     H30053   7.371   3.128   2.382  2.0352 -1.7572 -0.1073
  218MOL0     H30054   7.288   3.339   2.332 -1.0576 -1.5126  0.9760
  218MOL0     H30055   7.367   3.429   2.463  2.3374 -0.4770 -0.1142
  218MOL0     H30056   7.198   3.208   2.551  2.9887 -0.0023  1.7102
  218MOL0     H30057   7.246   3.349   2.632  0.9473  1.9089 -0.8829
  218MOL0     H30058   7.044   3.352   2.406 -0.1024 -2.7747  1.1456
  218MOL0     H30059   7.132   3.496   2.477 -1.4432  0.2370  2.1608
  218MOL0     H30060   6.995   3.491   2.667 -2.3572  0.7476 -0.0304
  218MOL0     H30061   6.986   3.311   2.671 -2.3515  1.1287  2.0654
  218MOL0     H30062   6.845   3.374   2.450  0.2958 -2.8811  0.4594
  218MOL0     H30063   6.839   3.522   2.527  1.9763 -0.6530  0.9121
  218MOL0     H30064   7.998   3.292   2.264 -1.4126  1.0560 -0.2011
  218MOL0     H30065   8.220   3.182   2.258  0.0295 -1.0683  1.7424
  218MOL0     H30066   8.395   2.721   2.431  1.0081  0.2333  2.7993
  218MOL0     H30067   8.566   2.563   2.410  0.3049  0.2609  0.6586
  218MOL0     H30068  10.515   1.677   2.329 -0.9348  2.0658  0.3883
  218MOL0     H30069  10.750   1.671   2.211 -1.0360 -0.5312  0.0289
  218MOL0     H30070  11.157   1.650   2.257  2.6439 -2.3860 -2.0841
  218MOL0     H30071  11.361   1.598   2.189 -2.9781 -1.4399  2.6242
  218MOL0     H30072  11.570   1.904   1.944 -0.0451 -0.4462 -2.1798
  218MOL0     H30073  11.650   1.926   2.104 -2.8392 -2.9485  2.8187
  218MOL0     H30074  11.795   1.845   1.892  1.1801 -1.6450  0.1146
  218MOL0     H30075  11.701   1.697   1.902  0.8436  1.3093 -1.8598
  218MOL0     H30076  11.887   1.830   2.100  2.3665 -0.6352 -0.8199
  218MOL0     H30077  11.792   1.684   2.141 -1.9550  1.7111  0.3459
  218MOL0     H30078  12.046   1.641   2.074  1.5130 -3.4884 -2.0964
  218MOL0     H30079  12.011   1.705   1.915  0.1828 -0.1995  0.3861
  218MOL0     H30080  11.806   1.333   1.919  1.4175  0.1921 -0.2958
  218MOL0     H30081  11.455   2.004   2.104  0.5923 -0.2654  0.8376
  218MOL0     H30082  11.205   2.159   2.255  0.6167 -1.8408  0.1038
  218MOL0     H30083  11.298   2.171   2.115 -0.3847  1.1494 -0.2812
  218MOL0     H30084  11.136   2.137   2.083  4.2857  2.6050 -2.8801
  219MOL0     O30085   9.926   0.217  10.692 -0.7670  0.2793  0.0986
  219MOL0     C30086   9.881   0.258  10.802 -0.0734  0.1343  0.7212
  219MOL0     O30087   9.959   0.304  10.910 -0.4927  0.6736 -0.5734
  219MOL0     C30088  10.087   0.352  10.894 -1.1614  0.4183  0.1549
  219MOL0     C30089  10.132   0.408  10.777  0.3838 -0.5172 -0.4927
  219MOL0     C30090  10.265   0.463  10.775 -0.1096  0.4898 -0.0470
  219MOL0     C30091  10.346   0.442  10.879  0.0776  0.8990 -0.1204
  219MOL0     O30092  10.468   0.495  10.870  0.1343 -0.1793  0.3599
  219MOL0     C30093  10.557   0.507  10.982  0.3693 -0.0690 -1.0572
  219MOL0     C30094  10.641   0.380  11.005 -0.6058  0.0371  0.2593
  219MOL0     C30095  10.733   0.357  10.881  0.7614 -0.0081 -0.2365
  219MOL0     C30096  10.830   0.234  10.889  0.7537  0.1684  0.2799
  219MOL0     C30097  10.962   0.274  10.948  0.2922 -0.5592 -1.1932
  219MOL0     C30098  11.051   0.154  10.976 -0.1313 -0.0070 -0.8338
  219MOL0     C30099  11.175   0.202  11.047 -0.4248  0.0109 -0.3464
  219MOL0     C30100  11.286   0.269  10.972 -0.3839  0.1846  0.4979
  219MOL0     N30101  11.380   0.351  11.059 -0.1128 -0.6019 -0.0818
  219MOL0     C30102  11.480   0.293  11.132  0.2108 -0.2908  0.1503
  219MOL0     C30103  11.575   0.394  11.139 -0.0737  0.7240 -0.0744
  219MOL0     C30104  11.709   0.389  11.209  0.3673 -0.4952 -0.2597
  219MOL0     C30105  11.822   0.494  11.154 -0.7042  0.1939 -0.1363
  219MOL0     C30106  11.914   0.526  11.271 -0.2541 -0.2169  0.6296
  219MOL0     C30107  12.036   0.613  11.235  0.2944  0.4991 -0.3436
  219MOL0     O30108  12.083   0.666  11.367 -0.0723 -0.2701  0.6193
  219MOL0     C30109  12.202   0.736  11.373 -0.3004  1.1850 -0.4170
  219MOL0     C30110  12.300   0.746  11.276 -0.6636  0.0616 -0.3095
  219MOL0     C30111  12.423   0.821  11.285 -0.3417  0.5045 -0.1877
  219MOL0     C30112  12.521   0.828  11.171 -0.1859  0.2097  0.5774
  219MOL0     C30113  12.441   0.891  11.410  0.2649 -0.0447  0.6711
  219MOL0     C30114  12.563   0.973  11.427  0.0574 -0.3689  0.6653
  219MOL0     O30115  12.550   1.104  11.481 -0.6003  0.4551  0.0144
  219MOL0     C30116  12.669   1.176  11.504  1.2489 -0.5825 -0.3449
  219MOL0     C30117  12.746   1.134  11.611 -0.5455 -1.0227 -0.2167
  219MOL0     C30118  12.865   1.209  11.633  0.0496 -0.3207 -0.6858
  219MOL0     C30119  12.898   1.328  11.568 -0.3159 -0.2686  0.4421
  219MOL0     O30120  13.017   1.398  11.593 -0.8919  0.8105 -0.6204
  219MOL0     C30121  13.000   1.543  11.602 -0.6023 -0.5173 -0.3831
  219MOL0     C30122  13.112   1.605  11.668  0.0493  0.0132  0.4875
  219MOL0     C30123  13.252   1.558  11.616  0.0889 -0.3573  0.1981
  219MOL0     C30124  13.366   1.619  11.698 -0.0851  0.0037 -0.5152
  219MOL0     C30125  13.497   1.625  11.622 -0.5053 -0.0840 -0.7099
  219MOL0     C30126  13.612   1.658  11.728  0.3363  0.4159 -0.5475
  219MOL0     C30127  13.741   1.711  11.661  0.7740  0.1717  0.0817
  219MOL0     C30128  13.836   1.773  11.761  1.0705 -0.2737 -0.3278
  219MOL0    Cl30129  13.789   1.944  11.789  0.0120 -0.1776  0.4263
  219MOL0     C30130  12.807   1.373  11.472  0.5228  0.6159  0.0727
  219MOL0     C30131  12.691   1.297  11.443  0.2885 -0.1013 -0.4935
  219MOL0     O30132  12.671   0.919  11.399  0.5199  0.4022 -0.3901
  219MOL0     C30133  12.342   0.892  11.502 -0.2251 -0.3417 -0.7925
  219MOL0     C30134  12.223   0.812  11.489  0.3581 -1.1913  0.2503
  219MOL0     N30135  11.526   0.510  11.072  0.4890  0.4265  0.2081
  219MOL0     N30136  11.409   0.484  11.024  0.5502 -0.1715  0.1331
  219MOL0     C30137  10.302   0.385  10.998  0.6394 -0.3265  0.2472
  219MOL0     C30138  10.177   0.331  11.001  0.0793  0.1195  0.0636
  219MOL0     C30139   9.733   0.248  10.811 -0.2648 -0.8994  1.1384
  219MOL0     C30140   9.671   0.163  10.719  0.3885 -0.0312 -0.0084
  219MOL0     C30141   9.533   0.153  10.713  0.0910  0.3648 -0.0732
  219MOL0     C30142   9.450   0.220  10.811 -0.5906  0.1196  0.7521
  219MOL0     O30143   9.317   0.224  10.810  1.0104 -0.3895  0.6010
  219MOL0     C30144   9.243   0.157  10.701 -0.6010  0.0730  0.0358
  219MOL0     C30145   9.232   0.006  10.741  0.4655  0.6142 -0.9145
  219MOL0     C30146   9.136  -0.066  10.653  0.2645  1.2858 -0.0478
  219MOL0     C30147   9.105  -0.209  10.693 -0.5746  1.4470  0.0525
  219MOL0     C30148   9.234  -0.278  10.740  0.3980  0.6918  0.2942
  219MOL0     C30149   9.329  -0.344  10.778  0.5970 -1.0471 -0.6870
  219MOL0     C30150   9.511   0.309  10.906  0.4729 -0.0511 -0.2330
  219MOL0     C30151   9.651   0.321  10.901  0.4802 -0.2397 -0.7693
  219MOL0     C30152   9.709   0.419  10.998 -0.2345  0.0173  0.0059
  219MOL0     H30153  10.071   0.408  10.687  0.5946 -0.0196 -0.6414
  219MOL0     H30154  10.311   0.506  10.687  2.4605 -2.8859 -0.5405
  219MOL0     H30155  10.493   0.528  11.069  0.3205 -0.4602 -0.9972
  219MOL0     H30156  10.622   0.595  10.980 -0.9410  1.0482  0.9744
  219MOL0     H30157  10.702   0.392  11.095  1.1836 -1.8585 -0.6223
  219MOL0     H30158  10.573   0.296  11.017  1.2772 -1.3859  1.4021
  219MOL0     H30159  10.676   0.343  10.789 -1.8783  1.5239  1.0393
  219MOL0     H30160  10.800   0.442  10.865  1.4299 -0.7694 -1.6190
  219MOL0     H30161  10.778   0.156  10.945 -0.3468  1.0405  0.5155
  219MOL0     H30162  10.850   0.182  10.795  1.8026 -1.4348  1.3533
  219MOL0     H30163  10.957   0.335  11.038 -1.6975  0.9510 -2.2550
  219MOL0     H30164  11.002   0.347  10.877 -0.5235  3.0039  1.7298
  219MOL0     H30165  10.996   0.086  11.042  0.3141  1.5977  1.3249
  219MOL0     H30166  11.083   0.105  10.884  1.6667  2.1257 -1.4167
  219MOL0     H30167  11.217   0.116  11.100 -0.2514 -1.3338 -2.5253
  219MOL0     H30168  11.134   0.271  11.122  1.5518  1.2192 -0.3136
  219MOL0     H30169  11.346   0.193  10.921  1.5787  1.8257  0.2127
  219MOL0     H30170  11.240   0.332  10.895  2.0663  0.3010 -0.9856
  219MOL0     H30171  11.480   0.194  11.175 -2.0766 -0.7497 -0.7218
  219MOL0     H30172  11.749   0.288  11.221  2.5206  0.3794  0.3627
  219MOL0     H30173  11.677   0.414  11.311 -2.6727 -0.8223 -1.0339
  219MOL0     H30174  11.876   0.445  11.073 -1.0348 -0.5533  0.0895
  219MOL0     H30175  11.780   0.582  11.104  2.6400  1.1417 -1.5715
  219MOL0     H30176  11.859   0.579  11.349 -0.7891  3.9298 -2.2298
  219MOL0     H30177  11.953   0.434  11.316 -1.5004 -0.2392  1.7192
  219MOL0     H30178  12.101   0.541  11.186  0.7295 -0.8153  1.9823
  219MOL0     H30179  11.993   0.682  11.162 -0.2766 -2.1737 -2.7123
  219MOL0     H30180  12.287   0.697  11.180 -2.5962  0.1664 -0.1256
  219MOL0     H30181  12.627   0.824  11.196  0.2225  0.6674 -0.9682
  219MOL0     H30182  12.507   0.915  11.106  1.8285 -1.0323 -1.7156
  219MOL0     H30183  12.502   0.742  11.106  1.9255  1.6851 -2.2116
  219MOL0     H30184  12.735   1.043  11.669  1.1430  1.2069  4.0910
  219MOL0     H30185  12.938   1.173  11.705 -0.0258  3.1551  1.3538
  219MOL0     H30186  12.996   1.585  11.501 -1.9583 -0.4915 -0.3386
  219MOL0     H30187  12.910   1.574  11.655 -0.6427  0.1229 -0.8202
  219MOL0     H30188  13.104   1.713  11.653  1.4975  0.4025  2.1870
  219MOL0     H30189  13.102   1.595  11.776  1.0905  3.9275  1.0936
  219MOL0     H30190  13.264   1.598  11.515  0.8791 -0.1408  0.3764
  219MOL0     H30191  13.262   1.449  11.613 -4.0773 -0.9637  1.3667
  219MOL0     H30192  13.383   1.571  11.795  3.8640 -1.7945 -1.8805
  219MOL0     H30193  13.347   1.721  11.733  1.8922 -0.5911  2.6299
  219MOL0     H30194  13.518   1.532  11.568 -2.1398 -1.6808  1.2581
  219MOL0     H30195  13.490   1.698  11.541 -5.1527 -1.3260 -1.7125
  219MOL0     H30196  13.623   1.577  11.801 -1.0140  2.7949  2.5296
  219MOL0     H30197  13.569   1.737  11.791  1.4028 -1.2035  2.4054
  219MOL0     H30198  13.718   1.787  11.585 -1.4078  0.2637  0.7547
  219MOL0     H30199  13.787   1.626  11.610  2.0400  1.4979 -1.0593
  219MOL0     H30200  13.933   1.756  11.715  0.9320 -2.5391  0.0727
  219MOL0     H30201  13.823   1.717  11.854 -2.2121 -1.2875 -1.2321
  219MOL0     H30202  12.821   1.463  11.413  2.7284  0.6441  0.5541
  219MOL0     H30203  12.622   1.325  11.364  0.1218  1.5219  0.1865
  219MOL0     H30204  12.356   0.958  11.587 -3.5405  1.1282 -1.2369
  219MOL0     H30205  12.160   0.817  11.577  1.2015  2.7308  0.8093
  219MOL0     H30206  10.369   0.366  11.082  1.0135  0.7771  0.2191
  219MOL0     H30207  10.137   0.279  11.088 -0.3093  0.3630  0.0316
  219MOL0     H30208   9.730   0.111  10.645 -0.0678  1.1266 -1.2398
  219MOL0     H30209   9.483   0.083  10.646  0.3922  1.4768 -1.5134
  219MOL0     H30210   9.145   0.204  10.699 -0.2468  0.8807  0.7023
  219MOL0     H30211   9.287   0.170  10.602 -1.1601 -0.5424 -0.3004
  219MOL0     H30212   9.196  -0.005  10.844  0.0597  3.1422 -0.7223
  219MOL0     H30213   9.333  -0.036  10.740 -1.1149 -4.0084  1.3407
  219MOL0     H30214   9.039  -0.019  10.633 -0.3340  0.8922  1.7661
  219MOL0     H30215   9.185  -0.069  10.555  2.1360 -1.7349  0.8298
  219MOL0     H30216   9.063  -0.265  10.608 -1.1872 -0.7671  1.7067
  219MOL0     H30217   9.036  -0.190  10.776  0.8840  2.3025  1.0991
  219MOL0     H30218   9.428  -0.373  10.807 -0.0913 -2.2382  0.6303
  219MOL0     H30219   9.451   0.375  10.967  1.3538 -0.9670  1.6890
  219MOL0     H30220   9.769   0.486  10.935  2.1683 -0.5415  1.5639
  219MOL0     H30221   9.633   0.474  11.055 -1.7488  0.2314 -2.0969
  219MOL0     H30222   9.782   0.377  11.068  0.3404  0.0519 -0.5617
  220MOL0     O30223   3.343   6.066  10.794  0.2480  0.4432  0.0008
  220MOL0     C30224   3.314   6.091  10.679 -0.0607  0.4013 -0.1759
  220MOL0     O30225   3.390   6.068  10.575 -0.2426 -0.3603  0.9915
  220MOL0     C30226   3.531   6.076  10.578  0.0500  0.8221  0.5385
  220MOL0     C30227   3.609   5.966  10.526  0.2960 -0.3548  0.4080
  220MOL0     C30228   3.751   5.961  10.526 -0.0356 -0.7054 -0.2727
  220MOL0     C30229   3.817   6.060  10.596  0.3109 -0.4294  0.2667
  220MOL0     O30230   3.957   6.075  10.599 -0.4278  0.6666 -0.7513
  220MOL0     C30231   4.031   5.950  10.574  0.4646 -0.7346 -0.8158
  220MOL0     C30232   4.181   5.990  10.573 -0.5555 -0.4109  0.2027
  220MOL0     C30233   4.275   5.868  10.572  0.5969  0.7578  0.2107
  220MOL0     C30234   4.424   5.899  10.561  0.7265 -0.2257  0.5360
  220MOL0     C30235   4.506   5.777  10.530 -0.5239  0.4501  0.1598
  220MOL0     C30236   4.647   5.823  10.493  1.2181 -0.8422  0.3477
  220MOL0     C30237   4.744   5.718  10.543 -0.9195 -1.4580  0.3031
  220MOL0     C30238   4.778   5.709  10.688 -0.2627 -0.8300  0.9626
  220MOL0     N30239   4.911   5.660  10.720  0.0004 -0.2633 -0.2217
  220MOL0     C30240   4.947   5.577  10.825 -0.2595  0.2573 -0.9879
  220MOL0     C30241   5.080   5.589  10.842 -0.6356  0.3436  0.0218
  220MOL0     C30242   5.179   5.538  10.941 -0.1191  0.8960  0.4011
  220MOL0     C30243   5.255   5.426  10.873 -0.1685  0.2963 -0.0306
  220MOL0     C30244   5.387   5.382  10.952  0.8598 -0.3622  0.3973
  220MOL0     C30245   5.516   5.464  10.924 -0.1448 -0.2213  0.0490
  220MOL0     O30246   5.546   5.462  10.786 -0.1150  0.0471 -0.1566
  220MOL0     C30247   5.586   5.587  10.741 -0.5994  0.6252  0.4506
  220MOL0     C30248   5.497   5.684  10.715  0.0035 -0.1899  0.7561
  220MOL0     C30249   5.537   5.811  10.656 -0.3084 -0.0337  0.0832
  220MOL0     C30250   5.422   5.915  10.644 -0.3160 -0.0066  0.5853
  220MOL0     C30251   5.675   5.836  10.629 -0.1447  0.2654 -0.0351
  220MOL0     C30252   5.720   5.959  10.546  0.4885 -0.4629  0.5536
  220MOL0     O30253   5.851   5.964  10.514 -0.2144  0.7367 -0.2071
  220MOL0     C30254   5.904   6.081  10.466  0.2199 -0.6340 -0.2913
  220MOL0     C30255   5.878   6.210  10.521  0.6842 -0.6761 -1.2511
  220MOL0     C30256   5.955   6.315  10.479 -0.5617 -0.3223  1.0014
  220MOL0     C30257   6.051   6.304  10.374 -0.8221  0.2344  0.0515
  220MOL0     O30258   6.137   6.402  10.346 -0.5764  0.3701  0.0269
  220MOL0     C30259   6.169   6.499  10.446  0.6469  0.6399  0.2968
  220MOL0     C30260   6.296   6.560  10.414 -0.7475  0.7810 -0.3537
  220MOL0     C30261   6.403   6.444  10.408  0.1823  0.2122  0.2586
  220MOL0     C30262   6.548   6.492  10.418  0.1549 -0.2446  0.2751
  220MOL0     C30263   6.656   6.380  10.409  0.5684 -0.7057  0.8676
  220MOL0     C30264   6.799   6.452  10.408  0.7996  0.4213  0.1577
  220MOL0     C30265   6.906   6.363  10.343 -0.7450  0.2554 -0.2226
  220MOL0     C30266   7.034   6.444  10.304 -0.3456  0.2185 -0.2514
  220MOL0    Cl30267   7.110   6.515  10.449 -0.1550 -0.3675 -0.5094
  220MOL0     C30268   6.078   6.175  10.329  0.0735 -0.0302  0.0255
  220MOL0     C30269   6.001   6.064  10.368 -0.5728 -0.6019 -0.8560
  220MOL0     O30270   5.643   6.054  10.525  0.3402 -0.3370  0.1425
  220MOL0     C30271   5.765   5.734  10.653 -0.2887 -0.2484  0.1184
  220MOL0     C30272   5.715   5.607  10.706  0.0744  0.3040  0.0752
  220MOL0     N30273   5.126   5.673  10.741 -0.4240  0.2752  0.3446
  220MOL0     N30274   5.029   5.720  10.680  0.9636 -0.1272  0.2324
  220MOL0     C30275   3.739   6.165  10.654 -0.5967  0.1758 -0.3377
  220MOL0     C30276   3.605   6.178  10.636  0.6428  0.3111 -0.9336
  220MOL0     C30277   3.177   6.148  10.660  0.2761 -0.4900 -0.1984
  220MOL0     C30278   3.125   6.153  10.531 -0.6124 -0.0042  0.9719
  220MOL0     C30279   2.999   6.212  10.499  0.1471 -0.0709 -0.7128
  220MOL0     C30280   2.921   6.260  10.601  1.0333 -0.0985 -0.7816
  220MOL0     O30281   2.809   6.331  10.562  0.2179 -0.1985 -0.8520
  220MOL0     C30282   2.718   6.379  10.656 -0.4315  0.7938 -1.0268
  220MOL0     C30283   2.604   6.445  10.579  0.2723 -0.4465  0.4262
  220MOL0     C30284   2.648   6.556  10.484 -0.6165 -0.0094  0.6170
  220MOL0     C30285   2.705   6.671  10.568  0.3240 -0.7993  0.1648
  220MOL0     C30286   2.600   6.768  10.613  0.7041  0.1996  0.7069
  220MOL0     C30287   2.528   6.852  10.656 -1.2223 -0.3460  0.4570
  220MOL0     C30288   2.963   6.256  10.735 -0.0350 -0.5906 -0.6800
  220MOL0     C30289   3.085   6.192  10.762  0.1095  0.4372  0.6183
  220MOL0     C30290   3.118   6.181  10.903 -0.8736  0.0081 -0.9004
  220MOL0     H30291   3.553   5.879  10.493 -0.5079  0.7798 -1.3665
  220MOL0     H30292   3.806   5.876  10.488  2.3489 -0.9571  3.2392
  220MOL0     H30293   4.002   5.909  10.477  0.4715  1.1459 -1.6574
  220MOL0     H30294   4.003   5.884  10.657  2.6412 -1.2793 -0.4520
  220MOL0     H30295   4.197   6.048  10.481  1.5602  0.0661  0.8070
  220MOL0     H30296   4.212   6.056  10.655 -1.0648  0.4000 -0.2349
  220MOL0     H30297   4.264   5.819  10.669  0.3922 -0.5820 -0.4686
  220MOL0     H30298   4.235   5.791  10.506 -0.4168 -0.6251  2.3276
  220MOL0     H30299   4.434   5.980  10.488 -2.0724 -0.4239 -0.1546
  220MOL0     H30300   4.458   5.927  10.661 -0.9995 -1.4918  1.5290
  220MOL0     H30301   4.469   5.730  10.438  0.1268  3.3692 -1.7567
  220MOL0     H30302   4.512   5.701  10.608  3.3855 -0.2995 -0.6315
  220MOL0     H30303   4.660   5.831  10.385 -2.7972 -3.6831 -0.5265
  220MOL0     H30304   4.690   5.913  10.540  1.6821 -0.6084 -0.5022
  220MOL0     H30305   4.840   5.738  10.494 -1.3685  2.0639  0.6046
  220MOL0     H30306   4.697   5.622  10.519 -1.9964 -0.9556  0.3404
  220MOL0     H30307   4.777   5.811  10.727 -0.0618  1.1683 -3.6593
  220MOL0     H30308   4.704   5.656  10.748 -2.0861  1.7735  1.1404
  220MOL0     H30309   4.878   5.526  10.891 -1.8965  4.3188  0.7727
  220MOL0     H30310   5.126   5.511  11.033 -1.8361 -0.3087 -0.8936
  220MOL0     H30311   5.259   5.606  10.974  1.1266 -1.1084  1.7678
  220MOL0     H30312   5.190   5.341  10.851  0.5787  0.1556 -1.8526
  220MOL0     H30313   5.287   5.460  10.774  1.6227  0.2541  0.4974
  220MOL0     H30314   5.378   5.395  11.060  0.6776 -2.1180  0.6287
  220MOL0     H30315   5.411   5.277  10.935 -0.1549 -0.1369 -3.2821
  220MOL0     H30316   5.503   5.565  10.963  2.0116 -0.6130  1.9958
  220MOL0     H30317   5.598   5.420  10.982  0.7486 -0.5997 -1.4537
  220MOL0     H30318   5.390   5.665  10.716  0.1076 -1.2914  4.1293
  220MOL0     H30319   5.455   6.001  10.702  1.6133 -0.9195  0.9046
  220MOL0     H30320   5.331   5.880  10.694 -0.7001 -2.4991 -1.6337
  220MOL0     H30321   5.392   5.948  10.545  1.6502  0.7548  0.2021
  220MOL0     H30322   5.800   6.218  10.596  0.4161 -0.6499 -1.5347
  220MOL0     H30323   5.935   6.415  10.515  0.1526  0.0847  0.2955
  220MOL0     H30324   6.095   6.580  10.444 -0.3440 -0.0617  3.3680
  220MOL0     H30325   6.171   6.444  10.541 -0.3896 -4.2576 -2.1670
  220MOL0     H30326   6.293   6.602  10.313  2.1479  2.0154 -0.0285
  220MOL0     H30327   6.324   6.633  10.491 -0.4281 -0.6283  0.9022
  220MOL0     H30328   6.398   6.397  10.309  1.2885  1.1311 -0.2598
  220MOL0     H30329   6.377   6.373  10.487 -0.8315 -1.0889 -1.1701
  220MOL0     H30330   6.563   6.540  10.515 -0.3594  4.4097 -1.7041
  220MOL0     H30331   6.564   6.570  10.344  0.6696 -0.3402  0.2790
  220MOL0     H30332   6.642   6.313  10.495  0.1556 -1.1017  0.4961
  220MOL0     H30333   6.646   6.324  10.316 -2.5455 -0.1445  0.7398
  220MOL0     H30334   6.834   6.484  10.507  1.0523 -2.2979  1.0289
  220MOL0     H30335   6.782   6.533  10.337  0.3737 -0.4752 -0.7784
  220MOL0     H30336   6.857   6.309  10.261 -1.6230  0.3807  0.2056
  220MOL0     H30337   6.927   6.288  10.420 -1.1746  0.1599 -0.1950
  220MOL0     H30338   7.000   6.521  10.235 -0.0664  0.0179 -0.6177
  220MOL0     H30339   7.101   6.382  10.243 -0.0070 -0.1674  0.4968
  220MOL0     H30340   6.144   6.154  10.246  0.4490 -2.6153  0.8778
  220MOL0     H30341   6.025   5.972  10.315  0.4649 -0.1656 -1.1719
  220MOL0     H30342   5.871   5.756  10.645 -0.1921 -0.9879 -0.7830
  220MOL0     H30343   5.790   5.529  10.717  2.2433  1.9127 -2.0916
  220MOL0     H30344   3.791   6.237  10.716 -0.9656 -0.4937  0.7732
  220MOL0     H30345   3.556   6.268  10.671  1.1840  1.2052 -2.3453
  220MOL0     H30346   3.179   6.119  10.443 -0.1395  3.1935 -0.1290
  220MOL0     H30347   2.962   6.204  10.397  1.3839 -1.9229 -1.0617
  220MOL0     H30348   2.677   6.295  10.712  1.3291  0.4911 -0.1315
  220MOL0     H30349   2.767   6.449  10.724  0.4153  0.6368 -1.4604
  220MOL0     H30350   2.523   6.480  10.643 -0.5225 -1.7986  0.2028
  220MOL0     H30351   2.558   6.365  10.520  0.2492 -0.8978  1.0462
  220MOL0     H30352   2.733   6.517  10.426  0.5898 -0.4301  2.5878
  220MOL0     H30353   2.563   6.587  10.422  0.6379  2.1725 -0.1300
  220MOL0     H30354   2.760   6.741  10.505 -1.4774  1.2144  0.6859
  220MOL0     H30355   2.779   6.650  10.646  1.0707  1.0196 -0.0012
  220MOL0     H30356   2.446   6.918  10.674 -1.3433 -0.5142  0.5261
  220MOL0     H30357   2.898   6.283  10.817 -0.2283 -2.9407  0.0225
  220MOL0     H30358   3.120   6.076  10.935  1.1367  0.9203  2.4113
  220MOL0     H30359   3.212   6.233  10.923 -1.2089 -0.4743  2.5819
  220MOL0     H30360   3.053   6.237  10.970  0.1346  1.4760 -1.1197
  221MOL0     O30361   5.642   7.932   1.025  0.4206  0.4549  0.5324
  221MOL0     C30362   5.610   7.992   0.922 -0.2157 -0.5217  0.0588
  221MOL0     O30363   5.704   8.087   0.863  0.3565  0.2973 -0.0084
  221MOL0     C30364   5.838   8.085   0.902 -0.2676 -0.6732  0.0381
  221MOL0     C30365   5.917   7.972   0.921 -0.6318 -0.9000  0.5827
  221MOL0     C30366   6.052   7.989   0.973  1.0257  0.1678  0.1711
  221MOL0     C30367   6.101   8.110   1.015  0.0194  1.1628 -0.7102
  221MOL0     O30368   6.221   8.118   1.076 -0.3637  0.5194  0.1286
  221MOL0     C30369   6.330   8.078   0.988 -0.1638 -0.2338  0.4068
  221MOL0     C30370   6.451   8.087   1.082 -1.0554  0.8966  1.2221
  221MOL0     C30371   6.453   7.969   1.184  0.7470 -0.0115  0.1016
  221MOL0     C30372   6.476   7.829   1.116 -0.3681 -0.1388  0.4425
  221MOL0     C30373   6.564   7.729   1.192 -0.2167  0.0206 -0.1453
  221MOL0     C30374   6.706   7.775   1.172  0.5253  0.6841  0.1195
  221MOL0     C30375   6.810   7.678   1.237  0.0084  0.3644  0.4055
  221MOL0     C30376   6.787   7.667   1.390  0.7713 -0.2306  1.0855
  221MOL0     N30377   6.897   7.614   1.478  0.3621  0.1312  0.2548
  221MOL0     C30378   6.893   7.496   1.548 -0.2339  0.2816  0.1170
  221MOL0     C30379   7.012   7.494   1.616 -0.4100 -0.3335  0.4724
  221MOL0     C30380   7.051   7.406   1.719  0.0945  1.0238  0.2466
  221MOL0     C30381   6.973   7.279   1.733 -0.0443  0.3712 -1.0013
  221MOL0     C30382   7.034   7.196   1.849 -0.6315 -0.3615  0.1610
  221MOL0     C30383   7.170   7.136   1.800  0.3560  1.2675  0.4343
  221MOL0     O30384   7.214   7.052   1.906 -0.8661  0.1145 -0.1695
  221MOL0     C30385   7.343   7.009   1.913  0.2160 -0.1738  0.2189
  221MOL0     C30386   7.453   7.057   1.843  0.0614  0.1899 -0.0610
  221MOL0     C30387   7.588   7.022   1.880 -0.2970  0.1276 -0.8456
  221MOL0     C30388   7.700   7.081   1.802  0.3710  0.6098  0.2749
  221MOL0     C30389   7.602   6.938   1.996 -0.2370 -0.2788  0.2455
  221MOL0     C30390   7.736   6.906   2.050 -0.4409  0.1645 -0.0763
  221MOL0     O30391   7.764   6.944   2.172  0.6443 -0.5799  0.2978
  221MOL0     C30392   7.891   6.923   2.214 -0.7989 -0.2025 -0.5844
  221MOL0     C30393   7.920   6.806   2.290  1.2342  0.5566  0.5710
  221MOL0     C30394   8.045   6.767   2.329 -0.0126 -1.1225 -0.4162
  221MOL0     C30395   8.147   6.856   2.314  0.0860  0.9416  0.4634
  221MOL0     O30396   8.271   6.828   2.361 -0.4355  0.2582  0.3692
  221MOL0     C30397   8.308   6.693   2.365 -0.0794 -0.0466 -0.9037
  221MOL0     C30398   8.459   6.704   2.368 -0.3392  0.6245 -0.2125
  221MOL0     C30399   8.526   6.565   2.405  0.6344 -1.3262  0.3803
  221MOL0     C30400   8.683   6.580   2.399 -0.7390  0.2891 -0.4236
  221MOL0     C30401   8.757   6.503   2.508  0.0893 -0.2091 -0.1249
  221MOL0     C30402   8.712   6.353   2.510 -0.8069  0.0444 -0.9364
  221MOL0     C30403   8.762   6.271   2.394 -0.0177 -0.1178 -0.3501
  221MOL0     C30404   8.912   6.256   2.402  0.5033  0.6777  0.2128
  221MOL0    Cl30405   8.975   6.145   2.279 -0.1361  0.2791 -0.3938
  221MOL0     C30406   8.129   6.967   2.232  0.3308 -0.3993  0.4067
  221MOL0     C30407   8.002   7.002   2.183  0.0170  0.5312 -0.3751
  221MOL0     O30408   7.813   6.846   1.980  0.4062  0.2507  0.8283
  221MOL0     C30409   7.487   6.874   2.048 -0.8753 -0.3011 -0.4405
  221MOL0     C30410   7.362   6.909   2.008 -0.3945  0.3380 -0.6164
  221MOL0     N30411   7.089   7.604   1.574 -0.2047 -0.0263  0.3456
  221MOL0     N30412   7.011   7.682   1.498  1.0007  0.4392  0.7830
  221MOL0     C30413   6.014   8.223   1.003 -0.4811  0.0981 -0.0319
  221MOL0     C30414   5.887   8.212   0.941  0.9216 -0.4655 -0.7346
  221MOL0     C30415   5.470   7.982   0.871  0.1314  0.0061 -0.5938
  221MOL0     C30416   5.424   8.091   0.797  0.1974 -0.1098 -0.7076
  221MOL0     C30417   5.294   8.086   0.741 -0.9129 -0.5197 -0.5452
  221MOL0     C30418   5.215   7.977   0.758  0.3059  0.2128 -0.9430
  221MOL0     O30419   5.086   7.994   0.717  0.5865  0.0116  0.5866
  221MOL0     C30420   4.995   7.881   0.730 -0.5113  0.2118  0.2268
  221MOL0     C30421   4.893   7.896   0.616  0.6981 -1.3022  0.6891
  221MOL0     C30422   4.949   7.870   0.479 -1.0016  0.1276 -0.5676
  221MOL0     C30423   4.845   7.863   0.363  0.0010 -0.3866 -0.1385
  221MOL0     C30424   4.778   7.988   0.352 -0.2104 -0.3123 -0.5731
  221MOL0     C30425   4.714   8.087   0.365 -0.2778  0.1359  0.5293
  221MOL0     C30426   5.255   7.865   0.829 -0.1243  0.0434 -0.4624
  221MOL0     C30427   5.383   7.863   0.883 -0.9859 -1.0915 -0.4399
  221MOL0     C30428   5.434   7.736   0.955 -0.2250  0.5728  0.2123
  221MOL0     H30429   5.871   7.874   0.911 -1.7041 -0.2911 -0.7014
  221MOL0     H30430   6.102   7.900   1.011 -1.3094 -2.2852 -2.1196
  221MOL0     H30431   6.339   8.151   0.908 -0.0551 -1.5175 -0.8003
  221MOL0     H30432   6.313   7.984   0.935  1.1135 -0.1935 -0.1219
  221MOL0     H30433   6.537   8.084   1.016 -2.6847 -0.9097 -0.9691
  221MOL0     H30434   6.441   8.184   1.132  0.7895  1.5328  0.4157
  221MOL0     H30435   6.527   7.990   1.262 -0.5648 -2.0636  1.9938
  221MOL0     H30436   6.370   7.979   1.255 -0.5407 -1.3447 -1.1266
  221MOL0     H30437   6.379   7.783   1.093 -0.0311  0.5550 -2.9488
  221MOL0     H30438   6.522   7.854   1.020 -3.1702  0.8552 -0.7349
  221MOL0     H30439   6.555   7.631   1.142 -0.7878  0.4822 -0.9708
  221MOL0     H30440   6.528   7.724   1.295  0.6151  2.0871  0.2868
  221MOL0     H30441   6.714   7.777   1.063 -0.6983 -1.9348 -0.1038
  221MOL0     H30442   6.719   7.869   1.225 -0.2765  1.6109 -1.2684
  221MOL0     H30443   6.904   7.730   1.218 -0.2635  0.7794  0.1909
  221MOL0     H30444   6.813   7.576   1.196  4.2267  0.6861 -0.5059
  221MOL0     H30445   6.760   7.767   1.424 -2.3250 -0.5376 -0.1146
  221MOL0     H30446   6.700   7.603   1.409  0.2723 -0.6989 -2.1018
  221MOL0     H30447   6.810   7.427   1.558  0.0794  0.2465  4.3838
  221MOL0     H30448   7.053   7.466   1.811 -0.7481  0.2819  0.7608
  221MOL0     H30449   7.151   7.369   1.695 -0.4374  0.6234 -1.4776
  221MOL0     H30450   6.867   7.296   1.755  0.6207  0.3102  3.1087
  221MOL0     H30451   6.987   7.225   1.639  1.6981 -1.1344  0.0679
  221MOL0     H30452   7.055   7.266   1.930 -0.0134  0.7827 -0.9598
  221MOL0     H30453   6.962   7.119   1.878 -1.5272 -0.6398 -2.5194
  221MOL0     H30454   7.144   7.075   1.712  0.2396 -3.1565  3.1865
  221MOL0     H30455   7.243   7.215   1.782 -0.4984  1.8900 -0.3865
  221MOL0     H30456   7.438   7.136   1.770 -3.3591 -1.3299 -1.1774
  221MOL0     H30457   7.779   7.109   1.873 -1.3062 -0.7146  2.8233
  221MOL0     H30458   7.662   7.180   1.773 -1.1301  0.3828  1.3422
  221MOL0     H30459   7.733   7.016   1.721 -1.3980 -3.4931  2.5737
  221MOL0     H30460   7.832   6.744   2.306  0.4084  0.9082 -2.0885
  221MOL0     H30461   8.066   6.670   2.373  0.6192 -0.7370  0.1573
  221MOL0     H30462   8.260   6.652   2.454 -0.9280  3.9127  0.6331
  221MOL0     H30463   8.276   6.631   2.280  0.9409 -0.8253 -0.7340
  221MOL0     H30464   8.496   6.725   2.268  0.6161 -2.1363 -0.5149
  221MOL0     H30465   8.483   6.786   2.437  2.2831 -1.6281  1.8418
  221MOL0     H30466   8.499   6.485   2.335 -0.7839 -0.0168 -0.6374
  221MOL0     H30467   8.497   6.546   2.508  1.5226  3.8395  1.8534
  221MOL0     H30468   8.715   6.684   2.407  1.6204 -0.4189  0.1185
  221MOL0     H30469   8.712   6.537   2.303  0.1671  0.2533 -0.1402
  221MOL0     H30470   8.865   6.510   2.488  0.4505 -2.6657  0.6341
  221MOL0     H30471   8.743   6.544   2.608 -0.4233 -0.6403 -0.0144
  221MOL0     H30472   8.605   6.333   2.521 -0.3082 -1.8804  1.5731
  221MOL0     H30473   8.757   6.307   2.599  0.3562  1.2859 -0.8588
  221MOL0     H30474   8.741   6.320   2.299 -1.8954 -0.2914 -0.0708
  221MOL0     H30475   8.731   6.166   2.406  2.2281 -1.3737 -4.0048
  221MOL0     H30476   8.941   6.229   2.504 -0.7633 -1.9849 -0.0544
  221MOL0     H30477   8.963   6.351   2.381 -1.0891  0.7935 -3.9388
  221MOL0     H30478   8.210   7.031   2.198 -2.4612  3.2250 -0.1334
  221MOL0     H30479   7.993   7.087   2.116  3.5337  1.6768  0.4116
  221MOL0     H30480   7.494   6.800   2.128  1.5043  0.1246 -0.1693
  221MOL0     H30481   7.274   6.864   2.055 -2.5267 -0.7936 -5.1417
  221MOL0     H30482   6.045   8.319   1.042 -2.6198  0.5937  0.5854
  221MOL0     H30483   5.824   8.299   0.925  1.2314 -0.3240 -1.1815
  221MOL0     H30484   5.476   8.185   0.783  0.4094 -0.0139  0.6181
  221MOL0     H30485   5.258   8.174   0.690 -0.1441  1.0794  1.5414
  221MOL0     H30486   5.045   7.785   0.718  1.1126  1.2217 -1.5690
  221MOL0     H30487   4.943   7.887   0.826 -3.2129 -0.7191 -1.0736
  221MOL0     H30488   4.859   8.000   0.616  0.5374 -1.3296 -1.0617
  221MOL0     H30489   4.814   7.821   0.626  0.2075 -0.9149 -0.2686
  221MOL0     H30490   5.013   7.956   0.457  0.3762 -0.9294 -0.8164
  221MOL0     H30491   5.008   7.778   0.488  1.2810  1.6930  2.3903
  221MOL0     H30492   4.763   7.794   0.385 -0.2856  1.0220  4.3903
  221MOL0     H30493   4.895   7.837   0.270 -0.9626 -1.0414 -0.4892
  221MOL0     H30494   4.644   8.168   0.368 -0.2097  0.2658 -0.7728
  221MOL0     H30495   5.183   7.790   0.856 -0.1750  0.0334 -0.6208
  221MOL0     H30496   5.402   7.644   0.904 -2.0882 -0.7272  3.4078
  221MOL0     H30497   5.542   7.730   0.945 -0.1653 -1.1733  1.3505
  221MOL0     H30498   5.409   7.739   1.061  2.1615 -0.2716  0.8448
  222MOL0     O30499   2.165   1.051   0.560  0.0220  0.9542  0.3302
  222MOL0     C30500   2.118   1.099   0.457  0.1833  0.7350 -0.7347
  222MOL0     O30501   2.185   1.115   0.338 -0.0938 -0.4671 -0.3092
  222MOL0     C30502   2.293   1.041   0.310 -0.9744 -0.7282 -0.7856
  222MOL0     C30503   2.321   0.905   0.352 -0.0315 -0.3345 -0.2601
  222MOL0     C30504   2.426   0.832   0.294  0.2717  1.1611  0.1039
  222MOL0     C30505   2.501   0.887   0.193 -0.1741  0.0932  0.3016
  222MOL0     O30506   2.620   0.822   0.142  0.4621 -0.3451 -0.3848
  222MOL0     C30507   2.658   0.689   0.189 -0.2423 -0.7961 -0.7941
  222MOL0     C30508   2.787   0.641   0.102 -0.6189 -0.1478 -0.0851
  222MOL0     C30509   2.761   0.651  -0.043 -0.0275 -0.1796  0.3505
  222MOL0     C30510   2.884   0.603  -0.131 -0.0952 -1.0131 -0.5097
  222MOL0     C30511   2.936   0.460  -0.108 -0.0989 -0.5475 -0.3452
  222MOL0     C30512   3.084   0.444  -0.158 -0.4924 -0.8431 -0.0869
  222MOL0     C30513   3.108   0.458  -0.309 -0.9267 -0.4017 -0.3992
  222MOL0     C30514   3.070   0.329  -0.388 -0.0997 -0.7861  0.3057
  222MOL0     N30515   3.147   0.214  -0.351 -1.0002 -0.1507  0.0961
  222MOL0     C30516   3.286   0.211  -0.329  0.0993 -0.0926  0.0594
  222MOL0     C30517   3.320   0.082  -0.305 -0.1475 -1.2444 -0.4816
  222MOL0     C30518   3.457   0.053  -0.260  1.5399  0.2371  0.4992
  222MOL0     C30519   3.466   0.098  -0.115 -0.1174 -0.2365 -0.3402
  222MOL0     C30520   3.361   0.055  -0.009  0.1112  0.5651  0.9608
  222MOL0     C30521   3.354  -0.102  -0.006  0.5206 -0.1899 -0.2119
  222MOL0     O30522   3.278  -0.160   0.104 -0.2886  0.5673 -0.1384
  222MOL0     C30523   3.177  -0.246   0.065 -0.8372  0.4159  0.5333
  222MOL0     C30524   3.053  -0.231   0.133 -0.1977 -0.3494  0.3757
  222MOL0     C30525   2.949  -0.319   0.094 -1.1238  0.2755 -0.7943
  222MOL0     C30526   2.817  -0.330   0.177  0.1612  1.2460 -0.1710
  222MOL0     C30527   2.978  -0.428  -0.006  0.2627  0.2423  0.3144
  222MOL0     C30528   2.872  -0.523  -0.047  0.3564 -0.6392 -0.0214
  222MOL0     O30529   2.906  -0.654  -0.015  0.7976 -0.9308 -0.3747
  222MOL0     C30530   2.834  -0.763  -0.070  0.2801 -0.3549 -1.0572
  222MOL0     C30531   2.756  -0.762  -0.186 -0.7055 -0.9953 -0.0916
  222MOL0     C30532   2.673  -0.873  -0.211 -0.6261  0.5291  0.5055
  222MOL0     C30533   2.673  -0.989  -0.135  0.0054 -0.3291 -1.0339
  222MOL0     O30534   2.598  -1.102  -0.163 -0.4858 -0.1008 -0.7119
  222MOL0     C30535   2.500  -1.092  -0.265  0.6676  0.8969  0.0319
  222MOL0     C30536   2.409  -1.218  -0.267  0.3677  0.2613 -0.0707
  222MOL0     C30537   2.271  -1.181  -0.323  1.5197  0.1822 -0.0115
  222MOL0     C30538   2.184  -1.303  -0.328 -0.2896 -0.1645 -0.4473
  222MOL0     C30539   2.040  -1.281  -0.367 -0.0686  0.0449  0.2197
  222MOL0     C30540   1.964  -1.404  -0.343 -0.7002  0.7256 -0.3844
  222MOL0     C30541   1.995  -1.513  -0.449 -0.3497 -0.4006 -0.4938
  222MOL0     C30542   1.878  -1.604  -0.463 -0.4276  0.4820 -0.1098
  222MOL0    Cl30543   1.749  -1.531  -0.559  0.0927  0.3412 -0.1332
  222MOL0     C30544   2.757  -0.987  -0.025  0.3800  0.7455 -0.2394
  222MOL0     C30545   2.825  -0.874   0.015  0.4693 -0.5433 -0.1653
  222MOL0     O30546   2.755  -0.486  -0.094  0.0133 -0.4722 -0.0061
  222MOL0     C30547   3.102  -0.432  -0.068 -1.1911  0.7224 -1.3418
  222MOL0     C30548   3.205  -0.344  -0.029  0.9720 -0.0038  0.1125
  222MOL0     N30549   3.211   0.003  -0.313 -0.5454 -0.2418 -0.2893
  222MOL0     N30550   3.106   0.078  -0.353 -0.2748  0.2688  0.1957
  222MOL0     C30551   2.469   1.012   0.146 -0.6204  0.1680  0.3378
  222MOL0     C30552   2.374   1.096   0.207 -1.0112 -0.1335 -0.7743
  222MOL0     C30553   1.970   1.144   0.461 -0.7848 -1.0293 -0.4312
  222MOL0     C30554   1.905   1.123   0.585  0.1904 -0.3810 -0.4734
  222MOL0     C30555   1.779   1.173   0.608  0.3338  0.5894  0.5052
  222MOL0     C30556   1.707   1.219   0.501  0.2917  0.2466  0.5541
  222MOL0     O30557   1.570   1.250   0.502 -0.0653  0.1433 -0.2785
  222MOL0     C30558   1.493   1.176   0.594  0.4168 -0.0288 -0.1489
  222MOL0     C30559   1.346   1.212   0.562  0.7810  0.6143  0.1397
  222MOL0     C30560   1.247   1.117   0.636  0.6480  0.9080  0.0517
  222MOL0     C30561   1.282   1.105   0.786 -0.4433 -0.4085 -0.1432
  222MOL0     C30562   1.280   1.238   0.855 -0.5968  0.2951  0.5373
  222MOL0     C30563   1.269   1.347   0.911  0.0169 -0.4753  0.1153
  222MOL0     C30564   1.767   1.238   0.375 -0.0334 -1.0007  0.1741
  222MOL0     C30565   1.897   1.196   0.355  0.4972  0.0507  0.9675
  222MOL0     C30566   1.958   1.216   0.224  0.6987 -0.0983  1.3546
  222MOL0     H30567   2.259   0.851   0.423  1.3051 -0.9450  0.4896
  222MOL0     H30568   2.443   0.729   0.324  0.4286  1.4712  1.1069
  222MOL0     H30569   2.574   0.621   0.171 -0.9463 -0.7534  1.8150
  222MOL0     H30570   2.678   0.694   0.297  0.5441  1.3209 -0.9819
  222MOL0     H30571   2.868   0.711   0.123  0.3067 -1.6832  1.7939
  222MOL0     H30572   2.823   0.541   0.127 -0.1311  0.4970  1.9633
  222MOL0     H30573   2.677   0.587  -0.073 -0.8836  1.5055 -1.0396
  222MOL0     H30574   2.742   0.755  -0.071  2.1118 -0.5985 -3.2427
  222MOL0     H30575   2.860   0.621  -0.236  0.0682  1.1791 -0.2260
  222MOL0     H30576   2.965   0.670  -0.100 -1.9216  1.7684 -1.4532
  222MOL0     H30577   2.883   0.381  -0.162 -0.9047  0.5306 -1.1745
  222MOL0     H30578   2.937   0.434  -0.002  3.0399  3.3193  0.8055
  222MOL0     H30579   3.145   0.516  -0.103  0.2472  0.1749 -2.1249
  222MOL0     H30580   3.119   0.343  -0.134  0.3354 -0.3485  0.8395
  222MOL0     H30581   3.207   0.502  -0.327 -1.2779  0.7914  0.4626
  222MOL0     H30582   3.039   0.536  -0.343  0.9507  2.4615  1.7904
  222MOL0     H30583   2.962   0.316  -0.372 -0.4012  0.6721 -0.3335
  222MOL0     H30584   3.075   0.361  -0.492  0.5509  2.9501  1.3317
  222MOL0     H30585   3.360   0.290  -0.336  1.1290 -1.0867 -0.5981
  222MOL0     H30586   3.536   0.090  -0.326 -0.1874  3.0053 -0.2159
  222MOL0     H30587   3.476  -0.055  -0.259  2.9801  0.4637 -0.1190
  222MOL0     H30588   3.566   0.075  -0.079 -0.6894 -0.2851  1.2794
  222MOL0     H30589   3.471   0.207  -0.117 -0.6611 -0.2117 -1.7501
  222MOL0     H30590   3.398   0.090   0.087 -0.6715  0.4702  1.3082
  222MOL0     H30591   3.261   0.096  -0.027  0.1942  0.5349  0.4094
  222MOL0     H30592   3.311  -0.123  -0.105 -1.6247  3.6498 -0.2944
  222MOL0     H30593   3.458  -0.136  -0.003  0.8968  0.9983  2.1758
  222MOL0     H30594   3.047  -0.166   0.220 -2.0058  1.4157 -0.9783
  222MOL0     H30595   2.814  -0.279   0.273 -0.8695  1.0132 -0.0688
  222MOL0     H30596   2.790  -0.435   0.194  1.2661  1.0635  0.5284
  222MOL0     H30597   2.733  -0.278   0.131 -1.4507 -0.7131  0.4221
  222MOL0     H30598   2.747  -0.677  -0.253  1.4882  2.2518  3.3174
  222MOL0     H30599   2.607  -0.863  -0.297 -1.1323  1.8853  1.0197
  222MOL0     H30600   2.439  -1.002  -0.252  1.2593  1.1038  1.6352
  222MOL0     H30601   2.552  -1.070  -0.359  0.8026  0.7756  0.0780
  222MOL0     H30602   2.453  -1.296  -0.330 -3.0310 -0.1925 -2.1571
  222MOL0     H30603   2.399  -1.253  -0.164 -0.4764  2.3766  0.6105
  222MOL0     H30604   2.281  -1.156  -0.429 -2.3047 -3.7550 -1.6160
  222MOL0     H30605   2.217  -1.106  -0.265 -0.2381 -1.7025  0.8786
  222MOL0     H30606   2.189  -1.340  -0.225 -1.5511 -1.2365 -0.7498
  222MOL0     H30607   2.231  -1.382  -0.388 -1.5259 -0.4655 -1.0441
  222MOL0     H30608   1.994  -1.201  -0.309 -0.4459 -0.3254  0.4344
  222MOL0     H30609   2.036  -1.246  -0.471  0.3618 -0.5865 -0.0200
  222MOL0     H30610   1.857  -1.380  -0.349 -1.1829 -1.3285 -0.6388
  222MOL0     H30611   1.978  -1.446  -0.243 -3.5567  0.5171  0.0134
  222MOL0     H30612   2.078  -1.578  -0.419 -2.7256 -2.2045  2.7867
  222MOL0     H30613   2.004  -1.472  -0.550 -1.5519 -1.0428 -0.8741
  222MOL0     H30614   1.834  -1.611  -0.363 -1.4589  1.5991 -0.4533
  222MOL0     H30615   1.911  -1.698  -0.507  4.1024  0.3647  2.8912
  222MOL0     H30616   2.769  -1.083   0.025  1.3908  0.8054 -0.3455
  222MOL0     H30617   2.884  -0.882   0.106  0.3460 -0.2373 -0.0562
  222MOL0     H30618   3.121  -0.516  -0.134  1.4006 -0.5228  0.7729
  222MOL0     H30619   3.309  -0.357  -0.056  2.3633  4.8926  2.1311
  222MOL0     H30620   2.542   1.048   0.075 -0.7083  0.0850  0.2039
  222MOL0     H30621   2.355   1.200   0.183  3.5336  1.1718  0.2502
  222MOL0     H30622   1.948   1.080   0.675  0.5480 -0.5529 -0.7229
  222MOL0     H30623   1.740   1.151   0.707  1.4443 -0.5582  0.7221
  222MOL0     H30624   1.513   1.071   0.569 -1.0141  0.3362 -3.3041
  222MOL0     H30625   1.523   1.192   0.698  0.9158 -0.6988 -0.1812
  222MOL0     H30626   1.336   1.205   0.454 -2.8414 -0.8045  0.4377
  222MOL0     H30627   1.324   1.314   0.592  2.6410  1.5648 -1.5130
  222MOL0     H30628   1.150   1.158   0.607  0.1310 -1.0882 -1.1813
  222MOL0     H30629   1.260   1.018   0.591 -1.9425  0.0582  0.9892
  222MOL0     H30630   1.381   1.065   0.804  1.1386  2.5966 -1.3901
  222MOL0     H30631   1.204   1.047   0.836 -1.9726  1.7021  0.0753
  222MOL0     H30632   1.243   1.441   0.954 -2.4352 -0.4562 -1.2357
  222MOL0     H30633   1.714   1.295   0.300  1.2198  0.1928  0.1523
  222MOL0     H30634   1.883   1.240   0.148  1.5116  0.6687  0.7735
  222MOL0     H30635   2.042   1.285   0.233  2.9565 -2.4896  0.0265
  222MOL0     H30636   1.991   1.117   0.192 -0.0802 -0.9682  3.0919
  223MOL0     O30637   6.695   2.596   0.967 -0.1470 -0.9068 -0.4636
  223MOL0     C30638   6.601   2.579   1.043  0.3947  0.3002  0.5285
  223MOL0     O30639   6.606   2.504   1.154  0.2179  0.0065 -0.0601
  223MOL0     C30640   6.728   2.486   1.216 -1.4353  0.5774 -0.0806
  223MOL0     C30641   6.820   2.583   1.254 -0.1060  0.9985 -0.5507
  223MOL0     C30642   6.947   2.546   1.306  0.0153 -0.2368  0.4613
  223MOL0     C30643   6.987   2.407   1.325  0.8694 -0.1123 -1.3217
  223MOL0     O30644   7.113   2.368   1.374 -0.0677 -0.2647  0.6759
  223MOL0     C30645   7.210   2.474   1.384  0.2485 -0.2720  0.1729
  223MOL0     C30646   7.342   2.411   1.435 -0.7212 -0.0116 -0.1543
  223MOL0     C30647   7.450   2.374   1.332 -0.8107 -0.3877  0.5275
  223MOL0     C30648   7.543   2.259   1.364  1.0290  0.2993 -1.0375
  223MOL0     C30649   7.643   2.302   1.466 -0.8816 -0.7221 -0.2763
  223MOL0     C30650   7.714   2.181   1.520 -0.2817 -1.1873 -0.3219
  223MOL0     C30651   7.829   2.164   1.428 -1.0979 -0.0719 -0.1682
  223MOL0     C30652   7.913   2.052   1.495 -0.1147  0.0821 -0.3721
  223MOL0     N30653   8.024   2.011   1.408  0.1812 -0.3745 -0.1953
  223MOL0     C30654   8.152   2.010   1.464  1.4843 -0.2790 -0.5094
  223MOL0     C30655   8.227   1.969   1.356  0.2631  0.2853  0.0739
  223MOL0     C30656   8.383   1.970   1.378  0.6294  0.3792  0.3850
  223MOL0     C30657   8.459   2.088   1.318  0.1530 -0.6937  0.6402
  223MOL0     C30658   8.600   2.091   1.371  0.1759  0.2004 -0.8064
  223MOL0     C30659   8.610   2.121   1.530 -0.7865  0.0417  1.1828
  223MOL0     O30660   8.554   2.249   1.548 -0.0549 -0.8285 -0.0559
  223MOL0     C30661   8.633   2.362   1.543  0.4797  0.1479  0.0117
  223MOL0     C30662   8.586   2.482   1.601  0.9196 -0.1672  0.2235
  223MOL0     C30663   8.668   2.586   1.624 -0.0792 -0.1780  0.1471
  223MOL0     C30664   8.613   2.694   1.701 -0.2760 -1.1225 -0.2667
  223MOL0     C30665   8.798   2.598   1.571  1.4538  0.6674 -0.0945
  223MOL0     C30666   8.895   2.707   1.578 -0.6684  0.3790 -0.0691
  223MOL0     O30667   9.027   2.676   1.555 -0.0148  0.0238  0.1257
  223MOL0     C30668   9.125   2.764   1.587 -0.1877 -0.5030  0.5155
  223MOL0     C30669   9.210   2.730   1.690 -0.1813 -0.0987  0.7863
  223MOL0     C30670   9.313   2.812   1.729 -0.2985  0.4387  0.1001
  223MOL0     C30671   9.337   2.939   1.660  0.2872  0.9064  0.3476
  223MOL0     O30672   9.432   3.034   1.690 -1.0645 -0.0131  1.3901
  223MOL0     C30673   9.516   3.008   1.803 -0.8494 -0.3630  0.4541
  223MOL0     C30674   9.629   3.107   1.808 -0.4368 -0.3512 -0.3419
  223MOL0     C30675   9.574   3.250   1.827 -0.3825  0.6165 -0.4264
  223MOL0     C30676   9.685   3.340   1.884  0.0674 -0.1413  1.1266
  223MOL0     C30677   9.705   3.326   2.037 -0.8823  0.0546  0.6810
  223MOL0     C30678   9.842   3.405   2.065  0.3537  0.0702  0.3979
  223MOL0     C30679   9.899   3.378   2.202 -0.7570  0.6854  0.5278
  223MOL0     C30680  10.035   3.437   2.231 -0.0176  0.3603 -1.7244
  223MOL0    Cl30681  10.172   3.317   2.223 -0.1327 -0.4458 -0.1070
  223MOL0     C30682   9.249   2.962   1.557  0.5848  0.2743  0.4131
  223MOL0     C30683   9.153   2.872   1.509 -1.0785  0.1408 -0.2631
  223MOL0     O30684   8.854   2.816   1.622  0.0170  0.3974  0.1465
  223MOL0     C30685   8.836   2.474   1.502 -0.0933 -0.2434 -0.5039
  223MOL0     C30686   8.756   2.366   1.490  0.3320 -0.1204  0.6572
  223MOL0     N30687   8.156   1.963   1.240 -0.3292  0.8783 -0.2099
  223MOL0     N30688   8.030   1.977   1.270  0.4755  0.3034 -0.4558
  223MOL0     C30689   6.896   2.307   1.278  0.8701 -0.4964 -0.4876
  223MOL0     C30690   6.773   2.352   1.229  0.2573 -0.2904 -0.6866
  223MOL0     C30691   6.456   2.616   1.002  0.5471  0.9823  0.7366
  223MOL0     C30692   6.345   2.549   1.055  0.2639 -0.2350 -0.0645
  223MOL0     C30693   6.219   2.583   1.012 -0.1289  0.0108  0.1293
  223MOL0     C30694   6.186   2.685   0.913 -0.0968 -0.5914 -0.1723
  223MOL0     O30695   6.066   2.740   0.868 -0.5274  0.5471  0.0104
  223MOL0     C30696   5.953   2.689   0.934 -0.3184 -1.3660  0.0529
  223MOL0     C30697   5.836   2.757   0.861  0.9134 -0.6788  0.0735
  223MOL0     C30698   5.701   2.698   0.909 -0.1370  0.2172 -0.5416
  223MOL0     C30699   5.583   2.740   0.815 -0.5474  0.3102 -0.1531
  223MOL0     C30700   5.460   2.710   0.888 -0.1834 -0.1699 -0.5727
  223MOL0     C30701   5.367   2.665   0.957  0.2752 -0.2662  0.0772
  223MOL0     C30702   6.300   2.744   0.855 -0.3377  0.2931  0.1487
  223MOL0     C30703   6.433   2.714   0.902 -0.2097 -0.2690 -0.6639
  223MOL0     C30704   6.545   2.804   0.841  0.0471 -0.7595 -0.1300
  223MOL0     H30705   6.793   2.686   1.233 -0.4453  0.9338 -0.4339
  223MOL0     H30706   7.011   2.626   1.342 -0.7772  1.2660 -1.2940
  223MOL0     H30707   7.185   2.555   1.454  1.6703 -0.2891  0.7179
  223MOL0     H30708   7.248   2.520   1.293 -1.1835  2.4499  0.8486
  223MOL0     H30709   7.380   2.490   1.500 -1.6089  1.0983 -0.9279
  223MOL0     H30710   7.324   2.321   1.495 -1.9325 -0.3259 -0.9400
  223MOL0     H30711   7.395   2.331   1.247  0.8227 -1.5814  0.0254
  223MOL0     H30712   7.505   2.461   1.297 -0.1759 -0.4456  1.3759
  223MOL0     H30713   7.483   2.176   1.403 -1.8399  3.2177  1.3847
  223MOL0     H30714   7.585   2.220   1.271  2.5304 -1.1807  0.2058
  223MOL0     H30715   7.589   2.346   1.550 -0.0565  0.3939 -0.3112
  223MOL0     H30716   7.714   2.371   1.418  1.3301 -2.2928  0.5434
  223MOL0     H30717   7.756   2.185   1.621  0.6418 -2.5159 -0.6229
  223MOL0     H30718   7.657   2.087   1.519  1.3032 -2.1830 -0.5397
  223MOL0     H30719   7.890   2.254   1.418  0.6079 -1.2459 -0.8574
  223MOL0     H30720   7.798   2.116   1.335  0.3445 -2.2622  0.3948
  223MOL0     H30721   7.959   2.075   1.592 -0.8396 -2.7044  0.7304
  223MOL0     H30722   7.848   1.968   1.521  1.7682 -0.5651  2.9516
  223MOL0     H30723   8.187   2.024   1.566 -1.7342 -0.1030  0.6943
  223MOL0     H30724   8.416   1.873   1.341  0.9101  0.9012 -0.7747
  223MOL0     H30725   8.399   1.970   1.486  1.2557  0.8951  0.2991
  223MOL0     H30726   8.446   2.080   1.210 -0.3765  0.0908  0.6359
  223MOL0     H30727   8.410   2.184   1.336  1.3667  0.4040 -1.5675
  223MOL0     H30728   8.652   1.998   1.346 -1.3011 -0.8634 -0.0853
  223MOL0     H30729   8.655   2.159   1.305  0.4945 -0.8176 -1.6116
  223MOL0     H30730   8.570   2.034   1.583 -2.1206 -0.1772 -0.1229
  223MOL0     H30731   8.713   2.124   1.566 -0.1392  7.2698  0.0934
  223MOL0     H30732   8.485   2.481   1.641  0.7263 -1.8156 -0.2078
  223MOL0     H30733   8.608   2.779   1.632 -1.2694 -0.5061  0.5401
  223MOL0     H30734   8.668   2.716   1.792 -1.9686 -0.4936  0.6417
  223MOL0     H30735   8.509   2.677   1.730 -1.2952  1.6069 -1.9056
  223MOL0     H30736   9.188   2.639   1.746  0.9233 -2.2651 -2.0343
  223MOL0     H30737   9.366   2.771   1.814 -0.5471 -2.6177 -1.0705
  223MOL0     H30738   9.454   3.014   1.892 -2.9278 -2.8660 -0.6808
  223MOL0     H30739   9.559   2.908   1.808 -1.7069 -0.6993  1.3010
  223MOL0     H30740   9.690   3.070   1.891  0.2203 -2.0041 -1.5041
  223MOL0     H30741   9.680   3.095   1.711 -0.2245 -1.8727 -0.0694
  223MOL0     H30742   9.490   3.251   1.897 -0.9838  0.0841 -1.1238
  223MOL0     H30743   9.552   3.293   1.729  0.3867 -0.7300 -1.2260
  223MOL0     H30744   9.654   3.442   1.856 -2.3337 -1.4348 -1.4538
  223MOL0     H30745   9.776   3.315   1.828 -0.6864 -0.2108 -0.1080
  223MOL0     H30746   9.626   3.357   2.106  1.1909 -1.3312  3.9407
  223MOL0     H30747   9.716   3.220   2.063  1.2143 -0.2966 -1.3686
  223MOL0     H30748   9.821   3.513   2.061 -0.5588 -0.0668  1.1176
  223MOL0     H30749   9.907   3.370   1.984 -0.5797 -0.7506 -0.0274
  223MOL0     H30750   9.898   3.269   2.204 -1.0618  0.5828 -2.2937
  223MOL0     H30751   9.827   3.417   2.276 -1.9455  0.6284 -0.5685
  223MOL0     H30752  10.040   3.475   2.333  0.8421  1.3309 -2.1010
  223MOL0     H30753  10.060   3.525   2.170  3.9165  2.1617  1.9819
  223MOL0     H30754   9.260   3.054   1.500 -1.1208  1.5436  2.0026
  223MOL0     H30755   9.098   2.881   1.416  0.2915  1.6213 -0.9719
  223MOL0     H30756   8.935   2.471   1.458  0.3101 -0.1079  0.3829
  223MOL0     H30757   8.798   2.284   1.434 -0.8827  0.3522 -1.0077
  223MOL0     H30758   6.915   2.200   1.286  1.0241 -0.4839 -0.6735
  223MOL0     H30759   6.714   2.264   1.207  0.8178 -1.1873  1.1846
  223MOL0     H30760   6.351   2.475   1.134  1.3095 -2.0730 -1.7860
  223MOL0     H30761   6.140   2.538   1.072 -0.9061  5.3316  3.8559
  223MOL0     H30762   5.943   2.580   0.934 -2.4981 -1.2304  0.9819
  223MOL0     H30763   5.946   2.724   1.037 -1.2785  2.0782 -1.0608
  223MOL0     H30764   5.837   2.740   0.753 -0.6127  1.6059 -0.3708
  223MOL0     H30765   5.835   2.866   0.869 -0.1929 -0.7653  1.7556
  223MOL0     H30766   5.705   2.589   0.905 -1.8764 -0.0471  2.1304
  223MOL0     H30767   5.678   2.729   1.011 -0.7588 -3.8657  0.7469
  223MOL0     H30768   5.584   2.691   0.718 -0.1508 -1.4886  0.7208
  223MOL0     H30769   5.568   2.848   0.806 -1.3770  0.0954 -1.6626
  223MOL0     H30770   5.283   2.639   1.018 -0.0034 -2.7896 -1.2645
  223MOL0     H30771   6.294   2.827   0.784  2.2287  1.5027  1.2176
  223MOL0     H30772   6.503   2.904   0.825  0.3165 -0.4125  1.1590
  223MOL0     H30773   6.635   2.817   0.903 -0.0231 -2.4736  0.3680
  223MOL0     H30774   6.580   2.756   0.750  0.7418 -2.0764  0.7949
  224MOL0     O30775   2.452   2.607   9.381  0.1667 -0.1901 -0.2645
  224MOL0     C30776   2.539   2.687   9.356 -0.3983 -0.2242 -0.5422
  224MOL0     O30777   2.594   2.707   9.230  0.2457 -0.4347 -0.3628
  224MOL0     C30778   2.547   2.624   9.132  0.1161 -0.2908  0.0187
  224MOL0     C30779   2.578   2.494   9.125  0.1580  0.9797  0.2960
  224MOL0     C30780   2.521   2.414   9.023  1.1321 -0.0216  0.4327
  224MOL0     C30781   2.427   2.480   8.935  0.1249  0.0394  0.6139
  224MOL0     O30782   2.356   2.423   8.829 -0.4697 -0.4316  0.2071
  224MOL0     C30783   2.417   2.309   8.772 -0.7821 -0.5546 -0.2633
  224MOL0     C30784   2.313   2.262   8.674 -0.2486  1.4478  0.8497
  224MOL0     C30785   2.375   2.170   8.575 -0.5355  0.2397  0.0391
  224MOL0     C30786   2.284   2.156   8.453  0.2691  0.4563  0.8757
  224MOL0     C30787   2.314   2.045   8.351 -0.6355 -0.4788  1.0254
  224MOL0     C30788   2.270   1.914   8.402  0.8444 -0.3623 -0.0088
  224MOL0     C30789   2.352   1.798   8.353 -0.5998  0.3124  0.3341
  224MOL0     C30790   2.380   1.798   8.197 -0.6523  0.8896  0.1141
  224MOL0     N30791   2.459   1.671   8.164 -0.6087  0.5090 -0.5162
  224MOL0     C30792   2.423   1.581   8.062 -0.1740  0.1439 -0.1658
  224MOL0     C30793   2.524   1.489   8.073  0.4663  0.0621  0.8217
  224MOL0     C30794   2.541   1.371   7.981 -0.3530  0.9440  0.0244
  224MOL0     C30795   2.613   1.411   7.856  0.4174 -0.6223 -0.0355
  224MOL0     C30796   2.639   1.303   7.747 -0.3168 -0.4677 -0.3459
  224MOL0     C30797   2.765   1.224   7.771 -0.5280  0.4595  0.3357
  224MOL0     O30798   2.769   1.097   7.686  0.2208 -0.4371 -0.2262
  224MOL0     C30799   2.891   1.032   7.671 -0.0934  0.8637  0.5685
  224MOL0     C30800   2.936   0.988   7.544 -0.2858  0.6617  0.3600
  224MOL0     C30801   3.055   0.926   7.522  0.0452 -0.5595 -0.6466
  224MOL0     C30802   3.077   0.904   7.370 -0.3469  0.9061 -0.4180
  224MOL0     C30803   3.135   0.901   7.627  0.2145 -0.5681  0.5349
  224MOL0     C30804   3.251   0.818   7.625 -0.2217 -0.6084  0.7138
  224MOL0     O30805   3.252   0.712   7.552  0.1943  0.3995 -0.2322
  224MOL0     C30806   3.375   0.663   7.533 -0.1234  0.0096  0.4418
  224MOL0     C30807   3.452   0.723   7.434 -0.1974  0.4500  0.0234
  224MOL0     C30808   3.571   0.670   7.380  0.1542 -0.4431 -0.2169
  224MOL0     C30809   3.613   0.547   7.431  0.5551 -0.5359  0.3228
  224MOL0     O30810   3.726   0.501   7.370  0.0626  0.2639  0.2219
  224MOL0     C30811   3.832   0.541   7.457 -0.8231  0.1330 -0.5693
  224MOL0     C30812   3.955   0.453   7.406  0.7537 -0.3476  0.0258
  224MOL0     C30813   4.075   0.482   7.498 -0.3789  0.0280  0.4031
  224MOL0     C30814   4.209   0.426   7.439 -0.0241 -0.7452 -0.7926
  224MOL0     C30815   4.329   0.457   7.534  1.0340 -0.3753 -0.2250
  224MOL0     C30816   4.321   0.411   7.672  0.2825  0.8019  0.1534
  224MOL0     C30817   4.459   0.434   7.731 -0.4563 -0.6660 -0.8095
  224MOL0     C30818   4.458   0.385   7.873  0.5463  0.7778 -0.4511
  224MOL0    Cl30819   4.624   0.349   7.940  0.1488  0.3858  0.1826
  224MOL0     C30820   3.536   0.485   7.526 -1.2264 -0.1115  0.4274
  224MOL0     C30821   3.418   0.539   7.576  0.1645  1.0991  0.2912
  224MOL0     O30822   3.342   0.860   7.696  0.3343 -0.1418 -0.5158
  224MOL0     C30823   3.099   0.946   7.754  0.0185 -0.4889 -0.1534
  224MOL0     C30824   2.976   1.010   7.774  0.3019  1.3038 -1.0560
  224MOL0     N30825   2.621   1.533   8.169  0.6346  1.0817 -0.8922
  224MOL0     N30826   2.580   1.645   8.222 -0.0112  0.0977 -0.0299
  224MOL0     C30827   2.397   2.616   8.949 -0.5475  0.6823  0.2103
  224MOL0     C30828   2.455   2.679   9.052  0.3800 -0.3657  0.3840
  224MOL0     C30829   2.605   2.756   9.464  0.0377 -0.2669  0.4528
  224MOL0     C30830   2.700   2.854   9.426  0.8547 -0.5613  0.0256
  224MOL0     C30831   2.771   2.921   9.521 -0.3398 -0.5609 -1.5218
  224MOL0     C30832   2.758   2.893   9.661  0.1282  0.7888 -0.3367
  224MOL0     O30833   2.838   2.971   9.742  0.5577  0.0990 -0.1399
  224MOL0     C30834   2.837   2.940   9.883  0.2444 -0.8361  0.4209
  224MOL0     C30835   2.903   2.805   9.898  0.2186  0.6588 -0.2760
  224MOL0     C30836   2.888   2.747  10.042 -0.2971 -0.3890  0.3095
  224MOL0     C30837   2.948   2.824  10.158 -0.2884  0.3219 -0.4812
  224MOL0     C30838   3.092   2.835  10.165 -0.1967 -0.3589 -0.6629
  224MOL0     C30839   3.214   2.857  10.163 -0.3237  0.9488  1.0983
  224MOL0     C30840   2.650   2.800   9.698  0.3292  0.0568 -0.4782
  224MOL0     C30841   2.584   2.722   9.603  0.6996 -1.0831 -0.2733
  224MOL0     C30842   2.490   2.617   9.653  0.4601  0.5805 -0.3566
  224MOL0     H30843   2.635   2.451   9.207 -1.4508  0.2062  1.0335
  224MOL0     H30844   2.530   2.306   9.033 -0.7815 -0.1930  0.5318
  224MOL0     H30845   2.436   2.229   8.845 -2.2005 -0.2616  0.4580
  224MOL0     H30846   2.511   2.340   8.725 -1.0786  0.1671 -0.3884
  224MOL0     H30847   2.247   2.190   8.724  0.7871 -2.1203 -2.4594
  224MOL0     H30848   2.266   2.352   8.634  2.3749  1.4514 -2.6965
  224MOL0     H30849   2.470   2.211   8.540 -0.1844  0.0491  0.7573
  224MOL0     H30850   2.395   2.068   8.611 -0.4704 -0.5841 -2.1390
  224MOL0     H30851   2.180   2.139   8.484 -0.1780  1.1369 -0.1941
  224MOL0     H30852   2.281   2.258   8.415  1.9804  0.5391  0.9191
  224MOL0     H30853   2.422   2.042   8.333 -0.7359  0.1686  0.2879
  224MOL0     H30854   2.268   2.059   8.253 -0.1445 -2.4597  0.4736
  224MOL0     H30855   2.270   1.927   8.511  0.6449  1.9168 -0.2162
  224MOL0     H30856   2.166   1.895   8.372  0.3705  1.3576  0.4001
  224MOL0     H30857   2.302   1.707   8.389  0.0447  0.9393  3.0549
  224MOL0     H30858   2.449   1.789   8.403  0.0237 -1.4602 -1.0935
  224MOL0     H30859   2.285   1.792   8.143  0.2527 -2.4421 -1.3901
  224MOL0     H30860   2.433   1.885   8.158 -2.9290  1.0280 -3.0941
  224MOL0     H30861   2.347   1.588   7.986  0.2255 -0.5209 -0.6348
  224MOL0     H30862   2.443   1.328   7.957 -0.2180  0.9539 -0.5636
  224MOL0     H30863   2.599   1.291   8.029 -1.7240  0.4095  0.8376
  224MOL0     H30864   2.553   1.495   7.818  3.3441  3.3936  3.2632
  224MOL0     H30865   2.707   1.453   7.891  0.3519 -0.3001 -0.2377
  224MOL0     H30866   2.559   1.229   7.741 -0.3638 -0.3692 -1.1545
  224MOL0     H30867   2.626   1.337   7.644 -2.1505 -4.3479 -1.5970
  224MOL0     H30868   2.852   1.284   7.743 -0.5378 -0.4114 -1.7188
  224MOL0     H30869   2.772   1.193   7.876 -1.8035 -3.7938 -0.6585
  224MOL0     H30870   2.875   1.023   7.461 -1.4024 -1.8018  0.0377
  224MOL0     H30871   3.181   0.876   7.353 -0.0719  1.0601  0.9192
  224MOL0     H30872   3.052   0.989   7.305  1.7652  1.1007 -1.0393
  224MOL0     H30873   3.016   0.817   7.345 -2.1203  1.9196  0.2311
  224MOL0     H30874   3.398   0.806   7.388  0.3594 -0.2516 -2.0088
  224MOL0     H30875   3.626   0.715   7.298  0.2316 -3.3156 -1.8484
  224MOL0     H30876   3.857   0.648   7.453 -0.2557  0.2611  3.1757
  224MOL0     H30877   3.805   0.522   7.561 -1.7564  1.4490 -0.5388
  224MOL0     H30878   3.929   0.349   7.422 -0.1155  0.1962  2.5189
  224MOL0     H30879   3.983   0.486   7.305  1.8759  1.7430  0.9522
  224MOL0     H30880   4.047   0.458   7.601 -3.4143 -1.5821 -0.6517
  224MOL0     H30881   4.093   0.590   7.507  4.5452 -0.3846 -1.7015
  224MOL0     H30882   4.227   0.482   7.347 -2.2938  0.0794 -0.7907
  224MOL0     H30883   4.199   0.321   7.411  1.3262 -0.5341 -2.1686
  224MOL0     H30884   4.420   0.416   7.490  1.6339 -0.0029  0.6241
  224MOL0     H30885   4.334   0.567   7.535 -2.1127 -0.1450  1.8906
  224MOL0     H30886   4.302   0.303   7.666  0.5019  0.8419 -2.5801
  224MOL0     H30887   4.243   0.456   7.733 -1.8048  0.8409 -2.3672
  224MOL0     H30888   4.475   0.542   7.741 -0.6167 -0.8453  2.0800
  224MOL0     H30889   4.545   0.389   7.680  1.3588 -1.4589  2.6690
  224MOL0     H30890   4.404   0.290   7.882  3.7263 -1.1778 -0.4203
  224MOL0     H30891   4.400   0.449   7.940 -1.2807 -1.0896 -0.1547
  224MOL0     H30892   3.570   0.382   7.532 -0.7848 -0.2166 -2.4398
  224MOL0     H30893   3.346   0.479   7.629 -0.9211  3.2430  1.3455
  224MOL0     H30894   3.162   0.935   7.843 -1.0576  2.4451  1.1001
  224MOL0     H30895   2.960   1.046   7.875  1.7659 -1.6128  0.3348
  224MOL0     H30896   2.325   2.652   8.876  0.0831  2.8896  0.5907
  224MOL0     H30897   2.436   2.782   9.079  2.3805 -0.4127  2.2029
  224MOL0     H30898   2.732   2.870   9.324  1.4651  0.6203  0.3849
  224MOL0     H30899   2.852   2.989   9.497  0.2799 -1.0468 -0.8657
  224MOL0     H30900   2.890   3.014   9.944  0.6100 -1.2461  0.6046
  224MOL0     H30901   2.736   2.933   9.924 -0.3965 -2.4990 -1.2939
  224MOL0     H30902   3.006   2.814   9.863 -0.0582  2.2668 -0.7525
  224MOL0     H30903   2.861   2.730   9.831  1.2147  2.0919 -2.6163
  224MOL0     H30904   2.783   2.753  10.074  0.0666  3.0380  1.2192
  224MOL0     H30905   2.913   2.640  10.041 -0.8038 -0.6208  3.2437
  224MOL0     H30906   2.902   2.790  10.252 -0.1811  3.1150  0.6630
  224MOL0     H30907   2.906   2.924  10.142 -0.1918  0.3844 -0.3401
  224MOL0     H30908   3.319   2.877  10.172 -0.0691 -0.2353  1.0079
  224MOL0     H30909   2.624   2.786   9.802 -0.8789  0.6774 -0.6778
  224MOL0     H30910   2.388   2.643   9.622  0.5643  1.1595 -0.2237
  224MOL0     H30911   2.506   2.523   9.601  0.0661 -1.0065  2.2027
  224MOL0     H30912   2.477   2.602   9.761 -1.6651 -1.8836 -0.8699
  225MOL0     O30913   2.814   2.376   9.826 -0.1513  0.9059 -0.4239
  225MOL0     C30914   2.695   2.355   9.803  0.2228 -0.4010 -0.1402
  225MOL0     O30915   2.586   2.390   9.879  0.5546  0.1205  0.1290
  225MOL0     C30916   2.609   2.445  10.003  0.0251  0.0128 -0.1060
  225MOL0     C30917   2.526   2.551  10.049 -0.4801 -0.4027  0.3143
  225MOL0     C30918   2.534   2.589  10.183 -0.1359 -0.3583 -0.0612
  225MOL0     C30919   2.630   2.529  10.274  0.1325 -0.0641 -0.2850
  225MOL0     O30920   2.633   2.550  10.408 -0.6359 -0.5788 -0.1004
  225MOL0     C30921   2.619   2.690  10.454 -0.7404 -0.3439  0.5057
  225MOL0     C30922   2.706   2.709  10.578 -0.5371  0.4740 -0.4831
  225MOL0     C30923   2.853   2.702  10.557 -0.3871 -0.6687  0.2426
  225MOL0     C30924   2.945   2.754  10.671  0.1524 -0.7457  0.1775
  225MOL0     C30925   3.092   2.755  10.636 -0.1307 -0.6056 -0.4385
  225MOL0     C30926   3.122   2.858  10.522 -0.3070  0.3685  0.4859
  225MOL0     C30927   3.263   2.910  10.513 -0.5437  0.5282  0.1046
  225MOL0     C30928   3.361   2.797  10.478  0.2145  0.2649  0.3434
  225MOL0     N30929   3.496   2.848  10.467  0.0686 -0.4294 -0.0222
  225MOL0     C30930   3.586   2.887  10.566 -0.5469 -0.6115  0.4030
  225MOL0     C30931   3.690   2.941  10.507  0.5217 -0.0755 -0.3697
  225MOL0     C30932   3.801   3.023  10.570  0.6016 -0.4598  0.2541
  225MOL0     C30933   3.914   3.055  10.466  0.1880 -0.3259  0.7913
  225MOL0     C30934   4.044   3.085  10.540 -0.5134 -0.2704 -0.9783
  225MOL0     C30935   4.042   3.213  10.621  0.3730 -0.2976 -0.0913
  225MOL0     O30936   3.982   3.195  10.753  0.5704  0.6940 -0.1374
  225MOL0     C30937   4.035   3.286  10.837  0.7081 -0.1028  0.0802
  225MOL0     C30938   4.070   3.242  10.959  0.6325 -0.2403 -0.0090
  225MOL0     C30939   4.113   3.331  11.060 -0.5376 -0.1657 -0.3169
  225MOL0     C30940   4.162   3.269  11.183 -0.3819 -0.4265  0.1567
  225MOL0     C30941   4.131   3.473  11.028 -0.9535 -0.0984 -0.2335
  225MOL0     C30942   4.190   3.577  11.119 -0.5335  0.5874  0.3602
  225MOL0     O30943   4.194   3.701  11.072 -0.5269  0.3090  0.0255
  225MOL0     C30944   4.267   3.787  11.145 -0.1216  0.6688  0.3145
  225MOL0     C30945   4.408   3.777  11.160  0.0608 -1.1017 -0.2743
  225MOL0     C30946   4.486   3.869  11.238  0.5877 -0.7257  0.7454
  225MOL0     C30947   4.411   3.956  11.326 -0.1960  1.0361  0.5313
  225MOL0     O30948   4.467   4.046  11.412  0.1472  0.4802 -0.3990
  225MOL0     C30949   4.578   4.127  11.359 -0.5191  0.7824 -0.5985
  225MOL0     C30950   4.617   4.226  11.465  0.0182  0.2428 -1.0114
  225MOL0     C30951   4.746   4.305  11.427  0.5462  1.0232  0.3291
  225MOL0     C30952   4.794   4.404  11.534 -0.1902 -0.1425 -0.4835
  225MOL0     C30953   4.910   4.485  11.480  0.5359  0.9129  1.6129
  225MOL0     C30954   4.946   4.611  11.563 -1.0157 -0.3119 -0.1849
  225MOL0     C30955   5.038   4.572  11.679 -0.2528  0.0132  0.1463
  225MOL0     C30956   5.184   4.558  11.640  0.0979  0.1208 -0.3004
  225MOL0    Cl30957   5.237   4.717  11.593 -0.0246  0.1357 -0.0707
  225MOL0     C30958   4.270   3.942  11.330  0.5493  0.0452  0.0763
  225MOL0     C30959   4.200   3.868  11.237 -0.2953  1.1289 -0.2466
  225MOL0     O30960   4.235   3.541  11.225  0.3779  0.0435 -0.0670
  225MOL0     C30961   4.087   3.515  10.904 -0.6742 -0.1010  0.3801
  225MOL0     C30962   4.048   3.426  10.811  0.0284  1.3963  0.3681
  225MOL0     N30963   3.661   2.943  10.375  0.1364 -0.3395  0.0374
  225MOL0     N30964   3.543   2.900  10.347 -1.0148  0.5771  0.2509
  225MOL0     C30965   2.698   2.422  10.223  0.2172  0.5421  0.0239
  225MOL0     C30966   2.690   2.379  10.094 -0.5277  0.5518 -0.0203
  225MOL0     C30967   2.652   2.298   9.671 -0.5136  0.5829  0.5651
  225MOL0     C30968   2.526   2.237   9.663  0.3410  0.3001  0.1602
  225MOL0     C30969   2.472   2.194   9.544 -0.9844  0.6992 -0.2939
  225MOL0     C30970   2.538   2.209   9.424 -0.1764 -0.6810  0.7903
  225MOL0     O30971   2.482   2.166   9.301  0.6717  0.1940  0.3858
  225MOL0     C30972   2.342   2.195   9.284  0.5723 -0.1960  0.2655
  225MOL0     C30973   2.313   2.340   9.309  0.2152 -0.1034  0.2312
  225MOL0     C30974   2.165   2.368   9.281  0.2268  0.4797 -0.2790
  225MOL0     C30975   2.138   2.376   9.126 -0.0511 -0.6353 -0.6355
  225MOL0     C30976   1.994   2.393   9.116 -0.0009  0.3930 -0.0504
  225MOL0     C30977   1.874   2.401   9.098 -0.7152  0.5216 -0.0988
  225MOL0     C30978   2.667   2.260   9.424  0.0874 -0.1064 -1.1348
  225MOL0     C30979   2.728   2.295   9.547 -0.2477  0.3363  0.4256
  225MOL0     C30980   2.864   2.359   9.535  0.5846 -0.8211 -0.1257
  225MOL0     H30981   2.448   2.593   9.987 -1.0176 -0.3560  1.0125
  225MOL0     H30982   2.466   2.663  10.222 -1.2037 -0.5188 -1.5501
  225MOL0     H30983   2.517   2.715  10.485 -0.0297  0.5638  2.2551
  225MOL0     H30984   2.644   2.761  10.375 -1.8611  0.1044  0.5253
  225MOL0     H30985   2.688   2.811  10.614 -0.5834  0.3870 -0.2558
  225MOL0     H30986   2.676   2.630  10.647  0.5842 -1.4410 -2.0878
  225MOL0     H30987   2.880   2.598  10.537 -0.9903 -0.5153 -1.5017
  225MOL0     H30988   2.868   2.762  10.467  0.9534 -0.6970  0.4390
  225MOL0     H30989   2.923   2.856  10.704 -1.2036  0.5017 -3.9712
  225MOL0     H30990   2.920   2.682  10.749 -2.2971 -2.5030 -2.0178
  225MOL0     H30991   3.127   2.659  10.597 -0.5898 -0.0201 -2.3635
  225MOL0     H30992   3.150   2.797  10.720  0.0282  0.4837 -1.0744
  225MOL0     H30993   3.085   2.813  10.430 -0.5982  1.9796 -0.2183
  225MOL0     H30994   3.064   2.948  10.544  0.8489  0.5845  3.0572
  225MOL0     H30995   3.288   2.959  10.607 -0.8718 -1.0005  1.0371
  225MOL0     H30996   3.266   2.988  10.437 -1.8911  1.7330  1.2228
  225MOL0     H30997   3.350   2.721  10.555  1.3583  0.9607  1.2154
  225MOL0     H30998   3.348   2.745  10.382  3.0893  0.0483 -0.0122
  225MOL0     H30999   3.567   2.866  10.671 -1.2234  0.9062  0.6059
  225MOL0     H31000   3.838   2.958  10.650 -2.6976  1.6317  3.8336
  225MOL0     H31001   3.763   3.116  10.613  0.3554  0.1408 -1.1952
  225MOL0     H31002   3.937   2.967  10.405 -2.3008 -2.1393  2.2817
  225MOL0     H31003   3.878   3.134  10.399  0.6302 -1.8638 -1.3851
  225MOL0     H31004   4.079   3.003  10.603 -0.1122  0.5483 -0.0966
  225MOL0     H31005   4.126   3.097  10.469  0.4180  3.3480  0.4461
  225MOL0     H31006   4.146   3.246  10.629  0.9517 -2.2468  1.3262
  225MOL0     H31007   3.982   3.285  10.565  2.0001 -0.3171 -1.9785
  225MOL0     H31008   4.055   3.136  10.979  0.0679 -0.7083 -2.5819
  225MOL0     H31009   4.165   3.160  11.168  0.5829 -0.7057  2.1312
  225MOL0     H31010   4.100   3.300  11.268  1.6793  4.1694  0.2208
  225MOL0     H31011   4.266   3.292  11.205 -0.1939 -1.4790  0.4339
  225MOL0     H31012   4.452   3.699  11.100 -1.0182 -1.9792  0.0380
  225MOL0     H31013   4.595   3.864  11.241  0.5554 -1.2157  1.2279
  225MOL0     H31014   4.662   4.069  11.322 -2.5076 -1.7285 -1.4261
  225MOL0     H31015   4.546   4.181  11.269 -1.2359  0.9075 -0.2792
  225MOL0     H31016   4.539   4.297  11.491  0.6243  0.7927 -0.6801
  225MOL0     H31017   4.641   4.171  11.557 -3.0430 -1.9099 -1.3311
  225MOL0     H31018   4.724   4.349  11.330 -1.0941  2.9444  1.4867
  225MOL0     H31019   4.824   4.231  11.404 -0.4591 -0.3611  1.2072
  225MOL0     H31020   4.829   4.353  11.625  1.5553 -0.7079 -1.4366
  225MOL0     H31021   4.711   4.474  11.550 -0.5425 -0.2505 -1.7850
  225MOL0     H31022   5.000   4.428  11.453 -0.3527  0.3094 -0.1915
  225MOL0     H31023   4.869   4.537  11.393  1.2900  0.2847  0.8637
  225MOL0     H31024   4.858   4.666  11.598  0.2464  0.8383  1.3189
  225MOL0     H31025   5.004   4.683  11.504 -1.1021  0.4070  0.5915
  225MOL0     H31026   4.999   4.480  11.723  2.3274 -0.7006  1.1118
  225MOL0     H31027   5.041   4.652  11.754 -0.7693  1.9574 -1.7895
  225MOL0     H31028   5.195   4.481  11.563  1.2411 -0.3150  0.2709
  225MOL0     H31029   5.245   4.537  11.729 -1.2542 -1.6786  0.2585
  225MOL0     H31030   4.222   4.001  11.407  1.3878  0.2854  0.4178
  225MOL0     H31031   4.092   3.877  11.226 -0.2935  1.2741 -0.1441
  225MOL0     H31032   4.095   3.617  10.868  2.2000 -0.5843 -0.6525
  225MOL0     H31033   4.023   3.462  10.712  1.1539  3.0030  0.6371
  225MOL0     H31034   2.760   2.361  10.288 -0.7012  1.0136  1.3879
  225MOL0     H31035   2.740   2.290  10.056 -0.5383  0.3268  0.4885
  225MOL0     H31036   2.476   2.231   9.758  0.8766 -0.3614  0.4142
  225MOL0     H31037   2.380   2.137   9.539 -0.6127 -0.3637  2.8003
  225MOL0     H31038   2.319   2.165   9.182  0.8302  1.8455 -0.4381
  225MOL0     H31039   2.292   2.132   9.358  1.6273  0.3241  1.4791
  225MOL0     H31040   2.377   2.411   9.255 -1.6748  1.1776 -0.4058
  225MOL0     H31041   2.329   2.362   9.415 -2.5025 -0.2054  0.7288
  225MOL0     H31042   2.096   2.295   9.325  1.5434 -2.2157 -2.3546
  225MOL0     H31043   2.134   2.464   9.322 -0.1476  0.5902 -0.8050
  225MOL0     H31044   2.169   2.300   9.053  2.7308  2.8427 -3.4618
  225MOL0     H31045   2.195   2.464   9.095  0.0450 -0.0579  1.0752
  225MOL0     H31046   1.768   2.409   9.088 -0.4331  2.6461 -2.0658
  225MOL0     H31047   2.715   2.277   9.328 -0.2519  2.4798 -0.9050
  225MOL0     H31048   2.858   2.455   9.586 -2.0612  0.1357 -2.0034
  225MOL0     H31049   2.941   2.290   9.571 -0.7556 -2.9881 -1.1562
  225MOL0     H31050   2.873   2.382   9.428 -3.6499  0.2421 -0.4439
  226MOL0     O31051   2.415   5.234   8.630  0.6338  0.3068  0.2537
  226MOL0     C31052   2.515   5.164   8.647 -0.3480 -0.0679 -0.0789
  226MOL0     O31053   2.555   5.065   8.561  0.1260 -0.3452  0.2137
  226MOL0     C31054   2.471   5.055   8.448  0.3165  1.0583  0.1941
  226MOL0     C31055   2.477   5.144   8.343 -0.0497 -1.1625 -0.5625
  226MOL0     C31056   2.402   5.128   8.228  0.1444  0.2010 -0.1675
  226MOL0     C31057   2.325   5.016   8.207 -0.0449  0.5312 -0.3344
  226MOL0     O31058   2.249   4.997   8.104  0.8593 -0.2296 -0.2731
  226MOL0     C31059   2.305   5.033   7.985 -0.9651  0.6708  0.7074
  226MOL0     C31060   2.214   5.134   7.927 -0.2844 -0.6161 -0.0272
  226MOL0     C31061   2.239   5.171   7.779 -0.0342 -0.5159 -0.6685
  226MOL0     C31062   2.235   5.043   7.691  0.0822  0.1379 -0.3829
  226MOL0     C31063   2.264   5.095   7.553  0.1266  0.0580  0.4092
  226MOL0     C31064   2.213   5.009   7.439  0.2603  0.3964 -0.0962
  226MOL0     C31065   2.198   5.086   7.305 -0.4582  0.2643 -0.1607
  226MOL0     C31066   2.222   4.997   7.187 -0.3626  0.5598 -0.3377
  226MOL0     N31067   2.370   4.971   7.180 -0.5027  0.9248  0.1541
  226MOL0     C31068   2.432   4.862   7.228  0.0241 -1.0974 -1.0721
  226MOL0     C31069   2.551   4.860   7.164  0.4933 -0.1974  0.4169
  226MOL0     C31070   2.667   4.768   7.202  0.5980 -0.1498 -0.0021
  226MOL0     C31071   2.710   4.802   7.349  0.8225 -0.2766  0.0605
  226MOL0     C31072   2.776   4.942   7.368 -0.4926 -0.0678  0.0490
  226MOL0     C31073   2.900   4.934   7.269 -0.0172 -1.0147 -0.2922
  226MOL0     O31074   2.980   4.821   7.301 -0.7957 -0.3318  0.4764
  226MOL0     C31075   3.079   4.832   7.403  0.5645  0.2334  0.9777
  226MOL0     C31076   3.085   4.946   7.487  0.7819  0.1406  0.0541
  226MOL0     C31077   3.183   4.957   7.584  0.0818  0.6626  0.3514
  226MOL0     C31078   3.213   5.092   7.641 -0.1151 -0.5927  0.0476
  226MOL0     C31079   3.272   4.845   7.614 -0.7702 -0.0983  0.1474
  226MOL0     C31080   3.373   4.834   7.725  0.1163 -0.4832 -0.6609
  226MOL0     O31081   3.450   4.719   7.736  0.9826  0.2364  0.0851
  226MOL0     C31082   3.559   4.728   7.820  0.2058 -0.2371  0.2210
  226MOL0     C31083   3.547   4.732   7.963  0.3669  0.8748 -0.0649
  226MOL0     C31084   3.661   4.729   8.030  1.0433 -0.3744 -0.4449
  226MOL0     C31085   3.794   4.728   7.986 -0.8323  0.1843 -0.4294
  226MOL0     O31086   3.893   4.739   8.076 -0.0398  0.0390 -0.2931
  226MOL0     C31087   4.014   4.785   8.032 -0.8186 -0.8016  0.4157
  226MOL0     C31088   4.105   4.841   8.142 -0.0027  0.6156 -0.6001
  226MOL0     C31089   4.249   4.825   8.092  0.1879  0.2958 -0.8075
  226MOL0     C31090   4.346   4.887   8.190  0.0443 -0.3654 -0.3767
  226MOL0     C31091   4.491   4.917   8.148  0.3425  0.4740 -0.1553
  226MOL0     C31092   4.567   4.804   8.071 -0.3343  0.0151 -0.2694
  226MOL0     C31093   4.714   4.836   8.050  0.6315  0.5700 -0.5630
  226MOL0     C31094   4.793   4.698   8.053 -0.1853  0.0743  0.5566
  226MOL0    Cl31095   4.763   4.606   7.901  0.3162 -0.0534  0.5397
  226MOL0     C31096   3.806   4.712   7.853  0.3739 -0.0907  0.4646
  226MOL0     C31097   3.690   4.724   7.767 -0.3921 -0.1137  0.8592
  226MOL0     O31098   3.369   4.924   7.812  0.5290 -0.1577 -0.4423
  226MOL0     C31099   3.258   4.723   7.537  0.0188 -0.3240 -0.0968
  226MOL0     C31100   3.169   4.722   7.426  0.6193  0.2223  0.0094
  226MOL0     N31101   2.564   4.971   7.077 -0.4685  0.9930  0.0089
  226MOL0     N31102   2.459   5.042   7.102 -0.3811  0.3407 -0.2924
  226MOL0     C31103   2.324   4.918   8.306 -0.1530 -0.5176  0.3868
  226MOL0     C31104   2.392   4.940   8.429  0.0098 -0.1531 -0.6041
  226MOL0     C31105   2.612   5.193   8.762  0.3187 -0.5085  0.9239
  226MOL0     C31106   2.557   5.223   8.886 -0.2391  0.8055  0.9180
  226MOL0     C31107   2.637   5.236   9.001 -0.0095 -0.1195  0.3975
  226MOL0     C31108   2.779   5.230   8.987 -0.4273  0.2722  0.4157
  226MOL0     O31109   2.867   5.259   9.086  0.5824 -0.0640  0.4475
  226MOL0     C31110   2.835   5.226   9.218 -0.7549 -0.1538 -0.7620
  226MOL0     C31111   2.969   5.192   9.283 -0.0177 -0.0749 -0.1719
  226MOL0     C31112   2.952   5.165   9.429  0.5468  0.8842 -0.6178
  226MOL0     C31113   3.090   5.132   9.500  0.5426 -0.3289  0.0253
  226MOL0     C31114   3.057   5.128   9.645  0.0639 -0.0538  0.8707
  226MOL0     C31115   3.050   5.138   9.763  0.5329 -0.0802 -0.6455
  226MOL0     C31116   2.832   5.202   8.860 -0.4881  0.0829  0.6208
  226MOL0     C31117   2.752   5.190   8.739 -0.6858  0.3412 -0.0183
  226MOL0     C31118   2.815   5.178   8.594  0.3881 -0.5828 -0.7413
  226MOL0     H31119   2.552   5.222   8.354 -2.8873  1.8086 -0.5369
  226MOL0     H31120   2.404   5.209   8.155  1.8904  0.8523  0.5476
  226MOL0     H31121   2.306   4.940   7.928 -0.4753  0.2719  1.3521
  226MOL0     H31122   2.408   5.069   7.988 -0.8141  0.2108  1.0088
  226MOL0     H31123   2.115   5.091   7.945  0.9421 -3.6134  0.3237
  226MOL0     H31124   2.229   5.227   7.981  2.8595  0.5132 -2.4878
  226MOL0     H31125   2.156   5.233   7.745 -0.4722 -0.7096  0.0261
  226MOL0     H31126   2.331   5.230   7.773 -0.0886 -0.3198  0.2459
  226MOL0     H31127   2.315   4.973   7.715  1.4625  1.0604 -2.0816
  226MOL0     H31128   2.133   5.003   7.693 -1.2230  3.2102  1.2452
  226MOL0     H31129   2.371   5.111   7.535 -0.3448  0.4373 -2.5618
  226MOL0     H31130   2.223   5.195   7.540  0.5204  0.0432 -1.1311
  226MOL0     H31131   2.276   4.920   7.430  3.0378  2.3498 -1.2206
  226MOL0     H31132   2.113   4.974   7.465  0.6459 -0.0246  0.8841
  226MOL0     H31133   2.268   5.169   7.298  0.7218 -0.4262  2.3142
  226MOL0     H31134   2.094   5.119   7.303 -0.9801 -1.1080  1.7682
  226MOL0     H31135   2.164   4.905   7.201  0.1326  0.5708  2.3397
  226MOL0     H31136   2.180   5.030   7.092  1.3228  0.2084 -1.2544
  226MOL0     H31137   2.402   4.788   7.302  0.2074  2.0070  2.4039
  226MOL0     H31138   2.750   4.764   7.131  2.8230  1.3867  2.3343
  226MOL0     H31139   2.632   4.664   7.207 -0.4212  0.2313  1.7798
  226MOL0     H31140   2.626   4.797   7.419  0.4681  0.9298 -0.2603
  226MOL0     H31141   2.779   4.727   7.387  0.4150 -0.9426 -0.4805
  226MOL0     H31142   2.721   5.034   7.349 -0.0819  0.9571  3.2219
  226MOL0     H31143   2.809   4.956   7.471  1.4321 -1.3774 -0.3352
  226MOL0     H31144   2.870   4.929   7.164  0.3190  2.7219 -0.6844
  226MOL0     H31145   2.963   5.024   7.269 -0.3831 -0.6995  1.8762
  226MOL0     H31146   3.026   5.037   7.475 -0.0583 -0.4363 -0.2860
  226MOL0     H31147   3.165   5.167   7.577 -1.3932 -3.5198 -2.6809
  226MOL0     H31148   3.322   5.100   7.645  0.1993 -2.6145 -2.0345
  226MOL0     H31149   3.173   5.102   7.742  2.1565 -0.7180  1.0238
  226MOL0     H31150   3.450   4.742   8.011  1.0230  0.4564  1.4037
  226MOL0     H31151   3.648   4.747   8.137 -0.2984 -2.3307 -0.2264
  226MOL0     H31152   4.072   4.697   8.000  1.8949  0.9109  0.2557
  226MOL0     H31153   4.004   4.859   7.952  0.1931 -2.1749 -1.0754
  226MOL0     H31154   4.092   4.946   8.169  1.5920  0.7421 -0.2375
  226MOL0     H31155   4.098   4.780   8.232 -0.4819 -0.7499 -1.5193
  226MOL0     H31156   4.255   4.868   7.991  0.4852  1.5586 -0.2751
  226MOL0     H31157   4.284   4.722   8.082 -1.0649 -0.4542  1.8347
  226MOL0     H31158   4.341   4.820   8.277  3.7243 -0.1173  0.1650
  226MOL0     H31159   4.301   4.984   8.210  0.4994 -0.1675 -0.3147
  226MOL0     H31160   4.494   5.001   8.078  3.2967  0.5974 -0.0033
  226MOL0     H31161   4.545   4.943   8.239 -1.0677 -0.2175  0.9030
  226MOL0     H31162   4.520   4.799   7.973  2.0415  0.0332 -1.4892
  226MOL0     H31163   4.558   4.712   8.129  3.1929 -0.0327  0.4266
  226MOL0     H31164   4.757   4.896   8.130  0.5649  0.0199 -0.1156
  226MOL0     H31165   4.734   4.890   7.956 -1.1910  1.6042 -0.4021
  226MOL0     H31166   4.754   4.636   8.134 -2.1611  0.9214  0.3085
  226MOL0     H31167   4.900   4.720   8.059 -0.5297  3.8874 -2.9225
  226MOL0     H31168   3.903   4.707   7.804  0.5741  0.5316  0.7804
  226MOL0     H31169   3.689   4.717   7.659 -1.4076  1.0178  0.7814
  226MOL0     H31170   3.316   4.635   7.564  1.2502  1.0175  1.9391
  226MOL0     H31171   3.151   4.635   7.364 -1.7157  1.3019 -0.9762
  226MOL0     H31172   2.277   4.822   8.285 -0.5934 -0.6177  1.7276
  226MOL0     H31173   2.392   4.867   8.509 -1.7386  0.0365 -0.3831
  226MOL0     H31174   2.449   5.220   8.903 -0.6064 -2.2671 -1.0648
  226MOL0     H31175   2.588   5.263   9.094  0.0486 -0.3813  0.5036
  226MOL0     H31176   2.794   5.314   9.269 -2.3480 -2.3049  1.9702
  226MOL0     H31177   2.761   5.147   9.232 -0.0259 -0.6324  0.4832
  226MOL0     H31178   3.038   5.274   9.264  0.6159 -0.5055  0.2269
  226MOL0     H31179   3.001   5.097   9.239  2.4337  0.6573 -0.1090
  226MOL0     H31180   2.912   5.256   9.475 -1.5632 -0.0964 -0.4077
  226MOL0     H31181   2.878   5.089   9.455 -0.5918  2.2177  0.1450
  226MOL0     H31182   3.152   5.217   9.471  2.8504 -2.1985 -0.7435
  226MOL0     H31183   3.141   5.041   9.470  0.9918 -0.5630  1.4254
  226MOL0     H31184   3.047   5.144   9.870  0.2720  0.5540 -0.6840
  226MOL0     H31185   2.936   5.176   8.842 -0.9600 -2.7448  1.5401
  226MOL0     H31186   2.924   5.190   8.601  0.1774  1.2712 -0.1799
  226MOL0     H31187   2.807   5.077   8.552  2.1786 -0.8588 -0.5049
  226MOL0     H31188   2.776   5.254   8.527 -0.0911 -1.5211 -1.5539
  227MOL0     O31189   3.665   9.330  10.546  0.2903  0.2660 -0.2205
  227MOL0     C31190   3.633   9.382  10.655  0.0662  0.1431  0.9054
  227MOL0     O31191   3.725   9.431  10.739  0.5842 -0.1090  0.0652
  227MOL0     C31192   3.857   9.421  10.704  0.0104  0.0894 -0.9185
  227MOL0     C31193   3.926   9.534  10.690  0.1149 -0.5761  0.7852
  227MOL0     C31194   4.054   9.534  10.645  0.3279  0.5021 -0.2042
  227MOL0     C31195   4.127   9.413  10.622 -0.4189  0.0133  0.1676
  227MOL0     O31196   4.254   9.428  10.573  0.1889 -0.6708 -0.1129
  227MOL0     C31197   4.321   9.305  10.560  0.8430  0.0584 -0.8878
  227MOL0     C31198   4.459   9.330  10.503 -0.9566  0.2345 -0.3450
  227MOL0     C31199   4.565   9.224  10.498  0.0937 -0.6094 -0.2754
  227MOL0     C31200   4.679   9.274  10.411 -0.0192  0.5591  0.1180
  227MOL0     C31201   4.801   9.180  10.420  0.0530  1.1260 -0.1740
  227MOL0     C31202   4.937   9.249  10.412  0.4155  0.0115 -0.5191
  227MOL0     C31203   4.963   9.321  10.279 -0.1762 -0.4877 -0.0179
  227MOL0     C31204   5.093   9.397  10.292  0.1976  0.0518  0.0974
  227MOL0     N31205   5.091   9.510  10.200  0.6237  0.7074 -0.6420
  227MOL0     C31206   5.116   9.513  10.061 -0.2675  0.7715  0.2531
  227MOL0     C31207   5.141   9.642  10.039 -0.0476 -0.1254 -0.3760
  227MOL0     C31208   5.175   9.695   9.899  0.6512 -0.3188 -0.0240
  227MOL0     C31209   5.325   9.667   9.861  0.2625  0.0533  1.0911
  227MOL0     C31210   5.346   9.693   9.714  0.2551  0.2988 -0.2763
  227MOL0     C31211   5.503   9.680   9.690  0.1489  0.0275  0.5567
  227MOL0     O31212   5.531   9.710   9.556 -0.2846  0.1165 -0.5911
  227MOL0     C31213   5.663   9.710   9.532 -0.7961 -0.4677  0.2539
  227MOL0     C31214   5.747   9.824   9.540 -0.1545 -0.2411 -0.6880
  227MOL0     C31215   5.878   9.829   9.489 -1.2622 -0.0476  0.6374
  227MOL0     C31216   5.955   9.958   9.511  0.4653  0.6636  0.2045
  227MOL0     C31217   5.936   9.705   9.443 -0.4350 -0.8005  0.4411
  227MOL0     C31218   6.071   9.690   9.395 -1.1655 -0.9133 -0.2739
  227MOL0     O31219   6.137   9.575   9.425  0.2266 -0.4426  0.1709
  227MOL0     C31220   6.270   9.566   9.383  0.1282  0.5009 -0.0112
  227MOL0     C31221   6.316   9.454   9.317 -0.4579  1.0651 -0.0008
  227MOL0     C31222   6.446   9.428   9.271 -0.0928  0.2045  0.9565
  227MOL0     C31223   6.542   9.517   9.304 -0.0903 -1.0559  0.9567
  227MOL0     O31224   6.673   9.521   9.256  1.5288 -0.7909 -0.5498
  227MOL0     C31225   6.696   9.449   9.130  0.7488 -0.2012  0.3098
  227MOL0     C31226   6.832   9.473   9.087 -0.1813  0.4251  0.5598
  227MOL0     C31227   6.884   9.381   8.974  1.0612 -0.5510  0.3794
  227MOL0     C31228   7.037   9.387   8.978 -0.2132  1.5134  0.7303
  227MOL0     C31229   7.092   9.292   8.869 -0.4591  0.0608  0.2790
  227MOL0     C31230   7.077   9.137   8.881 -0.1460  0.0699  0.1809
  227MOL0     C31231   7.127   9.054   8.758  0.5951 -0.1915 -0.7590
  227MOL0     C31232   7.047   9.084   8.640 -0.2774 -0.3978 -0.4106
  227MOL0    Cl31233   7.042   8.962   8.504  0.2011 -0.2435  0.0586
  227MOL0     C31234   6.505   9.631   9.383  0.3841  0.5070  1.2543
  227MOL0     C31235   6.367   9.662   9.419  0.4178  0.0116  0.1563
  227MOL0     O31236   6.115   9.783   9.336  0.1412  0.1886  0.0276
  227MOL0     C31237   5.861   9.586   9.449  0.1334  0.3076  0.1849
  227MOL0     C31238   5.727   9.586   9.486  0.0978 -0.0811 -0.4219
  227MOL0     N31239   5.126   9.725  10.156 -0.0515  0.2021 -0.2001
  227MOL0     N31240   5.099   9.639  10.248 -0.0611  0.1216 -0.0698
  227MOL0     C31241   4.052   9.295  10.635  0.1027  1.3310  0.5562
  227MOL0     C31242   3.920   9.303  10.686 -0.5076  0.8385  0.1939
  227MOL0     C31243   3.487   9.403  10.684  0.1419  0.0799  0.2745
  227MOL0     C31244   3.391   9.334  10.605 -0.6493 -0.2697 -0.0435
  227MOL0     C31245   3.252   9.336  10.630  0.3062  0.1179  0.1992
  227MOL0     C31246   3.210   9.412  10.739 -0.2877 -0.6244 -0.0220
  227MOL0     O31247   3.076   9.399  10.756 -0.2910 -0.1300 -0.7771
  227MOL0     C31248   3.012   9.514  10.822 -0.5260  0.5443  0.1163
  227MOL0     C31249   2.856   9.504  10.815 -0.7690 -0.0145  0.3073
  227MOL0     C31250   2.808   9.393  10.912  0.1484  0.2296  0.0531
  227MOL0     C31251   2.657   9.389  10.910  1.2880  0.0289 -0.2388
  227MOL0     C31252   2.608   9.297  11.018  0.3239 -0.0639 -0.3587
  227MOL0     C31253   2.576   9.213  11.098 -0.9725 -0.1855 -0.2623
  227MOL0     C31254   3.299   9.484  10.817  0.5470  0.3844 -1.4288
  227MOL0     C31255   3.438   9.485  10.794  0.3353  0.0039  0.4007
  227MOL0     C31256   3.524   9.560  10.898  0.2283  0.0829 -0.1385
  227MOL0     H31257   3.876   9.630  10.697 -1.9457 -1.4246 -1.1855
  227MOL0     H31258   4.104   9.629  10.631 -0.5239  0.9613 -0.1829
  227MOL0     H31259   4.269   9.240  10.490  0.3197  1.5247 -1.9032
  227MOL0     H31260   4.322   9.254  10.656 -1.3957 -1.5519 -1.6377
  227MOL0     H31261   4.435   9.352  10.398 -2.3514 -2.2169 -0.6221
  227MOL0     H31262   4.503   9.415  10.555  1.2867 -1.2510  0.3499
  227MOL0     H31263   4.604   9.203  10.599  1.9824 -0.6264 -0.9586
  227MOL0     H31264   4.526   9.131  10.456 -1.1976 -0.5659  0.7457
  227MOL0     H31265   4.653   9.277  10.305  0.0461 -1.9131 -0.0298
  227MOL0     H31266   4.711   9.372  10.448 -0.0501  0.5355  0.2092
  227MOL0     H31267   4.786   9.103  10.344 -0.5513  0.2184  0.8376
  227MOL0     H31268   4.804   9.123  10.514  0.4659  1.3953 -0.0202
  227MOL0     H31269   4.929   9.333  10.481  0.8592 -1.7169  1.7755
  227MOL0     H31270   5.021   9.183  10.435 -0.9258 -0.9941  1.9029
  227MOL0     H31271   4.879   9.386  10.251 -1.3082 -2.0233 -0.3129
  227MOL0     H31272   4.972   9.254  10.194 -1.9472  1.0023 -1.4715
  227MOL0     H31273   5.114   9.433  10.393  2.9421  1.6193 -0.9172
  227MOL0     H31274   5.183   9.344  10.259  1.5142  2.1666  0.1417
  227MOL0     H31275   5.114   9.432   9.989 -2.0015  0.1493  0.9625
  227MOL0     H31276   5.147   9.800   9.908 -1.8466 -0.9674  0.8572
  227MOL0     H31277   5.109   9.651   9.823  0.1967 -0.3409  0.3771
  227MOL0     H31278   5.393   9.724   9.926 -1.9331  1.0675  2.6117
  227MOL0     H31279   5.345   9.561   9.881 -2.3295 -0.8570 -0.6901
  227MOL0     H31280   5.299   9.609   9.662 -0.0597  0.7275 -0.6972
  227MOL0     H31281   5.304   9.788   9.678 -0.4194 -0.5548 -1.8411
  227MOL0     H31282   5.552   9.742   9.766 -1.4531  0.4128  1.3301
  227MOL0     H31283   5.536   9.576   9.695  0.5436  0.1027 -0.3592
  227MOL0     H31284   5.705   9.914   9.584 -0.0944 -0.8906  0.7206
  227MOL0     H31285   6.056   9.926   9.541  0.1874 -0.3773  0.0591
  227MOL0     H31286   5.913  10.014   9.595  0.1313 -0.0733  0.5407
  227MOL0     H31287   5.974  10.027   9.429  2.6542  1.3124  1.1723
  227MOL0     H31288   6.239   9.380   9.299 -1.0233  1.8395 -0.8616
  227MOL0     H31289   6.476   9.348   9.205 -1.0418  0.3536  0.3234
  227MOL0     H31290   6.684   9.341   9.138 -0.3519 -0.1153  0.0535
  227MOL0     H31291   6.634   9.494   9.051 -0.3567  2.4166  2.5099
  227MOL0     H31292   6.848   9.575   9.051  2.5928 -0.0941  0.0632
  227MOL0     H31293   6.892   9.463   9.178 -1.4090  2.1594  1.6181
  227MOL0     H31294   6.847   9.421   8.879  0.6339 -1.4277  0.1677
  227MOL0     H31295   6.844   9.279   8.981  3.8417 -1.7383  0.1433
  227MOL0     H31296   7.081   9.364   9.075 -0.1643 -3.1902 -0.1724
  227MOL0     H31297   7.076   9.486   8.951 -4.2666  2.7792 -1.3050
  227MOL0     H31298   7.046   9.328   8.776 -0.9366  0.7042  0.7603
  227MOL0     H31299   7.200   9.306   8.857 -0.8497  1.6241 -2.1657
  227MOL0     H31300   6.969   9.124   8.894 -0.5199 -0.8152 -2.9283
  227MOL0     H31301   7.115   9.091   8.972  1.0333 -2.0035 -1.2622
  227MOL0     H31302   7.123   8.946   8.777 -2.3958  0.3435  2.6505
  227MOL0     H31303   7.232   9.077   8.737  0.3693 -0.0507 -1.7947
  227MOL0     H31304   7.077   9.183   8.606  0.4877  0.3485  2.1850
  227MOL0     H31305   6.945   9.092   8.680 -0.6970 -0.8494 -1.3513
  227MOL0     H31306   6.565   9.720   9.400 -1.5334  2.2910 -0.5637
  227MOL0     H31307   6.328   9.746   9.475 -1.5066  0.3989 -1.6834
  227MOL0     H31308   5.914   9.496   9.418  1.7408  0.7854  1.4164
  227MOL0     H31309   5.668   9.495   9.477  0.0263 -0.0517 -0.2531
  227MOL0     H31310   4.094   9.195  10.627 -2.4050  0.1056  1.5813
  227MOL0     H31311   3.870   9.211  10.713  0.8144  0.5460  1.8478
  227MOL0     H31312   3.424   9.266  10.528 -0.5981  2.9789 -3.1661
  227MOL0     H31313   3.175   9.283  10.575  0.0441 -1.2869  1.8366
  227MOL0     H31314   3.040   9.513  10.928 -0.7953  0.6237  0.1885
  227MOL0     H31315   3.049   9.604  10.774 -1.7111  0.7391 -0.4817
  227MOL0     H31316   2.835   9.479  10.711  3.0216 -0.4081 -0.4903
  227MOL0     H31317   2.811   9.600  10.842 -1.8991 -0.9195  1.8722
  227MOL0     H31318   2.854   9.296  10.893  0.7913  0.5287  0.0588
  227MOL0     H31319   2.843   9.414  11.014 -1.9489 -0.4738  0.9717
  227MOL0     H31320   2.610   9.351  10.818  0.1114 -1.6576  0.9894
  227MOL0     H31321   2.622   9.489  10.938  1.0035 -0.1598  0.0951
  227MOL0     H31322   2.547   9.131  11.161  0.4539 -2.0115 -1.8728
  227MOL0     H31323   3.251   9.549  10.890 -0.5926  0.4098 -2.1656
  227MOL0     H31324   3.468   9.636  10.953 -0.6483 -0.6877  0.0600
  227MOL0     H31325   3.571   9.489  10.966  1.0685  0.9661  0.2282
  227MOL0     H31326   3.607   9.614  10.851  1.8561  0.0886  2.5437
  228MOL0     O31327   7.657   3.808   6.124 -0.5099  0.5638  0.2635
  228MOL0     C31328   7.646   3.703   6.057  0.2851  0.5089 -0.1469
  228MOL0     O31329   7.728   3.666   5.951 -0.3017 -0.0077  0.0598
  228MOL0     C31330   7.836   3.735   5.910 -0.3582 -0.3360 -0.6385
  228MOL0     C31331   7.843   3.871   5.881  0.6473  0.7573 -0.0310
  228MOL0     C31332   7.970   3.930   5.845  0.7179 -0.0273  0.1255
  228MOL0     C31333   8.080   3.848   5.813 -0.6249  0.2904 -0.1311
  228MOL0     O31334   8.210   3.882   5.761  0.3304  0.7575 -0.5417
  228MOL0     C31335   8.240   4.020   5.750  0.4560 -0.7366  0.5120
  228MOL0     C31336   8.334   4.071   5.871  0.2620  0.2024  0.0938
  228MOL0     C31337   8.451   3.980   5.910  0.3441  0.0897 -0.1576
  228MOL0     C31338   8.558   3.998   5.797  0.2656 -0.8113 -0.2330
  228MOL0     C31339   8.644   3.877   5.800 -0.2317  1.3363 -0.1231
  228MOL0     C31340   8.727   3.846   5.662  0.3296  0.0649 -0.5572
  228MOL0     C31341   8.836   3.735   5.690  0.5587  0.0461  0.0596
  228MOL0     C31342   8.973   3.791   5.726  0.2039  0.0975 -0.0894
  228MOL0     N31343   9.060   3.831   5.611  0.0424 -0.1986 -0.3052
  228MOL0     C31344   9.090   3.749   5.506  0.4527 -0.1525  0.4139
  228MOL0     C31345   9.218   3.787   5.463  0.4209  0.5576 -0.3333
  228MOL0     C31346   9.284   3.730   5.339  0.8683  0.1860  0.1915
  228MOL0     C31347   9.375   3.613   5.373  0.2180  0.3011 -0.0873
  228MOL0     C31348   9.469   3.572   5.259  0.0626  0.2276 -0.2822
  228MOL0     C31349   9.571   3.678   5.221 -0.4188 -0.6443  0.5506
  228MOL0     O31350   9.658   3.640   5.124  0.0333 -0.2180 -0.1588
  228MOL0     C31351   9.782   3.700   5.110 -0.1564  0.1937  0.7434
  228MOL0     C31352   9.836   3.799   5.193  0.7885 -0.4054  0.1337
  228MOL0     C31353   9.963   3.859   5.171 -0.0332  0.1818  0.8182
  228MOL0     C31354  10.021   3.956   5.272  0.0541 -1.1745 -0.5425
  228MOL0     C31355  10.044   3.807   5.072 -1.1246  0.1073 -0.8680
  228MOL0     C31356  10.183   3.854   5.034 -0.0202 -0.3734 -0.0865
  228MOL0     O31357  10.259   3.766   4.972  0.2952  0.9579  0.6942
  228MOL0     C31358  10.395   3.779   4.985  0.9762  0.3005 -0.4508
  228MOL0     C31359  10.479   3.746   4.880 -0.6799  0.6744  0.1041
  228MOL0     C31360  10.612   3.768   4.897 -0.2009 -0.9889  0.8329
  228MOL0     C31361  10.667   3.815   5.010  0.1536 -0.3125 -0.7025
  228MOL0     O31362  10.792   3.857   5.018  0.2380  0.8598 -0.0650
  228MOL0     C31363  10.882   3.843   4.906  0.3948 -0.3200  0.3247
  228MOL0     C31364  11.015   3.911   4.939 -0.3060 -0.2110 -0.4102
  228MOL0     C31365  11.088   3.963   4.811  0.2081  0.5873  0.0330
  228MOL0     C31366  11.140   3.841   4.733 -0.4179  0.0972 -0.6283
  228MOL0     C31367  11.257   3.874   4.638  0.7031  0.2689  0.1762
  228MOL0     C31368  11.337   3.750   4.594 -0.4434 -0.5651  1.0137
  228MOL0     C31369  11.454   3.794   4.490 -0.0254 -0.8020 -0.4237
  228MOL0     C31370  11.492   3.668   4.418  0.2612  1.1278  0.3805
  228MOL0    Cl31371  11.650   3.694   4.333  0.1362 -0.0842  0.4025
  228MOL0     C31372  10.582   3.843   5.124 -0.0694 -1.3819  1.1430
  228MOL0     C31373  10.448   3.816   5.108 -0.7376  0.3607 -0.6025
  228MOL0     O31374  10.202   3.979   5.031 -0.3813  0.1979 -0.5250
  228MOL0     C31375   9.987   3.706   4.996 -0.6562  0.1295 -0.0745
  228MOL0     C31376   9.857   3.656   5.008  0.1045  0.0602 -0.4880
  228MOL0     N31377   9.258   3.901   5.533  0.0005  0.8158  0.1533
  228MOL0     N31378   9.162   3.920   5.609 -0.3145  0.5418  0.0661
  228MOL0     C31379   8.071   3.712   5.827  1.4167  0.4324 -0.4820
  228MOL0     C31380   7.955   3.658   5.886  0.3363  0.9358 -0.1261
  228MOL0     C31381   7.547   3.610   6.099 -0.4936 -0.8198  0.4037
  228MOL0     C31382   7.558   3.478   6.069 -1.2574 -0.7212  0.1364
  228MOL0     C31383   7.474   3.377   6.124 -0.1535  0.1939 -0.0246
  228MOL0     C31384   7.373   3.409   6.210  1.3462 -0.1807  0.2541
  228MOL0     O31385   7.287   3.308   6.252 -0.0015 -0.4771 -0.2485
  228MOL0     C31386   7.157   3.342   6.304  0.3794  0.2772 -0.9856
  228MOL0     C31387   7.161   3.361   6.452  0.3358 -0.3916 -0.3861
  228MOL0     C31388   7.012   3.369   6.502  0.3352 -0.0610  0.6848
  228MOL0     C31389   6.987   3.348   6.654  0.2106 -0.3503 -0.1997
  228MOL0     C31390   6.845   3.352   6.683 -0.0752  0.6360  0.0280
  228MOL0     C31391   6.730   3.361   6.717  0.9728 -0.9912 -0.4898
  228MOL0     C31392   7.352   3.542   6.237  0.1680 -0.1040  0.5618
  228MOL0     C31393   7.434   3.647   6.181 -0.2763  1.2049 -0.0925
  228MOL0     C31394   7.396   3.790   6.217 -0.0416  0.5223  0.2357
  228MOL0     H31395   7.755   3.932   5.897  1.2016  1.8776 -1.0716
  228MOL0     H31396   7.965   4.034   5.817  0.3347 -0.2527 -0.6415
  228MOL0     H31397   8.148   4.075   5.733  1.5031  0.4569 -1.5980
  228MOL0     H31398   8.284   4.033   5.651  2.6166 -4.0119  0.8831
  228MOL0     H31399   8.365   4.174   5.854  1.6842 -0.3143 -0.6356
  228MOL0     H31400   8.265   4.065   5.956 -2.0098  1.7725 -1.5115
  228MOL0     H31401   8.495   4.008   6.007 -1.9914 -0.6357  1.2006
  228MOL0     H31402   8.424   3.877   5.934  1.9461  0.5184  4.6707
  228MOL0     H31403   8.516   4.000   5.696 -1.1781 -0.2226  0.3472
  228MOL0     H31404   8.612   4.093   5.812 -1.9702  0.5351 -0.2364
  228MOL0     H31405   8.587   3.785   5.809  0.3589  0.6502 -2.6447
  228MOL0     H31406   8.708   3.889   5.888 -0.5563  1.7982  0.0535
  228MOL0     H31407   8.667   3.807   5.580  2.6056 -0.4654 -2.0606
  228MOL0     H31408   8.770   3.937   5.619 -0.4126  0.0256 -1.3970
  228MOL0     H31409   8.837   3.674   5.600 -0.8197  0.6757 -0.4022
  228MOL0     H31410   8.806   3.683   5.782  1.3190  0.5008  0.5756
  228MOL0     H31411   8.951   3.873   5.795 -1.7182 -1.3961  1.1824
  228MOL0     H31412   9.028   3.715   5.783 -0.5462  1.6345  2.8649
  228MOL0     H31413   9.031   3.669   5.463  1.4487 -1.4248  1.3468
  228MOL0     H31414   9.347   3.803   5.289  0.1741 -0.6273 -1.9907
  228MOL0     H31415   9.203   3.709   5.268 -1.2798  2.2163  1.8899
  228MOL0     H31416   9.439   3.632   5.459 -0.3547  4.6702 -0.4066
  228MOL0     H31417   9.309   3.526   5.373 -1.0612  1.1781 -2.3016
  228MOL0     H31418   9.524   3.482   5.288  0.6420  0.5954 -0.2356
  228MOL0     H31419   9.413   3.553   5.167 -1.2419 -2.6644  0.9667
  228MOL0     H31420   9.509   3.752   5.170  0.2016 -1.2717 -1.1579
  228MOL0     H31421   9.616   3.714   5.314 -1.4759 -3.1490  2.1365
  228MOL0     H31422   9.766   3.841   5.265 -0.5974 -1.3679 -0.5979
  228MOL0     H31423  10.023   4.057   5.230 -0.6239 -0.4963  1.0014
  228MOL0     H31424  10.121   3.930   5.307  0.3270  0.4289 -0.0673
  228MOL0     H31425   9.943   3.960   5.348  1.6901  1.0867  1.1367
  228MOL0     H31426  10.432   3.720   4.786 -0.6342  3.1614 -0.6616
  228MOL0     H31427  10.673   3.753   4.809 -1.8192 -0.1235 -0.5089
  228MOL0     H31428  10.908   3.738   4.887 -0.9504 -1.2783  3.1826
  228MOL0     H31429  10.842   3.904   4.826 -2.1558  0.9535  2.4216
  228MOL0     H31430  11.004   3.997   5.005  1.7519 -0.5093  0.4140
  228MOL0     H31431  11.080   3.839   4.991 -2.3962  0.5798  3.6933
  228MOL0     H31432  11.166   4.030   4.846  0.1170 -0.0033  1.4332
  228MOL0     H31433  11.016   4.019   4.751 -0.1122 -0.5915 -0.7324
  228MOL0     H31434  11.059   3.809   4.667  0.9457  1.4028 -3.1105
  228MOL0     H31435  11.176   3.770   4.807 -0.0278  2.0276  1.1119
  228MOL0     H31436  11.219   3.917   4.545  0.9350  1.0348  0.4373
  228MOL0     H31437  11.322   3.943   4.691  1.3371  0.9555 -1.4249
  228MOL0     H31438  11.277   3.677   4.538 -0.1374  0.6469 -0.9997
  228MOL0     H31439  11.375   3.694   4.680 -0.6430 -0.9025  0.8877
  228MOL0     H31440  11.537   3.838   4.545 -0.8448 -1.3925  1.3985
  228MOL0     H31441  11.410   3.866   4.420  3.7414  1.7835 -0.3845
  228MOL0     H31442  11.406   3.648   4.354  0.0188 -0.8707  1.2176
  228MOL0     H31443  11.497   3.581   4.486 -0.1774 -2.4559 -3.7214
  228MOL0     H31444  10.630   3.894   5.207 -0.2858 -0.1996  0.5673
  228MOL0     H31445  10.371   3.844   5.179 -3.6388 -0.4310 -3.1842
  228MOL0     H31446  10.050   3.663   4.919 -1.1062  2.3528 -1.7806
  228MOL0     H31447   9.819   3.578   4.943  1.9022 -1.3102  0.0212
  228MOL0     H31448   8.154   3.642   5.818 -0.0165 -1.3942 -0.1604
  228MOL0     H31449   7.949   3.558   5.930 -1.5220  0.6151 -0.9954
  228MOL0     H31450   7.641   3.450   6.005 -0.5286  0.5247  0.5027
  228MOL0     H31451   7.484   3.272   6.101 -0.8065  0.1717 -0.2181
  228MOL0     H31452   7.112   3.430   6.256  0.8788  0.7324 -0.6419
  228MOL0     H31453   7.093   3.256   6.287  2.1248 -1.8228  2.1408
  228MOL0     H31454   7.216   3.453   6.468  0.8335 -0.1203 -3.1212
  228MOL0     H31455   7.202   3.268   6.494  1.2992  0.0563 -0.3117
  228MOL0     H31456   6.970   3.468   6.482  3.1538  1.3285  1.1352
  228MOL0     H31457   6.953   3.291   6.452  2.6444  0.4073 -3.1189
  228MOL0     H31458   7.027   3.428   6.717 -2.2636 -0.8379  2.1805
  228MOL0     H31459   7.028   3.256   6.698 -0.8848 -0.2598  1.1023
  228MOL0     H31460   6.626   3.380   6.733  0.3679 -0.6593 -4.1229
  228MOL0     H31461   7.276   3.578   6.305 -0.1476 -1.0888  0.7331
  228MOL0     H31462   7.462   3.838   6.291 -1.3765 -0.3255  2.0458
  228MOL0     H31463   7.383   3.857   6.131 -1.3064  0.5435  0.4328
  228MOL0     H31464   7.301   3.782   6.270 -1.1249 -0.6505 -1.7785
  229MOL0     O31465   1.823   2.383   0.977 -0.0029  0.3084  0.8280
  229MOL0     C31466   1.795   2.264   0.946 -0.7144  0.6921 -0.3714
  229MOL0     O31467   1.884   2.163   0.948  0.8350  0.0889 -0.1215
  229MOL0     C31468   2.000   2.175   1.015 -0.2520 -0.3305  0.5024
  229MOL0     C31469   2.113   2.116   0.953 -0.4389 -0.9208 -0.7007
  229MOL0     C31470   2.239   2.112   1.018  0.1722 -0.5540  0.0129
  229MOL0     C31471   2.256   2.177   1.136 -0.2003 -0.6653  0.0101
  229MOL0     O31472   2.382   2.193   1.206  1.4139  0.2483  0.5231
  229MOL0     C31473   2.453   2.076   1.238  0.2927  0.5315 -0.4554
  229MOL0     C31474   2.566   2.109   1.332  0.3950  0.3244 -0.5199
  229MOL0     C31475   2.668   1.987   1.340  0.1082 -0.0645 -0.1433
  229MOL0     C31476   2.810   2.043   1.358 -0.2560 -0.0465  0.3574
  229MOL0     C31477   2.906   1.931   1.402 -0.2238  0.2743  0.2514
  229MOL0     C31478   3.045   1.985   1.416  0.0395  0.1082 -0.1853
  229MOL0     C31479   3.111   1.961   1.557 -0.1637  0.4673 -0.1137
  229MOL0     C31480   3.242   2.041   1.574  0.0029  0.2459 -0.9390
  229MOL0     N31481   3.346   2.017   1.476  0.2566  0.7349  0.5344
  229MOL0     C31482   3.470   2.022   1.511  0.1200  0.4271  0.0262
  229MOL0     C31483   3.546   2.039   1.398  0.5357 -0.4535  0.2963
  229MOL0     C31484   3.691   2.050   1.382  0.3604  0.4387  0.0648
  229MOL0     C31485   3.737   1.974   1.249 -0.0400  0.4474  0.6968
  229MOL0     C31486   3.899   1.980   1.244  0.4035  0.3512 -0.2708
  229MOL0     C31487   3.949   1.979   1.095 -0.2021  0.0123  0.5296
  229MOL0     O31488   4.077   1.913   1.087  0.1558  0.3408 -0.2090
  229MOL0     C31489   4.193   1.975   1.130  0.1595 -0.6088  0.5278
  229MOL0     C31490   4.196   2.107   1.183  0.6982 -0.7257  0.9322
  229MOL0     C31491   4.324   2.162   1.210 -0.6097 -0.9607 -0.9242
  229MOL0     C31492   4.322   2.307   1.246 -0.0871 -1.1558 -0.0828
  229MOL0     C31493   4.442   2.088   1.199  0.6267 -0.5846 -0.5110
  229MOL0     C31494   4.576   2.150   1.212 -0.1914  1.0484  0.4216
  229MOL0     O31495   4.660   2.135   1.097 -0.3274  0.6378  0.1719
  229MOL0     C31496   4.792   2.182   1.106  0.0100 -0.3298 -0.5233
  229MOL0     C31497   4.880   2.124   1.198 -0.1151  0.1055 -0.0999
  229MOL0     C31498   5.012   2.164   1.203  0.3598 -0.3364 -0.0933
  229MOL0     C31499   5.067   2.248   1.108  0.7658 -0.2157 -0.1172
  229MOL0     O31500   5.202   2.270   1.100  0.5965 -0.2456 -0.5280
  229MOL0     C31501   5.263   2.236   0.971  0.0853 -0.0640 -0.4021
  229MOL0     C31502   5.276   2.085   0.954 -0.8243  0.8262  0.2958
  229MOL0     C31503   5.352   2.047   0.829  0.3505  0.2200  0.3643
  229MOL0     C31504   5.370   1.897   0.816 -0.6096 -0.5119 -0.4142
  229MOL0     C31505   5.465   1.871   0.710  2.2980  0.9854  1.0705
  229MOL0     C31506   5.614   1.849   0.756 -0.2536 -0.7094  0.3387
  229MOL0     C31507   5.703   1.863   0.631 -0.6139 -0.4262  0.1560
  229MOL0     C31508   5.841   1.787   0.650  0.3914 -0.1903 -0.0777
  229MOL0    Cl31509   5.922   1.870   0.785 -0.0360  0.3272  0.0789
  229MOL0     C31510   4.976   2.303   1.014 -0.4419 -1.0664  0.2556
  229MOL0     C31511   4.839   2.280   1.010  0.0341  0.2429 -0.2361
  229MOL0     O31512   4.615   2.184   1.320  0.2368  0.3627 -0.4889
  229MOL0     C31513   4.431   1.956   1.148  0.4608  1.7585 -0.7540
  229MOL0     C31514   4.307   1.901   1.117  0.5922  0.0921 -0.7187
  229MOL0     N31515   3.457   2.030   1.294  1.0161 -0.9522 -0.5882
  229MOL0     N31516   3.339   2.012   1.340  0.1307 -0.2037  0.0765
  229MOL0     C31517   2.143   2.251   1.189 -0.9103 -1.3476  0.0549
  229MOL0     C31518   2.018   2.238   1.135  0.0376 -1.2605  0.1733
  229MOL0     C31519   1.671   2.238   0.871  0.1695  0.0625  0.4617
  229MOL0     C31520   1.667   2.125   0.786  0.2285 -0.0624 -0.4257
  229MOL0     C31521   1.552   2.111   0.704 -0.3889 -0.5222 -0.2067
  229MOL0     C31522   1.427   2.179   0.725 -0.0635 -0.5849 -1.0655
  229MOL0     O31523   1.308   2.170   0.662 -0.6753  0.3167 -0.2688
  229MOL0     C31524   1.261   2.054   0.587  0.4280 -0.0820  0.9710
  229MOL0     C31525   1.190   2.100   0.461 -0.9397  0.2539 -0.0017
  229MOL0     C31526   1.295   2.147   0.351  0.7862 -0.9548 -0.0824
  229MOL0     C31527   1.228   2.186   0.215  0.1828  0.7617 -0.1823
  229MOL0     C31528   1.155   2.070   0.155  0.1241 -0.1538  0.1418
  229MOL0     C31529   1.095   1.973   0.106 -0.7515  0.2203  0.1288
  229MOL0     C31530   1.436   2.284   0.813 -0.0421 -0.2871 -0.6547
  229MOL0     C31531   1.559   2.323   0.872  0.0324  0.1561 -0.7542
  229MOL0     C31532   1.547   2.443   0.953  1.1437 -0.4919 -0.0554
  229MOL0     H31533   2.110   2.087   0.848 -0.5765 -1.7704 -0.4696
  229MOL0     H31534   2.328   2.074   0.969  0.9460 -0.0587  1.0029
  229MOL0     H31535   2.490   2.024   1.150 -1.5353  0.1491 -1.0407
  229MOL0     H31536   2.393   2.000   1.290  1.2148  0.4443  0.5029
  229MOL0     H31537   2.619   2.200   1.303 -0.1143  0.2190 -1.8431
  229MOL0     H31538   2.525   2.130   1.431  0.2916  1.4728 -0.8025
  229MOL0     H31539   2.635   1.924   1.422 -1.4087 -2.2380 -2.2836
  229MOL0     H31540   2.658   1.923   1.252  0.4296 -1.6652  0.9477
  229MOL0     H31541   2.852   2.079   1.263 -4.3893  0.7783 -1.3658
  229MOL0     H31542   2.814   2.130   1.424 -0.0944  0.8819 -0.8263
  229MOL0     H31543   2.900   1.855   1.324 -0.8457 -1.2056  1.6616
  229MOL0     H31544   2.860   1.876   1.485 -0.8754 -0.6529 -0.6961
  229MOL0     H31545   3.108   1.938   1.340  0.0578  0.4954 -0.4151
  229MOL0     H31546   3.039   2.092   1.392  0.2951  0.3069  0.6018
  229MOL0     H31547   3.111   1.854   1.581 -0.7936 -0.3318 -3.2215
  229MOL0     H31548   3.045   2.003   1.634  1.4857  3.4279 -0.1659
  229MOL0     H31549   3.216   2.147   1.571 -2.7831  0.1730  5.2067
  229MOL0     H31550   3.282   2.041   1.676 -2.6814 -1.1200  0.2140
  229MOL0     H31551   3.504   2.025   1.614 -1.0407 -1.9064  0.5558
  229MOL0     H31552   3.736   2.005   1.471  1.0112  2.3177  0.7467
  229MOL0     H31553   3.727   2.154   1.383  2.2152 -0.0667  3.5489
  229MOL0     H31554   3.715   1.867   1.255 -3.0136  0.8238 -1.1094
  229MOL0     H31555   3.688   2.012   1.158  0.3197 -0.0206  0.2986
  229MOL0     H31556   3.928   2.078   1.282 -0.4170  1.1575 -1.6066
  229MOL0     H31557   3.936   1.888   1.290 -0.1709  0.1832 -0.1358
  229MOL0     H31558   3.881   1.919   1.033  0.5555  0.1598 -0.4818
  229MOL0     H31559   3.948   2.070   1.034  2.5212 -1.6103 -2.2745
  229MOL0     H31560   4.106   2.162   1.207  2.2529  2.1325  0.6863
  229MOL0     H31561   4.303   2.368   1.157  0.3827  2.3572  1.9971
  229MOL0     H31562   4.417   2.335   1.294 -0.5432  0.8764 -0.2708
  229MOL0     H31563   4.237   2.324   1.313 -0.9228 -0.0028 -1.3812
  229MOL0     H31564   4.843   2.050   1.268  1.9267 -0.0728  0.8767
  229MOL0     H31565   5.085   2.132   1.277  1.0788  3.2043  0.8992
  229MOL0     H31566   5.197   2.276   0.894 -1.1783  1.9284  1.5544
  229MOL0     H31567   5.361   2.282   0.958  0.3126 -0.7632 -1.1937
  229MOL0     H31568   5.317   2.044   1.047 -0.9102 -1.1014 -0.4544
  229MOL0     H31569   5.177   2.038   0.950  0.7689 -2.8271 -2.7110
  229MOL0     H31570   5.448   2.098   0.828  1.3067 -1.2381  3.4933
  229MOL0     H31571   5.285   2.081   0.750  0.9734  1.1482  0.2289
  229MOL0     H31572   5.272   1.858   0.787 -0.6271  0.6816 -2.0908
  229MOL0     H31573   5.407   1.859   0.911 -3.3186 -1.1789  0.4536
  229MOL0     H31574   5.432   1.784   0.651 -0.0669  1.6446  1.3204
  229MOL0     H31575   5.446   1.949   0.636 -2.0183 -0.4199  0.3834
  229MOL0     H31576   5.614   1.746   0.795  0.0866 -0.4844  0.9317
  229MOL0     H31577   5.634   1.928   0.829  1.0225  0.2785 -1.0210
  229MOL0     H31578   5.722   1.971   0.626 -0.0644 -0.3857  2.0949
  229MOL0     H31579   5.661   1.830   0.536  2.1473  0.3684 -1.4663
  229MOL0     H31580   5.903   1.797   0.561  0.3476 -3.3149 -0.5513
  229MOL0     H31581   5.812   1.684   0.673 -2.7545  0.9551  1.7549
  229MOL0     H31582   5.022   2.368   0.940  0.1958 -1.3866  0.3537
  229MOL0     H31583   4.779   2.338   0.941 -1.4498 -1.1827 -0.2133
  229MOL0     H31584   4.522   1.898   1.151  0.1434  1.3064  0.4341
  229MOL0     H31585   4.293   1.804   1.069 -0.8778 -0.2358  0.2928
  229MOL0     H31586   2.148   2.319   1.273  2.9884  1.0605 -1.8071
  229MOL0     H31587   1.931   2.285   1.180 -0.2468 -1.3692 -0.2497
  229MOL0     H31588   1.747   2.051   0.781  0.6373  0.2546  0.8832
  229MOL0     H31589   1.539   2.031   0.632  1.2873  0.8037 -2.1151
  229MOL0     H31590   1.336   1.979   0.564 -0.5881 -0.4556 -1.4553
  229MOL0     H31591   1.184   2.006   0.648 -0.8558  0.1872 -0.3595
  229MOL0     H31592   1.133   2.188   0.493 -2.6274 -0.9061  0.2646
  229MOL0     H31593   1.119   2.027   0.421 -1.1418  0.6753 -0.4300
  229MOL0     H31594   1.345   2.230   0.402 -0.5550 -0.7087  0.8824
  229MOL0     H31595   1.377   2.077   0.334  1.1902 -0.0810 -2.0667
  229MOL0     H31596   1.301   2.225   0.143 -2.5736  2.8145 -2.0873
  229MOL0     H31597   1.161   2.269   0.236  2.1885  1.8781  2.3754
  229MOL0     H31598   1.042   1.884   0.076 -1.9694  0.7990  0.4975
  229MOL0     H31599   1.348   2.347   0.817 -0.6744 -1.1910  0.0975
  229MOL0     H31600   1.613   2.524   0.921 -0.8727  1.1047 -0.4201
  229MOL0     H31601   1.444   2.480   0.959 -0.2382 -4.0896  0.6911
  229MOL0     H31602   1.591   2.430   1.053 -1.1654 -2.2149  0.8200
  230MOL0     O31603  10.079  10.437   3.847  0.3041  0.3358  0.0882
  230MOL0     C31604   9.987  10.487   3.906  0.3964 -0.7782  0.3245
  230MOL0     O31605  10.001  10.574   4.001 -0.0941 -0.0629 -0.5689
  230MOL0     C31606  10.130  10.614   4.036 -0.3398  0.4468  0.1862
  230MOL0     C31607  10.241  10.531   4.060 -0.0221  0.6431  0.5144
  230MOL0     C31608  10.368  10.576   4.092 -0.1349 -0.2345 -0.3426
  230MOL0     C31609  10.391  10.716   4.089  0.3363  0.0699 -0.4043
  230MOL0     O31610  10.517  10.767   4.114  0.3524 -0.5867  0.1972
  230MOL0     C31611  10.546  10.910   4.127  0.2296 -0.0904  0.6193
  230MOL0     C31612  10.686  10.934   4.169 -0.3202 -0.5592 -0.1991
  230MOL0     C31613  10.728  10.877   4.308  0.1498 -0.8192 -0.9051
  230MOL0     C31614  10.659  10.948   4.424 -0.8141 -0.0440 -0.3050
  230MOL0     C31615  10.720  10.878   4.557  0.2683 -0.7905 -0.8554
  230MOL0     C31616  10.660  10.926   4.691  0.2063  0.8646 -0.8539
  230MOL0     C31617  10.703  11.074   4.727  0.1709  0.5877  0.0015
  230MOL0     C31618  10.817  11.088   4.817 -0.5991  0.2491  0.0511
  230MOL0     N31619  10.936  11.020   4.763 -0.1906  0.1678  0.3880
  230MOL0     C31620  10.977  10.896   4.796  0.3667  0.8811  0.1376
  230MOL0     C31621  11.077  10.862   4.718 -0.7226 -0.1778 -1.4080
  230MOL0     C31622  11.137  10.730   4.711  0.2284  0.5694 -0.4882
  230MOL0     C31623  11.293  10.709   4.751  0.0456  0.1948  1.0608
  230MOL0     C31624  11.324  10.562   4.775 -0.1182 -0.2315  0.5161
  230MOL0     C31625  11.470  10.537   4.804  0.1728  0.0526  0.6847
  230MOL0     O31626  11.541  10.560   4.678 -0.0562  0.3982  0.3560
  230MOL0     C31627  11.664  10.515   4.658 -0.3195 -0.6172 -0.6705
  230MOL0     C31628  11.712  10.493   4.528  0.4281  1.0102 -0.5549
  230MOL0     C31629  11.833  10.441   4.495  0.1436 -0.0185  0.2142
  230MOL0     C31630  11.878  10.454   4.356  0.2414  0.2841 -0.4280
  230MOL0     C31631  11.914  10.393   4.604 -0.5037 -1.0981  1.0166
  230MOL0     C31632  12.054  10.332   4.578 -0.4615 -1.3564 -0.9073
  230MOL0     O31633  12.137  10.368   4.675 -0.2189  0.0866 -0.3271
  230MOL0     C31634  12.262  10.305   4.678 -0.3897  0.8245  0.2877
  230MOL0     C31635  12.299  10.246   4.794 -0.0993  0.8880  0.2334
  230MOL0     C31636  12.419  10.184   4.799 -1.0330  0.7570 -0.2436
  230MOL0     C31637  12.511  10.164   4.698  0.0928  0.7442 -0.3153
  230MOL0     O31638  12.625  10.096   4.724 -0.5952 -0.2758 -0.4848
  230MOL0     C31639  12.697  10.031   4.616 -0.2550 -0.3937 -0.1579
  230MOL0     C31640  12.829   9.970   4.664 -0.3889  0.0486 -0.1545
  230MOL0     C31641  12.863   9.855   4.565  0.1266 -0.0862  0.2869
  230MOL0     C31642  12.774   9.735   4.594 -0.0019 -0.2730 -0.2073
  230MOL0     C31643  12.810   9.597   4.542 -0.2774  0.3806 -0.1554
  230MOL0     C31644  12.705   9.482   4.563 -1.0638  0.5070 -0.1722
  230MOL0     C31645  12.740   9.340   4.508 -0.3303  0.7021  0.0774
  230MOL0     C31646  12.871   9.298   4.566 -0.0429 -0.5432  0.1257
  230MOL0    Cl31647  12.908   9.126   4.545 -0.0379  0.7720 -0.2814
  230MOL0     C31648  12.473  10.222   4.575 -0.4208  0.2705  0.0248
  230MOL0     C31649  12.357  10.293   4.568 -0.2817 -0.5194  0.1745
  230MOL0     O31650  12.080  10.267   4.486  0.0038 -0.2451 -0.5930
  230MOL0     C31651  11.876  10.418   4.734 -0.2499 -0.0859  0.3360
  230MOL0     C31652  11.746  10.465   4.761  0.5091  0.2332 -0.1882
  230MOL0     N31653  11.112  10.968   4.640  0.6970  0.1169 -0.2981
  230MOL0     N31654  11.027  11.063   4.667  0.0927 -0.2296 -0.5920
  230MOL0     C31655  10.276  10.801   4.070 -0.2622  0.2283  0.0786
  230MOL0     C31656  10.147  10.745   4.049  0.3872 -0.2804  1.1809
  230MOL0     C31657   9.854  10.444   3.870  0.2576  0.4955  0.6470
  230MOL0     C31658   9.758  10.463   3.965  0.3066  0.4522 -0.9596
  230MOL0     C31659   9.626  10.426   3.942  0.0834 -0.0643  0.3604
  230MOL0     C31660   9.585  10.346   3.836  0.2375  0.1569  0.0772
  230MOL0     O31661   9.448  10.326   3.839 -0.4521  0.1964  0.0252
  230MOL0     C31662   9.382  10.226   3.768 -0.3186 -0.2761 -0.2496
  230MOL0     C31663   9.355  10.104   3.860  0.1102  0.2592  0.0204
  230MOL0     C31664   9.235  10.030   3.816 -0.4255  0.8835  0.1182
  230MOL0     C31665   9.232   9.889   3.890 -0.7458  0.1593 -0.3024
  230MOL0     C31666   9.117   9.803   3.861 -0.5494  0.2247  0.3892
  230MOL0     C31667   9.009   9.745   3.834 -0.7372 -0.9955  0.1395
  230MOL0     C31668   9.681  10.323   3.739 -0.4438  0.2251  0.0053
  230MOL0     C31669   9.816  10.373   3.742  0.0950 -0.0573 -0.4574
  230MOL0     C31670   9.902  10.327   3.625 -0.3803 -0.1085  0.3105
  230MOL0     H31671  10.217  10.425   4.068 -0.2612  0.5400 -1.1336
  230MOL0     H31672  10.449  10.507   4.114 -2.5097 -3.5053 -1.0744
  230MOL0     H31673  10.474  10.941   4.203  0.9773  1.0775  0.8675
  230MOL0     H31674  10.539  10.962   4.031 -2.8989 -4.0093 -1.6182
  230MOL0     H31675  10.748  10.879   4.097 -0.0445 -1.1189  0.4577
  230MOL0     H31676  10.704  11.042   4.168  0.3522 -0.5944  2.0207
  230MOL0     H31677  10.687  10.777   4.292 -2.7658  0.0581  0.2674
  230MOL0     H31678  10.833  10.868   4.335  0.5240  0.6293 -1.7568
  230MOL0     H31679  10.687  11.052   4.409  0.7216 -0.6848 -2.5220
  230MOL0     H31680  10.552  10.931   4.408 -0.4408 -3.8427  0.2310
  230MOL0     H31681  10.825  10.909   4.558  0.1859 -0.5117 -0.7719
  230MOL0     H31682  10.710  10.770   4.543 -1.3820 -0.6702 -0.8207
  230MOL0     H31683  10.553  10.930   4.669 -0.1249 -0.0754  0.5248
  230MOL0     H31684  10.692  10.862   4.773  0.7055  0.8646 -1.0460
  230MOL0     H31685  10.616  11.118   4.776  0.6854  1.8135 -0.1238
  230MOL0     H31686  10.724  11.136   4.639 -0.2046 -0.2577 -0.6920
  230MOL0     H31687  10.848  11.193   4.823 -0.1799  0.1566 -0.4058
  230MOL0     H31688  10.800  11.042   4.915  1.4945 -1.6891 -0.4076
  230MOL0     H31689  10.921  10.836   4.866  1.8231  0.2247  0.7734
  230MOL0     H31690  11.141  10.694   4.607  1.2980  2.1100 -1.0192
  230MOL0     H31691  11.089  10.658   4.778  2.6614 -0.3522  0.3561
  230MOL0     H31692  11.354  10.746   4.668 -1.6394  0.6602 -0.0342
  230MOL0     H31693  11.317  10.777   4.832 -0.0671  1.3291  0.1659
  230MOL0     H31694  11.277  10.527   4.868 -3.1216  1.9931 -0.0478
  230MOL0     H31695  11.286  10.505   4.690  0.2477 -0.8074  0.7282
  230MOL0     H31696  11.521  10.604   4.874  1.4824 -0.0611 -0.1401
  230MOL0     H31697  11.479  10.434   4.840 -0.7433 -0.9167 -1.6241
  230MOL0     H31698  11.642  10.527   4.453 -1.0960  1.5705  1.0551
  230MOL0     H31699  11.828  10.371   4.307 -2.0364  0.4193  1.5370
  230MOL0     H31700  11.987  10.447   4.344  0.3544  2.2527 -1.0289
  230MOL0     H31701  11.838  10.547   4.315 -0.1074  0.7298  0.9044
  230MOL0     H31702  12.242  10.255   4.886  1.1114  2.1016  0.8986
  230MOL0     H31703  12.453  10.154   4.897  0.2846  0.5060 -0.7456
  230MOL0     H31704  12.638   9.956   4.562 -0.4213 -0.2861 -0.1253
  230MOL0     H31705  12.724  10.099   4.535  1.8017 -0.2083  0.6172
  230MOL0     H31706  12.898  10.052   4.644 -2.6174  2.3924  1.1798
  230MOL0     H31707  12.839   9.945   4.770  1.3520  0.6108 -0.1545
  230MOL0     H31708  12.967   9.822   4.573  0.4995  0.7861 -0.7441
  230MOL0     H31709  12.849   9.891   4.463  0.0862  0.4320  0.4760
  230MOL0     H31710  12.678   9.748   4.544 -1.2741 -1.0793  1.8865
  230MOL0     H31711  12.769   9.717   4.702  0.8675  0.9539  0.0658
  230MOL0     H31712  12.818   9.608   4.434 -2.3798  3.3589 -0.1496
  230MOL0     H31713  12.906   9.564   4.582 -0.7545 -1.2759 -0.3228
  230MOL0     H31714  12.610   9.506   4.514 -0.3395  2.1209 -0.8396
  230MOL0     H31715  12.691   9.469   4.671 -0.9124 -0.2764 -0.2435
  230MOL0     H31716  12.747   9.344   4.399  1.0624 -2.4395 -0.0632
  230MOL0     H31717  12.666   9.265   4.538 -0.4318  0.8478  0.1935
  230MOL0     H31718  12.868   9.318   4.673  1.6446 -2.4343  0.5930
  230MOL0     H31719  12.952   9.349   4.513  2.4452 -3.8613  0.3875
  230MOL0     H31720  12.538  10.205   4.490  1.2857 -0.5717  1.4355
  230MOL0     H31721  12.335  10.327   4.468  1.0965 -0.7198 -0.2159
  230MOL0     H31722  11.940  10.387   4.816 -1.9444  0.5481  1.9692
  230MOL0     H31723  11.717  10.469   4.866 -3.2144 -4.4863 -0.6761
  230MOL0     H31724  10.283  10.908   4.083 -1.0904  0.2956  0.0247
  230MOL0     H31725  10.062  10.811   4.059  1.0023  0.6104  0.6747
  230MOL0     H31726   9.771  10.509   4.062 -3.1334  1.1654 -0.6816
  230MOL0     H31727   9.562  10.464   4.021  0.1946 -0.4345  0.6311
  230MOL0     H31728   9.292  10.280   3.737 -0.2503  1.9592  2.9852
  230MOL0     H31729   9.433  10.196   3.676  0.5297  2.7781 -0.8618
  230MOL0     H31730   9.339  10.144   3.961  0.6749 -0.7719  0.5349
  230MOL0     H31731   9.439  10.034   3.859 -0.5824 -0.5954  0.3233
  230MOL0     H31732   9.141  10.082   3.836 -1.4360 -1.6899  2.9446
  230MOL0     H31733   9.252  10.030   3.708  2.0347  2.2532  0.4411
  230MOL0     H31734   9.232   9.905   3.999  2.0630  0.1128 -0.2369
  230MOL0     H31735   9.329   9.841   3.877 -1.0556 -0.4233 -0.4608
  230MOL0     H31736   8.917   9.692   3.820 -1.3631  0.0271  0.2083
  230MOL0     H31737   9.648  10.267   3.651  3.2923  1.0853 -2.1835
  230MOL0     H31738   9.846  10.241   3.588  0.4044 -0.7030  0.4566
  230MOL0     H31739   9.924  10.389   3.538 -1.3118 -1.2250 -0.7526
  230MOL0     H31740   9.994  10.293   3.675  0.4284  0.6982 -0.5877
  231MOL0     O31741   3.913   4.312   6.591 -0.0200  0.5111  0.2019
  231MOL0     C31742   3.926   4.307   6.474  0.6153  0.5269 -1.1543
  231MOL0     O31743   4.007   4.209   6.418 -0.4895  0.2130 -0.4545
  231MOL0     C31744   4.059   4.115   6.500  0.7703 -0.4274 -0.6123
  231MOL0     C31745   4.157   4.138   6.590 -0.7303  0.4599  0.0590
  231MOL0     C31746   4.209   4.035   6.662  0.0235 -0.7071 -0.4248
  231MOL0     C31747   4.166   3.901   6.636 -0.5784 -0.2351  0.2074
  231MOL0     O31748   4.218   3.787   6.698 -0.1158 -0.1152 -0.0157
  231MOL0     C31749   4.327   3.797   6.790  0.2549 -0.1301 -0.0541
  231MOL0     C31750   4.314   3.660   6.872 -0.5019 -0.0780  0.5169
  231MOL0     C31751   4.421   3.632   6.972 -0.6023  0.8561  0.2290
  231MOL0     C31752   4.385   3.514   7.074 -0.5479  0.7089  0.5521
  231MOL0     C31753   4.506   3.469   7.153 -0.4005  0.3417  0.1051
  231MOL0     C31754   4.559   3.567   7.258  0.7848 -0.0177  1.1463
  231MOL0     C31755   4.682   3.524   7.321 -0.7356  0.3854 -0.2594
  231MOL0     C31756   4.711   3.616   7.448  0.2124 -1.1010  0.9495
  231MOL0     N31757   4.841   3.585   7.506  0.3036  0.1281  0.2726
  231MOL0     C31758   4.872   3.537   7.626 -0.2140  0.1257  0.6530
  231MOL0     C31759   5.006   3.532   7.640  0.0411  0.9329  0.0406
  231MOL0     C31760   5.084   3.473   7.759 -0.6139 -0.2029  0.4318
  231MOL0     C31761   5.195   3.378   7.712  0.0720  0.0125  0.1789
  231MOL0     C31762   5.238   3.280   7.829 -0.7377  0.2342  0.6691
  231MOL0     C31763   5.344   3.188   7.775  1.6538  0.2883 -0.9350
  231MOL0     O31764   5.334   3.069   7.855 -0.5851 -0.5663  0.3740
  231MOL0     C31765   5.402   3.071   7.980  0.7465 -0.4976  0.1232
  231MOL0     C31766   5.389   2.963   8.060 -0.7475  0.7357 -0.3210
  231MOL0     C31767   5.439   2.946   8.188  0.0497 -0.2905 -0.3087
  231MOL0     C31768   5.429   2.806   8.254  0.0328 -0.6453  0.6232
  231MOL0     C31769   5.513   3.056   8.239 -0.5755 -0.1825 -0.1571
  231MOL0     C31770   5.567   3.061   8.379  0.4121 -1.1637  0.1947
  231MOL0     O31771   5.648   3.174   8.406 -0.5899 -0.2544  0.8204
  231MOL0     C31772   5.732   3.183   8.512 -0.9179 -0.0980 -0.0939
  231MOL0     C31773   5.759   3.101   8.625  0.3087 -0.1035  0.5056
  231MOL0     C31774   5.868   3.139   8.710  0.2468  0.1114  0.0883
  231MOL0     C31775   5.937   3.254   8.699 -0.1058  0.8390  0.1694
  231MOL0     O31776   6.035   3.295   8.780 -0.2203 -0.2300 -0.1827
  231MOL0     C31777   6.123   3.211   8.846  0.3998  0.1692 -0.5455
  231MOL0     C31778   6.257   3.276   8.904 -0.0828 -0.7026  0.2908
  231MOL0     C31779   6.350   3.321   8.805  0.0638  1.0896 -0.3683
  231MOL0     C31780   6.468   3.404   8.865 -0.0601  0.3773 -0.5001
  231MOL0     C31781   6.584   3.427   8.764  0.2636  0.0163 -0.5353
  231MOL0     C31782   6.696   3.521   8.822  0.1878  0.0616 -0.9127
  231MOL0     C31783   6.810   3.542   8.718  0.9018 -0.0960 -0.2414
  231MOL0     C31784   6.861   3.407   8.668  0.6121  0.1345 -0.2090
  231MOL0    Cl31785   7.021   3.436   8.585 -0.1319  0.0129 -0.0180
  231MOL0     C31786   5.902   3.335   8.592 -0.0755 -0.1865 -0.5419
  231MOL0     C31787   5.797   3.306   8.504 -0.1581 -0.4215 -0.1734
  231MOL0     O31788   5.538   2.972   8.459  0.8395  0.0112 -0.3857
  231MOL0     C31789   5.520   3.169   8.162 -0.4934  0.3813  0.2019
  231MOL0     C31790   5.472   3.181   8.038 -0.0444  0.2849 -0.3100
  231MOL0     N31791   5.055   3.599   7.532  0.2144  0.8392  0.3217
  231MOL0     N31792   4.955   3.633   7.451  0.1279 -0.1878 -0.5513
  231MOL0     C31793   4.057   3.882   6.549 -0.6461  0.3194  0.1660
  231MOL0     C31794   4.009   3.985   6.476 -0.3192 -0.2253 -0.4012
  231MOL0     C31795   3.847   4.394   6.392  0.7117 -0.5972  0.7914
  231MOL0     C31796   3.917   4.429   6.278 -0.2586  0.8965 -0.7015
  231MOL0     C31797   3.850   4.513   6.191  0.1413  0.1292 -0.1631
  231MOL0     C31798   3.727   4.566   6.208  0.2832 -0.0662  0.0184
  231MOL0     O31799   3.670   4.624   6.099 -0.2779 -0.3508  0.0931
  231MOL0     C31800   3.601   4.747   6.133 -0.5909  0.3819  0.2121
  231MOL0     C31801   3.563   4.803   6.006 -0.1720 -1.3695 -0.3145
  231MOL0     C31802   3.519   4.955   6.036  0.1065 -0.1349  0.2655
  231MOL0     C31803   3.431   5.011   5.919 -0.9509 -0.2085 -0.3433
  231MOL0     C31804   3.301   4.940   5.922 -0.7038 -0.6261  0.8375
  231MOL0     C31805   3.197   4.866   5.907  0.4235  0.1138 -0.2135
  231MOL0     C31806   3.657   4.529   6.321 -0.0809 -0.5723  0.1862
  231MOL0     C31807   3.720   4.453   6.424 -0.4574  0.7664 -0.5491
  231MOL0     C31808   3.639   4.428   6.545  0.4808  0.3129  0.0706
  231MOL0     H31809   4.190   4.240   6.605  0.3919  0.0686  0.4064
  231MOL0     H31810   4.289   4.048   6.734 -0.9068  2.1725  0.2139
  231MOL0     H31811   4.313   3.874   6.867 -2.9937 -1.2765  0.6678
  231MOL0     H31812   4.425   3.815   6.746  0.9976  0.0438  1.5834
  231MOL0     H31813   4.214   3.650   6.916 -0.2609  0.1538  1.1313
  231MOL0     H31814   4.327   3.578   6.801  0.5522  0.1625  0.4190
  231MOL0     H31815   4.504   3.600   6.909  1.3622  0.4332  2.8718
  231MOL0     H31816   4.458   3.715   7.033  0.8373  0.3572  0.0661
  231MOL0     H31817   4.304   3.545   7.140 -2.3590 -1.5463 -0.4399
  231MOL0     H31818   4.354   3.431   7.009  1.4956  0.5999 -0.3514
  231MOL0     H31819   4.583   3.445   7.079 -0.6298  1.1474 -0.4160
  231MOL0     H31820   4.490   3.376   7.208 -0.6855 -0.3164 -1.0576
  231MOL0     H31821   4.588   3.664   7.217 -1.9559 -0.2390 -1.7102
  231MOL0     H31822   4.481   3.580   7.334 -1.0384 -1.6461 -0.3093
  231MOL0     H31823   4.763   3.536   7.249 -0.6480 -1.6004 -0.5488
  231MOL0     H31824   4.677   3.418   7.349 -0.2029  0.3622 -0.2432
  231MOL0     H31825   4.704   3.722   7.423  0.1342 -1.6487 -1.5374
  231MOL0     H31826   4.641   3.589   7.527 -0.1202 -0.7680  0.7683
  231MOL0     H31827   4.795   3.498   7.693 -0.5819  1.1152  0.8216
  231MOL0     H31828   5.005   3.421   7.813 -1.8988  1.3130  0.1094
  231MOL0     H31829   5.117   3.551   7.828  0.0670  0.6766 -0.8273
  231MOL0     H31830   5.156   3.323   7.626 -1.8820  1.3969  0.1200
  231MOL0     H31831   5.279   3.434   7.669 -1.0660  0.5995 -1.3618
  231MOL0     H31832   5.291   3.335   7.907  1.4395  0.3997 -0.8415
  231MOL0     H31833   5.152   3.219   7.859 -2.3723  2.3793  0.5459
  231MOL0     H31834   5.310   3.156   7.676 -2.5099  2.3273 -0.3846
  231MOL0     H31835   5.445   3.230   7.780  1.3681  0.8534  0.6997
  231MOL0     H31836   5.333   2.881   8.015 -0.0283  0.0537  0.0094
  231MOL0     H31837   5.529   2.761   8.257  0.0310 -0.7749 -0.6076
  231MOL0     H31838   5.362   2.738   8.201 -0.1354 -1.3202  1.6615
  231MOL0     H31839   5.393   2.819   8.356 -1.2066  1.5643 -0.0335
  231MOL0     H31840   5.707   3.006   8.634  0.9863 -1.0982 -3.7766
  231MOL0     H31841   5.887   3.057   8.779 -4.3122 -0.4953  0.9510
  231MOL0     H31842   6.074   3.172   8.936 -0.5690  1.7650 -0.3382
  231MOL0     H31843   6.141   3.128   8.778 -0.6073 -0.8270  0.3532
  231MOL0     H31844   6.236   3.357   8.975  2.5773  0.4900 -0.1139
  231MOL0     H31845   6.314   3.205   8.964  1.9204 -1.4782 -2.3365
  231MOL0     H31846   6.287   3.372   8.732 -2.4595 -0.7103  0.4254
  231MOL0     H31847   6.390   3.226   8.766  0.6966  1.3943 -0.4738
  231MOL0     H31848   6.493   3.352   8.958  1.2645  1.8647  0.0201
  231MOL0     H31849   6.432   3.502   8.896  0.2221  1.8617 -4.3295
  231MOL0     H31850   6.625   3.330   8.735  0.6187  0.1690 -0.5492
  231MOL0     H31851   6.535   3.472   8.678  1.4316 -1.9818 -2.3372
  231MOL0     H31852   6.738   3.485   8.916 -1.0438 -2.8245 -1.3652
  231MOL0     H31853   6.661   3.624   8.836 -0.5391 -0.3726  0.6121
  231MOL0     H31854   6.893   3.589   8.772  0.6224 -0.0176  0.1264
  231MOL0     H31855   6.769   3.600   8.635 -0.7958 -1.2998 -0.3048
  231MOL0     H31856   6.787   3.367   8.599 -0.8617 -0.1438  1.4425
  231MOL0     H31857   6.862   3.337   8.752 -2.1095 -1.5482 -1.4318
  231MOL0     H31858   5.958   3.428   8.584 -0.3893  0.0061 -0.4962
  231MOL0     H31859   5.769   3.370   8.421 -1.7914  1.4915  1.7251
  231MOL0     H31860   5.573   3.261   8.187  2.0403 -0.9678  0.1248
  231MOL0     H31861   5.475   3.278   7.990 -1.3905  0.5954  0.1935
  231MOL0     H31862   4.015   3.785   6.521  0.8459 -0.4080  0.3657
  231MOL0     H31863   3.913   3.978   6.425 -1.5545 -3.4151  2.0625
  231MOL0     H31864   4.012   4.383   6.254 -0.6853 -1.4597  1.5761
  231MOL0     H31865   3.902   4.530   6.097  0.2059 -0.2021 -0.1903
  231MOL0     H31866   3.513   4.742   6.198  0.0284  0.2964  1.0611
  231MOL0     H31867   3.672   4.813   6.185  1.5860 -2.4529  1.1098
  231MOL0     H31868   3.475   4.751   5.968 -2.2226  0.6729  1.3245
  231MOL0     H31869   3.644   4.793   5.933 -0.6972 -1.3510 -0.9041
  231MOL0     H31870   3.458   4.964   6.126  0.6104  0.6818  0.5328
  231MOL0     H31871   3.604   5.021   6.053 -0.1182  0.2166  0.0432
  231MOL0     H31872   3.474   5.017   5.819 -0.0069 -1.1503 -0.0034
  231MOL0     H31873   3.415   5.116   5.947  0.0973 -0.0828 -0.2067
  231MOL0     H31874   3.107   4.813   5.883 -0.6279  1.4378  0.6828
  231MOL0     H31875   3.562   4.578   6.340  0.7343  1.2937 -0.3331
  231MOL0     H31876   3.620   4.322   6.562 -0.7708  0.2301 -1.6447
  231MOL0     H31877   3.691   4.468   6.633  4.2364 -1.1448 -1.3032
  231MOL0     H31878   3.535   4.457   6.525  0.0469 -1.2496 -0.0264
  232MOL0     O31879   5.192   9.443  10.645 -0.8379  0.4035 -0.1302
  232MOL0     C31880   5.141   9.557  10.645 -0.2177 -0.4986  0.4714
  232MOL0     O31881   5.205   9.677  10.603  0.5726 -0.2716  0.5619
  232MOL0     C31882   5.339   9.684  10.590 -0.2332  0.2492  0.6924
  232MOL0     C31883   5.424   9.619  10.680  1.0209 -0.7064  0.1724
  232MOL0     C31884   5.560   9.629  10.674  0.2811  0.4677 -0.1006
  232MOL0     C31885   5.625   9.728  10.594 -0.1923 -0.4680 -0.2887
  232MOL0     O31886   5.766   9.746  10.598  0.3988 -0.5015 -0.4038
  232MOL0     C31887   5.856   9.649  10.647  0.5504  0.1590  0.1785
  232MOL0     C31888   6.000   9.686  10.659 -0.3045 -0.9788 -0.4052
  232MOL0     C31889   6.090   9.560  10.661  0.3007  0.0391 -0.2955
  232MOL0     C31890   6.242   9.586  10.641 -0.7446 -0.2017  0.3521
  232MOL0     C31891   6.321   9.639  10.759  0.1955 -0.6268  0.5927
  232MOL0     C31892   6.471   9.643  10.733  0.0317 -0.4440 -0.5824
  232MOL0     C31893   6.560   9.714  10.846 -0.2980 -0.0348 -0.5602
  232MOL0     C31894   6.690   9.741  10.782 -0.3178 -0.2426  0.2719
  232MOL0     N31895   6.797   9.750  10.885  0.0323  0.2366  0.6684
  232MOL0     C31896   6.833   9.854  10.954  0.3932 -0.6344  0.8633
  232MOL0     C31897   6.951   9.827  11.004  0.5937  0.0092  1.1536
  232MOL0     C31898   7.044   9.925  11.070 -0.9626  0.7233  0.2262
  232MOL0     C31899   7.107  10.016  10.962  0.6831  0.6604  0.3307
  232MOL0     C31900   7.193   9.939  10.855  0.1323 -0.1038 -0.0994
  232MOL0     C31901   7.327   9.891  10.920 -0.6625  0.7170  0.5403
  232MOL0     O31902   7.406   9.989  10.994 -0.3317 -0.1036  0.4006
  232MOL0     C31903   7.515   9.951  11.066 -0.4724 -0.2573 -0.1290
  232MOL0     C31904   7.595   9.848  11.018 -0.3574 -0.6453 -0.6123
  232MOL0     C31905   7.705   9.810  11.099 -0.8622 -0.2288  0.2673
  232MOL0     C31906   7.790   9.690  11.060 -0.0137 -0.5399 -0.3894
  232MOL0     C31907   7.737   9.888  11.210  0.1659 -0.2659  0.9087
  232MOL0     C31908   7.851   9.862  11.308  0.0857 -0.4877  0.2044
  232MOL0     O31909   7.886   9.956  11.396 -0.3786 -0.5554  0.3477
  232MOL0     C31910   8.001   9.962  11.469 -0.8138  0.0713  0.1060
  232MOL0     C31911   8.078   9.857  11.519  0.5993 -0.2716  0.1348
  232MOL0     C31912   8.196   9.884  11.580 -0.7927  0.1311  0.1026
  232MOL0     C31913   8.245  10.014  11.602 -0.5622 -0.3383 -0.2371
  232MOL0     O31914   8.363  10.032  11.669 -0.2316  0.3698 -0.2896
  232MOL0     C31915   8.429  10.158  11.646  0.7418 -0.8328  0.2465
  232MOL0     C31916   8.578  10.135  11.655  0.4500 -0.0488  0.4574
  232MOL0     C31917   8.630  10.063  11.523  0.4064  0.4862 -0.2690
  232MOL0     C31918   8.778  10.037  11.525  0.0985  0.5810 -0.2680
  232MOL0     C31919   8.812   9.949  11.405  0.4439 -0.3266  0.2916
  232MOL0     C31920   8.765   9.802  11.397  0.9233  0.0205 -0.2620
  232MOL0     C31921   8.823   9.718  11.282 -0.3755 -0.2049 -0.3053
  232MOL0     C31922   8.795   9.571  11.284  0.4480 -0.3714 -0.8967
  232MOL0    Cl31923   8.842   9.495  11.439 -0.4332 -0.2886  0.1787
  232MOL0     C31924   8.156  10.116  11.572  0.0578 -0.3325  0.9753
  232MOL0     C31925   8.033  10.090  11.509  0.3240  0.1937 -0.4103
  232MOL0     O31926   7.909   9.757  11.289  0.1647  0.0242  0.3034
  232MOL0     C31927   7.656   9.992  11.255  0.5193 -0.3977 -0.7632
  232MOL0     C31928   7.549  10.026  11.183  0.0789 -0.1017  0.4585
  232MOL0     N31929   6.982   9.691  10.973  0.5492 -0.3538  0.2313
  232MOL0     N31930   6.890   9.653  10.897  0.7636  1.0220 -0.3603
  232MOL0     C31931   5.545   9.797  10.506  0.2765 -0.5219 -0.9329
  232MOL0     C31932   5.407   9.772  10.503  0.0507 -0.6222 -0.1612
  232MOL0     C31933   4.997   9.554  10.667 -0.0195 -0.3895  0.6233
  232MOL0     C31934   4.908   9.618  10.578 -0.5277  0.1672  0.7390
  232MOL0     C31935   4.769   9.607  10.598  0.0860  0.4354 -0.1297
  232MOL0     C31936   4.724   9.557  10.715  0.4576 -0.4477  0.3796
  232MOL0     O31937   4.588   9.578  10.761 -1.3716 -0.3598  0.4106
  232MOL0     C31938   4.560   9.716  10.797 -0.3682 -0.9602 -1.0009
  232MOL0     C31939   4.424   9.745  10.743 -0.7227  0.1797 -0.0634
  232MOL0     C31940   4.412   9.885  10.677  0.7604 -0.3771  0.3783
  232MOL0     C31941   4.284   9.907  10.601 -0.2122  0.1843  0.0302
  232MOL0     C31942   4.294   9.828  10.476 -0.6943 -0.4948 -0.0549
  232MOL0     C31943   4.305   9.740  10.396  0.2401 -1.0056  0.0076
  232MOL0     C31944   4.804   9.501  10.806 -0.3778 -0.0656 -0.5509
  232MOL0     C31945   4.940   9.498  10.785  0.5578 -0.1542  0.5082
  232MOL0     C31946   5.029   9.460  10.894  0.1812  1.1694  0.4266
  232MOL0     H31947   5.387   9.533  10.736 -1.0528 -0.8249 -1.2757
  232MOL0     H31948   5.624   9.566  10.736  0.6845  0.0089 -0.9732
  232MOL0     H31949   5.848   9.556  10.589  2.2445  0.4408 -0.5716
  232MOL0     H31950   5.819   9.618  10.745 -1.7526 -4.1976 -1.7857
  232MOL0     H31951   6.018   9.758  10.579 -0.0419 -1.1065 -0.4611
  232MOL0     H31952   6.004   9.745  10.751 -1.9017  0.9908 -1.5253
  232MOL0     H31953   6.072   9.505  10.754 -1.7989  2.0166  0.5617
  232MOL0     H31954   6.052   9.491  10.585  3.6144 -1.4009 -0.8262
  232MOL0     H31955   6.282   9.486  10.626  1.4088  0.5985  0.4567
  232MOL0     H31956   6.274   9.636  10.550  0.5821  1.4855  1.6803
  232MOL0     H31957   6.300   9.578  10.847 -1.0723 -0.9555  0.0809
  232MOL0     H31958   6.284   9.741  10.766 -2.1726 -1.2681 -1.2208
  232MOL0     H31959   6.492   9.536  10.723 -2.2157 -1.4660  3.4715
  232MOL0     H31960   6.491   9.698  10.640  1.0744 -0.6610 -0.4915
  232MOL0     H31961   6.572   9.660  10.941  2.6843 -0.3091 -1.0125
  232MOL0     H31962   6.518   9.811  10.873  1.2377  0.1199  1.5598
  232MOL0     H31963   6.710   9.657  10.715 -2.9683  1.9810 -3.7521
  232MOL0     H31964   6.688   9.830  10.718 -1.5618  0.0811  0.7276
  232MOL0     H31965   6.777   9.946  10.971 -0.5560 -1.0919  0.2713
  232MOL0     H31966   7.126   9.873  11.120  0.0776  0.5890 -1.5359
  232MOL0     H31967   6.985   9.989  11.135 -0.7638  0.3435  0.7861
  232MOL0     H31968   7.025  10.057  10.903  1.6637  0.8283 -0.9632
  232MOL0     H31969   7.154  10.108  10.998  0.7353  1.8285 -2.4417
  232MOL0     H31970   7.129   9.865  10.806 -3.5497  1.5215  1.8573
  232MOL0     H31971   7.214  10.012  10.777  1.4326 -0.6091 -0.2517
  232MOL0     H31972   7.300   9.813  10.992  0.3038  0.9800  1.2199
  232MOL0     H31973   7.385   9.847  10.839  0.8211  4.2552 -0.4958
  232MOL0     H31974   7.583   9.799  10.921  2.2029  0.6336 -1.6815
  232MOL0     H31975   7.771   9.650  10.960  0.3401  2.6473 -1.8227
  232MOL0     H31976   7.777   9.619  11.143  0.3498 -1.0519 -0.7667
  232MOL0     H31977   7.895   9.719  11.048 -0.3424  0.4001 -1.0995
  232MOL0     H31978   8.052   9.752  11.506  1.8610 -0.3721 -2.2694
  232MOL0     H31979   8.247   9.801  11.628 -1.5709  2.0295  4.7190
  232MOL0     H31980   8.411  10.191  11.544  2.0498  0.1296  0.2947
  232MOL0     H31981   8.380  10.232  11.710 -0.9245  0.2193 -2.1152
  232MOL0     H31982   8.636  10.227  11.646  0.6126 -0.2081 -0.1570
  232MOL0     H31983   8.596  10.078  11.747 -0.3945 -0.5109  0.3455
  232MOL0     H31984   8.600  10.134  11.445  1.9207 -0.3321 -1.6413
  232MOL0     H31985   8.576   9.968  11.514 -0.9143  0.9844  1.5849
  232MOL0     H31986   8.815   9.987  11.615 -0.3888  0.1965 -0.2800
  232MOL0     H31987   8.841  10.126  11.523  0.4472  0.3269 -0.8523
  232MOL0     H31988   8.770  10.001  11.318  3.9030 -0.0376 -1.3779
  232MOL0     H31989   8.920   9.942  11.392  0.8613  3.1980  0.9987
  232MOL0     H31990   8.657   9.794  11.381  1.0680  0.2682 -1.4149
  232MOL0     H31991   8.786   9.754  11.493  0.5969 -1.3392 -0.8476
  232MOL0     H31992   8.926   9.740  11.254 -0.4204 -0.8307 -1.0193
  232MOL0     H31993   8.771   9.745  11.190  1.3079 -0.0061 -1.2348
  232MOL0     H31994   8.850   9.519  11.205 -2.0064 -0.1017 -2.9084
  232MOL0     H31995   8.687   9.556  11.272 -0.9255  2.8838  4.0214
  232MOL0     H31996   8.171  10.219  11.603 -0.1257  0.4118 -1.2840
  232MOL0     H31997   7.974  10.175  11.476 -0.3243  0.1390  0.5476
  232MOL0     H31998   7.678  10.045  11.348  1.8136 -3.7938  1.0464
  232MOL0     H31999   7.498  10.118  11.208 -1.4691 -0.8808  0.2789
  232MOL0     H32000   5.586   9.866  10.432 -2.1815 -0.3126 -2.1734
  232MOL0     H32001   5.343   9.826  10.434 -1.3987 -1.5125  0.4221
  232MOL0     H32002   4.949   9.671  10.492 -0.6751  2.9982  2.2835
  232MOL0     H32003   4.689   9.654  10.542  0.4796  0.4247 -0.7199
  232MOL0     H32004   4.562   9.747  10.902 -2.8791 -0.6727 -0.9696
  232MOL0     H32005   4.636   9.777  10.746  1.3646 -5.5616 -4.6258
  232MOL0     H32006   4.360   9.737  10.831  0.9254 -1.4984  1.0710
  232MOL0     H32007   4.397   9.661  10.678  0.3022 -0.0322 -0.2409
  232MOL0     H32008   4.434   9.964  10.750  0.0150  0.6383 -0.4608
  232MOL0     H32009   4.495   9.901  10.607  0.1975  1.9049  0.1500
  232MOL0     H32010   4.272  10.008  10.563 -1.7256  1.9529  4.4991
  232MOL0     H32011   4.197   9.884  10.663  0.6715 -0.6920  0.9826
  232MOL0     H32012   4.287   9.653  10.336  1.6849 -1.6143  0.3918
  232MOL0     H32013   4.764   9.472  10.903 -0.3315  0.9659 -0.2146
  232MOL0     H32014   4.988   9.380  10.956  0.6695  0.5110 -0.0821
  232MOL0     H32015   5.125   9.415  10.868 -1.0761 -2.8236  1.9154
  232MOL0     H32016   5.049   9.551  10.951  0.9594  1.0669  0.3267
  233MOL0     O32017   5.845   7.351   6.455  0.0567  0.4809 -0.5361
  233MOL0     C32018   5.846   7.263   6.542  0.0737  0.4188  0.4326
  233MOL0     O32019   5.858   7.282   6.679  0.0473 -0.4763 -0.2189
  233MOL0     C32020   5.927   7.396   6.714 -0.0513  0.1585 -0.0875
  233MOL0     C32021   5.883   7.524   6.680 -0.4077 -0.0518  0.5450
  233MOL0     C32022   5.960   7.639   6.714  0.3637  1.6278  0.1564
  233MOL0     C32023   6.067   7.617   6.798 -0.3624  0.2396  0.1604
  233MOL0     O32024   6.148   7.710   6.847  0.2549 -0.9411  0.9900
  233MOL0     C32025   6.088   7.846   6.855 -1.0727  1.0074 -0.7245
  233MOL0     C32026   6.177   7.958   6.906 -0.2728  0.2909 -0.8585
  233MOL0     C32027   6.303   7.976   6.819  0.5925  0.3911  0.3709
  233MOL0     C32028   6.395   8.075   6.883 -0.6042 -0.1159 -0.4874
  233MOL0     C32029   6.537   8.037   6.849 -0.0583 -1.1776 -0.8446
  233MOL0     C32030   6.634   8.143   6.889 -0.0965  0.8066 -0.1800
  233MOL0     C32031   6.772   8.087   6.877 -0.5857 -0.0478  0.7094
  233MOL0     C32032   6.887   8.185   6.875  0.1104  0.0175 -0.0887
  233MOL0     N32033   7.012   8.124   6.841 -1.0850 -0.5976  0.1653
  233MOL0     C32034   7.130   8.181   6.885 -0.7181 -0.7176  0.2455
  233MOL0     C32035   7.227   8.123   6.807 -0.3399 -0.3277 -0.0677
  233MOL0     C32036   7.366   8.174   6.805  0.3004  0.3044 -0.8815
  233MOL0     C32037   7.389   8.264   6.676 -1.2716  0.1134 -0.4943
  233MOL0     C32038   7.537   8.273   6.635 -0.6329 -0.3144 -0.3046
  233MOL0     C32039   7.564   8.321   6.498  0.1846  0.2556 -0.5586
  233MOL0     O32040   7.706   8.303   6.463 -0.5527  0.4408  0.1343
  233MOL0     C32041   7.786   8.418   6.453  0.7224 -0.0091 -0.0103
  233MOL0     C32042   7.904   8.408   6.520  0.0369 -0.4461 -1.4305
  233MOL0     C32043   8.006   8.500   6.512 -0.4403  0.2022 -0.3343
  233MOL0     C32044   8.134   8.463   6.581  0.0773 -0.0171 -0.4271
  233MOL0     C32045   7.972   8.631   6.458  0.3497  0.5325 -0.8164
  233MOL0     C32046   8.070   8.742   6.473 -1.1487  0.3603  0.4193
  233MOL0     O32047   8.177   8.735   6.551 -0.2805 -0.6288  0.3118
  233MOL0     C32048   8.269   8.842   6.585  0.4945  0.3695 -0.1361
  233MOL0     C32049   8.234   8.975   6.590 -0.5281  0.1959 -0.4497
  233MOL0     C32050   8.324   9.068   6.648 -0.0787  0.1154  0.8928
  233MOL0     C32051   8.448   9.029   6.701 -0.1358 -0.6449 -0.0848
  233MOL0     O32052   8.507   9.128   6.777  0.6059 -0.7559  0.8124
  233MOL0     C32053   8.653   9.126   6.767  0.6007  0.1137 -0.5989
  233MOL0     C32054   8.717   9.252   6.825  0.3141  0.0274  0.1040
  233MOL0     C32055   8.634   9.316   6.946  0.0609 -0.8968 -0.0126
  233MOL0     C32056   8.701   9.424   7.030 -0.2000  0.6548 -0.3986
  233MOL0     C32057   8.605   9.481   7.134  0.3535 -0.3072  0.0699
  233MOL0     C32058   8.660   9.584   7.239 -0.2041  0.0946  0.3931
  233MOL0     C32059   8.732   9.704   7.170 -0.6253  0.0045 -0.6822
  233MOL0     C32060   8.778   9.812   7.265 -0.4220  0.2144  0.1182
  233MOL0    Cl32061   8.911   9.763   7.365  0.4202 -0.1905  0.1510
  233MOL0     C32062   8.482   8.896   6.694 -0.3985  0.0470  0.0265
  233MOL0     C32063   8.398   8.802   6.624 -0.4723  0.5719  0.0608
  233MOL0     O32064   8.035   8.837   6.407  0.2304 -0.4515 -0.6290
  233MOL0     C32065   7.850   8.644   6.393 -1.0491 -0.4955 -0.4094
  233MOL0     C32066   7.764   8.537   6.380  0.1768  0.0569  0.5781
  233MOL0     N32067   7.172   8.031   6.723 -0.4187 -0.7126  0.0484
  233MOL0     N32068   7.047   8.033   6.745  0.7510 -0.0969  0.2052
  233MOL0     C32069   6.101   7.490   6.841  0.1098  0.1074  0.8366
  233MOL0     C32070   6.035   7.378   6.805  0.4374 -0.2298  0.6666
  233MOL0     C32071   5.867   7.118   6.500  0.3107  0.0005  0.3196
  233MOL0     C32072   5.942   7.034   6.584  0.7317 -0.1854  0.0888
  233MOL0     C32073   5.968   6.903   6.546  0.2616 -0.5149 -0.8931
  233MOL0     C32074   5.909   6.851   6.431 -0.3023  0.2109 -0.1683
  233MOL0     O32075   5.923   6.715   6.407  0.7060 -0.2195  0.7052
  233MOL0     C32076   5.874   6.663   6.289  0.6141 -0.3436  0.2090
  233MOL0     C32077   5.950   6.531   6.261  0.2206 -0.7062  0.7268
  233MOL0     C32078   5.899   6.414   6.348 -0.7039 -0.0142 -0.0038
  233MOL0     C32079   5.980   6.283   6.357 -0.7405 -0.7695 -0.9357
  233MOL0     C32080   6.122   6.300   6.413  0.6385  0.0528  0.1698
  233MOL0     C32081   6.239   6.325   6.432  0.3461  0.0596  0.3791
  233MOL0     C32082   5.828   6.928   6.349  0.3871 -0.4245  0.1913
  233MOL0     C32083   5.809   7.065   6.382 -0.3898  0.8273 -0.1271
  233MOL0     C32084   5.716   7.138   6.296 -1.2218  0.1685  0.5686
  233MOL0     H32085   5.795   7.530   6.616 -0.0601 -1.0489 -0.0483
  233MOL0     H32086   5.920   7.737   6.691 -2.1971  1.1400  2.0906
  233MOL0     H32087   5.991   7.842   6.904 -1.1031 -4.9393 -0.6197
  233MOL0     H32088   6.070   7.879   6.752  1.9652 -1.3311 -2.1558
  233MOL0     H32089   6.116   8.049   6.911  0.6795  0.9546 -0.9038
  233MOL0     H32090   6.209   7.931   7.007 -2.8082 -1.9884 -0.5836
  233MOL0     H32091   6.355   7.880   6.812  0.4154  0.2841  0.5116
  233MOL0     H32092   6.268   8.009   6.721  0.4829 -0.8471 -0.0194
  233MOL0     H32093   6.370   8.178   6.852 -1.4009  0.5712  2.1757
  233MOL0     H32094   6.395   8.073   6.992  1.3638  2.8259 -0.3168
  233MOL0     H32095   6.543   8.020   6.741  0.8058  0.7927 -1.1400
  233MOL0     H32096   6.548   7.942   6.903  0.2399  0.4804  2.2158
  233MOL0     H32097   6.616   8.232   6.827  1.1670  1.3605  0.2208
  233MOL0     H32098   6.622   8.174   6.993  1.2811 -1.8408  0.8448
  233MOL0     H32099   6.769   8.022   6.788  1.7815  0.9410 -0.1793
  233MOL0     H32100   6.794   8.025   6.965 -3.0383  1.7514  2.7144
  233MOL0     H32101   6.877   8.266   6.802  0.2896  0.2615  0.1520
  233MOL0     H32102   6.888   8.231   6.975 -0.4071 -2.8739  1.3350
  233MOL0     H32103   7.149   8.246   6.970  0.9568 -3.8308  2.4634
  233MOL0     H32104   7.432   8.087   6.793  2.2091  1.4573  0.5496
  233MOL0     H32105   7.399   8.218   6.899  0.0848 -0.1752 -0.5774
  233MOL0     H32106   7.323   8.231   6.595 -0.6688  0.5953 -1.1996
  233MOL0     H32107   7.366   8.370   6.690  1.3224  0.9673 -1.8954
  233MOL0     H32108   7.595   8.343   6.696  2.0106 -1.8057 -0.9609
  233MOL0     H32109   7.581   8.173   6.635 -1.2941 -0.6239 -1.2832
  233MOL0     H32110   7.503   8.256   6.433  1.9883 -1.7342 -0.3837
  233MOL0     H32111   7.519   8.417   6.474 -0.4797  0.4507  1.3404
  233MOL0     H32112   7.914   8.318   6.580  0.3006  2.2003  2.9644
  233MOL0     H32113   8.137   8.496   6.685 -0.7637 -0.8223 -0.1408
  233MOL0     H32114   8.226   8.488   6.526  0.5527 -1.1231 -0.1679
  233MOL0     H32115   8.139   8.354   6.588  2.4239  0.1300  1.4641
  233MOL0     H32116   8.133   9.006   6.563 -0.3584 -0.0070 -1.3410
  233MOL0     H32117   8.277   9.154   6.694 -1.2091 -0.4294  0.8060
  233MOL0     H32118   8.694   9.041   6.823  0.4294  1.7086  2.1350
  233MOL0     H32119   8.667   9.111   6.660 -0.1739  3.1694 -1.2021
  233MOL0     H32120   8.815   9.238   6.871  0.6140  1.3013 -0.1096
  233MOL0     H32121   8.735   9.321   6.743  0.4235 -1.2673 -0.9838
  233MOL0     H32122   8.592   9.245   7.017 -2.9703 -0.4008 -1.1426
  233MOL0     H32123   8.544   9.355   6.896  0.5158  0.6236  0.2968
  233MOL0     H32124   8.727   9.504   6.960 -0.7530  2.8179  1.7147
  233MOL0     H32125   8.791   9.401   7.087 -1.0488  2.7885  1.9813
  233MOL0     H32126   8.522   9.530   7.082  1.1556  0.5839 -0.4099
  233MOL0     H32127   8.554   9.401   7.187 -0.5084  1.0115  1.3293
  233MOL0     H32128   8.740   9.555   7.307  1.9397  2.5857 -0.8762
  233MOL0     H32129   8.569   9.608   7.294 -1.8234 -3.2172 -0.5677
  233MOL0     H32130   8.662   9.746   7.096 -2.3089  1.9773  1.8741
  233MOL0     H32131   8.820   9.666   7.116 -0.4480 -3.5538  1.7517
  233MOL0     H32132   8.697   9.834   7.334 -0.3590  0.9983 -0.0583
  233MOL0     H32133   8.803   9.894   7.197  1.2068 -1.2358 -1.1366
  233MOL0     H32134   8.568   8.865   6.752  0.0997  2.3196  0.5817
  233MOL0     H32135   8.425   8.697   6.632  2.0045  0.9098 -2.4371
  233MOL0     H32136   7.825   8.742   6.354  0.2726  0.8947  1.9579
  233MOL0     H32137   7.670   8.555   6.329 -0.6531 -2.4580  1.0567
  233MOL0     H32138   6.182   7.495   6.913  1.1707  5.5871 -0.3117
  233MOL0     H32139   6.057   7.283   6.851  2.5018  0.3197  0.8837
  233MOL0     H32140   5.985   7.056   6.681 -1.3057 -2.6310  1.6704
  233MOL0     H32141   6.030   6.845   6.613  3.1125  0.2594 -2.6983
  233MOL0     H32142   5.768   6.634   6.282  1.3430 -3.0688 -0.8653
  233MOL0     H32143   5.897   6.722   6.200 -1.1698  0.4350  0.2162
  233MOL0     H32144   6.057   6.550   6.278  0.0482  0.4787  0.5762
  233MOL0     H32145   5.939   6.509   6.154  0.5483  0.9601  0.3205
  233MOL0     H32146   5.889   6.453   6.449 -1.5504  0.7678 -0.3768
  233MOL0     H32147   5.799   6.379   6.318 -1.3819 -0.2355  2.3614
  233MOL0     H32148   5.990   6.228   6.263  1.4893 -3.9931  0.9708
  233MOL0     H32149   5.917   6.226   6.426  1.3469 -3.0726 -0.7521
  233MOL0     H32150   6.339   6.363   6.432  0.3719  0.0770  2.1197
  233MOL0     H32151   5.779   6.893   6.258  0.1108  1.4159 -0.4030
  233MOL0     H32152   5.686   7.075   6.212  2.6204 -4.1971  2.0055
  233MOL0     H32153   5.627   7.161   6.355 -2.6688 -1.4930 -0.8496
  233MOL0     H32154   5.749   7.229   6.245 -1.8486 -0.3733 -0.8472
  234MOL0     O32155   5.028   6.688   2.621 -0.3015  0.3481  0.3601
  234MOL0     C32156   5.059   6.704   2.501  0.5277 -0.0046 -0.4251
  234MOL0     O32157   5.037   6.617   2.403  0.1912 -0.1501 -0.3081
  234MOL0     C32158   4.936   6.529   2.414  0.7399 -0.1568  0.2395
  234MOL0     C32159   4.946   6.405   2.352  0.2954 -0.1326 -0.4927
  234MOL0     C32160   4.832   6.322   2.349 -0.3293  0.0107  0.3500
  234MOL0     C32161   4.717   6.344   2.420  0.8085 -0.1125 -0.1291
  234MOL0     O32162   4.616   6.250   2.414 -0.2041  0.2202  0.4127
  234MOL0     C32163   4.481   6.283   2.449 -0.0024  0.4708 -0.4736
  234MOL0     C32164   4.376   6.183   2.398 -0.4140  0.5945  0.3104
  234MOL0     C32165   4.235   6.248   2.376 -0.2135 -0.6538  0.1653
  234MOL0     C32166   4.152   6.131   2.336 -0.1225 -0.3422 -0.5846
  234MOL0     C32167   4.010   6.175   2.322 -0.7779 -0.2932  0.1352
  234MOL0     C32168   3.911   6.066   2.281  0.5878 -0.7385 -0.5913
  234MOL0     C32169   3.769   6.122   2.258 -0.1045  0.1027  0.8789
  234MOL0     C32170   3.678   6.021   2.197 -0.1345  0.1408 -0.4481
  234MOL0     N32171   3.556   6.072   2.148  0.4958 -0.1676 -0.4303
  234MOL0     C32172   3.451   6.123   2.223 -0.3319 -0.2361 -0.6144
  234MOL0     C32173   3.365   6.164   2.127 -0.1910  0.4146 -0.5722
  234MOL0     C32174   3.233   6.213   2.166  0.9163  0.5181  1.0371
  234MOL0     C32175   3.127   6.102   2.166  0.2407 -0.6097 -0.1830
  234MOL0     C32176   3.142   6.005   2.295 -0.1456  0.8486  0.4545
  234MOL0     C32177   3.019   5.913   2.308 -0.5843 -0.1439  0.2103
  234MOL0     O32178   3.068   5.781   2.346 -0.6296  0.5725 -0.2977
  234MOL0     C32179   2.982   5.691   2.403 -0.0086  0.0075  0.3294
  234MOL0     C32180   3.004   5.552   2.380 -0.2662 -0.9155  0.4618
  234MOL0     C32181   2.923   5.454   2.434 -0.1017  0.0286  0.8506
  234MOL0     C32182   2.952   5.303   2.413  0.1145 -0.5412 -0.0775
  234MOL0     C32183   2.811   5.492   2.506 -0.5626  0.5909 -0.3633
  234MOL0     C32184   2.708   5.395   2.547 -0.7667 -0.6321  0.0673
  234MOL0     O32185   2.677   5.423   2.672 -0.4640 -0.1546 -0.3965
  234MOL0     C32186   2.562   5.371   2.729  0.2637 -0.7852 -0.5265
  234MOL0     C32187   2.447   5.425   2.681  1.2078  0.6200  0.4238
  234MOL0     C32188   2.327   5.390   2.729  0.6670  0.1445  0.2830
  234MOL0     C32189   2.318   5.295   2.835 -0.0072  0.4479 -0.1762
  234MOL0     O32190   2.196   5.245   2.887 -0.0901 -0.2620  0.4682
  234MOL0     C32191   2.146   5.135   2.808 -0.5295  0.2908 -0.3155
  234MOL0     C32192   2.011   5.173   2.731 -0.8737  0.6176 -0.0786
  234MOL0     C32193   1.962   5.059   2.648 -0.6588 -0.8098 -0.2788
  234MOL0     C32194   1.975   5.091   2.492 -0.2407  0.0587  0.1462
  234MOL0     C32195   2.115   5.109   2.443  0.0621  0.1811  0.6986
  234MOL0     C32196   2.185   4.979   2.454  0.0713  1.1913 -0.3089
  234MOL0     C32197   2.327   4.975   2.390  0.1217 -0.5175  1.0222
  234MOL0     C32198   2.430   5.055   2.469  0.3765  0.6866 -0.0216
  234MOL0    Cl32199   2.448   4.986   2.644 -0.3243 -0.1945 -0.5669
  234MOL0     C32200   2.439   5.232   2.878 -0.0312  0.0582  0.0761
  234MOL0     C32201   2.567   5.265   2.825  0.3165  1.5253  0.7937
  234MOL0     O32202   2.667   5.302   2.481  0.6308 -0.0405 -0.0465
  234MOL0     C32203   2.774   5.627   2.512 -0.3048  0.1346 -0.7589
  234MOL0     C32204   2.864   5.732   2.473  0.5257  0.0741 -0.4185
  234MOL0     N32205   3.411   6.119   2.004 -1.0631  0.0406 -0.8291
  234MOL0     N32206   3.531   6.086   2.016  0.0392  0.6462  0.9027
  234MOL0     C32207   4.709   6.461   2.505 -0.6074 -0.1456  0.3008
  234MOL0     C32208   4.815   6.552   2.481  0.1560 -0.3371  0.2259
  234MOL0     C32209   5.147   6.818   2.470 -1.0349 -0.9069 -0.3191
  234MOL0     C32210   5.227   6.805   2.362 -0.0381 -0.5677  0.6654
  234MOL0     C32211   5.324   6.906   2.325 -0.4576  1.4540 -0.0603
  234MOL0     C32212   5.341   7.015   2.408  0.0973 -0.0622 -0.4589
  234MOL0     O32213   5.442   7.104   2.402 -0.5353  0.9066  1.3831
  234MOL0     C32214   5.445   7.162   2.273  0.0480 -0.0964 -0.4983
  234MOL0     C32215   5.527   7.289   2.270 -0.3123 -0.1423  0.0600
  234MOL0     C32216   5.468   7.403   2.361 -0.1207 -0.2190  1.3481
  234MOL0     C32217   5.556   7.525   2.347 -0.8417  0.0624 -0.3068
  234MOL0     C32218   5.681   7.496   2.420 -0.5110 -0.1865 -0.2134
  234MOL0     C32219   5.785   7.466   2.483  0.0827 -0.2460 -0.6700
  234MOL0     C32220   5.269   7.025   2.524  1.5636  0.0890 -0.2158
  234MOL0     C32221   5.167   6.931   2.551 -0.0072 -0.0343 -0.0675
  234MOL0     C32222   5.088   6.963   2.674 -0.6736  0.4452 -0.2138
  234MOL0     H32223   5.033   6.385   2.291 -1.2952  1.2980 -3.4331
  234MOL0     H32224   4.841   6.239   2.280  3.1511  1.4880 -1.1704
  234MOL0     H32225   4.457   6.373   2.391  0.1356  0.9968  0.2762
  234MOL0     H32226   4.454   6.318   2.549 -0.7372 -0.5985 -0.2914
  234MOL0     H32227   4.415   6.139   2.305  2.4524  2.9147  0.2636
  234MOL0     H32228   4.362   6.103   2.471 -2.3183 -0.2318 -0.8546
  234MOL0     H32229   4.204   6.295   2.470 -1.4600 -2.1768  0.5456
  234MOL0     H32230   4.230   6.321   2.295 -4.1967 -1.8120 -0.8511
  234MOL0     H32231   4.192   6.106   2.237 -0.0458  1.1340 -0.9450
  234MOL0     H32232   4.157   6.044   2.402 -1.3061  1.6761  2.3433
  234MOL0     H32233   4.013   6.257   2.249  0.4173 -1.1568 -0.8294
  234MOL0     H32234   3.975   6.228   2.411 -1.0551  2.3462 -1.4383
  234MOL0     H32235   3.948   6.015   2.192  0.7510  0.4388 -1.2200
  234MOL0     H32236   3.914   5.991   2.361 -2.0294  2.4297  2.8436
  234MOL0     H32237   3.781   6.203   2.185  2.1403 -3.4458 -3.1923
  234MOL0     H32238   3.722   6.153   2.351  1.0215 -4.3149  3.2252
  234MOL0     H32239   3.734   5.979   2.112  0.8601 -0.0852  0.2955
  234MOL0     H32240   3.654   5.934   2.259  3.5656 -2.0269 -1.7033
  234MOL0     H32241   3.436   6.135   2.329 -2.2400 -0.5031 -0.8210
  234MOL0     H32242   3.212   6.289   2.090 -0.8291 -0.3301  0.6066
  234MOL0     H32243   3.230   6.266   2.262  2.2572  1.9460  0.3209
  234MOL0     H32244   3.028   6.144   2.183 -0.0233 -2.5295  4.1800
  234MOL0     H32245   3.130   6.044   2.073  0.0739 -2.1447  0.7320
  234MOL0     H32246   3.230   5.940   2.291  0.7416  1.9624  1.1359
  234MOL0     H32247   3.151   6.057   2.390 -1.7936 -3.0067  2.9739
  234MOL0     H32248   2.952   5.950   2.386 -0.5397  2.7235 -0.9797
  234MOL0     H32249   2.969   5.925   2.211 -0.6906 -0.3631  0.2379
  234MOL0     H32250   3.094   5.514   2.333  0.7708  1.2536  0.5724
  234MOL0     H32251   2.881   5.274   2.334 -0.0743 -0.0526 -0.0919
  234MOL0     H32252   2.930   5.243   2.501 -3.7313  0.7148 -0.0179
  234MOL0     H32253   3.056   5.289   2.382  0.0456  1.1770 -1.2475
  234MOL0     H32254   2.449   5.500   2.602 -1.4472 -0.9669 -1.2970
  234MOL0     H32255   2.230   5.427   2.695 -0.3249  0.3393  3.0580
  234MOL0     H32256   2.222   5.092   2.742 -0.5467 -0.0537 -0.1126
  234MOL0     H32257   2.104   5.057   2.873  1.3908 -1.3419 -0.9318
  234MOL0     H32258   1.931   5.204   2.799 -2.2664 -1.3120 -0.7602
  234MOL0     H32259   2.031   5.258   2.665 -3.2897 -1.5783 -4.0034
  234MOL0     H32260   1.859   5.039   2.680 -1.4765 -1.5001 -3.1057
  234MOL0     H32261   2.013   4.965   2.670 -2.2742 -1.0775  3.0133
  234MOL0     H32262   1.908   5.171   2.460 -2.8704 -1.7729  0.7838
  234MOL0     H32263   1.928   5.009   2.438  0.7376 -0.3464 -0.1254
  234MOL0     H32264   2.104   5.126   2.336  6.4450  2.3953 -0.0017
  234MOL0     H32265   2.168   5.192   2.489 -0.1898  2.8345 -3.3318
  234MOL0     H32266   2.134   4.896   2.404  1.2699 -0.7356  1.5084
  234MOL0     H32267   2.194   4.940   2.556 -2.7792  0.9654 -0.0772
  234MOL0     H32268   2.325   5.022   2.291 -4.3534  1.9714  1.9715
  234MOL0     H32269   2.370   4.876   2.377 -0.9600 -1.0783  1.5457
  234MOL0     H32270   2.406   5.162   2.473  2.8698  1.3318 -0.6320
  234MOL0     H32271   2.528   5.048   2.422  0.3677  2.3516 -0.3454
  234MOL0     H32272   2.437   5.161   2.960 -1.9194  0.0435  0.0578
  234MOL0     H32273   2.659   5.234   2.873  0.2364 -0.7621 -0.3818
  234MOL0     H32274   2.687   5.663   2.565 -0.1345 -1.2250  0.5100
  234MOL0     H32275   2.831   5.831   2.501 -1.2363  0.0318 -2.0957
  234MOL0     H32276   4.631   6.479   2.578 -1.0640 -0.0886 -0.1882
  234MOL0     H32277   4.807   6.646   2.534 -1.4169  0.4948 -1.3880
  234MOL0     H32278   5.222   6.726   2.289  3.9416  0.1479 -0.6752
  234MOL0     H32279   5.386   6.899   2.237 -0.2622 -0.9252  0.2164
  234MOL0     H32280   5.479   7.093   2.195  0.7319 -0.2542 -0.0724
  234MOL0     H32281   5.345   7.188   2.236  0.3225  1.3020 -0.3004
  234MOL0     H32282   5.506   7.323   2.168 -2.2293  1.8749  1.0266
  234MOL0     H32283   5.635   7.276   2.280 -0.0717 -0.9218 -2.7646
  234MOL0     H32284   5.368   7.428   2.325  0.5310  0.9758  0.2926
  234MOL0     H32285   5.460   7.356   2.460  0.0760 -1.1919  0.9165
  234MOL0     H32286   5.495   7.602   2.395  0.3897  0.6519  0.3484
  234MOL0     H32287   5.579   7.559   2.246 -2.6360 -0.4960 -0.9579
  234MOL0     H32288   5.869   7.444   2.546 -1.8227 -0.4168  1.9870
  234MOL0     H32289   5.289   7.104   2.596  3.4342 -0.6928  0.1910
  234MOL0     H32290   4.988   6.919   2.672  0.8755 -3.5787  0.3357
  234MOL0     H32291   5.145   6.914   2.754  0.2636  0.3883 -0.8924
  234MOL0     H32292   5.094   7.069   2.700 -0.8079  0.5600 -0.6532
  235MOL0     O32293   1.029   0.378   5.437 -0.1945 -0.6108  0.8084
  235MOL0     C32294   1.068   0.310   5.530 -1.1170 -0.2356 -0.1570
  235MOL0     O32295   1.201   0.264   5.531 -0.2741  0.3878  0.3559
  235MOL0     C32296   1.285   0.362   5.490 -0.3601  0.0770 -0.3797
  235MOL0     C32297   1.378   0.329   5.391  0.2777 -0.0065  0.6496
  235MOL0     C32298   1.491   0.417   5.365  0.0369  0.4164  0.4944
  235MOL0     C32299   1.504   0.542   5.427 -0.3064 -0.1608 -0.2273
  235MOL0     O32300   1.584   0.646   5.402  0.6393 -0.3044  0.7276
  235MOL0     C32301   1.710   0.596   5.341 -1.0095 -0.4650  0.3909
  235MOL0     C32302   1.800   0.726   5.350 -0.0767  0.0400  0.8410
  235MOL0     C32303   1.951   0.714   5.311  0.4220  0.6470  0.0526
  235MOL0     C32304   2.031   0.657   5.434 -0.0268  0.3197  0.6830
  235MOL0     C32305   2.170   0.621   5.383 -0.3878  0.8617 -0.3656
  235MOL0     C32306   2.268   0.733   5.363 -0.0260 -0.1434  0.2844
  235MOL0     C32307   2.416   0.688   5.347  0.8933  0.1876 -0.3905
  235MOL0     C32308   2.439   0.609   5.206 -0.4610 -0.3873 -0.6210
  235MOL0     N32309   2.571   0.632   5.145  0.2116  0.9193  0.5354
  235MOL0     C32310   2.634   0.750   5.107  0.7198  0.3522  0.0143
  235MOL0     C32311   2.754   0.723   5.058 -0.2672  0.0508 -0.0243
  235MOL0     C32312   2.856   0.808   4.976  0.8919  0.1941 -0.5322
  235MOL0     C32313   2.989   0.828   5.049 -0.2277  0.2966  0.2301
  235MOL0     C32314   2.969   0.901   5.189  0.5777  0.1492  0.2750
  235MOL0     C32315   2.941   1.051   5.182 -0.4866  0.3069 -0.2315
  235MOL0     O32316   2.834   1.067   5.089  0.3781 -0.6101  0.0434
  235MOL0     C32317   2.713   1.095   5.140  0.6195 -0.3361 -0.2449
  235MOL0     C32318   2.668   1.072   5.270  0.0738 -0.0586 -0.7021
  235MOL0     C32319   2.544   1.120   5.314 -0.2748 -0.5131 -0.1175
  235MOL0     C32320   2.530   1.099   5.460 -0.8256  0.1577  0.1898
  235MOL0     C32321   2.449   1.182   5.228 -0.4059 -0.7904  0.1182
  235MOL0     C32322   2.314   1.221   5.274 -0.6217  0.6182  0.4511
  235MOL0     O32323   2.268   1.173   5.393  0.2782  0.1937  0.7552
  235MOL0     C32324   2.129   1.177   5.422 -0.1167  1.0206  0.4804
  235MOL0     C32325   2.043   1.288   5.400 -0.3235 -0.1874  0.1150
  235MOL0     C32326   1.905   1.283   5.439  0.0323  0.0676 -0.0139
  235MOL0     C32327   1.848   1.160   5.465 -0.1660  0.1649 -0.7182
  235MOL0     O32328   1.716   1.159   5.478 -0.3506 -0.3888 -0.1154
  235MOL0     C32329   1.652   1.067   5.394  1.0895 -0.3131  0.1058
  235MOL0     C32330   1.534   1.017   5.484  0.2432 -0.4061  0.2880
  235MOL0     C32331   1.428   1.131   5.505  0.0361  0.1923  0.1032
  235MOL0     C32332   1.286   1.078   5.552 -0.5463  0.5595 -0.2699
  235MOL0     C32333   1.221   1.015   5.429  0.0081  0.0299 -0.1595
  235MOL0     C32334   1.115   0.912   5.461  0.5176  0.8417 -0.1094
  235MOL0     C32335   1.007   0.895   5.354 -0.5378  0.0320 -0.6722
  235MOL0     C32336   0.893   0.787   5.389 -0.0876 -0.3582 -0.2924
  235MOL0    Cl32337   0.822   0.809   5.550  0.0148  0.1140  0.1596
  235MOL0     C32338   1.931   1.044   5.475  0.5410  0.2204 -1.1332
  235MOL0     C32339   2.069   1.050   5.457 -0.5727 -0.8330  0.3655
  235MOL0     O32340   2.256   1.281   5.188  0.3256 -0.0634  0.7535
  235MOL0     C32341   2.494   1.212   5.100  0.0942  0.2821 -0.4905
  235MOL0     C32342   2.623   1.170   5.054 -1.3950 -0.2069  0.0389
  235MOL0     N32343   2.771   0.588   5.079  0.7305 -0.1076 -0.5579
  235MOL0     N32344   2.663   0.533   5.122  0.6109  0.3055 -0.3109
  235MOL0     C32345   1.405   0.578   5.526  0.2872 -0.4386  0.4544
  235MOL0     C32346   1.302   0.486   5.552 -0.2876  0.1090 -0.4853
  235MOL0     C32347   0.980   0.266   5.635  0.1360  0.1196 -0.3435
  235MOL0     C32348   1.027   0.169   5.730 -1.0081 -0.1594 -0.6685
  235MOL0     C32349   0.940   0.121   5.830 -0.4243  0.0651 -0.3475
  235MOL0     C32350   0.808   0.162   5.845  0.0469 -0.1282 -0.4981
  235MOL0     O32351   0.721   0.116   5.945 -0.6027 -0.1676  0.6751
  235MOL0     C32352   0.739  -0.011   5.996  0.0279 -0.0527 -0.3316
  235MOL0     C32353   0.622  -0.068   6.066  0.9891  0.2675 -0.8736
  235MOL0     C32354   0.643  -0.216   6.099 -0.1501 -0.0873  0.7848
  235MOL0     C32355   0.515  -0.287   6.137 -0.5743  0.3338 -0.4271
  235MOL0     C32356   0.395  -0.278   6.052  0.0013 -0.0650  0.5943
  235MOL0     C32357   0.295  -0.276   5.978  0.2009  0.0418  0.2109
  235MOL0     C32358   0.765   0.260   5.759 -0.3032  0.6760  0.1875
  235MOL0     C32359   0.849   0.306   5.655 -0.1686  1.0236  0.0625
  235MOL0     C32360   0.779   0.397   5.555  0.2424  0.4476 -0.7755
  235MOL0     H32361   1.373   0.234   5.338  0.6083  0.4777 -0.2801
  235MOL0     H32362   1.568   0.390   5.293 -0.7979  1.8758 -1.0345
  235MOL0     H32363   1.698   0.563   5.237 -1.8703 -2.8684  1.1778
  235MOL0     H32364   1.756   0.522   5.407 -0.6413  0.0967  0.7734
  235MOL0     H32365   1.752   0.800   5.285  1.9987  2.7425  2.1217
  235MOL0     H32366   1.786   0.765   5.452  0.0430 -2.0049  1.6895
  235MOL0     H32367   1.950   0.655   5.219 -2.5594  1.0472 -0.2698
  235MOL0     H32368   1.990   0.811   5.277  0.4516  0.7446  0.3625
  235MOL0     H32369   2.030   0.727   5.518 -2.7821  0.1065  0.9181
  235MOL0     H32370   1.979   0.566   5.466  1.8938 -0.7734  0.8508
  235MOL0     H32371   2.174   0.552   5.298  0.2533 -0.9674  1.1029
  235MOL0     H32372   2.223   0.566   5.461 -0.0526  1.1733 -0.3689
  235MOL0     H32373   2.237   0.799   5.282 -0.9255 -2.1885 -1.1407
  235MOL0     H32374   2.263   0.793   5.455  0.0043  0.0159  0.1815
  235MOL0     H32375   2.451   0.622   5.426  1.6072 -2.2638 -2.5994
  235MOL0     H32376   2.478   0.778   5.338  1.2334 -0.2079 -2.8792
  235MOL0     H32377   2.423   0.503   5.227  0.0439 -0.3477  0.0200
  235MOL0     H32378   2.361   0.652   5.143 -4.4403 -2.1704  2.5947
  235MOL0     H32379   2.585   0.846   5.092 -1.0028 -0.0440  2.4222
  235MOL0     H32380   2.811   0.895   4.928  1.5692  0.1489 -1.2463
  235MOL0     H32381   2.878   0.751   4.886 -0.4868  2.2001 -2.2209
  235MOL0     H32382   3.034   0.729   5.061 -0.2967  0.4899  2.6418
  235MOL0     H32383   3.070   0.867   4.988  1.5474 -1.6299  1.2352
  235MOL0     H32384   2.885   0.849   5.236  1.6763 -0.4026  1.6805
  235MOL0     H32385   3.050   0.878   5.258  1.5358 -1.3687 -1.2893
  235MOL0     H32386   2.925   1.098   5.279 -0.5662 -1.2837  0.5642
  235MOL0     H32387   3.030   1.101   5.142  1.0067  0.1574  2.6688
  235MOL0     H32388   2.736   1.016   5.333  1.4125  2.8055  0.5653
  235MOL0     H32389   2.624   1.070   5.507 -2.0459 -0.6373  2.2664
  235MOL0     H32390   2.457   1.021   5.482  0.5132 -0.9102  1.0101
  235MOL0     H32391   2.499   1.190   5.512  0.1246 -0.2759  1.5544
  235MOL0     H32392   2.086   1.376   5.353 -0.1225  0.7955  2.0487
  235MOL0     H32393   1.838   1.362   5.408  0.1480  0.1668 -0.0151
  235MOL0     H32394   1.609   1.118   5.307  1.0192 -0.3297  0.1310
  235MOL0     H32395   1.709   0.978   5.368  2.6272  0.1529  1.6863
  235MOL0     H32396   1.491   0.928   5.438 -1.9085  0.5238  0.3633
  235MOL0     H32397   1.570   0.976   5.579 -1.5784 -1.6955  0.4674
  235MOL0     H32398   1.422   1.184   5.410  2.2966  2.0157  0.8944
  235MOL0     H32399   1.462   1.211   5.571 -1.4282  0.3008  0.7750
  235MOL0     H32400   1.224   1.162   5.583 -2.2963 -0.8874  0.3478
  235MOL0     H32401   1.311   1.004   5.629  1.9580  0.2881 -1.2391
  235MOL0     H32402   1.161   1.089   5.376 -0.2133  0.3576  0.5277
  235MOL0     H32403   1.293   0.982   5.353  1.2130 -0.0211  0.9550
  235MOL0     H32404   1.068   0.945   5.554  0.6087  2.3816 -0.5851
  235MOL0     H32405   1.159   0.812   5.471 -1.6128 -0.1692 -0.2904
  235MOL0     H32406   1.053   0.860   5.261  2.7499 -1.1065  1.2134
  235MOL0     H32407   0.959   0.993   5.344 -0.0945  0.1933 -1.2415
  235MOL0     H32408   0.934   0.686   5.380  0.2655 -0.2390 -0.0636
  235MOL0     H32409   0.809   0.798   5.320 -0.2359  1.3203  0.0980
  235MOL0     H32410   1.873   0.956   5.503 -1.2369  0.5609 -3.5025
  235MOL0     H32411   2.127   0.958   5.467  1.8217  0.3211 -1.8944
  235MOL0     H32412   2.428   1.271   5.037  0.6197  1.6913  0.2271
  235MOL0     H32413   2.661   1.193   4.955  0.1588  0.6017  0.7868
  235MOL0     H32414   1.409   0.660   5.597 -0.3198 -0.0691  0.0730
  235MOL0     H32415   1.226   0.512   5.625 -1.3034  3.3542 -2.4914
  235MOL0     H32416   1.128   0.128   5.722 -1.3296 -1.2794  0.5665
  235MOL0     H32417   0.971   0.057   5.912 -2.6514  0.0814  0.5741
  235MOL0     H32418   0.765  -0.078   5.914  0.0816 -0.0008 -0.3570
  235MOL0     H32419   0.824  -0.012   6.066 -0.9022 -2.4193  0.8483
  235MOL0     H32420   0.539  -0.056   5.996  0.5269  0.2981 -0.3244
  235MOL0     H32421   0.610  -0.004   6.153  1.7445 -0.3458 -0.3008
  235MOL0     H32422   0.684  -0.275   6.017 -0.9741  1.6745 -0.9495
  235MOL0     H32423   0.714  -0.223   6.182  0.5082 -1.1326  0.1527
  235MOL0     H32424   0.492  -0.240   6.233 -1.4481  0.4255 -0.6731
  235MOL0     H32425   0.538  -0.391   6.162  0.9382  0.5675 -0.7395
  235MOL0     H32426   0.197  -0.287   5.936 -0.1035  0.8800  0.6774
  235MOL0     H32427   0.662   0.292   5.765 -0.8359 -0.6375 -1.3245
  235MOL0     H32428   0.809   0.502   5.553 -1.7809  1.1397  1.1209
  235MOL0     H32429   0.796   0.354   5.456  0.0232 -0.2093 -0.5355
  235MOL0     H32430   0.670   0.395   5.567  0.2497  0.8438 -0.6166
  236MOL0     O32431   2.492   2.498  10.716  0.3498 -0.3521 -0.4929
  236MOL0     C32432   2.462   2.439  10.821 -1.2720 -0.5637  0.4222
  236MOL0     O32433   2.542   2.340  10.862 -0.6067  0.1359 -0.6390
  236MOL0     C32434   2.676   2.335  10.816 -0.5447  0.0172 -0.6166
  236MOL0     C32435   2.781   2.339  10.912  0.3925  0.1680 -1.1293
  236MOL0     C32436   2.916   2.335  10.878  0.1141  0.0242 -0.3006
  236MOL0     C32437   2.953   2.331  10.741 -0.3977 -0.0039  0.6561
  236MOL0     O32438   3.078   2.356  10.691 -0.2248 -0.5697  0.2058
  236MOL0     C32439   3.129   2.247  10.601  0.3189 -0.9136  1.1760
  236MOL0     C32440   3.276   2.233  10.640  0.0366 -0.9220 -0.2655
  236MOL0     C32441   3.367   2.333  10.571  0.8586  0.0375  0.1175
  236MOL0     C32442   3.491   2.358  10.655  0.2569  0.8297 -0.7378
  236MOL0     C32443   3.595   2.433  10.566 -0.2632  0.0041 -0.4093
  236MOL0     C32444   3.708   2.480  10.654 -0.1079  1.1458 -0.0973
  236MOL0     C32445   3.840   2.496  10.573 -0.0621 -0.4294  0.3224
  236MOL0     C32446   3.920   2.588  10.654 -0.4011  0.0893 -0.7783
  236MOL0     N32447   4.047   2.625  10.582  0.8312 -0.5595 -0.2422
  236MOL0     C32448   4.156   2.550  10.564 -0.4457 -0.1791 -0.0143
  236MOL0     C32449   4.244   2.635  10.509 -0.4809  0.1321 -0.2215
  236MOL0     C32450   4.374   2.600  10.444  0.0840 -0.4021 -0.1941
  236MOL0     C32451   4.383   2.643  10.295  0.3578  0.2620 -0.7258
  236MOL0     C32452   4.267   2.588  10.209 -0.3048  1.1153  0.2431
  236MOL0     C32453   4.310   2.466  10.124 -0.5519  0.6550 -0.0489
  236MOL0     O32454   4.353   2.350  10.205 -0.0073 -0.6911  0.5041
  236MOL0     C32455   4.271   2.274  10.289 -0.1288 -0.4819 -0.2416
  236MOL0     C32456   4.338   2.201  10.386 -0.1608 -0.5989  0.1433
  236MOL0     C32457   4.276   2.124  10.481  0.0440 -0.1341 -0.4685
  236MOL0     C32458   4.368   2.049  10.572  0.1475  0.6689 -1.0624
  236MOL0     C32459   4.130   2.124  10.489  0.1879  0.4938 -1.2575
  236MOL0     C32460   4.050   2.027  10.581 -0.4201  0.0734  0.5071
  236MOL0     O32461   3.945   2.083  10.639 -0.6704 -0.1499  0.5499
  236MOL0     C32462   3.874   2.019  10.741 -0.2962 -0.4201 -1.0883
  236MOL0     C32463   3.730   2.029  10.744  0.5926 -0.7710  0.6011
  236MOL0     C32464   3.660   1.966  10.844 -0.7986 -0.4526 -0.5976
  236MOL0     C32465   3.727   1.894  10.945  0.0783 -0.0771 -0.1779
  236MOL0     O32466   3.658   1.819  11.043 -0.1120  0.7747  0.1612
  236MOL0     C32467   3.516   1.799  11.038 -0.3718 -0.0944  0.2666
  236MOL0     C32468   3.490   1.695  11.142 -0.4768  1.3117 -0.0852
  236MOL0     C32469   3.341   1.714  11.186  0.3636 -0.5401 -0.7022
  236MOL0     C32470   3.314   1.819  11.289  0.5012 -0.4317 -0.0690
  236MOL0     C32471   3.169   1.821  11.333  0.0891 -0.1638 -1.0935
  236MOL0     C32472   3.146   1.926  11.448 -0.6549  0.4059  0.5501
  236MOL0     C32473   2.990   1.939  11.486 -0.4057  0.1347 -0.9702
  236MOL0     C32474   2.934   1.822  11.575  0.4907  0.5913 -0.8916
  236MOL0    Cl32475   2.756   1.855  11.613 -0.2804 -0.3334 -0.0042
  236MOL0     C32476   3.871   1.893  10.948 -0.4799  0.3970 -0.5245
  236MOL0     C32477   3.942   1.957  10.848  1.1635  0.4254  0.0312
  236MOL0     O32478   4.091   1.909  10.599 -0.3160 -0.0643 -0.8440
  236MOL0     C32479   4.066   2.202  10.399  0.6486 -0.1557  0.2535
  236MOL0     C32480   4.132   2.279  10.297  0.9455  0.0449 -0.4165
  236MOL0     N32481   4.192   2.758  10.502 -0.4133  0.1085 -1.0836
  236MOL0     N32482   4.075   2.752  10.550  0.4010  0.0374 -0.7024
  236MOL0     C32483   2.849   2.339  10.644  0.7443 -0.4489 -0.0578
  236MOL0     C32484   2.719   2.328  10.681  0.9050 -0.3465  0.8886
  236MOL0     C32485   2.326   2.443  10.871 -0.2201 -0.2890 -0.4923
  236MOL0     C32486   2.223   2.526  10.810 -0.0495  0.1071 -0.1504
  236MOL0     C32487   2.096   2.539  10.873 -1.5061  0.5853  0.4378
  236MOL0     C32488   2.070   2.468  10.987 -0.9031 -0.6589 -0.8195
  236MOL0     O32489   1.942   2.473  11.034  0.0863 -0.3179  0.7721
  236MOL0     C32490   1.906   2.409  11.152  0.3263 -0.0214 -0.4228
  236MOL0     C32491   1.755   2.425  11.159  0.3311 -0.6918 -1.4585
  236MOL0     C32492   1.722   2.571  11.185 -0.0823 -1.1153 -0.2260
  236MOL0     C32493   1.765   2.650  11.318  0.4168  0.2557  0.8713
  236MOL0     C32494   1.697   2.588  11.433 -0.0491 -0.3687 -0.9842
  236MOL0     C32495   1.664   2.527  11.533  0.1853 -0.1958 -0.0139
  236MOL0     C32496   2.167   2.391  11.051  0.5520  0.2275  0.1076
  236MOL0     C32497   2.300   2.374  11.001 -0.3068 -0.8079  0.4518
  236MOL0     C32498   2.395   2.288  11.086 -0.5462  0.2713 -0.2081
  236MOL0     H32499   2.743   2.350  11.013  3.6810  2.7417 -0.0201
  236MOL0     H32500   2.987   2.354  10.958  1.0838 -3.1810 -0.3023
  236MOL0     H32501   3.122   2.267  10.494 -0.7173  3.6214  1.8999
  236MOL0     H32502   3.071   2.157  10.625 -0.7168 -0.2440  1.2314
  236MOL0     H32503   3.279   2.249  10.748  0.4511 -0.8392 -0.2886
  236MOL0     H32504   3.320   2.137  10.614  2.5081  0.6890 -2.6091
  236MOL0     H32505   3.389   2.287  10.474 -1.5011  0.5279 -0.7224
  236MOL0     H32506   3.309   2.423  10.547  0.8558 -0.7669 -3.4261
  236MOL0     H32507   3.459   2.423  10.737  0.9966  1.6581 -1.0963
  236MOL0     H32508   3.530   2.266  10.700  1.3301  1.9600  0.7682
  236MOL0     H32509   3.554   2.525  10.524  2.9625  1.2390 -1.1079
  236MOL0     H32510   3.624   2.372  10.480  1.7959 -1.0363  0.9259
  236MOL0     H32511   3.686   2.577  10.699 -0.4899  0.7651  0.5454
  236MOL0     H32512   3.724   2.406  10.733  1.3148  0.9314 -0.5425
  236MOL0     H32513   3.818   2.543  10.477  2.6448 -4.1098 -2.4305
  236MOL0     H32514   3.883   2.396  10.561 -1.4551 -1.0283  0.1459
  236MOL0     H32515   3.863   2.678  10.678  0.2088  0.5024 -0.8426
  236MOL0     H32516   3.941   2.543  10.752 -4.1930  2.3500  1.2708
  236MOL0     H32517   4.182   2.446  10.576  2.6487  0.5120  0.1629
  236MOL0     H32518   4.380   2.491  10.448  0.2459 -0.3797  0.1962
  236MOL0     H32519   4.453   2.646  10.504  0.5615 -0.0471 -1.0678
  236MOL0     H32520   4.379   2.752  10.294  1.5682  0.3704  1.0326
  236MOL0     H32521   4.487   2.618  10.268  0.0251 -1.5893 -0.4425
  236MOL0     H32522   4.172   2.574  10.261 -1.8889  1.8828 -2.2670
  236MOL0     H32523   4.239   2.662  10.133 -1.2298 -0.9238 -1.5076
  236MOL0     H32524   4.227   2.434  10.061 -2.3276  0.6755  2.1792
  236MOL0     H32525   4.392   2.490  10.055  0.0826  1.2957  0.9043
  236MOL0     H32526   4.446   2.207  10.388 -0.2181  3.9477  2.7309
  236MOL0     H32527   4.368   1.949  10.529 -0.5373  1.4689 -3.0749
  236MOL0     H32528   4.327   2.046  10.673  0.5486 -4.0638 -0.8547
  236MOL0     H32529   4.471   2.084  10.586  1.0742 -2.6303  1.7262
  236MOL0     H32530   3.677   2.079  10.664  0.4726  0.2344  1.2919
  236MOL0     H32531   3.552   1.978  10.840 -1.3386 -4.0836 -0.2232
  236MOL0     H32532   3.462   1.892  11.060 -1.1451 -1.0617  2.7695
  236MOL0     H32533   3.489   1.763  10.938  3.2374 -2.0581 -0.1665
  236MOL0     H32534   3.503   1.597  11.095 -0.8840  0.0613  2.2660
  236MOL0     H32535   3.560   1.702  11.225  4.0973 -2.8525 -3.0502
  236MOL0     H32536   3.312   1.615  11.223 -0.0740 -0.1560  0.0062
  236MOL0     H32537   3.282   1.735  11.097 -2.6305  0.6404  1.3941
  236MOL0     H32538   3.334   1.918  11.248 -0.1606  1.1299  3.0611
  236MOL0     H32539   3.378   1.806  11.377  0.7165  0.8324 -0.0270
  236MOL0     H32540   3.096   1.844  11.254 -1.4855 -0.7354  0.1307
  236MOL0     H32541   3.140   1.723  11.372 -0.2786 -0.7953 -2.8577
  236MOL0     H32542   3.194   2.016  11.406 -0.2496  0.4069  1.0073
  236MOL0     H32543   3.196   1.890  11.538 -4.1975 -1.5440  1.8985
  236MOL0     H32544   2.923   1.937  11.401 -2.1280 -0.0528  0.3331
  236MOL0     H32545   2.982   2.029  11.548  2.1628  0.5119 -1.0557
  236MOL0     H32546   3.007   1.815  11.656 -0.2531  1.3910 -0.1311
  236MOL0     H32547   2.933   1.728  11.518 -3.6302 -0.6088  0.7907
  236MOL0     H32548   3.915   1.856  11.039 -0.9423  0.9701 -0.0556
  236MOL0     H32549   4.050   1.958  10.855  1.1673  1.5592 -0.0532
  236MOL0     H32550   3.958   2.203  10.406  0.4374 -0.8025 -2.1462
  236MOL0     H32551   4.065   2.329  10.227  0.2184 -2.0528 -1.3324
  236MOL0     H32552   2.866   2.352  10.538 -0.9828  4.9813  0.0537
  236MOL0     H32553   2.639   2.311  10.610  0.3098  3.8615  0.3316
  236MOL0     H32554   2.243   2.594  10.728  1.3496  0.1535  0.2159
  236MOL0     H32555   2.023   2.603  10.824 -1.6926  2.4562  2.9249
  236MOL0     H32556   1.931   2.303  11.148  1.8709  0.3466 -2.0229
  236MOL0     H32557   1.949   2.445  11.246 -1.2156  2.9757 -0.7432
  236MOL0     H32558   1.718   2.369  11.245 -1.4879  2.4255 -0.0494
  236MOL0     H32559   1.710   2.376  11.073  2.8149 -2.4649 -1.8618
  236MOL0     H32560   1.768   2.635  11.109  3.5732  1.0372  3.3735
  236MOL0     H32561   1.615   2.589  11.170 -0.0901 -1.3059 -0.3999
  236MOL0     H32562   1.729   2.753  11.306  0.5924  0.1649 -0.5217
  236MOL0     H32563   1.872   2.658  11.342  0.2059  2.5986  1.2716
  236MOL0     H32564   1.644   2.457  11.612 -1.2076  0.3179  0.1179
  236MOL0     H32565   2.134   2.330  11.135 -0.8816  2.0944  0.9756
  236MOL0     H32566   2.352   2.283  11.186  1.3039  2.3797  0.7742
  236MOL0     H32567   2.391   2.188  11.042 -0.9252  0.7555 -1.3184
  236MOL0     H32568   2.496   2.326  11.098  0.4238 -2.9990  5.0161
  237MOL0     O32569   6.671   1.413   5.693 -0.8852  0.3315  0.0946
  237MOL0     C32570   6.643   1.353   5.586 -0.4065 -0.1020  0.4151
  237MOL0     O32571   6.732   1.352   5.475  0.5237  0.0527 -0.3328
  237MOL0     C32572   6.848   1.411   5.501 -0.0565  0.3323 -0.7454
  237MOL0     C32573   6.881   1.533   5.444  0.7338 -0.8079 -0.8446
  237MOL0     C32574   7.009   1.585   5.475 -0.1811 -0.8599  0.6031
  237MOL0     C32575   7.102   1.518   5.554  0.0267 -1.1043  0.7659
  237MOL0     O32576   7.218   1.566   5.603  0.0741  0.2353 -0.0785
  237MOL0     C32577   7.254   1.701   5.573  0.3361 -0.6269 -0.6123
  237MOL0     C32578   7.399   1.714   5.633 -0.5920 -0.2106  0.4144
  237MOL0     C32579   7.456   1.857   5.644  0.0557 -0.0739  0.2495
  237MOL0     C32580   7.600   1.861   5.695  0.4711 -0.5113  0.6282
  237MOL0     C32581   7.716   1.825   5.597  0.6478  0.2105  0.2434
  237MOL0     C32582   7.854   1.836   5.674 -0.5186  0.0125 -0.2375
  237MOL0     C32583   7.970   1.811   5.579  0.2760  0.2223 -1.1840
  237MOL0     C32584   8.103   1.841   5.641 -0.3471  0.5957 -0.6000
  237MOL0     N32585   8.136   1.759   5.767 -0.3202 -0.7366 -0.1601
  237MOL0     C32586   8.180   1.629   5.784 -0.3066 -0.3308  0.0135
  237MOL0     C32587   8.160   1.615   5.921  0.4408  0.3747 -0.2441
  237MOL0     C32588   8.175   1.477   5.979  1.1035 -0.1255 -0.1368
  237MOL0     C32589   8.240   1.477   6.120  0.0309  0.6847  0.1702
  237MOL0     C32590   8.385   1.521   6.126  0.6043  0.5816  0.4340
  237MOL0     C32591   8.448   1.502   6.270 -0.0166 -0.0051 -0.3791
  237MOL0     O32592   8.408   1.610   6.357 -0.0262 -0.6337  0.0714
  237MOL0     C32593   8.402   1.579   6.490  0.0017  0.6913  0.0437
  237MOL0     C32594   8.443   1.457   6.546  0.3375  0.1929 -0.6044
  237MOL0     C32595   8.450   1.442   6.686  0.0559  0.3280 -0.0702
  237MOL0     C32596   8.526   1.327   6.754 -0.9045 -0.3819 -0.2511
  237MOL0     C32597   8.376   1.535   6.772 -0.2070  0.9929  0.0473
  237MOL0     C32598   8.357   1.508   6.917  0.5543 -0.1941 -0.2545
  237MOL0     O32599   8.312   1.388   6.962  0.6845  0.3507  1.1541
  237MOL0     C32600   8.308   1.358   7.090 -0.7823 -0.3920 -0.7017
  237MOL0     C32601   8.191   1.339   7.164  0.1147  0.3500 -0.1522
  237MOL0     C32602   8.201   1.274   7.290 -0.2812  0.2153 -0.3510
  237MOL0     C32603   8.323   1.236   7.344 -0.4185  0.2733  0.4654
  237MOL0     O32604   8.324   1.167   7.459 -0.1479  0.9779  0.0108
  237MOL0     C32605   8.454   1.153   7.515 -0.3237 -0.2583  0.5714
  237MOL0     C32606   8.438   1.088   7.650 -0.1665  0.1875  0.0414
  237MOL0     C32607   8.358   0.958   7.650 -0.4886  0.8688 -0.1589
  237MOL0     C32608   8.403   0.866   7.535  0.0942  0.1468  0.0258
  237MOL0     C32609   8.347   0.722   7.526 -0.1052 -0.0280  0.5131
  237MOL0     C32610   8.195   0.721   7.527 -0.6291  0.1484 -0.4988
  237MOL0     C32611   8.127   0.587   7.488 -1.2158  0.4241 -0.4561
  237MOL0     C32612   8.114   0.504   7.610 -0.1624 -0.0161 -0.5476
  237MOL0    Cl32613   8.009   0.578   7.735  0.1952 -0.0100 -0.5057
  237MOL0     C32614   8.438   1.247   7.265  0.5390  0.0757  0.4669
  237MOL0     C32615   8.428   1.305   7.144  0.5359 -0.7808 -0.1615
  237MOL0     O32616   8.388   1.599   6.995  0.1151 -0.4164 -0.3292
  237MOL0     C32617   8.327   1.657   6.715  0.4623  0.7637 -0.3951
  237MOL0     C32618   8.343   1.681   6.570 -0.4428  0.3099  0.3589
  237MOL0     N32619   8.135   1.722   5.987  0.0910 -0.7793  1.0294
  237MOL0     N32620   8.128   1.822   5.898 -0.7043  0.7425  0.0549
  237MOL0     C32621   7.068   1.390   5.596  0.3627 -0.3394  0.0090
  237MOL0     C32622   6.936   1.339   5.576  0.2906 -0.8279 -0.2101
  237MOL0     C32623   6.500   1.305   5.568  0.0339 -0.9189  0.0698
  237MOL0     C32624   6.422   1.358   5.459  0.4882  0.5120 -0.6615
  237MOL0     C32625   6.283   1.327   5.447 -0.6052 -0.7232  0.7802
  237MOL0     C32626   6.226   1.240   5.536 -0.3601  0.7194 -0.7533
  237MOL0     O32627   6.092   1.202   5.534  0.4058  0.2299 -0.1201
  237MOL0     C32628   6.008   1.255   5.432  0.1248  0.5188 -0.0386
  237MOL0     C32629   5.867   1.213   5.451  0.8241  0.4204 -0.9521
  237MOL0     C32630   5.810   1.237   5.593  0.7098  0.5097  0.4008
  237MOL0     C32631   5.671   1.175   5.605 -0.0746 -0.5476  0.6270
  237MOL0     C32632   5.672   1.026   5.596  1.0546 -0.2808 -0.5437
  237MOL0     C32633   5.680   0.906   5.612  0.5995  0.8436  0.6189
  237MOL0     C32634   6.301   1.196   5.655  0.1254  0.9916  0.2421
  237MOL0     C32635   6.440   1.227   5.671 -0.5360  0.0643  0.1814
  237MOL0     C32636   6.511   1.186   5.798 -0.3727 -0.4052  0.0756
  237MOL0     H32637   6.807   1.592   5.391  0.3445  1.2224  1.7657
  237MOL0     H32638   7.031   1.689   5.453 -1.2276 -0.1334  2.7155
  237MOL0     H32639   7.197   1.775   5.631  1.3926 -0.6228  0.4594
  237MOL0     H32640   7.247   1.718   5.465  0.1311 -1.9766 -0.8331
  237MOL0     H32641   7.404   1.674   5.734  0.8262 -0.6725  0.1924
  237MOL0     H32642   7.468   1.651   5.575  0.3743  0.5299  0.7197
  237MOL0     H32643   7.460   1.914   5.551  4.7951  0.8413  0.7838
  237MOL0     H32644   7.383   1.919   5.698  0.6480  1.8792 -1.0768
  237MOL0     H32645   7.632   1.963   5.720  1.1827 -0.7602  0.7412
  237MOL0     H32646   7.607   1.800   5.786 -0.8504 -0.5851  0.7049
  237MOL0     H32647   7.723   1.892   5.511  0.3857  1.2709  1.0204
  237MOL0     H32648   7.693   1.721   5.572 -3.3815  0.0656  3.5126
  237MOL0     H32649   7.863   1.939   5.710 -1.2501 -0.1732  0.4880
  237MOL0     H32650   7.852   1.763   5.755 -0.3976 -0.3576 -0.5632
  237MOL0     H32651   7.956   1.866   5.486  4.2531 -0.3868 -2.3042
  237MOL0     H32652   7.966   1.705   5.554  0.0495 -0.4877  1.5333
  237MOL0     H32653   8.190   1.814   5.581  2.4908  3.1915  2.0308
  237MOL0     H32654   8.116   1.946   5.669 -0.5147 -0.0471  2.1857
  237MOL0     H32655   8.199   1.550   5.712 -1.1140 -0.0955 -0.4646
  237MOL0     H32656   8.238   1.412   5.917  1.1897  0.6632 -0.8795
  237MOL0     H32657   8.077   1.429   5.987  0.7224  0.8162  1.1340
  237MOL0     H32658   8.182   1.545   6.183  2.5928  1.7747  1.5496
  237MOL0     H32659   8.226   1.384   6.174  0.6844  0.9063  0.7361
  237MOL0     H32660   8.454   1.480   6.053  1.8661  0.5674  1.6056
  237MOL0     H32661   8.395   1.628   6.104 -0.3534  0.7037  0.5159
  237MOL0     H32662   8.423   1.400   6.303  0.6592 -0.3201 -0.8158
  237MOL0     H32663   8.557   1.506   6.268  0.0673 -1.0467  0.9268
  237MOL0     H32664   8.498   1.387   6.484  2.4715  0.7999  0.5049
  237MOL0     H32665   8.464   1.248   6.797  2.3021 -1.8811  2.0458
  237MOL0     H32666   8.591   1.366   6.833  1.4215 -2.1581 -1.1543
  237MOL0     H32667   8.593   1.281   6.680 -1.5226 -0.3960 -0.8042
  237MOL0     H32668   8.093   1.353   7.120 -0.1524 -1.2124 -0.1016
  237MOL0     H32669   8.110   1.252   7.345  0.1620  1.6475  1.0271
  237MOL0     H32670   8.511   1.084   7.453 -0.3992  0.5401 -0.4098
  237MOL0     H32671   8.512   1.245   7.522 -1.2377  0.2452  1.8735
  237MOL0     H32672   8.542   1.071   7.679 -0.1944  0.0396  0.0552
  237MOL0     H32673   8.401   1.169   7.714  2.6898  0.9720  0.8818
  237MOL0     H32674   8.254   0.985   7.630 -0.4281  0.7086 -0.6918
  237MOL0     H32675   8.378   0.915   7.749  0.0758 -0.3241 -0.7708
  237MOL0     H32676   8.510   0.855   7.552 -0.3551 -0.7953  2.8200
  237MOL0     H32677   8.376   0.904   7.436 -2.5416 -2.7708 -0.5024
  237MOL0     H32678   8.374   0.679   7.429 -3.9109 -1.4369 -0.0878
  237MOL0     H32679   8.384   0.664   7.611  0.5077 -1.7855 -0.8884
  237MOL0     H32680   8.157   0.794   7.455 -1.7633 -1.2091 -1.3418
  237MOL0     H32681   8.165   0.758   7.625  3.8164  0.4416  0.9872
  237MOL0     H32682   8.196   0.536   7.420 -0.7791  1.4551 -0.8042
  237MOL0     H32683   8.033   0.595   7.431 -0.7615 -0.0329 -1.2932
  237MOL0     H32684   8.211   0.480   7.655  1.0251 -0.3717 -3.0904
  237MOL0     H32685   8.086   0.402   7.583 -0.5834 -0.6506  2.0184
  237MOL0     H32686   8.538   1.209   7.282  0.4447 -0.7242 -0.6483
  237MOL0     H32687   8.513   1.291   7.079  2.5405 -2.1969  2.5464
  237MOL0     H32688   8.275   1.733   6.773 -1.6001 -1.7170  1.2221
  237MOL0     H32689   8.302   1.763   6.512  1.7100  1.2724  0.0654
  237MOL0     H32690   7.137   1.334   5.658 -0.9839 -0.8898  1.0556
  237MOL0     H32691   6.911   1.241   5.615  1.0681 -1.0716 -0.3200
  237MOL0     H32692   6.469   1.423   5.386  1.2551 -0.0131 -0.6431
  237MOL0     H32693   6.231   1.359   5.357  2.0407  0.7592 -0.3334
  237MOL0     H32694   6.011   1.364   5.429 -0.8915  0.5349 -3.3552
  237MOL0     H32695   6.038   1.231   5.330  2.4946  1.3844  0.3841
  237MOL0     H32696   5.869   1.105   5.436  1.9514  0.3559 -0.3966
  237MOL0     H32697   5.798   1.266   5.384 -2.2241  0.5441  1.9826
  237MOL0     H32698   5.873   1.195   5.672 -1.8908  1.1590  2.9599
  237MOL0     H32699   5.809   1.344   5.614  0.5039  0.5841  0.0260
  237MOL0     H32700   5.603   1.217   5.530  1.1276  3.3798  1.4932
  237MOL0     H32701   5.626   1.197   5.703 -2.3615 -0.1671 -0.4307
  237MOL0     H32702   5.697   0.801   5.624 -1.1713  0.2301 -1.5272
  237MOL0     H32703   6.244   1.137   5.726  2.1222  0.3163  1.3758
  237MOL0     H32704   6.524   1.275   5.861 -0.7562 -0.4425  0.2087
  237MOL0     H32705   6.460   1.108   5.857 -0.8988  0.4928  0.8320
  237MOL0     H32706   6.606   1.134   5.780 -1.4476 -1.9325 -1.4909
  238MOL0     O32707   8.106  10.533   3.017  0.2313 -0.0701  0.2475
  238MOL0     C32708   8.006  10.596   3.048 -0.4951 -0.2361 -1.1702
  238MOL0     O32709   8.016  10.728   3.100  0.5937  0.3681  0.0678
  238MOL0     C32710   8.127  10.792   3.062  0.4316 -0.2998  0.1231
  238MOL0     C32711   8.118  10.869   2.950 -0.7438 -0.0925 -0.1157
  238MOL0     C32712   8.220  10.951   2.909  0.6689 -0.1261 -0.1117
  238MOL0     C32713   8.342  10.959   2.988 -0.1744  0.4392  1.1543
  238MOL0     O32714   8.458  11.031   2.958  0.1644  0.1266  0.3781
  238MOL0     C32715   8.461  11.104   2.836  0.8529 -0.7767  0.1343
  238MOL0     C32716   8.605  11.147   2.804 -0.4854 -0.8516  0.5746
  238MOL0     C32717   8.672  11.044   2.706  0.1883  0.2663 -1.6330
  238MOL0     C32718   8.815  11.071   2.673 -0.1550  0.9943 -0.1079
  238MOL0     C32719   8.879  10.961   2.597  1.6536  0.2009  0.3877
  238MOL0     C32720   9.017  11.022   2.561 -0.2550 -0.3145  0.4914
  238MOL0     C32721   9.096  10.944   2.463 -0.3973 -0.1671 -0.0439
  238MOL0     C32722   9.154  10.818   2.534  0.4844 -0.9110  0.4624
  238MOL0     N32723   9.231  10.731   2.437 -0.0759 -0.7823 -0.3072
  238MOL0     C32724   9.365  10.737   2.406  0.5793 -0.4065 -0.5560
  238MOL0     C32725   9.375  10.639   2.317  0.4999 -0.4603  0.3046
  238MOL0     C32726   9.501  10.594   2.269 -0.3219  0.8954  0.8291
  238MOL0     C32727   9.584  10.527   2.372 -0.4617  0.5740 -0.7027
  238MOL0     C32728   9.717  10.493   2.314  0.9990  0.7329 -0.3678
  238MOL0     C32729   9.807  10.409   2.398  0.9846 -0.3930 -0.2336
  238MOL0     O32730   9.889  10.488   2.483 -0.4946  0.5876  0.1398
  238MOL0     C32731   9.963  10.422   2.572 -0.5513  0.1251 -0.5893
  238MOL0     C32732   9.915  10.358   2.677  0.0820  0.5932  0.6261
  238MOL0     C32733   9.990  10.296   2.771 -0.5293 -0.8775  0.0417
  238MOL0     C32734   9.907  10.242   2.889 -0.7882  0.2200 -0.8435
  238MOL0     C32735  10.134  10.298   2.762  0.2991 -0.2285 -0.2633
  238MOL0     C32736  10.222  10.234   2.862  0.2488 -0.0443  0.4306
  238MOL0     O32737  10.357  10.234   2.825 -0.0009 -0.1954  0.3728
  238MOL0     C32738  10.457  10.179   2.900 -0.3083 -0.4689  0.4204
  238MOL0     C32739  10.455  10.078   2.994  0.5864  0.8393  0.2933
  238MOL0     C32740  10.569  10.024   3.059  0.7855  0.4460 -0.0711
  238MOL0     C32741  10.694  10.072   3.030  0.7223 -0.9378  0.6775
  238MOL0     O32742  10.814  10.024   3.079 -1.2270 -0.3144 -0.1068
  238MOL0     C32743  10.817   9.965   3.205  1.0264 -1.2203 -0.6337
  238MOL0     C32744  10.953   9.975   3.287  0.2106  0.0840 -0.4018
  238MOL0     C32745  11.032   9.846   3.283  0.3599  0.4721  0.0435
  238MOL0     C32746  11.127   9.846   3.399  0.1504 -0.1839 -0.1399
  238MOL0     C32747  11.237   9.733   3.375  0.5008 -0.1420 -0.6786
  238MOL0     C32748  11.383   9.779   3.383 -0.7532 -0.4041 -0.1994
  238MOL0     C32749  11.426   9.874   3.274  0.3498 -0.8246 -0.0518
  238MOL0     C32750  11.564   9.920   3.286 -0.0800 -0.8224  0.2858
  238MOL0    Cl32751  11.673   9.785   3.239 -0.0314  0.2257  0.0685
  238MOL0     C32752  10.690  10.176   2.935  0.0037  0.1290 -0.2122
  238MOL0     C32753  10.581  10.230   2.871 -0.6675 -0.3724  0.4017
  238MOL0     O32754  10.175  10.198   2.970  0.6630  0.5334 -0.2669
  238MOL0     C32755  10.182  10.372   2.650  0.1421  0.1111  0.2914
  238MOL0     C32756  10.093  10.436   2.561 -0.5029 -0.4065  0.1299
  238MOL0     N32757   9.260  10.587   2.270 -0.3909  0.5329 -0.8855
  238MOL0     N32758   9.173  10.629   2.354  0.2509  0.1706 -0.0557
  238MOL0     C32759   8.341  10.888   3.112 -0.3259  0.4399  0.5286
  238MOL0     C32760   8.230  10.811   3.155 -1.0884  0.5125  0.3971
  238MOL0     C32761   7.881  10.526   3.082  0.3070 -0.8786 -0.1355
  238MOL0     C32762   7.829  10.559   3.211 -1.2744  0.3003  0.4157
  238MOL0     C32763   7.722  10.480   3.249  0.1934  0.7526 -0.2050
  238MOL0     C32764   7.677  10.377   3.176 -0.0088  0.5986  0.4628
  238MOL0     O32765   7.586  10.274   3.226  0.0087  0.1428  0.0677
  238MOL0     C32766   7.510  10.300   3.337  0.2793 -0.5594 -0.3945
  238MOL0     C32767   7.393  10.393   3.321  0.7125 -0.6999 -0.1185
  238MOL0     C32768   7.266  10.319   3.264 -0.0864  0.6809  0.0378
  238MOL0     C32769   7.141  10.404   3.274 -0.4789 -0.2604 -0.2306
  238MOL0     C32770   7.023  10.356   3.209  0.0331 -0.4658 -0.1580
  238MOL0     C32771   6.919  10.330   3.152 -0.4944  0.5701  0.2145
  238MOL0     C32772   7.729  10.353   3.052 -0.1619  0.2423 -0.0938
  238MOL0     C32773   7.826  10.435   2.998 -0.0732  0.2124  0.7513
  238MOL0     C32774   7.880  10.408   2.860 -0.7905  0.3327  0.5662
  238MOL0     H32775   8.020  10.860   2.903 -1.0844 -1.4024  0.7774
  238MOL0     H32776   8.200  11.004   2.816  0.9991 -0.6219 -0.4688
  238MOL0     H32777   8.409  11.198   2.856  0.2237 -1.1682  0.3639
  238MOL0     H32778   8.400  11.060   2.756 -0.6866  2.0497 -0.3823
  238MOL0     H32779   8.599  11.243   2.751  0.0954 -1.6420 -1.0218
  238MOL0     H32780   8.671  11.161   2.890  1.0086  0.8774 -0.7673
  238MOL0     H32781   8.648  10.945   2.746  1.1036  0.4858 -0.4804
  238MOL0     H32782   8.608  11.049   2.617 -2.1772 -1.9115 -0.2040
  238MOL0     H32783   8.811  11.166   2.618 -1.9435  0.9611 -0.1057
  238MOL0     H32784   8.863  11.094   2.768  0.1247 -3.0099  0.9071
  238MOL0     H32785   8.823  10.956   2.503 -0.8220 -0.9518  1.8206
  238MOL0     H32786   8.873  10.862   2.643  0.4024 -0.5441 -1.2577
  238MOL0     H32787   9.003  11.121   2.518  0.7566 -1.1016 -1.8510
  238MOL0     H32788   9.078  11.043   2.650 -0.4594  0.8712  0.3719
  238MOL0     H32789   9.167  11.015   2.418  0.3222  0.2888  1.7382
  238MOL0     H32790   9.025  10.915   2.385 -1.3225 -2.1311  1.4403
  238MOL0     H32791   9.212  10.846   2.622 -0.4418  1.9541  0.2721
  238MOL0     H32792   9.076  10.751   2.572 -0.8380 -0.0879 -0.6803
  238MOL0     H32793   9.444  10.806   2.436  0.0458  1.1151 -2.4357
  238MOL0     H32794   9.552  10.684   2.235  0.9830  0.5743  1.8746
  238MOL0     H32795   9.491  10.523   2.185  5.6222  0.7689 -0.2344
  238MOL0     H32796   9.598  10.597   2.455 -2.3792 -0.7420  0.8357
  238MOL0     H32797   9.538  10.440   2.420 -0.7949  0.1769 -1.7170
  238MOL0     H32798   9.696  10.432   2.225 -0.8552  0.3225  0.2908
  238MOL0     H32799   9.775  10.582   2.289  1.4465  1.3896  2.6852
  238MOL0     H32800   9.760  10.323   2.447 -0.5854  0.6614  0.2068
  238MOL0     H32801   9.878  10.363   2.329 -0.8747 -3.6624 -0.1446
  238MOL0     H32802   9.808  10.353   2.698  0.1936  1.2246  1.3972
  238MOL0     H32803   9.799  10.253   2.895 -1.1061 -2.9544  1.8309
  238MOL0     H32804   9.937  10.295   2.980  1.2088  2.3041 -2.5750
  238MOL0     H32805   9.922  10.134   2.895  2.5226  0.6083 -0.0048
  238MOL0     H32806  10.360  10.038   3.027  1.2756 -1.8398 -0.6996
  238MOL0     H32807  10.563   9.945   3.133  1.0760  1.5305  1.1483
  238MOL0     H32808  10.751  10.015   3.276  1.8940  3.2333 -2.5860
  238MOL0     H32809  10.802   9.857   3.191 -2.1354 -1.0239  0.5336
  238MOL0     H32810  11.020  10.042   3.233  0.0596  0.9622  0.4675
  238MOL0     H32811  10.937  10.010   3.389 -0.8282 -0.6308 -0.2935
  238MOL0     H32812  11.077   9.842   3.183  1.4985 -0.0502  0.5603
  238MOL0     H32813  10.965   9.760   3.285  1.3265 -0.4329 -2.5109
  238MOL0     H32814  11.083   9.837   3.498  1.0391 -0.5244  0.2358
  238MOL0     H32815  11.173   9.946   3.393  0.3940 -0.3307 -0.8349
  238MOL0     H32816  11.219   9.647   3.440  3.9848 -1.0257 -0.7024
  238MOL0     H32817  11.219   9.695   3.273 -4.5860 -0.5715  0.0958
  238MOL0     H32818  11.454   9.697   3.366 -0.4341 -0.6128  1.9028
  238MOL0     H32819  11.393   9.825   3.482 -0.3552  0.1744 -0.5081
  238MOL0     H32820  11.364   9.964   3.275  1.8511  0.2949 -1.6019
  238MOL0     H32821  11.406   9.832   3.175 -0.6153  1.0518 -0.7010
  238MOL0     H32822  11.585   9.953   3.388  1.6517  0.3900 -0.4241
  238MOL0     H32823  11.592  10.001   3.218 -0.7483 -1.2357 -0.4971
  238MOL0     H32824  10.791  10.206   2.909  0.8229 -1.3827  1.0452
  238MOL0     H32825  10.599  10.313   2.804 -3.0722  0.7710  1.0803
  238MOL0     H32826  10.289  10.375   2.633  0.2489 -2.7277  0.0483
  238MOL0     H32827  10.133  10.487   2.473  0.0087 -0.6518  0.2150
  238MOL0     H32828   8.423  10.911   3.180 -0.4055 -3.2985  2.1278
  238MOL0     H32829   8.233  10.782   3.259  1.5852  2.4904  0.9785
  238MOL0     H32830   7.878  10.634   3.273 -0.2675  0.6199 -0.7250
  238MOL0     H32831   7.678  10.482   3.348  0.3228 -1.0678 -0.0756
  238MOL0     H32832   7.474  10.203   3.371 -0.3369  0.7477  3.1355
  238MOL0     H32833   7.559  10.338   3.427 -2.5796  0.8607  0.7042
  238MOL0     H32834   7.421  10.470   3.249  0.8088 -1.5258 -0.9805
  238MOL0     H32835   7.362  10.437   3.416  2.0381  1.0002 -0.4437
  238MOL0     H32836   7.277  10.294   3.158  1.2299  3.2493 -0.5085
  238MOL0     H32837   7.246  10.218   3.303  0.0471  0.4682 -0.4400
  238MOL0     H32838   7.163  10.504   3.236 -2.9816 -0.1339 -1.5906
  238MOL0     H32839   7.119  10.407   3.381 -2.7338 -2.1587 -0.5513
  238MOL0     H32840   6.824  10.312   3.107 -0.2462  1.0935 -0.5408
  238MOL0     H32841   7.674  10.273   3.004 -0.3366 -0.5784  1.4214
  238MOL0     H32842   7.976  10.354   2.863 -0.4757  0.5439 -2.3801
  238MOL0     H32843   7.810  10.353   2.797  0.8802 -0.8856 -0.3084
  238MOL0     H32844   7.908  10.498   2.805  1.6515  0.0708  1.2576
  239MOL0     O32845   2.593   6.390   4.313 -0.2779 -0.4965 -0.3709
  239MOL0     C32846   2.534   6.322   4.231 -0.0541 -0.4932 -0.1554
  239MOL0     O32847   2.590   6.266   4.112  0.1577 -0.5807 -0.4425
  239MOL0     C32848   2.730   6.276   4.091  0.1361  0.5839 -0.2291
  239MOL0     C32849   2.828   6.261   4.191  0.4286  0.5128  0.1784
  239MOL0     C32850   2.960   6.259   4.149 -0.6123  1.0820  0.0754
  239MOL0     C32851   3.004   6.296   4.013 -0.5336 -0.3316 -0.1774
  239MOL0     O32852   3.137   6.298   3.983  0.0503  0.4280 -0.4309
  239MOL0     C32853   3.178   6.185   3.904  0.4996  0.4321 -0.2439
  239MOL0     C32854   3.336   6.185   3.897 -0.4953 -0.2370 -0.5268
  239MOL0     C32855   3.389   6.120   4.030  0.0306  0.2701 -0.2067
  239MOL0     C32856   3.545   6.090   4.031  1.2408  0.1371  0.4708
  239MOL0     C32857   3.618   6.226   4.038  0.6320  0.1978 -0.4170
  239MOL0     C32858   3.767   6.218   4.033 -0.5134  0.6594  0.1701
  239MOL0     C32859   3.840   6.350   4.028 -0.0581 -0.0057 -0.2558
  239MOL0     C32860   3.837   6.410   3.892 -0.2343  0.3956 -0.5583
  239MOL0     N32861   3.885   6.547   3.904  0.9536 -0.6831 -0.4192
  239MOL0     C32862   3.868   6.647   3.812  0.2017 -0.1647 -0.6534
  239MOL0     C32863   3.964   6.737   3.844 -0.0237 -0.4625  0.1416
  239MOL0     C32864   3.988   6.861   3.771  0.0927 -0.3016  0.4357
  239MOL0     C32865   4.028   6.820   3.622  0.9646 -0.3038  0.0764
  239MOL0     C32866   4.137   6.712   3.620 -0.5896  0.2710  0.1879
  239MOL0     C32867   4.275   6.740   3.698 -0.2276 -0.0840 -0.8267
  239MOL0     O32868   4.345   6.854   3.642  0.2755  0.1343 -0.4526
  239MOL0     C32869   4.475   6.875   3.684 -0.2636 -1.4919  0.6781
  239MOL0     C32870   4.534   6.990   3.625  0.0526 -0.6248  0.2207
  239MOL0     C32871   4.667   7.030   3.658  0.2006 -0.1572 -0.0787
  239MOL0     C32872   4.731   7.141   3.587 -0.1637 -0.2406  0.4503
  239MOL0     C32873   4.743   6.959   3.759 -0.0969 -0.7964  0.2242
  239MOL0     C32874   4.877   6.994   3.815 -0.3160 -1.0310  0.1556
  239MOL0     O32875   4.895   6.956   3.947  0.5199  0.2297  0.2692
  239MOL0     C32876   5.013   6.959   4.012  0.2040 -0.2085  0.9539
  239MOL0     C32877   5.122   7.035   3.971 -1.0944 -0.8668 -0.6956
  239MOL0     C32878   5.235   7.035   4.051 -0.0926 -0.0454  0.1490
  239MOL0     C32879   5.259   6.949   4.158  0.8001 -0.4112  0.0943
  239MOL0     O32880   5.363   6.951   4.245 -0.2657 -0.6354 -0.4696
  239MOL0     C32881   5.460   7.066   4.245 -0.0947  0.8390 -0.2837
  239MOL0     C32882   5.568   7.029   4.355 -0.2596 -0.1259  0.7335
  239MOL0     C32883   5.693   7.118   4.336 -0.0066 -0.4385  0.6455
  239MOL0     C32884   5.794   7.105   4.454  0.3261  0.0577 -0.2973
  239MOL0     C32885   5.755   7.182   4.580  0.5004  0.0509 -0.3139
  239MOL0     C32886   5.845   7.155   4.708 -0.1803 -0.3406  0.2653
  239MOL0     C32887   5.976   7.228   4.694  0.1140 -0.2249 -0.4278
  239MOL0     C32888   6.059   7.181   4.807 -0.2965  0.0731 -0.1169
  239MOL0    Cl32889   6.208   7.292   4.812  0.3333  0.2213  0.3435
  239MOL0     C32890   5.154   6.854   4.182 -0.4143  0.3442 -0.8318
  239MOL0     C32891   5.031   6.871   4.116 -0.1750  0.4729  0.3410
  239MOL0     O32892   4.958   7.056   3.736  0.7348  0.4799 -0.0103
  239MOL0     C32893   4.679   6.850   3.820 -1.0734  0.0957  0.0040
  239MOL0     C32894   4.551   6.812   3.782  0.0491  0.4849  0.4700
  239MOL0     N32895   4.050   6.696   3.942 -0.0940 -0.7213 -0.8001
  239MOL0     N32896   4.000   6.578   3.975  0.1941 -0.0039  0.2166
  239MOL0     C32897   2.904   6.305   3.918  1.0919 -0.9059 -0.4019
  239MOL0     C32898   2.768   6.301   3.959 -0.0186  0.0705  0.9516
  239MOL0     C32899   2.391   6.288   4.241  0.5076 -0.0464  0.1364
  239MOL0     C32900   2.327   6.207   4.142 -0.6048  0.3019 -0.0871
  239MOL0     C32901   2.184   6.194   4.145 -0.7036 -0.2871 -0.2176
  239MOL0     C32902   2.104   6.236   4.256  0.5886  0.5443  0.3200
  239MOL0     O32903   1.967   6.217   4.246 -0.1907  0.0719  0.4888
  239MOL0     C32904   1.891   6.221   4.368  0.2640 -0.7450 -0.6236
  239MOL0     C32905   1.741   6.172   4.338 -0.6013  0.6746 -0.9793
  239MOL0     C32906   1.666   6.153   4.470 -0.3632 -0.2946  1.2884
  239MOL0     C32907   1.511   6.138   4.441  0.3866  0.0216  0.6617
  239MOL0     C32908   1.446   6.266   4.432  0.2818 -0.6826 -0.5425
  239MOL0     C32909   1.383   6.365   4.419  0.5923 -0.5177  0.0068
  239MOL0     C32910   2.169   6.315   4.354 -0.3682 -0.3995 -0.4022
  239MOL0     C32911   2.308   6.344   4.348  1.6474 -0.8804 -0.1453
  239MOL0     C32912   2.362   6.440   4.460  0.3004 -0.0410  0.3733
  239MOL0     H32913   2.802   6.257   4.296  2.8623  3.1906  1.0129
  239MOL0     H32914   3.039   6.249   4.223  1.6614  1.9566 -2.1223
  239MOL0     H32915   3.125   6.191   3.808  0.6073  0.5776 -0.2949
  239MOL0     H32916   3.142   6.096   3.956 -0.7888  0.6863 -0.6498
  239MOL0     H32917   3.366   6.134   3.805 -2.0861  0.0866 -1.2624
  239MOL0     H32918   3.368   6.290   3.891 -1.6481  0.2700  1.4468
  239MOL0     H32919   3.359   6.180   4.116  0.4822 -1.6596  1.3638
  239MOL0     H32920   3.330   6.029   4.045 -1.2101  1.0828 -0.0006
  239MOL0     H32921   3.572   6.029   4.117 -0.0194 -1.0925  0.0488
  239MOL0     H32922   3.575   6.030   3.944  1.1930  0.4748  0.2175
  239MOL0     H32923   3.590   6.289   4.124  0.1986  0.9639 -1.1028
  239MOL0     H32924   3.581   6.273   3.946  0.7558 -0.7205 -0.9441
  239MOL0     H32925   3.782   6.165   4.128  1.7102  2.1777  0.7501
  239MOL0     H32926   3.783   6.156   3.945  0.0230 -0.6517  1.1427
  239MOL0     H32927   3.940   6.324   4.063 -1.0299 -1.8313  1.4618
  239MOL0     H32928   3.801   6.406   4.114 -0.8013 -2.5570  1.2171
  239MOL0     H32929   3.908   6.351   3.834  2.2611 -0.4625  3.0400
  239MOL0     H32930   3.740   6.409   3.841  0.0073  0.5507 -1.0155
  239MOL0     H32931   3.801   6.649   3.727 -1.4419 -0.3392  0.6085
  239MOL0     H32932   4.069   6.922   3.813 -0.2155  0.4972 -0.1044
  239MOL0     H32933   3.903   6.929   3.778  2.0548  2.1484  2.2893
  239MOL0     H32934   3.945   6.804   3.553  1.7118  0.1363 -0.9534
  239MOL0     H32935   4.070   6.914   3.584  3.2313 -0.1731  2.5678
  239MOL0     H32936   4.102   6.614   3.653  0.3279 -0.8249 -1.8473
  239MOL0     H32937   4.164   6.694   3.515  1.6059  0.9427  0.5905
  239MOL0     H32938   4.266   6.759   3.805 -2.1720 -0.6881 -0.8302
  239MOL0     H32939   4.326   6.644   3.683  0.5909  0.6483 -3.0251
  239MOL0     H32940   4.467   7.027   3.548 -0.4081 -0.5837  0.6376
  239MOL0     H32941   4.731   7.230   3.650  4.7911  0.6172 -0.3421
  239MOL0     H32942   4.678   7.162   3.493  3.0138  0.9047 -1.2350
  239MOL0     H32943   4.832   7.109   3.557 -0.8234  1.1443 -4.0822
  239MOL0     H32944   5.123   7.105   3.888 -0.2944  0.2143  0.1782
  239MOL0     H32945   5.329   7.087   4.032  0.4881  0.0391  2.8403
  239MOL0     H32946   5.511   7.075   4.149 -2.6899  0.8908 -1.7445
  239MOL0     H32947   5.403   7.156   4.267 -1.0104  0.1997  0.0384
  239MOL0     H32948   5.531   7.053   4.455 -2.9467 -0.7544 -0.0251
  239MOL0     H32949   5.587   6.922   4.344  0.4184  0.0337  0.2732
  239MOL0     H32950   5.658   7.221   4.319 -3.6766 -1.4221  1.2866
  239MOL0     H32951   5.738   7.083   4.243  1.7996 -0.5985  1.5343
  239MOL0     H32952   5.893   7.139   4.424  0.2112  0.3868 -0.3138
  239MOL0     H32953   5.804   6.999   4.478 -2.3006 -0.2065 -0.0466
  239MOL0     H32954   5.736   7.286   4.550 -0.5976  0.1064  0.5189
  239MOL0     H32955   5.651   7.165   4.611  0.6872 -0.4695  0.0402
  239MOL0     H32956   5.863   7.047   4.715  0.7908 -0.1325  1.1975
  239MOL0     H32957   5.802   7.207   4.794  2.7443  1.9514  0.5056
  239MOL0     H32958   5.969   7.337   4.699 -0.7561 -0.3000  4.3211
  239MOL0     H32959   6.025   7.200   4.600  2.7333 -1.2335  1.1317
  239MOL0     H32960   6.097   7.078   4.807 -2.4774 -0.8312 -2.4818
  239MOL0     H32961   6.001   7.193   4.899 -2.0382 -2.4759 -0.7865
  239MOL0     H32962   5.162   6.778   4.259 -1.0548  1.7628  0.7019
  239MOL0     H32963   4.943   6.812   4.140  0.1557  0.2464  1.0111
  239MOL0     H32964   4.731   6.794   3.898  0.4538  0.4700 -0.7057
  239MOL0     H32965   4.512   6.722   3.828  2.2023 -0.6129  0.2936
  239MOL0     H32966   2.918   6.341   3.817  0.5368  0.9833  0.1468
  239MOL0     H32967   2.685   6.319   3.892  0.5649  1.3748  0.5401
  239MOL0     H32968   2.388   6.163   4.064  0.2357  2.2934 -0.6341
  239MOL0     H32969   2.136   6.132   4.071  2.6879 -3.3738 -0.1598
  239MOL0     H32970   1.927   6.160   4.451 -0.0811  1.1841  1.0275
  239MOL0     H32971   1.894   6.326   4.400 -0.4362 -0.4395 -1.5054
  239MOL0     H32972   1.723   6.083   4.277 -2.3902  0.0253  0.4047
  239MOL0     H32973   1.686   6.254   4.291 -0.1022  1.2292 -0.5989
  239MOL0     H32974   1.694   6.056   4.511  0.9304 -0.6781 -0.4226
  239MOL0     H32975   1.681   6.231   4.545 -0.2095 -0.0475  1.0010
  239MOL0     H32976   1.462   6.085   4.523  0.4864  0.5378  1.0588
  239MOL0     H32977   1.497   6.083   4.347 -2.5498  3.2227 -1.0411
  239MOL0     H32978   1.331   6.456   4.403  3.0553  1.2891  1.4898
  239MOL0     H32979   2.116   6.369   4.432  0.3971  1.2446 -0.9719
  239MOL0     H32980   2.395   6.361   4.527 -3.0192 -1.2793  0.7258
  239MOL0     H32981   2.448   6.507   4.448  0.2963 -0.2301 -0.8852
  239MOL0     H32982   2.282   6.486   4.518  1.0655  5.3546 -2.2136
  240MOL0     O32983   4.342   5.070   8.823  0.4131 -0.1454  0.0295
  240MOL0     C32984   4.297   4.965   8.863  0.5518 -0.5242 -0.3491
  240MOL0     O32985   4.356   4.890   8.960 -1.0577 -0.4584  0.1282
  240MOL0     C32986   4.430   4.961   9.049 -0.5820 -0.5470 -0.1334
  240MOL0     C32987   4.379   4.965   9.171 -0.9174 -0.5246 -0.2887
  240MOL0     C32988   4.456   5.013   9.282  0.8253 -0.0690  0.1615
  240MOL0     C32989   4.584   5.060   9.264 -0.1517 -0.4562 -0.6612
  240MOL0     O32990   4.658   5.091   9.376  0.1125  0.3075  0.2672
  240MOL0     C32991   4.733   5.209   9.341  0.6711  0.3734  0.7498
  240MOL0     C32992   4.734   5.289   9.466 -0.0501  1.0115 -0.0046
  240MOL0     C32993   4.818   5.406   9.438  1.0484 -1.0657 -0.3203
  240MOL0     C32994   4.933   5.410   9.542  1.3646  0.5337  1.1595
  240MOL0     C32995   5.015   5.536   9.526  0.2916  0.5144 -0.7317
  240MOL0     C32996   5.117   5.547   9.637 -0.0086  1.5127 -0.4004
  240MOL0     C32997   5.205   5.673   9.630  0.7545 -0.1206 -0.6950
  240MOL0     C32998   5.314   5.667   9.524  0.3910 -0.2243 -0.0807
  240MOL0     N32999   5.410   5.775   9.541 -0.1353  0.5660 -0.1799
  240MOL0     C33000   5.534   5.762   9.605 -0.6810  0.5613  0.5554
  240MOL0     C33001   5.587   5.886   9.606  0.6240  0.1256 -0.3358
  240MOL0     C33002   5.711   5.925   9.683 -0.3351 -0.3087 -0.8771
  240MOL0     C33003   5.769   5.808   9.783 -0.8678 -0.4801  1.5361
  240MOL0     C33004   5.896   5.844   9.861  0.1691  0.7644  0.4991
  240MOL0     C33005   6.014   5.905   9.778  0.0274 -0.0746  0.5741
  240MOL0     O33006   6.102   5.963   9.875 -0.0535 -0.2532 -0.2372
  240MOL0     C33007   6.233   5.971   9.841  0.0582  0.6432  0.5329
  240MOL0     C33008   6.298   5.965   9.715  0.4245 -0.8769  0.2261
  240MOL0     C33009   6.438   5.992   9.700  0.5871  0.1128  0.3490
  240MOL0     C33010   6.478   5.994   9.557 -0.1625 -0.6562 -0.8473
  240MOL0     C33011   6.516   6.026   9.807  0.4007  0.1096 -0.4975
  240MOL0     C33012   6.655   6.071   9.797 -0.6155 -0.7283 -0.9725
  240MOL0     O33013   6.718   6.050   9.679 -0.0283 -1.1022 -0.0478
  240MOL0     C33014   6.846   6.103   9.668 -0.8778 -0.1252 -0.8231
  240MOL0     C33015   6.874   6.171   9.554 -0.4098  0.9985 -0.2566
  240MOL0     C33016   7.004   6.193   9.522 -0.2380 -0.2742 -0.0568
  240MOL0     C33017   7.107   6.151   9.608  0.7043  0.1177  0.5046
  240MOL0     O33018   7.240   6.166   9.580 -0.0990  0.2625  0.0387
  240MOL0     C33019   7.280   6.295   9.540  0.4963 -0.0837  0.6147
  240MOL0     C33020   7.420   6.304   9.477  0.0806  1.1195 -0.3089
  240MOL0     C33021   7.476   6.435   9.487 -0.8055 -0.1319  0.1732
  240MOL0     C33022   7.586   6.461   9.388  0.1452  0.5618 -0.2322
  240MOL0     C33023   7.656   6.598   9.406  0.6136  0.4589  0.1289
  240MOL0     C33024   7.794   6.612   9.326  0.4559  0.0403 -0.5606
  240MOL0     C33025   7.777   6.625   9.167 -0.2219 -0.0780 -0.7426
  240MOL0     C33026   7.905   6.683   9.106  0.3965 -0.3308  0.4401
  240MOL0    Cl33027   7.944   6.843   9.172  0.0798  0.0712 -0.2031
  240MOL0     C33028   7.077   6.087   9.727  0.4674 -0.3832 -0.3612
  240MOL0     C33029   6.944   6.061   9.753  0.4672 -0.1092 -1.1188
  240MOL0     O33030   6.707   6.125   9.896 -0.1795 -0.2457 -0.2847
  240MOL0     C33031   6.453   6.034   9.936  0.5703 -0.0522 -0.0280
  240MOL0     C33032   6.317   5.998   9.948  0.3125 -0.2757 -0.5902
  240MOL0     N33033   5.496   5.976   9.545 -0.0655  0.0041 -0.0615
  240MOL0     N33034   5.400   5.900   9.490  0.2205 -0.5061  0.3254
  240MOL0     C33035   4.637   5.058   9.137 -0.0422  0.7198  0.2805
  240MOL0     C33036   4.557   5.010   9.020 -0.0719 -0.2618  0.0247
  240MOL0     C33037   4.185   4.909   8.785 -0.8085 -0.2470 -1.1096
  240MOL0     C33038   4.076   4.854   8.859 -0.6066 -0.7508 -0.3633
  240MOL0     C33039   3.973   4.792   8.788  0.2398  0.8516 -0.1277
  240MOL0     C33040   3.976   4.770   8.649 -0.0587 -0.0837  0.4211
  240MOL0     O33041   3.868   4.712   8.589 -0.1014  0.7082  0.1147
  240MOL0     C33042   3.826   4.765   8.462  0.1024  0.1143 -0.7573
  240MOL0     C33043   3.773   4.906   8.488  0.4868 -0.3793 -0.3398
  240MOL0     C33044   3.628   4.896   8.550 -0.4295  0.4084  0.1221
  240MOL0     C33045   3.532   4.924   8.435 -0.0090  0.2181 -0.1230
  240MOL0     C33046   3.387   4.897   8.460 -0.4193  0.3944 -0.3068
  240MOL0     C33047   3.265   4.901   8.477 -0.8482 -0.0181  0.4352
  240MOL0     C33048   4.086   4.831   8.584 -0.3660  0.7213 -0.2266
  240MOL0     C33049   4.193   4.889   8.646  0.3013  0.4287 -0.1629
  240MOL0     C33050   4.304   4.932   8.557 -0.2792 -0.6998  0.3106
  240MOL0     H33051   4.285   4.912   9.185 -2.2092  1.3453 -1.4291
  240MOL0     H33052   4.421   5.009   9.385  2.5095  2.5661  0.9377
  240MOL0     H33053   4.694   5.266   9.256 -0.7058 -2.1416 -0.4310
  240MOL0     H33054   4.830   5.166   9.316  0.7856 -0.3963  2.3922
  240MOL0     H33055   4.632   5.314   9.498  0.2585  0.1822  1.7461
  240MOL0     H33056   4.771   5.223   9.545  1.2492  1.0311 -0.5744
  240MOL0     H33057   4.852   5.408   9.335 -1.5923  0.1149 -1.2642
  240MOL0     H33058   4.757   5.496   9.455  0.4503 -1.2330 -1.4540
  240MOL0     H33059   4.884   5.404   9.640 -1.5376  1.6718 -0.1137
  240MOL0     H33060   4.991   5.320   9.521 -0.0881 -1.4460  4.6449
  240MOL0     H33061   4.959   5.629   9.515  1.6488  1.3359 -0.9724
  240MOL0     H33062   5.072   5.543   9.433 -0.3216  0.6774 -1.1039
  240MOL0     H33063   5.068   5.538   9.734 -0.0137  2.5363 -0.2906
  240MOL0     H33064   5.189   5.466   9.634 -1.4823  0.1173  0.6449
  240MOL0     H33065   5.236   5.678   9.734 -3.5999 -0.8912  0.8356
  240MOL0     H33066   5.144   5.763   9.624  3.4774  1.9298  0.4678
  240MOL0     H33067   5.363   5.569   9.525  0.9924  0.0193 -1.8795
  240MOL0     H33068   5.268   5.675   9.425  0.4199  0.3800 -0.0475
  240MOL0     H33069   5.578   5.670   9.645  1.2891  1.2445  0.0665
  240MOL0     H33070   5.690   6.020   9.734 -1.3143 -0.1436 -1.5537
  240MOL0     H33071   5.793   5.948   9.615  0.6761  3.7761  1.4029
  240MOL0     H33072   5.693   5.771   9.853 -1.7101  0.5416  1.1939
  240MOL0     H33073   5.786   5.722   9.718  0.0917  1.0212 -0.2770
  240MOL0     H33074   5.872   5.914   9.942 -2.3089  0.4041  0.1604
  240MOL0     H33075   5.937   5.750   9.898  0.4113  0.2046 -1.1129
  240MOL0     H33076   6.052   5.826   9.713  2.7091  0.5124  1.2907
  240MOL0     H33077   5.984   5.982   9.706 -0.6312 -0.3779  0.5198
  240MOL0     H33078   6.232   5.945   9.631  0.4263  0.2629 -0.0770
  240MOL0     H33079   6.550   5.918   9.526 -0.9044 -2.2729  1.1717
  240MOL0     H33080   6.516   6.093   9.530 -0.0564 -0.1229  1.1087
  240MOL0     H33081   6.390   5.969   9.497 -0.4018 -2.0706  0.0588
  240MOL0     H33082   6.801   6.192   9.477 -1.5701 -0.5254  0.3806
  240MOL0     H33083   7.036   6.242   9.431 -0.2348 -1.8152 -0.9349
  240MOL0     H33084   7.215   6.350   9.471  0.2343  2.4753  2.7560
  240MOL0     H33085   7.281   6.357   9.630 -1.2976  2.8109 -1.2140
  240MOL0     H33086   7.490   6.235   9.527  2.8915  2.0701 -2.6254
  240MOL0     H33087   7.410   6.282   9.370 -1.2187  0.6851 -0.1104
  240MOL0     H33088   7.510   6.448   9.590  1.9490  1.0536 -0.7797
  240MOL0     H33089   7.397   6.510   9.472  0.5164  0.8672 -2.3356
  240MOL0     H33090   7.551   6.450   9.285  0.8857  0.1449 -0.4441
  240MOL0     H33091   7.660   6.381   9.394  0.1595  0.2913 -2.7588
  240MOL0     H33092   7.587   6.677   9.378 -0.9532 -0.9386 -0.0884
  240MOL0     H33093   7.671   6.612   9.514  1.5859 -4.3966  0.8987
  240MOL0     H33094   7.858   6.528   9.356  0.8569  0.3717 -0.4877
  240MOL0     H33095   7.836   6.706   9.362 -0.8174 -0.0223  1.1860
  240MOL0     H33096   7.694   6.694   9.151 -1.0477 -0.5759  1.1058
  240MOL0     H33097   7.750   6.526   9.129  1.9462 -1.0131  0.0049
  240MOL0     H33098   7.896   6.669   8.998 -1.8405 -2.0556  0.7670
  240MOL0     H33099   7.993   6.626   9.138 -0.2725 -1.2888  0.6384
  240MOL0     H33100   7.149   6.047   9.797 -0.6611 -0.0733  1.0295
  240MOL0     H33101   6.924   6.013   9.848  2.1488 -1.2830 -1.2948
  240MOL0     H33102   6.502   6.057  10.031 -1.4083 -0.6846  1.2016
  240MOL0     H33103   6.271   5.995  10.046  1.8562 -1.0470  0.1569
  240MOL0     H33104   4.740   5.070   9.104 -0.2938 -3.2911 -2.7203
  240MOL0     H33105   4.598   5.011   8.920  1.1184 -1.4144  0.4576
  240MOL0     H33106   4.071   4.862   8.968 -0.9642  1.9746 -0.5062
  240MOL0     H33107   3.890   4.746   8.841 -0.0319 -0.1828 -1.3821
  240MOL0     H33108   3.917   4.764   8.402 -0.8377 -3.1577 -2.3388
  240MOL0     H33109   3.754   4.695   8.420  1.2831 -0.6852 -1.5113
  240MOL0     H33110   3.778   4.975   8.403  2.9461 -1.9115 -1.5080
  240MOL0     H33111   3.849   4.957   8.548  4.3618 -4.9971 -0.8012
  240MOL0     H33112   3.619   4.793   8.584  4.0532 -0.4666 -0.7188
  240MOL0     H33113   3.623   4.969   8.631  3.8224 -1.6753  2.6450
  240MOL0     H33114   3.573   4.879   8.345  2.5589 -0.2336  1.1807
  240MOL0     H33115   3.544   5.033   8.427 -1.8282  0.6214  1.5833
  240MOL0     H33116   3.160   4.921   8.494 -1.4200  0.2226 -2.7918
  240MOL0     H33117   4.109   4.827   8.478  2.0109  1.6974  0.1834
  240MOL0     H33118   4.336   4.848   8.494  3.1297  2.2277 -2.3589
  240MOL0     H33119   4.268   5.005   8.484  0.0609 -0.8502 -0.0125
  240MOL0     H33120   4.391   4.969   8.613 -1.5640  2.5083  0.3794
  241MOL0     O33121   9.684   3.858   7.551 -0.0964  0.1769 -0.4333
  241MOL0     C33122   9.579   3.896   7.601 -0.3033  0.3832  0.0500
  241MOL0     O33123   9.568   4.000   7.684  0.1772 -0.4269 -0.3660
  241MOL0     C33124   9.679   4.078   7.709 -0.4736  0.2282 -0.3675
  241MOL0     C33125   9.719   4.187   7.627  0.0856  0.6384 -0.3071
  241MOL0     C33126   9.828   4.267   7.667 -0.4907 -0.3618  0.5116
  241MOL0     C33127   9.898   4.244   7.780 -0.2613 -0.1831  0.4580
  241MOL0     O33128  10.003   4.328   7.811  0.0330  0.2231  0.3152
  241MOL0     C33129  10.049   4.328   7.941 -0.3036  0.1913  0.5099
  241MOL0     C33130  10.146   4.438   7.961  0.2564 -0.6503  0.5874
  241MOL0     C33131  10.211   4.430   8.100 -0.7844 -0.0898 -1.2827
  241MOL0     C33132  10.285   4.562   8.139  0.3343  0.0929  0.4959
  241MOL0     C33133  10.379   4.544   8.254 -0.4883  0.8283 -0.4797
  241MOL0     C33134  10.484   4.434   8.230  0.5376 -0.0207 -0.7650
  241MOL0     C33135  10.593   4.446   8.337  0.3109 -0.5326  0.4149
  241MOL0     C33136  10.701   4.348   8.311 -0.6569 -0.2574  0.5170
  241MOL0     N33137  10.821   4.393   8.375  0.4093 -0.6284 -0.6325
  241MOL0     C33138  10.929   4.312   8.378  0.8557  0.3920 -0.3442
  241MOL0     C33139  11.017   4.371   8.442 -0.1794 -0.1661  0.1231
  241MOL0     C33140  11.149   4.330   8.452 -0.6391  0.0368 -0.3681
  241MOL0     C33141  11.243   4.441   8.404 -0.3939 -0.0513 -0.0195
  241MOL0     C33142  11.380   4.397   8.373 -0.3134 -0.2751 -0.1184
  241MOL0     C33143  11.455   4.499   8.302 -0.4100 -0.2427 -0.4710
  241MOL0     O33144  11.510   4.599   8.398  0.3631  0.3332 -0.0308
  241MOL0     C33145  11.642   4.625   8.372  0.0715  1.1342 -0.1641
  241MOL0     C33146  11.686   4.698   8.265 -1.0705  0.0156  0.2959
  241MOL0     C33147  11.821   4.708   8.224 -0.6941 -0.2420 -0.3799
  241MOL0     C33148  11.851   4.783   8.104  0.3639  0.6343 -0.1426
  241MOL0     C33149  11.916   4.635   8.294 -0.2442  0.7520  0.1469
  241MOL0     C33150  12.053   4.624   8.246 -0.0184 -0.5336  0.0823
  241MOL0     O33151  12.108   4.738   8.221  0.0343 -0.0211  0.1474
  241MOL0     C33152  12.242   4.730   8.179  0.0512 -0.5482  0.5713
  241MOL0     C33153  12.263   4.728   8.040  1.3762  0.4671 -0.0613
  241MOL0     C33154  12.395   4.745   7.991 -0.3032 -0.5033  0.5460
  241MOL0     C33155  12.509   4.735   8.066 -0.0011 -0.5947  0.0450
  241MOL0     O33156  12.630   4.738   8.008 -0.7382  0.3558 -0.0399
  241MOL0     C33157  12.739   4.670   8.066  0.3636 -0.4469  0.0302
  241MOL0     C33158  12.867   4.649   7.971  0.6270  1.0309  0.6324
  241MOL0     C33159  12.970   4.532   8.008 -0.2835  0.1842  0.1961
  241MOL0     C33160  13.050   4.482   7.885 -0.0922  0.6697 -0.1923
  241MOL0     C33161  13.132   4.583   7.804  0.4501 -0.8921  0.1918
  241MOL0     C33162  13.220   4.674   7.898 -0.5805 -0.3232 -0.9073
  241MOL0     C33163  13.291   4.784   7.805  0.1746 -0.3382 -0.4748
  241MOL0     C33164  13.357   4.883   7.893  0.2255 -0.2419 -0.4042
  241MOL0    Cl33165  13.509   4.812   7.953  0.1862 -0.3375  0.0217
  241MOL0     C33166  12.486   4.722   8.200 -0.6040 -0.0448  0.2432
  241MOL0     C33167  12.356   4.727   8.261 -0.3631  0.0581  0.9924
  241MOL0     O33168  12.106   4.514   8.254  0.5353  0.0701  0.1038
  241MOL0     C33169  11.877   4.560   8.412 -0.1001  0.0156  0.5994
  241MOL0     C33170  11.738   4.555   8.441 -0.0079 -1.0693  0.2736
  241MOL0     N33171  10.962   4.483   8.499 -0.6739  0.5454  0.1763
  241MOL0     N33172  10.851   4.507   8.452  0.5447 -0.1201  0.6338
  241MOL0     C33173   9.867   4.129   7.852 -0.2562  0.1730  0.4241
  241MOL0     C33174   9.751   4.054   7.823 -0.4520 -0.3623 -0.0209
  241MOL0     C33175   9.450   3.839   7.555  0.2212  0.6850 -0.0317
  241MOL0     C33176   9.335   3.873   7.637  0.2404 -0.0802 -0.0707
  241MOL0     C33177   9.200   3.841   7.608 -0.4384  0.1455 -0.1489
  241MOL0     C33178   9.177   3.761   7.492  0.0927  0.5149 -0.1913
  241MOL0     O33179   9.054   3.700   7.468 -0.0088  0.3348  0.5392
  241MOL0     C33180   8.969   3.792   7.406  0.1470 -0.5234  0.0022
  241MOL0     C33181   8.837   3.731   7.378  0.3467  0.4471  0.2698
  241MOL0     C33182   8.761   3.707   7.505 -0.3471  0.1909 -0.2890
  241MOL0     C33183   8.646   3.602   7.485  0.3236  0.0851  0.5630
  241MOL0     C33184   8.549   3.629   7.373 -1.7529 -0.4604 -1.0288
  241MOL0     C33185   8.483   3.654   7.272  0.5154 -0.3629  0.7415
  241MOL0     C33186   9.294   3.734   7.412 -0.1728 -0.1563  0.4509
  241MOL0     C33187   9.427   3.760   7.438 -0.6660  0.0949 -0.6130
  241MOL0     C33188   9.529   3.726   7.325 -0.1956 -0.2495 -0.4338
  241MOL0     H33189   9.661   4.211   7.538 -1.3340 -0.3801  0.2901
  241MOL0     H33190   9.858   4.353   7.608  1.3248 -0.3945  1.3179
  241MOL0     H33191  10.103   4.237   7.967  0.9159  0.1013 -2.0730
  241MOL0     H33192   9.966   4.343   8.011  0.2610 -1.6699  1.6483
  241MOL0     H33193  10.221   4.425   7.881 -1.3646 -0.2643 -1.0732
  241MOL0     H33194  10.094   4.534   7.956 -0.0607 -0.8508 -0.3465
  241MOL0     H33195  10.135   4.419   8.178 -0.0831  1.3934 -0.3290
  241MOL0     H33196  10.286   4.351   8.095 -0.9280 -0.1855 -2.1701
  241MOL0     H33197  10.347   4.587   8.053 -0.7678 -2.3956 -1.1155
  241MOL0     H33198  10.208   4.639   8.153 -1.3932 -1.2202 -1.1702
  241MOL0     H33199  10.324   4.523   8.346 -2.5409  2.9129 -1.1166
  241MOL0     H33200  10.440   4.635   8.255  3.5159 -1.6218  1.1486
  241MOL0     H33201  10.434   4.338   8.238 -0.5645  0.3428 -2.8146
  241MOL0     H33202  10.527   4.448   8.131 -0.2037 -1.5549 -1.3341
  241MOL0     H33203  10.564   4.415   8.437  1.2175 -0.0017  0.8494
  241MOL0     H33204  10.620   4.552   8.339 -1.2553 -0.1095  0.6764
  241MOL0     H33205  10.669   4.250   8.349 -0.2636 -0.7314 -0.3461
  241MOL0     H33206  10.723   4.341   8.204  1.9486 -2.0252  1.0837
  241MOL0     H33207  10.951   4.223   8.320  0.3678  1.3775 -2.1250
  241MOL0     H33208  11.164   4.240   8.392 -0.7507  1.3167 -2.4395
  241MOL0     H33209  11.179   4.316   8.556  1.0150  0.5995 -0.7333
  241MOL0     H33210  11.208   4.494   8.315  0.7617 -0.7514 -0.9338
  241MOL0     H33211  11.252   4.521   8.477  3.7702  1.6642 -2.0606
  241MOL0     H33212  11.431   4.352   8.459  2.7035  0.1705 -1.5379
  241MOL0     H33213  11.376   4.323   8.292  1.0436  0.0986 -0.5586
  241MOL0     H33214  11.531   4.451   8.240  0.1495 -1.6733  1.2497
  241MOL0     H33215  11.387   4.551   8.234 -0.3525  2.3437  1.2964
  241MOL0     H33216  11.610   4.759   8.217 -1.4703 -0.8228 -0.1592
  241MOL0     H33217  11.752   4.807   8.064  0.9891  0.2460 -2.0338
  241MOL0     H33218  11.899   4.714   8.034  0.0237  0.0850  0.1610
  241MOL0     H33219  11.916   4.870   8.116  3.2127 -1.4865  1.1003
  241MOL0     H33220  12.175   4.735   7.977 -1.2469 -2.3635  2.8762
  241MOL0     H33221  12.414   4.762   7.886  0.4103 -1.6148  0.4824
  241MOL0     H33222  12.773   4.725   8.154 -2.2175  0.3341  0.6274
  241MOL0     H33223  12.700   4.577   8.108 -2.2822  1.8143  3.1924
  241MOL0     H33224  12.835   4.631   7.867  3.2442  1.2040 -0.2668
  241MOL0     H33225  12.939   4.731   7.967  1.8193 -0.0103 -0.1386
  241MOL0     H33226  12.914   4.444   8.041 -1.1852 -0.4631 -2.7316
  241MOL0     H33227  13.042   4.573   8.079  0.5118  2.0228 -1.5497
  241MOL0     H33228  12.983   4.433   7.814  1.7007  1.1916 -2.3904
  241MOL0     H33229  13.118   4.403   7.917  0.2615  1.0092 -0.0901
  241MOL0     H33230  13.210   4.540   7.741  0.8538  1.0097 -0.6948
  241MOL0     H33231  13.065   4.648   7.746  1.2107 -0.7196 -0.5192
  241MOL0     H33232  13.297   4.605   7.934  0.1966 -0.8878 -3.4366
  241MOL0     H33233  13.182   4.729   7.984  0.4537  0.1874 -0.7566
  241MOL0     H33234  13.212   4.833   7.749  2.7210  2.8198 -1.5522
  241MOL0     H33235  13.358   4.732   7.736  0.3911 -0.0216 -0.5036
  241MOL0     H33236  13.290   4.911   7.975  1.1369 -1.3194  0.7606
  241MOL0     H33237  13.384   4.972   7.836  0.3250  0.4181  0.6315
  241MOL0     H33238  12.572   4.718   8.266 -0.1527  1.4749 -0.2146
  241MOL0     H33239  12.343   4.726   8.368  2.2526  1.7461  1.4163
  241MOL0     H33240  11.943   4.500   8.473 -1.0595 -2.0408 -0.2786
  241MOL0     H33241  11.711   4.494   8.526 -0.9731  0.7907  1.3584
  241MOL0     H33242   9.928   4.089   7.932  0.9980 -0.3223 -0.7332
  241MOL0     H33243   9.727   3.979   7.898 -0.6787 -0.2041  0.0648
  241MOL0     H33244   9.351   3.919   7.734  0.8028  1.6378 -0.9310
  241MOL0     H33245   9.111   3.848   7.670 -0.4139 -1.9759  0.2200
  241MOL0     H33246   8.957   3.883   7.466 -0.3299 -1.4674  1.3921
  241MOL0     H33247   8.999   3.806   7.302 -0.9835  1.1451 -0.1343
  241MOL0     H33248   8.855   3.638   7.324  0.6295  0.2269  0.7407
  241MOL0     H33249   8.780   3.800   7.315 -2.8622 -2.6271 -0.5417
  241MOL0     H33250   8.818   3.662   7.587 -3.0899 -1.4338  0.8593
  241MOL0     H33251   8.709   3.790   7.553  1.2278 -0.7533  3.4520
  241MOL0     H33252   8.593   3.611   7.580  1.5057  1.9838  1.1029
  241MOL0     H33253   8.676   3.497   7.479 -1.5366 -0.4240 -2.3512
  241MOL0     H33254   8.413   3.676   7.194 -0.2039  0.4494  1.5963
  241MOL0     H33255   9.277   3.667   7.328  1.6635  0.9135 -0.8445
  241MOL0     H33256   9.553   3.813   7.264  0.1636  0.3969  0.6023
  241MOL0     H33257   9.624   3.691   7.366  1.4958  1.9826 -2.2405
  241MOL0     H33258   9.496   3.644   7.261 -2.1197  0.5401 -0.5122
  242MOL0     O33259   4.932   6.472   0.597  0.2175 -0.0653 -0.1611
  242MOL0     C33260   4.989   6.422   0.690 -0.3505  0.2082 -0.3905
  242MOL0     O33261   5.125   6.438   0.709 -0.3300  0.2189 -0.4133
  242MOL0     C33262   5.201   6.487   0.595 -0.2307  0.1477 -0.0461
  242MOL0     C33263   5.282   6.396   0.524 -0.2975  0.2841 -0.2097
  242MOL0     C33264   5.359   6.443   0.415 -0.4016  0.2109 -0.4684
  242MOL0     C33265   5.354   6.576   0.378 -0.4409 -0.6637  0.1658
  242MOL0     O33266   5.409   6.599   0.257 -0.0463  0.1452 -0.4542
  242MOL0     C33267   5.377   6.729   0.205  0.3023 -0.1378  0.5435
  242MOL0     C33268   5.437   6.743   0.068 -0.1603 -0.1166 -0.0598
  242MOL0     C33269   5.596   6.762   0.063  0.6402 -0.4184 -0.4195
  242MOL0     C33270   5.628   6.904   0.020 -0.4314  0.0231  0.3816
  242MOL0     C33271   5.781   6.935   0.018 -0.5533  0.0663 -0.1842
  242MOL0     C33272   5.824   6.975   0.163 -0.3041  0.7301  0.4023
  242MOL0     C33273   5.967   7.028   0.175  0.9788 -1.3479  0.0082
  242MOL0     C33274   6.075   6.937   0.127 -0.3019  0.2599 -0.5155
  242MOL0     N33275   6.216   6.963   0.167  0.1576 -0.2678  0.4019
  242MOL0     C33276   6.326   6.909   0.112 -0.0232  0.3087  0.2136
  242MOL0     C33277   6.426   6.968   0.176 -1.0686  0.7720  0.0399
  242MOL0     C33278   6.573   6.946   0.123  0.4967 -0.3960 -0.2840
  242MOL0     C33279   6.584   6.942  -0.027  0.4516  0.0776 -0.6850
  242MOL0     C33280   6.721   6.923  -0.065 -0.2946  0.0361  0.1979
  242MOL0     C33281   6.743   6.925  -0.216  0.1443 -0.4972 -0.8831
  242MOL0     O33282   6.725   7.061  -0.259  0.2404 -0.6721 -0.1780
  242MOL0     C33283   6.838   7.130  -0.303  0.5699  0.3056 -0.3267
  242MOL0     C33284   6.840   7.181  -0.437 -0.4765 -0.2282  0.4168
  242MOL0     C33285   6.962   7.246  -0.493  0.0506  0.4961  0.2169
  242MOL0     C33286   6.940   7.291  -0.634 -1.3578 -0.6505  0.4949
  242MOL0     C33287   7.078   7.255  -0.412  0.7887  0.4847 -0.1846
  242MOL0     C33288   7.206   7.320  -0.460  0.7456  0.5179 -0.5745
  242MOL0     O33289   7.201   7.411  -0.560  0.5478 -0.5393  0.2376
  242MOL0     C33290   7.317   7.446  -0.628  0.6923 -0.2018  0.5130
  242MOL0     C33291   7.420   7.531  -0.579 -0.9415 -1.0149 -0.1960
  242MOL0     C33292   7.534   7.566  -0.644  0.8202  0.7413  0.3402
  242MOL0     C33293   7.559   7.498  -0.771 -0.7498 -0.4697 -0.1705
  242MOL0     O33294   7.661   7.547  -0.849 -0.3040 -1.1384  0.2685
  242MOL0     C33295   7.792   7.586  -0.805 -0.2982  0.0014 -0.1612
  242MOL0     C33296   7.908   7.481  -0.840 -0.4723 -0.5114 -0.2594
  242MOL0     C33297   7.893   7.436  -0.987 -0.4899 -0.2975 -0.9466
  242MOL0     C33298   8.032   7.411  -1.040 -0.7121  0.8554 -0.5134
  242MOL0     C33299   8.022   7.336  -1.177  0.0922  0.4501  0.0175
  242MOL0     C33300   8.151   7.372  -1.261  0.4471 -0.1557  0.0590
  242MOL0     C33301   8.133   7.297  -1.393 -0.5038 -0.2763  0.2061
  242MOL0     C33302   8.257   7.310  -1.488 -0.2537 -0.7332  0.2397
  242MOL0    Cl33303   8.281   7.472  -1.567 -0.4335  0.2826 -0.1573
  242MOL0     C33304   7.469   7.401  -0.818 -0.2231  0.2685  0.0904
  242MOL0     C33305   7.349   7.376  -0.743  0.2947  0.6385  0.4361
  242MOL0     O33306   7.313   7.275  -0.415  0.5217  0.6610  0.7014
  242MOL0     C33307   7.074   7.192  -0.288  0.3109 -0.0946  0.5648
  242MOL0     C33308   6.958   7.124  -0.236 -0.1127 -0.7168 -1.0624
  242MOL0     N33309   6.387   7.054   0.275  0.0636  0.2549 -0.3170
  242MOL0     N33310   6.260   7.062   0.256 -0.0749  0.5322 -0.2623
  242MOL0     C33311   5.293   6.670   0.458  0.7143  1.1585 -0.6479
  242MOL0     C33312   5.208   6.619   0.564 -0.0247 -0.5542  0.0167
  242MOL0     C33313   4.919   6.315   0.767  0.3969  0.6713 -0.9072
  242MOL0     C33314   4.991   6.216   0.837 -0.0820 -0.6766  0.3338
  242MOL0     C33315   4.948   6.109   0.906 -0.5266 -0.1028 -0.6717
  242MOL0     C33316   4.812   6.096   0.925 -0.9782  0.5283  1.3312
  242MOL0     O33317   4.751   6.006   1.008 -0.6173  0.4007  0.0057
  242MOL0     C33318   4.696   6.050   1.129  0.1079  1.0193  0.5590
  242MOL0     C33319   4.787   6.023   1.244  0.7365 -0.1764 -0.2279
  242MOL0     C33320   4.733   6.068   1.389  0.0124 -0.4632 -0.2963
  242MOL0     C33321   4.595   6.013   1.424  0.2579 -0.1170 -0.3005
  242MOL0     C33322   4.561   6.061   1.564 -0.7543 -0.5721 -0.1297
  242MOL0     C33323   4.551   6.105   1.672  0.6412 -0.5943  0.1104
  242MOL0     C33324   4.736   6.181   0.853 -1.3188  0.1128 -0.2414
  242MOL0     C33325   4.783   6.277   0.767 -0.3537 -0.1847  0.5156
  242MOL0     C33326   4.671   6.341   0.698 -0.4795  0.6345  0.1689
  242MOL0     H33327   5.292   6.292   0.552  1.3911  0.8188  1.3296
  242MOL0     H33328   5.422   6.371   0.364  0.0844  1.0579 -1.0845
  242MOL0     H33329   5.436   6.790   0.274  4.4756 -2.9632 -0.1884
  242MOL0     H33330   5.271   6.756   0.209  0.2398 -0.0319 -1.1102
  242MOL0     H33331   5.419   6.650   0.014 -0.6085  0.8296 -1.6002
  242MOL0     H33332   5.387   6.823   0.012  2.0147  2.2852  1.2144
  242MOL0     H33333   5.633   6.749   0.165  0.5002 -0.6775 -0.4022
  242MOL0     H33334   5.649   6.691  -0.001 -2.1478 -2.1965 -0.8864
  242MOL0     H33335   5.586   6.924  -0.079  0.1003  2.2510  0.5649
  242MOL0     H33336   5.570   6.976   0.079 -0.9747  1.4858 -1.8317
  242MOL0     H33337   5.796   7.030  -0.035 -0.3273 -0.0754 -0.3754
  242MOL0     H33338   5.837   6.860  -0.038  0.0735 -0.3839  1.0256
  242MOL0     H33339   5.754   7.052   0.197  0.5358  2.2454 -1.1226
  242MOL0     H33340   5.828   6.891   0.232  2.5580 -0.3846 -0.9825
  242MOL0     H33341   5.981   7.053   0.281 -4.4543 -0.7691  0.8988
  242MOL0     H33342   5.966   7.117   0.112  0.7734 -0.8653  0.6831
  242MOL0     H33343   6.053   6.836   0.161 -0.5422  0.7141  0.7361
  242MOL0     H33344   6.074   6.935   0.017 -0.1068 -2.2634 -0.5255
  242MOL0     H33345   6.321   6.849   0.022 -0.1414 -1.8634  1.6083
  242MOL0     H33346   6.613   6.860   0.178 -1.2288 -2.0894 -1.5833
  242MOL0     H33347   6.625   7.036   0.157 -2.7513  0.3780  3.2522
  242MOL0     H33348   6.524   6.861  -0.070  0.9194 -1.6605  1.7121
  242MOL0     H33349   6.552   7.042  -0.058 -0.7186 -0.5009 -1.4215
  242MOL0     H33350   6.777   7.007  -0.024  0.3675 -1.4351  2.5251
  242MOL0     H33351   6.768   6.830  -0.032  0.7580 -0.1677 -1.7400
  242MOL0     H33352   6.847   6.896  -0.230  0.7586  0.2185  1.6398
  242MOL0     H33353   6.684   6.848  -0.267 -0.0365 -1.1744  0.3097
  242MOL0     H33354   6.749   7.167  -0.494 -0.9083 -0.1302  1.0742
  242MOL0     H33355   6.848   7.255  -0.681 -1.3019  0.5004 -0.5282
  242MOL0     H33356   7.025   7.255  -0.692 -0.2543  0.1626  1.5463
  242MOL0     H33357   6.943   7.400  -0.642 -0.8812 -0.5510  1.7090
  242MOL0     H33358   7.393   7.587  -0.490 -1.1586 -1.6134  0.1167
  242MOL0     H33359   7.594   7.646  -0.602 -0.6706  2.4560 -0.6441
  242MOL0     H33360   7.814   7.680  -0.856 -1.0044 -0.2857 -1.0287
  242MOL0     H33361   7.798   7.615  -0.700 -1.8153  3.8989 -0.9816
  242MOL0     H33362   8.002   7.535  -0.827 -0.6980  0.2719 -1.7238
  242MOL0     H33363   7.898   7.403  -0.764 -2.4022  0.5593  0.6719
  242MOL0     H33364   7.851   7.522  -1.040  0.0884  1.4054  1.2057
  242MOL0     H33365   7.824   7.351  -0.998  1.4566 -2.3519  1.5252
  242MOL0     H33366   8.084   7.341  -0.974  0.0691 -2.0071 -3.8605
  242MOL0     H33367   8.086   7.506  -1.041 -0.9768  1.0503  1.1844
  242MOL0     H33368   8.015   7.227  -1.167  2.5488  0.1479 -0.7588
  242MOL0     H33369   7.938   7.368  -1.238  1.8633  1.0624 -2.2209
  242MOL0     H33370   8.247   7.339  -1.220  0.0465  0.8939  1.9353
  242MOL0     H33371   8.164   7.478  -1.283  1.2204  0.0241  1.2875
  242MOL0     H33372   8.053   7.354  -1.442  1.3973  3.5370  1.1293
  242MOL0     H33373   8.107   7.191  -1.392 -1.5463 -0.0715 -1.2625
  242MOL0     H33374   8.254   7.230  -1.563 -0.4497 -1.1198  0.6512
  242MOL0     H33375   8.354   7.288  -1.443 -0.6609 -0.0336  1.4967
  242MOL0     H33376   7.475   7.333  -0.902  1.3545 -0.7889  1.0141
  242MOL0     H33377   7.284   7.298  -0.781 -1.8128  1.3663  2.3747
  242MOL0     H33378   7.166   7.208  -0.231  0.5357 -1.8928  0.7740
  242MOL0     H33379   6.965   7.094  -0.131 -1.9592  3.1052  0.3201
  242MOL0     H33380   5.291   6.777   0.441 -1.2916  1.0399 -1.5344
  242MOL0     H33381   5.152   6.694   0.619 -0.9749  0.4660 -2.2236
  242MOL0     H33382   5.099   6.211   0.828 -0.0803 -2.0144  0.8585
  242MOL0     H33383   5.022   6.049   0.957 -0.8393  0.2762  0.2565
  242MOL0     H33384   4.667   6.155   1.114 -1.0714  0.3544 -2.5882
  242MOL0     H33385   4.612   5.981   1.142  2.0260 -1.3118  1.3172
  242MOL0     H33386   4.870   6.090   1.221  0.0360  0.1974 -1.7546
  242MOL0     H33387   4.822   5.919   1.242  0.5270 -0.2863  0.9299
  242MOL0     H33388   4.805   6.023   1.457 -1.0226 -0.8361  0.5673
  242MOL0     H33389   4.741   6.176   1.403  4.3835 -0.0438 -3.8037
  242MOL0     H33390   4.597   5.905   1.438  1.6876  0.0265  0.8439
  242MOL0     H33391   4.518   6.053   1.357 -2.1066  0.9455  2.7907
  242MOL0     H33392   4.525   6.151   1.765  0.2703  0.4049 -0.4714
  242MOL0     H33393   4.629   6.172   0.867 -1.1596  0.4827  1.4663
  242MOL0     H33394   4.600   6.266   0.663 -0.9039 -0.5679  3.3612
  242MOL0     H33395   4.628   6.408   0.773 -1.1197 -1.1793  1.4767
  242MOL0     H33396   4.697   6.413   0.619 -2.9071 -1.0644 -2.3848
  243MOL0     O33397   6.950   1.746   7.131 -0.0176 -0.2420  0.2370
  243MOL0     C33398   6.959   1.832   7.219 -0.2602  0.9767 -0.2265
  243MOL0     O33399   6.863   1.875   7.294  0.3767  0.1742  0.7473
  243MOL0     C33400   6.742   1.813   7.301  0.0509  0.6644  0.9041
  243MOL0     C33401   6.641   1.814   7.201  0.0078 -0.3864  0.1180
  243MOL0     C33402   6.521   1.741   7.225  0.1767 -0.4214  0.1667
  243MOL0     C33403   6.488   1.669   7.340 -0.6545  0.1507 -0.0691
  243MOL0     O33404   6.369   1.609   7.365 -0.6685 -0.1680 -0.3399
  243MOL0     C33405   6.256   1.640   7.280  1.3501  0.5499 -0.3458
  243MOL0     C33406   6.143   1.541   7.321  0.0871 -0.4307 -0.4093
  243MOL0     C33407   6.006   1.569   7.256 -0.2908 -0.2277 -0.0144
  243MOL0     C33408   5.899   1.478   7.309 -0.4422  0.2518 -0.1259
  243MOL0     C33409   5.774   1.509   7.229  0.7102  0.4139  0.8731
  243MOL0     C33410   5.788   1.460   7.084  0.1260  1.5247  0.5856
  243MOL0     C33411   5.648   1.460   7.014 -0.0651 -0.1256  1.1169
  243MOL0     C33412   5.646   1.365   6.884  0.0049 -0.2773  0.3644
  243MOL0     N33413   5.652   1.225   6.917  0.3431  0.3456  0.4884
  243MOL0     C33414   5.759   1.151   6.960  0.0547 -0.1780 -0.0620
  243MOL0     C33415   5.730   1.019   6.927  0.0625 -0.5917 -0.1503
  243MOL0     C33416   5.819   0.901   6.933  0.2186 -0.0569  0.5832
  243MOL0     C33417   5.886   0.877   7.064  0.2092 -0.0922 -0.1520
  243MOL0     C33418   5.943   0.735   7.076 -0.2929 -0.0517 -0.1707
  243MOL0     C33419   5.983   0.703   7.221  0.4753  1.0262  0.1076
  243MOL0     O33420   6.096   0.767   7.275  0.4398  0.2684  0.2228
  243MOL0     C33421   6.221   0.749   7.235  0.3703 -0.0931 -0.1346
  243MOL0     C33422   6.267   0.667   7.132 -0.0483  1.1499 -1.0489
  243MOL0     C33423   6.407   0.652   7.102  1.3174 -0.3991 -0.4653
  243MOL0     C33424   6.453   0.536   7.020 -0.3005  0.5438 -0.0590
  243MOL0     C33425   6.497   0.743   7.164 -0.3743 -0.3542 -0.1110
  243MOL0     C33426   6.645   0.744   7.142 -0.0851  0.1249  0.9820
  243MOL0     O33427   6.728   0.802   7.236 -0.9290  0.6114  0.5653
  243MOL0     C33428   6.865   0.794   7.227 -0.7862  0.4327  0.7807
  243MOL0     C33429   6.937   0.675   7.187  0.2037 -0.5417 -0.1631
  243MOL0     C33430   7.077   0.675   7.161  0.7340  0.3381  0.0198
  243MOL0     C33431   7.150   0.786   7.172 -0.3168  0.3038 -0.1543
  243MOL0     O33432   7.281   0.798   7.134 -0.6233  0.8607 -0.5030
  243MOL0     C33433   7.364   0.686   7.162  0.0055 -0.6437 -0.3811
  243MOL0     C33434   7.372   0.652   7.311  1.0616 -0.0290  1.1603
  243MOL0     C33435   7.506   0.618   7.373 -0.0606  0.0677  0.6120
  243MOL0     C33436   7.596   0.745   7.390  0.0042  0.1343  0.2127
  243MOL0     C33437   7.733   0.718   7.456 -0.0416  0.3036 -0.7659
  243MOL0     C33438   7.822   0.848   7.460  0.0667  0.0575  0.0232
  243MOL0     C33439   7.904   0.866   7.325 -0.7758  0.3731  0.1718
  243MOL0     C33440   7.991   0.990   7.329  0.1940  0.6943  0.6434
  243MOL0    Cl33441   7.884   1.130   7.303 -0.3050 -0.0714 -0.0030
  243MOL0     C33442   7.085   0.901   7.235 -0.7017  0.9246 -0.6156
  243MOL0     C33443   6.952   0.899   7.260 -0.1362  0.3158  0.4043
  243MOL0     O33444   6.681   0.710   7.032 -0.1153  0.1715  0.1336
  243MOL0     C33445   6.451   0.828   7.263  0.7423 -0.7903 -0.4080
  243MOL0     C33446   6.313   0.832   7.302  0.3464  0.7020  0.7419
  243MOL0     N33447   5.596   1.010   6.898 -0.3228  0.7460  0.2402
  243MOL0     N33448   5.550   1.134   6.893  0.0621  0.0216 -0.3047
  243MOL0     C33449   6.590   1.679   7.441  1.0718 -0.1901 -0.0030
  243MOL0     C33450   6.716   1.744   7.420  0.7774  0.0192  0.7752
  243MOL0     C33451   7.090   1.894   7.250  0.1728 -0.3841 -0.2187
  243MOL0     C33452   7.092   1.974   7.367 -0.6859  0.6280 -0.7137
  243MOL0     C33453   7.211   2.032   7.407  0.3328  0.3496 -0.0078
  243MOL0     C33454   7.326   2.024   7.331  0.2982  0.3431  0.3108
  243MOL0     O33455   7.438   2.080   7.381 -0.1862  0.1214  0.1104
  243MOL0     C33456   7.575   2.061   7.330 -0.0469 -0.1082 -0.2880
  243MOL0     C33457   7.601   2.149   7.208  0.3142 -0.3436 -0.5840
  243MOL0     C33458   7.740   2.120   7.151 -0.2514  0.3137 -0.1215
  243MOL0     C33459   7.755   2.167   7.004  0.3498 -0.4483 -0.0897
  243MOL0     C33460   7.676   2.077   6.922  0.4778 -0.3517  0.9155
  243MOL0     C33461   7.598   2.004   6.862 -0.1558 -0.4058 -0.8848
  243MOL0     C33462   7.332   1.942   7.217  1.0922 -0.7982  0.3799
  243MOL0     C33463   7.208   1.886   7.166 -0.1884 -0.1224 -0.0475
  243MOL0     C33464   7.213   1.819   7.031 -0.8223  0.4640  0.0112
  243MOL0     H33465   6.651   1.873   7.111 -0.9750  0.4223  0.5245
  243MOL0     H33466   6.455   1.741   7.138 -1.2166  0.7851  1.1763
  243MOL0     H33467   6.278   1.627   7.174 -1.4744 -1.6402 -0.7774
  243MOL0     H33468   6.225   1.744   7.293 -1.3642  0.0471 -2.1482
  243MOL0     H33469   6.178   1.441   7.291  0.6763 -0.9507  1.8313
  243MOL0     H33470   6.145   1.549   7.430 -0.3852 -1.3322 -0.3163
  243MOL0     H33471   5.980   1.671   7.287  0.5705 -0.4881  1.7117
  243MOL0     H33472   6.018   1.569   7.147 -2.0015  1.3827 -0.2509
  243MOL0     H33473   5.932   1.374   7.302  0.7462  0.6493 -0.6949
  243MOL0     H33474   5.887   1.501   7.416 -1.2184  1.8043 -0.5196
  243MOL0     H33475   5.749   1.615   7.221  1.8310  0.7609  1.6610
  243MOL0     H33476   5.690   1.460   7.278 -0.9280  0.7228 -1.4823
  243MOL0     H33477   5.868   1.498   7.021 -0.3704  0.8385 -0.4909
  243MOL0     H33478   5.822   1.357   7.098  1.1188  2.0771  2.5925
  243MOL0     H33479   5.619   1.561   6.983  0.4024 -0.0005  1.0658
  243MOL0     H33480   5.561   1.428   7.072  0.2246 -2.7662  0.2184
  243MOL0     H33481   5.563   1.393   6.817 -2.2541 -3.6749  1.4895
  243MOL0     H33482   5.736   1.383   6.824  0.6683 -2.0933  0.7554
  243MOL0     H33483   5.857   1.187   6.988  1.3534 -1.7604 -2.3116
  243MOL0     H33484   5.885   0.915   6.847 -2.0431  2.2539 -0.9218
  243MOL0     H33485   5.758   0.813   6.911  0.3501  0.0903 -0.4251
  243MOL0     H33486   5.961   0.957   7.068 -1.2024  1.3065 -0.6321
  243MOL0     H33487   5.826   0.895   7.153  3.5002  1.5606  1.9200
  243MOL0     H33488   5.855   0.674   7.052 -2.1457  2.0213  0.9897
  243MOL0     H33489   6.024   0.718   7.004 -0.8598  0.8490 -1.0475
  243MOL0     H33490   5.896   0.710   7.287 -1.4170 -0.7143 -2.0038
  243MOL0     H33491   6.010   0.597   7.217  1.2846  1.2568 -1.9911
  243MOL0     H33492   6.192   0.595   7.099  0.3499 -0.3125  1.0368
  243MOL0     H33493   6.549   0.503   7.062 -0.9893  1.3378  2.2916
  243MOL0     H33494   6.469   0.553   6.913 -2.3456 -0.6963 -0.6113
  243MOL0     H33495   6.383   0.452   7.026  0.4371 -0.4696 -3.2694
  243MOL0     H33496   6.884   0.582   7.175  0.2367 -0.6923  0.8315
  243MOL0     H33497   7.121   0.587   7.116 -4.0628 -1.5514 -1.5693
  243MOL0     H33498   7.326   0.597   7.112 -1.1535 -0.2168 -0.2966
  243MOL0     H33499   7.463   0.694   7.116 -0.6609 -1.2510 -1.9961
  243MOL0     H33500   7.338   0.739   7.367  3.1211  1.9976 -0.5486
  243MOL0     H33501   7.305   0.567   7.328 -0.2188  1.0882  1.9296
  243MOL0     H33502   7.555   0.549   7.303 -1.0889 -0.4548  0.3991
  243MOL0     H33503   7.480   0.568   7.467  4.2801 -1.2364  1.3456
  243MOL0     H33504   7.550   0.826   7.449  1.1922 -0.0995  1.5313
  243MOL0     H33505   7.617   0.787   7.291  0.4898 -5.3173 -2.3169
  243MOL0     H33506   7.720   0.681   7.558  1.7308 -1.7402 -1.1999
  243MOL0     H33507   7.789   0.634   7.413  1.0749  1.7873 -2.3543
  243MOL0     H33508   7.900   0.837   7.536  0.3358  1.9871  0.0898
  243MOL0     H33509   7.763   0.936   7.489  1.4915  0.6668  1.2346
  243MOL0     H33510   7.846   0.859   7.233  0.9281  2.1436 -1.1307
  243MOL0     H33511   7.973   0.781   7.321  0.3063  1.2153  0.6215
  243MOL0     H33512   8.075   0.981   7.258  0.9352 -1.8612  1.7410
  243MOL0     H33513   8.042   1.000   7.425  0.5114  0.0753  0.5413
  243MOL0     H33514   7.137   0.995   7.252  0.7968 -0.3256  2.5040
  243MOL0     H33515   6.909   0.991   7.299 -0.3672  0.1248  0.6118
  243MOL0     H33516   6.518   0.874   7.335  0.3805  1.4482 -1.3986
  243MOL0     H33517   6.281   0.891   7.387 -2.9523 -2.0052  1.6055
  243MOL0     H33518   6.566   1.628   7.533 -1.8411  0.8938 -0.0497
  243MOL0     H33519   6.789   1.744   7.500  1.7456 -2.0960 -0.0292
  243MOL0     H33520   7.010   1.996   7.434 -0.7269  1.8640 -1.1371
  243MOL0     H33521   7.227   2.082   7.502  1.8890 -1.5908  0.8335
  243MOL0     H33522   7.647   2.091   7.407 -1.2676 -1.4454  1.4628
  243MOL0     H33523   7.602   1.957   7.306 -1.0477 -0.0212 -2.0150
  243MOL0     H33524   7.599   2.252   7.244  0.9566 -0.1561 -1.0751
  243MOL0     H33525   7.511   2.136   7.147  0.7063 -1.6405 -0.9287
  243MOL0     H33526   7.806   2.191   7.201 -0.2884  0.7497 -0.6801
  243MOL0     H33527   7.775   2.017   7.156 -1.1094 -0.1238 -2.1420
  243MOL0     H33528   7.860   2.172   6.973  0.3997  1.7351  0.3006
  243MOL0     H33529   7.726   2.268   6.973 -3.2369 -2.1703 -3.2416
  243MOL0     H33530   7.538   1.928   6.817 -0.0003 -1.4810  0.6677
  243MOL0     H33531   7.429   1.931   7.170  1.9475 -1.3685  2.1942
  243MOL0     H33532   7.304   1.834   6.973 -0.4696 -3.0401 -0.5221
  243MOL0     H33533   7.221   1.711   7.041  1.9123  0.3274 -2.2900
  243MOL0     H33534   7.125   1.857   6.976 -1.5458 -1.8037 -0.5006
  244MOL0     O33535   6.085   5.037   0.616 -0.0691 -0.3918 -0.3650
  244MOL0     C33536   5.978   4.979   0.619 -0.1470 -0.9010 -0.1072
  244MOL0     O33537   5.961   4.862   0.556  0.0934  0.2602  0.2749
  244MOL0     C33538   6.055   4.774   0.499 -0.2611 -0.0055  0.2720
  244MOL0     C33539   6.197   4.795   0.512  0.4308  0.2391 -0.1123
  244MOL0     C33540   6.294   4.711   0.464  0.2222 -0.7693  0.0386
  244MOL0     C33541   6.244   4.607   0.397 -0.1969  0.4890  1.2758
  244MOL0     O33542   6.331   4.520   0.331  0.2028  0.0519  0.1674
  244MOL0     C33543   6.421   4.579   0.232  0.7027  0.5532  0.5786
  244MOL0     C33544   6.563   4.536   0.265  0.3244  0.1616 -0.2880
  244MOL0     C33545   6.668   4.585   0.162  0.3874  0.4444 -0.7820
  244MOL0     C33546   6.806   4.506   0.175  0.0279 -0.2457 -0.5051
  244MOL0     C33547   6.918   4.576   0.102 -0.4230 -0.4026 -0.8839
  244MOL0     C33548   7.047   4.490   0.097 -0.8301 -0.0441 -0.5794
  244MOL0     C33549   7.153   4.534   0.205  0.9245  0.0697  0.6855
  244MOL0     C33550   7.278   4.448   0.212 -0.0039  0.3186  0.4143
  244MOL0     N33551   7.263   4.324   0.285  0.4867  0.0551 -0.0957
  244MOL0     C33552   7.273   4.191   0.230  0.6199  0.0529  0.1000
  244MOL0     C33553   7.299   4.111   0.337  0.9111 -0.6426  0.3254
  244MOL0     C33554   7.333   3.967   0.336 -0.1544  0.2539 -0.6847
  244MOL0     C33555   7.227   3.879   0.417 -0.0388 -0.0883 -0.1827
  244MOL0     C33556   7.223   3.907   0.570 -0.2876 -0.1857  0.0837
  244MOL0     C33557   7.131   3.800   0.627 -0.2056  0.0221 -0.0681
  244MOL0     O33558   7.149   3.793   0.770 -0.7413  0.0220  0.3157
  244MOL0     C33559   7.075   3.704   0.843 -0.3799 -0.4542  0.8496
  244MOL0     C33560   6.980   3.621   0.781  0.0084 -0.1056 -0.5194
  244MOL0     C33561   6.929   3.504   0.845  0.0573 -0.3169  0.1336
  244MOL0     C33562   6.846   3.409   0.770  0.0022  0.6618 -0.1359
  244MOL0     C33563   6.968   3.487   0.981  0.4031 -0.3719  0.7902
  244MOL0     C33564   6.916   3.366   1.052 -0.2970  0.2968 -0.0667
  244MOL0     O33565   6.780   3.337   1.046  0.1519  0.0688 -0.2871
  244MOL0     C33566   6.736   3.229   1.115  0.2739  0.8816  0.7639
  244MOL0     C33567   6.742   3.105   1.055 -0.4105 -0.0792  0.7156
  244MOL0     C33568   6.712   2.994   1.131  0.0779  0.1472 -1.1825
  244MOL0     C33569   6.676   3.006   1.263 -0.4029  0.5226  0.1126
  244MOL0     O33570   6.644   2.885   1.320 -0.1596 -0.0080  0.0907
  244MOL0     C33571   6.608   2.887   1.456  0.0204  0.2273  0.4069
  244MOL0     C33572   6.596   2.740   1.503  0.1801  0.1031 -0.1618
  244MOL0     C33573   6.464   2.687   1.434 -0.0638 -1.3657 -0.0018
  244MOL0     C33574   6.445   2.543   1.468 -0.1722  0.1072 -0.4522
  244MOL0     C33575   6.305   2.497   1.438 -0.0339 -0.0568  1.0471
  244MOL0     C33576   6.311   2.339   1.423  0.3307  0.0923  0.2710
  244MOL0     C33577   6.174   2.270   1.433 -0.3799  0.9000 -0.6359
  244MOL0     C33578   6.181   2.128   1.376  0.2261 -0.0539 -0.7372
  244MOL0    Cl33579   6.174   2.146   1.204  0.0340  0.3217  0.2282
  244MOL0     C33580   6.670   3.131   1.324  0.1287 -0.4408  0.0545
  244MOL0     C33581   6.696   3.243   1.246 -0.2099  0.2310  0.2787
  244MOL0     O33582   6.994   3.309   1.119  1.0785 -0.1796  0.6783
  244MOL0     C33583   7.049   3.582   1.046 -0.0998 -0.3393  0.2860
  244MOL0     C33584   7.098   3.691   0.980  0.3314  0.6647 -0.0497
  244MOL0     N33585   7.304   4.195   0.447  0.2052 -0.5925  0.1402
  244MOL0     N33586   7.279   4.317   0.421 -0.3023  0.1295 -0.6204
  244MOL0     C33587   6.110   4.588   0.362 -0.0986  0.4041 -0.9349
  244MOL0     C33588   6.021   4.671   0.416 -0.0213  0.4703  0.6124
  244MOL0     C33589   5.872   5.035   0.705 -0.1266 -0.5916 -0.2865
  244MOL0     C33590   5.909   5.147   0.777 -0.4428 -0.3258 -0.0839
  244MOL0     C33591   5.825   5.205   0.871  0.4991  0.5926  0.2643
  244MOL0     C33592   5.704   5.142   0.914 -0.6955  0.7681  0.5051
  244MOL0     O33593   5.616   5.212   0.990  0.0339  0.1332  0.7954
  244MOL0     C33594   5.624   5.167   1.124 -0.1026 -0.1120  0.3803
  244MOL0     C33595   5.498   5.228   1.192 -0.2207  0.5733  0.7670
  244MOL0     C33596   5.500   5.209   1.344  0.6993  0.2959 -0.5102
  244MOL0     C33597   5.369   5.229   1.424  0.6707 -0.6344 -0.9548
  244MOL0     C33598   5.325   5.373   1.408 -0.2487 -0.8025 -0.3518
  244MOL0     C33599   5.309   5.500   1.402 -0.3818 -0.1049  0.3841
  244MOL0     C33600   5.670   5.030   0.832  0.1062 -0.2807 -0.8855
  244MOL0     C33601   5.753   4.982   0.727  0.5524 -0.2958  0.7967
  244MOL0     C33602   5.694   4.868   0.643 -0.4086  0.2897  0.5646
  244MOL0     H33603   6.241   4.880   0.562  1.5765 -1.5120  2.0416
  244MOL0     H33604   6.399   4.729   0.482  0.5490  0.1483 -2.4165
  244MOL0     H33605   6.407   4.687   0.233 -0.0532  0.4579  1.7488
  244MOL0     H33606   6.389   4.540   0.135  1.0463  0.0001  0.6815
  244MOL0     H33607   6.602   4.567   0.362  1.0177 -1.4056 -0.0279
  244MOL0     H33608   6.566   4.427   0.260  1.7810  0.0972  1.2116
  244MOL0     H33609   6.626   4.578   0.061 -3.9350  0.1187  0.8238
  244MOL0     H33610   6.682   4.691   0.187  2.0155  0.7754 -2.7926
  244MOL0     H33611   6.830   4.513   0.282 -0.6046 -0.1490 -0.3629
  244MOL0     H33612   6.783   4.400   0.156 -0.7707  0.1223 -1.6788
  244MOL0     H33613   6.945   4.673   0.146  2.1790 -1.4206 -0.0281
  244MOL0     H33614   6.883   4.589  -0.001  2.2654  0.1666 -1.8067
  244MOL0     H33615   7.017   4.385   0.109 -0.6145 -0.4313 -2.8867
  244MOL0     H33616   7.091   4.502  -0.003  1.4905 -1.5348  0.1744
  244MOL0     H33617   7.106   4.530   0.303 -1.8044  1.6573 -0.4590
  244MOL0     H33618   7.173   4.637   0.174  0.5446 -0.7293 -2.7021
  244MOL0     H33619   7.322   4.419   0.116 -2.2914  2.1730 -1.3517
  244MOL0     H33620   7.347   4.516   0.262  1.7326 -1.4419  0.4895
  244MOL0     H33621   7.262   4.162   0.126  0.4268  3.8110 -1.0882
  244MOL0     H33622   7.433   3.947   0.375 -1.2402 -0.7521  1.8249
  244MOL0     H33623   7.328   3.934   0.232 -2.8221  0.0337 -0.5479
  244MOL0     H33624   7.125   3.899   0.383 -0.2255 -2.0189 -0.8458
  244MOL0     H33625   7.256   3.776   0.395  0.2357 -0.1883  0.6185
  244MOL0     H33626   7.327   3.901   0.603  1.1737 -0.3362 -3.9919
  244MOL0     H33627   7.190   4.008   0.598  0.6739  0.8741 -2.2818
  244MOL0     H33628   7.029   3.836   0.613 -0.2941 -0.1820  0.0527
  244MOL0     H33629   7.136   3.698   0.590  3.5213 -1.0188  2.6831
  244MOL0     H33630   6.937   3.647   0.685 -0.0394 -0.2639 -0.5409
  244MOL0     H33631   6.849   3.441   0.665  1.5261 -0.8386 -0.5858
  244MOL0     H33632   6.740   3.412   0.801  0.6315 -0.2027  2.3507
  244MOL0     H33633   6.877   3.305   0.783 -1.9127  0.1747  0.9950
  244MOL0     H33634   6.768   3.093   0.950 -0.3952  0.3109  0.6757
  244MOL0     H33635   6.713   2.889   1.103 -0.6751 -0.0328 -0.5700
  244MOL0     H33636   6.691   2.925   1.516  2.2102 -1.5826 -1.2845
  244MOL0     H33637   6.509   2.931   1.473 -0.3509 -0.5262  0.2425
  244MOL0     H33638   6.687   2.685   1.479 -0.4411 -0.0599 -2.3781
  244MOL0     H33639   6.576   2.743   1.611  3.4842 -0.9700  0.6154
  244MOL0     H33640   6.465   2.693   1.325 -0.2605 -0.9965  0.0155
  244MOL0     H33641   6.387   2.753   1.475 -0.8755 -0.3508 -2.9074
  244MOL0     H33642   6.478   2.525   1.571 -0.1517  0.7846 -0.3368
  244MOL0     H33643   6.512   2.485   1.406 -1.8722 -1.2044 -1.1424
  244MOL0     H33644   6.243   2.527   1.523 -1.1316  0.5973  0.0507
  244MOL0     H33645   6.268   2.535   1.342 -1.8541 -2.2876  0.7693
  244MOL0     H33646   6.370   2.295   1.504  0.7092 -0.4631 -0.2961
  244MOL0     H33647   6.369   2.315   1.334  0.2442  0.4542  0.1151
  244MOL0     H33648   6.100   2.332   1.383  0.6357  1.1667 -1.8675
  244MOL0     H33649   6.157   2.256   1.540  0.6324  0.0334 -0.5676
  244MOL0     H33650   6.098   2.070   1.416  2.1007 -1.5551  1.1980
  244MOL0     H33651   6.274   2.080   1.406 -0.7616 -1.2076  0.6233
  244MOL0     H33652   6.632   3.135   1.426  1.3241  1.1464  0.4796
  244MOL0     H33653   6.686   3.344   1.284 -1.0333  1.0120 -1.8232
  244MOL0     H33654   7.066   3.574   1.153  0.0329 -0.9485  0.2242
  244MOL0     H33655   7.174   3.755   1.023 -1.5355  2.3752  0.8740
  244MOL0     H33656   6.082   4.503   0.301  0.1939  0.6271 -1.3810
  244MOL0     H33657   5.915   4.658   0.394 -0.0261 -0.3638  1.1021
  244MOL0     H33658   5.991   5.210   0.744 -2.1357  0.5075 -3.0909
  244MOL0     H33659   5.845   5.304   0.911 -0.2717  0.0399  2.1598
  244MOL0     H33660   5.627   5.058   1.129  3.4263 -0.1981 -0.6407
  244MOL0     H33661   5.717   5.196   1.175 -1.1864  3.1790  0.7065
  244MOL0     H33662   5.403   5.180   1.164  0.1228 -1.9474  3.3993
  244MOL0     H33663   5.495   5.335   1.173  0.9516  0.7730  1.6368
  244MOL0     H33664   5.513   5.102   1.363  2.2306  0.3370 -1.1852
  244MOL0     H33665   5.570   5.272   1.399  0.2860 -0.9826  1.6244
  244MOL0     H33666   5.373   5.197   1.528  2.7634 -2.9044 -1.6390
  244MOL0     H33667   5.290   5.174   1.372 -1.8122  1.8469 -0.0179
  244MOL0     H33668   5.307   5.607   1.407  0.8696  0.1923 -2.9353
  244MOL0     H33669   5.569   5.005   0.861  1.0380 -3.5990 -0.0856
  244MOL0     H33670   5.718   4.870   0.536 -0.7039  1.6578  0.5068
  244MOL0     H33671   5.754   4.787   0.686  1.0370  0.3876 -1.1541
  244MOL0     H33672   5.588   4.845   0.658 -0.1697  0.4444  2.7454
  245MOL0     O33673  11.454   8.485   0.203 -0.5278  0.3825  0.0384
  245MOL0     C33674  11.401   8.385   0.252 -0.5611 -1.0340 -1.1559
  245MOL0     O33675  11.445   8.252   0.248 -0.4022 -0.4775 -0.5212
  245MOL0     C33676  11.565   8.206   0.196 -0.7095  0.4547 -0.2054
  245MOL0     C33677  11.616   8.263   0.082  0.9993  0.3845 -0.0219
  245MOL0     C33678  11.732   8.214   0.018  0.0654  0.6891 -0.7293
  245MOL0     C33679  11.808   8.113   0.083 -0.6462  0.3532  0.8399
  245MOL0     O33680  11.932   8.087   0.037 -0.1448 -0.6584  0.0643
  245MOL0     C33681  11.970   7.951   0.030  0.1622 -0.0425  1.0758
  245MOL0     C33682  12.111   7.945  -0.036 -0.2117 -0.4539  0.3926
  245MOL0     C33683  12.221   7.971   0.060 -0.1173 -0.7067  0.0788
  245MOL0     C33684  12.321   8.073   0.002 -0.2368 -0.0111 -0.3631
  245MOL0     C33685  12.398   8.018  -0.120  0.4746  0.0848 -0.1910
  245MOL0     C33686  12.485   8.137  -0.187  0.1460  0.4277  0.8617
  245MOL0     C33687  12.513   8.097  -0.329 -0.2548  0.4002  0.4323
  245MOL0     C33688  12.385   8.099  -0.409 -0.1079  0.7590  1.0226
  245MOL0     N33689  12.428   8.148  -0.540  0.2025  0.4410 -0.5047
  245MOL0     C33690  12.458   8.275  -0.574 -1.6191 -0.1858  0.7317
  245MOL0     C33691  12.489   8.278  -0.706 -0.5318 -0.7324  0.0141
  245MOL0     C33692  12.512   8.401  -0.781 -0.2301 -0.4109  0.1963
  245MOL0     C33693  12.658   8.445  -0.756 -0.1632 -0.6081 -0.0257
  245MOL0     C33694  12.658   8.591  -0.802 -0.3331  0.2036  0.1073
  245MOL0     C33695  12.798   8.643  -0.806  0.4231  0.4734 -0.6013
  245MOL0     O33696  12.839   8.648  -0.658 -0.2090 -0.5412  0.6639
  245MOL0     C33697  12.966   8.637  -0.621  0.6651 -0.3468 -0.9249
  245MOL0     C33698  12.989   8.608  -0.483  0.4502  0.1684 -0.0716
  245MOL0     C33699  13.118   8.620  -0.427 -0.0340  0.2343 -1.1539
  245MOL0     C33700  13.133   8.579  -0.284 -0.4759  0.2460  0.4246
  245MOL0     C33701  13.230   8.640  -0.515  0.2244 -0.2211 -1.4153
  245MOL0     C33702  13.377   8.644  -0.471  1.0726  0.6836  0.1273
  245MOL0     O33703  13.461   8.694  -0.575  0.4226  0.5472 -0.3119
  245MOL0     C33704  13.590   8.735  -0.537 -0.4092  0.1012 -0.6804
  245MOL0     C33705  13.630   8.782  -0.415  0.5831  0.2961 -0.4508
  245MOL0     C33706  13.760   8.826  -0.383 -0.1796 -0.6917  1.0893
  245MOL0     C33707  13.860   8.798  -0.474  0.3894 -0.3398  0.4444
  245MOL0     O33708  13.991   8.814  -0.459  0.1605 -0.0100 -0.4682
  245MOL0     C33709  14.044   8.764  -0.337 -0.4217  0.1904 -0.2045
  245MOL0     C33710  14.194   8.731  -0.335  0.9376 -0.5039  0.8593
  245MOL0     C33711  14.274   8.852  -0.388 -1.0020  0.0233 -0.2680
  245MOL0     C33712  14.423   8.841  -0.370  0.7471  0.3495  0.0498
  245MOL0     C33713  14.480   8.954  -0.460  0.3605 -0.5298 -0.4796
  245MOL0     C33714  14.624   8.985  -0.416 -0.5009 -0.1615 -0.7509
  245MOL0     C33715  14.685   9.104  -0.484  0.6870  0.3573 -0.2842
  245MOL0     C33716  14.819   9.070  -0.539  0.1936 -0.1304  0.3425
  245MOL0    Cl33717  14.812   8.980  -0.694  0.4117  0.5465 -0.2587
  245MOL0     C33718  13.818   8.760  -0.603 -0.4760  0.0094 -0.3164
  245MOL0     C33719  13.688   8.723  -0.629  0.3681 -0.0514  0.1583
  245MOL0     O33720  13.413   8.610  -0.361  0.6841  0.3434 -0.3440
  245MOL0     C33721  13.197   8.661  -0.650 -0.6779 -0.0142 -0.0315
  245MOL0     C33722  13.068   8.672  -0.702 -0.2367  0.4340 -0.1563
  245MOL0     N33723  12.480   8.147  -0.753 -0.7379  0.0460  0.1665
  245MOL0     N33724  12.446   8.066  -0.655 -0.1417  0.7877  0.3156
  245MOL0     C33725  11.763   8.071   0.208 -0.4160  0.6760 -0.4924
  245MOL0     C33726  11.634   8.106   0.258 -0.8506  0.3940  0.1610
  245MOL0     C33727  11.295   8.403   0.346 -0.2346 -0.0254 -0.1246
  245MOL0     C33728  11.219   8.290   0.386 -0.7888 -0.3457 -0.3455
  245MOL0     C33729  11.115   8.289   0.471 -0.0549 -1.1281 -0.1852
  245MOL0     C33730  11.102   8.406   0.551 -1.1211  0.2866 -0.1082
  245MOL0     O33731  11.009   8.399   0.648 -0.7877  0.4169 -0.0353
  245MOL0     C33732  10.957   8.524   0.696  0.4964 -0.8050 -0.6055
  245MOL0     C33733  10.853   8.505   0.801  0.3298  0.3825 -0.2604
  245MOL0     C33734  10.818   8.634   0.868  0.8448 -0.5668 -0.2907
  245MOL0     C33735  10.677   8.646   0.929  0.1543 -0.1340 -0.0023
  245MOL0     C33736  10.576   8.652   0.822 -0.4070  0.4914 -0.0228
  245MOL0     C33737  10.505   8.668   0.725 -0.3472 -1.0931  1.4997
  245MOL0     C33738  11.175   8.523   0.522 -0.5890 -0.1464 -0.3117
  245MOL0     C33739  11.266   8.524   0.418  0.0001  0.2022  0.2489
  245MOL0     C33740  11.340   8.652   0.389  0.0330  0.0329 -0.8684
  245MOL0     H33741  11.546   8.326   0.029 -2.0237 -1.9236  0.9516
  245MOL0     H33742  11.771   8.253  -0.075  4.1624 -2.2806 -0.5125
  245MOL0     H33743  11.895   7.899  -0.030  0.3358  0.6887  0.2051
  245MOL0     H33744  11.968   7.907   0.130 -1.6071 -2.1562  0.1826
  245MOL0     H33745  12.120   7.846  -0.082 -1.6245  0.0163 -0.9911
  245MOL0     H33746  12.116   8.013  -0.122 -0.2867  1.0488  1.5470
  245MOL0     H33747  12.178   8.015   0.151 -0.1357 -1.0664  0.2437
  245MOL0     H33748  12.278   7.881   0.084 -2.0417 -2.1787 -0.6056
  245MOL0     H33749  12.265   8.162  -0.027 -0.8838 -0.6056 -0.9863
  245MOL0     H33750  12.392   8.097   0.081 -0.3544 -1.7348  0.3134
  245MOL0     H33751  12.327   7.974  -0.191  1.0032 -2.2212  0.6225
  245MOL0     H33752  12.464   7.938  -0.086 -1.6132 -1.1948  1.0219
  245MOL0     H33753  12.428   8.230  -0.182  0.4548  0.8161 -1.6597
  245MOL0     H33754  12.584   8.147  -0.141 -0.7889  0.4939  2.9734
  245MOL0     H33755  12.566   8.002  -0.340 -1.5251 -0.0799 -2.3949
  245MOL0     H33756  12.581   8.169  -0.376  0.9638 -0.0650  1.4245
  245MOL0     H33757  12.350   7.995  -0.409  0.4661  0.5580  0.0557
  245MOL0     H33758  12.307   8.160  -0.363 -1.8792 -1.4553  1.1842
  245MOL0     H33759  12.445   8.361  -0.509  2.7105  2.1461 -1.0379
  245MOL0     H33760  12.440   8.483  -0.777  0.1731  0.0635 -1.5083
  245MOL0     H33761  12.513   8.362  -0.883  1.5885  0.7047 -0.2510
  245MOL0     H33762  12.690   8.440  -0.651  1.4605  2.8677 -0.2072
  245MOL0     H33763  12.730   8.395  -0.821 -0.2649  0.1141 -0.7124
  245MOL0     H33764  12.608   8.605  -0.899 -2.3880  1.5791  1.3038
  245MOL0     H33765  12.596   8.654  -0.738  0.3757  1.0644 -0.0282
  245MOL0     H33766  12.868   8.585  -0.866 -0.4433  0.2109 -1.3783
  245MOL0     H33767  12.788   8.746  -0.841 -0.4133  0.7138  0.2767
  245MOL0     H33768  12.905   8.576  -0.422  1.2742  1.9279  2.0912
  245MOL0     H33769  13.163   8.669  -0.231  1.4646 -0.6160  0.8695
  245MOL0     H33770  13.210   8.502  -0.271 -0.6971  0.3347  2.4560
  245MOL0     H33771  13.038   8.553  -0.235 -1.4100  1.7914 -0.4752
  245MOL0     H33772  13.559   8.801  -0.335  1.0594  1.7862 -0.3370
  245MOL0     H33773  13.782   8.872  -0.288 -1.6758  1.0374  0.6537
  245MOL0     H33774  14.025   8.839  -0.260  0.1551  0.3442 -0.2109
  245MOL0     H33775  14.002   8.665  -0.317  1.1353 -0.9803 -2.3175
  245MOL0     H33776  14.211   8.721  -0.228 -0.6937  4.0976  1.7669
  245MOL0     H33777  14.208   8.640  -0.395 -1.7408 -0.7214  0.4078
  245MOL0     H33778  14.239   8.945  -0.343 -1.2846  0.1213 -0.6822
  245MOL0     H33779  14.250   8.854  -0.494  1.8988 -2.1435 -1.1070
  245MOL0     H33780  14.461   8.742  -0.399 -0.1212  0.5612 -2.0341
  245MOL0     H33781  14.453   8.866  -0.268 -3.8560  0.0211  1.6873
  245MOL0     H33782  14.473   8.945  -0.569  1.0544 -0.2596 -0.5553
  245MOL0     H33783  14.415   9.042  -0.452  0.1118 -0.7371 -0.2041
  245MOL0     H33784  14.684   8.897  -0.442 -0.4602  0.1458 -1.7310
  245MOL0     H33785  14.630   9.005  -0.309 -2.5256  1.6397 -0.8890
  245MOL0     H33786  14.707   9.170  -0.400  0.7668 -1.1771  0.9539
  245MOL0     H33787  14.609   9.142  -0.553 -2.2456 -1.7940  1.5388
  245MOL0     H33788  14.874   9.016  -0.461 -0.2777 -0.9438  0.1230
  245MOL0     H33789  14.873   9.164  -0.553  2.5343 -1.1870  1.6918
  245MOL0     H33790  13.901   8.763  -0.674 -1.7671  2.3525 -1.8878
  245MOL0     H33791  13.660   8.679  -0.725  1.6240  0.7035 -0.5808
  245MOL0     H33792  13.280   8.674  -0.718  0.9028 -2.6576  1.1997
  245MOL0     H33793  13.063   8.719  -0.799 -2.2188 -2.3592 -1.5452
  245MOL0     H33794  11.833   8.010   0.264 -1.3686 -1.0943 -1.1245
  245MOL0     H33795  11.604   8.069   0.355  1.1991  1.2248  1.1712
  245MOL0     H33796  11.227   8.193   0.339  1.5995 -1.2481  1.6690
  245MOL0     H33797  11.056   8.202   0.498 -0.9245 -0.1909  1.0605
  245MOL0     H33798  11.038   8.579   0.745  0.3530  1.3590 -2.6185
  245MOL0     H33799  10.929   8.588   0.611  0.8586 -0.1898 -0.2732
  245MOL0     H33800  10.890   8.440   0.881  1.8448  3.2686  1.5208
  245MOL0     H33801  10.766   8.458   0.754  0.7081  0.4091 -1.0040
  245MOL0     H33802  10.884   8.657   0.953 -0.2998  0.0565  0.4578
  245MOL0     H33803  10.831   8.714   0.794 -0.3361  0.1094  0.2022
  245MOL0     H33804  10.683   8.744   0.976  0.0743 -0.2189  0.1847
  245MOL0     H33805  10.667   8.567   1.004  0.4968 -1.3136 -1.1635
  245MOL0     H33806  10.443   8.684   0.639  1.8465  1.1887  0.2172
  245MOL0     H33807  11.161   8.620   0.570  1.4828 -0.9938  2.2765
  245MOL0     H33808  11.304   8.737   0.448 -1.1572  0.0035 -1.5199
  245MOL0     H33809  11.447   8.634   0.400 -0.0365 -0.1840 -0.4972
  245MOL0     H33810  11.311   8.686   0.290 -0.5944  1.0636 -0.3498
  246MOL0     O33811   4.397   0.906   0.180  0.5691  0.5234  0.8907
  246MOL0     C33812   4.337   1.002   0.223  1.0775  0.4974 -0.1837
  246MOL0     O33813   4.382   1.130   0.216  0.2298 -0.5759 -0.5209
  246MOL0     C33814   4.488   1.149   0.132  0.5699  0.0598 -0.1811
  246MOL0     C33815   4.460   1.193   0.009 -0.1180  0.5396 -0.3976
  246MOL0     C33816   4.577   1.228  -0.070  0.1136 -0.0069  0.0031
  246MOL0     C33817   4.709   1.211  -0.019 -0.4405  0.2587  0.7039
  246MOL0     O33818   4.815   1.261  -0.100  0.2414  0.1026 -0.5990
  246MOL0     C33819   4.939   1.178  -0.100 -0.7791  0.0992 -0.7187
  246MOL0     C33820   5.049   1.251  -0.175 -0.6029 -0.6508  0.0936
  246MOL0     C33821   5.160   1.156  -0.206  0.0239 -0.0456 -0.6064
  246MOL0     C33822   5.272   1.215  -0.291  0.0079 -0.8230  0.5412
  246MOL0     C33823   5.386   1.119  -0.306  0.8260 -0.0276  0.0998
  246MOL0     C33824   5.492   1.164  -0.417 -0.0157 -0.4559  0.0309
  246MOL0     C33825   5.588   1.042  -0.455  0.0187 -0.1944  0.9270
  246MOL0     C33826   5.679   1.013  -0.336  0.0986  0.6791  0.2482
  246MOL0     N33827   5.787   0.921  -0.374  0.4639 -0.0740  0.0041
  246MOL0     C33828   5.859   0.919  -0.485  0.1250 -0.0325 -0.0738
  246MOL0     C33829   5.924   0.802  -0.495 -0.6690 -0.4542 -0.1895
  246MOL0     C33830   6.028   0.753  -0.599  0.2755  0.1845  1.1535
  246MOL0     C33831   6.019   0.595  -0.613  0.7495 -0.7828  0.6428
  246MOL0     C33832   6.122   0.542  -0.715 -0.1607 -0.2245 -0.0659
  246MOL0     C33833   6.092   0.389  -0.753  0.2093 -0.2518  0.3379
  246MOL0     O33834   5.976   0.385  -0.836  0.1706 -0.7368 -0.0341
  246MOL0     C33835   5.904   0.264  -0.840  0.9442 -0.0495 -0.0121
  246MOL0     C33836   5.765   0.279  -0.833  0.6375 -0.5362 -0.2274
  246MOL0     C33837   5.685   0.167  -0.850  0.7496  0.2326 -0.5255
  246MOL0     C33838   5.540   0.198  -0.884 -0.6580 -0.0448  0.1957
  246MOL0     C33839   5.745   0.035  -0.832 -0.2682  0.4704  0.5965
  246MOL0     C33840   5.663  -0.094  -0.828 -0.4772  0.2091 -0.5399
  246MOL0     O33841   5.539  -0.087  -0.885 -0.3077  0.2317 -0.1063
  246MOL0     C33842   5.456  -0.192  -0.870  0.2123 -0.6411  0.4605
  246MOL0     C33843   5.480  -0.324  -0.889  0.1677 -0.1823  1.4213
  246MOL0     C33844   5.371  -0.416  -0.900 -0.3398  0.5892 -0.3850
  246MOL0     C33845   5.241  -0.382  -0.861 -0.5626  0.1697  0.0916
  246MOL0     O33846   5.145  -0.474  -0.864  0.1524 -0.0833 -0.0488
  246MOL0     C33847   5.043  -0.445  -0.959 -0.8784  0.1162 -0.7679
  246MOL0     C33848   4.927  -0.543  -0.987  0.4422  0.6617  0.8737
  246MOL0     C33849   4.867  -0.615  -0.868  0.1761 -0.3144 -0.1182
  246MOL0     C33850   4.773  -0.728  -0.926  0.1621 -0.4270 -0.1598
  246MOL0     C33851   4.716  -0.818  -0.818 -0.1112 -0.2282  0.1823
  246MOL0     C33852   4.655  -0.937  -0.887 -0.5452 -0.2467 -0.2917
  246MOL0     C33853   4.649  -1.046  -0.784  1.1349 -0.3835 -0.4512
  246MOL0     C33854   4.645  -1.190  -0.833  0.8504 -0.1079 -0.0220
  246MOL0    Cl33855   4.508  -1.219  -0.971 -0.4979 -0.2835 -0.2989
  246MOL0     C33856   5.226  -0.248  -0.824  0.9981 -0.3442 -0.4314
  246MOL0     C33857   5.327  -0.150  -0.848  0.1750  0.1468  0.2912
  246MOL0     O33858   5.719  -0.198  -0.783  0.8766 -0.9024  0.6815
  246MOL0     C33859   5.891   0.025  -0.818  0.4553 -0.0211  0.0706
  246MOL0     C33860   5.968   0.138  -0.825 -0.2750 -0.8094 -0.0917
  246MOL0     N33861   5.903   0.748  -0.374  0.1315 -0.2283  0.2199
  246MOL0     N33862   5.817   0.814  -0.307 -0.3067 -0.7819 -0.6715
  246MOL0     C33863   4.729   1.156   0.107 -0.6505 -0.2715  0.7345
  246MOL0     C33864   4.610   1.123   0.181 -0.3728 -0.6112  0.8206
  246MOL0     C33865   4.216   0.971   0.301 -0.2647  0.7335 -0.0313
  246MOL0     C33866   4.232   0.883   0.413  0.4419  0.6056  0.1287
  246MOL0     C33867   4.117   0.853   0.486  0.7250  0.0231 -0.6354
  246MOL0     C33868   3.992   0.910   0.456 -0.1956  0.3142  0.1890
  246MOL0     O33869   3.869   0.872   0.515 -0.1566  0.8375 -0.3766
  246MOL0     C33870   3.860   0.739   0.565 -0.3260  0.1527  0.7046
  246MOL0     C33871   3.884   0.737   0.712  1.0948 -0.2365 -0.2577
  246MOL0     C33872   3.800   0.835   0.797 -0.4837  0.2561  0.0502
  246MOL0     C33873   3.652   0.856   0.758  0.5907 -0.9709 -0.3329
  246MOL0     C33874   3.573   0.951   0.846  0.2136  0.4555  0.0865
  246MOL0     C33875   3.508   1.029   0.914  0.1079  0.5818 -0.2278
  246MOL0     C33876   3.984   0.990   0.343 -0.1147  0.2174 -0.1398
  246MOL0     C33877   4.088   1.016   0.253 -0.1164  0.4270 -0.4712
  246MOL0     C33878   4.080   1.085   0.116 -0.2326  0.2279 -0.3456
  246MOL0     H33879   4.356   1.205  -0.020  0.4909  0.0540 -2.9960
  246MOL0     H33880   4.575   1.274  -0.168  1.3152 -1.1165 -0.5803
  246MOL0     H33881   4.914   1.086  -0.153  0.5591 -0.2499 -0.7662
  246MOL0     H33882   4.980   1.160  -0.000  0.6701 -0.5897 -1.4155
  246MOL0     H33883   5.012   1.299  -0.266  1.3997 -1.8987 -1.4535
  246MOL0     H33884   5.093   1.330  -0.114  1.4338 -1.2441 -0.5424
  246MOL0     H33885   5.205   1.113  -0.117 -0.5649 -0.7797 -0.6540
  246MOL0     H33886   5.123   1.073  -0.267 -0.2268 -2.9070  3.1059
  246MOL0     H33887   5.225   1.237  -0.387  2.9325 -0.0037 -0.8255
  246MOL0     H33888   5.303   1.315  -0.258 -2.8362  0.7494 -1.1047
  246MOL0     H33889   5.342   1.022  -0.329  1.0836  0.0711 -0.8522
  246MOL0     H33890   5.429   1.097  -0.208  0.8251 -0.8244 -0.0715
  246MOL0     H33891   5.438   1.194  -0.507 -1.1125  0.3330  0.9324
  246MOL0     H33892   5.550   1.246  -0.375 -1.6723  0.3318  0.8916
  246MOL0     H33893   5.655   1.075  -0.534 -1.1266 -2.5938 -1.1809
  246MOL0     H33894   5.529   0.956  -0.487 -2.2938  1.2741  0.9385
  246MOL0     H33895   5.719   1.107  -0.296 -0.9730  1.2088  0.1040
  246MOL0     H33896   5.618   0.965  -0.259 -0.7617  3.1973  1.2364
  246MOL0     H33897   5.849   0.978  -0.576  1.9506 -1.9323 -1.5903
  246MOL0     H33898   6.135   0.774  -0.587  0.6144  0.0319 -1.1548
  246MOL0     H33899   6.005   0.793  -0.698  3.7227  1.7645  0.8476
  246MOL0     H33900   6.037   0.543  -0.518  1.0864  0.7648  1.4541
  246MOL0     H33901   5.919   0.575  -0.654  0.5441  1.0538  0.1671
  246MOL0     H33902   6.107   0.589  -0.812 -3.0988 -2.5020 -0.8853
  246MOL0     H33903   6.224   0.555  -0.677 -0.3341 -0.2555  0.4215
  246MOL0     H33904   6.181   0.351  -0.805  0.2351 -1.5486  1.2808
  246MOL0     H33905   6.076   0.329  -0.663 -2.2998 -1.6120 -0.9198
  246MOL0     H33906   5.728   0.381  -0.837  4.2795  1.0888  1.8046
  246MOL0     H33907   5.513   0.301  -0.909 -0.7087 -0.4894 -1.8084
  246MOL0     H33908   5.481   0.169  -0.797  0.6547  0.5332  1.3158
  246MOL0     H33909   5.506   0.133  -0.966  1.2181 -3.5079  1.9167
  246MOL0     H33910   5.579  -0.354  -0.923  2.0228  3.6803  2.7451
  246MOL0     H33911   5.386  -0.512  -0.948  2.8781  0.0862  1.3778
  246MOL0     H33912   4.996  -0.352  -0.924  0.2015  2.0652 -4.0270
  246MOL0     H33913   5.095  -0.426  -1.054  2.8889  1.8187  1.3815
  246MOL0     H33914   4.850  -0.492  -1.046  0.6879 -1.8297 -1.8169
  246MOL0     H33915   4.963  -0.623  -1.052  0.1192  0.4088  1.0003
  246MOL0     H33916   4.820  -0.545  -0.798  0.6162 -1.5220  1.4150
  246MOL0     H33917   4.942  -0.668  -0.809 -1.5786  0.5096  3.0488
  246MOL0     H33918   4.819  -0.792  -1.002 -0.0390 -1.4435  0.5449
  246MOL0     H33919   4.683  -0.688  -0.974 -1.3135 -4.0017 -0.7437
  246MOL0     H33920   4.803  -0.848  -0.759  0.1135  1.4203  0.7560
  246MOL0     H33921   4.648  -0.766  -0.750 -1.8412 -1.8578 -0.2273
  246MOL0     H33922   4.713  -0.975  -0.972  1.0665  2.0602 -0.3172
  246MOL0     H33923   4.559  -0.912  -0.932  0.2444 -2.2621 -3.4113
  246MOL0     H33924   4.567  -1.033  -0.714  2.0234 -1.0549  0.7543
  246MOL0     H33925   4.733  -1.041  -0.713  0.0804 -0.7178  0.8473
  246MOL0     H33926   4.629  -1.263  -0.753  1.8321  1.6353  1.8585
  246MOL0     H33927   4.741  -1.205  -0.884  0.8780  1.2708 -0.4214
  246MOL0     H33928   5.137  -0.208  -0.777  1.1807  0.1083 -0.4709
  246MOL0     H33929   5.314  -0.044  -0.829 -1.0098  0.1624 -0.5157
  246MOL0     H33930   5.939  -0.069  -0.795 -0.1182 -0.0478  1.2619
  246MOL0     H33931   6.075   0.126  -0.819  0.0808  1.8812 -0.1265
  246MOL0     H33932   4.830   1.147   0.147 -0.1798 -0.4841 -0.4553
  246MOL0     H33933   4.625   1.096   0.285  1.7741  2.1502  1.3346
  246MOL0     H33934   4.330   0.843   0.434  0.1221 -0.3840 -0.1945
  246MOL0     H33935   4.125   0.788   0.572  0.9728 -0.4028 -0.9759
  246MOL0     H33936   3.760   0.703   0.539  0.2477  0.9853 -3.4874
  246MOL0     H33937   3.928   0.663   0.525 -0.7806 -1.3404  2.6446
  246MOL0     H33938   3.990   0.760   0.728  1.9792 -2.9785 -1.6260
  246MOL0     H33939   3.863   0.639   0.756 -0.3278  0.0152 -0.3434
  246MOL0     H33940   3.800   0.807   0.902 -6.9097 -1.3540  0.0591
  246MOL0     H33941   3.850   0.932   0.782  1.4661 -0.7177  0.0083
  246MOL0     H33942   3.601   0.763   0.785 -1.7798 -0.0170 -1.2086
  246MOL0     H33943   3.632   0.870   0.651 -1.8292  0.3217  0.2133
  246MOL0     H33944   3.457   1.104   0.971 -1.3792 -0.2131 -0.4712
  246MOL0     H33945   3.885   1.022   0.309  0.4367 -0.5667 -2.7207
  246MOL0     H33946   3.973   1.086   0.091 -0.8968  2.5319  2.1174
  246MOL0     H33947   4.100   1.192   0.131  3.5303 -0.7012  3.5107
  246MOL0     H33948   4.142   1.043   0.037  0.3812  3.0167 -1.4416
  247MOL0     O33949   3.498  10.015   2.844 -0.6432  0.9189  0.2314
  247MOL0     C33950   3.415  10.086   2.786  0.5784  0.4026 -0.3310
  247MOL0     O33951   3.380  10.216   2.837 -0.2477 -0.8772  0.6627
  247MOL0     C33952   3.461  10.265   2.936  0.9941  0.3912 -0.9170
  247MOL0     C33953   3.591  10.316   2.916 -0.1969  0.1956 -0.1196
  247MOL0     C33954   3.673  10.355   3.019 -0.4506  0.4076 -0.3102
  247MOL0     C33955   3.629  10.342   3.152 -0.3167 -0.1266  0.8872
  247MOL0     O33956   3.690  10.400   3.258 -0.1437  0.2814 -0.4427
  247MOL0     C33957   3.839  10.376   3.269 -0.9868  0.4509  0.0129
  247MOL0     C33958   3.913  10.476   3.180  0.0037 -0.0132 -0.1568
  247MOL0     C33959   4.032  10.537   3.253 -0.1886 -1.3226  0.3743
  247MOL0     C33960   4.101  10.640   3.168  0.2082  0.5982  0.5868
  247MOL0     C33961   4.234  10.679   3.233  1.1779  0.0790  0.2097
  247MOL0     C33962   4.218  10.788   3.352  0.4573  0.1044 -0.3184
  247MOL0     C33963   4.359  10.840   3.399 -0.7911  0.6365  0.2459
  247MOL0     C33964   4.339  10.943   3.501  0.0897  0.7414  0.3071
  247MOL0     N33965   4.319  11.082   3.440 -0.0071 -0.5380 -0.1426
  247MOL0     C33966   4.416  11.189   3.423  0.2881  0.3068  0.1143
  247MOL0     C33967   4.373  11.276   3.327 -1.0462 -0.0434 -0.7930
  247MOL0     C33968   4.444  11.400   3.272 -0.6809  0.3866 -0.5373
  247MOL0     C33969   4.588  11.361   3.213  0.0222 -0.6298  0.0592
  247MOL0     C33970   4.642  11.479   3.129 -0.5239  0.8773  0.3201
  247MOL0     C33971   4.793  11.458   3.085  0.2629  0.1857  0.2554
  247MOL0     O33972   4.808  11.338   3.000 -0.0230  0.0996 -0.0844
  247MOL0     C33973   4.910  11.332   2.912  0.3910  0.0091  0.1597
  247MOL0     C33974   5.022  11.413   2.905 -0.6791 -0.2508 -0.0779
  247MOL0     C33975   5.142  11.395   2.822 -0.0555  0.5131  0.5347
  247MOL0     C33976   5.266  11.483   2.834  1.2116  0.3394  0.2507
  247MOL0     C33977   5.129  11.294   2.721 -0.0500  0.5655 -0.1821
  247MOL0     C33978   5.212  11.276   2.600  0.1376 -0.6869 -0.4367
  247MOL0     O33979   5.169  11.186   2.509  0.5337 -1.2246  0.6298
  247MOL0     C33980   5.209  11.187   2.375  0.0805  1.4198  0.3016
  247MOL0     C33981   5.232  11.311   2.304 -0.2884 -0.1588 -0.0834
  247MOL0     C33982   5.273  11.307   2.169  0.7555 -0.5414  0.7932
  247MOL0     C33983   5.255  11.191   2.094 -0.5376 -0.3125 -0.7801
  247MOL0     O33984   5.281  11.202   1.960 -0.3971  0.8278 -0.1726
  247MOL0     C33985   5.202  11.133   1.864 -0.7070 -0.3488  0.4976
  247MOL0     C33986   5.268  11.140   1.726  0.7826 -0.7438 -0.0708
  247MOL0     C33987   5.184  11.053   1.626 -0.0999 -0.4243  0.3777
  247MOL0     C33988   5.259  11.035   1.491  0.3380  0.0360  0.1690
  247MOL0     C33989   5.161  10.963   1.395 -0.1651  0.1824  0.1546
  247MOL0     C33990   5.226  10.927   1.260  0.4978 -0.1332  0.6231
  247MOL0     C33991   5.135  10.883   1.145  0.8379 -0.3154  1.1585
  247MOL0     C33992   5.104  10.737   1.168  0.4132  0.2333  0.3487
  247MOL0    Cl33993   5.028  10.677   1.009  0.1802  0.1929 -0.1520
  247MOL0     C33994   5.216  11.072   2.156  0.5471 -0.3192  0.0549
  247MOL0     C33995   5.199  11.073   2.290 -0.0885 -0.4844 -0.1493
  247MOL0     O33996   5.311  11.353   2.580  1.0111  0.6734 -0.0151
  247MOL0     C33997   5.008  11.215   2.722 -0.2539  0.4946 -0.0586
  247MOL0     C33998   4.912  11.231   2.817 -0.9669  0.1829  0.4680
  247MOL0     N33999   4.254  11.228   3.289 -0.1223 -0.3937  0.1244
  247MOL0     N34000   4.217  11.121   3.356  0.0618  0.2980  0.5160
  247MOL0     C34001   3.495  10.299   3.169 -0.2964  0.3098 -0.2994
  247MOL0     C34002   3.415  10.253   3.064  0.0243  0.0909 -1.2732
  247MOL0     C34003   3.352  10.053   2.647 -0.2058  0.0248  0.0457
  247MOL0     C34004   3.417   9.946   2.574  0.3413  0.0096 -0.3679
  247MOL0     C34005   3.361   9.909   2.447 -0.1834 -0.1076  0.9626
  247MOL0     C34006   3.242   9.967   2.395 -0.5258  0.1751 -0.2323
  247MOL0     O34007   3.219   9.946   2.257  0.0864 -0.4481 -0.5162
  247MOL0     C34008   3.108  10.020   2.198 -0.6634  0.0826  0.3882
  247MOL0     C34009   3.051   9.970   2.064 -0.0618  1.2177  0.2112
  247MOL0     C34010   3.002   9.824   2.070 -0.6027 -0.3498 -0.6593
  247MOL0     C34011   2.937   9.780   1.947 -0.4389  0.0887 -0.1645
  247MOL0     C34012   3.025   9.746   1.836  0.7712  0.0372  0.0629
  247MOL0     C34013   3.099   9.712   1.746  0.6737  0.0349  0.3908
  247MOL0     C34014   3.180  10.057   2.480  0.5031  0.4008  1.0558
  247MOL0     C34015   3.233  10.111   2.599  0.2465  0.8946  0.1468
  247MOL0     C34016   3.160  10.222   2.666 -0.5819  0.0230 -0.5115
  247MOL0     H34017   3.631  10.331   2.817 -2.6541 -4.9949 -2.3052
  247MOL0     H34018   3.771  10.397   2.997  0.2556  0.4488  2.5222
  247MOL0     H34019   3.872  10.280   3.229 -0.8273 -0.6496  2.6131
  247MOL0     H34020   3.864  10.393   3.374 -0.5303  0.3921 -0.0843
  247MOL0     H34021   3.943  10.410   3.098  0.9107 -3.1930  2.5068
  247MOL0     H34022   3.844  10.557   3.152 -2.4253 -0.9396  2.6257
  247MOL0     H34023   3.997  10.589   3.343  1.9597 -0.9550  1.0619
  247MOL0     H34024   4.110  10.465   3.281  2.1897  0.2419 -1.7941
  247MOL0     H34025   4.137  10.588   3.078 -0.0018 -2.2180  2.0382
  247MOL0     H34026   4.034  10.724   3.148  1.7758  1.7366 -0.1140
  247MOL0     H34027   4.293  10.734   3.158  0.3257  5.1476  2.7593
  247MOL0     H34028   4.282  10.587   3.268 -0.7178 -1.4994 -1.1409
  247MOL0     H34029   4.164  10.877   3.320  0.2075  1.2642  2.9331
  247MOL0     H34030   4.165  10.742   3.437 -3.1694  2.7580 -0.9018
  247MOL0     H34031   4.410  10.883   3.313 -2.1957 -1.1543 -1.5764
  247MOL0     H34032   4.408  10.750   3.436 -1.7796  0.5811  1.4956
  247MOL0     H34033   4.259  10.923   3.574  0.9448 -0.8066  0.8639
  247MOL0     H34034   4.427  10.943   3.565  0.6155 -1.7079 -0.3052
  247MOL0     H34035   4.520  11.187   3.453  0.8457  2.6775 -1.4360
  247MOL0     H34036   4.475  11.468   3.352  1.1689 -1.2841  0.2461
  247MOL0     H34037   4.383  11.459   3.203  0.7796  2.0915 -0.4203
  247MOL0     H34038   4.662  11.339   3.290  0.7186  3.8212  0.9727
  247MOL0     H34039   4.579  11.268   3.157 -0.0051 -0.1168 -0.8056
  247MOL0     H34040   4.572  11.494   3.046  0.4025  1.0822 -0.4432
  247MOL0     H34041   4.633  11.569   3.191 -0.2459 -0.7944  2.9461
  247MOL0     H34042   4.830  11.554   3.047  0.9432 -0.0984  0.1793
  247MOL0     H34043   4.857  11.450   3.173 -0.3701  1.4094  0.8609
  247MOL0     H34044   5.038  11.485   2.986  1.7274 -0.6188 -0.1545
  247MOL0     H34045   5.363  11.440   2.807  1.8233  1.0199  1.2633
  247MOL0     H34046   5.277  11.516   2.938 -1.7353  0.8413  0.4925
  247MOL0     H34047   5.246  11.568   2.768 -0.1561 -1.3038 -1.5565
  247MOL0     H34048   5.241  11.405   2.356  1.4735  1.4596 -3.0571
  247MOL0     H34049   5.293  11.397   2.113  2.4632  0.3275  2.6760
  247MOL0     H34050   5.192  11.025   1.879  1.5092 -0.4897  1.3552
  247MOL0     H34051   5.102  11.176   1.870 -1.3060 -1.6482  0.0982
  247MOL0     H34052   5.270  11.247   1.703 -0.1216  0.2517  3.7535
  247MOL0     H34053   5.374  11.113   1.732  1.1387  0.7391  0.7920
  247MOL0     H34054   5.092  11.111   1.612 -0.2345 -0.5981  0.5358
  247MOL0     H34055   5.155  10.959   1.674 -1.2018 -0.1049  0.3484
  247MOL0     H34056   5.348  10.975   1.510 -0.2545 -1.3742 -1.3275
  247MOL0     H34057   5.279  11.131   1.443 -0.3197 -0.6372 -1.5433
  247MOL0     H34058   5.121  10.876   1.447 -1.4705  0.4398 -0.3804
  247MOL0     H34059   5.083  11.038   1.382  1.3085  1.6587 -0.6548
  247MOL0     H34060   5.306  10.854   1.274  0.7662 -0.0299 -0.3022
  247MOL0     H34061   5.280  11.012   1.218 -2.0859  0.6584 -1.4143
  247MOL0     H34062   5.182  10.904   1.049  0.4804 -1.5392  0.6975
  247MOL0     H34063   5.043  10.942   1.138 -0.2326 -2.1004 -0.6057
  247MOL0     H34064   5.039  10.721   1.255  2.6337  2.2951  2.5646
  247MOL0     H34065   5.188  10.670   1.189 -2.3401 -3.0902  1.8720
  247MOL0     H34066   5.192  10.986   2.095  0.4825  0.9888 -1.8569
  247MOL0     H34067   5.180  10.980   2.343  0.0910  0.3865  1.4961
  247MOL0     H34068   4.992  11.129   2.658 -0.0842  1.8254 -1.9607
  247MOL0     H34069   4.840  11.152   2.836  1.9446 -2.2531  2.2122
  247MOL0     H34070   3.463  10.311   3.272  0.7156  3.1649 -0.2408
  247MOL0     H34071   3.317  10.212   3.085  0.4247  0.3880  1.5133
  247MOL0     H34072   3.494   9.879   2.612 -1.3124 -2.6498 -1.3518
  247MOL0     H34073   3.404   9.825   2.393 -0.4150 -0.8328  1.8586
  247MOL0     H34074   3.025  10.007   2.268 -3.2313 -2.8739 -2.8323
  247MOL0     H34075   3.129  10.127   2.200 -3.3863  0.6719  1.6113
  247MOL0     H34076   3.135   9.968   1.994  0.9617  1.4335  1.4092
  247MOL0     H34077   2.974  10.036   2.021  2.4558  2.0780 -3.3914
  247MOL0     H34078   3.082   9.752   2.089 -0.0684  0.6001  0.8462
  247MOL0     H34079   2.923   9.822   2.146  0.7413 -1.0808  0.7797
  247MOL0     H34080   2.863   9.853   1.910  0.0642 -0.2684 -1.9686
  247MOL0     H34081   2.875   9.694   1.974  0.6714 -0.8342 -0.5149
  247MOL0     H34082   3.167   9.686   1.668 -1.0630 -1.3049 -0.7769
  247MOL0     H34083   3.088  10.100   2.441  2.0302 -0.1625 -3.8450
  247MOL0     H34084   3.081  10.263   2.602 -0.3732  0.6791 -0.3575
  247MOL0     H34085   3.113  10.199   2.762  0.8351 -3.5904 -0.5171
  247MOL0     H34086   3.230  10.305   2.679  0.1523 -0.8067  1.1077
  248MOL0     O34087   2.605  10.229   3.782  0.6217  0.7229  0.2015
  248MOL0     C34088   2.683  10.307   3.734 -0.6798  0.2533  0.1317
  248MOL0     O34089   2.820  10.327   3.770  0.4355  0.0169 -0.8656
  248MOL0     C34090   2.865  10.294   3.896  0.0275  0.2918 -0.6172
  248MOL0     C34091   3.002  10.284   3.913  1.1692  0.3686  0.9445
  248MOL0     C34092   3.066  10.238   4.028  0.0230  0.1123  0.3805
  248MOL0     C34093   2.991  10.212   4.139  0.7818  1.1533 -0.1328
  248MOL0     O34094   3.036  10.177   4.267 -0.9492 -0.0615  0.1681
  248MOL0     C34095   3.170  10.128   4.298 -0.8280 -0.7826  0.2263
  248MOL0     C34096   3.177  10.121   4.453  0.1068  0.1546 -0.2373
  248MOL0     C34097   3.142  10.254   4.515  0.5749  0.6162 -0.6192
  248MOL0     C34098   3.199  10.263   4.653  0.4776  0.1451 -0.2788
  248MOL0     C34099   3.153  10.380   4.735  0.1467 -0.0363  0.0052
  248MOL0     C34100   3.158  10.349   4.894 -0.0148 -0.5420  0.9584
  248MOL0     C34101   3.061  10.247   4.939 -0.3860 -0.2908  0.2016
  248MOL0     C34102   3.081  10.234   5.091 -0.1284  0.1042 -0.3871
  248MOL0     N34103   3.025  10.106   5.146  0.8979  0.2096 -0.3310
  248MOL0     C34104   2.963  10.096   5.267 -0.2137  0.1586 -0.7753
  248MOL0     C34105   2.996   9.974   5.311  0.1355 -0.4062 -0.2618
  248MOL0     C34106   2.959   9.914   5.442  0.0779  0.3050 -0.7013
  248MOL0     C34107   2.817   9.840   5.459 -0.8958 -1.2451  0.8705
  248MOL0     C34108   2.839   9.690   5.431  0.0183  0.0262 -0.5647
  248MOL0     C34109   2.717   9.600   5.460  0.2612  0.2590 -0.3317
  248MOL0     O34110   2.716   9.574   5.608 -0.4565  0.2905  0.5790
  248MOL0     C34111   2.614   9.495   5.658  0.1108  0.2131  0.7433
  248MOL0     C34112   2.488   9.477   5.611  0.1067 -0.1413 -0.4683
  248MOL0     C34113   2.393   9.397   5.677  0.4794 -1.0529  0.4301
  248MOL0     C34114   2.240   9.426   5.633 -0.6863  0.8938  0.5542
  248MOL0     C34115   2.426   9.316   5.785  0.1932  0.0440  0.2285
  248MOL0     C34116   2.335   9.234   5.864  1.0697  1.0844  0.2347
  248MOL0     O34117   2.363   9.220   5.999 -0.3848 -0.1827 -0.3525
  248MOL0     C34118   2.294   9.124   6.077  0.5121 -0.0972 -0.6399
  248MOL0     C34119   2.374   9.039   6.153 -0.4383 -0.5223  0.5788
  248MOL0     C34120   2.320   8.937   6.230  0.0973  0.3448 -0.3064
  248MOL0     C34121   2.182   8.927   6.250 -0.1255 -0.2063  0.1109
  248MOL0     O34122   2.126   8.828   6.330 -0.3223 -0.3017 -0.4000
  248MOL0     C34123   2.164   8.693   6.293  0.1074 -0.7281 -0.3046
  248MOL0     C34124   2.081   8.595   6.378 -0.4927  0.1721 -0.1544
  248MOL0     C34125   2.091   8.631   6.527 -0.5672 -0.2808 -0.2130
  248MOL0     C34126   2.227   8.589   6.591 -0.1027 -0.0688  0.2625
  248MOL0     C34127   2.259   8.630   6.726 -0.1201 -0.1384  0.6302
  248MOL0     C34128   2.172   8.563   6.826  0.0516  0.5048  0.0664
  248MOL0     C34129   2.227   8.566   6.972  0.2025  0.3832  0.0706
  248MOL0     C34130   2.209   8.708   7.036  0.2896  0.3535  0.0472
  248MOL0    Cl34131   2.031   8.726   7.080 -0.1155 -0.0268 -0.6075
  248MOL0     C34132   2.104   9.019   6.186  0.0827 -0.1387 -0.5606
  248MOL0     C34133   2.156   9.121   6.107  0.3475  0.5680  0.6571
  248MOL0     O34134   2.241   9.171   5.803 -0.2980 -0.0234 -0.0905
  248MOL0     C34135   2.552   9.341   5.840  0.4578 -0.3692 -0.2916
  248MOL0     C34136   2.647   9.423   5.775  1.1325 -0.2379 -0.4647
  248MOL0     N34137   3.070   9.916   5.223 -0.0465  0.0428 -0.6786
  248MOL0     N34138   3.094   9.993   5.122 -0.1324  0.9720 -0.6598
  248MOL0     C34139   2.854  10.222   4.135  0.5753  0.5375 -0.2382
  248MOL0     C34140   2.788  10.253   4.012 -0.2525 -0.7649 -0.1264
  248MOL0     C34141   2.625  10.374   3.609 -0.0437  0.3010 -0.2115
  248MOL0     C34142   2.519  10.312   3.532  0.6250 -0.0746 -1.0432
  248MOL0     C34143   2.450  10.382   3.429 -0.3437 -0.2148  0.1701
  248MOL0     C34144   2.486  10.509   3.394  0.5079 -0.4945  0.5160
  248MOL0     O34145   2.428  10.585   3.299 -0.1734 -0.2480  1.0822
  248MOL0     C34146   2.289  10.626   3.314 -0.5599 -0.5484  0.5484
  248MOL0     C34147   2.241  10.734   3.203 -0.3575 -0.4426  0.6113
  248MOL0     C34148   2.148  10.657   3.109  0.1080 -0.1017  0.3344
  248MOL0     C34149   1.997  10.667   3.144  0.0656 -0.1452  0.5881
  248MOL0     C34150   1.920  10.794   3.138  0.3318 -0.8449 -0.7202
  248MOL0     C34151   1.871  10.906   3.115  0.0183 -0.4631  0.8050
  248MOL0     C34152   2.598  10.566   3.466 -0.3324  0.4426 -0.0746
  248MOL0     C34153   2.670  10.502   3.574  0.4493 -0.4143 -0.1835
  248MOL0     C34154   2.764  10.589   3.660  0.3845  0.5753  0.5093
  248MOL0     H34155   3.064  10.306   3.827 -2.0934 -1.6854 -2.2071
  248MOL0     H34156   3.174  10.236   4.023 -0.0059  1.1102 -0.9609
  248MOL0     H34157   3.251  10.186   4.253  0.7908 -2.0760  1.3044
  248MOL0     H34158   3.182  10.025   4.264  0.7578 -0.7775  0.6499
  248MOL0     H34159   3.106  10.049   4.495  2.1964 -0.7830  1.8985
  248MOL0     H34160   3.282  10.105   4.479 -0.1166  0.1597  0.6922
  248MOL0     H34161   3.195  10.337   4.468 -0.3243  1.4646 -0.1777
  248MOL0     H34162   3.034  10.275   4.516  0.0262 -1.8170 -1.8276
  248MOL0     H34163   3.165  10.175   4.708  1.5150  0.0605  0.2339
  248MOL0     H34164   3.307  10.259   4.640  0.6024 -0.2851  0.7977
  248MOL0     H34165   3.050  10.414   4.718 -0.2712 -1.4045 -0.3096
  248MOL0     H34166   3.227  10.459   4.718 -1.2473  1.2422 -0.3870
  248MOL0     H34167   3.260  10.319   4.918  0.2949  0.9582  1.5970
  248MOL0     H34168   3.128  10.439   4.949 -0.2804 -1.1765  1.8737
  248MOL0     H34169   3.076  10.158   4.877 -3.2927  0.5920 -1.9693
  248MOL0     H34170   2.960  10.286   4.922  0.0082 -0.3880 -2.9812
  248MOL0     H34171   3.187  10.231   5.117 -0.1154  0.6572 -0.3663
  248MOL0     H34172   3.037  10.324   5.136 -0.6316 -0.0316 -0.5980
  248MOL0     H34173   2.927  10.181   5.324 -0.3265  2.0784 -3.5116
  248MOL0     H34174   2.965   9.995   5.515 -0.2066  1.6866 -2.1592
  248MOL0     H34175   3.040   9.854   5.482  1.8206  4.7753  3.4374
  248MOL0     H34176   2.770   9.860   5.556 -0.0033  2.4910  0.6885
  248MOL0     H34177   2.742   9.888   5.396  0.8441  0.5609  0.0604
  248MOL0     H34178   2.863   9.667   5.327 -0.1680 -1.0228 -0.3899
  248MOL0     H34179   2.928   9.661   5.486 -2.0723  1.0101  3.8318
  248MOL0     H34180   2.622   9.647   5.434 -0.8020 -1.4130  0.3108
  248MOL0     H34181   2.733   9.511   5.399 -0.7305 -0.1954  0.0407
  248MOL0     H34182   2.457   9.521   5.517 -0.2312  2.5745  0.8193
  248MOL0     H34183   2.201   9.330   5.598  1.3472  0.2485 -0.1267
  248MOL0     H34184   2.238   9.491   5.545 -2.0154 -2.1426 -1.8689
  248MOL0     H34185   2.179   9.459   5.717  0.5202 -0.5344  2.0681
  248MOL0     H34186   2.482   9.033   6.138 -0.4733  0.7737 -0.2761
  248MOL0     H34187   2.375   8.858   6.279 -0.8194 -1.2158 -1.7040
  248MOL0     H34188   2.159   8.661   6.189  0.8764 -2.7591  0.2382
  248MOL0     H34189   2.270   8.683   6.315  0.3234  2.9607  1.1044
  248MOL0     H34190   1.979   8.598   6.338 -2.0458 -1.8754  3.1154
  248MOL0     H34191   2.119   8.493   6.364  0.1177  0.4683 -0.6876
  248MOL0     H34192   2.023   8.563   6.580 -1.1006 -0.1906 -0.7756
  248MOL0     H34193   2.046   8.726   6.557 -1.3571  0.0916 -2.4195
  248MOL0     H34194   2.304   8.639   6.531  1.5492 -3.3309 -0.5484
  248MOL0     H34195   2.255   8.485   6.575  0.3047  0.1656 -0.6205
  248MOL0     H34196   2.365   8.604   6.738 -0.4528 -2.8232 -1.5007
  248MOL0     H34197   2.240   8.738   6.737  0.5721  0.4109 -2.5254
  248MOL0     H34198   2.161   8.459   6.795  0.6286  0.5797 -0.4049
  248MOL0     H34199   2.073   8.609   6.828  0.7226  2.0079  0.7159
  248MOL0     H34200   2.332   8.538   6.982 -0.3886 -1.4633  1.8919
  248MOL0     H34201   2.172   8.490   7.029  2.0161 -0.0083  1.3799
  248MOL0     H34202   2.220   8.791   6.965  1.4066 -0.2884 -0.5645
  248MOL0     H34203   2.268   8.717   7.128 -1.5733  0.6219  1.2744
  248MOL0     H34204   1.997   9.014   6.196 -0.0957  2.9600  0.1258
  248MOL0     H34205   2.094   9.197   6.060 -1.2197 -0.8299  0.3926
  248MOL0     H34206   2.587   9.293   5.931 -0.5375 -2.9749 -1.1939
  248MOL0     H34207   2.751   9.422   5.806  1.2236 -3.0324 -0.6730
  248MOL0     H34208   2.786  10.211   4.219  0.8860 -0.3292 -0.0890
  248MOL0     H34209   2.679  10.257   4.006 -0.1613  0.1411 -1.8112
  248MOL0     H34210   2.486  10.216   3.570  4.0519 -0.2514  2.0322
  248MOL0     H34211   2.373  10.326   3.376  0.3941 -2.8835  1.7162
  248MOL0     H34212   2.212  10.547   3.319 -0.7382 -0.3440  1.1328
  248MOL0     H34213   2.279  10.675   3.411  1.9649 -1.1183  1.1586
  248MOL0     H34214   2.323  10.785   3.151 -2.4853  4.2600  1.3913
  248MOL0     H34215   2.189  10.818   3.248  0.5191 -0.9625  2.7171
  248MOL0     H34216   2.178  10.690   3.009 -1.4269  1.1328  0.2367
  248MOL0     H34217   2.172  10.550   3.105 -2.9721 -0.8458 -1.0773
  248MOL0     H34218   1.978  10.621   3.241 -1.4034  2.2438  1.5292
  248MOL0     H34219   1.947  10.595   3.079 -2.7673  0.8588  1.4843
  248MOL0     H34220   1.828  11.001   3.092 -1.1633 -0.7422  1.7789
  248MOL0     H34221   2.630  10.667   3.441  3.0498 -0.2725  0.8716
  248MOL0     H34222   2.753  10.562   3.765 -3.4138 -2.2856 -0.4309
  248MOL0     H34223   2.867  10.579   3.622  0.8218  1.7392  1.3149
  248MOL0     H34224   2.737  10.695   3.652 -1.1466  0.2937  1.6296
  249MOL0     O34225   9.640   1.247   6.563  0.1119  0.1569 -0.3094
  249MOL0     C34226   9.650   1.330   6.656  0.5253  0.1729 -0.2245
  249MOL0     O34227   9.547   1.381   6.731 -0.1025 -0.2714 -0.1461
  249MOL0     C34228   9.423   1.327   6.733 -0.9294  0.0223  0.2741
  249MOL0     C34229   9.398   1.246   6.841 -0.2887 -0.2297  0.1188
  249MOL0     C34230   9.279   1.183   6.868 -0.3469 -0.3903  0.2675
  249MOL0     C34231   9.176   1.195   6.773  0.3979 -0.4973 -0.0688
  249MOL0     O34232   9.049   1.144   6.808  0.6336  0.3906 -0.1047
  249MOL0     C34233   8.957   1.119   6.704  0.1681  0.7004 -0.0616
  249MOL0     C34234   8.843   1.029   6.728 -0.2996 -0.4029  0.1441
  249MOL0     C34235   8.749   1.013   6.610 -0.3535  0.6832  0.2945
  249MOL0     C34236   8.649   0.902   6.651  0.4247 -0.1957 -0.6957
  249MOL0     C34237   8.560   0.871   6.537  0.6018 -0.0814  0.9423
  249MOL0     C34238   8.470   0.743   6.561  0.4399  0.1835 -0.3495
  249MOL0     C34239   8.338   0.742   6.470 -0.6165 -0.6025 -1.4387
  249MOL0     C34240   8.262   0.608   6.472  0.4884 -0.9538 -0.6322
  249MOL0     N34241   8.121   0.636   6.445 -0.1835  0.2211 -0.3666
  249MOL0     C34242   8.058   0.644   6.324  0.0698 -1.0488  0.2331
  249MOL0     C34243   7.928   0.665   6.354 -0.2107 -0.9897 -0.6175
  249MOL0     C34244   7.810   0.678   6.267  0.8897  1.1922  0.2661
  249MOL0     C34245   7.709   0.566   6.272  0.8360  0.0067  0.5796
  249MOL0     C34246   7.740   0.447   6.187 -0.3798  0.4045  0.2796
  249MOL0     C34247   7.610   0.375   6.135  0.3740 -0.3981 -0.0653
  249MOL0     O34248   7.527   0.350   6.246  0.2198  0.7868  0.3823
  249MOL0     C34249   7.401   0.293   6.236  0.5664 -0.7797 -0.2588
  249MOL0     C34250   7.327   0.312   6.350  0.1310  0.5491  0.0088
  249MOL0     C34251   7.202   0.253   6.354 -0.0407 -0.1924 -0.0761
  249MOL0     C34252   7.131   0.292   6.473  0.4967  0.4495  0.2581
  249MOL0     C34253   7.141   0.172   6.252  0.2954 -0.0757  0.9014
  249MOL0     C34254   7.006   0.111   6.268  0.0966  0.9784  0.0770
  249MOL0     O34255   6.973   0.063   6.389  0.9713 -0.3086 -0.7920
  249MOL0     C34256   6.843   0.039   6.421 -0.2936  0.6706  0.6362
  249MOL0     C34257   6.771   0.146   6.461 -0.2808 -0.4391 -0.6857
  249MOL0     C34258   6.636   0.123   6.497 -0.3348  0.5247 -0.7926
  249MOL0     C34259   6.579  -0.004   6.488 -0.0821 -1.1481  1.1390
  249MOL0     O34260   6.452  -0.035   6.519  0.0716 -0.4901  0.2704
  249MOL0     C34261   6.361   0.061   6.576 -0.4724  0.6281  0.5656
  249MOL0     C34262   6.219   0.002   6.607  0.0908 -1.0580 -0.2194
  249MOL0     C34263   6.138  -0.038   6.483  0.0001  0.0512 -0.0025
  249MOL0     C34264   6.198  -0.160   6.409  0.1183 -0.0767  0.5505
  249MOL0     C34265   6.096  -0.242   6.325 -0.5073 -0.0835  0.1126
  249MOL0     C34266   6.009  -0.342   6.398 -0.2981  0.1807  0.1862
  249MOL0     C34267   5.928  -0.422   6.299 -0.0781 -0.3679 -0.1673
  249MOL0     C34268   5.910  -0.578   6.337 -0.3997 -0.0983  1.1020
  249MOL0    Cl34269   5.809  -0.599   6.484  0.4759  0.0998  0.2856
  249MOL0     C34270   6.648  -0.114   6.447  0.9140 -0.4615  0.7677
  249MOL0     C34271   6.785  -0.094   6.423 -0.3389 -0.3615 -0.9048
  249MOL0     O34272   6.931   0.133   6.177  0.8534 -0.3868 -0.3739
  249MOL0     C34273   7.216   0.167   6.136 -0.7854  1.3862  0.6247
  249MOL0     C34274   7.341   0.221   6.130  0.3386  0.7423  0.6779
  249MOL0     N34275   7.914   0.686   6.493 -0.9088  0.4751 -0.0850
  249MOL0     N34276   8.033   0.659   6.547 -0.6310  0.0641 -0.0238
  249MOL0     C34277   9.196   1.272   6.661 -0.5013 -1.4398 -0.0254
  249MOL0     C34278   9.320   1.345   6.649 -0.2328  0.5182 -0.0234
  249MOL0     C34279   9.790   1.376   6.691 -0.6428  0.0078  0.4311
  249MOL0     C34280   9.815   1.447   6.810  0.3602  0.5742  0.5727
  249MOL0     C34281   9.945   1.487   6.851 -0.7275  0.3736  0.5078
  249MOL0     C34282  10.066   1.446   6.792 -0.3315 -0.2948  0.5962
  249MOL0     O34283  10.191   1.460   6.835 -0.9532 -0.4461 -0.1768
  249MOL0     C34284  10.220   1.527   6.965  1.0257 -0.1498 -0.2293
  249MOL0     C34285  10.180   1.422   7.078 -0.3210  0.5052  0.1069
  249MOL0     C34286  10.227   1.467   7.215  0.3614 -0.1808 -0.4212
  249MOL0     C34287  10.298   1.348   7.297  0.6008 -0.6859 -0.6365
  249MOL0     C34288  10.197   1.246   7.323 -0.0799  0.0219  0.2890
  249MOL0     C34289  10.125   1.148   7.345 -0.1154 -0.3434  0.1981
  249MOL0     C34290  10.045   1.372   6.665 -0.8332  0.8150 -0.5400
  249MOL0     C34291   9.914   1.336   6.623 -0.6173  0.0955  0.5021
  249MOL0     C34292   9.924   1.266   6.488  0.0792  0.4656  0.2943
  249MOL0     H34293   9.480   1.228   6.910  0.6066 -0.9821 -1.0908
  249MOL0     H34294   9.266   1.130   6.962 -2.5475 -0.1978  0.1277
  249MOL0     H34295   9.009   1.067   6.623 -0.1553  2.0335 -1.1665
  249MOL0     H34296   8.914   1.216   6.677  0.6305  2.0708  3.5899
  249MOL0     H34297   8.877   0.930   6.763 -1.4575 -0.1277  2.2151
  249MOL0     H34298   8.787   1.079   6.808  1.9512  0.3323  1.3580
  249MOL0     H34299   8.689   1.101   6.586 -1.2247 -0.0981 -0.4612
  249MOL0     H34300   8.812   0.976   6.529  1.2744  2.0847  0.8649
  249MOL0     H34301   8.710   0.814   6.671  2.5349  1.1359 -0.9445
  249MOL0     H34302   8.593   0.935   6.740  0.7265 -0.9923 -0.2014
  249MOL0     H34303   8.616   0.865   6.444 -1.4798  3.7808 -0.8002
  249MOL0     H34304   8.487   0.953   6.534 -0.0990 -0.4732  3.9546
  249MOL0     H34305   8.535   0.658   6.541 -0.5491 -1.1254  1.6357
  249MOL0     H34306   8.438   0.738   6.666 -0.4623  1.3302 -0.5484
  249MOL0     H34307   8.360   0.774   6.368 -0.7384  1.3168 -0.9128
  249MOL0     H34308   8.273   0.824   6.503  2.7881  2.3509 -1.4147
  249MOL0     H34309   8.310   0.530   6.412 -1.7955 -1.0558 -2.4402
  249MOL0     H34310   8.276   0.574   6.576  1.0476 -0.9113 -0.6889
  249MOL0     H34311   8.092   0.617   6.225  3.0222 -0.8518  1.0992
  249MOL0     H34312   7.838   0.674   6.161  0.4535 -0.1303  0.1718
  249MOL0     H34313   7.755   0.769   6.292 -2.4360 -0.0049 -1.9530
  249MOL0     H34314   7.695   0.535   6.376 -1.7844  3.0834  1.2783
  249MOL0     H34315   7.613   0.609   6.241  1.8993  1.1287 -1.3892
  249MOL0     H34316   7.797   0.476   6.098 -0.0111  1.7653  0.9384
  249MOL0     H34317   7.804   0.380   6.245  0.8183  0.1189 -1.3125
  249MOL0     H34318   7.562   0.442   6.063  2.3594 -2.0902 -3.2378
  249MOL0     H34319   7.643   0.290   6.074  1.8849  0.5690 -0.6524
  249MOL0     H34320   7.365   0.369   6.435 -1.6891  0.2333  1.0903
  249MOL0     H34321   7.023   0.300   6.459  0.7348  2.1156 -0.8485
  249MOL0     H34322   7.166   0.389   6.509  2.0105 -0.1075  0.3675
  249MOL0     H34323   7.151   0.221   6.554 -3.3717  1.5280  2.4027
  249MOL0     H34324   6.820   0.239   6.487  0.3143 -1.1405  0.8202
  249MOL0     H34325   6.567   0.193   6.544  0.7402  0.5275  0.8783
  249MOL0     H34326   6.404   0.081   6.675 -2.2957 -0.4442  1.6528
  249MOL0     H34327   6.349   0.147   6.510  0.9488 -0.9907 -1.9607
  249MOL0     H34328   6.231  -0.076   6.683  3.7985  0.3853  0.8871
  249MOL0     H34329   6.161   0.079   6.660 -0.3389 -0.8660 -0.9494
  249MOL0     H34330   6.125   0.041   6.408 -3.1562 -0.2163  0.1308
  249MOL0     H34331   6.039  -0.057   6.525 -0.9562  5.4677  0.9456
  249MOL0     H34332   6.237  -0.238   6.476 -1.9095  0.0231  1.9456
  249MOL0     H34333   6.288  -0.132   6.353  1.5914 -2.7663  1.3957
  249MOL0     H34334   6.036  -0.184   6.254  2.1074 -0.9702 -3.0778
  249MOL0     H34335   6.145  -0.304   6.249 -2.3119 -0.4858 -0.7965
  249MOL0     H34336   5.940  -0.293   6.467 -0.8148 -1.0179  0.5373
  249MOL0     H34337   6.072  -0.406   6.460 -0.8935  0.9393  1.6152
  249MOL0     H34338   5.972  -0.420   6.198 -1.6524  3.4473 -0.9316
  249MOL0     H34339   5.834  -0.368   6.304  0.4574  0.7375 -1.3395
  249MOL0     H34340   6.007  -0.625   6.357  0.1071 -0.0025 -0.9558
  249MOL0     H34341   5.855  -0.616   6.251  0.5885  0.2356  0.2969
  249MOL0     H34342   6.601  -0.212   6.444  0.2119 -0.1206 -1.0033
  249MOL0     H34343   6.844  -0.184   6.406  0.3799 -0.2648  0.8406
  249MOL0     H34344   7.174   0.126   6.045  0.1723  0.8179  0.4358
  249MOL0     H34345   7.393   0.214   6.035 -0.4268  0.1454  0.2874
  249MOL0     H34346   9.120   1.288   6.585  1.5161 -2.4075 -2.3854
  249MOL0     H34347   9.329   1.419   6.569 -1.9844 -0.4006 -1.1287
  249MOL0     H34348   9.730   1.484   6.866 -0.4938 -0.0956 -0.2510
  249MOL0     H34349   9.950   1.539   6.947  2.7292  0.7400  0.2618
  249MOL0     H34350  10.328   1.539   6.970  1.5970 -3.7024 -0.8043
  249MOL0     H34351  10.157   1.616   6.958 -0.4580 -1.2535 -2.4020
  249MOL0     H34352  10.244   1.338   7.050 -0.5177  0.0767  0.9096
  249MOL0     H34353  10.072   1.409   7.068 -0.1814 -1.0362  0.3414
  249MOL0     H34354  10.293   1.553   7.202  1.7653 -0.9408  1.3836
  249MOL0     H34355  10.146   1.499   7.281  1.6297 -2.9058  2.7508
  249MOL0     H34356  10.339   1.380   7.393  0.5695 -1.5986 -0.3048
  249MOL0     H34357  10.377   1.300   7.238 -0.2188 -2.0410 -0.6882
  249MOL0     H34358  10.081   1.052   7.364  1.7553 -1.2087  0.4782
  249MOL0     H34359  10.137   1.352   6.610 -1.2928  0.4894 -1.2089
  249MOL0     H34360   9.856   1.181   6.481  2.4153 -1.5696  0.7410
  249MOL0     H34361   9.891   1.331   6.406  0.0898 -2.5413 -2.2918
  249MOL0     H34362  10.026   1.235   6.461 -1.3110 -3.2859 -1.3911
  250MOL0     O34363  10.241   5.335   2.875  0.4808  0.4070  0.3843
  250MOL0     C34364  10.133   5.388   2.887 -0.0061 -0.1603 -0.1770
  250MOL0     O34365  10.074   5.413   3.012 -0.0557  0.6219 -0.3708
  250MOL0     C34366  10.141   5.383   3.129  0.7269  0.2382  0.3153
  250MOL0     C34367  10.067   5.324   3.234  0.3219  0.8764 -0.4921
  250MOL0     C34368  10.132   5.292   3.359  0.8431  0.0902 -0.0642
  250MOL0     C34369  10.265   5.331   3.380  0.1344 -0.2402  0.2150
  250MOL0     O34370  10.344   5.309   3.491  0.4540 -0.5650 -0.0232
  250MOL0     C34371  10.317   5.197   3.580  0.5191 -0.5393 -0.3054
  250MOL0     C34372  10.437   5.173   3.669 -0.0510  0.2389 -0.2724
  250MOL0     C34373  10.571   5.166   3.586 -0.5013 -0.1891 -0.9780
  250MOL0     C34374  10.692   5.121   3.662  0.4317  0.1852 -0.5734
  250MOL0     C34375  10.823   5.173   3.598 -0.2320 -0.2788  0.0887
  250MOL0     C34376  10.952   5.128   3.670 -0.2130  1.0211  0.5147
  250MOL0     C34377  10.975   4.972   3.651 -0.0226 -0.6084 -0.9669
  250MOL0     C34378  11.095   4.932   3.732 -0.9297  1.1152 -1.1710
  250MOL0     N34379  11.159   4.818   3.668 -0.3862 -0.2456  0.2338
  250MOL0     C34380  11.244   4.820   3.558  0.1309  0.1063 -0.5517
  250MOL0     C34381  11.259   4.689   3.524 -1.0439 -0.9903  0.0111
  250MOL0     C34382  11.326   4.647   3.392 -0.7458 -0.5250  0.2903
  250MOL0     C34383  11.477   4.646   3.405  1.0717  0.2719  0.3853
  250MOL0     C34384  11.526   4.519   3.487 -0.5015 -0.8219 -0.0843
  250MOL0     C34385  11.677   4.526   3.499  0.0300 -0.1031 -0.3955
  250MOL0     O34386  11.748   4.487   3.383 -0.0245 -0.6287 -0.5422
  250MOL0     C34387  11.885   4.473   3.387  0.0833  0.0862 -0.6427
  250MOL0     C34388  11.938   4.417   3.273 -0.1494 -0.4900 -0.0245
  250MOL0     C34389  12.073   4.410   3.247 -0.7818  0.2495  0.0804
  250MOL0     C34390  12.111   4.344   3.117  0.4137  0.8436  0.0513
  250MOL0     C34391  12.160   4.451   3.356 -0.8980  0.0954  0.1582
  250MOL0     C34392  12.312   4.439   3.353  0.5849  0.6084  0.7418
  250MOL0     O34393  12.368   4.431   3.227  0.5855  0.5095  0.1033
  250MOL0     C34394  12.501   4.387   3.214 -0.9709  0.0857 -0.2117
  250MOL0     C34395  12.553   4.396   3.085 -0.6392 -0.4430  0.1055
  250MOL0     C34396  12.690   4.375   3.054  0.3621  0.1065 -0.1494
  250MOL0     C34397  12.768   4.322   3.153  0.1580 -0.0649 -0.4661
  250MOL0     O34398  12.891   4.278   3.115  0.5528 -1.0301  0.9701
  250MOL0     C34399  12.954   4.157   3.154  0.5779  1.3720  0.9171
  250MOL0     C34400  13.099   4.197   3.180  0.6306 -0.2121 -0.3079
  250MOL0     C34401  13.195   4.077   3.133 -0.0398 -0.0223 -0.0582
  250MOL0     C34402  13.342   4.107   3.174  0.6485  0.6042 -0.5142
  250MOL0     C34403  13.418   3.977   3.144 -0.3765  0.2488  1.0069
  250MOL0     C34404  13.551   4.002   3.218  0.4742 -0.0842 -0.4901
  250MOL0     C34405  13.658   3.903   3.164  0.0251  0.0348  0.3169
  250MOL0     C34406  13.617   3.754   3.209  0.2504 -0.4751  0.3821
  250MOL0    Cl34407  13.593   3.739   3.382 -0.1313  0.3127 -0.4169
  250MOL0     C34408  12.723   4.307   3.282 -0.5057 -0.4326  0.2601
  250MOL0     C34409  12.591   4.342   3.314 -0.1092  0.0608  0.0415
  250MOL0     O34410  12.377   4.457   3.455  0.1157 -0.2616 -0.0586
  250MOL0     C34411  12.101   4.502   3.480 -0.7458  0.5628  0.2908
  250MOL0     C34412  11.973   4.525   3.489  0.2240 -0.1098 -1.1834
  250MOL0     N34413  11.202   4.606   3.617  0.4021 -0.1636  0.2230
  250MOL0     N34414  11.146   4.690   3.700 -0.3824  0.8458  0.1480
  250MOL0     C34415  10.328   5.402   3.278 -0.1372 -0.5726 -0.0800
  250MOL0     C34416  10.273   5.429   3.157 -0.1791  0.0495  0.5230
  250MOL0     C34417  10.047   5.404   2.770  1.0075 -0.1255  0.1105
  250MOL0     C34418   9.913   5.378   2.798  1.2278  0.4122 -0.2962
  250MOL0     C34419   9.818   5.399   2.701 -0.3788 -0.2838 -0.7374
  250MOL0     C34420   9.854   5.443   2.573  0.1390 -0.3523 -0.0939
  250MOL0     O34421   9.755   5.470   2.470  0.3646 -0.1491 -0.4607
  250MOL0     C34422   9.616   5.446   2.491 -0.3698 -0.1193  1.0907
  250MOL0     C34423   9.548   5.442   2.354  0.1409  0.0202 -0.1556
  250MOL0     C34424   9.512   5.587   2.307  0.9288 -0.2036  0.2321
  250MOL0     C34425   9.385   5.584   2.222  0.4212  0.3017  0.8123
  250MOL0     C34426   9.345   5.723   2.200 -1.1732  1.1918 -0.5451
  250MOL0     C34427   9.334   5.840   2.183 -0.0143  0.9269  0.5120
  250MOL0     C34428   9.990   5.462   2.542  0.7606 -0.1996 -0.3627
  250MOL0     C34429  10.088   5.445   2.641  1.0272  0.5503  0.4882
  250MOL0     C34430  10.225   5.474   2.600  0.7330  1.2179 -0.0078
  250MOL0     H34431   9.965   5.293   3.212  1.2376 -1.6904 -1.5640
  250MOL0     H34432  10.081   5.250   3.445  1.4398 -0.6851 -0.0805
  250MOL0     H34433  10.306   5.119   3.504  5.9476 -0.4356 -1.6275
  250MOL0     H34434  10.225   5.214   3.635 -0.2449 -1.2528 -1.3150
  250MOL0     H34435  10.448   5.246   3.749  2.9648 -0.6697  0.2632
  250MOL0     H34436  10.424   5.073   3.713  0.5555 -0.5332 -1.7661
  250MOL0     H34437  10.549   5.089   3.511  1.6109 -1.7450 -0.0879
  250MOL0     H34438  10.591   5.262   3.538 -0.9324 -0.3146 -1.4208
  250MOL0     H34439  10.690   5.149   3.768 -0.4023  2.1680 -1.0727
  250MOL0     H34440  10.699   5.013   3.642 -0.0776  0.6734 -3.9031
  250MOL0     H34441  10.819   5.281   3.588  2.2553 -0.0324  1.1493
  250MOL0     H34442  10.831   5.133   3.496 -1.5411 -0.1761 -0.0707
  250MOL0     H34443  11.037   5.173   3.618 -0.0436 -0.1579 -0.2867
  250MOL0     H34444  10.952   5.161   3.774  0.4626  3.1153 -0.1068
  250MOL0     H34445  10.987   4.954   3.544  0.3576 -0.7171 -0.9106
  250MOL0     H34446  10.900   4.903   3.690  0.2855 -0.8767 -0.8431
  250MOL0     H34447  11.173   5.009   3.736  1.2412 -0.9721 -1.1357
  250MOL0     H34448  11.064   4.910   3.835  2.3992  0.8540 -0.1227
  250MOL0     H34449  11.274   4.900   3.492 -0.8394  0.2896 -0.7790
  250MOL0     H34450  11.294   4.721   3.317 -0.1213 -1.0417 -0.5098
  250MOL0     H34451  11.297   4.544   3.370  1.2238 -1.3581  1.3101
  250MOL0     H34452  11.517   4.648   3.303 -3.0588 -1.0477 -1.4489
  250MOL0     H34453  11.504   4.738   3.457 -0.0501  0.4601  0.6521
  250MOL0     H34454  11.481   4.525   3.587 -0.0033  4.4427  0.0976
  250MOL0     H34455  11.499   4.427   3.433 -3.4299 -0.3097  0.3189
  250MOL0     H34456  11.691   4.630   3.528 -1.4397 -0.3582  1.4246
  250MOL0     H34457  11.707   4.453   3.575  1.1823 -1.8994 -2.4485
  250MOL0     H34458  11.868   4.391   3.195  1.7215  2.3058 -2.8903
  250MOL0     H34459  12.030   4.285   3.072 -0.6755  0.6499  2.1562
  250MOL0     H34460  12.200   4.282   3.103 -1.5437 -1.6715 -3.0497
  250MOL0     H34461  12.132   4.427   3.050  2.3295  0.4384  0.1014
  250MOL0     H34462  12.496   4.450   3.010  1.3938  0.2642 -0.9943
  250MOL0     H34463  12.738   4.402   2.960  1.1317  2.2691  0.7991
  250MOL0     H34464  12.918   4.111   3.247  1.7602 -0.2999  0.6001
  250MOL0     H34465  12.933   4.095   3.067  3.5778  2.3417 -0.6477
  250MOL0     H34466  13.125   4.295   3.138  0.8625  0.2859  0.9537
  250MOL0     H34467  13.119   4.212   3.286  2.8222  1.1217 -0.8284
  250MOL0     H34468  13.185   4.078   3.025 -0.6942 -4.4721 -0.2068
  250MOL0     H34469  13.160   3.984   3.178  0.4774 -0.2013 -0.0207
  250MOL0     H34470  13.344   4.137   3.279 -1.4439 -0.6556 -0.0559
  250MOL0     H34471  13.369   4.194   3.113  0.7906 -0.2779 -1.7251
  250MOL0     H34472  13.360   3.891   3.181  1.7761 -2.0144 -0.5661
  250MOL0     H34473  13.439   3.960   3.038 -1.8307  0.1592  0.7086
  250MOL0     H34474  13.544   3.991   3.326  1.3388  1.2892 -0.2805
  250MOL0     H34475  13.575   4.108   3.206 -0.9491  0.5421  1.5881
  250MOL0     H34476  13.760   3.926   3.196  0.5748 -0.7315 -0.8338
  250MOL0     H34477  13.667   3.915   3.056  0.2505 -3.5207 -0.1794
  250MOL0     H34478  13.696   3.685   3.177  0.1264  0.2974 -1.7397
  250MOL0     H34479  13.521   3.724   3.166  0.2344  1.0000 -0.6606
  250MOL0     H34480  12.793   4.271   3.356  1.0812  2.0812  0.1041
  250MOL0     H34481  12.561   4.327   3.418 -0.4541  0.6619  0.0301
  250MOL0     H34482  12.168   4.522   3.563 -0.7559  0.7346  0.2577
  250MOL0     H34483  11.925   4.560   3.580 -3.1122 -0.0491 -2.8001
  250MOL0     H34484  10.422   5.448   3.305 -1.4027  0.6099  2.6500
  250MOL0     H34485  10.324   5.485   3.079 -1.3323 -1.9240 -1.7943
  250MOL0     H34486   9.884   5.342   2.896 -3.2475 -2.4270 -2.2988
  250MOL0     H34487   9.713   5.392   2.726 -0.0249 -2.3506  0.4386
  250MOL0     H34488   9.584   5.355   2.543 -0.2321 -0.8068  0.0195
  250MOL0     H34489   9.587   5.531   2.553 -0.2179  2.5093 -2.1435
  250MOL0     H34490   9.458   5.382   2.364  0.4668 -0.4437  0.0009
  250MOL0     H34491   9.595   5.387   2.272 -1.5102  1.8220 -2.4177
  250MOL0     H34492   9.496   5.655   2.391  3.4053  0.3498  0.3186
  250MOL0     H34493   9.586   5.636   2.243 -0.4131 -0.5816 -1.7111
  250MOL0     H34494   9.313   5.536   2.288  1.5377  0.3745  2.1130
  250MOL0     H34495   9.382   5.520   2.134  0.0288  1.3564  0.0307
  250MOL0     H34496   9.328   5.945   2.166 -2.5999  0.7385 -0.1748
  250MOL0     H34497  10.014   5.488   2.440 -1.1467  2.3287 -0.2621
  250MOL0     H34498  10.224   5.500   2.494 -0.7270  0.9522 -0.0888
  250MOL0     H34499  10.254   5.564   2.654 -2.0327  0.5421  2.9376
  250MOL0     H34500  10.277   5.379   2.618 -0.0654  0.3338 -2.0035
  251MOL0     O34501   5.771  11.447   0.273  0.3214  0.4908 -0.4040
  251MOL0     C34502   5.814  11.351   0.202  0.7341 -0.6282 -0.0352
  251MOL0     O34503   5.754  11.236   0.177  0.1941  0.1179  0.5522
  251MOL0     C34504   5.645  11.197   0.249  0.2976  0.5575 -0.1061
  251MOL0     C34505   5.649  11.195   0.387  0.2641  1.1649  0.0172
  251MOL0     C34506   5.546  11.144   0.467  0.3059 -0.0297  0.1848
  251MOL0     C34507   5.430  11.095   0.405  0.1599  0.0553 -0.1647
  251MOL0     O34508   5.329  11.031   0.472  0.3069  0.1693  0.1895
  251MOL0     C34509   5.254  10.924   0.409  0.2074 -0.4048  0.6221
  251MOL0     C34510   5.110  10.946   0.363 -0.1561 -0.0180  0.6515
  251MOL0     C34511   5.019  10.952   0.485  0.0045 -0.7237 -0.0686
  251MOL0     C34512   4.968  10.813   0.518 -0.0224  0.5322  0.7765
  251MOL0     C34513   4.902  10.818   0.649  0.1368 -0.6611 -0.0601
  251MOL0     C34514   4.867  10.677   0.713  0.7685 -0.3496  0.4979
  251MOL0     C34515   4.788  10.584   0.617 -0.3137 -0.5139 -0.0699
  251MOL0     C34516   4.751  10.464   0.712  0.1313  0.0824 -0.0089
  251MOL0     N34517   4.674  10.355   0.660  0.1087  0.1654  0.3926
  251MOL0     C34518   4.587  10.370   0.551 -0.1708 -0.3376 -0.4067
  251MOL0     C34519   4.555  10.244   0.520 -0.3423  0.7457 -0.9087
  251MOL0     C34520   4.450  10.193   0.419 -0.0116  0.3041 -0.6867
  251MOL0     C34521   4.308  10.235   0.454 -0.2372 -0.2904 -0.3162
  251MOL0     C34522   4.269  10.202   0.603 -0.3057  0.7559 -0.4649
  251MOL0     C34523   4.289  10.060   0.642 -0.6798 -1.0653  0.5777
  251MOL0     O34524   4.238   9.973   0.550  0.6384  0.2326  0.2025
  251MOL0     C34525   4.104   9.943   0.551  0.9427 -0.2254 -0.2987
  251MOL0     C34526   4.008   9.994   0.629  0.3420  0.5944 -0.1991
  251MOL0     C34527   3.871   9.968   0.620  0.6661  0.4913 -0.3827
  251MOL0     C34528   3.785  10.039   0.715  0.1474  0.2082  0.2097
  251MOL0     C34529   3.824   9.906   0.507 -0.0524 -0.9862 -0.1852
  251MOL0     C34530   3.680   9.877   0.476  0.1949 -0.4274  0.5919
  251MOL0     O34531   3.588   9.978   0.502  0.0747 -0.5961 -0.3589
  251MOL0     C34532   3.460   9.947   0.475 -0.8050  0.0625  0.4338
  251MOL0     C34533   3.399   9.850   0.549  0.1070 -0.1622  0.4091
  251MOL0     C34534   3.269   9.811   0.524  0.1568 -0.1908 -0.0529
  251MOL0     C34535   3.190   9.874   0.421  0.3823  0.6217  0.5103
  251MOL0     O34536   3.056   9.856   0.399 -0.2343 -0.4397 -0.0769
  251MOL0     C34537   2.987   9.753   0.471  0.1595  0.0982  0.4741
  251MOL0     C34538   2.842   9.757   0.415 -1.2742 -0.5238 -0.0985
  251MOL0     C34539   2.751   9.663   0.495  0.9095 -0.9025 -0.0389
  251MOL0     C34540   2.591   9.697   0.490 -0.4043 -0.1748  0.6642
  251MOL0     C34541   2.505   9.598   0.564 -0.4120 -0.7256 -0.5891
  251MOL0     C34542   2.367   9.626   0.537 -0.8958 -0.8704 -0.1261
  251MOL0     C34543   2.327   9.735   0.652  0.9357  0.7384  0.6589
  251MOL0     C34544   2.172   9.769   0.635 -0.6042  0.2816 -0.0455
  251MOL0    Cl34545   2.060   9.623   0.622  0.0376 -0.2929 -0.1709
  251MOL0     C34546   3.249   9.986   0.353  0.3658 -0.2017 -0.6786
  251MOL0     C34547   3.381  10.020   0.389  0.1540  0.2525 -0.3637
  251MOL0     O34548   3.652   9.774   0.416 -0.6000  0.3702  0.1308
  251MOL0     C34549   3.918   9.844   0.424 -0.3679  0.2065  0.4575
  251MOL0     C34550   4.063   9.859   0.447  0.2924 -0.0032 -0.3015
  251MOL0     N34551   4.624  10.153   0.603  0.3481  0.0254 -0.3701
  251MOL0     N34552   4.693  10.226   0.688  0.3828  0.5080 -0.4247
  251MOL0     C34553   5.416  11.113   0.265  0.5364 -0.4168 -0.6632
  251MOL0     C34554   5.521  11.170   0.189 -0.2704  0.2207 -0.8225
  251MOL0     C34555   5.952  11.373   0.144 -0.1289 -0.4050 -0.5822
  251MOL0     C34556   5.998  11.288   0.046  0.2986 -0.4435  0.7065
  251MOL0     C34557   6.125  11.307  -0.002 -0.2278  0.5547  0.4197
  251MOL0     C34558   6.206  11.416   0.037  0.2411  0.9629 -0.5596
  251MOL0     O34559   6.341  11.429   0.001  0.3794  0.3970 -0.0068
  251MOL0     C34560   6.388  11.360  -0.115  1.1070  1.0445 -0.3100
  251MOL0     C34561   6.460  11.231  -0.084  0.4281 -0.1727  0.2285
  251MOL0     C34562   6.603  11.272  -0.028  0.7008  0.1341  1.0688
  251MOL0     C34563   6.689  11.287  -0.156 -0.1782  0.5103 -0.3802
  251MOL0     C34564   6.821  11.343  -0.136 -0.9239  0.1928 -0.2660
  251MOL0     C34565   6.934  11.373  -0.121 -0.6211 -0.2533  0.2097
  251MOL0     C34566   6.168  11.493   0.137  0.0054  0.5646 -0.6413
  251MOL0     C34567   6.040  11.477   0.187  0.1148  0.1351  0.0152
  251MOL0     C34568   6.007  11.573   0.307 -0.6342 -0.4433  0.4525
  251MOL0     H34569   5.731  11.244   0.437 -0.7210  1.2310  1.6369
  251MOL0     H34570   5.554  11.128   0.574  2.1045  0.4137  0.1355
  251MOL0     H34571   5.250  10.836   0.474 -1.9131 -2.9718 -2.6570
  251MOL0     H34572   5.318  10.882   0.332 -1.4682 -0.8736 -0.5547
  251MOL0     H34573   5.099  11.047   0.323 -1.2263  0.5802  2.3798
  251MOL0     H34574   5.081  10.873   0.287  1.0842  0.8014 -0.6546
  251MOL0     H34575   5.067  10.991   0.575  0.5810 -1.6475  0.0375
  251MOL0     H34576   4.932  11.015   0.466  2.6177  2.7005 -1.6714
  251MOL0     H34577   4.904  10.772   0.441  0.5321 -2.0385  1.5999
  251MOL0     H34578   5.050  10.740   0.518 -1.9023 -1.6642  1.2845
  251MOL0     H34579   4.814  10.881   0.636 -0.2561 -0.8487  1.4576
  251MOL0     H34580   4.972  10.866   0.718  0.8209 -3.0401  1.0264
  251MOL0     H34581   4.956  10.620   0.738 -1.5147 -2.5525  4.7071
  251MOL0     H34582   4.816  10.696   0.808 -0.9315  2.9345 -0.8778
  251MOL0     H34583   4.855  10.553   0.537 -0.5296 -1.4685  0.1101
  251MOL0     H34584   4.696  10.636   0.587 -0.8191 -2.2254 -1.6601
  251MOL0     H34585   4.844  10.437   0.763  0.0269  1.0773  0.7276
  251MOL0     H34586   4.685  10.507   0.788 -0.7722 -0.0608 -0.6882
  251MOL0     H34587   4.542  10.459   0.507  0.8059 -0.6852 -2.2159
  251MOL0     H34588   4.461  10.084   0.423  0.3812  0.2737  4.5313
  251MOL0     H34589   4.465  10.233   0.318 -0.5772  2.3557 -0.0039
  251MOL0     H34590   4.291  10.343   0.449 -4.0560 -0.6751  0.8762
  251MOL0     H34591   4.248  10.183   0.379  1.3021 -3.3381  0.4270
  251MOL0     H34592   4.323  10.269   0.670 -0.4859  0.5654 -0.1246
  251MOL0     H34593   4.165  10.235   0.617  0.2821  3.2706 -1.4172
  251MOL0     H34594   4.397  10.046   0.652 -0.7342 -1.4392  0.6433
  251MOL0     H34595   4.255  10.041   0.744 -2.3325  0.6598  0.4026
  251MOL0     H34596   4.039  10.065   0.705  3.2970 -1.4565  0.6887
  251MOL0     H34597   3.827  10.045   0.816  2.3547  1.5378 -0.7150
  251MOL0     H34598   3.688   9.990   0.724  0.0806  0.3616  0.3259
  251MOL0     H34599   3.766  10.139   0.675  0.5517  0.5054  0.7529
  251MOL0     H34600   3.459   9.808   0.629  1.1861  2.6041  1.1504
  251MOL0     H34601   3.223   9.736   0.587 -1.9099  1.1598  0.1718
  251MOL0     H34602   3.016   9.652   0.443  0.6509  0.9086 -2.2488
  251MOL0     H34603   2.982   9.766   0.579 -1.7450 -2.3095  0.7540
  251MOL0     H34604   2.810   9.860   0.430  1.1078  0.2370  0.2347
  251MOL0     H34605   2.845   9.735   0.308  0.4494  0.0410 -0.1958
  251MOL0     H34606   2.788   9.654   0.597  2.6563 -0.1228 -0.5732
  251MOL0     H34607   2.760   9.562   0.455 -2.0415 -1.3240  0.1392
  251MOL0     H34608   2.569   9.707   0.383  1.5729 -0.9056  0.1364
  251MOL0     H34609   2.566   9.797   0.528 -0.7227 -0.2934  0.7669
  251MOL0     H34610   2.521   9.499   0.521  0.1499  0.4722 -3.3379
  251MOL0     H34611   2.522   9.600   0.672 -1.9664 -3.8312 -0.1817
  251MOL0     H34612   2.305   9.535   0.532 -1.6125 -0.3959  0.0670
  251MOL0     H34613   2.350   9.666   0.437  1.1059 -3.8732 -1.8527
  251MOL0     H34614   2.382   9.829   0.651  0.5472  0.9759  0.9563
  251MOL0     H34615   2.333   9.687   0.750 -1.9987  1.0910  1.1090
  251MOL0     H34616   2.175   9.823   0.540  2.4971  0.9404  0.3008
  251MOL0     H34617   2.148   9.839   0.715  2.4493  0.4469  0.8661
  251MOL0     H34618   3.190  10.029   0.273 -0.3593  2.3275  1.0804
  251MOL0     H34619   3.417  10.110   0.341 -1.3684 -0.2719 -2.7020
  251MOL0     H34620   3.886   9.765   0.357  3.3576 -1.2933  0.2265
  251MOL0     H34621   4.135   9.820   0.376 -0.5920  1.9302 -2.3739
  251MOL0     H34622   5.328  11.084   0.209 -0.6188  3.9854 -1.5369
  251MOL0     H34623   5.499  11.195   0.086 -4.4224 -0.0039 -0.1412
  251MOL0     H34624   5.931  11.214   0.003 -1.1051  1.8269 -1.2399
  251MOL0     H34625   6.164  11.227  -0.064 -4.4335 -3.3572  2.2228
  251MOL0     H34626   6.308  11.340  -0.187  0.6696 -1.8451  0.8744
  251MOL0     H34627   6.457  11.421  -0.175  0.4524  0.1926 -2.0111
  251MOL0     H34628   6.462  11.164  -0.171 -0.2679 -1.0735  0.8871
  251MOL0     H34629   6.403  11.183  -0.004  1.2204 -0.4295  0.6560
  251MOL0     H34630   6.600  11.367   0.026 -1.5332  0.4307  0.4928
  251MOL0     H34631   6.640  11.187   0.031  1.4945  0.0698  0.4968
  251MOL0     H34632   6.648  11.349  -0.235  1.5439  0.9136 -0.9918
  251MOL0     H34633   6.694  11.188  -0.201 -0.6182 -0.1888  1.0303
  251MOL0     H34634   7.032  11.408  -0.097 -1.4770  0.8465  2.3879
  251MOL0     H34635   6.229  11.565   0.190 -2.0812  1.3190  0.8610
  251MOL0     H34636   6.079  11.656   0.303  0.9197 -1.6555  1.6559
  251MOL0     H34637   5.912  11.623   0.289 -1.3319 -1.3742  1.4278
  251MOL0     H34638   6.014  11.520   0.402  1.3060 -0.8009  0.1519
  252MOL0     O34639   5.980   2.662   5.141  0.8291 -0.3753  0.8439
  252MOL0     C34640   6.059   2.658   5.231 -0.3479  0.1236 -0.6603
  252MOL0     O34641   6.077   2.554   5.316 -0.6173  0.9102 -0.3756
  252MOL0     C34642   5.985   2.449   5.316 -0.0566  0.3656  0.0340
  252MOL0     C34643   6.036   2.330   5.263  0.3519  0.4413 -0.8347
  252MOL0     C34644   5.948   2.215   5.250  0.0814 -0.3362 -0.3519
  252MOL0     C34645   5.812   2.230   5.287  0.3105  0.6319 -0.3286
  252MOL0     O34646   5.716   2.126   5.262 -0.0582 -0.1025  0.4167
  252MOL0     C34647   5.644   2.068   5.376 -0.2741  0.2673  0.2433
  252MOL0     C34648   5.539   1.977   5.323  0.3751  0.0604  0.2492
  252MOL0     C34649   5.486   1.873   5.423 -1.2780  0.4491 -1.0152
  252MOL0     C34650   5.376   1.780   5.358 -0.2838 -0.0556  0.7091
  252MOL0     C34651   5.324   1.677   5.464 -0.4989 -1.4007  0.5168
  252MOL0     C34652   5.207   1.595   5.425 -0.4328  0.3791 -0.6228
  252MOL0     C34653   5.184   1.483   5.528 -0.0154 -0.4345  0.4917
  252MOL0     C34654   5.095   1.378   5.468  0.0092  0.8910 -0.0553
  252MOL0     N34655   5.168   1.271   5.386 -0.2082  0.9154 -0.0138
  252MOL0     C34656   5.234   1.165   5.441  0.1619  0.9163  0.0155
  252MOL0     C34657   5.293   1.101   5.340  0.0170  0.1703  0.6157
  252MOL0     C34658   5.379   0.978   5.329  0.0525 -0.1075 -0.0724
  252MOL0     C34659   5.516   1.016   5.266  0.7019  0.2506  0.1735
  252MOL0     C34660   5.594   0.890   5.250 -0.4440 -0.0494  0.6722
  252MOL0     C34661   5.731   0.935   5.208 -0.0932  0.4592  0.4738
  252MOL0     O34662   5.818   0.821   5.192 -0.5397 -0.7389  0.1964
  252MOL0     C34663   5.935   0.836   5.124 -0.3058 -0.0479  0.2938
  252MOL0     C34664   5.976   0.727   5.042  0.0619 -0.8159 -0.4048
  252MOL0     C34665   6.095   0.724   4.969 -1.0437 -0.1419  0.1327
  252MOL0     C34666   6.111   0.607   4.876 -0.5470 -0.1775 -0.2833
  252MOL0     C34667   6.185   0.836   4.980  0.6463  0.6021 -0.1340
  252MOL0     C34668   6.298   0.856   4.890 -0.2302  0.0795 -0.1960
  252MOL0     O34669   6.358   0.978   4.913 -0.2202  0.0199  0.2863
  252MOL0     C34670   6.483   0.992   4.864  0.9854  0.6445 -0.8174
  252MOL0     C34671   6.496   1.043   4.734  0.3351 -0.3910  0.6535
  252MOL0     C34672   6.620   1.083   4.687  0.0180  0.6485  0.1954
  252MOL0     C34673   6.731   1.069   4.767  0.0934 -0.7471  0.2325
  252MOL0     O34674   6.861   1.098   4.742  0.6390 -0.1638 -0.1701
  252MOL0     C34675   6.894   1.191   4.635  0.2405 -0.3263  1.0402
  252MOL0     C34676   7.042   1.178   4.613 -0.3050 -0.2553  0.1291
  252MOL0     C34677   7.098   1.253   4.490  0.4821  0.1081 -0.4698
  252MOL0     C34678   7.246   1.277   4.506  0.2889 -0.2005 -0.9432
  252MOL0     C34679   7.295   1.347   4.370 -0.0754 -0.7499 -0.2155
  252MOL0     C34680   7.445   1.311   4.344 -0.2181 -0.6102  0.4675
  252MOL0     C34681   7.533   1.371   4.474 -0.5108  0.8053  0.0120
  252MOL0     C34682   7.683   1.319   4.446  0.4750  0.7067  0.5328
  252MOL0    Cl34683   7.780   1.339   4.589  0.2571  0.3239 -0.5038
  252MOL0     C34684   6.720   1.030   4.896 -0.3653  0.5377 -0.4534
  252MOL0     C34685   6.595   0.987   4.948  0.6511  0.2986  0.5779
  252MOL0     O34686   6.346   0.758   4.830 -0.6421 -0.6333 -0.8643
  252MOL0     C34687   6.153   0.933   5.072  0.4598 -0.2553 -0.6360
  252MOL0     C34688   6.027   0.937   5.144  0.3509  0.4217  1.4812
  252MOL0     N34689   5.263   1.176   5.223  0.0154  1.0544 -0.2496
  252MOL0     N34690   5.186   1.279   5.251 -0.2712  0.7404 -0.1223
  252MOL0     C34691   5.773   2.347   5.353 -1.0309 -0.7380  1.0308
  252MOL0     C34692   5.861   2.458   5.375 -0.2536  0.1954  0.1149
  252MOL0     C34693   6.153   2.767   5.264 -0.4219 -0.7975 -0.1896
  252MOL0     C34694   6.167   2.796   5.398 -0.1387  0.5597  0.0227
  252MOL0     C34695   6.272   2.874   5.445 -0.0799 -0.6050 -0.2402
  252MOL0     C34696   6.356   2.935   5.353  0.7218  0.2114  0.2900
  252MOL0     O34697   6.455   3.024   5.380  0.5379 -0.6704  0.1088
  252MOL0     C34698   6.458   3.115   5.488 -0.4702 -0.1959 -0.1244
  252MOL0     C34699   6.368   3.238   5.478  0.1830  0.3246 -0.0811
  252MOL0     C34700   6.366   3.329   5.359  1.1560 -0.4339 -0.4833
  252MOL0     C34701   6.495   3.410   5.340 -0.5153  0.7631  0.0943
  252MOL0     C34702   6.498   3.463   5.207  0.7968 -0.1725 -1.1663
  252MOL0     C34703   6.510   3.502   5.100  0.9206 -0.1385  0.5868
  252MOL0     C34704   6.337   2.897   5.218 -0.3974 -0.4838 -0.1990
  252MOL0     C34705   6.237   2.816   5.169 -0.6956 -0.1079  0.0386
  252MOL0     C34706   6.241   2.777   5.026 -0.4849 -0.5869 -0.2644
  252MOL0     H34707   6.139   2.320   5.229  1.3418  1.2629  1.7328
  252MOL0     H34708   5.995   2.134   5.197  3.0080  0.9823 -0.0006
  252MOL0     H34709   5.595   2.132   5.450  1.4413 -0.2122  1.8603
  252MOL0     H34710   5.725   2.009   5.419  0.2209  0.1875 -0.7696
  252MOL0     H34711   5.453   2.038   5.294 -0.1110 -1.4447 -1.6968
  252MOL0     H34712   5.567   1.929   5.229  0.1457  2.7781 -1.2912
  252MOL0     H34713   5.563   1.800   5.451 -1.1348  1.4354  1.5018
  252MOL0     H34714   5.441   1.919   5.512 -2.7268 -0.4537 -1.2566
  252MOL0     H34715   5.286   1.832   5.325 -0.9082 -0.8231  1.1712
  252MOL0     H34716   5.422   1.728   5.274  0.0720 -2.9307  2.5361
  252MOL0     H34717   5.295   1.738   5.550  1.1972 -1.2089  0.9991
  252MOL0     H34718   5.411   1.621   5.500  0.9846  0.1125 -0.5404
  252MOL0     H34719   5.116   1.654   5.433 -2.6947 -2.7392 -1.1587
  252MOL0     H34720   5.218   1.561   5.321  2.2551  1.2698 -0.6959
  252MOL0     H34721   5.126   1.539   5.602  0.1932 -0.4029  0.6298
  252MOL0     H34722   5.276   1.442   5.571 -1.0112  0.7578  4.0894
  252MOL0     H34723   5.031   1.329   5.541  0.5269 -0.7252 -0.6444
  252MOL0     H34724   5.017   1.423   5.406 -2.5946  0.2259  2.5274
  252MOL0     H34725   5.241   1.142   5.546  1.9853  1.9147  0.1567
  252MOL0     H34726   5.334   0.909   5.257  0.5925  0.6024 -1.1185
  252MOL0     H34727   5.403   0.939   5.428  0.6819  1.3477  0.3747
  252MOL0     H34728   5.506   1.064   5.168 -1.0214 -2.5971 -1.1985
  252MOL0     H34729   5.570   1.074   5.341  1.2158  0.5664 -0.4425
  252MOL0     H34730   5.588   0.825   5.338 -2.5789  0.2941  0.8361
  252MOL0     H34731   5.566   0.830   5.164 -0.7832  1.5687 -0.4024
  252MOL0     H34732   5.723   0.977   5.108  1.6399 -0.1232  0.0397
  252MOL0     H34733   5.775   1.016   5.267  1.3368  0.6987 -0.8426
  252MOL0     H34734   5.912   0.640   5.031  1.3375 -1.6316 -1.7478
  252MOL0     H34735   6.203   0.553   4.901 -1.0590 -0.7583  0.3766
  252MOL0     H34736   6.101   0.642   4.773 -1.6656  4.1629  1.0930
  252MOL0     H34737   6.032   0.533   4.890 -1.4134  0.5341 -1.2594
  252MOL0     H34738   6.410   1.041   4.669  0.0963 -3.0590  0.9351
  252MOL0     H34739   6.625   1.124   4.587 -0.8313 -0.7579 -0.4548
  252MOL0     H34740   6.854   1.162   4.538 -0.6157  0.2217  1.2155
  252MOL0     H34741   6.878   1.297   4.655 -0.3202  0.0485 -1.1473
  252MOL0     H34742   7.094   1.212   4.704  3.7826  4.2923 -3.3492
  252MOL0     H34743   7.047   1.070   4.599  1.3257  0.1398 -3.2123
  252MOL0     H34744   7.059   1.353   4.470  2.1547  0.8290 -0.2626
  252MOL0     H34745   7.082   1.186   4.404  5.4938 -0.7486 -1.0464
  252MOL0     H34746   7.297   1.185   4.535  0.3103  0.0362 -0.2157
  252MOL0     H34747   7.266   1.346   4.589  2.1353  0.2731 -1.7347
  252MOL0     H34748   7.231   1.309   4.291 -4.3136 -1.5325  3.1984
  252MOL0     H34749   7.287   1.456   4.373  2.3503 -0.4512 -1.7337
  252MOL0     H34750   7.479   1.351   4.248 -1.9595 -0.1087  0.0328
  252MOL0     H34751   7.452   1.202   4.337  0.9778 -0.4459 -1.6820
  252MOL0     H34752   7.497   1.325   4.566  0.7846 -0.1994  0.0564
  252MOL0     H34753   7.529   1.480   4.468 -0.3414  0.7446 -2.6227
  252MOL0     H34754   7.718   1.381   4.363  0.0423 -1.3279 -1.2616
  252MOL0     H34755   7.689   1.215   4.410 -0.5773  1.0585 -0.7849
  252MOL0     H34756   6.813   1.010   4.950 -0.4083  3.3528  0.8052
  252MOL0     H34757   6.580   0.959   5.052  2.4204 -0.0818  0.7734
  252MOL0     H34758   6.232   1.006   5.083  0.3874  0.4805 -3.9002
  252MOL0     H34759   6.003   1.015   5.215 -0.4355  1.1593  0.4318
  252MOL0     H34760   5.668   2.363   5.376 -0.6864  0.0846  2.1480
  252MOL0     H34761   5.834   2.553   5.421 -3.0011 -1.9466  3.3642
  252MOL0     H34762   6.107   2.756   5.479  1.7672 -1.0805  0.6794
  252MOL0     H34763   6.289   2.886   5.552  1.4037 -2.4870 -0.2047
  252MOL0     H34764   6.451   3.068   5.586  2.1747 -0.4574  0.0165
  252MOL0     H34765   6.563   3.146   5.484  0.0394 -1.8626 -0.8537
  252MOL0     H34766   6.391   3.290   5.572  0.2738 -0.9804  0.6515
  252MOL0     H34767   6.269   3.193   5.490  0.3510  0.2796  1.3190
  252MOL0     H34768   6.344   3.260   5.277 -1.9662 -1.4870  1.1118
  252MOL0     H34769   6.290   3.403   5.386  0.1885 -1.6101  0.0473
  252MOL0     H34770   6.586   3.353   5.360 -1.4541 -0.4889  0.9268
  252MOL0     H34771   6.500   3.494   5.410 -0.8082 -1.9192  3.5725
  252MOL0     H34772   6.495   3.537   5.000 -0.7827 -2.0139  0.1160
  252MOL0     H34773   6.399   2.949   5.145  1.5505  0.2851  1.8989
  252MOL0     H34774   6.168   2.822   4.959 -2.4574 -2.4247  0.5110
  252MOL0     H34775   6.341   2.791   4.984 -0.6767  0.1437 -0.4864
  252MOL0     H34776   6.218   2.670   5.020  1.1079 -1.1358  1.9424
  253MOL0     O34777   7.347   5.578   5.208  0.5906 -0.0350 -0.8334
  253MOL0     C34778   7.267   5.494   5.247 -0.5247  0.1718  0.1043
  253MOL0     O34779   7.246   5.467   5.379  0.2018 -0.3109  0.0461
  253MOL0     C34780   7.324   5.524   5.472 -0.4488 -1.0837 -0.6615
  253MOL0     C34781   7.272   5.555   5.601 -0.3207  0.3345  0.0704
  253MOL0     C34782   7.352   5.596   5.708 -0.4556  0.0502  1.2258
  253MOL0     C34783   7.486   5.616   5.687  0.3101 -0.3683 -0.5286
  253MOL0     O34784   7.572   5.671   5.777  0.6602 -0.0384 -0.3876
  253MOL0     C34785   7.535   5.688   5.923 -0.0320 -0.4941  0.2039
  253MOL0     C34786   7.655   5.747   5.996  0.6382 -0.3119 -1.0699
  253MOL0     C34787   7.769   5.642   6.006 -0.1349  0.4752 -0.8712
  253MOL0     C34788   7.894   5.684   6.085 -0.1747  0.0734 -0.6511
  253MOL0     C34789   7.991   5.563   6.103  0.3360 -0.6343 -0.0669
  253MOL0     C34790   7.955   5.452   6.200  0.2620  0.5668 -0.5479
  253MOL0     C34791   8.082   5.367   6.231  0.3494  0.2530 -1.1288
  253MOL0     C34792   8.047   5.256   6.335 -0.0676 -0.3361 -0.1830
  253MOL0     N34793   8.159   5.206   6.405 -0.3615 -0.5386  0.4397
  253MOL0     C34794   8.252   5.278   6.475  1.3465  0.1259  0.1280
  253MOL0     C34795   8.363   5.207   6.485 -0.5408  0.2628  0.6180
  253MOL0     C34796   8.493   5.253   6.537  0.5324  0.3014  0.3576
  253MOL0     C34797   8.579   5.140   6.600 -0.2386  0.3580  0.5804
  253MOL0     C34798   8.730   5.190   6.620 -0.3943 -0.1334 -0.2229
  253MOL0     C34799   8.831   5.099   6.682 -0.3525  0.3659  0.6523
  253MOL0     O34800   8.961   5.128   6.634 -0.4008  1.0318  0.0188
  253MOL0     C34801   9.064   5.045   6.670 -0.6432 -0.8209 -0.1904
  253MOL0     C34802   9.037   4.924   6.733 -0.2871 -0.0984  0.5239
  253MOL0     C34803   9.138   4.850   6.793  0.6282  0.8911  0.2301
  253MOL0     C34804   9.094   4.729   6.877 -0.4237  0.1149 -0.0264
  253MOL0     C34805   9.271   4.887   6.779  0.5933  0.1332  0.9839
  253MOL0     C34806   9.388   4.822   6.829  0.0518 -0.1420  0.5195
  253MOL0     O34807   9.507   4.871   6.777 -0.3910  0.7603 -0.3993
  253MOL0     C34808   9.620   4.849   6.839  0.3734 -0.1352 -0.6520
  253MOL0     C34809   9.647   4.895   6.971  0.4212 -0.5001  0.1359
  253MOL0     C34810   9.774   4.873   7.028  0.1392 -0.8899 -0.3024
  253MOL0     C34811   9.878   4.800   6.957  0.3452 -0.3640  0.1286
  253MOL0     O34812  10.009   4.775   6.997  0.0748 -0.4116 -0.2468
  253MOL0     C34813  10.081   4.877   7.062  0.3676 -0.0981 -0.1963
  253MOL0     C34814  10.221   4.856   7.016 -0.0644 -0.2643  0.1346
  253MOL0     C34815  10.310   4.970   7.067 -0.2710  0.8235 -0.0453
  253MOL0     C34816  10.366   4.939   7.207  0.0157  0.0973  0.1740
  253MOL0     C34817  10.492   5.015   7.259 -0.4148  0.3334 -0.2328
  253MOL0     C34818  10.456   5.160   7.289 -0.2624  0.5597 -0.3797
  253MOL0     C34819  10.574   5.233   7.349 -0.1410 -0.2951  0.1986
  253MOL0     C34820  10.525   5.360   7.414  0.3650 -0.3664 -0.3716
  253MOL0    Cl34821  10.452   5.461   7.286 -0.3545 -0.2847  0.4424
  253MOL0     C34822   9.846   4.761   6.824  0.5383 -0.0538  0.2068
  253MOL0     C34823   9.712   4.773   6.775  0.0202  0.3457 -0.2746
  253MOL0     O34824   9.384   4.743   6.923  0.6680 -0.0530  0.3728
  253MOL0     C34825   9.303   4.997   6.688  0.5725  0.1141  0.0867
  253MOL0     C34826   9.200   5.079   6.650  0.2083 -0.2110 -0.4513
  253MOL0     N34827   8.321   5.071   6.444 -0.7094  0.1369 -0.3278
  253MOL0     N34828   8.212   5.083   6.376 -0.5915  1.1850 -0.7424
  253MOL0     C34829   7.540   5.575   5.562  0.2491 -0.0259  0.1024
  253MOL0     C34830   7.465   5.513   5.458  0.0273 -0.2369 -0.4755
  253MOL0     C34831   7.165   5.425   5.156 -0.0577 -0.4278  1.0254
  253MOL0     C34832   7.055   5.356   5.206  0.9790 -0.0786 -0.0040
  253MOL0     C34833   6.961   5.292   5.121 -0.3448 -0.6041  0.0603
  253MOL0     C34834   6.974   5.297   4.980  0.1491 -0.5174 -0.8400
  253MOL0     O34835   6.883   5.228   4.911 -0.5086 -0.1257  0.3110
  253MOL0     C34836   6.931   5.165   4.790 -0.2303 -0.1653  1.2483
  253MOL0     C34837   7.045   5.067   4.807 -0.5589  0.5745 -0.4872
  253MOL0     C34838   7.039   4.969   4.925  0.3354 -0.7343  0.0467
  253MOL0     C34839   6.913   4.893   4.921  0.0100  0.5458 -0.7283
  253MOL0     C34840   6.913   4.782   5.012 -1.0615  0.3873  0.3709
  253MOL0     C34841   6.927   4.681   5.085  0.1815  0.5373 -0.4145
  253MOL0     C34842   7.086   5.368   4.925  0.7646  1.1353 -0.7014
  253MOL0     C34843   7.182   5.429   5.011 -0.1092  0.2094 -0.4186
  253MOL0     C34844   7.310   5.474   4.940 -0.2627 -0.9982 -0.8054
  253MOL0     H34845   7.165   5.549   5.613 -0.2553 -0.2457  0.4011
  253MOL0     H34846   7.301   5.616   5.802  1.3933 -2.1151  2.8154
  253MOL0     H34847   7.495   5.598   5.968  1.9363  0.2456  3.7838
  253MOL0     H34848   7.452   5.760   5.922 -2.2082 -2.8344 -2.4541
  253MOL0     H34849   7.694   5.836   5.945 -2.1712  2.1190  0.6275
  253MOL0     H34850   7.623   5.780   6.096  2.2189 -0.6326 -0.4259
  253MOL0     H34851   7.742   5.552   6.062 -0.8161  0.9684 -0.3816
  253MOL0     H34852   7.798   5.621   5.903  2.0674  0.1281 -0.2366
  253MOL0     H34853   7.937   5.765   6.026 -1.8618  0.4089 -1.4788
  253MOL0     H34854   7.855   5.719   6.181 -4.6976 -3.6764 -0.7305
  253MOL0     H34855   8.087   5.608   6.129 -0.3167  1.3247 -0.9326
  253MOL0     H34856   7.996   5.508   6.009 -1.6079 -1.0827  0.0317
  253MOL0     H34857   7.908   5.494   6.289 -1.4843  1.7526 -1.9584
  253MOL0     H34858   7.882   5.382   6.156  1.7089 -1.0410 -0.5102
  253MOL0     H34859   8.163   5.425   6.277  0.7364 -0.0034 -1.4839
  253MOL0     H34860   8.131   5.316   6.148  1.0891 -0.0955 -0.4896
  253MOL0     H34861   7.974   5.295   6.407 -0.3318 -0.6195 -0.2915
  253MOL0     H34862   7.986   5.176   6.291  0.2053 -0.0649 -1.0684
  253MOL0     H34863   8.236   5.384   6.496 -0.3308 -0.0842  0.0213
  253MOL0     H34864   8.470   5.331   6.611  1.0409  3.4934 -2.5822
  253MOL0     H34865   8.554   5.302   6.461  0.7747 -0.2565  0.1957
  253MOL0     H34866   8.528   5.105   6.691 -0.4112  0.6434  0.5916
  253MOL0     H34867   8.579   5.052   6.535  0.0148  1.2822 -0.6818
  253MOL0     H34868   8.774   5.217   6.524  0.5844 -0.8142  0.0254
  253MOL0     H34869   8.722   5.285   6.673 -1.6218  0.4655 -1.4215
  253MOL0     H34870   8.816   5.092   6.790  3.2716  1.5699  1.3681
  253MOL0     H34871   8.816   4.996   6.647  0.0164  0.6951 -0.5059
  253MOL0     H34872   8.935   4.891   6.752 -0.6440 -2.7995 -4.3444
  253MOL0     H34873   9.152   4.641   6.846  0.8815  1.1323 -0.6022
  253MOL0     H34874   8.987   4.709   6.872 -0.2370 -0.6496 -1.5571
  253MOL0     H34875   9.112   4.742   6.984 -1.5253 -2.1625  0.4935
  253MOL0     H34876   9.580   4.952   7.034  1.0126  1.2425 -0.7571
  253MOL0     H34877   9.799   4.899   7.130  1.6191  1.5143 -1.2086
  253MOL0     H34878  10.051   4.976   7.026  2.4379  1.5633  2.2883
  253MOL0     H34879  10.077   4.877   7.171  0.7317  1.3183 -0.1616
  253MOL0     H34880  10.261   4.755   7.030 -0.3360 -0.2352  1.1988
  253MOL0     H34881  10.221   4.875   6.908  1.8472  3.3941  0.6393
  253MOL0     H34882  10.257   5.066   7.061 -0.9664  0.4617  0.2159
  253MOL0     H34883  10.397   4.979   7.002 -1.0305  2.1374 -0.9135
  253MOL0     H34884  10.394   4.834   7.213 -1.6603 -0.2815  2.4896
  253MOL0     H34885  10.287   4.944   7.282  0.7969  0.0414  1.0223
  253MOL0     H34886  10.517   4.944   7.338 -2.5793 -2.1042 -1.5974
  253MOL0     H34887  10.573   5.020   7.186  0.8676  1.7340  1.2102
  253MOL0     H34888  10.372   5.141   7.357  0.1860 -0.7485 -0.1622
  253MOL0     H34889  10.412   5.208   7.201 -1.9764 -1.9204 -1.0063
  253MOL0     H34890  10.647   5.259   7.271 -0.0094 -2.1648 -0.3538
  253MOL0     H34891  10.631   5.169   7.416 -0.8400 -2.8532 -1.5061
  253MOL0     H34892  10.596   5.423   7.468 -2.7393  1.6848  1.6156
  253MOL0     H34893  10.448   5.330   7.486  1.5512 -1.9789  0.3043
  253MOL0     H34894   9.923   4.722   6.758  1.1076  2.4446 -0.7391
  253MOL0     H34895   9.694   4.736   6.675 -3.2263  1.1591 -0.1155
  253MOL0     H34896   9.396   5.041   6.653 -0.7497  4.0775  1.0392
  253MOL0     H34897   9.228   5.171   6.600  0.9673 -0.5385 -0.6352
  253MOL0     H34898   7.648   5.571   5.559  0.2631  0.6635 -0.8843
  253MOL0     H34899   7.519   5.462   5.378 -0.1817 -1.1331 -0.0530
  253MOL0     H34900   7.028   5.364   5.311 -2.4986 -2.9470 -0.5033
  253MOL0     H34901   6.888   5.216   5.147 -0.2466 -0.8619 -0.3953
  253MOL0     H34902   6.847   5.101   4.760 -2.6940  1.2649  4.5347
  253MOL0     H34903   6.955   5.239   4.713  0.1518 -0.9308  0.6032
  253MOL0     H34904   7.129   5.134   4.823 -1.8317  1.7810  1.6031
  253MOL0     H34905   7.072   5.011   4.717 -0.8876  1.7982 -1.3718
  253MOL0     H34906   7.116   4.893   4.933  3.2331  2.0601  1.0160
  253MOL0     H34907   7.039   5.022   5.021  1.0104  1.2919 -0.9923
  253MOL0     H34908   6.897   4.833   4.831  2.0233 -1.4821  0.1671
  253MOL0     H34909   6.821   4.945   4.948 -1.2295 -0.6285 -2.4816
  253MOL0     H34910   6.931   4.593   5.145  0.1588  0.8423  0.0414
  253MOL0     H34911   7.099   5.366   4.817  2.1051  0.3145 -0.5432
  253MOL0     H34912   7.358   5.391   4.888  2.5601 -1.4552  2.1975
  253MOL0     H34913   7.279   5.551   4.869 -2.1941  1.0573  2.0143
  253MOL0     H34914   7.393   5.522   4.993  1.8759 -4.4249 -0.7097
  254MOL0     O34915   5.925   6.636  10.656  0.1449 -0.1252  0.3861
  254MOL0     C34916   5.915   6.760  10.638 -0.4568  0.8818 -0.6905
  254MOL0     O34917   6.020   6.849  10.644  0.5482 -0.6930 -0.2229
  254MOL0     C34918   6.149   6.809  10.664  0.0215 -0.2039 -0.5663
  254MOL0     C34919   6.253   6.872  10.580  0.9427  0.1027  0.2640
  254MOL0     C34920   6.392   6.862  10.612  0.3897  0.2179 -0.5295
  254MOL0     C34921   6.421   6.783  10.733 -0.2131  0.2907  0.5176
  254MOL0     O34922   6.549   6.744  10.773  0.3000  0.3406  0.0711
  254MOL0     C34923   6.632   6.848  10.828  0.3079  0.4460  0.3500
  254MOL0     C34924   6.762   6.800  10.882  0.2953 -0.3372 -0.8944
  254MOL0     C34925   6.873   6.749  10.786 -0.0004  0.6442  0.5588
  254MOL0     C34926   6.936   6.860  10.702  0.0552 -0.5548 -0.5084
  254MOL0     C34927   7.039   6.808  10.610  0.2633  0.1935  0.4447
  254MOL0     C34928   7.141   6.922  10.588  0.1745 -0.0902  0.3355
  254MOL0     C34929   7.231   6.971  10.713  0.7980 -0.5011 -0.0459
  254MOL0     C34930   7.323   6.859  10.776 -0.2404  0.2823 -0.6416
  254MOL0     N34931   7.266   6.803  10.901  0.0057  0.6133  0.5510
  254MOL0     C34932   7.244   6.880  11.008  0.0115 -0.2329  1.0720
  254MOL0     C34933   7.202   6.798  11.100  0.3417 -0.1092 -0.8389
  254MOL0     C34934   7.153   6.825  11.239  0.4815  0.0183  0.0479
  254MOL0     C34935   7.272   6.814  11.335 -0.2319  0.4135  0.9692
  254MOL0     C34936   7.290   6.674  11.389  0.1002  0.2793  0.3240
  254MOL0     C34937   7.409   6.667  11.490  0.3977  0.1773  0.3905
  254MOL0     O34938   7.374   6.762  11.591  0.2501  0.7307  1.2166
  254MOL0     C34939   7.483   6.810  11.657  0.2421 -0.0406 -0.7944
  254MOL0     C34940   7.611   6.754  11.659 -0.3885 -0.2291  0.5429
  254MOL0     C34941   7.719   6.823  11.719  1.0328  0.1353 -0.6379
  254MOL0     C34942   7.857   6.762  11.705  0.5087 -0.7151 -0.3653
  254MOL0     C34943   7.698   6.933  11.803 -0.2300 -0.2772  0.7476
  254MOL0     C34944   7.811   7.004  11.879  0.1738  0.2750 -0.1806
  254MOL0     O34945   7.933   6.963  11.871 -0.1806 -0.7897  0.5465
  254MOL0     C34946   8.023   7.061  11.889 -1.2081 -0.3663  0.1192
  254MOL0     C34947   8.079   7.115  11.771  0.4406 -0.5336  0.0730
  254MOL0     C34948   8.191   7.200  11.785 -0.0507 -0.2684 -0.0586
  254MOL0     C34949   8.255   7.231  11.905 -0.2786 -0.1229 -0.1962
  254MOL0     O34950   8.353   7.328  11.917  0.3443  0.1683 -0.6153
  254MOL0     C34951   8.481   7.277  11.887 -0.0573 -0.9249  0.3085
  254MOL0     C34952   8.549   7.366  11.783 -0.9276  0.4140 -0.3487
  254MOL0     C34953   8.491   7.357  11.642 -0.2676  0.1568  0.8841
  254MOL0     C34954   8.526   7.219  11.570  0.5055  0.6163  0.0091
  254MOL0     C34955   8.491   7.235  11.422 -0.3141 -0.1993  0.6746
  254MOL0     C34956   8.437   7.111  11.359 -0.2850 -0.4259 -0.0880
  254MOL0     C34957   8.303   7.078  11.413  1.2836 -0.3612 -0.7356
  254MOL0     C34958   8.235   6.969  11.337  0.4810  0.6462  0.1260
  254MOL0    Cl34959   8.078   6.947  11.424  0.3995 -0.0446  0.3132
  254MOL0     C34960   8.180   7.199  12.021  0.0949 -0.3568 -0.3710
  254MOL0     C34961   8.074   7.107  12.017 -0.4918  0.5715  0.8829
  254MOL0     O34962   7.774   7.106  11.931  0.2993 -0.4051  0.0770
  254MOL0     C34963   7.567   6.984  11.798 -0.0405  0.2666 -0.2392
  254MOL0     C34964   7.465   6.930  11.733 -0.5032 -0.0125  0.1736
  254MOL0     N34965   7.174   6.675  11.044  0.6551  0.9538  0.5066
  254MOL0     N34966   7.224   6.675  10.927 -0.4125 -0.6330 -0.3463
  254MOL0     C34967   6.316   6.737  10.816  0.0943 -0.0896 -0.9357
  254MOL0     C34968   6.183   6.746  10.784 -0.7048 -0.1932  0.1829
  254MOL0     C34969   5.780   6.822  10.622  0.0015 -0.1026 -0.3218
  254MOL0     C34970   5.778   6.945  10.558 -0.2189  0.0265 -0.5615
  254MOL0     C34971   5.658   7.000  10.524 -0.6067 -0.6161  0.9217
  254MOL0     C34972   5.541   6.946  10.551  0.5387  0.4237  0.1646
  254MOL0     O34973   5.421   7.006  10.516 -0.5167 -0.0823 -0.0298
  254MOL0     C34974   5.399   7.000  10.373 -0.5820  0.1622  0.0511
  254MOL0     C34975   5.248   6.998  10.340 -0.1815 -0.4111  0.4636
  254MOL0     C34976   5.180   6.890  10.432  0.0506  0.3050  0.5655
  254MOL0     C34977   5.220   6.745  10.405  0.7009 -0.1988 -0.1661
  254MOL0     C34978   5.122   6.643  10.456 -0.4974  0.4651 -0.1956
  254MOL0     C34979   5.053   6.552  10.486  0.0439 -0.7094 -0.7622
  254MOL0     C34980   5.542   6.827  10.620  0.8972 -0.2265 -0.3615
  254MOL0     C34981   5.659   6.762  10.658 -0.6926  0.7506  0.1529
  254MOL0     C34982   5.646   6.628  10.730 -0.1025 -0.5957  0.7379
  254MOL0     H34983   6.222   6.922  10.489  1.9335 -1.1865 -0.8258
  254MOL0     H34984   6.469   6.914  10.555  0.1722 -0.0507 -1.0782
  254MOL0     H34985   6.574   6.895  10.908  0.0131  0.6940 -0.0109
  254MOL0     H34986   6.648   6.924  10.751 -3.7447  0.8011 -0.3707
  254MOL0     H34987   6.802   6.880  10.944  0.8579 -0.9992 -0.3942
  254MOL0     H34988   6.743   6.727  10.961  0.3938  0.1327 -0.4302
  254MOL0     H34989   6.937   6.697  10.857 -0.6927 -1.3261 -0.1848
  254MOL0     H34990   6.845   6.674  10.712  0.9852 -0.4402  1.2559
  254MOL0     H34991   6.860   6.911  10.642  1.2065  2.7118  0.6099
  254MOL0     H34992   6.976   6.932  10.773 -0.7786  0.9481 -1.5180
  254MOL0     H34993   6.994   6.768  10.519  0.4093 -0.1533  0.5198
  254MOL0     H34994   7.092   6.732  10.668  0.6125  0.5066  0.5362
  254MOL0     H34995   7.215   6.881  10.518  0.1004 -1.7172  1.1517
  254MOL0     H34996   7.085   7.004  10.543 -0.9028  0.2052  2.1246
  254MOL0     H34997   7.165   7.008  10.791  3.4589 -0.1234  2.1526
  254MOL0     H34998   7.300   7.052  10.685  2.8020 -1.7043  1.1570
  254MOL0     H34999   7.337   6.777  10.705  0.0622 -1.5477  1.4192
  254MOL0     H35000   7.420   6.907  10.792 -0.1398  1.4705 -4.0491
  254MOL0     H35001   7.248   6.988  10.997  1.1246 -0.5342 -3.9004
  254MOL0     H35002   7.082   6.743  11.254  1.0199 -0.4514  0.0601
  254MOL0     H35003   7.094   6.916  11.239 -2.5651 -1.8066 -0.2256
  254MOL0     H35004   7.365   6.846  11.287 -0.2040 -0.9169  0.0726
  254MOL0     H35005   7.252   6.892  11.408  2.0204  4.3064 -2.1273
  254MOL0     H35006   7.200   6.660  11.450 -0.1461 -0.3815 -0.1745
  254MOL0     H35007   7.300   6.597  11.311  1.7294  1.1066 -0.3353
  254MOL0     H35008   7.430   6.569  11.534 -0.3809 -1.0571 -1.8066
  254MOL0     H35009   7.499   6.699  11.436  0.7521 -0.8136  0.3724
  254MOL0     H35010   7.644   6.660  11.616  4.5506  1.3891  0.1615
  254MOL0     H35011   7.928   6.832  11.661  0.0041  0.9396  1.3159
  254MOL0     H35012   7.854   6.676  11.638 -1.9945  0.0564 -1.3731
  254MOL0     H35013   7.885   6.726  11.805 -1.5234  0.2744  0.6460
  254MOL0     H35014   8.038   7.092  11.673  2.8725 -1.4107 -0.8116
  254MOL0     H35015   8.227   7.250  11.695  0.4354  0.3220  0.4500
  254MOL0     H35016   8.548   7.278  11.974  1.2161 -1.9926 -0.6074
  254MOL0     H35017   8.479   7.172  11.856  0.0316 -1.1172  0.9356
  254MOL0     H35018   8.532   7.466  11.824 -2.3345 -1.1572  3.3047
  254MOL0     H35019   8.656   7.344  11.771 -0.4701  1.6695  1.1849
  254MOL0     H35020   8.546   7.426  11.577 -0.1712 -3.0279 -2.8461
  254MOL0     H35021   8.385   7.384  11.648  0.4248  2.9318  1.7695
  254MOL0     H35022   8.459   7.148  11.620 -1.5046  1.2729 -1.6351
  254MOL0     H35023   8.629   7.180  11.578  0.0385 -0.9083 -0.9302
  254MOL0     H35024   8.416   7.314  11.409  0.2310  0.1979 -0.1498
  254MOL0     H35025   8.583   7.272  11.376 -0.7680  0.1823  0.0493
  254MOL0     H35026   8.502   7.024  11.376  1.5542  0.6058 -1.5394
  254MOL0     H35027   8.438   7.115  11.249 -2.0316 -0.8381 -0.1636
  254MOL0     H35028   8.234   7.162  11.419  0.6791 -0.9186  3.9897
  254MOL0     H35029   8.316   7.039  11.514  0.6275  1.9465  0.2996
  254MOL0     H35030   8.299   6.881  11.344  1.7372  1.5333  0.1506
  254MOL0     H35031   8.202   7.000  11.237  0.1790 -1.1630 -0.3606
  254MOL0     H35032   8.208   7.245  12.115  0.0489  2.9174 -1.8301
  254MOL0     H35033   8.035   7.062  12.108 -1.2027 -0.0434  0.2954
  254MOL0     H35034   7.549   7.078  11.849  0.4087  1.6519 -2.4762
  254MOL0     H35035   7.368   6.978  11.737  0.3899  2.0776 -1.4190
  254MOL0     H35036   6.354   6.684  10.902 -0.0164  1.0373 -0.1742
  254MOL0     H35037   6.116   6.709  10.861 -0.0167  0.1844  0.9729
  254MOL0     H35038   5.868   7.004  10.541 -0.9409  1.5072  0.6078
  254MOL0     H35039   5.658   7.094  10.470 -3.0025 -1.7379 -1.2595
  254MOL0     H35040   5.438   7.087  10.320 -4.4363 -0.1353 -3.8049
  254MOL0     H35041   5.437   6.907  10.331 -0.5721 -0.4449  1.3307
  254MOL0     H35042   5.230   6.965  10.237  1.2235  0.5326 -0.1139
  254MOL0     H35043   5.204   7.098  10.345  1.4556  0.6419 -3.1190
  254MOL0     H35044   5.193   6.917  10.537 -2.8438  5.2161 -0.0252
  254MOL0     H35045   5.074   6.893  10.405 -0.1334  0.8652  1.3271
  254MOL0     H35046   5.316   6.733  10.454 -0.7716 -3.3828  2.2928
  254MOL0     H35047   5.244   6.733  10.298  1.5488  3.7705 -0.5848
  254MOL0     H35048   4.977   6.480  10.510  1.5846 -2.1774 -0.0336
  254MOL0     H35049   5.442   6.791  10.644 -0.5537  4.0044  0.7449
  254MOL0     H35050   5.694   6.643  10.827 -0.9091 -2.0896  1.4010
  254MOL0     H35051   5.542   6.600  10.745 -0.2001 -0.8175 -0.2823
  254MOL0     H35052   5.705   6.547  10.686  1.7771  2.2481 -2.5992
  255MOL0     O35053   5.814   1.738   6.532 -0.1994 -0.7054  0.3681
  255MOL0     C35054   5.783   1.805   6.628 -0.1772 -0.1874 -0.4436
  255MOL0     O35055   5.862   1.818   6.739 -0.5217 -0.2532  0.8074
  255MOL0     C35056   5.997   1.822   6.731 -0.3776  0.8063  1.5758
  255MOL0     C35057   6.058   1.945   6.715 -0.1458 -0.7514  0.8315
  255MOL0     C35058   6.197   1.952   6.719  0.6871 -0.2872  0.3063
  255MOL0     C35059   6.273   1.841   6.728 -0.0907  0.6152 -0.4194
  255MOL0     O35060   6.410   1.867   6.715  1.2688  0.1861 -0.8657
  255MOL0     C35061   6.512   1.774   6.682 -0.7056  0.4681  1.0822
  255MOL0     C35062   6.647   1.836   6.674  0.5600  0.0780  0.3205
  255MOL0     C35063   6.688   1.880   6.531 -0.6321  1.4348  0.2311
  255MOL0     C35064   6.818   1.949   6.521  1.0901 -0.0305 -0.0366
  255MOL0     C35065   6.853   1.971   6.370 -0.1968 -0.2603  0.9221
  255MOL0     C35066   6.989   2.052   6.344  0.0613 -0.5697 -0.7989
  255MOL0     C35067   6.989   2.135   6.214 -0.4100  0.3437  0.3377
  255MOL0     C35068   7.120   2.181   6.167  0.2016 -0.0229  0.8858
  255MOL0     N35069   7.203   2.259   6.257 -0.2591 -0.2608  0.3327
  255MOL0     C35070   7.271   2.212   6.365 -0.0335  0.4251 -0.2036
  255MOL0     C35071   7.346   2.322   6.406  0.1629  0.0298 -0.7938
  255MOL0     C35072   7.443   2.326   6.519 -0.5129 -0.3618 -0.4286
  255MOL0     C35073   7.538   2.448   6.537  0.1515  0.4641  0.1545
  255MOL0     C35074   7.621   2.451   6.667  0.2234 -0.3474  0.5937
  255MOL0     C35075   7.724   2.339   6.681  0.3625 -0.0653  0.0428
  255MOL0     O35076   7.824   2.359   6.778  0.2388  0.2669 -0.5370
  255MOL0     C35077   7.947   2.412   6.754 -0.0822  0.2048  0.5390
  255MOL0     C35078   8.042   2.363   6.842 -0.2272  0.5287  0.0910
  255MOL0     C35079   8.182   2.405   6.845 -1.0145  0.3716 -0.1173
  255MOL0     C35080   8.286   2.328   6.931  0.6843  0.0944  0.3520
  255MOL0     C35081   8.214   2.522   6.769 -0.4576  0.0530 -0.2007
  255MOL0     C35082   8.349   2.576   6.775 -0.1411  0.0192 -1.1478
  255MOL0     O35083   8.400   2.608   6.656  0.6938 -0.3243 -0.8131
  255MOL0     C35084   8.537   2.626   6.648  0.0403  0.1087  0.9436
  255MOL0     C35085   8.646   2.590   6.731  0.2141  0.4326 -0.1317
  255MOL0     C35086   8.777   2.647   6.709  0.6772 -0.3208 -0.6206
  255MOL0     C35087   8.792   2.715   6.594  0.0487  0.0220 -0.0724
  255MOL0     O35088   8.913   2.761   6.544  0.4691  0.3368 -0.7980
  255MOL0     C35089   9.031   2.749   6.621 -0.1552  0.7284  0.5324
  255MOL0     C35090   9.144   2.829   6.552 -0.2479 -0.4151  0.2961
  255MOL0     C35091   9.177   2.768   6.407 -0.6506  0.1384 -0.4233
  255MOL0     C35092   9.317   2.820   6.364  0.1165 -0.3195 -0.3996
  255MOL0     C35093   9.357   2.780   6.226  0.4200  0.1645  0.3868
  255MOL0     C35094   9.396   2.634   6.215  0.2655  0.4423  0.6834
  255MOL0     C35095   9.456   2.600   6.074  0.0223 -0.2295 -1.1889
  255MOL0     C35096   9.587   2.686   6.045  0.8872  0.2309  0.2100
  255MOL0    Cl35097   9.715   2.638   6.166  0.2143 -0.0423  0.0120
  255MOL0     C35098   8.689   2.747   6.502 -0.0047 -0.3367  0.1334
  255MOL0     C35099   8.562   2.706   6.536  0.2395 -0.7354  0.1458
  255MOL0     O35100   8.392   2.604   6.890  0.1908  0.4560  0.1979
  255MOL0     C35101   8.109   2.575   6.681 -0.5356  0.4870  0.4774
  255MOL0     C35102   7.991   2.514   6.664  0.4959  0.4025 -1.4457
  255MOL0     N35103   7.318   2.427   6.321 -0.3589 -0.3077 -0.4803
  255MOL0     N35104   7.237   2.386   6.233  0.3877 -0.4060 -1.1317
  255MOL0     C35105   6.211   1.718   6.736 -0.5486  0.7355  0.6140
  255MOL0     C35106   6.071   1.701   6.740 -0.9863  0.2912  0.1995
  255MOL0     C35107   5.652   1.866   6.631  0.1765  0.1940  0.0889
  255MOL0     C35108   5.637   1.999   6.653 -0.2094  0.1911  0.2385
  255MOL0     C35109   5.513   2.061   6.661  0.3847  0.3240  0.6280
  255MOL0     C35110   5.395   1.997   6.654 -0.4293  0.6741  0.9479
  255MOL0     O35111   5.276   2.060   6.671 -0.1046  0.4445 -0.0317
  255MOL0     C35112   5.156   1.985   6.663  0.1524 -0.5530 -0.2219
  255MOL0     C35113   5.041   2.080   6.700 -0.0048  0.3084 -0.5607
  255MOL0     C35114   4.901   2.014   6.689 -0.9618  0.2820 -0.7996
  255MOL0     C35115   4.869   2.000   6.541 -0.4600 -0.4293 -0.2672
  255MOL0     C35116   4.742   1.933   6.543  0.1719  0.3767 -0.8909
  255MOL0     C35117   4.626   1.883   6.554  0.3234  0.3448  0.0920
  255MOL0     C35118   5.410   1.870   6.600  0.9044 -0.5862  1.0272
  255MOL0     C35119   5.535   1.803   6.591 -1.5699 -0.1110 -0.9233
  255MOL0     C35120   5.521   1.658   6.566  0.4005  0.4573  0.0711
  255MOL0     H35121   6.005   2.038   6.695  0.7178 -0.8765 -2.9225
  255MOL0     H35122   6.239   2.052   6.716 -0.3807  0.1738  0.0614
  255MOL0     H35123   6.488   1.716   6.593  0.5160 -0.9890  1.6589
  255MOL0     H35124   6.520   1.711   6.771  0.2593 -0.7958  0.1351
  255MOL0     H35125   6.635   1.923   6.740 -0.1710 -0.9957  1.6734
  255MOL0     H35126   6.739   1.793   6.713  0.3028 -2.1261 -1.3715
  255MOL0     H35127   6.685   1.794   6.464 -2.6499  1.3734  0.3423
  255MOL0     H35128   6.620   1.960   6.499 -0.5694  1.9808  1.4210
  255MOL0     H35129   6.809   2.041   6.580  0.2004  0.1332 -0.4082
  255MOL0     H35130   6.902   1.888   6.553 -0.9688 -2.7059  0.6647
  255MOL0     H35131   6.772   2.036   6.334 -0.2076 -0.5440  0.4354
  255MOL0     H35132   6.848   1.878   6.313  0.0504  1.0196 -1.2723
  255MOL0     H35133   7.012   2.124   6.423 -2.8281 -0.9354  0.5163
  255MOL0     H35134   7.074   1.984   6.337 -0.6933 -1.8115  1.2218
  255MOL0     H35135   6.925   2.222   6.235  2.2802  1.9203  2.7128
  255MOL0     H35136   6.951   2.068   6.136 -1.9179 -0.4292  1.6784
  255MOL0     H35137   7.176   2.089   6.145  1.2662  1.4201 -3.5036
  255MOL0     H35138   7.104   2.234   6.073 -2.3512 -2.8446 -0.4565
  255MOL0     H35139   7.249   2.117   6.411 -0.8605 -0.1459 -1.7003
  255MOL0     H35140   7.515   2.245   6.499  0.3070  0.2172  0.0761
  255MOL0     H35141   7.390   2.307   6.613 -1.1697 -2.9930 -1.2431
  255MOL0     H35142   7.606   2.462   6.452  0.0988  0.4540  0.1099
  255MOL0     H35143   7.480   2.540   6.548 -0.2719  0.1849  0.2901
  255MOL0     H35144   7.670   2.549   6.659 -0.7937  0.0954 -0.7584
  255MOL0     H35145   7.558   2.452   6.756 -2.4753  1.0558 -1.1849
  255MOL0     H35146   7.670   2.247   6.704  0.7200 -0.1736  0.4492
  255MOL0     H35147   7.781   2.329   6.589  2.2441  2.1524  0.8730
  255MOL0     H35148   8.031   2.282   6.914 -1.5683  0.5617 -0.0615
  255MOL0     H35149   8.387   2.346   6.892  1.0454 -0.3311  1.0639
  255MOL0     H35150   8.268   2.220   6.935 -1.5350  0.1821 -3.3536
  255MOL0     H35151   8.295   2.374   7.030 -2.7747 -0.8070  1.2054
  255MOL0     H35152   8.620   2.530   6.817 -1.0161 -0.4958 -1.1037
  255MOL0     H35153   8.857   2.624   6.778  0.1418  0.4144  0.2691
  255MOL0     H35154   9.013   2.788   6.721 -1.1480  1.3612  0.1256
  255MOL0     H35155   9.069   2.647   6.625  0.5816  0.9074 -1.2113
  255MOL0     H35156   9.114   2.932   6.531  1.6990 -0.1322 -1.4141
  255MOL0     H35157   9.229   2.829   6.620  1.9500  2.6594 -2.1812
  255MOL0     H35158   9.106   2.803   6.331 -1.4536  0.8376  0.6160
  255MOL0     H35159   9.170   2.659   6.415  0.9749  0.1122  1.2407
  255MOL0     H35160   9.389   2.790   6.441 -0.8385 -2.3642 -0.2302
  255MOL0     H35161   9.316   2.928   6.375 -1.9879 -0.2966 -0.3079
  255MOL0     H35162   9.281   2.796   6.149  1.2328  3.0388  0.0853
  255MOL0     H35163   9.438   2.852   6.209  0.8145 -0.3002  0.2982
  255MOL0     H35164   9.305   2.572   6.222 -1.1080  2.1225 -1.1950
  255MOL0     H35165   9.464   2.606   6.296  0.6159 -1.5596 -0.2491
  255MOL0     H35166   9.386   2.618   5.992  0.6204 -0.4575 -1.7566
  255MOL0     H35167   9.488   2.496   6.076 -0.5525 -0.4024  0.2757
  255MOL0     H35168   9.559   2.792   6.047  0.5893  0.2414 -2.2523
  255MOL0     H35169   9.620   2.650   5.948  0.9721 -2.0660  1.0220
  255MOL0     H35170   8.716   2.806   6.415  2.1875  1.8428  2.1728
  255MOL0     H35171   8.478   2.745   6.480  0.1011 -0.2028  0.7222
  255MOL0     H35172   8.137   2.660   6.619 -0.6185 -0.3159 -0.7038
  255MOL0     H35173   7.915   2.558   6.600  1.7191 -0.2252 -3.4225
  255MOL0     H35174   6.271   1.628   6.740 -1.1178  0.3688  1.0410
  255MOL0     H35175   6.015   1.610   6.756  0.0388 -1.1004 -3.3660
  255MOL0     H35176   5.713   2.077   6.651  0.3959 -0.3980  0.0254
  255MOL0     H35177   5.510   2.167   6.687 -1.3460  0.2017  1.0369
  255MOL0     H35178   5.139   1.939   6.565  0.4665 -0.8207 -0.1525
  255MOL0     H35179   5.154   1.912   6.744  1.4976 -0.1813  0.1693
  255MOL0     H35180   5.038   2.173   6.644 -1.6970 -0.0882 -1.2003
  255MOL0     H35181   5.055   2.107   6.804  1.2701  0.6965 -0.8139
  255MOL0     H35182   4.894   1.925   6.753 -0.8101  0.6101 -0.3237
  255MOL0     H35183   4.821   2.078   6.728 -0.3814  3.5327 -4.3659
  255MOL0     H35184   4.932   1.928   6.488 -0.6407 -0.4796 -0.4112
  255MOL0     H35185   4.849   2.092   6.486 -0.8272  0.1393  0.7766
  255MOL0     H35186   4.530   1.842   6.575 -0.8526  2.4755 -0.7890
  255MOL0     H35187   5.321   1.816   6.570  1.0401 -0.0953 -0.2857
  255MOL0     H35188   5.500   1.638   6.461 -1.2332 -2.2135  0.8101
  255MOL0     H35189   5.604   1.589   6.585  0.0994  0.1111  0.1412
  255MOL0     H35190   5.436   1.619   6.623  1.5073 -1.3500  0.5755
  256MOL0     O35191   3.910   2.988  11.351  0.5238 -0.8209 -0.7572
  256MOL0     C35192   3.912   2.978  11.476  0.6428 -0.1990  1.0116
  256MOL0     O35193   4.001   3.039  11.557  0.0201  0.3889  0.5871
  256MOL0     C35194   4.115   3.095  11.514 -0.8185  0.4079  0.6367
  256MOL0     C35195   4.211   3.043  11.425 -0.3463  0.6218  0.5856
  256MOL0     C35196   4.337   3.106  11.398  0.0321 -0.2738 -0.2004
  256MOL0     C35197   4.367   3.229  11.455  0.1238 -0.3208 -0.6097
  256MOL0     O35198   4.497   3.269  11.436  0.2517  0.0057 -0.1672
  256MOL0     C35199   4.513   3.405  11.408  0.0574 -0.5657  0.6453
  256MOL0     C35200   4.651   3.429  11.359  0.0734 -0.0235 -0.0334
  256MOL0     C35201   4.677   3.348  11.237 -0.3425  0.5996 -0.6984
  256MOL0     C35202   4.579   3.378  11.128 -0.7723 -0.7594  0.8366
  256MOL0     C35203   4.648   3.352  10.994  0.2890  0.2391  0.1040
  256MOL0     C35204   4.548   3.387  10.876  0.0218  0.6989 -0.7585
  256MOL0     C35205   4.418   3.313  10.877  0.2404  0.2005  1.0166
  256MOL0     C35206   4.415   3.158  10.884  0.2065  0.0308  0.6304
  256MOL0     N35207   4.459   3.101  10.755 -0.7048 -0.5924 -0.5454
  256MOL0     C35208   4.594   3.067  10.718 -0.8286 -0.6039 -0.1356
  256MOL0     C35209   4.586   3.024  10.594  0.9283  0.0585 -0.5743
  256MOL0     C35210   4.709   3.012  10.514 -0.3615 -0.4876 -0.3117
  256MOL0     C35211   4.692   2.898  10.415 -0.2268 -0.1297  0.1724
  256MOL0     C35212   4.609   2.951  10.292 -0.2122  0.6934 -0.6753
  256MOL0     C35213   4.616   2.863  10.165  0.0496 -0.4617  0.7694
  256MOL0     O35214   4.711   2.911  10.056  0.9372 -0.0410  0.1138
  256MOL0     C35215   4.705   2.868   9.925  0.0344  0.6935  0.3057
  256MOL0     C35216   4.788   2.935   9.830  0.3042  0.1773  0.2570
  256MOL0     C35217   4.785   2.888   9.697 -0.2501  0.0887 -0.9800
  256MOL0     C35218   4.876   2.965   9.600 -0.6524  0.1991 -0.6078
  256MOL0     C35219   4.706   2.784   9.666  0.0763  0.3631  1.0708
  256MOL0     C35220   4.680   2.749   9.532 -0.3479  0.2105  0.8969
  256MOL0     O35221   4.559   2.703   9.500  0.3026  0.1122 -0.0231
  256MOL0     C35222   4.496   2.725   9.380  0.2662 -0.0195 -0.4740
  256MOL0     C35223   4.502   2.855   9.313  0.4688  0.3230 -0.8299
  256MOL0     C35224   4.436   2.880   9.193  0.1606  0.3103  0.1113
  256MOL0     C35225   4.374   2.775   9.122  0.6116  0.4371 -0.2002
  256MOL0     O35226   4.299   2.802   9.011 -0.3835  0.4692  0.3850
  256MOL0     C35227   4.277   2.938   8.961  0.5054 -0.0415  0.2925
  256MOL0     C35228   4.143   2.933   8.884  0.4186  0.8229  0.1673
  256MOL0     C35229   4.175   2.883   8.740 -0.3601  0.8325 -0.4469
  256MOL0     C35230   4.054   2.865   8.660 -0.4710  0.4795  0.2569
  256MOL0     C35231   4.102   2.827   8.514  0.9456  0.3565 -1.1205
  256MOL0     C35232   3.981   2.833   8.419 -0.7865 -0.7461  0.8471
  256MOL0     C35233   3.892   2.702   8.425 -0.1825  0.0083 -0.3855
  256MOL0     C35234   3.950   2.586   8.357  0.4374 -0.2914  0.0776
  256MOL0    Cl35235   4.049   2.478   8.467  0.2482  0.3517  0.2504
  256MOL0     C35236   4.371   2.645   9.186 -0.3845 -0.6675 -0.0369
  256MOL0     C35237   4.425   2.624   9.313 -0.2899  0.3515 -0.6575
  256MOL0     O35238   4.780   2.759   9.456  0.3812  0.2176 -0.0811
  256MOL0     C35239   4.632   2.716   9.761  0.3070  0.2789  0.3419
  256MOL0     C35240   4.623   2.775   9.886 -0.1645 -0.1129 -0.2390
  256MOL0     N35241   4.451   3.019  10.561  0.1934 -0.2107 -0.0510
  256MOL0     N35242   4.376   3.052  10.663 -0.1859  0.2352 -0.3326
  256MOL0     C35243   4.263   3.298  11.528 -0.2508 -0.1928 -0.6312
  256MOL0     C35244   4.137   3.225  11.566 -1.3858  0.0456 -0.1178
  256MOL0     C35245   3.793   2.910  11.546  0.0140  0.6656 -0.8781
  256MOL0     C35246   3.677   2.885  11.468 -0.5829 -0.4786 -0.2116
  256MOL0     C35247   3.562   2.835  11.520 -0.2546 -0.4077 -0.7895
  256MOL0     C35248   3.560   2.790  11.652 -0.1121 -0.8525  0.1562
  256MOL0     O35249   3.447   2.740  11.710  0.1399 -0.2152  0.0675
  256MOL0     C35250   3.340   2.826  11.711  1.2629  0.5644 -0.5506
  256MOL0     C35251   3.224   2.789  11.816 -0.5375 -0.4754  0.7798
  256MOL0     C35252   3.112   2.888  11.801  0.2095  0.3436 -0.5625
  256MOL0     C35253   3.025   2.915  11.930  0.4751  0.5571 -0.0476
  256MOL0     C35254   3.071   3.033  12.018 -0.3090  0.1760 -0.2703
  256MOL0     C35255   3.104   3.118  12.099  0.2000  0.0163  0.1168
  256MOL0     C35256   3.667   2.808  11.733 -1.1847 -0.6416 -0.1004
  256MOL0     C35257   3.788   2.864  11.684  0.0051  0.0765  1.2885
  256MOL0     C35258   3.900   2.864  11.778  0.2455 -0.0886  0.4298
  256MOL0     H35259   4.200   2.943  11.383  3.9311  0.6687 -1.2789
  256MOL0     H35260   4.418   3.053  11.347 -0.0803 -0.5812 -0.0623
  256MOL0     H35261   4.485   3.472  11.490 -6.9086  0.9619 -2.2545
  256MOL0     H35262   4.438   3.432  11.333 -0.9412 -2.7429  0.7898
  256MOL0     H35263   4.668   3.536  11.344  2.9499 -0.6818 -2.4186
  256MOL0     H35264   4.720   3.401  11.439  0.4642 -0.2841 -0.4592
  256MOL0     H35265   4.779   3.372  11.208  0.3245  0.7030  1.5759
  256MOL0     H35266   4.663   3.243  11.266 -3.4565  0.3936 -2.5039
  256MOL0     H35267   4.493   3.313  11.148 -1.1459 -0.0765  1.4895
  256MOL0     H35268   4.534   3.478  11.130  2.4788  0.8539 -0.1897
  256MOL0     H35269   4.660   3.243  10.995 -1.5539 -0.0039 -0.6255
  256MOL0     H35270   4.740   3.411  10.991 -0.2671  1.0955 -1.9901
  256MOL0     H35271   4.521   3.493  10.870  0.1078  0.6519 -2.1433
  256MOL0     H35272   4.604   3.379  10.783  0.4441 -0.0402 -0.4488
  256MOL0     H35273   4.367   3.332  10.781  3.2677 -2.4740 -1.3197
  256MOL0     H35274   4.350   3.350  10.955 -0.7256  1.4810 -0.3560
  256MOL0     H35275   4.475   3.104  10.959  0.2128 -0.2556  0.4211
  256MOL0     H35276   4.311   3.126  10.880  0.0010  0.7989 -1.3387
  256MOL0     H35277   4.688   3.070  10.773 -1.7506  0.7648  1.4825
  256MOL0     H35278   4.794   2.992  10.581  0.2935  3.9776  0.5012
  256MOL0     H35279   4.737   3.106  10.467  0.1590 -1.8721 -3.0175
  256MOL0     H35280   4.790   2.864  10.379  0.7067 -0.3740  2.7342
  256MOL0     H35281   4.646   2.811  10.462 -1.0123 -1.5674 -2.9835
  256MOL0     H35282   4.504   2.958  10.324 -0.9350 -2.3688 -2.0762
  256MOL0     H35283   4.650   3.048  10.261 -0.0542  0.8118 -0.1114
  256MOL0     H35284   4.636   2.759  10.194  0.5137 -1.0227 -1.4093
  256MOL0     H35285   4.512   2.872  10.132  0.1312 -1.4426  0.2048
  256MOL0     H35286   4.853   3.016   9.861  1.9799 -0.9086 -0.2391
  256MOL0     H35287   4.817   3.010   9.520  2.8952 -0.2554 -3.7183
  256MOL0     H35288   4.957   2.901   9.563 -0.1668  1.4807 -1.8188
  256MOL0     H35289   4.932   3.046   9.647  0.4742  0.7123 -2.7083
  256MOL0     H35290   4.560   2.935   9.360 -0.1793  0.3778 -0.1067
  256MOL0     H35291   4.453   2.978   9.151  0.1511 -1.5510 -4.9039
  256MOL0     H35292   4.265   3.022   9.029 -0.2993  3.4252 -3.7093
  256MOL0     H35293   4.360   2.969   8.896  2.3820 -1.3915  1.9275
  256MOL0     H35294   4.077   2.866   8.940 -1.5162  1.9136 -0.7114
  256MOL0     H35295   4.092   3.030   8.879  1.5731  1.3774 -3.3411
  256MOL0     H35296   4.237   2.793   8.744 -1.2871  0.2225  1.2997
  256MOL0     H35297   4.229   2.958   8.681 -0.4413 -0.0914 -1.7254
  256MOL0     H35298   3.986   2.951   8.668 -1.5458 -0.3151 -0.1128
  256MOL0     H35299   3.989   2.783   8.693  2.5382 -1.9060  0.6683
  256MOL0     H35300   4.181   2.892   8.475  1.3572 -0.5627 -1.8559
  256MOL0     H35301   4.146   2.727   8.505  0.5786 -0.2121  2.0419
  256MOL0     H35302   4.016   2.850   8.317  0.3724 -0.4322  1.2813
  256MOL0     H35303   3.918   2.916   8.450 -0.9887 -1.4280  2.3743
  256MOL0     H35304   3.794   2.723   8.381 -0.8868  0.8826  1.4954
  256MOL0     H35305   3.875   2.680   8.531 -0.2929  0.8737 -0.2189
  256MOL0     H35306   4.008   2.609   8.268  0.5993 -5.4947 -1.5160
  256MOL0     H35307   3.873   2.521   8.314 -1.5330  2.3447 -0.6091
  256MOL0     H35308   4.307   2.567   9.144 -0.0326 -0.8770 -0.1916
  256MOL0     H35309   4.410   2.523   9.350 -0.2166  0.3876 -0.5290
  256MOL0     H35310   4.574   2.629   9.733 -1.9330  0.5830  3.5168
  256MOL0     H35311   4.561   2.729   9.962  0.5580  3.7089  2.9844
  256MOL0     H35312   4.300   3.391  11.570  0.0253 -0.1236 -1.0189
  256MOL0     H35313   4.065   3.270  11.635 -3.4205 -0.4034 -1.8316
  256MOL0     H35314   3.676   2.908  11.362 -1.6559  2.1014  0.2844
  256MOL0     H35315   3.469   2.821  11.467  0.0323 -1.3700 -1.0715
  256MOL0     H35316   3.382   2.926  11.729  0.5700  0.8685 -0.5879
  256MOL0     H35317   3.294   2.825  11.612 -0.6842 -0.1351  0.3101
  256MOL0     H35318   3.266   2.796  11.916 -0.8190  1.1275  0.8133
  256MOL0     H35319   3.194   2.686  11.793 -2.1116  0.4924 -2.0176
  256MOL0     H35320   3.160   2.980  11.768 -0.8131  0.6063 -1.3756
  256MOL0     H35321   3.054   2.851  11.716  0.0837 -1.7272  0.3538
  256MOL0     H35322   3.022   2.824  11.991  0.4303 -0.5805 -1.6837
  256MOL0     H35323   2.923   2.945  11.903  0.5946  3.3752  2.1736
  256MOL0     H35324   3.125   3.203  12.162  1.0829  1.3242 -1.8244
  256MOL0     H35325   3.662   2.777  11.837  0.9465 -1.9423 -0.3296
  256MOL0     H35326   3.869   2.833  11.878 -0.4194 -1.3680 -0.1445
  256MOL0     H35327   3.981   2.802  11.738 -0.4946 -1.2007  0.5968
  256MOL0     H35328   3.942   2.965  11.783  0.2965 -0.1760  2.4170
  257MOL0     O35329   8.184   8.399   3.121  0.3606 -0.2241 -1.2191
  257MOL0     C35330   8.157   8.281   3.133 -0.4314 -0.4985 -0.1756
  257MOL0     O35331   8.237   8.178   3.104 -0.0312 -0.1013 -0.4511
  257MOL0     C35332   8.369   8.180   3.074  0.9594 -0.1716  0.3231
  257MOL0     C35333   8.451   8.075   3.113  0.4769  0.4138 -0.2699
  257MOL0     C35334   8.587   8.073   3.089 -0.1655  0.1450 -0.4573
  257MOL0     C35335   8.639   8.168   3.004 -0.8172 -0.1489 -0.1980
  257MOL0     O35336   8.772   8.158   2.967 -0.2816 -0.0301  0.3339
  257MOL0     C35337   8.827   8.261   2.882 -0.5631  0.0177  0.2357
  257MOL0     C35338   8.978   8.242   2.877 -0.5303 -0.5399  0.4280
  257MOL0     C35339   9.051   8.374   2.835  0.7195  0.5050  0.1306
  257MOL0     C35340   9.058   8.376   2.681  0.4382 -0.2082  0.2234
  257MOL0     C35341   9.074   8.513   2.620 -0.7384  0.3958 -0.7324
  257MOL0     C35342   9.140   8.508   2.482 -0.1869  0.8108 -0.2584
  257MOL0     C35343   9.167   8.646   2.419  0.3567 -0.1757  0.3113
  257MOL0     C35344   9.244   8.649   2.291  0.6423  0.0573  0.2638
  257MOL0     N35345   9.383   8.602   2.306  0.6848 -0.5163 -0.2081
  257MOL0     C35346   9.420   8.482   2.250 -0.5888  0.3714 -0.8731
  257MOL0     C35347   9.557   8.477   2.269  0.7764 -0.6212 -0.7351
  257MOL0     C35348   9.649   8.367   2.228 -0.8305  0.0849 -0.2733
  257MOL0     C35349   9.685   8.263   2.340 -0.7271  0.9576 -0.1418
  257MOL0     C35350   9.813   8.190   2.295  0.2083 -0.4519 -1.1208
  257MOL0     C35351   9.895   8.130   2.411  0.5036  0.8232 -0.1041
  257MOL0     O35352   9.841   8.015   2.469 -0.5024  0.0432 -0.2394
  257MOL0     C35353   9.922   7.910   2.507 -0.7798  0.0847 -0.0469
  257MOL0     C35354   9.981   7.826   2.420  0.3140 -0.7413  0.5333
  257MOL0     C35355  10.069   7.731   2.462  0.7497  0.3701  0.2304
  257MOL0     C35356  10.115   7.627   2.359 -0.1347 -0.3214 -0.0462
  257MOL0     C35357  10.076   7.698   2.605  0.0336 -0.4689  0.9844
  257MOL0     C35358  10.148   7.591   2.673  0.6854 -0.5919  0.1224
  257MOL0     O35359  10.124   7.576   2.805  0.0947 -0.6780 -0.2591
  257MOL0     C35360  10.177   7.472   2.873  0.5801  0.7337 -0.4487
  257MOL0     C35361  10.188   7.340   2.828 -0.7425  0.3691  0.7523
  257MOL0     C35362  10.245   7.243   2.913  0.4614 -0.7599 -0.3051
  257MOL0     C35363  10.274   7.261   3.041 -0.5645  0.5553 -0.5797
  257MOL0     O35364  10.308   7.150   3.116  0.2665 -0.0846 -0.3049
  257MOL0     C35365  10.316   7.162   3.260 -0.6495 -0.0462  0.0316
  257MOL0     C35366  10.187   7.148   3.332  0.6695  0.4986 -0.0613
  257MOL0     C35367  10.107   7.015   3.297  0.0460 -1.1446  0.0894
  257MOL0     C35368   9.962   7.038   3.330  1.0631  0.1323  0.6942
  257MOL0     C35369   9.894   6.907   3.332  0.5335  0.5425 -0.2372
  257MOL0     C35370   9.738   6.929   3.328 -0.7028  0.1431  0.1731
  257MOL0     C35371   9.671   6.790   3.353  0.4537  0.4925 -0.8197
  257MOL0     C35372   9.518   6.792   3.351 -0.1865 -0.4330 -0.3813
  257MOL0    Cl35373   9.457   6.912   3.477  0.3743 -0.0601 -1.1422
  257MOL0     C35374  10.266   7.398   3.093 -0.1292  0.6759 -0.2772
  257MOL0     C35375  10.215   7.499   3.005  0.1207 -1.0601 -1.1622
  257MOL0     O35376  10.223   7.518   2.608  0.0489 -0.3215 -0.2126
  257MOL0     C35377  10.025   7.797   2.694 -0.0752  0.1961 -0.2323
  257MOL0     C35378   9.958   7.903   2.638 -0.1185  0.2991 -0.2091
  257MOL0     N35379   9.591   8.581   2.354 -0.0111  0.4173  0.5165
  257MOL0     N35380   9.485   8.654   2.378 -0.3996  0.0232 -0.1625
  257MOL0     C35381   8.560   8.275   2.968  0.3093  0.3424  0.3180
  257MOL0     C35382   8.419   8.284   3.000 -0.9516  0.2330 -0.2391
  257MOL0     C35383   8.025   8.247   3.189  0.2917  0.3871 -0.3244
  257MOL0     C35384   7.967   8.131   3.141  0.4210 -0.3431 -0.2995
  257MOL0     C35385   7.846   8.075   3.184  0.2593  0.6285 -0.2867
  257MOL0     C35386   7.786   8.137   3.291 -0.0631 -0.7416  1.1512
  257MOL0     O35387   7.665   8.080   3.338  0.4846 -0.4564 -0.5150
  257MOL0     C35388   7.607   8.149   3.454 -0.4577 -0.3203 -0.0137
  257MOL0     C35389   7.502   8.058   3.528 -0.3264 -0.4348  0.3961
  257MOL0     C35390   7.352   8.080   3.475 -0.0646  0.3242 -0.0286
  257MOL0     C35391   7.248   8.057   3.588  1.0655  0.7012 -0.2222
  257MOL0     C35392   7.253   7.925   3.658  0.2437 -0.6795  0.0780
  257MOL0     C35393   7.266   7.820   3.712 -0.0526  0.0350  0.2519
  257MOL0     C35394   7.844   8.251   3.344 -0.0322  0.9054  1.2144
  257MOL0     C35395   7.966   8.309   3.304 -0.3313  0.3819  0.6824
  257MOL0     C35396   8.026   8.421   3.384  0.0334  0.2147  0.1808
  257MOL0     H35397   8.405   7.991   3.163 -1.0329  1.5967  0.4380
  257MOL0     H35398   8.646   7.984   3.111 -0.1145 -0.4620 -2.8214
  257MOL0     H35399   8.812   8.365   2.916  3.3757  1.0408 -0.6973
  257MOL0     H35400   8.795   8.250   2.778  0.2809 -1.2387  0.0956
  257MOL0     H35401   9.009   8.224   2.981 -1.3962 -0.4124  0.7200
  257MOL0     H35402   8.998   8.156   2.813 -0.9693  0.1153 -0.6088
  257MOL0     H35403   9.003   8.467   2.868  1.7939  1.4545 -0.8849
  257MOL0     H35404   9.153   8.382   2.871  1.3492 -1.7326 -0.9961
  257MOL0     H35405   9.148   8.317   2.663  0.8268  1.1463 -2.7792
  257MOL0     H35406   8.982   8.316   2.630  1.1206 -1.7236  0.9282
  257MOL0     H35407   9.134   8.566   2.694  1.2249 -1.3041 -1.0171
  257MOL0     H35408   8.978   8.563   2.604 -0.8895 -0.5758 -3.4108
  257MOL0     H35409   9.229   8.445   2.495 -0.2166  0.9846  0.9255
  257MOL0     H35410   9.076   8.457   2.411 -0.6061 -0.8013  1.2137
  257MOL0     H35411   9.226   8.698   2.495 -1.4326 -0.7608  2.1879
  257MOL0     H35412   9.066   8.688   2.409  0.1801 -0.7439 -0.3900
  257MOL0     H35413   9.194   8.594   2.211  1.0705 -0.8567  0.6097
  257MOL0     H35414   9.239   8.756   2.268  3.2279  0.3790  0.8378
  257MOL0     H35415   9.357   8.401   2.216  1.5285 -2.4906  1.4394
  257MOL0     H35416   9.737   8.413   2.182  1.7808 -1.0011  3.1551
  257MOL0     H35417   9.608   8.303   2.149  0.3134 -2.7356  1.2854
  257MOL0     H35418   9.704   8.328   2.426  2.8303  0.1024 -0.1132
  257MOL0     H35419   9.606   8.188   2.345  0.9734 -1.0439 -1.6980
  257MOL0     H35420   9.790   8.107   2.228  1.5163 -1.3655 -0.4755
  257MOL0     H35421   9.879   8.260   2.244 -0.1819  1.8641  1.3076
  257MOL0     H35422   9.993   8.096   2.377 -0.0684 -1.5436  0.4443
  257MOL0     H35423   9.910   8.211   2.484  4.5083  0.0003  0.2295
  257MOL0     H35424   9.960   7.854   2.317 -0.5648  3.2428  1.6198
  257MOL0     H35425  10.065   7.531   2.375  0.2163 -0.3895  0.6789
  257MOL0     H35426  10.224   7.627   2.367 -0.1631 -0.2671  0.3844
  257MOL0     H35427  10.096   7.660   2.256 -3.9207 -2.4147 -0.2010
  257MOL0     H35428  10.155   7.319   2.727  0.3488 -1.3261  0.6988
  257MOL0     H35429  10.250   7.139   2.882 -0.1531 -0.7430 -0.4685
  257MOL0     H35430  10.385   7.087   3.299 -1.6889  0.8144  3.9304
  257MOL0     H35431  10.356   7.259   3.293  0.4219 -0.4851  0.0836
  257MOL0     H35432  10.196   7.150   3.441 -1.3491  1.0697  0.1443
  257MOL0     H35433  10.132   7.235   3.294  1.4653  0.7363 -0.7009
  257MOL0     H35434  10.149   6.935   3.359 -2.2231 -1.2858  1.5311
  257MOL0     H35435  10.112   7.004   3.188  2.2540  1.4812 -0.1884
  257MOL0     H35436   9.916   7.100   3.253 -3.8694 -2.7416  0.8843
  257MOL0     H35437   9.949   7.083   3.429 -3.0717 -0.4210  0.6046
  257MOL0     H35438   9.930   6.848   3.247  0.4348  1.5138 -0.9697
  257MOL0     H35439   9.920   6.850   3.421  0.4589 -2.4228 -1.9544
  257MOL0     H35440   9.720   6.984   3.235  0.4114 -2.2431 -1.5470
  257MOL0     H35441   9.728   6.995   3.415  0.8480 -0.1531  0.6075
  257MOL0     H35442   9.715   6.739   3.438  1.2722  0.6131 -1.1609
  257MOL0     H35443   9.700   6.737   3.262  1.2017 -2.1703  0.8722
  257MOL0     H35444   9.476   6.694   3.375  2.0939 -0.9298  2.0976
  257MOL0     H35445   9.483   6.817   3.250 -2.7435  1.9226  0.9984
  257MOL0     H35446  10.284   7.418   3.199 -2.1591  0.7781  0.0769
  257MOL0     H35447  10.212   7.601   3.043  1.0916 -1.7509  0.9257
  257MOL0     H35448  10.021   7.787   2.802 -4.0758 -1.8363 -0.3719
  257MOL0     H35449   9.922   7.975   2.712  1.5888 -1.7258  2.8123
  257MOL0     H35450   8.600   8.356   2.908  0.9600 -0.8778 -0.9423
  257MOL0     H35451   8.361   8.371   2.973  0.6351  1.4858  0.2683
  257MOL0     H35452   8.019   8.075   3.064 -0.0855 -3.8364  1.6599
  257MOL0     H35453   7.797   7.990   3.137  3.0923 -0.2186 -1.9342
  257MOL0     H35454   7.673   8.187   3.532 -1.8250  0.7010  0.6928
  257MOL0     H35455   7.546   8.235   3.424 -3.0163 -1.0885  2.5342
  257MOL0     H35456   7.516   8.081   3.634 -1.0045  1.5980  0.0993
  257MOL0     H35457   7.521   7.950   3.532  0.6864 -0.4360 -2.4473
  257MOL0     H35458   7.339   8.179   3.430 -0.4118  1.2282  1.9748
  257MOL0     H35459   7.328   8.004   3.399  1.4284  1.4407 -1.7036
  257MOL0     H35460   7.153   8.079   3.538  1.1278  0.4968 -0.4309
  257MOL0     H35461   7.250   8.132   3.668  0.2037 -0.0278  0.4976
  257MOL0     H35462   7.290   7.729   3.764 -0.6562 -0.2613  0.0248
  257MOL0     H35463   7.789   8.299   3.424 -3.5666 -1.4796  0.4808
  257MOL0     H35464   8.111   8.394   3.447  1.2549  2.0911 -0.5503
  257MOL0     H35465   8.055   8.508   3.323 -2.8106  0.2625 -1.2796
  257MOL0     H35466   7.952   8.459   3.455 -1.4693 -0.5387 -0.9237
  258MOL0     O35467   3.766   1.995   8.934  0.2018  0.0452  0.2224
  258MOL0     C35468   3.739   1.890   8.987  0.8421  0.1439 -0.4396
  258MOL0     O35469   3.779   1.849   9.106 -0.0168  0.0777  0.3174
  258MOL0     C35470   3.885   1.915   9.161 -0.5587  0.0524  0.0052
  258MOL0     C35471   3.976   1.836   9.235 -0.4713  0.3244 -0.6486
  258MOL0     C35472   4.077   1.898   9.318  1.0170 -0.2860  0.1560
  258MOL0     C35473   4.088   2.039   9.314  0.5589  0.4110  0.6379
  258MOL0     O35474   4.194   2.087   9.385 -0.2291  0.6728 -0.5493
  258MOL0     C35475   4.220   2.227   9.414  0.9216 -0.2967  0.0092
  258MOL0     C35476   4.350   2.238   9.492  0.8635  0.1720 -0.3055
  258MOL0     C35477   4.476   2.212   9.420  0.1150  0.1677 -0.2677
  258MOL0     C35478   4.600   2.273   9.484  0.2873 -0.4379 -0.9903
  258MOL0     C35479   4.731   2.214   9.440  0.2420  0.1328  0.5401
  258MOL0     C35480   4.751   2.248   9.296 -0.0714 -0.1862 -0.5232
  258MOL0     C35481   4.874   2.181   9.243  0.1655  0.0241 -0.7242
  258MOL0     C35482   4.882   2.199   9.097  0.1497 -0.2248  0.0657
  258MOL0     N35483   4.962   2.096   9.035 -0.2764 -0.3373  0.5219
  258MOL0     C35484   5.099   2.098   9.024 -0.6636  0.8371 -0.2123
  258MOL0     C35485   5.124   1.969   8.992  0.6553 -0.8638 -0.0514
  258MOL0     C35486   5.251   1.899   9.002  0.3137  0.2126 -0.3504
  258MOL0     C35487   5.294   1.889   9.152  0.3186 -0.8977  1.2480
  258MOL0     C35488   5.441   1.846   9.181 -0.3557  0.1953  0.6612
  258MOL0     C35489   5.521   1.910   9.305 -0.6634 -0.2375 -0.5786
  258MOL0     O35490   5.563   2.049   9.289  0.3054  0.3722 -0.2490
  258MOL0     C35491   5.696   2.063   9.275  0.0647 -0.5655 -0.2512
  258MOL0     C35492   5.740   2.171   9.353 -0.0576  0.2426  0.1120
  258MOL0     C35493   5.870   2.213   9.364  0.1404 -0.1788 -0.1527
  258MOL0     C35494   5.908   2.342   9.444 -0.4506 -0.4508  0.1205
  258MOL0     C35495   5.972   2.140   9.287 -0.2371 -0.1471  0.0020
  258MOL0     C35496   6.120   2.173   9.279  0.6515  0.4281  0.5294
  258MOL0     O35497   6.190   2.139   9.167 -0.4454 -0.2539  0.0608
  258MOL0     C35498   6.310   2.173   9.131 -0.7776 -0.2520 -0.3732
  258MOL0     C35499   6.355   2.102   9.016  0.0803 -0.3193  0.4338
  258MOL0     C35500   6.484   2.121   8.970  0.1456 -0.3336  0.6719
  258MOL0     C35501   6.575   2.203   9.041  0.2584  0.6431  0.3268
  258MOL0     O35502   6.710   2.203   8.983  0.3986 -0.0434  0.6691
  258MOL0     C35503   6.815   2.236   9.070 -0.6734 -0.2187  0.6408
  258MOL0     C35504   6.948   2.195   9.019  0.6347 -0.4467  0.5374
  258MOL0     C35505   7.065   2.228   9.120  1.0468  0.1893  0.5104
  258MOL0     C35506   7.204   2.255   9.068 -0.0577 -0.1630 -0.0752
  258MOL0     C35507   7.308   2.266   9.180 -0.3821  0.0572 -0.4208
  258MOL0     C35508   7.450   2.272   9.115 -0.4264  0.0862 -0.1620
  258MOL0     C35509   7.554   2.209   9.210 -0.8702 -1.1222 -0.0348
  258MOL0     C35510   7.701   2.223   9.148  1.0682  0.5253  0.4388
  258MOL0    Cl35511   7.709   2.131   9.006  0.3244 -0.0063  0.4446
  258MOL0     C35512   6.532   2.270   9.159  0.7819  0.5492  0.0289
  258MOL0     C35513   6.400   2.248   9.207  0.1126 -0.6009  0.4696
  258MOL0     O35514   6.168   2.206   9.385 -0.3178 -0.0557  0.2733
  258MOL0     C35515   5.922   2.027   9.220 -0.4377 -0.9501 -0.0466
  258MOL0     C35516   5.790   1.993   9.205 -0.3594  0.1232  0.4342
  258MOL0     N35517   5.003   1.904   8.994  0.1265  0.5346  0.6965
  258MOL0     N35518   4.908   1.973   9.025  0.1811 -1.0521  0.1662
  258MOL0     C35519   3.989   2.116   9.244 -0.2787  0.7298  0.3341
  258MOL0     C35520   3.897   2.050   9.165 -0.3994  0.4418  0.0315
  258MOL0     C35521   3.631   1.804   8.927 -0.2893 -0.8111  0.1856
  258MOL0     C35522   3.592   1.688   8.995  1.1286  1.2251 -0.8442
  258MOL0     C35523   3.492   1.600   8.955  0.0118 -0.1940 -0.0679
  258MOL0     C35524   3.430   1.627   8.827 -1.1217 -0.1857 -0.5971
  258MOL0     O35525   3.336   1.539   8.797  0.6138  0.0987 -0.1800
  258MOL0     C35526   3.205   1.587   8.772 -0.1343 -0.4410  0.3146
  258MOL0     C35527   3.108   1.477   8.730  0.6049  0.0704  0.2329
  258MOL0     C35528   2.961   1.536   8.720  0.4490  0.9095  0.6403
  258MOL0     C35529   2.854   1.440   8.748  0.4011 -0.8317 -0.2414
  258MOL0     C35530   2.839   1.343   8.634  0.0011 -0.4460  0.0161
  258MOL0     C35531   2.845   1.274   8.533 -0.4493 -0.3377 -0.5711
  258MOL0     C35532   3.460   1.744   8.752 -0.3738 -0.2185 -0.5161
  258MOL0     C35533   3.562   1.830   8.799  0.1217 -0.2886 -0.4961
  258MOL0     C35534   3.611   1.930   8.703  0.0465 -0.3666  0.2984
  258MOL0     H35535   3.961   1.730   9.213  1.8978  0.2876 -2.5272
  258MOL0     H35536   4.141   1.829   9.371 -0.2620 -1.2308  0.5046
  258MOL0     H35537   4.140   2.268   9.476  1.2751 -0.3845  0.5355
  258MOL0     H35538   4.235   2.286   9.323 -2.8438 -1.9589 -1.8739
  258MOL0     H35539   4.357   2.338   9.536 -2.4010 -0.1555  1.2826
  258MOL0     H35540   4.343   2.178   9.583 -0.0850 -0.7391 -0.9600
  258MOL0     H35541   4.496   2.105   9.413  0.0741  0.2426 -1.8761
  258MOL0     H35542   4.467   2.237   9.314 -0.5399 -2.1567 -0.8112
  258MOL0     H35543   4.603   2.381   9.469 -0.6800 -0.2728 -0.1788
  258MOL0     H35544   4.594   2.258   9.592 -0.8701  0.5389 -0.8977
  258MOL0     H35545   4.725   2.105   9.448  2.3955 -0.2444 -1.6659
  258MOL0     H35546   4.816   2.252   9.498  0.5926 -1.2901  1.0120
  258MOL0     H35547   4.663   2.233   9.233 -1.4028  0.6893  1.0817
  258MOL0     H35548   4.767   2.356   9.285  1.9884 -0.3211  0.6400
  258MOL0     H35549   4.863   2.072   9.251 -0.6336  0.1627  0.4611
  258MOL0     H35550   4.964   2.215   9.295 -1.2531  0.7719  1.3998
  258MOL0     H35551   4.790   2.222   9.043  0.5114  0.4852 -0.2650
  258MOL0     H35552   4.936   2.293   9.078 -1.8074  0.7363 -0.9890
  258MOL0     H35553   5.165   2.179   9.052  1.4320 -0.7637 -0.2609
  258MOL0     H35554   5.320   1.953   8.936 -1.8113  2.0357 -1.2642
  258MOL0     H35555   5.253   1.795   8.970  2.7578 -0.0939  0.6700
  258MOL0     H35556   5.269   1.984   9.199  0.4452  0.3929 -1.1427
  258MOL0     H35557   5.222   1.819   9.196 -0.9006 -0.3603  0.1785
  258MOL0     H35558   5.440   1.737   9.177  2.0935  0.0698 -3.6888
  258MOL0     H35559   5.506   1.865   9.095 -0.5749 -1.7668  0.0105
  258MOL0     H35560   5.461   1.909   9.397  1.8365 -0.1144  1.1302
  258MOL0     H35561   5.599   1.839   9.334 -0.0530  0.9821  0.9616
  258MOL0     H35562   5.667   2.224   9.413  0.0469 -1.5361  1.9503
  258MOL0     H35563   5.949   2.421   9.381  1.5753  0.6693  2.6790
  258MOL0     H35564   5.982   2.311   9.519 -0.0698  0.9630  0.3572
  258MOL0     H35565   5.817   2.381   9.492 -0.0194  0.1477  0.4594
  258MOL0     H35566   6.295   2.046   8.945 -1.3929 -2.2566  3.0470
  258MOL0     H35567   6.519   2.067   8.883 -0.4205 -0.6968  0.6671
  258MOL0     H35568   6.820   2.345   9.075  0.0482 -0.1095 -1.4982
  258MOL0     H35569   6.792   2.174   9.157  1.9224  1.7702  2.9001
  258MOL0     H35570   6.956   2.093   8.982  0.2301 -0.6348  0.9658
  258MOL0     H35571   6.965   2.263   8.934 -0.6519 -0.8227 -0.0425
  258MOL0     H35572   7.070   2.137   9.180  0.0939  0.9888  1.8760
  258MOL0     H35573   7.026   2.306   9.186  1.5317 -0.3591  1.4632
  258MOL0     H35574   7.210   2.351   9.016 -1.6838  0.7045  1.2300
  258MOL0     H35575   7.255   2.179   9.008  2.2088  0.3460  1.0728
  258MOL0     H35576   7.284   2.344   9.252  1.1107 -0.0941  0.2783
  258MOL0     H35577   7.294   2.170   9.231 -0.3422 -1.8261 -3.6768
  258MOL0     H35578   7.476   2.376   9.097 -0.6265 -0.0762 -1.4627
  258MOL0     H35579   7.453   2.218   9.020 -0.2495  0.3480 -0.3035
  258MOL0     H35580   7.532   2.103   9.226 -3.8334 -0.0850  4.7644
  258MOL0     H35581   7.547   2.263   9.305 -2.3649 -1.8878  0.3262
  258MOL0     H35582   7.775   2.178   9.215  0.0732 -1.7906  0.1086
  258MOL0     H35583   7.731   2.324   9.121  1.5466  0.1162 -0.6270
  258MOL0     H35584   6.600   2.320   9.226 -2.6670  0.9396  3.6107
  258MOL0     H35585   6.365   2.296   9.298 -0.2637 -0.0007  0.0165
  258MOL0     H35586   5.994   1.967   9.166 -2.1130 -2.5282 -0.6421
  258MOL0     H35587   5.759   1.907   9.147  3.2951 -1.9480  1.2329
  258MOL0     H35588   4.001   2.223   9.235  1.1883  0.5847  0.3944
  258MOL0     H35589   3.834   2.125   9.118 -2.7939  1.0317  3.8174
  258MOL0     H35590   3.632   1.656   9.091  0.8690  0.3470 -1.0275
  258MOL0     H35591   3.469   1.509   9.008  4.1730 -2.0120 -0.9829
  258MOL0     H35592   3.166   1.630   8.865 -0.1982 -0.4398  0.2873
  258MOL0     H35593   3.210   1.661   8.692 -0.3582 -2.9939 -2.2415
  258MOL0     H35594   3.107   1.394   8.802 -3.0935 -2.1745 -2.0557
  258MOL0     H35595   3.138   1.439   8.632  0.1600  0.2882  0.0112
  258MOL0     H35596   2.939   1.617   8.790 -0.0061  0.7512  0.6840
  258MOL0     H35597   2.947   1.581   8.621 -2.0945 -0.6859  0.1790
  258MOL0     H35598   2.761   1.496   8.758 -1.0256 -3.1956  0.6078
  258MOL0     H35599   2.869   1.385   8.842 -0.8536 -0.9152 -0.0782
  258MOL0     H35600   2.851   1.210   8.447  0.1892  0.6453 -1.2851
  258MOL0     H35601   3.408   1.759   8.658  0.2233  0.2578 -0.7776
  258MOL0     H35602   3.712   1.895   8.680 -0.9973 -2.5553 -1.3349
  258MOL0     H35603   3.562   1.911   8.607  0.1491 -0.1499  0.2033
  258MOL0     H35604   3.594   2.036   8.722  1.0036  0.0953 -1.3034
  259MOL0     O35605   1.321   6.946   3.532  0.4063  0.1485  0.7606
  259MOL0     C35606   1.267   6.877   3.444  0.7074  0.5774  0.2576
  259MOL0     O35607   1.335   6.816   3.345 -0.4083 -0.6363  0.6510
  259MOL0     C35608   1.458   6.861   3.319 -0.4962  0.1055 -0.2068
  259MOL0     C35609   1.489   6.956   3.219 -0.4725 -0.1922  0.6361
  259MOL0     C35610   1.620   7.004   3.207  0.1420  0.6032 -0.4308
  259MOL0     C35611   1.728   6.947   3.285 -0.1557 -0.6878  0.4202
  259MOL0     O35612   1.853   6.994   3.254  0.2885  0.3581  0.1440
  259MOL0     C35613   1.969   6.920   3.303 -0.1833  0.1194  0.6513
  259MOL0     C35614   2.096   6.963   3.223  1.5941 -0.4914  0.2677
  259MOL0     C35615   2.218   6.889   3.282  0.3580 -0.1852 -0.1842
  259MOL0     C35616   2.319   6.874   3.170  1.3194  0.4777  0.0736
  259MOL0     C35617   2.451   6.828   3.228 -1.0042  0.3428  0.5424
  259MOL0     C35618   2.574   6.863   3.134  0.0492  0.3399  0.7991
  259MOL0     C35619   2.707   6.847   3.198 -0.4273 -0.3842  0.7574
  259MOL0     C35620   2.815   6.917   3.115 -0.1595  0.5551 -0.1421
  259MOL0     N35621   2.951   6.904   3.170 -0.6303  0.0653 -0.4795
  259MOL0     C35622   3.054   6.831   3.108  0.2612 -0.0006  0.2341
  259MOL0     C35623   3.162   6.857   3.179 -0.8724 -0.1673 -0.7211
  259MOL0     C35624   3.306   6.849   3.125 -0.0481  0.4218 -0.1598
  259MOL0     C35625   3.410   6.807   3.231  0.7879 -0.4788 -0.3266
  259MOL0     C35626   3.519   6.714   3.179  0.2491 -0.5458 -0.2644
  259MOL0     C35627   3.631   6.685   3.289  0.4883 -0.0725 -0.1277
  259MOL0     O35628   3.581   6.645   3.415  0.1145  0.0700 -0.1432
  259MOL0     C35629   3.647   6.545   3.484 -0.3845 -0.1280  0.2533
  259MOL0     C35630   3.568   6.440   3.524 -0.3824  0.3777  0.3348
  259MOL0     C35631   3.623   6.316   3.556 -0.0712 -0.0173  0.9652
  259MOL0     C35632   3.529   6.200   3.587  0.9115  0.0221  0.7921
  259MOL0     C35633   3.767   6.304   3.553 -0.1254 -0.0475 -0.9083
  259MOL0     C35634   3.843   6.175   3.584 -0.2619 -0.2450 -0.2188
  259MOL0     O35635   3.980   6.185   3.559  0.3249  0.2497  0.5442
  259MOL0     C35636   4.062   6.073   3.584  1.0863 -0.1591 -0.1559
  259MOL0     C35637   4.090   6.025   3.706  0.5874  0.0428 -0.0265
  259MOL0     C35638   4.194   5.940   3.731  0.2362 -0.6829 -0.3915
  259MOL0     C35639   4.282   5.911   3.622 -0.2487  0.4052  0.5577
  259MOL0     O35640   4.391   5.831   3.620  0.4057  0.0488 -0.1022
  259MOL0     C35641   4.397   5.736   3.726  0.8464 -0.3087 -0.6714
  259MOL0     C35642   4.511   5.641   3.686  0.8053 -0.6638 -0.2771
  259MOL0     C35643   4.658   5.686   3.732  0.2086  0.1403  0.4285
  259MOL0     C35644   4.762   5.574   3.715 -0.8564  0.8045 -0.0690
  259MOL0     C35645   4.912   5.634   3.721  0.4860  0.2440  0.3622
  259MOL0     C35646   5.008   5.522   3.730  0.2586  0.0244  0.1125
  259MOL0     C35647   5.158   5.567   3.723  0.8767  0.9065  0.1561
  259MOL0     C35648   5.231   5.436   3.680 -0.3974 -0.1693  0.6531
  259MOL0    Cl35649   5.211   5.310   3.808 -0.3346 -0.6837 -0.5742
  259MOL0     C35650   4.253   5.961   3.494 -0.1222 -0.1020  0.4501
  259MOL0     C35651   4.146   6.048   3.482  0.1407  0.4745  0.4618
  259MOL0     O35652   3.786   6.068   3.606 -0.0783  0.2492  0.5076
  259MOL0     C35653   3.847   6.418   3.526  0.5621 -1.1722 -0.0808
  259MOL0     C35654   3.791   6.534   3.478 -0.0695 -0.0248  0.5270
  259MOL0     N35655   3.127   6.933   3.285 -0.3628 -0.0217  0.5844
  259MOL0     N35656   3.003   6.970   3.273  0.2779  0.8651 -0.1973
  259MOL0     C35657   1.698   6.844   3.373 -0.3194  0.7908 -0.0230
  259MOL0     C35658   1.559   6.803   3.394  0.4435  0.2648 -0.2269
  259MOL0     C35659   1.118   6.885   3.442 -0.2469  0.1446 -0.0974
  259MOL0     C35660   1.041   6.986   3.504  0.1805 -0.6852  0.0512
  259MOL0     C35661   0.896   6.989   3.484 -0.4677  0.0436 -0.6064
  259MOL0     C35662   0.831   6.890   3.419  0.0908 -0.8712 -0.2113
  259MOL0     O35663   0.694   6.887   3.381 -0.2414  0.3781 -0.1873
  259MOL0     C35664   0.615   6.997   3.426 -0.3652  0.6533  0.1274
  259MOL0     C35665   0.500   6.999   3.337 -0.3267  0.2419 -0.0021
  259MOL0     C35666   0.421   6.866   3.361 -0.2115 -0.4933  0.1023
  259MOL0     C35667   0.273   6.895   3.396 -0.6916 -0.2130  0.9075
  259MOL0     C35668   0.248   6.842   3.530 -0.0401 -0.3646 -0.6058
  259MOL0     C35669   0.214   6.804   3.643  0.1345  0.3792  0.5580
  259MOL0     C35670   0.899   6.782   3.372 -0.2210 -0.7651  0.7203
  259MOL0     C35671   1.041   6.775   3.383  0.5729 -0.3334 -0.2221
  259MOL0     C35672   1.108   6.652   3.315  0.8997 -0.4468 -0.7325
  259MOL0     H35673   1.414   7.005   3.158  1.7846  5.7127  1.9227
  259MOL0     H35674   1.656   7.077   3.136  1.5391  0.4934  0.1456
  259MOL0     H35675   1.963   6.815   3.273 -1.4255  0.4582 -0.3575
  259MOL0     H35676   1.978   6.945   3.409 -4.7181  3.9860  0.4311
  259MOL0     H35677   2.080   6.943   3.117 -2.1023  0.2097  0.5385
  259MOL0     H35678   2.094   7.072   3.229 -4.2548 -0.3198  1.9311
  259MOL0     H35679   2.271   6.934   3.366 -0.2550 -1.2496  0.7832
  259MOL0     H35680   2.204   6.788   3.321  0.2347 -0.8802 -1.9322
  259MOL0     H35681   2.284   6.799   3.100  2.9747 -1.6196  1.3758
  259MOL0     H35682   2.336   6.973   3.126  1.2888  0.9957  1.1759
  259MOL0     H35683   2.440   6.722   3.255  0.7903  0.5160  2.2586
  259MOL0     H35684   2.471   6.886   3.319  0.5392 -0.7967  0.9802
  259MOL0     H35685   2.571   6.816   3.035 -0.4608  0.1340  0.9094
  259MOL0     H35686   2.578   6.972   3.126  2.3286  0.1752 -2.7298
  259MOL0     H35687   2.735   6.745   3.224 -0.2888  0.2987  3.6277
  259MOL0     H35688   2.701   6.896   3.296  0.4142  2.1567 -0.3571
  259MOL0     H35689   2.808   6.883   3.011  1.5721 -0.4198  0.0144
  259MOL0     H35690   2.794   7.024   3.109 -0.5758  0.3998 -2.2351
  259MOL0     H35691   3.051   6.787   3.009 -0.4461 -0.7913  0.5977
  259MOL0     H35692   3.331   6.946   3.080 -2.4720  1.1843 -0.0535
  259MOL0     H35693   3.298   6.768   3.052 -0.0129  2.1451 -2.1887
  259MOL0     H35694   3.446   6.899   3.277  0.8411 -0.6334 -0.0577
  259MOL0     H35695   3.357   6.743   3.302 -0.4789  0.5302 -0.3265
  259MOL0     H35696   3.482   6.622   3.134 -1.7506  0.9761 -1.9329
  259MOL0     H35697   3.567   6.759   3.091  3.2904  0.3460  1.6701
  259MOL0     H35698   3.693   6.602   3.255  0.3818 -0.2705  0.1565
  259MOL0     H35699   3.709   6.760   3.305  0.0372  0.6059 -1.0270
  259MOL0     H35700   3.461   6.451   3.510 -0.9713 -0.5995  3.3412
  259MOL0     H35701   3.552   6.166   3.689 -0.2158  0.8392  1.3400
  259MOL0     H35702   3.547   6.120   3.515 -2.0197  0.6912 -0.8725
  259MOL0     H35703   3.423   6.227   3.586  1.2825  1.7093  2.1618
  259MOL0     H35704   4.037   6.064   3.792  0.9264  0.1680  0.1282
  259MOL0     H35705   4.207   5.903   3.833  0.4926  0.1746 -0.1038
  259MOL0     H35706   4.422   5.795   3.814  2.0440  1.6533 -2.2428
  259MOL0     H35707   4.302   5.682   3.734  0.8754 -0.4917 -1.4917
  259MOL0     H35708   4.486   5.556   3.751 -1.2499  1.1675  1.5169
  259MOL0     H35709   4.498   5.606   3.583  1.0302  1.8169 -1.2041
  259MOL0     H35710   4.662   5.734   3.830  2.5363  0.7611  0.0972
  259MOL0     H35711   4.688   5.763   3.660  3.8086 -2.0348 -0.6413
  259MOL0     H35712   4.752   5.515   3.623  4.0886 -1.4301  0.4971
  259MOL0     H35713   4.745   5.504   3.797 -4.3067  2.3613  0.7142
  259MOL0     H35714   4.932   5.703   3.639  1.6167  1.2237  1.4114
  259MOL0     H35715   4.912   5.697   3.811 -1.2030  0.4376  0.2575
  259MOL0     H35716   4.989   5.453   3.647  0.9888  0.7019 -0.6443
  259MOL0     H35717   4.995   5.462   3.820 -1.0361 -0.4811 -0.3826
  259MOL0     H35718   5.209   5.595   3.816 -0.8165 -1.3476  1.8691
  259MOL0     H35719   5.164   5.646   3.647  0.8606  2.9596  2.1883
  259MOL0     H35720   5.335   5.464   3.666 -0.3654 -1.5752 -3.7041
  259MOL0     H35721   5.190   5.405   3.583  0.6208  2.4062 -0.6796
  259MOL0     H35722   4.317   5.959   3.406 -1.6523 -0.6776 -0.6888
  259MOL0     H35723   4.135   6.094   3.384  2.3263 -0.4850 -0.3075
  259MOL0     H35724   3.954   6.406   3.514  0.3508 -2.0100 -1.3436
  259MOL0     H35725   3.851   6.617   3.445  0.3141  0.1996  1.7219
  259MOL0     H35726   1.768   6.792   3.438 -0.0263 -0.1945 -1.0796
  259MOL0     H35727   1.534   6.726   3.466  1.8764 -0.5578 -0.5750
  259MOL0     H35728   1.089   7.061   3.565 -0.5132 -1.2999  1.3820
  259MOL0     H35729   0.844   7.076   3.522  0.1359 -0.1042  0.6079
  259MOL0     H35730   0.591   6.992   3.532  0.3164  4.8511  0.6738
  259MOL0     H35731   0.665   7.092   3.404 -1.4698  1.0979 -0.5271
  259MOL0     H35732   0.522   7.006   3.230 -0.4799  0.4460 -0.0228
  259MOL0     H35733   0.454   7.096   3.360 -0.0859  0.1330  0.9713
  259MOL0     H35734   0.437   6.809   3.269  0.9265  0.0767 -0.0769
  259MOL0     H35735   0.472   6.812   3.441  0.3899  2.1457  1.6190
  259MOL0     H35736   0.211   6.846   3.321  2.1200 -1.5695 -0.7355
  259MOL0     H35737   0.256   7.002   3.400  1.3045  0.3569 -2.3654
  259MOL0     H35738   0.190   6.766   3.740 -0.0208  0.0879  0.4083
  259MOL0     H35739   0.844   6.701   3.324 -1.0919 -0.3006  0.9137
  259MOL0     H35740   1.130   6.690   3.214  0.7835  3.5677  0.5560
  259MOL0     H35741   1.192   6.628   3.381 -0.8823  1.4513  2.4972
  259MOL0     H35742   1.057   6.556   3.302  3.0914 -1.7575 -0.1244
  260MOL0     O35743   3.650  11.293   6.938 -0.1197 -0.7726 -0.4899
  260MOL0     C35744   3.636  11.400   6.883  0.3821 -1.2534 -0.4047
  260MOL0     O35745   3.734  11.468   6.814 -0.5367 -0.1460 -0.6566
  260MOL0     C35746   3.865  11.422   6.809 -0.1527  1.0634 -0.7221
  260MOL0     C35747   3.905  11.325   6.726 -0.2879 -0.0618  0.4012
  260MOL0     C35748   4.036  11.287   6.705  0.0661  0.6179  0.1459
  260MOL0     C35749   4.136  11.357   6.768  0.2814 -0.4287  0.2871
  260MOL0     O35750   4.265  11.328   6.747  0.0041  0.0631 -0.1070
  260MOL0     C35751   4.371  11.412   6.801  0.9138 -0.2769  0.4948
  260MOL0     C35752   4.505  11.348   6.766  1.0154 -0.2140 -0.4336
  260MOL0     C35753   4.632  11.423   6.808  0.2956  0.5074  0.3169
  260MOL0     C35754   4.699  11.374   6.935 -0.1280  0.4856 -0.9644
  260MOL0     C35755   4.853  11.383   6.915  0.4324 -0.2973 -0.4602
  260MOL0     C35756   4.927  11.269   6.829  0.2706  0.4481 -0.3954
  260MOL0     C35757   5.064  11.240   6.879 -1.6402  0.0061 -1.3630
  260MOL0     C35758   5.158  11.365   6.850 -0.0102 -0.3173  0.6610
  260MOL0     N35759   5.287  11.364   6.925  0.2204 -0.0977  0.0369
  260MOL0     C35760   5.320  11.450   7.028 -0.0808  0.4971 -0.0293
  260MOL0     C35761   5.440  11.411   7.063 -0.7245  0.8723 -0.7617
  260MOL0     C35762   5.522  11.478   7.170  0.5626  1.1031 -0.0481
  260MOL0     C35763   5.519  11.628   7.154 -0.7379 -0.5397 -0.2394
  260MOL0     C35764   5.625  11.692   7.254 -0.3437 -0.3105  0.2529
  260MOL0     C35765   5.769  11.704   7.190  0.3856 -0.2472  0.4155
  260MOL0     O35766   5.755  11.794   7.085  0.1656 -0.1088  0.1805
  260MOL0     C35767   5.860  11.805   7.011 -0.0404  0.0546 -0.2223
  260MOL0     C35768   5.850  11.800   6.874  0.1774  0.0408  0.3533
  260MOL0     C35769   5.959  11.811   6.790  0.4240 -0.0465 -0.7402
  260MOL0     C35770   5.924  11.813   6.641  0.3329  0.4228  0.4339
  260MOL0     C35771   6.088  11.827   6.839  0.4200  1.1959 -0.4983
  260MOL0     C35772   6.205  11.851   6.751 -0.3071  0.5493 -0.2755
  260MOL0     O35773   6.198  11.952   6.662 -0.7981 -0.0446  0.6122
  260MOL0     C35774   6.317  11.969   6.595  0.0248 -0.3990 -0.3207
  260MOL0     C35775   6.349  11.886   6.481  0.5877  0.2129 -0.0222
  260MOL0     C35776   6.468  11.902   6.411 -0.4664 -0.6468 -0.6259
  260MOL0     C35777   6.557  11.999   6.450  0.4479 -0.1080 -0.3154
  260MOL0     O35778   6.677  12.002   6.379 -0.5163  0.4640 -0.5495
  260MOL0     C35779   6.778  12.089   6.442  0.5298 -0.4769  0.4322
  260MOL0     C35780   6.914  12.102   6.380 -0.6489 -1.1531  0.1774
  260MOL0     C35781   6.919  12.194   6.257  0.1884 -0.4501  0.4800
  260MOL0     C35782   7.042  12.170   6.168  0.3024 -0.1078 -0.5257
  260MOL0     C35783   7.184  12.174   6.227  0.2975 -0.1588  0.4960
  260MOL0     C35784   7.208  12.309   6.290  0.0618  1.4274 -1.0094
  260MOL0     C35785   7.363  12.303   6.341  0.2601  0.1232  0.1819
  260MOL0     C35786   7.415  12.440   6.392  0.1086  0.6192 -0.4348
  260MOL0    Cl35787   7.593  12.430   6.405 -0.4415  0.1062 -0.2608
  260MOL0     C35788   6.525  12.081   6.556  0.3806  0.1489 -0.4128
  260MOL0     C35789   6.407  12.066   6.627  0.2116 -0.2942  0.6073
  260MOL0     O35790   6.306  11.785   6.788  0.2056  0.4096  0.5114
  260MOL0     C35791   6.104  11.812   6.978 -0.0296 -0.3592 -0.0810
  260MOL0     C35792   5.989  11.807   7.060  0.8365  0.4842  0.8223
  260MOL0     N35793   5.483  11.312   6.975 -0.2040  0.9829  0.1542
  260MOL0     N35794   5.385  11.275   6.903 -0.5528  0.4486 -0.0962
  260MOL0     C35795   4.092  11.450   6.872 -0.3135  0.3282 -0.0294
  260MOL0     C35796   3.961  11.487   6.884  0.1335 -0.2374  0.2544
  260MOL0     C35797   3.499  11.458   6.886  0.8848 -0.1807  0.0208
  260MOL0     C35798   3.433  11.454   7.009  0.3848 -0.3513 -0.2084
  260MOL0     C35799   3.300  11.498   7.027 -1.0265 -0.4099  1.1731
  260MOL0     C35800   3.239  11.546   6.905 -0.8095 -0.3310  0.0752
  260MOL0     O35801   3.113  11.594   6.914  0.8031 -0.1455 -0.3330
  260MOL0     C35802   3.034  11.630   6.797  0.1920 -0.0091  0.6407
  260MOL0     C35803   2.886  11.638   6.813  0.0960  0.6025  0.2048
  260MOL0     C35804   2.846  11.759   6.899 -0.3179 -0.8186  0.6153
  260MOL0     C35805   2.688  11.755   6.920  0.3203 -0.4572 -0.6269
  260MOL0     C35806   2.627  11.623   6.951 -0.1167  0.8424  0.0824
  260MOL0     C35807   2.564  11.521   6.968  0.3367  0.5408  0.8738
  260MOL0     C35808   3.306  11.549   6.780 -0.7671  0.3154  0.1076
  260MOL0     C35809   3.436  11.507   6.770 -0.1097  0.0755 -0.6691
  260MOL0     C35810   3.506  11.526   6.639  0.5898 -0.5224 -0.3448
  260MOL0     H35811   3.832  11.286   6.655  1.4257 -1.8767 -0.4623
  260MOL0     H35812   4.049  11.215   6.625 -1.7605  1.7199 -1.2127
  260MOL0     H35813   4.364  11.426   6.910 -2.3256 -0.0695  0.3487
  260MOL0     H35814   4.369  11.508   6.750  2.6684 -0.4059  0.1330
  260MOL0     H35815   4.503  11.245   6.803  2.7627 -1.7048 -3.9908
  260MOL0     H35816   4.512  11.347   6.657 -0.4160  1.8771 -0.6002
  260MOL0     H35817   4.697  11.413   6.720  0.5513 -3.8216  0.7596
  260MOL0     H35818   4.611  11.528   6.828 -2.7523  0.2458 -0.9964
  260MOL0     H35819   4.670  11.445   7.013 -0.1865 -0.7915  0.2335
  260MOL0     H35820   4.655  11.278   6.966  2.2945 -0.1927  0.6488
  260MOL0     H35821   4.888  11.375   7.019 -3.9755 -0.9911  1.2109
  260MOL0     H35822   4.886  11.481   6.880  0.1821 -0.2257 -0.4971
  260MOL0     H35823   4.872  11.175   6.825  0.0302  0.6278 -2.3007
  260MOL0     H35824   4.940  11.307   6.728  2.1949  0.8034 -0.0650
  260MOL0     H35825   5.106  11.149   6.835 -0.3731  0.1935 -0.6014
  260MOL0     H35826   5.068  11.229   6.988 -0.3534  2.0390 -1.1254
  260MOL0     H35827   5.200  11.360   6.749  2.4097  3.6246  1.2606
  260MOL0     H35828   5.091  11.451   6.853 -0.9150 -0.8320 -1.9287
  260MOL0     H35829   5.268  11.530   7.080 -2.5965 -0.1125 -1.4324
  260MOL0     H35830   5.623  11.437   7.173  0.6192  1.2888  0.8012
  260MOL0     H35831   5.480  11.454   7.268 -0.4844  1.2433 -0.4498
  260MOL0     H35832   5.523  11.663   7.051 -0.9599  1.0970  0.2896
  260MOL0     H35833   5.425  11.674   7.184  1.0512  4.1688 -1.0174
  260MOL0     H35834   5.588  11.787   7.293  3.5482  0.3199  3.0482
  260MOL0     H35835   5.624  11.635   7.347 -3.3305  0.3529  0.7267
  260MOL0     H35836   5.828  11.741   7.274  0.7710  0.5798 -0.2055
  260MOL0     H35837   5.813  11.608   7.164  0.1272 -1.3948  3.7396
  260MOL0     H35838   5.749  11.793   6.835 -0.1520 -1.2486  1.3926
  260MOL0     H35839   5.911  11.709   6.608 -0.4861  0.5783  0.2497
  260MOL0     H35840   5.999  11.860   6.577 -2.9519  2.7334 -2.0242
  260MOL0     H35841   5.838  11.879   6.630 -0.6689 -0.9294 -0.1863
  260MOL0     H35842   6.285  11.805   6.448 -0.5895  1.3465 -0.5871
  260MOL0     H35843   6.493  11.835   6.330 -0.5612  0.6008 -1.7148
  260MOL0     H35844   6.737  12.189   6.453  2.1636  0.2839 -0.0777
  260MOL0     H35845   6.786  12.051   6.544 -6.3339 -0.6005  1.3842
  260MOL0     H35846   6.976  12.162   6.447 -0.3301  0.0971 -1.1841
  260MOL0     H35847   6.962  12.003   6.371  1.3653 -0.6370  3.4916
  260MOL0     H35848   6.920  12.294   6.301 -0.3809  0.5526 -1.6550
  260MOL0     H35849   6.828  12.179   6.198 -0.2458 -1.3263  1.3567
  260MOL0     H35850   7.035  12.253   6.097  2.6408  0.0895 -0.6058
  260MOL0     H35851   7.028  12.077   6.113  0.2282 -0.0447 -0.6120
  260MOL0     H35852   7.200  12.088   6.293 -1.3530  0.4913  1.7973
  260MOL0     H35853   7.253  12.173   6.142 -1.3652 -0.1392 -0.9043
  260MOL0     H35854   7.150  12.312   6.383 -0.4829  0.8439 -1.3198
  260MOL0     H35855   7.189  12.399   6.230  1.6641  1.2234 -1.8701
  260MOL0     H35856   7.413  12.260   6.254 -2.1676 -3.8566  0.4739
  260MOL0     H35857   7.380  12.216   6.406  0.9742 -1.0576 -1.5176
  260MOL0     H35858   7.375  12.476   6.488  2.3259 -0.1858  0.8632
  260MOL0     H35859   7.401  12.513   6.312  1.6700 -0.3544 -1.6584
  260MOL0     H35860   6.595  12.133   6.620  1.3947 -2.5559  0.8327
  260MOL0     H35861   6.380  12.130   6.711 -1.6668 -1.3891  0.8892
  260MOL0     H35862   6.201  11.814   7.027 -0.4084  1.0817  0.6609
  260MOL0     H35863   6.000  11.805   7.167 -1.3050  1.4837  1.1281
  260MOL0     H35864   4.164  11.500   6.937  1.4225 -1.0189 -0.8168
  260MOL0     H35865   3.937  11.575   6.943  0.7918  0.3881 -0.3969
  260MOL0     H35866   3.481  11.405   7.094 -1.8043 -0.9070  0.7865
  260MOL0     H35867   3.235  11.484   7.112 -3.6057  1.5318 -0.3192
  260MOL0     H35868   3.065  11.726   6.755 -0.4946  0.3914  1.0313
  260MOL0     H35869   3.040  11.559   6.714 -2.6389  0.2377  0.1136
  260MOL0     H35870   2.853  11.543   6.856 -0.5750 -0.1816 -1.9371
  260MOL0     H35871   2.840  11.643   6.714 -0.4029 -1.6385  0.2772
  260MOL0     H35872   2.898  11.757   6.995  1.2882 -0.0307 -0.2003
  260MOL0     H35873   2.871  11.853   6.847 -0.3744 -1.0476  0.1650
  260MOL0     H35874   2.641  11.792   6.828 -0.8577  4.0014  1.5233
  260MOL0     H35875   2.657  11.832   6.991  0.5669 -1.4934  0.6401
  260MOL0     H35876   2.499  11.439   6.992 -1.6543  1.5886 -0.6007
  260MOL0     H35877   3.260  11.588   6.690 -0.8802  2.2561  0.9582
  260MOL0     H35878   3.557  11.432   6.614 -2.3918 -2.5531  0.6103
  260MOL0     H35879   3.430  11.544   6.563  2.1730 -0.2067 -1.9076
  260MOL0     H35880   3.582  11.604   6.642  0.6845 -0.5391 -1.8083
  261MOL0     O35881   0.556   7.527   0.153 -0.0303 -0.5051 -0.3803
  261MOL0     C35882   0.569   7.604   0.251 -0.0316 -0.7055  1.1405
  261MOL0     O35883   0.696   7.651   0.300 -0.0060 -0.4620 -0.7071
  261MOL0     C35884   0.809   7.601   0.253 -0.0402  0.1519  0.5032
  261MOL0     C35885   0.834   7.588   0.114 -0.1949 -0.6315  0.0126
  261MOL0     C35886   0.965   7.568   0.069 -0.8299 -0.7619 -0.5794
  261MOL0     C35887   1.068   7.535   0.160 -0.1766 -0.6871  1.0252
  261MOL0     O35888   1.190   7.512   0.123 -0.9544 -0.1750 -0.0085
  261MOL0     C35889   1.241   7.594   0.007  0.6773  0.7257 -0.3202
  261MOL0     C35890   1.391   7.614   0.017  0.7823 -0.8671  0.4947
  261MOL0     C35891   1.476   7.515   0.093  0.5670  0.1623 -0.5100
  261MOL0     C35892   1.631   7.549   0.105 -0.8382  0.2047 -0.2926
  261MOL0     C35893   1.710   7.437   0.169 -0.3098  0.5278  0.0569
  261MOL0     C35894   1.853   7.448   0.134 -0.0543 -0.7452 -1.0703
  261MOL0     C35895   1.934   7.340   0.211  0.1553 -0.4886  0.2556
  261MOL0     C35896   2.068   7.313   0.146 -1.0204  0.0339 -0.2723
  261MOL0     N35897   2.130   7.222   0.236  0.3123  0.0582  0.0180
  261MOL0     C35898   2.163   7.096   0.208  0.5370 -0.5821 -0.7937
  261MOL0     C35899   2.224   7.043   0.318 -0.3836  1.2131  0.3139
  261MOL0     C35900   2.283   6.907   0.351 -0.2266 -0.3496  0.1031
  261MOL0     C35901   2.434   6.895   0.319  0.0983 -0.4368  0.1571
  261MOL0     C35902   2.507   6.788   0.397 -0.3387  0.0548  0.1397
  261MOL0     C35903   2.645   6.764   0.331  0.2639 -0.1992 -0.6832
  261MOL0     O35904   2.713   6.657   0.396  0.4907 -0.1333 -0.1322
  261MOL0     C35905   2.839   6.650   0.379 -1.1603  0.4035  1.0668
  261MOL0     C35906   2.919   6.605   0.486  0.5356  0.7274  0.3007
  261MOL0     C35907   3.056   6.582   0.484 -0.0996 -0.1398  0.5749
  261MOL0     C35908   3.120   6.541   0.612  0.2087  0.0094  0.4008
  261MOL0     C35909   3.121   6.584   0.358 -0.2750  0.3913  1.1755
  261MOL0     C35910   3.262   6.540   0.323 -0.3938  0.2709 -0.3817
  261MOL0     O35911   3.367   6.529   0.414 -0.1701 -1.0668 -0.3338
  261MOL0     C35912   3.484   6.467   0.378 -0.2441  0.0894 -0.3716
  261MOL0     C35913   3.596   6.540   0.393 -0.4996  0.5394 -0.5821
  261MOL0     C35914   3.725   6.477   0.364  0.1077  0.0951  0.3569
  261MOL0     C35915   3.728   6.345   0.310 -0.0783 -0.1213  0.4233
  261MOL0     O35916   3.841   6.278   0.268 -0.0396 -0.1710 -0.2814
  261MOL0     C35917   3.950   6.361   0.218 -0.1774 -0.7524  0.7486
  261MOL0     C35918   3.956   6.372   0.063  0.4293  0.0991 -0.0291
  261MOL0     C35919   3.831   6.439  -0.000 -0.6081 -0.7305 -0.3791
  261MOL0     C35920   3.848   6.586   0.032 -0.1332  0.0473 -0.0412
  261MOL0     C35921   3.764   6.671  -0.052  0.4985  0.1932  1.3339
  261MOL0     C35922   3.628   6.658   0.008  0.3182 -0.1038 -0.6595
  261MOL0     C35923   3.524   6.751  -0.061  0.8628  0.2045 -0.1869
  261MOL0     C35924   3.386   6.725  -0.007  0.8366  0.0667 -0.1396
  261MOL0    Cl35925   3.265   6.802  -0.126 -0.4221 -0.0268  0.3325
  261MOL0     C35926   3.611   6.269   0.315  1.6866 -0.7771 -0.2060
  261MOL0     C35927   3.490   6.325   0.346 -0.4389 -0.0525 -0.2750
  261MOL0     O35928   3.272   6.502   0.207  0.0168 -0.3186  0.3817
  261MOL0     C35929   3.045   6.630   0.244  0.3217  0.0467 -0.5820
  261MOL0     C35930   2.908   6.653   0.256  0.3889 -0.2433  0.3582
  261MOL0     N35931   2.257   7.150   0.399  0.1183  0.5988  0.8475
  261MOL0     N35932   2.200   7.252   0.354  0.9082 -0.1250  0.2186
  261MOL0     C35933   1.039   7.531   0.301 -1.0442 -0.1884  0.6346
  261MOL0     C35934   0.912   7.566   0.341 -0.4625 -0.2045  0.4774
  261MOL0     C35935   0.438   7.661   0.310 -0.5616  0.8221 -0.2304
  261MOL0     C35936   0.445   7.679   0.448  0.2215  0.1301  0.4969
  261MOL0     C35937   0.328   7.706   0.518 -0.0912 -0.7094  0.0064
  261MOL0     C35938   0.218   7.751   0.445  0.3284  0.6410 -0.7756
  261MOL0     O35939   0.106   7.805   0.511  0.0013  0.0877 -0.7846
  261MOL0     C35940   0.138   7.915   0.598  0.5466 -0.1858 -0.6147
  261MOL0     C35941   0.012   7.948   0.685 -0.4812 -0.1751 -0.1080
  261MOL0     C35942  -0.097   8.025   0.619 -0.0805  0.0784 -0.0797
  261MOL0     C35943  -0.217   8.041   0.718 -0.2219  0.2940  0.4210
  261MOL0     C35944  -0.268   7.918   0.788 -0.0099  0.0491  0.0167
  261MOL0     C35945  -0.303   7.815   0.848 -0.1709 -0.2549  0.6383
  261MOL0     C35946   0.210   7.730   0.310 -0.6438 -0.1062 -1.0017
  261MOL0     C35947   0.316   7.676   0.232 -0.7222  0.4463 -0.6403
  261MOL0     C35948   0.295   7.654   0.089 -0.0536 -0.2320  0.3257
  261MOL0     H35949   0.747   7.600   0.051  0.4713 -0.6844 -0.9395
  261MOL0     H35950   0.996   7.575  -0.035  3.1477 -1.3600  0.4199
  261MOL0     H35951   1.196   7.693   0.007  0.5723  0.7077  1.5343
  261MOL0     H35952   1.212   7.537  -0.082  0.3528  0.3260  0.0396
  261MOL0     H35953   1.438   7.613  -0.082  0.1112  2.0443  0.0509
  261MOL0     H35954   1.403   7.719   0.047 -0.1027 -0.1814 -1.3881
  261MOL0     H35955   1.431   7.520   0.193 -1.0908  0.9608 -1.2621
  261MOL0     H35956   1.471   7.414   0.052 -0.4881  0.6174 -1.5806
  261MOL0     H35957   1.666   7.581   0.007 -0.0674 -1.1750 -0.4933
  261MOL0     H35958   1.639   7.637   0.169 -1.5418  1.8012 -2.3035
  261MOL0     H35959   1.674   7.339   0.137 -3.4270  1.8007 -0.7104
  261MOL0     H35960   1.713   7.456   0.276 -1.5313  2.6149 -0.2280
  261MOL0     H35961   1.865   7.439   0.026 -0.7630 -1.0523 -1.1309
  261MOL0     H35962   1.896   7.542   0.170  0.8599 -1.1550 -1.0631
  261MOL0     H35963   1.879   7.246   0.207  1.2430 -1.0972 -1.2506
  261MOL0     H35964   1.947   7.362   0.318  1.3222 -3.2296  0.7659
  261MOL0     H35965   2.067   7.283   0.041  0.6198 -1.5337  0.1236
  261MOL0     H35966   2.126   7.405   0.154  1.2174 -1.3852  0.6958
  261MOL0     H35967   2.126   7.041   0.122 -2.4706  0.7017 -0.4460
  261MOL0     H35968   2.218   6.826   0.316  0.9321 -1.5213  0.5946
  261MOL0     H35969   2.278   6.882   0.458 -1.7940 -1.8337 -0.2662
  261MOL0     H35970   2.438   6.874   0.211  0.8624 -0.3752  0.1699
  261MOL0     H35971   2.480   6.993   0.337  0.2564 -0.2700 -1.0097
  261MOL0     H35972   2.512   6.817   0.502 -0.3462 -0.2351  0.2206
  261MOL0     H35973   2.461   6.689   0.400  0.8925 -0.6927 -2.3853
  261MOL0     H35974   2.646   6.737   0.225  2.5168 -0.2784 -0.6806
  261MOL0     H35975   2.699   6.859   0.337 -0.4939  0.2194 -0.2837
  261MOL0     H35976   2.875   6.581   0.582  2.4277 -1.9377  0.5975
  261MOL0     H35977   3.141   6.434   0.608 -1.3988 -0.2745 -1.4258
  261MOL0     H35978   3.064   6.559   0.705 -2.1801  0.6460 -1.0814
  261MOL0     H35979   3.215   6.596   0.625 -0.7004  1.9241 -0.6448
  261MOL0     H35980   3.587   6.638   0.439 -2.4433 -1.4557  3.9146
  261MOL0     H35981   3.819   6.530   0.381  1.5714 -2.2940  0.1920
  261MOL0     H35982   3.959   6.462   0.259  4.0701 -0.4748 -0.4938
  261MOL0     H35983   4.047   6.329   0.256  0.7153  1.5955  0.6322
  261MOL0     H35984   4.051   6.412   0.027 -0.9143  1.0450 -2.8007
  261MOL0     H35985   3.957   6.265   0.037  3.1215 -0.6009  2.4368
  261MOL0     H35986   3.741   6.399   0.047 -0.0693 -0.8490  0.5661
  261MOL0     H35987   3.840   6.426  -0.109  1.9238 -0.5557 -0.2578
  261MOL0     H35988   3.951   6.618   0.010  0.4350  0.1552  2.5341
  261MOL0     H35989   3.826   6.601   0.138 -1.4143  0.4272 -0.3438
  261MOL0     H35990   3.802   6.773  -0.059  2.1865 -0.3874  1.4843
  261MOL0     H35991   3.763   6.638  -0.157 -0.5214  0.5263  1.2333
  261MOL0     H35992   3.636   6.683   0.114  3.3903  2.6875 -1.4081
  261MOL0     H35993   3.595   6.554  -0.005 -0.9565 -0.0813  1.8063
  261MOL0     H35994   3.534   6.731  -0.168  2.8409  0.0427 -0.0213
  261MOL0     H35995   3.552   6.856  -0.046 -3.3364  2.1421 -3.6424
  261MOL0     H35996   3.367   6.770   0.091 -0.8891 -2.6124  0.8682
  261MOL0     H35997   3.359   6.619  -0.005 -1.0278  0.4751  2.6846
  261MOL0     H35998   3.609   6.166   0.281  1.5857 -0.3726 -1.4847
  261MOL0     H35999   3.405   6.259   0.357  0.3609 -1.4526 -2.1590
  261MOL0     H36000   3.103   6.639   0.153  2.2052 -5.6141 -0.3573
  261MOL0     H36001   2.853   6.672   0.165  1.8800  1.4998 -0.2655
  261MOL0     H36002   1.117   7.503   0.371 -1.3979  0.4691  1.3216
  261MOL0     H36003   0.883   7.575   0.446  2.7655 -2.9215  1.8277
  261MOL0     H36004   0.532   7.652   0.506  1.9208  0.5843 -1.7386
  261MOL0     H36005   0.332   7.699   0.626 -1.7080 -2.0573  0.0204
  261MOL0     H36006   0.211   7.888   0.675  0.1663 -0.1430 -0.2331
  261MOL0     H36007   0.178   8.002   0.545 -1.1890 -0.1328 -1.9181
  261MOL0     H36008   0.040   8.003   0.775 -3.2297 -0.4749  1.0342
  261MOL0     H36009  -0.026   7.852   0.722 -0.0673 -0.3282 -0.0707
  261MOL0     H36010  -0.053   8.123   0.597 -0.2279 -0.2909 -2.1734
  261MOL0     H36011  -0.132   7.980   0.526  2.9693 -0.4297 -1.0877
  261MOL0     H36012  -0.303   8.080   0.663  2.0222  0.1094 -3.5786
  261MOL0     H36013  -0.183   8.107   0.798  0.6636 -1.0422  1.1892
  261MOL0     H36014  -0.308   7.720   0.896  3.6089 -2.0406 -1.9410
  261MOL0     H36015   0.124   7.770   0.257  0.0012  5.8711  1.6061
  261MOL0     H36016   0.210   7.717   0.062 -1.2943 -0.4151  3.4704
  261MOL0     H36017   0.382   7.677   0.025 -0.7630  4.7554  0.7422
  261MOL0     H36018   0.257   7.554   0.066  0.5555 -0.2565 -0.6667
  262MOL0     O36019   3.336   9.522   7.656 -0.3084 -0.3417 -0.3708
  262MOL0     C36020   3.338   9.411   7.703 -0.5663  0.0313 -0.3180
  262MOL0     O36021   3.436   9.367   7.789  0.3611  0.8692  0.2466
  262MOL0     C36022   3.551   9.433   7.812  0.4240  0.2471 -0.7939
  262MOL0     C36023   3.584   9.460   7.947  0.8871 -0.3041 -0.1314
  262MOL0     C36024   3.695   9.524   7.977 -0.5887 -1.0275 -0.4457
  262MOL0     C36025   3.787   9.556   7.876  1.2456  0.5558 -0.7546
  262MOL0     O36026   3.896   9.617   7.912  0.2189 -0.0698  0.4859
  262MOL0     C36027   3.992   9.547   7.992  0.4286 -0.5989  0.1942
  262MOL0     C36028   4.114   9.644   7.974  0.2840  0.8937  0.0998
  262MOL0     C36029   4.248   9.593   8.037  0.4188  0.6740 -0.5265
  262MOL0     C36030   4.367   9.668   7.979  1.1094  0.4462 -0.0667
  262MOL0     C36031   4.495   9.613   8.046 -0.0276 -0.0383 -0.2957
  262MOL0     C36032   4.632   9.641   7.974  0.3481 -0.6437  0.0303
  262MOL0     C36033   4.663   9.549   7.854  0.3523 -0.0517 -0.8198
  262MOL0     C36034   4.805   9.591   7.804  0.6285  0.3084  0.2934
  262MOL0     N36035   4.922   9.526   7.866 -0.5002  0.2191  0.2088
  262MOL0     C36036   5.000   9.570   7.974  0.8879  0.6791 -0.0132
  262MOL0     C36037   5.090   9.469   7.992 -0.4734  0.4330  0.0665
  262MOL0     C36038   5.199   9.481   8.095 -0.2268  0.3157 -0.0662
  262MOL0     C36039   5.322   9.533   8.022 -0.2098 -0.9150  0.2597
  262MOL0     C36040   5.452   9.544   8.113  0.0332  0.4636 -0.1734
  262MOL0     C36041   5.578   9.570   8.034 -0.4144 -0.0983  0.1593
  262MOL0     O36042   5.555   9.658   7.921 -0.2587  0.0899  0.0897
  262MOL0     C36043   5.668   9.701   7.850 -0.0576  1.0956  0.8033
  262MOL0     C36044   5.659   9.805   7.759 -0.4948  0.3485 -0.3764
  262MOL0     C36045   5.770   9.842   7.681  0.2190 -0.6445  0.2801
  262MOL0     C36046   5.767   9.965   7.599 -0.3429 -0.3574  0.4231
  262MOL0     C36047   5.889   9.766   7.675  0.0464 -0.1951  0.0132
  262MOL0     C36048   6.008   9.786   7.590  0.2469  0.7213  0.9022
  262MOL0     O36049   6.134   9.782   7.647 -0.0647 -0.7605  0.4652
  262MOL0     C36050   6.244   9.791   7.567  0.1099 -0.5869  0.3356
  262MOL0     C36051   6.271   9.697   7.471  0.3221  0.3170 -0.4807
  262MOL0     C36052   6.372   9.710   7.373  0.2713 -0.2322  0.0648
  262MOL0     C36053   6.439   9.835   7.369 -0.7405  0.1533 -0.0078
  262MOL0     O36054   6.531   9.872   7.282 -1.1034  0.6702 -0.5281
  262MOL0     C36055   6.569   9.793   7.168 -0.4710  0.0755  0.8260
  262MOL0     C36056   6.696   9.701   7.196 -1.0750 -0.2838 -0.5049
  262MOL0     C36057   6.824   9.781   7.237 -0.6118  0.1892  0.2264
  262MOL0     C36058   6.802   9.851   7.369 -0.8891  0.0917 -0.1481
  262MOL0     C36059   6.943   9.873   7.428 -0.0085  0.6573  0.9341
  262MOL0     C36060   7.020   9.977   7.352 -0.1992  0.6240  0.3372
  262MOL0     C36061   7.130  10.029   7.445  0.0761 -0.1929  0.3861
  262MOL0     C36062   7.260  10.041   7.374  1.3450  0.2890  0.9704
  262MOL0    Cl36063   7.386  10.086   7.492 -0.2050 -0.0008  0.0578
  262MOL0     C36064   6.410   9.932   7.464  0.0959  0.8767  0.2142
  262MOL0     C36065   6.315   9.910   7.567 -0.7345  0.7078  0.1273
  262MOL0     O36066   5.991   9.804   7.469 -0.2866 -0.2681 -0.4502
  262MOL0     C36067   5.892   9.659   7.768  0.7015 -0.5964  0.2037
  262MOL0     C36068   5.791   9.632   7.851 -1.1779  0.2773 -0.0524
  262MOL0     N36069   5.067   9.371   7.892  0.9932 -0.1116 -0.4834
  262MOL0     N36070   4.958   9.399   7.831  0.2820  0.6819  0.5236
  262MOL0     C36071   3.761   9.534   7.742 -0.0551 -0.0636  0.4469
  262MOL0     C36072   3.639   9.474   7.714 -0.3835 -0.6357 -0.9959
  262MOL0     C36073   3.238   9.322   7.653  0.4240  0.2246 -0.2845
  262MOL0     C36074   3.184   9.223   7.743  0.0344  0.0344 -0.8044
  262MOL0     C36075   3.086   9.134   7.702 -1.2144  0.4831  0.0485
  262MOL0     C36076   3.029   9.142   7.576  0.4695 -0.0912  0.0585
  262MOL0     O36077   2.930   9.043   7.546  0.3613  0.0072  0.5198
  262MOL0     C36078   2.850   9.056   7.429 -0.2370  0.7321  0.2079
  262MOL0     C36079   2.773   8.919   7.415 -0.2287  0.0840  0.2773
  262MOL0     C36080   2.738   8.906   7.269  1.1893  0.1538 -0.3459
  262MOL0     C36081   2.643   8.787   7.250 -0.7010  0.0270  0.3457
  262MOL0     C36082   2.618   8.753   7.109  0.2826  0.0255 -0.8804
  262MOL0     C36083   2.583   8.720   6.998 -0.2971  0.2857 -0.0037
  262MOL0     C36084   3.075   9.231   7.484 -0.4902 -0.4310 -0.4930
  262MOL0     C36085   3.179   9.317   7.523  0.6910  0.5246  0.1384
  262MOL0     C36086   3.236   9.410   7.416  0.3789 -0.4033  0.1084
  262MOL0     H36087   3.532   9.426   8.036  1.8787  0.8792  0.9435
  262MOL0     H36088   3.711   9.542   8.083  0.6609 -0.5828 -0.6924
  262MOL0     H36089   4.016   9.452   7.944  1.4739  1.2857 -3.3611
  262MOL0     H36090   3.942   9.539   8.089 -0.6544  0.0192 -0.2927
  262MOL0     H36091   4.136   9.675   7.871  0.1482  2.5795  0.5414
  262MOL0     H36092   4.074   9.739   8.012 -1.3172  0.0167  0.7011
  262MOL0     H36093   4.242   9.611   8.145  0.6063 -1.8500 -0.0253
  262MOL0     H36094   4.259   9.486   8.016 -2.2096 -0.6272  3.3799
  262MOL0     H36095   4.368   9.641   7.872 -1.2455  0.2014 -0.0863
  262MOL0     H36096   4.353   9.776   7.988  1.7405  0.4151  1.5403
  262MOL0     H36097   4.487   9.504   8.054 -3.0014 -0.0652 -2.2447
  262MOL0     H36098   4.494   9.644   8.151 -2.1461 -1.0128  0.0361
  262MOL0     H36099   4.635   9.748   7.949  1.8218 -1.5922 -5.1923
  262MOL0     H36100   4.715   9.621   8.042 -1.2098  1.0649  2.5907
  262MOL0     H36101   4.583   9.562   7.782  0.3884 -2.9200 -1.5205
  262MOL0     H36102   4.666   9.443   7.884 -0.2574  1.3768  5.9463
  262MOL0     H36103   4.815   9.557   7.701  1.5531  2.7120 -0.4804
  262MOL0     H36104   4.812   9.700   7.798  1.0157  0.2189 -0.9563
  262MOL0     H36105   4.996   9.667   8.024 -2.8745 -0.1373  1.6449
  262MOL0     H36106   5.226   9.382   8.133  1.2328  0.6185 -0.2819
  262MOL0     H36107   5.162   9.547   8.174  2.4931  0.8176  0.9026
  262MOL0     H36108   5.354   9.462   7.946 -1.0237 -0.3770 -0.6092
  262MOL0     H36109   5.302   9.630   7.977  0.0665  0.4730  2.9076
  262MOL0     H36110   5.441   9.629   8.181  1.4754  1.7199 -1.4313
  262MOL0     H36111   5.472   9.452   8.170 -0.2126 -1.4343 -2.9216
  262MOL0     H36112   5.653   9.617   8.099 -1.9426  0.4320  1.6138
  262MOL0     H36113   5.624   9.479   7.995 -0.7292  0.1556 -0.8279
  262MOL0     H36114   5.563   9.855   7.765 -1.6454 -1.7679 -0.3272
  262MOL0     H36115   5.678  10.025   7.622  0.3343  0.7410  0.2533
  262MOL0     H36116   5.768   9.941   7.492  3.2882  3.8338 -0.7945
  262MOL0     H36117   5.859  10.021   7.617  0.4064 -1.1085 -0.9015
  262MOL0     H36118   6.203   9.614   7.459 -0.2941  0.6353  0.6866
  262MOL0     H36119   6.387   9.626   7.306  1.3074 -1.0020  1.2119
  262MOL0     H36120   6.493   9.720   7.140  0.9538 -0.4281 -2.1461
  262MOL0     H36121   6.599   9.859   7.086  4.1951 -2.5294  0.0693
  262MOL0     H36122   6.691   9.632   7.280  1.1256  0.4506  0.2978
  262MOL0     H36123   6.729   9.634   7.116  1.6712  0.4761 -0.1143
  262MOL0     H36124   6.863   9.860   7.173  2.1546 -1.8654 -0.8218
  262MOL0     H36125   6.900   9.702   7.245 -0.3049  0.6063  1.7456
  262MOL0     H36126   6.742   9.790   7.437 -1.9032  1.9544  0.6839
  262MOL0     H36127   6.743   9.939   7.342 -2.6867 -0.9244  0.2660
  262MOL0     H36128   6.940   9.893   7.535 -1.4374  0.4595  0.9550
  262MOL0     H36129   7.005   9.784   7.410  1.4051  2.1550 -2.4080
  262MOL0     H36130   6.950  10.059   7.334 -0.6134 -0.0433 -1.3330
  262MOL0     H36131   7.048   9.947   7.251  0.0561  1.5876  0.1125
  262MOL0     H36132   7.144   9.960   7.529 -0.3635 -3.9223 -2.3185
  262MOL0     H36133   7.102  10.126   7.486  2.7417  1.3150 -1.1093
  262MOL0     H36134   7.242  10.117   7.297 -0.9982  0.2925  1.4364
  262MOL0     H36135   7.281   9.943   7.329  2.8242  0.6900  0.7591
  262MOL0     H36136   6.470  10.023   7.462 -0.6733  1.3827 -0.4174
  262MOL0     H36137   6.294   9.994   7.633 -0.6776  1.9912 -1.4205
  262MOL0     H36138   5.979   9.595   7.770  2.7632  2.0371  1.0981
  262MOL0     H36139   5.796   9.542   7.911  0.2499 -0.2132 -0.8590
  262MOL0     H36140   3.832   9.563   7.665  0.1588  2.8002  1.5741
  262MOL0     H36141   3.612   9.456   7.610 -0.0179  1.0865 -1.4238
  262MOL0     H36142   3.226   9.213   7.843  0.7625 -0.6949 -1.1640
  262MOL0     H36143   3.063   9.057   7.775  2.0009  2.0664  3.0069
  262MOL0     H36144   2.771   9.130   7.442  0.0407  0.6569  2.7250
  262MOL0     H36145   2.906   9.085   7.339 -0.5666 -1.0343 -0.6055
  262MOL0     H36146   2.680   8.924   7.474 -0.0383 -1.6550  0.7600
  262MOL0     H36147   2.847   8.843   7.441  0.3458  1.2210  2.2416
  262MOL0     H36148   2.681   8.995   7.239 -1.2230 -1.6148 -1.3448
  262MOL0     H36149   2.832   8.889   7.217  2.3709 -1.2584  2.0749
  262MOL0     H36150   2.547   8.814   7.296 -2.0227 -1.1875 -1.5583
  262MOL0     H36151   2.689   8.699   7.295  3.2196  1.0954 -1.1278
  262MOL0     H36152   2.540   8.687   6.906 -2.2110 -1.0020  1.2821
  262MOL0     H36153   3.026   9.229   7.387 -2.0715  0.1686  0.2465
  262MOL0     H36154   3.235   9.373   7.313  2.4639 -1.6297  0.4672
  262MOL0     H36155   3.175   9.500   7.416 -4.1018 -3.0815  2.4689
  262MOL0     H36156   3.340   9.436   7.436 -0.4599  2.0830  1.6755
  263MOL0     O36157   1.386  11.326   2.013 -0.7986 -0.3761 -0.1024
  263MOL0     C36158   1.354  11.229   2.069  0.0667  0.8175 -1.1896
  263MOL0     O36159   1.417  11.105   2.071 -0.2424 -0.2906 -0.8753
  263MOL0     C36160   1.523  11.088   1.981  0.2029  0.7084 -0.2742
  263MOL0     C36161   1.640  11.165   1.988 -0.0431  0.5483  0.0031
  263MOL0     C36162   1.750  11.150   1.904 -0.0908 -0.3284 -0.9579
  263MOL0     C36163   1.739  11.049   1.806 -0.5302  0.1140 -0.8577
  263MOL0     O36164   1.858  11.032   1.737 -0.0346  0.1204 -0.7113
  263MOL0     C36165   1.850  10.977   1.604 -0.3170  1.0025 -0.3401
  263MOL0     C36166   1.977  10.984   1.526 -0.0067  0.6358  0.4267
  263MOL0     C36167   2.035  11.127   1.504  0.8754  0.1195 -0.0662
  263MOL0     C36168   2.176  11.142   1.442  0.0509  0.4340 -0.6055
  263MOL0     C36169   2.224  11.284   1.440  0.5146  0.2551  0.0713
  263MOL0     C36170   2.252  11.352   1.576 -0.2997 -0.6434  0.2302
  263MOL0     C36171   2.250  11.501   1.540  0.3453 -0.1442  0.1966
  263MOL0     C36172   2.133  11.586   1.601  0.8458  0.6062 -0.2430
  263MOL0     N36173   2.172  11.728   1.574  0.5498  0.3240 -0.1168
  263MOL0     C36174   2.268  11.802   1.641  0.7904  0.0548 -0.3318
  263MOL0     C36175   2.263  11.928   1.596 -0.1788 -0.0338  0.0383
  263MOL0     C36176   2.359  12.041   1.624  0.5918 -0.2112  0.3988
  263MOL0     C36177   2.284  12.144   1.705  0.3483 -0.4125 -0.4662
  263MOL0     C36178   2.372  12.269   1.738 -0.5502  0.0393  0.5037
  263MOL0     C36179   2.293  12.370   1.830  0.5922 -0.1882 -0.1594
  263MOL0     O36180   2.230  12.315   1.946 -0.5868  0.2040 -0.1838
  263MOL0     C36181   2.111  12.361   1.982 -0.1828 -0.6169 -0.1885
  263MOL0     C36182   2.097  12.438   2.100  1.6015  0.1362 -0.0939
  263MOL0     C36183   1.969  12.488   2.134 -0.2912  0.1880 -0.9254
  263MOL0     C36184   1.978  12.595   2.247 -0.0297  0.3096 -0.3177
  263MOL0     C36185   1.849  12.456   2.063  0.0420 -0.7215  0.3050
  263MOL0     C36186   1.715  12.507   2.101  0.6497  0.7543  0.2213
  263MOL0     O36187   1.697  12.583   2.215  0.4563 -0.2562  0.1930
  263MOL0     C36188   1.574  12.614   2.261 -0.2259  0.5841 -0.6127
  263MOL0     C36189   1.504  12.721   2.211  0.0362 -0.0887  0.4114
  263MOL0     C36190   1.383  12.763   2.276 -0.5914  0.9767 -0.0746
  263MOL0     C36191   1.327  12.694   2.391  0.7303  0.3371  0.2808
  263MOL0     O36192   1.207  12.724   2.450 -0.9553 -0.0566  0.5326
  263MOL0     C36193   1.122  12.823   2.395  0.2384 -0.1805  0.1062
  263MOL0     C36194   0.999  12.831   2.483 -0.1549 -0.0281 -0.5233
  263MOL0     C36195   0.907  12.938   2.419  0.2858 -0.0704 -0.3508
  263MOL0     C36196   0.782  12.987   2.506 -0.3900 -0.1347  0.2144
  263MOL0     C36197   0.678  13.067   2.419  0.7726 -0.3833 -1.1621
  263MOL0     C36198   0.576  13.142   2.515 -0.1160  1.0891 -0.1256
  263MOL0     C36199   0.479  13.228   2.433 -0.3652  0.3078 -0.2666
  263MOL0     C36200   0.357  13.270   2.520  0.2318  0.5769 -0.9954
  263MOL0    Cl36201   0.230  13.340   2.422 -0.0179 -0.0491 -0.3449
  263MOL0     C36202   1.396  12.575   2.423 -0.3660 -0.1502 -0.4778
  263MOL0     C36203   1.512  12.535   2.360 -0.1168  0.0570 -0.2207
  263MOL0     O36204   1.627  12.475   2.026 -0.0859  0.1870  0.2118
  263MOL0     C36205   1.867  12.380   1.943 -0.1388 -1.4970 -0.3181
  263MOL0     C36206   1.993  12.340   1.908 -0.2150  0.3391  0.3773
  263MOL0     N36207   2.168  11.930   1.491  0.2722  0.0522 -0.2671
  263MOL0     N36208   2.110  11.813   1.483 -0.4710  0.5159 -0.1216
  263MOL0     C36209   1.632  10.963   1.793  0.1776  0.3489  0.1023
  263MOL0     C36210   1.524  10.982   1.882  0.4704 -0.5088  0.5587
  263MOL0     C36211   1.231  11.239   2.144  1.4993 -0.1787  0.3660
  263MOL0     C36212   1.217  11.333   2.249 -0.1573 -0.0690 -0.5270
  263MOL0     C36213   1.090  11.353   2.312 -0.3687  0.3004  0.1966
  263MOL0     C36214   0.971  11.292   2.260  0.2097 -0.0728 -0.0019
  263MOL0     O36215   0.846  11.312   2.304 -0.1196 -0.2087  0.3301
  263MOL0     C36216   0.808  11.443   2.361  0.0628  0.2105 -0.6324
  263MOL0     C36217   0.775  11.421   2.514  0.3751 -0.5984  0.3432
  263MOL0     C36218   0.651  11.322   2.511 -0.2528 -0.4314  0.5754
  263MOL0     C36219   0.592  11.281   2.650  0.2770 -0.1866  0.6904
  263MOL0     C36220   0.509  11.388   2.705 -0.2370 -1.3433  0.4795
  263MOL0     C36221   0.431  11.477   2.743  0.2375  0.1781  0.6534
  263MOL0     C36222   0.986  11.184   2.172 -0.2401  0.1983 -0.2313
  263MOL0     C36223   1.111  11.164   2.112 -0.8853  0.3389  0.2048
  263MOL0     C36224   1.117  11.060   2.000 -0.2038 -0.1440  0.5527
  263MOL0     H36225   1.644  11.229   2.076  1.7160 -0.0720  0.4170
  263MOL0     H36226   1.837  11.215   1.915 -0.5028  0.6601 -3.0229
  263MOL0     H36227   1.759  11.023   1.564 -0.1524  0.8590 -0.8872
  263MOL0     H36228   1.831  10.869   1.609 -1.8226  1.2408 -0.2663
  263MOL0     H36229   2.058  10.936   1.582  2.7764  1.0679 -2.8892
  263MOL0     H36230   1.974  10.927   1.433 -2.1580  4.5714 -2.1998
  263MOL0     H36231   1.965  11.184   1.443 -0.1286 -0.8110  0.1941
  263MOL0     H36232   2.044  11.172   1.604 -1.0424  0.8896 -0.2015
  263MOL0     H36233   2.245  11.074   1.493 -0.8147  1.6729  2.4272
  263MOL0     H36234   2.175  11.111   1.337 -1.2581 -0.8971 -0.2436
  263MOL0     H36235   2.144  11.341   1.392 -1.3557  0.0403  2.6755
  263MOL0     H36236   2.320  11.290   1.389  0.6185 -2.0859 -0.1333
  263MOL0     H36237   2.178  11.337   1.656  0.7440 -2.1929  0.9422
  263MOL0     H36238   2.354  11.343   1.612  0.1736  1.3342 -0.4947
  263MOL0     H36239   2.261  11.524   1.433 -0.5519 -1.5558 -0.2347
  263MOL0     H36240   2.335  11.535   1.599 -0.8799  2.0487  0.8023
  263MOL0     H36241   2.037  11.570   1.550  0.0530  0.4475  1.2322
  263MOL0     H36242   2.116  11.562   1.706  3.3975  0.3097  0.1579
  263MOL0     H36243   2.330  11.761   1.721 -0.1491 -1.9583 -0.5873
  263MOL0     H36244   2.409  12.082   1.536  1.1776 -0.3636  0.6596
  263MOL0     H36245   2.432  12.000   1.695  0.8138 -1.5747 -0.5870
  263MOL0     H36246   2.187  12.173   1.664 -0.6460  0.5801  2.3212
  263MOL0     H36247   2.261  12.097   1.801  1.2101 -0.6701 -0.3777
  263MOL0     H36248   2.467  12.241   1.785  1.4240  1.5441 -2.2844
  263MOL0     H36249   2.405  12.325   1.650 -0.5549 -3.0222 -1.5809
  263MOL0     H36250   2.357  12.445   1.877  2.7404 -3.1133  1.9573
  263MOL0     H36251   2.222  12.423   1.765  0.1189 -1.4775 -0.7320
  263MOL0     H36252   2.180  12.463   2.165  1.8735  0.5040 -0.5769
  263MOL0     H36253   1.939  12.561   2.344 -2.3899  2.0701 -0.5479
  263MOL0     H36254   1.907  12.677   2.228 -1.6484 -0.9774 -0.0715
  263MOL0     H36255   2.081  12.632   2.256  0.1159 -0.1715  0.0191
  263MOL0     H36256   1.542  12.786   2.132  0.0694 -1.0598 -0.3998
  263MOL0     H36257   1.329  12.852   2.245  0.3560  2.4006  2.1142
  263MOL0     H36258   1.169  12.921   2.383  1.1462 -0.9470 -4.4488
  263MOL0     H36259   1.092  12.799   2.293  2.4883 -2.1916 -0.1891
  263MOL0     H36260   0.945  12.737   2.486 -0.5260  0.1997  0.0359
  263MOL0     H36261   1.024  12.854   2.587 -0.8712  0.2665 -0.4110
  263MOL0     H36262   0.866  12.905   2.323  1.0017 -2.4595  0.1011
  263MOL0     H36263   0.962  13.032   2.406 -1.4429  1.1489  0.6167
  263MOL0     H36264   0.834  13.037   2.588  0.6557 -0.7907 -0.0307
  263MOL0     H36265   0.734  12.901   2.554  2.0522  1.0901  5.4724
  263MOL0     H36266   0.723  13.145   2.357 -0.6731  0.2080 -1.5245
  263MOL0     H36267   0.621  13.000   2.353  0.4350 -2.2449  0.8898
  263MOL0     H36268   0.636  13.205   2.582  2.3308  0.7117 -1.8231
  263MOL0     H36269   0.516  13.071   2.572  0.8458  1.4483  1.4184
  263MOL0     H36270   0.444  13.161   2.354  1.5796 -0.9546 -0.1240
  263MOL0     H36271   0.532  13.313   2.391 -0.8620  0.2872 -0.9391
  263MOL0     H36272   0.395  13.341   2.594  0.1360  0.1936 -0.5710
  263MOL0     H36273   0.319  13.181   2.571  2.6926  1.1885  2.2637
  263MOL0     H36274   1.354  12.528   2.512 -0.9709  1.7034  0.2567
  263MOL0     H36275   1.555  12.442   2.395  3.5617  2.4350  2.2925
  263MOL0     H36276   1.786  12.356   1.875  3.0792 -6.0769 -3.0394
  263MOL0     H36277   2.010  12.284   1.817 -0.8653  1.1414 -0.2494
  263MOL0     H36278   1.636  10.887   1.715 -0.6881 -0.3745  0.7363
  263MOL0     H36279   1.433  10.927   1.863 -0.6633  0.7703  2.0090
  263MOL0     H36280   1.312  11.376   2.279  0.4433 -0.5260 -1.7394
  263MOL0     H36281   1.075  11.421   2.396  0.6927  1.2765 -0.3648
  263MOL0     H36282   0.887  11.515   2.343 -0.5017  1.3182  1.0397
  263MOL0     H36283   0.714  11.482   2.320  0.2551  0.9840 -0.3388
  263MOL0     H36284   0.747  11.517   2.560  2.0211  0.1745 -0.1849
  263MOL0     H36285   0.869  11.387   2.558  0.2719 -3.4018 -1.3554
  263MOL0     H36286   0.567  11.362   2.453 -1.4750  0.9651  3.1755
  263MOL0     H36287   0.681  11.229   2.460  0.5273 -1.3110  2.5556
  263MOL0     H36288   0.670  11.236   2.712  0.9266 -0.6074 -0.4040
  263MOL0     H36289   0.529  11.198   2.618  2.5211 -0.3335 -4.2805
  263MOL0     H36290   0.359  11.549   2.776  0.2421  0.4218  0.1333
  263MOL0     H36291   0.897  11.134   2.136 -0.9251 -0.2031  1.9074
  263MOL0     H36292   1.024  11.005   1.981 -2.2483  3.5574 -1.3507
  263MOL0     H36293   1.130  11.117   1.907  0.5763  0.5275  1.0652
  263MOL0     H36294   1.198  10.988   2.017 -0.3845 -0.7813 -1.0666
  264MOL0     O36295   0.479   6.860   4.295 -0.4504  1.1182 -0.4162
  264MOL0     C36296   0.415   6.942   4.354  0.1634  0.1237 -0.4104
  264MOL0     O36297   0.457   7.011   4.473 -0.7074  0.5602  0.1911
  264MOL0     C36298   0.593   7.001   4.494  0.6922 -0.5542 -0.5213
  264MOL0     C36299   0.656   6.948   4.609  1.0796  0.8564  0.8445
  264MOL0     C36300   0.791   6.938   4.620  0.1920 -0.1158  1.1199
  264MOL0     C36301   0.871   6.988   4.514 -0.0792  0.8115  0.7629
  264MOL0     O36302   1.005   6.975   4.499  0.2693 -0.1049 -0.2399
  264MOL0     C36303   1.076   6.938   4.618 -0.3331  0.6071 -0.6577
  264MOL0     C36304   1.230   6.950   4.612  0.0135 -0.4199  0.0048
  264MOL0     C36305   1.269   7.100   4.575 -0.6525 -0.4326 -0.8954
  264MOL0     C36306   1.411   7.115   4.521 -0.6769  0.6422 -0.5714
  264MOL0     C36307   1.421   7.067   4.377  0.1161  0.3150 -0.0566
  264MOL0     C36308   1.558   7.103   4.312 -0.0485 -0.4687 -0.0714
  264MOL0     C36309   1.566   7.058   4.165  0.1040 -0.4706  0.6869
  264MOL0     C36310   1.712   7.051   4.117  0.6927  0.1308  0.2625
  264MOL0     N36311   1.708   7.042   3.971 -0.1805 -0.7581 -0.0486
  264MOL0     C36312   1.695   7.146   3.878  0.2157  0.0524  0.0490
  264MOL0     C36313   1.688   7.076   3.756 -0.0319 -0.4899 -0.0170
  264MOL0     C36314   1.661   7.127   3.623  0.8626  0.5219 -0.4735
  264MOL0     C36315   1.785   7.158   3.541  0.1564  0.2109 -0.2235
  264MOL0     C36316   1.876   7.267   3.610  0.0847 -0.2704  0.7947
  264MOL0     C36317   1.983   7.316   3.506  0.4161  0.5214 -0.1212
  264MOL0     O36318   2.081   7.219   3.459  0.4452 -0.4821  0.2789
  264MOL0     C36319   2.207   7.231   3.515 -0.0641  0.3057  0.9805
  264MOL0     C36320   2.320   7.185   3.449 -0.3042  0.2861 -0.1469
  264MOL0     C36321   2.446   7.206   3.503 -0.5490  0.4816 -0.1810
  264MOL0     C36322   2.559   7.147   3.438 -1.3042  0.6088 -0.4812
  264MOL0     C36323   2.459   7.272   3.625  0.7736 -0.4560 -0.6608
  264MOL0     C36324   2.586   7.287   3.705  0.5072 -1.1539 -0.8508
  264MOL0     O36325   2.589   7.400   3.782  0.4762  0.4340  0.3438
  264MOL0     C36326   2.689   7.418   3.869 -0.9548 -0.7301 -0.9164
  264MOL0     C36327   2.671   7.466   4.000  0.0694 -0.0853 -0.0656
  264MOL0     C36328   2.784   7.490   4.081 -0.4305 -0.1621  0.3958
  264MOL0     C36329   2.917   7.466   4.037  0.1712 -0.2604  0.1871
  264MOL0     O36330   3.018   7.498   4.123 -0.1862  0.0094  0.5815
  264MOL0     C36331   3.159   7.478   4.078  0.0577  0.2398  0.1507
  264MOL0     C36332   3.208   7.328   4.089  1.0834  0.2993  0.0105
  264MOL0     C36333   3.351   7.308   4.078  1.1213 -0.2982  0.2765
  264MOL0     C36334   3.383   7.159   4.068  0.4001 -0.7062  0.7698
  264MOL0     C36335   3.531   7.131   4.066 -0.2565 -0.2000 -0.1052
  264MOL0     C36336   3.601   7.196   3.946  0.1793  0.0943 -1.0592
  264MOL0     C36337   3.751   7.153   3.940 -0.1113  0.1333  0.1894
  264MOL0     C36338   3.805   7.202   3.805 -0.4481  0.1614  0.0058
  264MOL0    Cl36339   3.727   7.099   3.672  0.1284 -0.3148  0.1719
  264MOL0     C36340   2.935   7.423   3.899 -0.5696  0.0030 -0.4722
  264MOL0     C36341   2.824   7.402   3.821 -0.7126 -0.1549 -0.0169
  264MOL0     O36342   2.648   7.183   3.726 -0.0113  0.3889  0.0378
  264MOL0     C36343   2.343   7.321   3.690 -0.9552  0.2755  0.1692
  264MOL0     C36344   2.222   7.288   3.634 -0.1791  0.3225  0.0368
  264MOL0     N36345   1.701   6.939   3.785  1.1516  0.1238 -0.8472
  264MOL0     N36346   1.706   6.922   3.911  0.1735 -0.6089 -0.3046
  264MOL0     C36347   0.813   7.060   4.411 -0.2298  0.6099 -0.3740
  264MOL0     C36348   0.680   7.062   4.403  0.1312  0.1270  0.8694
  264MOL0     C36349   0.279   6.962   4.315 -1.0752 -0.5219  0.0961
  264MOL0     C36350   0.190   6.896   4.402  0.0569  0.8843 -0.8672
  264MOL0     C36351   0.053   6.892   4.376 -0.4350  0.1511 -0.3984
  264MOL0     C36352   0.011   6.950   4.254  0.0809 -0.0617 -0.2576
  264MOL0     O36353  -0.122   6.911   4.227  0.0431 -0.2646 -0.0943
  264MOL0     C36354  -0.167   6.916   4.089 -0.5041  0.0691  0.1753
  264MOL0     C36355  -0.080   6.816   4.002 -0.0773  0.7902 -0.3315
  264MOL0     C36356  -0.125   6.671   4.029  0.1966 -0.9419  0.0834
  264MOL0     C36357  -0.009   6.568   4.038  0.1212 -0.1884  0.0052
  264MOL0     C36358   0.036   6.539   3.901 -0.3952 -0.7117  0.8962
  264MOL0     C36359   0.082   6.510   3.791  0.3896 -0.0990 -1.2505
  264MOL0     C36360   0.101   7.024   4.169  0.6679 -0.4352  0.2093
  264MOL0     C36361   0.235   7.027   4.197 -0.4704 -0.0144 -0.0159
  264MOL0     C36362   0.322   7.078   4.088 -0.7037 -0.8815  0.3417
  264MOL0     H36363   0.595   6.910   4.691 -1.8320 -1.2891 -2.0809
  264MOL0     H36364   0.836   6.877   4.698  2.2493  1.3504  1.1577
  264MOL0     H36365   1.057   6.833   4.639  2.5476  0.1202 -0.0954
  264MOL0     H36366   1.041   6.993   4.706 -0.3069  2.3717 -1.6863
  264MOL0     H36367   1.268   6.913   4.707 -1.1925  0.1104  0.7043
  264MOL0     H36368   1.277   6.889   4.534  0.1528  0.1689 -0.3833
  264MOL0     H36369   1.206   7.139   4.494  2.0864 -0.9654 -3.4295
  264MOL0     H36370   1.255   7.165   4.662  0.4338 -0.6404 -0.5560
  264MOL0     H36371   1.460   7.213   4.525  0.1148  0.2502 -0.2401
  264MOL0     H36372   1.472   7.043   4.577  2.7778  1.5022 -2.8692
  264MOL0     H36373   1.346   7.125   4.324 -0.8410  0.2542  1.1733
  264MOL0     H36374   1.398   6.960   4.368 -1.9769  0.7594 -0.3905
  264MOL0     H36375   1.566   7.211   4.299  3.9978 -0.9502 -3.8366
  264MOL0     H36376   1.638   7.068   4.377 -1.3004 -2.6858  0.3813
  264MOL0     H36377   1.511   7.135   4.110  1.5309 -0.0309 -0.1868
  264MOL0     H36378   1.519   6.960   4.151 -2.2608  0.9490 -2.4745
  264MOL0     H36379   1.783   7.125   4.156 -0.7194  0.4681  2.3916
  264MOL0     H36380   1.754   6.959   4.158  0.0977 -0.6422 -0.8159
  264MOL0     H36381   1.681   7.250   3.908  0.3415  0.0468  0.1275
  264MOL0     H36382   1.598   7.215   3.642  2.1329  0.8823  2.7909
  264MOL0     H36383   1.592   7.057   3.576 -1.8969  1.7933  1.3762
  264MOL0     H36384   1.831   7.063   3.512 -1.0960 -0.1636 -1.0738
  264MOL0     H36385   1.753   7.204   3.447 -0.1618  1.8761  0.6617
  264MOL0     H36386   1.806   7.350   3.624 -1.0498 -0.9407 -0.6189
  264MOL0     H36387   1.920   7.230   3.703  2.3103  0.0723 -0.0573
  264MOL0     H36388   1.932   7.347   3.415  0.0484 -2.1759 -0.9235
  264MOL0     H36389   2.015   7.412   3.546 -2.4360  1.7334 -0.5665
  264MOL0     H36390   2.311   7.155   3.345 -0.2262  1.8308 -0.6241
  264MOL0     H36391   2.543   7.125   3.332  0.5815 -3.6181 -0.0884
  264MOL0     H36392   2.581   7.049   3.479 -2.0231  0.9741  0.8094
  264MOL0     H36393   2.648   7.212   3.442 -1.4120  0.6977  0.6855
  264MOL0     H36394   2.570   7.496   4.027  1.1081  2.5021  1.3032
  264MOL0     H36395   2.783   7.522   4.185 -2.1492 -0.7588  0.5857
  264MOL0     H36396   3.172   7.529   3.983  0.2121  1.7962  0.9680
  264MOL0     H36397   3.221   7.531   4.151 -1.7734  0.7853  1.3875
  264MOL0     H36398   3.164   7.289   4.182 -1.7033  1.5159 -0.7050
  264MOL0     H36399   3.156   7.282   4.005 -0.6098  1.7651  0.2110
  264MOL0     H36400   3.404   7.356   4.160 -0.7695 -0.2431  1.5327
  264MOL0     H36401   3.379   7.358   3.985  2.1309  2.0758  1.7658
  264MOL0     H36402   3.346   7.123   3.971  1.2554  0.4125  0.0020
  264MOL0     H36403   3.338   7.108   4.154 -1.3501 -0.3398  0.1224
  264MOL0     H36404   3.567   7.160   4.165 -4.2941  0.4899  1.3338
  264MOL0     H36405   3.541   7.023   4.053 -0.6335 -0.5607  2.2599
  264MOL0     H36406   3.587   7.304   3.956 -0.0508  0.1568 -2.0035
  264MOL0     H36407   3.551   7.163   3.855 -0.0179 -1.7991 -0.3245
  264MOL0     H36408   3.762   7.047   3.965 -1.6639  0.1201  0.9687
  264MOL0     H36409   3.793   7.216   4.019 -1.3902  0.6350  0.5012
  264MOL0     H36410   3.912   7.182   3.798  0.0924  2.3479  1.3135
  264MOL0     H36411   3.805   7.307   3.776  2.7408 -0.5250 -3.2606
  264MOL0     H36412   3.033   7.398   3.859  0.3911 -5.0357  3.8863
  264MOL0     H36413   2.832   7.368   3.718  1.6143  3.6651 -1.2837
  264MOL0     H36414   2.345   7.382   3.780 -0.8004 -1.3167  1.2991
  264MOL0     H36415   2.139   7.316   3.698  1.0136 -0.3427  1.9441
  264MOL0     H36416   0.876   7.104   4.334  2.0058 -2.7636 -0.6830
  264MOL0     H36417   0.632   7.112   4.320  2.1011  1.8722  0.7115
  264MOL0     H36418   0.222   6.860   4.499 -0.4397  1.9510 -0.2904
  264MOL0     H36419  -0.022   6.862   4.448  0.4790  0.4275  0.6966
  264MOL0     H36420  -0.273   6.900   4.069 -0.9489  1.3332  1.4010
  264MOL0     H36421  -0.146   7.016   4.049  2.2142 -0.0840  0.9870
  264MOL0     H36422   0.024   6.820   4.034  0.0116 -1.4993 -0.1179
  264MOL0     H36423  -0.087   6.845   3.897  0.9973  1.4469 -0.2340
  264MOL0     H36424  -0.179   6.663   4.124  0.0707  0.7001  0.1712
  264MOL0     H36425  -0.183   6.642   3.942 -1.2105  0.0826  0.6386
  264MOL0     H36426  -0.051   6.478   4.085  0.5078 -0.5822 -0.3896
  264MOL0     H36427   0.074   6.601   4.100  0.8564  0.8500 -1.4704
  264MOL0     H36428   0.103   6.475   3.692 -1.6904  1.9548 -2.5021
  264MOL0     H36429   0.081   7.049   4.066  1.8083 -3.1323 -0.7461
  264MOL0     H36430   0.293   7.180   4.063  0.5711 -1.2473 -3.2176
  264MOL0     H36431   0.431   7.074   4.101 -0.5593  0.0805 -0.5014
  264MOL0     H36432   0.307   7.014   4.000  1.8871  2.5275 -2.9127
  265MOL0     O36433   2.552   6.077   9.683  0.0412  0.2142 -0.9306
  265MOL0     C36434   2.506   6.131   9.585  0.4520 -0.1593 -0.1512
  265MOL0     O36435   2.549   6.258   9.545 -0.4566  0.3369  0.3285
  265MOL0     C36436   2.656   6.312   9.607 -0.8403  0.5631  0.3084
  265MOL0     C36437   2.783   6.247   9.581 -0.5527  0.7454 -0.6578
  265MOL0     C36438   2.892   6.293   9.651  0.6170 -0.2871  0.9015
  265MOL0     C36439   2.882   6.402   9.736 -0.1862  0.0316 -0.3702
  265MOL0     O36440   2.983   6.435   9.822 -0.4033 -0.1093  0.1993
  265MOL0     C36441   3.109   6.364   9.822 -0.6417  0.1876 -0.7536
  265MOL0     C36442   3.209   6.438   9.909  0.6659 -0.1333 -1.2771
  265MOL0     C36443   3.133   6.468  10.045  0.0651  0.4051  0.5298
  265MOL0     C36444   3.240   6.503  10.155  0.7200  0.1808  0.0442
  265MOL0     C36445   3.170   6.527  10.289 -0.3503  0.0723  0.3289
  265MOL0     C36446   3.283   6.551  10.392  1.4026  0.9692 -0.1304
  265MOL0     C36447   3.236   6.555  10.543  0.4843 -0.6749  0.2764
  265MOL0     C36448   3.104   6.634  10.562 -0.0545 -0.2360 -0.2941
  265MOL0     N36449   3.082   6.684  10.699  0.2467 -0.3650 -0.1914
  265MOL0     C36450   3.067   6.607  10.810  0.6329  0.7755  0.3245
  265MOL0     C36451   3.070   6.697  10.906 -0.7205 -0.1177 -0.0745
  265MOL0     C36452   3.058   6.677  11.055 -0.4492 -0.2781  0.2111
  265MOL0     C36453   2.952   6.768  11.116  0.5013  0.3366 -0.1032
  265MOL0     C36454   2.908   6.721  11.257  0.7813 -0.4569 -0.1216
  265MOL0     C36455   2.765   6.773  11.290  0.2915 -0.6892  0.2112
  265MOL0     O36456   2.699   6.687  11.378 -0.1239  1.0988  0.9658
  265MOL0     C36457   2.565   6.693  11.399 -0.5554 -0.2817  0.0728
  265MOL0     C36458   2.483   6.800  11.376 -0.2636  0.0146  0.1039
  265MOL0     C36459   2.345   6.805  11.406 -0.4918  0.6479 -0.0499
  265MOL0     C36460   2.260   6.926  11.375  0.3846 -0.6209  0.6733
  265MOL0     C36461   2.297   6.691  11.485  0.1652 -0.0229  0.0077
  265MOL0     C36462   2.155   6.672  11.524  0.4912 -0.2716 -0.9260
  265MOL0     O36463   2.054   6.723  11.449 -0.2917 -0.3972 -0.4712
  265MOL0     C36464   1.962   6.637  11.404  0.7457  0.3570  0.7702
  265MOL0     C36465   1.819   6.658  11.420 -0.7417  0.1492  0.4743
  265MOL0     C36466   1.731   6.563  11.373  0.8041 -0.0404  0.7396
  265MOL0     C36467   1.774   6.448  11.303 -0.6950  0.8366 -1.3274
  265MOL0     O36468   1.695   6.356  11.244 -0.3875 -0.6532  0.4352
  265MOL0     C36469   1.615   6.404  11.140  0.4912  0.0285  0.5710
  265MOL0     C36470   1.630   6.324  11.011  0.2999  0.2100  0.4308
  265MOL0     C36471   1.773   6.293  10.967  1.3804  0.2003 -0.7293
  265MOL0     C36472   1.776   6.288  10.811  0.4235  0.1591  0.0651
  265MOL0     C36473   1.913   6.261  10.747  0.3780 -0.2959 -0.0775
  265MOL0     C36474   1.993   6.388  10.719 -0.1805  0.6090  0.1814
  265MOL0     C36475   2.114   6.346  10.643 -0.0949  0.3000  0.7253
  265MOL0     C36476   2.206   6.460  10.606 -0.0962 -0.3052  0.9813
  265MOL0    Cl36477   2.118   6.588  10.522 -0.5369 -0.0769 -0.6679
  265MOL0     C36478   1.911   6.428  11.305 -0.1685 -0.2582 -0.3863
  265MOL0     C36479   2.004   6.513  11.354  0.1338 -0.5347 -0.1266
  265MOL0     O36480   2.137   6.592  11.622  0.6955 -0.5008 -0.1282
  265MOL0     C36481   2.384   6.584  11.515  0.6539  0.4010  0.4909
  265MOL0     C36482   2.513   6.585  11.466 -1.5301  0.6351 -0.0953
  265MOL0     N36483   3.061   6.827  10.848 -0.1621  0.1091 -0.2502
  265MOL0     N36484   3.075   6.816  10.724  0.0138  0.7599 -0.4421
  265MOL0     C36485   2.761   6.460   9.761 -0.8575  0.5955  0.9377
  265MOL0     C36486   2.648   6.420   9.692 -0.1117 -0.2208 -0.7126
  265MOL0     C36487   2.392   6.059   9.512 -0.8844 -0.1318 -0.6719
  265MOL0     C36488   2.362   6.101   9.375 -0.0786 -0.1615 -0.3399
  265MOL0     C36489   2.276   6.028   9.292 -1.2738 -0.2352  0.5395
  265MOL0     C36490   2.216   5.909   9.341  0.4125 -0.6054  0.6443
  265MOL0     O36491   2.128   5.837   9.263 -1.5361 -0.0624 -0.5165
  265MOL0     C36492   2.080   5.718   9.322  1.0861  0.4639 -0.5432
  265MOL0     C36493   1.994   5.645   9.222  0.1715  0.1182 -0.7149
  265MOL0     C36494   2.078   5.632   9.091  0.0578 -0.0065 -1.4033
  265MOL0     C36495   2.021   5.519   8.996  0.5386  0.3118 -0.0681
  265MOL0     C36496   2.123   5.421   8.962  0.6443 -0.0579  0.2678
  265MOL0     C36497   2.199   5.336   8.928  0.1119 -0.5540  0.0709
  265MOL0     C36498   2.257   5.869   9.466  0.3209  0.4093  0.0418
  265MOL0     C36499   2.339   5.939   9.562  0.2662 -0.2924  1.0609
  265MOL0     C36500   2.377   5.855   9.682  0.2343  0.1379 -0.2377
  265MOL0     H36501   2.815   6.168   9.515 -2.5965  0.0676 -0.8959
  265MOL0     H36502   2.988   6.248   9.626 -0.2690 -1.5033 -0.4233
  265MOL0     H36503   3.147   6.356   9.720  0.0980 -2.0118 -0.3702
  265MOL0     H36504   3.090   6.274   9.882  1.2560  1.2581  1.6313
  265MOL0     H36505   3.291   6.371   9.934 -0.0995  0.2320  3.0717
  265MOL0     H36506   3.245   6.535   9.874  3.2329 -0.4612  0.1541
  265MOL0     H36507   3.059   6.547  10.030 -0.4680 -0.3234 -0.8527
  265MOL0     H36508   3.080   6.382  10.089 -0.0531 -0.5078 -1.3169
  265MOL0     H36509   3.316   6.425  10.165  1.5231  0.8661 -0.6110
  265MOL0     H36510   3.294   6.593  10.125 -2.2088  1.4966 -1.6082
  265MOL0     H36511   3.105   6.446  10.323 -0.0513 -0.0274  0.6642
  265MOL0     H36512   3.108   6.617  10.290  0.0950  0.4099 -1.0134
  265MOL0     H36513   3.361   6.474  10.385 -1.2945 -2.3787  2.6948
  265MOL0     H36514   3.331   6.643  10.358 -0.1843  0.7941 -3.1129
  265MOL0     H36515   3.319   6.607  10.592  1.0650 -0.1510 -1.1955
  265MOL0     H36516   3.229   6.451  10.577 -2.9052 -0.3408  0.9575
  265MOL0     H36517   3.107   6.712  10.485  1.2465  0.7342  0.6947
  265MOL0     H36518   3.028   6.561  10.534 -1.6750  1.7112 -1.2370
  265MOL0     H36519   3.052   6.500  10.815  0.9562  0.3454 -4.0627
  265MOL0     H36520   3.150   6.715  11.101 -2.3060 -0.5269  4.5626
  265MOL0     H36521   3.054   6.570  11.080  2.7637 -0.6596 -0.4402
  265MOL0     H36522   2.989   6.871  11.116  0.4612  0.3712 -1.5058
  265MOL0     H36523   2.866   6.761  11.049 -1.2406 -1.3001  2.1618
  265MOL0     H36524   2.893   6.613  11.245 -2.6948  0.2111 -3.4002
  265MOL0     H36525   2.981   6.753  11.332  0.7131 -0.7766  0.0841
  265MOL0     H36526   2.770   6.866  11.347 -0.7970 -0.2269 -0.4152
  265MOL0     H36527   2.697   6.782  11.205  0.7016  2.9186  0.1276
  265MOL0     H36528   2.524   6.888  11.329 -0.0522 -0.3607 -0.4336
  265MOL0     H36529   2.288   7.004  11.448 -0.4891  0.3763 -0.0204
  265MOL0     H36530   2.151   6.916  11.376  0.3978 -1.5839 -1.8760
  265MOL0     H36531   2.289   6.969  11.279  0.1638  2.8794  2.0127
  265MOL0     H36532   1.781   6.755  11.451 -1.7291  0.1028 -0.5076
  265MOL0     H36533   1.624   6.577  11.360  1.1014  0.1722 -2.2490
  265MOL0     H36534   1.512   6.412  11.175  0.9744  0.9106  1.8635
  265MOL0     H36535   1.643   6.506  11.112 -1.5836  0.0453 -1.8476
  265MOL0     H36536   1.582   6.225  11.013  0.9567 -0.1220  0.0614
  265MOL0     H36537   1.579   6.372  10.927  1.3326 -0.5034 -0.6248
  265MOL0     H36538   1.798   6.196  11.011  1.1016 -0.3832 -1.8195
  265MOL0     H36539   1.846   6.368  10.998 -0.9398  1.0670  3.3008
  265MOL0     H36540   1.742   6.384  10.770 -0.9802 -0.4329 -0.2153
  265MOL0     H36541   1.694   6.224  10.777  0.5201  0.7810 -1.4166
  265MOL0     H36542   1.956   6.196  10.823 -1.9100 -0.5492  1.0818
  265MOL0     H36543   1.890   6.215  10.651 -0.3205  1.0229 -0.5732
  265MOL0     H36544   2.019   6.426  10.818 -0.9566 -4.5235  2.6558
  265MOL0     H36545   1.926   6.451  10.659 -2.2583 -3.7179 -2.5615
  265MOL0     H36546   2.082   6.292  10.554  0.4167  0.8607  0.1895
  265MOL0     H36547   2.170   6.279  10.708 -0.2026  0.4524  0.9782
  265MOL0     H36548   2.290   6.425  10.546 -1.8979  0.5014 -2.2611
  265MOL0     H36549   2.249   6.485  10.703 -1.3786 -2.0872  2.0547
  265MOL0     H36550   1.936   6.327  11.271  1.9870  0.0628  0.0643
  265MOL0     H36551   2.107   6.482  11.366 -0.9050 -3.9951  1.0297
  265MOL0     H36552   2.350   6.489  11.553  0.2604 -0.1182 -1.0579
  265MOL0     H36553   2.583   6.505  11.483  0.1709  2.1772  0.4282
  265MOL0     H36554   2.759   6.550   9.821  1.5545  1.1489  0.2886
  265MOL0     H36555   2.552   6.467   9.711  1.9121  4.1951 -0.3228
  265MOL0     H36556   2.412   6.194   9.352 -1.2378  1.0706  1.8273
  265MOL0     H36557   2.263   6.064   9.191 -3.1260 -1.9038  0.1235
  265MOL0     H36558   2.165   5.652   9.338  0.1873 -1.2072 -2.3202
  265MOL0     H36559   2.022   5.741   9.412  3.1404  2.0515  0.4626
  265MOL0     H36560   1.910   5.710   9.195  0.6383  0.7955 -0.5621
  265MOL0     H36561   1.969   5.546   9.260 -1.1635  0.7309  0.0626
  265MOL0     H36562   2.083   5.730   9.042  2.4743  0.6978  0.1131
  265MOL0     H36563   2.176   5.599   9.128 -0.7622  1.7619  2.9274
  265MOL0     H36564   1.989   5.562   8.900  0.9955 -2.8688 -1.7992
  265MOL0     H36565   1.932   5.482   9.048  0.6191 -1.2479 -0.9782
  265MOL0     H36566   2.249   5.249   8.891  0.1794 -0.2850 -0.4788
  265MOL0     H36567   2.214   5.774   9.499 -2.4785  0.6405 -2.4712
  265MOL0     H36568   2.307   5.774   9.705 -0.4972  0.7842 -0.1456
  265MOL0     H36569   2.480   5.817   9.673  0.6618  1.6135 -2.0961
  265MOL0     H36570   2.374   5.915   9.773  1.0532 -1.8638  1.2037
  266MOL0     O36571   7.061   3.512   3.972 -0.4934 -0.1151 -0.2508
  266MOL0     C36572   7.003   3.415   4.014 -0.3147  0.1603 -0.4413
  266MOL0     O36573   7.019   3.360   4.143 -0.3828 -0.8393 -0.0130
  266MOL0     C36574   7.054   3.448   4.252  0.1618  0.7879  0.2578
  266MOL0     C36575   6.983   3.435   4.369 -0.0496  0.3585 -0.4488
  266MOL0     C36576   7.021   3.512   4.484  0.6991 -0.4892  0.1091
  266MOL0     C36577   7.140   3.590   4.485 -0.0226  0.0068  0.5851
  266MOL0     O36578   7.158   3.659   4.602 -0.5642  0.0298 -0.1353
  266MOL0     C36579   7.271   3.747   4.609 -0.2212 -0.1544 -0.2720
  266MOL0     C36580   7.238   3.832   4.727 -0.0290 -0.1995 -0.0091
  266MOL0     C36581   7.131   3.934   4.680 -0.5258  0.3956  0.0511
  266MOL0     C36582   7.090   4.018   4.796  0.7704  0.1461  0.2971
  266MOL0     C36583   6.980   4.116   4.760  0.7699  0.3863 -0.0215
  266MOL0     C36584   7.029   4.204   4.643  0.4781 -0.8088  0.5096
  266MOL0     C36585   6.941   4.330   4.645  0.1139 -0.2716 -0.0533
  266MOL0     C36586   6.987   4.427   4.538 -0.1890 -0.1775  0.7121
  266MOL0     N36587   6.941   4.569   4.556  0.5371  0.5653  0.5095
  266MOL0     C36588   6.808   4.600   4.552  0.5533  0.6645 -0.5677
  266MOL0     C36589   6.816   4.728   4.566  0.4369  0.1859  0.2564
  266MOL0     C36590   6.702   4.825   4.575  0.2812 -0.3611 -0.0678
  266MOL0     C36591   6.560   4.764   4.574  1.0836 -0.3028  0.3422
  266MOL0     C36592   6.458   4.861   4.624  0.0394  0.4339  0.3692
  266MOL0     C36593   6.317   4.804   4.614 -0.8411  0.1034  0.4930
  266MOL0     O36594   6.292   4.732   4.725  0.0749 -0.3159  0.4891
  266MOL0     C36595   6.170   4.679   4.740  0.8160 -0.5907  0.5485
  266MOL0     C36596   6.136   4.628   4.860 -0.3067 -0.0702 -0.3174
  266MOL0     C36597   6.006   4.576   4.896 -0.1159 -1.5333 -0.3065
  266MOL0     C36598   5.980   4.516   5.032  0.2556  0.4392 -0.9777
  266MOL0     C36599   5.899   4.593   4.804 -0.5764  0.2050 -0.8863
  266MOL0     C36600   5.763   4.557   4.841  0.2087 -0.1066 -0.4858
  266MOL0     O36601   5.733   4.431   4.875  0.0878  0.0804 -0.5899
  266MOL0     C36602   5.610   4.391   4.923 -0.5798 -0.0388 -0.7245
  266MOL0     C36603   5.526   4.472   5.003 -1.6233 -0.7481 -0.7210
  266MOL0     C36604   5.400   4.431   5.052  0.0647 -0.4257  0.6247
  266MOL0     C36605   5.342   4.315   5.008  0.5673  0.0986  0.7609
  266MOL0     O36606   5.219   4.287   5.058 -0.3545  0.2019 -0.0036
  266MOL0     C36607   5.147   4.186   4.996  0.1165  0.5754 -0.2986
  266MOL0     C36608   5.001   4.227   5.031 -0.5044  0.7839  0.8931
  266MOL0     C36609   4.895   4.119   4.986 -0.3062 -0.9834 -0.1101
  266MOL0     C36610   4.765   4.127   5.051  0.3085 -0.7124  0.6619
  266MOL0     C36611   4.654   4.063   4.966  0.2496 -0.8320  0.4327
  266MOL0     C36612   4.651   3.909   4.977 -0.3359  0.4230  0.5351
  266MOL0     C36613   4.573   3.850   4.859 -0.9649 -0.7721  0.1969
  266MOL0     C36614   4.566   3.699   4.876  0.8519 -0.4581  0.4561
  266MOL0    Cl36615   4.721   3.602   4.869  0.1358  0.1784  0.2340
  266MOL0     C36616   5.413   4.234   4.915 -0.4858  0.4627  0.5586
  266MOL0     C36617   5.552   4.271   4.878 -0.0292 -0.5992 -0.5571
  266MOL0     O36618   5.679   4.654   4.829 -0.1798  0.3080 -0.2713
  266MOL0     C36619   5.935   4.646   4.675  2.0310  0.2851 -0.4006
  266MOL0     C36620   6.064   4.689   4.643  0.4521 -0.1569  0.5485
  266MOL0     N36621   6.942   4.779   4.550  0.4565 -0.4979  0.3860
  266MOL0     N36622   7.020   4.680   4.554  0.5553  0.0227  0.9225
  266MOL0     C36623   7.216   3.595   4.366 -1.1635  0.1208 -0.2152
  266MOL0     C36624   7.174   3.525   4.252 -0.1892 -0.1133 -0.0766
  266MOL0     C36625   6.905   3.337   3.915  0.7388 -0.4274 -0.6953
  266MOL0     C36626   6.839   3.221   3.967 -0.3411  1.0785  0.8567
  266MOL0     C36627   6.749   3.143   3.890 -1.0254 -0.5601  0.0768
  266MOL0     C36628   6.713   3.188   3.763 -0.8538 -0.3152  0.8789
  266MOL0     O36629   6.637   3.102   3.691  0.1824 -0.1600 -0.3570
  266MOL0     C36630   6.569   3.157   3.574 -0.2897  0.0654 -0.0370
  266MOL0     C36631   6.469   3.051   3.525  0.1905 -0.7922  0.4105
  266MOL0     C36632   6.535   2.924   3.483 -0.3645  0.3949 -0.3652
  266MOL0     C36633   6.432   2.808   3.469  0.1759  0.9081  0.3338
  266MOL0     C36634   6.316   2.825   3.377 -0.0157  0.6512 -0.1037
  266MOL0     C36635   6.217   2.846   3.309 -0.3290 -0.2851 -0.9590
  266MOL0     C36636   6.770   3.308   3.712  0.0940  0.4675  0.3387
  266MOL0     C36637   6.870   3.381   3.782 -0.2825  0.5862  0.2436
  266MOL0     C36638   6.955   3.492   3.715  1.4604  0.0882 -0.1703
  266MOL0     H36639   6.908   3.357   4.381 -0.2996  0.5161 -0.9815
  266MOL0     H36640   6.962   3.509   4.575 -0.6661  0.6429 -0.6886
  266MOL0     H36641   7.285   3.820   4.528  1.1456 -0.5109 -0.3817
  266MOL0     H36642   7.361   3.686   4.622 -0.3460 -0.0887  0.9532
  266MOL0     H36643   7.213   3.766   4.811 -1.4876  3.2962  2.5282
  266MOL0     H36644   7.325   3.888   4.760  0.8589 -0.9054 -1.0734
  266MOL0     H36645   7.169   3.993   4.596 -0.1722 -0.2795 -0.2703
  266MOL0     H36646   7.043   3.878   4.646  1.2415 -2.4218 -0.2847
  266MOL0     H36647   7.036   3.948   4.860 -0.6185  1.9603  1.1987
  266MOL0     H36648   7.168   4.054   4.864  1.9302 -0.0890 -0.8722
  266MOL0     H36649   6.977   4.169   4.856  1.2671  1.1111 -0.4027
  266MOL0     H36650   6.884   4.073   4.729  1.1836 -0.3226 -0.3404
  266MOL0     H36651   7.136   4.225   4.645  0.4564 -0.5201  3.2049
  266MOL0     H36652   7.012   4.151   4.549  1.2028 -2.3850  1.2397
  266MOL0     H36653   6.969   4.386   4.735 -1.3630 -0.7588  0.7406
  266MOL0     H36654   6.835   4.304   4.646 -0.6662  2.3186 -1.9520
  266MOL0     H36655   7.097   4.431   4.536 -0.2089  2.9490  0.8858
  266MOL0     H36656   6.961   4.385   4.440  1.2761  0.1655  0.1392
  266MOL0     H36657   6.721   4.534   4.556 -0.6151  2.1645  3.1977
  266MOL0     H36658   6.709   4.902   4.498 -2.5106  1.0845  0.9815
  266MOL0     H36659   6.707   4.867   4.676 -0.5763 -1.3971  0.4370
  266MOL0     H36660   6.527   4.734   4.474 -1.6732 -1.2507  1.4330
  266MOL0     H36661   6.558   4.680   4.644  1.7009  2.3028  3.7534
  266MOL0     H36662   6.478   4.878   4.730 -1.0804  3.3951  0.2057
  266MOL0     H36663   6.462   4.951   4.562 -0.3898 -0.1132 -0.4673
  266MOL0     H36664   6.241   4.882   4.605  1.9549  2.7741 -2.3498
  266MOL0     H36665   6.328   4.742   4.525  0.5131  0.9670  0.0465
  266MOL0     H36666   6.217   4.642   4.931 -1.3216  0.2033  0.8325
  266MOL0     H36667   6.078   4.522   5.080  0.0610  1.8644 -0.7197
  266MOL0     H36668   5.938   4.415   5.030  0.5056  0.3228 -0.5250
  266MOL0     H36669   5.904   4.567   5.092 -0.4059 -0.7948 -0.7284
  266MOL0     H36670   5.561   4.570   5.036 -1.0161 -0.1992 -2.8866
  266MOL0     H36671   5.354   4.499   5.123  1.4005 -1.5807  2.6835
  266MOL0     H36672   5.167   4.179   4.889  2.5724 -3.2280  0.2634
  266MOL0     H36673   5.172   4.089   5.038  1.3615  0.0954 -2.0439
  266MOL0     H36674   5.006   4.224   5.140  1.0096 -1.1945  0.8195
  266MOL0     H36675   4.987   4.330   4.997 -0.7299  0.2902 -0.5802
  266MOL0     H36676   4.942   4.021   5.000  2.0637  0.2538  1.0197
  266MOL0     H36677   4.885   4.115   4.877 -1.6427  0.7717 -0.0913
  266MOL0     H36678   4.735   4.232   5.065  0.2959 -0.5846 -0.2465
  266MOL0     H36679   4.771   4.070   5.144 -1.9268 -1.7775  0.2081
  266MOL0     H36680   4.559   4.102   5.004  0.1730  0.4740 -0.9896
  266MOL0     H36681   4.672   4.096   4.863 -0.8897  1.4154  0.8812
  266MOL0     H36682   4.597   3.878   5.067  2.6532  0.6235  2.5490
  266MOL0     H36683   4.754   3.872   4.974 -0.0238  1.1608 -3.0662
  266MOL0     H36684   4.617   3.866   4.759  0.1164 -1.5968  0.5180
  266MOL0     H36685   4.472   3.892   4.863  0.0549  1.8006  1.3469
  266MOL0     H36686   4.498   3.662   4.798  1.1382  0.0918 -0.0730
  266MOL0     H36687   4.511   3.675   4.967  2.1571 -0.8808  1.1504
  266MOL0     H36688   5.385   4.137   4.876  2.7800 -2.0541  3.7268
  266MOL0     H36689   5.621   4.200   4.834  3.1900  0.8877  1.7227
  266MOL0     H36690   5.854   4.669   4.607  2.6743  2.3900 -0.5293
  266MOL0     H36691   6.084   4.723   4.542 -0.7598 -2.8142 -0.6657
  266MOL0     H36692   7.299   3.663   4.351 -0.0190 -0.9763  0.8077
  266MOL0     H36693   7.240   3.522   4.166  0.6803 -3.9368  0.5151
  266MOL0     H36694   6.865   3.192   4.068 -0.3893  1.1388  0.8863
  266MOL0     H36695   6.699   3.057   3.934 -2.6665  0.5864  0.5483
  266MOL0     H36696   6.516   3.246   3.610 -0.2307 -0.4504  1.3952
  266MOL0     H36697   6.641   3.190   3.500 -0.9465  0.4342 -0.5244
  266MOL0     H36698   6.415   3.091   3.438 -0.9134 -0.6967  1.1234
  266MOL0     H36699   6.395   3.034   3.603  0.1741 -0.5761  0.4425
  266MOL0     H36700   6.595   2.934   3.392 -1.1198 -1.3956 -1.1310
  266MOL0     H36701   6.603   2.903   3.566 -3.1184  2.4007  2.6483
  266MOL0     H36702   6.381   2.801   3.565 -0.1745  1.8070  0.2308
  266MOL0     H36703   6.482   2.715   3.443 -1.3110  0.2193 -0.1591
  266MOL0     H36704   6.139   2.875   3.241 -0.0460 -0.8834 -1.5604
  266MOL0     H36705   6.758   3.339   3.608  2.3667  1.5984  0.3517
  266MOL0     H36706   7.061   3.471   3.727  1.2679 -0.9040 -0.0599
  266MOL0     H36707   6.937   3.497   3.607  0.6124  0.2214 -0.0291
  266MOL0     H36708   6.926   3.587   3.760  3.7895  0.3582  0.8827
  267MOL0     O36709   1.332   7.834   8.700 -0.1745 -0.5347  0.1755
  267MOL0     C36710   1.274   7.921   8.634  0.0621  0.3777 -0.3189
  267MOL0     O36711   1.136   7.937   8.647 -0.6385 -0.3710 -0.3095
  267MOL0     C36712   1.065   7.878   8.748  0.5266  1.1035  0.6032
  267MOL0     C36713   1.047   7.740   8.754  0.2190 -0.6401 -0.0252
  267MOL0     C36714   0.981   7.680   8.864 -0.0832 -0.0340  0.4008
  267MOL0     C36715   0.937   7.772   8.961  0.3375 -0.0641  1.4959
  267MOL0     O36716   0.867   7.713   9.064 -0.0979  0.2251  0.3230
  267MOL0     C36717   0.853   7.788   9.190  0.5182 -0.0314 -0.0760
  267MOL0     C36718   0.791   7.708   9.306  0.5924  0.2990 -0.3418
  267MOL0     C36719   0.857   7.752   9.442 -0.2522  0.5086 -0.4577
  267MOL0     C36720   0.818   7.653   9.559 -0.0530 -0.2463 -0.0009
  267MOL0     C36721   0.873   7.685   9.697  0.3445 -0.2620 -0.0844
  267MOL0     C36722   1.026   7.722   9.701  0.7608  0.2904 -0.3008
  267MOL0     C36723   1.118   7.597   9.671  0.5020 -0.2452  0.4089
  267MOL0     C36724   1.266   7.641   9.650 -0.1562  0.1725 -0.4975
  267MOL0     N36725   1.297   7.687   9.513 -0.0993  1.1360  0.6287
  267MOL0     C36726   1.360   7.604   9.428 -0.0891 -0.5565  0.9616
  267MOL0     C36727   1.362   7.677   9.310  0.4038 -0.4859 -0.3504
  267MOL0     C36728   1.416   7.631   9.175  1.0269  0.1694 -1.1274
  267MOL0     C36729   1.546   7.565   9.188 -0.5551 -0.6195  0.1324
  267MOL0     C36730   1.641   7.562   9.066  0.0899  0.2232  0.9850
  267MOL0     C36731   1.712   7.684   9.034 -0.2408  0.2427  0.1077
  267MOL0     O36732   1.785   7.660   8.910  0.4354  0.0898  0.1842
  267MOL0     C36733   1.847   7.768   8.858  0.2492 -0.6136  0.5271
  267MOL0     C36734   1.904   7.874   8.929  0.8473  0.0315  0.4287
  267MOL0     C36735   1.964   7.982   8.870  0.1803  0.5923  0.5111
  267MOL0     C36736   2.006   8.091   8.965 -0.3009  0.2963 -0.0491
  267MOL0     C36737   1.982   7.978   8.733 -0.0420 -0.7278  0.0448
  267MOL0     C36738   2.052   8.087   8.648  0.4628 -0.1818 -0.1780
  267MOL0     O36739   2.042   8.073   8.509 -0.2688 -0.0244 -0.6122
  267MOL0     C36740   2.099   8.174   8.433 -0.6691  0.5132 -0.0382
  267MOL0     C36741   2.240   8.192   8.429  0.5967  0.1066  0.6867
  267MOL0     C36742   2.277   8.313   8.370 -0.1089  0.4012 -0.2010
  267MOL0     C36743   2.199   8.402   8.306  0.1635 -0.1997  0.0738
  267MOL0     O36744   2.250   8.508   8.236 -0.0478  0.9965  0.0876
  267MOL0     C36745   2.345   8.589   8.318  0.3591 -0.6099  0.5967
  267MOL0     C36746   2.415   8.704   8.233  0.6255  0.0208  0.1993
  267MOL0     C36747   2.299   8.798   8.177 -0.0411  0.2251  0.5577
  267MOL0     C36748   2.370   8.916   8.101  0.0498 -0.0738  0.3103
  267MOL0     C36749   2.263   9.031   8.078  0.5928 -0.0710 -0.7802
  267MOL0     C36750   2.121   9.003   8.013  0.1094 -0.0947  1.0576
  267MOL0     C36751   2.145   8.943   7.877 -0.2229  0.3306  0.7384
  267MOL0     C36752   2.014   8.922   7.798 -0.8623 -0.2561 -0.9155
  267MOL0    Cl36753   1.892   8.821   7.879  0.1699  0.1389  0.3000
  267MOL0     C36754   2.060   8.378   8.310 -0.4813  0.3153 -0.0125
  267MOL0     C36755   2.006   8.266   8.372 -0.5268 -0.2094  0.0981
  267MOL0     O36756   2.113   8.176   8.710 -0.3296 -0.2334  0.3387
  267MOL0     C36757   1.932   7.867   8.664 -0.3517  0.4559 -0.2984
  267MOL0     C36758   1.870   7.761   8.724 -0.8603 -0.5868 -0.3926
  267MOL0     N36759   1.289   7.798   9.328  0.6941  0.5564  0.5463
  267MOL0     N36760   1.259   7.804   9.455 -0.0765  0.1540 -0.0959
  267MOL0     C36761   0.970   7.905   8.962  0.5284 -0.1884 -0.2006
  267MOL0     C36762   1.034   7.955   8.859  0.5733 -1.2165  0.2699
  267MOL0     C36763   1.339   7.989   8.522 -0.2018 -0.0069  0.1958
  267MOL0     C36764   1.263   8.033   8.417  0.2788  0.7419  0.1390
  267MOL0     C36765   1.319   8.106   8.302  0.2911  0.7515  0.2821
  267MOL0     C36766   1.459   8.119   8.296 -0.0348  0.2991 -0.4663
  267MOL0     O36767   1.509   8.180   8.185  0.2727  0.0292  0.2095
  267MOL0     C36768   1.651   8.207   8.185  0.4138  0.1021 -0.2999
  267MOL0     C36769   1.682   8.268   8.049 -0.7124  0.0032  0.6113
  267MOL0     C36770   1.599   8.398   8.031  0.4872 -0.5033  0.0084
  267MOL0     C36771   1.672   8.497   7.934  0.6360  1.5468  0.1755
  267MOL0     C36772   1.589   8.611   7.923  0.0034 -0.8507  0.7367
  267MOL0     C36773   1.519   8.715   7.923 -0.6724 -0.2661 -0.7823
  267MOL0     C36774   1.539   8.065   8.403  0.1099 -0.2278 -0.7940
  267MOL0     C36775   1.486   8.000   8.522 -0.4905 -0.3617 -0.3030
  267MOL0     C36776   1.582   7.968   8.631  0.3318  0.3107  0.2184
  267MOL0     H36777   1.066   7.671   8.672 -0.4641  1.0642 -1.6759
  267MOL0     H36778   0.939   7.580   8.850 -1.5558  0.9514 -3.6748
  267MOL0     H36779   0.799   7.881   9.171 -0.1795  0.0940  2.2025
  267MOL0     H36780   0.948   7.832   9.222 -2.0691  4.5557  2.3363
  267MOL0     H36781   0.686   7.738   9.306  0.7227  0.8227 -2.0813
  267MOL0     H36782   0.809   7.602   9.286  0.0337 -0.1652  1.3883
  267MOL0     H36783   0.967   7.758   9.440 -0.1744 -0.7641 -2.4201
  267MOL0     H36784   0.817   7.849   9.471  2.0012  1.0096  1.2758
  267MOL0     H36785   0.710   7.640   9.572  0.0143  1.2726  3.1462
  267MOL0     H36786   0.868   7.561   9.528  0.6343  0.0950  0.0687
  267MOL0     H36787   0.850   7.602   9.765  0.1650 -1.9022 -2.0460
  267MOL0     H36788   0.822   7.766   9.749 -1.8008 -2.2428  1.1056
  267MOL0     H36789   1.042   7.797   9.624 -2.7989 -0.7593 -2.2758
  267MOL0     H36790   1.046   7.769   9.798  0.2560  4.7475 -2.1203
  267MOL0     H36791   1.081   7.539   9.587  1.1800  2.0675 -1.6033
  267MOL0     H36792   1.109   7.543   9.766  3.2748 -1.6820 -0.0605
  267MOL0     H36793   1.279   7.722   9.722 -1.9631 -0.0845  0.1755
  267MOL0     H36794   1.335   7.559   9.674 -0.7763 -0.7576 -1.7766
  267MOL0     H36795   1.406   7.509   9.452  0.4439 -0.4278  0.4927
  267MOL0     H36796   1.418   7.715   9.105  0.7334  0.9633 -0.2074
  267MOL0     H36797   1.342   7.563   9.132  0.4582  0.7064 -1.0172
  267MOL0     H36798   1.606   7.619   9.261 -0.1947 -0.2502 -0.4247
  267MOL0     H36799   1.546   7.464   9.230  0.0161  0.4750  2.9798
  267MOL0     H36800   1.711   7.479   9.077 -2.3429 -2.4131 -1.7669
  267MOL0     H36801   1.588   7.532   8.975  3.2106  0.5782 -1.0944
  267MOL0     H36802   1.648   7.773   9.027  0.7682  1.1640  1.7813
  267MOL0     H36803   1.781   7.711   9.115  0.8634  1.3961 -1.1821
  267MOL0     H36804   1.886   7.873   9.036 -1.5748 -2.2299  0.1210
  267MOL0     H36805   1.933   8.096   9.046 -0.4161 -0.3271 -0.1149
  267MOL0     H36806   2.000   8.191   8.920 -2.8291  0.8516  1.3228
  267MOL0     H36807   2.108   8.072   9.000  0.8120  1.9191 -2.1600
  267MOL0     H36808   2.314   8.126   8.473 -1.0986 -2.4390 -0.0539
  267MOL0     H36809   2.385   8.328   8.367 -0.2660  1.5355 -0.7763
  267MOL0     H36810   2.299   8.623   8.411 -1.5926 -3.0146  0.5934
  267MOL0     H36811   2.424   8.522   8.352  3.5168  1.8010 -1.3616
  267MOL0     H36812   2.475   8.772   8.294  2.3691 -0.3563 -1.0219
  267MOL0     H36813   2.479   8.657   8.158 -1.3814  1.1277 -2.4010
  267MOL0     H36814   2.238   8.837   8.259  1.4183 -0.7193  2.1611
  267MOL0     H36815   2.241   8.742   8.102 -0.6579  0.8455  0.5703
  267MOL0     H36816   2.413   8.889   8.005 -2.0961  0.3470 -0.8449
  267MOL0     H36817   2.457   8.947   8.159 -0.0656 -0.1262  0.5142
  267MOL0     H36818   2.243   9.049   8.184 -0.8777 -1.5126 -0.7685
  267MOL0     H36819   2.309   9.117   8.029  0.3456  0.4054 -0.1922
  267MOL0     H36820   2.071   9.100   8.005  2.7281  1.2504 -0.4129
  267MOL0     H36821   2.070   8.924   8.069 -1.4052 -1.7611 -2.3327
  267MOL0     H36822   2.199   8.848   7.893  1.5466  1.3058  0.8583
  267MOL0     H36823   2.219   9.003   7.823  0.4947 -0.7557  0.4827
  267MOL0     H36824   2.044   8.877   7.703 -2.1262  0.1860 -1.5487
  267MOL0     H36825   1.970   9.015   7.760  0.8299  1.5831  1.3067
  267MOL0     H36826   1.998   8.430   8.237 -0.1581  1.4760  0.5252
  267MOL0     H36827   1.900   8.247   8.388 -0.2032 -0.8311  1.7844
  267MOL0     H36828   1.936   7.846   8.557 -2.3132  1.0014 -0.5200
  267MOL0     H36829   1.832   7.676   8.668 -5.3090  1.8566 -1.6256
  267MOL0     H36830   0.951   7.978   9.039 -1.0911 -0.2049 -0.5580
  267MOL0     H36831   1.060   8.060   8.859  4.2989 -2.0069 -0.7358
  267MOL0     H36832   1.157   8.011   8.410  0.5279 -0.3298 -0.4288
  267MOL0     H36833   1.254   8.145   8.225  2.4110 -0.0506 -2.0262
  267MOL0     H36834   1.676   8.281   8.263  2.1807  0.2889 -0.9963
  267MOL0     H36835   1.713   8.118   8.196 -0.5458 -0.6458 -0.8765
  267MOL0     H36836   1.650   8.193   7.977 -0.3391  0.9060 -0.5300
  267MOL0     H36837   1.791   8.277   8.041 -0.3596 -4.2887 -3.7546
  267MOL0     H36838   1.504   8.359   7.993 -1.4068  0.8314  3.0260
  267MOL0     H36839   1.582   8.453   8.124 -2.8803 -0.7826 -0.3305
  267MOL0     H36840   1.696   8.463   7.833  1.0883  1.1772  0.4041
  267MOL0     H36841   1.764   8.524   7.986 -0.8817 -0.0444  4.1247
  267MOL0     H36842   1.457   8.802   7.931  1.5473  1.3946 -0.5804
  267MOL0     H36843   1.647   8.070   8.400  0.3788 -1.3502  2.6077
  267MOL0     H36844   1.593   7.859   8.634  0.6914  0.3296 -0.2509
  267MOL0     H36845   1.680   8.004   8.598  0.4568  0.4054  0.6918
  267MOL0     H36846   1.557   8.020   8.723 -1.0346  0.3914 -0.1856
  268MOL0     O36847   1.875   5.813   1.408 -0.4047 -0.0619  0.5839
  268MOL0     C36848   1.823   5.883   1.324  0.4776 -0.1895  0.1444
  268MOL0     O36849   1.883   5.995   1.273 -0.1970  0.1756 -1.2602
  268MOL0     C36850   1.993   6.044   1.340 -0.4121  0.0212 -0.1689
  268MOL0     C36851   2.118   5.990   1.313 -0.4629 -0.6291 -0.2859
  268MOL0     C36852   2.237   6.039   1.370  0.7733 -0.1169 -0.1263
  268MOL0     C36853   2.222   6.142   1.468  0.8502  0.1977 -0.2373
  268MOL0     O36854   2.320   6.194   1.543 -0.3668 -0.0417 -0.4581
  268MOL0     C36855   2.450   6.131   1.525  0.7148 -0.3169  0.9253
  268MOL0     C36856   2.539   6.222   1.609 -0.0105 -1.0998 -0.5070
  268MOL0     C36857   2.683   6.175   1.585  0.1041 -0.2420 -0.4100
  268MOL0     C36858   2.770   6.276   1.669  0.2203 -0.5561  1.2144
  268MOL0     C36859   2.915   6.273   1.624 -0.4412  0.3289 -0.2135
  268MOL0     C36860   2.999   6.361   1.721  0.0697 -0.0499  0.4295
  268MOL0     C36861   3.151   6.352   1.682  0.3061 -0.4258  0.1270
  268MOL0     C36862   3.238   6.429   1.773 -0.3274 -0.4463  0.7534
  268MOL0     N36863   3.375   6.439   1.725 -0.1450  0.1170  0.6933
  268MOL0     C36864   3.487   6.383   1.773 -0.9357  1.0058  0.3671
  268MOL0     C36865   3.592   6.420   1.690 -0.1909 -0.6792 -1.0486
  268MOL0     C36866   3.741   6.364   1.680  0.4395  0.2686 -0.2677
  268MOL0     C36867   3.791   6.331   1.815  0.0374  0.5494  1.1017
  268MOL0     C36868   3.944   6.303   1.807 -0.3078 -0.4440 -0.5333
  268MOL0     C36869   3.989   6.210   1.920  0.7921  0.1912  0.6772
  268MOL0     O36870   4.126   6.230   1.935 -0.1794 -0.6188  0.0970
  268MOL0     C36871   4.203   6.122   1.916 -0.2189 -0.0883 -0.0196
  268MOL0     C36872   4.190   6.028   1.814  0.5433 -0.6281  0.9202
  268MOL0     C36873   4.288   5.927   1.789 -0.2644 -0.7380  0.2165
  268MOL0     C36874   4.278   5.853   1.653 -0.4238  0.1230 -0.1090
  268MOL0     C36875   4.402   5.919   1.879 -0.9770 -0.0717  0.2515
  268MOL0     C36876   4.505   5.812   1.858  0.4556  0.2701 -0.4113
  268MOL0     O36877   4.627   5.836   1.919  0.3500  0.1671  0.3359
  268MOL0     C36878   4.726   5.770   1.862 -0.8357  0.6030  0.6738
  268MOL0     C36879   4.812   5.840   1.777 -0.4370 -0.2373  0.2557
  268MOL0     C36880   4.909   5.768   1.707 -0.1155  0.0057  0.5491
  268MOL0     C36881   4.943   5.633   1.746  1.6836  0.4062  0.1434
  268MOL0     O36882   5.050   5.564   1.681  0.1353  0.2697  0.0507
  268MOL0     C36883   5.132   5.488   1.779  0.7968  0.2731  0.5078
  268MOL0     C36884   5.268   5.535   1.790 -0.0348  0.8885 -0.5788
  268MOL0     C36885   5.265   5.663   1.872  0.5037  0.3256 -0.2419
  268MOL0     C36886   5.285   5.628   2.020 -0.2416  0.1632 -0.8442
  268MOL0     C36887   5.275   5.743   2.116 -1.2092 -0.3867 -0.0925
  268MOL0     C36888   5.406   5.826   2.102  0.8014 -0.0541 -0.3381
  268MOL0     C36889   5.459   5.867   2.240 -0.5910  0.3623 -0.8175
  268MOL0     C36890   5.580   5.961   2.227 -0.1452  0.2389  0.1815
  268MOL0    Cl36891   5.722   5.863   2.179 -0.0799 -0.0385 -0.1012
  268MOL0     C36892   4.864   5.571   1.849 -0.2450  0.6371  0.0311
  268MOL0     C36893   4.761   5.638   1.902  1.2786 -0.7355  0.3685
  268MOL0     O36894   4.471   5.710   1.797  0.6539  0.0853  0.3165
  268MOL0     C36895   4.417   6.016   1.975  0.6070  0.0854 -0.1599
  268MOL0     C36896   4.320   6.122   1.985 -0.1131  0.1293  0.5206
  268MOL0     N36897   3.541   6.509   1.599 -0.4623  0.1194 -0.6831
  268MOL0     N36898   3.410   6.519   1.612 -0.7811  0.0396 -0.3312
  268MOL0     C36899   2.097   6.188   1.503  0.1767  0.1788  0.1614
  268MOL0     C36900   1.980   6.149   1.437 -0.2381 -0.0064 -0.0163
  268MOL0     C36901   1.685   5.857   1.286 -0.6748 -0.3020 -1.1162
  268MOL0     C36902   1.627   5.746   1.348 -0.4892  0.2906 -1.0728
  268MOL0     C36903   1.489   5.719   1.337 -0.2758  0.0485  0.5857
  268MOL0     C36904   1.399   5.807   1.264 -0.4617  0.5896 -0.5574
  268MOL0     O36905   1.268   5.777   1.280  0.5808  0.1551  0.4258
  268MOL0     C36906   1.174   5.855   1.206  0.3899  0.0951  0.0842
  268MOL0     C36907   1.030   5.812   1.256 -0.1488 -0.2994 -0.1967
  268MOL0     C36908   1.010   5.828   1.407  0.9002  0.4406  1.1756
  268MOL0     C36909   1.008   5.976   1.457  0.0400  0.1147 -0.2853
  268MOL0     C36910   0.882   6.038   1.429  0.4937  1.0797 -0.0495
  268MOL0     C36911   0.763   6.066   1.415 -0.7653  0.5704  0.0236
  268MOL0     C36912   1.458   5.910   1.204 -0.7846  0.0056  1.0209
  268MOL0     C36913   1.597   5.934   1.203 -0.1511  0.5186  0.6685
  268MOL0     C36914   1.635   6.062   1.127  0.4827 -0.3815 -0.3252
  268MOL0     H36915   2.128   5.907   1.244  1.1824  0.4561 -1.4170
  268MOL0     H36916   2.332   5.996   1.340  1.4645  0.8575  0.6344
  268MOL0     H36917   2.486   6.131   1.421  2.7430  0.0325  1.5816
  268MOL0     H36918   2.450   6.028   1.561  3.3852  0.1199  2.4252
  268MOL0     H36919   2.528   6.327   1.581  0.2518 -0.7714  0.5873
  268MOL0     H36920   2.522   6.203   1.715  3.3626 -1.2886  0.1182
  268MOL0     H36921   2.691   6.074   1.627  1.5340 -0.4320 -1.0874
  268MOL0     H36922   2.715   6.172   1.480  0.4631  0.2862 -0.3160
  268MOL0     H36923   2.746   6.383   1.666 -0.6663 -0.7597  0.7098
  268MOL0     H36924   2.754   6.261   1.776 -1.0071  0.2649  1.1714
  268MOL0     H36925   2.926   6.307   1.520 -0.2152  0.6145 -0.0965
  268MOL0     H36926   2.949   6.170   1.638 -2.1921 -0.3797 -0.8045
  268MOL0     H36927   2.957   6.462   1.715 -1.6871 -0.7960 -0.6421
  268MOL0     H36928   2.982   6.327   1.824 -2.1769  0.3748  0.2367
  268MOL0     H36929   3.153   6.390   1.580  1.9340  0.7860  0.5751
  268MOL0     H36930   3.178   6.246   1.681  3.8878  0.3699 -0.0867
  268MOL0     H36931   3.201   6.532   1.784 -0.4360 -0.4888  0.7924
  268MOL0     H36932   3.242   6.387   1.874  0.2723  0.6281  1.1927
  268MOL0     H36933   3.494   6.303   1.847  0.1107  0.1315 -0.6358
  268MOL0     H36934   3.797   6.447   1.635  2.1501  0.5643  2.1923
  268MOL0     H36935   3.734   6.276   1.616 -0.1819  0.9475 -1.1698
  268MOL0     H36936   3.784   6.428   1.864 -0.8716  2.6929 -2.8064
  268MOL0     H36937   3.732   6.251   1.861 -2.7832  1.0401 -1.3190
  268MOL0     H36938   3.975   6.259   1.712 -1.0885  1.0092 -1.4907
  268MOL0     H36939   3.991   6.401   1.811  0.3448 -0.7201  3.8731
  268MOL0     H36940   3.931   6.232   2.010 -0.6796  0.1377 -0.2185
  268MOL0     H36941   3.960   6.109   1.890 -1.3150  0.5728  1.2636
  268MOL0     H36942   4.102   6.028   1.751 -1.0280  1.8983  2.9097
  268MOL0     H36943   4.366   5.871   1.591  0.9892  2.2400  2.3187
  268MOL0     H36944   4.186   5.875   1.599 -2.2063 -0.5994  2.4309
  268MOL0     H36945   4.263   5.750   1.688  0.6909 -0.2188 -0.6096
  268MOL0     H36946   4.789   5.943   1.751  1.3912 -0.0547 -0.8694
  268MOL0     H36947   4.973   5.818   1.635 -0.9891 -2.5976 -2.2368
  268MOL0     H36948   5.100   5.483   1.884  3.0500 -3.6455  1.2258
  268MOL0     H36949   5.130   5.384   1.745  3.3767  0.2431  0.2558
  268MOL0     H36950   5.326   5.457   1.840 -1.5895  1.0336  1.5949
  268MOL0     H36951   5.313   5.563   1.694 -1.9383  2.8397 -0.9835
  268MOL0     H36952   5.176   5.725   1.858  0.1174 -0.0391  0.5870
  268MOL0     H36953   5.349   5.728   1.846 -0.7058  2.6877  1.4849
  268MOL0     H36954   5.386   5.587   2.026 -0.3743  0.0198  0.9411
  268MOL0     H36955   5.216   5.549   2.053  0.2536  0.0740  0.0064
  268MOL0     H36956   5.190   5.810   2.100  0.1950  1.3781 -0.4624
  268MOL0     H36957   5.269   5.692   2.213 -3.5018 -2.5670 -1.2550
  268MOL0     H36958   5.382   5.912   2.038 -0.7987 -0.8694 -0.8932
  268MOL0     H36959   5.489   5.775   2.052 -0.7458 -1.9555 -1.1223
  268MOL0     H36960   5.476   5.772   2.291 -0.6808  0.1400 -1.1937
  268MOL0     H36961   5.379   5.922   2.292 -0.1555 -0.0742  0.3528
  268MOL0     H36962   5.603   6.010   2.322  3.0899  0.4181 -0.5678
  268MOL0     H36963   5.562   6.043   2.157 -4.0141 -2.4955 -2.4372
  268MOL0     H36964   4.862   5.465   1.873 -3.7735  0.5415 -0.1063
  268MOL0     H36965   4.687   5.595   1.969 -0.7912  0.0569 -1.2556
  268MOL0     H36966   4.509   6.015   2.032  0.2949 -2.4460  0.4062
  268MOL0     H36967   4.332   6.207   2.051 -0.4469 -0.3533  1.2200
  268MOL0     H36968   2.079   6.260   1.582  1.9817  0.5015  0.2965
  268MOL0     H36969   1.887   6.201   1.459 -0.2815 -0.1987  0.2677
  268MOL0     H36970   1.680   5.687   1.421 -3.4406  0.1178  1.1503
  268MOL0     H36971   1.448   5.636   1.393 -0.2617  0.4401  1.1905
  268MOL0     H36972   1.195   5.959   1.234  3.1279 -0.7533  1.6335
  268MOL0     H36973   1.173   5.828   1.100  0.9713  0.1771  0.0543
  268MOL0     H36974   1.009   5.712   1.218  3.2773 -0.8880 -0.8731
  268MOL0     H36975   0.957   5.879   1.209 -1.5817 -3.6765 -3.2780
  268MOL0     H36976   0.923   5.769   1.436  0.5493 -0.2501 -1.0797
  268MOL0     H36977   1.095   5.776   1.451  2.4713  2.8404  1.1741
  268MOL0     H36978   1.098   6.032   1.430 -0.0708  0.3342 -0.2079
  268MOL0     H36979   1.030   5.969   1.564  4.4764 -3.2500 -1.1144
  268MOL0     H36980   0.659   6.085   1.398 -0.7082 -0.9065 -2.4847
  268MOL0     H36981   1.398   5.976   1.143  3.1752  1.3869 -1.8446
  268MOL0     H36982   1.709   6.043   1.049 -0.4029 -0.6102 -1.1238
  268MOL0     H36983   1.555   6.103   1.064  0.0718 -0.1859  0.3091
  268MOL0     H36984   1.669   6.142   1.194 -1.5974 -0.4470  0.8946
  269MOL0     O36985   1.972   4.018   1.782  0.3069  0.4365  0.5335
  269MOL0     C36986   1.893   3.930   1.823 -0.5527 -0.0095  0.1708
  269MOL0     O36987   1.928   3.833   1.921 -0.4684  0.4086 -0.1163
  269MOL0     C36988   2.062   3.835   1.965  0.2161 -0.3033  0.0232
  269MOL0     C36989   2.169   3.808   1.883  0.6304 -0.7981 -0.6433
  269MOL0     C36990   2.303   3.821   1.927 -0.9063 -0.6763  0.0199
  269MOL0     C36991   2.324   3.862   2.059 -0.8660 -0.2807 -0.0070
  269MOL0     O36992   2.455   3.865   2.097 -1.0064  0.1585 -0.0068
  269MOL0     C36993   2.482   3.882   2.236 -0.1487  0.0748 -0.9588
  269MOL0     C36994   2.627   3.853   2.258 -1.0566  1.1732  0.5808
  269MOL0     C36995   2.718   3.971   2.228 -0.1197 -1.0078  0.4663
  269MOL0     C36996   2.858   3.930   2.221  0.2618  0.6473  0.1452
  269MOL0     C36997   2.938   4.052   2.186 -0.3330  0.7828 -0.4018
  269MOL0     C36998   3.080   4.028   2.133  0.8101 -0.1718 -0.2159
  269MOL0     C36999   3.172   4.150   2.103  0.6916  0.6183 -0.4618
  269MOL0     C37000   3.237   4.209   2.230 -0.7937 -0.2893 -0.5056
  269MOL0     N37001   3.320   4.101   2.293 -0.4221  0.0323 -0.4363
  269MOL0     C37002   3.290   4.036   2.403  0.4412 -0.7400 -0.1329
  269MOL0     C37003   3.403   3.965   2.433  1.1105  0.4708 -0.6705
  269MOL0     C37004   3.392   3.857   2.540  0.9243 -0.3592 -0.0863
  269MOL0     C37005   3.502   3.757   2.527 -0.8034 -0.5009  0.2942
  269MOL0     C37006   3.483   3.668   2.402 -0.3828  0.6613  0.1053
  269MOL0     C37007   3.605   3.572   2.386 -0.2217 -1.2112  0.3259
  269MOL0     O37008   3.724   3.644   2.378 -0.7521  0.3273  0.6902
  269MOL0     C37009   3.840   3.566   2.366  0.5348  0.2995  0.3883
  269MOL0     C37010   3.958   3.632   2.366 -0.4014 -0.5235 -0.1995
  269MOL0     C37011   4.077   3.561   2.344 -0.9634 -0.0283 -0.1095
  269MOL0     C37012   4.204   3.636   2.350 -0.0626 -0.4955  0.3847
  269MOL0     C37013   4.078   3.423   2.333  1.2307  0.0068  0.9832
  269MOL0     C37014   4.205   3.345   2.305 -0.4269 -0.1316 -0.1523
  269MOL0     O37015   4.308   3.337   2.400  0.2860  0.2479  0.5527
  269MOL0     C37016   4.415   3.257   2.391 -0.2613  0.3763 -1.2114
  269MOL0     C37017   4.542   3.306   2.425 -0.0013 -0.5162 -0.6436
  269MOL0     C37018   4.654   3.230   2.408  0.7276  1.2772  0.2008
  269MOL0     C37019   4.652   3.098   2.374  0.1780 -0.1939 -0.0841
  269MOL0     O37020   4.763   3.019   2.352 -0.1764 -0.0440  0.7385
  269MOL0     C37021   4.836   3.009   2.472 -0.7154  0.5043 -0.2995
  269MOL0     C37022   4.940   2.898   2.476 -0.3539 -0.3690 -0.4786
  269MOL0     C37023   5.053   2.954   2.388 -0.0372  0.5878 -0.5382
  269MOL0     C37024   5.174   2.857   2.391  0.1962  0.6606 -0.6734
  269MOL0     C37025   5.301   2.914   2.337  0.7033  1.1258 -0.8790
  269MOL0     C37026   5.289   2.983   2.190 -0.2097  0.4297  0.2567
  269MOL0     C37027   5.429   3.019   2.129 -0.0172 -0.9163 -0.1837
  269MOL0     C37028   5.425   3.052   1.989 -0.0597 -0.2754 -0.6603
  269MOL0    Cl37029   5.411   2.900   1.893 -0.0155  0.0184  0.4139
  269MOL0     C37030   4.525   3.040   2.355  0.2620  0.2269  0.0943
  269MOL0     C37031   4.405   3.124   2.352  0.4627 -0.3135 -0.5952
  269MOL0     O37032   4.195   3.277   2.201  1.2015 -0.8166 -0.0096
  269MOL0     C37033   3.960   3.352   2.344  0.1627  0.1750  0.1008
  269MOL0     C37034   3.840   3.423   2.359 -1.0991  0.2746  0.6717
  269MOL0     N37035   3.500   3.996   2.344 -0.1261  0.1249  0.4875
  269MOL0     N37036   3.451   4.078   2.258  1.0307  0.2058  0.0216
  269MOL0     C37037   2.219   3.898   2.139  0.9369  0.6121 -0.0335
  269MOL0     C37038   2.093   3.884   2.092  0.2905 -0.1004  0.3977
  269MOL0     C37039   1.752   3.947   1.778  0.1379 -0.5108 -0.4669
  269MOL0     C37040   1.666   3.839   1.799 -0.3999 -0.0206  0.1168
  269MOL0     C37041   1.537   3.847   1.752 -0.3535 -0.0584  0.1809
  269MOL0     C37042   1.487   3.960   1.689  0.1428 -0.2730  0.2733
  269MOL0     O37043   1.363   3.963   1.641 -0.2945  0.3449 -0.3776
  269MOL0     C37044   1.370   3.936   1.501  0.2595  0.4753 -0.3984
  269MOL0     C37045   1.243   3.971   1.418  0.1501 -0.4101  0.4743
  269MOL0     C37046   1.252   3.917   1.275 -0.0495 -0.3480  0.5663
  269MOL0     C37047   1.140   3.960   1.186 -0.1674  0.0247  0.0294
  269MOL0     C37048   1.119   4.102   1.191  0.0324  0.3624  0.5809
  269MOL0     C37049   1.084   4.217   1.163  0.3438 -0.5105 -0.8167
  269MOL0     C37050   1.565   4.073   1.681  0.4611  0.6545 -1.4207
  269MOL0     C37051   1.700   4.072   1.722 -0.4634 -0.1655 -0.0651
  269MOL0     C37052   1.769   4.206   1.706 -0.6425 -0.1195  0.5118
  269MOL0     H37053   2.153   3.781   1.779  0.0676 -1.6092 -0.3510
  269MOL0     H37054   2.386   3.784   1.867  1.3243 -0.6742  2.8645
  269MOL0     H37055   2.422   3.809   2.291  0.1305 -0.3890 -1.2692
  269MOL0     H37056   2.460   3.985   2.267  0.9428 -0.4747  1.9663
  269MOL0     H37057   2.653   3.818   2.359 -0.0370  0.2550  0.0330
  269MOL0     H37058   2.652   3.764   2.199  1.2204  2.6306 -0.8121
  269MOL0     H37059   2.684   3.999   2.128  0.5434 -1.9137 -0.0281
  269MOL0     H37060   2.696   4.056   2.293  0.5711 -2.9984  3.5342
  269MOL0     H37061   2.896   3.884   2.312 -1.5373  0.5491  0.9070
  269MOL0     H37062   2.872   3.849   2.149 -0.6274 -0.7437  1.4901
  269MOL0     H37063   2.952   4.102   2.282  1.0172 -1.6134  0.7526
  269MOL0     H37064   2.879   4.110   2.114  0.6415  0.5426 -1.4274
  269MOL0     H37065   3.132   3.959   2.199 -2.2863 -2.6388 -0.0945
  269MOL0     H37066   3.070   3.970   2.041 -2.0195  0.9375 -0.7070
  269MOL0     H37067   3.101   4.229   2.076 -1.0907 -0.4601  0.7873
  269MOL0     H37068   3.240   4.137   2.018 -1.8388  1.5250 -2.7729
  269MOL0     H37069   3.302   4.291   2.199  0.7177 -1.1794  0.1807
  269MOL0     H37070   3.166   4.249   2.303  0.0154  0.5384 -0.1523
  269MOL0     H37071   3.210   4.047   2.476  2.2680  2.5157  1.6293
  269MOL0     H37072   3.299   3.802   2.521 -0.6866  1.6471  1.5378
  269MOL0     H37073   3.380   3.904   2.638 -0.1830 -1.3616  0.2819
  269MOL0     H37074   3.598   3.809   2.536 -1.4995  1.0318 -0.6966
  269MOL0     H37075   3.486   3.691   2.613 -1.8901 -0.7454 -0.0778
  269MOL0     H37076   3.387   3.618   2.416 -0.6598  1.4167  1.0167
  269MOL0     H37077   3.475   3.732   2.313  0.4863 -1.2236 -1.4090
  269MOL0     H37078   3.603   3.506   2.474  0.3424 -0.6686  0.7500
  269MOL0     H37079   3.581   3.510   2.299 -2.9550  2.6478 -1.9645
  269MOL0     H37080   3.969   3.740   2.363  2.4642 -0.6390  1.7687
  269MOL0     H37081   4.276   3.614   2.270  0.6053  1.9889  0.2115
  269MOL0     H37082   4.254   3.615   2.445  1.9461  2.4726  0.1408
  269MOL0     H37083   4.191   3.745   2.359  2.3481 -0.0986 -0.1524
  269MOL0     H37084   4.554   3.408   2.459 -3.7065  0.1173 -0.8423
  269MOL0     H37085   4.747   3.282   2.432 -0.3999  2.1200  3.2244
  269MOL0     H37086   4.881   3.109   2.473 -0.8114  0.5488  1.3769
  269MOL0     H37087   4.763   2.995   2.551 -0.4322  1.1797  0.0919
  269MOL0     H37088   4.956   2.871   2.581 -0.4573  1.1184 -0.0621
  269MOL0     H37089   4.901   2.808   2.427 -0.0778  0.6132 -2.6113
  269MOL0     H37090   5.093   3.048   2.426  0.3888  0.3614 -0.4148
  269MOL0     H37091   5.027   2.961   2.282 -0.4522 -0.9843 -0.5626
  269MOL0     H37092   5.160   2.765   2.333  0.6024  0.2572 -0.1464
  269MOL0     H37093   5.201   2.826   2.492 -1.1308 -0.0481 -0.5099
  269MOL0     H37094   5.329   2.989   2.412 -0.3918  0.3252  0.3865
  269MOL0     H37095   5.380   2.839   2.336 -1.9116 -1.8325 -0.1095
  269MOL0     H37096   5.215   3.062   2.206 -4.2535 -2.8899 -0.3914
  269MOL0     H37097   5.246   2.913   2.118  1.4921  0.0490 -0.4247
  269MOL0     H37098   5.497   2.935   2.147 -2.0293 -2.5869  0.0541
  269MOL0     H37099   5.453   3.106   2.191 -2.3555  0.7965 -1.4985
  269MOL0     H37100   5.518   3.101   1.959 -0.4791 -0.4576 -2.3503
  269MOL0     H37101   5.350   3.128   1.968 -0.5741 -0.5652  0.0983
  269MOL0     H37102   4.504   2.937   2.331 -4.3625  1.3513 -1.7029
  269MOL0     H37103   4.305   3.082   2.341  0.8539 -1.3565 -0.2753
  269MOL0     H37104   3.960   3.245   2.332 -1.0671  0.3467 -2.0287
  269MOL0     H37105   3.747   3.368   2.370 -0.0478 -2.0573 -1.2340
  269MOL0     H37106   2.248   3.927   2.240  1.3782  1.3282 -0.3534
  269MOL0     H37107   2.004   3.896   2.152 -0.8443 -0.1302 -1.2160
  269MOL0     H37108   1.706   3.747   1.841 -2.2785  0.4814  3.2851
  269MOL0     H37109   1.480   3.757   1.772 -1.4200  0.7672  0.9384
  269MOL0     H37110   1.456   3.981   1.449  0.8602  2.3592  2.0275
  269MOL0     H37111   1.390   3.829   1.496 -1.6475  0.0694 -0.0585
  269MOL0     H37112   1.218   4.077   1.423  3.1160  0.5319 -1.7896
  269MOL0     H37113   1.157   3.913   1.451  1.3291 -2.1957  0.5842
  269MOL0     H37114   1.342   3.962   1.231  0.0183 -0.9142  0.1119
  269MOL0     H37115   1.261   3.808   1.270  1.1051 -0.2183 -1.7035
  269MOL0     H37116   1.054   3.907   1.227 -0.6675  1.4022  0.8368
  269MOL0     H37117   1.161   3.926   1.085 -1.1598 -0.8510  0.0979
  269MOL0     H37118   1.057   4.321   1.163  3.6776  0.5023  1.2917
  269MOL0     H37119   1.523   4.160   1.633  0.1058  0.9650 -0.5476
  269MOL0     H37120   1.790   4.265   1.797 -0.5198 -0.3013  0.6021
  269MOL0     H37121   1.864   4.199   1.652 -0.9750 -0.8265  0.0199
  269MOL0     H37122   1.718   4.276   1.640  0.1938 -0.2141 -0.2532
  270MOL0     O37123   3.449   9.384   2.492  0.5878  0.0944  0.3113
  270MOL0     C37124   3.422   9.496   2.531  0.6771 -0.1433  0.5565
  270MOL0     O37125   3.508   9.608   2.536  0.0267 -0.3154  0.0686
  270MOL0     C37126   3.652   9.590   2.520 -0.7459 -0.0398 -1.0206
  270MOL0     C37127   3.733   9.697   2.481 -0.2325  0.8544 -0.2490
  270MOL0     C37128   3.870   9.686   2.497 -0.5578  0.0741 -0.0744
  270MOL0     C37129   3.934   9.564   2.538  0.1244 -0.8479  0.9639
  270MOL0     O37130   4.073   9.559   2.558  0.0385  0.1286  0.3068
  270MOL0     C37131   4.154   9.666   2.620  0.6804  0.3593 -0.3682
  270MOL0     C37132   4.300   9.640   2.589 -0.4995 -0.2027 -1.1085
  270MOL0     C37133   4.369   9.526   2.663 -0.1878  0.6626 -0.3646
  270MOL0     C37134   4.527   9.510   2.644  1.3907 -0.7175 -0.5768
  270MOL0     C37135   4.575   9.434   2.763 -0.5275  0.4633 -1.0451
  270MOL0     C37136   4.720   9.392   2.749 -0.4848  0.5613  0.1861
  270MOL0     C37137   4.775   9.284   2.850  0.6679  0.0220 -0.3979
  270MOL0     C37138   4.920   9.249   2.830 -0.1585  0.5484 -0.4274
  270MOL0     N37139   5.000   9.373   2.865 -0.2278  0.3821 -1.1634
  270MOL0     C37140   5.065   9.453   2.771 -0.2284  0.4252  0.2993
  270MOL0     C37141   5.145   9.529   2.844 -0.0485  0.2688  0.1249
  270MOL0     C37142   5.254   9.623   2.806 -0.0909  0.0213  1.0427
  270MOL0     C37143   5.201   9.762   2.756  0.3967  0.4665  0.6353
  270MOL0     C37144   5.119   9.760   2.625  0.0566  0.1756 -0.3847
  270MOL0     C37145   5.105   9.904   2.560  0.4258 -1.0829  1.2163
  270MOL0     O37146   5.233   9.975   2.542  0.2611  0.1148  0.4573
  270MOL0     C37147   5.328   9.948   2.449 -0.1829  0.0631  0.8639
  270MOL0     C37148   5.304   9.854   2.345  0.0434 -0.2940 -0.1757
  270MOL0     C37149   5.409   9.825   2.260  0.9174  0.1298 -0.1657
  270MOL0     C37150   5.388   9.704   2.174  0.3141  0.0372 -0.2295
  270MOL0     C37151   5.526   9.909   2.248 -0.1329  0.0114 -1.0036
  270MOL0     C37152   5.635   9.886   2.146 -0.9518 -0.2070  0.0059
  270MOL0     O37153   5.756   9.926   2.181 -0.2563 -0.8884 -1.4632
  270MOL0     C37154   5.868   9.901   2.105 -0.8279  0.1223 -0.8217
  270MOL0     C37155   5.902   9.765   2.091  0.2264  1.0886  0.0935
  270MOL0     C37156   6.025   9.736   2.029  0.2427 -0.5455  0.2245
  270MOL0     C37157   6.110   9.835   1.980 -0.8089 -0.2752  0.2327
  270MOL0     O37158   6.234   9.797   1.917 -0.9975  0.6329 -0.4117
  270MOL0     C37159   6.341   9.890   1.896  0.3373 -0.0535 -0.3649
  270MOL0     C37160   6.470   9.825   1.862  0.0359  0.4591 -0.0211
  270MOL0     C37161   6.583   9.922   1.840 -0.9155  0.4208  0.2251
  270MOL0     C37162   6.710   9.833   1.835 -0.1017 -0.1255 -0.3077
  270MOL0     C37163   6.830   9.908   1.760 -0.6061  0.3567 -0.3938
  270MOL0     C37164   6.956   9.826   1.802 -0.9774 -0.1155  0.4050
  270MOL0     C37165   7.093   9.890   1.756  1.0149  0.0368 -0.7520
  270MOL0     C37166   7.108   9.937   1.616 -0.1799 -0.6204  0.1588
  270MOL0    Cl37167   7.276   9.925   1.561 -0.2560 -0.1183 -0.1635
  270MOL0     C37168   6.074   9.970   1.998  0.2410 -0.1576 -0.4035
  270MOL0     C37169   5.958   9.995   2.067  0.6118  0.5308 -0.0438
  270MOL0     O37170   5.607   9.835   2.036  1.0397  0.1223  0.4058
  270MOL0     C37171   5.537  10.011   2.344  0.0141  0.6150  0.1194
  270MOL0     C37172   5.440  10.028   2.444 -0.2913 -0.7888 -0.6056
  270MOL0     N37173   5.124   9.506   2.984  1.1670  0.3346  0.1335
  270MOL0     N37174   5.032   9.411   2.994  0.0126 -0.5394 -0.3167
  270MOL0     C37175   3.856   9.456   2.574  0.4595 -0.2950  0.6708
  270MOL0     C37176   3.718   9.468   2.563  0.0796  0.2084  0.8653
  270MOL0     C37177   3.281   9.510   2.572  0.4944  0.6109 -0.3290
  270MOL0     C37178   3.259   9.503   2.711 -0.1010  0.2513  0.1477
  270MOL0     C37179   3.131   9.527   2.756 -0.9627 -0.6941 -0.0355
  270MOL0     C37180   3.026   9.549   2.661  0.2539 -1.2141 -0.6959
  270MOL0     O37181   2.904   9.583   2.710  0.0845 -0.7031  0.0356
  270MOL0     C37182   2.870   9.716   2.693 -0.0461 -0.5729  0.7757
  270MOL0     C37183   2.923   9.786   2.813 -0.2298 -0.1725 -0.2159
  270MOL0     C37184   2.927   9.944   2.793  0.7098  0.1478 -0.6268
  270MOL0     C37185   2.972  10.004   2.933 -0.1089 -0.8224 -0.2988
  270MOL0     C37186   3.114   9.987   2.970 -0.1332  0.0123 -0.1413
  270MOL0     C37187   3.228   9.978   3.005 -0.9035 -0.4894 -0.2075
  270MOL0     C37188   3.053   9.560   2.520  0.0942 -0.1652 -1.0198
  270MOL0     C37189   3.187   9.540   2.473 -0.7667  0.7403 -0.5665
  270MOL0     C37190   3.218   9.522   2.329 -0.5898  1.2421 -0.0813
  270MOL0     H37191   3.688   9.784   2.433  1.8937  3.2155  1.7198
  270MOL0     H37192   3.927   9.775   2.472 -0.0294 -0.8285 -2.3533
  270MOL0     H37193   4.127   9.659   2.726 -1.5595 -1.5894 -0.9952
  270MOL0     H37194   4.146   9.770   2.589  3.6350  0.5772 -0.7366
  270MOL0     H37195   4.301   9.627   2.481 -1.1924 -0.5963 -1.0745
  270MOL0     H37196   4.351   9.737   2.594 -0.3459  0.1632 -5.7117
  270MOL0     H37197   4.350   9.524   2.771  1.6838  1.4041  0.0180
  270MOL0     H37198   4.318   9.435   2.632  0.6543  0.8738 -2.5229
  270MOL0     H37199   4.553   9.444   2.561 -0.1067 -0.8948 -0.9314
  270MOL0     H37200   4.571   9.610   2.638  0.2474 -0.0805  1.0227
  270MOL0     H37201   4.522   9.338   2.768  0.3820 -0.0350 -0.8676
  270MOL0     H37202   4.568   9.497   2.853  5.1663 -2.0504  1.6910
  270MOL0     H37203   4.742   9.355   2.648  0.4588  4.7951 -1.4016
  270MOL0     H37204   4.782   9.481   2.766  0.2123  0.5060 -1.6974
  270MOL0     H37205   4.718   9.193   2.831 -0.2704  0.5314 -0.0944
  270MOL0     H37206   4.752   9.323   2.949  0.8576  2.7641 -1.3563
  270MOL0     H37207   4.951   9.180   2.910 -1.5689  1.7327  1.1887
  270MOL0     H37208   4.952   9.200   2.737 -1.1249  0.3771 -0.6712
  270MOL0     H37209   5.050   9.441   2.664  0.6225  1.3288  0.0686
  270MOL0     H37210   5.310   9.573   2.727 -0.4220  1.1164  0.0881
  270MOL0     H37211   5.318   9.640   2.892 -0.9463  2.9184  1.2035
  270MOL0     H37212   5.130   9.793   2.833 -2.3759 -0.0177 -1.5558
  270MOL0     H37213   5.284   9.832   2.743  1.4998 -0.2876  3.0558
  270MOL0     H37214   5.179   9.700   2.556 -0.1970  1.6196 -1.9297
  270MOL0     H37215   5.017   9.728   2.646  0.3207 -0.2083  0.3333
  270MOL0     H37216   5.051   9.902   2.465  0.3888 -2.3809  1.2492
  270MOL0     H37217   5.043   9.971   2.619 -1.9504 -2.1101 -0.0032
  270MOL0     H37218   5.209   9.800   2.347  0.1595 -0.4933  1.3763
  270MOL0     H37219   5.363   9.747   2.076 -5.3709  0.5077  1.0665
  270MOL0     H37220   5.313   9.635   2.214 -1.3821  1.2236 -1.2545
  270MOL0     H37221   5.476   9.639   2.172 -0.4396 -1.0300  0.4281
  270MOL0     H37222   5.835   9.687   2.126 -0.1028  0.4536 -1.8428
  270MOL0     H37223   6.057   9.634   2.012  2.1607  0.1684 -0.8093
  270MOL0     H37224   6.310   9.943   1.806 -1.6152 -1.7513 -0.7853
  270MOL0     H37225   6.348   9.960   1.979  1.8523 -1.5771  0.8567
  270MOL0     H37226   6.489   9.755   1.944 -0.4610 -1.7244 -1.6715
  270MOL0     H37227   6.467   9.770   1.768  1.6386  0.4700 -0.0947
  270MOL0     H37228   6.595   9.993   1.922  2.7610 -0.6321  0.7988
  270MOL0     H37229   6.567   9.980   1.749  1.9232 -0.8131 -1.1894
  270MOL0     H37230   6.698   9.737   1.785 -0.8266  0.1776 -0.7262
  270MOL0     H37231   6.734   9.806   1.938  1.0691  2.6584  0.2529
  270MOL0     H37232   6.817   9.896   1.652 -1.9457 -1.9695 -0.0466
  270MOL0     H37233   6.839  10.016   1.778  0.9932  0.7120 -2.8636
  270MOL0     H37234   6.931   9.728   1.760  0.1606 -0.8692  1.4088
  270MOL0     H37235   6.959   9.807   1.910  1.7182 -0.5596  0.3074
  270MOL0     H37236   7.181   9.826   1.772 -0.7809 -2.5410 -0.5179
  270MOL0     H37237   7.101   9.982   1.815 -2.2252  0.1497 -0.2823
  270MOL0     H37238   7.083  10.043   1.612 -1.4770 -0.8379  1.3927
  270MOL0     H37239   7.046   9.878   1.547 -0.8456 -1.0602  1.1050
  270MOL0     H37240   6.149  10.040   1.964 -1.5612  1.6530 -0.8745
  270MOL0     H37241   5.935  10.098   2.095 -1.0726 -0.0046  0.7059
  270MOL0     H37242   5.618  10.084   2.347 -2.5253  3.5758  1.8521
  270MOL0     H37243   5.446  10.105   2.521 -0.6583 -0.9396 -0.4246
  270MOL0     H37244   3.901   9.367   2.618 -0.6521 -0.6332  1.1433
  270MOL0     H37245   3.667   9.379   2.598  0.8966  0.6734  3.4458
  270MOL0     H37246   3.339   9.479   2.781  0.4195 -1.0528 -0.8640
  270MOL0     H37247   3.096   9.513   2.858 -3.6720 -1.2635 -0.9625
  270MOL0     H37248   2.917   9.756   2.602  2.4696 -2.3461  1.2019
  270MOL0     H37249   2.761   9.721   2.682  0.2133 -0.0605 -2.3911
  270MOL0     H37250   3.022   9.747   2.840  0.6423  0.1664 -2.6678
  270MOL0     H37251   2.854   9.754   2.891  0.1803  2.6616  1.4540
  270MOL0     H37252   2.998   9.980   2.717  1.1215 -2.4610 -1.6083
  270MOL0     H37253   2.823   9.960   2.765  1.0484  0.9137 -1.5122
  270MOL0     H37254   2.901   9.956   3.001 -0.8063 -0.3943 -0.7202
  270MOL0     H37255   2.949  10.110   2.940  2.2588 -0.3158  0.9380
  270MOL0     H37256   3.328   9.982   3.043 -1.9372  4.3240  3.0415
  270MOL0     H37257   2.968   9.582   2.457 -1.3216 -0.3755  0.7563
  270MOL0     H37258   3.148   9.576   2.265 -2.1636  2.8231  2.7813
  270MOL0     H37259   3.319   9.552   2.299  0.4644 -3.4076 -2.0975
  270MOL0     H37260   3.220   9.414   2.308 -2.8749  1.7261 -3.7101
  271MOL0     O37261   8.172   3.970  10.548 -0.0570  0.1764  0.2533
  271MOL0     C37262   8.100   4.069  10.537 -0.1309  0.2939 -0.0180
  271MOL0     O37263   8.132   4.193  10.590  0.0358 -0.0994 -0.3124
  271MOL0     C37264   8.218   4.214  10.697  0.4169 -0.3683 -0.1038
  271MOL0     C37265   8.229   4.124  10.804  0.0951  0.1553 -0.2885
  271MOL0     C37266   8.313   4.159  10.914 -0.0891  0.4626  0.5812
  271MOL0     C37267   8.379   4.286  10.916  0.5319 -0.1479  0.6891
  271MOL0     O37268   8.455   4.320  11.024 -0.6224 -0.1119 -0.1003
  271MOL0     C37269   8.420   4.281  11.146 -0.3184  0.8495 -1.0383
  271MOL0     C37270   8.496   4.362  11.258 -0.7070  0.5776 -0.0246
  271MOL0     C37271   8.644   4.321  11.260  0.1472  0.7436  0.5073
  271MOL0     C37272   8.734   4.429  11.332 -0.3588  0.4504  1.0075
  271MOL0     C37273   8.876   4.397  11.303 -0.3627 -0.3259 -0.8716
  271MOL0     C37274   8.969   4.482  11.397 -0.0205  0.0646  0.5221
  271MOL0     C37275   9.109   4.490  11.339 -0.0511  0.5660 -0.1005
  271MOL0     C37276   9.188   4.357  11.339  0.0648 -0.0410  0.1385
  271MOL0     N37277   9.319   4.398  11.285 -0.3793 -0.3729 -0.0696
  271MOL0     C37278   9.408   4.324  11.209 -0.0088  0.3783  0.5890
  271MOL0     C37279   9.515   4.403  11.186  0.3096  1.0125 -0.6178
  271MOL0     C37280   9.625   4.377  11.095 -0.7884  0.1616 -0.6761
  271MOL0     C37281   9.743   4.307  11.169 -0.3974  0.6144  0.1016
  271MOL0     C37282   9.854   4.258  11.079  0.7591  0.6123  0.0363
  271MOL0     C37283   9.988   4.231  11.142 -0.1423 -1.0928  0.3917
  271MOL0     O37284  10.066   4.143  11.063 -0.3426 -0.7319  1.1466
  271MOL0     C37285  10.182   4.105  11.103  0.0902  0.2259 -0.3701
  271MOL0     C37286  10.226   4.123  11.235 -0.1981  0.3664 -0.0882
  271MOL0     C37287  10.362   4.104  11.273  0.1227  0.5743 -0.0472
  271MOL0     C37288  10.402   4.157  11.405  0.4863  0.7033  0.3328
  271MOL0     C37289  10.448   4.050  11.178 -0.1866  0.4723 -0.6191
  271MOL0     C37290  10.593   4.012  11.212  0.7829 -0.0977  0.3609
  271MOL0     O37291  10.618   3.990  11.334  0.2892  0.0035 -0.4783
  271MOL0     C37292  10.723   3.921  11.380 -0.1374  0.8266 -0.0839
  271MOL0     C37293  10.807   3.991  11.467 -0.5379 -0.0447  0.3396
  271MOL0     C37294  10.923   3.928  11.518  1.4041  0.5963 -0.3330
  271MOL0     C37295  10.962   3.803  11.483 -0.7441  0.0681  0.2465
  271MOL0     O37296  11.080   3.746  11.518 -0.0983  0.3201 -0.3829
  271MOL0     C37297  11.110   3.730  11.662 -0.5654 -0.6095 -0.5746
  271MOL0     C37298  11.245   3.669  11.691 -0.2679  0.9969 -0.4360
  271MOL0     C37299  11.358   3.757  11.647  0.9612  0.1618 -0.5208
  271MOL0     C37300  11.488   3.711  11.716 -0.2305  0.3916  0.3704
  271MOL0     C37301  11.602   3.802  11.702  0.3173 -0.3452  0.6021
  271MOL0     C37302  11.593   3.936  11.779 -0.0867  0.3421  0.4153
  271MOL0     C37303  11.712   4.031  11.733  0.1386  0.0926 -0.2482
  271MOL0     C37304  11.695   4.172  11.795  0.3274  1.2954 -0.7686
  271MOL0    Cl37305  11.829   4.268  11.744  0.0785 -0.3014 -0.1947
  271MOL0     C37306  10.881   3.731  11.390 -0.6909  0.0324 -0.3908
  271MOL0     C37307  10.764   3.793  11.345  0.2344 -0.0523 -1.0157
  271MOL0     O37308  10.677   4.011  11.124 -0.3765 -1.1864  1.0113
  271MOL0     C37309  10.403   4.021  11.050  0.8287 -0.8445  0.5850
  271MOL0     C37310  10.269   4.053  11.010 -0.2898  0.3830 -0.3720
  271MOL0     N37311   9.495   4.523  11.264 -0.4473  0.0743  1.5712
  271MOL0     N37312   9.381   4.517  11.317 -0.2214  0.0287  0.4614
  271MOL0     C37313   8.362   4.376  10.809 -0.6124  0.2081 -0.0358
  271MOL0     C37314   8.282   4.337  10.704 -0.6003  0.3264  0.1496
  271MOL0     C37315   7.989   4.061  10.434 -0.0944  0.3127  0.3861
  271MOL0     C37316   8.008   3.990  10.310 -0.0368  0.1062 -0.0083
  271MOL0     C37317   7.903   3.973  10.222 -0.4977 -0.0919 -0.3175
  271MOL0     C37318   7.781   4.038  10.241  0.1653 -0.2130 -0.8461
  271MOL0     O37319   7.689   3.996  10.162  0.1216  0.1416  0.0035
  271MOL0     C37320   7.550   4.019  10.189 -0.0132 -0.2544  0.2370
  271MOL0     C37321   7.479   4.040  10.043 -0.6294 -0.6601  0.6106
  271MOL0     C37322   7.331   4.056  10.039 -0.0483 -0.2548 -0.1175
  271MOL0     C37323   7.282   4.064   9.890  0.3955  0.2662 -0.2271
  271MOL0     C37324   7.319   4.179   9.809 -0.6180 -0.0587 -0.2269
  271MOL0     C37325   7.337   4.291   9.768 -0.1509  0.4045 -0.5105
  271MOL0     C37326   7.768   4.121  10.362  0.1436 -0.2388 -0.1168
  271MOL0     C37327   7.873   4.136  10.454  0.2928  0.1413 -0.4647
  271MOL0     C37328   7.851   4.228  10.575  0.3964 -0.2147  0.1327
  271MOL0     H37329   8.176   4.029  10.799 -1.4278  0.8868  0.9317
  271MOL0     H37330   8.322   4.093  11.001 -0.8734  2.4641  2.2577
  271MOL0     H37331   8.445   4.175  11.156 -2.5857  0.3803  0.4039
  271MOL0     H37332   8.313   4.293  11.168  0.3507  0.3639  3.3533
  271MOL0     H37333   8.502   4.467  11.229 -1.1874 -0.0695 -2.6973
  271MOL0     H37334   8.441   4.349  11.352 -0.4487 -1.3042 -0.1015
  271MOL0     H37335   8.645   4.237  11.331  1.1510  1.5388  1.4722
  271MOL0     H37336   8.679   4.291  11.161  1.8347  1.4039  0.8667
  271MOL0     H37337   8.718   4.527  11.286  2.0471 -0.1037 -1.2494
  271MOL0     H37338   8.718   4.429  11.440 -1.1954 -1.1832  0.9052
  271MOL0     H37339   8.896   4.431  11.201  0.9664 -0.5424 -0.6966
  271MOL0     H37340   8.894   4.289  11.315  2.8123  0.3907  2.5567
  271MOL0     H37341   8.933   4.585  11.392 -0.1783 -0.0566 -1.2886
  271MOL0     H37342   8.976   4.446  11.501  1.3688  1.2303  0.8542
  271MOL0     H37343   9.156   4.567  11.401 -0.8660 -0.1268  1.4262
  271MOL0     H37344   9.104   4.528  11.237  0.8687 -2.9705 -1.6178
  271MOL0     H37345   9.195   4.324  11.443  2.4190  1.5910  0.5759
  271MOL0     H37346   9.142   4.275  11.283 -3.4973  0.2717  2.2568
  271MOL0     H37347   9.404   4.225  11.164  1.9620  2.1013 -3.9602
  271MOL0     H37348   9.681   4.467  11.066  1.7717 -0.9533  0.5006
  271MOL0     H37349   9.611   4.314  11.007 -0.9895  0.8019 -1.1107
  271MOL0     H37350   9.791   4.372  11.242 -0.7386  1.5532 -0.4911
  271MOL0     H37351   9.695   4.225  11.223 -2.5716  2.2286  0.7271
  271MOL0     H37352   9.823   4.165  11.031  1.0582  1.3542 -1.6617
  271MOL0     H37353   9.864   4.329  10.997  1.9492  0.2424 -0.1701
  271MOL0     H37354  10.038   4.325  11.167 -0.7048 -0.4001 -0.9729
  271MOL0     H37355   9.971   4.192  11.243  1.8722  0.0329  1.2251
  271MOL0     H37356  10.161   4.169  11.309  1.7473 -0.4770  2.3209
  271MOL0     H37357  10.508   4.184  11.406  0.3793  1.1638 -0.2660
  271MOL0     H37358  10.391   4.083  11.485 -0.5750 -0.2922 -0.7042
  271MOL0     H37359  10.339   4.241  11.435  0.7783  0.7533  0.8161
  271MOL0     H37360  10.782   4.093  11.494 -3.0961 -0.6020  0.3594
  271MOL0     H37361  10.977   3.992  11.587  2.3293  0.0242 -0.5058
  271MOL0     H37362  11.105   3.826  11.713 -3.2211 -0.9913  0.0306
  271MOL0     H37363  11.033   3.672  11.712 -1.6979  0.9704 -0.4161
  271MOL0     H37364  11.263   3.645  11.797 -2.7327 -1.0998 -0.3859
  271MOL0     H37365  11.255   3.575  11.636 -2.0481  0.8835 -0.6217
  271MOL0     H37366  11.335   3.861  11.673 -3.0203 -0.6792 -0.0202
  271MOL0     H37367  11.369   3.748  11.539  1.3913 -0.9081 -0.4051
  271MOL0     H37368  11.524   3.619  11.669  2.2563 -0.4764  3.5571
  271MOL0     H37369  11.480   3.694  11.824 -0.9130  3.0771  0.8187
  271MOL0     H37370  11.695   3.754  11.734  1.4521 -0.6222 -2.7099
  271MOL0     H37371  11.632   3.821  11.599  3.2784 -0.8681  1.2656
  271MOL0     H37372  11.597   3.928  11.888  0.8020  0.4485  0.4018
  271MOL0     H37373  11.499   3.989  11.765 -0.5523 -0.6899 -0.4601
  271MOL0     H37374  11.717   4.050  11.625 -0.7136  0.2233 -0.2749
  271MOL0     H37375  11.798   3.973  11.768 -0.5688 -0.1836  1.0767
  271MOL0     H37376  11.686   4.176  11.904  0.6740 -0.1881 -0.6608
  271MOL0     H37377  11.600   4.212  11.758 -0.1800  0.0131 -0.9232
  271MOL0     H37378  10.919   3.632  11.366 -0.0566 -1.2070  4.5616
  271MOL0     H37379  10.694   3.735  11.286 -2.1492 -0.8375  2.3095
  271MOL0     H37380  10.474   3.985  10.976  0.5074  0.7291 -0.5388
  271MOL0     H37381  10.241   4.052  10.905  0.5210 -0.5870 -0.5920
  271MOL0     H37382   8.412   4.473  10.811 -0.4124  0.0976  1.2688
  271MOL0     H37383   8.275   4.408  10.621 -0.1979  0.2395  0.0400
  271MOL0     H37384   8.100   3.935  10.291  1.0057  1.9798 -0.6060
  271MOL0     H37385   7.911   3.906  10.137 -1.2869  3.0782 -3.1095
  271MOL0     H37386   7.523   3.931  10.247 -1.5460 -0.4048 -0.6480
  271MOL0     H37387   7.528   4.111  10.244 -1.0232 -0.2345 -0.1887
  271MOL0     H37388   7.512   3.951   9.988 -2.6916 -0.0162 -1.8549
  271MOL0     H37389   7.523   4.121   9.985  0.3876 -0.9194  1.0072
  271MOL0     H37390   7.281   3.980  10.099 -3.9142  0.3466 -2.2201
  271MOL0     H37391   7.303   4.148  10.092 -1.4004 -0.7377  0.0519
  271MOL0     H37392   7.173   4.063   9.901  0.4191  1.6449  0.3039
  271MOL0     H37393   7.321   3.973   9.844  1.7070 -0.3075  1.8807
  271MOL0     H37394   7.347   4.393   9.737 -1.1080  0.0784 -2.0107
  271MOL0     H37395   7.677   4.168  10.396 -0.4868 -1.9223  0.6567
  271MOL0     H37396   7.917   4.314  10.562  0.1112 -0.3643 -3.3487
  271MOL0     H37397   7.749   4.261  10.597  0.4026 -1.7986  2.9900
  271MOL0     H37398   7.873   4.176  10.669 -0.5529 -0.2386  0.3538
  272MOL0     O37399   8.480   3.379  10.435  0.0901 -0.5362 -0.1854
  272MOL0     C37400   8.390   3.447  10.381 -0.5855  0.2798  0.1077
  272MOL0     O37401   8.268   3.475  10.431 -0.3965  0.0085  0.6149
  272MOL0     C37402   8.239   3.430  10.561 -0.6768  0.5635  0.3408
  272MOL0     C37403   8.110   3.374  10.584  0.4700  0.7715  0.1716
  272MOL0     C37404   8.081   3.314  10.708 -0.4025  0.6400 -0.0918
  272MOL0     C37405   8.186   3.317  10.813  0.0496  0.0883 -0.1670
  272MOL0     O37406   8.159   3.249  10.928 -0.3007 -1.0689 -0.0011
  272MOL0     C37407   8.039   3.287  11.003 -0.3272 -0.1013  0.1433
  272MOL0     C37408   8.063   3.207  11.131  0.3862 -0.5699 -0.7672
  272MOL0     C37409   8.202   3.217  11.178 -0.1113  0.3718  1.1498
  272MOL0     C37410   8.210   3.223  11.335 -0.0023 -0.4084 -0.5539
  272MOL0     C37411   8.159   3.100  11.409 -1.4228  0.3692  0.9746
  272MOL0     C37412   8.259   2.981  11.398  0.3828 -1.4133  0.6427
  272MOL0     C37413   8.176   2.862  11.457 -0.1502  0.0996 -0.3637
  272MOL0     C37414   8.262   2.737  11.430  0.4884 -0.5435 -0.3633
  272MOL0     N37415   8.394   2.744  11.492 -0.0635 -0.0732  0.2537
  272MOL0     C37416   8.405   2.699  11.615  1.0028 -0.0638  0.1986
  272MOL0     C37417   8.539   2.697  11.632  0.6254 -0.4035  0.4794
  272MOL0     C37418   8.610   2.640  11.753  0.0284  0.1067 -0.2165
  272MOL0     C37419   8.694   2.745  11.826  0.7516 -0.6232 -0.3320
  272MOL0     C37420   8.773   2.678  11.938 -0.2499 -0.1686 -0.2252
  272MOL0     C37421   8.685   2.650  12.058  0.3389  0.0397  0.1808
  272MOL0     O37422   8.602   2.760  12.104  0.3190 -0.3080  0.1853
  272MOL0     C37423   8.649   2.877  12.156 -0.5217 -0.5556 -0.1080
  272MOL0     C37424   8.556   2.976  12.164  0.1623  0.1323  0.3328
  272MOL0     C37425   8.582   3.094  12.226  0.1996  0.3515 -0.5882
  272MOL0     C37426   8.465   3.187  12.220 -0.5982 -1.0341 -0.3768
  272MOL0     C37427   8.715   3.136  12.259 -0.3754  0.4346  0.3875
  272MOL0     C37428   8.754   3.267  12.325  0.4267 -0.1050  0.6092
  272MOL0     O37429   8.654   3.364  12.338 -0.4786 -0.0157  0.5052
  272MOL0     C37430   8.684   3.488  12.391 -0.3636 -0.7223 -0.0085
  272MOL0     C37431   8.764   3.585  12.334  0.3564  0.8335  0.0523
  272MOL0     C37432   8.754   3.719  12.371 -0.3105  0.7364  0.0881
  272MOL0     C37433   8.677   3.761  12.470  0.0359  0.4415  0.1813
  272MOL0     O37434   8.682   3.889  12.501  0.7246  0.4512 -0.2710
  272MOL0     C37435   8.573   3.948  12.571 -0.7992  0.4278  0.0748
  272MOL0     C37436   8.610   4.089  12.621  0.1726 -0.0158 -1.1064
  272MOL0     C37437   8.492   4.139  12.699 -0.1592 -0.2689  0.5568
  272MOL0     C37438   8.505   4.278  12.756 -0.3655  0.2660  0.0588
  272MOL0     C37439   8.380   4.326  12.823  0.1291  1.0145 -0.6551
  272MOL0     C37440   8.396   4.433  12.935 -0.3429 -0.0224  0.9656
  272MOL0     C37441   8.270   4.429  13.029 -0.0909  0.0914  0.1124
  272MOL0     C37442   8.253   4.559  13.098 -0.6096 -0.3383  0.1416
  272MOL0    Cl37443   8.367   4.551  13.238 -0.3644 -0.2372 -0.3949
  272MOL0     C37444   8.585   3.665  12.529 -0.0564 -0.6369 -0.2758
  272MOL0     C37445   8.589   3.531  12.491 -0.0659  0.0820  0.1865
  272MOL0     O37446   8.869   3.283  12.345  0.5742 -0.1044 -0.6498
  272MOL0     C37447   8.809   3.034  12.246  0.2121 -0.5278  0.8076
  272MOL0     C37448   8.783   2.905  12.199  0.5090 -0.1567  0.8810
  272MOL0     N37449   8.597   2.762  11.518  0.5197 -0.3650 -1.4221
  272MOL0     N37450   8.507   2.785  11.438  0.4905 -0.4458  0.7670
  272MOL0     C37451   8.302   3.396  10.790 -0.1778  0.7884 -0.6079
  272MOL0     C37452   8.319   3.459  10.668 -0.7823  0.2193 -0.6002
  272MOL0     C37453   8.424   3.506  10.251 -0.7697 -0.0727  0.2610
  272MOL0     C37454   8.567   3.507  10.215  0.5977 -0.3555 -0.2809
  272MOL0     C37455   8.618   3.553  10.090  0.7043 -0.7343  0.8460
  272MOL0     C37456   8.530   3.607   9.995 -0.1592  0.4103 -0.1134
  272MOL0     O37457   8.559   3.627   9.866 -0.2411 -0.1407 -0.0988
  272MOL0     C37458   8.700   3.607   9.811  0.0539  0.9236 -0.0692
  272MOL0     C37459   8.715   3.666   9.669  0.0259  0.1334 -0.0492
  272MOL0     C37460   8.619   3.787   9.650 -0.4976  0.5397  0.1439
  272MOL0     C37461   8.666   3.859   9.532 -0.2612  0.0973 -0.4431
  272MOL0     C37462   8.569   3.968   9.524  0.6127  0.0733 -0.0726
  272MOL0     C37463   8.496   4.066   9.526 -0.3985  0.1636  0.5074
  272MOL0     C37464   8.403   3.630  10.036  0.5328 -0.2870  0.2070
  272MOL0     C37465   8.348   3.577  10.158 -0.6007  0.1793  0.1661
  272MOL0     C37466   8.197   3.595  10.181 -0.1846  0.2028 -0.4331
  272MOL0     H37467   8.035   3.370  10.505  2.1156  1.2886 -1.4902
  272MOL0     H37468   7.983   3.271  10.725  0.0717  0.3539  2.3094
  272MOL0     H37469   7.949   3.257  10.949 -0.1072 -1.7770  0.6746
  272MOL0     H37470   8.041   3.396  11.018  1.9981 -0.0351 -0.2128
  272MOL0     H37471   7.989   3.243  11.203 -0.7179 -0.4037 -1.9446
  272MOL0     H37472   8.041   3.103  11.104 -1.2799  0.2179 -2.7409
  272MOL0     H37473   8.266   3.137  11.139 -0.5369  0.1414  0.9144
  272MOL0     H37474   8.247   3.311  11.145  2.5457 -0.2963  2.5998
  272MOL0     H37475   8.312   3.248  11.365  0.0797 -0.1115 -1.0578
  272MOL0     H37476   8.153   3.315  11.352 -0.3759 -0.8816  0.8760
  272MOL0     H37477   8.063   3.070  11.365 -1.1809  0.3567  0.4388
  272MOL0     H37478   8.138   3.121  11.514 -0.1647 -0.9418  1.5222
  272MOL0     H37479   8.302   2.975  11.298  0.6695  1.1035  0.5600
  272MOL0     H37480   8.353   2.995  11.452  0.5961  3.6036 -0.5659
  272MOL0     H37481   8.079   2.853  11.408  0.0244 -1.8302 -0.4275
  272MOL0     H37482   8.156   2.875  11.564  1.3159  0.0245 -0.0527
  272MOL0     H37483   8.210   2.646  11.461  0.2371 -1.1935 -2.5773
  272MOL0     H37484   8.270   2.748  11.322  5.1608  0.8480 -0.0682
  272MOL0     H37485   8.324   2.661  11.676 -0.4438  1.9844 -0.3192
  272MOL0     H37486   8.681   2.564  11.722 -2.4582 -3.5018  2.1991
  272MOL0     H37487   8.530   2.597  11.813 -0.7712  2.3999  0.4987
  272MOL0     H37488   8.748   2.807  11.754  1.1333 -1.3309 -0.6642
  272MOL0     H37489   8.629   2.821  11.872  0.2046  1.4001 -4.0919
  272MOL0     H37490   8.830   2.588  11.911  1.2409  0.3438  1.0693
  272MOL0     H37491   8.855   2.746  11.961 -1.1499  1.3136 -1.2196
  272MOL0     H37492   8.623   2.565  12.026  1.0382  0.5552 -2.8723
  272MOL0     H37493   8.755   2.622  12.138  0.1836 -2.6107 -0.4900
  272MOL0     H37494   8.456   2.960  12.125  0.2822 -0.8302  0.4041
  272MOL0     H37495   8.369   3.156  12.178 -0.6631  1.0057 -1.9129
  272MOL0     H37496   8.492   3.282  12.172  0.5959 -0.1564  1.8635
  272MOL0     H37497   8.441   3.215  12.323 -1.0699  1.0186 -0.9928
  272MOL0     H37498   8.833   3.551  12.257  3.0540  2.1616  1.7078
  272MOL0     H37499   8.822   3.797  12.335 -1.1784  1.0800 -0.8767
  272MOL0     H37500   8.474   3.951  12.525 -0.0576 -0.1559 -1.6236
  272MOL0     H37501   8.560   3.891  12.664  0.4475  1.6976  1.0743
  272MOL0     H37502   8.696   4.081  12.688 -0.7151 -1.2806 -0.0783
  272MOL0     H37503   8.640   4.162  12.545  2.4162  0.8057  0.4453
  272MOL0     H37504   8.458   4.064  12.771  0.0903  0.1242  1.0945
  272MOL0     H37505   8.406   4.152  12.633 -2.3131 -2.0639  2.8499
  272MOL0     H37506   8.532   4.350  12.678  0.1694  0.9623  0.8670
  272MOL0     H37507   8.584   4.278  12.831 -1.3663  2.0611  1.1763
  272MOL0     H37508   8.309   4.365  12.751  1.2668  0.5703 -2.0743
  272MOL0     H37509   8.337   4.236  12.868  1.7813 -1.5056 -3.7146
  272MOL0     H37510   8.382   4.530  12.886 -2.8984  1.0339  3.4913
  272MOL0     H37511   8.498   4.416  12.969  1.3349  1.9529 -2.5898
  272MOL0     H37512   8.284   4.350  13.103  0.7190  0.0910 -0.0290
  272MOL0     H37513   8.182   4.413  12.965 -0.0364  0.1153  0.0304
  272MOL0     H37514   8.150   4.576  13.130 -0.4770 -2.5021  1.9274
  272MOL0     H37515   8.279   4.642  13.031 -4.6236 -1.1022 -2.7421
  272MOL0     H37516   8.522   3.689  12.614  0.7156  3.8258 -0.7526
  272MOL0     H37517   8.523   3.460  12.541  0.5247 -0.1696  0.6200
  272MOL0     H37518   8.912   3.064  12.265  0.0264  1.5763 -1.0461
  272MOL0     H37519   8.863   2.833  12.185  2.2281  1.2507  2.8604
  272MOL0     H37520   8.368   3.420  10.873 -1.3207  2.1974 -0.0721
  272MOL0     H37521   8.402   3.524  10.643  2.3267 -2.9510  0.5438
  272MOL0     H37522   8.647   3.472  10.278 -0.9625 -3.2918  0.2271
  272MOL0     H37523   8.725   3.549  10.071  0.9031  2.4495  0.8790
  272MOL0     H37524   8.775   3.652   9.878 -3.0695  0.4063  4.1851
  272MOL0     H37525   8.705   3.498   9.807 -2.6188  0.7354  0.3861
  272MOL0     H37526   8.686   3.586   9.600  0.6119  0.1863 -0.3639
  272MOL0     H37527   8.823   3.678   9.659  0.0408  0.7403  0.7927
  272MOL0     H37528   8.515   3.755   9.640  0.6507 -3.2671 -1.6475
  272MOL0     H37529   8.632   3.859   9.732  0.5297 -0.0338  0.4973
  272MOL0     H37530   8.665   3.789   9.448  2.3918  0.5589 -0.9526
  272MOL0     H37531   8.765   3.902   9.552  0.1230 -0.1244 -1.7807
  272MOL0     H37532   8.429   4.149   9.519 -0.7584 -0.0848  1.0011
  272MOL0     H37533   8.346   3.688   9.964 -1.3724 -0.2806  1.6534
  272MOL0     H37534   8.149   3.497  10.180 -2.3907  1.2385 -0.7054
  272MOL0     H37535   8.180   3.636  10.281  0.4277  1.9680 -1.0109
  272MOL0     H37536   8.148   3.662  10.109 -0.0371  0.5832 -0.1828
  273MOL0     O37537   5.963   8.382   9.837 -0.3399  0.0970  0.1277
  273MOL0     C37538   5.891   8.330   9.749  0.1955 -0.0262 -0.1800
  273MOL0     O37539   5.933   8.299   9.619  0.3963 -0.1674  0.0031
  273MOL0     C37540   6.057   8.317   9.582 -0.0391 -1.0322 -0.1075
  273MOL0     C37541   6.118   8.219   9.501 -0.3322  0.5637  0.0853
  273MOL0     C37542   6.249   8.231   9.462 -0.0321 -0.2105  0.4126
  273MOL0     C37543   6.320   8.349   9.483  0.8325  0.3552 -0.0441
  273MOL0     O37544   6.448   8.371   9.443  0.2519  0.0337  1.1837
  273MOL0     C37545   6.516   8.274   9.366 -0.7322 -0.7328  0.1044
  273MOL0     C37546   6.624   8.350   9.295  0.2402  0.6584 -0.7285
  273MOL0     C37547   6.722   8.437   9.377 -0.3898  0.2753  0.4059
  273MOL0     C37548   6.800   8.364   9.487 -0.0787  0.7048  0.1440
  273MOL0     C37549   6.914   8.438   9.541  0.1344 -0.6007  0.1000
  273MOL0     C37550   6.984   8.375   9.669  0.4448 -0.0135 -0.7325
  273MOL0     C37551   7.123   8.439   9.700  0.7083  0.4191 -0.1579
  273MOL0     C37552   7.110   8.583   9.739 -0.2489 -0.3214 -0.0520
  273MOL0     N37553   7.246   8.640   9.765 -0.1231  1.0761  0.3714
  273MOL0     C37554   7.289   8.762   9.709 -0.7079  0.0100 -0.7223
  273MOL0     C37555   7.398   8.799   9.776 -0.5909  0.0074  0.0498
  273MOL0     C37556   7.473   8.936   9.781  0.4319  0.8739 -0.6645
  273MOL0     C37557   7.576   8.944   9.674 -0.5086 -0.8746 -0.5006
  273MOL0     C37558   7.672   9.059   9.702  0.3971  0.4663  0.9643
  273MOL0     C37559   7.814   9.021   9.735  0.0128  0.2451 -0.5545
  273MOL0     O37560   7.885   9.144   9.750 -0.1499 -0.8035  0.2890
  273MOL0     C37561   8.017   9.136   9.798 -0.5340 -0.3494 -0.3723
  273MOL0     C37562   8.089   9.030   9.861 -0.7216 -0.8633  1.0976
  273MOL0     C37563   8.220   9.047   9.910 -0.2664  0.5006  0.2682
  273MOL0     C37564   8.288   8.932   9.964 -1.0968 -0.7294 -0.0624
  273MOL0     C37565   8.282   9.181   9.895 -0.5354  0.0292 -0.0007
  273MOL0     C37566   8.420   9.224   9.928  0.0315  0.7707 -0.3555
  273MOL0     O37567   8.484   9.310   9.852  0.3252 -1.0040  0.6640
  273MOL0     C37568   8.614   9.342   9.857 -0.1553 -0.0605  0.4011
  273MOL0     C37569   8.668   9.385   9.732  1.1530 -0.2605  0.3411
  273MOL0     C37570   8.803   9.406   9.726  0.8431 -0.1826  0.0309
  273MOL0     C37571   8.884   9.393   9.832 -0.4864 -0.2525  0.0025
  273MOL0     O37572   9.019   9.398   9.829 -0.0610  0.8618 -0.2743
  273MOL0     C37573   9.090   9.414   9.704  0.3730 -0.5047 -0.5248
  273MOL0     C37574   9.239   9.447   9.705 -0.1873  0.1962 -0.6269
  273MOL0     C37575   9.273   9.550   9.817 -0.2564  0.1489  0.9275
  273MOL0     C37576   9.425   9.562   9.845 -0.5534  0.7037  0.8388
  273MOL0     C37577   9.456   9.656   9.961  0.5611  0.2113 -0.5342
  273MOL0     C37578   9.607   9.675   9.972 -0.2092  0.2376  0.1795
  273MOL0     C37579   9.665   9.785   9.890 -0.0583 -0.6175 -0.0546
  273MOL0     C37580   9.802   9.828   9.933 -0.3884 -0.0905  0.0464
  273MOL0    Cl37581   9.929   9.709   9.879 -0.0058  0.1631  1.1553
  273MOL0     C37582   8.834   9.360   9.957 -0.1892  0.3503 -0.8241
  273MOL0     C37583   8.698   9.333   9.975 -0.0961  0.0159 -0.0764
  273MOL0     O37584   8.469   9.175  10.032  1.2354 -0.3992 -0.3305
  273MOL0     C37585   8.206   9.279   9.831 -0.0934 -0.3415  0.7564
  273MOL0     C37586   8.077   9.259   9.784  0.1563 -0.3453  0.1563
  273MOL0     N37587   7.419   8.703   9.877 -0.8478  0.1889  0.5205
  273MOL0     N37588   7.324   8.610   9.870  0.2050 -0.6282 -0.2229
  273MOL0     C37589   6.260   8.450   9.558 -0.3547 -0.6300 -0.7102
  273MOL0     C37590   6.126   8.438   9.599 -0.7024  0.0563 -0.3916
  273MOL0     C37591   5.752   8.284   9.791 -0.5454 -0.2605  0.0925
  273MOL0     C37592   5.707   8.170   9.713 -0.3049  0.5377 -0.2535
  273MOL0     C37593   5.570   8.135   9.717 -0.0896 -0.3415 -0.2492
  273MOL0     C37594   5.491   8.218   9.801  0.0516 -0.1628 -1.4524
  273MOL0     O37595   5.353   8.215   9.797  0.0139  0.5768  0.5800
  273MOL0     C37596   5.289   8.106   9.738 -0.4834  0.7819  0.5683
  273MOL0     C37597   5.156   8.086   9.813 -0.5189 -0.0255  0.4670
  273MOL0     C37598   5.092   7.949   9.790  0.3602  0.5920  1.3330
  273MOL0     C37599   4.953   7.930   9.856 -0.0555  0.1069  0.3253
  273MOL0     C37600   4.895   7.798   9.849 -0.0648 -0.1013  0.7737
  273MOL0     C37601   4.831   7.701   9.842  0.7393  0.2412 -0.0602
  273MOL0     C37602   5.544   8.326   9.878 -0.5376  0.4879 -0.0389
  273MOL0     C37603   5.675   8.353   9.882  0.3021 -0.1154  0.6570
  273MOL0     C37604   5.721   8.468   9.964  0.2882 -0.7274  0.1586
  273MOL0     H37605   6.063   8.129   9.473  1.3903  0.1172 -2.1896
  273MOL0     H37606   6.287   8.149   9.402 -1.0451 -0.7222  0.4367
  273MOL0     H37607   6.451   8.225   9.292 -0.2625  1.9928 -2.3175
  273MOL0     H37608   6.556   8.196   9.431 -0.3844 -1.0218 -0.4425
  273MOL0     H37609   6.697   8.284   9.248  2.1808  1.4761  0.9577
  273MOL0     H37610   6.573   8.414   9.222 -1.0950  0.3786 -0.0774
  273MOL0     H37611   6.801   8.473   9.311  0.6297  0.2480  1.5761
  273MOL0     H37612   6.667   8.523   9.416 -1.8131  0.0721 -1.0458
  273MOL0     H37613   6.730   8.337   9.566  1.1319  0.7197  1.2451
  273MOL0     H37614   6.842   8.271   9.448 -1.1355 -0.0988  0.8822
  273MOL0     H37615   6.866   8.532   9.572  1.4475  0.3878 -0.7356
  273MOL0     H37616   6.984   8.465   9.462 -2.1508  1.2631 -1.4060
  273MOL0     H37617   6.923   8.399   9.757  0.3138 -0.5970 -0.6655
  273MOL0     H37618   6.992   8.267   9.682 -2.0708 -0.2330 -0.4323
  273MOL0     H37619   7.191   8.430   9.614  1.5339  1.3516  0.3809
  273MOL0     H37620   7.169   8.382   9.781 -1.6779  0.7265  1.4991
  273MOL0     H37621   7.062   8.635   9.656  0.5714 -0.0982 -0.4030
  273MOL0     H37622   7.056   8.597   9.833  1.5373  0.0111  0.9788
  273MOL0     H37623   7.249   8.817   9.624 -1.1619 -1.2031 -1.3155
  273MOL0     H37624   7.507   8.946   9.884  0.4597  2.8575 -0.8256
  273MOL0     H37625   7.404   9.020   9.772  0.8814  1.4523  0.8640
  273MOL0     H37626   7.633   8.850   9.678 -0.6444 -0.9320  0.3430
  273MOL0     H37627   7.528   8.961   9.577  3.1089  3.7148 -1.8766
  273MOL0     H37628   7.672   9.124   9.615  0.9284 -0.7458  0.0393
  273MOL0     H37629   7.632   9.103   9.794 -0.4720 -1.3459  1.4947
  273MOL0     H37630   7.823   8.963   9.827 -1.4356 -0.7235 -0.9884
  273MOL0     H37631   7.863   8.964   9.655  0.0344 -0.7223  0.1358
  273MOL0     H37632   8.038   8.934   9.866 -0.6258 -1.2952 -3.1051
  273MOL0     H37633   8.233   8.837   9.974 -0.7804 -0.8912  0.1447
  273MOL0     H37634   8.335   8.960  10.059 -1.1707 -0.2790 -0.1582
  273MOL0     H37635   8.372   8.917   9.896  1.5087 -1.3937  3.0747
  273MOL0     H37636   8.591   9.396   9.655 -1.5639  0.3369  2.9600
  273MOL0     H37637   8.839   9.442   9.630 -1.3808  1.6172 -0.2057
  273MOL0     H37638   9.075   9.335   9.630 -1.1880 -1.6540  0.9461
  273MOL0     H37639   9.047   9.504   9.657  0.6051  0.0158  0.2295
  273MOL0     H37640   9.284   9.352   9.735 -1.1640  0.7275  2.8670
  273MOL0     H37641   9.257   9.474   9.600  1.1073 -0.9529 -0.7332
  273MOL0     H37642   9.221   9.524   9.909 -1.8928  1.0282  0.2946
  273MOL0     H37643   9.228   9.646   9.791 -0.5894 -0.2851 -0.1327
  273MOL0     H37644   9.483   9.589   9.756 -0.1593  0.0429  0.8825
  273MOL0     H37645   9.471   9.468   9.878  0.2518  1.0610  0.7524
  273MOL0     H37646   9.412   9.753   9.936  1.0195  0.1603 -1.6147
  273MOL0     H37647   9.410   9.617  10.051  0.4618  1.2258 -0.1312
  273MOL0     H37648   9.667   9.584   9.961 -0.9894 -0.3964  1.0146
  273MOL0     H37649   9.614   9.712  10.074 -1.7372  0.2818  0.2914
  273MOL0     H37650   9.598   9.871   9.886 -0.8425 -1.1743  0.8129
  273MOL0     H37651   9.681   9.745   9.789  0.2699  0.4736 -0.4583
  273MOL0     H37652   9.804   9.830  10.042  1.3813  3.1375  0.0836
  273MOL0     H37653   9.836   9.919   9.884  0.2198 -0.9438 -1.1908
  273MOL0     H37654   8.901   9.362  10.042  1.3437  2.7231 -1.9839
  273MOL0     H37655   8.652   9.310  10.070  0.4103 -1.1857 -0.1019
  273MOL0     H37656   8.237   9.382   9.821 -0.0506 -0.5072 -1.1996
  273MOL0     H37657   8.028   9.340   9.729  0.2179  0.1697  0.8506
  273MOL0     H37658   6.335   8.524   9.584  0.1182 -1.4956  0.5404
  273MOL0     H37659   6.078   8.519   9.653  0.1041 -0.4146  1.0767
  273MOL0     H37660   5.774   8.114   9.649  0.0376  0.9919 -0.2949
  273MOL0     H37661   5.532   8.050   9.661  2.0473 -0.1852 -2.0627
  273MOL0     H37662   5.271   8.120   9.631  3.5405 -1.1037 -0.5365
  273MOL0     H37663   5.349   8.017   9.761 -2.1942 -0.9883 -1.3094
  273MOL0     H37664   5.101   8.173   9.777  1.7892  0.7991 -1.3019
  273MOL0     H37665   5.179   8.086   9.920  0.6064  1.4294  0.2616
  273MOL0     H37666   5.093   7.935   9.681  1.1408  2.9190  0.9850
  273MOL0     H37667   5.150   7.868   9.835  1.2564  1.7783  2.3998
  273MOL0     H37668   4.879   8.005   9.828 -0.6838 -0.6338 -0.0346
  273MOL0     H37669   4.971   7.948   9.962  0.3677  0.1370  0.2492
  273MOL0     H37670   4.767   7.615   9.831  1.1828 -0.0355 -0.5167
  273MOL0     H37671   5.480   8.388   9.939 -2.6397 -0.5631 -1.0833
  273MOL0     H37672   5.737   8.546   9.889  1.3699 -1.9536 -0.9259
  273MOL0     H37673   5.637   8.487  10.033 -0.4735 -1.3745 -0.5713
  273MOL0     H37674   5.803   8.456  10.036 -1.5043 -1.4146  2.2153
  274MOL0     O37675   2.595   6.091   2.950  0.0235 -0.1591 -0.0655
  274MOL0     C37676   2.572   6.061   2.831 -0.3486  0.6856  0.6245
  274MOL0     O37677   2.671   6.008   2.744 -0.4737  0.2195 -0.2466
  274MOL0     C37678   2.788   5.966   2.784 -0.0605  0.5956 -1.1600
  274MOL0     C37679   2.895   5.992   2.695 -0.2093  0.6926 -0.5418
  274MOL0     C37680   3.026   5.951   2.730  0.8814 -0.5910 -0.3505
  274MOL0     C37681   3.058   5.892   2.855  0.6349 -0.7635 -0.2575
  274MOL0     O37682   3.181   5.842   2.893 -0.4289  0.2360  0.4798
  274MOL0     C37683   3.294   5.856   2.810  1.1704  0.1302 -0.2240
  274MOL0     C37684   3.408   5.761   2.852 -0.5626 -0.7487  0.7134
  274MOL0     C37685   3.440   5.778   3.003  0.3054  0.0177  0.0899
  274MOL0     C37686   3.535   5.670   3.049 -0.2661  0.0812  0.8085
  274MOL0     C37687   3.568   5.707   3.192 -1.1095  1.3033 -1.5335
  274MOL0     C37688   3.690   5.620   3.249  0.5950  0.5129  0.1166
  274MOL0     C37689   3.722   5.653   3.396  0.5164  0.3456 -0.1392
  274MOL0     C37690   3.793   5.790   3.403  0.0048  0.8468  0.6010
  274MOL0     N37691   3.937   5.792   3.370  0.4765 -0.1870 -0.1148
  274MOL0     C37692   4.028   5.699   3.416 -0.2507 -0.5548  0.5379
  274MOL0     C37693   4.134   5.724   3.337  0.5712 -0.8725  1.0467
  274MOL0     C37694   4.258   5.641   3.336  0.3669  0.0467 -0.6020
  274MOL0     C37695   4.356   5.673   3.231 -0.8180 -0.6704  0.2540
  274MOL0     C37696   4.486   5.589   3.240  0.3445  0.6799 -0.4875
  274MOL0     C37697   4.597   5.644   3.161  0.2844 -0.6081  0.1167
  274MOL0     O37698   4.656   5.741   3.248 -0.0741 -0.4066 -0.5253
  274MOL0     C37699   4.787   5.765   3.247  0.1359  0.1283 -0.6304
  274MOL0     C37700   4.872   5.750   3.136  0.5332  0.1387 -0.9262
  274MOL0     C37701   5.010   5.774   3.146 -0.5531  0.2168  0.3464
  274MOL0     C37702   5.099   5.750   3.023 -0.1702 -0.0426  0.6368
  274MOL0     C37703   5.070   5.804   3.269 -0.7024 -0.8508 -0.4655
  274MOL0     C37704   5.223   5.807   3.303  0.0129 -0.0958  0.5529
  274MOL0     O37705   5.315   5.821   3.202 -0.2835  0.3669  0.7882
  274MOL0     C37706   5.452   5.820   3.224 -0.5597  0.0516 -0.2093
  274MOL0     C37707   5.517   5.938   3.230 -0.4601  0.1995 -0.7907
  274MOL0     C37708   5.652   5.941   3.257  0.3869  0.1949 -0.5955
  274MOL0     C37709   5.721   5.824   3.272 -0.2476 -0.4521 -0.1465
  274MOL0     O37710   5.857   5.817   3.303 -0.3054  0.1829  0.6832
  274MOL0     C37711   5.937   5.870   3.196 -0.3666 -0.3214  0.3173
  274MOL0     C37712   6.074   5.799   3.204  1.0332 -0.2678 -0.4688
  274MOL0     C37713   6.158   5.842   3.085 -0.5661  0.0084 -0.8997
  274MOL0     C37714   6.289   5.767   3.077  0.1493 -0.0356 -0.0354
  274MOL0     C37715   6.379   5.797   2.951 -0.3337  0.1972  0.3911
  274MOL0     C37716   6.521   5.725   2.971  1.0464 -0.5923 -0.0590
  274MOL0     C37717   6.623   5.757   2.855 -0.3015 -0.2135 -0.5625
  274MOL0     C37718   6.744   5.652   2.839  0.6402  0.3301 -0.1475
  274MOL0    Cl37719   6.827   5.638   2.996 -0.1900  0.6337 -0.0751
  274MOL0     C37720   5.655   5.701   3.252 -0.1828  0.6689  0.4551
  274MOL0     C37721   5.518   5.701   3.226  1.0547  0.3108  0.4541
  274MOL0     O37722   5.250   5.778   3.420 -0.6729 -0.6857  0.7062
  274MOL0     C37723   4.984   5.816   3.378 -0.7149  0.1773  0.5174
  274MOL0     C37724   4.850   5.798   3.364 -0.5484  0.4469 -0.2457
  274MOL0     N37725   4.111   5.816   3.240  0.1964 -0.2207  0.6908
  274MOL0     N37726   3.991   5.851   3.255 -0.4708 -0.7197 -0.7940
  274MOL0     C37727   2.952   5.869   2.941  0.0249 -0.8215 -0.6464
  274MOL0     C37728   2.816   5.906   2.906 -0.5813 -0.4895 -0.5903
  274MOL0     C37729   2.436   6.072   2.781  0.3180 -0.5552 -0.1374
  274MOL0     C37730   2.324   6.045   2.863  0.0877  0.3330 -1.0932
  274MOL0     C37731   2.191   6.049   2.809 -0.6964  0.0475  0.8505
  274MOL0     C37732   2.167   6.095   2.680 -0.4829  0.5184 -0.2109
  274MOL0     O37733   2.041   6.107   2.627  0.1035  0.0819 -1.0791
  274MOL0     C37734   1.923   6.082   2.709  0.5317  0.1753 -0.0245
  274MOL0     C37735   1.788   6.082   2.629 -0.0989 -0.1897  0.2080
  274MOL0     C37736   1.668   6.035   2.715  0.1437 -0.4880 -0.2015
  274MOL0     C37737   1.537   6.005   2.645  0.0529  0.1809 -0.4926
  274MOL0     C37738   1.531   5.887   2.555  0.0994  0.2016  0.5292
  274MOL0     C37739   1.533   5.790   2.482 -0.8355 -0.0891  0.6300
  274MOL0     C37740   2.277   6.134   2.606 -0.0028  0.3845 -0.4265
  274MOL0     C37741   2.404   6.125   2.650  0.2819 -0.8314 -0.3518
  274MOL0     C37742   2.505   6.169   2.547 -0.0274 -0.3421  0.1634
  274MOL0     H37743   2.879   6.058   2.610 -2.8782  0.6226 -0.1848
  274MOL0     H37744   3.114   5.976   2.672  0.5421 -0.0768 -0.6515
  274MOL0     H37745   3.323   5.961   2.812 -1.5191  0.9505 -0.2990
  274MOL0     H37746   3.269   5.833   2.706 -1.2387  1.1452  0.0517
  274MOL0     H37747   3.357   5.667   2.831  0.0882 -0.9348 -0.0331
  274MOL0     H37748   3.500   5.781   2.797 -1.9629 -0.0165 -1.4582
  274MOL0     H37749   3.481   5.878   3.016  0.7889  0.0883 -1.7498
  274MOL0     H37750   3.343   5.777   3.054  0.6146 -2.4573  0.7949
  274MOL0     H37751   3.475   5.579   3.055  0.2274 -0.5520 -2.0504
  274MOL0     H37752   3.616   5.660   2.976 -1.4538 -1.8842 -0.3300
  274MOL0     H37753   3.478   5.691   3.252 -0.4841 -0.6438 -1.0240
  274MOL0     H37754   3.587   5.815   3.196 -1.0314  1.2576 -0.1762
  274MOL0     H37755   3.682   5.512   3.233  2.2629  0.0727  1.8831
  274MOL0     H37756   3.779   5.636   3.186  0.7082 -2.8826 -0.8139
  274MOL0     H37757   3.778   5.571   3.443 -2.8207 -1.7623  0.4716
  274MOL0     H37758   3.627   5.653   3.449  0.9194  6.7567  1.3540
  274MOL0     H37759   3.744   5.868   3.343 -0.2073  0.9206  0.8722
  274MOL0     H37760   3.789   5.825   3.506 -1.1897  1.0362  0.5041
  274MOL0     H37761   4.031   5.623   3.493  0.9469 -0.6449  0.4161
  274MOL0     H37762   4.225   5.537   3.328  0.3336 -0.0140  0.1906
  274MOL0     H37763   4.298   5.646   3.438 -1.0541  0.7900 -0.0470
  274MOL0     H37764   4.307   5.654   3.135 -0.2408 -3.7934  0.4683
  274MOL0     H37765   4.390   5.777   3.238 -1.7972 -0.3347  0.1784
  274MOL0     H37766   4.514   5.598   3.346  0.3338  0.2452 -0.4440
  274MOL0     H37767   4.472   5.484   3.213  0.9953 -0.6268  3.5185
  274MOL0     H37768   4.660   5.557   3.144 -0.8411 -1.7365  1.4446
  274MOL0     H37769   4.574   5.678   3.059  3.0167 -3.3173 -1.5587
  274MOL0     H37770   4.826   5.724   3.041  2.4239  2.0782 -2.4741
  274MOL0     H37771   5.168   5.665   3.028  0.5492  0.2966 -1.9744
  274MOL0     H37772   5.158   5.841   3.014 -0.3295 -0.1149 -1.6627
  274MOL0     H37773   5.038   5.750   2.932  0.4625  1.3095  0.1987
  274MOL0     H37774   5.462   6.031   3.237  1.6127  1.6224 -2.1407
  274MOL0     H37775   5.696   6.037   3.282 -0.2203  0.5760 -0.9577
  274MOL0     H37776   5.887   5.846   3.102  0.8548  1.1969 -0.7539
  274MOL0     H37777   5.960   5.975   3.218 -0.0482 -0.9424  3.4988
  274MOL0     H37778   6.117   5.822   3.302 -1.6160  0.3964  0.6343
  274MOL0     H37779   6.036   5.697   3.200 -5.1388  1.6714 -1.3377
  274MOL0     H37780   6.174   5.951   3.082  3.0219 -0.4351 -2.0407
  274MOL0     H37781   6.106   5.820   2.991  0.1273 -1.7338 -0.9071
  274MOL0     H37782   6.255   5.663   3.069 -2.8131  0.6901  1.5553
  274MOL0     H37783   6.341   5.785   3.171 -1.9889 -1.2092  1.4627
  274MOL0     H37784   6.323   5.754   2.868 -1.2139 -1.2248  1.6696
  274MOL0     H37785   6.376   5.906   2.943  0.0111  0.1785 -0.0047
  274MOL0     H37786   6.503   5.617   2.965 -0.6759 -0.2231 -3.7896
  274MOL0     H37787   6.565   5.763   3.064  1.4193  3.8708 -1.8200
  274MOL0     H37788   6.657   5.860   2.867 -2.4679  0.7810 -2.3814
  274MOL0     H37789   6.566   5.754   2.762  1.3657 -0.9642 -1.6171
  274MOL0     H37790   6.826   5.694   2.779  0.7590  2.3448  1.3098
  274MOL0     H37791   6.707   5.564   2.786  1.9089  1.4641 -3.2175
  274MOL0     H37792   5.713   5.610   3.259  0.2916  1.0633  1.8900
  274MOL0     H37793   5.475   5.605   3.199  3.7315 -1.0850  0.7847
  274MOL0     H37794   5.028   5.836   3.475  0.1990  2.0341 -0.2339
  274MOL0     H37795   4.800   5.807   3.460  0.1543 -0.9896  0.2981
  274MOL0     H37796   2.970   5.812   3.031 -0.8850  0.3039  0.2747
  274MOL0     H37797   2.736   5.902   2.979  0.4984  1.5704  0.7977
  274MOL0     H37798   2.321   5.993   2.959 -1.2452  1.7289 -0.3354
  274MOL0     H37799   2.114   6.002   2.869  1.3752 -3.8411  0.7501
  274MOL0     H37800   1.923   5.980   2.748  0.2253  0.6899  1.3700
  274MOL0     H37801   1.908   6.160   2.784 -3.6750 -1.1669  0.8592
  274MOL0     H37802   1.794   6.007   2.550 -0.8010 -0.4114  0.3542
  274MOL0     H37803   1.781   6.182   2.586 -2.2459  0.0216  0.9074
  274MOL0     H37804   1.706   5.955   2.779  1.4246 -0.3764 -0.7843
  274MOL0     H37805   1.640   6.112   2.788  0.4754 -0.0364 -0.5441
  274MOL0     H37806   1.526   6.086   2.573  0.8946 -0.2408 -1.1267
  274MOL0     H37807   1.451   5.998   2.712 -0.2250 -0.3863 -0.8999
  274MOL0     H37808   1.557   5.708   2.418 -1.9675 -0.0391  0.1044
  274MOL0     H37809   2.264   6.170   2.504 -0.2933  0.9472 -0.1942
  274MOL0     H37810   2.453   6.219   2.464 -0.2484  0.8911  1.0196
  274MOL0     H37811   2.581   6.235   2.588 -0.8636 -0.2094  1.5364
  274MOL0     H37812   2.554   6.083   2.500 -1.3498  0.3614 -2.7598
  275MOL0     O37813   4.441   6.027   0.220 -0.0461 -0.5531 -1.2975
  275MOL0     C37814   4.454   6.060   0.340 -0.4714  0.9207 -0.5475
  275MOL0     O37815   4.555   6.119   0.396 -0.2549 -0.1625  0.1019
  275MOL0     C37816   4.680   6.101   0.336 -0.3340  0.0316  0.0561
  275MOL0     C37817   4.778   6.202   0.359  0.9450  0.8048  0.5589
  275MOL0     C37818   4.901   6.200   0.308 -0.3141 -0.0625 -0.8189
  275MOL0     C37819   4.957   6.082   0.263  0.6484  0.5434 -0.1504
  275MOL0     O37820   5.074   6.067   0.209 -0.3149  0.3108 -0.2192
  275MOL0     C37821   5.178   6.162   0.226  0.9052 -0.9648  0.7533
  275MOL0     C37822   5.290   6.110   0.141 -1.0000 -0.1934 -0.9042
  275MOL0     C37823   5.412   6.196   0.138 -0.3664 -0.7195  0.1704
  275MOL0     C37824   5.500   6.157   0.011 -0.6080 -0.7232  0.2632
  275MOL0     C37825   5.642   6.214   0.018 -0.6313 -0.1557 -0.9074
  275MOL0     C37826   5.658   6.366   0.044 -0.1365 -0.7254 -0.0046
  275MOL0     C37827   5.798   6.426   0.036 -0.6517 -0.1580 -0.5023
  275MOL0     C37828   5.869   6.420  -0.096  0.3643  0.3983  0.0839
  275MOL0     N37829   5.979   6.511  -0.113 -1.1376 -0.4563 -0.5686
  275MOL0     C37830   6.084   6.487  -0.195 -0.5496 -0.2429 -0.1884
  275MOL0     C37831   6.175   6.590  -0.185  0.1967  0.5591  1.1093
  275MOL0     C37832   6.295   6.612  -0.261 -0.2893  0.1373 -0.0663
  275MOL0     C37833   6.412   6.577  -0.181  1.0476  0.2875  0.2387
  275MOL0     C37834   6.522   6.527  -0.268 -0.0190  0.1672  0.8428
  275MOL0     C37835   6.648   6.476  -0.191  0.2109  0.3093  0.0497
  275MOL0     O37836   6.700   6.580  -0.101  0.1392  0.7567 -0.1959
  275MOL0     C37837   6.807   6.549  -0.014  0.0478 -0.6280  0.2859
  275MOL0     C37838   6.797   6.618   0.105  0.1543  0.5851  0.4127
  275MOL0     C37839   6.898   6.612   0.197  0.0182  1.3647  0.0089
  275MOL0     C37840   6.877   6.687   0.326 -0.4636  0.2835 -0.2024
  275MOL0     C37841   7.011   6.527   0.168 -0.3530 -0.2951  0.1114
  275MOL0     C37842   7.122   6.494   0.252 -0.8324  0.0065  1.2326
  275MOL0     O37843   7.221   6.402   0.207 -0.5125  0.3770  0.0863
  275MOL0     C37844   7.340   6.379   0.272 -0.3721 -0.2448  0.4225
  275MOL0     C37845   7.399   6.255   0.265 -0.7931  0.2210 -0.6016
  275MOL0     C37846   7.520   6.222   0.325 -0.4249  0.3176  0.1983
  275MOL0     C37847   7.594   6.318   0.389  0.4877 -0.3648 -0.5756
  275MOL0     O37848   7.718   6.282   0.431  0.1738  0.6649 -0.2405
  275MOL0     C37849   7.824   6.368   0.391  0.9891  0.2440 -0.1354
  275MOL0     C37850   7.953   6.303   0.436 -0.0753  0.5016 -0.3471
  275MOL0     C37851   8.067   6.396   0.407 -0.1136  0.6524 -0.4002
  275MOL0     C37852   8.077   6.438   0.259  1.0956  0.5144 -0.0460
  275MOL0     C37853   8.202   6.505   0.214 -0.1200 -0.4090  0.7119
  275MOL0     C37854   8.214   6.638   0.283  0.5642 -0.2361  0.3212
  275MOL0     C37855   8.336   6.714   0.232 -0.2848  0.3559  0.6312
  275MOL0     C37856   8.337   6.846   0.303 -0.4172 -0.6114 -0.0449
  275MOL0    Cl37857   8.377   6.828   0.482  0.5615 -0.2629 -0.0652
  275MOL0     C37858   7.528   6.448   0.416 -1.2836  0.8651  1.1645
  275MOL0     C37859   7.413   6.481   0.352 -0.2740  0.0589 -0.2119
  275MOL0     O37860   7.126   6.559   0.358 -0.4153  0.4517  0.1289
  275MOL0     C37861   7.013   6.466   0.038  0.1832 -0.2093 -0.4762
  275MOL0     C37862   6.911   6.463  -0.049  0.5368 -0.3729  0.0124
  275MOL0     N37863   6.126   6.670  -0.085  0.0276  0.4800 -0.2450
  275MOL0     N37864   6.010   6.624  -0.046 -0.2188 -0.2361 -0.3953
  275MOL0     C37865   4.864   5.973   0.253 -0.0868 -0.5151  0.1338
  275MOL0     C37866   4.727   5.985   0.272  0.7421 -0.6905 -0.1010
  275MOL0     C37867   4.338   6.042   0.429 -0.3243  1.0497  0.2738
  275MOL0     C37868   4.360   6.078   0.561 -0.6677  0.2352 -0.8796
  275MOL0     C37869   4.254   6.094   0.649 -0.4149  0.8652 -0.1837
  275MOL0     C37870   4.124   6.065   0.615 -0.2827 -0.1013  0.3955
  275MOL0     O37871   4.015   6.069   0.700 -0.1133 -0.0286 -0.1113
  275MOL0     C37872   4.026   6.119   0.833  0.2569  0.3691 -0.1068
  275MOL0     C37873   3.888   6.109   0.890 -0.1020 -0.7389 -0.4122
  275MOL0     C37874   3.874   6.172   1.030 -0.3056  0.9419  0.0126
  275MOL0     C37875   3.858   6.328   1.045 -0.4240  1.0069  0.2631
  275MOL0     C37876   3.842   6.384   1.177  0.1153 -0.1121 -0.2953
  275MOL0     C37877   3.863   6.424   1.287  0.0885 -0.0783  0.2165
  275MOL0     C37878   4.097   6.020   0.487 -0.4286 -0.2009  0.0797
  275MOL0     C37879   4.198   6.017   0.398 -0.6184 -0.2403  0.0242
  275MOL0     C37880   4.144   5.987   0.262  0.5465 -0.4625  0.4830
  275MOL0     H37881   4.739   6.293   0.402 -3.4907 -0.5800  0.0083
  275MOL0     H37882   4.970   6.280   0.334  3.3838 -3.1953  0.0025
  275MOL0     H37883   5.213   6.173   0.329  0.1568  0.9222  0.8627
  275MOL0     H37884   5.147   6.263   0.194  1.5356 -1.7714 -2.8012
  275MOL0     H37885   5.318   6.010   0.176  3.7006  1.4164  0.7787
  275MOL0     H37886   5.255   6.108   0.038 -0.6806 -0.3860 -1.0099
  275MOL0     H37887   5.380   6.301   0.133  1.7586  0.0611  1.4716
  275MOL0     H37888   5.479   6.175   0.222  4.1737 -1.1379 -3.1770
  275MOL0     H37889   5.508   6.048   0.008 -0.8665 -0.7959  1.5687
  275MOL0     H37890   5.455   6.195  -0.081 -0.5197  1.1565  0.9502
  275MOL0     H37891   5.694   6.180  -0.072  2.4609 -0.3216  0.7956
  275MOL0     H37892   5.686   6.156   0.099 -0.1996 -0.3101 -1.2489
  275MOL0     H37893   5.610   6.421  -0.038  0.5760 -1.9325 -1.2688
  275MOL0     H37894   5.619   6.401   0.140  3.6956 -0.5813  1.6403
  275MOL0     H37895   5.871   6.384   0.106  0.1026  1.1805 -0.4556
  275MOL0     H37896   5.791   6.530   0.069  0.2579 -0.4717  0.7549
  275MOL0     H37897   5.915   6.322  -0.107  0.8425  0.4990  1.0682
  275MOL0     H37898   5.796   6.442  -0.175  2.5121  2.0719 -1.5535
  275MOL0     H37899   6.094   6.405  -0.265 -0.3897  0.2600 -0.7659
  275MOL0     H37900   6.304   6.718  -0.285  0.8646  0.1114  0.1632
  275MOL0     H37901   6.292   6.549  -0.351 -2.4732 -1.6172  1.1213
  275MOL0     H37902   6.438   6.667  -0.125 -4.0170  3.5449 -1.8648
  275MOL0     H37903   6.386   6.490  -0.120  3.8058 -0.4626  0.4635
  275MOL0     H37904   6.481   6.449  -0.332 -3.3906  0.7285  2.0892
  275MOL0     H37905   6.550   6.614  -0.329 -1.7678  1.6161  1.9852
  275MOL0     H37906   6.621   6.393  -0.125 -0.8645  0.8754  0.3422
  275MOL0     H37907   6.722   6.459  -0.270  0.1507  1.6454 -0.3152
  275MOL0     H37908   6.712   6.683   0.121  0.0899  0.3370  1.1279
  275MOL0     H37909   6.799   6.764   0.322  1.3115  2.1164 -1.3402
  275MOL0     H37910   6.973   6.738   0.339 -1.6319  3.0295 -1.6043
  275MOL0     H37911   6.862   6.626   0.416  1.3519 -4.0524 -2.5631
  275MOL0     H37912   7.334   6.183   0.216 -2.3151  0.1557  1.3785
  275MOL0     H37913   7.563   6.123   0.323  3.0549  1.7013 -1.2137
  275MOL0     H37914   7.814   6.374   0.282  2.1436  0.4178 -0.2396
  275MOL0     H37915   7.808   6.467   0.434  3.4922  0.3043  0.8077
  275MOL0     H37916   7.949   6.280   0.543  0.6076  1.3643 -0.1193
  275MOL0     H37917   7.972   6.211   0.380  1.7062  0.8467 -0.3699
  275MOL0     H37918   8.167   6.356   0.427 -0.4125  0.3810  0.5694
  275MOL0     H37919   8.040   6.484   0.466  1.7793  0.1543  1.3092
  275MOL0     H37920   7.985   6.489   0.231 -0.8948 -1.0724  3.0845
  275MOL0     H37921   8.083   6.349   0.195 -3.8009 -0.0690 -0.0352
  275MOL0     H37922   8.274   6.435   0.256  0.1899 -1.6533 -1.7099
  275MOL0     H37923   8.219   6.509   0.106  3.4422 -0.5986  1.1557
  275MOL0     H37924   8.213   6.625   0.392 -1.8468  1.5555  0.6170
  275MOL0     H37925   8.129   6.697   0.249  1.2523  1.3824  1.2749
  275MOL0     H37926   8.343   6.728   0.124  0.4647  1.9426  0.8593
  275MOL0     H37927   8.425   6.666   0.274 -0.1419 -0.6971 -0.8156
  275MOL0     H37928   8.233   6.880   0.296 -0.3991 -0.6137 -0.3648
  275MOL0     H37929   8.402   6.921   0.258  0.8688 -1.5298  0.2149
  275MOL0     H37930   7.583   6.531   0.460  0.1674  1.2610 -1.2177
  275MOL0     H37931   7.381   6.585   0.352  3.7743  1.5028 -1.0206
  275MOL0     H37932   7.099   6.409   0.004  0.2695  0.0399 -0.6807
  275MOL0     H37933   6.910   6.412  -0.145 -1.1797  0.6531 -0.5666
  275MOL0     H37934   4.913   5.886   0.210  1.7543  1.1941 -1.4760
  275MOL0     H37935   4.665   5.896   0.262  3.5242 -2.8366  0.3236
  275MOL0     H37936   4.461   6.099   0.596 -0.3894 -2.3629  0.0370
  275MOL0     H37937   4.272   6.122   0.752  0.2000  0.4681 -0.1788
  275MOL0     H37938   4.102   6.065   0.889  3.2981  0.2721 -3.9535
  275MOL0     H37939   4.060   6.222   0.817  0.3054  0.7276  1.9470
  275MOL0     H37940   3.845   6.008   0.886 -3.4907  0.5875 -2.2999
  275MOL0     H37941   3.817   6.158   0.822 -1.2236  0.3843  1.4804
  275MOL0     H37942   3.780   6.128   1.064 -0.7386  2.1742  0.4533
  275MOL0     H37943   3.964   6.139   1.083  0.4388  1.0405 -1.1618
  275MOL0     H37944   3.789   6.360   0.966 -0.1453 -2.1831 -1.4543
  275MOL0     H37945   3.950   6.372   1.004  1.3905 -2.3370  0.3992
  275MOL0     H37946   3.868   6.465   1.386 -2.3671 -1.6862  1.0980
  275MOL0     H37947   3.996   5.995   0.455 -0.0654 -2.1437  0.3421
  275MOL0     H37948   4.202   6.046   0.191  0.8422 -0.9933  0.2871
  275MOL0     H37949   4.148   5.880   0.243 -0.3518 -0.6581  1.2873
  275MOL0     H37950   4.037   6.009   0.252  0.1062 -1.4677  2.4601
  276MOL0     O37951   0.140   5.339   7.439 -0.2995 -0.1167 -0.4137
  276MOL0     C37952   0.145   5.332   7.318  0.0334  0.2549 -0.3380
  276MOL0     O37953   0.041   5.337   7.236  0.3204  0.4293  0.2565
  276MOL0     C37954  -0.093   5.344   7.260 -0.1815  0.4902 -0.1294
  276MOL0     C37955  -0.162   5.317   7.145  0.0209 -0.4672  0.2703
  276MOL0     C37956  -0.302   5.328   7.153 -0.6927 -0.3708 -0.8535
  276MOL0     C37957  -0.367   5.364   7.274 -0.1175  0.2133 -0.3894
  276MOL0     O37958  -0.504   5.391   7.266 -0.9279 -0.3777 -0.2519
  276MOL0     C37959  -0.538   5.528   7.298 -0.1626  0.6324  0.3021
  276MOL0     C37960  -0.658   5.569   7.208  0.3611 -0.2079  0.1171
  276MOL0     C37961  -0.607   5.633   7.079  0.1684  0.3644 -0.6696
  276MOL0     C37962  -0.604   5.544   6.958 -0.5720  0.7504  0.4820
  276MOL0     C37963  -0.521   5.605   6.850 -0.3088  0.1048  0.7358
  276MOL0     C37964  -0.558   5.738   6.788  0.2312  0.6389  0.0641
  276MOL0     C37965  -0.474   5.762   6.671 -0.6459  0.2846  0.5872
  276MOL0     C37966  -0.510   5.890   6.596  0.5639  0.4713 -0.9499
  276MOL0     N37967  -0.428   5.918   6.484 -0.6900  0.1659 -1.0790
  276MOL0     C37968  -0.469   5.953   6.363 -0.4181 -0.4771  0.9824
  276MOL0     C37969  -0.350   5.986   6.307 -0.2805 -0.6829 -0.3607
  276MOL0     C37970  -0.327   6.018   6.161 -0.2873 -0.3848 -0.7236
  276MOL0     C37971  -0.321   5.900   6.069 -0.2498  1.1184 -0.9265
  276MOL0     C37972  -0.324   5.955   5.920 -0.2417 -1.0212  0.6577
  276MOL0     C37973  -0.327   5.842   5.812 -0.4720 -0.0128  0.3414
  276MOL0     O37974  -0.363   5.893   5.683 -0.3728  1.2780  0.3903
  276MOL0     C37975  -0.495   5.907   5.655 -0.5487  0.2561 -0.1412
  276MOL0     C37976  -0.529   5.928   5.525  0.0739 -0.7585 -0.9809
  276MOL0     C37977  -0.662   5.948   5.476 -0.2067  0.1673 -0.4991
  276MOL0     C37978  -0.687   5.973   5.327 -0.5983 -0.0399 -0.5033
  276MOL0     C37979  -0.765   5.954   5.574  0.6215 -0.3876  0.0239
  276MOL0     C37980  -0.911   5.980   5.540  0.6690 -0.4821 -0.2180
  276MOL0     O37981  -0.999   5.933   5.638 -0.1640  0.7729  0.2662
  276MOL0     C37982  -1.128   5.956   5.608  0.9959  0.1788 -0.1261
  276MOL0     C37983  -1.190   6.078   5.634  0.7603 -0.0793 -0.3138
  276MOL0     C37984  -1.325   6.107   5.584 -0.8266 -0.4204 -0.2177
  276MOL0     C37985  -1.401   6.004   5.526  0.0333 -0.0948 -0.0163
  276MOL0     O37986  -1.539   6.004   5.508  1.3586 -0.1933  0.7957
  276MOL0     C37987  -1.614   6.092   5.587 -1.2495  0.2921 -0.3186
  276MOL0     C37988  -1.756   6.047   5.595 -0.9228 -0.5032 -0.9430
  276MOL0     C37989  -1.856   6.157   5.652  0.3283  0.3596  0.2830
  276MOL0     C37990  -2.001   6.104   5.639 -0.5214  0.5056  0.1771
  276MOL0     C37991  -2.097   6.204   5.681  0.3704 -0.9562 -0.2183
  276MOL0     C37992  -2.229   6.126   5.684  0.8276 -0.3064  0.4458
  276MOL0     C37993  -2.343   6.225   5.735 -0.5892  0.5716 -0.1658
  276MOL0     C37994  -2.393   6.332   5.623 -0.3897 -0.6977 -0.9101
  276MOL0    Cl37995  -2.478   6.463   5.697 -0.0056 -0.5862  0.1918
  276MOL0     C37996  -1.343   5.881   5.513  0.8346 -0.9052  0.3567
  276MOL0     C37997  -1.213   5.854   5.556 -0.8070  0.0436 -0.2829
  276MOL0     O37998  -0.946   6.031   5.434 -0.2996 -0.4456 -0.5168
  276MOL0     C37999  -0.730   5.939   5.718 -0.6469  0.6595  0.6618
  276MOL0     C38000  -0.594   5.904   5.750 -0.0615 -0.0494  0.6227
  276MOL0     N38001  -0.241   5.977   6.390  0.2400 -1.0558  0.0648
  276MOL0     N38002  -0.289   5.937   6.501  0.4904 -0.5454 -0.4925
  276MOL0     C38003  -0.292   5.395   7.388 -0.4899 -0.6799  0.1765
  276MOL0     C38004  -0.156   5.387   7.374  0.0967 -0.0058  0.3100
  276MOL0     C38005   0.271   5.359   7.246  0.2442 -0.5506 -0.3389
  276MOL0     C38006   0.262   5.398   7.113 -0.0338 -0.0599 -0.0582
  276MOL0     C38007   0.381   5.436   7.045  0.1501 -0.2315  0.8047
  276MOL0     C38008   0.510   5.447   7.106  0.6657  0.0320  0.1650
  276MOL0     O38009   0.610   5.512   7.037  0.3376  0.2081  0.2333
  276MOL0     C38010   0.649   5.637   7.100  0.4963 -0.3680  0.8792
  276MOL0     C38011   0.736   5.719   7.001  0.6188  0.5990 -0.0559
  276MOL0     C38012   0.761   5.845   7.070 -0.5123  0.1804 -0.0546
  276MOL0     C38013   0.854   5.936   6.997 -0.0944  0.2539  0.1955
  276MOL0     C38014   0.877   6.070   7.057  0.3025  0.0731  0.3709
  276MOL0     C38015   0.901   6.172   7.103  0.3427  0.0725  0.6197
  276MOL0     C38016   0.518   5.393   7.236  0.4282  0.6107 -0.9165
  276MOL0     C38017   0.403   5.347   7.304 -0.0930  0.8602 -0.2781
  276MOL0     C38018   0.436   5.274   7.439 -0.0273 -0.7687  1.1245
  276MOL0     H38019  -0.104   5.294   7.057  1.0061  3.0649 -0.1689
  276MOL0     H38020  -0.364   5.303   7.067 -0.2758 -1.1776 -0.9237
  276MOL0     H38021  -0.452   5.590   7.273 -1.9434  2.4169 -1.7861
  276MOL0     H38022  -0.567   5.540   7.403  1.1441 -1.1289  0.9222
  276MOL0     H38023  -0.720   5.480   7.192  0.7694 -0.2912 -1.0976
  276MOL0     H38024  -0.717   5.648   7.255  1.0607  0.4478 -0.0845
  276MOL0     H38025  -0.680   5.713   7.062 -1.6805 -0.6135  2.0291
  276MOL0     H38026  -0.509   5.679   7.093  0.0950  0.4942 -0.5750
  276MOL0     H38027  -0.555   5.449   6.980 -2.6932 -0.7201 -0.8440
  276MOL0     H38028  -0.704   5.530   6.917 -0.8394  2.1863  0.5973
  276MOL0     H38029  -0.523   5.529   6.770  0.8687 -2.3543  2.9033
  276MOL0     H38030  -0.418   5.611   6.883 -0.1773  0.5832  0.2511
  276MOL0     H38031  -0.661   5.730   6.753  0.0486 -2.4227  0.9731
  276MOL0     H38032  -0.553   5.818   6.863  0.8319 -1.8820  2.9042
  276MOL0     H38033  -0.477   5.678   6.601 -1.3606  0.2019  0.7129
  276MOL0     H38034  -0.367   5.769   6.692  0.7865 -0.2424 -4.9792
  276MOL0     H38035  -0.608   5.878   6.548  0.7283  3.7239 -2.4209
  276MOL0     H38036  -0.517   5.976   6.664 -0.2549  1.0878 -1.7744
  276MOL0     H38037  -0.567   5.936   6.320  0.4904 -2.6057 -0.3760
  276MOL0     H38038  -0.229   6.067   6.160 -0.0650 -0.8098 -0.2197
  276MOL0     H38039  -0.402   6.093   6.135  0.7860  0.4745 -1.4308
  276MOL0     H38040  -0.224   5.852   6.086  0.6957  2.0075 -3.3244
  276MOL0     H38041  -0.407   5.836   6.091  0.2709 -0.3147 -2.8463
  276MOL0     H38042  -0.416   6.015   5.922  0.0799 -0.5442  1.6164
  276MOL0     H38043  -0.235   6.017   5.907  2.0796 -4.7301 -5.5454
  276MOL0     H38044  -0.222   5.812   5.807 -0.6398 -0.3898 -2.5585
  276MOL0     H38045  -0.391   5.758   5.841 -1.7776  1.0774  0.7824
  276MOL0     H38046  -0.441   5.938   5.462  0.8822  1.2661  0.3523
  276MOL0     H38047  -0.710   6.080   5.325  2.3747  0.7657  1.2700
  276MOL0     H38048  -0.778   5.923   5.294 -1.0673  1.3669 -1.4216
  276MOL0     H38049  -0.599   5.953   5.264 -1.6896  0.6977 -2.3358
  276MOL0     H38050  -1.146   6.154   5.698 -1.9909 -0.7206  2.6259
  276MOL0     H38051  -1.365   6.206   5.601 -2.3250 -1.0759  0.1844
  276MOL0     H38052  -1.575   6.100   5.689 -2.0500  3.4246 -0.1616
  276MOL0     H38053  -1.627   6.188   5.535 -4.8999 -0.8339 -1.8162
  276MOL0     H38054  -1.783   6.020   5.493 -3.1170  1.6443 -1.0045
  276MOL0     H38055  -1.755   5.954   5.653 -1.8328 -0.5567 -0.9979
  276MOL0     H38056  -1.852   6.253   5.600 -0.6204  0.7549  0.9039
  276MOL0     H38057  -1.823   6.170   5.756 -0.1932  1.2736  0.3462
  276MOL0     H38058  -2.008   6.025   5.715  0.2616  1.1430  0.9382
  276MOL0     H38059  -2.023   6.075   5.536 -2.6485 -2.3556  1.2937
  276MOL0     H38060  -2.064   6.258   5.771  2.9301 -1.4770 -0.7622
  276MOL0     H38061  -2.106   6.287   5.610 -0.7309  1.3623  2.4076
  276MOL0     H38062  -2.232   6.035   5.745  2.5315 -0.4594  0.3596
  276MOL0     H38063  -2.252   6.099   5.581  2.9575 -0.0682 -0.1523
  276MOL0     H38064  -2.303   6.273   5.824  2.2814  1.6797 -1.8984
  276MOL0     H38065  -2.431   6.168   5.765  0.6762 -1.2250  0.3118
  276MOL0     H38066  -2.457   6.285   5.548  0.1812  0.9991 -2.5303
  276MOL0     H38067  -2.302   6.370   5.576 -0.9620  1.3552 -0.4739
  276MOL0     H38068  -1.401   5.804   5.464 -1.4134  0.7590  0.2486
  276MOL0     H38069  -1.172   5.753   5.553 -2.8405 -0.8824  0.9275
  276MOL0     H38070  -0.805   5.947   5.796 -0.2449  0.5060  1.0721
  276MOL0     H38071  -0.586   5.890   5.858 -1.6050 -2.1494  0.5421
  276MOL0     H38072  -0.335   5.419   7.485  1.2554 -1.1615  1.1153
  276MOL0     H38073  -0.093   5.419   7.456  0.4163 -0.6260  0.3073
  276MOL0     H38074   0.171   5.396   7.055  1.0924 -0.6211 -1.9007
  276MOL0     H38075   0.379   5.474   6.943  0.5720 -0.8333  0.5646
  276MOL0     H38076   0.566   5.695   7.141  0.1883  0.3767 -0.7294
  276MOL0     H38077   0.720   5.620   7.182  2.2332 -1.4195 -0.7468
  276MOL0     H38078   0.691   5.737   6.903  3.9331  1.6622 -1.5283
  276MOL0     H38079   0.828   5.660   6.999 -0.0674 -0.5308  0.8719
  276MOL0     H38080   0.671   5.900   7.096 -1.4001 -0.1940 -2.1583
  276MOL0     H38081   0.817   5.808   7.156  4.8112 -0.6046 -3.3901
  276MOL0     H38082   0.799   5.949   6.904  1.2605  0.9948 -0.5301
  276MOL0     H38083   0.941   5.878   6.967 -0.2780 -1.4730  2.6774
  276MOL0     H38084   0.911   6.273   7.137 -1.4517  0.6837 -0.5027
  276MOL0     H38085   0.609   5.398   7.294  0.3705  1.7580 -0.9097
  276MOL0     H38086   0.543   5.261   7.455  0.2828  0.7480  0.3859
  276MOL0     H38087   0.402   5.343   7.517  1.8564  0.6280  0.7794
  276MOL0     H38088   0.369   5.187   7.436 -0.0134 -0.7517 -0.0512
  277MOL0     O38089   8.233   2.488   9.078  0.4746 -0.5310  0.5541
  277MOL0     C38090   8.153   2.583   9.057 -0.8417  1.2734 -1.4897
  277MOL0     O38091   8.164   2.710   9.094 -0.0269 -0.1865  0.6550
  277MOL0     C38092   8.277   2.785   9.092 -0.6423  0.5760  0.0216
  277MOL0     C38093   8.406   2.744   9.043  0.2008  0.1840  0.1259
  277MOL0     C38094   8.509   2.840   9.040  1.1350  0.0115 -0.1749
  277MOL0     C38095   8.482   2.974   9.070 -0.2317 -0.2904 -0.3146
  277MOL0     O38096   8.585   3.066   9.072 -0.8093 -1.2188 -0.3449
  277MOL0     C38097   8.694   3.050   8.979 -0.2151 -0.3742 -0.6471
  277MOL0     C38098   8.792   3.152   9.005 -0.4916 -0.8709 -0.4169
  277MOL0     C38099   8.937   3.116   9.048  0.1882 -0.1491  0.3816
  277MOL0     C38100   9.012   3.044   8.938  0.2312 -0.7785 -0.5799
  277MOL0     C38101   9.144   2.993   8.995 -0.4556  0.5058 -0.1219
  277MOL0     C38102   9.136   2.869   9.079 -0.5700 -0.0890 -0.5322
  277MOL0     C38103   9.274   2.834   9.153 -0.2106 -0.1556  0.2267
  277MOL0     C38104   9.273   2.691   9.199  0.0702  0.5957  0.3216
  277MOL0     N38105   9.394   2.659   9.273  0.4554 -0.5722 -0.1890
  277MOL0     C38106   9.525   2.676   9.230  0.1727 -0.1564  0.4042
  277MOL0     C38107   9.603   2.634   9.329 -0.2018  0.3203 -0.0465
  277MOL0     C38108   9.750   2.626   9.312  0.2293  0.2867 -0.1190
  277MOL0     C38109   9.819   2.560   9.429  0.0209  0.2612 -0.1241
  277MOL0     C38110   9.978   2.580   9.444  0.5492 -0.4590 -0.4644
  277MOL0     C38111  10.043   2.505   9.336 -0.1701 -0.6888 -0.1845
  277MOL0     O38112  10.047   2.365   9.356 -1.0982 -0.1694  0.2047
  277MOL0     C38113  10.107   2.289   9.262  0.0145 -0.1165  0.0786
  277MOL0     C38114  10.181   2.173   9.303 -0.3800  0.1669  0.7184
  277MOL0     C38115  10.271   2.103   9.222 -0.2929 -0.0325 -0.4604
  277MOL0     C38116  10.355   1.997   9.283 -0.9489  0.4333 -0.3386
  277MOL0     C38117  10.281   2.146   9.082 -0.5230  0.3830 -0.8714
  277MOL0     C38118  10.378   2.092   8.982 -0.1074  0.6100  0.7915
  277MOL0     O38119  10.365   2.133   8.855 -0.0608  0.0165 -0.4255
  277MOL0     C38120  10.458   2.097   8.759  0.0185 -0.1791 -0.2625
  277MOL0     C38121  10.545   2.202   8.719  0.0138 -0.4034 -0.5156
  277MOL0     C38122  10.648   2.169   8.630  0.2274 -0.2851  0.1242
  277MOL0     C38123  10.664   2.040   8.581  0.2088  0.0832  0.2253
  277MOL0     O38124  10.775   2.016   8.501  0.2913  0.8590  0.0095
  277MOL0     C38125  10.821   1.880   8.468  0.3027  0.9745 -0.3449
  277MOL0     C38126  10.746   1.795   8.361  0.1287  0.1385 -0.0666
  277MOL0     C38127  10.816   1.656   8.357 -0.3247 -0.2721  0.5054
  277MOL0     C38128  10.709   1.554   8.334  0.3567  1.2870  1.0564
  277MOL0     C38129  10.759   1.414   8.360  0.1974 -0.0549  0.0221
  277MOL0     C38130  10.652   1.312   8.350 -0.8108 -0.9701 -0.3383
  277MOL0     C38131  10.574   1.313   8.217  0.7970  0.5839 -0.3637
  277MOL0     C38132  10.658   1.246   8.108  0.5673 -0.3985  0.6612
  277MOL0    Cl38133  10.738   1.096   8.148  0.8070  0.0368 -0.1737
  277MOL0     C38134  10.579   1.936   8.621  0.6329 -0.1885 -0.2658
  277MOL0     C38135  10.476   1.970   8.704  0.6238  0.3844 -0.0153
  277MOL0     O38136  10.458   2.007   9.016  0.1183 -0.3766 -0.2835
  277MOL0     C38137  10.189   2.244   9.036  0.1379  0.4917  0.6512
  277MOL0     C38138  10.118   2.317   9.130 -0.1482  0.6298 -0.1190
  277MOL0     N38139   9.526   2.610   9.437  0.2056  1.0365 -0.0085
  277MOL0     N38140   9.397   2.619   9.404  0.2652 -0.6910 -0.2255
  277MOL0     C38141   8.362   3.009   9.118 -0.0208 -0.4524 -0.1730
  277MOL0     C38142   8.259   2.915   9.137 -0.1766  0.4514  0.6614
  277MOL0     C38143   8.031   2.540   8.988  0.6415  0.1041 -0.3479
  277MOL0     C38144   7.928   2.635   8.996  0.4216 -0.0239  0.2172
  277MOL0     C38145   7.806   2.612   8.930  0.7963  0.2215  0.7747
  277MOL0     C38146   7.778   2.498   8.856 -0.1280  0.6876 -0.1905
  277MOL0     O38147   7.668   2.465   8.779  0.2617 -0.2315  0.6647
  277MOL0     C38148   7.574   2.569   8.762 -0.2131  0.0796  0.3096
  277MOL0     C38149   7.460   2.535   8.661  0.5090 -0.6702 -0.8388
  277MOL0     C38150   7.359   2.426   8.696 -1.3006 -0.1699 -0.2847
  277MOL0     C38151   7.268   2.385   8.577  0.4908  0.4076 -0.8032
  277MOL0     C38152   7.186   2.269   8.621 -0.8330  0.2672  0.1171
  277MOL0     C38153   7.107   2.177   8.642  0.2474 -0.1396  0.4085
  277MOL0     C38154   7.880   2.403   8.856 -0.4638 -0.0116 -1.0719
  277MOL0     C38155   8.006   2.421   8.914  0.5200  0.1130  0.2089
  277MOL0     C38156   8.107   2.321   8.873  0.7385  0.3263  0.1256
  277MOL0     H38157   8.428   2.646   9.000  3.0372 -0.2121  2.2171
  277MOL0     H38158   8.608   2.805   9.014  0.6241 -0.7043 -1.2085
  277MOL0     H38159   8.661   3.068   8.876  0.5943  0.9750 -0.6990
  277MOL0     H38160   8.738   2.950   8.987  1.7314  0.2595 -2.5564
  277MOL0     H38161   8.800   3.224   8.922 -1.9714  3.3750  2.7904
  277MOL0     H38162   8.753   3.221   9.080 -0.2927  1.4162 -2.2660
  277MOL0     H38163   8.993   3.197   9.095  1.7359 -1.2245  0.4918
  277MOL0     H38164   8.921   3.048   9.133 -1.9417  0.2001  0.3170
  277MOL0     H38165   8.956   2.958   8.899 -1.2313  0.7803 -2.1043
  277MOL0     H38166   9.036   3.103   8.849 -0.5934 -0.6300 -0.7129
  277MOL0     H38167   9.202   3.078   9.033 -0.7011  0.5033  0.2627
  277MOL0     H38168   9.201   2.956   8.908  2.9396  1.5063  1.4924
  277MOL0     H38169   9.065   2.894   9.159 -0.2585  1.9679 -0.8441
  277MOL0     H38170   9.097   2.780   9.031  0.3693 -1.7826  1.6305
  277MOL0     H38171   9.287   2.912   9.229  0.7097  0.4239 -0.5087
  277MOL0     H38172   9.363   2.846   9.091  0.6303  0.0825  1.4403
  277MOL0     H38173   9.186   2.681   9.264  0.8137  0.2109  1.2932
  277MOL0     H38174   9.247   2.620   9.120 -2.0943 -0.0637  1.5373
  277MOL0     H38175   9.566   2.699   9.132  1.4909 -2.1466  0.4127
  277MOL0     H38176   9.767   2.733   9.297 -2.6481  1.1298  1.7606
  277MOL0     H38177   9.778   2.571   9.222 -2.8789 -1.8750  0.0785
  277MOL0     H38178   9.779   2.597   9.524  0.2421 -2.6915  1.2433
  277MOL0     H38179   9.804   2.451   9.427 -0.1434  0.2515  0.9395
  277MOL0     H38180   9.997   2.687   9.432 -3.0755  0.2659 -1.1323
  277MOL0     H38181   9.999   2.554   9.549  1.1701 -0.3286 -0.5531
  277MOL0     H38182   9.985   2.527   9.245 -1.0002  0.3489  0.5631
  277MOL0     H38183  10.144   2.546   9.325 -1.1116  2.7557  2.2984
  277MOL0     H38184  10.162   2.149   9.407  1.7741  0.8696  1.3149
  277MOL0     H38185  10.460   2.013   9.260 -0.7487  1.4916  1.2074
  277MOL0     H38186  10.332   1.895   9.250 -2.4894  0.6380  0.0193
  277MOL0     H38187  10.348   2.000   9.392 -1.8987 -0.6138 -0.3517
  277MOL0     H38188  10.528   2.303   8.756 -1.5197 -0.9506  0.4164
  277MOL0     H38189  10.713   2.252   8.604 -0.9804 -0.1124 -2.7877
  277MOL0     H38190  10.927   1.880   8.443  0.3020  0.0577 -0.3901
  277MOL0     H38191  10.812   1.820   8.560 -2.8443  1.3879 -0.2600
  277MOL0     H38192  10.641   1.786   8.387  0.3861 -1.4831  0.4834
  277MOL0     H38193  10.756   1.840   8.261  1.6760  0.2392  0.1042
  277MOL0     H38194  10.882   1.638   8.443 -1.4756 -3.5957  0.8557
  277MOL0     H38195  10.883   1.642   8.272  1.6155 -2.4740  2.2361
  277MOL0     H38196  10.670   1.568   8.232 -3.3129 -1.8166  1.7899
  277MOL0     H38197  10.628   1.580   8.403  1.3989  2.7984  1.7742
  277MOL0     H38198  10.843   1.398   8.293  0.4702 -0.2730  0.4095
  277MOL0     H38199  10.791   1.410   8.465 -1.1071  0.8480  0.4956
  277MOL0     H38200  10.581   1.330   8.432  1.4480 -0.6609  1.6808
  277MOL0     H38201  10.692   1.212   8.367  1.6133 -0.3183 -1.6930
  277MOL0     H38202  10.550   1.413   8.180 -2.2019  0.1817  0.2295
  277MOL0     H38203  10.481   1.256   8.227  1.8180 -1.0678  0.3056
  277MOL0     H38204  10.743   1.311   8.084  0.6163 -0.1894  1.3731
  277MOL0     H38205  10.592   1.224   8.023  0.6966 -0.0784  0.4768
  277MOL0     H38206  10.587   1.833   8.588 -0.4527 -0.2995 -0.2351
  277MOL0     H38207  10.409   1.897   8.748  1.9533 -0.1775  1.1372
  277MOL0     H38208  10.176   2.256   8.929  2.1359 -4.2803 -0.3573
  277MOL0     H38209  10.059   2.399   9.091 -0.8077 -0.3876 -1.3264
  277MOL0     H38210   8.344   3.109   9.158 -2.7511 -1.4140  1.2699
  277MOL0     H38211   8.156   2.932   9.165  0.1593  1.5073  1.3001
  277MOL0     H38212   7.933   2.725   9.056  0.8337  0.3870 -0.4186
  277MOL0     H38213   7.733   2.692   8.944  2.2425  1.9754 -1.0622
  277MOL0     H38214   7.526   2.597   8.856 -1.5603 -2.6228  0.5325
  277MOL0     H38215   7.628   2.657   8.726  1.6283 -0.1865  2.2281
  277MOL0     H38216   7.500   2.505   8.563 -0.2771 -0.3432 -1.2615
  277MOL0     H38217   7.414   2.633   8.648 -1.8323 -1.4659  0.8021
  277MOL0     H38218   7.423   2.338   8.713  1.8327  2.3151  2.1598
  277MOL0     H38219   7.295   2.451   8.782 -0.1771 -3.1021  1.5985
  277MOL0     H38220   7.336   2.352   8.498 -0.0648  0.3599 -1.2600
  277MOL0     H38221   7.201   2.461   8.536 -1.1062 -0.8251 -0.5909
  277MOL0     H38222   7.048   2.091   8.663 -1.6671  1.5380  2.2904
  277MOL0     H38223   7.860   2.312   8.801  0.8072  0.2205 -1.9621
  277MOL0     H38224   8.103   2.235   8.941 -0.9888 -2.2711 -2.9872
  277MOL0     H38225   8.095   2.291   8.768  1.6777  4.1755 -1.2486
  277MOL0     H38226   8.208   2.363   8.882  0.8522 -0.0128  0.4335
  278MOL0     O38227   5.617   7.885  10.907 -0.2566  0.4646  0.2147
  278MOL0     C38228   5.682   7.830  10.818  0.0669  0.2508 -0.4616
  278MOL0     O38229   5.633   7.793  10.697  0.1872  0.0389  0.1426
  278MOL0     C38230   5.498   7.807  10.695  0.7397 -0.1413  0.9184
  278MOL0     C38231   5.412   7.723  10.759  0.7011  0.1128 -0.8321
  278MOL0     C38232   5.272   7.735  10.736  0.2052 -0.6392 -0.1334
  278MOL0     C38233   5.218   7.835  10.664  1.1328 -0.1416 -0.5554
  278MOL0     O38234   5.079   7.833  10.637 -0.0842  0.9787  0.2797
  278MOL0     C38235   4.993   7.756  10.713  0.6018  0.3956  0.3736
  278MOL0     C38236   4.852   7.763  10.661  0.4902 -0.5881  0.2739
  278MOL0     C38237   4.762   7.665  10.747  0.2614 -0.5276  0.3368
  278MOL0     C38238   4.611   7.686  10.725 -0.6749 -0.2302 -0.5407
  278MOL0     C38239   4.542   7.568  10.796 -0.6885 -0.3182  0.2538
  278MOL0     C38240   4.400   7.558  10.759  0.0858  0.2504  0.1932
  278MOL0     C38241   4.342   7.429  10.813 -0.8882  0.9259 -0.6534
  278MOL0     C38242   4.320   7.437  10.965 -0.3317 -0.4531 -1.2974
  278MOL0     N38243   4.177   7.427  11.000  0.0847 -0.8380 -0.2935
  278MOL0     C38244   4.099   7.535  10.961 -0.2567  0.3519 -0.3188
  278MOL0     C38245   3.976   7.484  10.944 -0.0284 -1.1699 -0.4212
  278MOL0     C38246   3.862   7.567  10.892  0.0679  0.1857 -0.3862
  278MOL0     C38247   3.743   7.539  10.985 -0.3429  0.0896 -0.6902
  278MOL0     C38248   3.628   7.645  10.987 -0.0185  0.4136 -0.0947
  278MOL0     C38249   3.578   7.671  10.849  0.1934 -0.2334  0.8555
  278MOL0     O38250   3.492   7.786  10.848  1.1435 -0.6574  0.1534
  278MOL0     C38251   3.541   7.915  10.869  0.0308  0.5876  0.5275
  278MOL0     C38252   3.673   7.954  10.861  0.4317  0.0778  0.7215
  278MOL0     C38253   3.719   8.087  10.882 -0.1004  0.4364  0.2385
  278MOL0     C38254   3.867   8.122  10.868 -0.3773  0.6218  0.7376
  278MOL0     C38255   3.618   8.185  10.874  0.7059 -0.3940 -1.1100
  278MOL0     C38256   3.636   8.337  10.883  0.0460 -0.4012  0.1619
  278MOL0     O38257   3.756   8.384  10.933 -0.0043 -0.6040  0.3151
  278MOL0     C38258   3.758   8.521  10.953 -0.7975  0.4103 -0.4304
  278MOL0     C38259   3.767   8.611  10.844 -0.7380  0.1505 -1.0106
  278MOL0     C38260   3.790   8.742  10.873  0.1558 -0.1890 -0.0302
  278MOL0     C38261   3.796   8.786  11.003 -0.0850 -0.4410 -0.1626
  278MOL0     O38262   3.809   8.920  11.035  0.7384  0.3311 -0.0608
  278MOL0     C38263   3.769   9.013  10.941  0.1233 -0.1769  0.3173
  278MOL0     C38264   3.793   9.158  10.980 -0.1996  0.5925  0.8474
  278MOL0     C38265   3.934   9.180  11.037 -0.2728  0.2276  0.3666
  278MOL0     C38266   3.950   9.323  11.085  0.2934 -0.2727  0.1318
  278MOL0     C38267   4.097   9.356  11.080  0.5009  0.0447  0.3999
  278MOL0     C38268   4.147   9.465  11.166 -1.1442  0.4747  0.5102
  278MOL0     C38269   4.170   9.418  11.309 -0.1525  0.8319 -0.4918
  278MOL0     C38270   4.219   9.527  11.409 -0.7688  0.9929 -0.4603
  278MOL0    Cl38271   4.200   9.459  11.573  0.4714 -0.1376 -0.2499
  278MOL0     C38272   3.787   8.698  11.118  0.1440 -0.6517 -0.8989
  278MOL0     C38273   3.778   8.563  11.090 -0.3557  0.3893  0.0489
  278MOL0     O38274   3.544   8.419  10.850 -0.0582 -0.6319 -0.0457
  278MOL0     C38275   3.486   8.151  10.882  0.6879  0.5619 -0.4357
  278MOL0     C38276   3.452   8.017  10.882 -0.0872 -0.4058 -0.8821
  278MOL0     N38277   3.988   7.356  10.975  0.0044  0.6747 -0.9159
  278MOL0     N38278   4.105   7.320  11.003  0.0549  0.4313 -0.0154
  278MOL0     C38279   5.295   7.922  10.602  0.3875 -0.1450  0.3131
  278MOL0     C38280   5.441   7.909  10.614  0.7154  0.0907  0.3578
  278MOL0     C38281   5.819   7.803  10.830 -0.9924  0.2376  0.4787
  278MOL0     C38282   5.899   7.734  10.726 -0.9172  0.1082 -0.2983
  278MOL0     C38283   6.037   7.723  10.726  0.0958  0.8780  0.3871
  278MOL0     C38284   6.109   7.794  10.823  0.9750  0.3026 -0.5375
  278MOL0     O38285   6.241   7.807  10.826 -0.1459 -0.3247  0.0440
  278MOL0     C38286   6.292   7.950  10.840 -0.4996  0.3389  0.2774
  278MOL0     C38287   6.438   7.940  10.784  0.9247 -0.3248  0.2053
  278MOL0     C38288   6.512   8.072  10.772 -0.3860 -0.0468  0.6098
  278MOL0     C38289   6.482   8.149  10.641 -1.0063  0.1054  0.4393
  278MOL0     C38290   6.365   8.229  10.649  0.3369  0.0027 -0.3963
  278MOL0     C38291   6.261   8.293  10.668 -0.7114  0.2821 -0.3756
  278MOL0     C38292   6.040   7.836  10.934  0.0334  0.4067  0.5244
  278MOL0     C38293   5.896   7.839  10.938 -0.2322 -1.0560  0.0711
  278MOL0     C38294   5.842   7.911  11.068 -0.7323  0.2185 -0.0827
  278MOL0     H38295   5.455   7.641  10.816 -1.9849  0.1897  1.4930
  278MOL0     H38296   5.217   7.659  10.790  1.9771 -0.6725  1.7862
  278MOL0     H38297   4.994   7.788  10.818  0.4803  2.7448 -0.3115
  278MOL0     H38298   5.034   7.654  10.705 -0.0070  0.0882  1.0056
  278MOL0     H38299   4.813   7.861  10.691 -1.1579 -1.5702  1.5000
  278MOL0     H38300   4.837   7.750  10.554 -3.2921  2.2747  0.2367
  278MOL0     H38301   4.791   7.564  10.718 -1.4132 -1.2716  1.1506
  278MOL0     H38302   4.788   7.678  10.853  2.8744 -1.7741 -0.0826
  278MOL0     H38303   4.587   7.781  10.772  2.1895  0.0759  0.4807
  278MOL0     H38304   4.593   7.699  10.618  1.5357  0.3727 -0.8854
  278MOL0     H38305   4.556   7.577  10.904  3.0019 -3.1654  0.2025
  278MOL0     H38306   4.598   7.478  10.768 -0.3538 -0.6086  1.7614
  278MOL0     H38307   4.340   7.644  10.788 -0.5854 -0.9010  2.4226
  278MOL0     H38308   4.413   7.549  10.650  0.6707  0.7733  0.2123
  278MOL0     H38309   4.413   7.347  10.796 -0.3571  0.6891  2.3089
  278MOL0     H38310   4.252   7.405  10.756 -1.6313  1.8960  0.0900
  278MOL0     H38311   4.363   7.348  11.013 -0.4390 -1.1481 -2.4605
  278MOL0     H38312   4.367   7.523  11.014 -0.6322 -0.8253 -0.3147
  278MOL0     H38313   4.123   7.640  10.948  1.2642  0.0534 -0.1488
  278MOL0     H38314   3.837   7.542  10.788  2.3699 -0.4408 -0.8370
  278MOL0     H38315   3.891   7.672  10.881 -0.0153  0.1210 -1.2946
  278MOL0     H38316   3.690   7.444  10.976 -3.2277  1.2775  1.7731
  278MOL0     H38317   3.777   7.522  11.088 -4.4379  1.5457  1.1524
  278MOL0     H38318   3.545   7.608  11.046  0.0110 -0.4734 -0.5992
  278MOL0     H38319   3.676   7.731  11.035  2.0281 -2.6078  3.8461
  278MOL0     H38320   3.661   7.696  10.782  0.0500 -0.8470  0.4444
  278MOL0     H38321   3.537   7.582  10.801 -0.8983  0.6151  0.1723
  278MOL0     H38322   3.757   7.888  10.845 -1.8751 -2.5534 -1.4764
  278MOL0     H38323   3.899   8.164  10.964  1.0200  1.6883 -0.1612
  278MOL0     H38324   3.888   8.181  10.779  0.8932 -0.4411  0.2993
  278MOL0     H38325   3.926   8.032  10.849  0.7423  1.4365  0.2196
  278MOL0     H38326   3.758   8.578  10.741  2.1588  1.7761 -1.8867
  278MOL0     H38327   3.823   8.805  10.790  1.4119  0.8698  1.2205
  278MOL0     H38328   3.833   8.998  10.853  2.1833 -1.3866  1.9289
  278MOL0     H38329   3.662   9.018  10.922  0.0706  2.1051  0.8797
  278MOL0     H38330   3.776   9.228  10.898 -1.0135 -0.1261  0.3925
  278MOL0     H38331   3.726   9.187  11.061  0.3527  0.6403  1.2968
  278MOL0     H38332   4.000   9.144  10.957 -0.2642 -0.4248  0.6620
  278MOL0     H38333   3.954   9.117  11.124 -0.2359 -0.4126 -0.1002
  278MOL0     H38334   3.917   9.331  11.189  1.8819 -0.2247  0.6590
  278MOL0     H38335   3.896   9.393  11.021  0.1111 -1.4969 -1.1159
  278MOL0     H38336   4.136   9.264  11.125 -1.8096 -0.0273  2.4326
  278MOL0     H38337   4.131   9.355  10.976  0.5029 -0.5860  0.4027
  278MOL0     H38338   4.081   9.551  11.180 -0.3952  0.8718  1.8077
  278MOL0     H38339   4.233   9.508  11.115 -0.2571 -1.8787 -0.0828
  278MOL0     H38340   4.237   9.332  11.320  1.3502  2.2717  3.7158
  278MOL0     H38341   4.073   9.386  11.347  0.0542 -1.8942 -2.0179
  278MOL0     H38342   4.151   9.613  11.405 -0.3769  1.3896  1.0067
  278MOL0     H38343   4.322   9.558  11.389 -0.6873  0.7277 -0.4521
  278MOL0     H38344   3.806   8.740  11.216  3.8636 -0.4896 -1.5343
  278MOL0     H38345   3.782   8.493  11.172 -0.2376 -2.4246 -2.1985
  278MOL0     H38346   3.411   8.229  10.883  0.8976  0.7607 -0.2606
  278MOL0     H38347   3.350   7.985  10.900  0.0899  0.0027  0.9904
  278MOL0     H38348   5.249   7.992  10.533  2.6623 -0.1101 -1.2645
  278MOL0     H38349   5.508   7.977  10.563 -1.7845 -0.7346 -4.6322
  278MOL0     H38350   5.836   7.697  10.646 -1.2338  2.3393 -1.1597
  278MOL0     H38351   6.101   7.684  10.647  0.8990  1.2145  0.8599
  278MOL0     H38352   6.239   8.021  10.777 -0.6587  1.1788  1.3269
  278MOL0     H38353   6.286   7.979  10.945 -0.2540 -0.4697  0.5247
  278MOL0     H38354   6.423   7.900  10.683  0.7533 -0.8549  0.4400
  278MOL0     H38355   6.501   7.867  10.835  1.6017  1.8440  2.6703
  278MOL0     H38356   6.492   8.140  10.856  0.7007 -0.7953  1.5009
  278MOL0     H38357   6.620   8.052  10.765 -0.3306 -1.3313  3.5133
  278MOL0     H38358   6.474   8.078  10.558 -0.8853  0.4855  0.1021
  278MOL0     H38359   6.566   8.215  10.619 -0.8486 -0.2033  0.1091
  278MOL0     H38360   6.171   8.348  10.684 -1.6345 -1.5043  0.8214
  278MOL0     H38361   6.092   7.876  11.020 -0.5788  1.1156  0.5726
  278MOL0     H38362   5.782   7.840  11.126 -1.0270  3.0892  3.4226
  278MOL0     H38363   5.922   7.936  11.137 -2.1246 -0.5312  1.8999
  278MOL0     H38364   5.785   8.003  11.049 -0.9470  0.5494  2.0109
  279MOL0     O38365   7.509   2.040   1.072  0.3124 -0.0606 -0.6806
  279MOL0     C38366   7.472   2.038   0.960  0.8681 -0.0550 -0.0875
  279MOL0     O38367   7.537   2.090   0.850  0.6562  0.4743 -0.1091
  279MOL0     C38368   7.672   2.088   0.849 -0.6166 -0.4609 -0.1692
  279MOL0     C38369   7.740   2.154   0.743  1.1164  1.0480  0.7480
  279MOL0     C38370   7.871   2.116   0.702 -0.3436 -0.0400 -0.8097
  279MOL0     C38371   7.954   2.051   0.790 -0.7959 -0.5159  0.1995
  279MOL0     O38372   8.087   2.014   0.747  0.1832 -0.0448 -0.0746
  279MOL0     C38373   8.185   1.983   0.849 -0.0718  0.2590  0.6930
  279MOL0     C38374   8.318   1.986   0.788 -0.4339  0.3093 -0.5231
  279MOL0     C38375   8.421   1.949   0.902  0.9060 -0.2755  0.1205
  279MOL0     C38376   8.562   1.911   0.840 -0.5081  0.2948  0.3627
  279MOL0     C38377   8.666   1.894   0.955  0.0120  0.2412  0.9285
  279MOL0     C38378   8.722   2.035   0.999 -0.2033  0.1237  0.5725
  279MOL0     C38379   8.847   1.999   1.074  1.3871  0.2212 -0.0672
  279MOL0     C38380   8.918   2.126   1.131  0.8683 -0.4451 -0.3730
  279MOL0     N38381   8.990   2.089   1.251  0.4913 -0.6388  0.6061
  279MOL0     C38382   9.108   2.027   1.243  0.1864  0.3653 -0.0149
  279MOL0     C38383   9.137   1.989   1.373  0.8196 -0.5075  0.1519
  279MOL0     C38384   9.270   1.939   1.427 -0.9769  0.2196 -0.4258
  279MOL0     C38385   9.400   1.964   1.337  0.0436  0.0523 -0.4006
  279MOL0     C38386   9.396   1.884   1.212  0.6814 -0.3995  0.2219
  279MOL0     C38387   9.468   1.956   1.089  0.3795  1.1363 -0.7972
  279MOL0     O38388   9.399   2.078   1.055  0.2659  0.3562  0.7107
  279MOL0     C38389   9.302   2.077   0.959  0.6596  0.5540  0.2939
  279MOL0     C38390   9.252   1.958   0.905 -0.4337 -0.7257  0.4747
  279MOL0     C38391   9.149   1.969   0.814  0.2057 -1.0845  0.4533
  279MOL0     C38392   9.099   1.836   0.765  0.0984  0.5896 -0.8849
  279MOL0     C38393   9.096   2.096   0.771 -0.7434 -0.8634 -0.6618
  279MOL0     C38394   8.971   2.113   0.689  0.0285 -0.1480 -0.4078
  279MOL0     O38395   8.912   2.230   0.683  0.3412 -0.2362  0.1799
  279MOL0     C38396   8.803   2.245   0.592  0.6907  0.8305  0.6984
  279MOL0     C38397   8.667   2.225   0.623 -0.1680 -0.2157 -0.0234
  279MOL0     C38398   8.561   2.234   0.524 -0.0502  0.2108  0.0555
  279MOL0     C38399   8.590   2.271   0.396  0.1169  0.5865  0.7085
  279MOL0     O38400   8.492   2.302   0.309  0.4313  0.0526 -0.0872
  279MOL0     C38401   8.494   2.285   0.164 -0.6923 -0.5015 -0.9212
  279MOL0     C38402   8.390   2.187   0.118 -0.3785 -0.1504  0.4096
  279MOL0     C38403   8.462   2.058   0.105 -0.1017  1.3284 -0.0446
  279MOL0     C38404   8.360   1.953   0.047 -0.6943  0.2307 -0.1097
  279MOL0     C38405   8.444   1.823   0.011 -0.1655 -0.0837 -0.0683
  279MOL0     C38406   8.352   1.709  -0.016 -0.4393  0.9579  0.3020
  279MOL0     C38407   8.422   1.566  -0.030 -0.7034 -1.0293  0.3336
  279MOL0     C38408   8.454   1.517   0.109 -0.5193  0.4960 -0.0700
  279MOL0    Cl38409   8.571   1.377   0.075  0.0969  0.0199  0.2468
  279MOL0     C38410   8.725   2.290   0.364 -0.0251  0.1738  0.9185
  279MOL0     C38411   8.823   2.283   0.463 -0.4788  0.4534  0.6461
  279MOL0     O38412   8.938   2.023   0.621 -0.0931  0.1084 -0.4477
  279MOL0     C38413   9.143   2.211   0.840 -0.8258 -0.3824  0.0157
  279MOL0     C38414   9.245   2.200   0.936  0.0002  0.0645 -0.3349
  279MOL0     N38415   9.023   2.033   1.449 -0.5036  0.1115  0.0607
  279MOL0     N38416   8.931   2.078   1.374  0.7587  0.1537  0.5422
  279MOL0     C38417   7.897   2.009   0.908  0.7195  0.2890  0.2212
  279MOL0     C38418   7.759   2.020   0.935 -0.4111 -0.3259 -0.0651
  279MOL0     C38419   7.333   1.986   0.935 -0.8497  0.1211 -0.8648
  279MOL0     C38420   7.311   1.885   0.842  0.8320 -0.1398  0.8301
  279MOL0     C38421   7.187   1.832   0.820 -1.1811  0.1759  0.0283
  279MOL0     C38422   7.075   1.873   0.895  0.7631 -0.2599  0.7115
  279MOL0     O38423   6.955   1.807   0.869 -0.2314 -0.8444  0.5607
  279MOL0     C38424   6.832   1.878   0.903 -1.0047  0.2471  0.1570
  279MOL0     C38425   6.717   1.778   0.872  0.0207 -0.3018  0.6437
  279MOL0     C38426   6.727   1.656   0.953  0.6520 -0.4344  0.4482
  279MOL0     C38427   6.593   1.586   0.984  0.1343 -0.4037  0.8862
  279MOL0     C38428   6.531   1.543   0.862  0.5134  0.6788  1.0198
  279MOL0     C38429   6.482   1.504   0.757  0.1802  0.1256 -0.0730
  279MOL0     C38430   7.090   1.986   0.975  0.6875  0.3354 -0.0571
  279MOL0     C38431   7.228   2.047   0.998  0.3477  0.5287 -0.4222
  279MOL0     C38432   7.224   2.166   1.079  0.5672  0.1805 -0.1813
  279MOL0     H38433   7.689   2.214   0.668  3.8068  0.8520 -1.3474
  279MOL0     H38434   7.903   2.142   0.601 -0.0464  3.4644  0.0681
  279MOL0     H38435   8.157   1.884   0.887  1.4788 -0.2436  0.6203
  279MOL0     H38436   8.172   2.058   0.928 -0.5802  0.7583  0.1440
  279MOL0     H38437   8.326   1.920   0.701 -0.1167  3.0039 -2.6906
  279MOL0     H38438   8.330   2.087   0.748  0.3927  1.4836  2.4024
  279MOL0     H38439   8.430   2.037   0.967 -1.3552  1.1485 -1.3551
  279MOL0     H38440   8.389   1.863   0.961  0.4012  0.1001  0.3972
  279MOL0     H38441   8.563   1.814   0.790  2.8400 -0.9223  2.4126
  279MOL0     H38442   8.596   1.995   0.779 -1.9387  1.9574  1.7242
  279MOL0     H38443   8.747   1.828   0.922 -0.4047 -0.7580  1.8422
  279MOL0     H38444   8.616   1.848   1.041  0.8550 -1.7224  0.4207
  279MOL0     H38445   8.753   2.093   0.912  1.0116  0.0275  0.9309
  279MOL0     H38446   8.644   2.080   1.061 -0.5601 -0.6564  0.7094
  279MOL0     H38447   8.922   1.943   1.018  1.7635 -0.9982  1.5992
  279MOL0     H38448   8.813   1.934   1.155 -0.8079 -2.3958 -2.8589
  279MOL0     H38449   8.992   2.172   1.065 -0.7198  1.9872 -0.5565
  279MOL0     H38450   8.848   2.207   1.152  1.0880  0.9777 -4.3376
  279MOL0     H38451   9.164   2.004   1.153 -0.3933 -1.1112 -0.0191
  279MOL0     H38452   9.273   1.831   1.438  1.5724  0.3154  0.3633
  279MOL0     H38453   9.284   1.960   1.534 -0.7522 -4.0965  0.5748
  279MOL0     H38454   9.404   2.071   1.314  1.0095  0.2782  0.7588
  279MOL0     H38455   9.491   1.932   1.387 -0.6059  1.4426  1.7889
  279MOL0     H38456   9.449   1.790   1.224  0.2354 -0.7565 -0.5621
  279MOL0     H38457   9.290   1.866   1.191 -0.5776  1.3636  4.1038
  279MOL0     H38458   9.566   1.986   1.128 -0.5183  3.7446 -0.4041
  279MOL0     H38459   9.486   1.879   1.013  1.5728 -0.1671  0.7166
  279MOL0     H38460   9.287   1.857   0.924 -0.0989 -0.9470 -1.1744
  279MOL0     H38461   9.104   1.826   0.657  0.0999 -1.3882 -0.7338
  279MOL0     H38462   8.994   1.826   0.797  0.8597  1.4603  2.2637
  279MOL0     H38463   9.144   1.745   0.804 -1.4512  0.2669  0.2525
  279MOL0     H38464   8.647   2.205   0.728  3.7071  1.4449  1.2119
  279MOL0     H38465   8.462   2.205   0.556 -1.4132  3.0508 -1.3040
  279MOL0     H38466   8.468   2.389   0.140 -1.2735 -0.5738 -0.6323
  279MOL0     H38467   8.596   2.258   0.134 -0.1175  1.5565 -0.9928
  279MOL0     H38468   8.299   2.175   0.177  0.8192 -1.5405  2.0681
  279MOL0     H38469   8.361   2.215   0.016 -0.8936  0.0566  0.6102
  279MOL0     H38470   8.501   2.038   0.205  2.4891 -0.0884 -1.2487
  279MOL0     H38471   8.553   2.050   0.045  0.3767  0.1021  0.8177
  279MOL0     H38472   8.310   1.995  -0.041 -0.5545  1.5984  0.4400
  279MOL0     H38473   8.280   1.934   0.119 -0.5946 -0.6978 -0.2301
  279MOL0     H38474   8.507   1.850  -0.073 -2.1766  0.6310 -1.4175
  279MOL0     H38475   8.515   1.803   0.092  0.7034  3.4042  0.1698
  279MOL0     H38476   8.288   1.719  -0.104 -1.3655 -2.7939  0.3849
  279MOL0     H38477   8.290   1.707   0.074  0.4635  0.0085  0.9282
  279MOL0     H38478   8.515   1.580  -0.085 -0.1514 -1.0145  1.2536
  279MOL0     H38479   8.351   1.496  -0.075 -2.8567  0.9638  0.4583
  279MOL0     H38480   8.358   1.486   0.152 -1.1430  2.3250 -0.0778
  279MOL0     H38481   8.505   1.596   0.165 -0.9920  0.6544  0.1379
  279MOL0     H38482   8.769   2.313   0.267 -2.4087  0.1794 -0.2286
  279MOL0     H38483   8.926   2.269   0.431  0.2428 -3.6871  3.9053
  279MOL0     H38484   9.103   2.310   0.821  1.0620  0.6000  0.8672
  279MOL0     H38485   9.276   2.289   0.990 -0.8947 -0.2636  0.7624
  279MOL0     H38486   7.954   1.949   0.978  1.9197 -0.1823 -1.1088
  279MOL0     H38487   7.726   1.979   1.030 -3.2655 -1.5423 -1.4868
  279MOL0     H38488   7.396   1.847   0.787 -0.4472 -2.1374  0.1403
  279MOL0     H38489   7.175   1.751   0.749 -0.1482  0.6029 -0.6650
  279MOL0     H38490   6.818   1.897   1.010 -3.6129 -1.1167  0.1231
  279MOL0     H38491   6.826   1.978   0.859  1.5187 -0.6237 -2.5075
  279MOL0     H38492   6.703   1.743   0.769  0.5373 -1.0816  0.8270
  279MOL0     H38493   6.626   1.833   0.895 -1.8445 -1.9885 -2.1162
  279MOL0     H38494   6.781   1.583   0.891 -2.8049 -1.3724 -1.7459
  279MOL0     H38495   6.774   1.662   1.051  1.2827 -0.1876  0.1398
  279MOL0     H38496   6.526   1.654   1.038  0.0863 -0.6705  1.1627
  279MOL0     H38497   6.612   1.502   1.050  0.1941 -1.0967  0.0053
  279MOL0     H38498   6.433   1.476   0.666 -3.6887  2.2646  1.1456
  279MOL0     H38499   7.000   2.013   1.029 -0.9468 -1.0279 -1.9670
  279MOL0     H38500   7.313   2.230   1.078  0.3022  0.5619  0.5004
  279MOL0     H38501   7.135   2.222   1.051  0.1800 -0.3562 -0.0291
  279MOL0     H38502   7.203   2.133   1.181  1.1619 -1.8697 -0.6653
  280MOL0     O38503   4.315   3.841   9.276 -0.2047  0.1139 -0.1833
  280MOL0     C38504   4.252   3.751   9.325 -0.1232 -0.6537 -0.2938
  280MOL0     O38505   4.283   3.700   9.453  0.3949  0.6596 -0.3617
  280MOL0     C38506   4.412   3.711   9.499  0.2176 -0.1057 -0.3233
  280MOL0     C38507   4.422   3.722   9.642 -0.0247 -0.4821  0.7881
  280MOL0     C38508   4.542   3.748   9.703  0.4041 -0.6302  0.3641
  280MOL0     C38509   4.658   3.766   9.630  0.4607  0.3272  0.2187
  280MOL0     O38510   4.778   3.791   9.698 -0.0393 -0.4413  1.0955
  280MOL0     C38511   4.894   3.833   9.613 -0.6121  0.6670  0.1662
  280MOL0     C38512   4.994   3.914   9.683  0.4346 -0.7106 -0.2204
  280MOL0     C38513   4.923   4.019   9.769 -0.4518 -0.9693  0.3526
  280MOL0     C38514   5.032   4.125   9.809 -0.0654 -0.4731  0.1254
  280MOL0     C38515   4.963   4.213   9.911 -0.6327 -0.4458 -0.5752
  280MOL0     C38516   5.021   4.347   9.896 -0.6997  0.4041  0.4415
  280MOL0     C38517   4.936   4.454   9.966  0.0087  0.7265  0.5429
  280MOL0     C38518   5.008   4.595   9.962 -0.8433 -0.8321 -0.6684
  280MOL0     N38519   5.145   4.596  10.020  0.5972  0.4302 -0.0338
  280MOL0     C38520   5.270   4.614   9.961 -0.4759 -0.2506 -0.4280
  280MOL0     C38521   5.371   4.586  10.042  1.2231 -0.7336  0.5855
  280MOL0     C38522   5.513   4.575  10.017 -0.0475  0.2049  0.0670
  280MOL0     C38523   5.560   4.711   9.946  0.1211  0.8500 -0.1553
  280MOL0     C38524   5.707   4.694   9.902  0.4611  0.2171  0.0767
  280MOL0     C38525   5.735   4.826   9.821  0.6111  0.1411  0.1102
  280MOL0     O38526   5.860   4.837   9.755 -0.2391  0.4271 -0.3840
  280MOL0     C38527   5.981   4.831   9.833  1.1460 -1.2037  1.4594
  280MOL0     C38528   5.972   4.844   9.972 -0.5717 -0.4367 -0.5724
  280MOL0     C38529   6.092   4.834  10.049 -0.7267  0.4325 -0.2169
  280MOL0     C38530   6.071   4.855  10.195 -0.2675 -0.5162 -0.9956
  280MOL0     C38531   6.222   4.804   9.994  1.1380 -0.3227  0.6059
  280MOL0     C38532   6.351   4.780  10.078  0.0391 -0.6367 -0.4736
  280MOL0     O38533   6.458   4.738  10.007  0.5377 -0.3687 -0.2486
  280MOL0     C38534   6.577   4.700  10.072  0.5591 -0.6810  1.0356
  280MOL0     C38535   6.583   4.569  10.126  0.8304 -0.7229  0.0105
  280MOL0     C38536   6.690   4.523  10.201 -0.1057 -0.0870 -0.5606
  280MOL0     C38537   6.800   4.608  10.216  0.2262  0.4934 -0.8967
  280MOL0     O38538   6.905   4.557  10.294 -0.0641  0.1659 -0.4371
  280MOL0     C38539   6.894   4.596  10.438  0.2053  0.0457  0.6445
  280MOL0     C38540   6.976   4.730  10.458  0.1514  0.9221  0.6255
  280MOL0     C38541   7.111   4.732  10.386  0.4808 -0.4054  0.1996
  280MOL0     C38542   7.189   4.850  10.452  0.0112 -0.2053 -0.6099
  280MOL0     C38543   7.324   4.874  10.387 -0.2217  0.8302 -0.4379
  280MOL0     C38544   7.384   5.007  10.443 -0.1120  0.2636  0.9043
  280MOL0     C38545   7.525   5.027  10.378 -0.9315 -0.0710 -0.6377
  280MOL0     C38546   7.594   5.146  10.456 -0.0890 -0.0033  0.0742
  280MOL0    Cl38547   7.756   5.192  10.401 -0.0266 -0.8530  0.5048
  280MOL0     C38548   6.790   4.742  10.161  0.3273 -0.5906 -0.2177
  280MOL0     C38549   6.685   4.787  10.090  0.3017  0.5751 -0.1178
  280MOL0     O38550   6.354   4.810  10.200  0.8925 -0.3893  0.3440
  280MOL0     C38551   6.220   4.799   9.853  0.6208 -0.3034 -0.2728
  280MOL0     C38552   6.101   4.809   9.775  0.1502  0.3251  0.7168
  280MOL0     N38553   5.303   4.542  10.153  0.8616  1.0398 -0.1524
  280MOL0     N38554   5.173   4.573  10.145 -0.2354 -0.5574  0.0835
  280MOL0     C38555   4.649   3.757   9.495 -0.0723  0.0271  0.5246
  280MOL0     C38556   4.528   3.736   9.423 -0.1405 -0.3537  0.0107
  280MOL0     C38557   4.121   3.709   9.265 -1.4593 -0.2546 -0.0407
  280MOL0     C38558   4.033   3.642   9.352  0.5432 -0.0232  1.3609
  280MOL0     C38559   3.908   3.608   9.304 -0.8409  0.5406 -0.3663
  280MOL0     C38560   3.872   3.623   9.174  1.3762 -0.3288  0.7291
  280MOL0     O38561   3.754   3.558   9.142  0.6803  0.2164  0.1673
  280MOL0     C38562   3.687   3.582   9.021 -0.6928 -1.2638  0.2228
  280MOL0     C38563   3.577   3.465   8.993 -0.2627 -0.6310 -0.5642
  280MOL0     C38564   3.488   3.485   8.866  0.3063 -0.5046 -0.3015
  280MOL0     C38565   3.401   3.366   8.823 -0.4500  0.0415  0.0531
  280MOL0     C38566   3.328   3.397   8.701 -0.4304 -0.1885 -0.2995
  280MOL0     C38567   3.272   3.427   8.596 -0.3088 -0.8417 -0.2604
  280MOL0     C38568   3.958   3.684   9.075 -0.1815 -0.4634 -0.4567
  280MOL0     C38569   4.083   3.735   9.129 -0.8153  0.1821 -0.7399
  280MOL0     C38570   4.173   3.815   9.039  0.7797 -0.3552  0.3640
  280MOL0     H38571   4.339   3.708   9.710 -0.4509 -0.4346  0.2883
  280MOL0     H38572   4.538   3.748   9.812 -0.0713 -1.5592  0.3614
  280MOL0     H38573   4.847   3.893   9.534  0.0315  1.5516  0.4313
  280MOL0     H38574   4.945   3.744   9.575 -1.2209  0.7485 -0.8761
  280MOL0     H38575   5.069   3.854   9.737  0.9070  2.6270  3.2561
  280MOL0     H38576   5.050   3.972   9.609  0.1945  0.2773  0.3572
  280MOL0     H38577   4.852   4.077   9.709  1.7373  0.4834 -0.9762
  280MOL0     H38578   4.870   3.986   9.859 -2.7878 -1.7715 -1.2078
  280MOL0     H38579   5.122   4.080   9.854  0.6994 -1.7957 -2.4759
  280MOL0     H38580   5.062   4.178   9.718 -3.4925 -0.0167 -0.8629
  280MOL0     H38581   4.978   4.175  10.012 -2.0555 -0.4696 -0.3585
  280MOL0     H38582   4.858   4.223   9.883 -0.0517  1.4809 -2.3239
  280MOL0     H38583   5.126   4.346   9.924 -0.4409  3.6979 -0.0434
  280MOL0     H38584   5.017   4.377   9.791  0.2652  1.7353  0.7540
  280MOL0     H38585   4.930   4.438  10.074 -1.8809 -0.7904  0.2732
  280MOL0     H38586   4.836   4.448   9.922  1.2208  1.0635 -2.5126
  280MOL0     H38587   5.015   4.612   9.854 -0.5871  2.0310 -0.2673
  280MOL0     H38588   4.945   4.677   9.998 -1.9911 -0.5977 -3.0274
  280MOL0     H38589   5.296   4.628   9.857  6.4867 -0.9204  0.7606
  280MOL0     H38590   5.529   4.490   9.951 -1.2135  0.2048 -0.2378
  280MOL0     H38591   5.562   4.564  10.114 -1.2255 -0.0417  0.6544
  280MOL0     H38592   5.499   4.734   9.859 -2.0996 -2.9490  0.1713
  280MOL0     H38593   5.567   4.791  10.021  1.5418 -0.7195  1.4922
  280MOL0     H38594   5.775   4.690   9.987  3.2952 -2.4667 -2.0857
  280MOL0     H38595   5.712   4.606   9.837 -1.8508 -1.2049  1.6941
  280MOL0     H38596   5.654   4.833   9.749  0.6706 -0.0796  0.0223
  280MOL0     H38597   5.718   4.913   9.886 -2.2338 -1.2222  1.3403
  280MOL0     H38598   5.877   4.868  10.018 -0.1681 -0.0294  0.0661
  280MOL0     H38599   5.967   4.890  10.204 -0.3099 -0.1918 -2.4368
  280MOL0     H38600   6.147   4.922  10.235 -0.1839 -0.9621 -0.4016
  280MOL0     H38601   6.081   4.762  10.251  5.2925 -0.2334 -1.0026
  280MOL0     H38602   6.505   4.497  10.104 -0.3481  1.5408 -4.4621
  280MOL0     H38603   6.686   4.419  10.229 -0.6044 -0.3843 -1.6630
  280MOL0     H38604   6.791   4.608  10.475 -0.6944  2.9043 -2.3317
  280MOL0     H38605   6.942   4.519  10.499  2.3396 -0.5851 -1.6815
  280MOL0     H38606   6.907   4.806  10.420 -0.7500  0.1295  0.6436
  280MOL0     H38607   6.995   4.738  10.565 -0.3376 -0.0043  0.7941
  280MOL0     H38608   7.102   4.740  10.277  0.8577  2.4424  0.3110
  280MOL0     H38609   7.175   4.644  10.396  1.8110  0.3889 -0.9702
  280MOL0     H38610   7.202   4.820  10.556  0.9631  1.7555 -0.1110
  280MOL0     H38611   7.132   4.944  10.460  1.6699  0.7208  1.5627
  280MOL0     H38612   7.386   4.784  10.397 -0.1395  1.0060  0.7884
  280MOL0     H38613   7.305   4.896  10.282 -1.6790  1.6925 -0.0223
  280MOL0     H38614   7.379   5.004  10.552  0.8181 -0.2740  0.9454
  280MOL0     H38615   7.324   5.089  10.402  1.1392 -0.6845 -3.3947
  280MOL0     H38616   7.526   5.036  10.269 -0.3834  2.8931 -0.4864
  280MOL0     H38617   7.578   4.936  10.407 -3.1963 -1.3272 -0.2395
  280MOL0     H38618   7.600   5.123  10.563  0.5988  0.8681  0.2339
  280MOL0     H38619   7.524   5.230  10.454  0.2267  0.2470 -0.9924
  280MOL0     H38620   6.879   4.799  10.188  0.5431  0.1184 -2.2467
  280MOL0     H38621   6.682   4.885  10.044  0.0040  0.6229 -0.0025
  280MOL0     H38622   6.315   4.762   9.816  0.4106 -2.4412  1.1636
  280MOL0     H38623   6.105   4.783   9.669  2.2475  1.5195  0.4300
  280MOL0     H38624   4.742   3.749   9.439  1.1659  0.4594  2.4083
  280MOL0     H38625   4.532   3.745   9.315  1.4740  2.5062  0.2245
  280MOL0     H38626   4.054   3.625   9.458 -1.8556  0.3888  1.9591
  280MOL0     H38627   3.836   3.563   9.371 -0.9802  1.2590 -0.0181
  280MOL0     H38628   3.641   3.682   9.024  1.0375 -0.4347  0.5195
  280MOL0     H38629   3.764   3.587   8.943  0.0402  2.6959  0.9556
  280MOL0     H38630   3.504   3.457   9.073 -1.4929  1.1579 -1.4462
  280MOL0     H38631   3.630   3.371   8.974 -1.4322 -1.8260  1.6496
  280MOL0     H38632   3.417   3.565   8.886  1.6311  1.2705 -2.2821
  280MOL0     H38633   3.545   3.515   8.778 -0.6566  0.6115 -0.5654
  280MOL0     H38634   3.331   3.329   8.898  1.5851 -0.2922  1.9131
  280MOL0     H38635   3.479   3.292   8.803  0.9595  1.5999 -0.4328
  280MOL0     H38636   3.228   3.465   8.506 -2.7648  1.0599  1.6230
  280MOL0     H38637   3.926   3.713   8.976 -1.4769  0.2287  0.1361
  280MOL0     H38638   4.149   3.921   9.047  0.7225  0.1166 -3.9755
  280MOL0     H38639   4.278   3.795   9.061  1.2483  2.0907  0.6428
  280MOL0     H38640   4.161   3.784   8.935  0.3686 -0.6907  0.5093
  281MOL0     O38641  10.956   9.246   6.371 -0.4431  0.0967 -0.1001
  281MOL0     C38642  10.860   9.171   6.369  0.3960 -0.7702 -1.0930
  281MOL0     O38643  10.858   9.033   6.415  0.1912 -0.0559 -0.1041
  281MOL0     C38644  10.969   8.976   6.468 -0.3980 -0.2728  0.6567
  281MOL0     C38645  11.099   9.001   6.431 -0.8070  0.0977  0.5935
  281MOL0     C38646  11.200   8.945   6.515  0.2904  0.7866 -0.2555
  281MOL0     C38647  11.167   8.869   6.630  0.2511 -0.1802  0.2583
  281MOL0     O38648  11.274   8.833   6.700  0.3195  1.0484 -0.0380
  281MOL0     C38649  11.253   8.741   6.810  0.0344  0.4874 -0.0387
  281MOL0     C38650  11.382   8.677   6.848 -0.6510  0.8877 -0.9027
  281MOL0     C38651  11.453   8.603   6.726  0.6480 -0.6148  0.1072
  281MOL0     C38652  11.563   8.510   6.783  0.2416  0.4654  0.5804
  281MOL0     C38653  11.655   8.453   6.675  0.7118 -0.6928  0.6241
  281MOL0     C38654  11.751   8.555   6.626  0.3278  0.0307 -0.7059
  281MOL0     C38655  11.863   8.571   6.719 -0.3757  0.5296 -0.2530
  281MOL0     C38656  11.963   8.676   6.668 -0.2180  0.4279  0.0412
  281MOL0     N38657  12.099   8.642   6.726  0.0388  0.2595  0.0529
  281MOL0     C38658  12.206   8.572   6.670  0.3030 -0.9284  0.1247
  281MOL0     C38659  12.316   8.589   6.746  0.0824 -0.6686  0.3307
  281MOL0     C38660  12.460   8.549   6.719  0.3766 -0.4442 -0.8184
  281MOL0     C38661  12.554   8.667   6.725  0.2444 -0.6826  0.4529
  281MOL0     C38662  12.571   8.735   6.857 -0.8471  0.2590 -0.3524
  281MOL0     C38663  12.671   8.846   6.844 -0.5265  0.8830 -0.1647
  281MOL0     O38664  12.625   8.958   6.766  0.5185  0.3734 -0.0971
  281MOL0     C38665  12.718   9.003   6.681  0.4330 -0.1360 -0.6509
  281MOL0     C38666  12.829   9.080   6.729  0.7309 -0.1113  0.6445
  281MOL0     C38667  12.920   9.139   6.640 -0.5368  0.3600  0.2296
  281MOL0     C38668  13.026   9.228   6.707 -0.6769  0.7638 -0.4330
  281MOL0     C38669  12.903   9.116   6.498  0.0438  0.1604  0.1186
  281MOL0     C38670  12.996   9.169   6.401 -0.1595 -0.3798 -0.7232
  281MOL0     O38671  13.061   9.285   6.430  0.0419 -0.0595 -0.0077
  281MOL0     C38672  13.157   9.326   6.343 -0.0190 -0.7784  0.3216
  281MOL0     C38673  13.121   9.385   6.223  0.3120 -0.5746  0.9301
  281MOL0     C38674  13.223   9.440   6.135 -0.0042  0.4195 -0.4491
  281MOL0     C38675  13.357   9.437   6.171 -0.1349 -0.2937  0.0180
  281MOL0     O38676  13.445   9.491   6.076  0.1977  0.3342  0.3364
  281MOL0     C38677  13.575   9.525   6.120  0.4379 -0.1185  0.3619
  281MOL0     C38678  13.633   9.615   6.011  0.5164  1.1685 -0.0137
  281MOL0     C38679  13.781   9.633   6.025 -0.0887 -0.2404 -0.8997
  281MOL0     C38680  13.821   9.737   5.919 -0.2116  0.3440  0.8090
  281MOL0     C38681  13.965   9.774   5.922 -0.3018  0.4827  0.4697
  281MOL0     C38682  14.020   9.861   5.809  0.3806  0.4252 -0.9650
  281MOL0     C38683  14.159   9.919   5.832  0.0296 -0.4147 -0.0634
  281MOL0     C38684  14.263   9.818   5.884  0.2847 -0.6343  0.8408
  281MOL0    Cl38685  14.419   9.888   5.880 -0.0105 -0.0416  0.2500
  281MOL0     C38686  13.394   9.378   6.292 -0.2121  0.8519  0.8503
  281MOL0     C38687  13.296   9.327   6.375 -0.0778 -1.4524 -0.5367
  281MOL0     O38688  13.017   9.113   6.298  0.5673 -0.4550  0.6477
  281MOL0     C38689  12.797   9.025   6.455 -0.9867 -0.6640  0.0029
  281MOL0     C38690  12.702   8.969   6.545 -0.6216 -0.3899 -0.1607
  281MOL0     N38691  12.263   8.641   6.869  0.8442  0.5816 -0.0226
  281MOL0     N38692  12.138   8.677   6.853  1.0615 -0.3441 -0.3789
  281MOL0     C38693  11.032   8.834   6.657 -0.1580 -0.1219  0.1854
  281MOL0     C38694  10.931   8.893   6.574  0.0436  0.1713 -0.4031
  281MOL0     C38695  10.728   9.230   6.340 -0.1551 -0.3648 -0.6462
  281MOL0     C38696  10.617   9.222   6.428  0.6527 -0.0698  0.0054
  281MOL0     C38697  10.501   9.297   6.415  0.0186 -0.2864  0.7305
  281MOL0     C38698  10.477   9.374   6.306  0.0377  0.4931 -0.0656
  281MOL0     O38699  10.363   9.458   6.310 -0.0583 -0.6839  1.1254
  281MOL0     C38700  10.329   9.500   6.184 -0.0397 -0.0223  0.7048
  281MOL0     C38701  10.192   9.562   6.184  0.3092  0.1823 -0.5530
  281MOL0     C38702  10.166   9.631   6.054  0.2738 -0.2479 -0.0476
  281MOL0     C38703  10.017   9.661   6.037  0.0691  0.3097 -0.1535
  281MOL0     C38704   9.982   9.760   5.936 -0.7421 -0.1683 -0.7468
  281MOL0     C38705   9.957   9.837   5.851  1.2548 -0.0313  0.0316
  281MOL0     C38706  10.574   9.374   6.212 -0.2627  0.5745 -0.2194
  281MOL0     C38707  10.703   9.306   6.228  0.5444  0.4236 -0.3107
  281MOL0     C38708  10.806   9.326   6.113 -0.5937  0.3054 -0.1456
  281MOL0     H38709  11.120   9.059   6.342 -1.2776 -1.0835 -0.3215
  281MOL0     H38710  11.301   8.970   6.484  0.4364 -0.6087 -1.0278
  281MOL0     H38711  11.171   8.670   6.797 -1.2295  1.4684  2.1490
  281MOL0     H38712  11.207   8.800   6.889 -1.1950  1.7775 -1.6450
  281MOL0     H38713  11.448   8.756   6.886 -0.7817 -1.1753  4.5536
  281MOL0     H38714  11.364   8.599   6.923  0.7025  1.7390  0.3618
  281MOL0     H38715  11.384   8.549   6.661  2.2995 -0.4260 -1.9131
  281MOL0     H38716  11.490   8.673   6.651 -0.7179 -0.8991 -0.8679
  281MOL0     H38717  11.626   8.560   6.858  2.6909  0.7723 -1.5284
  281MOL0     H38718  11.520   8.426   6.836  2.1810  0.0638  1.6238
  281MOL0     H38719  11.598   8.425   6.585  2.0953  0.2120 -0.5752
  281MOL0     H38720  11.691   8.355   6.708 -0.1302 -1.2837 -0.1331
  281MOL0     H38721  11.786   8.519   6.530  0.6352 -4.8792  0.9632
  281MOL0     H38722  11.704   8.654   6.618  1.4170  0.9012  2.2404
  281MOL0     H38723  11.911   8.474   6.735 -1.6328 -0.0396  0.2723
  281MOL0     H38724  11.833   8.617   6.814  0.4011 -1.6459  1.1572
  281MOL0     H38725  11.969   8.669   6.559  0.7851 -0.5704  0.1393
  281MOL0     H38726  11.935   8.778   6.695  1.9045  0.2500  3.5904
  281MOL0     H38727  12.191   8.525   6.573 -0.3067  0.3436 -0.4272
  281MOL0     H38728  12.466   8.495   6.625  3.3894 -2.3560  0.3310
  281MOL0     H38729  12.506   8.473   6.783 -0.2432 -1.4826 -1.5686
  281MOL0     H38730  12.650   8.621   6.697 -1.1154 -3.5403  0.1765
  281MOL0     H38731  12.525   8.744   6.653 -0.8691 -1.8831 -0.4155
  281MOL0     H38732  12.475   8.762   6.901 -0.9585 -2.1393  1.0175
  281MOL0     H38733  12.619   8.662   6.922 -1.4433 -0.9642 -1.2350
  281MOL0     H38734  12.686   8.876   6.948  0.6840  1.7818 -0.5695
  281MOL0     H38735  12.766   8.811   6.803 -0.5050 -0.9073  1.3060
  281MOL0     H38736  12.838   9.083   6.837 -0.8539 -2.1517  0.8850
  281MOL0     H38737  13.032   9.212   6.815  0.1309 -0.2212 -0.6081
  281MOL0     H38738  12.997   9.333   6.697 -1.4406  1.0961  3.4841
  281MOL0     H38739  13.120   9.222   6.652 -1.6141  0.9223 -2.1355
  281MOL0     H38740  13.017   9.401   6.196  0.3237  0.5381  1.4816
  281MOL0     H38741  13.193   9.478   6.038  4.7203  0.1998 -2.2498
  281MOL0     H38742  13.572   9.577   6.217 -0.0234  0.5090  0.0196
  281MOL0     H38743  13.639   9.437   6.120  1.7728  0.8202  0.4666
  281MOL0     H38744  13.608   9.579   5.910  0.7954  1.5125 -0.2083
  281MOL0     H38745  13.583   9.711   6.025 -2.5243 -0.5762  2.2644
  281MOL0     H38746  13.833   9.539   6.003 -0.1636  0.1146 -2.8254
  281MOL0     H38747  13.796   9.678   6.123 -1.0900 -0.5735 -0.5768
  281MOL0     H38748  13.764   9.830   5.929  0.3442  0.8027 -0.1337
  281MOL0     H38749  13.809   9.691   5.820  3.2434 -2.9426  1.7116
  281MOL0     H38750  13.994   9.818   6.018  2.1228 -0.0696  0.0622
  281MOL0     H38751  14.017   9.678   5.921 -0.8383  0.1281  2.2763
  281MOL0     H38752  13.949   9.942   5.789 -2.2170 -2.0604 -2.5481
  281MOL0     H38753  14.031   9.801   5.718 -0.8781 -1.9172  0.3453
  281MOL0     H38754  14.159  10.006   5.898 -1.2338 -3.0098  3.6876
  281MOL0     H38755  14.195   9.956   5.736  0.7879 -0.2638  0.2713
  281MOL0     H38756  14.256   9.731   5.817 -3.0967  1.6326 -2.1507
  281MOL0     H38757  14.225   9.779   5.978 -2.2790 -3.8667 -1.2779
  281MOL0     H38758  13.497   9.376   6.326 -0.2128  3.0172  1.1169
  281MOL0     H38759  13.318   9.304   6.479 -0.3682  1.1692  0.1815
  281MOL0     H38760  12.795   8.995   6.351  3.1196  1.6623 -0.9476
  281MOL0     H38761  12.614   8.922   6.501  0.0225 -0.5953 -1.2498
  281MOL0     H38762  10.997   8.775   6.741 -1.7507 -1.8283 -1.5775
  281MOL0     H38763  10.828   8.862   6.591  1.0345 -2.2724  1.6901
  281MOL0     H38764  10.638   9.155   6.511  2.6672 -0.2045 -0.5470
  281MOL0     H38765  10.427   9.291   6.494  0.8997 -1.5295  1.4892
  281MOL0     H38766  10.396   9.577   6.145  1.5817 -1.0086  1.4118
  281MOL0     H38767  10.323   9.418   6.112 -1.6348  1.1012 -0.5311
  281MOL0     H38768  10.181   9.626   6.272  0.6622  1.2043 -1.2297
  281MOL0     H38769  10.122   9.478   6.190  1.4025 -0.7937 -1.0159
  281MOL0     H38770  10.229   9.719   6.036  2.1341 -0.7533  3.1397
  281MOL0     H38771  10.188   9.569   5.967 -2.1482  0.2360 -1.0875
  281MOL0     H38772   9.962   9.692   6.126 -1.0015  0.4871 -0.8578
  281MOL0     H38773   9.976   9.565   6.006  3.5928 -1.7080  0.8827
  281MOL0     H38774   9.948   9.914   5.776 -2.4470 -1.0427 -0.7627
  281MOL0     H38775  10.560   9.443   6.130 -0.4955  0.7138 -0.0635
  281MOL0     H38776  10.872   9.393   6.169 -1.5251 -1.4477  3.3830
  281MOL0     H38777  10.856   9.231   6.093  1.3866  0.9845  1.2511
  281MOL0     H38778  10.761   9.371   6.024 -0.4493  0.0594 -0.3411
  282MOL0     O38779   2.975   1.360   0.002  0.2154 -0.2708  0.0692
  282MOL0     C38780   2.908   1.422  -0.078  0.1758 -0.0921 -0.4920
  282MOL0     O38781   2.955   1.465  -0.197 -0.0759 -0.2442 -0.3956
  282MOL0     C38782   3.072   1.418  -0.270  0.3162  0.6258 -0.3391
  282MOL0     C38783   3.193   1.367  -0.214  0.1613 -0.0812  0.6455
  282MOL0     C38784   3.305   1.334  -0.293  0.1579  0.2923  0.7946
  282MOL0     C38785   3.294   1.353  -0.431 -0.0617 -0.4641  0.5998
  282MOL0     O38786   3.406   1.311  -0.503  1.1502  0.4383 -0.2301
  282MOL0     C38787   3.431   1.365  -0.635  0.0097  0.5672  0.4824
  282MOL0     C38788   3.564   1.319  -0.684 -0.7832  0.6360 -0.9193
  282MOL0     C38789   3.679   1.331  -0.578 -0.2951 -0.6453 -0.4009
  282MOL0     C38790   3.722   1.480  -0.566  0.2702  0.6010 -0.1076
  282MOL0     C38791   3.822   1.501  -0.448 -0.1775  0.1926 -0.4458
  282MOL0     C38792   3.962   1.515  -0.512 -0.1225  0.3733 -0.6430
  282MOL0     C38793   4.060   1.556  -0.403  0.2491 -0.1725  0.2260
  282MOL0     C38794   4.184   1.619  -0.469  0.7654 -0.4746 -1.2728
  282MOL0     N38795   4.286   1.654  -0.371  0.2366  0.2371  0.6230
  282MOL0     C38796   4.359   1.569  -0.290  0.2525 -0.5045  0.7557
  282MOL0     C38797   4.441   1.652  -0.223  1.0096  0.1590  0.2771
  282MOL0     C38798   4.544   1.597  -0.134 -0.5907 -0.2758  1.0523
  282MOL0     C38799   4.695   1.614  -0.187 -0.1937  0.4901 -0.1114
  282MOL0     C38800   4.748   1.756  -0.162 -1.0875 -0.3605  0.1271
  282MOL0     C38801   4.894   1.764  -0.204 -1.1234 -0.1739 -0.2506
  282MOL0     O38802   4.975   1.720  -0.086 -0.1182  0.4279 -0.5691
  282MOL0     C38803   5.113   1.701  -0.099  0.1881  0.1818  0.7735
  282MOL0     C38804   5.202   1.756  -0.194  1.0296 -0.2343 -0.4153
  282MOL0     C38805   5.334   1.754  -0.175 -0.4934 -0.5718 -0.5349
  282MOL0     C38806   5.410   1.844  -0.268 -0.2999 -0.4114  0.2952
  282MOL0     C38807   5.392   1.665  -0.081 -0.1084 -0.6403  0.0962
  282MOL0     C38808   5.540   1.641  -0.064  0.5458 -0.4064  0.5187
  282MOL0     O38809   5.580   1.585   0.049  0.5829  0.7981 -0.9457
  282MOL0     C38810   5.713   1.592   0.080  0.0689 -0.7804 -0.2501
  282MOL0     C38811   5.802   1.503   0.019  0.2600 -0.3451 -0.4659
  282MOL0     C38812   5.929   1.496   0.066 -0.1335  0.1838  0.8615
  282MOL0     C38813   5.974   1.578   0.171  0.1308 -0.0849 -0.4513
  282MOL0     O38814   6.098   1.574   0.224  0.1095 -0.2709  0.5634
  282MOL0     C38815   6.197   1.491   0.162  0.1043 -0.1721 -0.3709
  282MOL0     C38816   6.319   1.523   0.238 -0.3954 -0.1915  0.0900
  282MOL0     C38817   6.432   1.451   0.176 -0.9182  0.2355 -0.1213
  282MOL0     C38818   6.564   1.482   0.245 -0.0167  0.4408 -0.3859
  282MOL0     C38819   6.568   1.402   0.381 -0.1862  0.5518  0.7928
  282MOL0     C38820   6.709   1.389   0.439  0.0625 -0.0521 -0.4158
  282MOL0     C38821   6.741   1.526   0.522 -0.6623  0.4527  0.2430
  282MOL0     C38822   6.886   1.543   0.522 -0.2749 -0.0023 -0.6544
  282MOL0    Cl38823   6.943   1.612   0.366 -0.1086 -0.6150  0.0203
  282MOL0     C38824   5.890   1.674   0.224 -0.1704 -0.0258 -0.0140
  282MOL0     C38825   5.757   1.671   0.189 -1.3675  0.3920 -0.6162
  282MOL0     O38826   5.613   1.673  -0.155 -0.7394  0.6773  0.2471
  282MOL0     C38827   5.301   1.620   0.014 -0.1045  0.0091 -0.0347
  282MOL0     C38828   5.169   1.639   0.006 -0.2609  0.2249  0.4003
  282MOL0     N38829   4.405   1.787  -0.244 -0.5990  0.8046 -0.1563
  282MOL0     N38830   4.312   1.784  -0.325  1.3295 -0.1328  0.1276
  282MOL0     C38831   3.173   1.396  -0.492  0.5064 -0.3031 -0.0050
  282MOL0     C38832   3.064   1.423  -0.407 -0.0301 -0.3112 -0.4886
  282MOL0     C38833   2.767   1.429  -0.046  0.4265  0.5512  0.1420
  282MOL0     C38834   2.707   1.364   0.068  0.6319  0.2902  0.5006
  282MOL0     C38835   2.571   1.368   0.093 -0.3206  0.1433 -0.0413
  282MOL0     C38836   2.483   1.425   0.001 -0.2402 -0.6666  0.1547
  282MOL0     O38837   2.347   1.426   0.009  0.3455  0.2250  0.4077
  282MOL0     C38838   2.305   1.337  -0.094 -0.2786  0.7423  0.3021
  282MOL0     C38839   2.175   1.279  -0.070 -0.1840 -0.6114 -0.3849
  282MOL0     C38840   2.127   1.206  -0.196 -0.4606 -0.2503  0.0210
  282MOL0     C38841   2.046   1.077  -0.176  0.4402  0.8660 -0.0012
  282MOL0     C38842   2.121   0.970  -0.105 -0.8346 -0.3149 -0.3668
  282MOL0     C38843   2.195   0.888  -0.057 -0.8541 -0.2591 -0.0175
  282MOL0     C38844   2.535   1.506  -0.099  0.2351 -0.1166  0.5785
  282MOL0     C38845   2.672   1.499  -0.126 -0.1328 -0.4335  0.4018
  282MOL0     C38846   2.719   1.590  -0.246  0.5141  0.2274  0.4006
  282MOL0     H38847   3.207   1.356  -0.107  0.5194 -1.3975  0.4707
  282MOL0     H38848   3.397   1.306  -0.243  0.1343  2.1990  2.0030
  282MOL0     H38849   3.426   1.474  -0.632 -2.7620  0.5080 -0.2260
  282MOL0     H38850   3.350   1.345  -0.705  0.3393  4.2353 -1.1661
  282MOL0     H38851   3.563   1.216  -0.720  0.9632  0.1978  0.1310
  282MOL0     H38852   3.602   1.377  -0.768  3.0697 -1.2752 -0.7183
  282MOL0     H38853   3.655   1.278  -0.486  1.4859 -0.6335  0.1018
  282MOL0     H38854   3.764   1.275  -0.618 -1.4473 -1.4996 -1.7551
  282MOL0     H38855   3.765   1.509  -0.662 -1.0183 -1.5023 -1.4223
  282MOL0     H38856   3.634   1.543  -0.551 -0.5416 -0.2928 -0.9302
  282MOL0     H38857   3.812   1.437  -0.360  0.3702  0.6191 -0.0703
  282MOL0     H38858   3.796   1.600  -0.411 -2.3140 -0.6404  0.4346
  282MOL0     H38859   3.991   1.414  -0.542 -0.8243 -1.3014  3.6273
  282MOL0     H38860   3.959   1.590  -0.591 -3.3470  0.7288 -0.3266
  282MOL0     H38861   4.090   1.468  -0.346  3.1257 -0.0425 -0.9478
  282MOL0     H38862   4.014   1.628  -0.334 -0.0567  0.9987 -1.1454
  282MOL0     H38863   4.224   1.546  -0.540  0.3584 -1.7764 -0.1951
  282MOL0     H38864   4.160   1.714  -0.518  0.9178  0.0386 -0.3670
  282MOL0     H38865   4.367   1.461  -0.283  0.6667 -0.4022  2.0968
  282MOL0     H38866   4.520   1.494  -0.109  2.1567 -1.1028  0.6528
  282MOL0     H38867   4.532   1.655  -0.042 -0.9626  0.7454  0.3802
  282MOL0     H38868   4.755   1.541  -0.132 -0.9700  0.3365  0.5513
  282MOL0     H38869   4.717   1.575  -0.287 -1.1105 -2.2225  0.6519
  282MOL0     H38870   4.686   1.827  -0.217 -1.3164  0.1091  0.9777
  282MOL0     H38871   4.737   1.780  -0.056  1.4923  1.2315  0.1174
  282MOL0     H38872   4.913   1.702  -0.292 -1.4228 -0.0635 -0.3943
  282MOL0     H38873   4.919   1.869  -0.219  1.8307 -0.2679  2.8773
  282MOL0     H38874   5.171   1.811  -0.282 -2.6458  0.0215  0.8930
  282MOL0     H38875   5.500   1.884  -0.220 -0.4372  0.0906  0.1337
  282MOL0     H38876   5.345   1.922  -0.308  0.8592  0.4793  0.1083
  282MOL0     H38877   5.453   1.787  -0.351  0.8454  1.1307 -0.2046
  282MOL0     H38878   5.765   1.444  -0.064  2.1285  1.4724 -2.7344
  282MOL0     H38879   5.997   1.425   0.019  0.1379 -1.1191  3.0881
  282MOL0     H38880   6.170   1.389   0.189 -1.6805  0.6475  1.2045
  282MOL0     H38881   6.219   1.506   0.056 -0.1869 -0.2517 -0.4448
  282MOL0     H38882   6.326   1.632   0.228 -0.8234 -0.2954 -1.6836
  282MOL0     H38883   6.308   1.491   0.342  1.2349 -0.6781  0.1430
  282MOL0     H38884   6.452   1.485   0.073 -0.4276  0.3916  0.0223
  282MOL0     H38885   6.418   1.343   0.182  2.2598 -0.2725 -0.0600
  282MOL0     H38886   6.570   1.591   0.244 -4.3544  0.8903 -3.2812
  282MOL0     H38887   6.650   1.454   0.184 -0.4614 -0.2388 -0.7067
  282MOL0     H38888   6.493   1.448   0.445  0.2471  3.2406 -0.4842
  282MOL0     H38889   6.552   1.294   0.369  1.0100  0.1323  2.6189
  282MOL0     H38890   6.778   1.379   0.355 -1.9987  0.6088 -2.2691
  282MOL0     H38891   6.720   1.300   0.502  3.4169 -0.2412 -1.0526
  282MOL0     H38892   6.699   1.513   0.622 -1.8579 -1.8741 -0.5045
  282MOL0     H38893   6.688   1.600   0.460 -0.5584 -0.8100 -1.4301
  282MOL0     H38894   6.943   1.452   0.547 -0.5465  0.3135  1.2319
  282MOL0     H38895   6.913   1.622   0.592  0.6902 -0.3198 -0.6398
  282MOL0     H38896   5.925   1.740   0.302 -0.8180  1.5645 -1.0270
  282MOL0     H38897   5.696   1.741   0.244 -0.1969  2.0294 -1.3313
  282MOL0     H38898   5.339   1.561   0.097  0.8967  0.7176  0.0305
  282MOL0     H38899   5.114   1.598   0.090 -2.0656  0.1581 -0.7371
  282MOL0     H38900   3.162   1.397  -0.600 -2.9508 -0.1832  0.2236
  282MOL0     H38901   2.972   1.457  -0.454 -2.1383 -1.0262  2.8055
  282MOL0     H38902   2.776   1.314   0.135  1.6796  1.5752  0.4208
  282MOL0     H38903   2.523   1.318   0.177 -3.8082  0.4530 -1.6413
  282MOL0     H38904   2.294   1.386  -0.192 -2.2695  1.0308  0.6355
  282MOL0     H38905   2.364   1.245  -0.102 -4.3236 -2.1154  0.4683
  282MOL0     H38906   2.118   1.366  -0.039 -1.1517 -0.8597 -1.3904
  282MOL0     H38907   2.186   1.203   0.007 -1.6313 -0.3135  0.1332
  282MOL0     H38908   2.069   1.268  -0.265 -0.3860 -1.4386 -1.1258
  282MOL0     H38909   2.217   1.175  -0.249 -0.7486 -3.1303  1.0265
  282MOL0     H38910   2.032   1.023  -0.270  0.4825  0.9355 -0.0479
  282MOL0     H38911   1.952   1.088  -0.122 -1.2926 -4.4239 -1.3179
  282MOL0     H38912   2.252   0.815  -0.003 -2.3992 -0.8346  0.9058
  282MOL0     H38913   2.465   1.550  -0.168  0.6298  1.0787  0.9180
  282MOL0     H38914   2.645   1.660  -0.285  1.2087  0.6234 -0.2129
  282MOL0     H38915   2.802   1.655  -0.217  1.7592 -1.8912  1.9133
  282MOL0     H38916   2.752   1.530  -0.331 -0.2359 -0.6798  0.7331
  283MOL0     O38917  10.994   8.631   4.848 -0.1554 -0.3133 -0.2152
  283MOL0     C38918  10.995   8.747   4.881  0.3044  0.1273  0.0881
  283MOL0     O38919  11.102   8.831   4.893 -0.3606 -0.1126 -0.2470
  283MOL0     C38920  11.225   8.782   4.856 -0.2318  0.4984  0.5124
  283MOL0     C38921  11.323   8.786   4.955  0.2918  0.1756  0.3736
  283MOL0     C38922  11.452   8.732   4.934  0.5811 -0.8199  0.5544
  283MOL0     C38923  11.484   8.678   4.812  0.9439  0.1141  0.2463
  283MOL0     O38924  11.599   8.629   4.770  0.5519 -0.1191  0.6478
  283MOL0     C38925  11.691   8.559   4.860  0.2825  0.7856  0.7893
  283MOL0     C38926  11.818   8.510   4.783  0.3863  0.6163  0.1524
  283MOL0     C38927  11.923   8.412   4.858 -0.6689 -0.0492  0.2998
  283MOL0     C38928  12.049   8.372   4.772  0.0895  1.3642  0.8269
  283MOL0     C38929  12.005   8.255   4.679 -1.6456  0.2102  0.5555
  283MOL0     C38930  12.012   8.116   4.744  0.1039  0.1100  0.2159
  283MOL0     C38931  12.006   8.003   4.641 -0.0616 -0.7507  0.2671
  283MOL0     C38932  12.062   7.870   4.701 -0.0914 -0.9124  0.0688
  283MOL0     N38933  11.961   7.806   4.778  1.0246  0.5849 -0.6012
  283MOL0     C38934  11.844   7.764   4.726  0.6992 -0.6777 -0.2160
  283MOL0     C38935  11.785   7.689   4.824  0.1666 -0.3819 -0.0829
  283MOL0     C38936  11.670   7.604   4.794  0.2494 -0.3709  0.1717
  283MOL0     C38937  11.545   7.618   4.874  0.1696  0.7941  0.1567
  283MOL0     C38938  11.459   7.741   4.834  0.4871  0.3056 -1.0640
  283MOL0     C38939  11.405   7.749   4.691 -0.5452  0.8307  0.1632
  283MOL0     O38940  11.511   7.788   4.608  0.7602  0.1366  0.2226
  283MOL0     C38941  11.535   7.917   4.571 -0.7345 -0.0868 -0.5588
  283MOL0     C38942  11.488   8.024   4.640 -0.3625  0.6213 -0.8707
  283MOL0     C38943  11.523   8.157   4.592  0.5883  0.1120  0.2020
  283MOL0     C38944  11.491   8.280   4.680  0.8420  0.4842 -0.3269
  283MOL0     C38945  11.601   8.179   4.477  0.2700  0.2152 -0.2742
  283MOL0     C38946  11.623   8.310   4.420 -0.1032 -0.0779 -0.4955
  283MOL0     O38947  11.517   8.395   4.392  0.4926  0.0253 -0.5967
  283MOL0     C38948  11.537   8.532   4.377 -0.4962 -0.0349  0.1103
  283MOL0     C38949  11.451   8.607   4.297  0.7359  0.3745  0.0739
  283MOL0     C38950  11.459   8.746   4.273 -0.3730  0.1071 -0.8613
  283MOL0     C38951  11.563   8.819   4.326 -0.3553  0.6993 -0.1203
  283MOL0     O38952  11.585   8.953   4.315 -0.4342  0.6624  0.3656
  283MOL0     C38953  11.501   9.018   4.214  0.3470 -0.0296 -0.3812
  283MOL0     C38954  11.569   9.157   4.206 -0.3878 -0.3066 -0.6721
  283MOL0     C38955  11.518   9.258   4.107 -0.1503  0.7404 -0.3725
  283MOL0     C38956  11.372   9.304   4.121  0.0335 -0.3496  0.1243
  283MOL0     C38957  11.345   9.414   4.025  0.1674 -0.2272  0.6533
  283MOL0     C38958  11.196   9.404   3.981 -0.0712 -1.0203  0.0455
  283MOL0     C38959  11.148   9.530   3.903  0.6736 -0.8374 -1.0095
  283MOL0     C38960  11.201   9.531   3.761 -0.0822 -0.8895 -0.8119
  283MOL0    Cl38961  11.113   9.415   3.661 -0.3043 -0.1194 -0.6080
  283MOL0     C38962  11.659   8.745   4.400  0.0280  0.2512  0.3236
  283MOL0     C38963  11.642   8.612   4.428  1.1151  1.0977  0.2982
  283MOL0     O38964  11.744   8.335   4.402  0.7356 -0.0810 -0.5575
  283MOL0     C38965  11.656   8.063   4.421 -0.0016  0.6730 -0.0132
  283MOL0     C38966  11.623   7.935   4.468  0.4228 -0.0740  0.0835
  283MOL0     N38967  11.868   7.688   4.942  0.3068  0.6927  0.4839
  283MOL0     N38968  11.978   7.747   4.904  0.0063 -0.0005 -0.3614
  283MOL0     C38969  11.391   8.681   4.708 -0.3948 -0.2478 -0.9786
  283MOL0     C38970  11.264   8.731   4.732  0.0932  0.0624  1.3154
  283MOL0     C38971  10.857   8.803   4.904  0.0916  0.0075  0.6683
  283MOL0     C38972  10.761   8.718   4.959 -0.3110 -0.8422 -0.3750
  283MOL0     C38973  10.630   8.771   4.984 -0.7803  0.7644 -1.2218
  283MOL0     C38974  10.602   8.899   4.966  0.5457  0.1629 -0.2500
  283MOL0     O38975  10.479   8.941   5.008 -0.1312  0.5672  0.0910
  283MOL0     C38976  10.416   9.066   4.962 -0.2268  0.4722 -1.1922
  283MOL0     C38977  10.266   9.054   4.991 -0.4532 -0.2060 -0.1915
  283MOL0     C38978  10.181   9.177   4.955 -0.0686  0.4967 -0.5988
  283MOL0     C38979  10.033   9.163   5.008  0.5806 -0.7497  0.3257
  283MOL0     C38980   9.947   9.283   4.983  0.1679  0.2224  0.5300
  283MOL0     C38981   9.902   9.391   4.975 -0.4718  0.2254 -0.6679
  283MOL0     C38982  10.687   8.981   4.901 -0.5903 -0.0040  0.7585
  283MOL0     C38983  10.820   8.937   4.869 -0.1161  0.4835  0.0573
  283MOL0     C38984  10.914   9.031   4.797 -0.5415  0.3320 -0.3439
  283MOL0     H38985  11.297   8.842   5.045 -1.7362  0.7992 -0.5330
  283MOL0     H38986  11.520   8.733   5.019  0.2426  0.0182  0.8330
  283MOL0     H38987  11.642   8.464   4.885  3.8014 -1.0364  1.3388
  283MOL0     H38988  11.720   8.602   4.956  0.3514 -3.3659  2.8517
  283MOL0     H38989  11.791   8.471   4.685 -3.8091  0.0519  1.3605
  283MOL0     H38990  11.883   8.598   4.770  0.5708  0.2668 -1.4575
  283MOL0     H38991  11.959   8.466   4.947  0.7171 -1.1209  0.4385
  283MOL0     H38992  11.873   8.323   4.896  0.7982 -2.7282 -3.4939
  283MOL0     H38993  12.086   8.457   4.713 -0.5180  1.4892  0.6167
  283MOL0     H38994  12.129   8.330   4.833  0.4203  0.1330 -0.4188
  283MOL0     H38995  12.080   8.247   4.600  0.2589 -0.4806  2.3460
  283MOL0     H38996  11.904   8.270   4.640 -0.3446  3.3172 -2.0898
  283MOL0     H38997  12.099   8.090   4.805 -1.2717 -0.8114  1.8972
  283MOL0     H38998  11.926   8.106   4.811 -0.5123 -0.2430 -0.6051
  283MOL0     H38999  12.076   8.036   4.564 -0.5049  3.0987  1.2987
  283MOL0     H39000  11.904   7.992   4.603  0.2142  0.2844 -0.8332
  283MOL0     H39001  12.087   7.799   4.621 -0.5248 -1.4682  0.4231
  283MOL0     H39002  12.153   7.886   4.759  0.0941 -0.7314 -0.2688
  283MOL0     H39003  11.810   7.783   4.625 -0.5639 -2.2294 -0.1265
  283MOL0     H39004  11.709   7.507   4.828  2.4918  1.4647  3.4276
  283MOL0     H39005  11.655   7.586   4.688  2.1223 -0.7849 -0.0646
  283MOL0     H39006  11.491   7.526   4.851  0.5163  0.6848 -0.2265
  283MOL0     H39007  11.572   7.623   4.980  0.4002  1.8718  0.0602
  283MOL0     H39008  11.375   7.749   4.905  0.1358  2.8722 -1.6466
  283MOL0     H39009  11.502   7.834   4.874 -2.3612  1.1850  0.2486
  283MOL0     H39010  11.355   7.659   4.654 -1.1541  0.9145  0.7501
  283MOL0     H39011  11.330   7.828   4.686 -2.4710 -0.6005  3.5500
  283MOL0     H39012  11.433   7.996   4.729  0.9363  1.1304  0.1295
  283MOL0     H39013  11.409   8.247   4.745  1.3523 -4.7990 -1.8519
  283MOL0     H39014  11.459   8.372   4.631  1.4501  0.0907 -1.5120
  283MOL0     H39015  11.582   8.296   4.738  0.4974 -1.6402  0.9219
  283MOL0     H39016  11.371   8.554   4.246  1.9672 -1.7777  0.2836
  283MOL0     H39017  11.377   8.793   4.220  1.4133  0.3841 -3.5955
  283MOL0     H39018  11.505   8.962   4.120  0.2930 -0.0891 -0.3474
  283MOL0     H39019  11.399   9.025   4.252  0.9546  2.1607  1.0297
  283MOL0     H39020  11.567   9.213   4.301 -0.2997  0.2485 -0.9920
  283MOL0     H39021  11.672   9.142   4.171  0.6388  0.7831  1.6636
  283MOL0     H39022  11.517   9.216   4.006 -1.5206 -0.5356  0.1404
  283MOL0     H39023  11.580   9.349   4.106  0.3634  0.4236  0.8519
  283MOL0     H39024  11.345   9.332   4.223  0.7651  0.4506  0.1148
  283MOL0     H39025  11.302   9.224   4.095 -1.9930  1.2518  0.4181
  283MOL0     H39026  11.396   9.504   4.060 -0.2005  1.3477 -2.5331
  283MOL0     H39027  11.405   9.400   3.934 -0.3948  1.7126 -0.0592
  283MOL0     H39028  11.128   9.389   4.065 -2.2762  2.1973 -1.0065
  283MOL0     H39029  11.198   9.313   3.921  1.3686  0.1188 -1.7479
  283MOL0     H39030  11.190   9.619   3.951 -0.7515 -0.4064 -0.5151
  283MOL0     H39031  11.040   9.524   3.890  0.7220  0.2292 -2.0658
  283MOL0     H39032  11.307   9.504   3.764  0.2767  0.5254  0.4553
  283MOL0     H39033  11.180   9.627   3.713  3.2340 -0.4128 -1.6088
  283MOL0     H39034  11.741   8.803   4.441 -1.6070  3.0777 -0.1615
  283MOL0     H39035  11.713   8.556   4.488  1.1060  0.8661  0.0936
  283MOL0     H39036  11.722   8.053   4.335  0.5677 -0.9398  0.5756
  283MOL0     H39037  11.669   7.848   4.423  0.6333  0.9078 -1.7203
  283MOL0     H39038  11.416   8.658   4.605  0.4045  0.6868 -1.0102
  283MOL0     H39039  11.194   8.725   4.650  1.5171  1.4406 -0.0596
  283MOL0     H39040  10.797   8.618   4.982 -1.2963 -0.9146  0.9789
  283MOL0     H39041  10.548   8.717   5.029 -2.3671  3.1892 -0.9822
  283MOL0     H39042  10.465   9.148   5.015  0.9403  0.2531 -1.9017
  283MOL0     H39043  10.431   9.079   4.855 -0.6162 -0.6442 -1.3953
  283MOL0     H39044  10.259   9.033   5.098 -0.6528  0.9661  0.0447
  283MOL0     H39045  10.227   8.961   4.948 -3.9418  0.4393  1.2702
  283MOL0     H39046  10.223   9.269   4.997 -0.1457  0.2778 -0.0369
  283MOL0     H39047  10.174   9.191   4.847 -3.6649  2.5692 -0.2702
  283MOL0     H39048  10.036   9.142   5.115 -1.9142 -3.3542  0.0048
  283MOL0     H39049   9.994   9.074   4.957 -0.9088  0.4873 -0.8309
  283MOL0     H39050   9.852   9.485   4.961  0.3687  0.5470 -1.7115
  283MOL0     H39051  10.666   9.084   4.875 -1.9691 -0.4659 -0.0440
  283MOL0     H39052  10.975   9.086   4.869 -0.9050  0.4861 -0.1504
  283MOL0     H39053  10.984   8.984   4.727  0.8988  0.8724  0.6833
  283MOL0     H39054  10.863   9.110   4.741 -1.9424 -0.4205 -0.1637
  284MOL0     O39055   8.898   9.777   0.814 -0.0466  0.5335 -0.2367
  284MOL0     C39056   8.791   9.721   0.830  0.0871  0.2489  0.0401
  284MOL0     O39057   8.745   9.628   0.745 -0.7257  0.6655  0.3199
  284MOL0     C39058   8.818   9.588   0.633  1.2267 -0.0485  0.0483
  284MOL0     C39059   8.835   9.675   0.521  0.3778  0.7217 -0.6604
  284MOL0     C39060   8.915   9.631   0.419 -0.6145 -0.1401  0.1713
  284MOL0     C39061   8.967   9.504   0.403  0.0433  0.0390 -0.3988
  284MOL0     O39062   9.011   9.457   0.282  0.2783 -0.1029 -0.6375
  284MOL0     C39063   9.095   9.338   0.276 -0.4582 -0.7822  0.0284
  284MOL0     C39064   9.235   9.377   0.342  0.6340 -0.3419  0.0240
  284MOL0     C39065   9.318   9.266   0.405  0.7038  0.7127 -0.6480
  284MOL0     C39066   9.255   9.157   0.484  0.5745  0.2509  0.0100
  284MOL0     C39067   9.349   9.101   0.591  0.6075 -0.1813 -0.0070
  284MOL0     C39068   9.321   8.960   0.631  0.8052  0.3622 -0.3522
  284MOL0     C39069   9.425   8.869   0.551 -0.3046  1.2317  0.6649
  284MOL0     C39070   9.423   8.715   0.561 -0.9455  0.0825 -0.2624
  284MOL0     N39071   9.292   8.666   0.525  0.3937  0.1471  0.2582
  284MOL0     C39072   9.233   8.644   0.408 -0.1734 -0.5355 -0.1271
  284MOL0     C39073   9.105   8.600   0.425  0.5560  0.0386 -1.0555
  284MOL0     C39074   8.997   8.555   0.329  0.1995 -0.1370 -0.2887
  284MOL0     C39075   9.017   8.595   0.185  0.5810  0.4729  0.7217
  284MOL0     C39076   9.072   8.728   0.148 -0.4911 -0.4886 -0.2818
  284MOL0     C39077   8.998   8.852   0.197  0.3749  0.6028  0.3897
  284MOL0     O39078   9.027   8.920   0.318  0.0656 -0.0914 -0.8324
  284MOL0     C39079   8.927   8.995   0.379  0.3828 -0.5715 -0.5923
  284MOL0     C39080   8.908   8.986   0.518 -0.5595 -0.6188  0.2826
  284MOL0     C39081   8.816   9.071   0.587 -0.3018  0.6796 -0.0647
  284MOL0     C39082   8.825   9.056   0.738 -0.1224 -0.9904  0.7382
  284MOL0     C39083   8.731   9.156   0.518  0.0604  0.2539 -0.1392
  284MOL0     C39084   8.611   9.214   0.581  0.6299 -0.1862  0.0564
  284MOL0     O39085   8.570   9.173   0.700  0.0155  0.6596 -0.1196
  284MOL0     C39086   8.451   9.220   0.752  0.5682  0.2481  0.3270
  284MOL0     C39087   8.438   9.356   0.788 -0.9322  0.3572  0.0408
  284MOL0     C39088   8.318   9.400   0.834 -0.3713 -0.1967  0.3805
  284MOL0     C39089   8.212   9.315   0.857 -0.4374 -0.1747 -0.7715
  284MOL0     O39090   8.105   9.372   0.898  1.4629  0.6799 -0.1160
  284MOL0     C39091   8.034   9.444   0.801  0.3470 -0.5766 -1.0468
  284MOL0     C39092   8.060   9.601   0.816 -0.5933 -0.4427 -0.0263
  284MOL0     C39093   8.022   9.636   0.957  1.0616  0.2927 -0.7346
  284MOL0     C39094   7.862   9.665   0.965 -0.4540  0.3768  0.9121
  284MOL0     C39095   7.834   9.718   1.109  0.0639  0.2650 -0.0817
  284MOL0     C39096   7.849   9.613   1.216 -0.1952 -0.5943 -0.6556
  284MOL0     C39097   7.746   9.500   1.201  0.6953  0.6067 -0.2924
  284MOL0     C39098   7.817   9.366   1.225 -0.1664 -0.1687  0.4887
  284MOL0    Cl39099   7.884   9.361   1.380  0.5446  0.0025 -0.4374
  284MOL0     C39100   8.227   9.174   0.826 -0.6523  0.1774  0.1751
  284MOL0     C39101   8.345   9.127   0.779 -0.4163 -0.3411 -0.2709
  284MOL0     O39102   8.561   9.308   0.518  0.3451  0.2872 -0.3911
  284MOL0     C39103   8.752   9.170   0.380  0.2667  0.8448  0.2159
  284MOL0     C39104   8.851   9.093   0.315 -0.0289  0.8306  1.3872
  284MOL0     N39105   9.095   8.587   0.560  0.4961  0.0664 -0.5141
  284MOL0     N39106   9.203   8.627   0.614  0.2139 -0.2042  0.2120
  284MOL0     C39107   8.952   9.424   0.521 -0.0394 -0.4145 -0.2729
  284MOL0     C39108   8.877   9.464   0.636 -0.1098 -0.1181 -0.3378
  284MOL0     C39109   8.720   9.742   0.951 -0.2983  0.1020 -0.3870
  284MOL0     C39110   8.637   9.635   1.008 -0.6775  0.4305  0.1779
  284MOL0     C39111   8.562   9.656   1.131 -0.6363 -0.3857  0.0365
  284MOL0     C39112   8.587   9.775   1.203 -0.2066  0.0644 -0.2192
  284MOL0     O39113   8.533   9.804   1.324  0.1025  0.4151 -0.7289
  284MOL0     C39114   8.448   9.713   1.397 -0.1973  0.9877  0.1237
  284MOL0     C39115   8.310   9.746   1.351  0.6586  0.4610  0.6929
  284MOL0     C39116   8.274   9.894   1.324  0.0252 -0.3369  0.1578
  284MOL0     C39117   8.295   9.979   1.439 -0.5513 -0.3353  0.5072
  284MOL0     C39118   8.194   9.966   1.537 -0.9069 -0.4172  0.4082
  284MOL0     C39119   8.099   9.963   1.621  0.4244 -0.1962 -0.0144
  284MOL0     C39120   8.664   9.874   1.158 -0.7618 -0.7476  0.0086
  284MOL0     C39121   8.734   9.860   1.032 -0.4126  0.2618 -0.1177
  284MOL0     C39122   8.801   9.980   0.977  0.0690  1.1169 -1.0092
  284MOL0     H39123   8.770   9.761   0.514 -0.3931  0.1692 -0.4041
  284MOL0     H39124   8.915   9.686   0.325 -1.0714 -1.5380 -0.6820
  284MOL0     H39125   9.114   9.298   0.176  2.4447  1.1458 -0.3125
  284MOL0     H39126   9.043   9.254   0.322  1.0607 -2.5693 -1.3779
  284MOL0     H39127   9.301   9.417   0.264  0.9450 -3.6025 -1.5670
  284MOL0     H39128   9.227   9.457   0.416  0.6654  0.0810 -0.4238
  284MOL0     H39129   9.391   9.222   0.337 -0.0848  0.8234 -1.5867
  284MOL0     H39130   9.377   9.327   0.474 -0.9263  2.1549 -0.4884
  284MOL0     H39131   9.167   9.198   0.533 -1.7311 -2.8773 -1.1767
  284MOL0     H39132   9.226   9.077   0.415  0.5046 -0.3969  0.7762
  284MOL0     H39133   9.345   9.160   0.683  3.7251 -0.4244  0.3850
  284MOL0     H39134   9.451   9.105   0.554  0.0216 -0.0105 -1.6793
  284MOL0     H39135   9.346   8.944   0.737  7.1681  2.1252 -1.1533
  284MOL0     H39136   9.222   8.928   0.599  1.2864 -1.7890  0.1291
  284MOL0     H39137   9.524   8.908   0.576 -0.2712  2.3194 -1.0062
  284MOL0     H39138   9.423   8.880   0.442  2.8803 -2.1888  0.0455
  284MOL0     H39139   9.498   8.669   0.497 -0.3055  0.5452  0.1478
  284MOL0     H39140   9.446   8.690   0.665 -0.7472 -0.9244 -0.5406
  284MOL0     H39141   9.289   8.665   0.318  1.1518 -0.6726  0.6466
  284MOL0     H39142   8.903   8.595   0.369 -0.0831 -2.2323  1.2898
  284MOL0     H39143   8.976   8.448   0.328 -0.6210  0.0113  0.3390
  284MOL0     H39144   9.086   8.520   0.145  0.5436  0.7930  0.0487
  284MOL0     H39145   8.917   8.585   0.143 -0.3707  1.5818  2.5717
  284MOL0     H39146   9.178   8.744   0.171 -0.7486  0.4772  0.2810
  284MOL0     H39147   9.066   8.735   0.039 -1.5257  3.5585 -0.1296
  284MOL0     H39148   9.014   8.915   0.109  0.7362 -0.2610 -0.1722
  284MOL0     H39149   8.893   8.819   0.201  0.0803  1.6179  2.0550
  284MOL0     H39150   8.967   8.926   0.587 -1.7391 -2.8839 -0.5548
  284MOL0     H39151   8.771   8.965   0.766 -1.8559  0.7336  3.4945
  284MOL0     H39152   8.779   9.139   0.792 -3.7848 -3.4192  1.7480
  284MOL0     H39153   8.930   9.043   0.766 -0.1197 -1.9575  0.3246
  284MOL0     H39154   8.514   9.434   0.782  0.2421 -0.6596  0.9908
  284MOL0     H39155   8.315   9.508   0.843  3.4261  0.3281 -2.3597
  284MOL0     H39156   8.052   9.402   0.702  1.1375 -1.5697 -0.5075
  284MOL0     H39157   7.929   9.428   0.824  0.5251 -1.6716 -0.9425
  284MOL0     H39158   8.163   9.629   0.793 -0.2917  0.0578  1.7125
  284MOL0     H39159   7.995   9.654   0.746  2.1376  0.5277 -2.0048
  284MOL0     H39160   8.076   9.728   0.983 -0.8005  0.4037  3.6588
  284MOL0     H39161   8.056   9.560   1.028 -1.7092  0.8269  1.3614
  284MOL0     H39162   7.815   9.568   0.948  3.7300 -1.9357  1.3455
  284MOL0     H39163   7.829   9.739   0.891 -2.0424 -0.3210  0.8827
  284MOL0     H39164   7.900   9.804   1.130  0.1659 -0.3369  2.3956
  284MOL0     H39165   7.731   9.754   1.100 -0.6545 -2.2086 -3.5928
  284MOL0     H39166   7.839   9.658   1.315 -0.4587  0.0704 -0.9774
  284MOL0     H39167   7.953   9.578   1.215 -1.0559 -3.4468 -1.4304
  284MOL0     H39168   7.707   9.493   1.098  1.4230  0.1551 -0.5483
  284MOL0     H39169   7.665   9.505   1.274  0.7024 -0.6207 -0.1775
  284MOL0     H39170   7.894   9.349   1.149 -1.6530 -0.1529 -1.0876
  284MOL0     H39171   7.751   9.278   1.221  1.6594 -1.6042  0.7817
  284MOL0     H39172   8.144   9.106   0.838 -1.2117  1.1945  2.3868
  284MOL0     H39173   8.348   9.025   0.740 -0.6927 -0.2162 -0.6203
  284MOL0     H39174   8.673   9.227   0.333  0.4166  0.8101 -0.0859
  284MOL0     H39175   8.852   9.108   0.207 -2.2830  3.1593  1.5892
  284MOL0     H39176   8.984   9.320   0.527  1.4448 -0.2931 -3.7450
  284MOL0     H39177   8.876   9.403   0.726 -0.6045  1.1445  0.5436
  284MOL0     H39178   8.622   9.542   0.954  1.5778  0.2584 -0.2608
  284MOL0     H39179   8.502   9.577   1.174 -2.5057  1.7345  1.5743
  284MOL0     H39180   8.474   9.608   1.378  1.1849  1.4614 -0.7493
  284MOL0     H39181   8.454   9.743   1.502 -0.1812  0.9739  0.1266
  284MOL0     H39182   8.235   9.706   1.420 -0.8725 -0.4791 -1.3872
  284MOL0     H39183   8.292   9.685   1.261  0.9984 -0.4272  1.2063
  284MOL0     H39184   8.335   9.928   1.240 -1.0450  1.2946  0.0101
  284MOL0     H39185   8.173   9.892   1.283  0.2950  1.9464 -0.7741
  284MOL0     H39186   8.292  10.084   1.406 -3.3260 -0.7581 -0.9273
  284MOL0     H39187   8.391   9.951   1.482 -0.5717  0.3705  1.0415
  284MOL0     H39188   8.023   9.960   1.696 -1.0353  0.6674 -1.4219
  284MOL0     H39189   8.658   9.970   1.208 -1.3674 -0.2739 -0.9248
  284MOL0     H39190   8.909   9.967   0.972  0.1794  0.5894  1.2778
  284MOL0     H39191   8.754  10.022   0.887 -1.2489  1.4112 -0.2261
  284MOL0     H39192   8.788  10.054   1.058 -1.2672  0.5176 -0.6447
  285MOL0     O39193   0.378   4.113   5.553 -0.6975 -0.6841 -0.2791
  285MOL0     C39194   0.406   4.208   5.485  0.4841  0.5717 -0.9900
  285MOL0     O39195   0.533   4.244   5.451  0.5538 -0.5620  0.4860
  285MOL0     C39196   0.642   4.184   5.503  1.2597 -0.4506 -0.3132
  285MOL0     C39197   0.750   4.190   5.421 -0.3729  0.6289  0.2679
  285MOL0     C39198   0.872   4.142   5.464  0.1256 -0.1798  0.4646
  285MOL0     C39199   0.891   4.115   5.597 -0.1373  0.1815  0.4563
  285MOL0     O39200   1.005   4.055   5.619  0.0832  0.7061 -0.2612
  285MOL0     C39201   1.047   4.027   5.753 -0.1918 -1.1011  0.3975
  285MOL0     C39202   1.149   4.132   5.789 -0.4563  0.5848  0.1190
  285MOL0     C39203   1.227   4.085   5.906 -0.2818 -0.2485 -0.9226
  285MOL0     C39204   1.334   4.188   5.958  0.2845 -0.0867 -0.2276
  285MOL0     C39205   1.480   4.144   5.949  0.3422  0.9010  0.2393
  285MOL0     C39206   1.536   4.147   5.807 -0.2538  0.1340  0.1569
  285MOL0     C39207   1.677   4.089   5.805 -0.0733 -0.6150 -0.5877
  285MOL0     C39208   1.699   3.939   5.816  0.5738 -0.0811  0.6088
  285MOL0     N39209   1.801   3.902   5.713 -0.1421  0.1795 -0.4412
  285MOL0     C39210   1.764   3.887   5.581 -0.7600  0.5403 -0.2040
  285MOL0     C39211   1.890   3.866   5.522 -0.0257 -1.0318 -0.0934
  285MOL0     C39212   1.911   3.876   5.371  0.5621 -0.9339 -0.1865
  285MOL0     C39213   2.036   3.947   5.319 -0.3129  0.7084  0.5728
  285MOL0     C39214   2.171   3.874   5.346 -0.3334 -0.1934  0.4269
  285MOL0     C39215   2.292   3.955   5.287 -0.8670  0.0569  0.4033
  285MOL0     O39216   2.416   3.921   5.355 -0.8865 -0.4096  0.2008
  285MOL0     C39217   2.526   3.881   5.283  0.4600  0.0133  0.1566
  285MOL0     C39218   2.521   3.798   5.177 -0.9747  1.1334  0.1173
  285MOL0     C39219   2.639   3.753   5.109  0.1843 -0.4107 -0.2495
  285MOL0     C39220   2.609   3.657   5.001  0.2890 -0.2658 -0.0854
  285MOL0     C39221   2.765   3.812   5.145 -0.3975  0.4419  0.0409
  285MOL0     C39222   2.887   3.779   5.071 -0.2114  1.0339  0.4683
  285MOL0     O39223   2.875   3.742   4.937 -0.1336  0.2738 -0.2274
  285MOL0     C39224   2.990   3.707   4.864 -0.4182 -0.4017 -0.7263
  285MOL0     C39225   2.976   3.698   4.735  0.4865 -0.2604  0.3450
  285MOL0     C39226   3.070   3.633   4.658  0.2874 -0.4678  0.5052
  285MOL0     C39227   3.196   3.579   4.703  0.5832 -0.1307 -0.2417
  285MOL0     O39228   3.283   3.522   4.615  0.5542  0.0571  0.2876
  285MOL0     C39229   3.375   3.422   4.665 -0.3029 -0.2440 -0.4816
  285MOL0     C39230   3.370   3.310   4.558 -0.1908 -0.0780  0.1943
  285MOL0     C39231   3.470   3.191   4.566  0.4534  1.2009  0.4495
  285MOL0     C39232   3.615   3.232   4.595  0.4932  0.7919  0.2662
  285MOL0     C39233   3.705   3.106   4.580  0.4676 -0.7590  0.3100
  285MOL0     C39234   3.735   3.043   4.713  0.0687 -0.3528  0.3074
  285MOL0     C39235   3.802   2.906   4.708 -0.0628  0.4115  0.3346
  285MOL0     C39236   3.934   2.900   4.634  0.1618  0.7302  0.0586
  285MOL0    Cl39237   4.047   3.036   4.681  0.2783 -0.0235 -0.1447
  285MOL0     C39238   3.218   3.598   4.830 -0.0685 -0.3386 -0.2281
  285MOL0     C39239   3.114   3.652   4.911  0.0308  0.5638  0.4817
  285MOL0     O39240   2.994   3.794   5.128  0.5204  0.6968 -0.4534
  285MOL0     C39241   2.766   3.902   5.250 -0.1226 -0.1936 -0.7150
  285MOL0     C39242   2.645   3.941   5.314  0.8815  0.2356 -0.6144
  285MOL0     N39243   1.988   3.873   5.616 -0.0311  0.3515 -0.0509
  285MOL0     N39244   1.933   3.887   5.733  0.3733 -0.0099  0.0996
  285MOL0     C39245   0.785   4.116   5.689  1.3155 -0.3589  0.3832
  285MOL0     C39246   0.658   4.154   5.641  0.3239 -0.0585 -0.2483
  285MOL0     C39247   0.286   4.299   5.476  0.3627 -0.0952 -0.7364
  285MOL0     C39248   0.282   4.426   5.549  0.1075  1.0761 -0.7922
  285MOL0     C39249   0.164   4.506   5.528  0.0103  0.2207  0.2731
  285MOL0     C39250   0.061   4.458   5.450  0.6599  0.2558 -0.5314
  285MOL0     O39251  -0.050   4.535   5.444  0.2375 -0.1940 -0.0101
  285MOL0     C39252  -0.168   4.467   5.471  0.3076  0.2758 -0.0056
  285MOL0     C39253  -0.290   4.539   5.517  0.3214  0.9199  0.5891
  285MOL0     C39254  -0.276   4.583   5.657  0.5445 -0.1017 -0.7408
  285MOL0     C39255  -0.333   4.724   5.697  0.1764  0.2612 -1.4328
  285MOL0     C39256  -0.246   4.824   5.641  0.5682 -0.8083 -0.2073
  285MOL0     C39257  -0.185   4.916   5.578  0.8945 -0.3756 -0.1885
  285MOL0     C39258   0.076   4.341   5.386  0.2964  0.8972  0.5007
  285MOL0     C39259   0.184   4.261   5.393 -0.8915 -0.5481  0.0745
  285MOL0     C39260   0.187   4.143   5.307 -0.3652 -0.0826 -0.1255
  285MOL0     H39261   0.727   4.222   5.320 -1.0559 -2.4748 -0.6714
  285MOL0     H39262   0.955   4.130   5.395  0.6704 -0.9273  1.2315
  285MOL0     H39263   1.093   3.928   5.748 -0.6941 -1.2801 -1.6550
  285MOL0     H39264   0.968   4.020   5.828 -0.2628  0.9722  0.5617
  285MOL0     H39265   1.216   4.154   5.705 -1.0383 -1.7190 -1.0415
  285MOL0     H39266   1.083   4.219   5.803 -2.9311 -0.1346 -4.8038
  285MOL0     H39267   1.160   4.073   5.991 -2.6268  2.1078 -2.3120
  285MOL0     H39268   1.275   3.990   5.881 -1.3740 -1.6705  1.9633
  285MOL0     H39269   1.329   4.269   5.886  1.2581 -0.3254 -0.5842
  285MOL0     H39270   1.311   4.223   6.059  1.8541 -1.5939  0.7042
  285MOL0     H39271   1.486   4.042   5.987  0.4283 -0.1514 -2.4071
  285MOL0     H39272   1.537   4.208   6.018  1.3614 -0.6512  0.8951
  285MOL0     H39273   1.472   4.097   5.734 -2.0443  1.7161  0.5718
  285MOL0     H39274   1.543   4.249   5.767 -2.3605  0.6402  0.9876
  285MOL0     H39275   1.734   4.141   5.881 -1.1151 -2.0792  1.3107
  285MOL0     H39276   1.720   4.128   5.713  2.6287  2.6807  1.8274
  285MOL0     H39277   1.725   3.908   5.917 -1.3306 -1.6798  0.6740
  285MOL0     H39278   1.606   3.887   5.787  0.3268  0.1532  0.9853
  285MOL0     H39279   1.672   3.883   5.524 -0.6204 -0.9935 -0.3654
  285MOL0     H39280   1.826   3.931   5.330  2.3807  3.7654  1.6145
  285MOL0     H39281   1.904   3.775   5.332 -1.1151 -2.1235  2.8353
  285MOL0     H39282   2.026   3.965   5.211 -2.7857 -0.2048  0.5793
  285MOL0     H39283   2.047   4.041   5.374  2.0892  0.6018  0.3697
  285MOL0     H39284   2.201   3.855   5.449  3.5419  2.7275  0.0919
  285MOL0     H39285   2.167   3.781   5.289 -3.4261 -0.1188  0.3907
  285MOL0     H39286   2.299   3.940   5.179 -2.1934 -0.2511  0.3397
  285MOL0     H39287   2.265   4.059   5.309 -0.9888  0.6175 -2.1111
  285MOL0     H39288   2.421   3.764   5.156 -1.9226  2.5085  2.0777
  285MOL0     H39289   2.700   3.597   4.993  3.0098  3.1814  2.1751
  285MOL0     H39290   2.584   3.702   4.905 -2.8595  3.0267  2.0160
  285MOL0     H39291   2.515   3.602   5.018 -0.5007  0.6299 -1.3529
  285MOL0     H39292   2.881   3.738   4.701  1.2568  1.0077 -0.4212
  285MOL0     H39293   3.045   3.631   4.552 -1.6291  2.1487  0.8200
  285MOL0     H39294   3.474   3.463   4.685 -0.7782  0.8993 -0.3873
  285MOL0     H39295   3.345   3.392   4.767  3.9989 -2.5111  0.3527
  285MOL0     H39296   3.266   3.275   4.561 -0.2699  0.0977 -0.3321
  285MOL0     H39297   3.379   3.355   4.458 -1.0921 -1.8141 -0.7083
  285MOL0     H39298   3.460   3.131   4.476 -0.2112 -0.1394  1.3918
  285MOL0     H39299   3.433   3.121   4.641  0.4803  0.4107 -0.2548
  285MOL0     H39300   3.632   3.282   4.691  1.6353  3.7299 -1.3361
  285MOL0     H39301   3.640   3.305   4.517  2.2649 -0.2306 -0.1783
  285MOL0     H39302   3.651   3.034   4.519 -1.4951 -1.5976  2.8422
  285MOL0     H39303   3.796   3.133   4.526 -0.0228 -0.0803 -0.1966
  285MOL0     H39304   3.634   3.030   4.754  0.0253 -1.5973 -0.1644
  285MOL0     H39305   3.791   3.113   4.776 -2.5158  0.5848  1.7250
  285MOL0     H39306   3.735   2.837   4.656 -1.2956  1.8588 -0.0846
  285MOL0     H39307   3.826   2.878   4.811 -3.6135  0.1622  1.2014
  285MOL0     H39308   3.914   2.899   4.527  0.1579 -0.0495  0.0599
  285MOL0     H39309   3.984   2.806   4.661 -1.1534 -0.3949 -1.2415
  285MOL0     H39310   3.311   3.558   4.869  1.7164  0.5028 -3.2826
  285MOL0     H39311   3.134   3.647   5.018  3.2313 -2.3287 -0.0625
  285MOL0     H39312   2.858   3.941   5.293  0.2037  1.2788 -2.6178
  285MOL0     H39313   2.644   4.007   5.400  2.3585 -1.5478  0.8621
  285MOL0     H39314   0.792   4.096   5.796 -0.2845 -1.9848  0.2260
  285MOL0     H39315   0.576   4.153   5.711  2.8261 -4.5532  3.1951
  285MOL0     H39316   0.365   4.454   5.613  1.5628 -1.7105 -1.3278
  285MOL0     H39317   0.146   4.603   5.573 -0.9493 -0.2253  0.9089
  285MOL0     H39318  -0.195   4.422   5.375  0.7182 -1.8035  0.7958
  285MOL0     H39319  -0.139   4.389   5.542  0.8392 -0.6814 -1.2427
  285MOL0     H39320  -0.373   4.468   5.506  1.1316  0.0927 -0.3363
  285MOL0     H39321  -0.308   4.622   5.448  3.2841  3.2889  2.4584
  285MOL0     H39322  -0.323   4.515   5.729  0.4160  0.5729 -0.1689
  285MOL0     H39323  -0.170   4.577   5.682  1.0791  3.5776 -1.6029
  285MOL0     H39324  -0.326   4.722   5.806  0.2294  0.9131 -1.4211
  285MOL0     H39325  -0.433   4.728   5.654 -0.5564 -1.0410  0.0809
  285MOL0     H39326  -0.139   4.998   5.526  2.0792 -1.0744 -0.2758
  285MOL0     H39327  -0.014   4.307   5.335  0.7516  1.2095 -0.5413
  285MOL0     H39328   0.086   4.101   5.312  0.3736 -1.8027  1.7835
  285MOL0     H39329   0.221   4.175   5.208 -1.4218  0.9316 -0.1863
  285MOL0     H39330   0.246   4.060   5.348  0.8688  0.8341 -0.0075
  286MOL0     O39331   0.093   5.295   0.458 -0.5559 -0.3989 -0.4232
  286MOL0     C39332   0.061   5.279   0.574 -0.9479 -0.0072 -0.2651
  286MOL0     O39333   0.021   5.369   0.670 -0.3196  0.4482 -0.4489
  286MOL0     C39334   0.035   5.506   0.652  0.3792 -0.3867 -0.8180
  286MOL0     C39335   0.002   5.573   0.539 -0.3529 -0.1347  0.0079
  286MOL0     C39336   0.002   5.717   0.540  0.8530  0.2261 -0.1336
  286MOL0     C39337   0.030   5.782   0.658 -0.6623 -0.6663  0.3072
  286MOL0     O39338   0.035   5.921   0.668 -0.1816  0.1436  0.1754
  286MOL0     C39339  -0.027   5.990   0.560  0.3975  0.1339  0.0671
  286MOL0     C39340  -0.031   6.135   0.610  0.5367 -0.5563  0.0019
  286MOL0     C39341  -0.153   6.169   0.701 -0.3671  0.2688  0.3750
  286MOL0     C39342  -0.254   6.253   0.625  0.5971 -0.0085  0.2569
  286MOL0     C39343  -0.383   6.250   0.705  0.8185  0.3424 -0.4329
  286MOL0     C39344  -0.513   6.312   0.636  0.8070  0.1029 -0.3000
  286MOL0     C39345  -0.624   6.320   0.740 -0.7373  0.2931 -0.7063
  286MOL0     C39346  -0.743   6.405   0.677  0.5737  0.3608 -0.2252
  286MOL0     N39347  -0.860   6.413   0.764 -0.7439 -0.6260  0.5328
  286MOL0     C39348  -0.848   6.444   0.896  0.4513  0.6442  0.4418
  286MOL0     C39349  -0.971   6.433   0.937 -0.0677 -0.1540 -0.3198
  286MOL0     C39350  -1.015   6.442   1.081  0.3273  1.0375 -0.1571
  286MOL0     C39351  -1.084   6.576   1.120 -0.1405 -1.1392  0.6952
  286MOL0     C39352  -0.990   6.704   1.138  0.5147 -0.0337 -0.2573
  286MOL0     C39353  -0.869   6.674   1.224  0.4892 -0.2631 -0.6769
  286MOL0     O39354  -0.763   6.598   1.166  0.2354 -0.4064 -0.3523
  286MOL0     C39355  -0.645   6.591   1.241 -0.7525  0.5504  0.3548
  286MOL0     C39356  -0.549   6.509   1.177 -0.4366  0.6947 -0.9566
  286MOL0     C39357  -0.416   6.506   1.238 -0.7107  0.1570  0.4832
  286MOL0     C39358  -0.321   6.422   1.165  0.5714 -0.5213 -0.7392
  286MOL0     C39359  -0.389   6.561   1.369 -0.3848  0.4639  0.2503
  286MOL0     C39360  -0.255   6.572   1.435 -0.5147  0.0970 -0.9105
  286MOL0     O39361  -0.258   6.658   1.540 -0.8093  0.0088 -0.5664
  286MOL0     C39362  -0.143   6.701   1.599 -0.0591  0.5045 -0.1685
  286MOL0     C39363  -0.063   6.611   1.662  0.4393 -0.5044 -1.1144
  286MOL0     C39364   0.056   6.664   1.727  1.0690 -0.2350  0.5086
  286MOL0     C39365   0.088   6.796   1.735  0.6502 -0.3860  0.0674
  286MOL0     O39366   0.209   6.828   1.794  0.6650  0.0430  0.2581
  286MOL0     C39367   0.195   6.939   1.892 -0.2363 -0.3806 -0.3037
  286MOL0     C39368   0.242   6.888   2.035 -0.7407 -0.4899  0.0258
  286MOL0     C39369   0.394   6.863   2.035  0.4238  0.2688  0.0326
  286MOL0     C39370   0.476   6.993   2.039  0.2079  0.1567  0.0554
  286MOL0     C39371   0.623   6.952   2.015  0.0737  0.6041  0.3762
  286MOL0     C39372   0.708   7.071   2.022  0.2199  0.2508 -0.2288
  286MOL0     C39373   0.850   7.026   1.967  0.8088 -0.6809 -0.3941
  286MOL0     C39374   0.967   7.119   2.018  0.7109  0.5840 -0.2568
  286MOL0    Cl39375   0.949   7.271   1.927 -0.0526 -0.2021  0.1615
  286MOL0     C39376   0.003   6.884   1.667 -0.0905  0.2923  0.5435
  286MOL0     C39377  -0.113   6.832   1.598 -0.0126 -1.1770  0.2370
  286MOL0     O39378  -0.156   6.514   1.389 -0.3033  0.1823  0.2617
  286MOL0     C39379  -0.499   6.632   1.432  0.6312 -0.3435  0.6772
  286MOL0     C39380  -0.622   6.656   1.361  0.8074 -0.8183 -0.1007
  286MOL0     N39381  -1.054   6.406   0.829  0.8697 -0.1847 -0.5145
  286MOL0     N39382  -0.982   6.390   0.728 -0.0757  0.5870 -0.0294
  286MOL0     C39383   0.053   5.711   0.776  0.6262  0.9331  0.2615
  286MOL0     C39384   0.055   5.577   0.767 -0.0750 -0.5324 -0.0875
  286MOL0     C39385   0.075   5.139   0.613  0.1453  0.2842 -0.7314
  286MOL0     C39386   0.021   5.029   0.535  0.8750 -0.5401 -0.5540
  286MOL0     C39387   0.033   4.893   0.586 -0.8311 -0.4713 -0.5122
  286MOL0     C39388   0.097   4.865   0.714 -1.5432  0.5290 -0.1329
  286MOL0     O39389   0.103   4.731   0.749  0.3605  0.4479 -0.6935
  286MOL0     C39390   0.191   4.698   0.855 -0.2275 -0.0296  1.0280
  286MOL0     C39391   0.202   4.538   0.865  0.7897 -0.5552  0.1318
  286MOL0     C39392   0.306   4.469   0.795  0.0579 -0.1834  0.1358
  286MOL0     C39393   0.311   4.316   0.811  0.0445 -0.0782 -0.3841
  286MOL0     C39394   0.421   4.252   0.742  0.7805  0.4823  0.0153
  286MOL0     C39395   0.504   4.201   0.666  0.6311 -0.5160 -0.5564
  286MOL0     C39396   0.160   4.972   0.774  0.4474 -0.3319 -0.2115
  286MOL0     C39397   0.152   5.104   0.729 -0.5549 -0.4398 -0.5509
  286MOL0     C39398   0.235   5.214   0.798 -0.2441 -0.5990 -0.1329
  286MOL0     H39399  -0.039   5.533   0.447 -0.4322  0.4839 -0.2338
  286MOL0     H39400  -0.013   5.758   0.441 -1.2024 -1.3850 -0.5492
  286MOL0     H39401  -0.131   5.959   0.551  0.5330 -0.6988  1.1384
  286MOL0     H39402   0.019   5.983   0.461 -0.7420  0.9740 -0.5548
  286MOL0     H39403   0.052   6.169   0.672 -1.9620  2.9073  1.7683
  286MOL0     H39404  -0.027   6.201   0.523  1.2346 -0.6478 -0.0365
  286MOL0     H39405  -0.193   6.085   0.758  0.3665 -0.1990  0.2106
  286MOL0     H39406  -0.115   6.232   0.782  2.0029 -1.5164  0.7571
  286MOL0     H39407  -0.206   6.352   0.624  1.0097 -0.1920  1.3033
  286MOL0     H39408  -0.263   6.220   0.521  3.9108 -0.3425 -0.0325
  286MOL0     H39409  -0.366   6.297   0.803  3.2797  4.6445 -2.5954
  286MOL0     H39410  -0.397   6.143   0.720  0.7759  0.3600 -0.3436
  286MOL0     H39411  -0.499   6.413   0.597  0.9740  0.6812  1.2221
  286MOL0     H39412  -0.553   6.253   0.552 -1.6244 -0.5743  1.2343
  286MOL0     H39413  -0.589   6.383   0.823  1.0860  0.6923 -1.7170
  286MOL0     H39414  -0.641   6.222   0.785  0.0324  0.9096  1.0299
  286MOL0     H39415  -0.707   6.499   0.637 -1.5925  0.4287 -2.2232
  286MOL0     H39416  -0.783   6.349   0.592  0.3220  1.2489 -0.6926
  286MOL0     H39417  -0.761   6.462   0.959 -1.0266  1.0168  2.4939
  286MOL0     H39418  -0.940   6.416   1.156 -1.8461  2.8261  2.8813
  286MOL0     H39419  -1.094   6.367   1.094 -0.5134  2.0956  1.1000
  286MOL0     H39420  -1.154   6.604   1.041 -1.7141  0.0138  2.4216
  286MOL0     H39421  -1.144   6.556   1.209  0.2376  1.9545  1.7760
  286MOL0     H39422  -0.964   6.753   1.044  2.4484  2.0662  1.2727
  286MOL0     H39423  -1.040   6.786   1.191 -1.5734  1.4149 -4.0620
  286MOL0     H39424  -0.830   6.770   1.259 -0.7307 -0.3780  1.1385
  286MOL0     H39425  -0.898   6.618   1.313  2.5474  0.5609  0.5802
  286MOL0     H39426  -0.553   6.454   1.084  2.9318  0.0685 -0.8777
  286MOL0     H39427  -0.292   6.342   1.234 -1.2258  0.9266  1.8832
  286MOL0     H39428  -0.236   6.489   1.146  0.6586 -0.3100  0.3408
  286MOL0     H39429  -0.352   6.395   1.064 -1.8539  0.0574 -0.2040
  286MOL0     H39430  -0.093   6.508   1.679  1.8282 -0.4576  2.5567
  286MOL0     H39431   0.122   6.583   1.756  1.1462 -0.9006 -1.4475
  286MOL0     H39432   0.261   7.025   1.873  0.9808 -0.8368  1.5997
  286MOL0     H39433   0.095   6.981   1.900 -0.1371 -0.3896  1.2516
  286MOL0     H39434   0.222   6.965   2.110  0.7853  1.1374 -1.1509
  286MOL0     H39435   0.181   6.802   2.062  2.3031 -2.3350  1.5052
  286MOL0     H39436   0.424   6.798   1.952  1.0701 -2.7596  2.4474
  286MOL0     H39437   0.419   6.814   2.129  1.6265 -0.6523 -0.7260
  286MOL0     H39438   0.464   7.055   2.129  1.9642 -2.9220  2.6461
  286MOL0     H39439   0.442   7.048   1.951 -0.1313  0.5148  0.4096
  286MOL0     H39440   0.648   6.875   2.088 -1.5406  0.2221  0.5757
  286MOL0     H39441   0.624   6.902   1.918 -3.5153  2.0053 -0.5611
  286MOL0     H39442   0.708   7.123   2.118 -1.2191  3.4404 -1.8174
  286MOL0     H39443   0.661   7.149   1.961  0.2831  3.0229  3.0050
  286MOL0     H39444   0.836   7.031   1.859 -0.1462  1.9150 -0.2282
  286MOL0     H39445   0.883   6.927   2.000  0.7642 -2.7277 -5.5751
  286MOL0     H39446   1.067   7.074   2.008  0.8227  0.8828 -0.5108
  286MOL0     H39447   0.964   7.151   2.122 -1.2795 -2.0972  0.6208
  286MOL0     H39448   0.021   6.991   1.673  0.5576  0.1338  1.6365
  286MOL0     H39449  -0.193   6.889   1.550 -1.0479 -0.4839  2.6182
  286MOL0     H39450  -0.490   6.670   1.533  0.6729  1.9977 -0.1542
  286MOL0     H39451  -0.693   6.708   1.424  2.7241  1.5118  0.3199
  286MOL0     H39452   0.067   5.763   0.870 -2.1428  1.2340  0.5952
  286MOL0     H39453   0.071   5.520   0.858  0.5955  0.8502  0.6945
  286MOL0     H39454  -0.037   5.056   0.448 -0.7725  0.0779  0.6677
  286MOL0     H39455  -0.008   4.819   0.518  0.8484  1.1388 -3.4844
  286MOL0     H39456   0.286   4.751   0.844 -1.2857  1.9346  0.9518
  286MOL0     H39457   0.145   4.737   0.946  0.3565  3.4536 -0.0299
  286MOL0     H39458   0.108   4.492   0.833  1.2493 -0.7747 -0.9148
  286MOL0     H39459   0.216   4.510   0.970  0.1245  0.2088  0.4395
  286MOL0     H39460   0.309   4.485   0.687 -1.6913  0.0296  0.0914
  286MOL0     H39461   0.406   4.502   0.825  0.7721 -1.2311 -1.0020
  286MOL0     H39462   0.212   4.281   0.778 -0.5993 -1.8514  3.0034
  286MOL0     H39463   0.316   4.277   0.913  1.2358 -1.4018 -0.9084
  286MOL0     H39464   0.572   4.157   0.596 -1.3939 -3.3312 -0.9319
  286MOL0     H39465   0.226   4.967   0.861  1.8570  2.2888 -1.0323
  286MOL0     H39466   0.169   5.265   0.870 -0.6405  0.1347 -0.9985
  286MOL0     H39467   0.321   5.167   0.845 -1.8016 -2.9903  0.5000
  286MOL0     H39468   0.256   5.309   0.747 -1.0781  0.3439  1.1972
  287MOL0     O39469   2.799   7.734   5.425  0.2102  0.3082 -0.7887
  287MOL0     C39470   2.776   7.686   5.315  0.5497  0.8850  0.4061
  287MOL0     O39471   2.653   7.670   5.271  0.1207 -0.1149 -0.5155
  287MOL0     C39472   2.557   7.764   5.299  0.3381 -0.0125 -0.2390
  287MOL0     C39473   2.572   7.898   5.263  1.2047 -0.9543  0.8652
  287MOL0     C39474   2.476   7.990   5.295  0.2660 -1.0330 -0.0663
  287MOL0     C39475   2.348   7.948   5.334  0.3357 -0.1922  0.8899
  287MOL0     O39476   2.239   8.029   5.344  0.2902 -0.3369  0.5397
  287MOL0     C39477   2.256   8.164   5.338 -0.4038  0.3089  0.7891
  287MOL0     C39478   2.209   8.212   5.196 -0.7917 -0.1646 -0.1674
  287MOL0     C39479   2.071   8.163   5.139  0.4410 -0.2210 -0.0970
  287MOL0     C39480   2.010   8.259   5.034 -0.0265 -0.0180 -0.8380
  287MOL0     C39481   1.859   8.222   5.031 -0.0988  0.3008 -1.1724
  287MOL0     C39482   1.782   8.297   4.921  0.2842 -0.2484  0.5174
  287MOL0     C39483   1.789   8.455   4.938 -0.5703 -0.3632 -0.2711
  287MOL0     C39484   1.845   8.535   4.813  0.1989 -0.9961 -0.0029
  287MOL0     N39485   1.992   8.513   4.788  0.0318 -0.6232 -0.6659
  287MOL0     C39486   2.087   8.577   4.866 -0.8402 -0.4830 -0.0633
  287MOL0     C39487   2.189   8.493   4.853 -0.8441 -0.1861  0.4452
  287MOL0     C39488   2.316   8.507   4.942 -0.5167 -0.2904  0.5886
  287MOL0     C39489   2.433   8.413   4.916  0.0777  0.0165 -0.0052
  287MOL0     C39490   2.501   8.377   5.049 -0.5576  0.7653 -0.6700
  287MOL0     C39491   2.638   8.312   5.037  0.0508 -0.4394  0.3992
  287MOL0     O39492   2.695   8.248   5.150 -0.2554  0.1105  0.3660
  287MOL0     C39493   2.825   8.190   5.141 -0.7743  0.5965  0.2690
  287MOL0     C39494   2.906   8.177   5.028  0.5520  0.1076  0.3562
  287MOL0     C39495   3.023   8.104   5.027  0.0395 -0.3551  0.3950
  287MOL0     C39496   3.095   8.080   4.893 -0.0759  0.4050  0.0364
  287MOL0     C39497   3.075   8.050   5.146  0.5488 -0.7573 -0.7572
  287MOL0     C39498   3.201   7.983   5.164 -0.2757  0.0434  0.8387
  287MOL0     O39499   3.246   7.968   5.289  0.5671 -0.2062 -0.1217
  287MOL0     C39500   3.386   7.983   5.298  0.3012 -0.3513 -0.7911
  287MOL0     C39501   3.467   7.867   5.293  0.6812  0.4061  0.5165
  287MOL0     C39502   3.604   7.880   5.319 -0.3611 -0.0340  0.5659
  287MOL0     C39503   3.659   8.007   5.346 -0.3435  0.7373 -0.8000
  287MOL0     O39504   3.788   8.025   5.377  0.0323  0.5277  0.3319
  287MOL0     C39505   3.860   7.920   5.441 -0.8623  0.2865 -0.8722
  287MOL0     C39506   3.974   7.967   5.533 -0.3407 -0.6746 -0.5256
  287MOL0     C39507   4.071   8.082   5.475  0.7969  0.7310 -0.1874
  287MOL0     C39508   4.123   8.055   5.337  0.5051  0.3652  0.3439
  287MOL0     C39509   4.216   8.162   5.281 -0.7994 -0.2400  0.6776
  287MOL0     C39510   4.363   8.105   5.296  0.3285  0.2522 -0.0093
  287MOL0     C39511   4.431   8.142   5.423 -0.0039  0.8882  0.1726
  287MOL0     C39512   4.574   8.193   5.401  0.3910  0.0512  0.9076
  287MOL0    Cl39513   4.604   8.294   5.243  0.2750 -0.3543 -0.3822
  287MOL0     C39514   3.583   8.119   5.342  0.8621  0.2647  0.1733
  287MOL0     C39515   3.442   8.113   5.316  0.2367  0.0239 -0.7901
  287MOL0     O39516   3.263   7.939   5.062  0.6184 -0.7517 -0.5123
  287MOL0     C39517   3.000   8.069   5.263  0.8481  0.3207 -0.1058
  287MOL0     C39518   2.871   8.134   5.257  0.0476  0.2410 -0.1263
  287MOL0     N39519   2.168   8.402   4.749 -0.4872 -0.0180 -0.1727
  287MOL0     N39520   2.044   8.411   4.717 -0.0919  0.5442 -0.3649
  287MOL0     C39521   2.326   7.813   5.356  0.0897  0.1782  0.5787
  287MOL0     C39522   2.431   7.722   5.342 -0.6856  0.4620  0.2000
  287MOL0     C39523   2.896   7.650   5.236  0.3824 -0.2416 -0.2477
  287MOL0     C39524   2.876   7.635   5.103 -1.5354 -0.3416  0.7663
  287MOL0     C39525   2.979   7.597   5.013  0.6286  0.2015 -0.1845
  287MOL0     C39526   3.115   7.619   5.046  0.3057 -0.0124 -0.7496
  287MOL0     O39527   3.217   7.616   4.964  0.0901  0.1051 -0.5939
  287MOL0     C39528   3.209   7.596   4.822  0.9704 -0.2179  0.3140
  287MOL0     C39529   3.252   7.447   4.793  0.6448 -0.4419 -0.3047
  287MOL0     C39530   3.275   7.406   4.647  0.3659  0.5074  0.4019
  287MOL0     C39531   3.143   7.399   4.566  1.5720 -0.2017 -0.8035
  287MOL0     C39532   3.123   7.535   4.518 -0.2897  0.4625 -0.2437
  287MOL0     C39533   3.115   7.648   4.473 -0.5672  0.4447  0.5918
  287MOL0     C39534   3.133   7.641   5.187  1.4105  0.0726  0.1634
  287MOL0     C39535   3.029   7.657   5.280 -0.9418 -0.3111  0.6217
  287MOL0     C39536   3.075   7.691   5.420  0.1886 -0.5892  0.3466
  287MOL0     H39537   2.667   7.935   5.227  0.2597 -1.1570 -2.0957
  287MOL0     H39538   2.511   8.092   5.281  3.0806 -2.1733 -2.0127
  287MOL0     H39539   2.357   8.191   5.370 -0.8345 -0.3571  2.8056
  287MOL0     H39540   2.191   8.216   5.409 -1.6057  0.5437 -0.4184
  287MOL0     H39541   2.205   8.321   5.203 -2.4371 -0.2888  2.1363
  287MOL0     H39542   2.282   8.189   5.118  0.3963  0.7712  0.6224
  287MOL0     H39543   2.074   8.063   5.096 -0.0257  1.2943 -4.1357
  287MOL0     H39544   2.004   8.157   5.225 -1.5999 -3.5018 -1.6890
  287MOL0     H39545   2.025   8.363   5.064 -2.1985  0.6503 -1.8401
  287MOL0     H39546   2.067   8.233   4.944  1.6742  0.8062 -0.0409
  287MOL0     H39547   1.808   8.250   5.124  1.2370 -1.1127  0.0407
  287MOL0     H39548   1.850   8.115   5.010  0.7447 -0.4450  1.7424
  287MOL0     H39549   1.820   8.263   4.824  0.4896 -0.0388  0.5242
  287MOL0     H39550   1.677   8.266   4.923  0.2413 -0.2063 -0.4583
  287MOL0     H39551   1.857   8.486   5.019 -2.6836  1.7079  0.8338
  287MOL0     H39552   1.689   8.489   4.967 -0.1686  1.1077 -0.5042
  287MOL0     H39553   1.784   8.504   4.728 -2.7236  0.3338  1.4589
  287MOL0     H39554   1.831   8.643   4.827  0.1020 -0.6675 -2.2649
  287MOL0     H39555   2.078   8.661   4.934  0.7919  1.0986 -1.7098
  287MOL0     H39556   2.282   8.491   5.045  0.4318 -0.6144  0.8582
  287MOL0     H39557   2.346   8.612   4.940 -0.7165 -0.1498  2.9054
  287MOL0     H39558   2.401   8.321   4.865 -0.3282 -0.9064  1.8353
  287MOL0     H39559   2.504   8.462   4.849  0.0447  3.5176  2.2834
  287MOL0     H39560   2.524   8.464   5.112  2.5498 -1.8068  2.1922
  287MOL0     H39561   2.433   8.306   5.098 -3.2938  3.0618 -0.9386
  287MOL0     H39562   2.645   8.247   4.949 -1.2701 -1.5955  1.0928
  287MOL0     H39563   2.710   8.390   5.012 -1.2151  1.3546  1.9988
  287MOL0     H39564   2.871   8.222   4.936  0.3884  0.3493  0.5341
  287MOL0     H39565   3.201   8.107   4.895  0.2840 -0.8805 -0.6301
  287MOL0     H39566   3.056   8.142   4.811  1.5834  0.9290 -0.3855
  287MOL0     H39567   3.082   7.972   4.880  3.3618 -0.7787  4.0956
  287MOL0     H39568   3.424   7.776   5.252  1.7999 -0.5392  1.3903
  287MOL0     H39569   3.672   7.797   5.330 -0.9677 -0.4039  1.6496
  287MOL0     H39570   3.799   7.847   5.495 -1.0773 -2.5642 -4.5453
  287MOL0     H39571   3.904   7.858   5.362  0.0747 -1.0149  0.5982
  287MOL0     H39572   3.927   8.005   5.625 -1.1989  0.7667 -1.5079
  287MOL0     H39573   4.033   7.881   5.562 -2.5234 -2.0395  0.0994
  287MOL0     H39574   4.159   8.087   5.539 -0.0444  2.5498  0.9135
  287MOL0     H39575   4.015   8.175   5.491 -0.0955 -0.2455  2.9559
  287MOL0     H39576   4.036   8.038   5.273  1.6190 -0.5294 -0.9884
  287MOL0     H39577   4.183   7.964   5.340  0.6303  0.0988 -4.0814
  287MOL0     H39578   4.200   8.187   5.175 -0.2297  0.2339  0.6942
  287MOL0     H39579   4.197   8.249   5.344 -2.5189 -1.0873  1.3792
  287MOL0     H39580   4.419   8.138   5.207  2.1067 -1.4466  0.4058
  287MOL0     H39581   4.362   7.996   5.284 -3.4507  0.2637 -1.3207
  287MOL0     H39582   4.440   8.050   5.482  3.8932 -1.0702 -3.0139
  287MOL0     H39583   4.367   8.209   5.482  0.0888  0.3383  0.9207
  287MOL0     H39584   4.633   8.103   5.384 -1.0144 -0.4209 -2.1834
  287MOL0     H39585   4.605   8.253   5.488 -3.1748  1.7496  1.2311
  287MOL0     H39586   3.621   8.213   5.379 -0.2328  0.4784  0.8028
  287MOL0     H39587   3.384   8.205   5.308  1.5214  0.9380 -0.0740
  287MOL0     H39588   3.018   8.032   5.363  1.3268 -0.8458 -0.6014
  287MOL0     H39589   2.798   8.126   5.336 -0.2376  1.2986 -0.2687
  287MOL0     H39590   2.229   7.772   5.382  0.7531 -0.2498  2.5423
  287MOL0     H39591   2.419   7.616   5.362  0.8315  0.1762 -0.2099
  287MOL0     H39592   2.775   7.639   5.062 -1.2483  1.1498  0.1410
  287MOL0     H39593   2.956   7.578   4.908 -5.3902 -1.3867  1.0358
  287MOL0     H39594   3.118   7.627   4.769  1.6873 -0.7068 -1.2627
  287MOL0     H39595   3.288   7.650   4.770  0.2555  0.7675  0.2245
  287MOL0     H39596   3.174   7.382   4.833  1.3451 -2.1865 -1.6446
  287MOL0     H39597   3.348   7.432   4.844  0.9532  0.2282 -0.6698
  287MOL0     H39598   3.350   7.468   4.598  0.0326  2.0717  1.8015
  287MOL0     H39599   3.313   7.303   4.652 -1.4779 -0.2978 -0.7854
  287MOL0     H39600   3.073   7.348   4.633  0.9128 -3.6496 -3.8474
  287MOL0     H39601   3.142   7.334   4.478 -1.3718 -0.8667 -0.3729
  287MOL0     H39602   3.110   7.745   4.427  1.1514  0.7579  1.0113
  287MOL0     H39603   3.237   7.643   5.218  1.3634  0.5761  0.2875
  287MOL0     H39604   3.024   7.774   5.468 -1.9138 -1.4978 -0.1998
  287MOL0     H39605   3.063   7.597   5.474  2.7226 -0.4114  1.3597
  287MOL0     H39606   3.183   7.709   5.422 -0.1785  1.8725  0.6644
  288MOL0     O39607   1.371   9.688   0.180  0.6796  0.2375 -0.0784
  288MOL0     C39608   1.316   9.714   0.281  0.6652 -0.3818 -0.7460
  288MOL0     O39609   1.325   9.642   0.398  0.5655  0.2290  0.3026
  288MOL0     C39610   1.431   9.562   0.416  1.0455  0.4320 -0.2334
  288MOL0     C39611   1.558   9.585   0.378  0.7054  0.2225 -0.2655
  288MOL0     C39612   1.658   9.502   0.428 -0.2274 -0.3710  0.1762
  288MOL0     C39613   1.637   9.401   0.521 -0.4171 -0.6230  0.5646
  288MOL0     O39614   1.733   9.319   0.566 -0.7783 -0.4079  0.3148
  288MOL0     C39615   1.863   9.299   0.492  0.5290  0.8019 -0.4610
  288MOL0     C39616   1.847   9.277   0.342 -0.4629 -0.3800  0.0594
  288MOL0     C39617   1.977   9.215   0.280  0.8344 -0.3143 -0.6050
  288MOL0     C39618   2.095   9.314   0.276  0.7877  0.2074  1.5148
  288MOL0     C39619   2.216   9.242   0.230  0.2180 -0.3071 -0.1536
  288MOL0     C39620   2.326   9.351   0.213 -0.0727 -0.5948 -0.0528
  288MOL0     C39621   2.444   9.295   0.142 -0.3084  0.4060  0.9475
  288MOL0     C39622   2.578   9.370   0.165 -0.1877  0.3011 -0.5832
  288MOL0     N39623   2.688   9.298   0.102 -0.3988 -0.2170  0.3166
  288MOL0     C39624   2.726   9.307  -0.035 -0.5474 -0.4331  0.7105
  288MOL0     C39625   2.855   9.258  -0.034  0.6041  0.0397  0.4189
  288MOL0     C39626   2.948   9.261  -0.152 -0.4113 -0.6740  1.3438
  288MOL0     C39627   3.021   9.389  -0.134 -0.0748 -0.0674  0.0539
  288MOL0     C39628   3.125   9.393  -0.251 -0.0214  0.9578  0.3787
  288MOL0     C39629   3.205   9.523  -0.268 -0.5581 -0.0188 -0.0321
  288MOL0     O39630   3.137   9.625  -0.337 -0.6073 -0.2453 -0.2305
  288MOL0     C39631   3.212   9.732  -0.390 -0.6151  0.1811 -0.9531
  288MOL0     C39632   3.346   9.764  -0.348  0.1228  0.0251 -0.2166
  288MOL0     C39633   3.411   9.873  -0.406 -0.3841  0.6276  0.0276
  288MOL0     C39634   3.556   9.891  -0.353 -0.2306 -0.6139 -0.5411
  288MOL0     C39635   3.348   9.952  -0.499  0.0211  0.4493  0.0817
  288MOL0     C39636   3.405  10.073  -0.566 -0.8722 -0.3017 -0.5092
  288MOL0     O39637   3.336  10.136  -0.665  0.5380 -0.1545  0.8598
  288MOL0     C39638   3.368  10.258  -0.724 -0.4327  0.5590 -0.0324
  288MOL0     C39639   3.304  10.287  -0.844  0.1664  0.2253 -1.0087
  288MOL0     C39640   3.334  10.404  -0.915  0.1412 -0.4017 -0.2229
  288MOL0     C39641   3.427  10.495  -0.872  0.3754  0.2617 -1.2072
  288MOL0     O39642   3.456  10.610  -0.940  0.1828  1.1664 -0.3365
  288MOL0     C39643   3.347  10.684  -0.994 -0.2249 -0.2862  0.6264
  288MOL0     C39644   3.382  10.834  -1.022 -0.4228  0.0197  0.3898
  288MOL0     C39645   3.437  10.898  -0.892  1.0321  0.6496  0.3519
  288MOL0     C39646   3.464  11.050  -0.896  0.0946 -0.1295 -0.3596
  288MOL0     C39647   3.552  11.097  -0.770  0.1129  0.1604 -0.1102
  288MOL0     C39648   3.499  11.069  -0.624  0.6923 -0.5355  0.3670
  288MOL0     C39649   3.390  11.176  -0.589 -0.2516  0.3515 -0.1636
  288MOL0     C39650   3.320  11.153  -0.452 -0.2886  1.2182  0.9532
  288MOL0    Cl39651   3.433  11.153  -0.317 -0.7053 -0.2050 -0.3035
  288MOL0     C39652   3.475  10.472  -0.746  0.2471  0.5177  0.5704
  288MOL0     C39653   3.460  10.349  -0.678  0.1747 -0.4218  0.5111
  288MOL0     O39654   3.509  10.108  -0.522  0.3217 -0.3330  0.2777
  288MOL0     C39655   3.204   9.931  -0.514  0.7226  0.3836 -0.3544
  288MOL0     C39656   3.148   9.816  -0.473  0.0395 -0.8877  0.9453
  288MOL0     N39657   2.878   9.207   0.090  0.0059 -0.2226  0.2938
  288MOL0     N39658   2.785   9.235   0.172  0.3099  0.5657  0.6814
  288MOL0     C39659   1.505   9.386   0.560 -0.6489  0.1473  0.2012
  288MOL0     C39660   1.402   9.457   0.504  0.3830  0.5079  0.4811
  288MOL0     C39661   1.215   9.823   0.294  0.4340  0.1755  0.5223
  288MOL0     C39662   1.221   9.890   0.417 -0.0958 -0.3805 -0.8908
  288MOL0     C39663   1.137   9.991   0.452 -0.1569  0.2843 -0.5325
  288MOL0     C39664   1.049  10.041   0.361  0.4584  0.5194 -0.3412
  288MOL0     O39665   0.966  10.149   0.387 -0.3374 -0.0481 -0.7029
  288MOL0     C39666   0.923  10.175   0.520 -0.6037 -0.4643 -0.0058
  288MOL0     C39667   0.834  10.067   0.576 -0.7590  0.0004 -0.2598
  288MOL0     C39668   0.704  10.071   0.498 -1.6214 -0.4467  0.0283
  288MOL0     C39669   0.608   9.959   0.546 -0.8062 -0.1408 -0.5090
  288MOL0     C39670   0.469   9.998   0.506 -0.3831 -0.0873 -0.4220
  288MOL0     C39671   0.356  10.022   0.485  0.1650 -0.4464  0.2250
  288MOL0     C39672   1.035   9.976   0.234  0.7152 -0.4211  0.6064
  288MOL0     C39673   1.125   9.873   0.201  0.0713  0.1533  0.1809
  288MOL0     C39674   1.088   9.804   0.074 -0.1839  0.0987  0.1053
  288MOL0     H39675   1.586   9.670   0.316  0.1020  0.0018 -0.8556
  288MOL0     H39676   1.758   9.528   0.395 -0.2814 -3.6827 -3.3504
  288MOL0     H39677   1.911   9.211   0.536  0.3104  0.8987 -0.0203
  288MOL0     H39678   1.922   9.392   0.496 -3.1519  3.5201 -2.8280
  288MOL0     H39679   1.762   9.211   0.321  1.3234 -2.0390 -2.6499
  288MOL0     H39680   1.829   9.374   0.295  2.9181 -1.2048 -3.5783
  288MOL0     H39681   2.014   9.138   0.348 -0.1376 -0.6381 -0.4172
  288MOL0     H39682   1.954   9.178   0.179 -3.9108  0.4320 -0.0238
  288MOL0     H39683   2.070   9.390   0.202  0.1456 -0.3467  1.1494
  288MOL0     H39684   2.103   9.356   0.377 -0.4888 -1.8496  2.5379
  288MOL0     H39685   2.199   9.201   0.130 -2.2591 -1.3566  0.6303
  288MOL0     H39686   2.257   9.168   0.300 -1.4861  0.1032  1.3659
  288MOL0     H39687   2.288   9.441   0.164  1.2248  0.7106  1.2212
  288MOL0     H39688   2.364   9.390   0.308 -1.5705 -1.7432  1.0497
  288MOL0     H39689   2.429   9.299   0.034  1.1506 -2.1262  0.5455
  288MOL0     H39690   2.446   9.188   0.165 -1.0905  0.1953  0.0811
  288MOL0     H39691   2.577   9.475   0.134 -0.4139  0.4277 -0.1567
  288MOL0     H39692   2.594   9.372   0.273 -0.1720 -0.9062 -0.5421
  288MOL0     H39693   2.669   9.352  -0.116  1.0356  0.4871  0.0673
  288MOL0     H39694   2.895   9.266  -0.247 -1.3109 -2.8676  1.6625
  288MOL0     H39695   3.015   9.177  -0.174 -0.2344  0.6590 -5.0459
  288MOL0     H39696   2.963   9.480  -0.150  0.5042  0.4840  1.0015
  288MOL0     H39697   3.067   9.391  -0.034  0.2973 -2.7205  0.0288
  288MOL0     H39698   3.193   9.312  -0.223 -4.0222 -2.8568  0.0330
  288MOL0     H39699   3.082   9.371  -0.349 -1.3669  1.4407  0.8370
  288MOL0     H39700   3.218   9.555  -0.165 -0.3433  0.0372 -0.0762
  288MOL0     H39701   3.302   9.505  -0.316 -0.0872 -1.2097  1.2842
  288MOL0     H39702   3.393   9.702  -0.272 -2.5809 -1.0721  0.7148
  288MOL0     H39703   3.625   9.937  -0.424 -0.3131  2.1905  1.0065
  288MOL0     H39704   3.602   9.810  -0.297  1.4130  0.9778  0.5520
  288MOL0     H39705   3.537   9.959  -0.269 -3.9391 -3.0912  0.8820
  288MOL0     H39706   3.234  10.215  -0.885 -1.2753  1.6839 -1.1976
  288MOL0     H39707   3.282  10.436  -1.006  1.9368  4.5085  0.1683
  288MOL0     H39708   3.309  10.648  -1.090  2.6169 -1.0236 -0.2975
  288MOL0     H39709   3.259  10.681  -0.928 -1.6443  1.4331 -1.0435
  288MOL0     H39710   3.460  10.847  -1.097 -1.5024 -2.1674 -1.2320
  288MOL0     H39711   3.287  10.887  -1.038  1.2089  4.0981  2.6696
  288MOL0     H39712   3.539  10.862  -0.877  1.2314  0.7487 -0.7388
  288MOL0     H39713   3.362  10.893  -0.812  1.6075  1.4290  0.9632
  288MOL0     H39714   3.374  11.109  -0.914  1.0021  0.4991 -3.4222
  288MOL0     H39715   3.533  11.071  -0.979 -1.7500  3.4252 -1.1856
  288MOL0     H39716   3.646  11.041  -0.778 -0.9336 -1.4898 -1.4782
  288MOL0     H39717   3.575  11.203  -0.779  1.3622 -0.0658  0.2607
  288MOL0     H39718   3.582  11.077  -0.553 -1.6576 -2.5943  3.7041
  288MOL0     H39719   3.467  10.966  -0.604 -1.1342  0.5048  3.6029
  288MOL0     H39720   3.319  11.177  -0.672  2.3301  0.5888 -2.4858
  288MOL0     H39721   3.443  11.272  -0.586  0.0641  0.2290 -1.3554
  288MOL0     H39722   3.258  11.063  -0.461 -0.8159  1.4647  2.0304
  288MOL0     H39723   3.249  11.230  -0.422  1.3975  2.7458  1.1223
  288MOL0     H39724   3.531  10.555  -0.705  1.7909 -0.8893  1.4558
  288MOL0     H39725   3.505  10.335  -0.580  0.8073 -1.1276  0.1260
  288MOL0     H39726   3.139   9.991  -0.577 -1.1828  0.8006  1.8615
  288MOL0     H39727   3.040   9.813  -0.484  0.2141 -1.2111 -0.9533
  288MOL0     H39728   1.483   9.315   0.639  1.9846 -2.1023 -0.9149
  288MOL0     H39729   1.304   9.450   0.550  0.2882 -1.1049  0.0881
  288MOL0     H39730   1.282   9.856   0.499  0.4111 -1.6004 -1.7422
  288MOL0     H39731   1.143  10.021   0.556 -3.2645 -0.8469  0.0966
  288MOL0     H39732   1.000  10.208   0.591 -0.4581 -1.1378  0.1530
  288MOL0     H39733   0.868  10.270   0.514 -1.8512 -1.0976  0.8749
  288MOL0     H39734   0.827  10.091   0.682  2.5609 -1.5974  0.4488
  288MOL0     H39735   0.888   9.973   0.562  1.0333  1.1279 -1.3522
  288MOL0     H39736   0.656  10.169   0.511  1.8137  1.6482 -1.6044
  288MOL0     H39737   0.734  10.062   0.394 -1.5751 -0.4262  0.0397
  288MOL0     H39738   0.618   9.954   0.655  0.5550 -0.6252 -0.6305
  288MOL0     H39739   0.648   9.865   0.506 -0.0011 -1.0033  2.0917
  288MOL0     H39740   0.253  10.051   0.489  0.5396  1.6453 -2.3148
  288MOL0     H39741   0.957  10.017   0.171  2.6642  2.9479  0.1644
  288MOL0     H39742   1.027   9.866   0.008  1.8462 -1.7733 -3.8805
  288MOL0     H39743   1.182   9.788   0.021 -0.0358 -1.6775  0.8191
  288MOL0     H39744   1.044   9.707   0.100  0.7507 -0.3577  0.0491
  289MOL0     O39745   9.214   2.885   7.483 -0.3947  0.1612  0.1642
  289MOL0     C39746   9.122   2.920   7.554 -0.0881  0.5367  0.6571
  289MOL0     O39747   9.117   3.037   7.633  0.2884  0.4775 -0.0860
  289MOL0     C39748   9.233   3.110   7.666 -0.7750  0.6096  0.2526
  289MOL0     C39749   9.350   3.034   7.710  0.3208 -0.5271 -0.2164
  289MOL0     C39750   9.472   3.097   7.719 -1.2793  0.3503  0.3160
  289MOL0     C39751   9.487   3.231   7.677 -0.3439  0.6616 -0.3734
  289MOL0     O39752   9.622   3.273   7.681  0.3016 -0.4067  0.1603
  289MOL0     C39753   9.647   3.409   7.642  0.0527  0.0574 -0.1983
  289MOL0     C39754   9.800   3.407   7.635  0.0056 -1.0144 -0.1095
  289MOL0     C39755   9.867   3.358   7.762  0.5685  0.1851 -0.5632
  289MOL0     C39756   9.931   3.218   7.755  0.6969 -0.5782 -0.4059
  289MOL0     C39757  10.027   3.194   7.869  0.6842  0.2736 -0.4837
  289MOL0     C39758  10.070   3.045   7.866  0.4009  0.2637 -0.6010
  289MOL0     C39759  10.161   2.994   7.975 -0.2579 -1.1274  0.4432
  289MOL0     C39760  10.217   2.861   7.954  0.0613  0.5456  0.0985
  289MOL0     N39761  10.325   2.828   8.053  0.6323  0.1002  0.8422
  289MOL0     C39762  10.326   2.723   8.148 -0.1080  1.2538  1.2541
  289MOL0     C39763  10.437   2.736   8.228 -0.0877 -0.0615  0.1290
  289MOL0     C39764  10.489   2.662   8.347  0.5883 -0.1876  0.0690
  289MOL0     C39765  10.639   2.621   8.340 -0.0599 -0.0593 -1.2963
  289MOL0     C39766  10.703   2.563   8.472  0.7172  0.5951 -0.1960
  289MOL0     C39767  10.652   2.614   8.612 -0.0358 -0.6498  0.4616
  289MOL0     O39768  10.522   2.573   8.637  0.9971  0.1674 -0.1026
  289MOL0     C39769  10.470   2.634   8.754 -0.1282 -0.1959  0.4110
  289MOL0     C39770  10.533   2.723   8.840 -0.0649 -0.1073  0.1719
  289MOL0     C39771  10.483   2.768   8.970  0.3783 -0.0921  0.6391
  289MOL0     C39772  10.586   2.821   9.069  0.4693 -0.3425 -0.0834
  289MOL0     C39773  10.345   2.727   9.003  0.3980  0.0995  0.2475
  289MOL0     C39774  10.278   2.747   9.129 -0.0049 -0.1000 -0.1811
  289MOL0     O39775  10.355   2.750   9.243  0.4256 -0.0076  0.5775
  289MOL0     C39776  10.306   2.779   9.373 -0.1772  0.9769 -0.1273
  289MOL0     C39777  10.237   2.900   9.399 -0.6345 -0.9981 -0.0384
  289MOL0     C39778  10.198   2.929   9.530 -0.3146 -0.3209  0.1866
  289MOL0     C39779  10.224   2.848   9.641 -0.0129  0.7162 -0.2340
  289MOL0     O39780  10.166   2.880   9.762  0.0936  0.3300  0.6003
  289MOL0     C39781  10.151   2.769   9.852  0.0684  0.0667 -0.8600
  289MOL0     C39782  10.098   2.809   9.992  0.2670  0.0512  0.0414
  289MOL0     C39783   9.996   2.919   9.979  0.2748 -0.2368  0.0083
  289MOL0     C39784   9.852   2.864   9.949 -0.2699  0.6700  0.7847
  289MOL0     C39785   9.824   2.806   9.809 -0.8086  0.2107  0.4244
  289MOL0     C39786   9.674   2.790   9.785  0.4060 -0.5461  0.9337
  289MOL0     C39787   9.610   2.684   9.885 -0.0827  0.5615  0.1173
  289MOL0     C39788   9.463   2.672   9.852 -0.4412 -0.1972 -0.5878
  289MOL0    Cl39789   9.361   2.815   9.894  0.0754 -0.4901 -0.3572
  289MOL0     C39790  10.293   2.729   9.609  0.4118  0.9640  0.1290
  289MOL0     C39791  10.334   2.697   9.480 -0.3088 -0.1214  1.3086
  289MOL0     O39792  10.156   2.772   9.123 -0.4054  0.1416 -0.1129
  289MOL0     C39793  10.273   2.656   8.907  0.0355  0.5990 -0.1740
  289MOL0     C39794  10.338   2.600   8.793 -0.3538 -0.4773  0.4061
  289MOL0     N39795  10.490   2.861   8.179  0.3686  0.9383  0.4290
  289MOL0     N39796  10.430   2.904   8.076 -1.0209  0.0441  0.3764
  289MOL0     C39797   9.369   3.307   7.645 -0.7220 -0.0971 -0.1227
  289MOL0     C39798   9.248   3.243   7.642 -0.7263  0.4919  0.4381
  289MOL0     C39799   9.001   2.822   7.582 -0.0620 -0.9133  0.3523
  289MOL0     C39800   8.959   2.792   7.712  0.1313 -0.4699 -0.0435
  289MOL0     C39801   8.865   2.699   7.741  0.6287  0.1803  0.0297
  289MOL0     C39802   8.794   2.643   7.644  0.6628  0.1485 -0.0315
  289MOL0     O39803   8.710   2.541   7.686  0.0652  0.5230  0.1566
  289MOL0     C39804   8.587   2.520   7.608  0.3956 -0.2514  0.4671
  289MOL0     C39805   8.492   2.635   7.594  1.2511  1.1150  0.5418
  289MOL0     C39806   8.377   2.606   7.485 -0.2299  0.3514  0.0858
  289MOL0     C39807   8.316   2.745   7.460  0.2872  0.3170  0.2622
  289MOL0     C39808   8.406   2.810   7.358  0.1465 -0.4570  0.1341
  289MOL0     C39809   8.488   2.856   7.286 -0.1244  0.3573 -0.2412
  289MOL0     C39810   8.832   2.663   7.509 -0.0885  0.0158 -0.0848
  289MOL0     C39811   8.933   2.753   7.473  0.1646 -0.7700  0.6025
  289MOL0     C39812   8.966   2.780   7.332 -0.5973 -0.5570 -1.0360
  289MOL0     H39813   9.337   2.931   7.739  0.8355 -0.5555 -0.0616
  289MOL0     H39814   9.554   3.032   7.747 -1.1649  0.0577 -0.6507
  289MOL0     H39815   9.609   3.476   7.721  2.9266 -0.0937  1.4294
  289MOL0     H39816   9.615   3.428   7.539  3.4098 -2.3189 -1.8479
  289MOL0     H39817   9.817   3.330   7.559  2.3056  0.3846 -1.1221
  289MOL0     H39818   9.837   3.508   7.618  1.2906 -1.4660 -0.1034
  289MOL0     H39819   9.931   3.442   7.791 -0.0075  0.9853 -1.5263
  289MOL0     H39820   9.786   3.355   7.835  3.0879  0.4838  2.4699
  289MOL0     H39821   9.847   3.148   7.762  1.0702 -1.0508 -0.6420
  289MOL0     H39822   9.971   3.206   7.654 -0.3622  3.6222 -1.5254
  289MOL0     H39823   9.980   3.219   7.965  2.2224 -0.3324  0.4709
  289MOL0     H39824  10.113   3.260   7.860 -0.9790  2.6211 -0.1066
  289MOL0     H39825   9.974   2.993   7.867 -0.4334  1.6047  2.9521
  289MOL0     H39826  10.126   3.034   7.773  2.9795 -2.4812  1.1055
  289MOL0     H39827  10.112   3.004   8.073  3.2122 -2.0845  2.4685
  289MOL0     H39828  10.253   3.051   7.981  2.0992 -4.7063  2.0736
  289MOL0     H39829  10.140   2.784   7.964 -0.1122  0.3618 -2.1500
  289MOL0     H39830  10.265   2.857   7.856  0.6836  0.2346  0.4139
  289MOL0     H39831  10.248   2.649   8.162  0.7152  0.2238  0.6121
  289MOL0     H39832  10.431   2.572   8.370  1.3590  0.0796  3.6339
  289MOL0     H39833  10.473   2.727   8.434 -1.9794 -0.4595 -0.1247
  289MOL0     H39834  10.667   2.561   8.253 -0.1710 -0.8712 -0.7824
  289MOL0     H39835  10.686   2.720   8.329 -1.7750  0.9104 -0.3337
  289MOL0     H39836  10.695   2.454   8.473 -1.9423  0.6864  3.1854
  289MOL0     H39837  10.812   2.572   8.468  0.8786 -1.3540 -1.4322
  289MOL0     H39838  10.720   2.570   8.686  0.6733 -1.5378 -0.6794
  289MOL0     H39839  10.663   2.723   8.613 -0.4697 -0.4808 -2.6823
  289MOL0     H39840  10.638   2.745   8.822 -0.2759  1.4588  0.7361
  289MOL0     H39841  10.661   2.881   9.017  1.1381  1.2257  2.5101
  289MOL0     H39842  10.637   2.738   9.118  1.2209 -0.3474 -0.8425
  289MOL0     H39843  10.522   2.876   9.138 -1.9300  0.3375 -2.6320
  289MOL0     H39844  10.203   2.975   9.328 -3.2934 -0.9032  1.1717
  289MOL0     H39845  10.151   3.020   9.567  0.2273 -0.1556  0.4873
  289MOL0     H39846  10.081   2.696   9.810 -1.3001  1.1118 -0.4786
  289MOL0     H39847  10.245   2.720   9.880  0.2344  0.6624 -0.3406
  289MOL0     H39848  10.054   2.728  10.050  0.8406  0.5759  1.2370
  289MOL0     H39849  10.181   2.863  10.038 -0.2939  2.5279 -1.6271
  289MOL0     H39850  10.027   2.998   9.912 -0.3238  2.1468  2.3655
  289MOL0     H39851   9.988   2.961  10.080 -0.0613 -1.2604  0.4324
  289MOL0     H39852   9.782   2.947   9.961  0.1466  1.0595  0.5820
  289MOL0     H39853   9.834   2.780  10.016  0.5472  0.4927  0.7989
  289MOL0     H39854   9.876   2.862   9.731  1.2378  1.0268  2.2827
  289MOL0     H39855   9.873   2.708   9.808  0.1441  0.6615  1.7569
  289MOL0     H39856   9.648   2.761   9.683  0.8290  4.2841 -0.7990
  289MOL0     H39857   9.623   2.887   9.790  1.0709  0.0365 -1.8927
  289MOL0     H39858   9.625   2.714   9.989 -3.4333  1.3314  0.4843
  289MOL0     H39859   9.657   2.586   9.872 -2.2634 -0.6242  0.7451
  289MOL0     H39860   9.416   2.586   9.901 -3.0883  0.4896 -1.7643
  289MOL0     H39861   9.447   2.655   9.745 -0.4631 -0.1727 -0.5892
  289MOL0     H39862  10.312   2.656   9.687  0.9382 -0.0158 -0.8801
  289MOL0     H39863  10.385   2.602   9.474 -1.1427 -0.6478  2.2182
  289MOL0     H39864  10.172   2.622   8.928 -0.5543  1.2944 -1.7625
  289MOL0     H39865  10.289   2.535   8.721  0.7359 -0.8027 -0.0687
  289MOL0     H39866   9.381   3.411   7.614 -0.4225 -0.0636  0.0998
  289MOL0     H39867   9.157   3.293   7.611  0.7249  4.0911  1.4549
  289MOL0     H39868   9.020   2.828   7.794 -0.0046 -2.2229  0.8682
  289MOL0     H39869   8.848   2.663   7.842 -2.2989  0.5010 -0.2569
  289MOL0     H39870   8.605   2.465   7.516 -2.1126  1.4027 -1.1400
  289MOL0     H39871   8.535   2.444   7.668  1.1846 -1.3762 -0.2480
  289MOL0     H39872   8.543   2.720   7.547  0.8983 -0.1703 -2.4330
  289MOL0     H39873   8.444   2.653   7.690  1.5768  0.7783  0.7696
  289MOL0     H39874   8.414   2.549   7.399 -0.9094 -0.6722  0.4542
  289MOL0     H39875   8.301   2.545   7.535  0.1958  0.5307  0.9630
  289MOL0     H39876   8.316   2.799   7.556  0.2628  0.5359  0.1411
  289MOL0     H39877   8.211   2.740   7.430 -1.1164  1.7984  4.1803
  289MOL0     H39878   8.553   2.895   7.210 -0.2569  0.2789 -0.3966
  289MOL0     H39879   8.780   2.610   7.429 -1.2790  0.9366  0.0406
  289MOL0     H39880   8.985   2.886   7.312  1.8584 -0.3091  1.8666
  289MOL0     H39881   9.057   2.723   7.308  0.3848 -0.2988  1.7624
  289MOL0     H39882   8.880   2.753   7.270  0.3349  0.8955 -3.0774
  290MOL0     O39883   5.076   2.643   9.996  0.0463 -0.5006  0.0073
  290MOL0     C39884   5.031   2.703  10.092 -0.1881  0.3432 -0.1145
  290MOL0     O39885   5.045   2.836  10.110  0.2879  0.0874  0.7498
  290MOL0     C39886   5.145   2.905  10.049 -0.2225  0.5952  0.7100
  290MOL0     C39887   5.282   2.857  10.026  0.2128 -0.5943  0.2273
  290MOL0     C39888   5.394   2.944  10.002  0.0135 -0.6502 -0.4185
  290MOL0     C39889   5.365   3.083   9.983  0.1184  0.4657 -0.7562
  290MOL0     O39890   5.452   3.191   9.972  0.0724  0.3727  1.1732
  290MOL0     C39891   5.600   3.176   9.950 -0.0548  0.1837 -0.8348
  290MOL0     C39892   5.639   3.151   9.800 -0.2248  0.3059 -0.4643
  290MOL0     C39893   5.787   3.178   9.767  0.3491  0.5806 -1.2416
  290MOL0     C39894   5.826   3.160   9.627  0.6490 -0.4319 -0.3499
  290MOL0     C39895   5.789   3.282   9.545  0.1576 -0.9847  0.4688
  290MOL0     C39896   5.876   3.295   9.413  0.4531  0.0777 -0.4036
  290MOL0     C39897   5.867   3.181   9.315 -0.4669  0.3875  0.2368
  290MOL0     C39898   5.744   3.190   9.224  0.0850  0.2730  0.6209
  290MOL0     N39899   5.727   3.058   9.157 -0.2579  0.6208 -0.2298
  290MOL0     C39900   5.619   3.033   9.075 -0.5436  0.6102 -0.1188
  290MOL0     C39901   5.659   2.919   9.016  0.6049  0.4877  0.2288
  290MOL0     C39902   5.577   2.814   8.941 -0.2894 -0.0280 -0.1905
  290MOL0     C39903   5.542   2.864   8.800  0.7458  0.2829 -0.5582
  290MOL0     C39904   5.429   2.789   8.717 -0.3584  0.3533  0.2016
  290MOL0     C39905   5.289   2.806   8.768 -0.4779  0.2516  0.0872
  290MOL0     O39906   5.189   2.734   8.698  0.1837  0.1425  0.0248
  290MOL0     C39907   5.146   2.762   8.571  0.1480  0.2069 -0.3421
  290MOL0     C39908   5.184   2.876   8.498 -0.7379 -0.4998 -0.2755
  290MOL0     C39909   5.124   2.914   8.372 -0.2123  0.3420  0.0064
  290MOL0     C39910   5.158   3.042   8.298 -0.3918 -0.3739  0.6990
  290MOL0     C39911   5.024   2.824   8.317 -0.4265 -0.6224 -0.4292
  290MOL0     C39912   4.950   2.848   8.188  0.6023 -0.3216  0.4113
  290MOL0     O39913   4.919   2.732   8.117 -0.0478 -0.8572 -0.7842
  290MOL0     C39914   4.853   2.749   8.001 -1.0197  0.9846 -0.6423
  290MOL0     C39915   4.871   2.845   7.899  0.1778  0.3631 -0.0016
  290MOL0     C39916   4.793   2.831   7.783  0.3670 -0.2196  0.0236
  290MOL0     C39917   4.722   2.720   7.753  0.2641 -0.3556  0.1862
  290MOL0     O39918   4.673   2.702   7.629  0.1034 -0.2383  0.1708
  290MOL0     C39919   4.661   2.572   7.574 -0.4033  0.3476  0.9543
  290MOL0     C39920   4.660   2.586   7.422 -0.1618  0.6768  0.1942
  290MOL0     C39921   4.662   2.443   7.358 -0.4043  0.5632  0.0530
  290MOL0     C39922   4.521   2.378   7.360 -0.1377  0.1951 -0.4971
  290MOL0     C39923   4.499   2.238   7.282  0.1528 -1.4810 -0.1947
  290MOL0     C39924   4.348   2.208   7.270  0.2179  0.5104 -0.6865
  290MOL0     C39925   4.331   2.086   7.168 -0.1809 -0.4974  0.0262
  290MOL0     C39926   4.190   2.044   7.131 -0.1144 -1.1777  0.1807
  290MOL0    Cl39927   4.125   1.970   7.280  0.0207  0.4351 -0.5544
  290MOL0     C39928   4.717   2.618   7.847  1.0650  0.2448  0.2511
  290MOL0     C39929   4.783   2.634   7.967 -0.0023  0.2788 -0.0469
  290MOL0     O39930   4.916   2.961   8.160 -0.8781 -0.0641  0.8224
  290MOL0     C39931   4.999   2.711   8.382 -0.6641  0.2860 -0.3100
  290MOL0     C39932   5.057   2.676   8.503 -0.0938  0.3812 -0.3672
  290MOL0     N39933   5.793   2.897   9.034 -0.5996  0.5308 -0.0115
  290MOL0     N39934   5.831   2.981   9.121 -0.5117 -0.4371  0.6580
  290MOL0     C39935   5.232   3.123  10.007  0.9891  0.3936 -0.3051
  290MOL0     C39936   5.119   3.038  10.028 -0.8737 -0.3120 -0.2706
  290MOL0     C39937   4.946   2.630  10.187  0.7149 -0.5079  0.3806
  290MOL0     C39938   4.863   2.533  10.156  0.3585  0.3077  0.3681
  290MOL0     C39939   4.779   2.469  10.249 -0.7896  1.0653  0.9232
  290MOL0     C39940   4.776   2.510  10.378  0.9502  0.0810 -0.2067
  290MOL0     O39941   4.678   2.473  10.473 -0.2449  0.6896  0.9086
  290MOL0     C39942   4.682   2.332  10.524  0.0676 -0.3193  0.0956
  290MOL0     C39943   4.632   2.323  10.670  0.2629  0.0092 -0.3228
  290MOL0     C39944   4.697   2.425  10.772  0.3914  0.8155  0.2768
  290MOL0     C39945   4.679   2.380  10.925  0.3844 -0.2071  0.7598
  290MOL0     C39946   4.764   2.268  10.961  0.3369 -0.1198  0.7109
  290MOL0     C39947   4.857   2.192  11.003  0.0300  0.1015 -0.2678
  290MOL0     C39948   4.870   2.609  10.418  0.9756  0.8994  0.1479
  290MOL0     C39949   4.958   2.661  10.326  1.5700  0.8220  0.2107
  290MOL0     C39950   5.051   2.762  10.387  0.1291 -0.5068 -0.3182
  290MOL0     H39951   5.307   2.753  10.040  0.7594 -0.3775  0.9669
  290MOL0     H39952   5.497   2.916   9.980 -0.3020 -2.5760  0.3836
  290MOL0     H39953   5.648   3.096  10.008  3.1913  1.4684 -1.5323
  290MOL0     H39954   5.649   3.267   9.987 -2.0797  1.1133 -0.2667
  290MOL0     H39955   5.614   3.046   9.780 -4.6712  0.9328  0.7898
  290MOL0     H39956   5.582   3.225   9.743 -3.1517 -1.8226 -0.5628
  290MOL0     H39957   5.816   3.274   9.810 -2.1198  0.8588  0.0113
  290MOL0     H39958   5.845   3.106   9.825  0.6137  1.8084  0.0724
  290MOL0     H39959   5.934   3.149   9.631  0.4494 -2.4971  1.3577
  290MOL0     H39960   5.764   3.079   9.587 -0.7733 -1.0135  2.7243
  290MOL0     H39961   5.805   3.374   9.603 -1.3544 -1.2533  1.3521
  290MOL0     H39962   5.683   3.284   9.520  0.5243  2.1937 -1.4262
  290MOL0     H39963   5.863   3.394   9.368  0.1593  0.5110  0.5980
  290MOL0     H39964   5.978   3.288   9.451  0.2602  4.7562  1.7225
  290MOL0     H39965   5.869   3.085   9.367 -1.4335 -2.5112 -4.4050
  290MOL0     H39966   5.950   3.185   9.243 -0.6923 -1.0483 -0.1340
  290MOL0     H39967   5.657   3.207   9.289  0.1067  0.1171  0.6921
  290MOL0     H39968   5.744   3.273   9.153  0.5955 -1.5819 -1.6841
  290MOL0     H39969   5.522   3.082   9.075 -0.1707  1.4073 -1.2153
  290MOL0     H39970   5.488   2.803   9.004  1.1028  0.3427  1.9671
  290MOL0     H39971   5.629   2.719   8.931 -1.3807 -0.8019  1.1871
  290MOL0     H39972   5.537   2.973   8.796 -2.8658  0.2214 -0.6545
  290MOL0     H39973   5.632   2.834   8.746  0.5497 -0.1995 -0.6158
  290MOL0     H39974   5.435   2.826   8.614 -2.6800  3.2664  0.9665
  290MOL0     H39975   5.457   2.683   8.722  0.0282  0.4274 -0.2743
  290MOL0     H39976   5.289   2.768   8.870 -0.2448 -1.3117 -0.4636
  290MOL0     H39977   5.277   2.914   8.782 -0.4605  0.0559  1.7694
  290MOL0     H39978   5.260   2.946   8.533 -1.1266 -1.3118  2.4979
  290MOL0     H39979   5.073   3.109   8.316 -0.9730  0.1856 -3.2121
  290MOL0     H39980   5.148   3.028   8.190 -2.6892 -3.3249  1.1431
  290MOL0     H39981   5.256   3.079   8.330  1.1328 -3.4573  0.0396
  290MOL0     H39982   4.947   2.922   7.899  1.5442 -0.8680 -2.2121
  290MOL0     H39983   4.783   2.910   7.708 -2.3359 -1.9189 -1.5926
  290MOL0     H39984   4.749   2.517   7.609 -0.1911 -0.6789 -1.0590
  290MOL0     H39985   4.570   2.524   7.611 -1.8579  2.8375  0.8547
  290MOL0     H39986   4.581   2.649   7.381  1.3526  2.9218  0.5421
  290MOL0     H39987   4.746   2.648   7.392 -2.1445  2.6454 -1.7768
  290MOL0     H39988   4.745   2.389   7.404 -1.2559 -0.2695  0.6466
  290MOL0     H39989   4.687   2.457   7.252  0.1866 -2.9073 -0.3878
  290MOL0     H39990   4.453   2.447   7.310  0.6325  2.9007  1.9162
  290MOL0     H39991   4.495   2.365   7.466 -1.7178  2.7864 -0.4935
  290MOL0     H39992   4.535   2.258   7.181 -1.6153  0.3225 -0.5339
  290MOL0     H39993   4.550   2.156   7.333  1.2465 -1.0165 -0.5041
  290MOL0     H39994   4.290   2.299   7.252  0.7388  1.4369  1.9468
  290MOL0     H39995   4.314   2.174   7.367  2.8024 -0.7382 -0.1325
  290MOL0     H39996   4.377   2.001   7.219 -1.2101 -0.8135  0.4568
  290MOL0     H39997   4.375   2.106   7.070 -1.5433  0.1356 -0.4794
  290MOL0     H39998   4.196   1.975   7.046 -1.5558 -1.7060  0.4805
  290MOL0     H39999   4.131   2.129   7.095 -1.5013 -1.4611  1.6677
  290MOL0     H40000   4.672   2.522   7.825 -0.4838  0.7039  1.2140
  290MOL0     H40001   4.779   2.548   8.033 -2.6222 -0.3112 -0.8414
  290MOL0     H40002   4.930   2.634   8.348 -1.1609  1.0494 -1.0608
  290MOL0     H40003   5.030   2.590   8.564 -0.8630  0.5445 -0.4737
  290MOL0     H40004   5.212   3.229  10.010 -0.2940  0.1495  1.6007
  290MOL0     H40005   5.017   3.075  10.042 -0.9333 -1.3599  2.8186
  290MOL0     H40006   4.869   2.514  10.049  1.7446 -1.3616  0.6960
  290MOL0     H40007   4.708   2.394  10.213 -0.8394  2.3767 -1.9450
  290MOL0     H40008   4.617   2.277  10.456  1.2886 -3.0044  0.9458
  290MOL0     H40009   4.779   2.281  10.525 -0.0332 -0.5548 -1.0929
  290MOL0     H40010   4.639   2.223  10.712 -1.4978  0.6404  1.6600
  290MOL0     H40011   4.528   2.358  10.664  0.5117  0.7161 -0.7178
  290MOL0     H40012   4.802   2.454  10.758  0.2916  0.2752 -1.9584
  290MOL0     H40013   4.642   2.515  10.746 -0.5716 -0.4416 -2.4210
  290MOL0     H40014   4.571   2.365  10.941 -0.7070  5.8343  1.3930
  290MOL0     H40015   4.705   2.466  10.987 -2.1664  2.6080 -1.7237
  290MOL0     H40016   4.917   2.123  11.057 -0.3429 -0.0601 -0.0559
  290MOL0     H40017   4.885   2.631  10.524 -1.2178 -2.0640  1.2037
  290MOL0     H40018   5.154   2.759  10.351  0.1318  0.6981 -0.4729
  290MOL0     H40019   5.010   2.861  10.362 -3.5813 -1.0604  2.6258
  290MOL0     H40020   5.057   2.756  10.496 -1.7777 -1.3485 -0.2226
  291MOL0     O40021   5.285   5.864   4.012  0.5077 -0.4002 -0.8679
  291MOL0     C40022   5.167   5.853   4.008 -0.3341 -0.4732  0.6600
  291MOL0     O40023   5.087   5.796   4.101  0.3080  0.1069 -0.1352
  291MOL0     C40024   5.140   5.699   4.187 -1.2649  0.2307 -0.4173
  291MOL0     C40025   5.249   5.604   4.153  0.4687 -0.3324 -0.2706
  291MOL0     C40026   5.285   5.512   4.250  0.8404  0.0144  0.3827
  291MOL0     C40027   5.216   5.493   4.369 -0.2338 -0.1336 -0.1527
  291MOL0     O40028   5.248   5.394   4.464  0.3918 -0.1096  0.2557
  291MOL0     C40029   5.380   5.353   4.465  0.4630  0.6342  0.4948
  291MOL0     C40030   5.394   5.256   4.591  0.0695  0.4090  0.6389
  291MOL0     C40031   5.304   5.135   4.597  0.7766  0.7516 -0.0765
  291MOL0     C40032   5.334   5.043   4.474  0.0793 -0.6442 -0.9298
  291MOL0     C40033   5.248   4.920   4.480  0.0001 -0.0065  0.2912
  291MOL0     C40034   5.274   4.825   4.590 -0.4598 -0.1426  0.0353
  291MOL0     C40035   5.170   4.711   4.580  0.4439  0.1477 -0.3190
  291MOL0     C40036   5.176   4.631   4.712 -0.0007 -0.7811 -1.2810
  291MOL0     N40037   5.082   4.524   4.727  0.0832  0.1942 -0.6842
  291MOL0     C40038   4.944   4.530   4.739 -0.0101 -0.2786 -0.1380
  291MOL0     C40039   4.911   4.405   4.727  0.8108  0.5326 -0.1428
  291MOL0     C40040   4.769   4.349   4.724  0.1638 -0.5548 -0.2275
  291MOL0     C40041   4.691   4.423   4.621  0.1465  0.1627  0.1336
  291MOL0     C40042   4.555   4.359   4.609 -0.5923  0.5151  0.6822
  291MOL0     C40043   4.458   4.423   4.512 -0.1408 -0.5835  0.9830
  291MOL0     O40044   4.522   4.433   4.381  0.8844  0.2973 -0.3406
  291MOL0     C40045   4.448   4.487   4.275  0.2437 -0.2073 -1.1170
  291MOL0     C40046   4.502   4.472   4.149 -0.1938 -0.0425  0.4789
  291MOL0     C40047   4.441   4.509   4.036 -0.8431 -0.8800  0.1929
  291MOL0     C40048   4.521   4.482   3.901  0.5622  0.0087 -0.2721
  291MOL0     C40049   4.316   4.575   4.041  0.6368 -0.5195 -0.8319
  291MOL0     C40050   4.240   4.618   3.925  0.5147 -0.0598  0.2335
  291MOL0     O40051   4.177   4.737   3.921 -0.4686 -0.1640  0.0961
  291MOL0     C40052   4.117   4.775   3.808 -0.1010  0.1830 -0.6831
  291MOL0     C40053   3.988   4.835   3.821  0.6360  0.1732 -0.4537
  291MOL0     C40054   3.927   4.910   3.719  0.3816  0.4491 -0.3792
  291MOL0     C40055   3.985   4.917   3.594  0.1217  0.4748 -0.0554
  291MOL0     O40056   3.926   4.989   3.495  0.4511  0.6766 -0.7140
  291MOL0     C40057   3.786   5.018   3.489  0.0703 -0.3473 -0.6577
  291MOL0     C40058   3.759   5.121   3.383 -0.0009 -0.8766  0.3621
  291MOL0     C40059   3.816   5.077   3.250 -0.7976  0.0532  0.0657
  291MOL0     C40060   3.783   5.176   3.138 -0.2719 -0.7126 -1.2079
  291MOL0     C40061   3.847   5.131   3.004 -0.4654 -0.1258 -0.3433
  291MOL0     C40062   3.836   5.232   2.892 -0.4014 -0.1870  0.6945
  291MOL0     C40063   3.700   5.224   2.819 -0.3072  0.0756  0.2449
  291MOL0     C40064   3.679   5.331   2.712 -0.0884 -0.3153  0.1226
  291MOL0    Cl40065   3.598   5.462   2.784 -0.0126  0.0707  0.4414
  291MOL0     C40066   4.111   4.850   3.581 -0.1789 -0.2747 -0.3375
  291MOL0     C40067   4.184   4.787   3.685  0.4579  0.0146 -0.0006
  291MOL0     O40068   4.238   4.529   3.838 -0.3102 -0.2659  0.8485
  291MOL0     C40069   4.257   4.589   4.164  0.6984  0.1874  0.3613
  291MOL0     C40070   4.317   4.541   4.286 -0.4603  0.3077  1.4513
  291MOL0     N40071   5.022   4.327   4.707 -0.6568  1.5453 -0.1469
  291MOL0     N40072   5.123   4.395   4.706 -0.4913 -0.6134 -0.4543
  291MOL0     C40073   5.110   5.575   4.395  0.8251  0.6401  0.9595
  291MOL0     C40074   5.074   5.679   4.305 -0.0496 -0.4398  0.1499
  291MOL0     C40075   5.087   5.927   3.900 -0.1785  0.6831  0.2747
  291MOL0     C40076   4.952   5.943   3.932 -0.4096  0.3823  1.0995
  291MOL0     C40077   4.865   6.004   3.838 -0.1579 -0.5933 -0.1538
  291MOL0     C40078   4.912   6.056   3.717  0.2234  0.1382  0.3600
  291MOL0     O40079   4.834   6.112   3.619  0.6353 -0.1759 -0.2468
  291MOL0     C40080   4.701   6.070   3.607 -0.0554  0.6081  0.4651
  291MOL0     C40081   4.615   6.193   3.600  0.3916 -0.3414 -0.1223
  291MOL0     C40082   4.613   6.279   3.727 -0.0561 -0.1030  1.1015
  291MOL0     C40083   4.537   6.408   3.728 -0.4025 -0.2642  0.6270
  291MOL0     C40084   4.391   6.399   3.722 -0.7009 -0.2496  0.6740
  291MOL0     C40085   4.272   6.388   3.709  0.3830  0.2605  0.5444
  291MOL0     C40086   5.048   6.048   3.692 -0.6209 -0.4045 -0.1179
  291MOL0     C40087   5.137   5.974   3.778 -0.3489  1.5856 -0.0835
  291MOL0     C40088   5.279   5.961   3.731 -0.3671 -0.1755 -0.1666
  291MOL0     H40089   5.307   5.615   4.062  0.8770 -0.8916 -0.0838
  291MOL0     H40090   5.377   5.457   4.227 -1.2213 -2.6052 -2.5190
  291MOL0     H40091   5.440   5.444   4.464  1.0626  0.2429 -0.0056
  291MOL0     H40092   5.400   5.300   4.371 -2.9298 -0.0055 -0.0196
  291MOL0     H40093   5.495   5.217   4.608 -0.7006 -2.3357 -0.4973
  291MOL0     H40094   5.364   5.309   4.682  1.3886  3.0605 -0.3545
  291MOL0     H40095   5.324   5.080   4.689 -2.5892 -2.0845 -0.8413
  291MOL0     H40096   5.197   5.158   4.598  0.4104 -0.8926  0.5365
  291MOL0     H40097   5.304   5.100   4.386  1.9371 -1.7727 -2.3722
  291MOL0     H40098   5.436   5.013   4.448  0.6891  2.4677 -2.5455
  291MOL0     H40099   5.261   4.858   4.391 -0.7685 -1.5763  1.2148
  291MOL0     H40100   5.142   4.948   4.480  0.4897  1.9937  1.0267
  291MOL0     H40101   5.375   4.783   4.600 -0.3816  0.4648  2.5515
  291MOL0     H40102   5.252   4.883   4.680  0.3461  4.7902 -2.5883
  291MOL0     H40103   5.209   4.651   4.497  1.5392  0.1651  0.1638
  291MOL0     H40104   5.068   4.747   4.562 -0.7233 -2.4536  0.5750
  291MOL0     H40105   5.276   4.593   4.732  1.1838  0.2693 -4.5266
  291MOL0     H40106   5.163   4.702   4.794 -0.3616 -0.6104 -1.4799
  291MOL0     H40107   4.893   4.625   4.748  3.0971  1.3614  1.8714
  291MOL0     H40108   4.720   4.354   4.822 -2.1722  0.0375 -1.3406
  291MOL0     H40109   4.772   4.243   4.695 -1.6445 -0.7491  0.1344
  291MOL0     H40110   4.686   4.528   4.653  1.3436  0.3617 -0.2814
  291MOL0     H40111   4.742   4.413   4.525  2.1689  3.3004  0.7147
  291MOL0     H40112   4.577   4.258   4.573  1.0353  0.3921  1.9050
  291MOL0     H40113   4.516   4.345   4.710 -1.4145 -3.5721 -0.0097
  291MOL0     H40114   4.360   4.374   4.510  0.6095 -2.1880  1.6868
  291MOL0     H40115   4.440   4.524   4.550 -0.3665 -0.2420 -0.0020
  291MOL0     H40116   4.594   4.414   4.144  0.2848  0.7450 -0.1243
  291MOL0     H40117   4.503   4.380   3.864 -2.1040  0.8380 -1.5719
  291MOL0     H40118   4.626   4.506   3.917  1.0996 -1.9862 -0.5412
  291MOL0     H40119   4.473   4.555   3.835 -0.6107  0.0683  0.6012
  291MOL0     H40120   3.944   4.831   3.920 -0.1924  2.7856 -0.6467
  291MOL0     H40121   3.843   4.961   3.764  2.0411  1.2228  2.0589
  291MOL0     H40122   3.741   4.920   3.473  1.5446 -1.0864 -0.5078
  291MOL0     H40123   3.750   5.055   3.585  1.8239  2.7166 -1.0462
  291MOL0     H40124   3.651   5.135   3.373 -0.1542 -0.2556  2.4427
  291MOL0     H40125   3.793   5.219   3.415  1.1858 -1.3029  0.4690
  291MOL0     H40126   3.766   4.985   3.219  0.4039 -0.5999  0.0213
  291MOL0     H40127   3.924   5.058   3.255 -1.2285 -3.0672 -0.3193
  291MOL0     H40128   3.825   5.274   3.165  0.7032 -1.2474 -0.7456
  291MOL0     H40129   3.675   5.191   3.122  0.2216  0.4441 -4.2771
  291MOL0     H40130   3.952   5.119   3.035 -0.5556  0.3455  0.1679
  291MOL0     H40131   3.805   5.034   2.978 -1.8472  0.0813  0.9346
  291MOL0     H40132   3.913   5.211   2.817  0.2167  2.4724  0.5017
  291MOL0     H40133   3.844   5.334   2.929  1.5779  0.0480 -0.2494
  291MOL0     H40134   3.620   5.217   2.893 -1.4539 -0.7543 -1.0321
  291MOL0     H40135   3.700   5.127   2.768  1.2024 -0.6112  1.4834
  291MOL0     H40136   3.610   5.300   2.633 -0.9011  2.3362 -0.3075
  291MOL0     H40137   3.779   5.346   2.669 -1.1016  0.4404 -2.1597
  291MOL0     H40138   4.151   4.843   3.480 -0.2620 -2.3119 -0.2640
  291MOL0     H40139   4.277   4.731   3.672  0.0706 -0.6179 -0.0657
  291MOL0     H40140   4.158   4.631   4.176  0.5483 -0.1958  0.4910
  291MOL0     H40141   4.269   4.543   4.383  0.6019  0.5002  1.9749
  291MOL0     H40142   5.056   5.563   4.489  0.3052 -0.8971  0.4827
  291MOL0     H40143   4.987   5.742   4.321  1.3821  2.2439 -1.8517
  291MOL0     H40144   4.904   5.905   4.022 -1.1446 -1.5818 -0.0523
  291MOL0     H40145   4.757   6.004   3.850 -0.2086 -1.1251 -0.5865
  291MOL0     H40146   4.693   6.010   3.515 -1.6983  0.9058  0.3771
  291MOL0     H40147   4.657   5.998   3.677  0.0551 -4.7322 -4.2067
  291MOL0     H40148   4.516   6.151   3.578  0.2402 -1.8298  2.9153
  291MOL0     H40149   4.643   6.260   3.517 -1.4459  0.3339 -0.2500
  291MOL0     H40150   4.575   6.220   3.811  0.4865  0.5352  1.8116
  291MOL0     H40151   4.719   6.299   3.744  0.8895 -4.1005  0.8038
  291MOL0     H40152   4.580   6.479   3.657  0.8913  0.4120  2.0300
  291MOL0     H40153   4.572   6.456   3.820  2.6584  2.1658 -1.5769
  291MOL0     H40154   4.168   6.385   3.683  0.2700 -0.7818  1.0545
  291MOL0     H40155   5.077   6.097   3.600  2.6442  1.3480  1.6611
  291MOL0     H40156   5.310   5.856   3.739 -1.1293 -0.2742  2.5093
  291MOL0     H40157   5.277   6.000   3.629 -2.1373 -1.2004 -0.5738
  291MOL0     H40158   5.331   6.027   3.801 -4.1950  3.0565 -0.0382
  292MOL0     O40159   1.812   7.191   1.539 -0.0018  0.4099 -0.3302
  292MOL0     C40160   1.822   7.097   1.464 -0.3714  0.0532 -0.0126
  292MOL0     O40161   1.924   7.003   1.463  0.4897  0.6183 -0.0023
  292MOL0     C40162   2.021   7.005   1.561  0.5991 -0.6850  0.6503
  292MOL0     C40163   2.039   6.893   1.639  0.0725  0.6410 -0.3354
  292MOL0     C40164   2.133   6.907   1.743  1.4391  0.7336 -0.4869
  292MOL0     C40165   2.219   7.013   1.760  0.3771  0.4648  0.1982
  292MOL0     O40166   2.309   7.014   1.870 -0.1296  0.1019 -0.6554
  292MOL0     C40167   2.389   7.138   1.891  0.5711  0.1971  0.0455
  292MOL0     C40168   2.487   7.135   2.007  0.8217 -0.6603 -0.0543
  292MOL0     C40169   2.601   7.031   1.992  0.5842 -0.0910  0.1559
  292MOL0     C40170   2.679   7.050   2.121  0.3976 -0.1649 -0.2750
  292MOL0     C40171   2.814   6.975   2.120  0.2817 -0.0598 -0.4569
  292MOL0     C40172   2.898   6.996   2.247 -0.2500  0.7305 -0.0740
  292MOL0     C40173   3.025   6.916   2.248  0.0381  0.2067  0.0426
  292MOL0     C40174   2.998   6.762   2.273 -0.8199 -0.2617  0.2455
  292MOL0     N40175   3.116   6.672   2.259  0.6506  0.3513  0.1290
  292MOL0     C40176   3.213   6.681   2.162 -0.3442 -1.4967 -0.7156
  292MOL0     C40177   3.314   6.599   2.202  0.6126  0.8204  0.1243
  292MOL0     C40178   3.447   6.577   2.121  0.1036  0.1838 -0.2937
  292MOL0     C40179   3.566   6.663   2.174  0.0137 -0.3297  0.7055
  292MOL0     C40180   3.702   6.588   2.161  0.4286 -0.5938  0.8770
  292MOL0     C40181   3.720   6.490   2.275  0.1778 -0.5940  0.2534
  292MOL0     O40182   3.755   6.554   2.399 -0.0513 -0.0576  0.3287
  292MOL0     C40183   3.881   6.563   2.449  0.4242  0.6164  1.2140
  292MOL0     C40184   3.906   6.563   2.584  0.1792 -0.1617  0.3697
  292MOL0     C40185   4.028   6.576   2.644 -0.3097  1.2926  0.4809
  292MOL0     C40186   4.039   6.596   2.795 -0.7648 -0.7872 -0.3099
  292MOL0     C40187   4.140   6.577   2.563  0.3719  0.1063  0.6937
  292MOL0     C40188   4.277   6.575   2.607 -0.3693 -0.6179 -0.6017
  292MOL0     O40189   4.301   6.539   2.744 -0.1756 -0.0382 -0.4371
  292MOL0     C40190   4.418   6.568   2.806 -0.1911  0.0480  0.0865
  292MOL0     C40191   4.474   6.695   2.815  1.3994 -0.8456 -0.2445
  292MOL0     C40192   4.600   6.719   2.879 -0.4676  0.7816 -0.2109
  292MOL0     C40193   4.677   6.615   2.939 -0.3983  0.9551  0.0474
  292MOL0     O40194   4.793   6.653   2.992  0.0310 -0.8198  0.1656
  292MOL0     C40195   4.869   6.544   3.050 -0.4227  0.5545 -0.2223
  292MOL0     C40196   5.015   6.580   3.050 -0.2779  0.1947  0.9945
  292MOL0     C40197   5.050   6.701   3.134 -0.2635  0.6687 -0.4144
  292MOL0     C40198   5.201   6.729   3.137  0.1703  0.2113  0.0607
  292MOL0     C40199   5.224   6.840   3.234  0.1913  0.3067 -0.0350
  292MOL0     C40200   5.371   6.870   3.232 -0.4528  0.0705 -0.4289
  292MOL0     C40201   5.405   6.992   3.324  0.4463 -0.3358  0.0302
  292MOL0     C40202   5.492   6.955   3.444  0.4452  0.3085 -0.5022
  292MOL0    Cl40203   5.649   6.882   3.396  0.0820  0.1222  0.7217
  292MOL0     C40204   4.622   6.484   2.925 -0.1390 -0.1888 -0.4609
  292MOL0     C40205   4.503   6.462   2.858 -0.9843 -0.0280 -0.0520
  292MOL0     O40206   4.356   6.615   2.519  0.6427  0.2126 -0.5314
  292MOL0     C40207   4.120   6.565   2.420  0.1729 -0.0706 -0.2167
  292MOL0     C40208   3.995   6.560   2.365 -0.2992 -0.0427 -0.8473
  292MOL0     N40209   3.263   6.536   2.314 -0.0472 -0.0434 -0.1414
  292MOL0     N40210   3.163   6.594   2.358  0.5215 -1.0199  0.1113
  292MOL0     C40211   2.212   7.115   1.668  0.8728 -0.2209  0.0706
  292MOL0     C40212   2.104   7.114   1.579 -0.5487 -0.2725 -0.8007
  292MOL0     C40213   1.727   7.086   1.358 -0.4157 -0.4819  1.2622
  292MOL0     C40214   1.736   7.182   1.250  0.2608 -0.1831 -0.2888
  292MOL0     C40215   1.640   7.170   1.146  0.8116  0.3178  0.8709
  292MOL0     C40216   1.538   7.076   1.143 -0.4983  0.7291  0.7427
  292MOL0     O40217   1.472   7.081   1.022 -0.1747  0.3171  0.1195
  292MOL0     C40218   1.363   7.003   0.980  1.3684  0.0335  0.3343
  292MOL0     C40219   1.228   7.064   1.027 -0.0361  0.2439 -0.2072
  292MOL0     C40220   1.114   6.966   1.007  1.5522 -0.5840 -0.1824
  292MOL0     C40221   1.127   6.815   1.034 -0.5438 -1.0457  1.0670
  292MOL0     C40222   1.162   6.788   1.171 -0.1097 -0.1359  0.4542
  292MOL0     C40223   1.192   6.772   1.284  0.8145 -0.1686 -0.2874
  292MOL0     C40224   1.521   6.993   1.250 -0.3842 -0.7042 -1.0603
  292MOL0     C40225   1.616   6.998   1.353  0.0987  0.7221 -0.3902
  292MOL0     C40226   1.605   6.905   1.468 -0.9237  0.0891  1.2260
  292MOL0     H40227   1.984   6.801   1.623  1.9157 -0.6270  0.2125
  292MOL0     H40228   2.142   6.824   1.813 -1.5575 -0.5006 -1.4048
  292MOL0     H40229   2.317   7.218   1.907  1.7893  1.6088 -1.1944
  292MOL0     H40230   2.441   7.153   1.795  4.0166 -0.4794  1.6272
  292MOL0     H40231   2.535   7.233   2.010 -1.0473  0.4806 -2.7860
  292MOL0     H40232   2.425   7.111   2.094 -1.5160  0.9146 -1.1474
  292MOL0     H40233   2.551   6.935   1.976  0.7686 -0.2422  0.4739
  292MOL0     H40234   2.657   7.049   1.900 -1.1759 -0.9416 -1.1362
  292MOL0     H40235   2.702   7.157   2.122 -0.5263  0.0691 -1.8686
  292MOL0     H40236   2.620   7.028   2.211 -1.1806  0.7902 -1.0194
  292MOL0     H40237   2.876   7.019   2.041  0.9568  0.2385  0.2168
  292MOL0     H40238   2.790   6.869   2.108 -4.3978  0.6085  1.2484
  292MOL0     H40239   2.924   7.101   2.262 -1.9491  1.4801 -1.9657
  292MOL0     H40240   2.837   6.968   2.334  1.2603 -0.8449  0.5462
  292MOL0     H40241   3.090   6.951   2.329  0.7269 -2.2974  0.6515
  292MOL0     H40242   3.083   6.935   2.157  1.8159  3.1186  1.6479
  292MOL0     H40243   2.960   6.751   2.376 -1.0630  0.2149  0.2108
  292MOL0     H40244   2.921   6.733   2.200 -0.1709  1.0785 -1.0053
  292MOL0     H40245   3.204   6.754   2.082 -1.5415 -2.6625 -1.6967
  292MOL0     H40246   3.427   6.589   2.014  1.8143 -1.3974 -0.8481
  292MOL0     H40247   3.466   6.469   2.123  0.9230  0.2412 -2.5747
  292MOL0     H40248   3.565   6.754   2.113  0.7518 -3.1621 -4.0281
  292MOL0     H40249   3.537   6.687   2.276 -0.0586 -1.6463  1.0086
  292MOL0     H40250   3.707   6.535   2.065 -4.3695  0.1608 -0.0142
  292MOL0     H40251   3.781   6.664   2.154 -1.5834  1.7458  2.2621
  292MOL0     H40252   3.624   6.440   2.291  0.4774 -1.5768 -0.8548
  292MOL0     H40253   3.788   6.414   2.237  2.6862  0.8801  1.5751
  292MOL0     H40254   3.814   6.563   2.641 -0.4757 -0.1969 -0.6526
  292MOL0     H40255   4.065   6.502   2.845 -2.5626  0.1762  2.7299
  292MOL0     H40256   3.949   6.642   2.838 -0.4657 -1.2511  0.8667
  292MOL0     H40257   4.114   6.673   2.812 -2.0515  0.7728 -1.4066
  292MOL0     H40258   4.433   6.782   2.763  2.9817 -1.5008 -2.7973
  292MOL0     H40259   4.652   6.812   2.862  0.4053  0.2323 -0.5986
  292MOL0     H40260   4.827   6.523   3.149 -0.1899  0.3491 -0.1656
  292MOL0     H40261   4.855   6.456   2.986  0.4757  1.3238 -1.5114
  292MOL0     H40262   5.075   6.493   3.081  1.4934  1.0797  0.2052
  292MOL0     H40263   5.052   6.596   2.948  2.7017 -0.1046  1.9137
  292MOL0     H40264   5.021   6.680   3.237 -1.7422 -2.0566 -1.2779
  292MOL0     H40265   4.987   6.786   3.106 -2.9388 -1.1842 -0.4394
  292MOL0     H40266   5.235   6.747   3.034  0.7132  0.7822  0.3284
  292MOL0     H40267   5.254   6.638   3.165  0.1940 -0.1024 -0.9691
  292MOL0     H40268   5.163   6.927   3.209  0.1701  0.6648  1.2130
  292MOL0     H40269   5.205   6.801   3.335  1.5969  2.6162  1.1908
  292MOL0     H40270   5.397   6.890   3.128 -1.3842  0.5151 -0.5923
  292MOL0     H40271   5.430   6.783   3.260  1.4374  0.8965 -1.6858
  292MOL0     H40272   5.313   7.029   3.370  1.7207  1.0216  1.5925
  292MOL0     H40273   5.445   7.080   3.275  1.7511 -0.3087  1.0965
  292MOL0     H40274   5.445   6.884   3.513  0.8303  1.0400  0.5386
  292MOL0     H40275   5.514   7.043   3.504  1.0588  0.4276 -0.8888
  292MOL0     H40276   4.672   6.398   2.967  0.0526 -0.5312 -1.3612
  292MOL0     H40277   4.469   6.360   2.863  1.1416 -0.7106  2.8609
  292MOL0     H40278   4.197   6.561   2.344  0.8326 -0.9995  0.4808
  292MOL0     H40279   3.991   6.574   2.258 -1.2148 -0.4627 -0.8774
  292MOL0     H40280   2.277   7.202   1.663  0.5995  0.0108  0.4825
  292MOL0     H40281   2.102   7.187   1.499  2.9851  0.6869 -0.1686
  292MOL0     H40282   1.801   7.268   1.240  0.6959 -0.4482  0.2193
  292MOL0     H40283   1.624   7.252   1.078 -0.9753  1.5889  2.7148
  292MOL0     H40284   1.356   6.991   0.871 -3.4833 -1.9410  0.6281
  292MOL0     H40285   1.377   6.903   1.021  0.4710 -0.0374  0.4913
  292MOL0     H40286   1.222   7.157   0.969 -2.1652 -1.1039 -2.2603
  292MOL0     H40287   1.230   7.091   1.134  2.0774  3.0816 -0.8294
  292MOL0     H40288   1.026   6.997   1.063  0.4937 -0.7126 -1.7227
  292MOL0     H40289   1.094   6.975   0.900 -1.9871  2.5260  0.5336
  292MOL0     H40290   1.203   6.767   0.971  1.2252  2.7744  0.0502
  292MOL0     H40291   1.038   6.758   1.003  0.2525 -1.1457 -1.2877
  292MOL0     H40292   1.217   6.769   1.388  2.8122 -1.1449 -0.7366
  292MOL0     H40293   1.429   6.936   1.255 -0.8074 -0.1137 -1.8737
  292MOL0     H40294   1.621   6.961   1.560 -1.0542 -0.9013  1.8599
  292MOL0     H40295   1.512   6.849   1.468  0.3079 -2.1803 -0.9824
  292MOL0     H40296   1.684   6.831   1.457  1.1173  2.3463 -0.6973
  293MOL0     O40297  10.509   3.007  10.595 -0.1104  0.2820 -0.4834
  293MOL0     C40298  10.411   3.056  10.548  1.0172  0.3465  0.2811
  293MOL0     O40299  10.360   3.024  10.427 -0.1767  0.2879 -0.1501
  293MOL0     C40300  10.435   2.948  10.337 -0.0690  0.2543 -0.4901
  293MOL0     C40301  10.373   2.840  10.276  0.4736 -0.2820 -0.5201
  293MOL0     C40302  10.441   2.759  10.200 -0.6296 -0.3601  0.0883
  293MOL0     C40303  10.579   2.779  10.167  0.6402  0.7970  0.1586
  293MOL0     O40304  10.641   2.686  10.084  0.5358  1.5065  0.1118
  293MOL0     C40305  10.780   2.654  10.119  0.5542  0.5408 -0.3292
  293MOL0     C40306  10.798   2.509  10.088 -0.7714  1.6503  0.6730
  293MOL0     C40307  10.948   2.472  10.106 -0.5818 -0.0496 -1.0153
  293MOL0     C40308  10.964   2.322  10.116  0.0724 -0.8629 -0.8531
  293MOL0     C40309  11.117   2.289  10.125  0.7381 -0.9536 -0.2028
  293MOL0     C40310  11.145   2.147  10.169  0.7148  0.3506  0.7570
  293MOL0     C40311  11.289   2.096  10.171 -0.2845  0.0767 -0.2333
  293MOL0     C40312  11.357   2.184  10.279 -0.0370 -1.0621 -0.1659
  293MOL0     N40313  11.478   2.115  10.323  0.4902  0.8899 -0.1088
  293MOL0     C40314  11.578   2.063  10.246 -0.3205 -0.2947 -0.4236
  293MOL0     C40315  11.679   2.036  10.329 -0.8681 -0.4522 -0.2410
  293MOL0     C40316  11.821   1.989  10.282  0.2710 -0.2337 -0.5589
  293MOL0     C40317  11.848   1.851  10.325  0.1809 -0.2188  0.1238
  293MOL0     C40318  11.745   1.743  10.262 -0.0404  0.1894 -0.1077
  293MOL0     C40319  11.807   1.604  10.268  0.5311 -0.4827  0.2992
  293MOL0     O40320  11.709   1.510  10.207  0.6547 -0.3943 -0.1832
  293MOL0     C40321  11.761   1.415  10.125 -0.0530  0.0090  0.5541
  293MOL0     C40322  11.664   1.329  10.080 -0.7182 -0.0129  0.6658
  293MOL0     C40323  11.689   1.220   9.998 -0.2046 -0.3463 -0.9621
  293MOL0     C40324  11.571   1.133   9.966  0.1914 -0.2902 -0.6524
  293MOL0     C40325  11.818   1.205   9.951 -0.3556 -0.2808  0.4442
  293MOL0     C40326  11.840   1.105   9.845  0.2268  0.1842  0.0398
  293MOL0     O40327  11.883   1.153   9.725  0.6211  0.3035  0.3710
  293MOL0     C40328  11.930   1.075   9.625 -0.3987 -0.2523  0.4777
  293MOL0     C40329  11.885   0.946   9.588 -0.9126 -0.3657 -0.2176
  293MOL0     C40330  11.944   0.884   9.478  0.2989 -0.2419  0.3887
  293MOL0     C40331  12.039   0.952   9.400 -0.3727  0.7738 -0.7802
  293MOL0     O40332  12.094   0.906   9.279  0.9467 -0.1429 -0.1484
  293MOL0     C40333  12.024   0.800   9.216 -0.5839 -0.1193  0.7431
  293MOL0     C40334  12.115   0.760   9.094  0.6350 -0.2188  0.1249
  293MOL0     C40335  12.144   0.867   8.992 -1.1207  0.0029 -0.0363
  293MOL0     C40336  12.253   0.837   8.890  0.3707  0.1155  0.7964
  293MOL0     C40337  12.235   0.928   8.767 -0.7049  0.7189  0.4367
  293MOL0     C40338  12.363   0.912   8.685 -0.4541  0.5808 -0.6131
  293MOL0     C40339  12.369   1.024   8.586  0.2212  0.2847 -0.3300
  293MOL0     C40340  12.482   1.000   8.479  0.6750  0.1350 -0.3271
  293MOL0    Cl40341  12.500   1.154   8.391 -0.5449 -0.1671  0.1732
  293MOL0     C40342  12.078   1.084   9.438 -0.0615 -0.0705 -0.3296
  293MOL0     C40343  12.028   1.150   9.552  0.1115  0.4694  0.1768
  293MOL0     O40344  11.820   0.988   9.867 -0.4946  0.3439  0.1036
  293MOL0     C40345  11.924   1.291   9.984  0.0692  0.6710 -0.3709
  293MOL0     C40346  11.895   1.387  10.080 -0.3896 -1.3018  0.1180
  293MOL0     N40347  11.637   2.076  10.453 -0.0259  0.8278 -0.1630
  293MOL0     N40348  11.522   2.125  10.447 -0.1462 -0.0811  0.0848
  293MOL0     C40349  10.644   2.890  10.221 -0.0767 -0.4470 -0.9312
  293MOL0     C40350  10.576   2.974  10.309 -0.0922  0.4588  0.4361
  293MOL0     C40351  10.317   3.147  10.634 -0.1872  0.0497  1.0815
  293MOL0     C40352  10.190   3.192  10.570  0.2165  0.1379  0.1220
  293MOL0     C40353  10.099   3.271  10.638  0.8139 -0.1536 -0.0253
  293MOL0     C40354  10.122   3.317  10.768  0.8960 -0.8491  0.2384
  293MOL0     O40355  10.010   3.365  10.834 -0.4325 -0.5691 -0.3609
  293MOL0     C40356  10.024   3.411  10.972  0.2081 -0.2557 -0.3130
  293MOL0     C40357   9.887   3.483  11.009 -0.1384  0.0362  0.0192
  293MOL0     C40358   9.870   3.614  10.931  0.2107  0.5844  0.2724
  293MOL0     C40359   9.725   3.668  10.953  0.5853  0.5962  0.3007
  293MOL0     C40360   9.624   3.586  10.900  0.0023  0.4238  0.7728
  293MOL0     C40361   9.533   3.513  10.867  0.3504  0.1897 -0.4826
  293MOL0     C40362  10.245   3.279  10.832  1.5627  0.3650 -0.1842
  293MOL0     C40363  10.331   3.190  10.766 -0.9324 -0.6879 -0.2768
  293MOL0     C40364  10.474   3.170  10.830 -1.4661  0.1576  0.1750
  293MOL0     H40365  10.268   2.828  10.300  0.1925  3.9595  1.2648
  293MOL0     H40366  10.378   2.685  10.152  1.1994 -0.8025 -1.7950
  293MOL0     H40367  10.806   2.677  10.222  0.3130  3.2113 -0.7916
  293MOL0     H40368  10.858   2.706  10.062  0.4541 -0.9354 -1.8843
  293MOL0     H40369  10.736   2.440  10.145  1.9346 -1.2390  0.4501
  293MOL0     H40370  10.787   2.494   9.980 -0.7512 -0.5517  0.9257
  293MOL0     H40371  11.010   2.519  10.030  0.2181  0.0313 -0.3268
  293MOL0     H40372  10.999   2.500  10.198  2.2966 -1.2479 -2.1356
  293MOL0     H40373  10.919   2.278  10.206 -0.4311 -0.3257 -0.8390
  293MOL0     H40374  10.922   2.279  10.025 -1.4102 -1.8392  0.2326
  293MOL0     H40375  11.167   2.362  10.188  0.0251 -1.5956  1.1444
  293MOL0     H40376  11.148   2.305  10.021 -0.6079  0.4077 -0.4222
  293MOL0     H40377  11.105   2.122  10.268  0.6627 -1.2364  0.3655
  293MOL0     H40378  11.099   2.074  10.103 -2.2801  1.4802  1.4470
  293MOL0     H40379  11.335   2.112  10.073 -2.6158 -0.8397 -1.5580
  293MOL0     H40380  11.282   1.988  10.187 -1.8509  0.1271 -0.3900
  293MOL0     H40381  11.394   2.280  10.242 -1.5989  0.7089  2.5884
  293MOL0     H40382  11.298   2.209  10.367  0.6158 -3.4087  1.0365
  293MOL0     H40383  11.563   2.054  10.138 -1.4620  3.1043 -0.6708
  293MOL0     H40384  11.891   2.049  10.341 -0.7812 -0.0651  0.5438
  293MOL0     H40385  11.832   2.001  10.174  0.6858 -1.7402 -0.7050
  293MOL0     H40386  11.949   1.822  10.293  1.0802  0.9021  1.8596
  293MOL0     H40387  11.835   1.850  10.433 -1.0120  0.2869  0.0077
  293MOL0     H40388  11.653   1.733  10.321  1.2858  0.4562  2.1349
  293MOL0     H40389  11.725   1.768  10.158 -1.6198 -2.8861 -0.6460
  293MOL0     H40390  11.911   1.608  10.233  0.9788  0.1102  1.6424
  293MOL0     H40391  11.815   1.577  10.374 -0.3219  1.3050  0.8568
  293MOL0     H40392  11.559   1.345  10.103 -1.0773 -0.8586 -0.3560
  293MOL0     H40393  11.571   1.096   9.863  0.2712  0.8881 -1.0861
  293MOL0     H40394  11.476   1.182   9.988  0.5033  0.8003 -1.6393
  293MOL0     H40395  11.580   1.040  10.023 -1.4453 -0.6879 -0.9923
  293MOL0     H40396  11.809   0.892   9.644  1.1714 -1.3831  1.7755
  293MOL0     H40397  11.904   0.787   9.451 -1.6849  0.6637 -0.0510
  293MOL0     H40398  12.018   0.712   9.281  1.5822 -0.1333  1.0185
  293MOL0     H40399  11.930   0.822   9.166  0.7165  0.0671 -1.8134
  293MOL0     H40400  12.206   0.716   9.136  0.5748 -1.0548 -0.5868
  293MOL0     H40401  12.059   0.680   9.043  2.9951 -1.5743 -0.4695
  293MOL0     H40402  12.175   0.953   9.051  0.8016 -0.4232 -0.3498
  293MOL0     H40403  12.051   0.889   8.938 -0.8598 -4.2677 -2.7249
  293MOL0     H40404  12.253   0.735   8.851 -0.6406  0.4815 -0.2163
  293MOL0     H40405  12.353   0.846   8.933  0.7971  1.7338 -0.4393
  293MOL0     H40406  12.150   0.899   8.705 -0.5978  0.0734  0.5812
  293MOL0     H40407  12.223   1.030   8.805 -0.2387  0.1422  2.2575
  293MOL0     H40408  12.366   0.820   8.626 -0.8152  1.0101 -1.3162
  293MOL0     H40409  12.455   0.919   8.744  0.1186 -0.1197 -1.4091
  293MOL0     H40410  12.393   1.120   8.632  2.5132 -0.0707 -0.6726
  293MOL0     H40411  12.280   1.026   8.522 -0.3703 -1.7969  0.3361
  293MOL0     H40412  12.454   0.920   8.411  1.3915 -0.8711  0.5314
  293MOL0     H40413  12.572   0.965   8.529 -0.1655 -1.7129 -0.0098
  293MOL0     H40414  12.155   1.123   9.373 -3.2490 -0.0637 -4.5177
  293MOL0     H40415  12.066   1.250   9.569  0.7495  0.0707  1.1206
  293MOL0     H40416  12.020   1.286   9.933  0.0602  4.6284 -1.0659
  293MOL0     H40417  11.960   1.471  10.101  1.8562 -1.7010 -4.0226
  293MOL0     H40418  10.750   2.902  10.201  0.7785 -0.1799  2.9270
  293MOL0     H40419  10.621   3.061  10.356  0.0912  1.1059 -0.8855
  293MOL0     H40420  10.170   3.155  10.470  5.4011 -0.5322 -0.9684
  293MOL0     H40421  10.010   3.278  10.576  2.7045 -1.5238 -3.1331
  293MOL0     H40422  10.052   3.332  11.042  0.2625 -0.0216 -0.0693
  293MOL0     H40423  10.105   3.484  10.977  0.1605 -0.2266  0.0607
  293MOL0     H40424   9.885   3.509  11.115  1.9161  0.6674 -0.0514
  293MOL0     H40425   9.805   3.416  10.983 -0.4178  0.2482  0.3461
  293MOL0     H40426   9.945   3.689  10.959  1.2420 -0.1209 -0.5143
  293MOL0     H40427   9.876   3.595  10.823 -1.6996 -1.6459  0.4623
  293MOL0     H40428   9.720   3.760  10.894 -0.7991  0.2853 -0.0988
  293MOL0     H40429   9.696   3.684  11.057 -2.7635 -1.5487 -0.1570
  293MOL0     H40430   9.457   3.454  10.821 -0.6687  1.9343 -1.1291
  293MOL0     H40431  10.268   3.316  10.932  1.6628 -1.4343  0.4985
  293MOL0     H40432  10.481   3.215  10.930  0.1768 -1.8016  1.0021
  293MOL0     H40433  10.510   3.067  10.837  0.8633  0.9499  0.7673
  293MOL0     H40434  10.547   3.219  10.765 -3.2901  1.2273 -1.1802
  294MOL0     O40435   6.983   2.891  10.655 -0.0293  0.2711  0.2611
  294MOL0     C40436   6.916   2.908  10.556  0.0969  0.0506  0.5434
  294MOL0     O40437   6.958   2.953  10.430 -0.6464 -0.0230 -0.3159
  294MOL0     C40438   7.081   3.010  10.407  0.0192  1.0192  0.1004
  294MOL0     C40439   7.087   3.071  10.281 -0.0642 -0.9546  0.3008
  294MOL0     C40440   7.202   3.141  10.244 -0.4097 -0.2426  0.4594
  294MOL0     C40441   7.311   3.159  10.330 -0.3490 -0.3694  0.1033
  294MOL0     O40442   7.417   3.234  10.288 -0.5724  0.2827 -0.2038
  294MOL0     C40443   7.540   3.228  10.365 -0.3466 -0.2126  0.4481
  294MOL0     C40444   7.662   3.233  10.274  1.4984 -0.2130 -0.4168
  294MOL0     C40445   7.803   3.231  10.336  1.3799 -0.4294 -0.0999
  294MOL0     C40446   7.895   3.189  10.232 -0.7019 -0.9859  0.7121
  294MOL0     C40447   8.035   3.173  10.288 -0.1596 -0.0808 -0.6800
  294MOL0     C40448   8.133   3.096  10.199  0.7127  0.2840  0.3851
  294MOL0     C40449   8.269   3.105  10.252 -0.6424  0.3722 -0.3126
  294MOL0     C40450   8.358   2.991  10.188 -0.5377  0.7166 -0.6364
  294MOL0     N40451   8.496   3.007  10.219 -0.0950  0.1542 -0.0373
  294MOL0     C40452   8.574   3.119  10.186  0.9736 -0.2015 -0.1307
  294MOL0     C40453   8.692   3.087  10.234 -0.2851  0.5510  0.7992
  294MOL0     C40454   8.813   3.164  10.216 -0.6682 -0.3409  0.6857
  294MOL0     C40455   8.927   3.076  10.163  0.2711 -0.4331  0.4716
  294MOL0     C40456   9.055   3.155  10.136 -0.8557  0.9242  0.2093
  294MOL0     C40457   9.182   3.090  10.205  0.1201 -0.1398  0.5562
  294MOL0     O40458   9.299   3.174  10.182  0.2591 -0.0466  0.0789
  294MOL0     C40459   9.425   3.128  10.227 -0.0770 -0.5932 -1.1191
  294MOL0     C40460   9.533   3.208  10.199  0.0926  0.0522 -0.0187
  294MOL0     C40461   9.658   3.181  10.256  1.5508 -0.3158  0.5375
  294MOL0     C40462   9.764   3.283  10.230  0.2995  0.2500  0.5250
  294MOL0     C40463   9.673   3.066  10.329 -0.5636 -0.0107 -0.9800
  294MOL0     C40464   9.813   3.019  10.383  1.2327 -1.3017  0.2566
  294MOL0     O40465   9.810   2.912  10.452 -0.1892 -0.1234 -0.3028
  294MOL0     C40466   9.931   2.853  10.461 -0.5861  0.4098  0.4611
  294MOL0     C40467  10.027   2.885  10.560 -0.5347  0.1938  1.2170
  294MOL0     C40468  10.141   2.809  10.578 -0.9077  0.6442  0.7945
  294MOL0     C40469  10.165   2.693  10.503  0.6347 -0.5906  0.6554
  294MOL0     O40470  10.276   2.614  10.516  0.5503  0.2606 -0.0313
  294MOL0     C40471  10.360   2.621  10.634  0.0014  0.9252 -0.5940
  294MOL0     C40472  10.450   2.499  10.667  0.6651 -0.3308  0.3344
  294MOL0     C40473  10.361   2.390  10.746 -0.7206 -0.4187  0.6471
  294MOL0     C40474  10.445   2.268  10.791 -0.8935 -0.0548  0.2054
  294MOL0     C40475  10.551   2.296  10.899  0.2405 -0.6879  0.0321
  294MOL0     C40476  10.613   2.170  10.971  1.0302  0.1766  0.5977
  294MOL0     C40477  10.750   2.192  11.032 -0.0342 -0.3140  0.9048
  294MOL0     C40478  10.823   2.082  11.107  0.9479  0.3906 -0.2918
  294MOL0    Cl40479  10.829   1.940  10.991  0.0128 -0.0448  0.3609
  294MOL0     C40480  10.072   2.660  10.404 -0.6531  0.0760 -0.1957
  294MOL0     C40481   9.962   2.745  10.382 -1.0802  0.3191  0.3321
  294MOL0     O40482   9.913   3.078  10.346  0.2830 -0.3654  0.1765
  294MOL0     C40483   9.564   2.976  10.358  0.5074 -0.3864 -0.0611
  294MOL0     C40484   9.439   3.015  10.303  0.1364  0.5062  0.4154
  294MOL0     N40485   8.689   2.966  10.294 -0.2987  0.5640 -0.1495
  294MOL0     N40486   8.566   2.920  10.298  0.4234  0.1845 -0.2772
  294MOL0     C40487   7.302   3.103  10.458  0.3836  0.2079  0.1689
  294MOL0     C40488   7.186   3.030  10.494 -0.0725  0.4393  0.3768
  294MOL0     C40489   6.774   2.862  10.550 -0.7464 -0.2112 -0.6496
  294MOL0     C40490   6.713   2.878  10.425  0.1120  0.1913  0.9230
  294MOL0     C40491   6.575   2.860  10.413 -0.5687 -0.6358  1.1821
  294MOL0     C40492   6.495   2.827  10.520 -0.2845 -0.7373 -0.2983
  294MOL0     O40493   6.359   2.827  10.496 -0.6203 -0.3903  0.8030
  294MOL0     C40494   6.261   2.861  10.593 -0.1371  0.2721  0.3412
  294MOL0     C40495   6.147   2.953  10.555  0.6020  0.0512  0.7960
  294MOL0     C40496   6.036   2.866  10.495 -0.0126 -0.2183  0.4585
  294MOL0     C40497   5.916   2.956  10.460 -0.9717  0.1586  0.2673
  294MOL0     C40498   5.794   2.891  10.405  0.1298  0.5762 -0.9722
  294MOL0     C40499   5.696   2.839  10.367  0.5301 -0.1531 -0.2865
  294MOL0     C40500   6.558   2.805  10.649 -0.1540 -0.0096 -0.3853
  294MOL0     C40501   6.692   2.823  10.665  0.5335 -0.1298 -0.3400
  294MOL0     C40502   6.746   2.812  10.810  0.8805  0.4162 -0.0349
  294MOL0     H40503   7.006   3.060  10.209  0.1737  0.6645 -0.2676
  294MOL0     H40504   7.202   3.196  10.150  0.7253 -0.1756  0.4856
  294MOL0     H40505   7.546   3.131  10.416 -1.2626 -1.5577 -1.8558
  294MOL0     H40506   7.548   3.317  10.429  0.5423  3.1811 -3.9277
  294MOL0     H40507   7.646   3.155  10.198 -2.7510 -1.7911  1.7407
  294MOL0     H40508   7.645   3.331  10.230 -0.7749 -0.3164  0.1028
  294MOL0     H40509   7.825   3.332  10.373  3.7990 -2.2770  4.2305
  294MOL0     H40510   7.805   3.160  10.419  0.2826 -0.0487  0.2652
  294MOL0     H40511   7.860   3.090  10.201 -1.2643 -0.3164 -0.8823
  294MOL0     H40512   7.896   3.259  10.149  0.9581  2.1069  3.1344
  294MOL0     H40513   8.034   3.129  10.388  0.5430  0.0154 -0.6241
  294MOL0     H40514   8.081   3.271  10.304  2.2750 -1.1105 -0.9631
  294MOL0     H40515   8.095   2.994  10.190  0.8337  0.1000  1.6599
  294MOL0     H40516   8.132   3.141  10.100 -0.4827  1.0799  0.7381
  294MOL0     H40517   8.271   3.097  10.361 -1.2341 -1.2196 -0.4042
  294MOL0     H40518   8.320   3.201  10.235 -2.5458  1.2917 -1.1047
  294MOL0     H40519   8.319   2.898  10.231 -0.3997  0.5697 -0.8276
  294MOL0     H40520   8.339   2.983  10.081 -1.0430 -1.8383 -0.4165
  294MOL0     H40521   8.531   3.199  10.126 -0.1318 -2.5792 -2.7340
  294MOL0     H40522   8.856   3.207  10.307 -2.6109 -1.8711  2.4333
  294MOL0     H40523   8.795   3.246  10.147 -0.4156 -1.9781 -1.4293
  294MOL0     H40524   8.942   2.995  10.235 -2.9225 -1.6744 -0.0894
  294MOL0     H40525   8.895   3.029  10.070 -0.2151 -1.5370  1.1839
  294MOL0     H40526   9.062   3.160  10.027  0.4466  3.7840  0.3239
  294MOL0     H40527   9.043   3.259  10.168 -1.8526  0.5679  1.0550
  294MOL0     H40528   9.166   3.073  10.311  0.7593  1.4189  0.9287
  294MOL0     H40529   9.207   2.988  10.176  1.1321  0.0790  0.6474
  294MOL0     H40530   9.532   3.304  10.149 -2.7541  1.6368  2.7231
  294MOL0     H40531   9.718   3.382  10.241  0.8429  0.4328  1.2772
  294MOL0     H40532   9.802   3.267  10.128  0.8461 -0.3163  0.8087
  294MOL0     H40533   9.843   3.290  10.305  2.2320  2.2600 -1.5203
  294MOL0     H40534  10.012   2.974  10.620  1.1230  0.7481  0.8632
  294MOL0     H40535  10.204   2.839  10.661  0.2616  0.0026  0.1683
  294MOL0     H40536  10.436   2.698  10.614  1.4121 -0.3913 -0.4846
  294MOL0     H40537  10.302   2.643  10.725  1.5212 -1.2752  1.0167
  294MOL0     H40538  10.473   2.457  10.568  1.8807  1.3324 -0.1173
  294MOL0     H40539  10.541   2.529  10.718  1.7631 -1.4838 -0.8620
  294MOL0     H40540  10.288   2.354  10.673  0.0423  0.7694 -0.7623
  294MOL0     H40541  10.315   2.435  10.835 -1.6992 -1.8217  0.8844
  294MOL0     H40542  10.490   2.241  10.695  3.7793  2.3649  1.3728
  294MOL0     H40543  10.370   2.200  10.831 -1.3078  1.4937  2.2276
  294MOL0     H40544  10.636   2.345  10.851 -1.5267  1.6503 -0.9186
  294MOL0     H40545  10.505   2.365  10.971  2.7419  2.2829 -0.9827
  294MOL0     H40546  10.615   2.093  10.893 -2.8800 -1.9738  2.3075
  294MOL0     H40547  10.551   2.119  11.046  1.3040 -0.2473  0.5371
  294MOL0     H40548  10.742   2.280  11.097  1.8793  1.4835 -1.1122
  294MOL0     H40549  10.817   2.217  10.949  1.0393 -1.8125  1.2725
  294MOL0     H40550  10.778   2.050  11.201  0.1488 -1.2601 -1.2025
  294MOL0     H40551  10.921   2.124  11.132  1.1526 -0.4997  0.4683
  294MOL0     H40552  10.096   2.576  10.338  1.1082  1.4311 -1.3969
  294MOL0     H40553   9.891   2.713  10.305 -1.9151  2.3984  0.1829
  294MOL0     H40554   9.572   2.877  10.401  1.0134  0.1393  1.1118
  294MOL0     H40555   9.361   2.942  10.319 -0.2289  1.0113  0.9510
  294MOL0     H40556   7.372   3.124  10.538 -2.1453  1.2476  2.2571
  294MOL0     H40557   7.177   2.979  10.589 -4.2762  0.5308  0.2101
  294MOL0     H40558   6.760   2.908  10.332 -1.2823  0.6075  0.3287
  294MOL0     H40559   6.540   2.886  10.314 -0.0853  0.2636  1.2330
  294MOL0     H40560   6.221   2.773  10.645  0.0809 -0.7503 -1.1695
  294MOL0     H40561   6.322   2.916  10.665 -0.1459 -1.5812  1.8632
  294MOL0     H40562   6.179   3.030  10.485 -0.0111 -0.3822  0.0241
  294MOL0     H40563   6.114   3.006  10.645  0.3094 -1.8584  1.8750
  294MOL0     H40564   6.090   2.827  10.408 -1.0182 -1.0128  0.1767
  294MOL0     H40565   5.999   2.791  10.566 -0.6517  0.3748  0.7628
  294MOL0     H40566   5.948   3.022  10.378  0.2489 -0.5317  0.1708
  294MOL0     H40567   5.890   3.011  10.552 -2.7010 -1.6451  0.9146
  294MOL0     H40568   5.605   2.787  10.343  1.5627 -0.7793 -3.1672
  294MOL0     H40569   6.498   2.780  10.737 -0.5753  1.4220 -0.2410
  294MOL0     H40570   6.664   2.799  10.881  2.0396 -1.3511  1.0645
  294MOL0     H40571   6.805   2.722  10.827  1.8329  1.1444  0.5923
  294MOL0     H40572   6.810   2.898  10.831  1.3804  0.0433 -0.0318
  295MOL0     O40573  10.803   6.419  11.339 -0.0252 -0.7289 -0.2373
  295MOL0     C40574  10.696   6.433  11.281 -0.0580  0.6450 -0.0988
  295MOL0     O40575  10.607   6.329  11.254  0.9478  0.2944  0.1954
  295MOL0     C40576  10.617   6.203  11.304  0.3637  0.1739  0.5385
  295MOL0     C40577  10.741   6.138  11.324 -0.2825  0.1790 -0.9567
  295MOL0     C40578  10.756   6.010  11.384 -0.6449 -0.5061  0.1950
  295MOL0     C40579  10.639   5.955  11.437 -0.4996  0.0509  0.2367
  295MOL0     O40580  10.661   5.823  11.472  0.2090 -0.2137  0.9929
  295MOL0     C40581  10.638   5.817  11.618  0.0718 -0.2051 -0.0462
  295MOL0     C40582  10.742   5.762  11.711  0.1902  0.0959  0.2655
  295MOL0     C40583  10.770   5.609  11.694 -0.6437  0.0437  0.5632
  295MOL0     C40584  10.849   5.580  11.566  0.0254  0.6137  0.7073
  295MOL0     C40585  10.915   5.439  11.584 -0.3434  0.3339 -0.2393
  295MOL0     C40586  10.984   5.392  11.453  0.4541  0.0559 -0.9007
  295MOL0     C40587  11.101   5.283  11.461  0.4073  0.0995 -0.5653
  295MOL0     C40588  11.242   5.339  11.502 -0.1921 -0.0936  0.5910
  295MOL0     N40589  11.345   5.231  11.532 -0.1400 -0.1299 -0.2896
  295MOL0     C40590  11.480   5.254  11.485  0.4262  0.5587 -0.2992
  295MOL0     C40591  11.563   5.188  11.577  0.5691  1.0987  0.0223
  295MOL0     C40592  11.716   5.206  11.581  0.2200  0.8451  0.0128
  295MOL0     C40593  11.753   5.340  11.647 -0.2350  0.4784  0.6136
  295MOL0     C40594  11.903   5.349  11.643  0.2663 -0.6201  0.0587
  295MOL0     C40595  11.965   5.449  11.750  1.4496  0.2496  0.1354
  295MOL0     O40596  11.945   5.590  11.701 -0.3767  0.0031  0.0924
  295MOL0     C40597  12.054   5.639  11.626 -0.2306  0.4504 -0.0997
  295MOL0     C40598  12.170   5.572  11.587 -0.0720  0.5574  0.4695
  295MOL0     C40599  12.253   5.629  11.501  0.0104  0.7349 -0.0045
  295MOL0     C40600  12.363   5.537  11.446 -0.1989  0.2617  0.0983
  295MOL0     C40601  12.242   5.761  11.456 -0.8896  0.0700  0.1719
  295MOL0     C40602  12.326   5.838  11.352  0.6844 -0.5443 -0.5468
  295MOL0     O40603  12.443   5.778  11.328 -0.4154  0.0909 -0.2478
  295MOL0     C40604  12.531   5.829  11.238 -0.4332  0.0433  0.1096
  295MOL0     C40605  12.563   5.965  11.224 -0.2805  0.4288  0.3367
  295MOL0     C40606  12.647   6.012  11.128 -0.4746  0.6176  0.1572
  295MOL0     C40607  12.720   5.925  11.050  0.7030 -0.1616 -0.0692
  295MOL0     O40608  12.807   5.960  10.950 -0.4205  0.3216  0.2253
  295MOL0     C40609  12.945   5.916  10.978 -0.3692 -0.3610 -0.1474
  295MOL0     C40610  13.037   5.950  10.857 -1.2190 -0.3346  0.3836
  295MOL0     C40611  13.024   5.863  10.731 -0.0884  0.0741 -0.6766
  295MOL0     C40612  13.063   5.932  10.597  0.2465 -0.7453  0.5597
  295MOL0     C40613  13.193   5.866  10.543 -0.1652  0.2011  0.1471
  295MOL0     C40614  13.322   5.885  10.629  0.8198 -0.1532 -0.5520
  295MOL0     C40615  13.438   5.810  10.557  0.0427  0.1755  0.1482
  295MOL0     C40616  13.493   5.887  10.427 -0.7542 -0.5047  0.3219
  295MOL0    Cl40617  13.560   6.047  10.469  0.2121  0.1109  0.2323
  295MOL0     C40618  12.690   5.790  11.058 -0.6974  0.9676  0.4514
  295MOL0     C40619  12.603   5.740  11.160  1.0271 -0.3777 -0.4182
  295MOL0     O40620  12.288   5.944  11.314 -0.4777  0.2170 -0.2206
  295MOL0     C40621  12.131   5.826  11.503  1.0073  0.3953  0.3476
  295MOL0     C40622  12.039   5.762  11.585  0.2848  0.5056 -0.2088
  295MOL0     N40623  11.478   5.127  11.675 -0.4943  0.7521 -0.2387
  295MOL0     N40624  11.357   5.164  11.650  0.5423 -0.5147  0.3994
  295MOL0     C40625  10.513   6.024  11.436  0.1840 -0.1127  0.6586
  295MOL0     C40626  10.509   6.147  11.367  0.5069 -0.0864 -0.1434
  295MOL0     C40627  10.669   6.564  11.231  0.1256  0.0010 -0.3714
  295MOL0     C40628  10.537   6.609  11.226 -0.3186 -0.1101 -0.0580
  295MOL0     C40629  10.487   6.725  11.164  0.0047  0.3070 -0.0003
  295MOL0     C40630  10.583   6.809  11.102  0.0745  0.5519  0.3404
  295MOL0     O40631  10.557   6.924  11.040  0.2122  0.1250  0.2185
  295MOL0     C40632  10.433   6.978  11.020  0.4445  0.0235  0.7165
  295MOL0     C40633  10.359   6.905  10.909  0.3840 -0.5920  0.4565
  295MOL0     C40634  10.425   6.935  10.768 -0.0404  0.4241 -0.7806
  295MOL0     C40635  10.330   6.939  10.653  0.5623  0.8055  0.0980
  295MOL0     C40636  10.237   6.824  10.650 -0.3306  0.1042 -0.5185
  295MOL0     C40637  10.160   6.730  10.646  0.3973  0.7890  0.4709
  295MOL0     C40638  10.719   6.771  11.122  0.4969 -0.4646  1.0385
  295MOL0     C40639  10.760   6.655  11.186 -0.0173  0.1798 -0.1228
  295MOL0     C40640  10.905   6.636  11.194 -1.0595  0.1885 -0.2804
  295MOL0     H40641  10.828   6.187  11.281 -1.2858  1.3228 -1.7660
  295MOL0     H40642  10.848   5.957  11.404 -0.3261  0.7377  2.3072
  295MOL0     H40643  10.545   5.769  11.648 -0.7107  0.1767 -1.7285
  295MOL0     H40644  10.626   5.918  11.659 -0.5128 -0.2630 -0.0693
  295MOL0     H40645  10.830   5.820  11.683  2.4574 -1.2891  3.9033
  295MOL0     H40646  10.719   5.784  11.815 -0.0008 -0.1728  0.2822
  295MOL0     H40647  10.837   5.582  11.777  1.5915 -1.8386 -1.6984
  295MOL0     H40648  10.680   5.548  11.706 -1.9889  1.4967 -1.4733
  295MOL0     H40649  10.783   5.579  11.479  0.9092 -1.3127  0.0081
  295MOL0     H40650  10.924   5.658  11.548 -1.4970  2.2278  1.1776
  295MOL0     H40651  10.840   5.365  11.612  1.5811 -1.1137  1.4431
  295MOL0     H40652  10.987   5.426  11.666  1.3146  0.0148 -1.6940
  295MOL0     H40653  10.901   5.359  11.390 -0.4950 -1.0227  0.8252
  295MOL0     H40654  11.016   5.480  11.396  0.0581  1.3355  0.7858
  295MOL0     H40655  11.117   5.245  11.360 -0.1718  0.6811 -0.8855
  295MOL0     H40656  11.068   5.192  11.512  2.5424 -2.2252 -2.9840
  295MOL0     H40657  11.283   5.393  11.415  0.0381  2.5700  2.2321
  295MOL0     H40658  11.240   5.403  11.590  1.6946  0.7212  0.1125
  295MOL0     H40659  11.506   5.318  11.401 -1.7973 -0.3498 -1.7992
  295MOL0     H40660  11.753   5.195  11.478 -0.2611  2.1995 -0.3223
  295MOL0     H40661  11.754   5.120  11.638 -0.2107  0.0850 -0.8150
  295MOL0     H40662  11.692   5.411  11.590  0.9891 -0.0167 -1.4229
  295MOL0     H40663  11.713   5.347  11.748 -1.3423  3.5418  0.0850
  295MOL0     H40664  11.940   5.247  11.661 -0.4392 -0.9383 -0.2349
  295MOL0     H40665  11.938   5.372  11.542  2.6285 -1.4223  0.6219
  295MOL0     H40666  11.904   5.437  11.840  0.3183 -3.5806 -0.9295
  295MOL0     H40667  12.066   5.411  11.769  0.2539 -2.9672  0.8473
  295MOL0     H40668  12.190   5.467  11.605  1.5159  0.7855  0.1160
  295MOL0     H40669  12.457   5.550  11.500 -0.6140  1.6525  0.5455
  295MOL0     H40670  12.371   5.558  11.339 -1.9870  2.0952  0.2555
  295MOL0     H40671  12.331   5.433  11.448  0.8782 -0.3022 -3.7523
  295MOL0     H40672  12.511   6.037  11.286 -1.9508 -1.7757  1.6520
  295MOL0     H40673  12.673   6.118  11.128  0.2808  0.4361 -0.4559
  295MOL0     H40674  12.979   5.960  11.072 -0.1176  0.0838 -0.4423
  295MOL0     H40675  12.958   5.808  10.994  1.9412 -0.3481 -1.4454
  295MOL0     H40676  13.012   6.053  10.831 -0.1521 -0.2380 -0.3061
  295MOL0     H40677  13.139   5.955  10.897 -0.1292  1.0992 -2.2930
  295MOL0     H40678  12.922   5.825  10.719  0.3679 -1.9441  1.1699
  295MOL0     H40679  13.072   5.765  10.740 -2.7524 -1.1988  1.5850
  295MOL0     H40680  13.065   6.041  10.611 -1.7739 -0.4032 -1.1193
  295MOL0     H40681  12.980   5.917  10.527 -0.8848  0.6140  1.5527
  295MOL0     H40682  13.174   5.764  10.511  3.1780 -0.4727 -0.0614
  295MOL0     H40683  13.211   5.909  10.444 -1.3201 -1.5870 -0.8851
  295MOL0     H40684  13.307   5.851  10.732 -1.2988  1.3874 -0.2930
  295MOL0     H40685  13.353   5.989  10.635  2.3116 -0.6183  0.4808
  295MOL0     H40686  13.407   5.708  10.532  0.2518 -0.3346  1.8345
  295MOL0     H40687  13.519   5.806  10.630 -0.4672 -1.2276  0.6690
  295MOL0     H40688  13.421   5.903  10.345 -0.9380 -1.2477  0.3346
  295MOL0     H40689  13.570   5.824  10.381  0.5235  0.1635  1.4834
  295MOL0     H40690  12.740   5.730  10.982 -3.1313  2.3297 -2.4290
  295MOL0     H40691  12.597   5.633  11.172  0.8444 -0.0350  4.0069
  295MOL0     H40692  12.114   5.926  11.465 -3.2851 -1.0757 -2.4584
  295MOL0     H40693  11.956   5.812  11.634 -0.9387 -1.6324  0.0137
  295MOL0     H40694  10.423   5.967  11.459 -1.7036  2.4303 -0.0284
  295MOL0     H40695  10.412   6.195  11.354 -0.8696 -2.6791 -0.2593
  295MOL0     H40696  10.472   6.553  11.291  0.3937  2.1866  2.8799
  295MOL0     H40697  10.382   6.748  11.168 -0.2434 -0.9208  0.9587
  295MOL0     H40698  10.373   6.982  11.112  0.6353 -0.6588  0.8718
  295MOL0     H40699  10.446   7.081  10.983  0.8751 -1.0416 -2.3992
  295MOL0     H40700  10.259   6.947  10.904  1.5130  2.1099 -1.5528
  295MOL0     H40701  10.352   6.796  10.917  0.8024 -0.7456 -0.9705
  295MOL0     H40702  10.483   7.027  10.766  0.6321  0.0183 -0.3929
  295MOL0     H40703  10.498   6.855  10.751 -1.5712 -1.3347  0.4260
  295MOL0     H40704  10.391   6.936  10.562  1.2409 -1.8821  0.5750
  295MOL0     H40705  10.266   7.027  10.641 -2.0263 -1.2328 -3.2225
  295MOL0     H40706  10.088   6.655  10.621  0.8457  0.7169 -0.6749
  295MOL0     H40707  10.792   6.836  11.073 -0.2915 -0.8989 -0.7882
  295MOL0     H40708  10.949   6.703  11.120 -0.2830  0.2308  0.2017
  295MOL0     H40709  10.944   6.659  11.294 -3.5130  3.1940  0.1232
  295MOL0     H40710  10.929   6.532  11.170 -4.0183 -0.3923 -1.0695
  296MOL0     O40711   1.586   3.580   6.763  0.1671  0.0179  0.1415
  296MOL0     C40712   1.511   3.608   6.860 -0.3806 -0.6031 -0.4305
  296MOL0     O40713   1.522   3.735   6.933 -0.2659  0.5381  0.2762
  296MOL0     C40714   1.601   3.834   6.883 -0.5554  0.1098 -0.0872
  296MOL0     C40715   1.572   3.909   6.766  0.1908  0.2725 -1.1411
  296MOL0     C40716   1.655   4.014   6.731  0.6225 -1.1691  0.4273
  296MOL0     C40717   1.774   4.039   6.803 -0.0807  0.8478 -0.0551
  296MOL0     O40718   1.860   4.135   6.774  0.7128 -0.3374 -0.0302
  296MOL0     C40719   1.906   4.156   6.641 -0.8298 -0.6422  0.0146
  296MOL0     C40720   2.030   4.254   6.633  0.1194 -0.2173 -0.4806
  296MOL0     C40721   2.144   4.192   6.712 -0.2652  0.2325  0.2400
  296MOL0     C40722   2.275   4.240   6.647 -0.1502 -0.5829 -0.0292
  296MOL0     C40723   2.328   4.140   6.547 -0.5224  0.5114  0.7526
  296MOL0     C40724   2.323   3.999   6.586 -0.2216  0.1606  0.1866
  296MOL0     C40725   2.374   3.908   6.472  0.1877  0.2785  0.4227
  296MOL0     C40726   2.367   3.758   6.499  0.0456 -0.1555 -0.7510
  296MOL0     N40727   2.423   3.675   6.397 -0.9085 -0.1644 -0.1601
  296MOL0     C40728   2.350   3.633   6.289 -0.4506 -0.0152  0.7552
  296MOL0     C40729   2.436   3.549   6.220  0.5040 -0.1738 -0.2077
  296MOL0     C40730   2.390   3.475   6.103 -0.6378 -0.6763 -0.1680
  296MOL0     C40731   2.498   3.440   6.002  0.7275  0.8176  0.2703
  296MOL0     C40732   2.580   3.315   6.039  0.2294  0.0563 -0.7176
  296MOL0     C40733   2.722   3.310   5.968  0.1042 -0.4638  0.1779
  296MOL0     O40734   2.707   3.316   5.824  0.3931 -0.3908 -0.1882
  296MOL0     C40735   2.825   3.272   5.761 -0.4817 -0.4807 -0.0098
  296MOL0     C40736   2.954   3.294   5.810  0.4023 -0.6090 -0.2135
  296MOL0     C40737   3.060   3.239   5.740 -0.1221  0.3487  0.6103
  296MOL0     C40738   3.203   3.249   5.795 -0.7160  0.0892 -0.4561
  296MOL0     C40739   3.041   3.147   5.632 -0.0271 -0.0820 -0.6952
  296MOL0     C40740   3.157   3.088   5.554 -1.0761  0.8051  0.6439
  296MOL0     O40741   3.242   3.178   5.499 -0.3481  0.3851  0.0345
  296MOL0     C40742   3.367   3.139   5.444  0.3701  0.0454 -1.4797
  296MOL0     C40743   3.472   3.230   5.468 -1.0777 -0.5350 -0.4890
  296MOL0     C40744   3.607   3.200   5.451  0.7564 -0.0671  0.8244
  296MOL0     C40745   3.636   3.072   5.393  0.8830 -0.3179  0.6000
  296MOL0     O40746   3.771   3.047   5.363 -0.1437  0.3380 -0.4160
  296MOL0     C40747   3.815   3.063   5.233 -0.4187  0.5560 -0.6062
  296MOL0     C40748   3.910   3.186   5.220  0.3303  0.2355  0.2121
  296MOL0     C40749   4.010   3.175   5.336  0.6838  0.7495 -0.1950
  296MOL0     C40750   4.084   3.308   5.364  0.2384 -0.3763  0.4984
  296MOL0     C40751   4.210   3.287   5.445 -1.1395  0.1910 -0.7570
  296MOL0     C40752   4.246   3.415   5.525  0.9409 -0.0843  0.1360
  296MOL0     C40753   4.364   3.422   5.621  0.5619  1.2152  0.2953
  296MOL0     C40754   4.499   3.406   5.547 -0.0124 -0.8708  0.5152
  296MOL0    Cl40755   4.517   3.541   5.421 -0.2332 -0.0738 -0.0735
  296MOL0     C40756   3.541   2.980   5.357  0.2334 -0.3180 -1.0056
  296MOL0     C40757   3.403   3.010   5.384 -0.6469 -0.0048 -0.8819
  296MOL0     O40758   3.169   2.971   5.559  0.8546  0.6040 -0.4814
  296MOL0     C40759   2.913   3.130   5.582  0.4932  0.1410 -0.5292
  296MOL0     C40760   2.806   3.204   5.634 -0.2129 -1.7250 -0.1328
  296MOL0     N40761   2.556   3.536   6.290  0.7338  0.9274 -0.1024
  296MOL0     N40762   2.542   3.617   6.395 -0.0359  0.3126  0.0382
  296MOL0     C40763   1.808   3.954   6.912  0.5830 -0.3704 -0.3732
  296MOL0     C40764   1.714   3.855   6.950 -0.1597  0.0217  0.1167
  296MOL0     C40765   1.412   3.508   6.915 -0.2498  0.1756 -0.0688
  296MOL0     C40766   1.377   3.524   7.049  0.4243 -0.0106  0.0555
  296MOL0     C40767   1.290   3.439   7.100  0.6496 -0.1727 -0.7110
  296MOL0     C40768   1.244   3.320   7.036 -0.1512  0.2996 -0.1296
  296MOL0     O40769   1.158   3.244   7.112  0.6597 -1.2190 -0.8463
  296MOL0     C40770   1.103   3.123   7.065  0.5052 -0.4034  0.2872
  296MOL0     C40771   0.983   3.158   6.964 -1.0345 -0.0328  1.5548
  296MOL0     C40772   0.881   3.252   7.029 -0.2031 -0.2019  1.1287
  296MOL0     C40773   0.739   3.206   6.980 -1.1071  0.0572  0.3557
  296MOL0     C40774   0.677   3.103   7.065  0.0315 -0.1303 -0.5868
  296MOL0     C40775   0.623   3.004   7.118 -0.9549 -1.0348  1.0943
  296MOL0     C40776   1.280   3.303   6.903  0.3204 -0.2849 -0.0960
  296MOL0     C40777   1.359   3.397   6.840  0.0933 -0.1356  0.1002
  296MOL0     C40778   1.365   3.398   6.695  0.3053 -0.1929  0.7724
  296MOL0     H40779   1.487   3.897   6.699  0.1168 -0.0107 -0.9969
  296MOL0     H40780   1.623   4.069   6.643  1.2319 -0.2357  0.7798
  296MOL0     H40781   1.823   4.198   6.584 -0.3527  0.8428  0.3885
  296MOL0     H40782   1.945   4.066   6.592 -1.1329 -0.2293 -1.0007
  296MOL0     H40783   2.061   4.255   6.528 -2.4787  3.2419 -1.3588
  296MOL0     H40784   2.012   4.359   6.654 -0.1688  0.2052 -2.5895
  296MOL0     H40785   2.142   4.239   6.810  1.8251  3.3851 -1.0638
  296MOL0     H40786   2.132   4.085   6.733 -1.4327  0.8244  2.9119
  296MOL0     H40787   2.252   4.334   6.596  2.1527  0.5896  0.9315
  296MOL0     H40788   2.347   4.271   6.723 -0.8415 -1.9271  1.2160
  296MOL0     H40789   2.432   4.167   6.526  0.0713  0.4085  3.2436
  296MOL0     H40790   2.278   4.155   6.451  1.1342 -2.3091 -0.6554
  296MOL0     H40791   2.378   3.995   6.681  2.1345 -0.5297 -1.1405
  296MOL0     H40792   2.222   3.961   6.604 -0.0274 -0.4512  0.0113
  296MOL0     H40793   2.478   3.936   6.456 -0.3916  1.5070 -1.6522
  296MOL0     H40794   2.327   3.926   6.375 -0.7834 -0.7216  0.6887
  296MOL0     H40795   2.424   3.740   6.591  0.2715 -3.2648 -1.3829
  296MOL0     H40796   2.265   3.724   6.520 -1.4665  1.9800 -3.9122
  296MOL0     H40797   2.250   3.662   6.262  0.7458  3.7226 -0.1527
  296MOL0     H40798   2.314   3.533   6.049 -0.8645 -1.7177 -0.9928
  296MOL0     H40799   2.357   3.377   6.137  2.0496 -1.0016  1.8704
  296MOL0     H40800   2.465   3.423   5.899  0.4530  0.1963  0.4521
  296MOL0     H40801   2.564   3.527   5.999  0.6732  1.0146  2.6118
  296MOL0     H40802   2.599   3.295   6.145  1.1733 -1.9986 -1.2307
  296MOL0     H40803   2.533   3.223   6.004  1.4945 -1.2978  0.9594
  296MOL0     H40804   2.788   3.393   5.994  2.0871 -2.1168  0.7886
  296MOL0     H40805   2.768   3.213   5.990  2.4243  0.7082  0.8297
  296MOL0     H40806   2.983   3.334   5.906  0.0181  0.3454 -0.4809
  296MOL0     H40807   3.187   3.246   5.903 -1.3098 -0.7833 -0.5638
  296MOL0     H40808   3.263   3.340   5.779  2.5935 -1.8659 -0.0977
  296MOL0     H40809   3.262   3.158   5.782 -1.2711 -0.2973 -0.3002
  296MOL0     H40810   3.455   3.322   5.523  0.1929 -0.6979  0.2076
  296MOL0     H40811   3.689   3.269   5.473 -0.2747  2.0719 -1.5595
  296MOL0     H40812   3.863   2.968   5.208 -0.7431  0.2900 -0.2312
  296MOL0     H40813   3.731   3.087   5.167  0.4262 -0.7572 -2.2321
  296MOL0     H40814   3.959   3.193   5.123  1.3883 -2.1722  0.4984
  296MOL0     H40815   3.846   3.275   5.215  1.8057  1.3967  1.1200
  296MOL0     H40816   4.081   3.097   5.308 -0.7250  0.2774 -2.8071
  296MOL0     H40817   3.963   3.145   5.429 -0.4754 -1.6828 -1.4671
  296MOL0     H40818   4.017   3.381   5.411 -1.2803  0.0638 -2.1627
  296MOL0     H40819   4.115   3.352   5.269 -0.5910 -1.7086 -0.4282
  296MOL0     H40820   4.194   3.200   5.508  1.2536 -0.1966 -0.5654
  296MOL0     H40821   4.301   3.263   5.389  1.1874  0.5868  2.5071
  296MOL0     H40822   4.164   3.439   5.593  2.3344  0.4176  1.7044
  296MOL0     H40823   4.253   3.495   5.451  0.5445  0.8731  1.1152
  296MOL0     H40824   4.359   3.331   5.682 -2.0435  1.0135 -0.0880
  296MOL0     H40825   4.358   3.518   5.674  0.1078  0.7549  1.0907
  296MOL0     H40826   4.515   3.313   5.493  1.0883  0.5778 -1.7722
  296MOL0     H40827   4.574   3.419   5.626 -0.4706 -1.4786  1.0707
  296MOL0     H40828   3.558   2.886   5.305 -2.2290 -0.8223 -1.0193
  296MOL0     H40829   3.321   2.943   5.361 -0.5846 -1.6910  3.0101
  296MOL0     H40830   2.903   3.071   5.491 -1.0995  0.7784 -0.7972
  296MOL0     H40831   2.708   3.208   5.587 -0.6354 -0.2934  0.8107
  296MOL0     H40832   1.900   3.963   6.967 -0.1216  1.5877  0.5796
  296MOL0     H40833   1.733   3.782   7.028 -0.5531 -2.1993 -1.7434
  296MOL0     H40834   1.404   3.609   7.111 -1.5403 -0.0826  1.0971
  296MOL0     H40835   1.259   3.469   7.199  0.2619 -2.2228 -0.1588
  296MOL0     H40836   1.171   3.071   6.998 -1.0456 -1.4956 -0.5130
  296MOL0     H40837   1.080   3.060   7.152 -0.0392  1.3856  1.4918
  296MOL0     H40838   0.945   3.062   6.928  1.5918 -0.1638 -1.3117
  296MOL0     H40839   1.026   3.208   6.877  0.1573  0.8367  2.5995
  296MOL0     H40840   0.887   3.255   7.138 -1.2946  4.4255  1.2602
  296MOL0     H40841   0.903   3.353   6.994 -0.3929 -1.2668 -2.4896
  296MOL0     H40842   0.736   3.167   6.878 -0.2786  0.8698  0.0058
  296MOL0     H40843   0.672   3.292   6.979 -2.2870 -0.7690 -2.8165
  296MOL0     H40844   0.583   2.911   7.154 -1.7675 -1.5702 -1.0505
  296MOL0     H40845   1.228   3.236   6.835 -1.8565 -0.0511  1.2348
  296MOL0     H40846   1.368   3.499   6.653 -4.1172 -0.8719 -1.8229
  296MOL0     H40847   1.464   3.361   6.669  0.0586 -0.7431  0.5928
  296MOL0     H40848   1.277   3.351   6.649  0.0370 -0.0149  1.0967
  297MOL0     O40849   9.322   4.553   3.663  0.0976  0.1745  0.3074
  297MOL0     C40850   9.263   4.655   3.703 -0.1730  0.2356 -0.0541
  297MOL0     O40851   9.336   4.765   3.733 -0.2275  0.5101  0.6866
  297MOL0     C40852   9.464   4.764   3.764  0.1294 -0.6360  0.0428
  297MOL0     C40853   9.560   4.833   3.685  0.6462 -0.3177 -0.1248
  297MOL0     C40854   9.690   4.825   3.722 -0.1551 -0.0828  0.3982
  297MOL0     C40855   9.730   4.744   3.836  0.4551 -0.4906  0.3718
  297MOL0     O40856   9.867   4.732   3.857 -0.7382 -0.2537 -0.6672
  297MOL0     C40857   9.921   4.866   3.891 -0.1028  0.1621  0.8349
  297MOL0     C40858  10.064   4.840   3.932  0.0755  0.4193 -0.1648
  297MOL0     C40859  10.130   4.963   3.984  0.1665 -0.1505 -0.8725
  297MOL0     C40860  10.275   4.947   4.029  0.2429 -0.3801  0.2608
  297MOL0     C40861  10.341   5.082   4.071 -0.2272  0.0839 -0.2584
  297MOL0     C40862  10.500   5.091   4.049  0.3266  0.3710 -0.5710
  297MOL0     C40863  10.571   4.966   4.113 -0.4010  0.2485 -0.4898
  297MOL0     C40864  10.718   4.980   4.082  1.0763  0.1678 -0.3204
  297MOL0     N40865  10.784   4.852   4.057  0.4697 -0.5997  0.1340
  297MOL0     C40866  10.817   4.766   4.156 -0.1461  0.3090  0.1719
  297MOL0     C40867  10.891   4.662   4.088  0.4268 -0.1248 -0.0089
  297MOL0     C40868  10.961   4.535   4.143  1.1168 -0.5396  0.0243
  297MOL0     C40869  11.059   4.553   4.256 -0.6090  0.0312  0.2377
  297MOL0     C40870  11.188   4.606   4.208 -0.4426  0.6601 -0.1590
  297MOL0     C40871  11.303   4.572   4.312  0.0275 -0.8314 -0.0191
  297MOL0     O40872  11.432   4.634   4.272 -0.1233 -0.1461 -0.2422
  297MOL0     C40873  11.555   4.574   4.305  0.2425  1.1325 -0.2472
  297MOL0     C40874  11.650   4.555   4.209  0.0640 -0.0665 -0.1413
  297MOL0     C40875  11.762   4.478   4.242 -0.4376  0.2632 -0.2120
  297MOL0     C40876  11.857   4.428   4.127  0.6246 -0.3671  0.3766
  297MOL0     C40877  11.791   4.438   4.375 -1.1140  0.5974 -0.2321
  297MOL0     C40878  11.916   4.366   4.428 -0.7736 -1.0823 -0.7300
  297MOL0     O40879  11.892   4.265   4.518 -0.2008 -0.3390  0.3565
  297MOL0     C40880  11.998   4.193   4.570 -0.4282  0.2348 -0.7918
  297MOL0     C40881  12.078   4.106   4.495 -0.2151 -0.2551 -0.1467
  297MOL0     C40882  12.183   4.027   4.548 -0.9520  0.4076 -1.0700
  297MOL0     C40883  12.200   4.025   4.686  0.3159 -0.6225  0.8505
  297MOL0     O40884  12.299   3.954   4.733 -0.4032 -0.0523  0.0065
  297MOL0     C40885  12.367   3.991   4.849  0.2582 -0.2625 -0.5675
  297MOL0     C40886  12.509   3.943   4.871  0.9410  0.6335 -0.0951
  297MOL0     C40887  12.517   3.796   4.901 -0.2453 -0.5773  0.1219
  297MOL0     C40888  12.585   3.782   5.038  0.5938 -0.4176  0.0917
  297MOL0     C40889  12.650   3.649   5.067  0.7716  0.5650 -0.5219
  297MOL0     C40890  12.551   3.536   5.036 -0.3771 -0.6732 -0.2373
  297MOL0     C40891  12.614   3.404   5.081 -0.5355 -0.5661  1.0897
  297MOL0     C40892  12.529   3.293   5.017  0.3623 -0.2248  0.0696
  297MOL0    Cl40893  12.619   3.142   5.021 -0.0190  0.1006  0.6589
  297MOL0     C40894  12.122   4.111   4.766 -0.3450 -0.0486  0.8125
  297MOL0     C40895  12.021   4.191   4.706  0.2801  0.2112  0.3956
  297MOL0     O40896  12.024   4.412   4.399 -0.4130 -0.3141  0.6413
  297MOL0     C40897  11.699   4.480   4.475 -0.8595  0.6337  0.6173
  297MOL0     C40898  11.582   4.548   4.440 -0.2817  0.4329 -0.2867
  297MOL0     N40899  10.878   4.697   3.948 -0.8489  0.0987  0.1897
  297MOL0     N40900  10.813   4.799   3.940  0.4099 -0.9587 -0.3280
  297MOL0     C40901   9.636   4.682   3.912  0.7386 -0.8057 -0.1319
  297MOL0     C40902   9.506   4.703   3.888  1.2729 -0.6708  0.5114
  297MOL0     C40903   9.115   4.661   3.713 -0.0886  0.3667 -0.8926
  297MOL0     C40904   9.059   4.786   3.749 -0.4651  0.8156  0.0229
  297MOL0     C40905   8.926   4.806   3.775 -0.2164  0.2082  0.0754
  297MOL0     C40906   8.839   4.703   3.750 -0.7448  0.5374 -0.0344
  297MOL0     O40907   8.709   4.733   3.773 -0.1009 -0.0623 -0.3003
  297MOL0     C40908   8.609   4.697   3.677  0.8430  0.3029 -0.6526
  297MOL0     C40909   8.473   4.730   3.749  0.6344 -0.3286 -0.4344
  297MOL0     C40910   8.354   4.697   3.657 -0.2276  0.0846 -0.6004
  297MOL0     C40911   8.323   4.543   3.661  0.7684  0.7516 -0.2823
  297MOL0     C40912   8.272   4.490   3.789  0.0549  0.0648  0.4909
  297MOL0     C40913   8.225   4.441   3.891 -0.5783  0.2677 -0.6772
  297MOL0     C40914   8.881   4.579   3.702  0.0577 -0.0948 -0.1533
  297MOL0     C40915   9.020   4.558   3.684  0.2788  0.4667  0.2990
  297MOL0     C40916   9.065   4.426   3.622 -0.4653 -0.2231 -0.4757
  297MOL0     H40917   9.525   4.878   3.593 -2.4548 -2.3666 -0.1054
  297MOL0     H40918   9.763   4.879   3.664 -0.6708  4.0050  3.1341
  297MOL0     H40919   9.862   4.902   3.975  1.5989  0.2302  2.0541
  297MOL0     H40920   9.929   4.946   3.817  0.0250  0.4676  1.1756
  297MOL0     H40921  10.064   4.754   4.000  3.2368 -1.3782 -2.1975
  297MOL0     H40922  10.129   4.811   3.849  1.0451 -2.0984  1.3454
  297MOL0     H40923  10.126   5.037   3.904 -2.6853 -0.5449 -1.2206
  297MOL0     H40924  10.075   4.999   4.073  0.9661  0.4741 -0.6207
  297MOL0     H40925  10.284   4.873   4.109 -0.2148  1.2825  1.9416
  297MOL0     H40926  10.337   4.905   3.950 -1.1051  0.4880 -1.3332
  297MOL0     H40927  10.316   5.094   4.177 -1.4569 -1.2607 -0.3713
  297MOL0     H40928  10.309   5.165   4.008  0.6914 -0.4364 -1.4519
  297MOL0     H40929  10.524   5.106   3.943 -1.1625  1.8988 -0.7460
  297MOL0     H40930  10.538   5.181   4.100  0.3649  1.4188 -2.3607
  297MOL0     H40931  10.539   4.870   4.071  3.0410 -0.8014 -1.0641
  297MOL0     H40932  10.552   4.955   4.220  0.8165 -2.4186 -0.4863
  297MOL0     H40933  10.723   5.038   3.989  1.7318 -0.8801 -0.9534
  297MOL0     H40934  10.764   5.033   4.166 -0.8585  0.4306  0.6200
  297MOL0     H40935  10.798   4.770   4.263  2.1864 -0.0165  0.6612
  297MOL0     H40936  11.012   4.481   4.063 -0.1673  0.5416 -1.5953
  297MOL0     H40937  10.881   4.464   4.166  0.3336  0.7168  1.4153
  297MOL0     H40938  11.017   4.624   4.328 -1.2653 -1.5699  1.4896
  297MOL0     H40939  11.083   4.463   4.313  0.3742  1.8454  2.8940
  297MOL0     H40940  11.219   4.553   4.117  0.5409 -1.0660  1.1177
  297MOL0     H40941  11.191   4.712   4.182 -1.8882  1.4577  2.5589
  297MOL0     H40942  11.267   4.620   4.404  1.6026  1.5595 -0.5480
  297MOL0     H40943  11.323   4.468   4.336  1.4384 -0.3490  1.0201
  297MOL0     H40944  11.623   4.594   4.111  1.3719  3.4306  0.7463
  297MOL0     H40945  11.920   4.347   4.165 -0.4914 -1.1286  0.6728
  297MOL0     H40946  11.917   4.506   4.079 -0.3734 -0.7544 -1.6275
  297MOL0     H40947  11.790   4.388   4.050  0.6173  2.1630 -1.0318
  297MOL0     H40948  12.044   4.108   4.392 -1.1691 -0.2322  0.1641
  297MOL0     H40949  12.253   3.967   4.491 -0.8521  0.2469 -0.7788
  297MOL0     H40950  12.371   4.100   4.844  1.7218 -0.2451  0.2400
  297MOL0     H40951  12.303   3.959   4.932 -1.3241  3.2764 -0.2367
  297MOL0     H40952  12.561   3.949   4.774  0.0716 -1.1602 -0.7162
  297MOL0     H40953  12.562   4.007   4.943  0.7395  1.1468 -0.3999
  297MOL0     H40954  12.580   3.753   4.823 -0.1273  0.4038 -0.3383
  297MOL0     H40955  12.420   3.746   4.894 -0.4307 -0.5130  1.7699
  297MOL0     H40956  12.507   3.805   5.112  0.3312  1.6928 -0.7763
  297MOL0     H40957  12.670   3.850   5.039  0.1339  0.4203 -3.6756
  297MOL0     H40958  12.737   3.634   5.003 -0.3684  1.2743 -2.3306
  297MOL0     H40959  12.670   3.643   5.174  0.0435  2.7388 -0.2154
  297MOL0     H40960  12.527   3.530   4.930 -2.2257 -1.6801  0.1950
  297MOL0     H40961  12.457   3.551   5.090  0.7738 -0.6656  1.9070
  297MOL0     H40962  12.623   3.409   5.190  1.1021  5.3468  1.0412
  297MOL0     H40963  12.711   3.395   5.031 -1.2896 -1.0870 -0.3278
  297MOL0     H40964  12.504   3.306   4.912  3.9797  2.4004 -0.6660
  297MOL0     H40965  12.432   3.278   5.066 -0.5508  1.0251 -1.2964
  297MOL0     H40966  12.151   4.122   4.871 -0.3384 -0.8321  0.8998
  297MOL0     H40967  11.953   4.249   4.768 -5.0101 -1.9191 -2.7179
  297MOL0     H40968  11.718   4.469   4.581 -1.5362 -1.1700  0.5977
  297MOL0     H40969  11.522   4.590   4.520  0.9978 -0.6567  1.3341
  297MOL0     H40970   9.655   4.608   3.990 -0.5243  0.4466  1.4396
  297MOL0     H40971   9.428   4.662   3.951 -0.9701  0.0107 -1.6502
  297MOL0     H40972   9.116   4.878   3.750 -1.6622  1.5834  0.8948
  297MOL0     H40973   8.893   4.905   3.806 -2.7209 -1.5725  3.8503
  297MOL0     H40974   8.627   4.758   3.588 -0.5052  2.6677  0.5667
  297MOL0     H40975   8.604   4.595   3.638 -1.4092  0.0569  0.0962
  297MOL0     H40976   8.477   4.838   3.768  2.1249 -0.6624  1.6098
  297MOL0     H40977   8.466   4.668   3.840  1.0617 -2.6564 -1.8972
  297MOL0     H40978   8.267   4.752   3.693  2.5898  3.7274  1.2571
  297MOL0     H40979   8.378   4.722   3.553  2.4182  2.4156  0.4200
  297MOL0     H40980   8.410   4.482   3.637 -0.8871 -2.0529  0.4363
  297MOL0     H40981   8.256   4.519   3.578  0.2629 -1.4506  0.6989
  297MOL0     H40982   8.186   4.389   3.976  0.6915 -0.5753 -0.5822
  297MOL0     H40983   8.806   4.504   3.680 -0.5387  0.6623 -0.7563
  297MOL0     H40984   9.153   4.378   3.667 -1.4992 -2.1924 -0.4181
  297MOL0     H40985   8.988   4.349   3.634  1.2437 -1.8435  0.6623
  297MOL0     H40986   9.092   4.449   3.519 -0.1506 -1.1316 -0.6102
  298MOL0     O40987  11.048   0.857   9.476  0.3373  0.8993 -0.2140
  298MOL0     C40988  10.928   0.870   9.433 -0.8608  0.0324 -1.0934
  298MOL0     O40989  10.895   0.944   9.325  0.3478 -0.1822  0.6188
  298MOL0     C40990  10.965   1.056   9.271 -0.2872 -0.0892 -0.5139
  298MOL0     C40991  10.889   1.171   9.254  0.2710  0.2680  0.0913
  298MOL0     C40992  10.948   1.295   9.204 -0.1022  0.3166 -0.0985
  298MOL0     C40993  11.093   1.303   9.195  0.0701  0.3369 -0.8374
  298MOL0     O40994  11.154   1.412   9.156 -0.5570 -0.6440 -0.8587
  298MOL0     C40995  11.280   1.446   9.220 -1.1086  0.0154 -0.3796
  298MOL0     C40996  11.315   1.590   9.191  0.0633  0.5696  0.1095
  298MOL0     C40997  11.221   1.698   9.253  0.6180 -0.1585 -0.3688
  298MOL0     C40998  11.081   1.722   9.196 -1.0989  0.0553 -0.0355
  298MOL0     C40999  10.998   1.828   9.266  0.9723 -0.0085 -0.5700
  298MOL0     C41000  11.072   1.958   9.276 -0.2632 -0.6767  0.3298
  298MOL0     C41001  10.957   2.064   9.290  0.9262  0.7275  0.1128
  298MOL0     C41002  11.028   2.194   9.308  1.3058  0.0028  0.6098
  298MOL0     N41003  10.927   2.307   9.316  0.5819 -0.6696  0.3198
  298MOL0     C41004  10.802   2.292   9.363  1.1261 -0.1673  0.2198
  298MOL0     C41005  10.745   2.418   9.355 -0.0946  0.5399 -0.3689
  298MOL0     C41006  10.600   2.466   9.386  0.1126 -0.1710  0.3240
  298MOL0     C41007  10.490   2.391   9.295 -0.8237 -0.0099 -0.4976
  298MOL0     C41008  10.487   2.454   9.154 -0.1510 -0.1434  0.6574
  298MOL0     C41009  10.606   2.434   9.060 -1.1224  0.6572 -0.4284
  298MOL0     O41010  10.640   2.295   9.047 -0.1311  0.1966  0.4931
  298MOL0     C41011  10.765   2.260   8.991 -0.5080  1.0933 -0.1168
  298MOL0     C41012  10.785   2.125   8.967 -0.3366  0.6271 -0.3548
  298MOL0     C41013  10.903   2.077   8.907  0.3759 -0.0812 -0.4638
  298MOL0     C41014  10.918   1.930   8.879 -0.4770 -0.1982 -0.0398
  298MOL0     C41015  11.005   2.171   8.877 -0.1770 -0.3107 -0.0349
  298MOL0     C41016  11.135   2.124   8.830 -0.2315  0.4300  0.4378
  298MOL0     O41017  11.146   2.106   8.701  0.5076 -0.5919  0.2385
  298MOL0     C41018  11.273   2.105   8.657  0.8094 -1.6476 -0.8998
  298MOL0     C41019  11.330   1.989   8.608 -0.4195  0.2427  0.1641
  298MOL0     C41020  11.455   1.977   8.555 -0.1351 -0.4569 -0.1693
  298MOL0     C41021  11.538   2.089   8.563 -1.0809 -0.3152 -0.4179
  298MOL0     O41022  11.674   2.093   8.536  0.0981 -0.7667  0.2743
  298MOL0     C41023  11.760   1.986   8.580  0.2229 -0.2623  1.1720
  298MOL0     C41024  11.767   1.864   8.482 -0.3245 -1.0131  0.1326
  298MOL0     C41025  11.843   1.894   8.348  0.0550  0.7290 -0.3844
  298MOL0     C41026  11.994   1.924   8.365 -0.2213  1.2652  0.2034
  298MOL0     C41027  12.086   1.814   8.439 -0.0992  0.7745 -0.0394
  298MOL0     C41028  12.225   1.880   8.441 -0.7915 -0.7292  0.5860
  298MOL0     C41029  12.320   1.766   8.462  0.0345 -0.6605  0.4510
  298MOL0     C41030  12.344   1.679   8.338  0.2032  0.5798 -0.5139
  298MOL0    Cl41031  12.474   1.561   8.383 -0.1139 -0.1698  0.1230
  298MOL0     C41032  11.483   2.208   8.615 -0.0820  0.3522  0.3414
  298MOL0     C41033  11.350   2.223   8.653 -0.6740 -0.0401 -0.4023
  298MOL0     O41034  11.222   2.105   8.914 -0.1091  0.4506 -0.0835
  298MOL0     C41035  10.986   2.305   8.897  1.0845 -0.3413 -0.0496
  298MOL0     C41036  10.866   2.353   8.951  0.9751 -0.7473 -0.2517
  298MOL0     N41037  10.839   2.511   9.314  0.3835  0.5749  0.0545
  298MOL0     N41038  10.940   2.442   9.288 -0.1136  1.2057 -0.3168
  298MOL0     C41039  11.165   1.184   9.232  0.2772 -0.4374  0.5808
  298MOL0     C41040  11.103   1.062   9.258 -0.8446  0.5765 -0.1440
  298MOL0     C41041  10.819   0.805   9.516 -0.4861 -0.9265  0.9171
  298MOL0     C41042  10.704   0.881   9.549 -0.1053 -0.0515  0.0598
  298MOL0     C41043  10.599   0.823   9.627 -0.5218  0.0990 -0.4006
  298MOL0     C41044  10.619   0.697   9.686 -0.2000 -0.6745  0.1500
  298MOL0     O41045  10.517   0.649   9.761 -0.7308  0.2896  0.4417
  298MOL0     C41046  10.540   0.554   9.868  0.3470  0.4422  0.5215
  298MOL0     C41047  10.426   0.521   9.968  0.1976  0.1059 -0.1445
  298MOL0     C41048  10.355   0.645  10.034  1.1382 -0.1531 -0.0942
  298MOL0     C41049  10.257   0.606  10.134  0.7100 -0.2593 -0.2264
  298MOL0     C41050  10.328   0.560  10.258  0.3910 -0.8433  0.5717
  298MOL0     C41051  10.372   0.548  10.371 -0.2158  0.6369  0.4571
  298MOL0     C41052  10.739   0.619   9.662 -0.4691 -0.2206  0.1310
  298MOL0     C41053  10.834   0.675   9.566 -1.1155  0.5749 -0.2443
  298MOL0     C41054  10.937   0.575   9.515 -0.0254  0.1632  0.0279
  298MOL0     H41055  10.783   1.155   9.270  0.1127  1.3770  0.1999
  298MOL0     H41056  10.885   1.379   9.176  0.1064  0.1619 -1.0777
  298MOL0     H41057  11.361   1.377   9.194 -2.3996 -1.7734  0.1242
  298MOL0     H41058  11.269   1.422   9.326  0.4097 -0.8631 -0.3875
  298MOL0     H41059  11.412   1.617   9.233  0.6083 -0.7968 -0.2232
  298MOL0     H41060  11.322   1.600   9.082 -2.4098  1.8259  0.0046
  298MOL0     H41061  11.217   1.676   9.360  2.6890  1.6763  0.1669
  298MOL0     H41062  11.279   1.790   9.263 -2.1007  1.4068  2.5299
  298MOL0     H41063  11.107   1.757   9.095  3.4979 -0.8539  0.6241
  298MOL0     H41064  11.026   1.628   9.186  1.5546 -1.8063  1.7674
  298MOL0     H41065  10.986   1.791   9.369  1.1811 -0.6005 -0.7556
  298MOL0     H41066  10.902   1.838   9.216  2.0811  0.4151 -2.7437
  298MOL0     H41067  11.136   1.954   9.364  1.0641 -1.4501 -0.6266
  298MOL0     H41068  11.144   1.969   9.195  1.8074 -0.4253  2.1426
  298MOL0     H41069  10.905   2.031   9.380  1.0814 -0.5938 -0.2554
  298MOL0     H41070  10.882   2.063   9.210  0.8103  0.9785  0.2171
  298MOL0     H41071  11.090   2.194   9.398  2.2510 -1.6734  0.0127
  298MOL0     H41072  11.104   2.208   9.231 -2.4276  2.9481 -2.9981
  298MOL0     H41073  10.753   2.206   9.407  2.2441 -1.4014 -0.8487
  298MOL0     H41074  10.595   2.573   9.366  0.9082  0.1089  1.5157
  298MOL0     H41075  10.574   2.437   9.488  2.7953 -2.3923  0.4958
  298MOL0     H41076  10.503   2.283   9.287  2.7790  0.3650 -1.4183
  298MOL0     H41077  10.393   2.410   9.341 -0.9642 -1.6244 -0.0730
  298MOL0     H41078  10.403   2.404   9.104 -2.9221  3.0449  1.7480
  298MOL0     H41079  10.470   2.561   9.170  3.4761  0.3526  2.0859
  298MOL0     H41080  10.592   2.476   8.960 -0.3013 -0.6864 -1.1612
  298MOL0     H41081  10.691   2.487   9.105 -0.7056 -1.8172  2.0130
  298MOL0     H41082  10.715   2.055   9.012  2.0228  0.6219  3.7785
  298MOL0     H41083  10.948   1.904   8.777 -0.6147 -1.2931  0.1871
  298MOL0     H41084  10.821   1.884   8.899 -1.4407  0.2637 -3.0620
  298MOL0     H41085  10.990   1.889   8.950  0.9282  1.7533 -0.2314
  298MOL0     H41086  11.273   1.896   8.607 -1.7879  1.0079 -2.3396
  298MOL0     H41087  11.495   1.889   8.507  0.5300 -0.0510 -0.3700
  298MOL0     H41088  11.863   2.024   8.581 -1.1564  3.9118  2.9094
  298MOL0     H41089  11.735   1.950   8.680 -0.9929  1.1242  1.3979
  298MOL0     H41090  11.824   1.784   8.529 -0.4071  0.1061  2.2883
  298MOL0     H41091  11.672   1.813   8.461  0.3106 -1.9910 -0.4294
  298MOL0     H41092  11.790   1.978   8.304 -3.4536  0.3913  2.7101
  298MOL0     H41093  11.824   1.807   8.285 -0.0892 -0.1880  0.8782
  298MOL0     H41094  12.016   2.018   8.418 -2.2196  0.8473  1.9056
  298MOL0     H41095  12.038   1.931   8.266  3.3239 -0.5070  1.4860
  298MOL0     H41096  12.047   1.790   8.538 -2.8057  0.5174 -1.0736
  298MOL0     H41097  12.084   1.727   8.372 -0.2880  0.6356  0.1444
  298MOL0     H41098  12.232   1.952   8.523  3.4323 -0.4793  0.2021
  298MOL0     H41099  12.243   1.935   8.348 -2.0226 -2.9021 -1.0392
  298MOL0     H41100  12.283   1.705   8.545 -0.2713 -0.3490  0.5434
  298MOL0     H41101  12.419   1.806   8.489 -0.7149  2.2110 -0.6647
  298MOL0     H41102  12.382   1.755   8.268 -0.3217  1.7189  0.4076
  298MOL0     H41103  12.256   1.627   8.300 -0.3567  0.5394  0.7975
  298MOL0     H41104  11.550   2.293   8.621  0.6466  0.0311 -2.1555
  298MOL0     H41105  11.309   2.320   8.680 -1.0283 -1.1756  3.9767
  298MOL0     H41106  11.059   2.379   8.869 -0.2926  0.5436 -1.4885
  298MOL0     H41107  10.842   2.456   8.975  2.0315 -0.6500  0.4252
  298MOL0     H41108  11.272   1.182   9.217  0.3368  1.4384  0.5640
  298MOL0     H41109  11.172   0.979   9.260  0.5393  1.6618 -1.1376
  298MOL0     H41110  10.695   0.986   9.521  1.0308 -0.1964 -0.9240
  298MOL0     H41111  10.515   0.891   9.637  0.4118  2.0480 -4.0383
  298MOL0     H41112  10.569   0.457   9.826 -1.9271  0.5345 -1.4318
  298MOL0     H41113  10.619   0.593   9.933  0.2107  0.4360  0.6919
  298MOL0     H41114  10.470   0.455  10.044  0.5821 -1.5885 -1.7570
  298MOL0     H41115  10.358   0.448   9.923 -0.5158  0.0590  0.9714
  298MOL0     H41116  10.427   0.717  10.074 -1.3533  3.5444 -1.6216
  298MOL0     H41117  10.311   0.695   9.947  2.3423 -1.0536 -1.2629
  298MOL0     H41118  10.191   0.527  10.096 -0.1352  1.0427 -1.6131
  298MOL0     H41119  10.183   0.682  10.163 -0.4624 -1.5095  0.1852
  298MOL0     H41120  10.404   0.527  10.471  2.4924 -0.8525 -0.6036
  298MOL0     H41121  10.743   0.515   9.695  0.4806  0.4415  2.3218
  298MOL0     H41122  10.966   0.579   9.410 -0.9587 -1.9974 -0.3722
  298MOL0     H41123  11.025   0.579   9.579 -0.5859  0.3484  0.7966
  298MOL0     H41124  10.903   0.472   9.531 -1.2685  0.2444 -1.7825
  299MOL0     O41125   9.843   1.816   2.878 -0.1095  0.1869  0.9035
  299MOL0     C41126   9.770   1.888   2.814 -0.1426 -0.9085 -0.4427
  299MOL0     O41127   9.714   1.858   2.694 -0.3375  0.6492  0.3833
  299MOL0     C41128   9.747   1.747   2.628 -1.0402  0.2263 -0.4760
  299MOL0     C41129   9.647   1.653   2.596 -0.4798  0.1667 -0.1307
  299MOL0     C41130   9.683   1.533   2.529  0.4051  0.5064 -1.1729
  299MOL0     C41131   9.814   1.506   2.494  0.2068  0.4679  0.5000
  299MOL0     O41132   9.839   1.385   2.438  0.6395 -0.0339  0.2089
  299MOL0     C41133   9.971   1.335   2.412 -0.4371  0.0584  0.5269
  299MOL0     C41134   9.970   1.179   2.428  0.4114  0.1134  1.1697
  299MOL0     C41135  10.113   1.122   2.412  0.6016 -0.1644 -0.0311
  299MOL0     C41136  10.110   0.969   2.394  1.2390  0.7715  0.1358
  299MOL0     C41137  10.254   0.913   2.371 -0.1565 -0.6652 -0.0276
  299MOL0     C41138  10.324   0.958   2.240 -0.0772  0.3739 -0.2037
  299MOL0     C41139  10.446   0.871   2.212 -0.2204  0.5811  0.1977
  299MOL0     C41140  10.471   0.870   2.062 -0.7990 -0.0059  0.9194
  299MOL0     N41141  10.511   1.007   2.010  0.6750  0.0427 -0.4038
  299MOL0     C41142  10.634   1.058   1.979  0.2822  0.1350 -1.6537
  299MOL0     C41143  10.614   1.184   1.942  0.3908 -0.0805 -0.6672
  299MOL0     C41144  10.716   1.267   1.874  0.1931 -1.0698 -0.3443
  299MOL0     C41145  10.776   1.374   1.968  0.3831  0.4608 -0.5998
  299MOL0     C41146  10.861   1.301   2.072  0.3948  0.3730 -0.5164
  299MOL0     C41147  10.929   1.383   2.178 -0.2370 -0.3660  0.6183
  299MOL0     O41148  11.048   1.437   2.120  0.0647 -0.0746  0.3115
  299MOL0     C41149  11.157   1.357   2.120  0.2550  0.3332 -0.3694
  299MOL0     C41150  11.252   1.408   2.034  0.2573 -0.0145  0.5809
  299MOL0     C41151  11.373   1.346   2.010 -0.4206 -0.8623  0.0525
  299MOL0     C41152  11.477   1.438   1.944  0.6116  0.0901 -0.2079
  299MOL0     C41153  11.404   1.217   2.066 -0.8335 -0.1764 -1.4314
  299MOL0     C41154  11.523   1.130   2.037 -0.9563  0.1558  1.0665
  299MOL0     O41155  11.513   0.997   2.078  0.4232 -0.3419 -0.5721
  299MOL0     C41156  11.605   0.908   2.035  0.1569 -0.8583  0.5993
  299MOL0     C41157  11.566   0.785   1.972 -0.0591 -1.2274 -0.5740
  299MOL0     C41158  11.654   0.690   1.938 -0.4338  0.2338 -0.4756
  299MOL0     C41159  11.792   0.700   1.968  0.0068  0.2240 -0.2181
  299MOL0     O41160  11.877   0.601   1.922  0.0935 -0.2811  0.0521
  299MOL0     C41161  12.017   0.617   1.942  0.2258 -0.3330 -1.2046
  299MOL0     C41162  12.089   0.512   1.862 -0.4224  0.3427 -0.0806
  299MOL0     C41163  12.239   0.526   1.886  0.2045  0.2767 -0.0903
  299MOL0     C41164  12.326   0.447   1.781  0.3761 -0.9792 -0.1987
  299MOL0     C41165  12.466   0.491   1.814  0.8355 -0.6736 -1.1080
  299MOL0     C41166  12.572   0.397   1.749 -0.5855 -0.8980 -0.5132
  299MOL0     C41167  12.719   0.434   1.760  0.5756 -0.2995 -0.5665
  299MOL0     C41168  12.792   0.325   1.675  0.3864  0.1125 -0.5484
  299MOL0    Cl41169  12.774   0.155   1.746  0.3463 -0.3788  0.4595
  299MOL0     C41170  11.830   0.822   2.035  0.5205 -0.0289 -0.7401
  299MOL0     C41171  11.742   0.925   2.069  0.4160  0.7590 -0.1449
  299MOL0     O41172  11.614   1.182   1.967  0.4588 -0.0855  0.6184
  299MOL0     C41173  11.306   1.162   2.149  0.1589  0.8608 -0.8014
  299MOL0     C41174  11.188   1.229   2.179  0.9313  0.4821  0.0001
  299MOL0     N41175  10.485   1.222   1.967  0.0698  0.2478 -0.5571
  299MOL0     N41176  10.424   1.115   2.002  0.6621 -0.2003  0.0549
  299MOL0     C41177   9.912   1.596   2.534  0.0095 -0.0140 -0.6730
  299MOL0     C41178   9.887   1.722   2.590 -0.7970  0.4617 -0.2374
  299MOL0     C41179   9.729   2.028   2.859 -0.2684  0.1721 -0.1565
  299MOL0     C41180   9.606   2.074   2.809  0.1697  0.1504  0.4518
  299MOL0     C41181   9.561   2.195   2.860 -0.7258 -0.0010 -0.7616
  299MOL0     C41182   9.628   2.266   2.963 -0.0327  0.2204  0.5018
  299MOL0     O41183   9.574   2.377   3.015 -0.8230 -0.3824  0.3231
  299MOL0     C41184   9.519   2.472   2.922  0.0655 -0.2127 -0.7892
  299MOL0     C41185   9.517   2.615   2.974  0.1915 -0.3402  1.1966
  299MOL0     C41186   9.426   2.639   3.101 -0.0490  0.5359 -0.0562
  299MOL0     C41187   9.284   2.594   3.082 -0.2601  0.1959  0.2931
  299MOL0     C41188   9.204   2.673   2.985  0.1469  0.9104 -0.5279
  299MOL0     C41189   9.144   2.732   2.905 -0.5211  0.1008  0.4913
  299MOL0     C41190   9.753   2.218   2.995 -0.4713  0.1425 -0.1125
  299MOL0     C41191   9.811   2.101   2.949 -0.2103  0.1044  0.0815
  299MOL0     C41192   9.942   2.047   3.003 -0.3856  0.0855  0.5733
  299MOL0     H41193   9.540   1.667   2.608 -0.3808 -0.4247  1.6578
  299MOL0     H41194   9.615   1.449   2.513  0.1946 -0.7225  4.2129
  299MOL0     H41195  10.047   1.380   2.476  0.1600  0.2615 -0.3069
  299MOL0     H41196   9.997   1.354   2.307 -0.2175 -2.1736  0.1233
  299MOL0     H41197   9.926   1.157   2.526  1.6696  0.4546  1.8287
  299MOL0     H41198   9.908   1.131   2.351  2.1254 -0.7491  0.2865
  299MOL0     H41199  10.165   1.163   2.325  0.9580 -1.6100 -0.5435
  299MOL0     H41200  10.179   1.146   2.496  0.0340  0.3014  0.2812
  299MOL0     H41201  10.071   0.928   2.487 -2.5225  2.1511 -0.6840
  299MOL0     H41202  10.033   0.944   2.320 -1.0307  1.0763  2.2752
  299MOL0     H41203  10.237   0.805   2.363  2.3410 -1.0843 -0.5668
  299MOL0     H41204  10.324   0.928   2.453  2.1555 -2.3724 -1.5461
  299MOL0     H41205  10.252   0.956   2.158  0.5468 -1.4175 -0.7741
  299MOL0     H41206  10.351   1.064   2.240 -2.4034  1.0185 -0.0061
  299MOL0     H41207  10.424   0.770   2.247  4.4560 -0.2465  1.4770
  299MOL0     H41208  10.538   0.891   2.269 -0.5582 -1.8765  1.7067
  299MOL0     H41209  10.555   0.806   2.035  1.4322  3.1775 -0.2064
  299MOL0     H41210  10.383   0.829   2.010 -0.7626 -0.3430  1.1186
  299MOL0     H41211  10.733   1.013   1.988 -0.0912 -0.2548  2.2781
  299MOL0     H41212  10.674   1.326   1.791 -2.3109  2.0503  2.8491
  299MOL0     H41213  10.792   1.203   1.828 -0.8392 -3.0158  0.5556
  299MOL0     H41214  10.839   1.443   1.910  0.0074  2.9561  1.7522
  299MOL0     H41215  10.699   1.440   2.009  0.7617  0.2677  0.4568
  299MOL0     H41216  10.799   1.234   2.133  0.2917  1.4770  0.6438
  299MOL0     H41217  10.927   1.241   2.009 -0.3397  0.2028 -1.1486
  299MOL0     H41218  10.857   1.459   2.210  0.0698  1.0776 -1.8801
  299MOL0     H41219  10.952   1.334   2.273 -0.3939  1.3001  1.5572
  299MOL0     H41220  11.225   1.500   1.984 -0.0083 -0.3077  0.1750
  299MOL0     H41221  11.541   1.394   1.867  2.1725  1.4248  0.2785
  299MOL0     H41222  11.558   1.464   2.012  2.1803  1.8035 -2.5966
  299MOL0     H41223  11.432   1.523   1.893 -2.0244 -0.4250  1.0453
  299MOL0     H41224  11.460   0.766   1.958 -0.3696 -0.9805  1.1348
  299MOL0     H41225  11.614   0.601   1.891 -3.7876  1.3137  0.1057
  299MOL0     H41226  12.053   0.706   1.888  1.8923 -1.3276 -1.8253
  299MOL0     H41227  12.036   0.602   2.049  0.6476  1.4605 -0.9869
  299MOL0     H41228  12.056   0.414   1.899  1.6012 -0.1878  0.4333
  299MOL0     H41229  12.068   0.515   1.755 -3.4258 -1.6644  0.3108
  299MOL0     H41230  12.264   0.493   1.988 -0.3939  0.8222  0.2392
  299MOL0     H41231  12.260   0.633   1.888 -0.1759  0.4168  3.8627
  299MOL0     H41232  12.297   0.479   1.681 -2.3194 -1.3693  0.3778
  299MOL0     H41233  12.313   0.339   1.782  1.8106 -1.1992 -1.5849
  299MOL0     H41234  12.485   0.597   1.796  0.1412 -0.4688 -0.7043
  299MOL0     H41235  12.483   0.482   1.922 -2.2194 -1.6928 -0.5921
  299MOL0     H41236  12.555   0.390   1.641 -1.9561  1.5782 -0.5390
  299MOL0     H41237  12.551   0.308   1.809 -1.0855  1.2210  2.7068
  299MOL0     H41238  12.749   0.434   1.865  2.2321 -0.9893 -1.0077
  299MOL0     H41239  12.733   0.536   1.723  1.8880 -0.4508 -0.5466
  299MOL0     H41240  12.898   0.352   1.672  0.9740 -1.9974 -1.0319
  299MOL0     H41241  12.754   0.318   1.573  0.8670 -1.8546 -0.6498
  299MOL0     H41242  11.933   0.842   2.063 -0.1197  0.6560  1.3371
  299MOL0     H41243  11.769   1.014   2.125 -0.7634 -0.3867  2.3946
  299MOL0     H41244  11.318   1.077   2.214 -0.5694  0.1258 -1.5943
  299MOL0     H41245  11.121   1.187   2.253  0.0371  2.4511  0.3906
  299MOL0     H41246  10.017   1.575   2.517  0.2739  0.4117  0.3703
  299MOL0     H41247   9.970   1.781   2.626 -0.1536 -1.9517  2.5830
  299MOL0     H41248   9.552   2.014   2.736 -0.5190 -0.1525  1.1932
  299MOL0     H41249   9.468   2.238   2.823  0.2372  1.8873 -1.1089
  299MOL0     H41250   9.586   2.474   2.835  2.3565 -0.5671  0.8670
  299MOL0     H41251   9.417   2.446   2.892 -0.7400  1.5654  0.2388
  299MOL0     H41252   9.471   2.678   2.897  4.3054 -0.3176 -1.5913
  299MOL0     H41253   9.619   2.645   3.000  0.7249  0.6917 -1.6669
  299MOL0     H41254   9.473   2.584   3.184 -0.4650  2.9185  1.8696
  299MOL0     H41255   9.419   2.746   3.121 -0.4327  0.6051 -0.5580
  299MOL0     H41256   9.240   2.599   3.182 -0.7577  1.4270  0.0307
  299MOL0     H41257   9.289   2.489   3.052  1.3253  0.0259  1.0320
  299MOL0     H41258   9.067   2.777   2.845 -0.9056 -0.6020  0.4436
  299MOL0     H41259   9.804   2.263   3.080  0.4020  1.3602 -1.2305
  299MOL0     H41260   9.926   1.967   3.076 -1.9093 -0.6128 -0.4901
  299MOL0     H41261  10.013   2.007   2.931  0.7588  0.2379  1.5763
  299MOL0     H41262   9.990   2.135   3.049 -0.2798  1.2456 -1.6377
  300MOL0     O41263   8.836  10.234   3.785 -0.2587 -0.0665  1.0291
  300MOL0     C41264   8.783  10.201   3.892 -0.2709  0.7954  0.5348
  300MOL0     O41265   8.822  10.237   4.017  0.6641 -0.0044  0.2363
  300MOL0     C41266   8.923  10.331   4.036  0.1546 -0.9312 -0.3049
  300MOL0     C41267   9.037  10.360   3.953  0.5097  0.6232 -0.4174
  300MOL0     C41268   9.134  10.451   3.986 -0.4448 -0.3455 -0.3727
  300MOL0     C41269   9.108  10.542   4.089 -0.0838  0.6908  1.0769
  300MOL0     O41270   9.202  10.635   4.116 -0.0837 -0.1137  0.4833
  300MOL0     C41271   9.164  10.772   4.089  0.4526 -1.4939 -1.3099
  300MOL0     C41272   9.189  10.823   3.952  0.4693  0.0244  0.0422
  300MOL0     C41273   9.330  10.840   3.909  0.0848  0.9927 -0.6879
  300MOL0     C41274   9.410  10.936   3.989  0.3928 -0.5443  0.0291
  300MOL0     C41275   9.560  10.910   3.963  0.0420  0.4193  0.8586
  300MOL0     C41276   9.624  10.814   4.053 -0.0549 -0.1473  0.0208
  300MOL0     C41277   9.763  10.849   4.108 -0.4284 -0.0081 -0.0534
  300MOL0     C41278   9.779  10.792   4.247  0.6708  0.2578 -0.1057
  300MOL0     N41279   9.920  10.820   4.285  0.2644  0.6322  0.3366
  300MOL0     C41280  10.004  10.735   4.342 -0.0423  0.7775 -0.2869
  300MOL0     C41281  10.101  10.813   4.399  0.0418  0.3532  0.4341
  300MOL0     C41282  10.223  10.780   4.488  0.3753  0.6499 -0.5104
  300MOL0     C41283  10.287  10.658   4.433 -0.4826  1.0104  0.6137
  300MOL0     C41284  10.434  10.649   4.475 -0.2601  1.1868 -0.9621
  300MOL0     C41285  10.506  10.509   4.441 -0.2210  0.6096 -0.1917
  300MOL0     O41286  10.644  10.523   4.474 -0.4041 -0.5354 -0.4724
  300MOL0     C41287  10.716  10.408   4.460 -0.3123  0.4433  0.3227
  300MOL0     C41288  10.848  10.422   4.496  0.7815  0.3090 -0.2046
  300MOL0     C41289  10.930  10.306   4.492 -0.4197 -0.0744 -0.5564
  300MOL0     C41290  11.078  10.330   4.521 -0.4830  0.7351 -0.1684
  300MOL0     C41291  10.882  10.188   4.432  0.4105 -0.0607 -0.6214
  300MOL0     C41292  10.967  10.066   4.414 -0.6248 -0.5366 -0.3060
  300MOL0     O41293  11.034  10.012   4.523 -0.5928 -0.1194 -0.8004
  300MOL0     C41294  11.135   9.931   4.502 -0.8992 -0.2802  0.6431
  300MOL0     C41295  11.125   9.796   4.549 -0.8856 -0.3524 -0.1271
  300MOL0     C41296  11.230   9.712   4.521 -0.0119  0.8606  0.3029
  300MOL0     C41297  11.347   9.763   4.462 -0.3104  0.1030 -0.1107
  300MOL0     O41298  11.438   9.658   4.455 -0.7836 -0.0553  0.4197
  300MOL0     C41299  11.574   9.682   4.408  0.4872 -0.0635  1.0524
  300MOL0     C41300  11.661   9.557   4.413  0.3800  0.8282 -0.5852
  300MOL0     C41301  11.805   9.590   4.443 -0.2410 -0.5180 -0.3573
  300MOL0     C41302  11.896   9.469   4.394 -0.0132 -0.3525 -0.0137
  300MOL0     C41303  12.048   9.492   4.447  0.2239 -0.2159  0.9646
  300MOL0     C41304  12.158   9.449   4.339  0.1365 -1.5522 -0.4174
  300MOL0     C41305  12.178   9.300   4.344 -0.0899 -0.3552  0.7578
  300MOL0     C41306  12.296   9.247   4.259  0.5394 -0.1843  0.0702
  300MOL0    Cl41307  12.442   9.258   4.362 -0.1230 -0.6005 -0.0258
  300MOL0     C41308  11.360   9.893   4.428 -0.2301  0.1987 -0.5018
  300MOL0     C41309  11.251   9.983   4.437  0.0034  0.7470  0.2350
  300MOL0     O41310  10.963  10.019   4.303  0.1220 -0.1492 -0.0790
  300MOL0     C41311  10.753  10.177   4.394 -0.1017 -0.0399  1.1142
  300MOL0     C41312  10.671  10.285   4.413  0.3564 -0.2643 -0.4882
  300MOL0     N41313  10.073  10.939   4.367 -0.2061 -0.2333  0.1506
  300MOL0     N41314   9.964  10.941   4.313 -0.6215  0.4378 -0.1769
  300MOL0     C41315   8.999  10.519   4.171  0.3323  0.6794  0.8496
  300MOL0     C41316   8.909  10.411   4.149 -0.0300 -0.1411  0.4839
  300MOL0     C41317   8.666  10.112   3.886 -0.2595  1.2747 -0.6738
  300MOL0     C41318   8.639  10.011   3.986 -0.6432  0.4868  0.5179
  300MOL0     C41319   8.537   9.917   3.969  0.7071  0.0731 -0.2119
  300MOL0     C41320   8.446   9.923   3.864 -0.4818 -1.6475  0.8093
  300MOL0     O41321   8.342   9.836   3.834  0.0097 -0.1762 -0.2970
  300MOL0     C41322   8.339   9.710   3.896 -0.1157 -0.2273 -0.1780
  300MOL0     C41323   8.198   9.681   3.949 -0.8227 -0.3102  0.1841
  300MOL0     C41324   8.202   9.553   4.013 -0.7205  0.9431 -0.1111
  300MOL0     C41325   8.061   9.513   4.078 -0.7546  0.1102  0.0129
  300MOL0     C41326   8.064   9.372   4.122  0.0441  0.4108  0.1758
  300MOL0     C41327   8.055   9.252   4.149  0.3224 -0.5094 -0.2161
  300MOL0     C41328   8.459  10.032   3.783 -0.3753  0.0099 -0.3438
  300MOL0     C41329   8.567  10.118   3.788 -0.6230  0.4642  0.1108
  300MOL0     C41330   8.571  10.227   3.690  0.4031  0.2465  0.4068
  300MOL0     H41331   9.071  10.289   3.878  0.9247  1.1866 -0.7711
  300MOL0     H41332   9.233  10.469   3.946 -1.0421  0.6211 -1.4750
  300MOL0     H41333   9.227  10.832   4.156  0.6462 -1.1087 -1.8368
  300MOL0     H41334   9.059  10.793   4.111  0.6991  0.5777 -1.8656
  300MOL0     H41335   9.143  10.760   3.876 -1.9396 -0.3323  1.6801
  300MOL0     H41336   9.124  10.910   3.941 -0.8549 -1.0439 -0.9078
  300MOL0     H41337   9.379  10.745   3.934 -0.6752  0.3060 -1.7448
  300MOL0     H41338   9.333  10.857   3.801 -4.0970 -1.1299 -1.3248
  300MOL0     H41339   9.386  11.036   3.949 -0.3943 -1.5713 -2.2436
  300MOL0     H41340   9.379  10.946   4.093  0.7556 -1.4660  0.2251
  300MOL0     H41341   9.592  11.014   3.970  0.0118  0.3319  2.5662
  300MOL0     H41342   9.569  10.878   3.859 -3.8520  0.5055  0.3633
  300MOL0     H41343   9.563  10.802   4.143  2.0691 -1.8362  1.3370
  300MOL0     H41344   9.636  10.718   4.002  1.2580 -0.2702  0.5209
  300MOL0     H41345   9.786  10.956   4.114 -1.0922  0.1943 -0.8768
  300MOL0     H41346   9.835  10.794   4.047  1.4307 -0.0539  2.0781
  300MOL0     H41347   9.714  10.831   4.326 -0.3984 -0.1076 -0.7798
  300MOL0     H41348   9.760  10.685   4.237  2.8536 -0.4313  2.0609
  300MOL0     H41349   9.994  10.627   4.352  0.1242  0.6768 -1.1634
  300MOL0     H41350  10.186  10.763   4.590 -0.0258 -2.2255 -1.0471
  300MOL0     H41351  10.292  10.865   4.491  2.3855 -0.9413  0.6554
  300MOL0     H41352  10.232  10.568   4.464  1.2945 -1.5796 -3.0226
  300MOL0     H41353  10.287  10.640   4.325 -3.0619 -0.2440  0.7432
  300MOL0     H41354  10.482  10.731   4.420  1.4015 -0.9118 -2.8738
  300MOL0     H41355  10.440  10.670   4.582 -0.0478 -0.7005 -0.5672
  300MOL0     H41356  10.455  10.435   4.503 -0.4745  0.9456  0.0030
  300MOL0     H41357  10.500  10.484   4.335  2.9596 -0.2456 -0.2901
  300MOL0     H41358  10.873  10.520   4.535 -0.5951  0.9520 -0.8666
  300MOL0     H41359  11.126  10.265   4.594  1.4308 -0.1730 -2.1205
  300MOL0     H41360  11.109  10.435   4.530 -1.0848  1.0232 -1.2350
  300MOL0     H41361  11.131  10.304   4.428 -0.2529  1.4819 -0.2513
  300MOL0     H41362  11.051   9.744   4.608 -0.0689 -0.2341  1.0281
  300MOL0     H41363  11.225   9.608   4.551  3.0706  0.3106 -0.7541
  300MOL0     H41364  11.574   9.731   4.310  0.2771 -0.5903  0.7849
  300MOL0     H41365  11.619   9.754   4.478 -1.9743  0.1483  2.5310
  300MOL0     H41366  11.631   9.488   4.492 -0.3954  0.5987 -1.0684
  300MOL0     H41367  11.656   9.497   4.321 -1.0835 -1.3975  0.8530
  300MOL0     H41368  11.821   9.621   4.546 -1.3084 -0.6037 -0.1520
  300MOL0     H41369  11.835   9.675   4.381  1.7373 -1.3149 -0.5875
  300MOL0     H41370  11.876   9.450   4.288 -0.8038  2.3353 -0.4238
  300MOL0     H41371  11.860   9.373   4.430 -2.6771 -0.1690 -1.9345
  300MOL0     H41372  12.076   9.597   4.457  0.5486 -0.3718  1.7371
  300MOL0     H41373  12.053   9.432   4.538 -1.2123 -1.6364  0.1622
  300MOL0     H41374  12.250   9.493   4.377 -0.9011  0.4068 -0.0421
  300MOL0     H41375  12.137   9.493   4.241  0.6709 -0.8299 -0.2159
  300MOL0     H41376  12.085   9.254   4.307  0.8821 -1.0536 -0.9634
  300MOL0     H41377  12.192   9.263   4.446 -0.3350  1.3411  1.4370
  300MOL0     H41378  12.308   9.333   4.193 -0.7056  1.8983  2.3719
  300MOL0     H41379  12.282   9.160   4.194  0.6245 -1.0162  1.1370
  300MOL0     H41380  11.458   9.927   4.396  0.9048 -1.2065  1.2760
  300MOL0     H41381  11.254  10.082   4.393  0.7912  1.1938  1.2461
  300MOL0     H41382  10.713  10.082   4.359  0.4424  0.1607 -0.1145
  300MOL0     H41383  10.568  10.277   4.379 -0.6962  1.7852  1.9526
  300MOL0     H41384   8.973  10.581   4.255 -2.7099  0.7455 -0.0189
  300MOL0     H41385   8.830  10.379   4.216 -0.1999  0.9849  0.8460
  300MOL0     H41386   8.717  10.001   4.060  0.3007 -1.3312 -0.6775
  300MOL0     H41387   8.548   9.839   4.043  0.5694  0.7721  0.5495
  300MOL0     H41388   8.362   9.637   3.818 -0.6977 -0.0099 -0.5590
  300MOL0     H41389   8.411   9.695   3.977 -1.5642  0.4513  1.3216
  300MOL0     H41390   8.139   9.684   3.857  0.2448  1.4901 -0.4859
  300MOL0     H41391   8.164   9.761   4.017 -3.3303 -2.1432  1.2639
  300MOL0     H41392   8.221   9.472   3.942 -0.1141  1.0187 -0.0438
  300MOL0     H41393   8.287   9.549   4.082  0.0470  4.6028 -0.6442
  300MOL0     H41394   7.981   9.534   4.005  0.3461  0.1252 -1.2198
  300MOL0     H41395   8.024   9.576   4.160 -1.2412  0.0360 -0.1449
  300MOL0     H41396   8.039   9.149   4.173  0.8541 -0.6238 -0.3586
  300MOL0     H41397   8.389  10.035   3.700  1.0416 -1.6809 -1.6768
  300MOL0     H41398   8.495  10.203   3.615  1.3027  1.6022 -1.0097
  300MOL0     H41399   8.553  10.329   3.725  0.1078  0.9075 -1.5473
  300MOL0     H41400   8.660  10.216   3.627 -0.5472 -3.7063 -0.5306
  301MOL0     O41401   5.840  11.451   1.498 -0.2398 -0.5614 -0.8272
  301MOL0     C41402   5.880  11.341   1.513  1.0865  0.1382  0.7877
  301MOL0     O41403   5.985  11.305   1.577 -0.1245 -0.9157 -0.2365
  301MOL0     C41404   6.053  11.403   1.650  0.5784  0.1780  0.7491
  301MOL0     C41405   6.168  11.452   1.596 -0.1081 -0.4322 -0.6128
  301MOL0     C41406   6.246  11.544   1.672  0.9633  0.3546 -0.5053
  301MOL0     C41407   6.215  11.585   1.800 -0.5358  0.0769  0.2408
  301MOL0     O41408   6.279  11.692   1.855  0.2467 -1.0999  0.4947
  301MOL0     C41409   6.401  11.660   1.925 -0.4392  0.5204  0.7954
  301MOL0     C41410   6.475  11.788   1.965  0.6154 -0.1143  0.5724
  301MOL0     C41411   6.596  11.750   2.055 -0.7590  0.2415 -0.4296
  301MOL0     C41412   6.713  11.706   1.965 -0.4089 -0.4934 -0.4834
  301MOL0     C41413   6.832  11.655   2.056 -0.3283 -0.9144 -0.0488
  301MOL0     C41414   6.811  11.526   2.125  0.1328 -0.0666 -0.0054
  301MOL0     C41415   6.903  11.503   2.252  0.4203 -0.7384  0.7058
  301MOL0     C41416   6.869  11.394   2.355  0.4509 -0.4956  0.2720
  301MOL0     N41417   6.965  11.387   2.478  0.7336 -0.2594  0.3675
  301MOL0     C41418   6.979  11.491   2.570 -0.2649  0.2631  0.6888
  301MOL0     C41419   7.016  11.439   2.686  0.4038 -0.0009 -0.0448
  301MOL0     C41420   7.049  11.507   2.818  0.4195  0.7140 -0.0287
  301MOL0     C41421   7.054  11.410   2.941 -0.2455 -0.4747  0.2055
  301MOL0     C41422   7.201  11.365   2.976  0.0577 -0.2721  0.4067
  301MOL0     C41423   7.198  11.234   3.048 -0.4929  0.8120 -0.1291
  301MOL0     O41424   7.309  11.155   3.021 -1.2523 -1.0227 -0.0503
  301MOL0     C41425   7.413  11.156   3.111 -0.0037 -0.2475  0.4844
  301MOL0     C41426   7.490  11.039   3.126  0.9442 -0.4432 -0.5678
  301MOL0     C41427   7.616  11.040   3.191  0.2881 -0.9265  0.4753
  301MOL0     C41428   7.701  10.924   3.173  0.5406 -0.7581 -0.0235
  301MOL0     C41429   7.663  11.158   3.256  0.0898  0.2711  0.5998
  301MOL0     C41430   7.778  11.160   3.349 -0.5975 -0.0246  0.2896
  301MOL0     O41431   7.801  11.277   3.416  0.0989 -0.3048 -0.3061
  301MOL0     C41432   7.907  11.273   3.507  0.1830  0.0183  0.0172
  301MOL0     C41433   8.013  11.360   3.481 -0.2181 -0.2838  0.0873
  301MOL0     C41434   8.116  11.379   3.580 -0.5087 -0.5344  1.2875
  301MOL0     C41435   8.111  11.304   3.691 -0.9794  0.2770  0.5268
  301MOL0     O41436   8.210  11.308   3.788  0.3377 -0.3211  0.5611
  301MOL0     C41437   8.254  11.442   3.830  0.4405 -0.7980 -0.3850
  301MOL0     C41438   8.235  11.457   3.982  0.0141  0.4960  0.8930
  301MOL0     C41439   8.302  11.350   4.078  0.5608  0.4231 -0.2554
  301MOL0     C41440   8.452  11.327   4.050  0.1774  0.4888  0.8411
  301MOL0     C41441   8.513  11.257   4.174 -0.2496  0.3607 -0.0677
  301MOL0     C41442   8.660  11.239   4.148  0.8907 -0.6851  0.5715
  301MOL0     C41443   8.721  11.171   4.267 -0.0142  0.6112  0.7003
  301MOL0     C41444   8.876  11.152   4.240  0.4933  0.1104  0.4224
  301MOL0    Cl41445   8.959  11.069   4.368  0.1024  0.7144 -0.2946
  301MOL0     C41446   8.009  11.210   3.721  0.0801 -0.1972  0.3472
  301MOL0     C41447   7.904  11.198   3.625 -0.6296  1.0113 -0.4244
  301MOL0     O41448   7.851  11.060   3.364 -0.0299 -0.2616  0.6190
  301MOL0     C41449   7.579  11.270   3.247 -0.4849  0.4946  0.0649
  301MOL0     C41450   7.454  11.274   3.180 -0.7737  1.0479  0.3716
  301MOL0     N41451   7.027  11.296   2.662 -0.8244 -0.8556 -0.5090
  301MOL0     N41452   6.993  11.270   2.544 -0.2133 -0.2051 -0.3247
  301MOL0     C41453   6.105  11.520   1.860  0.3505  0.3112  0.5195
  301MOL0     C41454   6.020  11.429   1.789 -0.3693  0.2309  0.2457
  301MOL0     C41455   5.799  11.230   1.441  0.1597  0.8093 -0.1220
  301MOL0     C41456   5.864  11.118   1.394  0.3993  0.0994 -0.4337
  301MOL0     C41457   5.797  11.001   1.349 -0.2817 -0.5339  0.0846
  301MOL0     C41458   5.660  11.004   1.341  0.6849  0.8336  0.7897
  301MOL0     O41459   5.581  10.905   1.282 -0.0519 -0.1838  0.2334
  301MOL0     C41460   5.644  10.811   1.194 -0.0493  0.5661 -0.9513
  301MOL0     C41461   5.643  10.856   1.051  0.4064 -0.1219 -0.3394
  301MOL0     C41462   5.505  10.896   0.998  0.0249  0.2477  0.5000
  301MOL0     C41463   5.500  10.930   0.854 -0.1599 -0.2925  0.4566
  301MOL0     C41464   5.529  10.820   0.763  0.1084  0.7813 -0.3228
  301MOL0     C41465   5.519  10.743   0.669 -0.3254  0.1938 -1.3239
  301MOL0     C41466   5.593  11.122   1.366  0.3096 -0.0757 -0.4251
  301MOL0     C41467   5.658  11.235   1.418 -0.3995  0.1964 -0.0787
  301MOL0     C41468   5.563  11.343   1.456  0.4057  0.7880 -0.1112
  301MOL0     H41469   6.180  11.423   1.492 -0.5235  2.2129 -1.4890
  301MOL0     H41470   6.335  11.585   1.624 -0.4895  2.9308 -1.1967
  301MOL0     H41471   6.472  11.615   1.854 -2.3574 -5.0808  1.9495
  301MOL0     H41472   6.389  11.595   2.012  0.4897 -0.4817  0.2100
  301MOL0     H41473   6.497  11.845   1.875  2.1785 -2.2977 -0.5026
  301MOL0     H41474   6.397  11.844   2.017 -0.5857 -0.1657 -1.0947
  301MOL0     H41475   6.632  11.841   2.104 -1.1973  1.0778 -1.6069
  301MOL0     H41476   6.571  11.673   2.129 -1.6925  0.7234 -0.2290
  301MOL0     H41477   6.683  11.628   1.895 -1.7621  0.8133 -1.4224
  301MOL0     H41478   6.737  11.788   1.897  0.9127 -2.4705 -2.5622
  301MOL0     H41479   6.849  11.731   2.133 -1.3360 -0.4786 -0.2384
  301MOL0     H41480   6.922  11.650   1.995 -0.9607 -1.8852 -0.9477
  301MOL0     H41481   6.708  11.509   2.156  0.2522  0.6604  0.8581
  301MOL0     H41482   6.818  11.441   2.057 -0.0554  0.9924 -1.3864
  301MOL0     H41483   6.897  11.596   2.309 -4.6267 -1.2491  1.5121
  301MOL0     H41484   7.010  11.501   2.230  0.8797  1.9238  2.2838
  301MOL0     H41485   6.768  11.410   2.394  0.5640  1.3662 -0.0809
  301MOL0     H41486   6.877  11.297   2.306 -1.5445 -1.4070  1.6478
  301MOL0     H41487   6.971  11.594   2.540  0.2533  0.4765  1.2546
  301MOL0     H41488   6.973  11.584   2.834  0.2795  1.1552 -2.5152
  301MOL0     H41489   7.144  11.560   2.818 -0.0728  1.6165 -0.0119
  301MOL0     H41490   6.994  11.460   3.018 -2.8323  1.1656 -2.6490
  301MOL0     H41491   6.991  11.323   2.920 -2.0883  0.7738  0.2789
  301MOL0     H41492   7.259  11.349   2.885  3.0406 -3.2646  2.5816
  301MOL0     H41493   7.258  11.439   3.034  0.3201  1.4504 -1.8793
  301MOL0     H41494   7.180  11.255   3.154 -0.6412 -0.1438  0.0442
  301MOL0     H41495   7.116  11.167   3.023  0.8678 -0.9136 -0.1656
  301MOL0     H41496   7.464  10.949   3.070 -0.2610 -1.4790  1.5356
  301MOL0     H41497   7.693  10.859   3.260 -1.5370  3.2674  3.0930
  301MOL0     H41498   7.802  10.935   3.133  0.3662 -2.1134 -0.9253
  301MOL0     H41499   7.650  10.869   3.093 -0.4693  1.8338 -1.2830
  301MOL0     H41500   8.023  11.413   3.387  3.1465 -0.6282  0.1389
  301MOL0     H41501   8.205  11.439   3.567 -1.4488  0.8689  1.0891
  301MOL0     H41502   8.359  11.459   3.806  0.5442 -1.4224 -0.3999
  301MOL0     H41503   8.208  11.528   3.781 -1.1790 -1.5707 -0.2829
  301MOL0     H41504   8.285  11.553   3.999  1.1250  0.5022 -1.8476
  301MOL0     H41505   8.129  11.461   4.008  0.2306  2.2039  1.6908
  301MOL0     H41506   8.246  11.257   4.066  0.0705  0.8988 -2.0942
  301MOL0     H41507   8.287  11.390   4.179 -0.3883 -0.1704 -0.1431
  301MOL0     H41508   8.507  11.420   4.035  0.4981  0.9512  4.1747
  301MOL0     H41509   8.457  11.265   3.959 -1.4801  0.3005  0.8529
  301MOL0     H41510   8.511  11.331   4.255 -2.3048  4.2178 -3.2682
  301MOL0     H41511   8.459  11.166   4.200 -2.3926  1.0603 -1.7271
  301MOL0     H41512   8.706  11.338   4.140  1.6424 -1.0402  0.3762
  301MOL0     H41513   8.673  11.179   4.057 -0.3236 -0.8024  0.4571
  301MOL0     H41514   8.678  11.073   4.291  1.8015  0.0025  1.7164
  301MOL0     H41515   8.712  11.229   4.359 -0.2041 -0.0368  1.0954
  301MOL0     H41516   8.922  11.249   4.220 -0.1871  0.2763 -0.3899
  301MOL0     H41517   8.876  11.097   4.146 -2.2240  0.1181  0.3293
  301MOL0     H41518   8.013  11.153   3.813 -0.0171 -1.0031 -0.1304
  301MOL0     H41519   7.820  11.135   3.654  1.5504 -0.9188  2.1871
  301MOL0     H41520   7.609  11.362   3.297  2.2410 -0.8170  1.1081
  301MOL0     H41521   7.405  11.371   3.182  0.7187  1.8576 -0.2572
  301MOL0     H41522   6.078  11.542   1.963  1.1619 -0.4490  0.9062
  301MOL0     H41523   5.931  11.387   1.834 -2.5990  0.4065 -3.5489
  301MOL0     H41524   5.972  11.120   1.403  0.6337 -1.9782 -2.0914
  301MOL0     H41525   5.851  10.917   1.307  2.1212  1.9123 -2.1817
  301MOL0     H41526   5.742  10.774   1.223 -0.9544 -1.7884 -0.7071
  301MOL0     H41527   5.586  10.719   1.202  0.4887  0.3853  1.4067
  301MOL0     H41528   5.694  10.773   1.000 -0.8406 -2.5807  2.1148
  301MOL0     H41529   5.707  10.944   1.049  1.0450 -0.5798 -0.4117
  301MOL0     H41530   5.439  10.810   1.015  0.7619 -0.6644 -1.0520
  301MOL0     H41531   5.476  10.980   1.062  3.3607  0.7688  1.5563
  301MOL0     H41532   5.567  11.014   0.835 -2.0354  0.9986 -0.6561
  301MOL0     H41533   5.399  10.957   0.824  0.3643  1.4757  0.1993
  301MOL0     H41534   5.494  10.680   0.586 -2.2591 -0.6924 -0.1264
  301MOL0     H41535   5.491  11.139   1.333  0.6823  0.3641 -1.4266
  301MOL0     H41536   5.519  11.313   1.552  0.0767 -0.0494 -0.5153
  301MOL0     H41537   5.607  11.441   1.477 -0.1373  0.5656  2.4156
  301MOL0     H41538   5.478  11.352   1.388 -1.2315  0.7832  1.8512
  302MOL0     O41539   3.151   7.590   9.943 -0.1821 -0.5999  1.2823
  302MOL0     C41540   3.178   7.600   9.821 -0.3667  0.3064 -0.4262
  302MOL0     O41541   3.298   7.580   9.769 -0.2784 -0.6201 -0.1956
  302MOL0     C41542   3.406   7.528   9.842  0.5601  0.0297  0.2556
  302MOL0     C41543   3.474   7.593   9.938 -0.0829 -0.1028 -0.2758
  302MOL0     C41544   3.560   7.528  10.020  0.2523  0.0232 -0.1533
  302MOL0     C41545   3.593   7.392   9.997  0.1382  0.4652 -0.1071
  302MOL0     O41546   3.700   7.335  10.069 -0.1006  0.4965 -0.1092
  302MOL0     C41547   3.680   7.198  10.111  1.0645  0.4212  0.2140
  302MOL0     C41548   3.796   7.145  10.186 -0.0225  0.2268  0.0840
  302MOL0     C41549   3.939   7.186  10.138  0.4542 -0.0792 -0.2328
  302MOL0     C41550   3.975   7.146   9.999 -0.2292 -0.4393  1.0747
  302MOL0     C41551   3.971   6.992   9.987  0.2364  0.1300 -0.6203
  302MOL0     C41552   4.059   6.933   9.882  0.4141 -0.1877  0.0207
  302MOL0     C41553   4.043   6.784   9.889  0.2305  1.2874  0.1183
  302MOL0     C41554   4.098   6.698   9.771  0.4069 -0.3476  0.4298
  302MOL0     N41555   4.028   6.734   9.649  0.7851 -0.0546  0.4677
  302MOL0     C41556   3.890   6.690   9.634 -0.5316  0.5211 -0.7360
  302MOL0     C41557   3.874   6.728   9.506  0.1066  1.1222 -0.9010
  302MOL0     C41558   3.748   6.700   9.422  0.0628 -0.0921 -0.1441
  302MOL0     C41559   3.780   6.601   9.308  0.3942 -0.1954 -0.6209
  302MOL0     C41560   3.663   6.541   9.231 -0.0277 -0.3488  0.4233
  302MOL0     C41561   3.563   6.644   9.182  0.5401 -1.0127  0.7905
  302MOL0     O41562   3.459   6.576   9.103  0.1190 -0.3549  0.4254
  302MOL0     C41563   3.475   6.509   8.984 -0.6812 -0.3026 -0.3713
  302MOL0     C41564   3.582   6.532   8.890  0.4399  0.4736 -0.4713
  302MOL0     C41565   3.601   6.446   8.773  0.3206  0.5374  0.6511
  302MOL0     C41566   3.699   6.490   8.675  0.3570 -0.9417  0.2188
  302MOL0     C41567   3.515   6.331   8.758 -0.9022  0.3822  0.6634
  302MOL0     C41568   3.525   6.235   8.634  0.3505  0.0325 -0.3822
  302MOL0     O41569   3.594   6.272   8.510 -0.4653  0.0329  0.8241
  302MOL0     C41570   3.588   6.178   8.415  0.0897  0.1697 -0.3676
  302MOL0     C41571   3.695   6.096   8.386 -0.1105 -0.4594 -0.0338
  302MOL0     C41572   3.686   6.006   8.280  0.3120 -0.0154 -0.4122
  302MOL0     C41573   3.578   5.999   8.195  0.2651 -0.8571 -0.5076
  302MOL0     O41574   3.588   5.897   8.106  0.0046  0.7781 -0.1683
  302MOL0     C41575   3.503   5.890   7.992 -0.1853  0.7696 -0.0081
  302MOL0     C41576   3.381   5.795   8.012  0.3545  0.9968  0.5221
  302MOL0     C41577   3.434   5.650   8.001  0.0043 -1.5764 -0.5630
  302MOL0     C41578   3.326   5.550   8.054  0.3953  0.6357 -0.2567
  302MOL0     C41579   3.337   5.403   8.017  0.5565  0.1947  0.4096
  302MOL0     C41580   3.477   5.361   8.030 -0.4046 -0.1562 -0.0722
  302MOL0     C41581   3.500   5.213   7.991 -0.0343 -0.5454  0.2114
  302MOL0     C41582   3.638   5.161   8.013 -0.7218  0.5977  0.3458
  302MOL0    Cl41583   3.682   5.154   8.184  0.4131 -0.5829  0.4498
  302MOL0     C41584   3.467   6.066   8.237  0.1338 -0.7329  0.7449
  302MOL0     C41585   3.469   6.157   8.344  1.4781 -0.0460 -0.1560
  302MOL0     O41586   3.465   6.130   8.652  0.1802 -0.0169 -0.5002
  302MOL0     C41587   3.416   6.308   8.858 -0.3927 -0.0638  0.0264
  302MOL0     C41588   3.386   6.401   8.967 -1.1233 -0.2078 -0.2554
  302MOL0     N41589   3.979   6.790   9.445 -0.2060 -0.1004 -0.6180
  302MOL0     N41590   4.082   6.790   9.537  1.4629 -0.2844 -0.0336
  302MOL0     C41591   3.529   7.329   9.887 -0.6738 -0.5924  0.3550
  302MOL0     C41592   3.441   7.397   9.808  0.7449 -0.2181  0.6550
  302MOL0     C41593   3.075   7.663   9.731 -0.2038  0.1004 -0.6095
  302MOL0     C41594   2.996   7.764   9.783 -0.3271 -0.2437 -1.0402
  302MOL0     C41595   2.909   7.831   9.702  0.5623 -0.9329 -0.1450
  302MOL0     C41596   2.881   7.781   9.566  0.8945  0.5732 -0.3428
  302MOL0     O41597   2.793   7.854   9.486 -0.1525 -0.2374  0.1558
  302MOL0     C41598   2.731   7.797   9.376 -0.3294 -0.0572 -0.0698
  302MOL0     C41599   2.637   7.694   9.433  0.2795 -0.4315 -1.0033
  302MOL0     C41600   2.516   7.766   9.507 -0.5269 -0.3300  0.4990
  302MOL0     C41601   2.429   7.648   9.557  0.1885 -0.1493 -0.2033
  302MOL0     C41602   2.302   7.704   9.604  0.2764 -0.6591 -0.3556
  302MOL0     C41603   2.196   7.757   9.648  0.7162 -0.4846  0.5249
  302MOL0     C41604   2.954   7.672   9.520 -1.0149  0.6078 -0.2600
  302MOL0     C41605   3.059   7.619   9.599  1.0263  0.3874 -0.5198
  302MOL0     C41606   3.134   7.502   9.536 -1.1511  0.2389  0.2483
  302MOL0     H41607   3.455   7.699   9.951 -0.0803  0.2067 -2.4360
  302MOL0     H41608   3.627   7.578  10.089  2.8977 -0.6931 -2.0375
  302MOL0     H41609   3.652   7.141  10.022 -1.7299 -0.1504  1.3806
  302MOL0     H41610   3.591   7.200  10.174  0.3055  5.1997 -0.6103
  302MOL0     H41611   3.797   7.177  10.290  1.2527  1.4982 -0.2862
  302MOL0     H41612   3.781   7.037  10.176  0.7766  0.0067  1.0515
  302MOL0     H41613   3.940   7.296  10.145  2.1106 -0.1714  2.2193
  302MOL0     H41614   4.012   7.152  10.212  1.5743  0.0435 -1.2506
  302MOL0     H41615   3.895   7.183   9.934  1.6059  1.0095 -0.4811
  302MOL0     H41616   4.071   7.190   9.969 -0.8041  2.2871  2.8214
  302MOL0     H41617   3.864   6.975   9.973 -0.3444  2.2036  0.7663
  302MOL0     H41618   3.990   6.933  10.077  0.9962 -0.0392 -0.8808
  302MOL0     H41619   4.020   6.975   9.790 -1.5419  0.9905  1.3207
  302MOL0     H41620   4.165   6.954   9.899  0.8115 -2.4163  0.6383
  302MOL0     H41621   3.939   6.756   9.912  0.8012  0.3473  1.7089
  302MOL0     H41622   4.098   6.745   9.975 -1.6618 -0.6891  0.5355
  302MOL0     H41623   4.202   6.723   9.749  0.6196 -1.9230 -0.5200
  302MOL0     H41624   4.088   6.594   9.804  2.4613 -0.4327  0.8926
  302MOL0     H41625   3.830   6.619   9.691  2.9910 -0.8282  1.6303
  302MOL0     H41626   3.735   6.800   9.380  0.2225  1.6826  3.6446
  302MOL0     H41627   3.661   6.686   9.488 -0.8460  1.1115 -1.0346
  302MOL0     H41628   3.830   6.662   9.233  3.1814 -0.5522  0.8317
  302MOL0     H41629   3.854   6.527   9.339  1.1566  0.3004 -1.2181
  302MOL0     H41630   3.708   6.491   9.145  0.5163 -1.7099  1.4633
  302MOL0     H41631   3.620   6.457   9.287  0.3754 -1.7604 -1.3114
  302MOL0     H41632   3.512   6.698   9.262  1.6075  1.6856 -0.2522
  302MOL0     H41633   3.607   6.724   9.122 -0.4435 -1.5039 -0.6436
  302MOL0     H41634   3.643   6.622   8.896  0.1695  0.7986 -2.1421
  302MOL0     H41635   3.758   6.405   8.637  2.1079 -0.1938  1.1494
  302MOL0     H41636   3.756   6.571   8.720  0.5208 -0.3553 -1.0182
  302MOL0     H41637   3.634   6.537   8.600  1.5083  1.8064  0.8327
  302MOL0     H41638   3.786   6.096   8.447 -0.3018 -1.0897  0.2695
  302MOL0     H41639   3.773   5.948   8.251  0.8486  0.4359  0.2792
  302MOL0     H41640   3.475   5.991   7.959  0.0061 -0.3050 -4.0476
  302MOL0     H41641   3.555   5.862   7.900 -1.6415  1.8384 -1.2190
  302MOL0     H41642   3.333   5.800   8.110  0.1742  0.4046  0.4695
  302MOL0     H41643   3.314   5.815   7.928  0.8479 -2.1168 -0.7670
  302MOL0     H41644   3.523   5.640   8.064 -1.7626 -0.8523  2.2238
  302MOL0     H41645   3.454   5.628   7.896  0.6532 -0.5217 -0.6757
  302MOL0     H41646   3.229   5.592   8.025  1.1818  1.2634 -2.1223
  302MOL0     H41647   3.332   5.558   8.163  1.9392 -1.8542 -0.0896
  302MOL0     H41648   3.272   5.344   8.082  0.3232 -1.8575 -1.5601
  302MOL0     H41649   3.303   5.387   7.914 -0.6345  0.7683  0.7030
  302MOL0     H41650   3.509   5.375   8.133 -1.8359 -0.6315  0.4623
  302MOL0     H41651   3.547   5.424   7.975 -1.3995 -1.1537 -2.7059
  302MOL0     H41652   3.482   5.193   7.885  4.0327 -0.1798 -0.6864
  302MOL0     H41653   3.430   5.160   8.056 -2.0906  1.6909  0.0224
  302MOL0     H41654   3.708   5.214   7.947 -1.6214  1.8723  0.3874
  302MOL0     H41655   3.630   5.060   7.974  0.7598  1.1986 -1.7077
  302MOL0     H41656   3.370   6.052   8.191  0.2833 -3.4207  1.0870
  302MOL0     H41657   3.378   6.215   8.356  2.1726  1.2874 -1.1539
  302MOL0     H41658   3.350   6.222   8.858 -1.2901  0.6039 -0.2522
  302MOL0     H41659   3.313   6.389   9.047 -0.0792  0.6880  0.8598
  302MOL0     H41660   3.539   7.224   9.859 -0.1646 -0.3712 -0.3073
  302MOL0     H41661   3.398   7.351   9.719  2.0064 -0.5993  0.2223
  302MOL0     H41662   3.006   7.800   9.885  1.8336 -1.6843 -0.6567
  302MOL0     H41663   2.862   7.918   9.748 -1.1780 -1.5971 -0.5786
  302MOL0     H41664   2.691   7.880   9.317  2.2705  1.3490 -0.0175
  302MOL0     H41665   2.813   7.756   9.316  0.9642  0.7499  1.0872
  302MOL0     H41666   2.679   7.630   9.511  0.0094  0.9162  0.2821
  302MOL0     H41667   2.606   7.629   9.350 -3.0503 -1.4801  0.8811
  302MOL0     H41668   2.554   7.823   9.592  4.3223 -0.9884 -0.9664
  302MOL0     H41669   2.459   7.832   9.441 -1.9572  1.4380  3.3057
  302MOL0     H41670   2.481   7.596   9.638  1.1308  0.6020 -0.3177
  302MOL0     H41671   2.413   7.583   9.471 -0.1908  0.1987 -0.4001
  302MOL0     H41672   2.104   7.799   9.682  0.6756 -2.0545  2.5348
  302MOL0     H41673   2.949   7.636   9.418 -0.7849  2.1783 -0.8519
  302MOL0     H41674   3.082   7.466   9.446  0.5905 -2.4115  0.1779
  302MOL0     H41675   3.230   7.544   9.507 -2.0517  1.0170 -1.8039
  302MOL0     H41676   3.147   7.413   9.599 -1.9767  0.1816  0.3574
  303MOL0     O41677   9.190   1.072   5.152 -0.1991  0.4758 -0.1981
  303MOL0     C41678   9.227   1.028   5.040  0.0624  0.5017 -0.0833
  303MOL0     O41679   9.354   1.026   4.994  0.1040 -0.0707  0.6657
  303MOL0     C41680   9.446   1.031   5.087  1.0939 -0.0887 -0.1897
  303MOL0     C41681   9.485   1.148   5.151  1.0848 -0.2379 -0.8519
  303MOL0     C41682   9.584   1.150   5.246 -1.8396  0.5103  1.4803
  303MOL0     C41683   9.658   1.028   5.269  0.0664 -0.4784 -0.6045
  303MOL0     O41684   9.760   1.021   5.357  0.5632  0.1945  0.6065
  303MOL0     C41685   9.888   0.999   5.297  0.6614  0.1058 -0.1386
  303MOL0     C41686   9.979   1.103   5.361  0.1159 -0.1418 -0.4285
  303MOL0     C41687  10.127   1.092   5.321 -0.1058 -0.4461 -0.1346
  303MOL0     C41688  10.206   1.223   5.355 -0.2207  0.2275 -0.7169
  303MOL0     C41689  10.339   1.190   5.292  0.0502 -0.3213 -0.7199
  303MOL0     C41690  10.436   1.303   5.329  0.4694  0.4730 -0.4731
  303MOL0     C41691  10.564   1.297   5.247 -0.0588 -0.1234  0.6493
  303MOL0     C41692  10.667   1.410   5.285 -1.4265  0.3720 -0.2090
  303MOL0     N41693  10.778   1.421   5.192  0.4403 -0.1303  0.3484
  303MOL0     C41694  10.857   1.317   5.129 -0.2689 -0.5936 -0.3517
  303MOL0     C41695  10.929   1.379   5.042 -0.6532  0.4649 -0.2066
  303MOL0     C41696  11.042   1.321   4.957 -0.2743  0.3498 -0.2017
  303MOL0     C41697  11.176   1.367   5.014  0.0875  0.8112  0.0740
  303MOL0     C41698  11.201   1.299   5.151  0.7396 -0.1749  1.3025
  303MOL0     C41699  11.332   1.343   5.205 -0.1927 -0.0380  1.1545
  303MOL0     O41700  11.436   1.325   5.100  1.1118 -0.5309  0.2535
  303MOL0     C41701  11.567   1.318   5.142 -0.6449 -0.1493 -0.1561
  303MOL0     C41702  11.653   1.263   5.049  0.5225 -0.6363  0.7538
  303MOL0     C41703  11.792   1.261   5.056 -0.0381 -0.5036  0.6071
  303MOL0     C41704  11.869   1.191   4.943 -0.5857 -0.0997  0.1178
  303MOL0     C41705  11.845   1.308   5.182  0.0807 -0.6588  0.3838
  303MOL0     C41706  11.984   1.315   5.219  0.8273  0.9671 -0.3701
  303MOL0     O41707  12.010   1.309   5.358 -0.0249  0.2261  0.0576
  303MOL0     C41708  12.134   1.315   5.413  0.8666  0.7332  0.3521
  303MOL0     C41709  12.113   1.317   5.556  0.4734 -0.6738  0.3730
  303MOL0     C41710  12.226   1.306   5.640  0.0185 -0.8308  0.5022
  303MOL0     C41711  12.353   1.296   5.578  0.2929  0.6160 -0.0331
  303MOL0     O41712  12.468   1.282   5.659 -0.3611 -0.9540  0.0773
  303MOL0     C41713  12.471   1.356   5.791 -0.1252  0.3360  0.2297
  303MOL0     C41714  12.568   1.472   5.771  0.1376 -0.1501 -0.5968
  303MOL0     C41715  12.708   1.419   5.777  1.1593 -0.1393 -0.2474
  303MOL0     C41716  12.815   1.514   5.715 -0.2184 -0.1677 -0.0359
  303MOL0     C41717  12.957   1.463   5.746 -0.4596 -0.7099 -0.8498
  303MOL0     C41718  13.060   1.567   5.689 -0.2050 -0.7764  0.6148
  303MOL0     C41719  13.202   1.538   5.729 -0.4574  0.5113 -0.5595
  303MOL0     C41720  13.311   1.639   5.687 -0.5039  0.8589 -0.3711
  303MOL0    Cl41721  13.473   1.573   5.684 -0.0880  0.0459 -0.3678
  303MOL0     C41722  12.373   1.294   5.446 -0.5043  0.0191 -0.4936
  303MOL0     C41723  12.263   1.303   5.357 -0.3386  0.2813  0.0656
  303MOL0     O41724  12.067   1.324   5.133 -0.4880  0.1284  0.2720
  303MOL0     C41725  11.758   1.364   5.279  0.6422 -0.3297  0.2264
  303MOL0     C41726  11.620   1.372   5.266 -0.1225  0.1239  0.4345
  303MOL0     N41727  10.898   1.511   5.034 -0.0146  0.3382  0.1017
  303MOL0     N41728  10.817   1.536   5.132 -0.3016  0.8117 -0.7475
  303MOL0     C41729   9.625   0.917   5.201  0.7756 -0.4623  0.6619
  303MOL0     C41730   9.518   0.916   5.108  0.5791 -0.2148 -0.5148
  303MOL0     C41731   9.118   0.970   4.959  0.4329 -0.4748  0.1234
  303MOL0     C41732   9.108   0.994   4.816  0.8631  0.4254  0.3703
  303MOL0     C41733   9.001   0.947   4.740 -0.3141  0.5764  0.3559
  303MOL0     C41734   8.887   0.894   4.805  0.6387  0.1692  0.0872
  303MOL0     O41735   8.780   0.849   4.723 -0.4805 -0.0687  0.1229
  303MOL0     C41736   8.672   0.778   4.785 -0.8602  0.1363 -0.5894
  303MOL0     C41737   8.565   0.759   4.684 -0.6010 -0.1978 -0.3489
  303MOL0     C41738   8.471   0.876   4.667  0.4099  0.3495 -0.0495
  303MOL0     C41739   8.357   0.840   4.572  1.1498  0.4426  0.5725
  303MOL0     C41740   8.268   0.742   4.642  0.2836 -0.0673 -0.4426
  303MOL0     C41741   8.186   0.665   4.697 -0.3449  0.7423  0.5257
  303MOL0     C41742   8.899   0.868   4.940  0.3807  0.0235 -0.4489
  303MOL0     C41743   9.006   0.902   5.016 -0.1018 -0.9760  0.0552
  303MOL0     C41744   8.984   0.875   5.167 -0.1141 -0.0543 -0.8288
  303MOL0     H41745   9.448   1.245   5.117  3.1782  0.8137 -0.2891
  303MOL0     H41746   9.619   1.237   5.300 -0.4956  1.4681 -0.7734
  303MOL0     H41747   9.885   1.011   5.189  0.2593  2.4033  0.0788
  303MOL0     H41748   9.919   0.899   5.328  0.3240 -1.0840 -3.3497
  303MOL0     H41749   9.927   1.194   5.329 -2.3931 -1.3636 -0.0537
  303MOL0     H41750   9.968   1.085   5.468 -1.3347 -1.6162 -0.7851
  303MOL0     H41751  10.175   1.006   5.368  0.6667 -0.1195 -0.3102
  303MOL0     H41752  10.123   1.082   5.212  0.2531  1.0016 -0.3030
  303MOL0     H41753  10.152   1.313   5.325  0.7379  2.3108  3.1007
  303MOL0     H41754  10.223   1.234   5.463 -1.5559 -1.7316 -0.2417
  303MOL0     H41755  10.332   1.194   5.183  2.7496  1.1929 -0.9146
  303MOL0     H41756  10.382   1.095   5.326  0.1782 -0.2929 -0.8032
  303MOL0     H41757  10.398   1.405   5.312 -0.6884  0.7292  2.8758
  303MOL0     H41758  10.448   1.292   5.437  0.7342 -2.5006 -0.7475
  303MOL0     H41759  10.535   1.306   5.142 -0.7727  1.0226  0.9322
  303MOL0     H41760  10.613   1.202   5.274  2.2563  0.3501 -1.4212
  303MOL0     H41761  10.620   1.509   5.291  1.2380  1.7231 -0.3384
  303MOL0     H41762  10.713   1.389   5.382  1.0805 -2.3753 -1.8088
  303MOL0     H41763  10.858   1.216   5.167  2.6912 -0.0986  1.2050
  303MOL0     H41764  11.034   1.365   4.857  0.7735  0.3982 -0.2777
  303MOL0     H41765  11.047   1.212   4.952  0.6531  0.4263 -1.6388
  303MOL0     H41766  11.248   1.324   4.944 -3.2288 -2.2070 -1.7975
  303MOL0     H41767  11.190   1.475   5.009  1.0064  0.6864 -0.2953
  303MOL0     H41768  11.119   1.313   5.222 -0.4683 -1.7853  0.2916
  303MOL0     H41769  11.218   1.192   5.141  1.1543 -0.2387  2.5152
  303MOL0     H41770  11.332   1.450   5.229 -1.6254 -0.2926  2.4296
  303MOL0     H41771  11.363   1.288   5.294  0.9360 -1.2999  0.0414
  303MOL0     H41772  11.609   1.209   4.965  1.9287 -0.1434 -0.3433
  303MOL0     H41773  11.914   1.097   4.976  0.5690  0.5482  0.4703
  303MOL0     H41774  11.954   1.255   4.915  0.0189 -0.4811  1.0251
  303MOL0     H41775  11.809   1.173   4.854  1.3416  0.4458 -1.3655
  303MOL0     H41776  12.008   1.323   5.581 -0.0200  2.0676 -1.9140
  303MOL0     H41777  12.206   1.300   5.746 -2.3394  0.3535  0.1964
  303MOL0     H41778  12.373   1.399   5.813 -0.2131  1.7638 -2.5430
  303MOL0     H41779  12.500   1.298   5.879  2.9884  0.0413 -0.8661
  303MOL0     H41780  12.555   1.528   5.678  3.9531 -0.5479 -1.5270
  303MOL0     H41781  12.560   1.549   5.847  2.1119  1.5165 -1.9625
  303MOL0     H41782  12.709   1.324   5.722 -0.2972 -0.5067  0.3260
  303MOL0     H41783  12.731   1.392   5.881 -3.0769 -1.0655  0.6341
  303MOL0     H41784  12.817   1.618   5.749  0.0603  0.5768 -2.1257
  303MOL0     H41785  12.815   1.510   5.605  1.7244 -1.5841 -0.0306
  303MOL0     H41786  12.971   1.457   5.854  3.3449 -0.3025 -1.1759
  303MOL0     H41787  12.980   1.364   5.705  1.8444 -0.2775 -0.7581
  303MOL0     H41788  13.030   1.667   5.722 -1.9986 -1.9829  2.9017
  303MOL0     H41789  13.057   1.573   5.579  1.5812 -1.5136  0.5047
  303MOL0     H41790  13.242   1.447   5.685  1.6635  1.3038 -0.3800
  303MOL0     H41791  13.206   1.508   5.834  2.2349 -3.5777 -1.6040
  303MOL0     H41792  13.302   1.717   5.763 -2.2213 -1.6445  2.2136
  303MOL0     H41793  13.287   1.684   5.590 -1.0570 -0.5993 -0.9566
  303MOL0     H41794  12.477   1.299   5.413  0.4186  1.6620  2.2687
  303MOL0     H41795  12.276   1.308   5.250  2.3952 -2.9317  0.1002
  303MOL0     H41796  11.802   1.420   5.360  0.9043  1.1527 -0.8876
  303MOL0     H41797  11.571   1.441   5.334  0.6270  0.9367  0.1589
  303MOL0     H41798   9.673   0.823   5.223 -1.1085 -1.9217 -1.0106
  303MOL0     H41799   9.493   0.822   5.061 -1.2515 -0.4814  0.9058
  303MOL0     H41800   9.186   1.036   4.754 -0.7143  2.1551 -0.5618
  303MOL0     H41801   9.004   0.967   4.633  0.7900 -1.8228 -0.1367
  303MOL0     H41802   8.697   0.676   4.816  2.9014  1.0004 -0.2858
  303MOL0     H41803   8.625   0.820   4.875 -2.4128 -1.4555 -0.5781
  303MOL0     H41804   8.505   0.673   4.715  0.8775 -0.2154  2.8446
  303MOL0     H41805   8.609   0.736   4.586  1.0828 -0.2078  0.3645
  303MOL0     H41806   8.426   0.911   4.760 -0.1981 -0.4995 -0.0159
  303MOL0     H41807   8.525   0.959   4.620 -0.3992 -1.7093 -5.2353
  303MOL0     H41808   8.401   0.793   4.484 -0.7492 -3.5303  1.5125
  303MOL0     H41809   8.295   0.926   4.548 -1.7167 -1.0320  2.1053
  303MOL0     H41810   8.114   0.599   4.739 -0.3433 -0.3584 -1.0984
  303MOL0     H41811   8.825   0.807   4.991 -0.8470  1.1490 -0.8048
  303MOL0     H41812   8.946   0.968   5.212  3.8957  1.1588  0.5120
  303MOL0     H41813   8.908   0.798   5.183  0.0822  0.3941  3.7838
  303MOL0     H41814   9.075   0.836   5.213  0.8662  1.7895 -1.0811
  304MOL0     O41815  10.259   8.819   0.492 -0.1291 -0.3624 -0.0222
  304MOL0     C41816  10.204   8.925   0.475 -0.5957 -0.9314  0.1920
  304MOL0     O41817  10.260   9.045   0.502  0.0061  0.5961  0.1722
  304MOL0     C41818  10.377   9.055   0.575  0.2371  0.0358  0.4069
  304MOL0     C41819  10.485   9.141   0.543 -0.0912  1.3284  0.1652
  304MOL0     C41820  10.579   9.163   0.630  0.0023 -0.8624 -0.7415
  304MOL0     C41821  10.593   9.103   0.754  0.1976 -0.1316 -0.2674
  304MOL0     O41822  10.712   9.129   0.816  0.3408 -0.1556  0.8131
  304MOL0     C41823  10.758   9.055   0.925  0.6329  0.5026  0.5464
  304MOL0     C41824  10.898   9.093   0.961  0.1325 -0.5710 -1.5408
  304MOL0     C41825  10.925   9.033   1.103 -0.3707 -0.0064  0.3935
  304MOL0     C41826  11.075   8.999   1.136  0.4246  0.3562 -0.5765
  304MOL0     C41827  11.073   8.910   1.255 -0.2046 -0.7915 -0.2577
  304MOL0     C41828  11.221   8.891   1.303  1.1479 -0.0888  0.7451
  304MOL0     C41829  11.243   8.757   1.372 -0.7532  0.4401  0.2239
  304MOL0     C41830  11.388   8.754   1.407 -0.0697 -0.4016 -0.8919
  304MOL0     N41831  11.428   8.618   1.430  0.3532  0.8772  0.2975
  304MOL0     C41832  11.516   8.575   1.535 -0.8231 -0.0241 -0.3799
  304MOL0     C41833  11.555   8.456   1.481  0.2971  0.5074 -0.0381
  304MOL0     C41834  11.654   8.368   1.539  0.2850 -0.0694  0.7866
  304MOL0     C41835  11.593   8.233   1.590 -0.4299  0.6089 -0.6176
  304MOL0     C41836  11.692   8.122   1.628 -0.3724  0.1355  0.5945
  304MOL0     C41837  11.816   8.095   1.536 -0.1546  0.0103 -0.0496
  304MOL0     O41838  11.766   8.062   1.409  0.0882  0.2175  0.0495
  304MOL0     C41839  11.846   8.059   1.298 -0.0713 -0.1181 -0.6409
  304MOL0     C41840  11.984   8.096   1.296 -0.7530 -0.4501  0.2189
  304MOL0     C41841  12.053   8.104   1.174 -0.4853  0.6369 -0.2510
  304MOL0     C41842  12.200   8.145   1.190 -0.2518  0.7772  0.7373
  304MOL0     C41843  12.000   8.056   1.052 -0.4216 -0.0478  0.1173
  304MOL0     C41844  12.081   8.040   0.922  0.7595 -0.4385  0.2411
  304MOL0     O41845  12.008   8.037   0.807 -0.0182 -0.0966  0.0691
  304MOL0     C41846  12.077   8.077   0.697  0.0065 -0.5155  0.1848
  304MOL0     C41847  12.105   8.212   0.662 -0.9810 -0.3985 -0.3466
  304MOL0     C41848  12.166   8.247   0.542  0.5295  0.0622 -1.1722
  304MOL0     C41849  12.207   8.150   0.451 -0.2564  1.1372  0.5633
  304MOL0     O41850  12.273   8.166   0.327  0.0035 -0.8537  0.3186
  304MOL0     C41851  12.310   8.302   0.285  0.1060 -0.5376 -0.4929
  304MOL0     C41852  12.444   8.337   0.363  0.9233  0.0606 -0.4467
  304MOL0     C41853  12.510   8.471   0.317 -0.2544  0.1228  0.0721
  304MOL0     C41854  12.567   8.464   0.172 -0.0580 -0.8339 -0.2799
  304MOL0     C41855  12.649   8.584   0.124 -0.0638  0.3882 -0.2434
  304MOL0     C41856  12.711   8.554  -0.018 -0.4647  0.0313 -0.1579
  304MOL0     C41857  12.602   8.576  -0.127 -0.1246  0.0808 -0.4966
  304MOL0     C41858  12.651   8.523  -0.253 -0.5402  0.0909  0.7319
  304MOL0    Cl41859  12.558   8.601  -0.394  0.0245 -0.2455 -0.4978
  304MOL0     C41860  12.180   8.017   0.491 -0.4860  0.0546 -0.0461
  304MOL0     C41861  12.119   7.982   0.607  0.5097  0.8198  0.2848
  304MOL0     O41862  12.201   8.021   0.938 -0.4586  0.0160  0.7177
  304MOL0     C41863  11.858   8.025   1.056  0.1285 -0.5197 -0.4621
  304MOL0     C41864  11.783   8.036   1.172  0.8165 -0.4955 -0.3164
  304MOL0     N41865  11.507   8.434   1.359  0.3286  1.4005  0.0752
  304MOL0     N41866  11.424   8.521   1.329 -0.0301 -0.3549  0.5017
  304MOL0     C41867  10.496   9.006   0.780 -0.4431 -0.2987  0.2118
  304MOL0     C41868  10.386   8.987   0.697 -0.5318  0.6790  0.3892
  304MOL0     C41869  10.067   8.918   0.414  0.5373  0.2874 -0.8063
  304MOL0     C41870  10.007   9.037   0.361  0.3417 -0.8452 -0.7296
  304MOL0     C41871   9.889   9.023   0.291  0.1106  0.1172  0.4067
  304MOL0     C41872   9.809   8.904   0.284 -0.4365  0.5848  0.9424
  304MOL0     O41873   9.689   8.897   0.215  0.2382  0.3352  0.0850
  304MOL0     C41874   9.598   9.009   0.188  0.2121 -0.2668  0.3809
  304MOL0     C41875   9.588   9.053   0.044  0.4072 -0.8603  0.3171
  304MOL0     C41876   9.508   9.185   0.036 -0.7493  0.0268 -1.3114
  304MOL0     C41877   9.458   9.210  -0.110  0.9349 -0.6152 -0.7035
  304MOL0     C41878   9.331   9.272  -0.115 -0.1310  0.3177  0.2107
  304MOL0     C41879   9.220   9.321  -0.115  0.0277 -0.4655  0.6393
  304MOL0     C41880   9.869   8.791   0.336 -0.1381  0.6933  0.5618
  304MOL0     C41881   9.984   8.798   0.411 -0.3596  0.5310 -0.2282
  304MOL0     C41882  10.033   8.664   0.479  0.3887 -0.5179  0.7843
  304MOL0     H41883  10.477   9.174   0.440  2.0078  0.9249 -0.1786
  304MOL0     H41884  10.661   9.231   0.613  1.3606 -2.6913 -1.8041
  304MOL0     H41885  10.765   8.953   0.886 -1.1922  1.2203 -1.9587
  304MOL0     H41886  10.686   9.074   1.004 -0.6525  1.9533 -0.9072
  304MOL0     H41887  10.969   9.042   0.895  1.2086  1.1219 -1.7551
  304MOL0     H41888  10.909   9.202   0.963  2.9300 -0.7606 -2.1585
  304MOL0     H41889  10.888   9.103   1.179  1.4853  0.7016  0.7012
  304MOL0     H41890  10.864   8.942   1.108 -0.7552  0.0530 -1.9598
  304MOL0     H41891  11.119   8.945   1.052  0.4917  2.5741 -2.0609
  304MOL0     H41892  11.137   9.089   1.145  2.5367 -0.8372 -2.3524
  304MOL0     H41893  11.042   8.811   1.220  0.5602 -1.8501  1.9140
  304MOL0     H41894  11.011   8.953   1.334 -0.7754  0.9136 -1.5612
  304MOL0     H41895  11.294   8.886   1.222  0.2034  1.8703 -0.2971
  304MOL0     H41896  11.245   8.967   1.378 -0.8484  2.3916 -0.9678
  304MOL0     H41897  11.223   8.672   1.308 -1.0256 -0.4465  1.4414
  304MOL0     H41898  11.185   8.749   1.464 -2.0433 -0.4995 -0.6436
  304MOL0     H41899  11.452   8.793   1.327  0.9640 -1.6340 -0.6836
  304MOL0     H41900  11.410   8.809   1.498  0.8852 -2.0470 -0.0855
  304MOL0     H41901  11.541   8.638   1.620 -0.9778  4.1504 -3.1310
  304MOL0     H41902  11.702   8.418   1.624 -0.6002  2.1067  0.0844
  304MOL0     H41903  11.731   8.343   1.466 -0.6164  0.1871 -0.2719
  304MOL0     H41904  11.531   8.258   1.677 -1.2377  1.6879 -1.4766
  304MOL0     H41905  11.525   8.191   1.515 -1.3089  2.0840 -0.7028
  304MOL0     H41906  11.728   8.138   1.730 -0.9093  1.4699  0.5987
  304MOL0     H41907  11.649   8.023   1.639 -0.3622 -0.4926 -3.5006
  304MOL0     H41908  11.886   8.180   1.526 -1.2479  0.7467 -2.1673
  304MOL0     H41909  11.878   8.014   1.574  2.0613  1.6812  0.1455
  304MOL0     H41910  12.034   8.119   1.390 -1.0804  0.6078  0.1469
  304MOL0     H41911  12.243   8.219   1.122  1.3170 -0.9843 -0.3292
  304MOL0     H41912  12.266   8.058   1.178 -1.0436 -0.2828  3.3690
  304MOL0     H41913  12.206   8.186   1.291 -3.4262 -0.9390  1.7615
  304MOL0     H41914  12.091   8.295   0.731  0.7765 -0.1429 -0.2373
  304MOL0     H41915  12.180   8.351   0.517 -2.5349  0.6284 -0.8672
  304MOL0     H41916  12.329   8.307   0.178  2.0888  0.8266 -0.1502
  304MOL0     H41917  12.230   8.374   0.300  1.0643  0.6405 -0.8788
  304MOL0     H41918  12.434   8.347   0.472  2.4434  0.4546 -0.3074
  304MOL0     H41919  12.515   8.254   0.355  3.3502  1.8652  0.6630
  304MOL0     H41920  12.599   8.498   0.375  0.9878 -1.8589 -0.8112
  304MOL0     H41921  12.443   8.558   0.316  0.8044  0.9754  0.3279
  304MOL0     H41922  12.487   8.437   0.103  0.8721 -1.9129 -0.9661
  304MOL0     H41923  12.637   8.380   0.179 -0.0687 -0.8975 -0.9184
  304MOL0     H41924  12.591   8.677   0.124 -1.1944 -0.2055  3.1117
  304MOL0     H41925  12.724   8.602   0.202 -1.2341  2.1077  0.5526
  304MOL0     H41926  12.737   8.447  -0.023  2.1879  0.5252  1.3708
  304MOL0     H41927  12.800   8.612  -0.043 -2.1968  2.3650 -1.2084
  304MOL0     H41928  12.574   8.682  -0.130 -2.4417 -0.4663 -0.1296
  304MOL0     H41929  12.512   8.521  -0.100  0.6228 -0.3970  1.1792
  304MOL0     H41930  12.645   8.414  -0.254 -1.5133  0.1315  0.4043
  304MOL0     H41931  12.749   8.567  -0.271 -0.4265 -0.9161 -1.3827
  304MOL0     H41932  12.192   7.942   0.413 -1.8513  1.4950 -1.7352
  304MOL0     H41933  12.095   7.876   0.612  2.4368  0.3869  1.4241
  304MOL0     H41934  11.807   7.996   0.965 -0.7016  2.3711 -1.0043
  304MOL0     H41935  11.680   8.007   1.155  0.7617  0.2996 -1.4277
  304MOL0     H41936  10.496   8.967   0.881  1.9269  0.5888  0.6250
  304MOL0     H41937  10.303   8.924   0.729  0.1759 -0.6252 -0.2677
  304MOL0     H41938  10.050   9.137   0.368  0.6017 -0.9571 -0.7326
  304MOL0     H41939   9.841   9.114   0.258  1.1592  0.2881 -0.7046
  304MOL0     H41940   9.497   8.979   0.217 -0.3466  2.9755  2.2857
  304MOL0     H41941   9.639   9.093   0.245  1.5661  0.4549 -1.5446
  304MOL0     H41942   9.529   8.977  -0.007  0.3028 -0.7227  0.2336
  304MOL0     H41943   9.682   9.065  -0.011  0.4422  0.3304  0.6025
  304MOL0     H41944   9.430   9.171   0.111  0.3408  1.4067  0.1440
  304MOL0     H41945   9.576   9.265   0.068  1.4516 -1.2842 -2.4392
  304MOL0     H41946   9.450   9.113  -0.159 -4.1682 -1.5120  1.2846
  304MOL0     H41947   9.521   9.281  -0.164 -0.8189  3.1115  1.7155
  304MOL0     H41948   9.136   9.388  -0.108 -1.3387 -1.9722 -0.4925
  304MOL0     H41949   9.811   8.701   0.317  2.4712 -1.1620  0.8951
  304MOL0     H41950  10.034   8.669   0.588 -2.5665 -1.0552  0.9180
  304MOL0     H41951   9.948   8.596   0.469 -0.6880  0.5195  2.2827
  304MOL0     H41952  10.120   8.617   0.432 -0.1805  1.6259 -2.8019
  305MOL0     O41953   8.926  10.234   9.161  0.8488  0.7195  0.1791
  305MOL0     C41954   8.858  10.288   9.069  0.2496  0.5872 -0.0694
  305MOL0     O41955   8.900  10.321   8.940 -0.9205 -0.4705  0.5997
  305MOL0     C41956   9.031  10.286   8.904 -0.2053 -0.5058 -0.6119
  305MOL0     C41957   9.034  10.222   8.778  0.0109  0.5387 -0.6589
  305MOL0     C41958   9.160  10.184   8.728  0.2250  0.9886  0.1663
  305MOL0     C41959   9.278  10.192   8.803  0.3514  0.4856  1.0190
  305MOL0     O41960   9.398  10.157   8.739 -0.5096  0.0689 -0.0221
  305MOL0     C41961   9.512  10.118   8.827 -0.1342 -0.2863 -0.5100
  305MOL0     C41962   9.618  10.034   8.760  0.5815  0.5248 -0.0307
  305MOL0     C41963   9.737  10.015   8.857  0.5993  0.9451  0.2247
  305MOL0     C41964   9.849   9.930   8.794 -0.2744 -0.2994  0.1855
  305MOL0     C41965   9.967   9.916   8.898  0.6345  0.0377 -0.1292
  305MOL0     C41966  10.101   9.856   8.849  0.5754 -0.1485  0.1324
  305MOL0     C41967  10.069   9.719   8.797  0.8918 -0.4697 -0.1537
  305MOL0     C41968  10.197   9.646   8.760 -0.0380  0.2465  0.3365
  305MOL0     N41969  10.167   9.501   8.724  0.3968 -1.2567  0.2895
  305MOL0     C41970  10.114   9.458   8.602  0.2083  0.0775  0.9450
  305MOL0     C41971  10.118   9.321   8.611 -0.3523 -0.9879 -1.5726
  305MOL0     C41972  10.101   9.236   8.487  0.5212  0.0553  0.0452
  305MOL0     C41973   9.983   9.137   8.507  0.5127 -0.5343  0.6806
  305MOL0     C41974  10.009   9.022   8.598 -0.1747  0.4416 -0.4048
  305MOL0     C41975   9.907   8.913   8.589  0.7144 -1.0195 -0.2507
  305MOL0     O41976   9.896   8.859   8.453 -1.1069 -0.3380 -0.2829
  305MOL0     C41977  10.013   8.822   8.386 -0.1259  0.3424 -0.0995
  305MOL0     C41978  10.091   8.735   8.456 -0.0053  0.3270  0.0569
  305MOL0     C41979  10.200   8.676   8.390 -0.3281 -0.8720  0.7652
  305MOL0     C41980  10.293   8.589   8.476 -0.2994 -0.3446  0.1075
  305MOL0     C41981  10.228   8.700   8.252  0.8235 -0.0872 -0.0975
  305MOL0     C41982  10.334   8.638   8.183  0.0853  0.1207 -0.1612
  305MOL0     O41983  10.323   8.500   8.169 -0.2620 -0.4675  0.0952
  305MOL0     C41984  10.428   8.447   8.104  0.6572  0.0253  0.1220
  305MOL0     C41985  10.408   8.385   7.984 -0.5018 -0.9173  0.2567
  305MOL0     C41986  10.518   8.325   7.918  0.1482 -0.2763 -0.5844
  305MOL0     C41987  10.649   8.335   7.982 -0.4157  1.3475  0.1689
  305MOL0     O41988  10.758   8.268   7.924  1.0987 -0.3046 -0.1707
  305MOL0     C41989  10.727   8.168   7.827 -0.0580 -0.1369  0.4350
  305MOL0     C41990  10.860   8.114   7.780 -0.2284 -0.5080  0.1334
  305MOL0     C41991  10.944   8.216   7.712  0.7002 -0.4167  0.2645
  305MOL0     C41992  11.071   8.158   7.640  0.0921 -0.0957 -0.2992
  305MOL0     C41993  11.160   8.268   7.579 -0.6170  0.8184 -1.0695
  305MOL0     C41994  11.291   8.211   7.510 -0.6933  0.2580 -0.1712
  305MOL0     C41995  11.406   8.311   7.492 -0.5699 -0.7778  0.7247
  305MOL0     C41996  11.509   8.258   7.393  0.0653  1.0646 -0.1716
  305MOL0    Cl41997  11.557   8.092   7.436  0.6651  0.7701 -0.2755
  305MOL0     C41998  10.660   8.395   8.106  0.3138  0.9971  0.4004
  305MOL0     C41999  10.554   8.463   8.161  0.0204 -0.4217  0.2599
  305MOL0     O42000  10.433   8.714   8.153  0.8341  0.6441 -0.5476
  305MOL0     C42001  10.145   8.797   8.187  0.6968  0.4617  0.2331
  305MOL0     C42002  10.037   8.854   8.255 -0.6039 -0.5401  0.1971
  305MOL0     N42003  10.167   9.285   8.735 -0.3935  0.0818  0.1575
  305MOL0     N42004  10.197   9.389   8.799  0.2448 -0.5508  0.4379
  305MOL0     C42005   9.273  10.247   8.932 -0.3848  0.3187 -0.5235
  305MOL0     C42006   9.150  10.297   8.979  0.7441 -0.3036 -0.9716
  305MOL0     C42007   8.721  10.325   9.095  0.5768  0.2672  0.3977
  305MOL0     C42008   8.700  10.416   9.203 -0.3949 -0.1438  0.3262
  305MOL0     C42009   8.576  10.462   9.236 -0.4062  0.4217  0.4776
  305MOL0     C42010   8.470  10.413   9.153  0.4356  0.4399 -0.3749
  305MOL0     O42011   8.341  10.454   9.163 -0.1503 -0.3575  0.0733
  305MOL0     C42012   8.273  10.436   9.291  1.3440  0.2655 -0.3746
  305MOL0     C42013   8.279  10.553   9.402  0.2399  0.6572 -0.0463
  305MOL0     C42014   8.228  10.679   9.329  0.7242 -0.2604 -0.0155
  305MOL0     C42015   8.174  10.790   9.428  0.5212  0.4733 -0.6886
  305MOL0     C42016   8.041  10.743   9.477 -0.0598 -0.4551 -0.7554
  305MOL0     C42017   7.934  10.712   9.497 -0.1576 -0.7741  0.2893
  305MOL0     C42018   8.493  10.322   9.048 -0.0054 -0.5065 -0.2227
  305MOL0     C42019   8.618  10.277   9.008  0.3271  0.6867  0.3530
  305MOL0     C42020   8.636  10.179   8.893  0.3617 -0.3970 -0.2732
  305MOL0     H42021   8.943  10.215   8.719 -0.8279  1.8710  0.4037
  305MOL0     H42022   9.155  10.136   8.631  2.8584 -2.3418  1.4821
  305MOL0     H42023   9.466  10.065   8.911  0.7748  2.4573  1.8634
  305MOL0     H42024   9.559  10.213   8.853  3.6308 -0.6027 -4.9307
  305MOL0     H42025   9.569   9.944   8.723  0.7172  0.7264 -0.7208
  305MOL0     H42026   9.652  10.092   8.673 -1.6498  1.5167 -0.3138
  305MOL0     H42027   9.780  10.113   8.879 -0.7454  1.2576  1.5933
  305MOL0     H42028   9.712   9.960   8.948 -2.5198 -2.9971 -2.6279
  305MOL0     H42029   9.806   9.831   8.777 -0.8833  0.3685 -2.6833
  305MOL0     H42030   9.894   9.969   8.702  3.3155  0.1463  1.9586
  305MOL0     H42031   9.928   9.864   8.985 -1.0360  0.3568 -0.6536
  305MOL0     H42032   9.994  10.014   8.938 -0.4192  0.9002 -1.3994
  305MOL0     H42033  10.143   9.914   8.766 -0.8570  3.3576  1.6324
  305MOL0     H42034  10.179   9.853   8.926 -2.7758 -3.0280  3.8388
  305MOL0     H42035  10.002   9.732   8.712 -1.0239  1.8237  1.5581
  305MOL0     H42036  10.020   9.657   8.872  1.2259  2.2069  2.5068
  305MOL0     H42037  10.244   9.688   8.671  1.0281 -1.2389  0.1495
  305MOL0     H42038  10.260   9.647   8.849 -0.9303  0.6070  0.9744
  305MOL0     H42039  10.082   9.517   8.516 -0.5518 -1.9945 -0.2553
  305MOL0     H42040  10.196   9.188   8.458  1.0198 -0.4897  2.4129
  305MOL0     H42041  10.080   9.307   8.406  0.6052 -0.8509 -0.8055
  305MOL0     H42042   9.898   9.192   8.550 -0.4062 -2.4064  1.3699
  305MOL0     H42043   9.941   9.100   8.413  2.1381  1.0252 -0.7164
  305MOL0     H42044  10.104   8.971   8.576 -1.9580 -2.3581 -2.1963
  305MOL0     H42045  10.007   9.057   8.701  0.6951 -0.7209  0.0337
  305MOL0     H42046   9.926   8.836   8.664  0.9855 -3.0087 -2.2451
  305MOL0     H42047   9.804   8.949   8.600  0.9363 -0.7984  1.2122
  305MOL0     H42048  10.084   8.712   8.561  0.2286  1.7850  0.4175
  305MOL0     H42049  10.392   8.609   8.434 -0.2186 -0.4244  0.2622
  305MOL0     H42050  10.278   8.482   8.461  2.1057 -0.6184 -0.7832
  305MOL0     H42051  10.277   8.614   8.581 -1.7330  0.0108 -0.1692
  305MOL0     H42052  10.310   8.380   7.937 -0.6566  0.6954  0.3568
  305MOL0     H42053  10.506   8.291   7.816  0.1050  2.3337 -1.5383
  305MOL0     H42054  10.661   8.087   7.859 -1.8155  0.4789 -1.4090
  305MOL0     H42055  10.686   8.211   7.735  0.5127 -0.6067 -0.0573
  305MOL0     H42056  10.917   8.065   7.859 -0.8284  0.8841  1.4949
  305MOL0     H42057  10.826   8.040   7.706  0.8401 -1.5750  0.6851
  305MOL0     H42058  10.985   8.286   7.786  2.4504 -0.4212 -0.6511
  305MOL0     H42059  10.889   8.264   7.631 -0.5126 -2.1226  0.0138
  305MOL0     H42060  11.038   8.100   7.553  2.8038  1.7737 -2.7755
  305MOL0     H42061  11.122   8.101   7.718  0.6954 -1.2045 -1.4512
  305MOL0     H42062  11.100   8.320   7.504  0.3508  2.8996 -0.4834
  305MOL0     H42063  11.193   8.334   7.660 -0.1968  0.9080 -1.3129
  305MOL0     H42064  11.262   8.183   7.408  1.6772 -1.1616 -0.5601
  305MOL0     H42065  11.323   8.116   7.556 -0.3822  0.3934 -0.1047
  305MOL0     H42066  11.447   8.336   7.590  2.9037  1.5272 -1.1115
  305MOL0     H42067  11.362   8.398   7.444 -3.3248 -2.8179 -0.6914
  305MOL0     H42068  11.594   8.326   7.403 -0.0512  1.4672 -1.7718
  305MOL0     H42069  11.475   8.264   7.289 -1.0839  1.0032  0.1832
  305MOL0     H42070  10.760   8.402   8.149  0.3548 -0.9285  0.7088
  305MOL0     H42071  10.561   8.520   8.252 -1.0341 -0.7964  0.5873
  305MOL0     H42072  10.160   8.826   8.083  0.5662  1.1698  0.4066
  305MOL0     H42073   9.969   8.933   8.224  1.5827  1.2604 -0.2487
  305MOL0     H42074   9.366  10.254   8.989  0.6655 -3.7345 -1.3937
  305MOL0     H42075   9.138  10.339   9.079 -2.3173  2.1641 -2.1799
  305MOL0     H42076   8.785  10.449   9.263 -0.5086  0.8277 -0.0328
  305MOL0     H42077   8.559  10.542   9.307 -1.8110 -1.0751  1.9233
  305MOL0     H42078   8.167  10.424   9.269  0.6128  2.9179  1.2711
  305MOL0     H42079   8.318  10.349   9.340  0.2562 -0.4362 -0.5864
  305MOL0     H42080   8.387  10.566   9.416  0.5578 -0.5953 -1.1732
  305MOL0     H42081   8.227  10.522   9.493  0.0600  2.9473  0.7003
  305MOL0     H42082   8.309  10.732   9.278  3.2592 -1.8630  2.1117
  305MOL0     H42083   8.149  10.655   9.258  2.8041 -1.4862 -2.0612
  305MOL0     H42084   8.159  10.886   9.379 -1.7578  1.6186  1.9894
  305MOL0     H42085   8.247  10.801   9.508 -0.3910 -2.2637  0.6710
  305MOL0     H42086   7.834  10.679   9.519  0.1468 -1.3955  0.7562
  305MOL0     H42087   8.407  10.287   8.992  0.2169 -0.7763 -0.3967
  305MOL0     H42088   8.540  10.140   8.860  0.7273  0.8300 -3.0227
  305MOL0     H42089   8.689  10.231   8.813  1.7763 -1.3518  0.0072
  305MOL0     H42090   8.701  10.097   8.925  0.6731 -0.2929 -0.6292
  306MOL0     O42091   0.390   9.369  11.427  0.7503  0.1660  0.4748
  306MOL0     C42092   0.418   9.246  11.449 -0.4277 -0.3347 -0.7899
  306MOL0     O42093   0.513   9.208  11.537 -0.3478 -0.1960 -0.3473
  306MOL0     C42094   0.601   9.303  11.594  0.8667 -0.5091 -0.4368
  306MOL0     C42095   0.738   9.291  11.573 -0.6259 -0.0490  0.1936
  306MOL0     C42096   0.835   9.386  11.626  0.7574 -0.4975 -0.3435
  306MOL0     C42097   0.782   9.484  11.717 -0.4707  0.4188 -0.4845
  306MOL0     O42098   0.877   9.562  11.772  0.3127  0.2442  0.4563
  306MOL0     C42099   0.850   9.653  11.885 -0.3360  0.3242  0.1636
  306MOL0     C42100   0.833   9.572  12.015  0.9698  0.0673  0.6038
  306MOL0     C42101   0.966   9.541  12.084 -0.4283 -1.1268 -0.1235
  306MOL0     C42102   1.036   9.662  12.150  0.3529  0.1510  0.3092
  306MOL0     C42103   1.179   9.624  12.184  0.6769 -0.5848  0.5145
  306MOL0     C42104   1.224   9.720  12.300 -1.1440  0.7386 -0.2027
  306MOL0     C42105   1.364   9.681  12.355  0.0015  0.0600 -0.5053
  306MOL0     C42106   1.384   9.534  12.408 -0.2369  0.1452 -0.2642
  306MOL0     N42107   1.478   9.520  12.521 -0.6228  0.0765  1.0272
  306MOL0     C42108   1.440   9.531  12.649  0.3254  0.1458  0.1026
  306MOL0     C42109   1.533   9.462  12.722 -0.5593  0.5590  0.8535
  306MOL0     C42110   1.508   9.444  12.875 -0.8192  0.2233 -0.2884
  306MOL0     C42111   1.366   9.395  12.911 -0.5743 -0.1255  0.7809
  306MOL0     C42112   1.321   9.419  13.056 -0.5105  0.2153 -0.8971
  306MOL0     C42113   1.183   9.372  13.081  0.5192  0.9555 -0.2507
  306MOL0     O42114   1.084   9.439  13.004 -1.5573 -0.6767 -0.7212
  306MOL0     C42115   1.061   9.573  13.029  1.3152  0.5357  0.6224
  306MOL0     C42116   0.999   9.641  12.919 -0.1058 -0.3020 -0.6638
  306MOL0     C42117   0.951   9.775  12.928 -0.1708  0.0034  0.3796
  306MOL0     C42118   0.881   9.829  12.804  0.3271  0.7340 -0.3703
  306MOL0     C42119   0.966   9.844  13.053  0.5354 -0.2787  0.2832
  306MOL0     C42120   0.934   9.991  13.068 -0.6849 -1.4947  0.1139
  306MOL0     O42121   0.873  10.036  13.183  0.1799 -0.0076  0.6873
  306MOL0     C42122   0.910  10.149  13.247 -0.2432 -0.7600 -0.1525
  306MOL0     C42123   0.813  10.204  13.332  0.6572  0.1499  0.0565
  306MOL0     C42124   0.831  10.331  13.392  0.0284 -0.2499 -0.6488
  306MOL0     C42125   0.958  10.401  13.377  0.8813 -0.9618 -0.5877
  306MOL0     O42126   0.992  10.526  13.421  0.2508 -0.6545 -0.0855
  306MOL0     C42127   0.936  10.551  13.555  0.0116  0.2350  0.2105
  306MOL0     C42128   1.054  10.575  13.651  0.3414  0.0604  0.2582
  306MOL0     C42129   1.136  10.689  13.598 -0.1909  0.1802  1.1059
  306MOL0     C42130   1.239  10.714  13.704  0.0790  0.7764 -0.5614
  306MOL0     C42131   1.352  10.814  13.665 -0.5365  0.3367 -0.3351
  306MOL0     C42132   1.468  10.805  13.764  0.4257 -0.0049 -0.5154
  306MOL0     C42133   1.585  10.896  13.708  0.1159  0.0149  0.2293
  306MOL0     C42134   1.721  10.888  13.779  0.4079  0.5998 -0.3775
  306MOL0    Cl42135   1.803  10.741  13.713 -0.0242 -0.0568  0.0960
  306MOL0     C42136   1.048  10.340  13.288 -0.1376 -0.3878 -0.0465
  306MOL0     C42137   1.028  10.223  13.222 -0.1512 -0.2143 -0.2323
  306MOL0     O42138   0.966  10.069  12.974  0.4513  0.5233 -0.1977
  306MOL0     C42139   1.030   9.778  13.158 -0.2394  0.6040 -0.5396
  306MOL0     C42140   1.070   9.645  13.149 -0.6750  0.0617 -0.5448
  306MOL0     N42141   1.641   9.424  12.635  0.2010 -0.8051 -0.2287
  306MOL0     N42142   1.598   9.443  12.514  0.1617  0.4020 -0.5140
  306MOL0     C42143   0.641   9.488  11.751 -0.5045  0.0427  0.5757
  306MOL0     C42144   0.553   9.395  11.695 -0.0745  0.3824 -0.3875
  306MOL0     C42145   0.352   9.123  11.391  0.2635 -0.7713 -0.0806
  306MOL0     C42146   0.367   8.993  11.442  0.5601 -0.5595  0.9365
  306MOL0     C42147   0.302   8.881  11.394 -0.4048 -0.1585  0.6217
  306MOL0     C42148   0.235   8.890  11.269 -0.3249  0.6850 -0.5564
  306MOL0     O42149   0.190   8.774  11.213  0.2325 -0.9848  0.0178
  306MOL0     C42150   0.295   8.708  11.138 -0.3253 -0.4669  0.2390
  306MOL0     C42151   0.303   8.747  10.991  0.3065  0.1657 -0.5256
  306MOL0     C42152   0.164   8.784  10.933  0.2998 -1.2228 -0.1011
  306MOL0     C42153   0.168   8.842  10.788  0.3580  0.3080 -0.7028
  306MOL0     C42154   0.157   8.987  10.781  0.2238 -0.2169 -0.5959
  306MOL0     C42155   0.141   9.108  10.784  0.2055  0.3582  0.2103
  306MOL0     C42156   0.217   9.015  11.218 -0.5083 -0.0979 -0.6092
  306MOL0     C42157   0.259   9.135  11.284 -1.1101 -0.2408  0.8542
  306MOL0     C42158   0.213   9.262  11.209 -0.3662  0.4519  0.0479
  306MOL0     H42159   0.772   9.215  11.504 -1.6886 -1.7981  1.5263
  306MOL0     H42160   0.940   9.387  11.598  1.1946  1.4945  1.0833
  306MOL0     H42161   0.757   9.705  11.857  0.4229  1.6237 -0.0099
  306MOL0     H42162   0.925   9.732  11.893 -1.0274  0.9169  0.9419
  306MOL0     H42163   0.773   9.634  12.082  1.9846  4.0666 -1.8985
  306MOL0     H42164   0.781   9.477  12.000  0.0792  0.4532  1.1867
  306MOL0     H42165   0.939   9.461  12.153 -1.8930 -0.1616  0.4927
  306MOL0     H42166   1.042   9.508  12.013 -0.1806 -1.4303  0.2769
  306MOL0     H42167   1.032   9.749  12.084 -1.3256 -1.2681 -1.5767
  306MOL0     H42168   0.987   9.676  12.247  0.4870  1.5665  0.2011
  306MOL0     H42169   1.242   9.637  12.096 -0.6308 -0.6158 -0.4494
  306MOL0     H42170   1.173   9.518  12.210  0.4526 -1.0877 -1.4507
  306MOL0     H42171   1.217   9.825  12.267 -2.9260  1.0140  0.8923
  306MOL0     H42172   1.148   9.710  12.379 -1.7588 -0.6029 -0.9460
  306MOL0     H42173   1.385   9.746  12.441  1.3532  0.6404 -1.2462
  306MOL0     H42174   1.442   9.698  12.280 -0.7789  1.0552 -1.1002
  306MOL0     H42175   1.283   9.505  12.438  1.0262 -0.8688  3.5920
  306MOL0     H42176   1.414   9.471  12.324  2.7398  1.3865 -0.2529
  306MOL0     H42177   1.344   9.569  12.684 -0.8900 -2.7466  0.1772
  306MOL0     H42178   1.536   9.531  12.935  0.9441 -0.1905 -0.4460
  306MOL0     H42179   1.584   9.372  12.908 -0.1781  1.4003  0.8941
  306MOL0     H42180   1.295   9.440  12.841  2.1144  0.4391 -1.7289
  306MOL0     H42181   1.354   9.287  12.898 -0.1420 -0.2984  1.7078
  306MOL0     H42182   1.385   9.361  13.124 -1.3632  0.3828  0.0537
  306MOL0     H42183   1.342   9.522  13.085 -1.9797 -0.4246  2.9500
  306MOL0     H42184   1.168   9.266  13.057 -4.3938  1.5113 -0.7961
  306MOL0     H42185   1.157   9.381  13.186 -0.3796 -1.6551 -0.1739
  306MOL0     H42186   0.957   9.584  12.837 -1.3531 -1.3802  0.6776
  306MOL0     H42187   0.934   9.921  12.778  0.1393  0.5226 -1.5786
  306MOL0     H42188   0.777   9.855  12.826  0.7910  1.0141  1.7144
  306MOL0     H42189   0.890   9.758  12.722  3.6434 -0.8965  1.2151
  306MOL0     H42190   0.713  10.162  13.337  0.7173  0.0160  0.1214
  306MOL0     H42191   0.753  10.381  13.449  2.0703  2.3323  0.1024
  306MOL0     H42192   0.878  10.643  13.549 -0.0648  0.2634  1.1305
  306MOL0     H42193   0.883  10.464  13.595  0.3020 -0.7111 -1.3848
  306MOL0     H42194   1.015  10.598  13.751 -1.2287  1.2181 -0.5691
  306MOL0     H42195   1.109  10.480  13.646  1.2212  0.5925 -0.8085
  306MOL0     H42196   1.068  10.775  13.594  1.4054  1.4373 -1.4063
  306MOL0     H42197   1.189  10.673  13.504  2.6903 -1.1873  2.8228
  306MOL0     H42198   1.279  10.619  13.742 -1.1544  0.3518 -0.3020
  306MOL0     H42199   1.185  10.754  13.790 -1.0397 -1.8030  0.0443
  306MOL0     H42200   1.387  10.792  13.564  1.8513 -5.2248  1.2952
  306MOL0     H42201   1.310  10.915  13.668 -2.4184 -0.4154  1.9384
  306MOL0     H42202   1.508  10.703  13.771 -0.2045 -0.5155 -3.1723
  306MOL0     H42203   1.438  10.843  13.862  0.2904 -0.5063 -0.3579
  306MOL0     H42204   1.546  10.997  13.723 -3.1601 -1.0794 -0.2107
  306MOL0     H42205   1.592  10.891  13.599 -2.9876 -1.5190 -0.0046
  306MOL0     H42206   1.709  10.885  13.887  3.1221  0.2113 -0.0182
  306MOL0     H42207   1.780  10.977  13.755 -2.0273  1.8783 -2.0962
  306MOL0     H42208   1.142  10.393  13.276 -0.5579  1.6356  3.8086
  306MOL0     H42209   1.103  10.185  13.153 -0.2643 -0.3897 -0.2593
  306MOL0     H42210   1.049   9.828  13.253  1.9712  0.3680 -0.8031
  306MOL0     H42211   1.133   9.610  13.230  1.1250  4.2931  0.1344
  306MOL0     H42212   0.595   9.564  11.814  2.0784  2.8153 -0.6361
  306MOL0     H42213   0.447   9.395  11.720  0.5648 -0.7048  2.8007
  306MOL0     H42214   0.430   8.984  11.530  1.6822 -3.0788 -0.0128
  306MOL0     H42215   0.312   8.781  11.436 -1.2234 -1.0543 -1.1969
  306MOL0     H42216   0.388   8.710  11.195 -1.3105 -2.9182  2.1069
  306MOL0     H42217   0.264   8.603  11.137  0.7229 -0.8159 -1.8036
  306MOL0     H42218   0.342   8.661  10.936 -0.2132  0.1974 -0.9532
  306MOL0     H42219   0.375   8.829  10.988 -0.1506  0.5500 -1.6156
  306MOL0     H42220   0.102   8.695  10.940 -1.6051  0.1322  1.2016
  306MOL0     H42221   0.108   8.860  10.988  1.4593 -1.6141  1.7063
  306MOL0     H42222   0.082   8.796  10.739 -1.5462  1.1175  1.6590
  306MOL0     H42223   0.253   8.796  10.736  0.8989 -0.7025  0.9894
  306MOL0     H42224   0.125   9.214  10.778  1.2363  0.4298 -1.9646
  306MOL0     H42225   0.155   9.014  11.128 -0.6714 -2.8228 -0.5400
  306MOL0     H42226   0.288   9.279  11.131 -1.4120 -0.8098 -1.3066
  306MOL0     H42227   0.111   9.249  11.173 -0.6515 -0.9868  1.2810
  306MOL0     H42228   0.214   9.357  11.263  1.6578  0.8937 -0.6641
  307MOL0     O42229   2.638  10.490   7.328 -0.0966  0.1894 -0.3811
  307MOL0     C42230   2.610  10.496   7.450 -0.5510 -0.6012 -0.4587
  307MOL0     O42231   2.679  10.436   7.552  0.0441 -0.0117  0.1167
  307MOL0     C42232   2.779  10.335   7.538  0.1928  0.6416 -0.6138
  307MOL0     C42233   2.885  10.362   7.456  0.6988  0.4197 -0.2044
  307MOL0     C42234   2.991  10.267   7.439 -0.3799 -0.8904 -0.5633
  307MOL0     C42235   2.979  10.142   7.502 -0.5715  0.3547  1.1469
  307MOL0     O42236   3.069  10.046   7.480 -0.3464 -0.7662  0.5655
  307MOL0     C42237   3.137  10.028   7.355 -0.6619 -0.1649  0.5325
  307MOL0     C42238   3.219   9.905   7.361  0.7700  0.5529  0.1591
  307MOL0     C42239   3.318   9.901   7.478  1.3940 -0.0771  0.2028
  307MOL0     C42240   3.426  10.007   7.441 -0.2237 -0.1600 -0.7657
  307MOL0     C42241   3.544   9.978   7.527  0.4259  0.2919  0.0047
  307MOL0     C42242   3.658  10.076   7.480  0.1778  0.1539 -0.0199
  307MOL0     C42243   3.791  10.023   7.536  1.0503 -0.0644  1.0588
  307MOL0     C42244   3.809  10.009   7.681  0.5381 -0.7532  0.3034
  307MOL0     N42245   3.944  10.005   7.715 -0.5634 -0.1716  0.1953
  307MOL0     C42246   4.022  10.106   7.748  0.5024  0.1102  0.3580
  307MOL0     C42247   4.140  10.052   7.773 -0.4165 -0.1132 -0.1008
  307MOL0     C42248   4.264  10.131   7.809  0.0220  0.2393  0.0761
  307MOL0     C42249   4.393  10.064   7.743 -0.6778 -0.1030  0.3377
  307MOL0     C42250   4.526  10.155   7.768 -0.9988  0.5775 -0.3062
  307MOL0     C42251   4.663  10.087   7.724 -0.2469 -0.6344 -0.5224
  307MOL0     O42252   4.770  10.168   7.773  0.3586  0.4980  0.0537
  307MOL0     C42253   4.898  10.155   7.717 -0.4820 -0.3696 -1.1063
  307MOL0     C42254   4.951  10.041   7.652 -0.4190 -0.0920 -0.1894
  307MOL0     C42255   5.084  10.029   7.621 -0.3145 -0.5196 -0.2712
  307MOL0     C42256   5.136   9.888   7.582  0.8182 -1.3918 -0.1878
  307MOL0     C42257   5.175  10.134   7.648  0.3626 -0.1130 -1.5077
  307MOL0     C42258   5.315  10.126   7.620  0.3904  0.4745  0.5359
  307MOL0     O42259   5.376  10.227   7.560  0.3836 -0.1916  0.1172
  307MOL0     C42260   5.507  10.252   7.601  0.7187  1.2355 -0.3787
  307MOL0     C42261   5.606  10.260   7.501  0.2048 -0.8363 -0.2592
  307MOL0     C42262   5.745  10.278   7.535 -0.0581 -0.6051 -0.1223
  307MOL0     C42263   5.774  10.315   7.664  0.7509 -0.1955  0.1163
  307MOL0     O42264   5.901  10.350   7.714 -0.1778 -0.0877 -0.7039
  307MOL0     C42265   6.011  10.340   7.623  0.8494  0.2980 -0.3505
  307MOL0     C42266   6.134  10.314   7.704 -0.1600 -0.2078  0.5593
  307MOL0     C42267   6.262  10.284   7.626 -0.5718 -0.5487  0.2721
  307MOL0     C42268   6.367  10.253   7.734 -0.7021  0.6908  0.0208
  307MOL0     C42269   6.513  10.253   7.678  0.4194 -0.4574  0.1640
  307MOL0     C42270   6.596  10.167   7.769  0.1720  0.1521  0.1654
  307MOL0     C42271   6.733  10.125   7.700  0.6692  0.6963 -0.5368
  307MOL0     C42272   6.820  10.244   7.655  0.6042  0.2128  0.7003
  307MOL0    Cl42273   6.800  10.402   7.740  0.0989  0.0169 -0.3057
  307MOL0     C42274   5.674  10.314   7.758 -0.3250 -0.2045 -0.5159
  307MOL0     C42275   5.540  10.284   7.731  0.7227  0.9929  0.1900
  307MOL0     O42276   5.378  10.030   7.668  0.1990 -0.1958  0.2867
  307MOL0     C42277   5.125  10.245   7.722  0.1740  0.2201  0.0846
  307MOL0     C42278   4.986  10.262   7.751  0.2844  0.8870  0.5124
  307MOL0     N42279   4.136   9.914   7.760  0.7669 -0.4478  0.1723
  307MOL0     N42280   4.020   9.889   7.713  0.1886 -0.6176 -0.4105
  307MOL0     C42281   2.867  10.115   7.590  0.0704 -0.1150 -0.4237
  307MOL0     C42282   2.772  10.208   7.599  0.4204  0.1763 -0.5143
  307MOL0     C42283   2.486  10.560   7.509 -0.3538  0.0833  0.0666
  307MOL0     C42284   2.450  10.513   7.638  0.4891 -0.1680  1.0456
  307MOL0     C42285   2.335  10.561   7.703 -0.7045  0.0744  0.6398
  307MOL0     C42286   2.243  10.639   7.635  0.2573  0.8891 -0.5392
  307MOL0     O42287   2.127  10.673   7.696 -0.2819  0.2357  0.1734
  307MOL0     C42288   2.070  10.805   7.677 -0.7734  0.0486  0.0228
  307MOL0     C42289   1.925  10.794   7.722 -0.2140 -0.2869  1.2778
  307MOL0     C42290   1.853  10.936   7.708 -0.0528 -0.5185 -0.0443
  307MOL0     C42291   1.862  11.018   7.832  0.8804  0.7907  0.0508
  307MOL0     C42292   1.796  10.960   7.951 -0.0940  0.0396  0.3997
  307MOL0     C42293   1.751  10.901   8.049 -0.4428  0.3633  0.0495
  307MOL0     C42294   2.265  10.666   7.499 -0.1421 -0.0452  0.0811
  307MOL0     C42295   2.394  10.641   7.435 -0.2792  0.5155 -0.3744
  307MOL0     C42296   2.437  10.691   7.305  0.7345 -0.2199 -0.5688
  307MOL0     H42297   2.902  10.456   7.404 -1.9315  1.5370  0.7930
  307MOL0     H42298   3.074  10.288   7.373 -0.6597 -1.4552 -1.1051
  307MOL0     H42299   3.210  10.107   7.338 -0.2839 -0.5364  0.4163
  307MOL0     H42300   3.064  10.011   7.275 -0.4363  0.7738  0.1026
  307MOL0     H42301   3.150   9.820   7.373 -0.7954  2.0672  3.4780
  307MOL0     H42302   3.276   9.889   7.269  2.9238  1.0854  1.3415
  307MOL0     H42303   3.265   9.911   7.573 -2.5022 -1.1693 -1.6584
  307MOL0     H42304   3.365   9.803   7.477  2.2928  0.3244 -1.4899
  307MOL0     H42305   3.452  10.005   7.335 -0.4146  0.8623 -0.8470
  307MOL0     H42306   3.396  10.112   7.453  2.4873  0.3909  2.5847
  307MOL0     H42307   3.583   9.881   7.497 -1.5161 -0.2085 -1.0976
  307MOL0     H42308   3.517   9.974   7.633 -0.7124 -0.2189 -0.2884
  307MOL0     H42309   3.657  10.082   7.371 -2.8923  2.3995 -0.0201
  307MOL0     H42310   3.650  10.178   7.519  2.1433  0.4742 -0.3579
  307MOL0     H42311   3.862  10.101   7.506 -1.1257  1.3248 -0.7747
  307MOL0     H42312   3.818   9.933   7.481 -0.7079 -0.0175  0.0431
  307MOL0     H42313   3.758  10.092   7.730  1.1880  0.5071 -1.0746
  307MOL0     H42314   3.767   9.913   7.711 -0.5497 -0.1536  0.7374
  307MOL0     H42315   3.985  10.206   7.765  2.8608  0.8067  1.9035
  307MOL0     H42316   4.269  10.152   7.916 -0.3086 -0.5424  0.2494
  307MOL0     H42317   4.249  10.227   7.758 -1.7763  0.1580  0.4191
  307MOL0     H42318   4.404   9.966   7.790 -4.4712 -0.2047  1.3680
  307MOL0     H42319   4.375  10.040   7.638  0.3754  0.1080  0.1049
  307MOL0     H42320   4.527  10.244   7.705  1.4379  0.6664 -0.2076
  307MOL0     H42321   4.530  10.189   7.872 -2.6275 -0.7048  0.2371
  307MOL0     H42322   4.670   9.987   7.769 -0.1394  1.1517  3.9752
  307MOL0     H42323   4.669  10.082   7.615  0.7310  2.3100 -0.6749
  307MOL0     H42324   4.877   9.964   7.629 -0.3462  0.2135 -1.5023
  307MOL0     H42325   5.225   9.875   7.519  0.6093 -1.9936 -0.3689
  307MOL0     H42326   5.049   9.857   7.524 -0.8127  1.1735  0.7187
  307MOL0     H42327   5.141   9.822   7.670 -1.8341  0.2135  1.2936
  307MOL0     H42328   5.577  10.234   7.400 -1.4158 -5.4319  1.1456
  307MOL0     H42329   5.820  10.279   7.456  0.0860  0.0838  0.0174
  307MOL0     H42330   6.010  10.244   7.570 -0.2506 -0.2065  0.5458
  307MOL0     H42331   6.018  10.420   7.549  2.2186  0.2103 -0.3460
  307MOL0     H42332   6.160  10.400   7.766  0.9391 -0.1885  0.0863
  307MOL0     H42333   6.114  10.230   7.771  0.8388 -0.0243  1.0903
  307MOL0     H42334   6.287  10.373   7.568  1.6657 -2.5271 -1.9840
  307MOL0     H42335   6.241  10.197   7.564 -0.1113 -0.3591 -0.1506
  307MOL0     H42336   6.341  10.155   7.773  2.4399 -0.3048 -0.0687
  307MOL0     H42337   6.352  10.319   7.820 -1.2647 -0.7234  1.0405
  307MOL0     H42338   6.515  10.207   7.578  0.3322  0.1225 -0.1051
  307MOL0     H42339   6.550  10.354   7.661  0.1248 -0.3688  0.0350
  307MOL0     H42340   6.544  10.073   7.786 -1.2936  0.3452 -2.6433
  307MOL0     H42341   6.608  10.216   7.866 -1.5931 -0.7749  0.8818
  307MOL0     H42342   6.708  10.064   7.613 -0.1363 -3.9105  2.5909
  307MOL0     H42343   6.787  10.064   7.773 -1.1164 -0.7793 -0.3737
  307MOL0     H42344   6.810  10.263   7.548  0.3918 -1.5294  0.3885
  307MOL0     H42345   6.926  10.218   7.656  0.8898  1.1509 -1.3390
  307MOL0     H42346   5.683  10.348   7.861 -0.5599 -0.7908 -0.2959
  307MOL0     H42347   5.456  10.280   7.799 -0.5605 -0.6862 -1.3887
  307MOL0     H42348   5.190  10.326   7.754 -0.7215  0.8767  0.2760
  307MOL0     H42349   4.941  10.347   7.801  0.3422  2.0021 -1.2353
  307MOL0     H42350   2.848  10.016   7.630 -0.1895 -0.1107 -0.5322
  307MOL0     H42351   2.681  10.198   7.658 -1.4402  1.6580 -2.8984
  307MOL0     H42352   2.510  10.453   7.706  0.3682 -0.4209  0.9304
  307MOL0     H42353   2.325  10.532   7.807 -2.8059  0.0912  0.4832
  307MOL0     H42354   2.134  10.875   7.733 -0.3114 -2.1284  2.4026
  307MOL0     H42355   2.082  10.849   7.577  1.3599  3.0715  1.4275
  307MOL0     H42356   1.916  10.755   7.824 -2.0988  0.5197  1.4572
  307MOL0     H42357   1.881  10.716   7.659  0.6058  0.5156 -0.3303
  307MOL0     H42358   1.897  11.001   7.632  2.0172  1.7167  2.8554
  307MOL0     H42359   1.747  10.926   7.684  0.0948  0.3758 -1.1782
  307MOL0     H42360   1.822  11.118   7.811  0.3821  1.1577  2.4919
  307MOL0     H42361   1.969  11.033   7.849  0.8892  2.1300 -0.9895
  307MOL0     H42362   1.708  10.870   8.142  2.9925 -2.9184  0.7960
  307MOL0     H42363   2.182  10.718   7.453 -0.3339  0.6651  1.2006
  307MOL0     H42364   2.546  10.701   7.299  0.8700 -1.3870 -0.1560
  307MOL0     H42365   2.418  10.624   7.221 -0.8449  1.9247 -2.0427
  307MOL0     H42366   2.383  10.782   7.278  0.3837 -1.0555 -2.9502
  308MOL0     O42367   3.217   0.998   3.672  0.1083  0.7032  0.2351
  308MOL0     C42368   3.176   0.906   3.742  0.2242 -0.0613  0.6880
  308MOL0     O42369   3.224   0.775   3.754  0.2322 -0.7949  0.0644
  308MOL0     C42370   3.333   0.750   3.672  0.0188 -0.3470 -0.5521
  308MOL0     C42371   3.321   0.735   3.532  0.2480  0.6669  0.1233
  308MOL0     C42372   3.438   0.710   3.459  0.3824  0.2940 -0.2657
  308MOL0     C42373   3.562   0.687   3.521 -0.1115 -0.4123  0.6459
  308MOL0     O42374   3.663   0.651   3.438 -0.4709  0.6423  0.2399
  308MOL0     C42375   3.743   0.542   3.483 -0.8501  0.5433 -0.6493
  308MOL0     C42376   3.835   0.488   3.367 -0.0484 -0.1135 -0.1238
  308MOL0     C42377   3.879   0.347   3.380  0.4470  0.2112  0.0093
  308MOL0     C42378   3.768   0.243   3.351 -0.0399  0.2456 -0.2273
  308MOL0     C42379   3.825   0.097   3.365 -0.5756 -0.4206  0.8472
  308MOL0     C42380   3.891   0.060   3.495 -0.1595  0.2156  0.1304
  308MOL0     C42381   3.915  -0.084   3.483 -0.9302 -0.6874 -0.5830
  308MOL0     C42382   3.980  -0.154   3.601  0.1559 -0.5495  0.2465
  308MOL0     N42383   3.899  -0.174   3.715  0.6820 -0.4072  0.3127
  308MOL0     C42384   3.810  -0.284   3.744 -0.0650 -0.3505 -0.2896
  308MOL0     C42385   3.756  -0.253   3.868 -0.6724 -0.4619 -0.2733
  308MOL0     C42386   3.650  -0.320   3.948  0.8720 -0.5946  0.0732
  308MOL0     C42387   3.525  -0.346   3.883  0.2890  0.5883  0.4212
  308MOL0     C42388   3.441  -0.218   3.857  0.3693  0.0347 -0.3319
  308MOL0     C42389   3.315  -0.249   3.780 -0.7789  0.2710  0.7232
  308MOL0     O42390   3.329  -0.318   3.652 -0.7830  0.0898  0.4518
  308MOL0     C42391   3.374  -0.253   3.535  0.5683  0.1777 -0.7154
  308MOL0     C42392   3.408  -0.340   3.440 -0.0442  0.0295 -0.2550
  308MOL0     C42393   3.449  -0.293   3.317  1.4393 -0.1645  0.0517
  308MOL0     C42394   3.450  -0.394   3.203  0.7267 -0.8761 -0.3309
  308MOL0     C42395   3.482  -0.155   3.297 -0.4350  0.5313 -0.1764
  308MOL0     C42396   3.558  -0.101   3.181  0.3470  0.9615  0.2390
  308MOL0     O42397   3.651  -0.194   3.134 -1.0405 -0.0103  0.0808
  308MOL0     C42398   3.718  -0.176   3.010 -0.3003  0.5074 -0.1023
  308MOL0     C42399   3.780  -0.058   2.979  0.1168 -0.0521  0.1930
  308MOL0     C42400   3.828  -0.032   2.851 -0.5579 -0.0755  0.2683
  308MOL0     C42401   3.817  -0.131   2.749 -0.3227 -0.2340  0.0870
  308MOL0     O42402   3.873  -0.120   2.623 -0.5495 -0.0814  0.5999
  308MOL0     C42403   3.926   0.001   2.572 -0.0190 -1.1026 -0.4471
  308MOL0     C42404   4.022  -0.028   2.458 -0.5860 -0.2005  0.7863
  308MOL0     C42405   4.174  -0.040   2.505 -0.6694 -0.0820  0.0443
  308MOL0     C42406   4.261   0.091   2.494  0.0099  0.2475  0.3758
  308MOL0     C42407   4.326   0.132   2.354 -0.5399 -0.6391 -0.1569
  308MOL0     C42408   4.464   0.071   2.331  0.1969 -0.1946  0.0322
  308MOL0     C42409   4.538   0.106   2.204 -0.1521 -0.0965  0.1878
  308MOL0     C42410   4.617   0.230   2.243 -0.3953 -0.9315  0.2969
  308MOL0    Cl42411   4.663   0.279   2.070  0.4967 -0.4081 -0.7546
  308MOL0     C42412   3.761  -0.251   2.779 -0.7732  0.3786 -0.7329
  308MOL0     C42413   3.707  -0.267   2.906 -0.0480 -0.6134  0.4530
  308MOL0     O42414   3.543   0.013   3.142 -0.0200 -0.2250  0.1506
  308MOL0     C42415   3.452  -0.066   3.407 -0.6964 -0.1146 -0.4779
  308MOL0     C42416   3.399  -0.118   3.520 -0.5699  0.1127  0.3921
  308MOL0     N42417   3.817  -0.129   3.902 -0.0746  0.6326 -0.2763
  308MOL0     N42418   3.898  -0.081   3.815  0.4940  0.2507  0.1366
  308MOL0     C42419   3.572   0.702   3.656 -0.3563  0.1872 -0.3083
  308MOL0     C42420   3.455   0.720   3.733 -0.0710 -0.5553 -0.6501
  308MOL0     C42421   3.071   0.951   3.837  0.0918  0.5410 -0.5933
  308MOL0     C42422   3.084   1.080   3.884  0.3499  0.6487 -0.1478
  308MOL0     C42423   2.996   1.137   3.981  1.2757 -0.4443 -0.5831
  308MOL0     C42424   2.886   1.068   4.033 -0.5226  0.6606 -0.5664
  308MOL0     O42425   2.816   1.133   4.132 -0.5108 -0.2838 -0.3479
  308MOL0     C42426   2.742   1.049   4.232  0.2396 -0.6529  1.7158
  308MOL0     C42427   2.826   0.973   4.324 -0.5532  0.2509  0.3067
  308MOL0     C42428   2.743   0.917   4.435 -0.8001  0.1915 -0.8322
  308MOL0     C42429   2.825   0.830   4.539  0.5588  0.2860  0.5322
  308MOL0     C42430   2.920   0.909   4.624  0.0231 -0.0865 -0.9472
  308MOL0     C42431   3.010   0.934   4.697 -1.2110  0.1202 -0.3858
  308MOL0     C42432   2.879   0.935   3.988  0.6927  0.6494 -0.6914
  308MOL0     C42433   2.960   0.869   3.891  0.1022  0.4942 -0.6572
  308MOL0     C42434   2.937   0.733   3.833  0.7091 -0.2220 -0.6534
  308MOL0     H42435   3.235   0.756   3.470  3.4728  4.7097 -3.5344
  308MOL0     H42436   3.431   0.708   3.351 -1.3072  3.0431 -0.3265
  308MOL0     H42437   3.682   0.458   3.519  0.6352  0.5419  2.2016
  308MOL0     H42438   3.810   0.565   3.566  0.0394  2.2057 -1.7892
  308MOL0     H42439   3.789   0.487   3.268  1.9117  2.1405 -1.1607
  308MOL0     H42440   3.916   0.561   3.357 -0.5691  0.3818 -0.8362
  308MOL0     H42441   3.957   0.320   3.308 -1.1326 -2.6012 -0.8116
  308MOL0     H42442   3.923   0.343   3.480  0.0993  1.0235  0.2085
  308MOL0     H42443   3.684   0.251   3.421  0.7210 -3.0115  1.2264
  308MOL0     H42444   3.739   0.259   3.246  1.9000  0.1199 -0.8243
  308MOL0     H42445   3.896   0.089   3.281 -1.7935 -2.5420 -0.0511
  308MOL0     H42446   3.739   0.032   3.349  0.0311 -1.6401  2.3214
  308MOL0     H42447   3.989   0.108   3.502  0.8383 -1.5033 -1.2394
  308MOL0     H42448   3.822   0.091   3.574  1.1039  1.0126  0.9595
  308MOL0     H42449   3.986  -0.100   3.401 -0.4014  0.2292 -0.3246
  308MOL0     H42450   3.817  -0.121   3.454 -1.7209  0.8250  0.0392
  308MOL0     H42451   4.004  -0.254   3.564 -0.3056 -1.7759  3.0278
  308MOL0     H42452   4.074  -0.104   3.625  0.8942 -1.7677 -0.0481
  308MOL0     H42453   3.785  -0.364   3.674  3.9234 -2.2304  0.1862
  308MOL0     H42454   3.628  -0.253   4.031 -2.2587 -0.5300 -0.6724
  308MOL0     H42455   3.691  -0.414   3.985  1.4423 -0.8828 -1.2143
  308MOL0     H42456   3.546  -0.379   3.781 -3.3752  1.3097 -0.7137
  308MOL0     H42457   3.476  -0.421   3.945  0.0357  0.0145 -0.4631
  308MOL0     H42458   3.411  -0.172   3.952 -0.8503 -1.1612 -0.0972
  308MOL0     H42459   3.499  -0.138   3.810  2.7626 -1.6696 -0.4608
  308MOL0     H42460   3.252  -0.318   3.837 -1.4944  0.6067  0.3595
  308MOL0     H42461   3.264  -0.153   3.771  1.8247  1.5603 -1.4040
  308MOL0     H42462   3.397  -0.446   3.458 -0.8922  0.5519  2.7946
  308MOL0     H42463   3.428  -0.340   3.110 -0.9997  1.8803  1.5377
  308MOL0     H42464   3.379  -0.477   3.207 -2.2085  1.5357  1.1662
  308MOL0     H42465   3.549  -0.440   3.206  1.2978  0.3628  1.4623
  308MOL0     H42466   3.777   0.019   3.056 -0.8251 -0.3993  0.5164
  308MOL0     H42467   3.880   0.062   2.832  0.2534 -0.3036  1.2414
  308MOL0     H42468   3.841   0.058   2.535  1.3965 -0.6231 -3.2098
  308MOL0     H42469   3.969   0.073   2.643 -3.2338  2.5643 -1.8821
  308MOL0     H42470   3.990  -0.119   2.406 -2.0638  1.7080 -1.8916
  308MOL0     H42471   3.998   0.043   2.378  0.0079 -2.7351 -1.8024
  308MOL0     H42472   4.223  -0.111   2.437  0.8610  0.1138  0.9022
  308MOL0     H42473   4.197  -0.083   2.604  0.2127  2.0360  0.8072
  308MOL0     H42474   4.337   0.077   2.571 -0.6952 -5.7420  0.4103
  308MOL0     H42475   4.198   0.176   2.524 -0.3465  0.3078 -0.4829
  308MOL0     H42476   4.255   0.122   2.272 -2.1851  1.5717  0.8886
  308MOL0     H42477   4.341   0.240   2.359  0.6066 -0.7845 -0.1084
  308MOL0     H42478   4.442  -0.035   2.313 -0.7302  0.0718 -0.4947
  308MOL0     H42479   4.533   0.075   2.415 -0.1628  1.0553  0.2986
  308MOL0     H42480   4.469   0.120   2.120 -0.2975 -0.1285  0.3015
  308MOL0     H42481   4.596   0.019   2.174  0.0423  0.4258 -1.0136
  308MOL0     H42482   4.695   0.210   2.316 -1.8660  0.4252  2.3422
  308MOL0     H42483   4.549   0.303   2.287  0.8987  1.8787 -2.0323
  308MOL0     H42484   3.745  -0.333   2.709  0.9562 -0.5154 -0.1196
  308MOL0     H42485   3.649  -0.359   2.914 -3.3705  1.2126 -0.5218
  308MOL0     H42486   3.469   0.041   3.397 -1.2883 -0.0872 -1.2243
  308MOL0     H42487   3.353  -0.050   3.590 -1.1239  1.4701 -1.2192
  308MOL0     H42488   3.666   0.697   3.711  0.8783 -0.7285 -2.3782
  308MOL0     H42489   3.467   0.738   3.839 -0.2666 -2.6447 -0.2320
  308MOL0     H42490   3.164   1.146   3.853 -0.3216  2.2215  1.3023
  308MOL0     H42491   2.993   1.243   4.003  0.1909 -0.9223  1.9149
  308MOL0     H42492   2.697   1.129   4.291  0.5380  0.9916 -0.1652
  308MOL0     H42493   2.659   0.993   4.188  1.6065  1.3091 -4.2928
  308MOL0     H42494   2.911   1.029   4.364  1.8016 -3.1926  0.5912
  308MOL0     H42495   2.880   0.888   4.281  1.0139  0.3903  1.8843
  308MOL0     H42496   2.696   1.004   4.482  1.0873  0.8388 -0.0464
  308MOL0     H42497   2.662   0.862   4.387  0.2864 -1.1192 -1.2327
  308MOL0     H42498   2.883   0.762   4.476 -1.8991 -2.4263  0.9504
  308MOL0     H42499   2.751   0.775   4.599  1.2863 -1.8435 -0.4361
  308MOL0     H42500   3.096   0.976   4.744 -1.6990  2.9838 -1.8429
  308MOL0     H42501   2.799   0.883   4.039 -0.5839  2.7549 -0.4105
  308MOL0     H42502   2.949   0.723   3.725  1.8628 -0.4289 -0.5189
  308MOL0     H42503   3.015   0.667   3.872  2.3094  0.6125 -2.2685
  308MOL0     H42504   2.842   0.707   3.879  2.5559 -3.7058  1.6260
  309MOL0     O42505   8.564   3.274   6.263  0.1011 -0.3689  0.4806
  309MOL0     C42506   8.562   3.307   6.385 -0.6712 -0.2527  0.2668
  309MOL0     O42507   8.675   3.355   6.457  0.0223  0.1625  0.4413
  309MOL0     C42508   8.789   3.315   6.394 -0.3829  0.6018 -0.9765
  309MOL0     C42509   8.828   3.185   6.375  0.5640 -0.3185  0.8974
  309MOL0     C42510   8.954   3.144   6.334  0.7191 -0.6172  1.2026
  309MOL0     C42511   9.049   3.239   6.303  0.3436  0.3773  0.1928
  309MOL0     O42512   9.164   3.189   6.252  0.0636  0.9871 -0.0349
  309MOL0     C42513   9.261   3.287   6.199  1.0255  0.4034 -0.1741
  309MOL0     C42514   9.389   3.202   6.187 -0.2480 -0.2277 -0.1515
  309MOL0     C42515   9.506   3.279   6.118  1.0641  0.3803 -0.9288
  309MOL0     C42516   9.596   3.195   6.036  0.3946 -0.7468  0.3827
  309MOL0     C42517   9.683   3.100   6.122  0.0231 -0.5669 -0.0043
  309MOL0     C42518   9.777   3.009   6.047  0.1168 -0.1199 -0.2492
  309MOL0     C42519   9.905   3.076   5.997  0.5422 -0.3093  0.0128
  309MOL0     C42520   9.996   2.975   5.936 -0.3094  0.5290  0.3293
  309MOL0     N42521  10.103   3.030   5.847 -0.1040 -0.5214  0.4715
  309MOL0     C42522  10.219   2.966   5.810  1.1793 -0.6962 -0.2265
  309MOL0     C42523  10.280   3.052   5.729 -0.1413  0.0830 -0.0320
  309MOL0     C42524  10.420   3.023   5.681  0.1635  1.1376 -0.0396
  309MOL0     C42525  10.508   3.109   5.769 -0.2696 -0.4214  0.0923
  309MOL0     C42526  10.653   3.124   5.732 -0.1391  0.0147  0.0189
  309MOL0     C42527  10.732   2.988   5.757  0.6676 -0.4932 -0.4681
  309MOL0     O42528  10.869   3.014   5.766 -0.1150  0.1936 -0.4169
  309MOL0     C42529  10.928   3.000   5.648 -0.0147  0.0658 -0.5711
  309MOL0     C42530  10.941   3.102   5.557  0.2155  0.7125  0.1403
  309MOL0     C42531  11.041   3.100   5.452  0.3656 -0.2902  0.9723
  309MOL0     C42532  11.028   3.204   5.353 -0.4603 -0.6092  1.6307
  309MOL0     C42533  11.132   3.001   5.443  0.4078  0.7160  0.0779
  309MOL0     C42534  11.255   3.003   5.362 -0.0739 -0.4561 -0.5394
  309MOL0     O42535  11.288   3.121   5.296 -0.5627  0.0279  0.4539
  309MOL0     C42536  11.406   3.112   5.229  0.7101 -0.1028  0.8002
  309MOL0     C42537  11.407   3.066   5.102  0.2354  0.3149 -0.1727
  309MOL0     C42538  11.532   3.028   5.037 -0.3402 -0.5486  0.2580
  309MOL0     C42539  11.654   3.070   5.095  0.5334  0.1904 -0.9988
  309MOL0     O42540  11.781   3.041   5.044 -0.0937 -0.2342 -0.0788
  309MOL0     C42541  11.816   2.906   5.025  0.3600 -0.4025 -0.0188
  309MOL0     C42542  11.965   2.889   5.043 -0.2370 -0.5917  0.0200
  309MOL0     C42543  12.004   2.866   5.187 -0.0095  0.2659 -0.3556
  309MOL0     C42544  12.144   2.926   5.225  0.2371  0.2995  0.0803
  309MOL0     C42545  12.264   2.869   5.165  0.0588  0.4319  0.6386
  309MOL0     C42546  12.269   2.718   5.192 -0.4431  1.1347 -0.3281
  309MOL0     C42547  12.294   2.628   5.066 -0.4510  0.2272 -0.2466
  309MOL0     C42548  12.240   2.491   5.082  0.7862  0.9262 -0.4668
  309MOL0    Cl42549  12.080   2.481   5.139 -0.3173 -0.1331  0.0098
  309MOL0     C42550  11.648   3.128   5.224  0.2123 -0.5417 -0.4971
  309MOL0     C42551  11.525   3.140   5.292 -1.0872 -0.0185  0.2433
  309MOL0     O42552  11.311   2.896   5.352 -0.0932 -0.3985 -0.8164
  309MOL0     C42553  11.114   2.893   5.523 -0.1130  0.3662  0.7084
  309MOL0     C42554  11.013   2.888   5.625  0.3435 -0.9283 -0.1237
  309MOL0     N42555  10.210   3.171   5.737 -0.0663  0.3235  0.1915
  309MOL0     N42556  10.103   3.163   5.804 -0.2007  0.1533 -0.0727
  309MOL0     C42557   9.019   3.375   6.326 -0.1420  0.2611 -0.3903
  309MOL0     C42558   8.890   3.411   6.376 -0.0767  0.4476 -1.1057
  309MOL0     C42559   8.437   3.303   6.466  0.2915  0.7588  0.5925
  309MOL0     C42560   8.443   3.348   6.598 -0.0796  0.1589 -0.2564
  309MOL0     C42561   8.332   3.361   6.687 -0.5218 -0.4494  0.0650
  309MOL0     C42562   8.206   3.329   6.636 -0.8457 -0.5586 -0.1046
  309MOL0     O42563   8.094   3.350   6.716 -0.3002  1.0447  0.3668
  309MOL0     C42564   7.966   3.308   6.682  0.7447  0.0097 -0.3696
  309MOL0     C42565   7.875   3.329   6.806 -0.3417  0.0521  0.6910
  309MOL0     C42566   7.945   3.252   6.915 -0.5722  0.0400  0.6960
  309MOL0     C42567   7.869   3.240   7.049  0.4228  0.0233  1.2851
  309MOL0     C42568   7.792   3.356   7.084 -0.0545  0.0356 -0.2305
  309MOL0     C42569   7.735   3.454   7.113 -0.1564  0.6031  0.1565
  309MOL0     C42570   8.191   3.289   6.502 -0.8748  0.0426  0.5616
  309MOL0     C42571   8.301   3.270   6.423 -1.1313 -0.0317  0.0970
  309MOL0     C42572   8.273   3.212   6.285 -0.2839  0.3744 -0.5292
  309MOL0     H42573   8.755   3.108   6.397  1.6353 -1.2021  1.4293
  309MOL0     H42574   8.984   3.043   6.313  4.2941  0.5820 -0.1394
  309MOL0     H42575   9.273   3.382   6.252 -1.3265 -0.5732  2.3385
  309MOL0     H42576   9.230   3.309   6.096 -0.3651 -3.1130 -0.6501
  309MOL0     H42577   9.415   3.173   6.290  0.4993 -1.1764 -0.5913
  309MOL0     H42578   9.369   3.107   6.138  0.0917 -2.4944  3.6985
  309MOL0     H42579   9.472   3.358   6.050  1.5643 -1.0884 -2.9800
  309MOL0     H42580   9.558   3.336   6.196 -1.4443  0.8070  0.5623
  309MOL0     H42581   9.539   3.135   5.965 -0.0234 -0.0319  0.1095
  309MOL0     H42582   9.664   3.252   5.972  0.7910 -2.1597 -0.4914
  309MOL0     H42583   9.616   3.038   6.183 -1.5458 -0.3600 -1.4238
  309MOL0     H42584   9.740   3.169   6.184  0.0822 -3.8680  4.0633
  309MOL0     H42585   9.811   2.943   6.127 -1.4087  0.6394  1.0687
  309MOL0     H42586   9.709   2.961   5.975 -0.2029  0.3507 -0.2621
  309MOL0     H42587   9.964   3.123   6.076 -2.5373  0.8286  1.8299
  309MOL0     H42588   9.882   3.149   5.919  2.2894  1.5296  1.1311
  309MOL0     H42589  10.049   2.914   6.010  0.2154  0.1964 -0.3149
  309MOL0     H42590   9.943   2.908   5.868 -0.5208  1.9223 -0.9201
  309MOL0     H42591  10.259   2.874   5.852 -0.3190 -1.6684 -0.8287
  309MOL0     H42592  10.435   3.054   5.578 -0.7595  0.7940 -0.2861
  309MOL0     H42593  10.431   2.914   5.682 -0.1851  1.0646 -1.7621
  309MOL0     H42594  10.469   3.211   5.763  1.9837  0.4054 -4.1374
  309MOL0     H42595  10.504   3.066   5.870  1.2564 -0.4410  0.1635
  309MOL0     H42596  10.660   3.136   5.624 -3.2386 -0.5648 -0.3495
  309MOL0     H42597  10.703   3.203   5.789  0.9153 -0.5150 -0.1482
  309MOL0     H42598  10.702   2.950   5.855  0.2326  1.4915  0.2057
  309MOL0     H42599  10.703   2.915   5.680 -0.7909 -2.4582  1.7751
  309MOL0     H42600  10.895   3.199   5.572  2.1396  1.6327  0.4524
  309MOL0     H42601  11.059   3.176   5.252  4.3233  3.3591  1.5719
  309MOL0     H42602  11.100   3.283   5.377 -1.6385  0.8852  0.4381
  309MOL0     H42603  10.925   3.240   5.345 -0.5253 -1.0915 -0.2828
  309MOL0     H42604  11.313   3.033   5.058  0.0369 -1.5431  1.4994
  309MOL0     H42605  11.552   2.975   4.944  1.0541 -1.1280  0.8571
  309MOL0     H42606  11.764   2.851   5.104 -1.1093 -0.4973 -1.0147
  309MOL0     H42607  11.782   2.865   4.929  1.0482 -0.5228 -0.2142
  309MOL0     H42608  11.995   2.800   4.987 -1.0283 -0.9860  0.2201
  309MOL0     H42609  12.024   2.960   4.984 -2.5367 -0.8892 -2.8310
  309MOL0     H42610  12.006   2.758   5.206 -0.8077  0.3796  0.4590
  309MOL0     H42611  11.936   2.908   5.262  1.0382 -0.4918  1.0916
  309MOL0     H42612  12.158   2.942   5.332  1.0523  0.9239 -0.1094
  309MOL0     H42613  12.133   3.029   5.190 -2.1677  0.8712  2.1710
  309MOL0     H42614  12.263   2.881   5.056 -1.2457 -0.5899  0.5168
  309MOL0     H42615  12.352   2.923   5.203 -0.5033  1.8643 -0.0455
  309MOL0     H42616  12.179   2.687   5.246  0.3662  1.7577  1.4332
  309MOL0     H42617  12.344   2.702   5.270 -1.0939  0.3034  0.1425
  309MOL0     H42618  12.402   2.614   5.053 -0.7823 -2.4399 -0.7657
  309MOL0     H42619  12.248   2.663   4.973  0.1552 -1.8482 -1.3962
  309MOL0     H42620  12.306   2.441   5.153 -0.3354 -0.7574 -0.5599
  309MOL0     H42621  12.246   2.436   4.988 -2.3406  1.4718 -1.1180
  309MOL0     H42622  11.738   3.168   5.269  0.2545 -1.7356  0.5248
  309MOL0     H42623  11.543   3.174   5.393 -1.2574  1.5172 -0.2101
  309MOL0     H42624  11.175   2.803   5.516 -1.9479 -0.8817 -0.1412
  309MOL0     H42625  11.008   2.799   5.686 -3.5645 -0.3597  0.6173
  309MOL0     H42626   9.088   3.458   6.321  0.8252 -0.4486  0.8199
  309MOL0     H42627   8.864   3.513   6.404  2.0952  0.9247 -0.5654
  309MOL0     H42628   8.539   3.379   6.639 -0.2648 -0.3694  0.6009
  309MOL0     H42629   8.331   3.392   6.791  2.8749  1.0474 -0.2087
  309MOL0     H42630   7.929   3.359   6.592 -1.2996  0.5188  0.6868
  309MOL0     H42631   7.986   3.202   6.669  2.4767  0.5517 -3.0596
  309MOL0     H42632   7.770   3.302   6.790 -0.3274  1.1320 -1.6498
  309MOL0     H42633   7.882   3.437   6.821  1.0556  0.2449 -1.0404
  309MOL0     H42634   7.955   3.146   6.890 -1.2646  0.5188 -1.9169
  309MOL0     H42635   8.044   3.288   6.943  1.1401 -0.6361 -3.6651
  309MOL0     H42636   7.937   3.213   7.130  0.4564 -1.6386  0.7504
  309MOL0     H42637   7.802   3.154   7.039  1.9701 -0.9605 -1.9311
  309MOL0     H42638   7.689   3.548   7.137  1.2607  0.9487  1.6832
  309MOL0     H42639   8.095   3.285   6.450 -0.9523 -1.4501  0.7732
  309MOL0     H42640   8.335   3.129   6.251  2.3911  1.9525  0.2542
  309MOL0     H42641   8.170   3.176   6.278  0.5978 -2.6203  0.3514
  309MOL0     H42642   8.281   3.292   6.211  2.9719 -1.1046 -1.9654
  310MOL0     O42643   2.816   8.284   4.392 -0.5599  0.4048  0.0394
  310MOL0     C42644   2.749   8.338   4.297  0.6505  0.2482 -0.6015
  310MOL0     O42645   2.806   8.374   4.176 -0.9768  0.2915  0.4186
  310MOL0     C42646   2.946   8.355   4.152  0.3181  1.0389  0.0626
  310MOL0     C42647   3.050   8.410   4.237  0.5315 -0.1701 -0.2032
  310MOL0     C42648   3.179   8.395   4.202 -0.4842 -0.9183 -0.5609
  310MOL0     C42649   3.219   8.317   4.093 -0.6255 -0.0736 -0.0789
  310MOL0     O42650   3.354   8.312   4.068  0.3249 -0.7809 -0.1988
  310MOL0     C42651   3.399   8.219   3.967 -0.4500 -0.0538 -0.0478
  310MOL0     C42652   3.543   8.165   3.981  0.3168  0.1791  0.1260
  310MOL0     C42653   3.635   8.287   3.993  1.0182 -0.3416  0.0068
  310MOL0     C42654   3.772   8.252   3.962 -0.2133 -0.2700 -0.2377
  310MOL0     C42655   3.854   8.372   3.937 -0.3147  0.4083  0.4924
  310MOL0     C42656   4.012   8.353   3.947 -0.0440 -0.1215 -0.2750
  310MOL0     C42657   4.084   8.294   3.824  0.0139 -0.1655 -0.3693
  310MOL0     C42658   4.238   8.262   3.834  0.1639  0.5591 -0.1218
  310MOL0     N42659   4.288   8.212   3.963  0.1469  0.1350  0.2954
  310MOL0     C42660   4.353   8.287   4.058 -0.2117 -0.7157  0.2596
  310MOL0     C42661   4.406   8.193   4.146  0.7705 -0.3668 -0.9101
  310MOL0     C42662   4.488   8.228   4.267 -0.7489 -0.0116  0.8748
  310MOL0     C42663   4.495   8.122   4.383  0.4004 -0.6835 -0.4388
  310MOL0     C42664   4.605   8.157   4.487  0.9470  0.0961 -0.4705
  310MOL0     C42665   4.747   8.172   4.446 -0.3781  0.6117 -0.9284
  310MOL0     O42666   4.773   8.061   4.358  0.0162 -0.5663 -0.0399
  310MOL0     C42667   4.910   8.038   4.345  1.4453 -0.5668  0.0763
  310MOL0     C42668   4.943   7.909   4.322 -0.8698  0.4050  0.3428
  310MOL0     C42669   5.074   7.855   4.316 -0.7864  0.6753 -0.9963
  310MOL0     C42670   5.080   7.710   4.310  0.4114  0.1200  0.6935
  310MOL0     C42671   5.179   7.952   4.341 -0.6556 -0.6119  0.6914
  310MOL0     C42672   5.320   7.912   4.334 -0.7573 -0.3454 -0.6315
  310MOL0     O42673   5.366   7.789   4.371  1.1645 -0.0892  0.3914
  310MOL0     C42674   5.500   7.759   4.366 -1.4844 -0.1951 -0.3317
  310MOL0     C42675   5.529   7.619   4.374  0.5572  0.3380 -0.7859
  310MOL0     C42676   5.657   7.565   4.374  1.6313 -0.9140 -0.0464
  310MOL0     C42677   5.770   7.652   4.373  0.2227  0.8123  0.0106
  310MOL0     O42678   5.900   7.605   4.369 -0.1741 -0.0453 -0.5697
  310MOL0     C42679   5.926   7.476   4.427  0.0150 -0.1694 -0.4378
  310MOL0     C42680   6.074   7.446   4.392 -0.9825  0.2163 -0.1136
  310MOL0     C42681   6.192   7.515   4.476  0.0291 -0.2700 -0.3214
  310MOL0     C42682   6.322   7.457   4.431  0.4847  0.7410 -0.3535
  310MOL0     C42683   6.431   7.524   4.508  0.5488 -0.0989 -0.1457
  310MOL0     C42684   6.564   7.483   4.459  0.4277 -0.1625  0.6324
  310MOL0     C42685   6.668   7.566   4.536 -0.1604 -1.1080  0.1509
  310MOL0     C42686   6.788   7.602   4.452 -0.5946 -0.2667  0.1861
  310MOL0    Cl42687   6.883   7.452   4.395 -0.1212 -0.3551 -0.4405
  310MOL0     C42688   5.752   7.787   4.372 -0.3042 -0.4339  0.8372
  310MOL0     C42689   5.618   7.838   4.366 -0.4045 -0.3003  1.0585
  310MOL0     O42690   5.391   8.003   4.307  0.2854  0.5116 -0.0374
  310MOL0     C42691   5.149   8.086   4.374  0.4592 -0.6875  0.3879
  310MOL0     C42692   5.015   8.125   4.380  0.0282  0.2249  0.0478
  310MOL0     N42693   4.377   8.067   4.102  0.5021  0.4922 -0.1406
  310MOL0     N42694   4.304   8.076   3.999 -0.1967 -0.3949 -0.6508
  310MOL0     C42695   3.120   8.255   4.017  0.0494  0.4501 -0.3923
  310MOL0     C42696   2.981   8.266   4.054 -0.1471  0.0635 -0.7156
  310MOL0     C42697   2.610   8.384   4.317 -0.2647  0.2150 -0.0139
  310MOL0     C42698   2.546   8.440   4.205  0.3969 -0.5415  0.3526
  310MOL0     C42699   2.405   8.468   4.206 -0.2513  0.3604  0.3110
  310MOL0     C42700   2.328   8.454   4.315 -0.1762  0.9435 -0.6180
  310MOL0     O42701   2.196   8.464   4.291 -0.0145 -0.4672 -0.1659
  310MOL0     C42702   2.108   8.366   4.356 -0.4175 -0.4907 -0.4181
  310MOL0     C42703   1.964   8.401   4.324 -0.2398 -0.7199 -0.7128
  310MOL0     C42704   1.930   8.363   4.177  1.0215  0.5061  0.4412
  310MOL0     C42705   1.780   8.318   4.166 -0.2182  0.6422 -0.2554
  310MOL0     C42706   1.693   8.434   4.161 -0.1764  0.6240 -0.7143
  310MOL0     C42707   1.616   8.525   4.149  0.0626 -0.1141  0.1183
  310MOL0     C42708   2.397   8.407   4.430  0.3053 -0.7581  0.4064
  310MOL0     C42709   2.534   8.373   4.436 -0.2640 -0.0900  0.3576
  310MOL0     C42710   2.591   8.337   4.566 -0.7016  0.4931  0.0146
  310MOL0     H42711   3.031   8.468   4.327  0.4970  0.3326 -0.5310
  310MOL0     H42712   3.256   8.440   4.264 -2.2461  1.0260  0.3024
  310MOL0     H42713   3.392   8.266   3.869 -0.8130  2.0867  0.9282
  310MOL0     H42714   3.340   8.127   3.971 -1.5506  0.4726 -2.4593
  310MOL0     H42715   3.550   8.102   4.070 -1.3198 -0.0120  0.1530
  310MOL0     H42716   3.558   8.103   3.892 -1.5739 -0.0050 -0.1009
  310MOL0     H42717   3.603   8.358   3.916  2.4678 -0.0632 -0.3608
  310MOL0     H42718   3.649   8.333   4.092  4.0002  0.6688 -0.7732
  310MOL0     H42719   3.813   8.190   4.042  1.1603 -0.2237 -0.8868
  310MOL0     H42720   3.776   8.196   3.868  1.2418 -0.5810 -0.0013
  310MOL0     H42721   3.830   8.444   4.015 -0.3978 -1.2295  2.0546
  310MOL0     H42722   3.828   8.412   3.839  0.3696  1.9288  0.9088
  310MOL0     H42723   4.040   8.459   3.952  0.5274 -0.2734 -0.2576
  310MOL0     H42724   4.046   8.299   4.036 -1.2548  2.7493  2.1144
  310MOL0     H42725   4.057   8.347   3.732 -1.0759  0.3879  0.2571
  310MOL0     H42726   4.043   8.192   3.820 -0.3998 -0.0128 -0.0922
  310MOL0     H42727   4.274   8.190   3.761 -2.4620 -1.5447  0.5045
  310MOL0     H42728   4.284   8.358   3.810  0.5453 -0.0036 -1.7256
  310MOL0     H42729   4.374   8.394   4.064  2.3907 -1.0458 -1.3199
  310MOL0     H42730   4.467   8.328   4.307  0.2802 -0.1629  1.8430
  310MOL0     H42731   4.587   8.238   4.222 -2.1494 -2.2641 -3.1818
  310MOL0     H42732   4.400   8.109   4.434  1.9814 -1.2254  2.6184
  310MOL0     H42733   4.521   8.033   4.324 -0.0924  1.6746 -4.6538
  310MOL0     H42734   4.586   8.256   4.529  2.3140  0.6521 -1.1212
  310MOL0     H42735   4.597   8.080   4.565 -3.0956 -0.6644 -1.4168
  310MOL0     H42736   4.759   8.269   4.396 -1.7962  0.5617 -1.4168
  310MOL0     H42737   4.816   8.171   4.532  0.2489 -1.7880 -1.3899
  310MOL0     H42738   4.858   7.846   4.301 -1.1091  0.1816  1.8490
  310MOL0     H42739   4.989   7.652   4.326  1.8804 -2.0375  1.8732
  310MOL0     H42740   5.148   7.673   4.388 -2.0872  0.0350  2.9451
  310MOL0     H42741   5.115   7.691   4.207 -2.2010 -0.0534 -0.2240
  310MOL0     H42742   5.442   7.553   4.376  0.3342  0.5079 -2.8840
  310MOL0     H42743   5.667   7.457   4.383 -1.4654 -1.1627  2.1428
  310MOL0     H42744   5.912   7.484   4.535  0.4480 -0.1407 -0.3850
  310MOL0     H42745   5.858   7.405   4.379 -1.7966  1.3003 -0.1901
  310MOL0     H42746   6.090   7.340   4.413  2.1967  0.7899  0.8999
  310MOL0     H42747   6.077   7.462   4.284  0.6893  0.0135 -0.1148
  310MOL0     H42748   6.182   7.498   4.583  0.1555  0.8634 -0.1159
  310MOL0     H42749   6.193   7.620   4.443 -0.9699 -0.4607 -1.0205
  310MOL0     H42750   6.339   7.465   4.324  0.1221 -0.5083 -0.5313
  310MOL0     H42751   6.325   7.348   4.445 -0.4904  0.5514 -1.4176
  310MOL0     H42752   6.412   7.629   4.489 -2.1176 -0.1934  1.5512
  310MOL0     H42753   6.435   7.506   4.616  1.1484  1.2253  0.0621
  310MOL0     H42754   6.571   7.505   4.352 -0.3720 -3.4400 -0.1868
  310MOL0     H42755   6.584   7.379   4.484  1.6390  0.4408  2.3702
  310MOL0     H42756   6.719   7.511   4.615 -0.1241 -0.2383  0.7553
  310MOL0     H42757   6.623   7.657   4.578 -1.8916 -2.1586  0.7096
  310MOL0     H42758   6.836   7.695   4.486 -1.4878  0.9325 -1.7018
  310MOL0     H42759   6.751   7.638   4.356 -1.6549  0.0059  0.6798
  310MOL0     H42760   5.843   7.844   4.358 -0.1871 -0.2803  2.1503
  310MOL0     H42761   5.628   7.945   4.356  4.0151 -0.6675 -0.5611
  310MOL0     H42762   5.232   8.153   4.391 -0.4481  0.0058  2.3475
  310MOL0     H42763   4.997   8.230   4.401  1.3592  0.1993  1.4487
  310MOL0     H42764   3.134   8.188   3.933 -0.5071  1.7719 -1.5735
  310MOL0     H42765   2.909   8.204   4.000  0.2167  0.7249 -2.0172
  310MOL0     H42766   2.590   8.432   4.107  0.1391 -3.9799  0.4096
  310MOL0     H42767   2.358   8.482   4.109 -1.9293 -3.2742  0.4289
  310MOL0     H42768   2.140   8.269   4.319  1.1426 -0.5196  0.8888
  310MOL0     H42769   2.112   8.360   4.465 -0.8912 -2.3049 -0.4667
  310MOL0     H42770   1.959   8.509   4.340 -1.1142 -0.9147  0.4318
  310MOL0     H42771   1.896   8.348   4.391  0.3131  0.2060  0.6188
  310MOL0     H42772   1.961   8.446   4.113 -1.4749  1.8784  0.8842
  310MOL0     H42773   1.983   8.272   4.151 -1.1810 -0.6526 -0.2577
  310MOL0     H42774   1.739   8.259   4.248 -2.5040  1.6416 -0.6188
  310MOL0     H42775   1.771   8.247   4.083  1.5738  1.0736 -0.8688
  310MOL0     H42776   1.538   8.595   4.127  0.0274 -0.1914 -0.0063
  310MOL0     H42777   2.333   8.414   4.518  2.0276  1.1624  1.5924
  310MOL0     H42778   2.637   8.238   4.567  1.6589  1.4986 -1.2213
  310MOL0     H42779   2.670   8.410   4.588 -0.8615  1.0124 -1.1001
  310MOL0     H42780   2.514   8.354   4.642  2.0018 -0.7062  3.3112
  311MOL0     O42781   0.702   7.424   3.352 -0.0824  0.5277 -0.0853
  311MOL0     C42782   0.704   7.468   3.240  0.2911 -0.0683  1.4288
  311MOL0     O42783   0.588   7.462   3.157 -0.1046 -0.4683  0.0782
  311MOL0     C42784   0.458   7.449   3.200  0.0030 -0.2859  0.5348
  311MOL0     C42785   0.346   7.499   3.131 -1.2655  0.5114  0.3864
  311MOL0     C42786   0.215   7.471   3.157 -0.5690 -0.3473 -0.8474
  311MOL0     C42787   0.176   7.382   3.259 -0.4448 -0.0469  0.2828
  311MOL0     O42788   0.053   7.338   3.284  0.2106 -0.1559 -0.0998
  311MOL0     C42789  -0.019   7.285   3.171 -0.2689 -0.0699 -0.5355
  311MOL0     C42790  -0.027   7.133   3.172 -0.9140 -0.6281 -0.7475
  311MOL0     C42791  -0.088   7.092   3.313 -0.2240  0.3352 -0.3475
  311MOL0     C42792  -0.235   7.125   3.326  0.2693 -0.0968  0.1527
  311MOL0     C42793  -0.332   7.042   3.237 -0.7588 -0.6320  0.0459
  311MOL0     C42794  -0.471   7.094   3.266  1.3041  0.3893 -0.5505
  311MOL0     C42795  -0.573   7.065   3.139 -0.8064  0.7057 -0.1462
  311MOL0     C42796  -0.715   7.116   3.178  0.7514 -1.1362  0.4511
  311MOL0     N42797  -0.758   7.089   3.316  0.7608  0.2848  0.1183
  311MOL0     C42798  -0.733   7.168   3.430  0.1591 -0.0642  0.3495
  311MOL0     C42799  -0.806   7.109   3.527 -0.2641 -0.5087 -0.7079
  311MOL0     C42800  -0.825   7.143   3.677 -0.3021  1.1883 -0.3703
  311MOL0     C42801  -0.903   7.274   3.696 -0.4955 -0.9229 -0.7278
  311MOL0     C42802  -1.049   7.257   3.662  0.2106  0.6123 -0.2034
  311MOL0     C42803  -1.133   7.388   3.647 -0.1410  0.2492  0.3917
  311MOL0     O42804  -1.266   7.342   3.627  0.1412  0.4373 -0.4528
  311MOL0     C42805  -1.370   7.430   3.617 -0.1122  0.2091 -0.5942
  311MOL0     C42806  -1.377   7.565   3.662 -0.6088  0.4872  0.0071
  311MOL0     C42807  -1.488   7.649   3.647 -0.0328  0.5240 -0.1535
  311MOL0     C42808  -1.478   7.780   3.729 -0.1210  0.1403 -0.8632
  311MOL0     C42809  -1.596   7.607   3.571 -0.4442 -0.6492  0.0719
  311MOL0     C42810  -1.719   7.686   3.562  0.9269 -0.2821  0.4381
  311MOL0     O42811  -1.791   7.652   3.457 -0.1405  0.1729  0.2291
  311MOL0     C42812  -1.916   7.697   3.441  0.2945  0.2335 -0.1249
  311MOL0     C42813  -1.957   7.828   3.438 -0.2940 -0.3491 -0.2607
  311MOL0     C42814  -2.097   7.854   3.435 -0.2899  0.6080  0.7070
  311MOL0     C42815  -2.198   7.761   3.438 -0.3320  0.2064  0.0422
  311MOL0     O42816  -2.340   7.786   3.446 -0.4494  0.2895 -0.4140
  311MOL0     C42817  -2.392   7.893   3.371  0.7024 -1.5050 -0.3081
  311MOL0     C42818  -2.419   8.023   3.448 -0.3265  0.3849  0.5271
  311MOL0     C42819  -2.526   7.994   3.554  0.1574 -0.0021  0.5735
  311MOL0     C42820  -2.485   7.918   3.683 -0.8161  0.2885 -0.9204
  311MOL0     C42821  -2.585   7.921   3.797 -0.1282  0.8248 -0.3879
  311MOL0     C42822  -2.608   8.062   3.856 -0.3774  0.1216 -0.9723
  311MOL0     C42823  -2.493   8.153   3.897  0.1539 -0.8448 -0.6189
  311MOL0     C42824  -2.552   8.261   3.989 -0.0961 -0.3972  0.1958
  311MOL0    Cl42825  -2.653   8.196   4.123  0.2832  0.3005  1.0526
  311MOL0     C42826  -2.153   7.629   3.465  0.2503  0.1008  0.5103
  311MOL0     C42827  -2.018   7.603   3.463 -0.0156  0.4139 -0.2053
  311MOL0     O42828  -1.752   7.763   3.649  0.1609 -0.4538 -0.6298
  311MOL0     C42829  -1.584   7.480   3.519 -0.4136  0.0293 -1.7204
  311MOL0     C42830  -1.472   7.393   3.534  0.3438 -0.8241  0.0656
  311MOL0     N42831  -0.871   7.002   3.472  0.7791  1.0443  0.7667
  311MOL0     N42832  -0.852   6.991   3.345 -0.2981  0.0724 -0.9202
  311MOL0     C42833   0.284   7.344   3.342  0.2087  1.3241 -0.3387
  311MOL0     C42834   0.418   7.367   3.310 -0.7642  0.1347  0.1780
  311MOL0     C42835   0.819   7.544   3.188 -1.0716  0.0365 -0.1799
  311MOL0     C42836   0.790   7.665   3.116  0.4347  0.2658  0.0655
  311MOL0     C42837   0.895   7.743   3.072 -0.5507 -0.6293 -0.0853
  311MOL0     C42838   1.029   7.699   3.081 -0.8496 -0.5001 -0.3338
  311MOL0     O42839   1.115   7.783   3.025 -0.1862 -0.8483  0.7187
  311MOL0     C42840   1.249   7.788   3.080  0.4007  0.3090  0.1717
  311MOL0     C42841   1.337   7.911   3.057 -0.0790 -0.4639 -0.3407
  311MOL0     C42842   1.469   7.902   3.128 -0.6803 -0.4495 -0.0104
  311MOL0     C42843   1.561   8.022   3.096 -0.3807  0.2196  0.6260
  311MOL0     C42844   1.627   7.987   2.967  0.1663  0.0223 -0.5387
  311MOL0     C42845   1.691   7.961   2.873  0.3121 -1.1641  0.1945
  311MOL0     C42846   1.054   7.575   3.148 -0.6502 -0.3323  0.3397
  311MOL0     C42847   0.954   7.499   3.203  0.8674 -0.8167 -0.8106
  311MOL0     C42848   0.978   7.366   3.275  0.4541  0.2743  0.3645
  311MOL0     H42849   0.378   7.546   3.038  1.5297 -2.7959 -0.5805
  311MOL0     H42850   0.146   7.511   3.084  1.8980  2.7466 -1.6900
  311MOL0     H42851   0.029   7.314   3.078 -0.8525 -2.1634 -1.5380
  311MOL0     H42852  -0.121   7.325   3.168 -0.9843 -1.8761 -2.3271
  311MOL0     H42853  -0.095   7.095   3.096  0.0199  0.8238 -2.3932
  311MOL0     H42854   0.072   7.090   3.153 -0.0626  1.1425 -0.5808
  311MOL0     H42855  -0.068   6.986   3.332  0.5302  0.4687 -0.3533
  311MOL0     H42856  -0.039   7.142   3.397  1.0254  1.6908 -1.8052
  311MOL0     H42857  -0.260   7.115   3.432 -0.2418  2.1662  0.2867
  311MOL0     H42858  -0.248   7.232   3.307  1.0715  0.6254  3.1284
  311MOL0     H42859  -0.337   6.936   3.263  0.6725  0.0364  3.5674
  311MOL0     H42860  -0.310   7.061   3.131 -0.0992 -1.8779 -0.0660
  311MOL0     H42861  -0.523   7.040   3.346 -0.6236 -0.6803 -2.4178
  311MOL0     H42862  -0.465   7.201   3.286 -0.8301  1.1309 -3.2474
  311MOL0     H42863  -0.576   6.958   3.117 -2.8254  0.8585 -0.7849
  311MOL0     H42864  -0.539   7.121   3.051 -0.0915  5.0827  2.5553
  311MOL0     H42865  -0.724   7.224   3.160 -1.7587 -1.5889 -1.6597
  311MOL0     H42866  -0.780   7.073   3.101  1.6369 -0.9620 -0.4152
  311MOL0     H42867  -0.663   7.250   3.447  0.1642 -0.5624  3.3236
  311MOL0     H42868  -0.724   7.157   3.719  0.2267 -0.5862 -0.9946
  311MOL0     H42869  -0.873   7.065   3.736  0.3703  1.0741  0.0448
  311MOL0     H42870  -0.907   7.313   3.798  3.5747 -1.8151 -0.0606
  311MOL0     H42871  -0.860   7.354   3.634 -1.7965  0.0677 -0.3938
  311MOL0     H42872  -1.050   7.213   3.562  3.9161  1.6435 -0.8487
  311MOL0     H42873  -1.091   7.196   3.742 -0.6810  0.3915 -0.8220
  311MOL0     H42874  -1.124   7.442   3.742  0.9490 -2.6196  2.0588
  311MOL0     H42875  -1.108   7.448   3.559 -1.5795  2.8936  1.6478
  311MOL0     H42876  -1.293   7.597   3.722 -0.6078 -2.0782  1.5311
  311MOL0     H42877  -1.448   7.860   3.660 -0.7086  2.0210  0.9303
  311MOL0     H42878  -1.401   7.772   3.806  3.6782  0.3849 -4.3138
  311MOL0     H42879  -1.572   7.808   3.778 -1.4112 -2.6781 -1.5346
  311MOL0     H42880  -1.884   7.907   3.425  0.6616 -0.9723  1.1128
  311MOL0     H42881  -2.122   7.959   3.452 -0.7551  0.8097 -1.0366
  311MOL0     H42882  -2.337   7.919   3.280  1.9933 -0.4440  0.7143
  311MOL0     H42883  -2.484   7.867   3.319  0.4016  2.4678 -2.1303
  311MOL0     H42884  -2.327   8.059   3.494 -0.0918  0.8046 -0.2531
  311MOL0     H42885  -2.462   8.098   3.381 -0.4008 -0.7158 -0.7276
  311MOL0     H42886  -2.605   7.934   3.509  2.7831 -1.9168 -1.8740
  311MOL0     H42887  -2.565   8.092   3.584 -1.2488 -1.2536  3.1477
  311MOL0     H42888  -2.391   7.965   3.712 -0.0194 -0.6686 -1.8712
  311MOL0     H42889  -2.454   7.817   3.655  0.4174  0.0365  1.1188
  311MOL0     H42890  -2.672   7.879   3.747 -0.0659 -1.1221  1.0381
  311MOL0     H42891  -2.561   7.845   3.872 -0.9524 -0.6474 -1.5655
  311MOL0     H42892  -2.655   8.027   3.948 -2.0955 -0.2580 -1.9359
  311MOL0     H42893  -2.694   8.113   3.809 -1.4751 -2.7086 -2.2581
  311MOL0     H42894  -2.449   8.198   3.806  2.8330  6.0218  3.2844
  311MOL0     H42895  -2.407   8.108   3.947  0.8676  1.1465  0.0578
  311MOL0     H42896  -2.614   8.326   3.926  0.1921 -0.3020  0.0095
  311MOL0     H42897  -2.470   8.320   4.031 -1.2292 -0.0596  2.0606
  311MOL0     H42898  -2.235   7.558   3.477  0.6469 -0.5291 -0.3820
  311MOL0     H42899  -1.989   7.501   3.485  0.4562  1.3500  4.3634
  311MOL0     H42900  -1.667   7.448   3.457  0.7764 -1.2132 -2.7303
  311MOL0     H42901  -1.451   7.298   3.484 -0.7113 -0.2058 -1.6342
  311MOL0     H42902   0.268   7.278   3.427  2.2341  1.9149  0.5543
  311MOL0     H42903   0.497   7.323   3.369  0.4011  2.5805  0.5739
  311MOL0     H42904   0.693   7.714   3.113  0.2371 -0.1729 -1.4816
  311MOL0     H42905   0.879   7.843   3.032  0.4983 -1.1033 -1.7862
  311MOL0     H42906   1.232   7.779   3.188  0.7461 -1.0800  0.1274
  311MOL0     H42907   1.306   7.699   3.053  1.3062  0.4751  1.4007
  311MOL0     H42908   1.282   8.000   3.087 -2.1270 -1.6096 -0.4358
  311MOL0     H42909   1.362   7.926   2.952  0.9106  1.9367  0.1961
  311MOL0     H42910   1.459   7.900   3.237  2.8569  1.3249  0.5123
  311MOL0     H42911   1.529   7.812   3.110 -0.3425 -1.3356  4.3719
  311MOL0     H42912   1.623   8.030   3.186 -0.1524  0.2914  0.4645
  311MOL0     H42913   1.501   8.113   3.086  0.3092  0.8711  2.1226
  311MOL0     H42914   1.767   7.939   2.800  2.0121 -1.8890  2.0816
  311MOL0     H42915   1.158   7.544   3.152 -0.0192  1.2844 -1.7185
  311MOL0     H42916   1.081   7.330   3.262  0.0919 -0.5079 -0.4997
  311MOL0     H42917   0.960   7.359   3.382 -1.9202 -3.1706 -0.0752
  311MOL0     H42918   0.907   7.295   3.231  0.0795  0.1935  1.0974
  312MOL0     O42919  10.322   8.441   7.405 -0.0024  0.9092 -0.1240
  312MOL0     C42920  10.304   8.528   7.495  0.2657 -0.3476  0.4409
  312MOL0     O42921  10.179   8.594   7.520  0.5695  0.6141 -0.5122
  312MOL0     C42922  10.057   8.571   7.462 -0.2553  0.7784 -0.3660
  312MOL0     C42923  10.040   8.526   7.337 -0.6448 -0.2417  0.8204
  312MOL0     C42924   9.916   8.506   7.289  0.5046  0.4148 -0.2126
  312MOL0     C42925   9.806   8.530   7.368 -0.0993 -0.7730 -0.1335
  312MOL0     O42926   9.678   8.518   7.328 -0.0574 -0.4554  0.3172
  312MOL0     C42927   9.647   8.409   7.233 -0.4329  0.0263 -0.7711
  312MOL0     C42928   9.510   8.427   7.178  0.3322  1.0919  0.1714
  312MOL0     C42929   9.498   8.324   7.059  0.3827  0.2341 -0.8482
  312MOL0     C42930   9.378   8.230   7.084 -0.4094  0.1957 -0.5027
  312MOL0     C42931   9.240   8.296   7.048 -0.1540 -0.7499  0.5281
  312MOL0     C42932   9.197   8.275   6.899  0.0893  0.1747 -0.1062
  312MOL0     C42933   9.055   8.324   6.881 -0.6005 -0.2793 -0.0630
  312MOL0     C42934   8.965   8.207   6.914 -0.1759  0.0548 -0.1749
  312MOL0     N42935   8.831   8.261   6.935  0.3113 -0.6913 -0.2161
  312MOL0     C42936   8.752   8.327   6.846  0.3495 -0.4588 -0.7898
  312MOL0     C42937   8.662   8.399   6.926  0.5742  0.3346  1.4938
  312MOL0     C42938   8.565   8.504   6.871 -0.1483  0.7083 -0.0497
  312MOL0     C42939   8.461   8.433   6.775  0.4202 -0.7913 -0.4583
  312MOL0     C42940   8.398   8.300   6.823 -1.1400 -0.0508  0.3010
  312MOL0     C42941   8.354   8.308   6.972  0.3419  0.1557  0.0210
  312MOL0     O42942   8.255   8.408   6.984  0.5903  0.1214  0.5029
  312MOL0     C42943   8.126   8.348   6.996 -0.0697 -0.2014 -0.2822
  312MOL0     C42944   8.069   8.265   6.904  0.2152 -0.4438 -0.0119
  312MOL0     C42945   7.943   8.211   6.931  0.2571 -0.2453 -0.3966
  312MOL0     C42946   7.894   8.105   6.827  0.0518 -0.3732  0.0542
  312MOL0     C42947   7.865   8.243   7.042 -0.2070 -0.7430 -1.0642
  312MOL0     C42948   7.730   8.198   7.073 -0.2061  0.2967 -0.4715
  312MOL0     O42949   7.725   8.135   7.188 -0.1926  0.7459 -0.4006
  312MOL0     C42950   7.614   8.067   7.229  0.2859  0.0776  0.7898
  312MOL0     C42951   7.566   8.092   7.356  0.0509  1.3156 -0.2438
  312MOL0     C42952   7.470   8.014   7.419  1.0986  0.7137 -0.3019
  312MOL0     C42953   7.420   7.900   7.356  0.5325  0.2055  0.7563
  312MOL0     O42954   7.325   7.827   7.419 -0.4008 -0.2471 -0.3924
  312MOL0     C42955   7.316   7.693   7.384  0.8003 -0.5977 -0.0403
  312MOL0     C42956   7.256   7.614   7.505  0.5859  0.5852 -0.6873
  312MOL0     C42957   7.100   7.625   7.530  0.4123  1.0335 -0.2924
  312MOL0     C42958   7.041   7.522   7.620  0.0840 -0.2202 -0.7461
  312MOL0     C42959   7.109   7.529   7.762 -0.9586 -0.1668  0.8435
  312MOL0     C42960   7.027   7.447   7.862 -0.3507 -0.1381  0.0230
  312MOL0     C42961   7.069   7.462   8.008 -0.3210  0.6928 -0.1347
  312MOL0     C42962   7.201   7.382   8.033  0.9135  0.0401  0.0294
  312MOL0    Cl42963   7.341   7.494   8.028  0.1637 -0.4106 -0.3630
  312MOL0     C42964   7.470   7.863   7.225 -0.4566 -0.2327 -0.6558
  312MOL0     C42965   7.557   7.957   7.160  0.5618 -0.3886 -1.2234
  312MOL0     O42966   7.638   8.227   7.003  0.7770  1.6698 -0.3801
  312MOL0     C42967   7.922   8.332   7.137  0.1190  0.2181  0.6793
  312MOL0     C42968   8.048   8.393   7.108 -0.1489  0.2140 -0.2084
  312MOL0     N42969   8.685   8.371   7.054 -1.2443 -0.2188 -0.3154
  312MOL0     N42970   8.788   8.291   7.059 -0.1591 -0.0115 -0.8433
  312MOL0     C42971   9.822   8.572   7.499 -0.6236  0.5457 -0.1188
  312MOL0     C42972   9.953   8.597   7.543  0.1717  0.3776 -0.1615
  312MOL0     C42973  10.425   8.567   7.577 -0.3381  0.1553 -0.8118
  312MOL0     C42974  10.553   8.535   7.521  0.2755 -0.9748  0.1148
  312MOL0     C42975  10.674   8.571   7.586 -1.4140 -0.6679 -0.0105
  312MOL0     C42976  10.673   8.631   7.711 -0.1407 -0.6049 -0.2293
  312MOL0     O42977  10.793   8.657   7.762  0.0821  0.1375 -0.1669
  312MOL0     C42978  10.821   8.616   7.894 -0.7805 -0.5649  0.3225
  312MOL0     C42979  10.887   8.724   7.972  0.6387  0.4885 -0.0408
  312MOL0     C42980  10.930   8.669   8.109 -0.2619  0.0505 -0.5040
  312MOL0     C42981  10.963   8.781   8.209 -0.4406  0.2677  0.7405
  312MOL0     C42982  11.109   8.813   8.192 -1.1246  0.3466 -0.3851
  312MOL0     C42983  11.226   8.841   8.171  0.0780 -0.5082  0.0961
  312MOL0     C42984  10.555   8.669   7.769 -0.1189 -0.4406 -0.1580
  312MOL0     C42985  10.430   8.641   7.704 -0.4750 -0.8157 -0.1734
  312MOL0     C42986  10.301   8.673   7.777 -0.3122  0.2135 -0.0220
  312MOL0     H42987  10.127   8.518   7.273 -1.2884  1.6465 -0.3681
  312MOL0     H42988   9.904   8.458   7.193  1.0346 -0.4548  0.1400
  312MOL0     H42989   9.661   8.314   7.287  0.1020  0.8161  0.5286
  312MOL0     H42990   9.716   8.403   7.149 -1.2266  0.0612 -1.4421
  312MOL0     H42991   9.437   8.406   7.257  0.5791 -1.6341 -0.2234
  312MOL0     H42992   9.495   8.531   7.148  0.3298  1.6860  2.0981
  312MOL0     H42993   9.481   8.383   6.968 -0.6458 -1.1872 -1.6255
  312MOL0     H42994   9.584   8.261   7.039 -0.6284 -0.6194 -2.8761
  312MOL0     H42995   9.396   8.141   7.024  1.4020  0.6517 -0.6893
  312MOL0     H42996   9.376   8.187   7.185  0.1558 -0.9824 -0.9830
  312MOL0     H42997   9.247   8.402   7.073  2.3997 -0.5673 -0.6501
  312MOL0     H42998   9.161   8.251   7.109 -1.4094  2.4225  1.4377
  312MOL0     H42999   9.261   8.337   6.836  0.9183 -3.3742 -3.0492
  312MOL0     H43000   9.222   8.173   6.870 -0.8953 -0.6757  1.8124
  312MOL0     H43001   9.041   8.344   6.775  1.9921  1.7313 -0.1154
  312MOL0     H43002   9.035   8.414   6.940  1.9856  1.7309 -2.0389
  312MOL0     H43003   8.962   8.141   6.826 -3.2914  1.9316 -1.6463
  312MOL0     H43004   9.007   8.156   7.001 -0.4224 -0.1314 -0.1659
  312MOL0     H43005   8.751   8.322   6.737  0.7405  0.6401 -0.8584
  312MOL0     H43006   8.628   8.581   6.825  2.4640  1.0836  3.7505
  312MOL0     H43007   8.514   8.536   6.963  0.4447 -2.8731  1.6777
  312MOL0     H43008   8.385   8.512   6.769  0.8575 -0.3961 -0.8077
  312MOL0     H43009   8.505   8.422   6.676  1.5929 -1.3738  0.1150
  312MOL0     H43010   8.323   8.261   6.753 -0.2971 -0.3856 -0.4304
  312MOL0     H43011   8.476   8.224   6.824 -0.5466  0.5575  0.2884
  312MOL0     H43012   8.320   8.211   7.008  2.3513  0.0666  1.8766
  312MOL0     H43013   8.432   8.337   7.043  0.8868 -0.0183 -0.5107
  312MOL0     H43014   8.126   8.232   6.818  2.0221  0.3999  0.8031
  312MOL0     H43015   7.956   8.097   6.737 -0.9512  2.6891 -1.0295
  312MOL0     H43016   7.792   8.124   6.793  1.1731  1.1152 -2.7813
  312MOL0     H43017   7.899   8.016   6.890  1.3892  0.7473  1.6416
  312MOL0     H43018   7.613   8.176   7.406  0.1695 -0.5587  3.0265
  312MOL0     H43019   7.444   8.030   7.524 -1.7894  1.9439 -1.1150
  312MOL0     H43020   7.240   7.680   7.306 -0.2896 -0.7430  1.0236
  312MOL0     H43021   7.410   7.649   7.350  2.3502  1.3345  1.4468
  312MOL0     H43022   7.268   7.505   7.502 -2.7349 -0.0953  2.6912
  312MOL0     H43023   7.307   7.658   7.592 -1.1720  1.2805  0.0272
  312MOL0     H43024   7.055   7.621   7.430  0.5162 -1.5779 -0.2925
  312MOL0     H43025   7.082   7.725   7.570  3.6830  0.7786  2.2611
  312MOL0     H43026   7.044   7.426   7.567  2.8682 -0.9505  0.4966
  312MOL0     H43027   6.936   7.550   7.629  0.4461  0.5097  2.4878
  312MOL0     H43028   7.213   7.496   7.760 -0.6952  0.6753 -1.0760
  312MOL0     H43029   7.111   7.634   7.793 -1.4169 -0.7016  2.8366
  312MOL0     H43030   7.027   7.343   7.831 -0.5358  0.3873 -1.8781
  312MOL0     H43031   6.925   7.487   7.867 -0.4963 -0.3529 -0.9558
  312MOL0     H43032   6.988   7.415   8.064 -1.9956 -0.0622 -3.0047
  312MOL0     H43033   7.073   7.568   8.034  0.5314  0.2826  1.5506
  312MOL0     H43034   7.215   7.296   7.966  0.9976  0.3735 -0.3843
  312MOL0     H43035   7.184   7.331   8.129 -1.5347  0.4711 -0.1102
  312MOL0     H43036   7.427   7.779   7.171  2.0476 -1.6847 -0.5640
  312MOL0     H43037   7.606   7.936   7.066  2.0060 -2.8295 -0.0127
  312MOL0     H43038   7.866   8.360   7.225 -0.7328 -0.4564  0.3727
  312MOL0     H43039   8.088   8.456   7.186  0.6721 -0.9878  0.3611
  312MOL0     H43040   9.734   8.599   7.557 -0.9472  0.1041 -0.3933
  312MOL0     H43041   9.962   8.640   7.642  0.9338  2.3013 -1.0007
  312MOL0     H43042  10.556   8.475   7.430 -1.4105  0.3292 -0.8450
  312MOL0     H43043  10.769   8.558   7.536 -1.6291 -1.3749 -0.2589
  312MOL0     H43044  10.727   8.584   7.939 -1.8356 -0.3637 -1.6098
  312MOL0     H43045  10.892   8.532   7.893 -0.3670 -0.2225 -1.0100
  312MOL0     H43046  10.826   8.814   7.982  0.7345  0.4590  0.8965
  312MOL0     H43047  10.982   8.740   7.921  0.8023  0.7452  0.3362
  312MOL0     H43048  10.848   8.614   8.156 -0.4757  0.8528  0.0763
  312MOL0     H43049  11.012   8.599   8.094 -1.5763 -1.2551 -1.9727
  312MOL0     H43050  10.945   8.740   8.309  0.3560  0.1243  0.8345
  312MOL0     H43051  10.900   8.868   8.189 -3.3410 -1.4791  1.7755
  312MOL0     H43052  11.327   8.875   8.157  0.8471 -1.5987  2.5460
  312MOL0     H43053  10.552   8.733   7.856  1.6057  0.0633 -0.4333
  312MOL0     H43054  10.248   8.578   7.792 -0.8181  0.6227  0.9176
  312MOL0     H43055  10.322   8.721   7.873  0.2754 -1.8301  0.9318
  312MOL0     H43056  10.242   8.746   7.720 -0.1036  2.3082  2.2691
  313MOL0     O43057   1.352   3.362   3.329  0.2839  0.0137  0.5883
  313MOL0     C43058   1.348   3.332   3.208  0.1910 -0.1584 -0.4802
  313MOL0     O43059   1.457   3.272   3.140 -0.3251  0.3093  0.1699
  313MOL0     C43060   1.581   3.293   3.191  0.2756 -0.5735 -1.3685
  313MOL0     C43061   1.631   3.428   3.184 -0.6230 -0.6233  0.4466
  313MOL0     C43062   1.756   3.461   3.233 -0.2512  0.0865 -0.3393
  313MOL0     C43063   1.836   3.359   3.292  0.2771 -0.8963  0.2841
  313MOL0     O43064   1.957   3.410   3.351 -0.2256 -0.4165 -0.2512
  313MOL0     C43065   2.066   3.312   3.378  0.4152 -0.4288 -0.5431
  313MOL0     C43066   2.186   3.383   3.431 -0.6831 -0.2916 -0.4482
  313MOL0     C43067   2.276   3.296   3.515  0.2283 -0.4441  0.1172
  313MOL0     C43068   2.359   3.385   3.605 -0.4908 -0.2512 -0.6505
  313MOL0     C43069   2.449   3.300   3.695 -0.1112  0.5708 -1.0102
  313MOL0     C43070   2.553   3.204   3.634  0.0355 -1.1230 -0.3767
  313MOL0     C43071   2.693   3.265   3.600  1.3083 -0.4604 -0.7804
  313MOL0     C43072   2.812   3.172   3.574 -0.4004  0.1521 -0.7309
  313MOL0     N43073   2.862   3.114   3.706 -0.1490 -0.0811  0.2515
  313MOL0     C43074   2.932   3.184   3.795  0.8150  0.2694 -0.0767
  313MOL0     C43075   3.002   3.095   3.875  0.2920 -1.0513 -0.1185
  313MOL0     C43076   3.091   3.121   3.998  0.6457  0.2963  1.0474
  313MOL0     C43077   3.233   3.089   3.950 -0.2061  0.2117 -0.1569
  313MOL0     C43078   3.250   2.945   3.917  0.0379  0.0596 -0.0802
  313MOL0     C43079   3.395   2.887   3.927 -0.2355 -0.6009 -0.2399
  313MOL0     O43080   3.480   2.971   3.839 -0.2584  0.0246  0.4655
  313MOL0     C43081   3.579   2.900   3.776 -0.1504  0.0526  0.6857
  313MOL0     C43082   3.588   2.892   3.637  0.2892  0.1570 -0.8595
  313MOL0     C43083   3.702   2.846   3.569  0.6403 -0.0939 -0.4822
  313MOL0     C43084   3.699   2.857   3.417 -0.2312 -0.5812  0.6002
  313MOL0     C43085   3.810   2.786   3.645 -0.8781 -0.0452  0.0034
  313MOL0     C43086   3.921   2.724   3.581 -0.3810  0.4808 -0.1105
  313MOL0     O43087   3.974   2.621   3.649  0.7547  0.5435 -0.4792
  313MOL0     C43088   4.085   2.566   3.588  0.4102  0.7400 -0.1498
  313MOL0     C43089   4.216   2.598   3.627 -0.6498  0.3137  0.1104
  313MOL0     C43090   4.332   2.547   3.565  0.5385 -0.1142  0.2755
  313MOL0     C43091   4.312   2.444   3.471 -0.7734 -0.3805  0.7422
  313MOL0     O43092   4.427   2.409   3.402 -0.1514 -0.0837 -0.1691
  313MOL0     C43093   4.412   2.327   3.291 -0.3288  0.1465  0.0727
  313MOL0     C43094   4.549   2.286   3.237 -0.2367 -0.1389  0.4146
  313MOL0     C43095   4.639   2.211   3.331 -0.4451  1.6930 -0.4565
  313MOL0     C43096   4.760   2.147   3.263 -0.1427 -0.6381  0.6618
  313MOL0     C43097   4.878   2.117   3.368  0.1442 -0.1879 -0.6613
  313MOL0     C43098   5.003   2.055   3.310 -0.2318  0.1826 -0.2454
  313MOL0     C43099   4.994   1.914   3.264  0.4218 -0.3245  0.4130
  313MOL0     C43100   4.956   1.803   3.359 -0.5012  0.8807  0.2482
  313MOL0    Cl43101   4.977   1.642   3.274  0.1334  0.1465 -0.1503
  313MOL0     C43102   4.180   2.402   3.443  0.4600  0.0546 -0.0928
  313MOL0     C43103   4.063   2.465   3.493  0.4155  0.2291  0.0975
  313MOL0     O43104   3.961   2.769   3.473  0.6223  0.1622 -0.1141
  313MOL0     C43105   3.782   2.775   3.787  0.0943  0.6809  0.1770
  313MOL0     C43106   3.681   2.844   3.848  0.9612  1.2395 -1.3354
  313MOL0     N43107   2.974   2.969   3.805 -0.4552 -0.1199  0.3506
  313MOL0     N43108   2.893   2.987   3.709  0.2552 -0.7413  0.6741
  313MOL0     C43109   1.791   3.230   3.297  0.5837  0.2436  1.2005
  313MOL0     C43110   1.661   3.195   3.255  1.2895 -0.1416 -0.2593
  313MOL0     C43111   1.225   3.367   3.129 -0.6318 -0.2627 -0.1100
  313MOL0     C43112   1.128   3.428   3.201  0.3565 -0.4454  0.6658
  313MOL0     C43113   1.007   3.475   3.136  0.1509 -0.2380 -0.0800
  313MOL0     C43114   0.986   3.463   2.998  0.0551 -0.0757 -0.5606
  313MOL0     O43115   0.869   3.504   2.946 -0.2823 -0.3505 -0.3161
  313MOL0     C43116   0.814   3.627   2.971 -0.6010 -0.7721  0.4305
  313MOL0     C43117   0.700   3.612   3.070 -0.4519 -0.5217  0.7000
  313MOL0     C43118   0.583   3.521   3.010  0.5139  0.0225  0.1530
  313MOL0     C43119   0.459   3.545   3.098 -0.1661  0.6832 -0.1385
  313MOL0     C43120   0.473   3.499   3.241  0.0093 -0.5225  0.8261
  313MOL0     C43121   0.481   3.468   3.350 -0.5425 -0.3088 -0.1712
  313MOL0     C43122   1.090   3.402   2.929 -0.0353 -0.2009 -0.2491
  313MOL0     C43123   1.211   3.351   2.993 -0.3287 -0.0675 -0.1119
  313MOL0     C43124   1.309   3.282   2.902  0.3477 -0.1069 -0.1834
  313MOL0     H43125   1.561   3.502   3.147 -0.8643 -1.4367 -0.8251
  313MOL0     H43126   1.770   3.568   3.247  0.5611 -0.1330  0.6173
  313MOL0     H43127   2.099   3.248   3.295  3.7526  1.0453 -0.4787
  313MOL0     H43128   2.030   3.263   3.469 -0.7144 -0.0063 -0.7385
  313MOL0     H43129   2.240   3.426   3.346 -1.6305 -1.2054 -1.5528
  313MOL0     H43130   2.147   3.458   3.500  0.3547 -0.1311 -0.0282
  313MOL0     H43131   2.214   3.236   3.583 -0.4158  3.3161  3.2099
  313MOL0     H43132   2.332   3.231   3.447 -0.0937  0.8051 -1.3996
  313MOL0     H43133   2.420   3.455   3.548  1.5137  1.5326  3.2574
  313MOL0     H43134   2.295   3.445   3.670 -2.2341 -1.6128 -1.0349
  313MOL0     H43135   2.380   3.235   3.750 -1.9192  1.0108 -2.6548
  313MOL0     H43136   2.495   3.362   3.772  3.2979 -2.8818  0.0367
  313MOL0     H43137   2.574   3.125   3.707 -2.1238 -1.4972 -0.0729
  313MOL0     H43138   2.517   3.143   3.550 -0.3468  0.4263 -1.3721
  313MOL0     H43139   2.728   3.340   3.671  1.0834 -0.5144 -0.6112
  313MOL0     H43140   2.667   3.318   3.508 -0.0972  2.4386  1.1487
  313MOL0     H43141   2.794   3.094   3.501  4.6251 -1.1630 -0.9590
  313MOL0     H43142   2.899   3.233   3.545  2.7421 -4.1894 -1.4234
  313MOL0     H43143   2.924   3.290   3.818 -0.5786 -0.3389  2.7276
  313MOL0     H43144   3.062   3.056   4.082  0.3547 -0.8618  0.0841
  313MOL0     H43145   3.086   3.228   4.017  0.4598  0.7874 -1.4589
  313MOL0     H43146   3.253   3.146   3.859  0.0586 -1.6777 -1.3252
  313MOL0     H43147   3.296   3.140   4.024 -0.8850  1.2301 -0.2542
  313MOL0     H43148   3.177   2.882   3.969 -2.2974  2.2872 -0.4593
  313MOL0     H43149   3.220   2.925   3.813  2.0792 -1.1025 -0.5175
  313MOL0     H43150   3.431   2.882   4.030  3.5928 -0.4943 -1.3927
  313MOL0     H43151   3.408   2.783   3.895 -0.1905 -0.7541  0.2667
  313MOL0     H43152   3.506   2.940   3.585  1.4271  2.0086 -1.0731
  313MOL0     H43153   3.714   2.759   3.371 -0.0757  0.6309 -2.1205
  313MOL0     H43154   3.770   2.925   3.369 -2.3404  2.7239  1.8063
  313MOL0     H43155   3.600   2.894   3.387  0.3027 -1.1983 -2.2711
  313MOL0     H43156   4.219   2.691   3.683  1.3971 -0.9774  2.3127
  313MOL0     H43157   4.431   2.589   3.576  1.1098 -1.1746 -0.6383
  313MOL0     H43158   4.361   2.239   3.331  2.0250 -0.9803  0.8088
  313MOL0     H43159   4.357   2.377   3.211  2.1380  0.2333 -1.6753
  313MOL0     H43160   4.536   2.222   3.149 -2.4254 -0.1555  0.7019
  313MOL0     H43161   4.595   2.382   3.209 -2.6965  1.4857  1.6125
  313MOL0     H43162   4.578   2.136   3.381  1.9481 -0.2803 -0.2841
  313MOL0     H43163   4.676   2.275   3.411 -0.5181 -0.2354  1.1783
  313MOL0     H43164   4.804   2.215   3.190  1.2908 -2.7153 -0.5345
  313MOL0     H43165   4.725   2.061   3.206  0.3531  0.3271 -1.1715
  313MOL0     H43166   4.904   2.207   3.425  1.5440 -0.5879 -0.6212
  313MOL0     H43167   4.839   2.050   3.445 -0.9238 -0.0630 -1.0728
  313MOL0     H43168   5.080   2.061   3.389 -0.9729  1.8446  0.3979
  313MOL0     H43169   5.031   2.121   3.227  0.3237  2.2513  1.4715
  313MOL0     H43170   5.091   1.888   3.220  0.9779  1.8666  0.2529
  313MOL0     H43171   4.928   1.910   3.177  1.1766 -1.7101 -0.1392
  313MOL0     H43172   4.858   1.817   3.406 -0.4893  3.0455 -0.2829
  313MOL0     H43173   5.035   1.808   3.435  0.5771 -2.7039 -0.4613
  313MOL0     H43174   4.156   2.329   3.366 -1.2064 -2.6621  2.7551
  313MOL0     H43175   3.963   2.428   3.476  0.4074  0.7135 -1.0141
  313MOL0     H43176   3.865   2.731   3.841 -0.7778 -0.1333  0.8928
  313MOL0     H43177   3.668   2.841   3.956 -1.5100  1.1833 -1.5754
  313MOL0     H43178   1.855   3.157   3.346  1.5358  0.0823 -0.2264
  313MOL0     H43179   1.609   3.100   3.248  0.3416  0.3283  0.2041
  313MOL0     H43180   1.128   3.430   3.310 -0.6216  2.7651  0.6982
  313MOL0     H43181   0.922   3.503   3.198 -1.5135 -1.4970 -1.6512
  313MOL0     H43182   0.896   3.695   2.999 -1.3223  0.6747 -0.8107
  313MOL0     H43183   0.782   3.673   2.877 -0.4278  1.4114  1.3589
  313MOL0     H43184   0.654   3.710   3.088 -0.8136 -0.7816  1.2214
  313MOL0     H43185   0.725   3.564   3.165 -0.6917 -0.4698  0.7908
  313MOL0     H43186   0.557   3.552   2.908 -0.2553 -1.4762 -0.1335
  313MOL0     H43187   0.610   3.415   3.014 -1.9575 -0.7249 -0.7286
  313MOL0     H43188   0.372   3.501   3.048 -0.9977  0.4745  1.4116
  313MOL0     H43189   0.436   3.651   3.106 -0.9628  0.5332 -0.2829
  313MOL0     H43190   0.491   3.435   3.451  1.4447  0.7548  0.0359
  313MOL0     H43191   1.074   3.392   2.822  2.4445 -0.0033 -0.6915
  313MOL0     H43192   1.266   3.254   2.805  1.7081  0.1812 -0.8909
  313MOL0     H43193   1.394   3.349   2.890 -1.1575  1.9425  0.1409
  313MOL0     H43194   1.334   3.186   2.948 -0.4856 -0.3012 -0.1166
  314MOL0     O43195   1.897   9.942   7.999  0.2218  0.0843  0.1067
  314MOL0     C43196   1.783   9.902   7.973  0.0431  0.1738  0.3646
  314MOL0     O43197   1.708   9.948   7.862 -0.4291  0.1393  0.5811
  314MOL0     C43198   1.778  10.028   7.780  0.4096  0.0314  0.8853
  314MOL0     C43199   1.793  10.167   7.805  0.5459  0.0771 -0.2468
  314MOL0     C43200   1.847  10.251   7.710  0.3723  0.6321  1.0097
  314MOL0     C43201   1.910  10.200   7.588  0.4153 -0.3923  0.4818
  314MOL0     O43202   1.975  10.286   7.502 -0.4682 -0.3151  0.5932
  314MOL0     C43203   2.080  10.235   7.420  0.2048 -0.3135 -0.4153
  314MOL0     C43204   2.165  10.346   7.341  0.3418  0.2161  0.6349
  314MOL0     C43205   2.244  10.306   7.218  0.2292  0.5936  0.5878
  314MOL0     C43206   2.359  10.216   7.247 -0.9649  0.0988  0.2239
  314MOL0     C43207   2.432  10.189   7.114 -0.0353  0.2001 -0.5754
  314MOL0     C43208   2.536  10.080   7.130 -0.1061  0.4002 -0.4935
  314MOL0     C43209   2.652  10.123   7.227  0.0415  0.5049  1.5275
  314MOL0     C43210   2.755  10.013   7.245  0.1955 -0.4185  0.5937
  314MOL0     N43211   2.827   9.970   7.131  1.1335  0.1971 -0.0505
  314MOL0     C43212   2.900  10.047   7.045  1.0098 -0.4785  0.3890
  314MOL0     C43213   2.934   9.969   6.937 -0.4312  0.3592  0.2883
  314MOL0     C43214   3.018  10.018   6.829  0.8680  0.1034 -0.0409
  314MOL0     C43215   3.146   9.942   6.829  0.1863  0.6318  0.2946
  314MOL0     C43216   3.248   9.987   6.935 -0.1906 -0.0617  0.0908
  314MOL0     C43217   3.384   9.916   6.906 -0.1426  0.5304  0.1575
  314MOL0     O43218   3.485   9.970   6.991  0.1736 -0.2654  0.4625
  314MOL0     C43219   3.609   9.918   6.985 -0.8845 -0.5811 -0.4564
  314MOL0     C43220   3.704   9.965   7.082  0.8292  0.2814  0.2695
  314MOL0     C43221   3.839   9.939   7.077 -0.0916 -0.5316 -0.3153
  314MOL0     C43222   3.925  10.006   7.185 -0.0597 -0.1572 -0.3353
  314MOL0     C43223   3.894   9.851   6.978 -0.0911 -0.1655  0.0902
  314MOL0     C43224   4.039   9.822   6.961  0.6685 -0.8813 -0.1662
  314MOL0     O43225   4.123   9.846   7.060  0.5880 -0.2564  0.4109
  314MOL0     C43226   4.256   9.812   7.044  0.2240 -0.2785 -0.1192
  314MOL0     C43227   4.342   9.913   7.077 -0.4812  0.1556 -0.2513
  314MOL0     C43228   4.482   9.886   7.066 -0.1525 -0.5219  0.1754
  314MOL0     C43229   4.532   9.754   7.039  0.4441 -0.3621  0.2753
  314MOL0     O43230   4.673   9.741   7.034 -0.5633  0.5440 -0.2079
  314MOL0     C43231   4.719   9.655   6.927  0.3963  1.0075  0.6273
  314MOL0     C43232   4.871   9.663   6.931 -0.7292  0.0024  0.0889
  314MOL0     C43233   4.922   9.809   6.888  0.0167  0.4197 -0.0600
  314MOL0     C43234   5.075   9.789   6.853 -0.9440 -0.9793 -0.3512
  314MOL0     C43235   5.138   9.928   6.808 -0.1226 -0.0824 -0.8458
  314MOL0     C43236   5.279   9.927   6.738  1.0633  0.1616 -0.5588
  314MOL0     C43237   5.324  10.064   6.685  1.0412  0.5598  0.3467
  314MOL0     C43238   5.478  10.094   6.701 -0.2548 -0.5629 -0.9379
  314MOL0    Cl43239   5.529  10.252   6.626 -0.2540  0.1095 -0.0518
  314MOL0     C43240   4.439   9.646   7.019  0.4001 -0.6720  1.1109
  314MOL0     C43241   4.297   9.679   7.018 -0.0885 -0.7202  0.0276
  314MOL0     O43242   4.064   9.777   6.854  0.2072 -0.7934 -0.0766
  314MOL0     C43243   3.798   9.795   6.890 -0.2030  1.3135  0.3829
  314MOL0     C43244   3.660   9.825   6.891  0.0560 -0.0174  0.5228
  314MOL0     N43245   2.889   9.837   6.964  0.1635 -0.2105 -0.3584
  314MOL0     N43246   2.827   9.842   7.082  0.0114 -0.0728 -0.2444
  314MOL0     C43247   1.890  10.058   7.562 -0.4600 -0.0433 -0.2675
  314MOL0     C43248   1.833   9.973   7.662  0.4627 -0.2418 -1.2142
  314MOL0     C43249   1.704   9.821   8.076  0.4593 -0.9867 -0.1878
  314MOL0     C43250   1.773   9.788   8.196  0.3541 -0.5860  1.0870
  314MOL0     C43251   1.722   9.701   8.284  0.5862 -0.7424 -0.6037
  314MOL0     C43252   1.597   9.643   8.257 -0.1818  1.0024 -0.0452
  314MOL0     O43253   1.552   9.563   8.360 -0.7521  0.9821 -0.2949
  314MOL0     C43254   1.415   9.526   8.343  0.1849 -0.6771 -0.5082
  314MOL0     C43255   1.367   9.444   8.451 -0.2381 -0.0651 -0.2130
  314MOL0     C43256   1.420   9.494   8.588 -0.2432  0.5800 -0.0276
  314MOL0     C43257   1.362   9.408   8.701 -0.3330  0.9513  0.1341
  314MOL0     C43258   1.458   9.302   8.743  0.5977  0.3790  0.1568
  314MOL0     C43259   1.540   9.219   8.780  0.1048 -0.2443 -0.7548
  314MOL0     C43260   1.524   9.669   8.132 -0.3399 -0.1617 -0.9637
  314MOL0     C43261   1.577   9.762   8.048  0.1442 -0.6982 -0.6026
  314MOL0     C43262   1.515   9.765   7.913  1.3260  0.1844  0.6192
  314MOL0     H43263   1.748  10.212   7.893  1.6507  3.5677 -1.3344
  314MOL0     H43264   1.851  10.359   7.712 -1.3223  0.8827 -2.2470
  314MOL0     H43265   2.044  10.164   7.345 -0.1881 -0.8418  0.2659
  314MOL0     H43266   2.143  10.175   7.486 -1.4903 -1.6891  0.0249
  314MOL0     H43267   2.097  10.421   7.299  0.1035  0.6515  1.7503
  314MOL0     H43268   2.235  10.389   7.413  1.2286  1.1150 -0.7225
  314MOL0     H43269   2.179  10.257   7.145 -0.7335 -3.3136  3.6801
  314MOL0     H43270   2.278  10.403   7.182  1.4516 -0.8384 -2.4922
  314MOL0     H43271   2.427  10.263   7.319 -0.8861  1.3845 -0.6592
  314MOL0     H43272   2.328  10.122   7.293  1.4649  0.3860  2.7347
  314MOL0     H43273   2.478  10.280   7.074 -0.3469  0.4377 -0.3994
  314MOL0     H43274   2.365  10.148   7.038  0.0374 -2.7053  0.7941
  314MOL0     H43275   2.485   9.988   7.159 -0.2088  0.5116 -0.3131
  314MOL0     H43276   2.572  10.068   7.028 -0.9173 -0.0533 -0.7364
  314MOL0     H43277   2.621  10.163   7.325  1.9289  1.5707  1.7480
  314MOL0     H43278   2.694  10.212   7.179 -3.2002  1.3411 -0.0519
  314MOL0     H43279   2.829  10.056   7.312  2.0364  1.8512 -2.6307
  314MOL0     H43280   2.705   9.928   7.293  1.0890 -0.2719  1.7972
  314MOL0     H43281   2.917  10.152   7.065 -3.6331  0.0106  3.2937
  314MOL0     H43282   3.038  10.126   6.833  3.9647 -0.3958  0.8075
  314MOL0     H43283   2.957   9.999   6.740  0.0898  2.6552 -0.1446
  314MOL0     H43284   3.138   9.835   6.851 -0.5841  1.0774  2.5130
  314MOL0     H43285   3.194   9.966   6.734  2.5757  2.3276  1.7955
  314MOL0     H43286   3.263  10.096   6.933  1.0488 -0.2139  0.2524
  314MOL0     H43287   3.220   9.958   7.037  1.1386  0.8524  0.7421
  314MOL0     H43288   3.371   9.810   6.925 -2.3634  0.6533 -0.3829
  314MOL0     H43289   3.403   9.921   6.798 -0.7379 -0.1561  0.0203
  314MOL0     H43290   3.665  10.029   7.160 -2.7824 -1.4700  0.0850
  314MOL0     H43291   3.870  10.071   7.253  0.5438  2.9886 -2.6166
  314MOL0     H43292   4.006  10.067   7.143 -0.3001  0.2747 -0.1711
  314MOL0     H43293   3.972   9.929   7.247 -0.9969 -0.1710  0.3718
  314MOL0     H43294   4.303  10.013   7.091 -0.5421 -0.1309  1.7943
  314MOL0     H43295   4.565   9.954   7.080  0.9305 -1.5531 -0.9099
  314MOL0     H43296   4.688   9.553   6.949  1.1873  1.0980  2.3390
  314MOL0     H43297   4.680   9.693   6.832  2.6180  1.9150 -0.0060
  314MOL0     H43298   4.901   9.640   7.033 -2.3445  0.4888  0.7023
  314MOL0     H43299   4.916   9.592   6.861 -1.9378  0.7095 -1.4682
  314MOL0     H43300   4.896   9.893   6.953  0.9812  0.4767  0.2729
  314MOL0     H43301   4.862   9.840   6.803 -0.1305  1.3250  0.3658
  314MOL0     H43302   5.085   9.712   6.776  0.9480  0.5334 -1.7112
  314MOL0     H43303   5.133   9.758   6.939 -0.7814  1.7590  0.6194
  314MOL0     H43304   5.064   9.972   6.741  0.3848  1.9661 -0.1353
  314MOL0     H43305   5.152   9.991   6.896 -2.8399  0.2485 -0.5601
  314MOL0     H43306   5.292   9.850   6.661 -0.0553  0.6450 -1.2463
  314MOL0     H43307   5.337   9.888   6.822  0.1831 -1.4828 -0.6776
  314MOL0     H43308   5.264  10.147   6.724 -1.2915 -0.6908 -0.3663
  314MOL0     H43309   5.305  10.057   6.577  2.6444 -0.6130  0.1058
  314MOL0     H43310   5.530  10.018   6.643  1.2433 -0.2648 -0.0296
  314MOL0     H43311   5.517  10.103   6.803  0.5963 -0.4607 -1.2634
  314MOL0     H43312   4.482   9.552   6.986  1.6985  0.7178 -1.4035
  314MOL0     H43313   4.214   9.611   7.003 -0.3826 -0.8706  1.9775
  314MOL0     H43314   3.839   9.717   6.826  0.1753  1.8708 -0.0644
  314MOL0     H43315   3.589   9.782   6.821  1.7055  3.1871 -3.5956
  314MOL0     H43316   1.934  10.009   7.475 -1.4296 -0.8265 -0.3262
  314MOL0     H43317   1.837   9.864   7.661 -0.8946 -0.5742  3.9343
  314MOL0     H43318   1.872   9.829   8.209 -0.3937  1.4844  0.7579
  314MOL0     H43319   1.778   9.669   8.371 -0.4498  1.8881  1.1571
  314MOL0     H43320   1.351   9.614   8.336 -0.2382 -0.8041  1.1450
  314MOL0     H43321   1.402   9.472   8.249  1.0356  0.9665 -1.6099
  314MOL0     H43322   1.391   9.338   8.442 -2.7628 -0.7267 -0.1248
  314MOL0     H43323   1.257   9.442   8.452 -0.2534 -1.4358 -1.7398
  314MOL0     H43324   1.529   9.497   8.587 -0.1013 -0.7144 -3.6671
  314MOL0     H43325   1.379   9.595   8.603  2.3704  1.4944  1.7157
  314MOL0     H43326   1.273   9.355   8.666  1.4258 -2.9129  0.9409
  314MOL0     H43327   1.338   9.475   8.784  0.6459  2.1120 -0.4919
  314MOL0     H43328   1.611   9.146   8.812  0.2752 -0.2985 -1.2567
  314MOL0     H43329   1.443   9.603   8.103  1.0108 -2.1685 -0.4086
  314MOL0     H43330   1.587   9.736   7.835 -2.5381 -0.6775 -2.9696
  314MOL0     H43331   1.448   9.680   7.897  2.5780 -1.1867  2.2374
  314MOL0     H43332   1.462   9.859   7.896  0.6368 -0.5726 -1.7877
  315MOL0     O43333   2.676   3.203   4.856 -0.5050  0.4834 -0.4452
  315MOL0     C43334   2.686   3.283   4.769 -0.6745  0.9104  0.6288
  315MOL0     O43335   2.802   3.336   4.746 -0.3790 -0.5835 -0.6745
  315MOL0     C43336   2.922   3.296   4.796 -0.2587  0.9437 -0.2337
  315MOL0     C43337   2.994   3.204   4.722  0.1385 -0.2532  0.7291
  315MOL0     C43338   3.120   3.162   4.768  0.1832  0.1116 -0.4137
  315MOL0     C43339   3.171   3.211   4.889  0.3893  0.7272  0.3325
  315MOL0     O43340   3.295   3.181   4.924  0.0199  0.4650  0.4749
  315MOL0     C43341   3.318   3.075   5.012 -0.5275 -0.3423 -0.6278
  315MOL0     C43342   3.395   2.961   4.942 -0.5401  0.4074  0.1367
  315MOL0     C43343   3.451   2.849   5.036  0.4268 -0.0298  0.1609
  315MOL0     C43344   3.501   2.742   4.938  0.4435 -0.2126  0.1064
  315MOL0     C43345   3.551   2.626   5.019 -0.4972 -0.9729  0.2223
  315MOL0     C43346   3.550   2.494   4.943  0.3814  0.3570  0.1931
  315MOL0     C43347   3.610   2.372   5.008 -0.9696  0.2179  0.2425
  315MOL0     C43348   3.545   2.340   5.149  0.3897 -0.0414  0.7486
  315MOL0     N43349   3.601   2.207   5.193 -0.3800 -0.3918 -1.1913
  315MOL0     C43350   3.542   2.081   5.181  0.0973 -0.0561  0.5017
  315MOL0     C43351   3.611   1.998   5.259 -0.2548 -0.1315 -0.5495
  315MOL0     C43352   3.577   1.846   5.281  0.3277 -0.4527  1.0234
  315MOL0     C43353   3.657   1.769   5.380 -0.3595 -0.0803  1.1662
  315MOL0     C43354   3.803   1.766   5.330  0.3370  0.2640  0.7316
  315MOL0     C43355   3.901   1.673   5.415  0.4899 -0.0880 -0.4319
  315MOL0     O43356   3.998   1.627   5.331  0.3677 -0.5077  0.4405
  315MOL0     C43357   4.118   1.590   5.385 -0.3571  0.4962 -0.6927
  315MOL0     C43358   4.133   1.563   5.528  0.1943 -0.1040  0.5674
  315MOL0     C43359   4.254   1.510   5.573 -0.3248  0.6902  0.2242
  315MOL0     C43360   4.253   1.470   5.716  0.4557  0.4719  0.2034
  315MOL0     C43361   4.366   1.485   5.487  0.2695  0.7329 -1.0946
  315MOL0     C43362   4.505   1.444   5.531  0.4607  0.3874  0.1759
  315MOL0     O43363   4.535   1.441   5.667 -0.3097  0.1483 -0.8554
  315MOL0     C43364   4.659   1.393   5.698 -0.3129  0.3094 -0.1390
  315MOL0     C43365   4.763   1.479   5.720  0.0199  0.3293 -0.6868
  315MOL0     C43366   4.892   1.430   5.761 -0.0180 -0.2790  0.2135
  315MOL0     C43367   4.917   1.294   5.765 -0.5273 -0.3461  0.1634
  315MOL0     O43368   5.043   1.248   5.804  0.5846  0.1513  0.3538
  315MOL0     C43369   5.065   1.104   5.804 -0.8092  0.2836  0.1179
  315MOL0     C43370   5.207   1.079   5.871 -0.2947 -0.2978 -0.1046
  315MOL0     C43371   5.262   0.935   5.831 -0.6434  0.8862 -0.5645
  315MOL0     C43372   5.399   0.888   5.894  0.2317  0.4915  0.8353
  315MOL0     C43373   5.369   0.863   6.047 -0.5493 -0.5521 -0.2897
  315MOL0     C43374   5.497   0.802   6.112 -0.2335  0.6672  0.0036
  315MOL0     C43375   5.536   0.664   6.056 -0.2667 -0.5472  1.3903
  315MOL0     C43376   5.661   0.662   5.969  0.1677  0.0886 -0.6701
  315MOL0    Cl43377   5.799   0.674   6.071  0.3474 -0.2986 -0.0817
  315MOL0     C43378   4.811   1.206   5.745  0.0010 -0.1501 -0.5356
  315MOL0     C43379   4.684   1.254   5.714  0.2202 -0.5113 -0.4537
  315MOL0     O43380   4.584   1.413   5.446  0.5256 -0.3334 -0.1425
  315MOL0     C43381   4.346   1.514   5.350  0.7105  0.2595  0.0978
  315MOL0     C43382   4.226   1.570   5.303  0.1882  0.1026  0.1365
  315MOL0     N43383   3.714   2.073   5.323  1.2003  0.0766  0.3590
  315MOL0     N43384   3.709   2.192   5.268 -0.2161  0.6597  0.1878
  315MOL0     C43385   3.091   3.295   4.970  0.7531  0.6230 -0.0241
  315MOL0     C43386   2.968   3.338   4.917 -0.0579 -0.1338  0.3809
  315MOL0     C43387   2.572   3.327   4.686  1.4619 -0.9972  0.2326
  315MOL0     C43388   2.450   3.259   4.705 -0.3094 -0.1957  1.0734
  315MOL0     C43389   2.338   3.299   4.633  0.0325  0.0352 -0.0115
  315MOL0     C43390   2.343   3.409   4.544  0.1210 -0.3281  0.9161
  315MOL0     O43391   2.238   3.436   4.453  0.2337  0.5923  0.2220
  315MOL0     C43392   2.129   3.515   4.512  0.4639  0.6055  0.0438
  315MOL0     C43393   1.994   3.484   4.445  0.4781 -0.7377  0.2205
  315MOL0     C43394   1.884   3.584   4.490 -0.5625  0.0005 -0.5963
  315MOL0     C43395   1.757   3.574   4.408  0.0684  0.2781  0.0077
  315MOL0     C43396   1.704   3.434   4.410 -0.3376 -0.4045 -0.4074
  315MOL0     C43397   1.660   3.323   4.398  0.8546 -0.6998  0.0506
  315MOL0     C43398   2.463   3.483   4.531 -0.0570 -0.0557  0.9688
  315MOL0     C43399   2.578   3.442   4.594 -0.1222 -0.4554  0.1379
  315MOL0     C43400   2.693   3.530   4.563 -0.2437  1.1026 -0.0808
  315MOL0     H43401   2.947   3.165   4.632  3.1597 -0.4483 -0.8958
  315MOL0     H43402   3.173   3.093   4.703 -1.8443 -0.0399 -2.0058
  315MOL0     H43403   3.230   3.032   5.060  0.8187 -1.5038  0.9309
  315MOL0     H43404   3.386   3.113   5.090 -0.5202 -2.3441  0.4086
  315MOL0     H43405   3.353   2.916   4.852  1.7814  1.1085 -1.4010
  315MOL0     H43406   3.488   3.004   4.903 -0.2284  0.3206  0.7604
  315MOL0     H43407   3.536   2.890   5.091  0.7896  0.4437 -0.7253
  315MOL0     H43408   3.368   2.808   5.095 -2.4906  1.7010 -2.4390
  315MOL0     H43409   3.410   2.705   4.889 -0.4923  3.6500 -1.3927
  315MOL0     H43410   3.573   2.778   4.864  0.9682  2.4124  1.7795
  315MOL0     H43411   3.483   2.612   5.104 -0.8035 -0.3889  0.0839
  315MOL0     H43412   3.654   2.651   5.046 -0.9347  1.0699  0.1628
  315MOL0     H43413   3.445   2.467   4.927 -0.0005 -1.1900  4.1260
  315MOL0     H43414   3.599   2.508   4.847  0.5180  0.3762  0.2647
  315MOL0     H43415   3.715   2.392   5.027 -0.6285  0.6007 -1.8112
  315MOL0     H43416   3.600   2.288   4.938 -1.1113 -0.2672  0.8274
  315MOL0     H43417   3.560   2.421   5.220  0.3715 -0.1354  0.8592
  315MOL0     H43418   3.440   2.315   5.135  0.3865  0.8964 -1.2766
  315MOL0     H43419   3.450   2.052   5.131  0.3993 -0.5080  0.2008
  315MOL0     H43420   3.588   1.807   5.180  1.1865  1.3657  0.3599
  315MOL0     H43421   3.470   1.846   5.306 -0.6405  0.2539 -2.5700
  315MOL0     H43422   3.655   1.822   5.476  1.7801  1.6380  0.3472
  315MOL0     H43423   3.612   1.671   5.396  0.4210 -0.8368 -0.9396
  315MOL0     H43424   3.812   1.722   5.230  2.7488 -0.8439  1.3533
  315MOL0     H43425   3.843   1.866   5.316 -1.2659  0.7103 -1.1055
  315MOL0     H43426   3.939   1.743   5.491 -0.1199 -0.9612  0.7036
  315MOL0     H43427   3.843   1.598   5.469  1.2633  0.2671  0.9605
  315MOL0     H43428   4.046   1.575   5.593 -2.4205 -2.6545 -2.1358
  315MOL0     H43429   4.285   1.366   5.718 -1.5755 -0.1998  2.0283
  315MOL0     H43430   4.150   1.471   5.752  0.9148  0.8609  1.5709
  315MOL0     H43431   4.314   1.532   5.782 -1.2873 -0.9314  3.2992
  315MOL0     H43432   4.744   1.585   5.716  0.3095  0.4422  0.4586
  315MOL0     H43433   4.971   1.503   5.772  1.6525 -1.5172 -2.4972
  315MOL0     H43434   4.991   1.044   5.858  0.6450 -0.9394  0.8065
  315MOL0     H43435   5.077   1.077   5.698 -0.6262  0.5576  0.0699
  315MOL0     H43436   5.272   1.159   5.833  1.7548 -0.8835  1.9152
  315MOL0     H43437   5.204   1.089   5.980  0.8403 -0.2930 -0.0647
  315MOL0     H43438   5.279   0.926   5.724 -2.0263 -0.0439 -0.7273
  315MOL0     H43439   5.192   0.855   5.855  2.1990 -2.1943 -1.7354
  315MOL0     H43440   5.477   0.964   5.882 -0.2330  0.8649  0.1476
  315MOL0     H43441   5.415   0.796   5.838 -0.4067 -0.4652  2.1577
  315MOL0     H43442   5.347   0.954   6.103 -0.3041 -0.8521  0.3039
  315MOL0     H43443   5.280   0.799   6.050 -2.7030  2.0114 -3.3175
  315MOL0     H43444   5.469   0.787   6.217 -2.7689  4.5884  0.1081
  315MOL0     H43445   5.582   0.871   6.104  1.8827 -1.9200 -1.1850
  315MOL0     H43446   5.453   0.623   5.998 -0.0532 -0.2823  0.8932
  315MOL0     H43447   5.549   0.596   6.141  0.9094 -0.0870  1.5961
  315MOL0     H43448   5.665   0.738   5.891  2.2833  0.7422  0.0007
  315MOL0     H43449   5.665   0.561   5.927 -0.9829 -0.2205 -0.1015
  315MOL0     H43450   4.820   1.098   5.745 -0.1278 -0.1598 -0.4585
  315MOL0     H43451   4.602   1.184   5.698 -1.2584  0.3231  2.7312
  315MOL0     H43452   4.417   1.488   5.273  1.1392 -0.0795  0.6059
  315MOL0     H43453   4.222   1.594   5.197  2.1496 -2.7418 -0.7261
  315MOL0     H43454   3.129   3.329   5.066 -1.4440  3.6016 -0.0699
  315MOL0     H43455   2.900   3.408   4.965 -1.0589 -1.4399  0.9166
  315MOL0     H43456   2.430   3.171   4.765  2.2296 -0.5611  1.5101
  315MOL0     H43457   2.247   3.240   4.628  1.7543 -2.7059 -0.9629
  315MOL0     H43458   2.114   3.502   4.620 -3.8429  2.2692 -0.1365
  315MOL0     H43459   2.154   3.620   4.493 -0.7555  1.4201  2.4295
  315MOL0     H43460   1.964   3.381   4.464 -2.1948  0.3546  2.6413
  315MOL0     H43461   2.000   3.501   4.337  0.4210  1.6799  0.5518
  315MOL0     H43462   1.869   3.571   4.598  0.4800  2.6195 -0.0679
  315MOL0     H43463   1.929   3.683   4.480  0.2730 -0.3480 -0.3951
  315MOL0     H43464   1.786   3.587   4.304 -0.8033  0.2090 -0.2490
  315MOL0     H43465   1.679   3.651   4.415 -0.0524  0.3445 -1.7420
  315MOL0     H43466   1.605   3.234   4.378 -1.4259  1.1193 -2.3819
  315MOL0     H43467   2.463   3.565   4.460  0.6959 -1.1898 -0.4017
  315MOL0     H43468   2.792   3.484   4.571 -1.2961 -1.1922  0.3196
  315MOL0     H43469   2.685   3.567   4.460  1.2680  1.0125 -0.2538
  315MOL0     H43470   2.684   3.614   4.632 -1.7515  1.0618 -0.1921
  316MOL0     O43471   0.403  11.237   4.826  0.3371  0.3558  0.4908
  316MOL0     C43472   0.287  11.274   4.822 -0.1613  0.4102 -0.8095
  316MOL0     O43473   0.227  11.348   4.916 -0.0574 -0.8036  0.1791
  316MOL0     C43474   0.310  11.390   5.017 -0.3645 -0.7841  0.3224
  316MOL0     C43475   0.406  11.491   4.998  0.2421 -0.6018  0.4459
  316MOL0     C43476   0.500  11.524   5.101 -0.6919 -0.2792 -0.0950
  316MOL0     C43477   0.485  11.473   5.228 -0.3259  0.1997 -0.5766
  316MOL0     O43478   0.568  11.528   5.330  0.1170 -0.5408 -0.1004
  316MOL0     C43479   0.644  11.438   5.415  0.9938  0.0952  0.0419
  316MOL0     C43480   0.760  11.375   5.343 -0.1195  0.1888 -0.4252
  316MOL0     C43481   0.836  11.477   5.263 -0.4433 -0.0880 -0.0470
  316MOL0     C43482   0.971  11.420   5.223  0.3533 -0.3827 -0.7811
  316MOL0     C43483   1.067  11.423   5.346 -0.2741  0.4745  1.0754
  316MOL0     C43484   1.214  11.378   5.308  0.2721 -0.2004 -0.5407
  316MOL0     C43485   1.227  11.229   5.303  0.1319 -0.6084 -0.1314
  316MOL0     C43486   1.369  11.181   5.260 -0.5946 -0.8806  0.0612
  316MOL0     N43487   1.442  11.262   5.156 -0.1762 -0.9976 -0.9032
  316MOL0     C43488   1.570  11.306   5.184  0.3353  0.1995 -0.0083
  316MOL0     C43489   1.617  11.345   5.060  0.0142  0.6256 -0.1823
  316MOL0     C43490   1.756  11.412   5.040 -0.5080 -0.7491  1.3854
  316MOL0     C43491   1.869  11.335   4.979  0.7817 -0.1878 -0.6312
  316MOL0     C43492   1.908  11.207   5.057  0.1538  0.8724  0.3155
  316MOL0     C43493   1.981  11.243   5.183  0.0584 -0.2819 -0.8360
  316MOL0     O43494   2.114  11.285   5.141  0.5228  0.0841 -0.6056
  316MOL0     C43495   2.218  11.303   5.228 -0.7067  0.3568  0.2846
  316MOL0     C43496   2.334  11.360   5.177 -0.5804 -0.0190 -0.1967
  316MOL0     C43497   2.450  11.368   5.257 -0.4528 -0.6535 -0.7658
  316MOL0     C43498   2.574  11.431   5.184 -0.6004 -1.1186 -0.0066
  316MOL0     C43499   2.452  11.320   5.398 -0.2101 -0.1623 -0.1213
  316MOL0     C43500   2.580  11.317   5.482  0.8082 -0.2065  0.2883
  316MOL0     O43501   2.556  11.294   5.616  0.3817  0.3162 -0.7771
  316MOL0     C43502   2.666  11.281   5.698 -0.4859 -0.0846 -0.7601
  316MOL0     C43503   2.724  11.158   5.696 -1.0867 -0.3770 -0.2549
  316MOL0     C43504   2.829  11.126   5.781  0.4678  0.2242  0.3325
  316MOL0     C43505   2.883  11.226   5.861  0.2511 -0.0530  0.4525
  316MOL0     O43506   2.984  11.184   5.937 -0.4371  0.5332  0.4434
  316MOL0     C43507   2.957  11.187   6.078 -0.2652 -0.3200  0.4666
  316MOL0     C43508   2.839  11.111   6.128  0.1341 -0.6219 -0.1139
  316MOL0     C43509   2.846  10.965   6.105 -0.8192 -0.2537 -0.5278
  316MOL0     C43510   2.721  10.883   6.131  0.0458  0.7048  0.0839
  316MOL0     C43511   2.607  10.915   6.033 -0.4809  0.5692 -0.6749
  316MOL0     C43512   2.487  10.827   6.051 -0.0301 -0.7095 -0.1258
  316MOL0     C43513   2.374  10.893   5.983 -0.2996 -0.0204 -0.5996
  316MOL0     C43514   2.394  10.906   5.834 -0.4810 -0.7425  0.0112
  316MOL0    Cl43515   2.451  10.755   5.763  0.0489  0.1114  0.5651
  316MOL0     C43516   2.815  11.351   5.869 -0.2709  0.8848 -0.5301
  316MOL0     C43517   2.706  11.381   5.790  0.2236  0.1036 -0.4221
  316MOL0     O43518   2.694  11.330   5.436  0.7546  0.4399  0.6319
  316MOL0     C43519   2.328  11.264   5.438  0.7724  0.4471 -0.7689
  316MOL0     C43520   2.216  11.259   5.353 -0.3232 -0.5711  0.0241
  316MOL0     N43521   1.524  11.314   4.965 -0.0100  0.1682 -0.3442
  316MOL0     N43522   1.419  11.258   5.024 -0.0625 -0.6925  0.8456
  316MOL0     C43523   0.385  11.384   5.253 -0.0924  0.2190 -0.1552
  316MOL0     C43524   0.301  11.330   5.144 -0.6488 -0.8942  0.0083
  316MOL0     C43525   0.207  11.225   4.710  0.3793  0.0096  0.2514
  316MOL0     C43526   0.074  11.176   4.729 -0.3787 -0.6099 -1.0366
  316MOL0     C43527  -0.003  11.125   4.625  0.0046  0.5031  0.2728
  316MOL0     C43528   0.044  11.129   4.490  0.0178  0.1455 -0.5404
  316MOL0     O43529  -0.027  11.095   4.374 -0.1700  0.0289  0.1689
  316MOL0     C43530  -0.155  11.034   4.395 -0.3186 -0.4574 -0.9700
  316MOL0     C43531  -0.206  10.976   4.264 -0.0450 -0.8271 -0.0425
  316MOL0     C43532  -0.296  11.086   4.192 -0.5760 -1.0362  0.4829
  316MOL0     C43533  -0.439  11.094   4.246 -0.1670  0.1245  0.3874
  316MOL0     C43534  -0.526  11.184   4.176  0.1610  0.7778 -0.3338
  316MOL0     C43535  -0.615  11.258   4.146  0.5284  0.5760  0.2349
  316MOL0     C43536   0.166  11.191   4.473  0.4153  1.1874 -0.3618
  316MOL0     C43537   0.251  11.219   4.573 -0.3322 -0.3727 -0.3980
  316MOL0     C43538   0.378  11.280   4.532  0.1086 -0.1664  0.2427
  316MOL0     H43539   0.404  11.525   4.895 -0.0801 -2.1746 -0.0972
  316MOL0     H43540   0.578  11.596   5.078  0.2820 -1.0988  0.5488
  316MOL0     H43541   0.580  11.359   5.456 -1.3649  1.9343  0.0934
  316MOL0     H43542   0.671  11.503   5.499 -1.1410  1.9984 -0.6485
  316MOL0     H43543   0.826  11.320   5.412 -0.6404  1.9776  1.6265
  316MOL0     H43544   0.706  11.306   5.278 -2.0977 -0.0794  1.3717
  316MOL0     H43545   0.779  11.505   5.173 -0.0767  0.0896 -0.2257
  316MOL0     H43546   0.851  11.571   5.317 -0.5040  0.2373 -0.5850
  316MOL0     H43547   0.954  11.318   5.187 -0.6957  0.4373 -2.8111
  316MOL0     H43548   1.010  11.488   5.146 -1.7550  1.2105 -0.5378
  316MOL0     H43549   1.037  11.347   5.419  0.3614 -2.0069 -1.1149
  316MOL0     H43550   1.067  11.521   5.394  1.1898  0.9558  0.1558
  316MOL0     H43551   1.248  11.430   5.219  0.7219 -0.0219 -0.2643
  316MOL0     H43552   1.271  11.411   5.395 -0.8894 -0.0758  0.1989
  316MOL0     H43553   1.159  11.206   5.220 -0.0479 -0.2883 -0.0740
  316MOL0     H43554   1.186  11.178   5.391  0.9854 -0.2765  0.4716
  316MOL0     H43555   1.429  11.186   5.351  0.4279  1.7113 -0.6497
  316MOL0     H43556   1.370  11.077   5.228  2.5707 -0.6072 -1.0506
  316MOL0     H43557   1.621  11.311   5.279  0.0046 -0.9165  0.2337
  316MOL0     H43558   1.785  11.436   5.142 -1.6491  2.6369  1.0290
  316MOL0     H43559   1.733  11.504   4.985  0.7685 -1.0815  0.2382
  316MOL0     H43560   1.837  11.299   4.881 -0.9484  3.5512 -1.6362
  316MOL0     H43561   1.959  11.394   4.959  1.4425 -1.2992 -1.0494
  316MOL0     H43562   1.818  11.147   5.078 -0.5914  1.6844 -0.4942
  316MOL0     H43563   1.967  11.139   4.995 -0.1257  0.2704  0.6906
  316MOL0     H43564   1.936  11.316   5.251  1.5166 -0.0614 -0.0718
  316MOL0     H43565   1.987  11.152   5.244 -0.0164  0.6770  0.6454
  316MOL0     H43566   2.335  11.406   5.078 -0.4930  0.9997  0.2667
  316MOL0     H43567   2.623  11.517   5.230  1.2492 -3.4114  2.6259
  316MOL0     H43568   2.550  11.444   5.077 -2.6410  0.8987  0.5983
  316MOL0     H43569   2.656  11.360   5.187 -0.5742 -1.0533  1.3774
  316MOL0     H43570   2.700  11.080   5.624  1.2775 -1.2924 -0.1250
  316MOL0     H43571   2.872  11.027   5.783 -1.0563 -0.5015 -0.6014
  316MOL0     H43572   3.045  11.166   6.140 -0.2834 -0.2747  0.5083
  316MOL0     H43573   2.945  11.291   6.108 -0.3385 -0.0442 -0.5001
  316MOL0     H43574   2.836  11.129   6.236 -0.6125  0.2141 -0.2682
  316MOL0     H43575   2.748  11.156   6.089  0.6005  1.4458  1.0631
  316MOL0     H43576   2.921  10.931   6.178 -0.9603  0.3311 -0.1025
  316MOL0     H43577   2.884  10.933   6.008  1.5223 -1.9979  0.8385
  316MOL0     H43578   2.674  10.892   6.229  1.7731 -0.6373  1.1104
  316MOL0     H43579   2.750  10.777   6.124  0.7415  0.7385  1.8738
  316MOL0     H43580   2.587  11.022   6.042  0.5230  0.7392 -0.3108
  316MOL0     H43581   2.645  10.905   5.931 -0.0712 -2.2593 -0.3185
  316MOL0     H43582   2.471  10.812   6.158  1.0503 -1.4810 -0.0537
  316MOL0     H43583   2.497  10.725   6.011 -3.8771 -1.5191  0.5698
  316MOL0     H43584   2.360  10.990   6.031  1.0567  0.6161 -1.4441
  316MOL0     H43585   2.285  10.833   6.005 -0.5741  1.4305  2.7317
  316MOL0     H43586   2.473  10.975   5.803 -2.7050  0.9746 -2.1397
  316MOL0     H43587   2.297  10.939   5.796 -0.9224  0.0057  1.6973
  316MOL0     H43588   2.867  11.428   5.925  0.5974  1.0223 -1.4954
  316MOL0     H43589   2.657  11.477   5.802  0.7957  0.3702 -0.1932
  316MOL0     H43590   2.328  11.201   5.526  0.3399  1.4151 -0.0489
  316MOL0     H43591   2.133  11.203   5.395  1.2903 -3.4609 -0.3886
  316MOL0     H43592   0.381  11.339   5.352  1.0528  0.9270  0.2245
  316MOL0     H43593   0.235  11.246   5.161 -0.0731 -2.0389 -2.8753
  316MOL0     H43594   0.038  11.176   4.831  2.2310  1.4671  0.0104
  316MOL0     H43595  -0.100  11.089   4.657  0.9334 -1.3640  1.1639
  316MOL0     H43596  -0.139  10.953   4.467 -0.1214 -0.0237 -0.5180
  316MOL0     H43597  -0.227  11.100   4.443  0.2876 -0.0998 -0.5330
  316MOL0     H43598  -0.265  10.888   4.289 -1.1322 -0.6411 -1.7424
  316MOL0     H43599  -0.122  10.938   4.204  1.0566  0.4408  0.6431
  316MOL0     H43600  -0.241  11.181   4.195  0.2964 -1.5520  1.0130
  316MOL0     H43601  -0.296  11.073   4.083  0.9376  0.6743  0.2343
  316MOL0     H43602  -0.434  11.122   4.352 -2.7991  0.9006  0.3791
  316MOL0     H43603  -0.485  10.996   4.235  1.0660 -0.6941  2.0873
  316MOL0     H43604  -0.689  11.328   4.112  0.8207  0.2328 -1.1659
  316MOL0     H43605   0.207  11.194   4.373 -0.0419 -0.8937 -0.6580
  316MOL0     H43606   0.403  11.374   4.581 -1.8127  0.1244  0.7575
  316MOL0     H43607   0.448  11.203   4.567 -2.2666 -2.4801  0.2008
  316MOL0     H43608   0.381  11.293   4.424 -0.6021 -1.7011  0.0004
  317MOL0     O43609   1.586   4.451   5.443 -0.5607 -0.1012 -0.0271
  317MOL0     C43610   1.608   4.483   5.559 -0.1321  0.7635 -0.4704
  317MOL0     O43611   1.520   4.542   5.639 -0.4880 -0.5264 -0.4881
  317MOL0     C43612   1.386   4.546   5.595  0.1726 -0.0802  0.4697
  317MOL0     C43613   1.319   4.428   5.565  0.2391 -0.0246 -0.6623
  317MOL0     C43614   1.185   4.435   5.519  0.1295  0.1499  0.5143
  317MOL0     C43615   1.117   4.557   5.507 -0.6977 -0.2544  0.2395
  317MOL0     O43616   0.993   4.570   5.453  0.5357  0.0387  0.5137
  317MOL0     C43617   0.905   4.548   5.559 -0.6494 -0.2969 -0.6631
  317MOL0     C43618   0.760   4.560   5.506 -0.6512  0.5709  0.4107
  317MOL0     C43619   0.730   4.695   5.439  0.2045 -0.3323  0.2767
  317MOL0     C43620   0.582   4.700   5.407 -0.6268 -0.6061 -0.9172
  317MOL0     C43621   0.543   4.830   5.328 -0.9616 -0.1009  0.2897
  317MOL0     C43622   0.398   4.865   5.344  0.4084 -0.7664  0.6124
  317MOL0     C43623   0.357   4.996   5.268 -0.2591  0.7046 -0.5228
  317MOL0     C43624   0.359   4.972   5.116  0.4882 -0.5619 -0.3096
  317MOL0     N43625   0.256   5.039   5.040 -0.3413 -0.5244  0.3502
  317MOL0     C43626   0.189   4.982   4.937 -0.4206 -0.1707  0.8086
  317MOL0     C43627   0.120   5.088   4.884 -0.4469  0.6125  0.3075
  317MOL0     C43628   0.008   5.063   4.789  0.0062 -0.2814 -0.6302
  317MOL0     C43629   0.046   5.071   4.639 -0.0224 -0.7444  0.0146
  317MOL0     C43630  -0.060   5.024   4.541  0.0748  0.0629 -0.0570
  317MOL0     C43631   0.007   4.938   4.433 -0.5370  0.7826  0.2682
  317MOL0     O43632   0.093   5.017   4.350  0.1807  0.2601 -0.2332
  317MOL0     C43633   0.217   4.967   4.316  0.1067  0.2806 -0.1194
  317MOL0     C43634   0.269   5.030   4.200  0.3898  0.0193 -0.1528
  317MOL0     C43635   0.393   4.996   4.147 -0.4035 -0.1576 -0.2093
  317MOL0     C43636   0.457   5.093   4.036  0.2353 -0.5047  0.5066
  317MOL0     C43637   0.465   4.883   4.192  0.5894  1.0472  0.9652
  317MOL0     C43638   0.606   4.846   4.140 -0.0421 -0.4863  0.2417
  317MOL0     O43639   0.617   4.713   4.121  0.3296 -0.5115  0.7228
  317MOL0     C43640   0.710   4.657   4.036 -1.1103  0.0995 -0.5561
  317MOL0     C43641   0.804   4.720   3.963 -1.0540 -0.6865  0.5407
  317MOL0     C43642   0.900   4.655   3.887  0.5741  0.4580 -0.4194
  317MOL0     C43643   0.923   4.518   3.895  0.2247  0.4619 -0.2726
  317MOL0     O43644   1.026   4.461   3.825 -0.1169  0.2475  0.1964
  317MOL0     C43645   1.021   4.319   3.799 -0.3168 -0.3262 -0.2699
  317MOL0     C43646   1.153   4.278   3.735 -0.5061  0.1732 -0.4569
  317MOL0     C43647   1.130   4.138   3.693  0.6641  0.1054 -0.0124
  317MOL0     C43648   1.262   4.080   3.658  0.0570  0.3979  0.1116
  317MOL0     C43649   1.248   3.957   3.572 -0.5361  0.6243 -0.1752
  317MOL0     C43650   1.376   3.867   3.584 -0.1301 -0.3974  0.4548
  317MOL0     C43651   1.370   3.752   3.475  0.2612  0.2520 -0.6923
  317MOL0     C43652   1.495   3.661   3.487  0.3115 -0.9903 -0.5470
  317MOL0    Cl43653   1.621   3.734   3.384  0.1808  0.1512  0.1771
  317MOL0     C43654   0.834   4.445   3.976  0.0170 -0.2691  0.7697
  317MOL0     C43655   0.728   4.519   4.040  0.5184  0.1138  0.7271
  317MOL0     O43656   0.700   4.930   4.130  0.7044  0.2735  0.4460
  317MOL0     C43657   0.403   4.810   4.297 -0.5054  0.1886  0.2829
  317MOL0     C43658   0.286   4.855   4.359 -0.6799 -0.3179 -0.6781
  317MOL0     N43659   0.158   5.201   4.953  1.1102 -0.3077  0.3408
  317MOL0     N43660   0.236   5.171   5.049  0.4780 -0.1464 -0.1058
  317MOL0     C43661   1.182   4.675   5.541  0.3992 -0.0795 -1.0242
  317MOL0     C43662   1.311   4.666   5.580 -0.9945  0.2638 -0.5916
  317MOL0     C43663   1.744   4.455   5.609  0.5604  0.0086  0.0431
  317MOL0     C43664   1.785   4.540   5.716 -0.5980  0.1135 -0.2248
  317MOL0     C43665   1.910   4.523   5.770 -0.3493  0.0626 -0.1922
  317MOL0     C43666   1.996   4.420   5.730  0.9884 -0.7571 -0.1631
  317MOL0     O43667   2.123   4.416   5.774  0.2363 -0.8235  0.2793
  317MOL0     C43668   2.177   4.298   5.839 -0.3341  0.2365 -0.1419
  317MOL0     C43669   2.313   4.337   5.896  0.9132 -0.5069 -0.0832
  317MOL0     C43670   2.293   4.429   6.011 -0.4802  0.3118 -0.4470
  317MOL0     C43671   2.424   4.422   6.088 -0.3718  0.6535 -0.0869
  317MOL0     C43672   2.534   4.486   6.012  0.4152  0.1272 -0.0891
  317MOL0     C43673   2.619   4.556   5.962  0.5333 -0.5694  0.0565
  317MOL0     C43674   1.952   4.332   5.628  0.4715  0.4430  0.5785
  317MOL0     C43675   1.826   4.344   5.565 -0.2241  0.5441 -1.7088
  317MOL0     C43676   1.790   4.247   5.454 -0.0125 -1.0392 -0.3257
  317MOL0     H43677   1.375   4.335   5.574  2.2303  1.2546  1.1718
  317MOL0     H43678   1.137   4.355   5.465 -0.1413  1.3557 -1.0912
  317MOL0     H43679   0.923   4.630   5.629  2.8874 -0.1784 -1.5043
  317MOL0     H43680   0.917   4.452   5.611  1.7073  0.9061  1.1972
  317MOL0     H43681   0.738   4.483   5.432 -2.3768  2.1481 -0.8025
  317MOL0     H43682   0.697   4.540   5.593 -0.2985  0.7168  0.7040
  317MOL0     H43683   0.753   4.771   5.515 -0.0268 -0.3996  0.4133
  317MOL0     H43684   0.788   4.714   5.348 -1.4902  0.2887 -0.7231
  317MOL0     H43685   0.551   4.615   5.344 -2.6824 -1.3401  0.9362
  317MOL0     H43686   0.526   4.698   5.501 -4.5722 -2.1114 -3.0636
  317MOL0     H43687   0.576   4.833   5.224 -2.1168  2.4780 -0.0775
  317MOL0     H43688   0.596   4.910   5.379 -2.0619 -0.3398  1.9037
  317MOL0     H43689   0.337   4.782   5.306  2.2572 -1.2371 -1.4765
  317MOL0     H43690   0.369   4.877   5.449 -2.1694  3.7534 -0.3721
  317MOL0     H43691   0.432   5.073   5.291  2.1811 -1.4622 -0.8057
  317MOL0     H43692   0.265   5.037   5.311  0.4875  1.7714  0.1164
  317MOL0     H43693   0.457   5.012   5.086  2.3499 -3.0709  1.8982
  317MOL0     H43694   0.364   4.867   5.086  1.1337 -1.9815  4.0088
  317MOL0     H43695   0.177   4.878   4.907  0.9451  0.4741 -2.3674
  317MOL0     H43696  -0.077   5.128   4.812 -1.1921 -2.0562  0.2131
  317MOL0     H43697  -0.032   4.963   4.811 -0.9687  0.7734  3.1139
  317MOL0     H43698   0.061   5.176   4.613  2.3623 -0.7885  1.0294
  317MOL0     H43699   0.142   5.021   4.623 -0.5630 -1.3603 -1.4561
  317MOL0     H43700  -0.127   4.957   4.595  0.9126  0.2843  1.2952
  317MOL0     H43701  -0.107   5.108   4.490  0.7640  1.8674  2.1291
  317MOL0     H43702   0.053   4.856   4.488 -2.2680 -1.5193 -1.5133
  317MOL0     H43703  -0.066   4.889   4.368  0.8217  1.3750 -1.7998
  317MOL0     H43704   0.207   5.103   4.150  0.8835  0.4869 -0.0940
  317MOL0     H43705   0.432   5.053   3.937 -1.1438 -1.8958  1.3791
  317MOL0     H43706   0.565   5.104   4.048  1.1441 -3.2881 -3.3572
  317MOL0     H43707   0.405   5.190   4.039 -0.6633 -0.9597  0.0782
  317MOL0     H43708   0.791   4.825   3.940 -3.0555 -1.0761 -0.3307
  317MOL0     H43709   0.961   4.705   3.813  2.4536  0.0643  0.7894
  317MOL0     H43710   1.013   4.259   3.891  0.2083 -2.4493 -1.5446
  317MOL0     H43711   0.942   4.282   3.733  0.6639 -0.8694 -1.1592
  317MOL0     H43712   1.179   4.343   3.650  0.3059  1.8945  1.0467
  317MOL0     H43713   1.227   4.287   3.815 -1.7161  0.6544  0.6372
  317MOL0     H43714   1.072   4.136   3.600  0.0163  2.2348  0.2984
  317MOL0     H43715   1.067   4.081   3.762 -1.4340 -0.3367 -2.1363
  317MOL0     H43716   1.325   4.047   3.741  1.5060  1.1908 -0.6130
  317MOL0     H43717   1.321   4.154   3.603  1.4945  0.0741  1.1381
  317MOL0     H43718   1.162   3.901   3.608 -1.7966  2.2615 -0.5278
  317MOL0     H43719   1.226   3.987   3.469 -1.4962  1.2836  0.2063
  317MOL0     H43720   1.364   3.823   3.684 -2.2357  1.0849  0.9161
  317MOL0     H43721   1.466   3.928   3.592 -1.5076  1.6480  0.9854
  317MOL0     H43722   1.369   3.788   3.372  0.3350 -1.9747 -1.5089
  317MOL0     H43723   1.284   3.690   3.499  2.5505 -2.0185  2.6062
  317MOL0     H43724   1.453   3.566   3.454 -0.0595 -1.6889  1.7750
  317MOL0     H43725   1.529   3.639   3.588  3.4856 -0.6242 -1.4253
  317MOL0     H43726   0.817   4.338   3.971 -2.7832  0.0993 -4.0326
  317MOL0     H43727   0.652   4.461   4.091 -0.4054  0.4397 -0.2344
  317MOL0     H43728   0.454   4.721   4.334 -1.5910 -1.3950 -1.8176
  317MOL0     H43729   0.241   4.802   4.442 -2.3555  0.8178 -0.7986
  317MOL0     H43730   1.122   4.764   5.528 -1.2609 -1.4723 -3.7676
  317MOL0     H43731   1.360   4.762   5.598  2.7537 -1.6707  0.6749
  317MOL0     H43732   1.736   4.626   5.759 -0.8138 -0.3161  0.4111
  317MOL0     H43733   1.956   4.577   5.852 -3.2655 -1.1454  2.4398
  317MOL0     H43734   2.109   4.266   5.919 -0.7345 -0.2609 -0.6738
  317MOL0     H43735   2.193   4.217   5.767  1.8478  1.7210 -1.4626
  317MOL0     H43736   2.370   4.385   5.817  0.3425  0.9067  0.3353
  317MOL0     H43737   2.369   4.248   5.927 -0.8527 -1.2614  1.0999
  317MOL0     H43738   2.278   4.530   5.972 -0.6428  1.1392  1.6250
  317MOL0     H43739   2.211   4.391   6.072  1.5493 -2.9796  0.4692
  317MOL0     H43740   2.440   4.318   6.118 -1.6083  0.9134  1.5867
  317MOL0     H43741   2.412   4.483   6.178  0.9317 -1.7575  1.8508
  317MOL0     H43742   2.698   4.627   5.946  0.2596 -0.6656 -1.8947
  317MOL0     H43743   2.025   4.261   5.590  1.5563  1.8385 -0.0332
  317MOL0     H43744   1.685   4.218   5.456  0.0035 -1.0877 -0.1689
  317MOL0     H43745   1.816   4.289   5.356  2.7087 -1.4024  0.1670
  317MOL0     H43746   1.838   4.151   5.475  0.3226 -0.9383 -0.6180
  318MOL0     O43747   7.917   7.220   5.721 -0.7375  0.1431  0.2860
  318MOL0     C43748   8.021   7.259   5.768  0.6198 -0.5161  0.3192
  318MOL0     O43749   8.068   7.239   5.896  0.0761  0.0282  0.6816
  318MOL0     C43750   7.985   7.196   5.993  0.9120  0.9195 -0.0982
  318MOL0     C43751   8.044   7.157   6.108 -1.0151  0.0944 -0.2325
  318MOL0     C43752   7.967   7.112   6.216 -0.2986 -0.7840  1.0053
  318MOL0     C43753   7.834   7.109   6.217  0.6286 -0.6151  0.1388
  318MOL0     O43754   7.775   7.089   6.343  0.3181  0.0715 -0.2990
  318MOL0     C43755   7.630   7.107   6.348  0.3234 -0.4479  0.3446
  318MOL0     C43756   7.568   7.077   6.478  0.8652  0.6366 -0.8512
  318MOL0     C43757   7.559   6.934   6.495 -0.0952  0.1227  0.2154
  318MOL0     C43758   7.479   6.892   6.615  0.4431  0.6484 -0.1839
  318MOL0     C43759   7.444   6.743   6.592  0.1481 -0.0842  1.0380
  318MOL0     C43760   7.436   6.654   6.722 -0.0996 -0.0165  0.0542
  318MOL0     C43761   7.408   6.512   6.681 -1.1365  0.6903  1.0809
  318MOL0     C43762   7.417   6.418   6.803 -1.0957  0.2156 -0.3126
  318MOL0     N43763   7.534   6.464   6.896  0.1034  0.4294  0.3376
  318MOL0     C43764   7.664   6.412   6.909 -0.2502  0.5025  0.9012
  318MOL0     C43765   7.718   6.462   7.016 -0.3072 -0.5152 -0.3030
  318MOL0     C43766   7.861   6.473   7.034 -0.0865  0.8406 -0.2010
  318MOL0     C43767   7.961   6.370   6.985  0.2268 -0.4983 -0.2146
  318MOL0     C43768   8.095   6.397   7.046 -0.3445 -0.9513 -0.2630
  318MOL0     C43769   8.206   6.297   7.013  0.3510 -0.7015  0.1871
  318MOL0     O43770   8.194   6.264   6.875 -0.2601 -0.5226 -0.3492
  318MOL0     C43771   8.278   6.154   6.857  0.2397  0.0792  0.7289
  318MOL0     C43772   8.380   6.161   6.757  0.0934  0.6805  0.2201
  318MOL0     C43773   8.474   6.064   6.738 -0.4454  0.3817  0.5369
  318MOL0     C43774   8.585   6.091   6.626  0.1960 -0.0998  0.1337
  318MOL0     C43775   8.474   5.945   6.815  0.1557 -0.5475  0.1549
  318MOL0     C43776   8.571   5.827   6.799 -0.4928  0.9877 -0.3334
  318MOL0     O43777   8.553   5.729   6.896  0.0138  0.5635  0.0594
  318MOL0     C43778   8.659   5.651   6.929 -0.4294  0.7267  1.0654
  318MOL0     C43779   8.662   5.507   6.891 -0.6694  0.2019  0.2136
  318MOL0     C43780   8.780   5.434   6.923  0.1375  0.2412  0.2210
  318MOL0     C43781   8.886   5.498   6.992 -0.4480  0.0268  0.0025
  318MOL0     O43782   9.008   5.451   7.033 -0.1901  0.0639  0.7381
  318MOL0     C43783   9.040   5.330   6.970 -0.8063 -0.5905 -0.1265
  318MOL0     C43784   9.182   5.286   7.002  0.8007 -0.5582  0.1857
  318MOL0     C43785   9.280   5.370   6.917 -0.3801 -0.1674 -0.0848
  318MOL0     C43786   9.421   5.341   6.964 -0.1195 -0.9336  0.4943
  318MOL0     C43787   9.528   5.367   6.855 -0.1959 -0.1203 -0.3223
  318MOL0     C43788   9.668   5.383   6.914  0.1376  0.7434  0.6680
  318MOL0     C43789   9.765   5.433   6.818  0.9216  0.2914 -0.3484
  318MOL0     C43790   9.754   5.580   6.771 -0.6647  1.3596  0.0614
  318MOL0    Cl43791   9.786   5.702   6.905  0.2167 -0.4449  0.2826
  318MOL0     C43792   8.875   5.632   7.036 -0.8563 -0.2080 -0.5946
  318MOL0     C43793   8.762   5.706   7.007  0.0211  0.2081 -0.4613
  318MOL0     O43794   8.658   5.829   6.720  0.2221  0.0028  0.2933
  318MOL0     C43795   8.366   5.939   6.904 -0.4416  0.1022  0.3794
  318MOL0     C43796   8.268   6.033   6.929 -0.0737  0.0848  0.3954
  318MOL0     N43797   7.628   6.542   7.082  0.2320  0.2234 -0.5659
  318MOL0     N43798   7.521   6.535   7.016  0.3468  0.5300 -0.4354
  318MOL0     C43799   7.771   7.151   6.104 -1.0725  0.8620  0.0839
  318MOL0     C43800   7.845   7.190   5.993  0.2836  0.1258  0.4737
  318MOL0     C43801   8.110   7.324   5.687  0.5617 -0.6228  0.9170
  318MOL0     C43802   8.248   7.305   5.706 -0.0041 -0.1739  0.5895
  318MOL0     C43803   8.341   7.366   5.622 -0.0261  0.6354 -0.8503
  318MOL0     C43804   8.299   7.456   5.522  0.0713 -0.0164 -0.1966
  318MOL0     O43805   8.380   7.528   5.436  0.0698 -0.3780  0.4112
  318MOL0     C43806   8.520   7.507   5.444 -0.9277 -0.3803  0.6705
  318MOL0     C43807   8.595   7.598   5.350 -1.7472  0.2991 -0.2894
  318MOL0     C43808   8.552   7.618   5.207 -0.0513  0.1636 -0.0854
  318MOL0     C43809   8.532   7.488   5.127 -0.2420 -0.5781 -0.2955
  318MOL0     C43810   8.477   7.516   4.999  0.5344 -0.5184 -0.2512
  318MOL0     C43811   8.446   7.524   4.882  0.2807 -0.7118 -0.3957
  318MOL0     C43812   8.167   7.478   5.508 -0.3118 -0.0633  0.4751
  318MOL0     C43813   8.072   7.417   5.587  0.1140 -0.8902  0.0508
  318MOL0     C43814   7.930   7.472   5.581 -0.9072  0.4332 -0.7919
  318MOL0     H43815   8.151   7.173   6.120 -1.3580  2.7064  0.0170
  318MOL0     H43816   8.010   7.080   6.310  1.8580  0.0945  0.3707
  318MOL0     H43817   7.580   7.058   6.265 -0.4156 -0.5319  0.8256
  318MOL0     H43818   7.615   7.215   6.340 -1.8505 -0.6660  0.9975
  318MOL0     H43819   7.631   7.118   6.558 -0.8509  1.6910  0.0583
  318MOL0     H43820   7.470   7.125   6.489  1.4945  1.5092  1.9187
  318MOL0     H43821   7.507   6.886   6.411 -0.3677  1.1906 -0.2479
  318MOL0     H43822   7.659   6.890   6.499  0.7736  1.0109 -4.6901
  318MOL0     H43823   7.547   6.892   6.701  0.6746 -2.4580 -0.2532
  318MOL0     H43824   7.391   6.952   6.640 -1.4969 -2.8797  2.2757
  318MOL0     H43825   7.502   6.684   6.521 -2.3712 -0.5260 -0.7890
  318MOL0     H43826   7.348   6.750   6.539  0.5173 -1.9622  0.0154
  318MOL0     H43827   7.531   6.670   6.775  0.3916  2.8256 -1.5065
  318MOL0     H43828   7.352   6.697   6.777 -2.5255 -2.3890 -1.5264
  318MOL0     H43829   7.500   6.483   6.629  0.1437 -0.0196  3.5846
  318MOL0     H43830   7.315   6.506   6.623 -1.4164  1.5222  1.4355
  318MOL0     H43831   7.336   6.423   6.876 -0.0818 -3.3135  1.2426
  318MOL0     H43832   7.426   6.314   6.773  3.2640  0.3364 -0.1664
  318MOL0     H43833   7.716   6.358   6.831 -0.0856 -0.0192  1.3638
  318MOL0     H43834   7.884   6.482   7.141 -1.2603 -0.7906  0.2439
  318MOL0     H43835   7.893   6.567   6.988  1.0277 -0.1863 -1.6196
  318MOL0     H43836   7.924   6.272   7.018 -1.1747  0.2491  0.5192
  318MOL0     H43837   7.967   6.365   6.876  2.5761 -2.0880 -0.0915
  318MOL0     H43838   8.126   6.496   7.013 -3.7675  0.0135 -1.0026
  318MOL0     H43839   8.087   6.388   7.155 -0.3712 -3.2993 -0.4059
  318MOL0     H43840   8.293   6.353   7.046  0.0317  1.0353 -1.7374
  318MOL0     H43841   8.194   6.216   7.086 -0.4384 -0.9776 -0.2329
  318MOL0     H43842   8.379   6.257   6.707 -3.3324 -0.5397 -2.4882
  318MOL0     H43843   8.573   6.014   6.549  0.0413 -0.8818  0.9177
  318MOL0     H43844   8.684   6.071   6.668 -0.3387 -2.4273  0.4180
  318MOL0     H43845   8.588   6.192   6.586  0.1301  0.0964  0.6125
  318MOL0     H43846   8.579   5.475   6.829 -0.6185  1.9793 -0.8379
  318MOL0     H43847   8.790   5.330   6.894 -0.8231  0.7505 -2.1517
  318MOL0     H43848   8.975   5.247   7.000  0.6736 -2.6046 -2.1098
  318MOL0     H43849   9.025   5.342   6.862 -2.1948 -0.6479  0.0421
  318MOL0     H43850   9.193   5.314   7.107 -1.4293  2.8084 -0.3363
  318MOL0     H43851   9.206   5.182   6.976  0.7898 -0.2563 -1.1038
  318MOL0     H43852   9.264   5.475   6.943 -1.9069 -0.9622  2.5485
  318MOL0     H43853   9.267   5.360   6.809  2.5236  1.0294 -0.6504
  318MOL0     H43854   9.425   5.236   6.995 -2.2279 -1.1746  0.0824
  318MOL0     H43855   9.442   5.407   7.048  1.8557 -0.4550 -0.3171
  318MOL0     H43856   9.528   5.282   6.786  2.7667 -0.1383 -0.4117
  318MOL0     H43857   9.511   5.461   6.801 -0.2337 -0.7265 -1.4071
  318MOL0     H43858   9.697   5.283   6.947 -0.1944  0.4580  0.0961
  318MOL0     H43859   9.666   5.444   7.005 -0.6716  0.7163  0.6774
  318MOL0     H43860   9.769   5.361   6.736 -0.7451 -1.4954  1.0478
  318MOL0     H43861   9.864   5.415   6.863  0.8655  3.2530  1.2542
  318MOL0     H43862   9.652   5.601   6.736 -0.3288  1.3191 -0.9533
  318MOL0     H43863   9.829   5.581   6.692 -1.8146 -0.2306 -1.1315
  318MOL0     H43864   8.953   5.684   7.090 -0.2932 -1.3228 -0.3245
  318MOL0     H43865   8.748   5.802   7.057  1.9418  0.0058  0.5593
  318MOL0     H43866   8.349   5.846   6.958  0.7818 -0.0779  0.4771
  318MOL0     H43867   8.175   6.020   6.983  0.7856 -1.9640  1.4719
  318MOL0     H43868   7.664   7.163   6.092 -0.8252  1.7005 -1.6684
  318MOL0     H43869   7.784   7.211   5.906  0.5812  0.2823  0.3008
  318MOL0     H43870   8.296   7.245   5.782  0.0261  0.7426  1.3224
  318MOL0     H43871   8.447   7.344   5.614 -0.0483  0.8312 -1.8372
  318MOL0     H43872   8.548   7.542   5.544  0.4886 -0.3641  0.2830
  318MOL0     H43873   8.549   7.404   5.421  2.5677  0.8045 -0.8606
  318MOL0     H43874   8.692   7.547   5.356 -3.1536 -2.3384  2.0133
  318MOL0     H43875   8.612   7.693   5.401  2.0829 -0.9240  1.0656
  318MOL0     H43876   8.458   7.674   5.206 -1.2097 -1.6774 -1.1023
  318MOL0     H43877   8.635   7.663   5.152 -1.0707 -1.4981 -3.2194
  318MOL0     H43878   8.474   7.416   5.186  1.1393  1.3136  3.7831
  318MOL0     H43879   8.632   7.447   5.109 -0.7787 -0.7412 -3.2725
  318MOL0     H43880   8.435   7.541   4.777 -0.8734 -1.3691 -0.4008
  318MOL0     H43881   8.136   7.546   5.429 -1.8789 -0.9885  0.2520
  318MOL0     H43882   7.936   7.573   5.541  1.7644  0.2006 -1.1454
  318MOL0     H43883   7.860   7.413   5.520 -1.7456 -2.0960  2.2919
  318MOL0     H43884   7.880   7.489   5.677 -3.2479 -1.2538 -1.6062
  319MOL0     O43885   3.502  10.798   0.777 -0.0129  0.5594 -0.0931
  319MOL0     C43886   3.569  10.742   0.861 -0.0006  0.1140 -1.1551
  319MOL0     O43887   3.701  10.765   0.897 -0.4212 -0.6384 -0.8066
  319MOL0     C43888   3.775  10.811   0.795 -0.6342 -0.3962  0.5265
  319MOL0     C43889   3.782  10.749   0.670  1.0139 -0.2612  0.2913
  319MOL0     C43890   3.864  10.800   0.575 -0.0279 -0.3871  0.7623
  319MOL0     C43891   3.937  10.919   0.598 -0.3313  0.0589 -0.3726
  319MOL0     O43892   4.014  10.976   0.500  0.7806 -0.3054 -0.4717
  319MOL0     C43893   3.983  10.945   0.362  0.6395  0.3256 -0.3829
  319MOL0     C43894   3.842  10.996   0.328 -0.3222  0.5410 -0.7796
  319MOL0     C43895   3.831  11.026   0.185 -1.2418 -0.4779  0.0730
  319MOL0     C43896   3.692  11.090   0.151 -0.2776  0.2419  0.0703
  319MOL0     C43897   3.652  11.038   0.006 -0.2442 -0.7199 -0.7222
  319MOL0     C43898   3.752  11.091  -0.099 -0.2151 -1.1573 -0.5685
  319MOL0     C43899   3.782  11.240  -0.099 -0.1430 -1.2505  0.5823
  319MOL0     C43900   3.897  11.288  -0.196  0.8518 -0.0790 -0.2049
  319MOL0     N43901   3.911  11.442  -0.204 -0.3920 -0.1230  0.2671
  319MOL0     C43902   4.036  11.498  -0.235  0.6594 -0.1562 -0.6148
  319MOL0     C43903   4.035  11.622  -0.190  0.2326 -0.6088  0.0560
  319MOL0     C43904   4.139  11.717  -0.235 -0.7710 -0.4439  0.2258
  319MOL0     C43905   4.272  11.717  -0.159  0.0172 -0.4530 -0.5780
  319MOL0     C43906   4.253  11.749  -0.004  0.9111 -0.1960  0.8455
  319MOL0     C43907   4.380  11.764   0.070  0.0557 -0.5328  0.4902
  319MOL0     O43908   4.441  11.884   0.040  0.0392  0.0142 -1.2707
  319MOL0     C43909   4.552  11.917   0.109 -0.1374 -0.0745  0.0377
  319MOL0     C43910   4.612  12.028   0.047 -0.1847  0.8701  0.3248
  319MOL0     C43911   4.731  12.071   0.089  0.2377  0.0071 -0.0971
  319MOL0     C43912   4.782  12.211   0.035 -0.3134  0.8139  1.2267
  319MOL0     C43913   4.804  11.992   0.188 -0.4956 -0.3854  0.1604
  319MOL0     C43914   4.936  12.039   0.237 -1.3897 -0.4959 -1.0749
  319MOL0     O43915   4.985  11.985   0.353 -0.1735  0.4791 -0.5805
  319MOL0     C43916   5.122  11.995   0.380 -0.6932 -0.4443 -0.3390
  319MOL0     C43917   5.206  11.931   0.282 -1.1158 -0.2142 -0.0213
  319MOL0     C43918   5.343  11.912   0.313  0.0236  0.2787  0.2098
  319MOL0     C43919   5.394  11.985   0.430 -0.4737 -0.2371  0.1167
  319MOL0     O43920   5.526  11.980   0.460 -0.2699  0.2687 -0.5797
  319MOL0     C43921   5.626  11.952   0.355  0.6449  0.4252  0.0059
  319MOL0     C43922   5.756  11.990   0.424  1.1112 -0.3063  0.3763
  319MOL0     C43923   5.876  12.000   0.323 -0.5983 -0.6770  0.3511
  319MOL0     C43924   5.858  12.129   0.249 -0.3710 -0.0355 -0.1317
  319MOL0     C43925   5.972  12.159   0.154 -0.1381  0.4869  0.0332
  319MOL0     C43926   5.971  12.309   0.113 -0.2950 -0.1147 -0.0642
  319MOL0     C43927   5.835  12.370   0.071 -0.1475  0.2090 -0.0761
  319MOL0     C43928   5.852  12.508  -0.003  0.5666  0.0457  0.2717
  319MOL0    Cl43929   5.692  12.580  -0.009 -0.3014 -0.0018 -0.1884
  319MOL0     C43930   5.306  12.041   0.525 -0.1487 -0.0069 -0.2817
  319MOL0     C43931   5.173  12.050   0.500 -0.3273 -0.4448  0.2050
  319MOL0     O43932   4.997  12.120   0.170 -0.3631  0.4353 -0.2229
  319MOL0     C43933   4.739  11.883   0.247 -0.0181  0.7465 -0.3144
  319MOL0     C43934   4.611  11.847   0.215  0.3979 -0.9224 -1.0329
  319MOL0     N43935   3.906  11.647  -0.141 -0.1818 -0.5586  0.6851
  319MOL0     N43936   3.837  11.536  -0.143  0.9209 -0.9846  0.7013
  319MOL0     C43937   3.927  10.983   0.719 -0.6480 -0.5056 -0.0635
  319MOL0     C43938   3.852  10.928   0.822  1.0160 -0.1899  0.5918
  319MOL0     C43939   3.493  10.650   0.956  0.4124  0.4423  0.3260
  319MOL0     C43940   3.536  10.650   1.092 -0.1070  0.3807  0.4514
  319MOL0     C43941   3.489  10.557   1.183  0.6386  0.0753  0.3326
  319MOL0     C43942   3.388  10.468   1.147 -0.6562 -0.7966 -1.0368
  319MOL0     O43943   3.351  10.381   1.252 -0.2379  0.4092  1.2103
  319MOL0     C43944   3.240  10.293   1.221 -0.3222 -0.2371 -0.3824
  319MOL0     C43945   3.100  10.368   1.229  0.0278  0.3243  0.0803
  319MOL0     C43946   2.994  10.259   1.234  0.8812 -0.4886 -1.1910
  319MOL0     C43947   2.854  10.316   1.264 -0.2655  0.4097  0.4444
  319MOL0     C43948   2.757  10.209   1.246  0.2838  0.0619  0.1331
  319MOL0     C43949   2.659  10.131   1.234  0.6172  0.1119 -0.8066
  319MOL0     C43950   3.334  10.479   1.017 -1.0835  0.1997 -0.2636
  319MOL0     C43951   3.390  10.568   0.918 -0.7330  0.9248 -0.3675
  319MOL0     C43952   3.324  10.550   0.782 -0.1879  0.5555 -0.3576
  319MOL0     H43953   3.728  10.656   0.657 -1.4628  0.9376  1.3348
  319MOL0     H43954   3.890  10.728   0.498  3.9534  1.2955  0.2685
  319MOL0     H43955   3.987  10.836   0.353 -3.3247  0.0535 -0.9766
  319MOL0     H43956   4.065  10.976   0.296  0.5561  0.8099 -0.2624
  319MOL0     H43957   3.763  10.934   0.371  0.8076  1.4203  2.9833
  319MOL0     H43958   3.846  11.090   0.384  0.1468 -1.4410  2.8373
  319MOL0     H43959   3.912  11.097   0.165  1.2981 -3.3532 -0.6296
  319MOL0     H43960   3.858  10.934   0.132  1.3781 -0.1351  0.6446
  319MOL0     H43961   3.621  11.056   0.227  1.3991 -0.0278  1.5840
  319MOL0     H43962   3.693  11.199   0.156  0.0764  0.3375 -1.5292
  319MOL0     H43963   3.553  11.079  -0.014  0.9455  2.8732  0.0870
  319MOL0     H43964   3.652  10.929   0.008  0.1723 -0.7060  0.7329
  319MOL0     H43965   3.849  11.045  -0.076  0.9939  2.2426  2.0248
  319MOL0     H43966   3.715  11.057  -0.196  0.3649 -2.2357 -0.4250
  319MOL0     H43967   3.808  11.279   0.000  2.5968 -1.1052 -0.1069
  319MOL0     H43968   3.699  11.294  -0.145  1.7239  0.3235 -1.1472
  319MOL0     H43969   3.995  11.250  -0.163  0.9516  1.2033  1.0889
  319MOL0     H43970   3.877  11.247  -0.295  2.0600 -0.8895 -0.1340
  319MOL0     H43971   4.110  11.444  -0.293 -1.7237 -3.6173 -0.7082
  319MOL0     H43972   4.099  11.818  -0.220  1.4621  0.6844 -0.9367
  319MOL0     H43973   4.170  11.698  -0.338 -1.3490 -4.4133  0.6286
  319MOL0     H43974   4.315  11.617  -0.165 -0.7946 -1.1410  2.9927
  319MOL0     H43975   4.332  11.796  -0.205  0.9988 -0.5367  0.5177
  319MOL0     H43976   4.189  11.836   0.008  0.6338  0.1939 -2.6208
  319MOL0     H43977   4.192  11.674   0.048 -2.4088 -1.0472 -3.7059
  319MOL0     H43978   4.348  11.752   0.174  0.2215 -1.4478  0.4477
  319MOL0     H43979   4.451  11.687   0.039 -0.6449 -0.4002 -1.5882
  319MOL0     H43980   4.559  12.066  -0.040 -2.9854 -2.0922  0.5095
  319MOL0     H43981   4.717  12.247  -0.045  0.9802  0.5929  0.0433
  319MOL0     H43982   4.878  12.207  -0.017  0.0738  4.4638  1.3922
  319MOL0     H43983   4.786  12.287   0.113 -1.1332 -0.3611  2.4604
  319MOL0     H43984   5.162  11.906   0.186  0.5271  0.8909 -1.1112
  319MOL0     H43985   5.401  11.852   0.244 -0.1317 -0.7723  0.9639
  319MOL0     H43986   5.628  11.845   0.330 -1.6782  0.5633 -1.0057
  319MOL0     H43987   5.610  12.020   0.270 -2.6687 -0.1437  0.0690
  319MOL0     H43988   5.749  12.089   0.470 -1.2964  1.5029 -3.3309
  319MOL0     H43989   5.777  11.908   0.493  1.9275 -0.3701  0.0633
  319MOL0     H43990   5.880  11.912   0.257 -1.4342 -1.2559  1.0541
  319MOL0     H43991   5.970  12.007   0.379 -1.2766 -0.5354  1.4968
  319MOL0     H43992   5.845  12.215   0.315  0.7879  0.9504 -1.1440
  319MOL0     H43993   5.765  12.129   0.191 -0.9421  2.0509  0.7093
  319MOL0     H43994   6.066  12.132   0.203 -0.4039 -0.8563 -0.1595
  319MOL0     H43995   5.956  12.095   0.067  1.4924 -0.0522  0.0987
  319MOL0     H43996   6.036  12.330   0.027 -1.8741 -1.4560 -1.6786
  319MOL0     H43997   6.008  12.367   0.198  1.1759  1.5553 -1.7576
  319MOL0     H43998   5.777  12.392   0.161  0.2839  1.0281  0.0152
  319MOL0     H43999   5.772  12.293   0.025  1.2540 -0.2772 -1.2807
  319MOL0     H44000   5.884  12.474  -0.102 -1.1456 -0.4799 -0.1232
  319MOL0     H44001   5.928  12.572   0.044  1.3439 -0.8098  0.2274
  319MOL0     H44002   5.345  12.076   0.620 -1.8548 -1.7777  1.1540
  319MOL0     H44003   5.100  12.096   0.564 -1.2166 -1.6211  0.0724
  319MOL0     H44004   4.781  11.822   0.327  0.7095 -1.0786 -1.9949
  319MOL0     H44005   4.553  11.769   0.262  2.1749 -0.9066  1.3431
  319MOL0     H44006   3.982  11.074   0.741 -0.4332  0.1675 -2.9868
  319MOL0     H44007   3.830  10.983   0.914 -0.6436  1.2249 -0.5876
  319MOL0     H44008   3.608  10.725   1.125  1.9418 -0.8225 -1.0803
  319MOL0     H44009   3.526  10.564   1.285  3.1985 -0.2440 -0.4778
  319MOL0     H44010   3.262  10.230   1.134  0.2925  0.2079 -0.5598
  319MOL0     H44011   3.232  10.221   1.302 -2.5669 -0.5297 -0.7889
  319MOL0     H44012   3.088  10.437   1.145 -1.5182 -0.0509 -0.0422
  319MOL0     H44013   3.112  10.419   1.325  1.2106  1.0920 -0.4512
  319MOL0     H44014   2.992  10.207   1.138  1.1046  0.7815 -1.9155
  319MOL0     H44015   3.021  10.198   1.321 -0.2486  2.6144  1.5763
  319MOL0     H44016   2.839  10.402   1.198  2.5643  1.8816  1.5663
  319MOL0     H44017   2.834  10.351   1.365 -1.1842 -0.5269  0.6021
  319MOL0     H44018   2.574  10.065   1.239  1.3877 -0.8711  3.8547
  319MOL0     H44019   3.252  10.416   0.984 -1.7577  1.5931 -1.3486
  319MOL0     H44020   3.391  10.484   0.725 -0.8098 -0.6378  0.2512
  319MOL0     H44021   3.222  10.512   0.794  0.1298  0.1886  1.5863
  319MOL0     H44022   3.318  10.649   0.736 -1.0453  1.1711  1.0110
  320MOL0     O44023   0.216   1.933   3.228  0.9197  0.3118 -0.2463
  320MOL0     C44024   0.254   1.832   3.265 -0.6215 -0.3992 -0.5423
  320MOL0     O44025   0.359   1.800   3.348 -1.2907 -0.4267 -0.6781
  320MOL0     C44026   0.414   1.903   3.418 -0.1540 -0.0898 -0.3915
  320MOL0     C44027   0.540   1.955   3.381  0.0554 -0.9766 -0.0134
  320MOL0     C44028   0.590   2.074   3.438  0.6457 -0.3075  0.9025
  320MOL0     C44029   0.522   2.139   3.538 -0.0044 -0.3785  0.0809
  320MOL0     O44030   0.570   2.245   3.613  0.0163 -0.1579  0.4379
  320MOL0     C44031   0.700   2.296   3.580 -0.7742 -0.3868 -0.2776
  320MOL0     C44032   0.730   2.417   3.668 -0.5440  0.1160 -0.4531
  320MOL0     C44033   0.813   2.526   3.603 -1.3366  0.3119 -0.3499
  320MOL0     C44034   0.952   2.479   3.554  0.1920  0.2759 -0.7593
  320MOL0     C44035   0.981   2.524   3.408  0.2081  0.2213  0.5784
  320MOL0     C44036   1.140   2.499   3.395 -0.1259 -0.1823 -0.2939
  320MOL0     C44037   1.174   2.458   3.254 -0.5823 -0.2122 -0.5163
  320MOL0     C44038   1.143   2.570   3.143 -0.6360  0.2512  0.0875
  320MOL0     N44039   1.190   2.536   3.007  0.2911 -0.0228  0.5219
  320MOL0     C44040   1.160   2.428   2.920  0.1978  0.0753 -1.0256
  320MOL0     C44041   1.233   2.444   2.811 -0.7899  0.2224 -0.0812
  320MOL0     C44042   1.228   2.333   2.704 -0.8190 -0.0362 -0.2048
  320MOL0     C44043   1.351   2.237   2.719  0.3315  0.3007 -0.5753
  320MOL0     C44044   1.490   2.314   2.714 -0.0940 -0.5456  0.3719
  320MOL0     C44045   1.602   2.220   2.660  0.3376 -0.0794 -0.2085
  320MOL0     O44046   1.735   2.269   2.638  0.2832  0.4323  0.6247
  320MOL0     C44047   1.829   2.192   2.566  0.3713  0.0247  0.3995
  320MOL0     C44048   1.823   2.052   2.567  0.4567 -1.0334 -0.2358
  320MOL0     C44049   1.919   1.962   2.511 -0.7654  0.2226 -0.2762
  320MOL0     C44050   1.893   1.812   2.528 -0.7110  0.2244 -0.3054
  320MOL0     C44051   2.035   2.018   2.455 -0.8239  1.6145 -0.0514
  320MOL0     C44052   2.149   1.928   2.402  0.5366 -0.8469  0.3260
  320MOL0     O44053   2.113   1.823   2.323 -0.6560  0.3074 -0.1650
  320MOL0     C44054   2.219   1.738   2.292  0.6567  0.4007  1.1012
  320MOL0     C44055   2.325   1.768   2.202 -1.2873 -0.2874  0.3005
  320MOL0     C44056   2.421   1.681   2.171 -0.5409 -0.6508 -0.6481
  320MOL0     C44057   2.429   1.551   2.234  0.5788 -0.3541 -0.3761
  320MOL0     O44058   2.523   1.450   2.216 -0.3579  0.9205 -0.3110
  320MOL0     C44059   2.634   1.472   2.126 -0.4468 -0.6468  0.2197
  320MOL0     C44060   2.629   1.354   2.033  0.5200  0.1262 -0.7037
  320MOL0     C44061   2.628   1.213   2.115  0.4675 -0.0288  0.5322
  320MOL0     C44062   2.575   1.110   2.016  0.5277 -0.3091 -0.1694
  320MOL0     C44063   2.602   0.964   2.058  0.4456 -0.6190 -0.5655
  320MOL0     C44064   2.526   0.930   2.184  0.1236  0.2658  0.4666
  320MOL0     C44065   2.540   0.780   2.225  0.7698  0.0780 -0.2013
  320MOL0     C44066   2.691   0.741   2.240  1.4108  0.5456  0.6759
  320MOL0    Cl44067   2.785   0.834   2.375  0.0680 -0.0070  0.4325
  320MOL0     C44068   2.328   1.520   2.328  0.0557  0.0864  0.0381
  320MOL0     C44069   2.216   1.607   2.350 -0.1816 -1.2405  0.4228
  320MOL0     O44070   2.266   1.967   2.424  0.1582  0.5864  0.5528
  320MOL0     C44071   2.040   2.162   2.457  0.6701  0.1970  0.2210
  320MOL0     C44072   1.946   2.239   2.516 -0.1994 -0.3749 -0.7164
  320MOL0     N44073   1.290   2.568   2.817 -0.2912  0.9097  0.4252
  320MOL0     N44074   1.280   2.617   2.935  0.6481 -0.4613 -0.3291
  320MOL0     C44075   0.397   2.086   3.579  0.1510  0.4064 -0.5589
  320MOL0     C44076   0.342   1.967   3.518 -0.0924  0.2396  0.5412
  320MOL0     C44077   0.211   1.712   3.186 -0.2321 -0.8531  0.0473
  320MOL0     C44078   0.272   1.708   3.060  0.3014  0.7407 -0.4836
  320MOL0     C44079   0.252   1.593   2.977 -0.0106  0.0983 -0.1466
  320MOL0     C44080   0.174   1.485   3.012 -0.4862  0.2924  0.7181
  320MOL0     O44081   0.175   1.386   2.919 -0.0223  0.6157 -0.5493
  320MOL0     C44082   0.078   1.287   2.950 -0.0969 -0.0804  1.0007
  320MOL0     C44083   0.069   1.183   2.842  0.1689  0.6098 -0.1662
  320MOL0     C44084   0.201   1.116   2.809 -0.3652 -0.1488  0.0782
  320MOL0     C44085   0.179   0.999   2.713 -0.1274 -0.3475  0.2360
  320MOL0     C44086   0.131   1.048   2.583  0.4554 -0.2084  0.3906
  320MOL0     C44087   0.081   1.090   2.476  0.2993  0.6816  0.6337
  320MOL0     C44088   0.106   1.499   3.135 -0.7579  0.2581  0.4702
  320MOL0     C44089   0.127   1.609   3.226 -0.0014 -0.5440  0.1654
  320MOL0     C44090   0.066   1.602   3.367  0.3184 -0.1835  0.7676
  320MOL0     H44091   0.600   1.908   3.303 -0.2028  0.5715 -1.1785
  320MOL0     H44092   0.686   2.104   3.399  0.3883  0.4764  0.8517
  320MOL0     H44093   0.701   2.333   3.477 -0.9906 -1.0661 -0.5287
  320MOL0     H44094   0.775   2.217   3.588  0.1805  0.2728 -2.1432
  320MOL0     H44095   0.639   2.474   3.688  0.5670  1.2373  1.8517
  320MOL0     H44096   0.777   2.384   3.762 -0.0353  0.8117 -0.4601
  320MOL0     H44097   0.761   2.569   3.518  1.8893  1.3795 -1.9545
  320MOL0     H44098   0.827   2.606   3.677 -2.5858 -1.0264  1.4192
  320MOL0     H44099   1.036   2.509   3.618  1.0262 -4.0953  0.5154
  320MOL0     H44100   0.955   2.371   3.567 -2.0332  0.3800  1.1016
  320MOL0     H44101   0.959   2.629   3.388 -1.5559 -0.1135  0.6703
  320MOL0     H44102   0.927   2.458   3.340  2.6720  0.0155 -1.3518
  320MOL0     H44103   1.193   2.590   3.425  2.3775 -1.6468  0.0260
  320MOL0     H44104   1.162   2.419   3.467  2.6700  0.2531 -0.5341
  320MOL0     H44105   1.117   2.372   3.216  0.6039 -0.3120 -2.1903
  320MOL0     H44106   1.281   2.438   3.247 -1.1134 -2.9889 -2.0968
  320MOL0     H44107   1.037   2.596   3.136 -1.3395 -2.3272  0.5330
  320MOL0     H44108   1.184   2.669   3.168 -2.2314  0.6642  1.2151
  320MOL0     H44109   1.092   2.348   2.947  2.6222 -1.8863 -0.2912
  320MOL0     H44110   1.229   2.362   2.598  3.0820  0.8633 -0.0712
  320MOL0     H44111   1.135   2.277   2.713 -1.6066  1.1429 -0.7757
  320MOL0     H44112   1.338   2.191   2.817  1.5008  0.2469 -0.4294
  320MOL0     H44113   1.340   2.157   2.645  0.1996 -0.7874  0.6000
  320MOL0     H44114   1.475   2.398   2.646 -1.9864 -1.5103 -0.4963
  320MOL0     H44115   1.518   2.348   2.814  1.6299 -1.3789  0.1915
  320MOL0     H44116   1.603   2.139   2.734 -2.1143 -0.4200 -0.4640
  320MOL0     H44117   1.550   2.186   2.570 -1.0760 -1.3968  1.0564
  320MOL0     H44118   1.740   2.008   2.623  1.1500 -2.0904  0.0038
  320MOL0     H44119   1.822   1.794   2.609 -0.4491  1.6070  0.2487
  320MOL0     H44120   1.980   1.755   2.564 -0.4419 -0.7676 -2.3671
  320MOL0     H44121   1.868   1.768   2.431  1.3568 -2.7006  0.3171
  320MOL0     H44122   2.326   1.864   2.151 -1.0603 -0.2078  0.4555
  320MOL0     H44123   2.504   1.704   2.105 -0.6843 -0.9679 -0.9410
  320MOL0     H44124   2.641   1.564   2.067 -0.2554 -0.6320  0.2629
  320MOL0     H44125   2.728   1.457   2.180  0.1337 -2.0839 -1.1009
  320MOL0     H44126   2.537   1.360   1.975  0.1688 -0.2771 -0.1941
  320MOL0     H44127   2.711   1.351   1.961  1.7046  0.6730  0.5583
  320MOL0     H44128   2.546   1.217   2.187  0.0533  1.2774  0.0173
  320MOL0     H44129   2.718   1.198   2.175 -1.4372  1.9129  4.1876
  320MOL0     H44130   2.618   1.106   1.915 -0.4906 -0.0896 -0.6371
  320MOL0     H44131   2.467   1.122   2.002  0.7933  1.5749 -0.9743
  320MOL0     H44132   2.581   0.894   1.976 -0.6806 -1.7548  0.6359
  320MOL0     H44133   2.711   0.962   2.071  0.3522  0.7340  0.6001
  320MOL0     H44134   2.418   0.942   2.183  0.0324 -0.5242 -0.3368
  320MOL0     H44135   2.573   0.989   2.263 -1.4120 -0.2364  1.7938
  320MOL0     H44136   2.514   0.709   2.147  1.9600 -1.8919  1.1084
  320MOL0     H44137   2.475   0.768   2.312  2.8682  0.0332  1.4477
  320MOL0     H44138   2.745   0.759   2.147  1.2555  0.2057  0.5184
  320MOL0     H44139   2.695   0.634   2.263  0.8693  0.6527  1.3054
  320MOL0     H44140   2.326   1.423   2.377  0.3527 -0.7686 -1.6005
  320MOL0     H44141   2.129   1.579   2.407  1.4096  0.0230  3.7419
  320MOL0     H44142   2.129   2.210   2.417 -0.4519  1.9196 -0.2861
  320MOL0     H44143   1.963   2.346   2.525  3.6857 -1.0351  3.1169
  320MOL0     H44144   0.359   2.143   3.663  0.8306  0.0572 -0.0013
  320MOL0     H44145   0.246   1.922   3.540  1.3184 -2.9921  0.6565
  320MOL0     H44146   0.340   1.786   3.025 -0.2991  1.5262  0.0498
  320MOL0     H44147   0.306   1.586   2.883  0.7656 -2.7060  0.4126
  320MOL0     H44148   0.096   1.232   3.042  2.6965  0.1230  0.6383
  320MOL0     H44149  -0.015   1.345   2.942  0.8686  1.4269  0.1358
  320MOL0     H44150   0.032   1.229   2.750 -1.7182 -0.1005  0.1946
  320MOL0     H44151   0.004   1.108   2.887 -1.7359  2.6689  0.6729
  320MOL0     H44152   0.257   1.192   2.753 -3.6634  3.0417  0.7655
  320MOL0     H44153   0.264   1.091   2.896  2.3195  2.9056 -0.7745
  320MOL0     H44154   0.104   0.929   2.751 -2.1575  0.5722 -1.8873
  320MOL0     H44155   0.278   0.952   2.714  1.7287  3.1614  2.7092
  320MOL0     H44156   0.037   1.111   2.381  0.1382 -2.6630 -0.1371
  320MOL0     H44157   0.023   1.442   3.175 -0.1609  1.3639  3.6185
  320MOL0     H44158   0.036   1.701   3.402  2.8647  0.9010  0.1409
  320MOL0     H44159  -0.009   1.524   3.375  0.4741 -0.3714  0.4336
  320MOL0     H44160   0.150   1.575   3.432 -1.2462 -0.3887  2.8168
  321MOL0     O44161  10.815   5.756   9.832  0.4732 -0.2807 -0.0166
  321MOL0     C44162  10.723   5.742   9.755 -0.4026  0.8144  1.7504
  321MOL0     O44163  10.727   5.657   9.646  0.0105  0.1340 -0.0935
  321MOL0     C44164  10.843   5.596   9.599 -0.7988 -0.2032  1.0386
  321MOL0     C44165  10.916   5.497   9.675 -0.0803 -0.1901 -0.1957
  321MOL0     C44166  11.007   5.408   9.610  0.6247 -0.6537  0.1294
  321MOL0     C44167  11.036   5.433   9.472 -0.2152 -0.1720 -0.3927
  321MOL0     O44168  11.135   5.357   9.408  0.4072  0.5893 -0.5989
  321MOL0     C44169  11.207   5.249   9.481 -0.7382  0.7530  0.3671
  321MOL0     C44170  11.319   5.301   9.567 -0.4795 -0.3033  0.0566
  321MOL0     C44171  11.441   5.360   9.491 -0.3337  0.7340  0.8846
  321MOL0     C44172  11.409   5.506   9.425 -0.4804 -0.4929  0.1344
  321MOL0     C44173  11.493   5.553   9.301  0.0883 -0.2385  1.4356
  321MOL0     C44174  11.445   5.688   9.246 -0.3602 -0.5356  0.0262
  321MOL0     C44175  11.317   5.677   9.161  0.1018  0.7377 -0.7044
  321MOL0     C44176  11.277   5.808   9.101  0.1969  0.0273 -0.3075
  321MOL0     N44177  11.242   5.909   9.202  0.6184 -0.5364 -0.3366
  321MOL0     C44178  11.148   5.885   9.299  0.1552 -0.3952 -0.4564
  321MOL0     C44179  11.181   5.976   9.394 -0.1807 -0.0417 -0.8728
  321MOL0     C44180  11.106   6.001   9.530  0.5858  0.5871 -0.3552
  321MOL0     C44181  11.164   5.898   9.632  0.6346  0.5876 -0.8673
  321MOL0     C44182  11.090   5.909   9.763  0.0637  1.2124  0.7099
  321MOL0     C44183  11.110   5.785   9.844 -0.0518  0.2458 -0.8642
  321MOL0     O44184  11.242   5.779   9.905 -0.1330  0.3462  0.7039
  321MOL0     C44185  11.279   5.880   9.993 -0.3103  0.6988 -0.2331
  321MOL0     C44186  11.367   5.983   9.953 -0.1128  0.7184  0.1176
  321MOL0     C44187  11.399   6.092  10.040 -0.6150 -0.3090  0.2411
  321MOL0     C44188  11.486   6.198   9.978  0.2321 -0.2573 -0.0147
  321MOL0     C44189  11.342   6.106  10.167  0.6883  0.3836  0.0321
  321MOL0     C44190  11.359   6.215  10.260 -0.2887 -0.8851 -0.0547
  321MOL0     O44191  11.277   6.229  10.376  0.3674 -0.5203 -1.3419
  321MOL0     C44192  11.286   6.345  10.457  0.2633  0.1318  0.7538
  321MOL0     C44193  11.248   6.324  10.592  0.4279  0.8289  0.1535
  321MOL0     C44194  11.256   6.422  10.691 -0.0407  0.1993  0.3056
  321MOL0     C44195  11.303   6.552  10.652  0.7193 -0.1409  0.7850
  321MOL0     O44196  11.301   6.654  10.750  0.0606 -0.0342  0.9661
  321MOL0     C44197  11.250   6.783  10.706 -0.4057  0.6742  0.4218
  321MOL0     C44198  11.225   6.875  10.828  0.2653 -0.0414  1.1148
  321MOL0     C44199  11.174   7.013  10.777 -0.1170 -0.5540 -0.1954
  321MOL0     C44200  11.167   7.119  10.897  0.2239  0.1935  0.0286
  321MOL0     C44201  11.029   7.118  10.966 -1.2803 -0.0721  0.7254
  321MOL0     C44202  11.012   7.249  11.045  0.1981  0.0659  0.3550
  321MOL0     C44203  10.873   7.263  11.110 -0.2992 -0.2086 -0.5286
  321MOL0     C44204  10.861   7.373  11.212  0.4245 -0.3903  0.0651
  321MOL0    Cl44205  10.986   7.371  11.343 -0.1791 -0.0248 -0.1705
  321MOL0     C44206  11.349   6.572  10.521 -0.4357  0.0066  0.0292
  321MOL0     C44207  11.335   6.473  10.413 -0.1127 -0.1246 -0.6561
  321MOL0     O44208  11.447   6.290  10.225  0.4734  0.1907 -0.6151
  321MOL0     C44209  11.252   6.003  10.204 -0.0031  0.1708 -0.8083
  321MOL0     C44210  11.230   5.894  10.121  1.1992  0.7581  0.0887
  321MOL0     N44211  11.286   6.053   9.346  0.0022  0.4726  0.0163
  321MOL0     N44212  11.324   6.013   9.234  0.0041  0.0976  0.3752
  321MOL0     C44213  10.970   5.531   9.397  0.0507  0.2102 -0.4141
  321MOL0     C44214  10.869   5.608   9.461 -0.4462 -0.0709 -0.4826
  321MOL0     C44215  10.600   5.820   9.778  0.6570 -0.4089 -0.0952
  321MOL0     C44216  10.497   5.801   9.682  0.3978 -1.2861 -0.4581
  321MOL0     C44217  10.381   5.878   9.694  0.3885 -0.0770  0.5271
  321MOL0     C44218  10.372   5.981   9.794 -0.2760  0.4723  0.1328
  321MOL0     O44219  10.263   6.047   9.830  0.2144 -0.5098  0.4381
  321MOL0     C44220  10.181   6.100   9.732  1.2113 -0.1891  0.7278
  321MOL0     C44221  10.031   6.111   9.783 -0.2902 -0.8612  0.1634
  321MOL0     C44222   9.947   6.152   9.655  0.1401 -0.6324 -0.4556
  321MOL0     C44223   9.799   6.149   9.684 -0.2768  0.1890  0.1513
  321MOL0     C44224   9.720   6.102   9.571  0.1339 -0.5909  0.7827
  321MOL0     C44225   9.655   6.054   9.479 -0.2468 -0.8818 -0.3661
  321MOL0     C44226  10.472   6.008   9.880 -0.2594 -0.1839 -0.4768
  321MOL0     C44227  10.586   5.930   9.870 -0.0558 -0.1113 -0.6044
  321MOL0     C44228  10.699   5.983   9.957 -0.4000 -0.3318 -0.5587
  321MOL0     H44229  10.889   5.491   9.780 -0.9004  0.7751 -0.3308
  321MOL0     H44230  11.058   5.337   9.674  0.5014 -1.6789 -0.8762
  321MOL0     H44231  11.257   5.170   9.423  0.8985 -1.6294  4.5563
  321MOL0     H44232  11.136   5.194   9.544 -0.4816  1.1182  0.9858
  321MOL0     H44233  11.292   5.375   9.642 -1.0898 -1.7085  1.2899
  321MOL0     H44234  11.357   5.213   9.620  1.2517  0.3435 -0.0572
  321MOL0     H44235  11.532   5.354   9.551 -0.2972 -1.0674  0.7060
  321MOL0     H44236  11.466   5.286   9.414  0.2967 -0.5742  2.2836
  321MOL0     H44237  11.302   5.525   9.416 -0.1763  1.3329  0.0968
  321MOL0     H44238  11.436   5.580   9.501  1.8979  0.2684 -1.3201
  321MOL0     H44239  11.485   5.481   9.219 -1.1796  0.0779  1.2632
  321MOL0     H44240  11.597   5.570   9.331 -0.3600  1.3143  2.2063
  321MOL0     H44241  11.429   5.758   9.329 -0.6231 -0.5641 -0.0002
  321MOL0     H44242  11.527   5.735   9.191  0.5594 -2.1433 -0.0610
  321MOL0     H44243  11.234   5.628   9.213  0.4816 -1.3669 -1.9596
  321MOL0     H44244  11.337   5.602   9.084 -2.7479 -0.8227 -0.0723
  321MOL0     H44245  11.350   5.849   9.031  0.4580 -3.0330 -1.9926
  321MOL0     H44246  11.188   5.785   9.041  1.2854 -0.8850 -1.6361
  321MOL0     H44247  11.075   5.804   9.304 -1.6501  1.1831 -0.1630
  321MOL0     H44248  10.999   5.991   9.515  0.7475  1.1541 -2.1466
  321MOL0     H44249  11.141   6.101   9.557  0.6457  0.6815 -0.7724
  321MOL0     H44250  11.145   5.802   9.582  2.6999 -0.0510 -0.5113
  321MOL0     H44251  11.271   5.918   9.646  0.6565  1.3704 -1.9847
  321MOL0     H44252  11.133   5.993   9.818  0.6933  2.0513 -0.9968
  321MOL0     H44253  10.984   5.926   9.738  0.6691  0.4770 -2.9681
  321MOL0     H44254  11.041   5.765   9.927  1.9763 -2.4611  0.3371
  321MOL0     H44255  11.089   5.698   9.782 -1.0256  1.0911 -1.7589
  321MOL0     H44256  11.398   5.973   9.850 -1.4771  1.0597 -0.3436
  321MOL0     H44257  11.514   6.184   9.873  4.6870 -2.7639  1.2598
  321MOL0     H44258  11.585   6.205  10.022 -0.0278 -0.2135  0.5702
  321MOL0     H44259  11.433   6.294   9.989  2.3778  0.9184  0.5819
  321MOL0     H44260  11.215   6.233  10.640  0.3883  1.6365  1.7028
  321MOL0     H44261  11.237   6.400  10.795  3.2488  0.8835  1.1794
  321MOL0     H44262  11.327   6.822  10.639 -2.4784  1.0387 -1.9024
  321MOL0     H44263  11.154   6.774  10.654 -1.4820 -3.2659  2.6783
  321MOL0     H44264  11.147   6.821  10.882 -2.4696  0.7623 -1.7519
  321MOL0     H44265  11.317   6.877  10.887  1.9552 -0.4584 -1.3456
  321MOL0     H44266  11.075   6.990  10.735 -1.0780 -0.0741  1.7078
  321MOL0     H44267  11.247   7.046  10.703  0.6364  1.1814  1.2535
  321MOL0     H44268  11.187   7.219  10.857  0.6481  0.6618  1.3577
  321MOL0     H44269  11.245   7.090  10.967  0.8784  1.7368 -0.0238
  321MOL0     H44270  10.943   7.111  10.898 -0.6893 -1.3664  0.0843
  321MOL0     H44271  11.027   7.027  11.027  1.9829 -0.9073 -0.2334
  321MOL0     H44272  11.032   7.338  10.984  0.5718  0.3833  0.9373
  321MOL0     H44273  11.085   7.250  11.125 -0.9135  0.8402  1.3902
  321MOL0     H44274  10.856   7.166  11.159  1.8280  0.2427  1.2965
  321MOL0     H44275  10.790   7.281  11.042 -2.4327 -0.6999  1.8048
  321MOL0     H44276  10.766   7.369  11.265  0.6025  0.9456  0.5190
  321MOL0     H44277  10.848   7.471  11.165 -4.1537 -1.8086 -2.1948
  321MOL0     H44278  11.385   6.671  10.495  1.9016 -1.1856 -1.6066
  321MOL0     H44279  11.366   6.512  10.316  1.3057 -0.9062 -0.5589
  321MOL0     H44280  11.207   6.001  10.303  2.0406  2.0739  0.2703
  321MOL0     H44281  11.166   5.813  10.155  0.5728  0.5975 -1.4240
  321MOL0     H44282  10.991   5.555   9.293 -2.2001  3.4456 -0.2781
  321MOL0     H44283  10.814   5.685   9.408  0.7969  1.3235  0.1929
  321MOL0     H44284  10.513   5.743   9.592  0.1586 -1.1699 -0.5771
  321MOL0     H44285  10.303   5.858   9.621 -0.0631 -3.5060  1.7780
  321MOL0     H44286  10.208   6.203   9.706 -0.2489 -0.0551 -0.4289
  321MOL0     H44287  10.189   6.034   9.644  0.9304  1.3389 -0.4898
  321MOL0     H44288  10.020   6.189   9.859 -1.1125 -0.0741 -0.7268
  321MOL0     H44289   9.985   6.021   9.823 -5.6452  1.2893 -0.2685
  321MOL0     H44290   9.974   6.253   9.623  0.8788 -1.0715 -1.2498
  321MOL0     H44291   9.966   6.084   9.571 -4.3392  2.0114 -4.1155
  321MOL0     H44292   9.763   6.251   9.703  1.3009  1.3012 -2.2751
  321MOL0     H44293   9.780   6.085   9.771 -0.2371 -1.9133 -1.3076
  321MOL0     H44294   9.590   6.008   9.407 -1.2381  1.1963 -0.8928
  321MOL0     H44295  10.479   6.087   9.954  2.7894  1.1944 -2.0622
  321MOL0     H44296  10.660   6.052  10.032  0.6001 -0.8372  0.4703
  321MOL0     H44297  10.751   5.911  10.022 -0.2540  1.8009  1.8745
  321MOL0     H44298  10.773   6.036   9.896  0.4856  0.0875  0.8243
  322MOL0     O44299   3.750   0.408  10.190  0.8558  0.7844 -0.4165
  322MOL0     C44300   3.687   0.448  10.095  0.0160 -1.6523 -0.0815
  322MOL0     O44301   3.741   0.484   9.974  0.0802  0.1709 -0.1757
  322MOL0     C44302   3.878   0.480   9.966  0.0358  0.2559 -0.1245
  322MOL0     C44303   3.959   0.365   9.985 -0.9564 -0.0606 -0.8262
  322MOL0     C44304   4.095   0.364   9.953  0.8865  0.4160  0.6201
  322MOL0     C44305   4.155   0.478   9.926  0.3570  0.2477  0.9146
  322MOL0     O44306   4.293   0.468   9.904  0.5079 -0.2445  0.4575
  322MOL0     C44307   4.364   0.596   9.899  0.7061 -0.8112  0.0195
  322MOL0     C44308   4.510   0.578   9.882 -0.3236 -0.1411 -0.5708
  322MOL0     C44309   4.582   0.697   9.945 -0.5152 -0.2943 -0.3365
  322MOL0     C44310   4.547   0.827   9.875  0.2517  0.3980  0.1111
  322MOL0     C44311   4.595   0.947   9.943  0.5341  0.0239  0.9107
  322MOL0     C44312   4.517   0.998  10.060 -0.0055  0.6691 -0.4367
  322MOL0     C44313   4.565   1.135  10.102 -1.1233 -0.1663 -0.7194
  322MOL0     C44314   4.474   1.197  10.217 -0.1910  0.2581  0.0397
  322MOL0     N44315   4.354   1.265  10.164 -0.2578 -0.2420  0.0361
  322MOL0     C44316   4.224   1.220  10.184 -0.5400 -0.1031  0.2280
  322MOL0     C44317   4.147   1.300  10.101 -0.0090  0.3851 -0.3048
  322MOL0     C44318   4.002   1.283  10.062 -0.5951  0.6359 -0.3644
  322MOL0     C44319   3.925   1.410  10.117 -0.4343 -0.0751  1.0497
  322MOL0     C44320   3.954   1.438  10.257 -0.7618 -0.1595  0.2539
  322MOL0     C44321   3.852   1.550  10.299 -0.4220  0.0167  0.3612
  322MOL0     O44322   3.830   1.651  10.197  0.1200  0.7242  0.0100
  322MOL0     C44323   3.922   1.740  10.154  0.4927 -0.2058 -0.3482
  322MOL0     C44324   4.050   1.746  10.197  0.3072  0.4808  0.1818
  322MOL0     C44325   4.127   1.846  10.150 -0.6016  0.5742  0.2586
  322MOL0     C44326   4.274   1.856  10.188 -0.8996 -0.8033 -0.0101
  322MOL0     C44327   4.075   1.947  10.058 -0.1361  0.9435 -0.4292
  322MOL0     C44328   4.151   2.052   9.998 -0.0937  0.0095  0.7806
  322MOL0     O44329   4.272   2.011   9.942 -0.0622 -0.3087 -1.1051
  322MOL0     C44330   4.364   2.111   9.917  0.8635  0.6160 -0.6642
  322MOL0     C44331   4.340   2.243   9.864 -0.1890 -0.2634  0.0081
  322MOL0     C44332   4.449   2.333   9.852 -0.5578 -0.5391 -0.0557
  322MOL0     C44333   4.580   2.294   9.873 -0.6148 -0.4468  0.2128
  322MOL0     O44334   4.670   2.393   9.839 -0.4155  0.1120  0.0615
  322MOL0     C44335   4.811   2.353   9.827  0.2407  0.0176  0.2716
  322MOL0     C44336   4.862   2.463   9.745 -0.1952 -0.4708 -0.1859
  322MOL0     C44337   5.014   2.451   9.709 -0.8744  0.1179  0.5367
  322MOL0     C44338   5.068   2.553   9.610 -0.1422 -0.7042  0.0774
  322MOL0     C44339   5.218   2.569   9.609  0.5908 -0.0331  0.5947
  322MOL0     C44340   5.263   2.700   9.540  0.5516 -0.6754  0.4204
  322MOL0     C44341   5.416   2.720   9.563 -0.7814  0.0262  0.7138
  322MOL0     C44342   5.467   2.851   9.502 -0.1397 -0.3314 -0.4608
  322MOL0    Cl44343   5.404   2.992   9.594  0.5063  0.0618 -0.2509
  322MOL0     C44344   4.602   2.168   9.930  0.5319  0.0768  0.2333
  322MOL0     C44345   4.489   2.080   9.966  0.2513  0.1900  0.1527
  322MOL0     O44346   4.102   2.166   9.995  0.2311 -0.1234 -0.3731
  322MOL0     C44347   3.946   1.919  10.015  0.0521 -0.5412  0.3348
  322MOL0     C44348   3.869   1.823  10.063 -0.1604  0.3460 -0.5212
  322MOL0     N44349   4.238   1.386  10.034  0.5639 -0.4096  0.0686
  322MOL0     N44350   4.358   1.363  10.071 -0.7706 -0.2460  0.3347
  322MOL0     C44351   4.080   0.600   9.925 -0.0682  0.1027  0.3479
  322MOL0     C44352   3.944   0.593   9.939  0.3470 -0.3574 -1.0048
  322MOL0     C44353   3.550   0.483  10.104 -0.2219  0.7154 -0.9746
  322MOL0     C44354   3.493   0.577  10.016 -0.2882 -0.0053  0.1339
  322MOL0     C44355   3.359   0.616  10.021 -0.7662 -0.2325 -0.4183
  322MOL0     C44356   3.265   0.563  10.111 -0.7262 -0.3709 -0.2028
  322MOL0     O44357   3.134   0.602  10.111 -0.2500  0.3274 -0.5483
  322MOL0     C44358   3.052   0.545  10.218 -0.3414  0.1070  0.8084
  322MOL0     C44359   2.902   0.575  10.189 -0.0094  0.3346  0.6607
  322MOL0     C44360   2.873   0.717  10.208 -0.5932 -0.3942  0.6445
  322MOL0     C44361   2.730   0.757  10.223  0.7903  0.3966 -1.1402
  322MOL0     C44362   2.672   0.831  10.110 -0.6884  0.6201 -0.1743
  322MOL0     C44363   2.617   0.898  10.028 -0.3916 -1.2628 -0.0132
  322MOL0     C44364   3.324   0.463  10.192 -0.2482  0.8127 -0.6712
  322MOL0     C44365   3.462   0.428  10.196 -0.7665  0.4061  0.4786
  322MOL0     C44366   3.511   0.331  10.304  0.3369  0.3142  0.2017
  322MOL0     H44367   3.915   0.270  10.012 -1.7535  0.3643 -0.6071
  322MOL0     H44368   4.153   0.272   9.946 -1.9273 -1.4228 -0.5396
  322MOL0     H44369   4.341   0.659   9.985  0.3556  0.5333 -1.0181
  322MOL0     H44370   4.331   0.659   9.816  1.8077 -0.4904 -0.1953
  322MOL0     H44371   4.552   0.500   9.948 -0.1954  1.7042  1.6457
  322MOL0     H44372   4.534   0.570   9.776 -1.5269  0.2834 -0.8813
  322MOL0     H44373   4.552   0.708  10.050  0.0961 -1.0718 -0.0707
  322MOL0     H44374   4.691   0.685   9.947 -0.3443  1.1238 -0.1659
  322MOL0     H44375   4.593   0.824   9.776 -1.6070 -2.7362 -0.7823
  322MOL0     H44376   4.439   0.846   9.871  0.0973 -0.4462  0.1650
  322MOL0     H44377   4.575   1.031   9.876 -3.9839  0.5722  2.5915
  322MOL0     H44378   4.701   0.941   9.970  1.0676 -2.2221 -1.3286
  322MOL0     H44379   4.411   1.002  10.032 -1.3405 -1.9342  3.3982
  322MOL0     H44380   4.522   0.931  10.146  1.6309  1.4428  0.1150
  322MOL0     H44381   4.588   1.198  10.017  0.3513  1.4140  0.7746
  322MOL0     H44382   4.661   1.116  10.151  0.3406  2.7508 -2.2355
  322MOL0     H44383   4.454   1.121  10.293  1.7249  0.7731  1.1097
  322MOL0     H44384   4.531   1.278  10.263 -0.4356  1.1944 -1.2500
  322MOL0     H44385   4.193   1.145  10.256  0.0693 -1.7730 -1.1945
  322MOL0     H44386   3.966   1.187  10.099  1.1417  0.0978  0.0200
  322MOL0     H44387   3.995   1.296   9.954  0.6153 -0.6435 -0.6252
  322MOL0     H44388   3.955   1.498  10.059  0.5557 -0.0074  1.6352
  322MOL0     H44389   3.820   1.382  10.115  0.3158 -3.2579  0.1605
  322MOL0     H44390   3.926   1.345  10.306  2.9714  0.1226  3.4085
  322MOL0     H44391   4.058   1.459  10.284 -1.3078 -0.1613  2.4841
  322MOL0     H44392   3.756   1.499  10.316 -1.7618  2.2888  0.0424
  322MOL0     H44393   3.879   1.596  10.394  1.6617  1.7192 -0.9793
  322MOL0     H44394   4.084   1.697  10.288  0.9399  1.1552  0.3213
  322MOL0     H44395   4.301   1.961  10.202  0.6491 -1.0735 -0.7449
  322MOL0     H44396   4.331   1.812  10.105 -3.3863  0.8100 -2.7608
  322MOL0     H44397   4.289   1.794  10.277 -0.4234 -1.8899 -0.8230
  322MOL0     H44398   4.241   2.279   9.838  0.4413  0.2491 -1.9018
  322MOL0     H44399   4.438   2.422   9.792 -1.4760 -2.9117 -3.7725
  322MOL0     H44400   4.856   2.363   9.927 -2.5982 -0.6712  1.7411
  322MOL0     H44401   4.815   2.250   9.790 -2.6035 -0.5520  1.3003
  322MOL0     H44402   4.810   2.456   9.649 -1.1265 -0.1832  0.2800
  322MOL0     H44403   4.844   2.558   9.797  0.9516 -0.9468  1.1485
  322MOL0     H44404   5.036   2.351   9.669  1.2726  0.6606  0.2261
  322MOL0     H44405   5.079   2.457   9.797 -1.7667 -0.9413  1.2966
  322MOL0     H44406   5.016   2.641   9.650 -2.6841 -1.6730 -0.8878
  322MOL0     H44407   5.030   2.542   9.508  2.6078 -1.1263 -0.9855
  322MOL0     H44408   5.254   2.554   9.711 -0.6660 -3.6688  0.6623
  322MOL0     H44409   5.261   2.488   9.550 -0.5357 -0.9279  0.9726
  322MOL0     H44410   5.203   2.781   9.583 -1.4668 -2.3805  1.0017
  322MOL0     H44411   5.241   2.690   9.433 -3.0516 -2.1164  1.1465
  322MOL0     H44412   5.470   2.636   9.519  1.0931  1.7030 -0.3401
  322MOL0     H44413   5.451   2.717   9.667  2.2892 -0.6177 -0.2239
  322MOL0     H44414   5.442   2.871   9.398 -0.1556  1.8497 -0.0859
  322MOL0     H44415   5.576   2.857   9.503 -0.1042 -0.8504  0.6557
  322MOL0     H44416   4.701   2.129   9.953  0.2285 -1.7937 -1.3643
  322MOL0     H44417   4.504   1.980  10.006  2.7392  1.2296  2.1337
  322MOL0     H44418   3.937   1.983   9.927  2.8517  0.2346  0.5400
  322MOL0     H44419   3.763   1.817  10.039 -0.4793 -2.3359  1.0683
  322MOL0     H44420   4.128   0.697   9.922  1.7293 -0.6183  2.5445
  322MOL0     H44421   3.891   0.688   9.932  1.7244  0.3712 -1.9923
  322MOL0     H44422   3.562   0.619   9.945  0.0374 -0.1018  0.3922
  322MOL0     H44423   3.328   0.690   9.948  0.5603 -0.8528 -1.6617
  322MOL0     H44424   3.058   0.436  10.216 -1.4556  0.0370 -0.0479
  322MOL0     H44425   3.082   0.590  10.313 -1.8100  1.1876  0.7915
  322MOL0     H44426   2.846   0.503  10.250  0.9085 -0.6653  0.3647
  322MOL0     H44427   2.863   0.546  10.090  0.1522 -0.0831  0.7177
  322MOL0     H44428   2.925   0.741  10.301  0.0070  1.6130 -0.1566
  322MOL0     H44429   2.921   0.770  10.125  0.0742 -0.9923  0.6343
  322MOL0     H44430   2.722   0.837  10.297 -1.9119 -0.2587 -0.6166
  322MOL0     H44431   2.669   0.669  10.245 -1.6106  2.3540  0.7661
  322MOL0     H44432   2.585   0.960   9.946  0.7436 -2.2360 -1.2522
  322MOL0     H44433   3.266   0.412  10.268 -0.3070  0.3162 -1.0444
  322MOL0     H44434   3.561   0.241  10.268 -1.9428 -1.1523  0.4631
  322MOL0     H44435   3.586   0.379  10.368 -1.2692  1.7634  1.1009
  322MOL0     H44436   3.426   0.299  10.365 -0.0230 -0.2996 -0.6015
  323MOL0     O44437   9.958   9.122   7.511 -0.1102  0.6083 -0.2853
  323MOL0     C44438   9.938   9.024   7.434  0.6021  0.1004  0.0141
  323MOL0     O44439  10.034   8.935   7.392 -0.7709  0.1290 -1.0474
  323MOL0     C44440  10.174   8.957   7.388  0.1700 -0.2435 -0.0354
  323MOL0     C44441  10.247   8.852   7.331 -0.2103  0.6337  0.0351
  323MOL0     C44442  10.389   8.864   7.314 -0.2880  0.1126  0.0001
  323MOL0     C44443  10.452   8.979   7.353  1.0307 -0.8145 -0.1861
  323MOL0     O44444  10.583   8.987   7.316 -1.5642 -0.9749  0.0032
  323MOL0     C44445  10.666   9.077   7.394  0.4269  0.3872 -0.7374
  323MOL0     C44446  10.686   9.213   7.340  0.3701 -0.8914  0.0811
  323MOL0     C44447  10.737   9.223   7.202  0.1039  0.0517  0.2226
  323MOL0     C44448  10.782   9.371   7.167 -0.1075  0.9222 -0.2214
  323MOL0     C44449  10.889   9.433   7.258  0.2352  0.3547 -0.3308
  323MOL0     C44450  10.941   9.566   7.209  0.2543  0.3125  0.0486
  323MOL0     C44451  11.078   9.604   7.281 -0.6742 -0.6428  0.1052
  323MOL0     C44452  11.151   9.704   7.188 -0.4817  0.2147 -0.3928
  323MOL0     N44453  11.277   9.740   7.244 -0.2025 -0.2568  0.3024
  323MOL0     C44454  11.284   9.821   7.354 -0.3745 -0.2013  0.0259
  323MOL0     C44455  11.403   9.879   7.350 -0.8695  0.3282  0.4818
  323MOL0     C44456  11.446   9.983   7.442 -0.4826  0.5351  1.0607
  323MOL0     C44457  11.449  10.117   7.371 -0.1893  0.8143  0.5864
  323MOL0     C44458  11.500  10.218   7.473 -0.4866 -1.2157 -0.3393
  323MOL0     C44459  11.530  10.348   7.410 -0.0759  0.2843 -0.1739
  323MOL0     O44460  11.536  10.457   7.508 -0.1862 -0.3437  0.6809
  323MOL0     C44461  11.661  10.532   7.488  0.9013 -0.0180  0.6891
  323MOL0     C44462  11.650  10.665   7.468 -0.9202 -0.8636  0.4477
  323MOL0     C44463  11.764  10.745   7.460 -0.7100 -0.0286  0.7803
  323MOL0     C44464  11.733  10.893   7.444  0.0714  0.5897 -0.1842
  323MOL0     C44465  11.894  10.691   7.468  0.4161  0.3138 -0.0012
  323MOL0     C44466  12.024  10.763   7.461 -0.2060 -0.6186 -1.0099
  323MOL0     O44467  12.017  10.897   7.505  0.0789  0.2715 -0.2937
  323MOL0     C44468  12.052  11.001   7.426 -0.2484  0.1429  0.0213
  323MOL0     C44469  12.064  11.120   7.486 -0.3119 -1.2472 -0.5783
  323MOL0     C44470  12.109  11.232   7.413  0.4775  0.5013 -0.6509
  323MOL0     C44471  12.142  11.215   7.274  0.4444  0.4444  0.5625
  323MOL0     O44472  12.165  11.327   7.196 -0.5464  0.4973 -0.2564
  323MOL0     C44473  12.268  11.307   7.102 -0.0807  0.8252  0.1698
  323MOL0     C44474  12.317  11.441   7.048  0.4974 -0.0500  0.0575
  323MOL0     C44475  12.220  11.495   6.939  0.3286  0.2099  0.3121
  323MOL0     C44476  12.276  11.627   6.880  0.3046 -0.2770  0.0690
  323MOL0     C44477  12.193  11.681   6.756 -0.1672 -0.7427  0.3741
  323MOL0     C44478  12.046  11.712   6.788 -0.5679 -0.6861 -0.8341
  323MOL0     C44479  11.982  11.800   6.681  0.4981 -0.2697 -0.3322
  323MOL0     C44480  11.846  11.842   6.726 -0.1564 -0.6665 -0.1132
  323MOL0    Cl44481  11.747  11.898   6.601 -0.4258  0.3531  0.2557
  323MOL0     C44482  12.142  11.088   7.225  0.0415 -0.1248  0.1873
  323MOL0     C44483  12.093  10.978   7.294  0.1913  0.6116 -0.0629
  323MOL0     O44484  12.127  10.701   7.424  0.2693 -0.1362  0.4209
  323MOL0     C44485  11.903  10.559   7.492  0.0573  1.3615  0.7868
  323MOL0     C44486  11.792  10.480   7.507  1.0104  0.0531  0.1116
  323MOL0     N44487  11.473   9.826   7.247 -0.6937 -0.2749  0.4875
  323MOL0     N44488  11.391   9.754   7.179 -0.2108  0.2948 -0.8048
  323MOL0     C44489  10.387   9.082   7.420  0.5823 -0.2982 -0.8659
  323MOL0     C44490  10.243   9.066   7.432  0.3265 -0.3720 -0.0181
  323MOL0     C44491   9.806   9.016   7.368 -0.7634  0.1876  0.5848
  323MOL0     C44492   9.776   8.892   7.322  0.9670 -0.2793  0.0345
  323MOL0     C44493   9.659   8.876   7.246  0.3381  0.0505  0.7277
  323MOL0     C44494   9.568   8.977   7.215 -0.0980 -0.4920 -0.5100
  323MOL0     O44495   9.449   8.964   7.152 -0.1683 -0.1396 -0.1456
  323MOL0     C44496   9.431   8.841   7.075 -0.6653  0.5287 -0.5562
  323MOL0     C44497   9.313   8.859   6.977 -0.5181  0.5078  0.3475
  323MOL0     C44498   9.290   8.730   6.892 -0.3636  0.0386  0.3302
  323MOL0     C44499   9.222   8.761   6.762 -0.1656 -0.0393  0.1366
  323MOL0     C44500   9.223   8.632   6.688 -0.6736 -0.0453  0.0298
  323MOL0     C44501   9.216   8.532   6.623 -0.5596 -0.4710  0.3802
  323MOL0     C44502   9.593   9.097   7.277 -0.5695 -0.5750  0.6832
  323MOL0     C44503   9.713   9.115   7.349 -0.0484 -0.3471  0.1653
  323MOL0     C44504   9.733   9.251   7.408 -0.0324  0.8056 -0.0140
  323MOL0     H44505  10.184   8.770   7.298 -4.0724  3.7675 -1.1422
  323MOL0     H44506  10.441   8.790   7.255 -1.8480 -0.1297 -1.1475
  323MOL0     H44507  10.769   9.045   7.381  0.3622  0.7104 -2.2881
  323MOL0     H44508  10.638   9.080   7.499 -0.4129 -2.0000 -0.8134
  323MOL0     H44509  10.594   9.272   7.339  2.0375  1.8701  0.5143
  323MOL0     H44510  10.751   9.256   7.417 -0.6183 -1.0247  1.0136
  323MOL0     H44511  10.828   9.163   7.193  0.4563  0.6791 -0.4600
  323MOL0     H44512  10.666   9.184   7.129  0.0730  0.7473 -0.1233
  323MOL0     H44513  10.830   9.382   7.069 -0.6365  3.8017 -0.2295
  323MOL0     H44514  10.700   9.443   7.168 -0.5371  0.5222 -1.8858
  323MOL0     H44515  10.978   9.369   7.266  3.7644  4.9679  2.1509
  323MOL0     H44516  10.854   9.450   7.360 -0.3752  1.1838 -0.6660
  323MOL0     H44517  10.965   9.557   7.103 -1.6238 -1.2670 -0.3014
  323MOL0     H44518  10.877   9.656   7.211  3.0476  2.4272  0.8544
  323MOL0     H44519  11.141   9.518   7.306  0.4470 -0.3469 -1.5797
  323MOL0     H44520  11.056   9.657   7.374  1.7904  3.3606 -1.3387
  323MOL0     H44521  11.163   9.668   7.085  1.5851  2.9216 -1.2272
  323MOL0     H44522  11.099   9.800   7.189  2.0449  1.6794 -1.0412
  323MOL0     H44523  11.207   9.842   7.427  0.2146  1.6076  0.1655
  323MOL0     H44524  11.533   9.938   7.492 -0.7669 -1.7982 -0.4080
  323MOL0     H44525  11.384   9.989   7.532  1.9388 -1.1175  2.9972
  323MOL0     H44526  11.518  10.114   7.286  1.7676 -1.7264  2.1054
  323MOL0     H44527  11.346  10.137   7.341 -0.9640 -0.7099  2.0720
  323MOL0     H44528  11.443  10.237   7.564 -0.4323  0.6916 -0.6584
  323MOL0     H44529  11.596  10.176   7.506 -0.2511  0.3416  1.0976
  323MOL0     H44530  11.614  10.349   7.340  0.9993  0.3205  1.0570
  323MOL0     H44531  11.442  10.372   7.350 -0.1222  0.2427 -0.1223
  323MOL0     H44532  11.554  10.715   7.462 -0.1043  0.6522 -0.7786
  323MOL0     H44533  11.781  10.930   7.353 -1.6763  1.0414 -0.9509
  323MOL0     H44534  11.748  10.953   7.534  2.6752  0.4307 -0.4218
  323MOL0     H44535  11.629  10.908   7.414 -0.1398  1.3612  0.8556
  323MOL0     H44536  12.030  11.136   7.588 -0.8699  1.2819 -1.0915
  323MOL0     H44537  12.088  11.329   7.457 -0.1765 -0.2254  0.7022
  323MOL0     H44538  12.359  11.255   7.135 -0.3749 -0.1230 -0.4547
  323MOL0     H44539  12.221  11.253   7.019 -1.6381  0.7175  1.0764
  323MOL0     H44540  12.320  11.520   7.124  0.5504  0.4358 -0.4396
  323MOL0     H44541  12.421  11.424   7.017  0.1730 -2.5294  0.1577
  323MOL0     H44542  12.117  11.508   6.976 -0.1594  2.1463 -1.5535
  323MOL0     H44543  12.196  11.430   6.854 -1.0243  1.1946 -0.0974
  323MOL0     H44544  12.381  11.607   6.858  0.6164  2.3866 -1.2620
  323MOL0     H44545  12.283  11.703   6.958 -0.1568 -0.0240 -0.1271
  323MOL0     H44546  12.250  11.767   6.718  0.2678 -1.5817 -0.9574
  323MOL0     H44547  12.193  11.608   6.674 -1.4917  1.9644 -2.1804
  323MOL0     H44548  12.033  11.763   6.884  0.8019  0.2840 -1.1392
  323MOL0     H44549  11.983  11.623   6.789 -1.9339  0.1812 -2.6059
  323MOL0     H44550  11.961  11.737   6.594 -2.8019 -0.7212  0.6788
  323MOL0     H44551  12.036  11.891   6.655  0.8755 -0.5838 -0.6580
  323MOL0     H44552  11.852  11.922   6.799  0.5529 -0.5125 -0.3281
  323MOL0     H44553  11.798  11.762   6.783  0.2140 -0.6838  0.1823
  323MOL0     H44554  12.166  11.091   7.119  1.7302  1.1323  0.5785
  323MOL0     H44555  12.079  10.882   7.244 -0.1525  0.4156  0.3989
  323MOL0     H44556  11.996  10.502   7.493 -0.6073  0.2329 -0.0819
  323MOL0     H44557  11.804  10.372   7.519  0.6462 -0.3503 -2.6337
  323MOL0     H44558  10.428   9.180   7.441  0.0667 -0.3904  0.7188
  323MOL0     H44559  10.192   9.147   7.483 -0.4875 -1.6123  1.1914
  323MOL0     H44560   9.836   8.801   7.327 -0.3153 -1.0957  1.5070
  323MOL0     H44561   9.649   8.778   7.201  1.2637 -0.7880  2.2610
  323MOL0     H44562   9.521   8.802   7.027 -0.4698 -1.6365  1.3680
  323MOL0     H44563   9.403   8.752   7.132 -0.2954  1.0266  0.4240
  323MOL0     H44564   9.327   8.948   6.916 -0.6151 -0.6213 -1.4022
  323MOL0     H44565   9.232   8.865   7.050  1.8858 -1.4683  3.4455
  323MOL0     H44566   9.389   8.688   6.871 -1.1306 -2.5798  1.5609
  323MOL0     H44567   9.233   8.648   6.935  0.3907 -2.9804 -3.7958
  323MOL0     H44568   9.271   8.840   6.705 -0.8713  0.7553  0.6105
  323MOL0     H44569   9.118   8.788   6.781 -0.1062 -0.2342  0.7773
  323MOL0     H44570   9.215   8.455   6.548  1.3043  0.3541 -0.5298
  323MOL0     H44571   9.528   9.183   7.264  2.7617  1.9464 -0.7829
  323MOL0     H44572   9.733   9.250   7.518 -0.4554  0.4719 -0.0187
  323MOL0     H44573   9.829   9.287   7.369 -0.1584 -0.4708 -1.5715
  323MOL0     H44574   9.655   9.323   7.380  0.9144  1.6591 -0.5539
  324MOL0     O44575   1.433   5.071   6.898  0.3160 -1.2970  0.0043
  324MOL0     C44576   1.373   5.167   6.957 -0.2865 -0.2409  0.7955
  324MOL0     O44577   1.432   5.248   7.055 -0.2459  0.3023 -0.1178
  324MOL0     C44578   1.568   5.252   7.055  0.2246  0.3333 -0.1206
  324MOL0     C44579   1.640   5.367   7.018 -0.2189 -0.2073 -0.4703
  324MOL0     C44580   1.780   5.371   7.028  0.9389  0.2148 -0.2264
  324MOL0     C44581   1.851   5.260   7.063  0.4354  0.2402 -0.1349
  324MOL0     O44582   1.988   5.261   7.084  0.6164  0.4038 -0.0575
  324MOL0     C44583   2.064   5.376   7.029 -0.2373 -0.6440  0.2783
  324MOL0     C44584   2.211   5.345   7.059 -0.0173  0.1678  0.5181
  324MOL0     C44585   2.301   5.433   6.973 -0.3273  0.1338 -0.1444
  324MOL0     C44586   2.268   5.577   6.958  0.2377 -0.3563 -0.0311
  324MOL0     C44587   2.388   5.654   7.019 -0.4187 -0.0454 -0.4278
  324MOL0     C44588   2.364   5.797   7.051 -0.5955 -0.8399 -0.6672
  324MOL0     C44589   2.466   5.875   7.140 -0.6677 -0.2810  0.4899
  324MOL0     C44590   2.424   6.029   7.154  0.5243  0.6666  1.3593
  324MOL0     N44591   2.306   6.048   7.228  0.2946 -1.1053  0.1886
  324MOL0     C44592   2.174   6.036   7.178 -0.1797 -0.8149 -0.2771
  324MOL0     C44593   2.097   6.083   7.286 -0.0555  0.1775  0.3664
  324MOL0     C44594   1.944   6.070   7.304 -0.8658  1.0125 -0.3651
  324MOL0     C44595   1.901   5.949   7.388 -0.4502 -0.5694  0.5437
  324MOL0     C44596   1.957   5.816   7.373  0.4286 -0.3266  0.1700
  324MOL0     C44597   1.957   5.758   7.232  0.1136  0.0232 -0.5083
  324MOL0     O44598   1.832   5.779   7.167  0.6037  0.3649 -0.0348
  324MOL0     C44599   1.715   5.710   7.193 -1.2509  1.0765  0.1035
  324MOL0     C44600   1.602   5.765   7.143 -0.4849 -0.9805  0.6752
  324MOL0     C44601   1.474   5.721   7.168  0.7422  0.0216 -0.1735
  324MOL0     C44602   1.364   5.797   7.109 -1.0082  0.0857  0.1133
  324MOL0     C44603   1.466   5.616   7.265  1.0981 -0.1961 -0.4905
  324MOL0     C44604   1.335   5.554   7.305 -0.9567  0.3601  0.0609
  324MOL0     O44605   1.225   5.632   7.292 -0.2872 -0.6600 -0.3843
  324MOL0     C44606   1.109   5.601   7.360  0.2243  1.2620  0.5225
  324MOL0     C44607   1.039   5.487   7.329 -0.5236 -0.0058  0.1555
  324MOL0     C44608   0.908   5.464   7.375  0.4346  0.4271  0.6774
  324MOL0     C44609   0.851   5.540   7.473 -0.0620  0.2587  0.9337
  324MOL0     O44610   0.729   5.503   7.526 -0.0961  0.1009 -0.6904
  324MOL0     C44611   0.664   5.605   7.603 -0.4533 -0.0361 -0.1663
  324MOL0     C44612   0.516   5.610   7.598 -0.3971  0.5162  0.0950
  324MOL0     C44613   0.455   5.659   7.468 -1.2939  0.4319  0.1067
  324MOL0     C44614   0.307   5.679   7.459  0.1127 -0.7791  0.6008
  324MOL0     C44615   0.277   5.745   7.330 -0.9082 -0.0573 -1.0751
  324MOL0     C44616   0.123   5.760   7.331  0.5903  0.3214  0.0126
  324MOL0     C44617   0.079   5.831   7.203  0.4835 -0.2564  0.4446
  324MOL0     C44618   0.068   5.725   7.089 -0.4940  0.5142  0.3497
  324MOL0    Cl44619   0.062   5.817   6.930  0.0564 -0.2302 -0.4945
  324MOL0     C44620   0.931   5.643   7.519  0.3476  0.0007 -0.2018
  324MOL0     C44621   1.059   5.675   7.461  0.3703 -0.1682  0.0600
  324MOL0     O44622   1.348   5.428   7.336  0.6653  0.5490 -0.0443
  324MOL0     C44623   1.585   5.563   7.326  0.2161  0.1604  0.3717
  324MOL0     C44624   1.704   5.615   7.300  0.2033  0.1585  0.8595
  324MOL0     N44625   2.187   6.120   7.391 -0.0100  0.7225  0.5546
  324MOL0     N44626   2.302   6.097   7.358 -0.3876 -0.2874 -0.2572
  324MOL0     C44627   1.782   5.146   7.093  0.3993  0.2019  0.2767
  324MOL0     C44628   1.644   5.142   7.098  0.4114 -0.6227  0.1658
  324MOL0     C44629   1.230   5.194   6.927  0.4120 -0.1652  0.4373
  324MOL0     C44630   1.151   5.079   6.908 -0.1584 -1.1377 -0.3417
  324MOL0     C44631   1.020   5.096   6.878 -0.0962  0.3007 -0.3621
  324MOL0     C44632   0.956   5.224   6.859 -0.3386  0.0008  0.1642
  324MOL0     O44633   0.822   5.225   6.821  0.5054  0.0960 -0.2550
  324MOL0     C44634   0.786   5.332   6.738 -0.1478  0.0604  0.4289
  324MOL0     C44635   0.656   5.301   6.662  0.6617 -0.0500  0.0281
  324MOL0     C44636   0.539   5.291   6.761 -0.3355  0.2464  0.3949
  324MOL0     C44637   0.418   5.246   6.692 -0.1755 -0.4851  0.6086
  324MOL0     C44638   0.345   5.364   6.621 -0.6408  0.2014  0.4205
  324MOL0     C44639   0.297   5.465   6.574 -0.1214  0.0104 -0.1452
  324MOL0     C44640   1.031   5.333   6.893 -1.1648 -0.8281 -0.0189
  324MOL0     C44641   1.173   5.326   6.914  0.4806  0.2290  0.2923
  324MOL0     C44642   1.252   5.455   6.936 -0.3613  0.2310  0.3262
  324MOL0     H44643   1.581   5.453   6.990  1.9973  1.0684 -1.4999
  324MOL0     H44644   1.819   5.469   7.006 -4.2504  2.1467 -2.4484
  324MOL0     H44645   2.031   5.466   7.081 -1.1307  0.1468 -1.5670
  324MOL0     H44646   2.053   5.381   6.920  1.3812 -4.2233 -0.1825
  324MOL0     H44647   2.240   5.357   7.164  1.7604 -0.8033  0.1803
  324MOL0     H44648   2.231   5.242   7.027  5.0679  0.5994  1.3449
  324MOL0     H44649   2.400   5.415   7.016  0.1663 -3.1537 -2.3244
  324MOL0     H44650   2.322   5.381   6.879  2.9476 -0.8557  0.9904
  324MOL0     H44651   2.245   5.600   6.854 -1.4432  0.1415  0.4109
  324MOL0     H44652   2.180   5.602   7.018  0.2674 -2.3761  0.9506
  324MOL0     H44653   2.469   5.637   6.947 -0.0598 -2.1515  0.4234
  324MOL0     H44654   2.418   5.606   7.112 -0.6994 -0.9157 -0.7751
  324MOL0     H44655   2.335   5.850   6.960 -1.7459  1.2521  0.8220
  324MOL0     H44656   2.278   5.803   7.119  0.8894  1.4679  1.1625
  324MOL0     H44657   2.567   5.871   7.096 -0.5444  1.4819  0.5646
  324MOL0     H44658   2.464   5.833   7.241  3.2314  1.3111  1.3958
  324MOL0     H44659   2.510   6.085   7.192 -0.1165  3.9750 -1.5337
  324MOL0     H44660   2.420   6.080   7.057 -0.1455  2.7506  2.4325
  324MOL0     H44661   2.141   5.986   7.088  0.5773 -2.3591  0.2616
  324MOL0     H44662   1.902   6.043   7.207  0.1120  0.0549 -0.5523
  324MOL0     H44663   1.904   6.165   7.338 -2.4655  0.3268 -0.2370
  324MOL0     H44664   1.911   5.978   7.493  0.2872 -0.8172  0.5484
  324MOL0     H44665   1.792   5.939   7.380 -0.2990 -3.2454  0.8228
  324MOL0     H44666   2.064   5.823   7.396  0.9296  4.4697 -2.3596
  324MOL0     H44667   1.895   5.763   7.445 -1.9872  3.6361  1.3126
  324MOL0     H44668   2.037   5.791   7.165 -0.2654  1.2068 -0.4109
  324MOL0     H44669   1.970   5.650   7.239  0.4596  0.1371  1.1517
  324MOL0     H44670   1.614   5.861   7.095  0.0195  0.7367  3.9161
  324MOL0     H44671   1.292   5.728   7.064 -2.2143  0.3216  1.6354
  324MOL0     H44672   1.396   5.852   7.020 -0.7687 -0.5707 -0.2186
  324MOL0     H44673   1.324   5.857   7.190  0.8693  0.1069  1.0783
  324MOL0     H44674   1.078   5.412   7.260  0.2474  2.0498 -1.7632
  324MOL0     H44675   0.861   5.370   7.347  1.2766  0.2755 -0.3063
  324MOL0     H44676   0.697   5.585   7.705  0.9359  3.9804  0.3558
  324MOL0     H44677   0.697   5.707   7.580 -3.1738  0.5717 -1.7679
  324MOL0     H44678   0.475   5.513   7.628 -0.6089  0.0094 -1.6889
  324MOL0     H44679   0.484   5.678   7.677 -0.0194 -2.0338  2.6108
  324MOL0     H44680   0.494   5.597   7.386 -1.7172 -2.3743  1.8827
  324MOL0     H44681   0.492   5.762   7.463 -0.7495  0.4530  2.8204
  324MOL0     H44682   0.263   5.741   7.538  1.5292  0.7010  0.2759
  324MOL0     H44683   0.251   5.588   7.482 -1.6643  1.0287  4.2997
  324MOL0     H44684   0.318   5.844   7.310  0.2384 -0.2974 -0.0399
  324MOL0     H44685   0.315   5.673   7.257  0.3489 -0.0691 -0.4373
  324MOL0     H44686   0.086   5.819   7.415  1.8230  1.4559 -0.2041
  324MOL0     H44687   0.075   5.663   7.348  3.0640 -0.8530  0.7503
  324MOL0     H44688   0.149   5.911   7.177  1.8394 -0.8279  2.1380
  324MOL0     H44689  -0.024   5.866   7.215  0.2668  0.0992 -2.0012
  324MOL0     H44690  -0.026   5.670   7.100 -1.4466  1.8165 -0.8774
  324MOL0     H44691   0.159   5.664   7.094 -0.6152  0.4427  2.2282
  324MOL0     H44692   0.910   5.707   7.605  2.5318 -1.4208  1.5017
  324MOL0     H44693   1.109   5.759   7.509  0.4327 -0.3138  0.2545
  324MOL0     H44694   1.586   5.482   7.398  0.2742 -1.8532 -1.7624
  324MOL0     H44695   1.786   5.572   7.357  2.1932 -3.0599 -3.7823
  324MOL0     H44696   1.853   5.068   7.115 -0.1953 -1.7036 -3.6484
  324MOL0     H44697   1.609   5.043   7.124  0.4213 -1.0775 -1.4279
  324MOL0     H44698   1.187   4.977   6.898  0.0833 -1.2818  1.6197
  324MOL0     H44699   0.956   5.014   6.847 -1.8682  1.9151 -1.2979
  324MOL0     H44700   0.758   5.415   6.804 -3.3269  0.4857 -1.2418
  324MOL0     H44701   0.864   5.356   6.665 -1.1520  1.9873 -0.0819
  324MOL0     H44702   0.662   5.204   6.611 -1.4524  0.6945 -1.7937
  324MOL0     H44703   0.635   5.370   6.580  0.7005  1.3116  1.1345
  324MOL0     H44704   0.571   5.207   6.823 -2.1204 -2.5223 -2.1250
  324MOL0     H44705   0.530   5.381   6.822  1.3253  2.0353 -1.8185
  324MOL0     H44706   0.351   5.209   6.771 -0.9123 -1.7469 -0.5551
  324MOL0     H44707   0.434   5.165   6.620 -2.3648  0.9708 -1.6634
  324MOL0     H44708   0.252   5.541   6.513 -1.1223  1.1322  1.8739
  324MOL0     H44709   0.987   5.432   6.881  3.1410  1.1255 -1.6856
  324MOL0     H44710   1.201   5.525   6.869  1.2511 -1.5869 -3.1031
  324MOL0     H44711   1.258   5.495   7.037  2.2636  1.8236 -0.3523
  324MOL0     H44712   1.353   5.447   6.893 -0.5304  0.1721 -0.0601
  325MOL0     O44713   9.579   7.344   4.214  0.2720  0.0126  0.5383
  325MOL0     C44714   9.650   7.253   4.262 -0.2328 -0.5466 -1.0100
  325MOL0     O44715   9.641   7.115   4.244 -0.0629  0.6184 -0.0683
  325MOL0     C44716   9.533   7.062   4.189  0.6433  0.2805  0.0828
  325MOL0     C44717   9.400   7.103   4.200  0.4026 -0.3214  0.3377
  325MOL0     C44718   9.297   7.038   4.126  0.2793  0.3228  0.0035
  325MOL0     C44719   9.321   6.939   4.035 -0.0678 -0.0723 -1.0667
  325MOL0     O44720   9.213   6.899   3.963 -0.2021  0.3676 -0.1450
  325MOL0     C44721   9.211   6.758   3.945 -0.3635  0.1295 -0.0487
  325MOL0     C44722   9.068   6.710   3.907 -0.8886  0.6687 -0.4870
  325MOL0     C44723   8.971   6.681   4.023 -0.0149  0.3620  0.3664
  325MOL0     C44724   8.823   6.701   3.983 -0.0753  0.2383 -0.7405
  325MOL0     C44725   8.735   6.647   4.096 -0.2023 -0.0671 -0.2291
  325MOL0     C44726   8.586   6.657   4.067 -0.0467  0.3838 -0.1737
  325MOL0     C44727   8.492   6.606   4.177  0.4912  0.1084 -0.1121
  325MOL0     C44728   8.399   6.490   4.116 -0.5467  0.1202 -0.2513
  325MOL0     N44729   8.375   6.391   4.222 -0.5205  0.1161  0.4729
  325MOL0     C44730   8.302   6.419   4.335  0.4594  0.3525 -0.7909
  325MOL0     C44731   8.313   6.309   4.408  0.3147  0.1874 -0.1271
  325MOL0     C44732   8.232   6.303   4.528  0.6255  0.5359  0.2777
  325MOL0     C44733   8.325   6.286   4.647  0.1705 -0.1741  0.2985
  325MOL0     C44734   8.375   6.137   4.682  0.3650  0.2338  0.3778
  325MOL0     C44735   8.517   6.100   4.632  0.0300  0.2952  0.0124
  325MOL0     O44736   8.604   6.174   4.724  0.4650  0.2992 -0.0780
  325MOL0     C44737   8.739   6.158   4.717  0.6877  0.1649 -0.5359
  325MOL0     C44738   8.798   6.040   4.721 -0.5325  0.0868  0.0716
  325MOL0     C44739   8.932   6.022   4.744 -0.5947 -0.2419 -0.9374
  325MOL0     C44740   8.990   5.882   4.746  0.1636  0.3444 -0.1867
  325MOL0     C44741   9.008   6.130   4.776  0.2150 -0.7253  0.4795
  325MOL0     C44742   9.150   6.125   4.813 -0.5476 -0.0020 -0.5105
  325MOL0     O44743   9.231   6.231   4.780  0.2881 -0.0105  0.0209
  325MOL0     C44744   9.359   6.230   4.826  0.5236 -0.9402  0.2215
  325MOL0     C44745   9.453   6.140   4.779  0.0660 -0.3705  0.3226
  325MOL0     C44746   9.591   6.161   4.811 -1.0184 -0.0892 -0.0273
  325MOL0     C44747   9.630   6.262   4.891 -0.1853 -0.3649  0.4174
  325MOL0     O44748   9.765   6.287   4.911  0.4186 -0.1060  0.1890
  325MOL0     C44749   9.850   6.175   4.898 -0.6926  0.0511 -0.1018
  325MOL0     C44750   9.987   6.210   4.945  1.1077  0.6179  0.2810
  325MOL0     C44751   9.998   6.270   5.089 -0.3730  0.7946 -0.0363
  325MOL0     C44752  10.139   6.276   5.145 -0.8524  0.3794 -1.0119
  325MOL0     C44753  10.234   6.362   5.076  0.0772 -0.2389 -0.3612
  325MOL0     C44754  10.381   6.310   5.093 -0.6840 -0.0303  0.4505
  325MOL0     C44755  10.436   6.327   5.245 -0.0615 -0.8201 -1.0462
  325MOL0     C44756  10.576   6.387   5.263 -0.2411  0.1592 -0.7898
  325MOL0    Cl44757  10.700   6.299   5.168 -0.3758 -0.3785 -0.0092
  325MOL0     C44758   9.531   6.342   4.948  0.6427 -0.6202  0.2069
  325MOL0     C44759   9.398   6.324   4.918 -0.5338 -0.3466  0.4648
  325MOL0     O44760   9.190   6.022   4.876  0.0879 -0.4743  0.0604
  325MOL0     C44761   8.958   6.260   4.767 -0.6077  1.0659  0.4148
  325MOL0     C44762   8.817   6.272   4.743  0.3724  0.4129 -0.5683
  325MOL0     N44763   8.379   6.203   4.336  0.6174 -0.5151 -0.0508
  325MOL0     N44764   8.412   6.262   4.220  0.1883  0.2499  1.2782
  325MOL0     C44765   9.456   6.898   4.029 -0.2304  0.8494  0.5070
  325MOL0     C44766   9.555   6.957   4.104 -0.5736  0.9746 -0.1740
  325MOL0     C44767   9.767   7.303   4.334  0.1924 -0.3445 -0.2050
  325MOL0     C44768   9.894   7.253   4.303  0.4376  0.5759  0.7988
  325MOL0     C44769  10.001   7.291   4.379 -0.2982  0.0888 -0.5831
  325MOL0     C44770   9.994   7.371   4.483  0.2564 -0.1853 -0.0876
  325MOL0     O44771  10.097   7.392   4.585 -0.4725 -0.0392 -0.8141
  325MOL0     C44772  10.214   7.305   4.589  0.2398 -0.4979  0.0783
  325MOL0     C44773  10.335   7.348   4.495  0.4800 -0.1898  0.5377
  325MOL0     C44774  10.427   7.452   4.553  0.4783  0.3104 -0.2373
  325MOL0     C44775  10.550   7.483   4.473 -0.2696 -0.0635  1.5212
  325MOL0     C44776  10.638   7.363   4.450 -0.0318  0.1451  0.9343
  325MOL0     C44777  10.721   7.268   4.436 -0.1852 -0.0017 -0.8807
  325MOL0     C44778   9.874   7.435   4.512 -0.3589 -0.7184 -0.9041
  325MOL0     C44779   9.764   7.405   4.443  0.2862 -0.9243  0.3271
  325MOL0     C44780   9.634   7.475   4.470 -0.2647 -0.5172 -0.1126
  325MOL0     H44781   9.375   7.188   4.263  1.1589  1.1874 -1.2780
  325MOL0     H44782   9.202   7.083   4.153  0.2669 -0.5587  1.5125
  325MOL0     H44783   9.251   6.708   4.033 -3.3672 -1.2021  0.6994
  325MOL0     H44784   9.271   6.735   3.857 -1.0642  0.9260 -0.7605
  325MOL0     H44785   9.017   6.780   3.840 -0.3601 -0.9118 -2.6511
  325MOL0     H44786   9.088   6.615   3.857  0.2933  1.0610 -0.8014
  325MOL0     H44787   8.994   6.582   4.065 -1.2780 -0.1248 -0.0501
  325MOL0     H44788   8.988   6.754   4.103  0.8019 -1.6897  2.1730
  325MOL0     H44789   8.810   6.810   3.980  1.0240  0.3649 -2.4091
  325MOL0     H44790   8.800   6.662   3.884 -0.1664 -2.1074  0.1500
  325MOL0     H44791   8.750   6.717   4.178  0.5675 -0.4453 -0.0362
  325MOL0     H44792   8.757   6.543   4.123 -3.6888 -0.5393  1.3894
  325MOL0     H44793   8.557   6.763   4.062 -3.4687 -0.4618 -1.5336
  325MOL0     H44794   8.550   6.613   3.973 -0.8732  0.1900  0.2195
  325MOL0     H44795   8.433   6.690   4.215 -0.0902 -0.6477  0.7035
  325MOL0     H44796   8.560   6.576   4.258  0.2250  0.2417  0.1637
  325MOL0     H44797   8.307   6.543   4.090 -0.6535  0.6077  1.0357
  325MOL0     H44798   8.453   6.447   4.032  1.0902 -0.5966  1.1142
  325MOL0     H44799   8.257   6.514   4.363  1.2162 -0.2186  2.9371
  325MOL0     H44800   8.169   6.214   4.517  1.0453 -0.1040  2.4847
  325MOL0     H44801   8.155   6.379   4.543 -0.7157 -0.6356 -0.4260
  325MOL0     H44802   8.411   6.353   4.639 -0.0162 -0.0995 -1.4204
  325MOL0     H44803   8.274   6.331   4.733  2.7095  1.2867  1.1471
  325MOL0     H44804   8.364   6.107   4.787 -1.8485 -5.0241 -1.0590
  325MOL0     H44805   8.305   6.073   4.627  0.3088  0.2312  0.4540
  325MOL0     H44806   8.542   5.994   4.643 -0.4276 -0.0613 -2.0560
  325MOL0     H44807   8.539   6.127   4.529  0.3787  2.4965  0.6200
  325MOL0     H44808   8.742   5.947   4.729  0.8675 -0.9023 -1.0728
  325MOL0     H44809   8.989   5.848   4.850 -0.6272  1.2399  0.1093
  325MOL0     H44810   9.090   5.864   4.704  0.7988 -0.7943  1.6943
  325MOL0     H44811   8.921   5.819   4.689 -0.1519  1.3351 -0.9300
  325MOL0     H44812   9.419   6.061   4.712 -1.0443 -0.0926  0.5383
  325MOL0     H44813   9.653   6.082   4.769 -1.1182 -0.3941  0.3837
  325MOL0     H44814   9.815   6.087   4.953 -1.9813  2.5538  3.4630
  325MOL0     H44815   9.853   6.147   4.793 -3.5867 -3.2346  0.4847
  325MOL0     H44816  10.046   6.119   4.937  0.0304 -0.7010  4.5399
  325MOL0     H44817  10.021   6.287   4.874 -0.2298 -0.5110 -1.6704
  325MOL0     H44818   9.938   6.208   5.157 -2.7513  0.4276 -2.3223
  325MOL0     H44819   9.949   6.367   5.092 -0.8513  0.5899  3.4318
  325MOL0     H44820  10.167   6.170   5.148  2.5471  1.1676 -0.4094
  325MOL0     H44821  10.122   6.303   5.250  1.6179 -2.1995  0.2160
  325MOL0     H44822  10.218   6.367   4.967  1.3789 -1.3989 -0.6200
  325MOL0     H44823  10.226   6.467   5.107 -1.2068  0.7165 -3.4762
  325MOL0     H44824  10.439   6.373   5.026  0.3574  0.3307  1.6666
  325MOL0     H44825  10.380   6.204   5.064  1.9886 -0.3398  1.2581
  325MOL0     H44826  10.436   6.227   5.290  1.8596  0.5522  2.3034
  325MOL0     H44827  10.373   6.390   5.308  1.6220  2.4937 -2.4086
  325MOL0     H44828  10.612   6.381   5.366 -1.4656 -0.2312 -0.3754
  325MOL0     H44829  10.575   6.493   5.236  0.8001  0.6307  0.9099
  325MOL0     H44830   9.556   6.413   5.027 -0.6199 -0.8040  0.7984
  325MOL0     H44831   9.324   6.399   4.947 -1.9270 -1.3273 -0.4141
  325MOL0     H44832   9.019   6.349   4.778 -0.1684  1.3098 -2.9686
  325MOL0     H44833   8.770   6.369   4.754  1.4777  0.7464  2.2943
  325MOL0     H44834   9.492   6.827   3.956  0.5640 -0.1127  1.7929
  325MOL0     H44835   9.660   6.938   4.088 -0.3021  2.2793 -0.0149
  325MOL0     H44836   9.907   7.181   4.223 -1.6219  0.8011  0.1886
  325MOL0     H44837  10.102   7.255   4.361 -0.4836  0.3772 -2.3878
  325MOL0     H44838  10.256   7.321   4.689 -0.5156  0.9513  0.1860
  325MOL0     H44839  10.179   7.203   4.572 -2.9071  0.5080 -0.0896
  325MOL0     H44840  10.280   7.384   4.408 -0.7621 -2.3003  0.3681
  325MOL0     H44841  10.395   7.260   4.468 -1.4869 -0.9986 -1.5505
  325MOL0     H44842  10.365   7.542   4.560  0.7754  0.4813  0.3384
  325MOL0     H44843  10.460   7.420   4.653 -1.0840 -3.0726 -0.6771
  325MOL0     H44844  10.612   7.570   4.500  2.8907 -1.6844  0.0753
  325MOL0     H44845  10.515   7.518   4.375 -1.6193  0.7151  2.2505
  325MOL0     H44846  10.807   7.204   4.432 -1.1300 -1.2768 -1.6344
  325MOL0     H44847   9.872   7.509   4.591 -2.6432 -3.0731  1.4505
  325MOL0     H44848   9.621   7.515   4.571 -1.5760  0.6554 -0.6999
  325MOL0     H44849   9.618   7.564   4.408  2.1079 -1.4191 -2.1846
  325MOL0     H44850   9.567   7.390   4.451  1.6477 -2.3481  0.8548
  326MOL0     O44851   9.407   5.296   8.921  1.0576  0.2140 -0.5323
  326MOL0     C44852   9.403   5.181   8.965 -0.1971  0.2110 -0.2063
  326MOL0     O44853   9.510   5.117   9.031  0.2550  0.2293 -0.7358
  326MOL0     C44854   9.635   5.167   9.007 -0.2328  0.4013 -1.1356
  326MOL0     C44855   9.693   5.255   9.101 -0.8853  0.7473 -0.2642
  326MOL0     C44856   9.823   5.305   9.068  0.1436  0.1353 -0.5654
  326MOL0     C44857   9.885   5.282   8.948  0.0677  0.1480 -0.4927
  326MOL0     O44858   9.992   5.357   8.927 -0.4520  0.2670  0.0903
  326MOL0     C44859  10.076   5.308   8.820  0.9086  0.4625 -0.3834
  326MOL0     C44860  10.221   5.354   8.839  0.9194 -0.8513  0.4275
  326MOL0     C44861  10.313   5.318   8.728 -0.5078  0.6841 -0.0583
  326MOL0     C44862  10.458   5.338   8.781 -0.0690  0.1923 -0.7967
  326MOL0     C44863  10.572   5.267   8.700  0.5074  0.6627  0.2639
  326MOL0     C44864  10.713   5.286   8.756  0.7132 -0.5870  0.5795
  326MOL0     C44865  10.824   5.225   8.661  0.4387 -0.8533  0.2220
  326MOL0     C44866  10.963   5.235   8.720 -0.5190 -0.5481 -0.1223
  326MOL0     N44867  11.010   5.365   8.766 -0.1479 -0.2064 -0.8014
  326MOL0     C44868  11.056   5.463   8.683  0.2973 -0.0504 -0.7245
  326MOL0     C44869  11.091   5.568   8.756 -0.0093 -0.6489 -0.0755
  326MOL0     C44870  11.161   5.692   8.708  0.2085 -0.1158 -0.3432
  326MOL0     C44871  11.305   5.684   8.758  0.0297 -0.3107 -0.2815
  326MOL0     C44872  11.395   5.602   8.659 -0.0438  0.1096  0.2273
  326MOL0     C44873  11.546   5.597   8.711 -0.4458  0.6685  1.0217
  326MOL0     O44874  11.609   5.724   8.697  0.3647  0.6328 -0.0325
  326MOL0     C44875  11.716   5.760   8.773 -0.9853  0.4883 -0.5180
  326MOL0     C44876  11.774   5.691   8.887  0.5370  0.3025 -0.0292
  326MOL0     C44877  11.881   5.740   8.971  0.9930  0.1893 -0.3443
  326MOL0     C44878  11.925   5.649   9.083 -0.2495  0.4355  0.8963
  326MOL0     C44879  11.944   5.856   8.943 -0.2846 -0.0396 -0.4031
  326MOL0     C44880  12.050   5.919   9.017  0.0037 -0.7858  1.2167
  326MOL0     O44881  12.058   5.916   9.151  0.3998 -0.1526  0.1036
  326MOL0     C44882  12.165   5.982   9.207  0.0242  0.1711 -0.0419
  326MOL0     C44883  12.155   6.124   9.229 -0.1637 -0.2347  0.1492
  326MOL0     C44884  12.265   6.182   9.296 -0.6809  0.4117  0.5785
  326MOL0     C44885  12.379   6.115   9.336  0.2002  0.5228 -0.4260
  326MOL0     O44886  12.489   6.170   9.406  0.8845 -0.7279  0.0806
  326MOL0     C44887  12.522   6.306   9.378  0.1277 -0.0856 -0.8798
  326MOL0     C44888  12.662   6.348   9.441 -0.1635 -0.2616  0.1632
  326MOL0     C44889  12.670   6.341   9.595  0.2230  0.4486 -0.3183
  326MOL0     C44890  12.809   6.376   9.658  0.2274 -0.2425  0.0064
  326MOL0     C44891  12.850   6.280   9.776 -0.5736 -0.5480  0.6809
  326MOL0     C44892  12.991   6.280   9.819 -0.4163 -0.1408 -0.4685
  326MOL0     C44893  13.014   6.375   9.941 -0.7663  0.1156  0.1681
  326MOL0     C44894  13.158   6.355   9.989 -0.0897 -0.9113 -0.7964
  326MOL0    Cl44895  13.261   6.430   9.858  0.2068 -0.0904 -0.1152
  326MOL0     C44896  12.377   5.977   9.318 -0.0706  0.6286 -0.9197
  326MOL0     C44897  12.272   5.907   9.262  0.0310 -0.3885 -1.3646
  326MOL0     O44898  12.128   5.962   8.944  0.1046 -0.5474 -1.3351
  326MOL0     C44899  11.884   5.932   8.834  0.7292 -0.3438 -0.3482
  326MOL0     C44900  11.768   5.885   8.760 -0.5812 -0.3198  0.4564
  326MOL0     N44901  11.052   5.535   8.881 -0.0246 -0.9387 -0.4926
  326MOL0     N44902  10.992   5.420   8.894  0.6255  0.0941  0.0341
  326MOL0     C44903   9.820   5.203   8.852  1.5818  0.8161 -0.4623
  326MOL0     C44904   9.701   5.139   8.888 -0.0052  0.6391  0.3941
  326MOL0     C44905   9.272   5.109   8.948  0.2654 -0.5510 -0.0854
  326MOL0     C44906   9.161   5.186   8.950 -0.0365 -0.1949  0.1482
  326MOL0     C44907   9.036   5.132   8.921 -0.4223 -0.1574  0.1097
  326MOL0     C44908   9.011   5.004   8.892 -0.0196  0.6607 -0.7075
  326MOL0     O44909   8.898   4.960   8.842 -0.1846 -0.9862  0.4049
  326MOL0     C44910   8.793   4.953   8.940 -0.6872 -0.0753 -0.5439
  326MOL0     C44911   8.682   4.854   8.892 -0.2527 -0.4276  0.1607
  326MOL0     C44912   8.654   4.897   8.744 -1.0364 -0.3709 -0.6302
  326MOL0     C44913   8.540   4.816   8.681 -0.0985 -0.9366 -0.3581
  326MOL0     C44914   8.544   4.823   8.531  0.3944 -0.3516 -0.8307
  326MOL0     C44915   8.561   4.847   8.413 -0.2593 -1.2628  0.5335
  326MOL0     C44916   9.124   4.915   8.901 -0.5358 -0.5847  0.4597
  326MOL0     C44917   9.257   4.970   8.922  0.5478 -0.3288 -0.7331
  326MOL0     C44918   9.375   4.871   8.919 -0.9555 -0.3412  0.1228
  326MOL0     H44919   9.647   5.292   9.191  0.5239  3.7855 -0.6816
  326MOL0     H44920   9.878   5.364   9.141  0.8554  0.4533 -1.3413
  326MOL0     H44921  10.034   5.348   8.726  0.1884 -1.1671 -0.7929
  326MOL0     H44922  10.068   5.200   8.809  0.2539  0.6432 -2.2000
  326MOL0     H44923  10.219   5.463   8.847 -3.1882 -0.9108  3.3339
  326MOL0     H44924  10.262   5.319   8.935  2.7745 -2.9942 -1.0494
  326MOL0     H44925  10.291   5.212   8.712 -0.6426  1.0216 -2.4423
  326MOL0     H44926  10.280   5.372   8.639 -3.0112 -3.5613 -1.9908
  326MOL0     H44927  10.478   5.445   8.772  1.9269 -0.1545 -0.9487
  326MOL0     H44928  10.471   5.321   8.888  0.2472  2.2681 -0.4635
  326MOL0     H44929  10.568   5.296   8.595  3.2147 -1.4503 -0.5336
  326MOL0     H44930  10.545   5.161   8.691 -2.4690  1.2179  1.3078
  326MOL0     H44931  10.720   5.395   8.766  2.9733 -0.7907  2.0297
  326MOL0     H44932  10.724   5.250   8.858  1.0953 -1.5007  0.2314
  326MOL0     H44933  10.837   5.260   8.558  2.2683  1.7305  1.2194
  326MOL0     H44934  10.783   5.124   8.666 -3.7354  0.6788  0.8240
  326MOL0     H44935  10.957   5.171   8.809  2.0237 -1.6892 -0.6902
  326MOL0     H44936  11.031   5.199   8.642  1.1567  3.1550 -0.5922
  326MOL0     H44937  11.073   5.465   8.576  1.5567  1.5314 -0.5257
  326MOL0     H44938  11.125   5.790   8.741 -2.1144 -0.2879 -2.1216
  326MOL0     H44939  11.154   5.693   8.599 -0.3798 -0.2000 -0.3073
  326MOL0     H44940  11.349   5.780   8.785  2.3203 -1.6617  1.1114
  326MOL0     H44941  11.298   5.637   8.857  1.6297 -0.6539 -0.3045
  326MOL0     H44942  11.349   5.503   8.653 -0.5936  0.0865  3.3158
  326MOL0     H44943  11.412   5.653   8.564  2.6822 -1.3596 -0.1638
  326MOL0     H44944  11.552   5.566   8.816  2.2514  0.3862  0.8621
  326MOL0     H44945  11.592   5.527   8.641  0.2808  1.5055  0.6348
  326MOL0     H44946  11.731   5.594   8.911 -1.2878  1.1009  0.0894
  326MOL0     H44947  11.927   5.688   9.185  0.7926  1.2696  0.5865
  326MOL0     H44948  12.031   5.625   9.071  0.1004  2.8357 -2.0581
  326MOL0     H44949  11.871   5.554   9.076 -0.0117  0.4391 -2.6010
  326MOL0     H44950  12.066   6.183   9.208  0.1125  0.0535 -0.2261
  326MOL0     H44951  12.269   6.291   9.305  3.0468  0.2280  3.5302
  326MOL0     H44952  12.529   6.321   9.270  0.0403  0.3904 -0.8231
  326MOL0     H44953  12.447   6.364   9.433  2.6245  2.2956  0.2703
  326MOL0     H44954  12.748   6.292   9.401  0.5984  0.9135  0.0994
  326MOL0     H44955  12.684   6.450   9.407  0.1414 -1.3301 -3.2913
  326MOL0     H44956  12.627   6.248   9.634 -2.5417  2.8770  3.1263
  326MOL0     H44957  12.596   6.415   9.630 -0.7097 -0.4601 -0.3259
  326MOL0     H44958  12.805   6.472   9.711  0.4180 -1.8020  3.0783
  326MOL0     H44959  12.890   6.383   9.584 -0.2925  2.3211 -0.4026
  326MOL0     H44960  12.781   6.299   9.859 -0.5639 -0.6832  0.7205
  326MOL0     H44961  12.824   6.177   9.748 -1.8796  0.2734 -1.3760
  326MOL0     H44962  13.052   6.313   9.735  3.0884  0.5440  2.1119
  326MOL0     H44963  13.023   6.178   9.843  2.7410  0.9800  0.6163
  326MOL0     H44964  12.938   6.359  10.017 -0.8632 -0.9684 -0.1385
  326MOL0     H44965  13.009   6.480   9.908  0.7554  0.0410 -0.3801
  326MOL0     H44966  13.180   6.248   9.991  2.2809 -0.4903 -1.0264
  326MOL0     H44967  13.180   6.381  10.093 -2.4809  2.3705 -0.9304
  326MOL0     H44968  12.451   5.904   9.352 -1.8140 -0.9482 -0.3066
  326MOL0     H44969  12.264   5.800   9.245 -1.9634 -0.3445 -1.0311
  326MOL0     H44970  11.925   6.028   8.803  1.6768 -1.0090 -1.2251
  326MOL0     H44971  11.737   5.962   8.690 -0.8328 -0.6604  0.1939
  326MOL0     H44972   9.873   5.161   8.767  3.3574 -2.2156  1.8962
  326MOL0     H44973   9.647   5.083   8.811  0.3909  1.9593 -0.8777
  326MOL0     H44974   9.156   5.294   8.950 -0.7915 -0.1971  1.5441
  326MOL0     H44975   8.950   5.190   8.890  0.6054  0.5348 -1.5269
  326MOL0     H44976   8.837   4.924   9.036 -1.3419 -0.4878 -0.3619
  326MOL0     H44977   8.751   5.053   8.955 -0.8474 -0.3026  0.5952
  326MOL0     H44978   8.593   4.863   8.954 -0.5520 -3.0997  0.2598
  326MOL0     H44979   8.716   4.751   8.911  1.5164  0.2469  0.8570
  326MOL0     H44980   8.645   5.005   8.731  0.9684 -0.2022 -1.0652
  326MOL0     H44981   8.741   4.879   8.680  0.4240  1.8912  0.5616
  326MOL0     H44982   8.442   4.854   8.711  0.9691 -0.3281  2.7838
  326MOL0     H44983   8.548   4.710   8.710 -1.1861 -1.3128 -1.3822
  326MOL0     H44984   8.587   4.858   8.309  2.1146 -0.9310  1.1007
  326MOL0     H44985   9.114   4.819   8.852 -3.4093 -0.9071  1.4910
  326MOL0     H44986   9.407   4.834   9.017 -0.9404 -0.5676  0.0325
  326MOL0     H44987   9.355   4.782   8.860 -0.3876 -1.7422  1.9575
  326MOL0     H44988   9.466   4.923   8.886 -0.3594  1.2374  3.7804
  327MOL0     O44989   4.136   8.488   4.886  0.2349  0.1161  0.0829
  327MOL0     C44990   4.074   8.438   4.984 -0.1177 -0.5759 -0.2927
  327MOL0     O44991   4.131   8.442   5.109 -0.2317 -0.3655 -0.0466
  327MOL0     C44992   4.198   8.556   5.151  1.2212  0.2070  0.0949
  327MOL0     C44993   4.167   8.682   5.103 -0.0683 -0.6846 -0.3111
  327MOL0     C44994   4.239   8.798   5.138 -0.6131  0.2401 -0.0856
  327MOL0     C44995   4.342   8.785   5.225  0.2120 -0.4766  0.4860
  327MOL0     O44996   4.400   8.899   5.266  0.2169  0.9640 -0.1773
  327MOL0     C44997   4.434   8.923   5.400  0.8689 -0.2449  0.2402
  327MOL0     C44998   4.507   9.047   5.433  0.2796  0.3029 -0.0935
  327MOL0     C44999   4.615   9.095   5.339  0.5554  1.4927  0.7123
  327MOL0     C45000   4.701   9.188   5.416 -0.9205 -0.2541  1.3322
  327MOL0     C45001   4.841   9.201   5.339 -0.7009 -0.4714 -1.2580
  327MOL0     C45002   4.827   9.251   5.193  0.0087  0.0667  0.1393
  327MOL0     C45003   4.960   9.252   5.111  0.0917  0.1428  0.5612
  327MOL0     C45004   4.924   9.299   4.968 -0.2030 -0.4394 -0.6023
  327MOL0     N45005   4.893   9.443   4.971  0.0448  0.5286  0.1572
  327MOL0     C45006   4.780   9.521   4.975 -0.3426  0.2177  0.6481
  327MOL0     C45007   4.829   9.647   4.993  0.7467 -0.3896  0.6320
  327MOL0     C45008   4.745   9.767   5.032  0.0483  0.4665  0.4983
  327MOL0     C45009   4.759   9.822   5.173 -0.3771  0.2448 -0.1909
  327MOL0     C45010   4.902   9.852   5.226 -0.8227 -0.1702  0.3079
  327MOL0     C45011   4.984   9.945   5.142  0.1437  0.3915 -0.1868
  327MOL0     O45012   4.921  10.069   5.130 -0.9012 -0.4334  0.2150
  327MOL0     C45013   4.993  10.170   5.062  1.0280  0.0738  0.4013
  327MOL0     C45014   4.930  10.287   5.020 -0.2324 -0.0577 -0.6215
  327MOL0     C45015   4.987  10.383   4.935  1.0437 -0.9554 -0.8126
  327MOL0     C45016   4.910  10.509   4.908 -0.3397  0.6239  0.3990
  327MOL0     C45017   5.104  10.353   4.863 -0.0122  0.5347  0.3585
  327MOL0     C45018   5.172  10.441   4.762 -0.1880 -0.7883 -0.9666
  327MOL0     O45019   5.172  10.580   4.784 -0.3698 -0.4273  0.4375
  327MOL0     C45020   5.234  10.656   4.681 -1.1674 -0.2554 -0.3219
  327MOL0     C45021   5.215  10.635   4.545 -0.5848 -0.1059 -0.4524
  327MOL0     C45022   5.285  10.713   4.453  0.1667 -0.8222 -0.8789
  327MOL0     C45023   5.358  10.821   4.492  0.2265 -0.1320  0.9991
  327MOL0     O45024   5.404  10.907   4.395 -0.4157 -0.1668  0.3902
  327MOL0     C45025   5.426  11.044   4.433 -0.3586  0.4140  0.5158
  327MOL0     C45026   5.575  11.073   4.450 -0.3029 -0.1293 -0.8776
  327MOL0     C45027   5.642  11.048   4.316  0.0625  0.2074 -0.9227
  327MOL0     C45028   5.796  11.067   4.327 -0.3437  0.5363  0.8972
  327MOL0     C45029   5.852  11.200   4.380 -0.0684 -0.0692  0.1333
  327MOL0     C45030   6.008  11.189   4.379  0.2317 -0.7884  0.2357
  327MOL0     C45031   6.062  11.331   4.413  0.0294 -0.7181  0.4902
  327MOL0     C45032   6.039  11.399   4.553 -0.5881 -0.4339 -0.2516
  327MOL0    Cl45033   6.111  11.314   4.696 -0.0750 -0.1014 -0.3112
  327MOL0     C45034   5.391  10.836   4.631  0.4822  1.0467  0.6625
  327MOL0     C45035   5.328  10.756   4.724 -0.1088 -1.0653  0.9078
  327MOL0     O45036   5.225  10.384   4.670 -0.9354  0.0560 -0.1113
  327MOL0     C45037   5.170  10.237   4.900  0.9727 -0.8673  0.0064
  327MOL0     C45038   5.114  10.149   4.989  0.2513  0.7690  0.8082
  327MOL0     N45039   4.965   9.657   4.966  0.8008 -0.6340  0.2249
  327MOL0     N45040   5.001   9.528   4.958 -0.0273 -1.1460 -0.4008
  327MOL0     C45041   4.374   8.661   5.287 -0.3977  0.1665  0.5762
  327MOL0     C45042   4.300   8.550   5.247  1.1135 -0.4511  1.0167
  327MOL0     C45043   3.960   8.351   4.961 -0.3740 -0.4281  0.8469
  327MOL0     C45044   3.925   8.252   5.056  0.1222 -0.1314 -0.1485
  327MOL0     C45045   3.844   8.133   5.025  0.6099 -0.3433 -1.2448
  327MOL0     C45046   3.785   8.128   4.904  0.5209 -0.3101  0.9437
  327MOL0     O45047   3.707   8.023   4.850 -0.6040 -0.3449  1.0641
  327MOL0     C45048   3.642   7.938   4.949 -0.2984 -0.3365  0.8892
  327MOL0     C45049   3.722   7.821   5.009 -0.3080  0.3776  0.1787
  327MOL0     C45050   3.787   7.744   4.896 -0.2722  0.4268  0.3373
  327MOL0     C45051   3.841   7.606   4.940 -0.7989 -1.0049  0.8722
  327MOL0     C45052   3.966   7.626   5.016 -0.0746 -0.4981 -0.2143
  327MOL0     C45053   4.074   7.657   5.064 -0.2137 -0.4855 -0.0623
  327MOL0     C45054   3.808   8.226   4.811  0.0771  0.0360  0.7853
  327MOL0     C45055   3.890   8.337   4.837 -0.1934 -0.1803 -0.5512
  327MOL0     C45056   3.920   8.428   4.721 -0.0165  0.0578 -0.0191
  327MOL0     H45057   4.092   8.706   5.029 -2.1306 -0.1396  1.8368
  327MOL0     H45058   4.199   8.875   5.072 -2.7288 -2.9465 -2.8518
  327MOL0     H45059   4.487   8.835   5.438 -1.4304 -2.8805 -2.1706
  327MOL0     H45060   4.333   8.920   5.443 -0.3844 -1.4488 -2.5299
  327MOL0     H45061   4.423   9.116   5.445 -0.2067 -0.3087  0.0276
  327MOL0     H45062   4.542   9.037   5.536  0.6052 -0.0924 -0.2409
  327MOL0     H45063   4.679   9.011   5.311 -0.9733  0.2482  0.8084
  327MOL0     H45064   4.576   9.128   5.242 -2.7959  1.0140  1.7784
  327MOL0     H45065   4.652   9.282   5.441  3.1079  2.3513  0.2125
  327MOL0     H45066   4.732   9.156   5.516 -0.9004  1.6169  1.9509
  327MOL0     H45067   4.894   9.106   5.349  2.2263  1.1860  0.2686
  327MOL0     H45068   4.900   9.272   5.398 -0.9818 -2.6314  1.8900
  327MOL0     H45069   4.750   9.195   5.139  0.9901 -0.2990 -0.9493
  327MOL0     H45070   4.795   9.354   5.210 -0.1488 -0.0436  0.4944
  327MOL0     H45071   4.986   9.148   5.089 -0.5043 -0.1826  1.3665
  327MOL0     H45072   5.039   9.314   5.154 -1.2860  2.5660 -0.2143
  327MOL0     H45073   5.014   9.293   4.907  2.4375  1.0585  2.7664
  327MOL0     H45074   4.846   9.233   4.929  0.1502 -1.8402  0.9474
  327MOL0     H45075   4.676   9.491   4.979 -0.2166 -0.4030 -0.5169
  327MOL0     H45076   4.638   9.745   5.018  0.2869  0.7375 -2.1915
  327MOL0     H45077   4.768   9.842   4.956 -2.0051  0.5802 -0.0779
  327MOL0     H45078   4.695   9.910   5.186 -0.4564 -0.0603  1.7340
  327MOL0     H45079   4.723   9.747   5.243 -3.0016  3.0310  1.7258
  327MOL0     H45080   4.903   9.893   5.327  2.0595  0.3280  0.1550
  327MOL0     H45081   4.952   9.756   5.235  2.2834  1.2911 -0.1109
  327MOL0     H45082   5.086   9.954   5.181  1.2702 -3.4158 -1.8091
  327MOL0     H45083   5.010   9.904   5.044 -0.0122 -2.0231  0.7156
  327MOL0     H45084   4.829  10.306   5.056  0.5273  3.9868 -0.1957
  327MOL0     H45085   4.891  10.500   4.801 -2.4134 -2.3135  0.9020
  327MOL0     H45086   4.970  10.594   4.940  0.4827 -0.2222  1.1785
  327MOL0     H45087   4.813  10.512   4.959  0.3230 -1.3878  1.9002
  327MOL0     H45088   5.139  10.566   4.509 -0.5966  1.8409 -4.7689
  327MOL0     H45089   5.255  10.701   4.349  0.7822  1.7020 -1.4085
  327MOL0     H45090   5.394  11.105   4.348  5.4710  1.1684 -1.5957
  327MOL0     H45091   5.371  11.082   4.520 -0.5432  1.2556  0.0433
  327MOL0     H45092   5.597  11.174   4.483 -3.2324  0.2568  0.1091
  327MOL0     H45093   5.622  11.005   4.522 -1.1438 -1.5101 -1.5703
  327MOL0     H45094   5.597  11.119   4.248 -3.0092 -1.2892 -0.6212
  327MOL0     H45095   5.613  10.948   4.281 -2.7385  0.4591  0.4110
  327MOL0     H45096   5.844  11.050   4.231  3.4515 -0.5017  2.7671
  327MOL0     H45097   5.840  10.985   4.386 -2.8070 -1.1935  0.4727
  327MOL0     H45098   5.809  11.282   4.322 -2.5144 -0.2279  1.6034
  327MOL0     H45099   5.813  11.225   4.479 -0.7472  0.7831 -0.3366
  327MOL0     H45100   6.049  11.160   4.282  1.5901  1.0719  0.1909
  327MOL0     H45101   6.043  11.118   4.454  0.0159  0.2496  1.3567
  327MOL0     H45102   6.035  11.394   4.328 -0.9031  0.0281  1.3145
  327MOL0     H45103   6.171  11.331   4.404  0.2195  1.9848  1.9218
  327MOL0     H45104   5.933  11.422   4.572  0.3108  2.8664  1.6505
  327MOL0     H45105   6.091  11.496   4.552  2.0673 -1.6991  2.0963
  327MOL0     H45106   5.450  10.925   4.652  1.7488  1.0501 -2.3347
  327MOL0     H45107   5.323  10.778   4.830  1.8581  0.0966  0.8277
  327MOL0     H45108   5.261  10.209   4.847  0.2591  0.2428 -1.9146
  327MOL0     H45109   5.168  10.055   5.000  0.3067  0.5918 -0.7082
  327MOL0     H45110   4.463   8.660   5.350  0.1277  0.5128 -0.1500
  327MOL0     H45111   4.324   8.457   5.297 -0.0983  0.7642  4.1663
  327MOL0     H45112   3.964   8.259   5.157  0.8981 -2.2497 -0.2416
  327MOL0     H45113   3.836   8.072   5.114 -0.6339  2.2039  0.5206
  327MOL0     H45114   3.599   7.996   5.031 -2.6609 -0.9759  0.1845
  327MOL0     H45115   3.555   7.896   4.898 -1.1797  0.7258  1.4657
  327MOL0     H45116   3.657   7.748   5.058 -0.5124  1.8996  2.3075
  327MOL0     H45117   3.801   7.856   5.077 -0.9017  1.4601  0.3381
  327MOL0     H45118   3.709   7.725   4.822 -1.4479 -6.2960  2.5919
  327MOL0     H45119   3.865   7.812   4.861 -0.9183  1.9348  1.7263
  327MOL0     H45120   3.860   7.544   4.852  1.8644 -0.6770  1.1311
  327MOL0     H45121   3.770   7.547   4.998 -1.8434 -0.6627 -0.0221
  327MOL0     H45122   4.164   7.690   5.112  0.3535  2.5267 -2.8332
  327MOL0     H45123   3.766   8.216   4.712  2.9645 -1.3785 -0.4165
  327MOL0     H45124   3.845   8.434   4.641 -0.4642  1.9273  0.4997
  327MOL0     H45125   3.904   8.529   4.759 -4.2495 -0.0181 -1.0986
  327MOL0     H45126   4.020   8.417   4.677  1.5904  4.1003  2.1723
  328MOL0     O45127   3.701   2.765   5.852  0.0457 -0.1813  0.8621
  328MOL0     C45128   3.712   2.653   5.800  0.8960 -0.4821  0.5366
  328MOL0     O45129   3.803   2.557   5.834  0.4682 -0.0964  0.0474
  328MOL0     C45130   3.921   2.604   5.885 -0.4079  0.4255 -0.1349
  328MOL0     C45131   3.928   2.667   6.006 -0.8331  0.1236  0.2459
  328MOL0     C45132   4.049   2.728   6.042  0.4539  1.1885 -0.2300
  328MOL0     C45133   4.169   2.714   5.967  0.1082 -0.1092 -0.2581
  328MOL0     O45134   4.285   2.780   6.002 -0.1555  0.2310 -0.1869
  328MOL0     C45135   4.400   2.703   6.042  1.2464  0.2985 -1.3227
  328MOL0     C45136   4.396   2.685   6.192 -0.2903  0.1054  0.7900
  328MOL0     C45137   4.412   2.816   6.271  0.0854 -0.2420 -0.8630
  328MOL0     C45138   4.441   2.788   6.420  0.5841  1.0978  0.4779
  328MOL0     C45139   4.472   2.911   6.493 -0.0568  0.3745  0.0759
  328MOL0     C45140   4.499   2.876   6.643 -0.6035 -1.2994  0.6826
  328MOL0     C45141   4.601   2.768   6.674  1.1143 -0.0776 -0.4305
  328MOL0     C45142   4.597   2.730   6.824  0.3938  0.4727 -0.2805
  328MOL0     N45143   4.691   2.614   6.851  0.4959 -0.3649 -0.1226
  328MOL0     C45144   4.829   2.619   6.811  0.3786 -0.1696  0.7409
  328MOL0     C45145   4.871   2.494   6.830  0.1621 -0.1068 -1.3599
  328MOL0     C45146   5.000   2.430   6.817 -0.9960  0.4886 -0.0984
  328MOL0     C45147   5.100   2.442   6.938 -0.2978 -0.7181  0.5046
  328MOL0     C45148   5.214   2.348   6.912 -0.1171  0.2575  0.3906
  328MOL0     C45149   5.349   2.388   6.971 -0.2675  0.5580  0.2730
  328MOL0     O45150   5.412   2.491   6.894  0.6975 -0.0309 -0.2203
  328MOL0     C45151   5.547   2.497   6.905  0.1861 -0.3576  0.3305
  328MOL0     C45152   5.596   2.575   7.008  1.1865 -0.0769 -0.1264
  328MOL0     C45153   5.735   2.590   7.022 -0.5240 -0.2221 -0.0366
  328MOL0     C45154   5.778   2.658   7.155 -0.1145 -0.3977 -0.2699
  328MOL0     C45155   5.829   2.532   6.927  1.0144 -0.3533  0.2493
  328MOL0     C45156   5.979   2.531   6.932  0.7164 -0.4434  0.3428
  328MOL0     O45157   6.051   2.493   6.825  1.3131 -0.1974  0.3990
  328MOL0     C45158   6.182   2.452   6.838 -0.5371  0.3975 -0.0656
  328MOL0     C45159   6.284   2.544   6.844 -1.6339 -0.4982 -0.2968
  328MOL0     C45160   6.419   2.494   6.856  0.9908 -1.3158 -0.2992
  328MOL0     C45161   6.439   2.356   6.885 -0.6064 -0.2371  0.0762
  328MOL0     O45162   6.570   2.321   6.899  0.4489  0.8550  0.4179
  328MOL0     C45163   6.603   2.179   6.912 -0.2873  0.4336 -0.0693
  328MOL0     C45164   6.744   2.158   6.959  0.0737  0.2215  0.9612
  328MOL0     C45165   6.779   2.229   7.085 -0.6352  0.6461 -1.2536
  328MOL0     C45166   6.929   2.225   7.107 -0.4820 -0.6610 -0.2130
  328MOL0     C45167   7.004   2.338   7.036  0.8794  0.6868 -0.1793
  328MOL0     C45168   7.163   2.332   7.042 -0.1794 -0.5790  0.1294
  328MOL0     C45169   7.227   2.209   6.977 -0.1942 -0.3173  0.7527
  328MOL0     C45170   7.216   2.223   6.823  0.0091  0.4483 -0.7064
  328MOL0    Cl45171   7.276   2.073   6.749 -0.1123 -0.0216  0.2373
  328MOL0     C45172   6.336   2.265   6.875 -0.1069  0.5705  0.3870
  328MOL0     C45173   6.208   2.312   6.843 -0.1855  0.0504 -0.2628
  328MOL0     O45174   6.025   2.558   7.043 -0.3508 -0.3216 -0.3258
  328MOL0     C45175   5.780   2.462   6.819 -0.1446  0.5051  0.3335
  328MOL0     C45176   5.641   2.440   6.813 -0.0233  0.9803 -0.3178
  328MOL0     N45177   4.773   2.422   6.887 -0.8973 -0.5767  0.3209
  328MOL0     N45178   4.667   2.493   6.903  0.6808  0.0395  0.8029
  328MOL0     C45179   4.167   2.648   5.842 -0.6688  0.7253  0.7133
  328MOL0     C45180   4.036   2.598   5.810  0.2184  0.2293 -0.6638
  328MOL0     C45181   3.614   2.616   5.699  0.3562  0.4192  0.9162
  328MOL0     C45182   3.608   2.481   5.652 -0.0205 -0.0405  0.2379
  328MOL0     C45183   3.536   2.448   5.536  0.3536  0.4481 -0.1816
  328MOL0     C45184   3.438   2.541   5.485 -0.4381 -0.1966 -0.0861
  328MOL0     O45185   3.382   2.493   5.372  0.4577  0.1923  0.5599
  328MOL0     C45186   3.261   2.553   5.343  0.6456  1.0351  0.2246
  328MOL0     C45187   3.188   2.485   5.228 -0.2514 -0.1512 -0.1359
  328MOL0     C45188   3.134   2.347   5.263 -0.2145 -0.3844  0.3991
  328MOL0     C45189   3.033   2.354   5.380  0.8470 -0.6636  0.5687
  328MOL0     C45190   2.890   2.398   5.345 -0.1275 -0.3672  0.0711
  328MOL0     C45191   2.772   2.443   5.331  0.1964  0.0822 -1.2314
  328MOL0     C45192   3.434   2.670   5.545 -0.5838  0.3465  0.0076
  328MOL0     C45193   3.516   2.709   5.652  0.1802  1.1313  0.1828
  328MOL0     C45194   3.477   2.839   5.713 -0.4736  0.5199  0.4171
  328MOL0     H45195   3.837   2.678   6.064 -1.5010 -0.8508 -0.5890
  328MOL0     H45196   4.064   2.769   6.141  0.6991 -1.8448  1.1032
  328MOL0     H45197   4.493   2.754   6.014  0.2756  2.5390 -0.6837
  328MOL0     H45198   4.392   2.607   5.991 -1.3972  0.7971 -1.9904
  328MOL0     H45199   4.297   2.643   6.213 -0.4154 -0.8352 -1.4185
  328MOL0     H45200   4.479   2.624   6.227  0.5066  0.7946  0.1379
  328MOL0     H45201   4.483   2.887   6.227  0.5502  0.5109  1.0151
  328MOL0     H45202   4.320   2.875   6.269  0.2061 -0.0502 -0.7726
  328MOL0     H45203   4.353   2.739   6.464  0.3635 -0.5554 -1.6349
  328MOL0     H45204   4.523   2.716   6.419  0.6816  1.1815 -1.1705
  328MOL0     H45205   4.392   2.986   6.491 -2.8074 -2.3552 -1.8124
  328MOL0     H45206   4.559   2.956   6.444  0.7406  0.2058  1.3160
  328MOL0     H45207   4.521   2.966   6.701 -0.1905 -0.3780 -0.8427
  328MOL0     H45208   4.398   2.850   6.677 -1.5205  0.5251 -0.4617
  328MOL0     H45209   4.704   2.800   6.660  1.7515 -1.7233  0.1972
  328MOL0     H45210   4.588   2.686   6.603  2.8892 -1.1622  0.4280
  328MOL0     H45211   4.619   2.818   6.885 -0.9376 -1.1450  2.7700
  328MOL0     H45212   4.496   2.696   6.849  1.6830 -3.3179  0.3721
  328MOL0     H45213   4.886   2.700   6.767 -0.1313  0.1655  0.6823
  328MOL0     H45214   5.043   2.471   6.725  1.3923 -1.9441 -0.1622
  328MOL0     H45215   4.984   2.324   6.798  0.4124  0.4146 -0.9634
  328MOL0     H45216   5.145   2.538   6.962 -0.9109 -0.8570  2.3465
  328MOL0     H45217   5.042   2.413   7.026 -0.0414  0.4247  1.0668
  328MOL0     H45218   5.192   2.244   6.938 -0.1864  0.1900  0.0680
  328MOL0     H45219   5.225   2.348   6.803  1.7355 -2.4650  0.4585
  328MOL0     H45220   5.329   2.404   7.077  0.1981 -0.7263  0.5731
  328MOL0     H45221   5.412   2.299   6.963  1.4565  1.8429 -1.4243
  328MOL0     H45222   5.528   2.612   7.083 -1.5205 -0.5091 -2.2177
  328MOL0     H45223   5.820   2.582   7.220 -1.9012 -1.8406 -0.7083
  328MOL0     H45224   5.695   2.706   7.207  1.6801  2.6763 -0.0244
  328MOL0     H45225   5.844   2.743   7.134 -4.0032  2.8747 -0.5810
  328MOL0     H45226   6.257   2.648   6.832 -4.0411 -0.8092  1.6658
  328MOL0     H45227   6.501   2.561   6.836 -1.4165  1.8959 -0.2191
  328MOL0     H45228   6.540   2.131   6.987 -0.0459 -1.0592 -0.7715
  328MOL0     H45229   6.586   2.125   6.818  0.5002 -3.0261  1.6128
  328MOL0     H45230   6.746   2.049   6.969 -0.2172 -0.0123 -0.9980
  328MOL0     H45231   6.816   2.184   6.880 -0.1346  1.2029  1.0798
  328MOL0     H45232   6.719   2.179   7.161 -0.5540 -1.4752 -2.5329
  328MOL0     H45233   6.760   2.337   7.088  3.1050  1.5028 -2.8057
  328MOL0     H45234   6.962   2.125   7.078  3.3411 -0.2392  2.0032
  328MOL0     H45235   6.960   2.226   7.212 -1.7916  0.3329  0.1899
  328MOL0     H45236   6.974   2.339   6.930 -0.6928  0.4500  0.2346
  328MOL0     H45237   6.969   2.437   7.069 -0.7174  0.9347 -2.3816
  328MOL0     H45238   7.184   2.335   7.149 -0.4500 -0.9453  0.1932
  328MOL0     H45239   7.217   2.421   7.008 -0.1453 -0.4889  0.4168
  328MOL0     H45240   7.194   2.119   7.029 -1.2151  0.4793  1.5403
  328MOL0     H45241   7.335   2.208   6.991 -0.4792 -3.1851  4.0767
  328MOL0     H45242   7.274   2.312   6.794  0.7100  0.8320  1.6613
  328MOL0     H45243   7.112   2.236   6.789  0.1363 -1.8549 -2.2354
  328MOL0     H45244   6.348   2.159   6.895 -1.3980  0.6262  1.6675
  328MOL0     H45245   6.139   2.229   6.851  2.3893 -2.3075 -1.0488
  328MOL0     H45246   5.835   2.399   6.750 -1.1824 -0.4003  0.3052
  328MOL0     H45247   5.602   2.380   6.732 -2.6214  0.0090  1.5155
  328MOL0     H45248   4.261   2.634   5.790 -0.8886 -1.9758  0.9070
  328MOL0     H45249   4.033   2.543   5.716  0.5777  0.2827 -0.7093
  328MOL0     H45250   3.679   2.405   5.681  0.8875 -0.1126 -2.0459
  328MOL0     H45251   3.545   2.351   5.488  0.7664  0.3996 -0.0188
  328MOL0     H45252   3.185   2.569   5.420 -1.4143 -1.7299 -1.0502
  328MOL0     H45253   3.285   2.650   5.298  1.3675 -0.7768 -3.6962
  328MOL0     H45254   3.258   2.478   5.143  1.8531 -1.3703  1.5904
  328MOL0     H45255   3.107   2.557   5.212 -1.2000 -0.2889  3.2496
  328MOL0     H45256   3.094   2.309   5.168 -1.3032  2.4531 -0.4087
  328MOL0     H45257   3.221   2.286   5.287 -0.2125  0.5108  2.9195
  328MOL0     H45258   3.068   2.407   5.470 -0.4469 -1.9528  1.8922
  328MOL0     H45259   3.015   2.251   5.412  0.8264 -1.1441 -0.9033
  328MOL0     H45260   2.669   2.471   5.328 -0.4224 -2.0210 -1.0087
  328MOL0     H45261   3.368   2.750   5.512  0.0163  0.2991 -1.3708
  328MOL0     H45262   3.560   2.910   5.703  0.1706 -0.4567 -1.8585
  328MOL0     H45263   3.399   2.897   5.662 -1.8570  2.1817  4.0682
  328MOL0     H45264   3.450   2.830   5.819 -0.6173 -0.0175  0.3348
  329MOL0     O45265   0.701   4.903   6.663  0.0065 -0.2258 -0.8434
  329MOL0     C45266   0.687   4.803   6.737 -0.4132 -0.1540  0.1553
  329MOL0     O45267   0.788   4.733   6.782 -0.3418  0.7200  0.2280
  329MOL0     C45268   0.896   4.710   6.708  0.3683  0.1693  0.5766
  329MOL0     C45269   0.900   4.634   6.585  1.0634 -0.0885  0.9724
  329MOL0     C45270   1.014   4.615   6.508  0.2144 -0.6732  0.3595
  329MOL0     C45271   1.127   4.686   6.558 -0.4080  0.2873  0.2448
  329MOL0     O45272   1.244   4.694   6.485  0.1914  0.8730  0.3755
  329MOL0     C45273   1.251   4.635   6.352 -0.7218 -0.0407 -0.3431
  329MOL0     C45274   1.284   4.484   6.352 -0.6172  0.6884  0.0699
  329MOL0     C45275   1.441   4.475   6.358 -0.7728  0.2712  0.0221
  329MOL0     C45276   1.484   4.328   6.402 -0.0245 -0.2870 -0.0014
  329MOL0     C45277   1.637   4.296   6.425 -0.2269 -0.3176  0.0286
  329MOL0     C45278   1.726   4.335   6.312 -0.2872  0.7193 -0.6496
  329MOL0     C45279   1.836   4.234   6.278 -0.8851 -0.7823 -0.7085
  329MOL0     C45280   1.907   4.252   6.142  0.3714 -0.0504  0.1012
  329MOL0     N45281   2.005   4.138   6.130 -0.3604  1.1600  0.7326
  329MOL0     C45282   2.003   4.042   6.033  1.0196 -1.1876  0.5987
  329MOL0     C45283   2.118   3.985   6.046 -0.5669  1.2422  0.2737
  329MOL0     C45284   2.181   3.866   5.982 -0.4589 -0.5805  0.3021
  329MOL0     C45285   2.281   3.896   5.866 -0.0148  0.3356 -0.6827
  329MOL0     C45286   2.357   3.760   5.836  0.8000  0.1287  0.0880
  329MOL0     C45287   2.457   3.773   5.737 -0.3804  0.7217 -0.2639
  329MOL0     O45288   2.562   3.873   5.762 -0.1841  0.0430  0.2658
  329MOL0     C45289   2.647   3.825   5.862 -0.4622 -1.2029  0.5020
  329MOL0     C45290   2.666   3.891   5.983 -0.7913  0.6187 -0.3875
  329MOL0     C45291   2.762   3.838   6.075 -0.0204  0.1306 -0.0731
  329MOL0     C45292   2.761   3.891   6.220 -0.3748 -0.2961 -0.0695
  329MOL0     C45293   2.850   3.736   6.037 -0.2434  0.4926 -0.1628
  329MOL0     C45294   2.962   3.673   6.108  0.4158 -0.1153  0.1536
  329MOL0     O45295   2.960   3.536   6.106 -0.0630 -0.1428 -0.0373
  329MOL0     C45296   3.037   3.471   6.196 -1.0512  0.0410  0.2824
  329MOL0     C45297   3.175   3.461   6.163 -0.4058 -0.2463  0.1029
  329MOL0     C45298   3.264   3.394   6.246  0.1874 -0.4728  0.5696
  329MOL0     C45299   3.231   3.342   6.370  0.1797  0.1524  0.7856
  329MOL0     O45300   3.338   3.303   6.449 -0.6398 -0.2285 -0.0180
  329MOL0     C45301   3.306   3.259   6.579  0.4806  1.1423  0.0253
  329MOL0     C45302   3.442   3.201   6.644  0.8653  0.3684  0.3424
  329MOL0     C45303   3.400   3.116   6.764 -0.2933  0.1090  0.5681
  329MOL0     C45304   3.524   3.050   6.841 -0.6174 -0.5867  0.4260
  329MOL0     C45305   3.468   2.966   6.961 -0.0012 -0.0014 -0.3416
  329MOL0     C45306   3.589   2.927   7.059  0.4235 -0.5773  0.7809
  329MOL0     C45307   3.544   2.839   7.167  1.0187 -0.2003  0.0270
  329MOL0     C45308   3.652   2.735   7.216  0.0435  0.1129  1.2760
  329MOL0    Cl45309   3.800   2.818   7.274  0.4570  0.4009 -0.1060
  329MOL0     C45310   3.091   3.358   6.408 -0.6330  0.6380  1.2472
  329MOL0     C45311   3.000   3.409   6.316  0.3189  0.4321 -0.0498
  329MOL0     O45312   3.029   3.742   6.177 -0.1335 -0.0395 -0.7322
  329MOL0     C45313   2.832   3.679   5.911 -0.0411  0.6431 -0.6803
  329MOL0     C45314   2.731   3.722   5.822 -0.1007 -0.4386  0.9791
  329MOL0     N45315   2.193   4.050   6.146 -0.3961  0.0590 -0.0526
  329MOL0     N45316   2.123   4.144   6.196 -0.3826 -0.4490  0.7808
  329MOL0     C45317   1.131   4.752   6.679  0.0482 -0.8599  0.1785
  329MOL0     C45318   1.017   4.758   6.748  0.2762  0.1875  0.4406
  329MOL0     C45319   0.541   4.768   6.764  0.2997 -0.1009  0.4798
  329MOL0     C45320   0.449   4.779   6.653 -0.1904 -0.7632  0.5656
  329MOL0     C45321   0.324   4.732   6.664  0.5221 -0.1610 -0.4594
  329MOL0     C45322   0.282   4.670   6.782  0.5927  0.4416 -1.1815
  329MOL0     O45323   0.153   4.628   6.789  0.3629  0.0329  0.0596
  329MOL0     C45324   0.096   4.568   6.912  0.0136 -0.7641 -0.2032
  329MOL0     C45325   0.140   4.426   6.951 -0.1332  0.2763 -0.4135
  329MOL0     C45326   0.132   4.398   7.102 -0.5398 -0.7312 -0.8917
  329MOL0     C45327   0.208   4.288   7.163 -0.2611 -0.2141 -0.7833
  329MOL0     C45328   0.173   4.279   7.312  0.3708  0.0430 -0.3061
  329MOL0     C45329   0.132   4.254   7.423 -0.1900 -0.2977  0.4279
  329MOL0     C45330   0.370   4.660   6.888 -0.2685  0.3433 -0.0221
  329MOL0     C45331   0.498   4.703   6.885 -0.0134 -0.3982 -0.2894
  329MOL0     C45332   0.593   4.662   7.002 -0.5347 -0.3800 -0.0257
  329MOL0     H45333   0.809   4.583   6.553  1.5534 -1.1901  1.2788
  329MOL0     H45334   1.028   4.535   6.436  0.7855  1.2923 -1.8566
  329MOL0     H45335   1.329   4.692   6.301  0.0537  0.2738  1.1282
  329MOL0     H45336   1.162   4.667   6.298 -3.1228 -1.5133  2.4632
  329MOL0     H45337   1.227   4.438   6.433 -3.2145 -1.3102 -2.6797
  329MOL0     H45338   1.251   4.421   6.269 -1.9531 -0.9270  1.7305
  329MOL0     H45339   1.483   4.500   6.261  0.0569  0.2258  0.3643
  329MOL0     H45340   1.487   4.544   6.429 -1.8713  1.5813 -0.4910
  329MOL0     H45341   1.433   4.293   6.492 -1.4360  1.7008  0.0338
  329MOL0     H45342   1.442   4.256   6.332 -2.4157  0.0412  1.0087
  329MOL0     H45343   1.635   4.188   6.439 -1.0233 -0.3795 -0.5536
  329MOL0     H45344   1.669   4.342   6.519 -1.5367  1.2645 -0.2628
  329MOL0     H45345   1.655   4.343   6.229 -0.0979  1.9199 -0.7244
  329MOL0     H45346   1.762   4.439   6.317  0.8449  0.4687 -2.6226
  329MOL0     H45347   1.802   4.130   6.276  0.1414 -1.2004  1.3973
  329MOL0     H45348   1.914   4.234   6.354  0.7386 -0.6688 -2.2904
  329MOL0     H45349   1.830   4.229   6.068 -1.3581  0.3197  1.7277
  329MOL0     H45350   1.951   4.351   6.130 -1.3255  0.6134 -0.9143
  329MOL0     H45351   1.918   4.025   5.969  1.6177 -2.2460  0.0505
  329MOL0     H45352   2.102   3.804   5.938 -0.3056 -1.1566  0.8148
  329MOL0     H45353   2.229   3.807   6.061  2.1351 -1.3116 -1.6778
  329MOL0     H45354   2.240   3.916   5.766  0.8556 -1.0323 -1.3455
  329MOL0     H45355   2.353   3.977   5.880 -0.5455  0.9757 -1.5284
  329MOL0     H45356   2.402   3.724   5.928 -2.4736  1.6347  2.5092
  329MOL0     H45357   2.279   3.696   5.794 -1.6529  1.1313  2.7284
  329MOL0     H45358   2.497   3.674   5.717  2.7213  1.7294  0.5099
  329MOL0     H45359   2.398   3.802   5.649  0.5479  1.9519 -0.5169
  329MOL0     H45360   2.588   3.964   6.002  0.0791  2.0797 -2.1191
  329MOL0     H45361   2.849   3.954   6.238  0.3434 -1.9986  2.9558
  329MOL0     H45362   2.738   3.816   6.296  0.3754 -0.9557 -0.4604
  329MOL0     H45363   2.680   3.963   6.229  0.9702  1.0916  1.4213
  329MOL0     H45364   3.200   3.505   6.067  0.4086  1.7887  1.1812
  329MOL0     H45365   3.368   3.385   6.214  0.3827  0.4742  0.8956
  329MOL0     H45366   3.267   3.347   6.631 -0.0827  0.7619  0.2541
  329MOL0     H45367   3.224   3.187   6.575  0.2578  1.4079 -0.1985
  329MOL0     H45368   3.493   3.133   6.575  0.5886 -0.1586  0.6510
  329MOL0     H45369   3.502   3.287   6.676  2.5070 -0.0787 -1.3821
  329MOL0     H45370   3.322   3.046   6.734 -1.2384  1.1504  0.5272
  329MOL0     H45371   3.346   3.171   6.842 -0.0521 -0.2295  0.9835
  329MOL0     H45372   3.585   3.131   6.881 -3.4575  2.0903 -0.2905
  329MOL0     H45373   3.593   2.990   6.780  2.3784  1.4924  1.5380
  329MOL0     H45374   3.388   3.016   7.016  0.5754 -1.0402  1.5607
  329MOL0     H45375   3.419   2.880   6.915  0.1894 -1.6073  2.2311
  329MOL0     H45376   3.640   3.016   7.099  0.8513 -0.8011  0.7368
  329MOL0     H45377   3.661   2.874   6.996 -2.4494 -1.4867 -1.9477
  329MOL0     H45378   3.460   2.778   7.131  1.6604 -4.0717  4.2016
  329MOL0     H45379   3.519   2.899   7.255  0.2360 -1.8432  0.9661
  329MOL0     H45380   3.680   2.665   7.136  0.2158  0.6983  0.8231
  329MOL0     H45381   3.610   2.683   7.302  0.1065  0.9571  1.8243
  329MOL0     H45382   3.049   3.339   6.506 -1.9636  0.9854  0.7581
  329MOL0     H45383   2.893   3.418   6.334 -0.4675 -1.6662 -2.8550
  329MOL0     H45384   2.907   3.604   5.887 -0.3112  0.0187  0.3684
  329MOL0     H45385   2.712   3.666   5.731 -0.6924  3.9076 -1.8437
  329MOL0     H45386   1.210   4.813   6.721 -1.8631  2.1767 -0.3061
  329MOL0     H45387   1.027   4.798   6.849  3.3439 -0.5909  0.5226
  329MOL0     H45388   0.484   4.824   6.561  1.4166 -1.2750  0.9025
  329MOL0     H45389   0.250   4.740   6.585  0.1696  0.3281 -0.0826
  329MOL0     H45390   0.119   4.633   6.997  0.9006 -1.3330 -0.0000
  329MOL0     H45391  -0.013   4.569   6.896 -0.1220 -1.2773  0.6372
  329MOL0     H45392   0.241   4.415   6.911  0.1409  2.6781 -0.5362
  329MOL0     H45393   0.071   4.357   6.901 -0.0711 -1.0439  1.2364
  329MOL0     H45394   0.178   4.488   7.144  0.7960 -1.0375 -1.6473
  329MOL0     H45395   0.026   4.382   7.127  0.0625 -3.3400  0.3222
  329MOL0     H45396   0.315   4.311   7.160  0.1684 -1.8938  0.2935
  329MOL0     H45397   0.194   4.193   7.111 -0.1154  0.7566 -2.6524
  329MOL0     H45398   0.092   4.250   7.522  0.1637 -0.9189  0.5521
  329MOL0     H45399   0.332   4.613   6.978  4.3024 -0.1131  1.9721
  329MOL0     H45400   0.655   4.579   6.968 -1.1319 -1.0170  0.4144
  329MOL0     H45401   0.666   4.744   7.004  1.0345 -1.7464  0.8269
  329MOL0     H45402   0.540   4.649   7.096  0.2393 -2.1422  0.2030
  330MOL0     O45403   8.518   7.569   1.953  0.3034  0.5322  0.1464
  330MOL0     C45404   8.472   7.684   1.953 -0.5164  0.0438 -0.0150
  330MOL0     O45405   8.451   7.767   2.058  0.5179 -0.2916  0.2047
  330MOL0     C45406   8.529   7.735   2.163 -0.1783 -0.4877 -0.4650
  330MOL0     C45407   8.495   7.628   2.246 -0.3986  0.1536 -0.3976
  330MOL0     C45408   8.561   7.594   2.359 -0.8879 -0.4170 -0.3752
  330MOL0     C45409   8.664   7.672   2.400 -0.4032 -0.3475 -0.3411
  330MOL0     O45410   8.711   7.646   2.527 -0.0004  0.2831  0.1780
  330MOL0     C45411   8.822   7.723   2.572 -0.1621  0.8972 -0.0112
  330MOL0     C45412   8.861   7.697   2.724  0.0616  0.8492  0.6331
  330MOL0     C45413   8.975   7.582   2.722 -0.2153  0.4979 -0.9567
  330MOL0     C45414   8.992   7.544   2.878  0.1020  0.0658  0.9498
  330MOL0     C45415   9.129   7.477   2.901  0.9133  0.8292  0.3972
  330MOL0     C45416   9.231   7.584   2.922  1.1863 -0.5997  0.4513
  330MOL0     C45417   9.233   7.633   3.063  0.3306  0.2756 -0.4789
  330MOL0     C45418   9.361   7.713   3.092 -0.2365  0.7132 -0.1965
  330MOL0     N45419   9.365   7.849   3.038 -0.3286 -1.0769  0.7353
  330MOL0     C45420   9.405   7.898   2.919  0.0069  0.1613 -0.1082
  330MOL0     C45421   9.381   8.033   2.921 -0.2487  0.7980  0.4744
  330MOL0     C45422   9.388   8.126   2.804 -0.3648  0.2816 -0.7045
  330MOL0     C45423   9.518   8.205   2.807  0.4548  0.0142 -0.5038
  330MOL0     C45424   9.496   8.328   2.700 -0.5774  0.6793  0.7097
  330MOL0     C45425   9.610   8.436   2.704  0.2627  0.5676  0.1785
  330MOL0     O45426   9.740   8.378   2.696 -0.5299 -0.3148  0.0037
  330MOL0     C45427   9.834   8.398   2.796 -0.6418 -0.2393  0.2542
  330MOL0     C45428   9.817   8.425   2.939  0.2503  0.0360  0.7257
  330MOL0     C45429   9.923   8.464   3.022  0.7354  1.0541  0.6024
  330MOL0     C45430   9.892   8.489   3.164 -0.8350  0.4267  0.0703
  330MOL0     C45431  10.053   8.473   2.966 -0.2855 -0.0912 -0.1933
  330MOL0     C45432  10.173   8.521   3.045 -0.1991 -0.2504  1.1235
  330MOL0     O45433  10.171   8.645   3.089 -0.3591 -0.9829 -0.7500
  330MOL0     C45434  10.260   8.661   3.189 -0.5716  0.5916 -0.0703
  330MOL0     C45435  10.391   8.704   3.154  0.6905  0.3805 -0.5519
  330MOL0     C45436  10.496   8.691   3.253  0.5502 -0.0544  0.4602
  330MOL0     C45437  10.460   8.657   3.385  0.5031  0.0812  0.7390
  330MOL0     O45438  10.560   8.650   3.479 -0.6450 -0.1382  0.8922
  330MOL0     C45439  10.540   8.739   3.589  0.4154 -0.4123 -0.0897
  330MOL0     C45440  10.637   8.687   3.700  0.2803  0.6426  1.0884
  330MOL0     C45441  10.786   8.690   3.674  0.1110 -0.6244 -0.0053
  330MOL0     C45442  10.859   8.805   3.741  0.3275  0.3961 -0.3244
  330MOL0     C45443  10.994   8.847   3.686 -1.3832  0.1987  0.1375
  330MOL0     C45444  11.094   8.729   3.690 -0.6138  0.2832 -0.5847
  330MOL0     C45445  11.152   8.699   3.831  0.7511  0.4647 -0.4971
  330MOL0     C45446  11.241   8.798   3.905 -0.5820  0.0238  0.0980
  330MOL0    Cl45447  11.380   8.870   3.815  0.3657 -0.2117 -0.1946
  330MOL0     C45448  10.318   8.629   3.414 -1.1437 -0.2052  0.0327
  330MOL0     C45449  10.222   8.643   3.314 -0.5233  0.0497 -0.6234
  330MOL0     O45450  10.256   8.436   3.068 -0.0525 -0.6413 -0.1447
  330MOL0     C45451  10.071   8.439   2.833  0.3122  0.1668  0.1239
  330MOL0     C45452   9.967   8.398   2.756 -0.3753 -0.5594  0.1968
  330MOL0     N45453   9.334   8.063   3.047 -0.6468 -0.9107 -0.0374
  330MOL0     N45454   9.324   7.955   3.112 -0.1397 -0.2577  0.9210
  330MOL0     C45455   8.715   7.778   2.322  0.6720 -1.2817 -0.0492
  330MOL0     C45456   8.642   7.807   2.203 -0.7225 -0.3457 -0.2534
  330MOL0     C45457   8.448   7.741   1.825  0.0168 -0.1619  0.2708
  330MOL0     C45458   8.494   7.875   1.804  1.2854  0.1533  1.0070
  330MOL0     C45459   8.479   7.947   1.683  0.2062 -0.0197  0.3981
  330MOL0     C45460   8.416   7.879   1.573 -0.5338  0.2516 -0.5892
  330MOL0     O45461   8.399   7.959   1.459  0.2848  0.2369  0.7616
  330MOL0     C45462   8.268   7.959   1.396 -1.1078  0.0447 -0.0789
  330MOL0     C45463   8.223   8.090   1.328  0.0180  0.4479  0.7216
  330MOL0     C45464   8.298   8.119   1.193  0.1379  0.2492 -0.4352
  330MOL0     C45465   8.235   8.225   1.104 -0.9024  0.5624  0.0180
  330MOL0     C45466   8.314   8.243   0.986  0.0574  0.6603 -0.3742
  330MOL0     C45467   8.373   8.274   0.890  0.0639  0.0083 -0.5260
  330MOL0     C45468   8.389   7.741   1.588 -1.1400  0.3664 -0.0305
  330MOL0     C45469   8.396   7.669   1.709 -0.5445 -0.9318 -0.1405
  330MOL0     C45470   8.366   7.520   1.711  0.8492  0.4497 -0.0054
  330MOL0     H45471   8.410   7.568   2.217  0.0006 -1.6247  1.8296
  330MOL0     H45472   8.538   7.512   2.426  1.6135  0.0944  1.2764
  330MOL0     H45473   8.794   7.829   2.564 -1.9819  0.3756 -1.1960
  330MOL0     H45474   8.899   7.703   2.498  0.9160 -0.4286  1.4060
  330MOL0     H45475   8.903   7.787   2.769  0.9595  0.4123  0.6803
  330MOL0     H45476   8.773   7.671   2.783 -1.7262 -0.0385 -2.1860
  330MOL0     H45477   8.954   7.493   2.662 -0.1554  0.5951 -1.1254
  330MOL0     H45478   9.070   7.613   2.678  2.2929 -2.7933  1.6803
  330MOL0     H45479   8.990   7.636   2.935  0.2760 -0.0151  1.0876
  330MOL0     H45480   8.912   7.480   2.918 -0.4707 -0.2261 -0.5761
  330MOL0     H45481   9.167   7.429   2.811  3.7307  1.3811  1.1910
  330MOL0     H45482   9.116   7.400   2.978 -1.3462 -1.0759 -1.7244
  330MOL0     H45483   9.320   7.526   2.897  1.9826  0.5085  0.6281
  330MOL0     H45484   9.226   7.671   2.856  0.7984 -1.0535 -0.1283
  330MOL0     H45485   9.225   7.542   3.123  0.0779  2.0038  2.3187
  330MOL0     H45486   9.152   7.703   3.085  2.5252  3.2017 -1.0135
  330MOL0     H45487   9.363   7.713   3.202 -2.1036  2.0850 -0.1032
  330MOL0     H45488   9.446   7.658   3.052 -0.5881  0.3556 -0.4561
  330MOL0     H45489   9.452   7.845   2.837  1.2691 -0.4706  0.9854
  330MOL0     H45490   9.306   8.198   2.810  0.9922  1.8927 -0.5643
  330MOL0     H45491   9.370   8.068   2.713  2.1256 -1.2911 -0.3014
  330MOL0     H45492   9.541   8.247   2.906  0.9325  3.1588 -1.8158
  330MOL0     H45493   9.597   8.138   2.772  1.3282  0.0721  1.2365
  330MOL0     H45494   9.496   8.294   2.596  0.2443 -0.5607  1.0963
  330MOL0     H45495   9.400   8.375   2.723  0.8202  4.2462 -0.1389
  330MOL0     H45496   9.582   8.502   2.621  1.0340 -1.1588 -1.5360
  330MOL0     H45497   9.609   8.496   2.795  1.5283  0.7505  0.0842
  330MOL0     H45498   9.719   8.418   2.987  0.6282 -0.8492  1.3833
  330MOL0     H45499   9.951   8.418   3.223 -0.0459 -0.1348 -1.3450
  330MOL0     H45500   9.790   8.486   3.204 -0.5448  0.8139  0.8671
  330MOL0     H45501   9.929   8.591   3.183  0.3507  0.1892 -0.8824
  330MOL0     H45502  10.422   8.732   3.054  0.6503  1.2957 -0.3084
  330MOL0     H45503  10.602   8.707   3.236  0.5465  0.2640  0.7354
  330MOL0     H45504  10.571   8.838   3.557  2.4401 -1.1302 -0.4770
  330MOL0     H45505  10.439   8.747   3.630  1.0665  0.2220  1.4884
  330MOL0     H45506  10.618   8.745   3.791 -0.6221 -0.9735  1.9622
  330MOL0     H45507  10.610   8.582   3.713 -2.2485  0.5800 -2.8172
  330MOL0     H45508  10.795   8.703   3.565  1.2205  0.9702  0.2403
  330MOL0     H45509  10.831   8.594   3.699  1.9836  0.6750  1.9284
  330MOL0     H45510  10.882   8.776   3.844  2.1905  1.3232 -0.4234
  330MOL0     H45511  10.793   8.893   3.738  0.6575  0.6779  0.5285
  330MOL0     H45512  10.981   8.876   3.582  2.5111 -1.0949 -0.9071
  330MOL0     H45513  11.032   8.924   3.755 -3.3888 -1.7627  3.7720
  330MOL0     H45514  11.170   8.767   3.622  1.0641  0.6581  1.4150
  330MOL0     H45515  11.059   8.634   3.647  0.3763 -0.8886  1.0890
  330MOL0     H45516  11.209   8.606   3.828  0.9776  0.4257  2.3732
  330MOL0     H45517  11.072   8.670   3.901  2.9165 -4.2378  0.4418
  330MOL0     H45518  11.286   8.749   3.992  2.8580  3.5445  0.6212
  330MOL0     H45519  11.174   8.878   3.936  0.4263  1.2026 -0.6589
  330MOL0     H45520  10.292   8.604   3.516 -1.2590  2.7836  0.8401
  330MOL0     H45521  10.121   8.607   3.333 -0.4590  1.1948  2.5066
  330MOL0     H45522  10.165   8.424   2.781  0.4390  0.9118  0.1265
  330MOL0     H45523   9.991   8.365   2.656 -0.1313 -1.1555  0.4463
  330MOL0     H45524   8.794   7.849   2.342 -1.2882  2.2817 -3.5192
  330MOL0     H45525   8.671   7.901   2.157  0.4395  0.9947  2.9402
  330MOL0     H45526   8.563   7.916   1.877  4.2663  2.4603 -2.7589
  330MOL0     H45527   8.530   8.042   1.670 -0.3405  0.5496  2.1311
  330MOL0     H45528   8.276   7.876   1.326  2.0323 -3.5164  3.9614
  330MOL0     H45529   8.184   7.933   1.463  1.6240 -0.0972  3.6301
  330MOL0     H45530   8.235   8.177   1.394  1.2884 -1.1080  2.6688
  330MOL0     H45531   8.120   8.065   1.305  0.5353  0.7562 -2.4148
  330MOL0     H45532   8.406   8.122   1.210  0.8596 -1.7306 -3.7108
  330MOL0     H45533   8.291   8.026   1.136 -0.4153 -1.3682  2.0690
  330MOL0     H45534   8.220   8.316   1.162 -0.7355 -0.4280  1.7111
  330MOL0     H45535   8.134   8.192   1.080 -1.9592  2.3825  1.6570
  330MOL0     H45536   8.436   8.298   0.806 -1.0286  0.3935 -1.2650
  330MOL0     H45537   8.361   7.695   1.494 -1.9195 -2.3014  1.3887
  330MOL0     H45538   8.299   7.495   1.794  1.2970  0.0811  0.2497
  330MOL0     H45539   8.312   7.484   1.623 -1.1133 -0.3974  1.4688
  330MOL0     H45540   8.453   7.453   1.717  0.2466 -0.2981  0.7004
  331MOL0     O45541   1.108   5.232   2.459 -0.8306  0.1577 -0.5619
  331MOL0     C45542   1.029   5.284   2.383 -0.0963  0.2799 -0.2194
  331MOL0     O45543   1.061   5.368   2.284 -0.0307 -0.4925 -0.4373
  331MOL0     C45544   1.197   5.387   2.262 -0.3982  0.4430  0.3733
  331MOL0     C45545   1.293   5.282   2.238  0.2301  0.2560  0.8433
  331MOL0     C45546   1.423   5.311   2.209 -0.6731 -0.4534  0.3420
  331MOL0     C45547   1.467   5.448   2.209  0.6125 -0.1424 -0.4318
  331MOL0     O45548   1.593   5.502   2.210  0.1176 -0.1915 -0.2054
  331MOL0     C45549   1.704   5.425   2.176  0.2246  0.3183 -0.1595
  331MOL0     C45550   1.830   5.507   2.205  0.8310 -0.3560 -0.4790
  331MOL0     C45551   1.852   5.626   2.097  1.0942  0.4032 -0.1259
  331MOL0     C45552   1.999   5.672   2.092 -0.6077 -0.1743 -0.4589
  331MOL0     C45553   2.033   5.750   2.226  0.1104 -0.1095  0.0096
  331MOL0     C45554   2.164   5.831   2.232  0.7567  0.0706  0.3833
  331MOL0     C45555   2.206   5.864   2.371 -0.2460  0.0597  0.5661
  331MOL0     C45556   2.264   5.745   2.451  0.7319 -0.4006  0.5014
  331MOL0     N45557   2.379   5.693   2.381 -0.6426 -0.5595 -0.3945
  331MOL0     C45558   2.385   5.579   2.298 -0.5813 -0.2246  0.2476
  331MOL0     C45559   2.512   5.585   2.248 -0.3823  0.8020  0.2476
  331MOL0     C45560   2.562   5.471   2.156 -0.2974 -0.3336 -1.0270
  331MOL0     C45561   2.721   5.469   2.150 -0.1110  0.0132  0.7798
  331MOL0     C45562   2.770   5.391   2.029 -0.4092 -1.0717 -0.3279
  331MOL0     C45563   2.924   5.362   2.026  0.0273 -0.1954  0.4936
  331MOL0     O45564   2.990   5.484   2.026 -0.1086 -0.5753 -0.1500
  331MOL0     C45565   3.126   5.512   2.031 -0.0798 -0.1056 -0.1869
  331MOL0     C45566   3.178   5.638   2.018 -0.5038 -0.2203 -0.1757
  331MOL0     C45567   3.322   5.655   2.011 -0.6226  0.3247 -0.3826
  331MOL0     C45568   3.388   5.785   2.014  0.2081 -0.3516 -0.2121
  331MOL0     C45569   3.406   5.533   1.994  0.1851 -0.0116 -0.8397
  331MOL0     C45570   3.551   5.535   1.974  1.3963 -0.8016  0.1397
  331MOL0     O45571   3.597   5.459   1.877 -0.4071  0.0424 -0.2004
  331MOL0     C45572   3.732   5.448   1.849  0.3434  0.4165 -0.3150
  331MOL0     C45573   3.780   5.549   1.771 -0.2089  0.3890  0.3744
  331MOL0     C45574   3.921   5.561   1.739 -0.0460 -0.0490 -0.0485
  331MOL0     C45575   4.009   5.460   1.787 -0.1628 -0.7493  0.4179
  331MOL0     O45576   4.140   5.464   1.760 -0.5468 -0.4033 -0.3191
  331MOL0     C45577   4.223   5.499   1.870 -0.5867 -1.0651  0.1959
  331MOL0     C45578   4.353   5.415   1.855  0.5567  0.4971 -1.1660
  331MOL0     C45579   4.407   5.408   1.708  0.8569 -0.0222  0.0437
  331MOL0     C45580   4.549   5.353   1.713 -0.5069  0.5201  0.4032
  331MOL0     C45581   4.597   5.324   1.573  0.2756 -0.6112  0.4880
  331MOL0     C45582   4.532   5.204   1.511 -0.4053  0.3347  0.8915
  331MOL0     C45583   4.613   5.152   1.383  0.2649 -0.4484  0.4553
  331MOL0     C45584   4.542   5.050   1.291 -0.5504 -0.4315  1.2110
  331MOL0    Cl45585   4.453   5.146   1.167 -0.1267  0.5403  0.1039
  331MOL0     C45586   3.959   5.350   1.862  0.0947  0.2295  0.5913
  331MOL0     C45587   3.816   5.343   1.890  0.4042  0.0225 -0.3158
  331MOL0     O45588   3.623   5.600   2.046  1.2221  0.1221 -0.2862
  331MOL0     C45589   3.349   5.404   2.001  0.0815 -0.4675 -0.0079
  331MOL0     C45590   3.207   5.397   2.025 -0.5386  0.7102  0.7925
  331MOL0     N45591   2.584   5.689   2.303  1.0111 -0.1022 -0.6932
  331MOL0     N45592   2.498   5.754   2.380 -1.2967 -0.1222  0.1834
  331MOL0     C45593   1.371   5.553   2.214 -0.7258  0.3030  0.8966
  331MOL0     C45594   1.236   5.518   2.234 -1.1310  0.6233 -0.4648
  331MOL0     C45595   0.890   5.235   2.396 -0.4914 -0.6676  0.8674
  331MOL0     C45596   0.784   5.330   2.374 -0.9167 -0.4631 -0.8837
  331MOL0     C45597   0.658   5.297   2.355 -0.1815  0.0742  0.8037
  331MOL0     C45598   0.618   5.160   2.372  0.5921 -1.3162 -0.1341
  331MOL0     O45599   0.483   5.133   2.371  0.2836 -0.4823 -0.0712
  331MOL0     C45600   0.434   5.011   2.437 -0.1775  0.8492  1.5849
  331MOL0     C45601   0.422   4.914   2.316 -0.3640 -0.3462 -0.0976
  331MOL0     C45602   0.325   4.968   2.208  0.7143  0.0277  0.2187
  331MOL0     C45603   0.253   4.858   2.133 -0.3415 -1.0707  0.1655
  331MOL0     C45604   0.150   4.794   2.220  0.6318 -0.8554 -0.0252
  331MOL0     C45605   0.067   4.748   2.294 -0.0194 -0.0665  0.3945
  331MOL0     C45606   0.720   5.072   2.397  0.7165  0.1017  1.3625
  331MOL0     C45607   0.847   5.103   2.410 -0.8686  0.7627 -1.0325
  331MOL0     C45608   0.942   4.991   2.437  0.5964 -0.2128  1.1160
  331MOL0     H45609   1.258   5.179   2.230 -0.6364  0.4876  1.4613
  331MOL0     H45610   1.494   5.232   2.188 -0.5044 -0.3526  0.5286
  331MOL0     H45611   1.698   5.409   2.068 -2.4463 -1.1368  0.1395
  331MOL0     H45612   1.704   5.335   2.238  0.4927 -0.4082 -1.1777
  331MOL0     H45613   1.837   5.549   2.305  1.8348 -0.4167 -0.5155
  331MOL0     H45614   1.918   5.443   2.198  3.0170  2.3567  0.4505
  331MOL0     H45615   1.830   5.583   1.999 -3.0166  0.5390  0.5484
  331MOL0     H45616   1.777   5.701   2.123  0.7501  0.2799 -0.7333
  331MOL0     H45617   2.069   5.594   2.062  0.8143 -0.6543  3.5444
  331MOL0     H45618   1.989   5.753   2.019 -2.4148  2.1205  2.1117
  331MOL0     H45619   2.048   5.671   2.301  2.2082 -0.6208 -0.8467
  331MOL0     H45620   1.961   5.823   2.262  1.6946  2.5476 -1.8890
  331MOL0     H45621   2.236   5.768   2.179  0.3019 -1.9794  2.0536
  331MOL0     H45622   2.141   5.920   2.172 -2.7138 -1.5538 -1.0071
  331MOL0     H45623   2.125   5.913   2.427  0.5438  0.1190  1.7040
  331MOL0     H45624   2.280   5.944   2.358  0.0139 -0.4160 -1.1435
  331MOL0     H45625   2.283   5.770   2.556  0.0073  0.3334  0.4731
  331MOL0     H45626   2.193   5.662   2.457 -0.3669  0.5885  2.4603
  331MOL0     H45627   2.300   5.519   2.268 -0.3548 -0.8484  0.8383
  331MOL0     H45628   2.522   5.488   2.056  0.6338 -1.2678 -1.5777
  331MOL0     H45629   2.520   5.377   2.191 -1.2794  0.3121 -0.4226
  331MOL0     H45630   2.771   5.566   2.142 -0.4186  0.1847  0.8932
  331MOL0     H45631   2.754   5.419   2.241 -4.0893 -3.8949  0.4583
  331MOL0     H45632   2.719   5.297   2.007 -1.2350 -0.5556 -0.6784
  331MOL0     H45633   2.759   5.464   1.947  0.4115  3.2513  3.0186
  331MOL0     H45634   2.958   5.310   2.117 -0.1230 -0.0456  0.6363
  331MOL0     H45635   2.947   5.316   1.930  2.3722 -1.8894  1.7508
  331MOL0     H45636   3.109   5.722   2.020 -1.1669 -0.7690  0.9039
  331MOL0     H45637   3.463   5.787   1.935  2.2989 -1.1957  1.6505
  331MOL0     H45638   3.440   5.796   2.110 -0.8862 -3.0940  0.8227
  331MOL0     H45639   3.318   5.868   2.007 -0.7376 -0.9968  1.0109
  331MOL0     H45640   3.710   5.610   1.715 -0.8925 -0.3298  0.4338
  331MOL0     H45641   3.969   5.629   1.669  1.3833 -0.9267  0.0291
  331MOL0     H45642   4.257   5.603   1.873 -0.7499 -1.0144  2.7376
  331MOL0     H45643   4.172   5.480   1.965 -0.1411  4.1318  1.7764
  331MOL0     H45644   4.419   5.466   1.926  0.7272 -0.8333 -0.3249
  331MOL0     H45645   4.346   5.314   1.897  0.8946  0.5851 -0.8863
  331MOL0     H45646   4.410   5.501   1.650 -1.7852 -1.2994 -2.4514
  331MOL0     H45647   4.353   5.330   1.652 -1.8120  0.6934  1.4348
  331MOL0     H45648   4.563   5.265   1.777 -0.8811  0.4164  0.3462
  331MOL0     H45649   4.610   5.425   1.767 -2.1112  1.9331  0.3843
  331MOL0     H45650   4.578   5.413   1.512 -0.0261  0.3074  1.8686
  331MOL0     H45651   4.704   5.303   1.563 -0.1123 -1.5989 -2.1510
  331MOL0     H45652   4.435   5.229   1.467 -0.2145  0.4807  0.5483
  331MOL0     H45653   4.532   5.120   1.582  3.0977 -1.7421 -1.2729
  331MOL0     H45654   4.710   5.115   1.417  1.0787  0.5849 -0.6457
  331MOL0     H45655   4.627   5.231   1.308 -1.4563 -2.7799 -2.5480
  331MOL0     H45656   4.480   4.979   1.347  0.7171 -2.4356  0.1587
  331MOL0     H45657   4.614   4.985   1.241  0.4468 -0.4008  2.5448
  331MOL0     H45658   4.023   5.267   1.888  0.6030  0.2354 -0.5658
  331MOL0     H45659   3.775   5.268   1.956  2.3654 -1.1603 -0.3923
  331MOL0     H45660   3.409   5.314   1.987 -1.3685 -1.3274 -1.0320
  331MOL0     H45661   3.163   5.298   2.031  0.8203  0.0799  0.8754
  331MOL0     H45662   1.398   5.654   2.186  0.7002 -0.8360 -2.3245
  331MOL0     H45663   1.166   5.600   2.248 -0.7956  1.8162 -4.6000
  331MOL0     H45664   0.818   5.428   2.342 -0.5859 -0.2165  0.1842
  331MOL0     H45665   0.592   5.382   2.342  2.1989  1.8618 -0.5436
  331MOL0     H45666   0.488   4.972   2.524 -0.3878 -0.4404  1.1672
  331MOL0     H45667   0.330   5.024   2.470 -1.9391 -1.8642 -2.1550
  331MOL0     H45668   0.394   4.817   2.359  2.4792 -0.2157  2.3361
  331MOL0     H45669   0.518   4.905   2.265  0.4108  0.2969  1.2065
  331MOL0     H45670   0.248   5.026   2.260 -0.8279 -0.1863 -1.6931
  331MOL0     H45671   0.384   5.036   2.145 -0.4192  0.2978 -0.5949
  331MOL0     H45672   0.320   4.776   2.104  1.0142 -1.1282  3.0603
  331MOL0     H45673   0.197   4.901   2.049  1.4193  0.1042 -0.4392
  331MOL0     H45674  -0.000   4.705   2.366  0.0147 -1.2985 -0.2853
  331MOL0     H45675   0.689   4.968   2.407 -0.1318  0.5105  3.5058
  331MOL0     H45676   0.895   4.893   2.444  2.0487 -0.8579  2.4367
  331MOL0     H45677   1.012   4.979   2.354 -0.2804  1.9230 -0.0263
  331MOL0     H45678   1.000   5.006   2.529  1.8642  0.0181  0.3084
  332MOL0     O45679  10.737   9.317   4.712  0.5745  0.3176  0.4161
  332MOL0     C45680  10.812   9.393   4.652  0.3126  0.6287  0.1884
  332MOL0     O45681  10.900   9.471   4.706 -0.1413 -0.1433 -0.4838
  332MOL0     C45682  10.916   9.493   4.843  0.4196 -0.0860  0.7414
  332MOL0     C45683  11.022   9.582   4.876 -0.0864 -0.4369  1.1040
  332MOL0     C45684  11.058   9.596   5.013 -0.6750 -0.0307 -0.1193
  332MOL0     C45685  10.983   9.543   5.116 -0.4670 -0.5732 -0.1257
  332MOL0     O45686  11.022   9.560   5.243  0.5425  1.0389  0.0576
  332MOL0     C45687  11.140   9.632   5.286  0.4058  0.4775 -0.2538
  332MOL0     C45688  11.155   9.634   5.434 -0.0731 -0.2009 -0.4413
  332MOL0     C45689  11.197   9.489   5.488 -0.1560 -0.1733  0.3632
  332MOL0     C45690  11.060   9.406   5.517 -0.5543  0.4032  0.1882
  332MOL0     C45691  11.026   9.432   5.669  0.2268  0.6835 -0.1323
  332MOL0     C45692  10.881   9.407   5.699  0.0391 -0.7977  0.1959
  332MOL0     C45693  10.816   9.268   5.661  0.5764  0.3651  0.4556
  332MOL0     C45694  10.791   9.163   5.777 -0.4233 -0.5118  0.4993
  332MOL0     N45695  10.921   9.097   5.809  0.7250 -0.5953 -0.8333
  332MOL0     C45696  11.029   9.144   5.875 -0.1175  0.1599 -0.2506
  332MOL0     C45697  11.130   9.063   5.849 -0.3801  0.9045  0.4232
  332MOL0     C45698  11.274   9.066   5.898 -0.0091 -0.0103 -0.0749
  332MOL0     C45699  11.296   8.979   6.017 -0.1004  0.6505 -0.0757
  332MOL0     C45700  11.397   9.047   6.114 -0.1890 -0.5069 -0.4481
  332MOL0     C45701  11.535   9.020   6.067 -0.7694 -0.0829  0.8170
  332MOL0     O45702  11.635   9.032   6.176  0.2241  0.1208  0.0982
  332MOL0     C45703  11.765   8.976   6.174  0.9226 -0.8646  0.3678
  332MOL0     C45704  11.848   8.978   6.279 -0.1066  1.1511 -0.2008
  332MOL0     C45705  11.984   8.940   6.284  0.6727  0.3874  0.6023
  332MOL0     C45706  12.040   8.943   6.418 -0.4516  0.3896 -0.6874
  332MOL0     C45707  12.041   8.896   6.159  0.0686  0.1425 -0.3807
  332MOL0     C45708  12.179   8.839   6.140  0.0214 -0.3943 -0.3879
  332MOL0     O45709  12.262   8.831   6.255 -0.5008 -0.0262  1.0593
  332MOL0     C45710  12.390   8.777   6.251 -0.1471 -0.5422  0.3605
  332MOL0     C45711  12.491   8.852   6.177 -0.5014 -0.5512  0.1557
  332MOL0     C45712  12.615   8.799   6.176 -0.9803 -0.0336 -0.6597
  332MOL0     C45713  12.663   8.685   6.247 -0.1880 -0.0882 -0.4137
  332MOL0     O45714  12.787   8.624   6.250  0.1841  0.9313  1.0671
  332MOL0     C45715  12.901   8.708   6.221  0.5856  0.1711  0.2277
  332MOL0     C45716  13.026   8.639   6.278  0.6015  1.6544  0.7701
  332MOL0     C45717  13.006   8.605   6.417 -0.4043  0.9738  0.0447
  332MOL0     C45718  13.059   8.719   6.502  0.6256 -0.7109  0.0998
  332MOL0     C45719  13.093   8.683   6.644 -0.2537 -0.3008  0.1818
  332MOL0     C45720  13.125   8.805   6.732 -0.1009 -0.5566 -0.4428
  332MOL0     C45721  13.211   8.762   6.853 -0.4721 -0.2673  0.3216
  332MOL0     C45722  13.161   8.832   6.974  0.2626 -0.3247 -0.1741
  332MOL0    Cl45723  12.996   8.772   7.028 -0.1141  0.2272 -0.0543
  332MOL0     C45724  12.566   8.623   6.322 -0.1608  0.4826 -0.4222
  332MOL0     C45725  12.429   8.668   6.320 -0.2592  0.0147 -0.1492
  332MOL0     O45726  12.210   8.807   6.024  0.6142 -0.1296  0.8508
  332MOL0     C45727  11.956   8.887   6.049  0.1053 -0.0961  0.1665
  332MOL0     C45728  11.827   8.926   6.049  0.6694 -0.0019  0.6004
  332MOL0     N45729  11.084   8.968   5.767  0.1671 -0.3142  0.0882
  332MOL0     N45730  10.962   8.988   5.739  0.8378 -0.1108  0.6003
  332MOL0     C45731  10.871   9.470   5.082 -0.8522 -0.0694  0.3933
  332MOL0     C45732  10.837   9.441   4.950  0.2040  0.1896  0.6175
  332MOL0     C45733  10.803   9.409   4.507 -0.0168 -0.4335 -0.6208
  332MOL0     C45734  10.907   9.484   4.448 -0.2377 -0.2258  0.5865
  332MOL0     C45735  10.922   9.498   4.310 -0.0326 -0.0044  0.1678
  332MOL0     C45736  10.816   9.455   4.231 -0.1961  0.0541 -0.4455
  332MOL0     O45737  10.821   9.491   4.095 -1.2864 -0.5792 -0.7516
  332MOL0     C45738  10.713   9.483   4.001  0.1379 -0.2785  0.4955
  332MOL0     C45739  10.708   9.347   3.928 -0.5431 -0.1840 -0.2135
  332MOL0     C45740  10.593   9.354   3.840 -0.0723 -0.4351  0.2819
  332MOL0     C45741  10.570   9.230   3.755 -0.3739 -0.0522 -0.0564
  332MOL0     C45742  10.685   9.179   3.667  0.2403 -0.9293 -0.4533
  332MOL0     C45743  10.787   9.151   3.604 -0.0211 -1.0681  0.7437
  332MOL0     C45744  10.704   9.401   4.288 -0.3679  0.2836  0.6888
  332MOL0     C45745  10.697   9.374   4.420  0.1622  0.7313  0.9007
  332MOL0     C45746  10.569   9.309   4.468 -0.2299  0.1927 -0.3202
  332MOL0     H45747  11.087   9.621   4.798  0.1874 -1.1068  0.9932
  332MOL0     H45748  11.154   9.637   5.041 -0.2070 -2.4315  2.2281
  332MOL0     H45749  11.133   9.738   5.260 -0.5015  0.0326 -1.9793
  332MOL0     H45750  11.235   9.594   5.248  2.1151  2.0951  2.1135
  332MOL0     H45751  11.232   9.705   5.469 -0.6592  0.0445  0.3787
  332MOL0     H45752  11.064   9.667   5.484  0.8135  0.6264  0.7076
  332MOL0     H45753  11.259   9.446   5.409  0.3009  1.2936 -0.1055
  332MOL0     H45754  11.250   9.497   5.583 -4.7234 -0.0848  3.2300
  332MOL0     H45755  10.977   9.428   5.450  0.6243  0.4266 -1.3278
  332MOL0     H45756  11.084   9.299   5.511 -0.6261 -0.0451  4.5349
  332MOL0     H45757  11.051   9.536   5.688  0.7543  1.6318 -4.8807
  332MOL0     H45758  11.087   9.371   5.736 -0.6736 -1.0450 -0.8098
  332MOL0     H45759  10.876   9.432   5.805 -1.5642  2.0777 -0.4505
  332MOL0     H45760  10.811   9.483   5.661  0.0753 -0.8077  0.1088
  332MOL0     H45761  10.875   9.211   5.589  1.2321  2.1853 -0.5259
  332MOL0     H45762  10.719   9.289   5.615  0.6997 -1.7657 -0.9118
  332MOL0     H45763  10.746   9.217   5.861  0.1079  0.4176  0.2014
  332MOL0     H45764  10.723   9.082   5.749  1.8772 -2.5695  0.5325
  332MOL0     H45765  11.039   9.236   5.931  1.0526 -0.0275 -0.1323
  332MOL0     H45766  11.314   9.167   5.914  0.1192  0.1665 -1.4354
  332MOL0     H45767  11.346   9.038   5.820  1.2470 -1.7295  1.6078
  332MOL0     H45768  11.200   8.982   6.070 -1.0042  2.2170 -1.6910
  332MOL0     H45769  11.326   8.876   5.993  1.2573  1.1653 -0.6838
  332MOL0     H45770  11.390   9.157   6.118 -0.0792 -0.5141  0.0050
  332MOL0     H45771  11.374   9.000   6.210  2.2601 -0.2882  0.3085
  332MOL0     H45772  11.540   8.928   6.008 -0.0589  0.8027 -0.5273
  332MOL0     H45773  11.550   9.088   5.983 -4.2879  2.2136  1.8313
  332MOL0     H45774  11.801   9.014   6.370 -1.3932 -1.2367  0.1762
  332MOL0     H45775  12.111   8.859   6.426  0.2262  0.9966 -0.1402
  332MOL0     H45776  11.964   8.930   6.496 -0.8851  2.5860 -0.6875
  332MOL0     H45777  12.114   9.023   6.431  0.2133 -0.0987 -1.3849
  332MOL0     H45778  12.471   8.942   6.119  0.4408 -1.2233 -1.2901
  332MOL0     H45779  12.699   8.848   6.128  0.9219  1.7261  3.8834
  332MOL0     H45780  12.905   8.723   6.112 -3.1094 -1.7861 -0.3410
  332MOL0     H45781  12.887   8.806   6.266 -0.9930 -0.7586  1.8729
  332MOL0     H45782  13.044   8.545   6.226 -0.3933  0.7912  1.9376
  332MOL0     H45783  13.111   8.706   6.260  0.6093  1.7626  1.1965
  332MOL0     H45784  13.067   8.516   6.434 -0.2381  1.1562  0.4076
  332MOL0     H45785  12.901   8.588   6.442 -0.6788  3.2664  0.7148
  332MOL0     H45786  12.976   8.789   6.496  1.4493  0.4686  1.7478
  332MOL0     H45787  13.151   8.768   6.471  0.4397  0.7270  1.6841
  332MOL0     H45788  13.019   8.630   6.704  0.0767 -0.6355  0.2963
  332MOL0     H45789  13.182   8.620   6.651  0.4485  0.1766 -3.0554
  332MOL0     H45790  13.040   8.866   6.762  2.1771  1.7416  1.7917
  332MOL0     H45791  13.178   8.880   6.674 -3.0964  0.7457 -1.7015
  332MOL0     H45792  13.314   8.779   6.820 -0.7864 -1.1877 -1.2431
  332MOL0     H45793  13.193   8.658   6.879  0.4388  0.3424  3.9907
  332MOL0     H45794  13.149   8.936   6.941 -1.9507 -0.0038  1.4059
  332MOL0     H45795  13.235   8.827   7.054  0.7897 -0.1790 -0.6446
  332MOL0     H45796  12.593   8.533   6.376 -1.1174 -0.4272 -1.4337
  332MOL0     H45797  12.349   8.642   6.389 -1.4800  0.7396 -1.2514
  332MOL0     H45798  11.988   8.862   5.948  1.1252  1.2622  0.1162
  332MOL0     H45799  11.769   8.924   5.957  2.6562 -1.5448 -0.7148
  332MOL0     H45800  10.807   9.432   5.161  1.0774  0.0046  2.0579
  332MOL0     H45801  10.742   9.390   4.934 -0.7267  1.7402  0.9814
  332MOL0     H45802  10.989   9.530   4.502  0.6274 -1.5342  0.4485
  332MOL0     H45803  11.004   9.542   4.255 -0.5865 -0.6301 -1.2207
  332MOL0     H45804  10.615   9.499   4.048  0.0856  1.8259 -0.2027
  332MOL0     H45805  10.709   9.568   3.932 -1.7366 -1.9745 -1.6466
  332MOL0     H45806  10.695   9.265   4.000 -0.6917 -0.6874 -0.7983
  332MOL0     H45807  10.802   9.333   3.874  0.0768  2.9751 -0.1453
  332MOL0     H45808  10.503   9.368   3.901 -1.0789 -1.0725 -1.0032
  332MOL0     H45809  10.604   9.445   3.779 -0.8946  0.2139  1.0712
  332MOL0     H45810  10.490   9.262   3.688  0.3335 -0.4904 -1.1455
  332MOL0     H45811  10.516   9.157   3.815 -1.1188  2.0929  2.0463
  332MOL0     H45812  10.874   9.136   3.544  0.0062 -1.8021  0.9457
  332MOL0     H45813  10.621   9.385   4.220  0.9346 -0.2884 -0.8442
  332MOL0     H45814  10.512   9.388   4.518  0.7667  1.7495 -1.5413
  332MOL0     H45815  10.511   9.268   4.384 -0.5945 -3.0910  1.3795
  332MOL0     H45816  10.587   9.222   4.532  0.1101 -1.5872 -2.6998
  333MOL0     O45817   8.362   8.988   7.603 -0.5427 -0.4052 -0.2926
  333MOL0     C45818   8.456   8.972   7.682 -0.1011  0.1313 -0.4175
  333MOL0     O45819   8.445   8.903   7.801  0.5654  0.2535 -0.0242
  333MOL0     C45820   8.320   8.855   7.842  0.5388  0.7068  0.3225
  333MOL0     C45821   8.210   8.948   7.869 -0.8103  0.0412 -0.3436
  333MOL0     C45822   8.096   8.896   7.909  1.0455  0.6826  0.4236
  333MOL0     C45823   8.073   8.756   7.929 -0.2211 -0.0482  0.7643
  333MOL0     O45824   7.950   8.692   7.954  0.0420  0.1120  0.4093
  333MOL0     C45825   7.834   8.772   7.962 -0.3910  0.2218 -0.0386
  333MOL0     C45826   7.707   8.688   7.996 -0.1392  0.9842  0.4197
  333MOL0     C45827   7.655   8.602   7.880  0.8255 -0.3011  0.3886
  333MOL0     C45828   7.509   8.563   7.902  0.3442 -0.4515  1.1972
  333MOL0     C45829   7.486   8.465   8.018  0.5193 -0.3400  0.6133
  333MOL0     C45830   7.575   8.339   8.020  0.1378  0.1170  0.3057
  333MOL0     C45831   7.525   8.236   8.132  0.2246  0.3317  0.3757
  333MOL0     C45832   7.608   8.110   8.132 -0.2547  0.0325  0.2482
  333MOL0     N45833   7.711   8.124   8.235  0.3310  0.0987 -0.1248
  333MOL0     C45834   7.841   8.152   8.204  0.2094 -0.3348 -0.9187
  333MOL0     C45835   7.905   8.127   8.325  0.1598 -0.6433 -0.3132
  333MOL0     C45836   8.048   8.145   8.349 -0.4954 -0.1421 -0.8168
  333MOL0     C45837   8.142   8.042   8.289 -0.3328 -0.0134  0.0494
  333MOL0     C45838   8.282   8.092   8.307 -0.0954  0.2144  0.6771
  333MOL0     C45839   8.369   7.990   8.244  0.4312 -0.3864  0.6024
  333MOL0     O45840   8.505   8.046   8.240 -0.2872 -0.0700  0.4866
  333MOL0     C45841   8.591   8.033   8.344  0.4206 -0.7238  0.4227
  333MOL0     C45842   8.686   8.135   8.344  0.7574 -0.4343 -0.0677
  333MOL0     C45843   8.775   8.150   8.451 -0.0133 -0.3636 -0.2338
  333MOL0     C45844   8.861   8.272   8.456  0.7113 -0.2748  0.3398
  333MOL0     C45845   8.771   8.049   8.555  0.0415  0.6900 -0.4323
  333MOL0     C45846   8.852   8.066   8.683 -0.1571 -0.3032 -0.1889
  333MOL0     O45847   8.912   7.952   8.726 -0.4631  0.2382 -0.1751
  333MOL0     C45848   9.002   7.959   8.829 -1.0740  1.4361  0.4937
  333MOL0     C45849   9.113   8.038   8.806  0.7998  0.8759 -1.0908
  333MOL0     C45850   9.219   8.028   8.895 -0.1056  0.1981 -0.1661
  333MOL0     C45851   9.221   7.950   9.012 -0.0527 -0.0106  0.0427
  333MOL0     O45852   9.335   7.948   9.096 -0.1604  0.7125 -0.3109
  333MOL0     C45853   9.321   7.873   9.221 -0.0975 -0.6763  1.3045
  333MOL0     C45854   9.461   7.869   9.290 -0.4582 -0.1721  1.1663
  333MOL0     C45855   9.577   7.858   9.191 -1.1189  0.2242  0.2379
  333MOL0     C45856   9.697   7.822   9.290  0.0939  0.4367 -0.7863
  333MOL0     C45857   9.822   7.844   9.223 -0.3738 -0.4554  0.5926
  333MOL0     C45858   9.854   7.736   9.113  0.0995 -0.4384 -0.1849
  333MOL0     C45859  10.003   7.718   9.096 -0.3239  0.4306 -0.1949
  333MOL0     C45860  10.075   7.841   9.046  0.0885  0.0653 -0.0502
  333MOL0    Cl45861  10.244   7.828   9.103  0.3079  0.3551 -0.1492
  333MOL0     C45862   9.104   7.877   9.044  0.5054  0.4700 -0.0231
  333MOL0     C45863   8.992   7.881   8.952 -0.2840 -0.0587 -0.1123
  333MOL0     O45864   8.861   8.176   8.737 -0.1231 -0.6471  0.2201
  333MOL0     C45865   8.681   7.943   8.545 -0.1025  0.2117 -0.6188
  333MOL0     C45866   8.580   7.942   8.446  0.2899 -0.5269 -1.1070
  333MOL0     N45867   7.818   8.088   8.419 -0.6453 -0.3842  0.0254
  333MOL0     N45868   7.703   8.087   8.368  0.1896 -0.6988 -0.3292
  333MOL0     C45869   8.184   8.668   7.913  0.1216 -0.1411  0.4510
  333MOL0     C45870   8.304   8.720   7.872 -0.1944 -0.0782 -0.2229
  333MOL0     C45871   8.596   9.028   7.651 -0.8815  0.6688 -0.1564
  333MOL0     C45872   8.597   9.159   7.604  0.3187 -0.4413  0.2177
  333MOL0     C45873   8.715   9.228   7.577 -1.1112  1.1947  0.0369
  333MOL0     C45874   8.835   9.162   7.600 -0.5793  0.7189 -0.7870
  333MOL0     O45875   8.946   9.231   7.566  0.1691  0.5642  0.3870
  333MOL0     C45876   9.071   9.195   7.631  0.1518  0.0315 -0.2337
  333MOL0     C45877   9.193   9.284   7.604  0.3014  0.6503  0.0456
  333MOL0     C45878   9.172   9.421   7.658 -0.3669  0.0397 -0.5080
  333MOL0     C45879   9.269   9.527   7.605 -1.4016 -0.0889 -0.2119
  333MOL0     C45880   9.413   9.495   7.618  0.0008 -0.2983 -0.3381
  333MOL0     C45881   9.521   9.449   7.645  0.6326  0.7851 -0.5295
  333MOL0     C45882   8.846   9.031   7.649  0.1630  0.0052 -0.8572
  333MOL0     C45883   8.721   8.966   7.685 -0.5809 -0.5334 -0.1627
  333MOL0     C45884   8.728   8.833   7.752  0.8519 -0.8173 -0.0237
  333MOL0     H45885   8.218   9.050   7.832  1.3326  0.7907  1.8917
  333MOL0     H45886   8.011   8.962   7.916  0.0889 -0.4508 -0.0414
  333MOL0     H45887   7.815   8.824   7.867 -2.5563  0.5776  0.5470
  333MOL0     H45888   7.850   8.839   8.046 -1.6973  0.6213 -0.0843
  333MOL0     H45889   7.731   8.610   8.069  0.1378  1.5679  0.9563
  333MOL0     H45890   7.630   8.756   8.035 -2.1405  0.0027 -1.6213
  333MOL0     H45891   7.651   8.658   7.787  0.0457 -1.9142 -0.6007
  333MOL0     H45892   7.723   8.520   7.853 -0.4174 -0.5128 -2.4362
  333MOL0     H45893   7.441   8.648   7.912 -2.7165 -2.5691  0.0130
  333MOL0     H45894   7.478   8.517   7.808 -2.4535  0.6214  1.4910
  333MOL0     H45895   7.380   8.441   8.011  0.2884  0.8508 -0.0946
  333MOL0     H45896   7.506   8.515   8.113 -0.5934  1.7394 -0.1888
  333MOL0     H45897   7.583   8.287   7.924 -1.0066 -1.8089  1.2051
  333MOL0     H45898   7.671   8.375   8.057 -1.2786  2.6898  1.7768
  333MOL0     H45899   7.418   8.216   8.126 -0.2951  1.8923  2.8908
  333MOL0     H45900   7.541   8.284   8.229  2.0057  1.7946 -0.5791
  333MOL0     H45901   7.546   8.023   8.152 -0.2654 -1.1080 -3.8560
  333MOL0     H45902   7.647   8.088   8.032 -1.5252 -0.1146 -0.2287
  333MOL0     H45903   7.876   8.184   8.106  1.2428 -0.9293 -0.7624
  333MOL0     H45904   8.059   8.138   8.457 -2.7162  2.2570 -0.3464
  333MOL0     H45905   8.064   8.245   8.310 -2.0384 -0.0678 -1.3386
  333MOL0     H45906   8.134   7.941   8.329  0.1801 -0.4124 -0.8437
  333MOL0     H45907   8.120   8.041   8.182 -1.1464  4.0711 -0.0167
  333MOL0     H45908   8.285   8.189   8.257 -0.7020  0.4508  1.0857
  333MOL0     H45909   8.310   8.099   8.412 -3.3824 -1.3133  1.7637
  333MOL0     H45910   8.369   7.890   8.287 -1.9819 -0.5959  0.2085
  333MOL0     H45911   8.341   7.965   8.141 -2.6847 -2.2317  1.7765
  333MOL0     H45912   8.699   8.205   8.263  4.8697 -1.1980 -0.3033
  333MOL0     H45913   8.800   8.356   8.492 -1.7058 -2.0525  0.6374
  333MOL0     H45914   8.900   8.284   8.354 -0.4327  1.3655  0.0548
  333MOL0     H45915   8.947   8.264   8.523  0.5831 -1.7759  0.3500
  333MOL0     H45916   9.103   8.101   8.718 -1.1074 -1.0560 -2.3399
  333MOL0     H45917   9.309   8.078   8.859  0.7195 -0.7879  0.4723
  333MOL0     H45918   9.244   7.917   9.285 -0.4929  2.0576 -0.8772
  333MOL0     H45919   9.286   7.770   9.202 -0.9685 -0.5857  2.3124
  333MOL0     H45920   9.485   7.945   9.366  3.9272 -0.7046  0.5715
  333MOL0     H45921   9.460   7.778   9.350 -0.8251 -0.9718 -0.0157
  333MOL0     H45922   9.587   7.957   9.145 -0.2852  0.7055  1.4078
  333MOL0     H45923   9.567   7.773   9.124  1.8077 -0.3716  0.4494
  333MOL0     H45924   9.686   7.717   9.320  3.8646  1.0999  4.0739
  333MOL0     H45925   9.704   7.885   9.378 -3.1817  1.6903 -1.2828
  333MOL0     H45926   9.827   7.949   9.191  0.8287 -0.2441  1.4001
  333MOL0     H45927   9.897   7.834   9.302  0.1364 -0.7128  0.0766
  333MOL0     H45928   9.809   7.763   9.017 -0.3401 -0.2597  0.0619
  333MOL0     H45929   9.812   7.640   9.144 -0.6095 -0.0098  0.2206
  333MOL0     H45930  10.027   7.635   9.030  0.4253  1.1135 -0.8148
  333MOL0     H45931  10.037   7.681   9.193 -0.6022  1.3768  0.2805
  333MOL0     H45932  10.025   7.917   9.105 -1.6207 -2.9464  2.7093
  333MOL0     H45933  10.070   7.850   8.937 -2.3152 -0.6260 -0.0497
  333MOL0     H45934   9.091   7.806   9.125  2.1390  0.0682 -0.0835
  333MOL0     H45935   8.911   7.810   8.963  0.7373 -1.5713 -1.8722
  333MOL0     H45936   8.697   7.872   8.626  0.5246  1.1513  0.1108
  333MOL0     H45937   8.503   7.866   8.444 -2.2429  1.7901  0.9294
  333MOL0     H45938   8.155   8.564   7.929 -0.3227 -0.0143  0.4845
  333MOL0     H45939   8.388   8.651   7.862 -1.7173 -2.0496 -0.0095
  333MOL0     H45940   8.500   9.209   7.598  0.4902 -0.2522 -1.3065
  333MOL0     H45941   8.723   9.333   7.551  1.0883  0.8762 -0.8195
  333MOL0     H45942   9.062   9.189   7.740 -0.0014 -1.9593 -0.3155
  333MOL0     H45943   9.098   9.093   7.602  2.4543  0.0427  1.6001
  333MOL0     H45944   9.207   9.272   7.497 -0.7326 -1.1093  0.0710
  333MOL0     H45945   9.279   9.236   7.653 -1.4112  0.4486  3.1391
  333MOL0     H45946   9.076   9.466   7.629 -0.0549 -0.2234 -2.0170
  333MOL0     H45947   9.161   9.420   7.767 -0.3601  2.0908 -0.4423
  333MOL0     H45948   9.259   9.620   7.662 -4.6742 -0.2965 -0.2681
  333MOL0     H45949   9.258   9.557   7.501 -1.5867 -0.5293 -0.3253
  333MOL0     H45950   9.606   9.395   7.682  0.9070  0.9014 -0.9842
  333MOL0     H45951   8.937   8.974   7.663  0.5374  0.4467 -1.4673
  333MOL0     H45952   8.835   8.810   7.746  1.3743  1.6275 -1.4523
  333MOL0     H45953   8.700   8.839   7.858 -1.7228  1.3706 -0.7195
  333MOL0     H45954   8.664   8.761   7.701 -0.9010  2.1971 -2.4591
  334MOL0     O45955  10.983   1.459  11.172 -0.2852  0.6914  0.7944
  334MOL0     C45956  10.904   1.550  11.199  0.2829 -0.1549  0.2846
  334MOL0     O45957  10.932   1.675  11.229  0.3067  0.3497 -0.5978
  334MOL0     C45958  11.055   1.723  11.210 -0.2871 -0.0824 -0.1521
  334MOL0     C45959  11.094   1.773  11.093  0.2137 -0.2701 -0.4152
  334MOL0     C45960  11.224   1.823  11.059  0.5306  0.1407 -0.3082
  334MOL0     C45961  11.330   1.794  11.145 -0.1718 -0.2989  0.0937
  334MOL0     O45962  11.455   1.825  11.097  0.3678  0.6833  0.5080
  334MOL0     C45963  11.571   1.791  11.169 -0.4396  0.3306 -0.7302
  334MOL0     C45964  11.638   1.671  11.126 -0.4008  0.3837  0.2620
  334MOL0     C45965  11.558   1.546  11.148 -0.0613  0.6663 -0.5856
  334MOL0     C45966  11.602   1.428  11.053  1.1687 -0.1776 -0.3146
  334MOL0     C45967  11.553   1.286  11.107 -1.1121 -1.1505 -0.0494
  334MOL0     C45968  11.594   1.182  10.995  0.6368 -0.5409 -0.5452
  334MOL0     C45969  11.738   1.160  10.953  0.0928  0.3291  0.2966
  334MOL0     C45970  11.817   1.087  11.065 -0.5171  0.2319 -0.2670
  334MOL0     N45971  11.948   1.045  11.017 -0.2429 -0.0625 -0.0886
  334MOL0     C45972  12.045   1.117  10.952  0.0035 -0.5683 -0.1196
  334MOL0     C45973  12.156   1.044  10.966  0.0791 -0.0960  0.3012
  334MOL0     C45974  12.284   1.065  10.897 -0.1580  0.2906 -0.2288
  334MOL0     C45975  12.268   1.017  10.748  0.2072  0.5437 -0.7017
  334MOL0     C45976  12.418   1.011  10.696  0.5299 -0.5427  0.6595
  334MOL0     C45977  12.486   1.140  10.688  0.5193  0.1373  0.5734
  334MOL0     O45978  12.569   1.161  10.580 -0.5151 -0.0349  0.0541
  334MOL0     C45979  12.511   1.176  10.454  0.0894  0.6936 -0.0260
  334MOL0     C45980  12.377   1.218  10.421  0.3396  0.5016  0.6938
  334MOL0     C45981  12.332   1.225  10.281 -0.7681 -0.1517 -0.2406
  334MOL0     C45982  12.194   1.285  10.257 -0.1227  0.5581  0.2908
  334MOL0     C45983  12.419   1.178  10.172  1.2570 -0.3719 -0.3311
  334MOL0     C45984  12.385   1.195  10.025 -0.5430 -0.1317  0.8362
  334MOL0     O45985  12.488   1.163   9.946 -0.0965 -0.2218  0.7715
  334MOL0     C45986  12.468   1.170   9.814 -0.4792 -0.1748  0.6784
  334MOL0     C45987  12.415   1.070   9.744 -0.1727 -0.2186  0.6056
  334MOL0     C45988  12.395   1.093   9.607  1.1474 -0.3862 -0.1461
  334MOL0     C45989  12.453   1.198   9.539 -0.4375  0.8105 -0.1424
  334MOL0     O45990  12.442   1.228   9.408 -0.1572  0.1027 -0.6038
  334MOL0     C45991  12.476   1.125   9.308 -0.5022  0.6911 -0.8056
  334MOL0     C45992  12.614   1.069   9.313  0.6717 -0.4384 -0.4271
  334MOL0     C45993  12.654   0.963   9.216 -0.0531 -0.5419 -0.6853
  334MOL0     C45994  12.594   0.830   9.256  0.1715 -0.2636  0.0001
  334MOL0     C45995  12.672   0.711   9.189 -0.2458  0.0709 -0.0174
  334MOL0     C45996  12.680   0.711   9.035 -0.0290 -0.8990  0.3551
  334MOL0     C45997  12.732   0.583   8.973  1.1004  0.6694 -0.1175
  334MOL0     C45998  12.705   0.562   8.819  0.4598  0.2958  0.1041
  334MOL0    Cl45999  12.759   0.726   8.737 -0.2049 -0.1053  0.7440
  334MOL0     C46000  12.527   1.290   9.599 -0.0630  1.0750  0.0451
  334MOL0     C46001  12.533   1.278   9.736  0.1681  0.9346 -0.5803
  334MOL0     O46002  12.289   1.258   9.982 -0.1955 -0.0246 -0.8045
  334MOL0     C46003  12.549   1.134  10.207  0.0541  0.7521  0.2774
  334MOL0     C46004  12.585   1.140  10.341  0.9066  0.0510 -0.7346
  334MOL0     N46005  12.133   0.934  11.040  0.1033  0.0751 -0.2982
  334MOL0     N46006  12.010   0.936  11.071  0.0332  0.2605  0.7985
  334MOL0     C46007  11.302   1.746  11.266  0.0572  0.2507  0.5907
  334MOL0     C46008  11.166   1.715  11.299  0.6522 -0.0051 -0.2097
  334MOL0     C46009  10.754   1.514  11.210 -0.8169 -0.1642  0.2949
  334MOL0     C46010  10.662   1.618  11.182 -0.2490 -0.0172 -0.1248
  334MOL0     C46011  10.526   1.594  11.170 -0.4680  0.6958  0.5267
  334MOL0     C46012  10.477   1.468  11.211  0.0164  0.2571  0.1832
  334MOL0     O46013  10.343   1.435  11.200 -0.1038 -0.4063 -0.3210
  334MOL0     C46014  10.257   1.453  11.310  0.0390  0.2728  0.7530
  334MOL0     C46015  10.126   1.376  11.291  0.0061 -0.0464  0.6940
  334MOL0     C46016  10.160   1.226  11.311  0.5724 -0.0213 -0.7506
  334MOL0     C46017  10.047   1.140  11.249 -0.8884  0.7762 -0.5474
  334MOL0     C46018  10.077   0.999  11.283 -0.4866  0.0263 -0.1157
  334MOL0     C46019  10.114   0.889  11.313  0.8042 -0.1200  0.5015
  334MOL0     C46020  10.563   1.371  11.262 -0.6445 -0.2763  0.1537
  334MOL0     C46021  10.706   1.385  11.251 -0.7875 -1.5329 -0.2941
  334MOL0     C46022  10.799   1.284  11.312 -0.1995  0.0763  0.5690
  334MOL0     H46023  11.012   1.792  11.024  0.1391  0.0336 -0.2478
  334MOL0     H46024  11.246   1.872  10.964  2.9168 -3.4830 -1.8250
  334MOL0     H46025  11.563   1.784  11.277 -0.6197  2.4565 -0.5543
  334MOL0     H46026  11.641   1.875  11.153  2.3935 -1.7183  0.0932
  334MOL0     H46027  11.663   1.685  11.020 -0.8212  3.3747  0.4807
  334MOL0     H46028  11.737   1.665  11.172 -0.4328 -1.4425  0.1624
  334MOL0     H46029  11.568   1.515  11.253 -0.0664 -2.3324 -1.3869
  334MOL0     H46030  11.451   1.560  11.129 -0.6395 -2.0644  0.1484
  334MOL0     H46031  11.565   1.446  10.951 -1.3439  1.3812  0.7693
  334MOL0     H46032  11.710   1.429  11.063  1.0309  2.2838  1.6535
  334MOL0     H46033  11.447   1.291  11.134 -1.2664  2.4156 -0.7439
  334MOL0     H46034  11.607   1.270  11.201 -0.6277  1.0858  0.1202
  334MOL0     H46035  11.564   1.082  11.029  1.0557 -0.3728  0.3390
  334MOL0     H46036  11.536   1.212  10.908 -1.0859 -0.2295  0.6617
  334MOL0     H46037  11.781   1.260  10.939 -1.7681  1.2354  0.6876
  334MOL0     H46038  11.726   1.103  10.861 -4.9520  1.0934  0.2029
  334MOL0     H46039  11.815   1.150  11.155 -0.4146  1.8380 -1.3564
  334MOL0     H46040  11.767   0.991  11.081 -0.2572  0.1082 -0.1905
  334MOL0     H46041  12.040   1.202  10.885 -1.1776  0.3731  1.1180
  334MOL0     H46042  12.363   1.003  10.940 -2.0468 -2.8452 -1.0083
  334MOL0     H46043  12.305   1.172  10.908 -0.3791  0.2750  0.4047
  334MOL0     H46044  12.225   0.917  10.753  2.3395 -0.3899  0.2147
  334MOL0     H46045  12.193   1.084  10.703 -1.1477 -0.2263  0.3413
  334MOL0     H46046  12.465   0.938  10.763  0.3097 -2.6197 -1.3169
  334MOL0     H46047  12.423   0.953  10.603 -2.5470 -1.1259  0.7653
  334MOL0     H46048  12.417   1.225  10.694 -0.2768 -0.4669  0.1060
  334MOL0     H46049  12.538   1.152  10.783  0.1959  3.2039  0.4671
  334MOL0     H46050  12.301   1.246  10.492 -3.6609  0.8362 -3.2589
  334MOL0     H46051  12.133   1.288  10.347 -0.7443  0.4978 -0.1259
  334MOL0     H46052  12.151   1.222  10.179  2.6991 -1.9558  0.5523
  334MOL0     H46053  12.204   1.389  10.225  1.9493 -0.4378 -2.7278
  334MOL0     H46054  12.375   0.980   9.788  2.4701 -0.2630  3.2915
  334MOL0     H46055  12.330   1.019   9.561  1.0322  0.1321 -0.8419
  334MOL0     H46056  12.400   1.047   9.309  2.9260 -2.9414 -1.6312
  334MOL0     H46057  12.460   1.174   9.211 -3.5041 -0.3132 -0.9074
  334MOL0     H46058  12.681   1.154   9.296 -0.8831  0.7251 -0.9920
  334MOL0     H46059  12.625   1.031   9.414  1.6733  1.1725  0.1052
  334MOL0     H46060  12.762   0.950   9.219 -0.3035 -3.3015 -1.2029
  334MOL0     H46061  12.623   0.991   9.114 -1.0362  0.9612 -0.0180
  334MOL0     H46062  12.489   0.825   9.225  0.5660  0.5051 -1.5887
  334MOL0     H46063  12.584   0.809   9.363  0.1767  2.1246  0.5379
  334MOL0     H46064  12.773   0.709   9.232  0.0850  1.2218 -0.7055
  334MOL0     H46065  12.620   0.621   9.224 -2.9877  0.4433 -2.7572
  334MOL0     H46066  12.749   0.792   9.008 -0.6014 -0.2708  0.7482
  334MOL0     H46067  12.582   0.734   8.993 -1.4289 -2.6794  2.4146
  334MOL0     H46068  12.707   0.498   9.038 -0.6420  1.2157 -0.0505
  334MOL0     H46069  12.839   0.594   8.993  0.6976  4.1033  0.6845
  334MOL0     H46070  12.603   0.528   8.800  0.2997 -0.1657  1.6704
  334MOL0     H46071  12.767   0.479   8.786  1.5264  0.9646  0.3902
  334MOL0     H46072  12.578   1.370   9.547 -0.3789  2.3406  1.6308
  334MOL0     H46073  12.580   1.363   9.785 -1.7162  3.4347 -2.7806
  334MOL0     H46074  12.607   1.097  10.123 -2.6519 -3.0105 -0.2368
  334MOL0     H46075  12.686   1.110  10.368  0.9402 -0.2477 -1.1738
  334MOL0     H46076  11.376   1.740  11.344  0.6306 -1.1880 -0.0317
  334MOL0     H46077  11.129   1.680  11.394 -4.2481  1.4933 -1.3110
  334MOL0     H46078  10.704   1.714  11.153  2.3558 -1.1365 -0.3938
  334MOL0     H46079  10.456   1.671  11.141  0.1364  1.6910  1.5876
  334MOL0     H46080  10.309   1.420  11.400  0.3350 -1.0266  0.1320
  334MOL0     H46081  10.226   1.558  11.304  0.0356  0.1742 -1.9832
  334MOL0     H46082  10.078   1.403  11.196 -1.6264  2.3071  2.0643
  334MOL0     H46083  10.049   1.409  11.361 -2.6997 -0.6446 -1.8010
  334MOL0     H46084  10.250   1.193  11.259  0.8323  0.0257 -0.3366
  334MOL0     H46085  10.162   1.187  11.413 -0.6533 -0.3967 -0.8490
  334MOL0     H46086  10.031   1.151  11.141 -2.5289 -2.3255 -0.7342
  334MOL0     H46087   9.954   1.165  11.301 -1.5752  0.5600 -1.6425
  334MOL0     H46088  10.127   0.783  11.317  0.4366 -0.2946 -1.6552
  334MOL0     H46089  10.527   1.276  11.300 -0.3697  0.3802  2.1757
  334MOL0     H46090  10.884   1.330  11.363  0.4084 -0.8603  0.4483
  334MOL0     H46091  10.744   1.232  11.391 -1.6674  0.9170  0.1382
  334MOL0     H46092  10.838   1.209  11.242 -3.3549  1.2335 -2.7591
  335MOL0     O46093   2.258   4.740   1.347 -0.5439 -0.1159 -0.5409
  335MOL0     C46094   2.321   4.844   1.378 -0.8914  0.2111  0.0387
  335MOL0     O46095   2.274   4.939   1.466  0.8098 -0.0253 -0.1713
  335MOL0     C46096   2.138   4.933   1.496 -0.4234 -0.3054 -0.3319
  335MOL0     C46097   2.111   4.907   1.636  0.3905  0.5329  0.1074
  335MOL0     C46098   1.975   4.899   1.685  0.1222 -0.0316 -0.5833
  335MOL0     C46099   1.869   4.922   1.593 -0.4771 -0.2906 -1.3513
  335MOL0     O46100   1.746   4.921   1.657 -0.4482  0.0585  0.6476
  335MOL0     C46101   1.622   4.923   1.581  0.0696  0.8328  0.2018
  335MOL0     C46102   1.598   4.788   1.506 -0.1817 -0.0100  0.4894
  335MOL0     C46103   1.620   4.662   1.595 -0.9328 -0.1245 -0.4822
  335MOL0     C46104   1.568   4.532   1.525  0.3555  0.0714  0.1384
  335MOL0     C46105   1.426   4.540   1.488  0.0169 -0.1003  0.4720
  335MOL0     C46106   1.360   4.401   1.460 -0.4261  0.0537  0.1773
  335MOL0     C46107   1.417   4.323   1.345  0.5727 -0.6316 -0.3056
  335MOL0     C46108   1.414   4.385   1.209  0.1376  0.4483 -0.2152
  335MOL0     N46109   1.553   4.404   1.168 -0.6978 -0.2456  0.0431
  335MOL0     C46110   1.662   4.327   1.134 -0.3792 -0.5176 -0.3134
  335MOL0     C46111   1.759   4.422   1.097  0.3726  0.8510 -1.5920
  335MOL0     C46112   1.897   4.391   1.050  0.0931  0.3580 -0.4483
  335MOL0     C46113   1.981   4.521   1.076 -0.0228  0.3634 -0.0177
  335MOL0     C46114   2.126   4.511   1.040 -0.5701 -0.4148 -0.3094
  335MOL0     C46115   2.154   4.471   0.894  0.0066 -0.5181 -0.1945
  335MOL0     O46116   2.293   4.501   0.860 -0.3122  0.6682 -0.8259
  335MOL0     C46117   2.316   4.492   0.724 -1.2273  0.0705  0.8048
  335MOL0     C46118   2.242   4.435   0.616  0.1639 -0.5048 -0.9777
  335MOL0     C46119   2.275   4.457   0.481  0.2430 -0.2456 -0.1866
  335MOL0     C46120   2.191   4.393   0.371  0.1787 -0.4566 -0.1825
  335MOL0     C46121   2.398   4.531   0.454 -0.0827  0.9563 -0.2204
  335MOL0     C46122   2.459   4.545   0.320 -0.2293  0.6486  0.3918
  335MOL0     O46123   2.376   4.562   0.213  0.1926 -0.0529 -0.3326
  335MOL0     C46124   2.427   4.572   0.085 -0.1893 -0.4512  0.0470
  335MOL0     C46125   2.367   4.491  -0.020  0.6770  0.2626  0.4688
  335MOL0     C46126   2.404   4.503  -0.154 -0.2922 -0.4343  0.3733
  335MOL0     C46127   2.523   4.584  -0.185  0.2657  0.6612  0.6279
  335MOL0     O46128   2.586   4.572  -0.307  0.1429  0.0058 -0.2590
  335MOL0     C46129   2.727   4.617  -0.331  0.6303 -0.4727 -0.9796
  335MOL0     C46130   2.769   4.547  -0.458 -0.2488  1.3222 -0.0774
  335MOL0     C46131   2.915   4.564  -0.482 -0.2604  1.0494  0.0678
  335MOL0     C46132   2.955   4.456  -0.583 -1.4238 -0.3383  0.5095
  335MOL0     C46133   3.073   4.511  -0.664 -0.0159  0.2785  1.0813
  335MOL0     C46134   3.201   4.549  -0.586  0.4803 -0.8484 -0.1478
  335MOL0     C46135   3.330   4.589  -0.653  0.2246 -0.4927  0.5246
  335MOL0     C46136   3.436   4.615  -0.556 -0.2950 -0.2434  0.4800
  335MOL0    Cl46137   3.586   4.666  -0.646  0.1435  0.5098  0.1857
  335MOL0     C46138   2.577   4.656  -0.085 -0.1472 -0.4487  0.2588
  335MOL0     C46139   2.537   4.659   0.050 -0.7924  0.4445 -0.3949
  335MOL0     O46140   2.581   4.540   0.311  0.6041 -0.0096  0.6012
  335MOL0     C46141   2.478   4.570   0.564 -0.4938 -0.1656 -0.5596
  335MOL0     C46142   2.434   4.554   0.695  0.8625  0.4043 -0.2348
  335MOL0     N46143   1.701   4.546   1.101  0.1072  0.5808 -0.0701
  335MOL0     N46144   1.584   4.537   1.156 -0.0936  0.1343  0.1097
  335MOL0     C46145   1.902   4.950   1.457  0.4945  0.4100  0.1891
  335MOL0     C46146   2.029   4.955   1.408 -1.0143  0.2157 -0.2775
  335MOL0     C46147   2.454   4.869   1.332 -1.4210 -0.0281  0.6935
  335MOL0     C46148   2.508   4.991   1.372  0.2179  0.9291 -0.5219
  335MOL0     C46149   2.641   5.028   1.344  0.4461  1.5250  0.0741
  335MOL0     C46150   2.713   4.951   1.246  1.0113 -1.4867 -0.9363
  335MOL0     O46151   2.844   4.995   1.221  0.1753  0.4834  0.1896
  335MOL0     C46152   2.926   4.938   1.115 -0.7033  0.0026  0.3290
  335MOL0     C46153   2.988   5.043   1.033 -0.5431 -0.1051 -0.4699
  335MOL0     C46154   3.093   4.995   0.940  0.9268 -0.3715 -1.3491
  335MOL0     C46155   3.173   5.112   0.885  0.6325  0.3313  0.1828
  335MOL0     C46156   3.098   5.197   0.794 -0.5985  0.0815 -0.4666
  335MOL0     C46157   3.037   5.247   0.699  0.1630 -0.3209 -0.1536
  335MOL0     C46158   2.659   4.839   1.192 -0.3513 -0.1673 -0.2787
  335MOL0     C46159   2.529   4.787   1.235 -0.0509 -0.0662 -0.2731
  335MOL0     C46160   2.477   4.660   1.171 -0.6246 -0.3426  0.4411
  335MOL0     H46161   2.192   4.883   1.705  2.2157 -2.2541 -2.7277
  335MOL0     H46162   1.952   4.904   1.792  1.6622  2.6647 -0.2815
  335MOL0     H46163   1.610   5.013   1.520  1.1046  1.5376  0.9836
  335MOL0     H46164   1.545   4.926   1.659  0.4245 -0.6445  0.6424
  335MOL0     H46165   1.502   4.785   1.455  1.3230  2.9515 -2.8958
  335MOL0     H46166   1.671   4.783   1.424 -0.4603 -1.9582  0.3063
  335MOL0     H46167   1.723   4.647   1.629 -1.0003 -1.6456 -0.8633
  335MOL0     H46168   1.559   4.674   1.684  2.1196  1.5835  1.5574
  335MOL0     H46169   1.635   4.518   1.440 -0.8513 -0.4438 -0.7512
  335MOL0     H46170   1.592   4.455   1.600 -0.0969 -1.3526 -1.1184
  335MOL0     H46171   1.411   4.607   1.404  0.4346 -0.0760  0.4149
  335MOL0     H46172   1.379   4.575   1.580 -0.8188 -0.1086  0.0557
  335MOL0     H46173   1.360   4.342   1.552 -0.7887  1.4925  1.1390
  335MOL0     H46174   1.253   4.417   1.446 -0.8134 -1.9652  0.5441
  335MOL0     H46175   1.357   4.233   1.328 -1.6203  0.3391  1.7201
  335MOL0     H46176   1.519   4.299   1.375 -0.0656  1.5716  4.4895
  335MOL0     H46177   1.366   4.315   1.139  3.0651 -0.6002 -1.3422
  335MOL0     H46178   1.359   4.479   1.217 -1.8125 -0.7097  0.8563
  335MOL0     H46179   1.668   4.219   1.130  1.8829 -0.4916  0.6322
  335MOL0     H46180   1.878   4.374   0.943 -3.0836 -1.6040  0.2589
  335MOL0     H46181   1.938   4.305   1.104  0.1773  1.5393  1.4363
  335MOL0     H46182   1.942   4.605   1.019  0.5944  2.3501  2.3184
  335MOL0     H46183   1.974   4.541   1.183  1.4090 -2.4239  0.6992
  335MOL0     H46184   2.166   4.611   1.060  0.6024 -0.5155 -1.9178
  335MOL0     H46185   2.169   4.434   1.104 -2.6946 -0.5183  1.0864
  335MOL0     H46186   2.133   4.364   0.893  0.0361 -0.5530  1.2260
  335MOL0     H46187   2.078   4.520   0.832  0.2777 -1.0262 -0.9481
  335MOL0     H46188   2.150   4.381   0.639  0.4545  0.3531  2.8947
  335MOL0     H46189   2.140   4.468   0.310 -0.6679 -0.0712  0.9543
  335MOL0     H46190   2.114   4.325   0.408  0.9091 -2.7384 -2.5597
  335MOL0     H46191   2.254   4.333   0.306  1.7668 -0.6999  1.4817
  335MOL0     H46192   2.286   4.424   0.010 -1.2707  1.5214 -1.6599
  335MOL0     H46193   2.342   4.467  -0.236 -2.6933  0.9692  1.4545
  335MOL0     H46194   2.740   4.726  -0.331  1.2003 -0.3965  2.9643
  335MOL0     H46195   2.783   4.580  -0.244 -1.5118  3.9057  2.6792
  335MOL0     H46196   2.739   4.442  -0.448 -0.1519  1.1070 -1.7899
  335MOL0     H46197   2.718   4.584  -0.548 -3.0333 -0.5768  0.5742
  335MOL0     H46198   2.982   4.545  -0.398  0.6290 -3.2611 -1.3321
  335MOL0     H46199   2.939   4.662  -0.524  2.5549  0.9372  1.1810
  335MOL0     H46200   2.879   4.434  -0.659 -2.7115  0.5906  1.4705
  335MOL0     H46201   2.978   4.366  -0.525 -2.2191 -0.9202 -0.0617
  335MOL0     H46202   3.101   4.438  -0.740 -2.1478  0.5617 -0.0568
  335MOL0     H46203   3.042   4.601  -0.719  3.5685 -0.1554 -2.0642
  335MOL0     H46204   3.215   4.459  -0.526 -1.0042 -0.4290  0.9109
  335MOL0     H46205   3.174   4.631  -0.518  0.4729 -1.0375  0.0778
  335MOL0     H46206   3.306   4.683  -0.703 -1.1860  1.6280  4.7012
  335MOL0     H46207   3.369   4.514  -0.723 -1.3309 -0.4945 -0.3910
  335MOL0     H46208   3.456   4.525  -0.497 -2.6722 -1.1825 -0.0379
  335MOL0     H46209   3.412   4.693  -0.483 -1.4793 -1.5081  1.4848
  335MOL0     H46210   2.657   4.722  -0.118 -0.4376 -0.0952  0.2511
  335MOL0     H46211   2.583   4.722   0.125 -0.4781  1.6519 -1.5849
  335MOL0     H46212   2.580   4.606   0.552 -0.8090  1.3638  0.9730
  335MOL0     H46213   2.503   4.583   0.773  0.2909  0.0851  0.4023
  335MOL0     H46214   1.825   4.974   1.385 -0.8641  1.3998  1.8984
  335MOL0     H46215   2.035   4.989   1.304 -1.3062  3.8774  0.7492
  335MOL0     H46216   2.463   5.062   1.441  0.5277  0.2275  0.4226
  335MOL0     H46217   2.679   5.113   1.401  1.7661  0.0150  1.5274
  335MOL0     H46218   3.011   4.889   1.164  1.9301  2.4235 -1.4823
  335MOL0     H46219   2.880   4.862   1.051 -0.1722  1.3082 -1.6924
  335MOL0     H46220   3.030   5.124   1.094  3.2119 -2.3651  0.2085
  335MOL0     H46221   2.902   5.083   0.977  0.0481 -0.5464 -1.7322
  335MOL0     H46222   3.158   4.926   0.995 -0.5826 -0.7284  0.0545
  335MOL0     H46223   3.041   4.936   0.864  0.5069 -0.5114 -0.9558
  335MOL0     H46224   3.261   5.077   0.830  0.5996 -0.6342  0.7242
  335MOL0     H46225   3.226   5.164   0.965  0.3931  1.5654 -0.4437
  335MOL0     H46226   2.964   5.294   0.637 -1.0977 -1.8981  0.0668
  335MOL0     H46227   2.712   4.779   1.119  0.2267 -0.1512  0.1243
  335MOL0     H46228   2.430   4.594   1.245  0.2970  0.8066  2.1135
  335MOL0     H46229   2.398   4.686   1.100  0.7681  0.7344 -0.7916
  335MOL0     H46230   2.555   4.618   1.108 -1.3333  0.8478 -1.2960
  336MOL0     O46231   8.105  10.452   8.235  0.2029 -0.0710 -0.1919
  336MOL0     C46232   8.168  10.354   8.270 -0.8587  0.0634 -0.5960
  336MOL0     O46233   8.303  10.347   8.244  0.7601 -0.0317 -0.0121
  336MOL0     C46234   8.366  10.462   8.184 -0.3923 -0.7823  0.2127
  336MOL0     C46235   8.403  10.469   8.052 -0.3866  0.2855  0.0240
  336MOL0     C46236   8.486  10.575   8.005 -0.2646 -0.0646  0.6188
  336MOL0     C46237   8.525  10.678   8.087  0.2223 -0.6895 -0.2700
  336MOL0     O46238   8.596  10.775   8.028  0.3306 -0.2589 -0.1828
  336MOL0     C46239   8.739  10.784   8.063 -0.2289  0.8898 -0.1341
  336MOL0     C46240   8.818  10.705   7.949 -0.4536  0.0143  0.5760
  336MOL0     C46241   8.770  10.722   7.800  0.2821  0.1702 -0.0862
  336MOL0     C46242   8.750  10.868   7.746 -0.5550 -0.2637  0.1560
  336MOL0     C46243   8.878  10.942   7.689  0.0655 -0.2745  0.2444
  336MOL0     C46244   8.982  10.967   7.795 -0.6346 -0.0403  0.0006
  336MOL0     C46245   9.083  11.057   7.726  0.1115 -0.0501 -0.3261
  336MOL0     C46246   9.157  11.131   7.840  0.9571  0.3991  0.5858
  336MOL0     N46247   9.261  11.207   7.777 -0.2883 -0.1897  0.1327
  336MOL0     C46248   9.261  11.287   7.669  0.2719  0.0521 -0.3618
  336MOL0     C46249   9.380  11.354   7.655  0.2160 -0.5863  0.1968
  336MOL0     C46250   9.422  11.462   7.555 -0.5126 -0.0699  0.2551
  336MOL0     C46251   9.502  11.595   7.593 -0.4980 -0.2390 -0.5618
  336MOL0     C46252   9.420  11.688   7.691  0.6835  0.2282  0.5260
  336MOL0     C46253   9.524  11.769   7.765 -0.2919 -0.9991 -0.2455
  336MOL0     O46254   9.462  11.891   7.813  0.4109  0.0619 -0.0726
  336MOL0     C46255   9.513  11.970   7.920  0.4714 -0.5117  0.7418
  336MOL0     C46256   9.423  12.071   7.976  0.1391  0.4795  0.7289
  336MOL0     C46257   9.444  12.137   8.094  0.3531 -0.8092  0.7441
  336MOL0     C46258   9.349  12.253   8.127 -0.9038 -0.2122  0.0872
  336MOL0     C46259   9.562  12.099   8.169  0.1850 -0.6039 -0.3850
  336MOL0     C46260   9.600  12.173   8.295  0.2960 -0.4948 -0.3105
  336MOL0     O46261   9.729  12.159   8.331  0.6565  0.4608 -0.1188
  336MOL0     C46262   9.789  12.187   8.449  0.1010  0.7595 -0.2808
  336MOL0     C46263   9.732  12.159   8.574 -0.1928 -0.2036  0.3742
  336MOL0     C46264   9.796  12.178   8.693  0.5922 -0.4303  0.9796
  336MOL0     C46265   9.916  12.242   8.685 -0.8841  0.8113 -0.3891
  336MOL0     O46266   9.977  12.276   8.797 -0.4057 -0.0388  0.7520
  336MOL0     C46267  10.004  12.178   8.894  0.0431 -0.1908 -0.2229
  336MOL0     C46268  10.103  12.222   9.003  0.1798  1.2968  0.5694
  336MOL0     C46269  10.124  12.112   9.107 -0.3168 -0.3007 -0.5410
  336MOL0     C46270  10.215  11.999   9.054 -0.5307  0.5327 -1.0830
  336MOL0     C46271  10.218  11.868   9.138  0.9957 -0.6078 -0.3491
  336MOL0     C46272  10.261  11.897   9.283  0.4805  0.0825  0.7164
  336MOL0     C46273  10.280  11.768   9.368 -0.7935  0.2609 -0.2099
  336MOL0     C46274  10.310  11.802   9.511 -0.1716 -0.0432 -0.3495
  336MOL0    Cl46275  10.486  11.844   9.533 -0.5540 -0.1176 -0.1792
  336MOL0     C46276   9.976  12.284   8.564 -0.0709  0.2628  0.9986
  336MOL0     C46277   9.917  12.249   8.449  0.5408 -0.2800  0.2629
  336MOL0     O46278   9.516  12.222   8.373  0.9130  0.2215  0.6696
  336MOL0     C46279   9.657  12.012   8.115 -0.5909 -0.3641  0.5619
  336MOL0     C46280   9.627  11.946   7.994  0.7397  0.4797  0.2717
  336MOL0     N46281   9.454  11.310   7.760 -0.5667  0.0168  0.4822
  336MOL0     N46282   9.385  11.223   7.833 -0.7053  0.8684 -0.3616
  336MOL0     C46283   8.464  10.683   8.211 -0.0661  0.9145 -0.3360
  336MOL0     C46284   8.389  10.579   8.268  0.3612  0.2420  0.6152
  336MOL0     C46285   8.097  10.251   8.346  0.1078  0.6117 -0.4596
  336MOL0     C46286   8.171  10.149   8.401 -0.3370  0.4760  0.2072
  336MOL0     C46287   8.131  10.060   8.492 -0.4517 -0.0373 -0.6399
  336MOL0     C46288   7.994  10.062   8.520  0.2194  0.6365 -0.9179
  336MOL0     O46289   7.938   9.988   8.620 -1.8739 -0.2219  0.5685
  336MOL0     C46290   8.013   9.915   8.726  0.7076 -1.2544  0.1833
  336MOL0     C46291   7.951   9.960   8.858 -0.8374 -0.0637  0.0899
  336MOL0     C46292   7.978  10.113   8.877  0.7558  0.7900  0.0907
  336MOL0     C46293   7.967  10.150   9.028  0.7001  0.3212 -0.2661
  336MOL0     C46294   7.976  10.300   9.050  0.4654  0.0668  0.6390
  336MOL0     C46295   7.983  10.420   9.066 -0.1581  0.4563 -0.2323
  336MOL0     C46296   7.905  10.150   8.453 -0.6807 -0.2624  0.0472
  336MOL0     C46297   7.959  10.249   8.371  0.0225  0.5789 -1.1607
  336MOL0     C46298   7.862  10.351   8.308  0.0408  0.7196  0.5358
  336MOL0     H46299   8.362  10.384   7.999  1.1974  0.6338 -1.8609
  336MOL0     H46300   8.515  10.590   7.901 -2.0326  3.5247  0.4696
  336MOL0     H46301   8.755  10.742   8.162 -3.6497  0.1628  0.2395
  336MOL0     H46302   8.767  10.890   8.061 -3.0877  1.7717  1.0091
  336MOL0     H46303   8.925  10.727   7.957 -0.0604 -0.5900 -2.0717
  336MOL0     H46304   8.818  10.596   7.953  1.4317 -0.1068 -1.0618
  336MOL0     H46305   8.837  10.679   7.726 -2.3396 -2.2971 -1.2155
  336MOL0     H46306   8.674  10.670   7.792  0.0809  0.6631 -0.9996
  336MOL0     H46307   8.669  10.863   7.673  0.0642 -4.5334 -0.5204
  336MOL0     H46308   8.715  10.927   7.831  0.8776  0.6633  0.1488
  336MOL0     H46309   8.845  11.038   7.648 -1.1308  0.2562  2.3142
  336MOL0     H46310   8.916  10.899   7.596 -0.9374  1.4159 -0.9996
  336MOL0     H46311   8.940  11.008   7.888  0.3752 -0.1725  0.5265
  336MOL0     H46312   9.032  10.874   7.822  2.3250  0.7085 -2.3656
  336MOL0     H46313   9.034  11.134   7.666  1.7119  1.0644 -0.2896
  336MOL0     H46314   9.152  10.992   7.672 -0.9514  0.4177 -2.3158
  336MOL0     H46315   9.084  11.198   7.888 -2.5413 -1.2384 -1.9724
  336MOL0     H46316   9.204  11.063   7.911  1.2591  0.2979  0.2877
  336MOL0     H46317   9.180  11.302   7.597  0.1726  0.7738 -0.1073
  336MOL0     H46318   9.333  11.502   7.504 -1.2257  0.4732  1.8793
  336MOL0     H46319   9.474  11.410   7.474  0.9527 -0.4382  1.4019
  336MOL0     H46320   9.597  11.570   7.641 -1.5032  0.0321  1.7141
  336MOL0     H46321   9.528  11.639   7.497 -0.3811  1.4451  0.2057
  336MOL0     H46322   9.353  11.750   7.630  0.1984  0.6040  1.4167
  336MOL0     H46323   9.355  11.631   7.759 -2.6920  3.3443  0.2404
  336MOL0     H46324   9.550  11.712   7.854  0.0312 -0.4346  0.0303
  336MOL0     H46325   9.604  11.788   7.692  0.0848 -1.2029  0.1095
  336MOL0     H46326   9.341  12.080   7.907  0.4453 -1.5469  0.0309
  336MOL0     H46327   9.397  12.351   8.135  0.7558 -0.9144 -0.7643
  336MOL0     H46328   9.289  12.225   8.214 -1.0592 -1.8057 -0.4900
  336MOL0     H46329   9.271  12.267   8.051  1.1243 -0.1317 -2.0916
  336MOL0     H46330   9.636  12.110   8.574  0.3056 -1.2157  0.1913
  336MOL0     H46331   9.754  12.141   8.786  0.5941 -1.1124  0.7127
  336MOL0     H46332   9.908  12.160   8.943 -0.4239  0.4820 -0.8732
  336MOL0     H46333  10.032  12.085   8.844  0.5998 -0.3712  0.3966
  336MOL0     H46334  10.198  12.251   8.958  0.1768  0.9918  0.3626
  336MOL0     H46335  10.062  12.316   9.042 -1.4801  0.6797  0.3955
  336MOL0     H46336  10.027  12.075   9.140  0.1904 -0.7900  0.4476
  336MOL0     H46337  10.165  12.162   9.195 -0.9147 -2.6917  1.2018
  336MOL0     H46338  10.315  12.043   9.056 -0.7018  0.9135 -0.6670
  336MOL0     H46339  10.185  11.966   8.954 -0.1972 -5.3425  0.4118
  336MOL0     H46340  10.121  11.818   9.133  0.3639  0.5640 -0.2617
  336MOL0     H46341  10.294  11.810   9.086  2.1811  1.2111 -0.7511
  336MOL0     H46342  10.192  11.965   9.334 -0.0437  0.1299 -0.0409
  336MOL0     H46343  10.361  11.941   9.279  0.1575  0.7464 -0.3334
  336MOL0     H46344  10.351  11.705   9.315 -0.4615  1.3703 -1.1258
  336MOL0     H46345  10.182  11.720   9.367 -0.5021 -0.3676  0.4859
  336MOL0     H46346  10.272  11.716   9.568 -0.4936  1.9751  2.7244
  336MOL0     H46347  10.250  11.888   9.542  0.4686  0.3369 -0.1449
  336MOL0     H46348  10.076  12.324   8.562 -1.0797  3.0382  1.3178
  336MOL0     H46349   9.978  12.275   8.363  0.3046  2.1938  0.7852
  336MOL0     H46350   9.748  12.002   8.172  0.2773  1.4556 -0.4183
  336MOL0     H46351   9.692  11.864   7.965 -2.5367 -1.5072 -2.1221
  336MOL0     H46352   8.494  10.765   8.276 -0.3428  0.0945  0.8445
  336MOL0     H46353   8.369  10.601   8.372 -0.4011 -0.4330  0.6254
  336MOL0     H46354   8.277  10.147   8.379 -0.3060  1.1818  0.2631
  336MOL0     H46355   8.219  10.008   8.528 -0.1120  2.2973  2.2968
  336MOL0     H46356   7.994   9.808   8.714 -1.2827 -0.9032 -0.0646
  336MOL0     H46357   8.118   9.942   8.739  0.1947  0.7263  0.4474
  336MOL0     H46358   7.997   9.901   8.938 -2.3984 -0.3073  0.8419
  336MOL0     H46359   7.844   9.939   8.866 -1.1003  0.1545 -2.1776
  336MOL0     H46360   8.081  10.136   8.848  0.6834  1.0925  0.0701
  336MOL0     H46361   7.922  10.183   8.816 -2.8496  0.2484  2.4939
  336MOL0     H46362   8.042  10.105   9.094 -2.3595 -0.5356  2.9378
  336MOL0     H46363   7.879  10.106   9.075  1.9930 -1.6774  0.3941
  336MOL0     H46364   8.002  10.523   9.087  0.3438  0.6788 -1.6882
  336MOL0     H46365   7.802  10.136   8.484  0.0451 -0.2511  2.7124
  336MOL0     H46366   7.876  10.355   8.200  0.3856  0.6488  0.5749
  336MOL0     H46367   7.758  10.319   8.321  0.8291 -2.1878  0.4817
  336MOL0     H46368   7.885  10.448   8.353  2.2582  1.8976 -2.8111
  337MOL0     O46369   0.433   5.678   3.885 -0.1484 -0.2617  0.3103
  337MOL0     C46370   0.388   5.595   3.804  0.1346  0.4499 -0.1451
  337MOL0     O46371   0.456   5.490   3.760  0.3687 -0.4838 -0.2990
  337MOL0     C46372   0.586   5.464   3.799 -0.1463 -0.7777 -0.5658
  337MOL0     C46373   0.623   5.323   3.810  0.2533 -0.2302 -0.4612
  337MOL0     C46374   0.749   5.279   3.854 -0.7857 -0.3406  0.0369
  337MOL0     C46375   0.852   5.384   3.885  0.2945  0.8276 -0.8837
  337MOL0     O46376   0.979   5.350   3.928  0.0187 -0.5448 -0.0938
  337MOL0     C46377   1.011   5.219   3.978  0.2670  0.2365  0.2176
  337MOL0     C46378   0.952   5.198   4.116 -0.2336 -0.1924  0.1538
  337MOL0     C46379   1.009   5.291   4.221 -0.3884  0.9893  0.2184
  337MOL0     C46380   0.952   5.257   4.355 -0.5273  0.5720  0.5708
  337MOL0     C46381   0.991   5.356   4.461 -0.1012 -0.5393  0.5859
  337MOL0     C46382   0.918   5.331   4.583 -0.0073 -0.1085 -0.1092
  337MOL0     C46383   0.950   5.197   4.645 -0.1008  0.0572  0.4898
  337MOL0     C46384   0.908   5.190   4.792 -0.2292  0.5020 -0.2426
  337MOL0     N46385   0.960   5.060   4.850  0.4718 -0.5335 -0.1182
  337MOL0     C46386   1.091   5.010   4.863 -0.2868 -0.0571 -0.3832
  337MOL0     C46387   1.060   4.892   4.927  0.4982 -0.1474 -0.9079
  337MOL0     C46388   1.169   4.789   4.943  0.5527 -0.4432  0.5792
  337MOL0     C46389   1.270   4.807   5.057  0.8236 -0.2277 -0.0763
  337MOL0     C46390   1.336   4.672   5.096 -0.4244  0.2929 -0.8324
  337MOL0     C46391   1.458   4.707   5.188  0.8967  0.3506 -0.0980
  337MOL0     O46392   1.571   4.775   5.126  0.4260  0.5082 -0.1696
  337MOL0     C46393   1.694   4.766   5.182  0.5154  0.0434 -0.0398
  337MOL0     C46394   1.801   4.810   5.097 -0.3847  0.5804  0.4693
  337MOL0     C46395   1.935   4.811   5.148  0.1149 -0.2466  0.1958
  337MOL0     C46396   2.032   4.858   5.051 -0.1109  0.0527  0.0706
  337MOL0     C46397   1.959   4.783   5.282  0.4892 -0.1308 -0.5238
  337MOL0     C46398   2.094   4.800   5.344 -0.5742 -0.2860  0.3042
  337MOL0     O46399   2.104   4.853   5.469 -0.2887  0.5909  0.0848
  337MOL0     C46400   2.228   4.836   5.529  0.1187 -0.5153 -0.2968
  337MOL0     C46401   2.273   4.708   5.584 -0.7164 -0.8185  0.3750
  337MOL0     C46402   2.383   4.701   5.665 -1.0466  0.2950  0.9664
  337MOL0     C46403   2.455   4.817   5.690 -0.0713 -0.1837  0.3020
  337MOL0     O46404   2.569   4.820   5.767 -0.4765  0.9868 -0.2809
  337MOL0     C46405   2.695   4.817   5.687 -0.3647  0.7725  0.6590
  337MOL0     C46406   2.802   4.882   5.771 -0.8585 -0.3647  0.0525
  337MOL0     C46407   2.763   5.019   5.832 -0.3114  0.5394  0.2808
  337MOL0     C46408   2.884   5.101   5.868  0.5415 -0.0526 -0.4507
  337MOL0     C46409   2.858   5.236   5.938  0.7589 -0.0161  0.4510
  337MOL0     C46410   2.787   5.341   5.853  0.0313 -0.0648 -0.7226
  337MOL0     C46411   2.771   5.456   5.947 -0.3370 -0.7031  0.1987
  337MOL0     C46412   2.712   5.569   5.868  0.7414 -0.3213  0.0579
  337MOL0    Cl46413   2.635   5.702   5.967  0.1743 -0.2401  0.2007
  337MOL0     C46414   2.421   4.929   5.620  0.4752  0.1711  0.3278
  337MOL0     C46415   2.304   4.947   5.554 -0.1362  0.3943  0.4868
  337MOL0     O46416   2.191   4.753   5.278  0.1741  0.5208  0.2350
  337MOL0     C46417   1.846   4.738   5.364 -0.7930 -0.0770 -0.2018
  337MOL0     C46418   1.720   4.729   5.314 -0.0721 -0.7792 -0.1502
  337MOL0     N46419   0.923   4.874   4.956  0.7053  0.0825  0.2749
  337MOL0     N46420   0.869   4.978   4.906 -0.5381  0.6962  1.0631
  337MOL0     C46421   0.820   5.521   3.863  0.0010  0.4422 -0.1670
  337MOL0     C46422   0.686   5.560   3.825  0.6504  0.4094  0.1219
  337MOL0     C46423   0.247   5.618   3.755 -0.5194 -0.3246  0.0470
  337MOL0     C46424   0.182   5.745   3.785 -0.4320 -0.0619  0.2415
  337MOL0     C46425   0.055   5.774   3.739 -0.3895 -0.2876  0.5280
  337MOL0     C46426  -0.022   5.679   3.667 -0.2109 -0.3547 -0.2998
  337MOL0     O46427  -0.150   5.699   3.621 -0.1486  0.1824 -0.1351
  337MOL0     C46428  -0.178   5.842   3.596  0.6394  0.1628  0.2059
  337MOL0     C46429  -0.290   5.876   3.489 -0.4330 -0.5216  0.5595
  337MOL0     C46430  -0.425   5.806   3.516  0.1787 -0.5883  0.1910
  337MOL0     C46431  -0.500   5.866   3.636 -0.4281  0.6367  0.5832
  337MOL0     C46432  -0.546   6.005   3.612  0.9863 -0.1297 -0.2183
  337MOL0     C46433  -0.587   6.115   3.580 -0.1721  0.1035 -0.4757
  337MOL0     C46434   0.040   5.552   3.636 -0.2051  0.6190  0.0382
  337MOL0     C46435   0.174   5.517   3.686  1.3914  0.4308 -0.0166
  337MOL0     C46436   0.234   5.377   3.643 -0.6603 -0.0879 -0.2094
  337MOL0     H46437   0.555   5.239   3.796 -1.2721  0.4840  2.0279
  337MOL0     H46438   0.761   5.172   3.870  1.8959  0.1491  2.0855
  337MOL0     H46439   1.121   5.217   3.982  0.2796 -0.7228 -0.3583
  337MOL0     H46440   0.979   5.137   3.913  0.3254  1.8424 -1.9406
  337MOL0     H46441   0.844   5.213   4.109  0.1078  1.7329 -3.5241
  337MOL0     H46442   0.962   5.091   4.136 -1.3490 -0.3184  0.1128
  337MOL0     H46443   1.117   5.277   4.224 -0.7074 -1.7877  1.5931
  337MOL0     H46444   0.973   5.393   4.203 -0.9192  0.3626 -2.9803
  337MOL0     H46445   0.843   5.257   4.350 -0.5245  1.7511  0.3700
  337MOL0     H46446   0.987   5.155   4.373  0.2336  0.6718 -0.2718
  337MOL0     H46447   0.969   5.459   4.435  0.6880 -0.0556  1.7465
  337MOL0     H46448   1.099   5.352   4.483  0.2107 -0.2023 -0.7939
  337MOL0     H46449   0.947   5.412   4.651  2.1588 -0.6473 -0.3343
  337MOL0     H46450   0.811   5.352   4.571 -0.2087 -0.4379  0.9678
  337MOL0     H46451   1.054   5.165   4.637 -0.6845 -1.9422  0.3087
  337MOL0     H46452   0.895   5.124   4.585  1.5333  0.5713 -1.7384
  337MOL0     H46453   0.945   5.274   4.851 -1.5789  0.8435  0.1499
  337MOL0     H46454   0.800   5.196   4.810 -0.4505  0.6746 -1.5462
  337MOL0     H46455   1.185   5.033   4.815 -1.0281 -1.6596 -2.8403
  337MOL0     H46456   1.221   4.797   4.847  1.0608  2.8049  1.0056
  337MOL0     H46457   1.126   4.688   4.950  0.4924 -0.5065 -0.5271
  337MOL0     H46458   1.340   4.890   5.043  1.5028 -0.3110  2.3547
  337MOL0     H46459   1.202   4.848   5.133 -0.0153 -1.0590 -0.3510
  337MOL0     H46460   1.272   4.614   5.163  1.7016  0.6940  1.7120
  337MOL0     H46461   1.375   4.616   5.011  0.1437  1.3252 -1.2666
  337MOL0     H46462   1.433   4.763   5.279 -2.4794 -1.3324  0.1733
  337MOL0     H46463   1.502   4.616   5.229 -1.2591 -0.8118 -0.1945
  337MOL0     H46464   1.775   4.841   4.996  1.3539 -1.4892 -0.6914
  337MOL0     H46465   1.987   4.907   4.963  0.3360  0.5473  0.1118
  337MOL0     H46466   2.090   4.773   5.016  1.1053  1.6047 -1.9407
  337MOL0     H46467   2.101   4.928   5.099  0.5324 -2.3379  2.8761
  337MOL0     H46468   2.215   4.622   5.554 -1.9578 -0.6426  2.1265
  337MOL0     H46469   2.426   4.605   5.693  1.0208  0.3782 -1.5375
  337MOL0     H46470   2.726   4.714   5.669 -0.5618  1.0011 -1.1173
  337MOL0     H46471   2.679   4.868   5.592  1.3875 -0.7758 -0.5501
  337MOL0     H46472   2.827   4.805   5.845 -1.7792 -1.6790 -0.9438
  337MOL0     H46473   2.889   4.906   5.708 -3.0390  0.9324 -2.6796
  337MOL0     H46474   2.704   5.000   5.922  0.3353  1.7399  0.9844
  337MOL0     H46475   2.702   5.072   5.758 -1.4030 -1.0587 -0.0224
  337MOL0     H46476   2.932   5.114   5.771 -2.2067  0.5926 -1.8081
  337MOL0     H46477   2.950   5.035   5.926 -0.9700  0.4339  1.9568
  337MOL0     H46478   2.808   5.217   6.033 -2.7576 -2.6931 -1.6824
  337MOL0     H46479   2.951   5.289   5.960 -0.4794  0.5513  5.4434
  337MOL0     H46480   2.692   5.302   5.815  1.5499  0.4184 -5.7925
  337MOL0     H46481   2.845   5.360   5.762  2.3810 -0.5757  0.5824
  337MOL0     H46482   2.868   5.489   5.983  0.6859 -1.6292 -1.5478
  337MOL0     H46483   2.701   5.434   6.028 -2.8896  2.1038 -1.0162
  337MOL0     H46484   2.634   5.527   5.804  1.4467 -1.8578  0.1437
  337MOL0     H46485   2.782   5.617   5.798 -1.2709  4.7434  1.1563
  337MOL0     H46486   2.483   5.018   5.628 -0.6548  0.9786  0.3514
  337MOL0     H46487   2.269   5.045   5.522  0.6002  1.5813  2.9998
  337MOL0     H46488   1.856   4.740   5.472 -3.3227  0.0120  0.0763
  337MOL0     H46489   1.629   4.709   5.370 -0.4933 -0.2423 -0.6337
  337MOL0     H46490   0.892   5.595   3.896  0.8567 -0.0973 -0.7837
  337MOL0     H46491   0.654   5.664   3.822 -1.8004 -0.2416  1.2084
  337MOL0     H46492   0.235   5.818   3.845 -1.1516 -2.8850  4.8122
  337MOL0     H46493   0.029   5.875   3.768  1.1940  0.7583 -1.4002
  337MOL0     H46494  -0.203   5.888   3.691 -2.9883  2.7130 -1.7498
  337MOL0     H46495  -0.083   5.881   3.557  1.0840 -1.4333 -0.4303
  337MOL0     H46496  -0.250   5.858   3.389 -3.3106  0.7146 -0.9452
  337MOL0     H46497  -0.304   5.984   3.493  1.1877 -0.2677  0.1103
  337MOL0     H46498  -0.478   5.791   3.422 -0.3648 -1.6569  0.6479
  337MOL0     H46499  -0.408   5.705   3.554  0.7588  0.1235  1.9463
  337MOL0     H46500  -0.436   5.873   3.724  1.7470 -2.0567 -0.6319
  337MOL0     H46501  -0.591   5.811   3.661 -1.4638  1.8680 -0.2957
  337MOL0     H46502  -0.629   6.203   3.535 -1.4271 -1.1953 -1.9697
  337MOL0     H46503  -0.008   5.476   3.574  0.2924 -0.6800  1.1720
  337MOL0     H46504   0.149   5.316   3.611 -0.4144 -0.5962  0.1005
  337MOL0     H46505   0.300   5.388   3.557 -0.1285 -2.5540 -0.1985
  337MOL0     H46506   0.272   5.318   3.727 -0.3090 -0.3358 -0.5407
  338MOL0     O46507   4.919   8.327   2.760  0.3572  0.5644 -0.3326
  338MOL0     C46508   4.853   8.341   2.662 -0.0304 -0.1128  0.0654
  338MOL0     O46509   4.874   8.278   2.541  0.3295 -0.7460 -0.1630
  338MOL0     C46510   4.998   8.231   2.514 -0.7802 -0.0060 -0.3038
  338MOL0     C46511   5.116   8.289   2.562 -1.1208  0.2050 -0.9554
  338MOL0     C46512   5.247   8.246   2.512  0.5145 -0.5080 -0.4629
  338MOL0     C46513   5.252   8.142   2.418 -0.3234 -0.7946  0.6456
  338MOL0     O46514   5.374   8.087   2.387 -0.2848  0.5341  0.0257
  338MOL0     C46515   5.389   7.965   2.302  0.3179 -0.4946 -0.1279
  338MOL0     C46516   5.537   7.940   2.274  0.9058 -0.3438 -0.5310
  338MOL0     C46517   5.561   7.853   2.150 -0.0337  0.5838 -0.0861
  338MOL0     C46518   5.713   7.858   2.106  0.3450  0.0361 -0.5070
  338MOL0     C46519   5.736   7.749   1.996  0.6672  0.0314 -0.7054
  338MOL0     C46520   5.873   7.779   1.927  0.1811  0.3724  0.0018
  338MOL0     C46521   5.985   7.738   2.015  0.2080 -0.4419  0.0603
  338MOL0     C46522   6.120   7.729   1.940  0.4024 -0.6815  0.0801
  338MOL0     N46523   6.233   7.788   2.023  0.0568 -0.4374  0.6430
  338MOL0     C46524   6.325   7.871   1.967 -0.0857 -0.0531  0.0719
  338MOL0     C46525   6.408   7.898   2.074 -0.7231 -0.1313  0.0041
  338MOL0     C46526   6.540   7.965   2.070 -0.7824  0.0979 -0.1759
  338MOL0     C46527   6.575   8.044   2.204  0.1766  0.5726  0.3719
  338MOL0     C46528   6.641   7.940   2.298  0.7395 -0.0829  0.6766
  338MOL0     C46529   6.657   8.021   2.431  0.0954  0.4546 -0.3064
  338MOL0     O46530   6.732   7.930   2.517 -0.4133  0.2649 -0.1129
  338MOL0     C46531   6.871   7.939   2.533  0.6089 -0.7199  1.0307
  338MOL0     C46532   6.957   8.017   2.454 -0.0040 -0.6514  0.2934
  338MOL0     C46533   7.094   8.017   2.460 -0.6724  0.6956  0.0510
  338MOL0     C46534   7.177   8.093   2.361 -0.5261  0.7491  0.8697
  338MOL0     C46535   7.153   7.947   2.564  1.0937  0.3201  0.8580
  338MOL0     C46536   7.298   7.933   2.590 -0.8141 -0.1828 -0.0171
  338MOL0     O46537   7.339   7.884   2.715  0.1680 -0.0876  0.2800
  338MOL0     C46538   7.469   7.910   2.740 -0.2192 -0.2519 -0.0166
  338MOL0     C46539   7.562   7.811   2.717 -0.5392 -0.4684  0.3316
  338MOL0     C46540   7.701   7.844   2.743 -0.3301  0.0038  0.4768
  338MOL0     C46541   7.727   7.968   2.803  0.0523 -0.4188  0.1970
  338MOL0     O46542   7.852   8.023   2.822  0.2422  0.1118  0.2802
  338MOL0     C46543   7.945   8.015   2.711  0.5292 -0.5648 -0.3590
  338MOL0     C46544   8.085   8.047   2.753 -1.1103  0.0141  0.2808
  338MOL0     C46545   8.165   8.106   2.637 -1.1580 -0.8440  0.2544
  338MOL0     C46546   8.312   8.139   2.678  1.0397 -0.0274  0.9052
  338MOL0     C46547   8.384   8.195   2.558 -0.1135  0.9384 -0.3526
  338MOL0     C46548   8.481   8.080   2.511 -0.7837  0.4279 -0.2468
  338MOL0     C46549   8.590   8.120   2.413  0.9110  0.1446  0.4066
  338MOL0     C46550   8.707   8.187   2.477  0.3007 -0.6233  0.4495
  338MOL0    Cl46551   8.786   8.285   2.354  0.3954 -0.0332  0.4455
  338MOL0     C46552   7.632   8.060   2.829 -0.3180 -0.1189 -0.4899
  338MOL0     C46553   7.500   8.033   2.797  0.2782  0.8752 -1.1119
  338MOL0     O46554   7.368   7.939   2.485 -0.1018  0.2796 -0.6922
  338MOL0     C46555   7.070   7.863   2.645 -0.6965  0.0522 -0.5034
  338MOL0     C46556   6.928   7.869   2.630 -0.1442 -0.2045  0.4173
  338MOL0     N46557   6.368   7.837   2.187 -0.0195 -0.1654 -0.4862
  338MOL0     N46558   6.250   7.776   2.156  1.0787 -0.1537  0.1792
  338MOL0     C46559   5.133   8.094   2.357 -0.7462  0.4870 -0.3446
  338MOL0     C46560   5.013   8.137   2.410  0.0556  0.2018 -0.5345
  338MOL0     C46561   4.735   8.432   2.666  0.4324 -0.5563 -0.7856
  338MOL0     C46562   4.704   8.484   2.790 -0.2454 -0.1328 -0.2986
  338MOL0     C46563   4.600   8.569   2.814 -0.3021 -0.6881  0.2117
  338MOL0     C46564   4.532   8.630   2.704  0.5634  0.8911  0.2345
  338MOL0     O46565   4.440   8.732   2.739 -0.1579  0.5826 -0.6308
  338MOL0     C46566   4.378   8.798   2.630 -0.2087 -0.6221 -0.4037
  338MOL0     C46567   4.257   8.722   2.584 -0.3055 -0.6907 -0.1749
  338MOL0     C46568   4.168   8.806   2.478 -0.4229  0.1009 -0.7945
  338MOL0     C46569   4.242   8.903   2.384 -0.7394  0.1893 -0.5210
  338MOL0     C46570   4.338   8.821   2.312 -0.7989  0.0610 -0.4512
  338MOL0     C46571   4.431   8.756   2.267  0.0919  0.1679 -0.3288
  338MOL0     C46572   4.573   8.585   2.575  0.1636  0.0248 -0.1529
  338MOL0     C46573   4.665   8.487   2.555  0.4279  0.1620  0.4789
  338MOL0     C46574   4.706   8.465   2.411  0.2483  0.3457 -0.3418
  338MOL0     H46575   5.122   8.363   2.642  2.0647  0.8561 -1.6450
  338MOL0     H46576   5.344   8.287   2.540 -0.1751 -0.7174  2.6280
  338MOL0     H46577   5.353   7.990   2.202 -0.0966 -0.1516  0.1009
  338MOL0     H46578   5.345   7.875   2.347 -1.3961 -1.1234 -2.8303
  338MOL0     H46579   5.584   8.037   2.254  0.3950 -0.1183 -0.6673
  338MOL0     H46580   5.584   7.883   2.355  1.2862 -1.4664 -1.5158
  338MOL0     H46581   5.527   7.752   2.178  2.1997  0.4199  2.4834
  338MOL0     H46582   5.504   7.883   2.062 -0.8482  0.5997  0.4346
  338MOL0     H46583   5.736   7.953   2.058  0.9822  0.7816  1.1966
  338MOL0     H46584   5.781   7.840   2.190 -0.1891 -3.0324 -0.5980
  338MOL0     H46585   5.656   7.756   1.922  0.0450 -2.0202 -0.3083
  338MOL0     H46586   5.737   7.646   2.035 -0.9877  0.7606  1.4486
  338MOL0     H46587   5.879   7.730   1.829 -0.1094 -1.0345  0.6674
  338MOL0     H46588   5.879   7.883   1.896  0.8127  0.7316  1.2689
  338MOL0     H46589   5.979   7.642   2.066 -0.7976  0.3442  1.4903
  338MOL0     H46590   5.986   7.811   2.096 -0.3942 -0.9910  0.5713
  338MOL0     H46591   6.145   7.630   1.903  0.7154 -2.1367  3.7923
  338MOL0     H46592   6.114   7.794   1.852  0.0424  0.5057  0.9585
  338MOL0     H46593   6.354   7.913   1.871  1.8690 -2.1810 -0.3577
  338MOL0     H46594   6.540   8.040   1.990  0.0592  0.0237 -0.2526
  338MOL0     H46595   6.622   7.894   2.054  0.9371  1.2847  2.5016
  338MOL0     H46596   6.651   8.121   2.186 -2.1040  2.3574 -2.5904
  338MOL0     H46597   6.490   8.103   2.241  1.9074  4.0377 -0.7083
  338MOL0     H46598   6.590   7.845   2.313  0.7837 -0.1771  0.2477
  338MOL0     H46599   6.743   7.917   2.265 -0.0621  0.0888 -2.1775
  338MOL0     H46600   6.701   8.121   2.424  1.2669  0.0418  0.6192
  338MOL0     H46601   6.564   8.053   2.479  1.5116  2.4122  1.3237
  338MOL0     H46602   6.918   8.077   2.374  1.6877  1.4193  0.9169
  338MOL0     H46603   7.201   8.036   2.271 -1.1899  4.6682 -2.0742
  338MOL0     H46604   7.267   8.141   2.400  0.4137 -0.0082 -0.3328
  338MOL0     H46605   7.116   8.176   2.324 -1.5222 -0.2083  0.3250
  338MOL0     H46606   7.522   7.714   2.689 -1.0372  0.7518 -3.7083
  338MOL0     H46607   7.778   7.769   2.732  0.7886  1.1928 -0.1015
  338MOL0     H46608   7.950   7.912   2.673  0.6400 -0.5907 -0.2761
  338MOL0     H46609   7.917   8.083   2.630 -1.9167 -1.1314 -0.0577
  338MOL0     H46610   8.076   8.122   2.832  0.7787 -0.6508  1.1968
  338MOL0     H46611   8.135   7.961   2.799  2.2082  2.0398  0.7789
  338MOL0     H46612   8.120   8.196   2.593  0.4942 -0.4197 -0.6687
  338MOL0     H46613   8.157   8.037   2.552  0.7771  0.8436 -1.4305
  338MOL0     H46614   8.368   8.050   2.706  0.2771 -0.4669  1.0414
  338MOL0     H46615   8.305   8.211   2.760  0.3238 -0.5178  1.2785
  338MOL0     H46616   8.318   8.221   2.475  0.9761  1.1513 -1.1757
  338MOL0     H46617   8.443   8.283   2.585  0.2037  1.0313 -1.3243
  338MOL0     H46618   8.431   7.989   2.477 -1.9625  1.2308 -0.7493
  338MOL0     H46619   8.542   8.049   2.596 -2.6607  0.2215  1.0866
  338MOL0     H46620   8.549   8.183   2.334  2.2613  2.4996  1.4746
  338MOL0     H46621   8.619   8.029   2.360 -0.5615  2.0696 -4.1308
  338MOL0     H46622   8.779   8.125   2.530 -0.0719  0.1741  1.9332
  338MOL0     H46623   8.674   8.249   2.561  0.0883  1.1554 -0.8671
  338MOL0     H46624   7.681   8.152   2.859  2.0998 -1.6295  0.4247
  338MOL0     H46625   7.421   8.103   2.827  0.4827  0.3908  0.6773
  338MOL0     H46626   7.113   7.812   2.730  0.1132  1.6479  0.0933
  338MOL0     H46627   6.870   7.816   2.705  0.9859 -0.9785  0.7730
  338MOL0     H46628   5.138   8.010   2.289 -1.0673 -0.3630  0.6614
  338MOL0     H46629   4.925   8.088   2.370 -0.0042  0.3401 -0.5714
  338MOL0     H46630   4.757   8.446   2.876 -0.2421  0.4379 -0.0423
  338MOL0     H46631   4.577   8.594   2.917  2.3782 -3.3077  1.6122
  338MOL0     H46632   4.351   8.899   2.663 -1.3944 -1.4908  1.4596
  338MOL0     H46633   4.443   8.817   2.544 -0.8752 -0.9253 -0.9876
  338MOL0     H46634   4.197   8.680   2.665  2.4759 -0.5052  2.1596
  338MOL0     H46635   4.305   8.637   2.533  2.1148  0.7318 -0.4618
  338MOL0     H46636   4.117   8.734   2.412  0.2568 -2.1125  0.9564
  338MOL0     H46637   4.093   8.862   2.534 -1.9253 -1.2630 -1.3280
  338MOL0     H46638   4.299   8.983   2.432  0.2545  0.3390 -1.8794
  338MOL0     H46639   4.165   8.941   2.316 -0.2296  1.1003 -0.6058
  338MOL0     H46640   4.502   8.690   2.222 -1.2655 -0.5342 -1.5161
  338MOL0     H46641   4.537   8.637   2.486  1.0201  2.9256  1.0917
  338MOL0     H46642   4.799   8.517   2.390  1.2809 -1.4733 -0.4842
  338MOL0     H46643   4.716   8.357   2.399  0.7848  0.3463  0.0968
  338MOL0     H46644   4.638   8.493   2.330  0.8523  1.2502 -0.5461
  339MOL0     O46645   5.497   1.809   9.784 -0.4186 -0.1190  0.6803
  339MOL0     C46646   5.466   1.764   9.672 -0.3410  0.4453 -0.3001
  339MOL0     O46647   5.556   1.732   9.579  0.5134  0.3009  0.7051
  339MOL0     C46648   5.690   1.749   9.604 -0.0247 -0.1377  0.6314
  339MOL0     C46649   5.782   1.643   9.621  0.9622 -0.1048 -0.7341
  339MOL0     C46650   5.914   1.678   9.640  0.6651  0.2338 -0.6013
  339MOL0     C46651   5.967   1.805   9.619 -1.2914 -0.3560 -0.6274
  339MOL0     O46652   6.107   1.819   9.629 -0.3944  0.0930  0.9381
  339MOL0     C46653   6.176   1.923   9.551  0.0391  0.4211 -0.0014
  339MOL0     C46654   6.328   1.917   9.551  0.1308  0.6914 -0.3607
  339MOL0     C46655   6.400   2.007   9.464 -0.6507  0.2660  0.0029
  339MOL0     C46656   6.550   1.992   9.490 -0.6569 -0.3477  0.3274
  339MOL0     C46657   6.634   2.069   9.384  0.0673 -0.5977  0.3365
  339MOL0     C46658   6.786   2.058   9.405  0.4903  0.2607  0.3560
  339MOL0     C46659   6.859   2.175   9.478  0.1085  0.9960 -1.1574
  339MOL0     C46660   6.813   2.193   9.622 -0.9484  0.9382 -0.6391
  339MOL0     N46661   6.841   2.084   9.721  0.4062 -0.6936  0.0675
  339MOL0     C46662   6.939   2.081   9.816  0.7091 -0.6052  0.4406
  339MOL0     C46663   6.944   1.961   9.868  0.6751  0.4045  0.2375
  339MOL0     C46664   7.039   1.910   9.970 -0.2469  0.0010 -0.0031
  339MOL0     C46665   7.113   1.789   9.916 -0.0440 -0.3360 -1.0585
  339MOL0     C46666   7.244   1.772   9.988 -0.1708  0.8081 -0.3505
  339MOL0     C46667   7.359   1.863   9.940  0.9801  1.0690 -0.7793
  339MOL0     O46668   7.475   1.818  10.012  0.5065 -0.2117 -0.4019
  339MOL0     C46669   7.600   1.872   9.995 -0.2324 -0.5958  0.3622
  339MOL0     C46670   7.692   1.814  10.074 -0.2940 -0.6239  0.3930
  339MOL0     C46671   7.829   1.850  10.063 -0.1550  0.3569  0.3121
  339MOL0     C46672   7.925   1.765  10.144 -0.0509  0.6719 -0.5773
  339MOL0     C46673   7.870   1.947   9.969  0.3256 -0.7727 -0.8098
  339MOL0     C46674   8.015   1.992   9.946 -0.5931 -0.3311  0.1413
  339MOL0     O46675   8.026   2.086   9.852 -0.2480  0.5358  0.3361
  339MOL0     C46676   8.147   2.131   9.808  0.0792 -0.0815 -0.7304
  339MOL0     C46677   8.158   2.267   9.769  0.1488  0.4611  0.0015
  339MOL0     C46678   8.283   2.323   9.726 -0.3576  0.4568  0.3277
  339MOL0     C46679   8.394   2.235   9.718 -0.6582 -0.3143 -0.1407
  339MOL0     O46680   8.519   2.282   9.681 -0.2177 -0.2757  0.9487
  339MOL0     C46681   8.558   2.416   9.715  0.9083 -0.4024 -0.8369
  339MOL0     C46682   8.701   2.441   9.670 -0.7957  0.6950 -0.3451
  339MOL0     C46683   8.797   2.333   9.724  0.5290  0.7308  0.0463
  339MOL0     C46684   8.942   2.345   9.664  0.4086 -0.4809  0.5530
  339MOL0     C46685   9.044   2.277   9.762  0.8475  1.3068 -0.3813
  339MOL0     C46686   9.186   2.293   9.726  0.4096 -0.2341  1.2133
  339MOL0     C46687   9.215   2.240   9.588 -0.3202 -0.6634 -0.1297
  339MOL0     C46688   9.356   2.228   9.558  0.9045 -0.0496  0.4207
  339MOL0    Cl46689   9.429   2.104   9.665 -0.1514  0.0471 -0.0976
  339MOL0     C46690   8.379   2.099   9.745  0.3407  0.0604  0.3552
  339MOL0     C46691   8.259   2.054   9.799 -0.4182  0.1372  0.3828
  339MOL0     O46692   8.103   1.973  10.031 -0.0043  0.5126 -0.2220
  339MOL0     C46693   7.760   2.018   9.908 -0.9602  0.0615  0.8513
  339MOL0     C46694   7.631   1.977   9.913  0.9342  0.2523  0.4465
  339MOL0     N46695   6.841   1.888   9.805  0.1800 -0.1699 -1.0450
  339MOL0     N46696   6.780   1.964   9.718  0.0701  0.4793 -0.1005
  339MOL0     C46697   5.877   1.913   9.592 -0.0356 -0.7231  0.3485
  339MOL0     C46698   5.740   1.880   9.587  0.5387  0.8534 -0.0480
  339MOL0     C46699   5.323   1.711   9.640 -1.4033  0.7852  0.2141
  339MOL0     C46700   5.292   1.675   9.502 -0.4628  0.2826 -0.6213
  339MOL0     C46701   5.165   1.634   9.462 -0.0444  0.6336 -0.5309
  339MOL0     C46702   5.064   1.634   9.559  0.0452  0.2096  0.4440
  339MOL0     O46703   4.942   1.588   9.515 -0.6140 -0.1140 -0.1820
  339MOL0     C46704   4.835   1.557   9.601 -0.7650 -0.2019 -0.4635
  339MOL0     C46705   4.733   1.484   9.516  0.3725 -0.7266 -0.8160
  339MOL0     C46706   4.632   1.569   9.435 -0.2449  0.5014 -0.1608
  339MOL0     C46707   4.675   1.654   9.317 -0.1095  0.6193 -0.2473
  339MOL0     C46708   4.579   1.765   9.309  0.2467  0.1281  0.3123
  339MOL0     C46709   4.488   1.836   9.285 -0.4192  0.3457 -0.4976
  339MOL0     C46710   5.092   1.665   9.688 -0.2968  0.5626  0.2452
  339MOL0     C46711   5.218   1.701   9.736  0.5524 -0.8170 -0.5518
  339MOL0     C46712   5.232   1.732   9.877 -0.6014 -0.4763 -0.5220
  339MOL0     H46713   5.750   1.541   9.605  0.5323  0.3005 -2.7097
  339MOL0     H46714   5.982   1.593   9.642 -1.7973 -1.9553 -2.3727
  339MOL0     H46715   6.152   2.027   9.572 -0.3582  1.1950 -3.6425
  339MOL0     H46716   6.145   1.907   9.447 -0.2838 -1.0510  0.2928
  339MOL0     H46717   6.349   1.941   9.656  0.8604  1.3891 -0.6469
  339MOL0     H46718   6.355   1.812   9.557  0.0458  0.6825 -0.1313
  339MOL0     H46719   6.374   1.987   9.360  3.4654  0.8872 -1.3250
  339MOL0     H46720   6.374   2.113   9.473  0.5840  0.5417  0.5069
  339MOL0     H46721   6.574   2.034   9.587 -3.2375 -0.5399  1.1148
  339MOL0     H46722   6.579   1.886   9.485 -0.4040 -0.3185  1.0344
  339MOL0     H46723   6.609   2.174   9.397  1.0819 -0.0531 -1.5999
  339MOL0     H46724   6.605   2.039   9.282  0.0136  3.4180 -0.9983
  339MOL0     H46725   6.815   1.961   9.446  1.2572  0.6417  0.7465
  339MOL0     H46726   6.822   2.053   9.302  0.0523  0.3999  0.1932
  339MOL0     H46727   6.844   2.273   9.432  1.0573  2.5416  1.5888
  339MOL0     H46728   6.968   2.163   9.487  0.3374  3.6271  1.0936
  339MOL0     H46729   6.886   2.266   9.659 -0.4912 -0.4846  1.4543
  339MOL0     H46730   6.710   2.227   9.615 -1.5687 -0.3492  1.4128
  339MOL0     H46731   7.009   2.158   9.847 -0.3465  0.1307  1.0535
  339MOL0     H46732   6.993   1.882  10.065 -2.8979 -0.5822 -1.3571
  339MOL0     H46733   7.110   1.989   9.996  1.6294 -1.4901 -0.4070
  339MOL0     H46734   7.043   1.711   9.946 -0.0004  0.2082  0.5523
  339MOL0     H46735   7.120   1.798   9.807 -0.4472 -1.1829 -1.1585
  339MOL0     H46736   7.230   1.783  10.096 -1.1994 -2.5995 -0.0024
  339MOL0     H46737   7.280   1.669   9.980  0.0805  0.5222  2.9882
  339MOL0     H46738   7.382   1.841   9.835  0.5445  1.2179 -0.9113
  339MOL0     H46739   7.328   1.965   9.961  0.5472  0.9167 -0.6716
  339MOL0     H46740   7.653   1.737  10.141  1.7693 -2.2978 -0.2275
  339MOL0     H46741   7.902   1.757  10.251  2.2857  2.7839  0.1692
  339MOL0     H46742   8.022   1.814  10.151  0.4100 -0.2053 -0.6994
  339MOL0     H46743   7.942   1.663  10.108 -0.0202 -0.8752  3.3498
  339MOL0     H46744   8.071   2.332   9.771  2.2166  3.5490 -2.1391
  339MOL0     H46745   8.283   2.427   9.697  0.1653 -0.0742 -1.7431
  339MOL0     H46746   8.494   2.488   9.663 -1.9213 -0.8143  1.7479
  339MOL0     H46747   8.554   2.431   9.824  1.2265  0.4265 -0.9313
  339MOL0     H46748   8.706   2.447   9.560  0.6789  1.3093 -0.2661
  339MOL0     H46749   8.734   2.537   9.709  1.0402 -0.1080  0.2053
  339MOL0     H46750   8.762   2.236   9.688 -1.1144  0.6023  1.8440
  339MOL0     H46751   8.790   2.344   9.832 -0.5668  0.2295  0.0406
  339MOL0     H46752   8.969   2.448   9.644  0.4553  0.0221  2.8902
  339MOL0     H46753   8.939   2.287   9.571  3.3363  0.1925 -0.0417
  339MOL0     H46754   9.019   2.323   9.859  1.4307 -1.0974  0.9892
  339MOL0     H46755   9.022   2.171   9.773  3.9529  0.6461  0.4519
  339MOL0     H46756   9.251   2.238   9.795  1.9510 -0.2978 -0.2218
  339MOL0     H46757   9.217   2.397   9.737  0.6623 -0.2720  0.8663
  339MOL0     H46758   9.179   2.316   9.519  0.9730  0.0273 -0.0732
  339MOL0     H46759   9.168   2.142   9.579  2.1896 -2.4756  3.8316
  339MOL0     H46760   9.403   2.325   9.580  0.6772 -0.0203  0.7750
  339MOL0     H46761   9.381   2.204   9.454  0.6016  1.0977  0.0704
  339MOL0     H46762   8.458   2.026   9.730 -2.2456 -3.0548  0.6262
  339MOL0     H46763   8.258   1.948   9.825  2.2791  0.6041  2.8868
  339MOL0     H46764   7.787   2.087   9.828  0.9280 -1.1398  0.3747
  339MOL0     H46765   7.545   2.018   9.861  1.1423  1.5015  1.0474
  339MOL0     H46766   5.902   2.016   9.568 -0.0416 -1.1649 -1.7838
  339MOL0     H46767   5.657   1.948   9.566  0.0773  0.4012  0.3150
  339MOL0     H46768   5.368   1.686   9.425  1.0848 -2.7373  0.3337
  339MOL0     H46769   5.140   1.613   9.358  0.3831  2.7240 -1.1012
  339MOL0     H46770   4.879   1.489   9.674 -0.6149 -0.8097 -1.1137
  339MOL0     H46771   4.795   1.643   9.656  1.3117  1.3138 -1.2329
  339MOL0     H46772   4.679   1.425   9.592 -1.6951 -0.1028 -1.7309
  339MOL0     H46773   4.790   1.419   9.449  2.0507 -0.7950  0.6018
  339MOL0     H46774   4.560   1.499   9.391 -0.5418  0.6576  0.0738
  339MOL0     H46775   4.588   1.648   9.497  0.1431  4.0838 -4.0620
  339MOL0     H46776   4.677   1.596   9.225 -0.3121 -1.6027  1.0943
  339MOL0     H46777   4.773   1.694   9.347 -2.1058  3.6929  3.0746
  339MOL0     H46778   4.406   1.900   9.259  0.6910  1.2937 -1.8317
  339MOL0     H46779   5.008   1.690   9.752  1.6814  1.3968  2.6548
  339MOL0     H46780   5.279   1.829   9.897 -1.5136  0.1408 -1.2827
  339MOL0     H46781   5.136   1.723   9.928 -0.1875  0.3692  0.4310
  339MOL0     H46782   5.294   1.655   9.924 -0.9469  0.2595  1.2149
  340MOL0     O46783   6.911   4.665   7.310 -0.1365  0.2117 -1.4881
  340MOL0     C46784   6.983   4.746   7.368 -0.1537 -0.2895 -0.0376
  340MOL0     O46785   7.116   4.760   7.353  0.3165 -0.6310  0.1086
  340MOL0     C46786   7.190   4.671   7.276 -0.1404 -0.4321  0.8298
  340MOL0     C46787   7.143   4.637   7.149 -0.6304  0.5671 -0.3358
  340MOL0     C46788   7.230   4.562   7.067  0.4650  0.2024  0.9768
  340MOL0     C46789   7.363   4.526   7.098  0.0535 -0.5355 -0.1895
  340MOL0     O46790   7.451   4.468   7.009  0.9340  0.5816 -0.2996
  340MOL0     C46791   7.410   4.433   6.876  0.2909 -0.2573  0.3311
  340MOL0     C46792   7.485   4.304   6.832 -0.1557  0.3412 -1.0525
  340MOL0     C46793   7.632   4.309   6.772  0.6754 -0.2393 -0.9236
  340MOL0     C46794   7.731   4.288   6.883 -0.4824 -0.2780  0.0215
  340MOL0     C46795   7.876   4.316   6.833 -0.3025  0.8126 -0.1430
  340MOL0     C46796   7.968   4.284   6.945 -0.5407  0.0824 -0.4476
  340MOL0     C46797   8.111   4.318   6.916 -0.4132  0.1392 -0.7982
  340MOL0     C46798   8.211   4.272   7.018 -0.0654  0.2535  0.2032
  340MOL0     N46799   8.332   4.354   6.997 -0.8589 -0.4754 -0.7545
  340MOL0     C46800   8.446   4.300   6.941  0.6319  0.6343 -0.2365
  340MOL0     C46801   8.519   4.400   6.892  1.3023 -0.0572 -1.0928
  340MOL0     C46802   8.648   4.391   6.815 -0.3749  0.3580  0.4626
  340MOL0     C46803   8.760   4.469   6.882  0.4060  0.3734  0.1856
  340MOL0     C46804   8.790   4.401   7.020 -0.7494  1.1907 -0.9223
  340MOL0     C46805   8.929   4.455   7.068 -0.0687  0.3101  0.9771
  340MOL0     O46806   8.960   4.382   7.190  0.1420 -0.9295  0.1719
  340MOL0     C46807   9.096   4.377   7.226  0.5013  0.6089 -0.4258
  340MOL0     C46808   9.160   4.261   7.268  0.6616 -0.0616 -0.3042
  340MOL0     C46809   9.295   4.262   7.297  0.2452 -0.3236 -0.4906
  340MOL0     C46810   9.340   4.131   7.361 -0.4916  0.3690 -0.7639
  340MOL0     C46811   9.364   4.392   7.293 -0.2752  0.7939  0.0208
  340MOL0     C46812   9.512   4.408   7.315  1.2242 -0.0922  0.0009
  340MOL0     O46813   9.560   4.538   7.303  0.6725  0.2412 -0.0900
  340MOL0     C46814   9.689   4.567   7.350 -0.3138 -0.7753 -0.4116
  340MOL0     C46815   9.797   4.581   7.267 -0.2649  0.1340  0.3950
  340MOL0     C46816   9.928   4.621   7.319  0.5062 -0.8507  0.0948
  340MOL0     C46817   9.943   4.640   7.451  0.0055 -0.0385 -0.3769
  340MOL0     O46818  10.071   4.681   7.490  0.2080 -0.2798  0.6257
  340MOL0     C46819  10.130   4.593   7.589 -0.8355  0.2032 -0.0713
  340MOL0     C46820  10.272   4.558   7.576 -0.8599  0.4203  0.6294
  340MOL0     C46821  10.297   4.551   7.427 -0.0214  0.2588 -0.4680
  340MOL0     C46822  10.414   4.450   7.414 -0.4025  1.0897  0.3859
  340MOL0     C46823  10.476   4.443   7.272 -0.2229  0.2091  0.6309
  340MOL0     C46824  10.391   4.376   7.165  0.3041 -0.8722 -0.5749
  340MOL0     C46825  10.447   4.413   7.032  0.1150 -0.0950  0.1485
  340MOL0     C46826  10.350   4.365   6.917  0.5258  0.8188 -0.4977
  340MOL0    Cl46827  10.326   4.185   6.932 -0.2918  0.2779  0.5827
  340MOL0     C46828   9.840   4.616   7.548  0.0826 -0.0669 -0.1469
  340MOL0     C46829   9.716   4.579   7.495  0.6043  1.2073 -0.1654
  340MOL0     O46830   9.585   4.311   7.345  0.2266  0.0480  0.5636
  340MOL0     C46831   9.295   4.499   7.247  0.3355 -0.9674  0.0760
  340MOL0     C46832   9.163   4.502   7.226 -0.0828 -0.4696  0.8779
  340MOL0     N46833   8.448   4.515   6.919 -0.4104 -0.3512  0.0844
  340MOL0     N46834   8.348   4.491   6.995 -0.3685  0.6857 -0.5275
  340MOL0     C46835   7.406   4.562   7.228  0.6139  0.5700  0.3288
  340MOL0     C46836   7.320   4.628   7.315 -0.1224  0.9000 -0.3798
  340MOL0     C46837   6.916   4.843   7.458  0.8724 -0.7615  0.1786
  340MOL0     C46838   6.967   4.977   7.458  0.8862 -0.1645 -0.1015
  340MOL0     C46839   6.899   5.086   7.525 -0.7290 -0.6605  0.5088
  340MOL0     C46840   6.786   5.069   7.597  0.2252  0.4916  0.3781
  340MOL0     O46841   6.713   5.167   7.655  0.1078  0.1687  0.9993
  340MOL0     C46842   6.759   5.308   7.632  1.1134  0.3134  0.9557
  340MOL0     C46843   6.679   5.393   7.730 -1.0852  0.0832 -0.0153
  340MOL0     C46844   6.525   5.385   7.706  0.2792 -0.4704  0.1587
  340MOL0     C46845   6.487   5.488   7.590  0.8820 -0.4421 -0.3629
  340MOL0     C46846   6.345   5.502   7.574  0.1680  0.6208  0.3628
  340MOL0     C46847   6.229   5.526   7.542  0.0021  0.1804  0.0016
  340MOL0     C46848   6.739   4.938   7.600  0.3145  0.8473 -0.9616
  340MOL0     C46849   6.801   4.831   7.531  0.8283  0.0174 -0.5225
  340MOL0     C46850   6.736   4.699   7.553 -0.2714 -0.1771 -0.2865
  340MOL0     H46851   7.050   4.661   7.099 -0.5195 -1.7134 -1.8046
  340MOL0     H46852   7.186   4.519   6.978  1.5817  0.2254  0.3932
  340MOL0     H46853   7.441   4.508   6.803  2.1288 -0.7892  0.4993
  340MOL0     H46854   7.304   4.414   6.859  0.6245 -0.4861 -1.8001
  340MOL0     H46855   7.487   4.232   6.914 -0.7498  0.9447 -0.4956
  340MOL0     H46856   7.424   4.253   6.757 -1.6589 -0.6634  0.7606
  340MOL0     H46857   7.656   4.238   6.693  3.7877 -0.9129  0.4715
  340MOL0     H46858   7.636   4.407   6.723  2.1693  0.5030  0.5496
  340MOL0     H46859   7.718   4.361   6.964  2.2758 -0.4945  0.7909
  340MOL0     H46860   7.720   4.191   6.931 -0.8244 -0.2947 -0.0906
  340MOL0     H46861   7.881   4.421   6.802  1.3694  0.3444 -1.6056
  340MOL0     H46862   7.912   4.254   6.750  2.0939 -2.0217  2.7553
  340MOL0     H46863   7.924   4.341   7.027 -2.3616  1.4150 -2.2583
  340MOL0     H46864   7.951   4.177   6.962  1.6563 -0.3000 -0.2967
  340MOL0     H46865   8.122   4.426   6.906  0.5676 -0.1078 -3.1550
  340MOL0     H46866   8.134   4.272   6.819  2.2458  1.2551 -0.7833
  340MOL0     H46867   8.178   4.288   7.121 -0.1405  2.4327 -0.1075
  340MOL0     H46868   8.217   4.163   7.017 -0.3579  0.1391  2.8463
  340MOL0     H46869   8.472   4.194   6.945 -0.4371  0.3441 -0.5979
  340MOL0     H46870   8.623   4.415   6.711  0.2204 -1.6385 -0.1995
  340MOL0     H46871   8.687   4.289   6.824 -0.0223  0.2178 -2.0592
  340MOL0     H46872   8.851   4.484   6.823  0.9019 -1.5084  0.4080
  340MOL0     H46873   8.716   4.569   6.888  2.4369  1.6627 -3.2688
  340MOL0     H46874   8.723   4.440   7.097 -1.0810 -0.1595 -0.5002
  340MOL0     H46875   8.785   4.293   7.004 -1.7839  1.3209 -1.5389
  340MOL0     H46876   9.000   4.442   6.986 -1.7666 -1.6667 -0.3033
  340MOL0     H46877   8.910   4.561   7.083 -0.0594  0.1040  2.6120
  340MOL0     H46878   9.100   4.170   7.269 -0.4093  0.4453 -3.7530
  340MOL0     H46879   9.352   4.131   7.470 -1.4847 -2.7329 -0.5644
  340MOL0     H46880   9.429   4.100   7.305 -0.3006  3.4708 -2.3869
  340MOL0     H46881   9.269   4.049   7.350  1.1756 -1.2246 -0.2987
  340MOL0     H46882   9.782   4.568   7.160 -2.3181  2.3672  0.3158
  340MOL0     H46883  10.011   4.636   7.251  0.3646 -0.7937 -0.0654
  340MOL0     H46884  10.117   4.636   7.689 -1.9690 -0.0931 -0.0822
  340MOL0     H46885  10.084   4.494   7.588 -1.0343  0.3009 -0.5070
  340MOL0     H46886  10.332   4.631   7.631  0.1235 -0.0888  0.2606
  340MOL0     H46887  10.284   4.459   7.621 -1.8886 -0.0252 -0.0458
  340MOL0     H46888  10.333   4.649   7.395 -0.6239  0.3255 -0.9638
  340MOL0     H46889  10.207   4.523   7.372  0.5854 -1.5808 -0.6006
  340MOL0     H46890  10.376   4.348   7.428  2.3616 -0.9221 -4.3827
  340MOL0     H46891  10.490   4.481   7.486 -1.7952  2.0678  1.5066
  340MOL0     H46892  10.511   4.542   7.242 -0.9719  0.5960  0.9834
  340MOL0     H46893  10.568   4.385   7.281 -3.5426 -5.6798  2.6065
  340MOL0     H46894  10.292   4.423   7.164  0.6310 -0.1780 -0.4031
  340MOL0     H46895  10.371   4.270   7.185  0.4427 -0.5287  1.5164
  340MOL0     H46896  10.549   4.383   7.003  0.1642  2.1273 -2.3676
  340MOL0     H46897  10.459   4.522   7.030 -0.7667  0.0824  2.4836
  340MOL0     H46898  10.407   4.385   6.825  3.3396  0.6111  1.1044
  340MOL0     H46899  10.254   4.417   6.922  0.7393  1.2474 -0.7626
  340MOL0     H46900   9.848   4.631   7.655 -0.0146 -3.1187  0.3805
  340MOL0     H46901   9.629   4.578   7.560  0.0169  2.6140 -0.8729
  340MOL0     H46902   9.339   4.596   7.228 -1.4920 -0.4228 -1.7493
  340MOL0     H46903   9.107   4.592   7.200  2.1446  1.3563  2.0351
  340MOL0     H46904   7.503   4.522   7.258  0.7847  1.2466  0.7004
  340MOL0     H46905   7.351   4.650   7.417  0.6434 -0.7433 -0.2221
  340MOL0     H46906   7.056   4.998   7.399 -0.1807  1.7057 -1.1465
  340MOL0     H46907   6.947   5.182   7.513  2.6006 -2.2383  0.0888
  340MOL0     H46908   6.868   5.322   7.635  1.4170 -1.6139  0.0863
  340MOL0     H46909   6.732   5.331   7.528  1.3315  1.6730  1.1794
  340MOL0     H46910   6.705   5.499   7.722 -1.6562  0.1207 -1.5357
  340MOL0     H46911   6.680   5.343   7.828 -3.7843 -4.3773 -1.9786
  340MOL0     H46912   6.492   5.287   7.672  0.8384 -0.4906 -0.3508
  340MOL0     H46913   6.469   5.401   7.798 -0.7860 -1.0917 -0.3672
  340MOL0     H46914   6.520   5.447   7.494 -1.4166 -3.6885  0.0374
  340MOL0     H46915   6.531   5.587   7.603 -2.0370  0.8730  0.1635
  340MOL0     H46916   6.130   5.558   7.519  1.0364  2.0642 -2.2152
  340MOL0     H46917   6.648   4.918   7.656  0.2188  0.7605 -1.1475
  340MOL0     H46918   6.682   4.683   7.460 -0.8575  4.0098 -0.8409
  340MOL0     H46919   6.815   4.624   7.565  0.9703  1.1941  0.5007
  340MOL0     H46920   6.664   4.707   7.635 -0.5613  0.5039 -0.5977
  341MOL0     O46921   5.885   4.078   0.100  0.3320  0.0128  0.2078
  341MOL0     C46922   5.807   4.045   0.190 -0.2567 -0.5422  1.0593
  341MOL0     O46923   5.833   4.038   0.322  0.3148 -0.6384  0.5417
  341MOL0     C46924   5.955   4.082   0.367  0.5099  0.2289  0.6509
  341MOL0     C46925   6.059   3.989   0.357  0.1683  1.0941  0.0061
  341MOL0     C46926   6.187   4.038   0.374  1.0317  0.2186  0.6748
  341MOL0     C46927   6.206   4.157   0.439 -0.2138  0.3845 -0.1808
  341MOL0     O46928   6.330   4.199   0.457 -0.2746 -0.1462 -0.3735
  341MOL0     C46929   6.427   4.116   0.531  0.5660 -2.5257 -0.0762
  341MOL0     C46930   6.467   4.194   0.660  0.1156 -0.7998 -0.7622
  341MOL0     C46931   6.552   4.313   0.629  0.9129 -0.7767 -0.6388
  341MOL0     C46932   6.598   4.393   0.745 -0.6903  0.4377 -0.5520
  341MOL0     C46933   6.687   4.510   0.700 -0.1037 -0.0611 -0.0037
  341MOL0     C46934   6.824   4.475   0.632  0.3628 -0.4342  0.1774
  341MOL0     C46935   6.923   4.401   0.713 -0.0831  0.4766  0.7535
  341MOL0     C46936   7.019   4.322   0.624  0.6041  0.2894  0.1254
  341MOL0     N46937   6.945   4.214   0.554  0.1322 -0.3749  0.0507
  341MOL0     C46938   6.940   4.193   0.420  0.7899 -0.3533 -0.1306
  341MOL0     C46939   6.884   4.070   0.405 -0.4533 -0.1326  0.5846
  341MOL0     C46940   6.860   3.975   0.284  0.4112 -0.9486 -0.2096
  341MOL0     C46941   6.721   3.977   0.222 -0.4622  0.1070  0.2352
  341MOL0     C46942   6.682   4.109   0.186  0.0817  0.2400  0.4549
  341MOL0     C46943   6.552   4.140   0.126  0.1376 -0.2456  0.3624
  341MOL0     O46944   6.527   4.062   0.005  0.3665  0.5152  0.0405
  341MOL0     C46945   6.409   4.084  -0.061  0.7236 -0.0618 -0.0641
  341MOL0     C46946   6.388   3.996  -0.166 -0.2287 -0.1147 -0.9773
  341MOL0     C46947   6.267   3.996  -0.238 -0.3306  0.5475 -0.2139
  341MOL0     C46948   6.253   3.879  -0.336 -0.1731 -0.4261 -0.1583
  341MOL0     C46949   6.164   4.091  -0.203 -0.6384 -0.5100  0.6552
  341MOL0     C46950   6.028   4.082  -0.256  0.0041  0.4774  0.4244
  341MOL0     O46951   5.983   3.960  -0.292  0.0099  0.0587 -0.2737
  341MOL0     C46952   5.846   3.945  -0.317 -0.6158 -0.5276 -1.2884
  341MOL0     C46953   5.748   3.998  -0.234 -0.0496 -0.7223 -0.3706
  341MOL0     C46954   5.613   3.974  -0.263 -0.3109 -0.6673  0.6944
  341MOL0     C46955   5.579   3.899  -0.376  0.1658  0.7159 -0.0271
  341MOL0     O46956   5.448   3.891  -0.409  0.4550  0.1561 -0.2332
  341MOL0     C46957   5.407   3.912  -0.539  0.1498 -0.3454 -0.5997
  341MOL0     C46958   5.287   4.003  -0.542  0.1036 -0.2223 -0.1021
  341MOL0     C46959   5.216   4.017  -0.677 -0.0480 -0.3868 -0.2758
  341MOL0     C46960   5.104   4.123  -0.666 -0.1024 -0.5965 -0.1120
  341MOL0     C46961   4.994   4.097  -0.562 -0.4534 -0.1170 -0.2968
  341MOL0     C46962   4.870   4.194  -0.575 -0.1760 -0.1365 -0.1609
  341MOL0     C46963   4.775   4.194  -0.454  0.1219 -0.1574  0.9701
  341MOL0     C46964   4.677   4.309  -0.447 -0.5293 -0.2342 -0.2763
  341MOL0    Cl46965   4.564   4.299  -0.582  0.2491 -0.1499  0.2308
  341MOL0     C46966   5.677   3.856  -0.465  0.1476  0.0099  0.2001
  341MOL0     C46967   5.813   3.878  -0.433  0.3857 -0.7497  0.5821
  341MOL0     O46968   5.961   4.189  -0.263  0.6167  1.4616 -1.0028
  341MOL0     C46969   6.194   4.181  -0.101  0.1190 -0.8662  0.1667
  341MOL0     C46970   6.308   4.177  -0.027  0.1708  0.5887  0.2762
  341MOL0     N46971   6.835   4.039   0.528  0.1540  0.0413  0.0132
  341MOL0     N46972   6.881   4.116   0.619 -0.2128 -0.4191  0.3939
  341MOL0     C46973   6.100   4.233   0.471  0.1485  0.3045  1.0230
  341MOL0     C46974   5.976   4.203   0.428  0.5104  0.8188  0.1918
  341MOL0     C46975   5.677   4.006   0.146  0.3078  0.4832  1.2132
  341MOL0     C46976   5.661   3.879   0.085 -0.5412  0.4425  0.1380
  341MOL0     C46977   5.535   3.828   0.051  0.0813 -0.1554  0.1787
  341MOL0     C46978   5.420   3.892   0.107  0.0710 -0.0717 -0.6377
  341MOL0     O46979   5.301   3.819   0.116 -0.5744 -0.4669 -0.2143
  341MOL0     C46980   5.168   3.876   0.117  0.0516  0.2760  0.7303
  341MOL0     C46981   5.149   3.996   0.020  0.5289  0.1476 -0.5551
  341MOL0     C46982   5.059   3.971  -0.101  0.4543  0.1483 -0.2238
  341MOL0     C46983   5.106   3.856  -0.188 -0.6826 -0.7430 -0.4174
  341MOL0     C46984   5.030   3.822  -0.308  0.5021 -0.0193  0.8866
  341MOL0     C46985   4.958   3.796  -0.404  0.5933 -0.5417 -0.2292
  341MOL0     C46986   5.433   4.017   0.169 -0.4111 -0.5270 -0.8962
  341MOL0     C46987   5.560   4.078   0.188  0.4884  0.7208 -0.5970
  341MOL0     C46988   5.559   4.214   0.252 -0.0639  0.5768  0.2772
  341MOL0     H46989   6.050   3.890   0.312  2.7501 -0.4677  2.5259
  341MOL0     H46990   6.275   3.982   0.342  0.0568 -0.5421 -0.7619
  341MOL0     H46991   6.513   4.084   0.471  2.9715 -0.2754  1.9104
  341MOL0     H46992   6.384   4.024   0.570 -0.9504 -1.6209  0.4778
  341MOL0     H46993   6.377   4.225   0.714  0.8201 -1.3493  0.7815
  341MOL0     H46994   6.521   4.136   0.736  0.8451 -0.9392 -1.3826
  341MOL0     H46995   6.640   4.274   0.579  1.3363 -0.9494  0.2219
  341MOL0     H46996   6.490   4.379   0.567 -2.3850 -0.5656  2.5387
  341MOL0     H46997   6.517   4.431   0.809  0.1345  0.3848  0.5377
  341MOL0     H46998   6.650   4.330   0.817 -0.6531  1.5254  0.4093
  341MOL0     H46999   6.703   4.567   0.792  0.1316 -1.6848  1.0002
  341MOL0     H47000   6.627   4.571   0.631 -1.4737 -0.6645  0.6053
  341MOL0     H47001   6.813   4.422   0.538  3.3051 -1.5566  0.3608
  341MOL0     H47002   6.884   4.563   0.605  1.7479 -1.4876 -0.2715
  341MOL0     H47003   6.889   4.338   0.796  0.6215  1.2149  1.6231
  341MOL0     H47004   6.974   4.477   0.772 -0.7727  0.1315  1.8171
  341MOL0     H47005   7.058   4.379   0.539 -2.5949 -0.2910 -1.9050
  341MOL0     H47006   7.096   4.286   0.693 -0.8084 -1.5967  0.7855
  341MOL0     H47007   6.980   4.254   0.339 -2.3159  1.5250 -0.4030
  341MOL0     H47008   6.883   3.877   0.326  1.1185 -0.3044  0.9733
  341MOL0     H47009   6.938   3.994   0.209  0.1877  2.2661  0.2270
  341MOL0     H47010   6.720   3.918   0.130  0.6719  1.8920 -1.0067
  341MOL0     H47011   6.650   3.934   0.292 -1.0266  0.3713 -0.1719
  341MOL0     H47012   6.674   4.159   0.283 -0.9919  2.0300 -0.5066
  341MOL0     H47013   6.750   4.164   0.121  0.6619 -0.7168  0.2418
  341MOL0     H47014   6.474   4.111   0.197 -0.1549 -0.4009 -0.0188
  341MOL0     H47015   6.538   4.247   0.110  0.7784 -0.2281 -0.1280
  341MOL0     H47016   6.462   3.918  -0.179 -0.1594  0.0742 -1.7356
  341MOL0     H47017   6.171   3.815  -0.303  0.1966 -0.0264  1.6563
  341MOL0     H47018   6.349   3.827  -0.343 -0.5370 -1.3250  1.1339
  341MOL0     H47019   6.243   3.933  -0.430  3.0469  4.3740  1.8487
  341MOL0     H47020   5.776   4.050  -0.143 -0.6762 -1.6954  0.4062
  341MOL0     H47021   5.528   4.003  -0.203 -1.1554 -1.6786  0.0309
  341MOL0     H47022   5.491   3.958  -0.592  0.2137 -0.3083 -0.4667
  341MOL0     H47023   5.382   3.818  -0.589  0.3287 -1.6953  1.7198
  341MOL0     H47024   5.216   3.956  -0.473 -0.1536 -1.2504 -1.0170
  341MOL0     H47025   5.305   4.101  -0.498  1.3815  0.0896 -1.2446
  341MOL0     H47026   5.166   3.925  -0.706 -1.7983 -0.4101  2.4500
  341MOL0     H47027   5.288   4.048  -0.754 -1.7998 -1.7630 -2.5708
  341MOL0     H47028   5.055   4.129  -0.764  0.0835 -1.6407 -0.2888
  341MOL0     H47029   5.142   4.225  -0.655 -1.9088  0.3262 -1.7934
  341MOL0     H47030   4.946   4.000  -0.571  0.1720 -0.2688 -2.4418
  341MOL0     H47031   5.044   4.103  -0.465  0.1070 -3.3083 -0.3042
  341MOL0     H47032   4.819   4.187  -0.671 -0.6654  0.8577  0.0070
  341MOL0     H47033   4.910   4.296  -0.579  0.0873 -0.1866  0.8144
  341MOL0     H47034   4.836   4.202  -0.363 -0.2053  0.6980  1.1232
  341MOL0     H47035   4.717   4.101  -0.455  2.4561 -1.7381  2.2631
  341MOL0     H47036   4.734   4.402  -0.447 -2.8960  1.3170  1.0568
  341MOL0     H47037   4.619   4.293  -0.355  0.6152 -0.5943  0.4131
  341MOL0     H47038   5.655   3.797  -0.554  0.0500 -1.0301  0.8911
  341MOL0     H47039   5.891   3.836  -0.497  1.4338  0.1324  1.2333
  341MOL0     H47040   6.129   4.254  -0.054  0.5326 -3.1250  4.8045
  341MOL0     H47041   6.321   4.234   0.065 -4.1975 -1.3745  2.3857
  341MOL0     H47042   6.118   4.330   0.516  3.8991  0.0702  0.3486
  341MOL0     H47043   5.885   4.258   0.449 -0.1353 -0.2052  0.1720
  341MOL0     H47044   5.754   3.832   0.057 -0.3180  1.5996 -1.2031
  341MOL0     H47045   5.543   3.733  -0.002  4.2185  1.6407 -2.9737
  341MOL0     H47046   5.095   3.803   0.080  0.4413  1.4475 -2.7445
  341MOL0     H47047   5.144   3.908   0.219 -1.6439 -1.5519  0.9859
  341MOL0     H47048   5.247   4.022  -0.020 -0.1234  1.1012 -1.5761
  341MOL0     H47049   5.109   4.088   0.066 -1.9145 -0.7804 -0.6803
  341MOL0     H47050   4.955   3.955  -0.069 -0.9315  2.9049 -2.8337
  341MOL0     H47051   5.056   4.064  -0.158 -2.3415 -1.0100 -2.1922
  341MOL0     H47052   5.117   3.765  -0.128 -0.7876 -0.9151 -0.6588
  341MOL0     H47053   5.207   3.882  -0.220  0.2034 -1.0523  1.8863
  341MOL0     H47054   4.887   3.795  -0.485 -0.9951 -2.2852  1.1086
  341MOL0     H47055   5.344   4.071   0.199 -2.7126 -4.0425 -0.7975
  341MOL0     H47056   5.665   4.241   0.243  0.3734 -0.5509  1.4950
  341MOL0     H47057   5.490   4.276   0.195  0.6817  1.8426  0.7084
  341MOL0     H47058   5.538   4.207   0.360  4.0638 -0.3944  1.2176
  342MOL0     O47059   7.173   1.105   0.758 -0.8665  0.5284  0.8359
  342MOL0     C47060   7.089   1.188   0.731 -0.5898 -0.2382  0.6257
  342MOL0     O47061   7.112   1.318   0.711  0.0175 -0.3470  0.4453
  342MOL0     C47062   7.228   1.388   0.716 -0.5138  0.2174 -0.0240
  342MOL0     C47063   7.256   1.488   0.630 -0.6596 -0.3402  0.0369
  342MOL0     C47064   7.378   1.557   0.636  0.6359 -0.4775 -0.1154
  342MOL0     C47065   7.462   1.542   0.745  1.0342 -0.1051  0.0510
  342MOL0     O47066   7.573   1.623   0.748 -1.2230 -0.4561 -0.5470
  342MOL0     C47067   7.690   1.597   0.829 -0.4369  0.7898 -0.6095
  342MOL0     C47068   7.783   1.490   0.765  0.7935  0.4952  0.7929
  342MOL0     C47069   7.908   1.454   0.838  0.3341 -0.4155 -0.6320
  342MOL0     C47070   8.008   1.569   0.834 -0.9068  0.0804 -0.1298
  342MOL0     C47071   8.137   1.516   0.910 -0.1743 -0.8214 -0.1975
  342MOL0     C47072   8.243   1.618   0.903  0.4644 -0.3824  0.1150
  342MOL0     C47073   8.378   1.572   0.968 -0.3557 -0.6404  0.1092
  342MOL0     C47074   8.469   1.487   0.875 -0.7064 -0.4442  0.4878
  342MOL0     N47075   8.589   1.445   0.960  0.2448  0.5996  0.1047
  342MOL0     C47076   8.714   1.499   0.946  0.6577 -0.9353  0.1686
  342MOL0     C47077   8.762   1.512   1.075 -0.5011  0.0540 -0.0519
  342MOL0     C47078   8.892   1.573   1.112 -0.6488 -0.1616  0.6572
  342MOL0     C47079   9.002   1.470   1.094 -0.0057  0.1040 -0.8576
  342MOL0     C47080   9.134   1.536   1.122 -0.4788 -0.7610 -0.3092
  342MOL0     C47081   9.244   1.449   1.174  0.8137  0.2921  0.0045
  342MOL0     O47082   9.354   1.531   1.210 -0.3165 -0.1185  0.3302
  342MOL0     C47083   9.468   1.454   1.244 -0.0496  0.2009 -1.3305
  342MOL0     C47084   9.492   1.454   1.381 -0.2534  0.1482 -0.5341
  342MOL0     C47085   9.606   1.384   1.428 -0.1810 -0.4604 -0.4501
  342MOL0     C47086   9.599   1.359   1.575 -0.0735  0.0417  0.3190
  342MOL0     C47087   9.703   1.338   1.334  0.0056  1.5575 -0.3943
  342MOL0     C47088   9.830   1.278   1.377 -0.3475 -0.2547  0.0248
  342MOL0     O47089   9.922   1.254   1.273  0.5651 -0.1756 -0.0883
  342MOL0     C47090  10.031   1.174   1.293 -0.3175  0.1232  0.7366
  342MOL0     C47091  10.024   1.032   1.297  0.1626 -0.8327  0.1180
  342MOL0     C47092  10.145   0.972   1.290  0.5800  0.4513 -0.6188
  342MOL0     C47093  10.273   1.027   1.281 -0.1276 -0.4270  0.2257
  342MOL0     O47094  10.395   0.962   1.263  0.8911 -0.1138  1.0017
  342MOL0     C47095  10.395   0.824   1.286  0.3308  0.2547 -0.8841
  342MOL0     C47096  10.537   0.782   1.255 -0.0400  0.8395  0.2229
  342MOL0     C47097  10.565   0.634   1.284  0.1225 -0.1392  0.0959
  342MOL0     C47098  10.505   0.530   1.187  0.3841  0.5562  0.5586
  342MOL0     C47099  10.569   0.384   1.198  0.5760 -1.5133 -0.1789
  342MOL0     C47100  10.514   0.293   1.090 -0.2325  0.1480 -0.7169
  342MOL0     C47101  10.558   0.145   1.127 -0.5749  0.1271  0.1435
  342MOL0     C47102  10.705   0.115   1.070  0.5622  0.5571  0.3792
  342MOL0    Cl47103  10.687   0.107   0.888  0.0913  0.3450  0.2388
  342MOL0     C47104  10.279   1.165   1.284 -0.4386  0.3257  1.0556
  342MOL0     C47105  10.157   1.239   1.285  0.8653  0.0161  0.5237
  342MOL0     O47106   9.837   1.233   1.491  0.0655 -0.4077 -0.1136
  342MOL0     C47107   9.676   1.339   1.203  0.0079 -1.5180 -0.3270
  342MOL0     C47108   9.573   1.411   1.158  0.2935 -0.2596  0.7132
  342MOL0     N47109   8.666   1.462   1.164 -0.2606 -0.3764  0.2745
  342MOL0     N47110   8.577   1.411   1.086  0.5134 -0.4299 -0.3299
  342MOL0     C47111   7.428   1.453   0.842  0.0594  0.6436  0.0652
  342MOL0     C47112   7.318   1.370   0.825  0.2239 -1.4921 -0.9373
  342MOL0     C47113   6.946   1.155   0.705  0.6387 -1.4000  0.2825
  342MOL0     C47114   6.848   1.242   0.770  0.6214 -0.3189 -1.1352
  342MOL0     C47115   6.717   1.210   0.766  0.0593 -0.2220  0.5577
  342MOL0     C47116   6.665   1.100   0.696  0.2200  0.0872  0.0662
  342MOL0     O47117   6.539   1.062   0.679 -0.4224  0.3130 -0.4423
  342MOL0     C47118   6.432   1.147   0.729  0.1328  0.2416 -0.3691
  342MOL0     C47119   6.403   1.109   0.874 -0.4656  1.3417 -0.0376
  342MOL0     C47120   6.403   1.239   0.961  0.1208 -0.0363 -0.5224
  342MOL0     C47121   6.346   1.226   1.105  0.2311 -0.1888  0.6171
  342MOL0     C47122   6.351   1.356   1.158  0.7416 -0.1903 -0.1835
  342MOL0     C47123   6.352   1.472   1.186  0.2121 -1.4111  0.9422
  342MOL0     C47124   6.758   1.011   0.634 -0.2826  1.0597  0.0456
  342MOL0     C47125   6.895   1.036   0.638 -0.1575  0.1609 -0.7730
  342MOL0     C47126   6.991   0.948   0.568 -0.1846  0.7174  0.3204
  342MOL0     H47127   7.186   1.499   0.548 -0.6549 -2.2780 -0.2649
  342MOL0     H47128   7.407   1.625   0.557  0.2630  0.7732  0.7889
  342MOL0     H47129   7.651   1.572   0.929 -1.4317  0.2636 -1.1159
  342MOL0     H47130   7.748   1.688   0.844  2.9146 -1.1591 -0.8172
  342MOL0     H47131   7.714   1.405   0.758 -1.5413  2.3651 -0.1788
  342MOL0     H47132   7.804   1.519   0.662 -0.4143 -0.7918  0.1486
  342MOL0     H47133   7.892   1.425   0.942  2.4985  2.4452  0.6512
  342MOL0     H47134   7.953   1.372   0.781 -0.0563  0.2435 -1.9423
  342MOL0     H47135   8.023   1.600   0.730 -2.4555 -0.0226 -0.4127
  342MOL0     H47136   7.974   1.661   0.884 -2.9352  1.1872 -3.2427
  342MOL0     H47137   8.169   1.421   0.866  0.3915 -1.1064  0.8140
  342MOL0     H47138   8.119   1.501   1.017  0.6606 -2.3635 -0.2446
  342MOL0     H47139   8.254   1.652   0.800 -1.7301  0.7143  0.2008
  342MOL0     H47140   8.214   1.711   0.954 -2.1332  0.0636 -1.9618
  342MOL0     H47141   8.355   1.515   1.058  1.3605 -2.4660 -0.5435
  342MOL0     H47142   8.428   1.664   1.000  1.1667 -1.6453  0.6964
  342MOL0     H47143   8.409   1.407   0.831 -1.4343  1.8597 -3.1324
  342MOL0     H47144   8.490   1.547   0.786  0.0706  1.3542  1.8216
  342MOL0     H47145   8.750   1.542   0.853 -2.1866  1.9279  0.2036
  342MOL0     H47146   8.885   1.610   1.215  1.5084 -1.7240  1.4190
  342MOL0     H47147   8.897   1.663   1.050 -1.5055 -1.4958 -1.4658
  342MOL0     H47148   8.977   1.399   1.174 -1.3054  1.0007 -0.4417
  342MOL0     H47149   9.002   1.419   0.997  0.3618 -1.6382  0.0052
  342MOL0     H47150   9.164   1.575   1.024 -1.4188  0.8569  0.0149
  342MOL0     H47151   9.127   1.623   1.188  0.6750 -1.4066  0.7132
  342MOL0     H47152   9.218   1.403   1.270 -0.5767  1.5570  0.2570
  342MOL0     H47153   9.271   1.377   1.096 -1.4862  1.3988 -1.9417
  342MOL0     H47154   9.422   1.507   1.445 -0.3898  0.6653 -1.1041
  342MOL0     H47155   9.565   1.261   1.610  0.5877  0.4669  2.2758
  342MOL0     H47156   9.539   1.432   1.629 -1.7586 -1.0430 -0.0199
  342MOL0     H47157   9.700   1.376   1.613 -1.1067  3.8056  1.8335
  342MOL0     H47158   9.935   0.971   1.294  0.9210 -1.9894 -3.1310
  342MOL0     H47159  10.147   0.863   1.288 -0.3824  0.4074 -0.0403
  342MOL0     H47160  10.373   0.808   1.392 -1.9479  1.0829 -1.1781
  342MOL0     H47161  10.325   0.768   1.223 -0.2806 -1.0357  0.8588
  342MOL0     H47162  10.555   0.796   1.148  1.6998  1.0528  0.5095
  342MOL0     H47163  10.611   0.836   1.315  1.0882 -2.7781  2.4115
  342MOL0     H47164  10.534   0.607   1.385 -0.5570 -2.4996 -0.6746
  342MOL0     H47165  10.674   0.626   1.275  0.2718  1.7254 -0.1086
  342MOL0     H47166  10.504   0.561   1.082 -0.5536  0.8583  0.6448
  342MOL0     H47167  10.403   0.517   1.226 -0.4129 -1.2874 -1.8723
  342MOL0     H47168  10.678   0.386   1.196  0.5958 -1.1591  0.9171
  342MOL0     H47169  10.539   0.347   1.296  3.2017  0.5111  1.5186
  342MOL0     H47170  10.556   0.328   0.995 -1.8260  3.4551 -0.3447
  342MOL0     H47171  10.406   0.302   1.079 -0.2471 -0.1391 -0.8153
  342MOL0     H47172  10.498   0.066   1.080 -1.8070  1.8016 -1.2114
  342MOL0     H47173  10.562   0.120   1.233 -1.3905  0.3330  0.2306
  342MOL0     H47174  10.736   0.014   1.099 -3.2231 -1.5796 -2.2274
  342MOL0     H47175  10.772   0.194   1.107 -2.3669  1.8087  3.5874
  342MOL0     H47176  10.371   1.222   1.283 -1.1677  1.5610 -0.2800
  342MOL0     H47177  10.168   1.346   1.292  0.5907 -0.0847  3.4857
  342MOL0     H47178   9.742   1.295   1.128  0.4824  3.4669 -3.2479
  342MOL0     H47179   9.575   1.425   1.050 -1.3075 -1.6919  0.4429
  342MOL0     H47180   7.480   1.432   0.935  0.8122  2.9567  0.2219
  342MOL0     H47181   7.293   1.292   0.897 -1.3740  0.4382  0.7134
  342MOL0     H47182   6.884   1.320   0.836  0.9153 -1.4708  0.1107
  342MOL0     H47183   6.647   1.277   0.813  0.3407 -0.1869  0.9270
  342MOL0     H47184   6.456   1.253   0.722 -0.8306  0.4329 -0.9780
  342MOL0     H47185   6.339   1.124   0.675 -0.6831 -3.8892  2.3117
  342MOL0     H47186   6.476   1.045   0.924 -2.2967  0.7031  2.0106
  342MOL0     H47187   6.308   1.058   0.892  1.2123 -0.8543  3.8499
  342MOL0     H47188   6.509   1.267   0.968  0.9051 -2.1013 -2.5525
  342MOL0     H47189   6.340   1.315   0.914  0.5115 -1.4291 -3.5424
  342MOL0     H47190   6.407   1.153   1.160 -1.5968 -2.4921 -0.2570
  342MOL0     H47191   6.244   1.187   1.099  0.0413 -0.3288  3.3483
  342MOL0     H47192   6.338   1.578   1.201 -0.6637 -1.5289  1.0433
  342MOL0     H47193   6.730   0.917   0.588  2.9597  0.4191 -0.8939
  342MOL0     H47194   7.055   0.904   0.645 -1.0562 -2.2910 -0.5289
  342MOL0     H47195   6.935   0.866   0.521 -0.3736  0.7501  0.4878
  342MOL0     H47196   7.054   1.003   0.498  1.3421  0.4955  1.4848
  343MOL0     O47197  10.148   4.697   1.495  0.1467  0.6507  0.3457
  343MOL0     C47198  10.160   4.581   1.465 -0.7590  0.3630  0.6180
  343MOL0     O47199  10.241   4.496   1.528 -0.1773 -0.1769 -0.2158
  343MOL0     C47200  10.308   4.543   1.639  0.1127 -0.0677  0.3736
  343MOL0     C47201  10.243   4.512   1.756  0.1755  0.0977  0.5971
  343MOL0     C47202  10.298   4.562   1.872  0.2273 -0.7789  0.3862
  343MOL0     C47203  10.411   4.648   1.881 -0.5945  0.4634  0.2764
  343MOL0     O47204  10.452   4.714   1.996 -0.3766 -0.3662  0.1663
  343MOL0     C47205  10.496   4.628   2.101  0.3354  0.0757  0.1359
  343MOL0     C47206  10.457   4.695   2.239  0.1756  0.4166  0.1866
  343MOL0     C47207  10.564   4.640   2.334 -0.6555 -0.3319 -0.0590
  343MOL0     C47208  10.553   4.492   2.373  0.8820  0.0893 -0.2296
  343MOL0     C47209  10.670   4.457   2.470 -0.8559 -0.1541  1.0988
  343MOL0     C47210  10.807   4.467   2.396 -0.5718 -0.8353  0.2330
  343MOL0     C47211  10.926   4.433   2.490  0.0128  0.0559  0.0927
  343MOL0     C47212  10.954   4.529   2.621  0.5640  0.6049  0.3508
  343MOL0     N47213  11.020   4.653   2.585  0.8892  0.0242 -0.1636
  343MOL0     C47214  10.958   4.753   2.519 -0.1202 -0.4735  1.3047
  343MOL0     C47215  11.053   4.855   2.517 -0.4275 -0.9027 -0.1390
  343MOL0     C47216  11.043   4.998   2.461 -0.1212  0.1453 -0.1558
  343MOL0     C47217  11.174   5.047   2.398 -0.3306  0.0063 -0.6666
  343MOL0     C47218  11.162   5.184   2.344  0.0473  0.8139  0.3424
  343MOL0     C47219  11.294   5.250   2.347 -0.8770  0.3856 -0.0387
  343MOL0     O47220  11.370   5.229   2.217  0.2420 -0.3466 -0.3579
  343MOL0     C47221  11.505   5.268   2.203 -1.3813  0.1906  0.4048
  343MOL0     C47222  11.572   5.231   2.084 -0.5424  0.1746  0.1126
  343MOL0     C47223  11.705   5.260   2.049 -0.2002 -0.3441  0.0878
  343MOL0     C47224  11.759   5.203   1.915  0.0483  0.6425 -0.1126
  343MOL0     C47225  11.774   5.342   2.141 -0.1160 -0.3044 -0.6504
  343MOL0     C47226  11.898   5.421   2.107  0.5186  0.3099 -0.0180
  343MOL0     O47227  11.982   5.380   2.000 -0.3038 -0.6382  1.0439
  343MOL0     C47228  12.097   5.455   1.978 -0.3126 -0.3813 -0.4823
  343MOL0     C47229  12.089   5.562   1.895  0.1563 -0.8194 -0.8802
  343MOL0     C47230  12.195   5.647   1.873  0.8349 -0.2119 -0.2594
  343MOL0     C47231  12.319   5.631   1.927  0.1341  1.0583  0.2205
  343MOL0     O47232  12.425   5.717   1.928 -0.2916 -0.0334  0.1528
  343MOL0     C47233  12.417   5.833   1.849  0.5847 -0.1075 -0.8430
  343MOL0     C47234  12.532   5.920   1.849 -1.0206  0.1167  0.3335
  343MOL0     C47235  12.659   5.853   1.799 -0.0087 -0.0573 -0.0502
  343MOL0     C47236  12.781   5.934   1.841  0.4390  0.9788 -0.4469
  343MOL0     C47237  12.838   5.899   1.984 -0.1902  0.3550 -0.3568
  343MOL0     C47238  12.955   5.986   2.034  1.0170 -0.1672  0.3012
  343MOL0     C47239  13.016   5.946   2.172  0.0983 -0.6864 -0.0965
  343MOL0     C47240  13.134   6.023   2.218  0.5210 -1.7100  0.1022
  343MOL0    Cl47241  13.274   6.017   2.099 -0.3290  0.5907  0.0375
  343MOL0     C47242  12.330   5.515   2.016 -0.6158  0.7083  0.1325
  343MOL0     C47243  12.222   5.423   2.035 -0.0629 -0.1349  0.3979
  343MOL0     O47244  11.920   5.520   2.173  0.4034  0.0967  0.1428
  343MOL0     C47245  11.714   5.363   2.269  0.1675  0.0018 -0.1507
  343MOL0     C47246  11.585   5.334   2.294 -0.4280  0.2486 -0.0394
  343MOL0     N47247  11.166   4.813   2.582  0.1563 -0.9589 -0.7199
  343MOL0     N47248  11.138   4.697   2.629  0.5568 -0.3406  0.1035
  343MOL0     C47249  10.476   4.677   1.760  0.1269  0.5146 -0.1633
  343MOL0     C47250  10.421   4.620   1.636  0.3457  0.0694 -0.2142
  343MOL0     C47251  10.088   4.545   1.343  0.0057 -0.8244  0.2976
  343MOL0     C47252  10.048   4.416   1.331 -0.5340 -0.7190  0.1231
  343MOL0     C47253   9.977   4.368   1.229 -0.1142 -0.0710 -0.2959
  343MOL0     C47254   9.941   4.454   1.122 -0.0473 -1.0290  0.0181
  343MOL0     O47255   9.855   4.413   1.017 -0.2375 -0.8267  0.1355
  343MOL0     C47256   9.760   4.308   1.032  0.2731 -0.0088  0.2400
  343MOL0     C47257   9.642   4.337   1.121  0.0340  0.9706 -0.1393
  343MOL0     C47258   9.537   4.453   1.081 -0.7204 -1.1367  0.5757
  343MOL0     C47259   9.601   4.587   1.104  0.0437 -0.7151 -0.2564
  343MOL0     C47260   9.517   4.694   1.048  0.6153 -0.2363  1.1003
  343MOL0     C47261   9.447   4.785   0.998  0.0174  0.4415  1.0887
  343MOL0     C47262   9.983   4.586   1.128 -0.6051 -0.9446 -0.4246
  343MOL0     C47263  10.057   4.637   1.232  0.1086 -0.2936 -0.3606
  343MOL0     C47264  10.095   4.785   1.232  0.8874 -0.1126  0.0243
  343MOL0     H47265  10.147   4.463   1.767  1.0060 -1.6205  0.4477
  343MOL0     H47266  10.235   4.560   1.960  3.8256 -1.6431  3.1969
  343MOL0     H47267  10.605   4.627   2.093  0.2474  0.2899 -1.5700
  343MOL0     H47268  10.463   4.524   2.101  2.0414 -0.5149 -1.2253
  343MOL0     H47269  10.455   4.804   2.243  3.2616  0.5411  0.0489
  343MOL0     H47270  10.354   4.660   2.251 -0.1663  1.0045 -0.8535
  343MOL0     H47271  10.661   4.664   2.290  1.0429  1.2062  4.0530
  343MOL0     H47272  10.559   4.708   2.419  0.3644  1.1945 -1.1820
  343MOL0     H47273  10.461   4.472   2.429 -0.6674 -0.2482 -2.7612
  343MOL0     H47274  10.546   4.423   2.289  0.7854  1.4166 -1.3577
  343MOL0     H47275  10.663   4.354   2.505  3.0774 -0.4332  1.4765
  343MOL0     H47276  10.673   4.526   2.555  1.5911  0.1447  0.8528
  343MOL0     H47277  10.801   4.396   2.313 -0.8646 -0.7963  0.2189
  343MOL0     H47278  10.833   4.566   2.358  1.7198 -1.9007 -1.1702
  343MOL0     H47279  11.018   4.432   2.432  0.9184 -0.2314  1.4799
  343MOL0     H47280  10.893   4.336   2.530 -0.8512 -0.4910 -1.8324
  343MOL0     H47281  10.860   4.537   2.676  0.4637 -0.9190  0.4543
  343MOL0     H47282  11.029   4.471   2.675  0.3885  0.1745  0.1367
  343MOL0     H47283  10.855   4.757   2.483  0.2654  0.0272  0.2048
  343MOL0     H47284  11.010   5.070   2.536  2.0138  0.1951  0.8057
  343MOL0     H47285  10.963   4.984   2.387 -1.0334 -3.5844  1.2943
  343MOL0     H47286  11.251   5.030   2.474  0.3723 -2.2096 -1.7889
  343MOL0     H47287  11.195   4.986   2.310  1.8217  1.3007 -1.1028
  343MOL0     H47288  11.120   5.180   2.243  1.1281 -0.6612 -0.0859
  343MOL0     H47289  11.098   5.243   2.411 -0.4283 -0.1569  0.7655
  343MOL0     H47290  11.290   5.355   2.380 -0.0425  0.5748 -0.5191
  343MOL0     H47291  11.357   5.188   2.412 -2.2296 -1.7747 -0.6914
  343MOL0     H47292  11.509   5.177   2.014 -1.4955  2.4674 -0.8902
  343MOL0     H47293  11.678   5.147   1.867  1.6645 -3.0457  1.0372
  343MOL0     H47294  11.843   5.134   1.931  0.2699  0.9557  0.0826
  343MOL0     H47295  11.800   5.278   1.847  0.3206  0.4610 -0.1514
  343MOL0     H47296  11.993   5.577   1.847 -0.6891 -1.5025  0.5270
  343MOL0     H47297  12.169   5.740   1.824 -3.2099 -1.2701 -0.4510
  343MOL0     H47298  12.395   5.810   1.745 -2.3234 -0.2700 -0.2835
  343MOL0     H47299  12.333   5.894   1.883 -0.2101 -1.6552  0.1025
  343MOL0     H47300  12.528   6.012   1.791 -1.9892 -0.5409 -0.6670
  343MOL0     H47301  12.539   5.960   1.951  2.0210  0.9959 -0.1119
  343MOL0     H47302  12.654   5.866   1.690 -2.6737 -1.8314 -0.2485
  343MOL0     H47303  12.664   5.745   1.814  2.3644  0.2969  2.2925
  343MOL0     H47304  12.759   6.041   1.840  0.0015  1.2936  5.5066
  343MOL0     H47305  12.853   5.927   1.759 -2.2104  1.1773 -2.9235
  343MOL0     H47306  12.756   5.897   2.057 -2.7024 -0.2740 -3.0039
  343MOL0     H47307  12.886   5.801   1.979  0.8018  0.8047  0.2012
  343MOL0     H47308  12.931   6.092   2.033  2.9648  0.3129 -0.2041
  343MOL0     H47309  13.031   5.974   1.956  0.9942 -0.6234  0.3424
  343MOL0     H47310  13.044   5.841   2.171 -1.3636 -1.1599 -2.9336
  343MOL0     H47311  12.928   5.961   2.236  0.7326  3.6883  0.0974
  343MOL0     H47312  13.160   5.996   2.321  0.1197  0.3110  0.7717
  343MOL0     H47313  13.103   6.127   2.224 -4.0730 -2.8627  0.2337
  343MOL0     H47314  12.425   5.484   2.060 -1.4020 -1.0945  0.6754
  343MOL0     H47315  12.241   5.344   2.108  1.7472 -0.7726 -0.6863
  343MOL0     H47316  11.771   5.411   2.349 -1.5799  1.4600  0.2986
  343MOL0     H47317  11.543   5.343   2.394 -1.5433  0.6096 -0.5260
  343MOL0     H47318  10.560   4.744   1.770 -0.6299  1.7143 -1.5339
  343MOL0     H47319  10.466   4.644   1.540  1.1097 -2.9594 -0.7206
  343MOL0     H47320  10.077   4.353   1.415  0.8037  0.5776  0.6803
  343MOL0     H47321   9.947   4.264   1.220 -1.1959  0.3805 -2.5901
  343MOL0     H47322   9.730   4.273   0.933 -0.0276 -1.2334  0.7460
  343MOL0     H47323   9.790   4.220   1.088 -0.1312 -0.5881 -0.4340
  343MOL0     H47324   9.686   4.368   1.216  0.1167  4.2555 -1.1195
  343MOL0     H47325   9.593   4.241   1.140  0.5034  0.7379 -0.1021
  343MOL0     H47326   9.500   4.434   0.980 -0.8612  0.2502  0.3461
  343MOL0     H47327   9.447   4.434   1.140 -0.5986 -0.0050  1.1470
  343MOL0     H47328   9.698   4.604   1.056  0.9799 -0.0954  1.7784
  343MOL0     H47329   9.619   4.618   1.207 -1.6417  3.7648 -1.1171
  343MOL0     H47330   9.382   4.860   0.957 -1.0665  0.4349  2.6816
  343MOL0     H47331   9.945   4.664   1.062 -2.0567 -0.3758  1.0204
  343MOL0     H47332  10.063   4.835   1.140 -0.8168  1.7314  1.5484
  343MOL0     H47333  10.045   4.829   1.318 -1.0857 -1.1642 -0.5260
  343MOL0     H47334  10.203   4.796   1.248  0.8526  0.2866 -0.0104
  344MOL0     O47335   5.275   1.637   6.195 -0.0499  0.0597  0.3126
  344MOL0     C47336   5.205   1.540   6.161 -1.6169  0.1676 -0.3682
  344MOL0     O47337   5.238   1.444   6.060 -0.1925 -0.4912 -0.2237
  344MOL0     C47338   5.364   1.449   6.005  0.1240  0.0592 -0.2474
  344MOL0     C47339   5.373   1.482   5.871 -0.5248 -0.4854 -0.2062
  344MOL0     C47340   5.493   1.490   5.803  0.3967 -0.7074 -0.9881
  344MOL0     C47341   5.612   1.466   5.876 -0.1793  0.7514 -0.1717
  344MOL0     O47342   5.729   1.487   5.805  0.0965 -0.6546  0.2634
  344MOL0     C47343   5.852   1.463   5.864 -0.2458  0.4109  0.4943
  344MOL0     C47344   5.959   1.517   5.767  0.2208 -0.3038 -0.3844
  344MOL0     C47345   6.096   1.490   5.824 -0.2920 -0.0411  0.1905
  344MOL0     C47346   6.194   1.610   5.796  0.5697 -0.2909  0.1869
  344MOL0     C47347   6.331   1.588   5.858  0.4578 -0.3962 -0.3449
  344MOL0     C47348   6.429   1.700   5.841 -0.1944  1.2751  0.6094
  344MOL0     C47349   6.553   1.668   5.919 -0.2830  0.2166 -0.5003
  344MOL0     C47350   6.650   1.793   5.894 -0.4131  0.3909  0.8786
  344MOL0     N47351   6.779   1.760   5.951  0.1918 -0.1400  0.2179
  344MOL0     C47352   6.866   1.661   5.902  0.0058  0.3569 -0.5740
  344MOL0     C47353   6.968   1.662   5.992  0.4847  0.2780  0.7735
  344MOL0     C47354   7.094   1.581   5.997  0.2894 -0.2708  0.2088
  344MOL0     C47355   7.229   1.662   6.002  1.2366  0.6324  0.2335
  344MOL0     C47356   7.345   1.572   5.979  0.5128  0.2342 -0.0774
  344MOL0     C47357   7.476   1.643   6.009  0.0436 -0.1451 -0.1115
  344MOL0     O47358   7.491   1.684   6.140  0.0544  0.5073 -0.4032
  344MOL0     C47359   7.595   1.757   6.181 -0.0219 -0.0136 -0.7199
  344MOL0     C47360   7.580   1.817   6.307  0.2062  0.2507  0.0960
  344MOL0     C47361   7.680   1.888   6.362 -0.2323  0.5930 -0.8255
  344MOL0     C47362   7.652   1.962   6.500 -0.2608  0.2390 -0.7858
  344MOL0     C47363   7.812   1.898   6.305 -0.3116  0.6782 -0.1410
  344MOL0     C47364   7.928   1.990   6.361  0.1456  1.5072 -0.2444
  344MOL0     O47365   8.041   1.983   6.281  0.5387  0.3402  0.3444
  344MOL0     C47366   8.137   2.080   6.287 -0.2482  1.1950 -0.3866
  344MOL0     C47367   8.268   2.022   6.274 -0.3980  1.0288 -0.6956
  344MOL0     C47368   8.380   2.106   6.300 -0.8057 -0.8801  0.3736
  344MOL0     C47369   8.366   2.241   6.328 -0.5687  0.8310 -0.3501
  344MOL0     O47370   8.466   2.330   6.358  0.5324 -0.7280 -0.2755
  344MOL0     C47371   8.609   2.291   6.348  0.9309  0.5561  0.1873
  344MOL0     C47372   8.696   2.392   6.406  0.1303  0.3803  0.0291
  344MOL0     C47373   8.843   2.334   6.426 -1.3461 -0.1776 -0.5682
  344MOL0     C47374   8.926   2.304   6.302 -0.2824  0.7299  0.5161
  344MOL0     C47375   9.070   2.285   6.343  0.2682 -0.4612  0.3112
  344MOL0     C47376   9.122   2.188   6.231 -0.2881 -0.5455  0.0420
  344MOL0     C47377   9.257   2.111   6.272  0.1180 -0.0067  0.5576
  344MOL0     C47378   9.327   2.063   6.143  0.0690  0.2926  0.3479
  344MOL0    Cl47379   9.388   2.212   6.049  0.0694 -0.5178 -0.6546
  344MOL0     C47380   8.234   2.288   6.349  0.1947  0.2675  0.6348
  344MOL0     C47381   8.116   2.208   6.323 -1.8353 -0.1912 -1.0517
  344MOL0     O47382   7.904   2.074   6.449 -0.2733  0.1720 -0.4126
  344MOL0     C47383   7.827   1.837   6.175 -0.7320 -0.3911 -1.1604
  344MOL0     C47384   7.717   1.767   6.119  0.1514 -0.0771  0.2550
  344MOL0     N47385   6.949   1.757   6.085 -0.4141 -0.0126 -0.7199
  344MOL0     N47386   6.827   1.810   6.070 -0.3854 -1.0433  0.4548
  344MOL0     C47387   5.599   1.428   6.011  0.1364  0.0149 -0.5372
  344MOL0     C47388   5.482   1.423   6.077  0.4360  0.2892  0.1448
  344MOL0     C47389   5.070   1.536   6.218 -0.0004  0.3243 -0.7014
  344MOL0     C47390   4.969   1.468   6.143  0.1077  1.1350  0.1506
  344MOL0     C47391   4.838   1.458   6.189 -0.0091 -0.1563 -0.4008
  344MOL0     C47392   4.796   1.512   6.306 -0.6281 -0.8672  0.4393
  344MOL0     O47393   4.665   1.504   6.353 -0.6073 -0.5753  0.2968
  344MOL0     C47394   4.577   1.420   6.276 -0.2469  0.6516 -0.4828
  344MOL0     C47395   4.442   1.390   6.333 -0.0878 -0.5243 -0.2681
  344MOL0     C47396   4.342   1.503   6.294  0.4091  0.6305 -0.4525
  344MOL0     C47397   4.375   1.633   6.376 -0.0503 -0.6778 -0.8977
  344MOL0     C47398   4.321   1.654   6.510  0.1046  0.5051 -0.5733
  344MOL0     C47399   4.265   1.666   6.621  0.3997 -0.1690  0.0251
  344MOL0     C47400   4.888   1.586   6.368  0.0238  0.5235 -0.3566
  344MOL0     C47401   5.020   1.600   6.337  0.5941 -0.2580 -0.3984
  344MOL0     C47402   5.100   1.694   6.419 -0.3824 -0.1334  0.6002
  344MOL0     H47403   5.276   1.505   5.827 -1.3389  0.9011  2.1613
  344MOL0     H47404   5.499   1.517   5.698  0.1418  0.7837 -0.6349
  344MOL0     H47405   5.873   1.357   5.882  1.4893  0.8304  1.2402
  344MOL0     H47406   5.853   1.520   5.957 -2.2438 -0.7749  1.2988
  344MOL0     H47407   5.948   1.482   5.664  0.7767 -0.0166 -0.5431
  344MOL0     H47408   5.948   1.624   5.781  1.9111 -0.2424  0.6828
  344MOL0     H47409   6.088   1.472   5.932  0.8534  0.4580  0.3753
  344MOL0     H47410   6.128   1.395   5.781 -2.7820 -0.1496 -1.6038
  344MOL0     H47411   6.196   1.635   5.689 -0.0072 -2.8516 -0.5012
  344MOL0     H47412   6.160   1.699   5.849  0.6390  0.3379 -0.7886
  344MOL0     H47413   6.374   1.495   5.822  0.7703  0.7164 -3.0470
  344MOL0     H47414   6.308   1.580   5.965  0.5743  0.1566 -0.2749
  344MOL0     H47415   6.460   1.699   5.736  0.2404 -3.7002  0.5327
  344MOL0     H47416   6.385   1.798   5.860 -1.3149  1.0843 -0.8622
  344MOL0     H47417   6.592   1.568   5.896  1.1540  0.5687  0.2371
  344MOL0     H47418   6.530   1.664   6.026  1.5184  3.7822  0.1906
  344MOL0     H47419   6.672   1.814   5.789  1.8192 -0.6336  1.0910
  344MOL0     H47420   6.606   1.882   5.939 -0.4799 -0.3349  2.2893
  344MOL0     H47421   6.860   1.600   5.812  0.4296 -0.1210 -0.2880
  344MOL0     H47422   7.093   1.516   5.909 -1.8044  0.0394 -0.0471
  344MOL0     H47423   7.088   1.508   6.079 -0.7701 -0.4363 -0.0059
  344MOL0     H47424   7.222   1.730   5.916 -0.9625 -0.9313 -0.9248
  344MOL0     H47425   7.238   1.720   6.095  2.6743 -0.2210  0.6450
  344MOL0     H47426   7.334   1.485   6.045  1.7196 -1.2675 -1.7447
  344MOL0     H47427   7.331   1.537   5.876  2.7249 -1.2059  0.0555
  344MOL0     H47428   7.558   1.574   5.983 -1.3321 -2.7390  1.9436
  344MOL0     H47429   7.481   1.734   5.949  0.1028  0.2972  0.5541
  344MOL0     H47430   7.493   1.797   6.369 -1.1797 -0.8912 -2.1066
  344MOL0     H47431   7.571   1.920   6.560  0.3864  1.0795  0.7196
  344MOL0     H47432   7.628   2.061   6.461 -2.1860  0.9883  1.9991
  344MOL0     H47433   7.739   1.961   6.567 -1.1914 -3.8602  0.6925
  344MOL0     H47434   8.290   1.918   6.252  0.5467  1.0917 -0.1100
  344MOL0     H47435   8.478   2.060   6.289 -0.5019 -0.0805 -0.3692
  344MOL0     H47436   8.618   2.198   6.405 -1.0080  1.8442  2.8201
  344MOL0     H47437   8.629   2.284   6.240 -3.5407 -1.3700 -0.7725
  344MOL0     H47438   8.693   2.492   6.362  3.2130  0.4710 -0.1666
  344MOL0     H47439   8.658   2.408   6.507 -0.3910  0.3917 -0.1658
  344MOL0     H47440   8.837   2.245   6.489 -3.4898  0.4000  0.1547
  344MOL0     H47441   8.895   2.417   6.475  0.2689  1.6699 -4.8624
  344MOL0     H47442   8.924   2.391   6.235  0.2134  0.6261  0.3559
  344MOL0     H47443   8.881   2.221   6.247  0.5854  0.6823 -0.1532
  344MOL0     H47444   9.123   2.381   6.347  0.1133 -0.1815 -2.5291
  344MOL0     H47445   9.084   2.224   6.433  1.0175 -0.7847 -0.0109
  344MOL0     H47446   9.149   2.241   6.139  2.2429 -2.7487 -0.6052
  344MOL0     H47447   9.049   2.108   6.213  0.1016 -1.4806  2.3341
  344MOL0     H47448   9.236   2.036   6.349  1.8913 -0.0450  1.0367
  344MOL0     H47449   9.328   2.180   6.319 -0.6757  2.3104 -1.3978
  344MOL0     H47450   9.268   1.998   6.079  1.6081  0.7756 -1.6787
  344MOL0     H47451   9.417   2.009   6.175  1.3664  1.6294 -0.8853
  344MOL0     H47452   8.218   2.391   6.378  0.0298  0.6163 -0.5979
  344MOL0     H47453   8.015   2.247   6.331 -1.7617 -0.0586 -0.7404
  344MOL0     H47454   7.918   1.846   6.117  0.8807 -1.2678  1.0896
  344MOL0     H47455   7.738   1.719   6.023 -0.4104 -1.6474  0.8765
  344MOL0     H47456   5.679   1.400   6.079 -1.8735  0.1360  2.0266
  344MOL0     H47457   5.483   1.403   6.184  4.6012  2.7127  0.7973
  344MOL0     H47458   5.000   1.415   6.054 -3.0042 -1.0801  0.2084
  344MOL0     H47459   4.767   1.404   6.128 -1.2999  1.8588 -0.7721
  344MOL0     H47460   4.555   1.467   6.180 -2.5450  1.5578  0.4008
  344MOL0     H47461   4.620   1.322   6.255 -2.3725 -0.3057 -0.5863
  344MOL0     H47462   4.445   1.382   6.442 -1.5113  0.9343 -0.0781
  344MOL0     H47463   4.416   1.291   6.296  0.0700 -0.8868  0.5868
  344MOL0     H47464   4.348   1.519   6.186 -2.3732 -1.1063 -0.9638
  344MOL0     H47465   4.239   1.471   6.312  1.2060 -1.2325  1.0764
  344MOL0     H47466   4.331   1.724   6.334 -0.5570 -0.4794  0.0407
  344MOL0     H47467   4.482   1.653   6.385  0.3509 -1.8252 -2.7483
  344MOL0     H47468   4.219   1.675   6.717  2.8838 -0.2288  1.2777
  344MOL0     H47469   4.848   1.646   6.450 -1.0580  1.9738 -1.8653
  344MOL0     H47470   5.145   1.764   6.348 -0.0571  0.3138  1.2389
  344MOL0     H47471   5.037   1.755   6.484  0.0149 -0.3839  1.2338
  344MOL0     H47472   5.181   1.661   6.485  0.8698  1.0891 -0.2627
  345MOL0     O47473   6.310   5.678   7.882  0.1955  0.1572  0.2762
  345MOL0     C47474   6.301   5.688   8.006  0.5502  0.1080 -0.2111
  345MOL0     O47475   6.406   5.683   8.095 -0.2439 -0.2338  0.1887
  345MOL0     C47476   6.534   5.664   8.055  0.3255  0.3386  0.1662
  345MOL0     C47477   6.603   5.551   8.089 -0.7545  0.3893  0.5252
  345MOL0     C47478   6.735   5.531   8.042  0.9200 -0.3626  0.5957
  345MOL0     C47479   6.806   5.627   7.966  0.4785  0.3857  0.4301
  345MOL0     O47480   6.931   5.591   7.927 -0.2913 -0.5032  0.3888
  345MOL0     C47481   7.007   5.687   7.847  0.9597 -0.0539  0.0835
  345MOL0     C47482   7.148   5.663   7.826 -0.2864  0.7244 -0.0772
  345MOL0     C47483   7.189   5.546   7.732 -0.2720  0.2260  0.2140
  345MOL0     C47484   7.334   5.569   7.673  0.4777  0.6814  0.3774
  345MOL0     C47485   7.359   5.480   7.547 -0.4984  0.0729  0.2225
  345MOL0     C47486   7.342   5.333   7.584  1.2941  0.8534  0.0092
  345MOL0     C47487   7.408   5.241   7.478 -0.5785  0.4245 -0.2262
  345MOL0     C47488   7.330   5.228   7.347 -1.0460 -0.1199 -0.1372
  345MOL0     N47489   7.421   5.169   7.235  0.3659  0.7897  0.3078
  345MOL0     C47490   7.430   5.037   7.204 -0.1020  0.8087  0.5365
  345MOL0     C47491   7.480   5.038   7.075  0.2170  0.3061  0.1059
  345MOL0     C47492   7.533   4.934   6.980 -0.1667  0.4144  0.0068
  345MOL0     C47493   7.644   4.859   7.061  0.2076  0.2866  0.3808
  345MOL0     C47494   7.735   4.770   6.965  0.0563  0.1424  0.4339
  345MOL0     C47495   7.838   4.695   7.044 -0.0933 -0.6528 -0.1455
  345MOL0     O47496   7.916   4.785   7.121  0.0005  0.0247  0.4025
  345MOL0     C47497   8.024   4.735   7.179 -0.1381 -0.7494 -0.1307
  345MOL0     C47498   8.024   4.613   7.250  0.4910 -0.5016 -0.3569
  345MOL0     C47499   8.138   4.568   7.327 -0.0112  0.6093  0.2524
  345MOL0     C47500   8.110   4.440   7.407 -1.0210 -1.3104 -0.3674
  345MOL0     C47501   8.265   4.634   7.313 -0.3172  0.0237 -0.4094
  345MOL0     C47502   8.389   4.597   7.390  0.1047  1.0108 -0.3636
  345MOL0     O47503   8.472   4.694   7.431 -0.0773  0.8149 -0.7627
  345MOL0     C47504   8.597   4.657   7.479 -0.4365  0.3361 -0.1875
  345MOL0     C47505   8.618   4.685   7.614 -0.8124  0.4392  0.6825
  345MOL0     C47506   8.742   4.661   7.678 -0.4219  0.2482 -0.1768
  345MOL0     C47507   8.858   4.621   7.605 -0.1545 -0.3244 -0.2646
  345MOL0     O47508   8.980   4.631   7.657  0.3896  0.3326  0.4432
  345MOL0     C47509   9.097   4.688   7.590  0.5125  0.2453  0.5157
  345MOL0     C47510   9.190   4.741   7.698  0.3507 -0.8833  1.6272
  345MOL0     C47511   9.325   4.757   7.640 -0.5184  0.3189 -0.1208
  345MOL0     C47512   9.412   4.843   7.735  0.2129 -0.1895 -0.1048
  345MOL0     C47513   9.560   4.868   7.693 -0.3846  0.3782  0.3754
  345MOL0     C47514   9.632   4.977   7.771  0.4590 -0.7334  0.2689
  345MOL0     C47515   9.760   4.931   7.834  0.2401  0.1790 -0.4515
  345MOL0     C47516   9.750   4.839   7.950 -0.2520  0.8311 -0.6009
  345MOL0    Cl47517   9.922   4.773   7.962  0.3564  0.1265 -0.4807
  345MOL0     C47518   8.835   4.585   7.476 -0.1811  0.8220  0.1104
  345MOL0     C47519   8.709   4.603   7.412 -0.0773 -0.7704  0.3519
  345MOL0     O47520   8.398   4.478   7.417 -0.9359  0.0105 -0.1836
  345MOL0     C47521   8.263   4.744   7.224 -0.1395  0.1176 -0.8261
  345MOL0     C47522   8.154   4.794   7.156 -0.5506 -0.1612 -0.9579
  345MOL0     N47523   7.496   5.173   7.044 -0.3736 -0.2838 -1.0379
  345MOL0     N47524   7.475   5.251   7.148  0.2182  0.1039  0.5942
  345MOL0     C47525   6.733   5.747   7.946 -0.4762  0.2683 -0.5195
  345MOL0     C47526   6.601   5.758   7.979  0.4468 -0.7417  0.1124
  345MOL0     C47527   6.169   5.740   8.048 -1.1997 -0.4788 -0.1217
  345MOL0     C47528   6.171   5.803   8.178  0.8132  0.0215 -0.3660
  345MOL0     C47529   6.043   5.838   8.242  0.0528  0.1891 -0.2976
  345MOL0     C47530   5.922   5.815   8.179 -0.0049  0.2833  0.4084
  345MOL0     O47531   5.804   5.839   8.247 -0.4737 -0.4734 -0.3704
  345MOL0     C47532   5.684   5.866   8.167 -0.5690 -0.5218  0.5455
  345MOL0     C47533   5.581   5.945   8.241  0.3283 -0.4083  0.5101
  345MOL0     C47534   5.439   5.911   8.189 -0.5437 -0.5240  0.9178
  345MOL0     C47535   5.363   5.840   8.295 -0.4744  0.1590  0.9933
  345MOL0     C47536   5.227   5.811   8.257 -0.1940  0.2786  0.2982
  345MOL0     C47537   5.110   5.802   8.218 -0.8461 -0.2893 -0.1091
  345MOL0     C47538   5.926   5.758   8.049 -0.0620  0.6098 -0.3949
  345MOL0     C47539   6.039   5.711   7.985  0.2855 -0.4438  0.1827
  345MOL0     C47540   6.032   5.631   7.854  1.0974  0.0042  0.0017
  345MOL0     H47541   6.567   5.471   8.152 -2.5583  1.6870  1.2491
  345MOL0     H47542   6.797   5.442   8.053  0.7745 -0.3136  1.8900
  345MOL0     H47543   6.999   5.784   7.897  0.2694 -0.4442  0.7581
  345MOL0     H47544   6.964   5.699   7.747 -1.9530  1.2705  1.3779
  345MOL0     H47545   7.184   5.757   7.782  0.8466 -0.5277 -1.9481
  345MOL0     H47546   7.197   5.658   7.924  2.1138 -1.5072 -1.2708
  345MOL0     H47547   7.185   5.453   7.790 -0.2448 -1.8430 -2.8635
  345MOL0     H47548   7.109   5.538   7.658 -1.1091 -1.1256  1.2160
  345MOL0     H47549   7.333   5.675   7.644 -1.7400  0.8043  0.7820
  345MOL0     H47550   7.412   5.549   7.747  1.1259  3.1296  0.4410
  345MOL0     H47551   7.461   5.498   7.512 -1.2258  0.0716 -2.1343
  345MOL0     H47552   7.296   5.504   7.460 -0.6566 -0.6979  0.1134
  345MOL0     H47553   7.387   5.330   7.683 -2.8700 -0.0528  2.0932
  345MOL0     H47554   7.234   5.322   7.596  0.9092  0.0786 -3.2401
  345MOL0     H47555   7.411   5.141   7.521 -1.9517 -0.3755 -1.8488
  345MOL0     H47556   7.506   5.281   7.452 -0.3839 -0.2532 -0.5388
  345MOL0     H47557   7.243   5.165   7.365  0.9350 -2.7433  0.8545
  345MOL0     H47558   7.298   5.325   7.307  1.3505 -0.5372 -3.4782
  345MOL0     H47559   7.422   4.950   7.268 -1.9389 -0.4806 -1.3144
  345MOL0     H47560   7.579   4.972   6.889 -0.0162  0.4084  0.0792
  345MOL0     H47561   7.446   4.874   6.952  0.0886  1.4484 -3.4517
  345MOL0     H47562   7.720   4.908   7.123  0.9800 -2.4576  1.7985
  345MOL0     H47563   7.584   4.796   7.128 -1.2483 -2.0285 -2.8562
  345MOL0     H47564   7.665   4.710   6.905 -1.6588  1.3636  1.1169
  345MOL0     H47565   7.789   4.832   6.893  1.7839 -1.2309  0.4788
  345MOL0     H47566   7.783   4.629   7.112 -0.2006  0.8374  1.2751
  345MOL0     H47567   7.905   4.640   6.978 -1.1100 -0.0471 -1.7180
  345MOL0     H47568   7.929   4.560   7.257  0.9625 -1.2445  0.5755
  345MOL0     H47569   8.086   4.459   7.512 -1.8832 -0.9490 -0.6179
  345MOL0     H47570   8.192   4.368   7.398 -0.5557 -0.6042 -2.1810
  345MOL0     H47571   8.016   4.404   7.364 -0.7269 -0.8257 -1.4349
  345MOL0     H47572   8.527   4.700   7.672 -0.6968 -1.0094  1.2852
  345MOL0     H47573   8.758   4.675   7.785 -0.8488  1.9041 -0.3065
  345MOL0     H47574   9.153   4.606   7.543 -1.5637 -2.3930  2.3015
  345MOL0     H47575   9.068   4.764   7.517  0.2427 -1.8323 -1.6582
  345MOL0     H47576   9.148   4.839   7.723  2.7990  0.7951 -0.4035
  345MOL0     H47577   9.186   4.682   7.790 -1.7040  0.7297  2.6641
  345MOL0     H47578   9.333   4.801   7.540  1.8974  2.1415  0.7653
  345MOL0     H47579   9.366   4.656   7.646  1.7858  1.1698 -0.3496
  345MOL0     H47580   9.409   4.817   7.842  2.0757 -0.3625 -0.0583
  345MOL0     H47581   9.371   4.943   7.725 -4.7237 -1.9091  0.4269
  345MOL0     H47582   9.612   4.772   7.689  0.9230  1.1006 -1.5695
  345MOL0     H47583   9.545   4.904   7.591  2.2467  1.8784  0.4355
  345MOL0     H47584   9.553   5.020   7.833 -1.0585 -3.8431  0.7238
  345MOL0     H47585   9.669   5.054   7.703  0.6779 -1.3744 -0.3491
  345MOL0     H47586   9.821   5.011   7.877  1.5934  0.0425 -2.0098
  345MOL0     H47587   9.806   4.883   7.747 -2.1307 -1.3538 -0.9496
  345MOL0     H47588   9.687   4.751   7.937  1.3951 -0.6129  0.7353
  345MOL0     H47589   9.718   4.909   8.027  1.1417  1.1283 -0.2583
  345MOL0     H47590   8.914   4.549   7.412  0.3465  0.0417  1.1602
  345MOL0     H47591   8.709   4.580   7.306  1.6768  1.2019 -0.1520
  345MOL0     H47592   8.360   4.788   7.201  0.8108 -2.5446 -2.3281
  345MOL0     H47593   8.149   4.883   7.094  1.8475 -1.4598 -3.1669
  345MOL0     H47594   6.784   5.835   7.908  1.2712  0.8452  2.7626
  345MOL0     H47595   6.545   5.851   7.969 -2.4764 -2.4495 -0.7230
  345MOL0     H47596   6.260   5.810   8.240  1.3371 -0.1641 -1.0687
  345MOL0     H47597   6.031   5.882   8.340  0.6429 -1.0662  0.3728
  345MOL0     H47598   5.712   5.912   8.072  3.3624  0.9916  2.2629
  345MOL0     H47599   5.652   5.764   8.143  1.6149 -1.3982  1.1183
  345MOL0     H47600   5.611   6.048   8.218  1.0241 -0.5764  0.6287
  345MOL0     H47601   5.593   5.922   8.348 -1.1784 -2.2860  0.3277
  345MOL0     H47602   5.388   6.003   8.159  2.0950  0.3977 -1.1767
  345MOL0     H47603   5.440   5.845   8.102  1.8734  0.8821 -0.2227
  345MOL0     H47604   5.359   5.894   8.390 -1.0984 -1.7588  2.1080
  345MOL0     H47605   5.416   5.745   8.307 -0.3044 -0.0824 -1.2733
  345MOL0     H47606   5.012   5.808   8.177 -0.8094  0.8589 -0.0757
  345MOL0     H47607   5.834   5.737   7.995 -0.9427 -0.8632  1.5731
  345MOL0     H47608   6.111   5.555   7.855  0.3804 -0.7517  1.1229
  345MOL0     H47609   5.941   5.571   7.845 -0.2683  2.2939 -3.3837
  345MOL0     H47610   6.030   5.694   7.765 -4.1294  1.6579  0.9379
  346MOL0     O47611   2.460   4.818   8.754 -0.6556 -0.1074 -0.5845
  346MOL0     C47612   2.495   4.881   8.854 -0.6766  0.0983 -0.8945
  346MOL0     O47613   2.411   4.940   8.944  0.4408 -0.5599  1.2194
  346MOL0     C47614   2.272   4.961   8.912 -0.6138 -0.1413  0.3834
  346MOL0     C47615   2.186   4.979   9.017  1.0104 -0.4060 -0.3532
  346MOL0     C47616   2.047   5.009   8.996 -0.0707 -0.6270 -0.6035
  346MOL0     C47617   1.992   5.013   8.869  1.1215  1.0010  0.4712
  346MOL0     O47618   1.867   5.075   8.841  0.2910  0.5909  0.4722
  346MOL0     C47619   1.835   5.131   8.712 -1.1146 -0.5728 -0.2809
  346MOL0     C47620   1.937   5.244   8.679  0.7500  0.9846  0.1929
  346MOL0     C47621   1.940   5.273   8.532  0.3379 -0.7655  0.5582
  346MOL0     C47622   2.048   5.380   8.492  0.4185  0.9860  0.0712
  346MOL0     C47623   2.064   5.390   8.346 -0.4944 -0.5732  1.2701
  346MOL0     C47624   1.950   5.463   8.274 -0.3807 -0.0620  0.7530
  346MOL0     C47625   1.985   5.466   8.119  0.1187  0.4509  0.2321
  346MOL0     C47626   1.907   5.564   8.042  0.9762  0.2908  0.1017
  346MOL0     N47627   1.918   5.533   7.896  0.8496 -0.0343  0.5399
  346MOL0     C47628   1.824   5.459   7.827 -0.6903 -0.1773  0.2888
  346MOL0     C47629   1.882   5.438   7.706 -0.2157  0.2251  0.8440
  346MOL0     C47630   1.829   5.349   7.592 -0.0381  0.2791  0.9383
  346MOL0     C47631   1.857   5.202   7.615 -0.1961  0.4861  0.3459
  346MOL0     C47632   1.824   5.117   7.493  0.8204 -0.7036  0.2884
  346MOL0     C47633   1.677   5.112   7.449 -0.5742 -0.8981  0.2622
  346MOL0     O47634   1.598   5.058   7.557  0.2791 -0.1262  0.2314
  346MOL0     C47635   1.468   5.042   7.518  0.1694 -0.7056  0.4106
  346MOL0     C47636   1.398   4.941   7.578  0.1060 -0.6304 -0.2898
  346MOL0     C47637   1.266   4.915   7.548  0.4714  0.6282  0.7417
  346MOL0     C47638   1.196   4.803   7.633  0.5705  0.0262 -0.1141
  346MOL0     C47639   1.199   4.994   7.450  0.1970 -0.0149 -0.4967
  346MOL0     C47640   1.064   4.966   7.406  1.1314 -0.2058  0.6250
  346MOL0     O47641   0.990   5.072   7.363  0.1006  0.4149  0.6367
  346MOL0     C47642   0.864   5.052   7.308  0.3289  0.2680  0.3003
  346MOL0     C47643   0.817   5.087   7.180  0.3305 -0.1347  0.2764
  346MOL0     C47644   0.692   5.045   7.136  0.2136  0.8564 -0.5669
  346MOL0     C47645   0.598   4.988   7.226 -0.3074 -0.7782  0.9059
  346MOL0     O47646   0.472   4.942   7.192 -0.0653  0.0941 -0.4132
  346MOL0     C47647   0.395   5.005   7.093 -0.0558 -0.8201  0.2245
  346MOL0     C47648   0.245   5.001   7.136 -0.0562 -0.1820 -0.0279
  346MOL0     C47649   0.154   5.070   7.032 -1.0374  0.0017 -0.5368
  346MOL0     C47650   0.148   4.982   6.897 -0.2939 -0.1350  0.0855
  346MOL0     C47651   0.040   5.025   6.785 -0.7197 -0.4536 -0.0085
  346MOL0     C47652   0.023   5.180   6.778 -0.6730  0.8174 -0.0594
  346MOL0     C47653  -0.076   5.235   6.679  1.0485  1.4588 -0.5152
  346MOL0     C47654  -0.049   5.383   6.663  0.0817  0.1238  0.3336
  346MOL0    Cl47655  -0.026   5.460   6.826  0.4217 -0.2401  0.1631
  346MOL0     C47656   0.639   4.958   7.359 -0.0385 -0.7400  1.1475
  346MOL0     C47657   0.771   4.985   7.393 -0.1619  0.3257  1.1743
  346MOL0     O47658   1.017   4.849   7.429 -0.2015 -0.7513  0.7304
  346MOL0     C47659   1.269   5.101   7.388  0.2081 -0.4593  0.0873
  346MOL0     C47660   1.403   5.123   7.422  0.0652  0.4495  0.5621
  346MOL0     N47661   1.996   5.513   7.693 -0.4521 -0.3129 -0.3940
  346MOL0     N47662   2.024   5.554   7.814 -1.0207 -0.2016 -0.6739
  346MOL0     C47663   2.072   4.967   8.766  0.4472  0.1737 -0.0508
  346MOL0     C47664   2.212   4.948   8.784  0.3219  1.0794  0.2252
  346MOL0     C47665   2.639   4.875   8.878 -0.1885  0.1610 -0.3559
  346MOL0     C47666   2.737   4.871   8.768 -0.3484 -0.0276 -1.0348
  346MOL0     C47667   2.877   4.863   8.792  0.0455  0.0476  0.0951
  346MOL0     C47668   2.925   4.858   8.922  0.0126 -0.4562  0.0471
  346MOL0     O47669   3.056   4.830   8.954  0.1004  0.2709 -0.3260
  346MOL0     C47670   3.165   4.862   8.865 -0.0535 -0.6866 -0.1116
  346MOL0     C47671   3.304   4.862   8.937 -0.3519 -0.3505  0.6844
  346MOL0     C47672   3.416   4.847   8.831  0.5557  0.9288  0.3953
  346MOL0     C47673   3.549   4.819   8.901 -0.1215 -0.3972  0.6113
  346MOL0     C47674   3.549   4.696   8.972  0.1770 -0.3128  0.0719
  346MOL0     C47675   3.549   4.591   9.038 -0.0211  0.0365  0.3901
  346MOL0     C47676   2.834   4.880   9.029 -0.2051  0.3430  0.5897
  346MOL0     C47677   2.699   4.890   9.010  0.0662  1.1270 -0.2567
  346MOL0     C47678   2.619   4.901   9.144 -0.0710 -0.5890 -0.4833
  346MOL0     H47679   2.226   4.976   9.118 -0.4326  0.9727  0.3003
  346MOL0     H47680   1.990   5.068   9.068 -1.1281  0.0692 -1.9465
  346MOL0     H47681   1.735   5.175   8.711 -2.2938 -3.0661  1.3699
  346MOL0     H47682   1.832   5.053   8.635 -2.7705 -1.0720  0.2645
  346MOL0     H47683   1.925   5.334   8.740  1.2924  0.4559  1.1215
  346MOL0     H47684   2.038   5.215   8.712  0.5021  2.3493  2.3850
  346MOL0     H47685   1.965   5.180   8.481 -1.0043 -0.3030 -1.0015
  346MOL0     H47686   1.845   5.311   8.493  1.2079  0.6375 -0.2604
  346MOL0     H47687   2.021   5.476   8.537  0.0299  0.8846  0.0660
  346MOL0     H47688   2.139   5.332   8.530 -0.6091 -3.5276 -2.4063
  346MOL0     H47689   2.073   5.291   8.300  2.6022  0.6153 -0.9776
  346MOL0     H47690   2.152   5.452   8.327 -0.3522 -1.9805 -4.6096
  346MOL0     H47691   1.858   5.407   8.291 -0.9254 -0.4122 -2.6334
  346MOL0     H47692   1.935   5.561   8.320 -0.3139 -0.5787  1.9020
  346MOL0     H47693   1.966   5.367   8.076  0.1230  1.2338 -1.6662
  346MOL0     H47694   2.091   5.490   8.111  0.2054 -0.1497 -0.5906
  346MOL0     H47695   1.802   5.554   8.070  1.3929 -0.6545  1.4285
  346MOL0     H47696   1.940   5.666   8.063 -2.4225  1.4997  0.0565
  346MOL0     H47697   1.731   5.424   7.870 -0.8113  1.2009  1.2218
  346MOL0     H47698   1.877   5.386   7.501 -1.5101  1.5677  0.6514
  346MOL0     H47699   1.722   5.370   7.597 -0.0171  0.2387  1.7943
  346MOL0     H47700   1.964   5.196   7.636 -0.6965  0.3594  3.4241
  346MOL0     H47701   1.798   5.168   7.701 -2.9125 -2.0454 -2.2506
  346MOL0     H47702   1.877   5.159   7.407  1.0814 -1.1472  0.2245
  346MOL0     H47703   1.872   5.018   7.494 -0.8024 -1.5651 -1.1084
  346MOL0     H47704   1.654   5.216   7.422  1.4988 -0.6145 -0.5889
  346MOL0     H47705   1.658   5.059   7.355 -1.7992 -0.7890  0.4309
  346MOL0     H47706   1.442   4.894   7.665  1.6052  2.2662  0.6359
  346MOL0     H47707   1.180   4.718   7.566 -0.2812 -0.8827  1.1983
  346MOL0     H47708   1.106   4.854   7.667  1.4736  2.0122 -0.5990
  346MOL0     H47709   1.249   4.776   7.725 -0.7010  0.5279  0.7845
  346MOL0     H47710   0.881   5.137   7.107 -1.3272  1.7865  0.0534
  346MOL0     H47711   0.670   5.058   7.031 -1.3175  2.0591 -0.1477
  346MOL0     H47712   0.421   5.110   7.076 -0.3136 -0.9946 -1.4047
  346MOL0     H47713   0.396   4.950   6.999  2.3923 -4.9992  2.4179
  346MOL0     H47714   0.213   4.898   7.153 -0.6574 -0.2572 -1.4707
  346MOL0     H47715   0.236   5.060   7.228 -1.4090  0.9945 -0.8822
  346MOL0     H47716   0.190   5.169   7.002 -1.8171  0.5281  0.2144
  346MOL0     H47717   0.058   5.068   7.085 -0.7598  0.8782  0.0277
  346MOL0     H47718   0.116   4.882   6.926 -0.3559  0.0778  0.7602
  346MOL0     H47719   0.247   4.980   6.850 -0.5684 -3.2375 -0.5399
  346MOL0     H47720   0.058   4.990   6.683  0.2859  0.9856 -0.3513
  346MOL0     H47721  -0.058   4.990   6.819 -1.2178  1.9013  1.1244
  346MOL0     H47722   0.124   5.220   6.766 -0.2457  1.2660  3.6417
  346MOL0     H47723  -0.011   5.196   6.881 -1.3143 -0.5058 -0.0462
  346MOL0     H47724  -0.170   5.206   6.727  2.0273 -1.5140 -0.2032
  346MOL0     H47725  -0.078   5.185   6.581 -0.1693 -0.9403  0.6401
  346MOL0     H47726  -0.138   5.424   6.614 -1.1342 -2.4922  0.1669
  346MOL0     H47727   0.043   5.392   6.604 -1.5346  1.4063 -2.2068
  346MOL0     H47728   0.574   4.899   7.423 -2.1173  0.9435  0.7188
  346MOL0     H47729   0.808   4.949   7.488 -0.7335  1.8146  1.9878
  346MOL0     H47730   1.227   5.169   7.314 -0.7967 -1.8250 -0.6466
  346MOL0     H47731   1.453   5.197   7.360 -1.1780 -1.3215 -2.8323
  346MOL0     H47732   2.024   4.959   8.669  0.1694  1.7169 -0.0632
  346MOL0     H47733   2.267   4.925   8.693  1.0183  0.4668  0.7853
  346MOL0     H47734   2.701   4.869   8.666 -1.7798 -0.1830 -0.5602
  346MOL0     H47735   2.940   4.858   8.704 -3.2415 -0.2544 -2.4379
  346MOL0     H47736   3.159   4.769   8.809 -2.4705 -0.3784 -0.4865
  346MOL0     H47737   3.140   4.940   8.793 -0.2967 -0.3415  0.3373
  346MOL0     H47738   3.309   4.773   8.999  4.0171  1.7968  3.9454
  346MOL0     H47739   3.308   4.952   8.999  0.7946  0.3356 -0.3282
  346MOL0     H47740   3.387   4.774   8.755 -0.8741  0.1039  1.6732
  346MOL0     H47741   3.421   4.947   8.785  1.4021  1.4309  1.5384
  346MOL0     H47742   3.567   4.901   8.972 -1.9494 -0.2100  0.9155
  346MOL0     H47743   3.631   4.825   8.829 -0.1941  0.1100  0.5611
  346MOL0     H47744   3.568   4.504   9.098  0.6344  3.4862  5.8041
  346MOL0     H47745   2.884   4.877   9.125  0.9565  0.2028  0.0000
  346MOL0     H47746   2.562   4.810   9.165 -2.1052  0.8412  0.5103
  346MOL0     H47747   2.687   4.911   9.229 -3.2601  1.0403  2.0879
  346MOL0     H47748   2.543   4.979   9.143 -1.1835 -1.4312  3.2041
  347MOL0     O47749  10.657   2.806   1.355 -1.1260 -0.4286  0.5791
  347MOL0     C47750  10.651   2.875   1.254 -0.4459  0.6372 -0.0236
  347MOL0     O47751  10.749   2.894   1.158 -0.4911 -0.5691 -0.0527
  347MOL0     C47752  10.854   2.812   1.150  0.2620 -0.7057 -0.3647
  347MOL0     C47753  10.875   2.721   1.038  0.1933  0.0003  0.3193
  347MOL0     C47754  10.993   2.638   1.037 -0.2773 -0.9065 -0.8474
  347MOL0     C47755  11.096   2.656   1.139 -0.1949 -0.3225 -0.5668
  347MOL0     O47756  11.214   2.598   1.130 -0.4911 -0.0322 -0.7407
  347MOL0     C47757  11.308   2.672   1.049 -0.5304 -1.0602 -0.0622
  347MOL0     C47758  11.411   2.571   1.000 -0.3671 -0.0300 -1.1865
  347MOL0     C47759  11.503   2.630   0.895  0.3532  0.2586 -0.3627
  347MOL0     C47760  11.596   2.533   0.817  0.1643 -0.4092 -0.5228
  347MOL0     C47761  11.673   2.605   0.703 -0.0915 -0.2203 -0.3988
  347MOL0     C47762  11.743   2.736   0.741  0.2246  0.2636  0.0692
  347MOL0     C47763  11.808   2.803   0.626 -0.0030  0.1562  0.1641
  347MOL0     C47764  11.858   2.941   0.662 -0.1919  0.0514  0.1955
  347MOL0     N47765  11.995   2.946   0.716 -0.6563  0.2822 -0.0973
  347MOL0     C47766  12.051   3.031   0.810  0.3712 -0.3217  0.4388
  347MOL0     C47767  12.185   3.006   0.820  0.2726  0.4812  0.0208
  347MOL0     C47768  12.294   3.064   0.910  0.8911  0.0896 -0.0461
  347MOL0     C47769  12.367   3.176   0.834 -0.7775 -0.2134 -0.1578
  347MOL0     C47770  12.279   3.304   0.840 -0.5258 -0.6288 -0.3712
  347MOL0     C47771  12.368   3.428   0.795  0.6839 -0.7658 -0.4040
  347MOL0     O47772  12.503   3.423   0.855  0.2326 -0.7169  0.5211
  347MOL0     C47773  12.521   3.458   0.983  0.1679 -0.4434 -0.2383
  347MOL0     C47774  12.431   3.536   1.067  0.4080 -0.3003 -0.0361
  347MOL0     C47775  12.462   3.575   1.197 -0.7089 -0.9331  0.2197
  347MOL0     C47776  12.360   3.662   1.266  0.3412 -0.0187 -0.6678
  347MOL0     C47777  12.591   3.540   1.246 -0.8496 -0.4725  0.0783
  347MOL0     C47778  12.632   3.565   1.379  0.8007 -0.1978 -1.6169
  347MOL0     O47779  12.539   3.590   1.478 -0.7762 -0.7252  0.6940
  347MOL0     C47780  12.586   3.605   1.604  0.4024 -0.4123 -0.5145
  347MOL0     C47781  12.665   3.510   1.670 -0.9324  0.5355  0.9864
  347MOL0     C47782  12.709   3.536   1.799 -0.0154  0.3923 -0.0294
  347MOL0     C47783  12.669   3.650   1.864  0.4005 -0.0869 -0.1178
  347MOL0     O47784  12.711   3.686   1.988  0.3599  1.0194 -0.2136
  347MOL0     C47785  12.755   3.584   2.075 -0.7908  0.3062  0.6202
  347MOL0     C47786  12.649   3.481   2.130  0.2916 -0.3317  0.2324
  347MOL0     C47787  12.537   3.553   2.201  0.3803  0.4766 -0.1525
  347MOL0     C47788  12.395   3.517   2.157 -0.7935  0.2786 -0.2242
  347MOL0     C47789  12.353   3.574   2.020 -0.0870  0.0719  0.3291
  347MOL0     C47790  12.231   3.519   1.947  0.5567 -0.2385 -0.7358
  347MOL0     C47791  12.222   3.574   1.803 -0.1510  0.5176 -0.3385
  347MOL0     C47792  12.075   3.563   1.747  0.3600 -0.7127 -0.0917
  347MOL0    Cl47793  12.061   3.610   1.565 -0.1613  0.5148  0.0147
  347MOL0     C47794  12.589   3.740   1.802 -0.5602  0.4801 -0.5549
  347MOL0     C47795  12.551   3.717   1.668  0.6537  0.4815  0.1307
  347MOL0     O47796  12.751   3.572   1.395 -0.0366 -0.5899 -0.2953
  347MOL0     C47797  12.684   3.469   1.162  0.9985  0.3709  0.7021
  347MOL0     C47798  12.642   3.425   1.037 -0.6110 -0.3757  0.6857
  347MOL0     N47799  12.208   2.892   0.742 -0.1036 -0.0236  0.4168
  347MOL0     N47800  12.098   2.861   0.679  0.9473 -0.5216  0.0581
  347MOL0     C47801  11.072   2.753   1.239  0.1360  1.1516  0.7535
  347MOL0     C47802  10.948   2.831   1.255 -0.2765  0.1869  0.4129
  347MOL0     C47803  10.524   2.929   1.226 -1.0187 -1.1277  0.6275
  347MOL0     C47804  10.478   2.942   1.090 -0.3384 -0.0315 -1.0198
  347MOL0     C47805  10.349   2.985   1.058 -0.4502 -0.3686 -0.6308
  347MOL0     C47806  10.259   3.011   1.160  0.5390  0.4733 -0.2560
  347MOL0     O47807  10.125   3.041   1.126 -0.6363  0.2906 -0.3542
  347MOL0     C47808  10.038   3.102   1.222 -0.5559 -0.2275 -0.8039
  347MOL0     C47809   9.923   3.193   1.152  0.0124  0.1871  0.4983
  347MOL0     C47810   9.796   3.198   1.243  0.1333 -0.1951  0.5439
  347MOL0     C47811   9.727   3.062   1.277 -0.1293 -0.2706 -0.2484
  347MOL0     C47812   9.670   2.990   1.163 -0.5440 -0.8581 -0.2575
  347MOL0     C47813   9.618   2.942   1.067  0.5829  0.2787  0.1773
  347MOL0     C47814  10.308   3.003   1.296  0.8298 -1.0206  0.0261
  347MOL0     C47815  10.442   2.978   1.326  0.2344  0.1866  0.5257
  347MOL0     C47816  10.486   2.998   1.472  0.2105  0.2927  0.0298
  347MOL0     H47817  10.798   2.719   0.963 -0.0089 -0.3127  0.5331
  347MOL0     H47818  11.009   2.557   0.966 -0.7988 -0.7640 -1.1301
  347MOL0     H47819  11.354   2.751   1.109 -1.0634  0.2555 -1.3449
  347MOL0     H47820  11.253   2.712   0.964 -3.0913  0.3442  2.1155
  347MOL0     H47821  11.470   2.538   1.086 -1.6373 -2.5302 -1.1601
  347MOL0     H47822  11.356   2.480   0.973  1.9313 -2.2068  0.8634
  347MOL0     H47823  11.452   2.692   0.821  2.7839  0.2896 -2.1634
  347MOL0     H47824  11.562   2.693   0.962 -1.9809  0.7731  1.3403
  347MOL0     H47825  11.675   2.492   0.881  0.9675 -0.2871 -1.4202
  347MOL0     H47826  11.539   2.448   0.779 -1.7543 -0.4701  2.2301
  347MOL0     H47827  11.598   2.632   0.628 -1.1684  0.4847  0.9061
  347MOL0     H47828  11.735   2.530   0.652 -1.6103 -0.1874 -2.4324
  347MOL0     H47829  11.671   2.806   0.783 -1.3408 -0.3105 -1.5454
  347MOL0     H47830  11.805   2.699   0.823 -0.8680 -0.4509  0.5802
  347MOL0     H47831  11.728   2.820   0.554 -0.5773 -3.5687 -0.2761
  347MOL0     H47832  11.883   2.735   0.584 -0.0337 -0.4775  1.1067
  347MOL0     H47833  11.859   2.993   0.565  2.5901  1.7836  1.0193
  347MOL0     H47834  11.791   2.998   0.727 -2.0658 -1.6080 -0.2110
  347MOL0     H47835  12.001   3.110   0.865 -1.6945  0.4522 -2.3441
  347MOL0     H47836  12.366   2.984   0.931  0.5244 -0.8909 -2.1543
  347MOL0     H47837  12.241   3.101   0.997 -1.3401  1.9640 -2.0605
  347MOL0     H47838  12.458   3.196   0.891  0.3984 -1.3474 -1.5750
  347MOL0     H47839  12.381   3.152   0.728  0.1774  1.9268 -0.5533
  347MOL0     H47840  12.197   3.300   0.767  2.1644  0.8228 -3.7638
  347MOL0     H47841  12.249   3.332   0.941  1.7583  2.0040 -0.3030
  347MOL0     H47842  12.395   3.423   0.689 -0.6252 -0.5039 -0.7658
  347MOL0     H47843  12.304   3.514   0.816 -2.0074 -2.8165  0.4491
  347MOL0     H47844  12.336   3.563   1.023  0.4692  0.4213  0.2753
  347MOL0     H47845  12.323   3.733   1.191  3.0608  0.2419 -1.8755
  347MOL0     H47846  12.402   3.725   1.346 -0.5717 -0.1497 -0.0714
  347MOL0     H47847  12.282   3.599   1.309  1.2512  0.0623  1.1977
  347MOL0     H47848  12.712   3.424   1.624 -0.1329  1.0095  0.8988
  347MOL0     H47849  12.780   3.468   1.844 -1.6315 -1.0407  0.4628
  347MOL0     H47850  12.844   3.535   2.034  1.3362  2.8243  1.9361
  347MOL0     H47851  12.803   3.639   2.157  1.1597 -1.8298  0.9975
  347MOL0     H47852  12.611   3.426   2.044  2.1726 -0.6283 -0.4620
  347MOL0     H47853  12.697   3.403   2.190  0.8205 -1.2607 -1.3366
  347MOL0     H47854  12.545   3.661   2.185 -2.2651  0.7438 -0.0820
  347MOL0     H47855  12.547   3.521   2.305  4.0694  1.5589 -0.0280
  347MOL0     H47856  12.328   3.554   2.235 -0.1113 -0.2913  0.6516
  347MOL0     H47857  12.393   3.407   2.152 -0.5661 -0.1650  4.5237
  347MOL0     H47858  12.338   3.682   2.028  3.1274  0.4831  2.2294
  347MOL0     H47859  12.439   3.550   1.957 -0.3417  0.7840 -0.2993
  347MOL0     H47860  12.154   3.551   2.017  1.5860  0.5373  0.0721
  347MOL0     H47861  12.244   3.410   1.939 -0.2483 -0.3954 -0.0488
  347MOL0     H47862  12.308   3.535   1.747  0.1561  5.1249 -3.6775
  347MOL0     H47863  12.241   3.681   1.819 -1.1067  0.8896 -1.5234
  347MOL0     H47864  12.010   3.625   1.809 -2.6740 -3.0712 -0.6356
  347MOL0     H47865  12.033   3.463   1.763 -0.4379 -0.4805 -0.6497
  347MOL0     H47866  12.562   3.833   1.850  0.8801  0.4673  0.3251
  347MOL0     H47867  12.484   3.785   1.616  2.4987  3.2682  1.1936
  347MOL0     H47868  12.782   3.429   1.185  0.5840 -0.7091  0.6453
  347MOL0     H47869  12.704   3.354   0.985  2.0251 -0.0018  3.1011
  347MOL0     H47870  11.150   2.766   1.313  1.3939  2.5874 -0.7383
  347MOL0     H47871  10.933   2.890   1.345 -0.3142 -1.1349  1.2991
  347MOL0     H47872  10.534   2.913   1.001 -0.5539 -1.2740 -0.7622
  347MOL0     H47873  10.317   2.986   0.954 -0.6290 -1.8626 -0.6127
  347MOL0     H47874   9.998   3.024   1.287  2.0929 -1.1750 -0.1985
  347MOL0     H47875  10.099   3.164   1.287  1.0740  0.8264 -3.1973
  347MOL0     H47876   9.885   3.146   1.061 -0.9486  0.6187  0.6577
  347MOL0     H47877   9.952   3.297   1.134 -1.3516  0.4817 -0.1470
  347MOL0     H47878   9.821   3.248   1.337 -1.6106  1.9466 -0.0576
  347MOL0     H47879   9.731   3.268   1.190  1.6200  2.2138  1.7215
  347MOL0     H47880   9.655   3.107   1.346 -0.1115  2.1502 -1.6741
  347MOL0     H47881   9.794   3.000   1.337  0.9351 -0.6343 -1.7553
  347MOL0     H47882   9.556   2.906   0.988 -2.0673  1.0669  1.7738
  347MOL0     H47883  10.241   3.030   1.377 -0.3953  1.9137 -1.8057
  347MOL0     H47884  10.495   2.898   1.514 -0.3885  0.5189  0.7306
  347MOL0     H47885  10.581   3.050   1.486  0.2652  0.1311  0.2550
  347MOL0     H47886  10.403   3.047   1.524 -1.8651 -2.6740 -0.2898
  348MOL0     O47887  10.700   2.108   6.529  0.0098  0.0855 -0.2894
  348MOL0     C47888  10.692   1.984   6.531 -0.1297  1.0965  1.0160
  348MOL0     O47889  10.791   1.891   6.486  0.3163  0.5394 -0.3456
  348MOL0     C47890  10.906   1.947   6.433  0.6117  0.3243 -0.3998
  348MOL0     C47891  11.014   1.997   6.507 -0.0977  0.1571  0.9893
  348MOL0     C47892  11.124   2.046   6.438 -0.0164 -0.8826 -0.0961
  348MOL0     C47893  11.129   2.050   6.300  0.5889  0.0896  0.0563
  348MOL0     O47894  11.233   2.090   6.220  0.2478 -0.0918  0.3785
  348MOL0     C47895  11.362   2.100   6.275  0.2445 -0.2762 -0.2453
  348MOL0     C47896  11.452   2.182   6.182  0.4774  0.2237  0.0924
  348MOL0     C47897  11.591   2.205   6.241 -1.1065  0.0504 -1.2406
  348MOL0     C47898  11.673   2.077   6.248  0.5929  0.6511 -0.5502
  348MOL0     C47899  11.798   2.089   6.329 -0.1810  0.1673 -0.0519
  348MOL0     C47900  11.909   2.149   6.248  0.3545 -0.0108  0.5219
  348MOL0     C47901  12.031   2.166   6.334 -0.5717 -0.4725  0.1099
  348MOL0     C47902  12.005   2.226   6.476 -1.0369 -0.1682 -0.3494
  348MOL0     N47903  12.131   2.273   6.537  0.4731 -0.5430  0.5994
  348MOL0     C47904  12.224   2.186   6.586 -0.6191 -0.1943 -0.4669
  348MOL0     C47905  12.331   2.268   6.626  1.0563  0.6101  0.2678
  348MOL0     C47906  12.471   2.220   6.673  0.5398  0.1951 -0.3975
  348MOL0     C47907  12.483   2.270   6.824 -0.3362  0.0333  0.2794
  348MOL0     C47908  12.351   2.233   6.905 -1.2884 -0.6422 -0.9458
  348MOL0     C47909  12.359   2.265   7.058  0.3110 -0.0435  0.4019
  348MOL0     O47910  12.421   2.152   7.125 -0.4777 -0.3356  0.4284
  348MOL0     C47911  12.560   2.157   7.154 -0.4019  0.7407 -0.0766
  348MOL0     C47912  12.647   2.263   7.181  0.4454 -0.5864  0.0510
  348MOL0     C47913  12.785   2.245   7.212  0.4645 -0.3380  0.5977
  348MOL0     C47914  12.858   2.371   7.232 -0.2502  0.1146 -0.0705
  348MOL0     C47915  12.837   2.118   7.231 -0.8112 -0.0260 -0.1768
  348MOL0     C47916  12.981   2.092   7.253 -0.3804 -0.1584 -0.0551
  348MOL0     O47917  13.013   1.958   7.246 -0.4725  0.0888 -0.2446
  348MOL0     C47918  13.141   1.922   7.244 -0.4019  0.2200  0.4673
  348MOL0     C47919  13.191   1.860   7.128  0.4907 -0.2477  0.3399
  348MOL0     C47920  13.318   1.802   7.137 -0.0539  0.2604 -1.1769
  348MOL0     C47921  13.406   1.818   7.252 -0.1416 -0.8658 -0.7210
  348MOL0     O47922  13.525   1.758   7.271  0.2680  0.3252  0.3028
  348MOL0     C47923  13.601   1.740   7.151 -1.0186 -0.1318  0.1429
  348MOL0     C47924  13.739   1.683   7.192  0.8919  0.1540  0.7952
  348MOL0     C47925  13.843   1.791   7.240 -0.5163 -0.1694 -0.5796
  348MOL0     C47926  13.909   1.890   7.141 -0.6032 -0.6907  0.0376
  348MOL0     C47927  13.962   1.820   7.013 -0.2382  0.6206  0.0981
  348MOL0     C47928  14.065   1.708   7.050 -0.1132  0.0472  1.0804
  348MOL0     C47929  14.069   1.615   6.925 -0.3523  0.2876 -0.0826
  348MOL0     C47930  14.125   1.480   6.944 -0.4463  0.2563 -0.3512
  348MOL0    Cl47931  14.289   1.482   7.007  0.2817 -0.1640 -0.2363
  348MOL0     C47932  13.357   1.897   7.355  0.2399 -0.6386  0.1501
  348MOL0     C47933  13.223   1.948   7.356  0.4834  0.1032  0.0090
  348MOL0     O47934  13.064   2.178   7.272 -0.4553 -0.4582 -0.5415
  348MOL0     C47935  12.747   2.014   7.206 -0.0694  0.3688  0.4422
  348MOL0     C47936  12.615   2.034   7.173 -0.6926  0.4582 -0.1107
  348MOL0     N47937  12.289   2.400   6.591 -0.2386 -0.1275 -0.7210
  348MOL0     N47938  12.173   2.395   6.547 -0.1141  0.1253  0.2572
  348MOL0     C47939  11.028   1.985   6.227  0.0653 -0.3283  0.3794
  348MOL0     C47940  10.909   1.943   6.289 -0.8092 -0.6136 -0.9467
  348MOL0     C47941  10.565   1.931   6.577  0.1100 -0.9081 -0.7892
  348MOL0     C47942  10.518   1.807   6.530 -0.3298  0.2404  0.4945
  348MOL0     C47943  10.404   1.750   6.574  0.3027  0.5201  0.6709
  348MOL0     C47944  10.321   1.817   6.663  0.6762  0.4439  0.4906
  348MOL0     O47945  10.208   1.747   6.695 -0.8134  0.4232 -0.2527
  348MOL0     C47946  10.119   1.738   6.589 -0.4537 -0.3384 -0.3278
  348MOL0     C47947   9.989   1.812   6.634  0.0387 -0.3634  0.4800
  348MOL0     C47948   9.878   1.794   6.529 -0.4428 -0.0290  0.1094
  348MOL0     C47949   9.751   1.880   6.561 -0.6124  0.8542 -1.0373
  348MOL0     C47950   9.669   1.817   6.667 -0.4217  0.2680  0.3659
  348MOL0     C47951   9.595   1.780   6.755  0.3128  0.3981 -0.1288
  348MOL0     C47952  10.352   1.940   6.706 -0.5287 -0.0436 -0.4970
  348MOL0     C47953  10.481   1.997   6.667  0.7082 -0.1979  0.0972
  348MOL0     C47954  10.497   2.131   6.728  0.7884  0.4329  0.0086
  348MOL0     H47955  11.026   1.992   6.615 -2.5039 -0.2312  1.2908
  348MOL0     H47956  11.201   2.091   6.500 -1.0085  3.3478 -1.5826
  348MOL0     H47957  11.404   2.000   6.290 -2.3457 -1.2837  0.8476
  348MOL0     H47958  11.344   2.162   6.363  0.5975 -1.1846  0.4747
  348MOL0     H47959  11.472   2.128   6.089 -1.8073  0.3019 -0.4964
  348MOL0     H47960  11.411   2.281   6.157  0.5947  0.7311  1.7837
  348MOL0     H47961  11.647   2.287   6.196 -2.5605  4.6225  4.2026
  348MOL0     H47962  11.573   2.245   6.341  3.3618  2.8748 -1.2971
  348MOL0     H47963  11.604   2.001   6.286  1.8462  0.1855  0.9014
  348MOL0     H47964  11.699   2.040   6.148  1.0303 -0.6767  0.0294
  348MOL0     H47965  11.840   1.992   6.356 -1.8900  0.0164  2.3146
  348MOL0     H47966  11.767   2.132   6.424 -2.7026 -3.2929  0.8858
  348MOL0     H47967  11.936   2.093   6.158  0.8060  1.3715 -0.2450
  348MOL0     H47968  11.884   2.246   6.205 -0.2965 -0.6861 -0.6698
  348MOL0     H47969  12.103   2.230   6.282 -0.8202 -1.4254 -1.4776
  348MOL0     H47970  12.068   2.064   6.351  1.1730  0.3361  1.4855
  348MOL0     H47971  11.937   2.311   6.466 -1.7264 -0.3759  1.8819
  348MOL0     H47972  11.960   2.145   6.535 -2.5096 -1.4099 -2.9945
  348MOL0     H47973  12.218   2.078   6.594  0.7916 -0.2755 -0.2691
  348MOL0     H47974  12.550   2.267   6.614 -0.2233  1.4931 -0.4276
  348MOL0     H47975  12.475   2.111   6.663 -3.5038 -0.1125 -0.2907
  348MOL0     H47976  12.562   2.210   6.868  1.9181 -0.0957 -3.4815
  348MOL0     H47977  12.511   2.375   6.833  0.3863 -0.3049  2.5149
  348MOL0     H47978  12.258   2.284   6.877  0.0773  2.5000 -0.2311
  348MOL0     H47979  12.331   2.126   6.895  0.0117 -1.7635  4.7467
  348MOL0     H47980  12.420   2.354   7.072  1.1878 -0.7859  1.4297
  348MOL0     H47981  12.260   2.277   7.103  0.7355  0.6798  1.1566
  348MOL0     H47982  12.604   2.363   7.180  0.1946 -0.6922  0.2644
  348MOL0     H47983  12.888   2.371   7.337  0.3255 -1.9244 -0.1988
  348MOL0     H47984  12.793   2.457   7.212 -1.7433 -0.3739  2.3235
  348MOL0     H47985  12.943   2.380   7.163  1.5942  0.0042  2.0788
  348MOL0     H47986  13.145   1.841   7.031  0.2912  0.7517  0.2269
  348MOL0     H47987  13.366   1.758   7.050  0.4222  0.7936 -1.1830
  348MOL0     H47988  13.560   1.664   7.084  1.8778 -1.4904 -0.2326
  348MOL0     H47989  13.611   1.838   7.103 -1.2452 -1.8120 -3.7537
  348MOL0     H47990  13.727   1.610   7.272  1.6342 -0.2752  0.5212
  348MOL0     H47991  13.778   1.623   7.110 -0.5531 -0.8203  0.7991
  348MOL0     H47992  13.921   1.729   7.284 -2.6189 -1.9274  0.9169
  348MOL0     H47993  13.796   1.846   7.322 -0.8120 -0.0860 -0.8019
  348MOL0     H47994  13.980   1.957   7.188 -0.7254  0.5007 -1.4030
  348MOL0     H47995  13.827   1.954   7.107 -2.3966 -2.4515  0.8535
  348MOL0     H47996  13.884   1.764   6.960  1.4194 -1.8051  0.0394
  348MOL0     H47997  13.999   1.891   6.940 -0.3381 -1.1192 -1.7259
  348MOL0     H47998  14.038   1.643   7.134 -1.2330 -0.8169  0.0868
  348MOL0     H47999  14.164   1.748   7.075 -1.3635  3.0557  1.5684
  348MOL0     H48000  14.124   1.662   6.843 -1.0932 -0.5942 -1.1129
  348MOL0     H48001  13.970   1.592   6.887 -0.4379 -0.6007  0.6335
  348MOL0     H48002  14.110   1.421   6.853 -0.8600  1.6209 -1.1949
  348MOL0     H48003  14.064   1.426   7.017  1.7396  1.6580  2.7007
  348MOL0     H48004  13.426   1.924   7.435  2.1979 -2.2059 -0.9171
  348MOL0     H48005  13.180   1.993   7.445  0.9721 -0.1156  0.3561
  348MOL0     H48006  12.781   1.912   7.191  1.7977  1.1405 -0.9381
  348MOL0     H48007  12.561   1.941   7.160 -2.0248  1.0874  0.7366
  348MOL0     H48008  11.041   1.984   6.119  1.8052 -3.8538  0.4784
  348MOL0     H48009  10.828   1.908   6.226 -1.6513  1.7022 -1.2421
  348MOL0     H48010  10.580   1.758   6.455 -1.0508 -1.5345  0.9912
  348MOL0     H48011  10.370   1.656   6.531  0.9636 -0.7956  2.8423
  348MOL0     H48012  10.149   1.796   6.502  0.5279 -0.9771 -0.4293
  348MOL0     H48013  10.098   1.634   6.563 -3.0596 -0.2160  0.8936
  348MOL0     H48014  10.017   1.917   6.645  5.4540 -1.4443 -0.0948
  348MOL0     H48015   9.952   1.779   6.732 -0.3518  0.4044  0.5998
  348MOL0     H48016   9.920   1.835   6.437  3.2827  1.1005  2.0889
  348MOL0     H48017   9.850   1.689   6.515 -0.6962  0.1045 -0.4166
  348MOL0     H48018   9.691   1.911   6.475 -2.0284  0.4687 -0.2248
  348MOL0     H48019   9.795   1.975   6.596 -0.5989  1.4906 -2.7191
  348MOL0     H48020   9.524   1.748   6.829 -0.8073 -1.8528 -2.0423
  348MOL0     H48021  10.272   1.984   6.765 -2.7814 -0.9306 -2.6999
  348MOL0     H48022  10.498   2.201   6.644  0.5550 -0.2565 -0.5841
  348MOL0     H48023  10.412   2.169   6.786 -1.3877 -1.3562 -1.8215
  348MOL0     H48024  10.595   2.134   6.776  0.8478  3.0490 -0.1544
  349MOL0     O48025   7.814   3.567  10.233  0.4988  0.1396 -0.1046
  349MOL0     C48026   7.696   3.597  10.258 -0.0194  0.5111 -0.1512
  349MOL0     O48027   7.642   3.601  10.382  0.6704 -0.1173  0.7824
  349MOL0     C48028   7.723   3.611  10.487  0.8519  0.1404 -0.2026
  349MOL0     C48029   7.705   3.519  10.589  0.8850  0.3689  0.5519
  349MOL0     C48030   7.784   3.530  10.700 -0.3841 -0.4978 -0.0086
  349MOL0     C48031   7.888   3.628  10.711 -0.5111  0.2888  0.2446
  349MOL0     O48032   7.960   3.623  10.828  0.5432 -0.1139 -0.6547
  349MOL0     C48033   8.048   3.728  10.846 -0.3014 -0.6212 -0.2951
  349MOL0     C48034   8.126   3.700  10.981  0.1770 -0.7242  0.3080
  349MOL0     C48035   8.257   3.783  10.984 -0.5876 -0.0280 -0.2443
  349MOL0     C48036   8.335   3.754  11.121 -0.0586 -0.8894 -0.1258
  349MOL0     C48037   8.470   3.818  11.133 -0.2409 -0.5146  0.6640
  349MOL0     C48038   8.569   3.710  11.097 -0.3693  0.0428  0.3365
  349MOL0     C48039   8.707   3.778  11.059  0.8939  0.6344  0.3606
  349MOL0     C48040   8.824   3.683  11.033  0.5085  0.2982 -0.0564
  349MOL0     N48041   8.792   3.588  10.922 -0.3410 -0.3418 -0.6742
  349MOL0     C48042   8.749   3.463  10.936  0.9037  0.1123  0.3311
  349MOL0     C48043   8.721   3.416  10.815  0.6167  0.7160  0.0073
  349MOL0     C48044   8.671   3.268  10.807 -0.3309 -0.1436  0.3844
  349MOL0     C48045   8.693   3.219  10.671 -0.6471  0.6418  0.6832
  349MOL0     C48046   8.631   3.082  10.642  0.8729  0.3173  0.7133
  349MOL0     C48047   8.479   3.067  10.639  0.5819 -0.3527 -0.4753
  349MOL0     O48048   8.440   2.939  10.590  0.3359 -0.5843  0.2968
  349MOL0     C48049   8.307   2.918  10.558 -0.4382 -0.4598 -1.0322
  349MOL0     C48050   8.264   2.800  10.490  0.2382  0.1820 -0.4421
  349MOL0     C48051   8.134   2.771  10.456  0.3330 -0.1280  0.9443
  349MOL0     C48052   8.112   2.659  10.361  0.3941 -0.4665  0.3528
  349MOL0     C48053   8.039   2.857  10.512 -0.2839 -1.0282  0.6853
  349MOL0     C48054   7.903   2.837  10.484 -0.2761 -0.3364  0.1497
  349MOL0     O48055   7.820   2.759  10.568 -0.3255  0.3055 -0.5012
  349MOL0     C48056   7.695   2.716  10.518  0.6326 -0.1200  0.0511
  349MOL0     C48057   7.683   2.655  10.396 -0.5859 -1.0317  0.1028
  349MOL0     C48058   7.557   2.638  10.337  0.1102 -0.3724  0.1657
  349MOL0     C48059   7.439   2.692  10.392 -0.0991 -1.4842 -0.7592
  349MOL0     O48060   7.322   2.675  10.326  0.0504  0.6596  0.0182
  349MOL0     C48061   7.211   2.620  10.401 -0.3279 -0.0837 -0.9184
  349MOL0     C48062   7.076   2.632  10.337 -0.0620  0.2757 -0.9156
  349MOL0     C48063   6.966   2.563  10.425  0.6251 -0.4923 -0.4156
  349MOL0     C48064   6.852   2.506  10.337 -0.4193 -0.5070 -1.4870
  349MOL0     C48065   6.733   2.458  10.424 -0.3624  0.0056  0.6636
  349MOL0     C48066   6.610   2.423  10.328 -0.1731 -0.1765 -0.3358
  349MOL0     C48067   6.518   2.320  10.410  0.9243 -0.2033  0.5448
  349MOL0     C48068   6.451   2.214  10.326  0.3547  0.2001 -0.0871
  349MOL0    Cl48069   6.341   2.298  10.208 -0.2689 -0.1383  0.1676
  349MOL0     C48070   7.448   2.741  10.526  0.1040  0.2661 -0.1649
  349MOL0     C48071   7.576   2.750  10.581  0.2578  0.2945 -0.2953
  349MOL0     O48072   7.871   2.884  10.371 -0.1379  0.0897 -0.1566
  349MOL0     C48073   8.073   2.970  10.591 -0.3345  0.8042  0.2548
  349MOL0     C48074   8.205   2.994  10.617 -0.3577  0.1887 -0.4264
  349MOL0     N48075   8.743   3.510  10.721 -0.6530 -0.2821  0.5227
  349MOL0     N48076   8.794   3.612  10.781  0.0697  0.3030  0.0708
  349MOL0     C48077   7.908   3.712  10.602  0.0366 -0.2305  0.4860
  349MOL0     C48078   7.823   3.704  10.491 -0.8002 -0.7479  0.2608
  349MOL0     C48079   7.602   3.621  10.136  0.3202 -0.1650  0.0054
  349MOL0     C48080   7.462   3.606  10.165  0.0379  0.6440  0.4513
  349MOL0     C48081   7.365   3.629  10.063 -0.0229  0.1459 -0.2789
  349MOL0     C48082   7.407   3.649   9.923  0.0657  0.2241  0.2725
  349MOL0     O48083   7.315   3.661   9.815 -0.4467  0.2045 -0.0657
  349MOL0     C48084   7.173   3.650   9.828 -1.0260 -0.1218  0.3398
  349MOL0     C48085   7.118   3.664   9.680 -0.2125  0.9662 -0.2231
  349MOL0     C48086   6.972   3.627   9.687  0.3765  0.6237 -0.0883
  349MOL0     C48087   6.885   3.701   9.787  0.3333  0.4645 -0.0802
  349MOL0     C48088   6.754   3.742   9.741  0.5984 -0.4810 -0.9882
  349MOL0     C48089   6.645   3.771   9.695 -0.2411  0.1558 -0.0284
  349MOL0     C48090   7.547   3.654   9.896  0.6250  0.6787  1.7079
  349MOL0     C48091   7.641   3.642   9.997  0.0822  0.0247 -0.6171
  349MOL0     C48092   7.784   3.660   9.957 -0.0557 -0.3370 -0.4248
  349MOL0     H48093   7.623   3.449  10.575  1.2976  0.1680 -1.0382
  349MOL0     H48094   7.759   3.461  10.780 -1.6043  1.3008  1.2335
  349MOL0     H48095   8.003   3.828  10.844  1.8011  0.4231  0.7529
  349MOL0     H48096   8.128   3.732  10.772 -2.7255  1.7578 -3.0739
  349MOL0     H48097   8.073   3.739  11.068  0.2895  0.8329 -0.2944
  349MOL0     H48098   8.155   3.595  10.990  1.8669 -0.2852  0.3409
  349MOL0     H48099   8.322   3.775  10.896  0.9004  2.1246  0.5954
  349MOL0     H48100   8.235   3.890  10.986  0.3415  0.1963  2.9850
  349MOL0     H48101   8.273   3.797  11.199 -0.1778  1.5236 -1.4562
  349MOL0     H48102   8.333   3.645  11.136 -4.6078 -1.0245 -0.4642
  349MOL0     H48103   8.479   3.852  11.236 -0.4792 -0.9268  0.8231
  349MOL0     H48104   8.474   3.909  11.072 -0.2127 -0.1431  1.2169
  349MOL0     H48105   8.590   3.628  11.167  0.4740 -1.3565 -1.4640
  349MOL0     H48106   8.526   3.658  11.011  1.1989  0.2983 -0.6527
  349MOL0     H48107   8.724   3.853  11.137  1.6228 -1.7534  2.6499
  349MOL0     H48108   8.695   3.842  10.972  3.3608 -0.9491 -1.2741
  349MOL0     H48109   8.919   3.735  11.017  0.4465 -0.0382 -1.6360
  349MOL0     H48110   8.845   3.621  11.121 -1.0059 -0.4177 -0.1770
  349MOL0     H48111   8.740   3.410  11.031 -0.7121  1.1385  0.7958
  349MOL0     H48112   8.569   3.260  10.848 -1.2856  0.6952 -1.7003
  349MOL0     H48113   8.742   3.211  10.867 -0.8988 -1.6194 -0.2975
  349MOL0     H48114   8.641   3.295  10.613 -0.5160  1.1888  1.2611
  349MOL0     H48115   8.800   3.233  10.655 -0.8386  0.5452 -0.7453
  349MOL0     H48116   8.664   3.057  10.542  0.1270  0.3735  0.4433
  349MOL0     H48117   8.657   3.002  10.712  1.1093  0.1055  0.3808
  349MOL0     H48118   8.437   3.086  10.738 -0.3322  5.7582 -1.6225
  349MOL0     H48119   8.436   3.142  10.573  1.4211  0.3621 -0.2305
  349MOL0     H48120   8.347   2.742  10.449 -0.8410 -1.3138 -0.5988
  349MOL0     H48121   8.021   2.603  10.384  0.0337 -0.4385 -0.9129
  349MOL0     H48122   8.205   2.602  10.350  3.0606  3.1973  1.7736
  349MOL0     H48123   8.100   2.712  10.266  2.3685  0.6119  0.6407
  349MOL0     H48124   7.770   2.622  10.340 -0.4692  2.1931 -1.8697
  349MOL0     H48125   7.554   2.596  10.237  1.1260  0.5302 -0.2596
  349MOL0     H48126   7.223   2.511  10.411 -2.4132 -0.3042 -0.3339
  349MOL0     H48127   7.203   2.662  10.502 -1.4681 -3.3398  0.4932
  349MOL0     H48128   7.055   2.739  10.326 -2.7222 -0.1687 -0.7743
  349MOL0     H48129   7.077   2.591  10.236  0.9336  1.0657 -1.2467
  349MOL0     H48130   6.926   2.638  10.494 -2.9406  0.6698 -3.4223
  349MOL0     H48131   7.004   2.473  10.474  0.3698  0.4641  1.6456
  349MOL0     H48132   6.894   2.422  10.280  1.6362 -1.4158  1.1392
  349MOL0     H48133   6.821   2.596  10.283 -0.3132  0.6523  0.3126
  349MOL0     H48134   6.757   2.372  10.487 -2.0971  0.9785  2.8371
  349MOL0     H48135   6.704   2.539  10.492 -0.0513 -0.1059  0.9301
  349MOL0     H48136   6.632   2.384  10.229  0.4112  0.7639 -0.5924
  349MOL0     H48137   6.543   2.504  10.297  0.7807  1.1053  0.8107
  349MOL0     H48138   6.444   2.387  10.454  0.7908  0.9756 -1.3483
  349MOL0     H48139   6.565   2.276  10.498 -2.3336  0.2369  2.6959
  349MOL0     H48140   6.381   2.154  10.385 -4.3240  1.7090 -3.4876
  349MOL0     H48141   6.517   2.146  10.272 -0.9541  1.2345 -3.1896
  349MOL0     H48142   7.369   2.776  10.592 -0.3483 -2.1621  0.6619
  349MOL0     H48143   7.590   2.800  10.676  0.6223 -1.7342  0.7919
  349MOL0     H48144   7.998   3.034  10.635  0.0982  0.4586  1.5646
  349MOL0     H48145   8.219   3.090  10.665  1.0593  0.2495 -0.9151
  349MOL0     H48146   7.990   3.783  10.603  0.0589 -0.1519 -1.5983
  349MOL0     H48147   7.835   3.776  10.410  4.2257 -0.2839  1.0964
  349MOL0     H48148   7.410   3.583  10.257  0.8087 -0.2607  0.6703
  349MOL0     H48149   7.265   3.612  10.101  1.2165  1.2030  4.0577
  349MOL0     H48150   7.155   3.546   9.859  0.9119 -0.7956 -0.6355
  349MOL0     H48151   7.130   3.722   9.898 -1.2236  0.2662 -0.1766
  349MOL0     H48152   7.165   3.590   9.615 -2.9795  0.8971 -2.3425
  349MOL0     H48153   7.134   3.764   9.639 -0.1471  0.5063 -1.3457
  349MOL0     H48154   6.929   3.658   9.592  0.3328  0.2278 -0.2003
  349MOL0     H48155   6.960   3.521   9.713  0.6666  0.3815 -0.9414
  349MOL0     H48156   6.925   3.798   9.814 -0.7895  1.3614 -1.4540
  349MOL0     H48157   6.883   3.635   9.874  0.4869  0.0228 -0.4041
  349MOL0     H48158   6.549   3.796   9.652 -0.1476 -1.1297 -1.0396
  349MOL0     H48159   7.581   3.667   9.794 -3.3159 -0.1775  0.0872
  349MOL0     H48160   7.842   3.700  10.041 -0.6235 -1.6571  0.6453
  349MOL0     H48161   7.827   3.563   9.929 -2.4146 -2.1455  1.7063
  349MOL0     H48162   7.794   3.737   9.880 -0.9926  1.7785  1.4700
  350MOL0     O48163   1.499  11.432  10.053 -0.8671 -0.2844 -0.4245
  350MOL0     C48164   1.448  11.513   9.970 -0.3467  0.4718  0.7703
  350MOL0     O48165   1.491  11.526   9.844 -0.0285 -0.6904  0.2415
  350MOL0     C48166   1.595  11.444   9.793  0.1302 -0.3021  0.2872
  350MOL0     C48167   1.575  11.308   9.790 -0.1263 -0.3818 -0.1593
  350MOL0     C48168   1.660  11.222   9.710  0.2316 -0.2449  0.4230
  350MOL0     C48169   1.779  11.274   9.654  0.1099 -0.9492 -0.4900
  350MOL0     O48170   1.863  11.211   9.574  0.3175  0.1778  0.7793
  350MOL0     C48171   1.857  11.070   9.538  0.4302 -0.8252  0.7669
  350MOL0     C48172   1.990  11.048   9.466 -0.5479  0.1365 -0.3973
  350MOL0     C48173   2.117  11.013   9.550 -0.0160  0.2547 -0.0816
  350MOL0     C48174   2.148  11.116   9.669 -0.3429  0.7755  0.8831
  350MOL0     C48175   2.299  11.130   9.680  0.5370  0.6940 -0.4443
  350MOL0     C48176   2.327  11.215   9.807 -0.0178  0.1707 -0.2133
  350MOL0     C48177   2.459  11.295   9.802 -0.0787  0.4185 -0.2209
  350MOL0     C48178   2.500  11.353   9.936  0.3632  0.2073 -0.0133
  350MOL0     N48179   2.389  11.398  10.013  0.9743 -0.5869 -0.3908
  350MOL0     C48180   2.347  11.534  10.016 -0.3214  0.0641 -0.1669
  350MOL0     C48181   2.237  11.532  10.100 -0.1856 -0.3329 -0.0677
  350MOL0     C48182   2.160  11.654  10.144 -0.4661 -0.0101  0.3219
  350MOL0     C48183   2.078  11.722  10.031 -0.2993  0.3187  0.4440
  350MOL0     C48184   1.955  11.641   9.991  0.0003  0.6445  0.1278
  350MOL0     C48185   1.857  11.635  10.103 -0.0037  0.2377  0.3972
  350MOL0     O48186   1.821  11.767  10.141  0.2995 -0.0371 -0.2114
  350MOL0     C48187   1.708  11.797  10.208 -0.0963  0.1856  0.4048
  350MOL0     C48188   1.613  11.702  10.260  0.1157 -0.5885 -0.4945
  350MOL0     C48189   1.499  11.751  10.323 -0.3401  0.1208 -1.3089
  350MOL0     C48190   1.396  11.652  10.357 -0.9338 -0.1298  0.0930
  350MOL0     C48191   1.486  11.887  10.342  0.0514  0.4502  0.0580
  350MOL0     C48192   1.367  11.929  10.422  0.8651  1.4480 -0.1066
  350MOL0     O48193   1.387  11.990  10.540  0.2952 -0.3034 -0.0108
  350MOL0     C48194   1.294  11.989  10.632 -0.5881  0.1902 -0.1759
  350MOL0     C48195   1.181  12.071  10.614 -0.0662 -0.0004 -1.4782
  350MOL0     C48196   1.064  12.042  10.692 -0.2841 -0.4463  0.5430
  350MOL0     C48197   1.064  11.939  10.781  0.9329  0.4648 -1.1112
  350MOL0     O48198   0.939  11.917  10.829 -0.0832  0.4272  0.5165
  350MOL0     C48199   0.912  11.894  10.971 -1.2202 -0.5340  0.9815
  350MOL0     C48200   0.938  11.755  11.032 -0.0980  0.4414  0.4264
  350MOL0     C48201   0.921  11.636  10.937 -0.0693  0.4446 -0.9951
  350MOL0     C48202   0.923  11.494  10.991 -0.3660 -0.6875  0.8716
  350MOL0     C48203   0.817  11.465  11.092  0.0777 -0.9525 -0.0584
  350MOL0     C48204   0.659  11.483  11.071 -0.7931  0.3417  0.1737
  350MOL0     C48205   0.630  11.429  10.927 -0.0254  0.2784  0.2491
  350MOL0     C48206   0.475  11.433  10.906 -0.4580  0.7302  0.3144
  350MOL0    Cl48207   0.380  11.558  10.995 -0.2652 -0.0990 -0.0104
  350MOL0     C48208   1.179  11.859  10.801 -0.0756  0.5177  0.3516
  350MOL0     C48209   1.294  11.883  10.722 -0.0160  0.2121  0.9750
  350MOL0     O48210   1.257  11.907  10.382  0.6178 -0.3772 -0.3519
  350MOL0     C48211   1.583  11.982  10.296  1.0430  0.7689 -0.0653
  350MOL0     C48212   1.693  11.932  10.226  0.7119 -0.1833 -0.9022
  350MOL0     N48213   2.203  11.405  10.138 -0.5417 -0.1112  0.5216
  350MOL0     N48214   2.295  11.328  10.084 -0.6224  0.1768  0.1035
  350MOL0     C48215   1.800  11.411   9.672 -0.6893 -0.6976 -0.6293
  350MOL0     C48216   1.714  11.501   9.736 -0.2623  0.5611  0.6349
  350MOL0     C48217   1.325  11.583  10.007  0.1559 -0.2655 -0.4028
  350MOL0     C48218   1.297  11.706   9.947 -0.3568 -0.2804 -0.2874
  350MOL0     C48219   1.177  11.773   9.960  0.0229  0.2880  0.3395
  350MOL0     C48220   1.085  11.736  10.059  0.5788  0.7744 -0.4331
  350MOL0     O48221   0.970  11.804  10.090  0.2318 -0.5843  0.0487
  350MOL0     C48222   0.918  11.910  10.015 -0.6651 -0.1012  0.6481
  350MOL0     C48223   0.785  11.955  10.075 -0.3929 -0.3366 -0.3632
  350MOL0     C48224   0.670  11.854  10.077 -0.2651 -0.2866 -0.0576
  350MOL0     C48225   0.641  11.819   9.936 -0.4720  0.4754 -0.7161
  350MOL0     C48226   0.494  11.791   9.923 -0.3800 -0.2103  0.5727
  350MOL0     C48227   0.374  11.752   9.927 -0.1802 -0.4649  0.6805
  350MOL0     C48228   1.117  11.615  10.124  0.3056 -0.4282  0.2612
  350MOL0     C48229   1.225  11.538  10.099 -0.2566  0.5899 -0.6486
  350MOL0     C48230   1.214  11.400  10.159 -0.3683  0.5674  0.2818
  350MOL0     H48231   1.483  11.258   9.818 -1.4039  1.1184 -1.5346
  350MOL0     H48232   1.635  11.117   9.709  2.8957 -0.9480  0.2130
  350MOL0     H48233   1.772  11.055   9.472  1.2866 -0.2503 -0.5017
  350MOL0     H48234   1.855  11.003   9.625 -0.9257 -0.8942  0.7024
  350MOL0     H48235   1.974  10.966   9.395 -2.0748 -0.2312  0.3355
  350MOL0     H48236   2.020  11.123   9.392 -0.4168  0.4971  0.0211
  350MOL0     H48237   2.109  10.918   9.605 -0.7317  0.8024  0.7937
  350MOL0     H48238   2.204  11.011   9.484 -0.2501  2.5265 -0.5368
  350MOL0     H48239   2.095  11.207   9.643 -2.4441 -0.8573 -0.9052
  350MOL0     H48240   2.105  11.083   9.765  0.6766  0.5549  1.2801
  350MOL0     H48241   2.349  11.176   9.594 -0.3058  1.4764 -0.5422
  350MOL0     H48242   2.329  11.026   9.693 -0.2875  0.4658 -0.2629
  350MOL0     H48243   2.241  11.281   9.822 -2.0173 -2.4251  0.4816
  350MOL0     H48244   2.322  11.141   9.888 -2.2731  0.4938  0.0277
  350MOL0     H48245   2.462  11.364   9.718  4.5365  0.0262 -0.6275
  350MOL0     H48246   2.540  11.230   9.767  0.8412  1.5785 -0.3048
  350MOL0     H48247   2.558  11.276   9.988 -0.6034 -1.9930 -2.0112
  350MOL0     H48248   2.569  11.434   9.910  1.1485 -0.1447  0.8701
  350MOL0     H48249   2.391  11.621   9.969 -2.1148  1.2792  0.3282
  350MOL0     H48250   2.240  11.724  10.170 -1.6998  1.5943 -0.0561
  350MOL0     H48251   2.103  11.639  10.236 -2.0728  3.3599  0.0178
  350MOL0     H48252   2.040  11.820  10.060  1.8809  1.4580 -0.3242
  350MOL0     H48253   2.147  11.739   9.948  0.1925 -1.1336  0.5368
  350MOL0     H48254   1.904  11.697   9.912  0.7358  0.4601 -0.4944
  350MOL0     H48255   1.975  11.543   9.947  0.2606  2.0445 -3.1290
  350MOL0     H48256   1.766  11.589  10.064  1.7474 -0.9477 -2.6557
  350MOL0     H48257   1.895  11.573  10.185  0.0599 -1.0111 -0.5492
  350MOL0     H48258   1.632  11.595  10.271  0.9294 -0.2094  3.3654
  350MOL0     H48259   1.447  11.559  10.331  3.4180  2.5114 -1.9609
  350MOL0     H48260   1.306  11.675  10.299 -0.2255 -1.5892 -1.6638
  350MOL0     H48261   1.370  11.663  10.462  0.2858 -0.4808  0.4492
  350MOL0     H48262   1.170  12.152  10.543 -0.1801  3.9419  2.5372
  350MOL0     H48263   0.974  12.100  10.676 -0.0308 -0.5731 -1.5455
  350MOL0     H48264   0.956  11.976  11.029  0.8471 -0.5954 -0.3886
  350MOL0     H48265   0.804  11.900  10.991 -1.2259  0.6084  0.6527
  350MOL0     H48266   1.043  11.754  11.062 -0.1551  1.1416  0.6709
  350MOL0     H48267   0.880  11.735  11.122  0.0215 -3.3200 -0.1914
  350MOL0     H48268   0.998  11.640  10.860  0.1106  0.2172 -0.8313
  350MOL0     H48269   0.824  11.656  10.892 -0.1178  2.0394 -0.2788
  350MOL0     H48270   1.022  11.476  11.034  0.5383 -1.3291 -1.3155
  350MOL0     H48271   0.920  11.425  10.906  0.1400  0.0068  0.2738
  350MOL0     H48272   0.827  11.360  11.123 -2.2320 -1.0338  0.5607
  350MOL0     H48273   0.845  11.526  11.178  2.5233 -1.2708 -0.5408
  350MOL0     H48274   0.636  11.590  11.074 -1.2253  0.2444  0.4350
  350MOL0     H48275   0.603  11.436  11.153  0.0178  1.6823  1.5515
  350MOL0     H48276   0.659  11.323  10.928  0.7242  0.4780  0.4513
  350MOL0     H48277   0.675  11.493  10.850  0.5824 -1.4999 -0.9553
  350MOL0     H48278   0.433  11.336  10.931  2.1736 -1.0714 -1.6177
  350MOL0     H48279   0.461  11.439  10.797 -2.0995 -0.8988  0.3874
  350MOL0     H48280   1.177  11.777  10.873 -3.4726  0.4977  0.4146
  350MOL0     H48281   1.373  11.810  10.735  0.3181  0.3737 -0.0756
  350MOL0     H48282   1.592  12.088  10.317  1.1286  1.4028 -2.8737
  350MOL0     H48283   1.762  12.010  10.196 -1.2395  1.4892 -1.3055
  350MOL0     H48284   1.880  11.456   9.614 -0.1274 -0.6050  0.1900
  350MOL0     H48285   1.740  11.606   9.736 -2.4459  1.1713 -0.6233
  350MOL0     H48286   1.374  11.754   9.887  0.1410 -1.3955 -0.5759
  350MOL0     H48287   1.154  11.865   9.907 -1.9678  0.2803  1.0871
  350MOL0     H48288   0.987  11.995  10.007  1.6452 -1.5859  3.1333
  350MOL0     H48289   0.900  11.885   9.911 -1.5350  0.3274  0.6819
  350MOL0     H48290   0.761  12.045  10.018 -2.1906  0.3518  1.3966
  350MOL0     H48291   0.801  11.987  10.178 -0.0746  2.0523 -1.0958
  350MOL0     H48292   0.702  11.765  10.132 -2.4005 -0.9514  0.1956
  350MOL0     H48293   0.587  11.897  10.133 -0.7741  3.1523 -3.0376
  350MOL0     H48294   0.701  11.735   9.898 -0.3973  0.8275 -1.3871
  350MOL0     H48295   0.672  11.892   9.861  2.4671 -2.5043 -2.6910
  350MOL0     H48296   0.275  11.711   9.930 -1.3378  2.0906  0.3501
  350MOL0     H48297   1.044  11.569  10.189  1.0998 -0.2492  1.3120
  350MOL0     H48298   1.116  11.386  10.205 -0.1069 -1.1059  0.3893
  350MOL0     H48299   1.243  11.324  10.086  0.0567 -2.0406  2.9889
  350MOL0     H48300   1.288  11.409  10.238  0.6857 -2.6827 -0.1904
  351MOL0     O48301   7.697   5.006   2.035  0.3263  0.3126 -0.0059
  351MOL0     C48302   7.726   4.914   2.106 -0.3213 -0.0127 -0.7270
  351MOL0     O48303   7.848   4.866   2.112  0.0482 -0.3031 -0.6295
  351MOL0     C48304   7.943   4.909   2.020  0.2084  0.4979 -0.5903
  351MOL0     C48305   8.065   4.953   2.060 -0.0120  0.1189  0.1508
  351MOL0     C48306   8.153   4.996   1.960 -0.3002  0.5862  0.2280
  351MOL0     C48307   8.127   4.992   1.825  0.6223  0.5808 -0.1769
  351MOL0     O48308   8.216   5.037   1.734 -0.2999  1.0800  0.2426
  351MOL0     C48309   8.182   5.162   1.691 -0.5575 -0.6763  0.4072
  351MOL0     C48310   8.291   5.217   1.600 -0.3861 -0.0311 -0.3826
  351MOL0     C48311   8.272   5.163   1.457  0.2657 -0.1346  0.9319
  351MOL0     C48312   8.357   5.246   1.362 -0.2020 -0.3948 -0.2736
  351MOL0     C48313   8.322   5.232   1.210  0.3358  0.1836  0.0966
  351MOL0     C48314   8.370   5.093   1.171 -0.2127  0.4561  0.2624
  351MOL0     C48315   8.450   5.084   1.045 -0.1049 -0.2669 -0.0998
  351MOL0     C48316   8.597   5.135   1.056 -1.2556 -0.5497 -0.3099
  351MOL0     N48317   8.644   5.169   0.919 -0.5925 -0.2780 -0.5914
  351MOL0     C48318   8.723   5.281   0.907  0.2170  0.0546 -1.4341
  351MOL0     C48319   8.766   5.276   0.781 -0.1902 -0.2777  0.2794
  351MOL0     C48320   8.862   5.366   0.724  1.1648  0.3038 -0.2461
  351MOL0     C48321   8.958   5.294   0.626 -0.3043 -0.0109  0.6034
  351MOL0     C48322   9.070   5.212   0.694 -0.1075 -0.8837  0.0884
  351MOL0     C48323   9.152   5.141   0.590 -0.7471  0.2426 -0.2873
  351MOL0     O48324   9.258   5.049   0.633  0.8565  0.1737  0.5675
  351MOL0     C48325   9.328   4.986   0.540 -0.0862 -0.4823  0.6213
  351MOL0     C48326   9.457   4.940   0.579  0.4040  0.5813 -0.7456
  351MOL0     C48327   9.538   4.877   0.483  0.0913 -0.0869 -0.5861
  351MOL0     C48328   9.664   4.817   0.539  0.5202 -0.2587  0.1444
  351MOL0     C48329   9.494   4.864   0.352  0.3195 -0.6870  0.0281
  351MOL0     C48330   9.571   4.810   0.238 -0.5368 -0.1568 -0.2487
  351MOL0     O48331   9.698   4.770   0.263  0.2717  0.1982 -0.3209
  351MOL0     C48332   9.795   4.728   0.173  0.5801 -0.9774 -0.2189
  351MOL0     C48333   9.787   4.730   0.030  0.3512  0.6358 -0.0729
  351MOL0     C48334   9.901   4.701  -0.052  0.7811 -0.9375 -0.3200
  351MOL0     C48335  10.019   4.668   0.015  0.2151 -0.0983 -0.1873
  351MOL0     O48336  10.136   4.624  -0.048  0.3426  0.4971 -0.4845
  351MOL0     C48337  10.149   4.623  -0.193  0.2922  0.2679 -0.3615
  351MOL0     C48338  10.270   4.530  -0.216  0.3847  0.3425 -0.0978
  351MOL0     C48339  10.397   4.584  -0.148 -0.3893 -0.4273  0.1303
  351MOL0     C48340  10.515   4.496  -0.180  0.0080 -0.4663  0.8327
  351MOL0     C48341  10.649   4.572  -0.148 -0.2686 -0.1993 -0.0654
  351MOL0     C48342  10.765   4.475  -0.136 -0.1408  0.0982 -0.2923
  351MOL0     C48343  10.891   4.550  -0.109  0.1200  0.6004 -0.3967
  351MOL0     C48344  11.000   4.434  -0.098  0.3725  0.4785 -0.1334
  351MOL0    Cl48345  10.962   4.323   0.036 -0.2612  0.4119  0.5494
  351MOL0     C48346  10.017   4.653   0.152 -0.2546 -0.2222 -0.0584
  351MOL0     C48347   9.910   4.682   0.234 -0.1023 -0.3227 -0.5075
  351MOL0     O48348   9.516   4.804   0.131  0.0960  0.2374 -0.3517
  351MOL0     C48349   9.366   4.910   0.322 -0.2885  0.8440 -0.4969
  351MOL0     C48350   9.284   4.974   0.411  1.0884  0.7107 -0.0816
  351MOL0     N48351   8.710   5.166   0.714 -0.2693  0.1477 -1.0194
  351MOL0     N48352   8.642   5.104   0.809  0.0721  0.2362 -0.7455
  351MOL0     C48353   8.000   4.946   1.784  0.6177  0.5275 -0.4990
  351MOL0     C48354   7.907   4.898   1.884  0.3087  0.1656  0.0003
  351MOL0     C48355   7.627   4.861   2.202 -1.2054 -0.5709 -0.0125
  351MOL0     C48356   7.491   4.847   2.160  0.2212 -0.3033 -0.2534
  351MOL0     C48357   7.378   4.811   2.243 -0.1787  0.1922 -0.5624
  351MOL0     C48358   7.407   4.794   2.381  0.2456  0.8592  0.0611
  351MOL0     O48359   7.287   4.781   2.458  0.7161  0.7360 -0.0618
  351MOL0     C48360   7.302   4.800   2.602  0.4173 -0.2512  0.3154
  351MOL0     C48361   7.324   4.946   2.640 -0.4141  0.7690 -0.4057
  351MOL0     C48362   7.351   4.963   2.788  0.1016 -0.1400  0.5256
  351MOL0     C48363   7.495   4.925   2.832  0.1158  0.1133 -0.1177
  351MOL0     C48364   7.589   5.033   2.814  0.1206 -0.3104 -0.2426
  351MOL0     C48365   7.654   5.138   2.780 -0.3110  0.5907 -0.1729
  351MOL0     C48366   7.548   4.802   2.427 -0.7841 -0.3126 -0.3400
  351MOL0     C48367   7.663   4.830   2.338  0.5917 -0.2800  0.9710
  351MOL0     C48368   7.798   4.842   2.402 -0.0591 -0.5269 -0.3596
  351MOL0     H48369   8.095   4.964   2.163  3.2617 -1.6853 -0.4773
  351MOL0     H48370   8.253   5.031   1.986  0.7198  0.2983 -2.8190
  351MOL0     H48371   8.177   5.226   1.780 -2.3186 -0.3327  0.1069
  351MOL0     H48372   8.087   5.158   1.636  0.1068 -2.0833 -0.7207
  351MOL0     H48373   8.276   5.325   1.594  0.0542 -0.0383 -2.3542
  351MOL0     H48374   8.393   5.194   1.633 -1.1123 -0.8541  1.4345
  351MOL0     H48375   8.301   5.057   1.455  0.5146 -0.0575  0.2195
  351MOL0     H48376   8.167   5.167   1.424  0.4925 -0.0553  0.1881
  351MOL0     H48377   8.341   5.349   1.394 -0.5392 -0.2206 -0.9832
  351MOL0     H48378   8.463   5.223   1.374  0.7158  2.5855 -1.8365
  351MOL0     H48379   8.381   5.312   1.165 -0.4280  0.3240 -0.6706
  351MOL0     H48380   8.216   5.249   1.187  0.1382 -2.0285 -0.8319
  351MOL0     H48381   8.436   5.056   1.250 -1.0161 -0.5497  0.4896
  351MOL0     H48382   8.279   5.033   1.157  0.4049 -0.3319 -0.4496
  351MOL0     H48383   8.404   5.155   0.975  1.5784  1.5456  0.5205
  351MOL0     H48384   8.452   4.982   1.005  2.2778  0.4482 -2.1057
  351MOL0     H48385   8.604   5.218   1.126 -2.2320 -1.5486  1.0310
  351MOL0     H48386   8.666   5.061   1.099 -2.3912 -0.5579  1.5697
  351MOL0     H48387   8.742   5.359   0.979 -2.0144  1.6882 -2.4754
  351MOL0     H48388   8.917   5.413   0.806  3.0075 -1.8117 -0.1704
  351MOL0     H48389   8.800   5.435   0.666 -0.6150 -0.3138  0.8504
  351MOL0     H48390   8.891   5.231   0.566  0.1699  0.4379 -0.4226
  351MOL0     H48391   9.004   5.363   0.555 -1.2905 -0.3368 -0.3931
  351MOL0     H48392   9.129   5.281   0.756  1.6290 -1.5355 -0.7985
  351MOL0     H48393   9.027   5.135   0.758  1.4865 -0.7003  1.4530
  351MOL0     H48394   9.081   5.086   0.529 -0.6590 -1.8653  1.3932
  351MOL0     H48395   9.199   5.226   0.539  0.3778 -0.4532 -0.4445
  351MOL0     H48396   9.491   4.947   0.681 -0.5163 -1.9140 -0.2032
  351MOL0     H48397   9.672   4.821   0.648 -0.7582 -2.5648  0.3810
  351MOL0     H48398   9.751   4.872   0.504  1.1023 -0.2601  1.5226
  351MOL0     H48399   9.668   4.711   0.513 -3.1922 -0.1400 -1.5477
  351MOL0     H48400   9.700   4.765  -0.025  1.0199  1.8438 -0.3749
  351MOL0     H48401   9.901   4.717  -0.159  0.9012 -2.5716 -0.5901
  351MOL0     H48402  10.066   4.580  -0.249 -0.1835  0.5607  0.1069
  351MOL0     H48403  10.163   4.727  -0.225 -0.0758  0.7933  1.1256
  351MOL0     H48404  10.247   4.433  -0.170  1.8272 -0.0469 -0.1560
  351MOL0     H48405  10.297   4.519  -0.321  1.7392 -0.4905  0.3015
  351MOL0     H48406  10.379   4.581  -0.040 -0.8897 -1.1781  0.0410
  351MOL0     H48407  10.419   4.683  -0.187 -2.1131 -1.4490 -3.9825
  351MOL0     H48408  10.510   4.467  -0.286 -0.2591  0.3785  0.6036
  351MOL0     H48409  10.513   4.407  -0.118  0.7799 -0.0233  1.5230
  351MOL0     H48410  10.670   4.652  -0.220 -2.1013 -1.3176 -1.9530
  351MOL0     H48411  10.632   4.617  -0.049  0.1414 -0.3362  0.0694
  351MOL0     H48412  10.790   4.413  -0.222  0.9140  0.5154 -0.2988
  351MOL0     H48413  10.745   4.410  -0.050  1.2761  0.5475  0.4009
  351MOL0     H48414  10.880   4.610  -0.019 -2.2312  0.6207 -0.6430
  351MOL0     H48415  10.907   4.622  -0.190  1.6117 -0.2926 -0.9525
  351MOL0     H48416  11.094   4.486  -0.075 -0.1448  0.4626  2.3516
  351MOL0     H48417  11.013   4.386  -0.195  1.3016  2.6912 -1.1706
  351MOL0     H48418  10.105   4.620   0.206 -0.4874 -0.4263  0.2008
  351MOL0     H48419   9.901   4.690   0.342 -0.8847 -0.0150 -0.5923
  351MOL0     H48420   9.317   4.887   0.228 -0.6959  0.8971 -0.3019
  351MOL0     H48421   9.188   5.009   0.373  0.9015  0.3075  0.0174
  351MOL0     H48422   7.984   4.938   1.677 -3.1310 -0.7372 -0.0004
  351MOL0     H48423   7.803   4.873   1.869  0.1531 -1.4213  2.9142
  351MOL0     H48424   7.461   4.882   2.062 -2.2913 -1.1907  0.1435
  351MOL0     H48425   7.279   4.823   2.201 -1.0103 -1.3024  0.8411
  351MOL0     H48426   7.218   4.757   2.658  0.5405 -1.3314 -0.3165
  351MOL0     H48427   7.384   4.737   2.637  4.0691  1.2970 -4.4744
  351MOL0     H48428   7.227   4.991   2.618 -0.0402  0.1499 -3.9156
  351MOL0     H48429   7.389   5.004   2.574  1.3486 -0.6896 -0.0243
  351MOL0     H48430   7.338   5.070   2.808 -0.0571 -0.0676  0.0413
  351MOL0     H48431   7.273   4.913   2.847 -0.9009 -0.0540 -0.6912
  351MOL0     H48432   7.530   4.833   2.783 -1.1076  0.6932 -2.1779
  351MOL0     H48433   7.485   4.907   2.940 -5.5557  0.7179 -0.2411
  351MOL0     H48434   7.704   5.226   2.743 -0.1985  1.0977  1.1277
  351MOL0     H48435   7.566   4.796   2.534  0.5743 -0.3834 -0.5518
  351MOL0     H48436   7.866   4.765   2.367  0.8225 -0.4150  1.0390
  351MOL0     H48437   7.848   4.936   2.376 -0.4029  0.1394  1.2397
  351MOL0     H48438   7.787   4.835   2.511  0.3717  1.1377 -0.1819
  352MOL0     O48439  10.214   4.350   2.451  0.5991  0.0312  0.6683
  352MOL0     C48440  10.156   4.444   2.396  0.2843 -0.0309 -0.6564
  352MOL0     O48441  10.130   4.566   2.458 -0.3471  0.4009  0.8750
  352MOL0     C48442  10.170   4.577   2.592 -0.3613 -0.1654  0.7517
  352MOL0     C48443  10.284   4.650   2.618 -0.1526 -0.0953  0.0939
  352MOL0     C48444  10.328   4.671   2.747  0.0107 -0.2615 -0.7272
  352MOL0     C48445  10.270   4.610   2.863 -1.0347  0.1464 -0.8684
  352MOL0     O48446  10.312   4.604   2.991  0.4936  0.4325 -0.4001
  352MOL0     C48447  10.453   4.630   3.016 -0.3800 -0.6332 -0.2883
  352MOL0     C48448  10.497   4.561   3.148  1.0283  0.8563 -0.2148
  352MOL0     C48449  10.609   4.458   3.133  0.9957  0.2227  0.2054
  352MOL0     C48450  10.688   4.422   3.254  0.1361  1.2876  0.4045
  352MOL0     C48451  10.798   4.328   3.199  0.2048 -0.9360 -1.0491
  352MOL0     C48452  10.878   4.280   3.326 -0.4703  0.0783 -0.0268
  352MOL0     C48453  11.016   4.216   3.283  0.0115 -0.6819 -0.3403
  352MOL0     C48454  11.137   4.284   3.350  0.4164 -0.6319 -0.3560
  352MOL0     N48455  11.269   4.224   3.346 -0.2318  0.4302  0.3044
  352MOL0     C48456  11.352   4.215   3.236  1.1041  0.0369 -0.6901
  352MOL0     C48457  11.447   4.122   3.266  0.0106  0.6981  0.0673
  352MOL0     C48458  11.557   4.065   3.179  0.1743 -0.3380  0.2073
  352MOL0     C48459  11.514   4.043   3.032  0.6721  0.6534 -0.5425
  352MOL0     C48460  11.603   3.931   2.967 -0.3533 -0.3231  0.6404
  352MOL0     C48461  11.750   3.966   2.937 -0.6492  0.1163 -0.6758
  352MOL0     O48462  11.770   4.054   2.831 -0.3667 -1.2249  0.8460
  352MOL0     C48463  11.901   4.099   2.810  0.6968  0.2101 -0.3022
  352MOL0     C48464  12.018   4.033   2.858  0.5659 -0.2710  0.9438
  352MOL0     C48465  12.141   4.090   2.831 -0.0921 -0.4776  0.9788
  352MOL0     C48466  12.260   4.021   2.871  0.3821  0.6222 -0.7832
  352MOL0     C48467  12.148   4.211   2.760 -0.5462  0.5355  0.2702
  352MOL0     C48468  12.279   4.274   2.739  0.0664  0.9686  0.2627
  352MOL0     O48469  12.368   4.206   2.653  0.1414  0.7981  1.5365
  352MOL0     C48470  12.501   4.241   2.653 -0.0029 -0.5495 -1.1684
  352MOL0     C48471  12.591   4.139   2.640 -1.2130  0.5668 -0.4919
  352MOL0     C48472  12.734   4.164   2.638  0.3850 -0.9280  0.1108
  352MOL0     C48473  12.778   4.300   2.644  0.0019  0.6163  0.2521
  352MOL0     O48474  12.909   4.338   2.643 -0.7254 -0.2038  0.7552
  352MOL0     C48475  13.015   4.257   2.709  0.2292 -0.7258 -0.1564
  352MOL0     C48476  13.095   4.169   2.617 -0.1402  0.0136  0.0604
  352MOL0     C48477  13.219   4.103   2.672 -0.1713  0.1997 -0.0336
  352MOL0     C48478  13.316   4.198   2.726 -0.3472  0.8454  0.1242
  352MOL0     C48479  13.438   4.135   2.786 -0.5471 -0.1286  0.4103
  352MOL0     C48480  13.536   4.071   2.674 -0.8262 -0.1907 -0.0367
  352MOL0     C48481  13.502   3.917   2.665  0.3368 -0.1258 -0.0354
  352MOL0     C48482  13.621   3.825   2.633 -0.1354 -0.3147 -0.3049
  352MOL0    Cl48483  13.752   3.896   2.526 -0.2362 -0.2191 -0.5091
  352MOL0     C48484  12.685   4.401   2.651 -0.1412 -0.1464  0.2501
  352MOL0     C48485  12.551   4.377   2.641  1.0257 -0.2746 -0.9090
  352MOL0     O48486  12.294   4.375   2.802  0.4377 -0.6188 -0.3005
  352MOL0     C48487  12.028   4.269   2.700 -0.0723  0.2671  0.7364
  352MOL0     C48488  11.909   4.206   2.725  0.4020  0.1528 -0.1055
  352MOL0     N48489  11.440   4.097   3.404  0.2065  0.2809  1.1428
  352MOL0     N48490  11.339   4.162   3.449  0.4295  0.4753 -0.7428
  352MOL0     C48491  10.155   4.541   2.838  0.0862  0.2327  0.5319
  352MOL0     C48492  10.100   4.526   2.704 -1.2898  0.4461 -0.0749
  352MOL0     C48493  10.120   4.427   2.260  0.6406  0.1798 -0.1683
  352MOL0     C48494  10.207   4.358   2.180 -0.3197  0.0926  0.7482
  352MOL0     C48495  10.164   4.317   2.051 -0.1143 -0.7986  0.4503
  352MOL0     C48496  10.048   4.350   1.999 -0.5977 -0.2035  0.2866
  352MOL0     O48497  10.030   4.289   1.878 -0.1639 -0.5590 -0.5159
  352MOL0     C48498   9.898   4.242   1.841  0.8738 -0.1098 -0.3801
  352MOL0     C48499   9.885   4.253   1.690  0.9675 -0.0739 -0.5609
  352MOL0     C48500   9.744   4.215   1.642 -0.5679 -0.4141 -1.0161
  352MOL0     C48501   9.724   4.227   1.489 -0.0789  0.2485 -0.0848
  352MOL0     C48502   9.804   4.118   1.421  0.3679  0.2470 -0.0143
  352MOL0     C48503   9.872   4.035   1.360  0.6555  0.4658 -0.7940
  352MOL0     C48504   9.965   4.438   2.066 -0.9440  0.1959 -0.0580
  352MOL0     C48505  10.002   4.473   2.200  0.1037 -0.0534 -0.1471
  352MOL0     C48506   9.888   4.551   2.279  0.1567  0.7471 -0.9199
  352MOL0     H48507  10.347   4.680   2.535 -1.1430 -0.8717 -0.9737
  352MOL0     H48508  10.411   4.734   2.779 -0.8128  0.5430 -0.1279
  352MOL0     H48509  10.463   4.739   3.022  1.0541 -0.8188  2.9096
  352MOL0     H48510  10.507   4.595   2.928 -1.0177  1.4148 -1.5683
  352MOL0     H48511  10.520   4.642   3.217 -0.1881  1.1279 -0.1174
  352MOL0     H48512  10.406   4.514   3.187 -1.5593  3.6928 -2.3749
  352MOL0     H48513  10.553   4.371   3.098 -2.2627  3.1114 -2.6763
  352MOL0     H48514  10.678   4.481   3.051 -0.9461 -0.5926 -1.7780
  352MOL0     H48515  10.737   4.507   3.303  1.0319  0.9808  0.0483
  352MOL0     H48516  10.625   4.372   3.329  0.8279 -1.5756 -0.8230
  352MOL0     H48517  10.864   4.393   3.141 -3.2397  0.2861 -3.9694
  352MOL0     H48518  10.761   4.238   3.149 -0.6811 -0.5788 -1.0590
  352MOL0     H48519  10.900   4.365   3.390  1.4145 -0.1316 -0.3425
  352MOL0     H48520  10.828   4.201   3.382 -0.6913  0.8671  0.9009
  352MOL0     H48521  11.016   4.220   3.173 -1.0018 -0.7872 -0.3541
  352MOL0     H48522  11.024   4.110   3.311  2.5590 -0.9591 -1.8156
  352MOL0     H48523  11.141   4.382   3.300  2.0334  0.6505  2.0953
  352MOL0     H48524  11.124   4.303   3.457  3.3770 -0.3880  0.0271
  352MOL0     H48525  11.342   4.280   3.150 -0.3396 -1.8901 -2.0644
  352MOL0     H48526  11.593   3.972   3.225  2.0564 -0.7857 -1.9901
  352MOL0     H48527  11.644   4.131   3.175  0.7347 -0.9396  1.7031
  352MOL0     H48528  11.412   4.003   3.037  1.0894 -0.3985 -0.2236
  352MOL0     H48529  11.519   4.138   2.978  1.0598  0.3645 -1.0261
  352MOL0     H48530  11.602   3.844   3.033  0.3657  0.1423  1.2883
  352MOL0     H48531  11.564   3.907   2.867  3.6663  1.9633 -1.7860
  352MOL0     H48532  11.797   4.011   3.025  1.5421  1.2451 -2.3431
  352MOL0     H48533  11.800   3.870   2.925 -0.5430  0.0655  0.0879
  352MOL0     H48534  12.011   3.941   2.914  1.5504 -1.0589 -0.1810
  352MOL0     H48535  12.340   4.088   2.905  1.3471 -0.4636 -0.8732
  352MOL0     H48536  12.295   3.966   2.783  2.1923 -1.0344  0.8695
  352MOL0     H48537  12.242   3.943   2.946  0.1404 -0.6608 -2.1343
  352MOL0     H48538  12.574   4.032   2.644 -0.4768  0.4918  1.8724
  352MOL0     H48539  12.791   4.072   2.639 -1.7094 -2.3967 -2.3747
  352MOL0     H48540  13.083   4.335   2.743 -0.5826  0.0227 -0.2292
  352MOL0     H48541  12.993   4.202   2.801 -2.2869 -0.4574 -0.5403
  352MOL0     H48542  13.023   4.102   2.569  0.4529  0.0080 -0.8570
  352MOL0     H48543  13.130   4.227   2.530  0.9975  1.5342  1.4690
  352MOL0     H48544  13.259   4.039   2.592 -1.7827 -3.5872  1.9494
  352MOL0     H48545  13.190   4.035   2.752  0.1871 -1.3419 -1.1601
  352MOL0     H48546  13.278   4.262   2.807  2.9054  1.0183  1.6453
  352MOL0     H48547  13.348   4.253   2.637 -2.4769  3.2332  0.7221
  352MOL0     H48548  13.502   4.204   2.842  2.0278 -2.3259  0.3856
  352MOL0     H48549  13.403   4.068   2.864 -2.7951  2.5222  1.8603
  352MOL0     H48550  13.637   4.075   2.716 -0.1713 -3.9622 -0.8876
  352MOL0     H48551  13.534   4.128   2.580  0.9968  1.1480  0.6751
  352MOL0     H48552  13.431   3.905   2.583 -0.8709 -1.6623  1.1708
  352MOL0     H48553  13.458   3.877   2.757  2.4591  0.4080  1.3043
  352MOL0     H48554  13.584   3.730   2.595 -0.0195 -0.9487  1.0922
  352MOL0     H48555  13.676   3.789   2.721 -1.1643 -1.9244 -0.2954
  352MOL0     H48556  12.719   4.504   2.651  0.9287 -0.4916  0.8824
  352MOL0     H48557  12.486   4.463   2.643  1.3438 -0.0261 -1.1368
  352MOL0     H48558  12.040   4.356   2.636  0.5000  0.7751  1.5171
  352MOL0     H48559  11.813   4.245   2.694 -0.1579  0.0080  1.3683
  352MOL0     H48560  10.107   4.492   2.922  1.2130 -1.0433  0.4521
  352MOL0     H48561  10.019   4.454   2.693 -1.0058  0.0006  0.6156
  352MOL0     H48562  10.305   4.317   2.201 -0.5894 -1.8511 -1.4448
  352MOL0     H48563  10.236   4.264   1.989 -0.1936 -0.2151 -0.1585
  352MOL0     H48564   9.885   4.143   1.886  0.8339  0.1818  0.2559
  352MOL0     H48565   9.821   4.307   1.885 -0.6215  0.6333 -3.7503
  352MOL0     H48566   9.962   4.190   1.645  0.7277  1.4614 -3.3004
  352MOL0     H48567   9.920   4.350   1.655  3.4775 -0.2127  1.2471
  352MOL0     H48568   9.719   4.113   1.672 -1.1412  0.5765  2.3796
  352MOL0     H48569   9.672   4.281   1.692  1.9420  0.0190  2.4248
  352MOL0     H48570   9.762   4.324   1.453  0.4831 -0.5996 -1.9145
  352MOL0     H48571   9.617   4.220   1.468 -0.9703 -1.6977  4.0822
  352MOL0     H48572   9.934   3.965   1.307 -1.2717 -1.0058 -1.1997
  352MOL0     H48573   9.872   4.467   2.017 -0.5538 -0.7128 -1.3813
  352MOL0     H48574   9.807   4.587   2.216 -1.2873  1.4438  1.2350
  352MOL0     H48575   9.850   4.483   2.356  1.1953 -0.5533 -1.5143
  352MOL0     H48576   9.930   4.631   2.340 -2.2191  0.0369  1.8412
  353MOL0     O48577   5.632   0.926   0.959  0.1324 -0.0081 -0.0158
  353MOL0     C48578   5.585   0.842   0.881 -0.0028 -0.7825  0.5897
  353MOL0     O48579   5.658   0.748   0.814  0.3495 -0.3419 -0.2420
  353MOL0     C48580   5.784   0.736   0.861 -0.5409 -0.7528  0.1594
  353MOL0     C48581   5.891   0.813   0.801  0.5395 -0.4293 -0.2012
  353MOL0     C48582   6.024   0.795   0.851 -0.1183  0.2788  0.1081
  353MOL0     C48583   6.060   0.713   0.955  0.0605  0.3270 -0.1116
  353MOL0     O48584   6.190   0.684   0.990 -0.3424  0.0659  0.2792
  353MOL0     C48585   6.226   0.728   1.122 -0.7201 -1.5664  0.3480
  353MOL0     C48586   6.379   0.745   1.134 -0.1654 -0.0129 -0.0279
  353MOL0     C48587   6.432   0.764   1.281  0.8353 -0.1856  0.0946
  353MOL0     C48588   6.397   0.889   1.350 -0.3750 -1.0986  0.1222
  353MOL0     C48589   6.461   0.911   1.484 -0.0565  0.6997  1.0597
  353MOL0     C48590   6.401   1.031   1.569 -0.8425 -0.0554  0.2370
  353MOL0     C48591   6.439   1.023   1.720 -1.9173 -0.0189 -0.4775
  353MOL0     C48592   6.590   1.077   1.738 -0.2972  0.4259 -0.5393
  353MOL0     N48593   6.641   1.101   1.881  0.6770 -0.2497  0.6192
  353MOL0     C48594   6.586   1.188   1.970 -0.6988  0.1595  0.5012
  353MOL0     C48595   6.659   1.165   2.087  0.1831  0.1144  0.3817
  353MOL0     C48596   6.657   1.268   2.208  0.2782  0.1745  0.4610
  353MOL0     C48597   6.667   1.209   2.350  0.0615  0.0488 -0.3272
  353MOL0     C48598   6.554   1.111   2.378  0.0276 -0.6490 -0.6597
  353MOL0     C48599   6.559   1.057   2.519 -0.0828 -0.0124 -0.2037
  353MOL0     O48600   6.539   1.163   2.612 -0.7635  0.1850 -0.1451
  353MOL0     C48601   6.484   1.126   2.734  0.0045  0.5165 -0.0210
  353MOL0     C48602   6.525   1.007   2.796 -0.5383 -0.4567  0.0263
  353MOL0     C48603   6.462   0.964   2.919 -0.1266 -0.2209 -0.3343
  353MOL0     C48604   6.520   0.850   2.995 -0.2865  0.5945  0.4324
  353MOL0     C48605   6.360   1.044   2.979 -0.4247 -0.2108 -0.1474
  353MOL0     C48606   6.283   1.012   3.103  0.5361  1.1257  0.2817
  353MOL0     O48607   6.224   1.109   3.171  0.0546  0.3162 -0.2712
  353MOL0     C48608   6.130   1.066   3.261  0.1415 -0.5651  0.1217
  353MOL0     C48609   6.162   1.053   3.402  0.7927  0.3757 -0.6565
  353MOL0     C48610   6.063   1.025   3.494 -0.0150  0.5544 -0.4090
  353MOL0     C48611   5.932   1.018   3.444  0.6599  0.2618  0.2166
  353MOL0     O48612   5.831   0.988   3.525 -0.0117  0.2396 -0.7360
  353MOL0     C48613   5.834   1.024   3.671  0.5815 -0.0930  0.3775
  353MOL0     C48614   5.697   1.031   3.734  0.0896  0.3320 -0.7451
  353MOL0     C48615   5.580   1.083   3.638 -0.2835  0.0274  0.6619
  353MOL0     C48616   5.472   1.148   3.715  0.4871  0.0986  0.2009
  353MOL0     C48617   5.373   1.246   3.642 -0.2818  0.4762  0.1663
  353MOL0     C48618   5.284   1.179   3.543 -0.3132 -0.4322  0.3635
  353MOL0     C48619   5.177   1.277   3.488  0.0312  0.5135  0.5219
  353MOL0     C48620   5.055   1.266   3.589  0.1217 -0.4306  0.3762
  353MOL0    Cl48621   4.909   1.328   3.501  0.0780  0.0075  0.0359
  353MOL0     C48622   5.899   1.027   3.306 -0.2443  0.5033 -1.4486
  353MOL0     C48623   6.002   1.054   3.215  0.0225  0.3371 -0.7625
  353MOL0     O48624   6.264   0.890   3.127  0.4888 -0.0188 -0.4834
  353MOL0     C48625   6.317   1.162   2.906  0.1019  0.6207  0.5632
  353MOL0     C48626   6.378   1.197   2.783  0.4592  0.4442 -0.7436
  353MOL0     N48627   6.771   1.081   2.057  0.8809 -0.7154 -0.0946
  353MOL0     N48628   6.745   1.037   1.939  0.1068 -0.3124  0.2918
  353MOL0     C48629   5.952   0.640   1.010  0.1658 -0.5328 -0.2949
  353MOL0     C48630   5.820   0.648   0.959  0.1291  0.0639 -0.3069
  353MOL0     C48631   5.442   0.813   0.864 -0.3510 -0.1669 -0.4759
  353MOL0     C48632   5.390   0.683   0.865 -0.7011 -0.3712  1.1017
  353MOL0     C48633   5.252   0.651   0.855  1.2789 -0.0094  0.4449
  353MOL0     C48634   5.160   0.752   0.867 -0.8765 -1.0792  0.5201
  353MOL0     O48635   5.022   0.750   0.863 -0.2621 -0.4041 -0.1972
  353MOL0     C48636   4.967   0.651   0.954  0.5623 -1.3348 -0.5786
  353MOL0     C48637   5.015   0.657   1.097  0.2993  0.3507  0.0374
  353MOL0     C48638   5.010   0.801   1.159 -0.1268 -0.6952  0.0795
  353MOL0     C48639   5.009   0.788   1.313 -0.9852 -0.0588  0.2155
  353MOL0     C48640   5.131   0.724   1.367  1.1662  0.3491  0.7947
  353MOL0     C48641   5.228   0.666   1.408  0.3625  0.3881  0.5843
  353MOL0     C48642   5.206   0.884   0.855  0.1356 -0.6904  0.4763
  353MOL0     C48643   5.345   0.914   0.863 -0.1900  0.1082 -0.0173
  353MOL0     C48644   5.379   1.060   0.872  0.3587 -0.2599  0.0241
  353MOL0     H48645   5.861   0.889   0.730  5.3714  0.9453 -1.1729
  353MOL0     H48646   6.103   0.840   0.790 -1.7539 -0.3790 -2.6631
  353MOL0     H48647   6.189   0.667   1.205 -1.6012 -2.3404 -0.5847
  353MOL0     H48648   6.184   0.826   1.144 -1.8169 -1.8663 -0.3237
  353MOL0     H48649   6.433   0.658   1.096  0.2107  1.1253 -2.2579
  353MOL0     H48650   6.399   0.835   1.075 -2.0885 -0.0105 -0.7382
  353MOL0     H48651   6.391   0.687   1.347  1.5305 -0.6275  0.0180
  353MOL0     H48652   6.541   0.764   1.276  0.9103 -0.0411  1.3371
  353MOL0     H48653   6.437   0.970   1.288 -1.0700 -1.6546 -1.0706
  353MOL0     H48654   6.288   0.895   1.350 -0.3817 -0.7629 -1.5724
  353MOL0     H48655   6.568   0.928   1.472  0.0901  0.2765  1.7325
  353MOL0     H48656   6.446   0.817   1.537  2.6584 -0.5453 -0.2092
  353MOL0     H48657   6.433   1.125   1.524 -2.4151  0.5811  0.3832
  353MOL0     H48658   6.292   1.030   1.575 -0.7730 -0.1202  2.7156
  353MOL0     H48659   6.437   0.926   1.771 -2.6158  1.4899  2.6302
  353MOL0     H48660   6.375   1.091   1.777 -0.5775 -0.4795  1.7237
  353MOL0     H48661   6.657   1.003   1.694 -2.6436 -1.2646 -1.4721
  353MOL0     H48662   6.598   1.170   1.680 -2.4962  1.4176  0.6130
  353MOL0     H48663   6.514   1.262   1.938  0.0770  0.1914 -1.2453
  353MOL0     H48664   6.578   1.340   2.185  0.7260  0.9503  1.2706
  353MOL0     H48665   6.743   1.332   2.184 -0.6942  0.9728 -1.0519
  353MOL0     H48666   6.762   1.158   2.366  0.3910  1.1437  1.4704
  353MOL0     H48667   6.671   1.287   2.426 -0.6858 -1.5933  1.4855
  353MOL0     H48668   6.460   1.158   2.348 -0.3062 -0.1556  1.0604
  353MOL0     H48669   6.570   1.028   2.308  1.3845 -0.6209 -0.4153
  353MOL0     H48670   6.485   0.977   2.527  1.0892 -1.1269 -0.1362
  353MOL0     H48671   6.646   1.002   2.556 -0.9528 -1.0523  0.3438
  353MOL0     H48672   6.611   0.949   2.762  3.4714  4.2707  0.9618
  353MOL0     H48673   6.532   0.874   3.101 -0.2891  0.4120  0.4748
  353MOL0     H48674   6.623   0.837   2.958 -0.5822  2.4108 -1.1215
  353MOL0     H48675   6.453   0.768   2.967 -0.1182  1.0242 -1.3557
  353MOL0     H48676   6.261   1.084   3.434  1.0114 -0.5252 -0.4519
  353MOL0     H48677   6.086   1.007   3.599  0.3180  0.6443 -0.4651
  353MOL0     H48678   5.897   0.962   3.734 -1.8441 -3.3054 -0.0987
  353MOL0     H48679   5.877   1.125   3.670  1.7694 -0.5291 -2.8336
  353MOL0     H48680   5.672   0.928   3.760  0.6583 -0.5743 -3.4052
  353MOL0     H48681   5.707   1.092   3.824  3.7612 -0.7554 -0.2669
  353MOL0     H48682   5.542   0.996   3.583 -1.2141  0.3135  0.8324
  353MOL0     H48683   5.629   1.154   3.571  2.0150 -1.5441  0.5953
  353MOL0     H48684   5.522   1.200   3.797  4.1849 -2.9494  0.1582
  353MOL0     H48685   5.415   1.066   3.759  1.3839 -0.6261  0.0355
  353MOL0     H48686   5.308   1.300   3.712  0.3001  2.3753 -0.6790
  353MOL0     H48687   5.440   1.323   3.602  0.1040 -0.2689 -0.6445
  353MOL0     H48688   5.240   1.098   3.602 -1.9226  1.6019  2.1275
  353MOL0     H48689   5.343   1.153   3.455 -2.5407 -2.1026 -0.7147
  353MOL0     H48690   5.141   1.253   3.387 -1.1285 -2.0614  1.4688
  353MOL0     H48691   5.219   1.377   3.476 -0.1834  0.8103  2.0667
  353MOL0     H48692   5.071   1.317   3.684 -1.3966  0.8051  0.0163
  353MOL0     H48693   5.034   1.160   3.606 -0.6232 -0.0666  1.8559
  353MOL0     H48694   5.801   1.001   3.266  0.7846 -0.6976 -3.2894
  353MOL0     H48695   5.976   1.064   3.110 -1.1377 -2.1825 -0.7993
  353MOL0     H48696   6.241   1.228   2.947  0.3068  0.9043  0.4836
  353MOL0     H48697   6.326   1.280   2.736 -2.1261  1.1891  2.9917
  353MOL0     H48698   5.974   0.584   1.100  1.5030  2.5414  1.4640
  353MOL0     H48699   5.733   0.600   1.004  1.7572 -2.7287  0.1027
  353MOL0     H48700   5.455   0.599   0.844 -0.2151  0.1131  0.6646
  353MOL0     H48701   5.222   0.547   0.862  0.4946  0.0521 -1.5676
  353MOL0     H48702   4.860   0.672   0.952  1.0812  1.7338 -0.6227
  353MOL0     H48703   4.984   0.551   0.913  0.1357 -1.7657  0.2614
  353MOL0     H48704   5.119   0.624   1.096  0.0637 -0.9098  3.4230
  353MOL0     H48705   4.954   0.594   1.162  0.9316  0.5629  0.8590
  353MOL0     H48706   5.095   0.857   1.120 -1.3648  2.5582  1.6893
  353MOL0     H48707   4.921   0.852   1.120  1.0899  0.4673 -1.3324
  353MOL0     H48708   4.909   0.751   1.339 -1.6192  0.5627 -1.2317
  353MOL0     H48709   5.012   0.884   1.365  1.5714 -0.6469  1.2774
  353MOL0     H48710   5.310   0.610   1.449 -1.0621 -2.4835 -0.2279
  353MOL0     H48711   5.138   0.969   0.852  1.7262  0.7705  2.7797
  353MOL0     H48712   5.380   1.093   0.976 -0.1363 -1.4250  0.4127
  353MOL0     H48713   5.475   1.083   0.825 -0.1646  0.1661 -0.8756
  353MOL0     H48714   5.302   1.115   0.816 -0.2300 -2.3953 -1.3897
  354MOL0     O48715   0.315   2.791   9.121 -0.6529  0.6324 -0.6570
  354MOL0     C48716   0.365   2.808   9.012  0.1219  0.3160 -0.3984
  354MOL0     O48717   0.482   2.755   8.961 -0.5592  0.4045  0.4750
  354MOL0     C48718   0.544   2.670   9.038 -0.6293  1.1582 -0.1236
  354MOL0     C48719   0.501   2.546   9.071 -0.0701 -0.0513 -0.2544
  354MOL0     C48720   0.582   2.465   9.150  0.9788 -0.1712 -0.1688
  354MOL0     C48721   0.703   2.511   9.199  0.0532  0.2031 -0.2504
  354MOL0     O48722   0.771   2.416   9.269 -0.2723 -0.9565  0.4511
  354MOL0     C48723   0.913   2.426   9.284  0.7193 -1.3567 -0.0258
  354MOL0     C48724   0.948   2.326   9.389 -0.3650  0.2592 -0.5127
  354MOL0     C48725   1.090   2.324   9.425 -0.2421  0.1881  0.8920
  354MOL0     C48726   1.112   2.251   9.553  0.0905  0.7964  0.4759
  354MOL0     C48727   1.261   2.212   9.579 -0.1453  0.0003 -0.4074
  354MOL0     C48728   1.289   2.167   9.729  0.2781  0.3764 -0.0778
  354MOL0     C48729   1.199   2.040   9.754 -0.2509  0.1179 -0.0172
  354MOL0     C48730   1.258   1.954   9.868  0.5818 -0.2858  0.3453
  354MOL0     N48731   1.178   1.833   9.905 -0.5296  0.8412 -0.8157
  354MOL0     C48732   1.070   1.785   9.843 -1.2728 -0.6558 -0.5428
  354MOL0     C48733   1.030   1.679   9.912  1.1501 -0.1787 -0.0416
  354MOL0     C48734   0.905   1.589   9.901 -0.3061  0.0343 -0.8539
  354MOL0     C48735   0.835   1.589   9.758 -0.0538  0.0912 -0.0008
  354MOL0     C48736   0.712   1.487   9.760 -0.2015 -0.4558 -0.0709
  354MOL0     C48737   0.621   1.506   9.634  0.0370  1.0321  0.2296
  354MOL0     O48738   0.567   1.638   9.642  0.5368 -0.0789 -0.5376
  354MOL0     C48739   0.459   1.653   9.732 -0.6398 -0.1295  0.3732
  354MOL0     C48740   0.418   1.777   9.776  0.3193  0.3091 -0.7560
  354MOL0     C48741   0.303   1.810   9.848  0.5044  0.2420 -0.0535
  354MOL0     C48742   0.255   1.960   9.842  0.1939  0.7347 -0.7494
  354MOL0     C48743   0.228   1.699   9.897  0.3813  1.0823  0.8405
  354MOL0     C48744   0.089   1.715   9.952  0.0028 -0.5040 -0.3484
  354MOL0     O48745   0.016   1.606   9.973  0.3381 -0.4742  0.0722
  354MOL0     C48746  -0.105   1.613  10.047 -0.6348 -0.2355 -0.3261
  354MOL0     C48747  -0.123   1.683  10.163  0.1999  0.8930  0.1072
  354MOL0     C48748  -0.245   1.678  10.236  0.2951  0.1316 -0.4596
  354MOL0     C48749  -0.352   1.602  10.187 -0.1037 -0.2491  0.0385
  354MOL0     O48750  -0.480   1.606  10.239  0.0531  0.1988 -0.1443
  354MOL0     C48751  -0.548   1.730  10.274  0.3183  0.4385 -0.1167
  354MOL0     C48752  -0.571   1.818  10.148  0.3630  0.3914  0.3304
  354MOL0     C48753  -0.651   1.956  10.175  0.3487  0.6098 -0.1997
  354MOL0     C48754  -0.803   1.933  10.187  0.2825 -0.1814 -0.2201
  354MOL0     C48755  -0.880   2.072  10.174  0.2196 -0.6591 -0.0062
  354MOL0     C48756  -1.021   2.058  10.228 -0.8979 -0.7717 -0.9454
  354MOL0     C48757  -1.109   1.964  10.136  0.2310 -0.4775  0.3899
  354MOL0     C48758  -1.258   1.976  10.179  0.0487  0.3268  0.2404
  354MOL0    Cl48759  -1.288   1.966  10.353 -0.0206 -0.5000  0.2802
  354MOL0     C48760  -0.340   1.538  10.065 -1.0004  1.0420  0.5788
  354MOL0     C48761  -0.215   1.536  10.000  0.2977 -0.7454  0.8695
  354MOL0     O48762   0.048   1.829   9.981  0.5522  0.1429  0.4922
  354MOL0     C48763   0.268   1.566   9.868 -0.0651 -0.8629  1.1027
  354MOL0     C48764   0.383   1.550   9.788 -0.4208  0.6897 -0.7297
  354MOL0     N48765   1.122   1.661  10.019 -0.2022  0.2424  0.8383
  354MOL0     N48766   1.212   1.755  10.012 -0.1833  0.2132  0.2384
  354MOL0     C48767   0.752   2.634   9.156 -0.2760  0.8003 -0.1778
  354MOL0     C48768   0.670   2.718   9.077  0.5772  0.9806  0.1027
  354MOL0     C48769   0.305   2.919   8.934  0.4501  0.9373 -0.0230
  354MOL0     C48770   0.185   2.901   8.868  0.1648  0.0016  1.1200
  354MOL0     C48771   0.112   3.006   8.805 -0.1104 -0.7025  0.7535
  354MOL0     C48772   0.182   3.128   8.778 -0.1795  0.8938 -0.0523
  354MOL0     O48773   0.139   3.229   8.695  0.3758  0.7471 -0.4051
  354MOL0     C48774   0.021   3.288   8.757  0.0265  1.3838  0.4630
  354MOL0     C48775  -0.029   3.395   8.658  0.2413  0.7242 -0.2632
  354MOL0     C48776  -0.163   3.449   8.701  0.4358  0.3697  0.4215
  354MOL0     C48777  -0.279   3.400   8.610 -0.3245 -0.6534 -0.1891
  354MOL0     C48778  -0.275   3.464   8.481  0.2034  0.4673  0.4230
  354MOL0     C48779  -0.273   3.519   8.368  0.1715  0.2592  0.5548
  354MOL0     C48780   0.306   3.143   8.836 -0.1148  0.1861  0.6004
  354MOL0     C48781   0.372   3.047   8.916  0.0369  0.4894 -0.3118
  354MOL0     C48782   0.507   3.072   8.975 -0.0076 -0.1820  0.0099
  354MOL0     H48783   0.402   2.518   9.039 -1.2699  0.8425  2.3875
  354MOL0     H48784   0.552   2.361   9.165  3.3486 -1.3605 -2.6839
  354MOL0     H48785   0.946   2.528   9.303  1.9675 -1.5161 -1.1921
  354MOL0     H48786   0.951   2.397   9.186 -0.7711  3.6928 -2.4380
  354MOL0     H48787   0.887   2.357   9.474  1.2157 -2.0628  1.6173
  354MOL0     H48788   0.922   2.224   9.358 -0.1898 -0.0972  0.4704
  354MOL0     H48789   1.150   2.283   9.344 -2.3943 -0.7487 -0.2998
  354MOL0     H48790   1.130   2.422   9.454 -0.0673 -0.5001  3.2172
  354MOL0     H48791   1.084   2.318   9.635  2.8559 -1.0157  3.0916
  354MOL0     H48792   1.049   2.162   9.556 -1.5137  1.8193 -0.8262
  354MOL0     H48793   1.334   2.290   9.551  0.2554 -0.4013 -0.4987
  354MOL0     H48794   1.283   2.125   9.516 -3.3108 -0.4847 -0.9987
  354MOL0     H48795   1.393   2.134   9.741  0.6899  1.3210 -0.9602
  354MOL0     H48796   1.261   2.249   9.796 -1.4160 -0.5950  0.4744
  354MOL0     H48797   1.188   1.991   9.657 -0.4900  0.4492 -0.1575
  354MOL0     H48798   1.095   2.062   9.779 -0.6262  0.1752 -1.5172
  354MOL0     H48799   1.361   1.919   9.853  0.0757 -0.9495 -2.0040
  354MOL0     H48800   1.259   2.012   9.960  0.8385 -0.4947  0.4738
  354MOL0     H48801   1.005   1.830   9.769 -0.0473 -0.0000 -1.2564
  354MOL0     H48802   0.829   1.623   9.973  1.3255  0.8706  0.5278
  354MOL0     H48803   0.936   1.488   9.925 -1.2229  0.9961  6.4559
  354MOL0     H48804   0.803   1.694   9.751  0.1027  0.5047  3.5207
  354MOL0     H48805   0.913   1.558   9.688  0.5845 -1.2007  1.2318
  354MOL0     H48806   0.739   1.382   9.768 -4.7849 -2.0137 -1.8450
  354MOL0     H48807   0.653   1.504   9.851 -0.7930  0.5424 -0.6224
  354MOL0     H48808   0.685   1.497   9.545  1.0111 -0.7389  1.0557
  354MOL0     H48809   0.544   1.429   9.628  0.6856  0.3453  0.6278
  354MOL0     H48810   0.469   1.863   9.732 -0.1048 -0.3465 -2.6400
  354MOL0     H48811   0.151   1.963   9.809  0.5447  0.3871 -1.9529
  354MOL0     H48812   0.321   2.019   9.777  0.7501  1.2134  0.2243
  354MOL0     H48813   0.255   2.002   9.943 -1.6290  0.2612 -0.5198
  354MOL0     H48814  -0.034   1.732  10.202  0.3029  0.1710  0.8018
  354MOL0     H48815  -0.252   1.724  10.334 -0.8752 -1.9158  0.5014
  354MOL0     H48816  -0.650   1.709  10.307  0.9592 -1.3148  0.9039
  354MOL0     H48817  -0.495   1.788  10.350  2.2055  0.0803 -1.0888
  354MOL0     H48818  -0.472   1.834  10.103 -0.3233  0.8901 -1.0453
  354MOL0     H48819  -0.622   1.764  10.068 -1.0166  1.0638  0.7320
  354MOL0     H48820  -0.634   2.011  10.082 -0.2835  0.6954 -0.2651
  354MOL0     H48821  -0.609   2.016  10.257 -0.0999  1.1335 -0.3472
  354MOL0     H48822  -0.829   1.877  10.277 -1.0038 -0.3614 -0.6812
  354MOL0     H48823  -0.826   1.870  10.100 -0.5903  0.2266 -0.2979
  354MOL0     H48824  -0.829   2.146  10.236 -1.1536  1.1106 -0.8946
  354MOL0     H48825  -0.887   2.118  10.074 -3.5041 -0.0931  0.3829
  354MOL0     H48826  -1.057   2.161  10.238 -1.1288 -1.0322  1.3644
  354MOL0     H48827  -1.018   2.012  10.327  3.5964 -0.2550 -0.6511
  354MOL0     H48828  -1.082   1.858  10.139 -1.1670 -0.8622  0.1827
  354MOL0     H48829  -1.105   2.004  10.034 -1.1619 -1.1840  0.0230
  354MOL0     H48830  -1.309   1.887  10.142 -1.3834  1.1371  0.2110
  354MOL0     H48831  -1.308   2.065  10.140 -0.8996  0.1781  1.0718
  354MOL0     H48832  -0.416   1.471  10.025  0.9738 -2.8357  2.7391
  354MOL0     H48833  -0.204   1.490   9.903 -0.4619  1.2498 -0.2172
  354MOL0     H48834   0.205   1.480   9.889  0.5462 -1.7098 -0.4001
  354MOL0     H48835   0.390   1.443   9.770  0.3814  0.3496  1.3571
  354MOL0     H48836   0.842   2.673   9.202 -0.0826  1.7435 -1.3018
  354MOL0     H48837   0.711   2.810   9.037 -0.6197  2.2746  1.6959
  354MOL0     H48838   0.122   2.813   8.880 -2.5677  1.8023  0.7329
  354MOL0     H48839   0.013   2.981   8.767 -0.4178  0.2826  0.8920
  354MOL0     H48840  -0.058   3.212   8.751  2.4472 -1.2096 -2.7561
  354MOL0     H48841   0.047   3.336   8.851  2.8777  0.5118  0.2294
  354MOL0     H48842  -0.032   3.357   8.555  1.5216  0.1942 -0.1299
  354MOL0     H48843   0.040   3.480   8.659  0.3738  0.6946  2.6836
  354MOL0     H48844  -0.184   3.425   8.806 -2.4941  0.1909 -0.1328
  354MOL0     H48845  -0.171   3.558   8.703 -0.2450  0.3525 -0.6895
  354MOL0     H48846  -0.373   3.424   8.661 -0.7369 -1.3277 -0.6249
  354MOL0     H48847  -0.273   3.291   8.607  0.1251 -0.6349 -0.0328
  354MOL0     H48848  -0.280   3.571   8.275 -0.3252 -0.8366 -0.0317
  354MOL0     H48849   0.349   3.241   8.822  1.5899 -0.4597  1.0365
  354MOL0     H48850   0.559   3.144   8.912  1.3592 -1.2127 -0.0776
  354MOL0     H48851   0.491   3.112   9.075  1.3393 -0.2740  0.2790
  354MOL0     H48852   0.570   2.983   8.984  0.5604  0.3553  1.8361
  355MOL0     O48853   0.009  10.358  11.388 -0.1477 -0.7652  0.4257
  355MOL0     C48854  -0.047  10.258  11.430  0.2311  0.0581  0.1671
  355MOL0     O48855   0.011  10.163  11.505 -0.0612  0.0052  0.4748
  355MOL0     C48856   0.123  10.208  11.572  0.1599  0.0635  1.0844
  355MOL0     C48857   0.114  10.267  11.695  0.6191  0.5854 -0.0522
  355MOL0     C48858   0.224  10.306  11.763 -0.1673  0.6235  0.2414
  355MOL0     C48859   0.352  10.277  11.707 -0.4762 -0.1264  0.4567
  355MOL0     O48860   0.453  10.337  11.768 -0.5216 -0.2383  0.5792
  355MOL0     C48861   0.591  10.311  11.738 -0.0013 -0.2260 -0.7728
  355MOL0     C48862   0.646  10.386  11.623 -0.5792  0.3548  0.2980
  355MOL0     C48863   0.792  10.384  11.632 -0.3480 -0.6527  0.3580
  355MOL0     C48864   0.851  10.420  11.490 -1.1871 -0.4049 -0.3167
  355MOL0     C48865   1.012  10.425  11.487  0.4449  0.0673 -0.9586
  355MOL0     C48866   1.056  10.279  11.465  1.0852 -0.7163 -0.6520
  355MOL0     C48867   1.203  10.275  11.476  0.2156 -1.1838 -0.2330
  355MOL0     C48868   1.264  10.300  11.613 -0.2564 -0.4233 -0.4454
  355MOL0     N48869   1.408  10.275  11.594 -0.5164  0.0382 -0.2209
  355MOL0     C48870   1.508  10.373  11.569  0.0786 -1.4602  0.6176
  355MOL0     C48871   1.625  10.316  11.604 -0.4923 -0.5838  0.5790
  355MOL0     C48872   1.759  10.380  11.605  0.0572 -0.0338 -0.1716
  355MOL0     C48873   1.773  10.480  11.722  1.1228  0.0577 -0.2428
  355MOL0     C48874   1.744  10.439  11.867 -0.1137  0.2501  0.2574
  355MOL0     C48875   1.851  10.358  11.931  0.0561  0.6739 -0.4625
  355MOL0     O48876   1.810  10.305  12.058  0.2171 -1.2240  0.5095
  355MOL0     C48877   1.898  10.233  12.133 -0.3807 -0.0350 -0.4520
  355MOL0     C48878   2.044  10.217  12.111  0.9190  0.5018 -0.3095
  355MOL0     C48879   2.125  10.146  12.204 -0.1796  0.6670 -0.0274
  355MOL0     C48880   2.272  10.129  12.172  0.3667 -0.1624 -0.0566
  355MOL0     C48881   2.056  10.088  12.312  0.3739 -0.2907  0.0510
  355MOL0     C48882   2.126  10.008  12.417  0.2019 -0.4983 -0.9769
  355MOL0     O48883   2.257   9.973  12.402  0.4309 -0.0967  0.2050
  355MOL0     C48884   2.329   9.893  12.485  0.5158 -0.1816  0.8332
  355MOL0     C48885   2.468   9.912  12.470 -0.7877  0.1938  0.0560
  355MOL0     C48886   2.560   9.835  12.543  0.4880  0.2049 -0.0716
  355MOL0     C48887   2.511   9.748  12.639  0.4835 -0.1966 -1.1510
  355MOL0     O48888   2.597   9.671  12.724 -0.6501 -0.3042  0.9857
  355MOL0     C48889   2.725   9.735  12.744  0.1195  1.9550  0.6524
  355MOL0     C48890   2.783   9.711  12.880 -0.4154 -0.3365 -0.3186
  355MOL0     C48891   2.907   9.796  12.909  0.0234  0.3586 -0.3630
  355MOL0     C48892   3.034   9.732  12.853  0.5593 -1.0058 -1.2950
  355MOL0     C48893   3.164   9.814  12.873 -0.2011  0.1022  0.5178
  355MOL0     C48894   3.283   9.756  12.792  1.2229 -0.6003 -0.2145
  355MOL0     C48895   3.419   9.828  12.804  0.0952  0.6063 -0.1246
  355MOL0     C48896   3.513   9.764  12.710  0.4013  0.3513 -1.1219
  355MOL0    Cl48897   3.675   9.833  12.747 -0.0443 -0.1863 -0.0263
  355MOL0     C48898   2.368   9.732  12.664  0.2788  0.7583  0.3808
  355MOL0     C48899   2.279   9.799  12.582  0.5475 -1.0927  0.0427
  355MOL0     O48900   2.060   9.976  12.515 -0.1217 -0.4684 -0.2637
  355MOL0     C48901   1.916  10.100  12.326 -0.7261  0.2455  0.0938
  355MOL0     C48902   1.841  10.175  12.238  0.2582  0.2069 -0.5544
  355MOL0     N48903   1.600  10.186  11.658  0.0679 -0.0565  0.5258
  355MOL0     N48904   1.474  10.161  11.639 -0.4321  0.0158  0.1588
  355MOL0     C48905   0.370  10.207  11.585  1.0067 -0.2438 -0.0885
  355MOL0     C48906   0.244  10.170  11.522 -0.3481 -0.1730  0.2022
  355MOL0     C48907  -0.174  10.211  11.356 -0.4026 -0.6542 -0.0433
  355MOL0     C48908  -0.200  10.078  11.334 -0.1549  0.0389 -0.4475
  355MOL0     C48909  -0.302  10.037  11.252  0.4799  0.4004 -1.0545
  355MOL0     C48910  -0.385  10.130  11.190 -0.1319  0.7309  0.5362
  355MOL0     O48911  -0.483  10.082  11.107 -1.0216 -0.1022  0.4674
  355MOL0     C48912  -0.598  10.164  11.066 -0.5978  0.2388  0.6205
  355MOL0     C48913  -0.725  10.117  11.138 -0.7960 -0.2292  0.0803
  355MOL0     C48914  -0.837  10.220  11.145  0.5443 -0.5270 -0.2579
  355MOL0     C48915  -0.957  10.164  11.228  0.1380  0.7848 -0.3854
  355MOL0     C48916  -1.014  10.052  11.149  0.1712 -0.5290 -0.3348
  355MOL0     C48917  -1.050   9.969  11.074 -0.3294  0.2521  0.1925
  355MOL0     C48918  -0.373  10.265  11.222 -0.1953  0.1773  0.6797
  355MOL0     C48919  -0.277  10.308  11.320 -0.1972  0.2953 -0.0598
  355MOL0     C48920  -0.274  10.455  11.369 -0.5673 -0.5359 -0.1639
  355MOL0     H48921   0.017  10.303  11.728 -0.2174 -0.0531 -1.6969
  355MOL0     H48922   0.210  10.365  11.853 -0.0151  0.2254  0.5290
  355MOL0     H48923   0.605  10.204  11.721  0.4120  0.2419 -3.9585
  355MOL0     H48924   0.638  10.336  11.834 -1.4982 -0.2826 -0.0036
  355MOL0     H48925   0.629  10.331  11.531  2.4631 -0.4763  0.1198
  355MOL0     H48926   0.605  10.488  11.621  0.7547  0.9134  0.0083
  355MOL0     H48927   0.829  10.451  11.710 -1.0481 -0.7440  0.7840
  355MOL0     H48928   0.822  10.284  11.662 -0.5142 -0.1063  2.5330
  355MOL0     H48929   0.812  10.358  11.408  0.0812  0.4858 -1.6458
  355MOL0     H48930   0.807  10.518  11.472 -0.1409 -0.3415 -2.9703
  355MOL0     H48931   1.040  10.462  11.587 -0.0405  0.0929 -0.8321
  355MOL0     H48932   1.056  10.502  11.422 -0.3743  0.5992 -0.8909
  355MOL0     H48933   1.011  10.206  11.533  0.8962 -2.5454 -2.6255
  355MOL0     H48934   1.020  10.247  11.366  0.4676  0.8725 -0.9815
  355MOL0     H48935   1.251  10.349  11.412 -0.9575 -1.3033 -1.2972
  355MOL0     H48936   1.232  10.174  11.444  1.0710 -1.6051  1.7086
  355MOL0     H48937   1.234  10.398  11.652 -0.3875 -0.8632  0.5902
  355MOL0     H48938   1.224  10.228  11.686  1.1896 -1.6330 -0.7913
  355MOL0     H48939   1.489  10.477  11.542  2.7066 -0.9914  0.2867
  355MOL0     H48940   1.776  10.425  11.507  1.7083 -1.4751 -0.6006
  355MOL0     H48941   1.838  10.305  11.619  0.5448  0.3203 -0.9912
  355MOL0     H48942   1.862  10.543  11.718  0.5239  0.9217 -0.2095
  355MOL0     H48943   1.697  10.553  11.692  1.2714 -0.2196 -1.3502
  355MOL0     H48944   1.749  10.534  11.921  0.6598  0.1395  0.3966
  355MOL0     H48945   1.653  10.377  11.863 -0.7589  1.2283 -2.7622
  355MOL0     H48946   1.868  10.281  11.855  0.6477 -0.2077  0.5342
  355MOL0     H48947   1.936  10.426  11.932  0.7662 -0.1205 -2.4374
  355MOL0     H48948   2.091  10.262  12.024 -2.2763  1.3257 -1.7586
  355MOL0     H48949   2.299  10.213  12.107  1.2959  1.0008  1.7606
  355MOL0     H48950   2.292  10.034  12.121  0.6703 -1.5356  2.4714
  355MOL0     H48951   2.341  10.138  12.256  1.8551  0.9842 -1.3398
  355MOL0     H48952   2.504   9.985  12.398  1.2158 -0.6173  0.1676
  355MOL0     H48953   2.663   9.837  12.511  0.5140  0.7253  0.0390
  355MOL0     H48954   2.801   9.687  12.681 -0.6458 -1.9401  2.4002
  355MOL0     H48955   2.735   9.842  12.723  3.1709  1.4137 -1.3631
  355MOL0     H48956   2.710   9.744  12.955  2.2887  1.8239  1.5724
  355MOL0     H48957   2.792   9.602  12.880 -1.8509 -0.4737 -0.5725
  355MOL0     H48958   2.912   9.801  13.019  0.7811  0.8265 -0.4167
  355MOL0     H48959   2.893   9.897  12.870 -0.1724  0.7019  0.5508
  355MOL0     H48960   3.010   9.718  12.748 -0.5004 -1.7828 -0.9648
  355MOL0     H48961   3.045   9.631  12.893 -0.0414 -1.1164 -1.3976
  355MOL0     H48962   3.145   9.914  12.834  0.1466  0.4495  1.2352
  355MOL0     H48963   3.186   9.833  12.978 -2.5442  1.1565  0.8924
  355MOL0     H48964   3.259   9.769  12.686 -2.1579  2.8840  0.7279
  355MOL0     H48965   3.295   9.649  12.811  0.0097 -1.2075 -2.4667
  355MOL0     H48966   3.466   9.817  12.902  0.1651 -2.6555 -0.4229
  355MOL0     H48967   3.423   9.931  12.766  1.6076  1.0014  1.0302
  355MOL0     H48968   3.478   9.801  12.614 -1.0120  2.1172  0.0178
  355MOL0     H48969   3.508   9.655  12.702  1.4813 -0.0070  1.7749
  355MOL0     H48970   2.328   9.673  12.746  0.2672 -0.8898 -0.7588
  355MOL0     H48971   2.172   9.779  12.579  0.3597 -0.0634 -0.5129
  355MOL0     H48972   1.862  10.054  12.408 -1.5974  0.2007 -0.4978
  355MOL0     H48973   1.738  10.196  12.266  1.2448 -0.0191  4.0664
  355MOL0     H48974   0.457  10.189  11.523 -0.2096 -1.7417 -1.4608
  355MOL0     H48975   0.249  10.117  11.427  0.5304 -1.1861  0.7867
  355MOL0     H48976  -0.123  10.008  11.366  1.7296  0.9699 -2.6971
  355MOL0     H48977  -0.320   9.932  11.229 -1.2348  0.2011  0.9263
  355MOL0     H48978  -0.586  10.271  11.085 -0.0117 -0.0081  1.7074
  355MOL0     H48979  -0.614  10.139  10.961  3.1484 -1.6677  0.3215
  355MOL0     H48980  -0.700  10.087  11.240  1.9599  0.6220 -0.2586
  355MOL0     H48981  -0.767  10.030  11.086 -2.8054  0.5074  0.3968
  355MOL0     H48982  -0.795  10.301  11.205 -1.1345  1.6163 -1.8013
  355MOL0     H48983  -0.863  10.253  11.044  1.9977  2.1606  0.1626
  355MOL0     H48984  -1.024  10.246  11.256  3.0931  2.8875  1.1066
  355MOL0     H48985  -0.921  10.116  11.320  2.7777 -0.7025 -2.0587
  355MOL0     H48986  -1.079   9.885  11.014  1.0115 -0.3563  0.3693
  355MOL0     H48987  -0.428  10.352  11.189  2.7255  1.8645 -0.0219
  355MOL0     H48988  -0.198  10.513  11.316  0.0588  1.0135  2.2882
  355MOL0     H48989  -0.372  10.501  11.364 -0.6773 -0.7951 -0.4587
  355MOL0     H48990  -0.241  10.458  11.473 -0.6226 -2.4360 -0.0460
  356MOL0     O48991   9.501   6.405   8.575  0.5275  0.0112 -0.0839
  356MOL0     C48992   9.498   6.387   8.452  0.7074  0.2471 -0.3354
  356MOL0     O48993   9.601   6.402   8.364  0.6148  0.1679 -0.1645
  356MOL0     C48994   9.709   6.477   8.411 -0.6570  0.3648 -0.2770
  356MOL0     C48995   9.709   6.620   8.401  0.6051  1.4477 -0.5323
  356MOL0     C48996   9.826   6.689   8.428 -0.9829  0.3219 -0.9412
  356MOL0     C48997   9.938   6.624   8.477  0.9672  0.0583 -0.8456
  356MOL0     O48998  10.045   6.698   8.486  0.7736 -0.4932 -0.2064
  356MOL0     C48999  10.148   6.676   8.582 -0.4792  0.0842 -0.5256
  356MOL0     C49000  10.232   6.792   8.582 -0.3398 -0.1380 -0.6684
  356MOL0     C49001  10.365   6.785   8.663  0.8017 -0.2640  0.5610
  356MOL0     C49002  10.388   6.930   8.715  0.2297 -0.6457  0.0417
  356MOL0     C49003  10.463   6.919   8.849  0.5642  0.0768  0.4769
  356MOL0     C49004  10.577   6.816   8.857 -0.0433 -0.3071  0.0740
  356MOL0     C49005  10.681   6.853   8.751  0.0820  0.6222 -1.2067
  356MOL0     C49006  10.793   6.750   8.754 -1.0333 -0.5471  0.2041
  356MOL0     N49007  10.762   6.607   8.712  0.0469 -0.5640  0.3303
  356MOL0     C49008  10.688   6.566   8.603 -0.3614  0.2435  0.8765
  356MOL0     C49009  10.682   6.432   8.617 -0.2343 -0.1008  0.6590
  356MOL0     C49010  10.609   6.329   8.537 -0.5546  0.2204  0.0093
  356MOL0     C49011  10.463   6.358   8.503 -0.9885 -0.3572 -0.0577
  356MOL0     C49012  10.362   6.332   8.616  0.8107 -0.5179 -0.1003
  356MOL0     C49013  10.266   6.222   8.578 -0.1477  0.6556  0.4891
  356MOL0     O49014  10.185   6.212   8.688  0.0126  0.0085 -0.8840
  356MOL0     C49015  10.062   6.160   8.677  0.0914 -0.4718  0.5246
  356MOL0     C49016  10.001   6.101   8.563  0.9582 -0.5191  0.1441
  356MOL0     C49017   9.863   6.073   8.557  0.1775  0.3428  0.0014
  356MOL0     C49018   9.819   6.009   8.430  0.8871 -0.1935 -0.2718
  356MOL0     C49019   9.782   6.087   8.667 -0.2123 -0.3221 -0.3826
  356MOL0     C49020   9.638   6.060   8.681 -0.2097  0.4378  0.4689
  356MOL0     O49021   9.591   6.027   8.812 -0.7468 -0.4171  0.0520
  356MOL0     C49022   9.456   6.029   8.820  1.0467 -0.3263 -0.8269
  356MOL0     C49023   9.399   6.129   8.908 -0.2961  0.4689 -0.0434
  356MOL0     C49024   9.262   6.125   8.940 -1.2876  0.3952  0.8439
  356MOL0     C49025   9.176   6.030   8.887  0.0771 -0.7131  0.3363
  356MOL0     O49026   9.042   6.020   8.920  0.7380  0.1843 -0.3367
  356MOL0     C49027   9.021   6.006   9.053 -0.4209  0.8112  0.1489
  356MOL0     C49028   8.894   5.918   9.067 -0.5121 -0.5057 -0.0957
  356MOL0     C49029   8.769   5.984   8.986 -0.6960 -0.4457 -0.1359
  356MOL0     C49030   8.646   5.908   9.039 -0.7344 -0.5823  0.4150
  356MOL0     C49031   8.531   5.977   8.978  0.2629  0.2244 -0.7678
  356MOL0     C49032   8.399   5.912   9.023 -0.0310 -0.2649  0.2433
  356MOL0     C49033   8.280   5.983   8.947  0.6374  0.3826 -0.7847
  356MOL0     C49034   8.135   5.939   8.983  0.3080  1.0903 -0.1046
  356MOL0    Cl49035   8.085   5.800   8.884 -0.3466  0.0715  0.0662
  356MOL0     C49036   9.231   5.936   8.797  0.4098 -0.7717 -0.6668
  356MOL0     C49037   9.369   5.936   8.763  0.1173  0.2442  0.4161
  356MOL0     O49038   9.569   6.070   8.582  0.8497 -0.0967 -0.7666
  356MOL0     C49039   9.851   6.136   8.786  0.4750 -0.0928  0.2930
  356MOL0     C49040   9.985   6.168   8.791 -0.6575  0.3925  0.1655
  356MOL0     N49041  10.751   6.393   8.728 -0.4452 -0.0981  0.5537
  356MOL0     N49042  10.802   6.502   8.780 -0.6727  0.2110  0.0889
  356MOL0     C49043   9.934   6.484   8.501 -0.0611 -0.1887  0.8366
  356MOL0     C49044   9.819   6.414   8.463 -1.0736  0.3756 -0.2206
  356MOL0     C49045   9.367   6.361   8.381 -0.9141  0.0824  0.7744
  356MOL0     C49046   9.367   6.388   8.245  0.1249  0.0252 -0.5823
  356MOL0     C49047   9.255   6.360   8.162 -0.1847  0.2508  1.0257
  356MOL0     C49048   9.135   6.320   8.219 -0.0697  0.0336  0.1296
  356MOL0     O49049   9.024   6.312   8.130 -0.6049  0.1551  0.6244
  356MOL0     C49050   8.890   6.281   8.176  0.1016  0.1749  0.5253
  356MOL0     C49051   8.794   6.271   8.059 -0.1928 -0.2588  0.5937
  356MOL0     C49052   8.819   6.136   7.982 -0.4191 -1.2416 -0.1439
  356MOL0     C49053   8.808   5.994   8.046 -0.0539  0.2718  0.9856
  356MOL0     C49054   8.668   5.980   8.105  0.1654 -0.9974  0.5098
  356MOL0     C49055   8.553   5.970   8.139 -0.1550  1.2105 -0.4223
  356MOL0     C49056   9.137   6.288   8.352  0.1327  0.2233  0.0285
  356MOL0     C49057   9.250   6.306   8.437  0.7084  0.2285 -0.4141
  356MOL0     C49058   9.233   6.273   8.588  0.2357  0.2655  0.2262
  356MOL0     H49059   9.627   6.669   8.350  0.9032  2.1143 -0.3827
  356MOL0     H49060   9.822   6.794   8.399 -0.8109 -0.4688 -4.1765
  356MOL0     H49061  10.209   6.590   8.552 -0.3659 -1.0162  2.5205
  356MOL0     H49062  10.096   6.657   8.676 -5.9371  1.2156 -2.9370
  356MOL0     H49063  10.267   6.822   8.483  1.9485  3.0625  0.9435
  356MOL0     H49064  10.161   6.873   8.602 -0.8063  0.2390 -3.4483
  356MOL0     H49065  10.358   6.700   8.731  0.9543 -0.7959 -0.0804
  356MOL0     H49066  10.445   6.757   8.595 -1.3269  0.5767 -2.5235
  356MOL0     H49067  10.445   6.985   8.640  0.6169 -1.3678 -0.2016
  356MOL0     H49068  10.299   6.992   8.727  2.3396  2.9832 -1.5627
  356MOL0     H49069  10.382   6.912   8.923 -1.9917  3.1963 -1.7114
  356MOL0     H49070  10.508   7.018   8.862  2.1184 -0.8465  2.5654
  356MOL0     H49071  10.614   6.830   8.959 -7.7233  0.3436  3.5390
  356MOL0     H49072  10.531   6.717   8.851 -1.4305 -0.2463  4.9622
  356MOL0     H49073  10.729   6.948   8.780  0.0518  0.1362  0.5551
  356MOL0     H49074  10.636   6.853   8.652  1.2658  1.5191 -1.7660
  356MOL0     H49075  10.879   6.785   8.695  0.4592  1.6087  3.3456
  356MOL0     H49076  10.829   6.734   8.856  1.1386 -3.1176 -0.8307
  356MOL0     H49077  10.625   6.623   8.535  0.3190 -0.1308 -0.1066
  356MOL0     H49078  10.623   6.231   8.582 -1.3644  0.5894  1.1104
  356MOL0     H49079  10.664   6.327   8.443  0.3207 -1.3817  0.5311
  356MOL0     H49080  10.465   6.466   8.488  0.7817 -0.5441 -1.6265
  356MOL0     H49081  10.422   6.304   8.416  1.9993 -2.1460 -0.5111
  356MOL0     H49082  10.392   6.333   8.721 -2.5777  0.8891  1.0076
  356MOL0     H49083  10.297   6.420   8.620 -0.1381 -1.2475  2.3366
  356MOL0     H49084  10.210   6.241   8.486 -1.9766 -1.0004  1.1834
  356MOL0     H49085  10.311   6.122   8.576 -1.7513 -0.0946  0.3343
  356MOL0     H49086  10.056   6.089   8.470  0.3015 -2.5937 -0.0163
  356MOL0     H49087   9.881   6.029   8.343  1.4816 -4.9434 -1.2081
  356MOL0     H49088   9.717   6.035   8.399  1.2030  1.6662  0.1574
  356MOL0     H49089   9.827   5.900   8.442 -1.1742 -0.3141  0.4522
  356MOL0     H49090   9.457   6.207   8.956 -1.0068  0.4103  0.9430
  356MOL0     H49091   9.218   6.200   9.005  0.0585  2.1600 -0.1813
  356MOL0     H49092   9.095   5.954   9.114 -0.7005 -1.2807 -1.1927
  356MOL0     H49093   9.003   6.101   9.104 -0.8750 -0.0145  1.6016
  356MOL0     H49094   8.921   5.814   9.044  2.5455  0.3329 -0.7453
  356MOL0     H49095   8.875   5.909   9.175 -2.4260 -3.3529 -0.5510
  356MOL0     H49096   8.777   5.965   8.879 -4.6131 -1.9197 -0.3368
  356MOL0     H49097   8.761   6.092   9.003  4.9085 -0.0067  1.8550
  356MOL0     H49098   8.639   5.911   9.149  1.1918  1.2100  0.5611
  356MOL0     H49099   8.642   5.806   9.001 -0.7319 -1.2846  2.1803
  356MOL0     H49100   8.543   6.083   9.000 -0.3063  0.3715 -1.1420
  356MOL0     H49101   8.530   5.971   8.869 -0.0094 -0.0712 -0.7509
  356MOL0     H49102   8.373   5.929   9.128 -0.4481 -1.6458  0.3798
  356MOL0     H49103   8.405   5.803   9.026 -3.2601 -0.5503  0.3124
  356MOL0     H49104   8.290   5.957   8.842  0.2353  0.6517 -0.8892
  356MOL0     H49105   8.276   6.091   8.962 -0.9169  0.1424  0.9080
  356MOL0     H49106   8.069   6.024   8.965 -1.8766  0.1011  2.6692
  356MOL0     H49107   8.122   5.914   9.088  0.4225 -0.1388 -0.3655
  356MOL0     H49108   9.167   5.867   8.742  0.6724 -2.1717  0.7125
  356MOL0     H49109   9.415   5.864   8.696  0.2685  2.4265 -1.9726
  356MOL0     H49110   9.796   6.163   8.876  0.6076  0.3717  0.2417
  356MOL0     H49111  10.019   6.208   8.886 -1.1140 -0.2597  0.6188
  356MOL0     H49112  10.024   6.435   8.538  1.0432 -0.2869 -1.7534
  356MOL0     H49113   9.816   6.306   8.473  1.1803 -0.1963 -3.7784
  356MOL0     H49114   9.452   6.424   8.187  0.6286  0.5287  0.4521
  356MOL0     H49115   9.264   6.381   8.056  0.9581 -0.5621  0.9562
  356MOL0     H49116   8.884   6.191   8.237  3.1013 -0.9370 -0.6158
  356MOL0     H49117   8.869   6.375   8.227  0.8786  2.0832 -2.4224
  356MOL0     H49118   8.808   6.347   7.982  2.4166  0.8144  2.0111
  356MOL0     H49119   8.693   6.279   8.101  0.1415 -1.2374  1.6252
  356MOL0     H49120   8.759   6.145   7.891  1.2398 -0.2876 -1.2182
  356MOL0     H49121   8.921   6.135   7.941 -1.7136 -0.9993 -3.6656
  356MOL0     H49122   8.880   5.981   8.128  0.0898 -2.1003  0.5610
  356MOL0     H49123   8.826   5.918   7.969  0.3593 -0.0295  1.3723
  356MOL0     H49124   8.452   5.964   8.174 -0.6611 -3.1804 -2.0438
  356MOL0     H49125   9.051   6.257   8.410 -0.0517 -1.4181 -1.0560
  356MOL0     H49126   9.324   6.221   8.621  2.1537  3.0686 -0.2857
  356MOL0     H49127   9.232   6.371   8.637  0.2270  0.8345 -0.8684
  356MOL0     H49128   9.143   6.214   8.605  1.2960 -0.8994  2.1303
  357MOL0     O49129   3.917   2.371   4.684 -0.3606  0.8185 -0.4594
  357MOL0     C49130   3.920   2.303   4.785 -0.5345  1.3149 -0.7011
  357MOL0     O49131   3.994   2.335   4.890 -0.3282  0.4854 -0.5561
  357MOL0     C49132   4.066   2.456   4.886 -0.0734 -0.3645  0.5174
  357MOL0     C49133   4.162   2.483   4.787 -0.7537  0.3035 -0.2479
  357MOL0     C49134   4.244   2.596   4.788 -0.7299  0.4238  0.1762
  357MOL0     C49135   4.233   2.682   4.901 -0.1025  0.2095  0.4445
  357MOL0     O49136   4.295   2.805   4.882 -0.3077  0.6536  0.1541
  357MOL0     C49137   4.261   2.918   4.957  0.0221  0.9858 -0.3792
  357MOL0     C49138   4.355   3.034   4.947  0.9013 -0.3976  1.2403
  357MOL0     C49139   4.310   3.148   5.040  0.5139  0.4068 -0.3589
  357MOL0     C49140   4.390   3.271   5.018  0.1802 -0.6514 -0.6119
  357MOL0     C49141   4.542   3.266   5.028  0.3366  0.8491 -1.0651
  357MOL0     C49142   4.595   3.204   5.164  0.4101 -0.2251 -1.0639
  357MOL0     C49143   4.746   3.229   5.169 -0.1258  0.0593 -0.1426
  357MOL0     C49144   4.783   3.376   5.196 -0.0039 -0.5979 -0.1685
  357MOL0     N49145   4.922   3.391   5.245 -0.0237  0.5434 -0.6682
  357MOL0     C49146   4.971   3.397   5.374 -0.9237 -0.7809  0.4872
  357MOL0     C49147   5.106   3.410   5.361  0.5449  0.1711 -0.5598
  357MOL0     C49148   5.197   3.394   5.483  0.1526 -0.9482 -0.1477
  357MOL0     C49149   5.325   3.482   5.459  0.4295 -0.0392 -0.8032
  357MOL0     C49150   5.422   3.479   5.570 -0.4121 -1.1254  0.2597
  357MOL0     C49151   5.375   3.545   5.694 -0.0107  0.3285  0.3527
  357MOL0     O49152   5.425   3.492   5.811  0.3652  0.1114  0.1145
  357MOL0     C49153   5.518   3.562   5.878 -0.7156 -0.4165  0.6617
  357MOL0     C49154   5.485   3.632   5.988  0.9811 -0.2623 -0.6870
  357MOL0     C49155   5.589   3.703   6.059  0.4385 -0.0243 -0.3496
  357MOL0     C49156   5.555   3.781   6.187  0.0687  0.3853 -0.2835
  357MOL0     C49157   5.712   3.705   6.005  0.2418  0.2024  0.1639
  357MOL0     C49158   5.833   3.776   6.068  0.4085  1.1936 -0.5399
  357MOL0     O49159   5.823   3.909   6.086 -0.3388  0.0691  0.2881
  357MOL0     C49160   5.910   3.977   6.174 -0.5020  0.4892 -0.4559
  357MOL0     C49161   6.036   4.018   6.133  0.0512 -0.3101 -0.3247
  357MOL0     C49162   6.113   4.103   6.216 -0.6486 -0.9338  0.3846
  357MOL0     C49163   6.059   4.141   6.340 -0.1247  1.0001 -0.3569
  357MOL0     O49164   6.125   4.215   6.425 -0.2034 -0.8583 -0.1795
  357MOL0     C49165   6.209   4.149   6.528 -0.1876 -0.0488  0.0127
  357MOL0     C49166   6.220   4.237   6.655 -0.2414 -0.4521 -0.6389
  357MOL0     C49167   6.291   4.377   6.624  0.1903  0.5904 -0.4542
  357MOL0     C49168   6.360   4.430   6.758  0.1557  0.2414 -0.3973
  357MOL0     C49169   6.470   4.537   6.729  0.8149  2.1240 -0.6362
  357MOL0     C49170   6.546   4.590   6.854  1.2756  0.3803  0.4647
  357MOL0     C49171   6.444   4.660   6.954 -0.1404 -0.2491 -0.0346
  357MOL0     C49172   6.523   4.758   7.044  0.1949 -0.5029 -0.4165
  357MOL0    Cl49173   6.581   4.897   6.951  0.0061  0.2533 -0.2655
  357MOL0     C49174   5.941   4.078   6.379 -0.5116 -0.1837 -0.5032
  357MOL0     C49175   5.863   4.001   6.301 -0.2212 -0.0903  0.1295
  357MOL0     O49176   5.911   3.699   6.128 -0.3426  0.3750  0.1730
  357MOL0     C49177   5.743   3.634   5.894  0.3900  0.5115  0.6603
  357MOL0     C49178   5.644   3.560   5.824 -0.6315 -0.4740 -0.3981
  357MOL0     N49179   5.134   3.417   5.224 -0.4507 -0.3535 -0.5123
  357MOL0     N49180   5.020   3.419   5.161 -0.0687 -0.8458  0.1514
  357MOL0     C49181   4.138   2.652   5.006  0.1810 -0.2121 -0.1874
  357MOL0     C49182   4.057   2.548   4.997 -0.8263  0.1190  0.8607
  357MOL0     C49183   3.841   2.168   4.781  0.3020 -0.4067  0.5257
  357MOL0     C49184   3.756   2.137   4.670 -0.0454  0.1018 -0.4001
  357MOL0     C49185   3.673   2.026   4.670  0.2075  0.9137  0.1725
  357MOL0     C49186   3.669   1.938   4.782 -0.0892  0.8293  0.7572
  357MOL0     O49187   3.581   1.829   4.795 -0.2890 -0.1138 -0.0014
  357MOL0     C49188   3.489   1.812   4.695  0.6899  0.1434  0.0744
  357MOL0     C49189   3.375   1.730   4.744 -0.0857  0.6896  0.3957
  357MOL0     C49190   3.288   1.802   4.849  0.5464 -0.9850  0.7886
  357MOL0     C49191   3.246   1.945   4.823 -0.1721  0.1642  0.1820
  357MOL0     C49192   3.165   2.007   4.928  0.1413 -0.2302 -0.0962
  357MOL0     C49193   3.119   2.068   5.021 -0.3090 -0.4094 -0.0966
  357MOL0     C49194   3.759   1.959   4.882  0.1426 -0.7223 -0.0972
  357MOL0     C49195   3.844   2.065   4.881  0.1069 -0.4445 -0.3678
  357MOL0     C49196   3.950   2.069   4.988 -0.7209 -0.1497 -0.1650
  357MOL0     H49197   4.165   2.413   4.704 -4.7672 -0.6665  0.2375
  357MOL0     H49198   4.317   2.612   4.709 -0.1400 -0.9989  0.4104
  357MOL0     H49199   4.254   2.890   5.063 -0.0105  3.1342  0.2422
  357MOL0     H49200   4.163   2.955   4.929 -2.0991 -2.7747  1.3046
  357MOL0     H49201   4.451   2.990   4.975  0.1877 -2.4295  0.7064
  357MOL0     H49202   4.355   3.075   4.845  4.1449  1.0107  1.7005
  357MOL0     H49203   4.203   3.168   5.030  0.0125 -0.0168  2.9304
  357MOL0     H49204   4.322   3.111   5.142  0.5493  0.7152 -0.2489
  357MOL0     H49205   4.362   3.323   4.927 -1.4104 -0.8443 -0.2596
  357MOL0     H49206   4.361   3.343   5.095  0.0504 -0.7116 -0.6052
  357MOL0     H49207   4.582   3.368   5.032  1.4829  0.4225 -1.0700
  357MOL0     H49208   4.585   3.204   4.947 -0.2565 -2.5990  1.0497
  357MOL0     H49209   4.557   3.254   5.253  2.0487 -0.2999 -0.2966
  357MOL0     H49210   4.586   3.095   5.170 -1.9968 -0.0064  2.3516
  357MOL0     H49211   4.803   3.193   5.084 -1.4912 -0.1789 -0.9813
  357MOL0     H49212   4.782   3.165   5.250 -0.1928  2.1499  1.6570
  357MOL0     H49213   4.788   3.445   5.112  2.9686  1.7875  1.7505
  357MOL0     H49214   4.706   3.420   5.261 -0.1577 -0.0371 -0.7218
  357MOL0     H49215   4.921   3.371   5.467 -1.0218  1.3142  1.0733
  357MOL0     H49216   5.222   3.287   5.487  0.7155 -0.8093  0.0595
  357MOL0     H49217   5.147   3.427   5.575 -1.4128 -3.0786 -0.1242
  357MOL0     H49218   5.371   3.460   5.363  0.6892  1.4676 -1.0492
  357MOL0     H49219   5.286   3.584   5.447  4.4304  1.9653  1.1874
  357MOL0     H49220   5.453   3.379   5.601  1.9792 -0.9064 -1.1655
  357MOL0     H49221   5.512   3.528   5.529 -1.4827 -0.7362 -1.7410
  357MOL0     H49222   5.403   3.649   5.674  1.0437 -0.3607 -2.0265
  357MOL0     H49223   5.267   3.543   5.716 -0.9597  1.0541 -3.5042
  357MOL0     H49224   5.383   3.644   6.023  0.6210 -5.1023  0.5460
  357MOL0     H49225   5.446   3.794   6.183 -0.0199  0.0196  0.6725
  357MOL0     H49226   5.600   3.880   6.199 -0.5390  0.5750  0.5031
  357MOL0     H49227   5.589   3.715   6.267  1.2202 -0.1833 -1.2245
  357MOL0     H49228   6.062   4.002   6.029 -2.0759  1.5609 -1.2457
  357MOL0     H49229   6.208   4.146   6.186 -1.1290  0.8048  1.2304
  357MOL0     H49230   6.178   4.048   6.556  1.6238 -0.8632 -0.7557
  357MOL0     H49231   6.313   4.133   6.497  0.7379  1.4237  2.1441
  357MOL0     H49232   6.130   4.239   6.718  0.6292  0.4338  0.6282
  357MOL0     H49233   6.277   4.180   6.728 -1.9797 -0.2718  0.9315
  357MOL0     H49234   6.217   4.451   6.593 -2.5966 -1.8067  0.1231
  357MOL0     H49235   6.372   4.353   6.554  1.7338  1.3099  0.9979
  357MOL0     H49236   6.406   4.353   6.819  0.7179  1.5438  0.8888
  357MOL0     H49237   6.284   4.486   6.812 -2.0205 -0.0784 -2.9316
  357MOL0     H49238   6.536   4.501   6.650  0.3138  1.0001 -0.5641
  357MOL0     H49239   6.422   4.626   6.688  1.0711  1.2165 -3.0359
  357MOL0     H49240   6.614   4.661   6.806  2.7643 -0.2626  1.5509
  357MOL0     H49241   6.598   4.508   6.904 -0.0243 -1.9619 -1.7685
  357MOL0     H49242   6.401   4.584   7.020 -0.4303 -1.2906 -1.3828
  357MOL0     H49243   6.361   4.699   6.894 -0.1088  0.8807  0.6358
  357MOL0     H49244   6.604   4.696   7.084  0.1075 -1.6974 -1.9886
  357MOL0     H49245   6.472   4.801   7.131  0.2495 -2.3750  0.5812
  357MOL0     H49246   5.916   4.105   6.482  0.4314 -0.7847 -0.1079
  357MOL0     H49247   5.767   3.965   6.334  0.2761 -0.7751  0.8717
  357MOL0     H49248   5.848   3.610   5.881  0.4827 -0.3064  2.5225
  357MOL0     H49249   5.665   3.488   5.746 -1.1160  0.4564 -1.4119
  357MOL0     H49250   4.127   2.718   5.092 -0.1015  1.6125 -1.5533
  357MOL0     H49251   3.986   2.533   5.078 -0.1145  1.2332  1.7237
  357MOL0     H49252   3.754   2.210   4.590 -0.0594 -0.9246 -1.3691
  357MOL0     H49253   3.612   2.017   4.580 -1.2110  1.9672  0.9738
  357MOL0     H49254   3.452   1.904   4.650  0.1213  0.1318  0.5170
  357MOL0     H49255   3.537   1.761   4.610  1.6465  1.4479 -0.1955
  357MOL0     H49256   3.404   1.634   4.787 -4.2047 -1.3987 -0.9400
  357MOL0     H49257   3.311   1.698   4.661  1.3307 -0.1473 -0.4149
  357MOL0     H49258   3.203   1.733   4.844  0.2843 -0.6047 -0.3483
  357MOL0     H49259   3.307   1.791   4.956 -0.5969 -0.3209  1.0761
  357MOL0     H49260   3.185   1.937   4.732 -1.0702 -1.0359  0.8610
  357MOL0     H49261   3.328   2.010   4.792 -1.4451  2.7978  1.9305
  357MOL0     H49262   3.088   2.098   5.119  0.5951 -1.5868  0.5758
  357MOL0     H49263   3.753   1.894   4.969 -1.1590 -0.3675  0.0944
  357MOL0     H49264   3.954   1.978   5.049  1.9172  1.2686  1.9750
  357MOL0     H49265   4.043   2.063   4.930 -0.7242 -1.3474 -0.0674
  357MOL0     H49266   3.942   2.167   5.036 -0.8430  1.2680 -2.9047
  358MOL0     O49267   4.288   7.410  10.408 -0.3509 -0.1144 -0.0173
  358MOL0     C49268   4.370   7.322  10.418  0.2793 -0.2490  0.3740
  358MOL0     O49269   4.470   7.302  10.330 -0.3334  0.1127 -0.4110
  358MOL0     C49270   4.455   7.346  10.199 -1.0369 -0.7597  0.1139
  358MOL0     C49271   4.520   7.461  10.149  0.1015  0.2549 -0.7364
  358MOL0     C49272   4.518   7.500  10.014  0.1406  0.5346 -0.2866
  358MOL0     C49273   4.456   7.411   9.916 -0.6994 -0.5811 -0.6707
  358MOL0     O49274   4.429   7.463   9.784 -0.0082  0.9994  0.3080
  358MOL0     C49275   4.468   7.374   9.675  0.7801 -0.5197  1.0428
  358MOL0     C49276   4.405   7.413   9.539  0.5669  1.6143 -0.2144
  358MOL0     C49277   4.256   7.401   9.536 -0.0285 -0.2208 -1.1557
  358MOL0     C49278   4.211   7.264   9.584 -0.3740  0.3724  0.0717
  358MOL0     C49279   4.058   7.229   9.548 -0.1496 -0.2275 -0.0248
  358MOL0     C49280   3.953   7.285   9.655 -0.3494 -0.1622 -0.0557
  358MOL0     C49281   3.811   7.251   9.616  0.1357  0.3416 -0.0100
  358MOL0     C49282   3.780   7.106   9.566 -0.7203 -1.0551  0.3281
  358MOL0     N49283   3.641   7.078   9.548 -0.1779  0.4724  1.2480
  358MOL0     C49284   3.541   7.164   9.516 -0.0205 -0.6895  0.6464
  358MOL0     C49285   3.424   7.092   9.527 -0.2860 -0.9781  0.8464
  358MOL0     C49286   3.291   7.149   9.482 -0.0105  0.1090  0.4120
  358MOL0     C49287   3.251   7.107   9.336  0.0922 -0.3809  0.1360
  358MOL0     C49288   3.253   6.954   9.309 -0.0452  0.1428  0.5977
  358MOL0     C49289   3.168   6.914   9.179 -1.2209  0.6450 -0.0006
  358MOL0     O49290   3.034   6.922   9.224  0.1080  0.3153 -0.1739
  358MOL0     C49291   2.941   6.863   9.146  0.4365 -0.1038  0.3345
  358MOL0     C49292   2.825   6.803   9.191  0.1815 -0.6876 -0.4051
  358MOL0     C49293   2.725   6.749   9.109 -0.3088 -0.3050  1.2219
  358MOL0     C49294   2.608   6.691   9.179 -0.1774 -0.3874  0.5913
  358MOL0     C49295   2.735   6.759   8.969 -1.0602  0.3903 -1.0172
  358MOL0     C49296   2.627   6.724   8.869 -0.6235  1.4239  0.9045
  358MOL0     O49297   2.647   6.752   8.737 -0.1279 -0.1655 -0.4477
  358MOL0     C49298   2.583   6.680   8.634  0.8204  0.0133 -1.0638
  358MOL0     C49299   2.653   6.697   8.510  0.5955  0.1513 -0.2339
  358MOL0     C49300   2.605   6.631   8.393 -0.1979  0.1697  0.1973
  358MOL0     C49301   2.492   6.556   8.389  1.4467  0.8580 -0.4967
  358MOL0     O49302   2.463   6.486   8.274  0.0812 -0.2384 -0.0917
  358MOL0     C49303   2.385   6.362   8.287 -0.2677  0.2070  0.4571
  358MOL0     C49304   2.378   6.299   8.157  1.0367  0.5929  0.1695
  358MOL0     C49305   2.331   6.153   8.162 -0.3174 -0.0450  0.1654
  358MOL0     C49306   2.409   6.048   8.244  0.8216  0.1565  0.2672
  358MOL0     C49307   2.350   5.911   8.229  0.1802  0.4618  0.0779
  358MOL0     C49308   2.429   5.838   8.116 -0.2997  0.0705  0.3125
  358MOL0     C49309   2.351   5.706   8.092 -0.9203 -0.0961  0.3601
  358MOL0     C49310   2.426   5.623   7.982  0.0658 -0.3571  0.0988
  358MOL0    Cl49311   2.302   5.500   7.921 -0.4471  0.0610 -0.6424
  358MOL0     C49312   2.417   6.538   8.516 -0.7833 -0.0516  0.6320
  358MOL0     C49313   2.464   6.595   8.636 -0.3996  0.3821 -0.3898
  358MOL0     O49314   2.531   6.654   8.907 -0.5734 -0.8622 -0.3365
  358MOL0     C49315   2.855   6.824   8.922 -0.1805 -0.8969  0.1331
  358MOL0     C49316   2.957   6.871   9.003  0.4876 -0.0230  0.2136
  358MOL0     N49317   3.459   6.963   9.580 -0.7153 -0.3515  0.8324
  358MOL0     N49318   3.582   6.965   9.598  0.0001 -0.0193 -0.1928
  358MOL0     C49319   4.386   7.304   9.966  0.2902  0.1134  0.1003
  358MOL0     C49320   4.393   7.267  10.104  0.5456 -0.1699 -0.5547
  358MOL0     C49321   4.367   7.227  10.527 -0.0524  0.7658  0.1787
  358MOL0     C49322   4.491   7.183  10.579  1.2222  0.6472  0.4742
  358MOL0     C49323   4.500   7.078  10.670 -0.1531  0.5534 -0.2104
  358MOL0     C49324   4.389   7.011  10.714  0.1187  0.3096  0.4583
  358MOL0     O49325   4.399   6.905  10.798  0.3868 -0.0111 -0.7364
  358MOL0     C49326   4.534   6.862  10.843  0.4959 -0.2040  0.6149
  358MOL0     C49327   4.525   6.736  10.930 -0.3430  0.0076  0.8495
  358MOL0     C49328   4.665   6.694  10.976  0.0014 -0.4727 -0.0686
  358MOL0     C49329   4.645   6.589  11.099 -0.1847 -0.1314  0.2844
  358MOL0     C49330   4.616   6.652  11.226 -0.0597 -0.1203  0.0724
  358MOL0     C49331   4.579   6.685  11.334  0.2908 -0.1642 -0.1757
  358MOL0     C49332   4.264   7.053  10.664  0.1115 -0.5839  0.2916
  358MOL0     C49333   4.247   7.164  10.580  0.1678 -0.1262 -0.0316
  358MOL0     C49334   4.108   7.179  10.526 -0.1347 -0.5986 -0.2529
  358MOL0     H49335   4.574   7.518  10.225 -0.6571  0.4261 -0.3124
  358MOL0     H49336   4.565   7.597  10.002 -3.0475  2.2161 -0.4102
  358MOL0     H49337   4.439   7.274   9.710 -1.3529  0.2664  1.6922
  358MOL0     H49338   4.577   7.382   9.672  0.6927  0.6348 -1.3885
  358MOL0     H49339   4.443   7.508   9.500 -1.2009  1.5927 -2.2260
  358MOL0     H49340   4.450   7.338   9.473  0.6570  1.2784  0.2250
  358MOL0     H49341   4.218   7.486   9.594 -1.3645  0.2529 -2.6586
  358MOL0     H49342   4.224   7.417   9.433  0.6509 -0.4140 -1.3964
  358MOL0     H49343   4.265   7.203   9.511  1.0495  0.7596  0.7682
  358MOL0     H49344   4.234   7.241   9.688 -5.1639  0.4803  1.4113
  358MOL0     H49345   4.051   7.120   9.550  0.3351 -0.3018 -1.1931
  358MOL0     H49346   4.031   7.270   9.450  1.7193 -1.2566 -1.0238
  358MOL0     H49347   3.980   7.240   9.750 -0.6621 -0.4477 -0.1015
  358MOL0     H49348   3.958   7.394   9.651 -0.3064 -0.1686 -0.1660
  358MOL0     H49349   3.772   7.317   9.538 -0.8866 -2.3623 -1.8956
  358MOL0     H49350   3.754   7.275   9.706  1.9251 -0.2840  1.3638
  358MOL0     H49351   3.825   7.094   9.467 -2.4647  0.7775 -0.7681
  358MOL0     H49352   3.832   7.034   9.630  0.3565 -0.1460  0.4949
  358MOL0     H49353   3.553   7.269   9.492  2.0263 -0.7257  1.3626
  358MOL0     H49354   3.298   7.257   9.495 -3.4637  0.3767  1.0720
  358MOL0     H49355   3.214   7.110   9.550  1.8926  0.7540  3.1039
  358MOL0     H49356   3.156   7.153   9.308  0.7268 -0.0479 -1.5450
  358MOL0     H49357   3.324   7.151   9.268 -0.0525  0.4327  0.4911
  358MOL0     H49358   3.357   6.929   9.287 -0.2969  1.3613 -2.3417
  358MOL0     H49359   3.209   6.910   9.399  0.7962 -0.3425  0.7811
  358MOL0     H49360   3.193   6.985   9.100 -0.4215  1.0858  0.6353
  358MOL0     H49361   3.210   6.818   9.148  0.8680  1.1544  1.1053
  358MOL0     H49362   2.822   6.807   9.299  0.5694 -1.4141 -0.3577
  358MOL0     H49363   2.622   6.714   9.286 -3.0425 -1.0340  1.1850
  358MOL0     H49364   2.619   6.583   9.173  0.6573 -0.2953  0.3321
  358MOL0     H49365   2.510   6.727   9.146 -0.2222 -0.7817  0.2968
  358MOL0     H49366   2.753   6.737   8.499  0.3171  0.2128 -3.0379
  358MOL0     H49367   2.670   6.624   8.306 -0.0128 -0.8144  0.4013
  358MOL0     H49368   2.430   6.293   8.360 -2.2411 -1.4931  0.1466
  358MOL0     H49369   2.283   6.386   8.316 -0.6026 -0.5531 -0.0646
  358MOL0     H49370   2.303   6.352   8.097 -0.8923 -3.6296 -1.5963
  358MOL0     H49371   2.476   6.308   8.110  1.4583 -2.0587  0.3703
  358MOL0     H49372   2.330   6.117   8.059 -0.8485 -0.4779  0.3158
  358MOL0     H49373   2.226   6.153   8.191 -0.7259 -1.5744 -1.1705
  358MOL0     H49374   2.399   6.076   8.349  1.2435  1.9628 -0.1344
  358MOL0     H49375   2.516   6.053   8.220  2.0316  1.1507  4.9903
  358MOL0     H49376   2.381   5.853   8.317  1.7962  2.1786  0.7032
  358MOL0     H49377   2.243   5.913   8.207  0.0651  1.6187  0.6980
  358MOL0     H49378   2.532   5.813   8.143  0.8081  2.0868 -1.7393
  358MOL0     H49379   2.430   5.893   8.021  0.2488 -1.2711 -0.4884
  358MOL0     H49380   2.258   5.731   8.041 -0.1229 -1.5746 -2.0132
  358MOL0     H49381   2.340   5.645   8.182 -1.3993 -0.7954 -0.1594
  358MOL0     H49382   2.519   5.576   8.017  1.0794  1.8159  0.5108
  358MOL0     H49383   2.453   5.688   7.898 -0.8439 -1.3275 -0.9738
  358MOL0     H49384   2.324   6.482   8.520 -1.0992  0.5274  1.3920
  358MOL0     H49385   2.401   6.583   8.723 -0.4796 -0.0005 -0.4976
  358MOL0     H49386   2.883   6.835   8.817 -0.2496  1.7358  0.3340
  358MOL0     H49387   3.049   6.903   8.956 -0.3892 -0.3075 -1.7874
  358MOL0     H49388   4.314   7.255   9.901  1.8855 -1.1973 -0.7336
  358MOL0     H49389   4.339   7.177  10.129  2.1255 -0.6553  1.3337
  358MOL0     H49390   4.585   7.233  10.557  1.6915  1.3537  3.5089
  358MOL0     H49391   4.599   7.054  10.708 -1.1055 -0.9613  1.4488
  358MOL0     H49392   4.595   6.836  10.757  0.8831 -2.6533  1.5646
  358MOL0     H49393   4.563   6.950  10.902 -4.7884  0.8528  2.2126
  358MOL0     H49394   4.482   6.659  10.866  0.0706  0.1335  0.4133
  358MOL0     H49395   4.455   6.763  11.010  0.0710  1.2490  0.8257
  358MOL0     H49396   4.713   6.644  10.891 -0.4514 -2.2605  0.6659
  358MOL0     H49397   4.729   6.779  11.002 -1.7527  1.2120 -0.9939
  358MOL0     H49398   4.740   6.536  11.109 -1.1742 -2.2783 -1.0537
  358MOL0     H49399   4.568   6.518  11.067 -1.9394  1.1368  1.4829
  358MOL0     H49400   4.537   6.727  11.423 -2.2838 -3.1075  0.2017
  358MOL0     H49401   4.172   7.002  10.690 -0.1888  1.0598  2.8876
  358MOL0     H49402   4.113   7.155  10.419 -2.8131  0.0152 -0.5739
  358MOL0     H49403   4.038   7.109  10.570  2.3622 -1.9577  1.8492
  358MOL0     H49404   4.090   7.285  10.548 -0.5455 -0.3462 -1.6832
  359MOL0     O49405   6.135   4.958   8.364  0.4011 -0.4552  1.1662
  359MOL0     C49406   6.074   4.856   8.329 -0.5652  0.2027  0.0502
  359MOL0     O49407   6.059   4.750   8.400  0.5146  0.4152  0.5050
  359MOL0     C49408   6.128   4.749   8.520  0.0936 -0.1742  0.1037
  359MOL0     C49409   6.248   4.674   8.534  0.6090  0.3482 -0.1735
  359MOL0     C49410   6.321   4.687   8.654  0.1723  0.6128 -0.2716
  359MOL0     C49411   6.277   4.765   8.761 -1.0356 -0.4110 -0.0485
  359MOL0     O49412   6.350   4.760   8.881 -0.3770 -0.1813 -0.9629
  359MOL0     C49413   6.473   4.833   8.884  0.3798  0.2898  0.5812
  359MOL0     C49414   6.596   4.763   8.946  0.1618 -0.2135 -0.6208
  359MOL0     C49415   6.637   4.647   8.853  0.1979  0.6511  0.5577
  359MOL0     C49416   6.784   4.595   8.877 -0.2503 -0.1295 -0.3652
  359MOL0     C49417   6.845   4.510   8.757  0.3855  0.4439 -0.1841
  359MOL0     C49418   6.882   4.601   8.640 -0.1452  0.2318 -0.5708
  359MOL0     C49419   6.947   4.517   8.521  0.3454  0.3098  0.4763
  359MOL0     C49420   6.986   4.605   8.404 -0.2322 -0.3984 -0.5319
  359MOL0     N49421   7.074   4.533   8.315  0.3619  0.1613 -0.8079
  359MOL0     C49422   7.192   4.464   8.334 -0.4852 -0.1550  0.1029
  359MOL0     C49423   7.228   4.410   8.218  0.2003 -0.3548 -0.1137
  359MOL0     C49424   7.361   4.349   8.189 -0.4423  0.2296 -0.9251
  359MOL0     C49425   7.344   4.207   8.144  1.1459 -0.2424 -0.6711
  359MOL0     C49426   7.456   4.140   8.065 -0.6074 -0.3419  0.9135
  359MOL0     C49427   7.588   4.176   8.138  0.1642  0.1750 -0.1244
  359MOL0     O49428   7.590   4.129   8.278  0.1144  0.5734  0.3553
  359MOL0     C49429   7.703   4.109   8.350 -0.2788 -0.0142  1.1483
  359MOL0     C49430   7.695   4.066   8.479  0.0772  0.2408  0.1170
  359MOL0     C49431   7.800   4.052   8.562  0.2434  0.4894  0.9938
  359MOL0     C49432   7.764   3.995   8.708 -0.4406  0.2922  0.1724
  359MOL0     C49433   7.925   4.098   8.518 -0.3081  0.1781  0.0923
  359MOL0     C49434   8.047   4.088   8.598 -0.0308 -0.0838 -0.7063
  359MOL0     O49435   8.041   4.062   8.736 -0.1487 -0.0280 -0.2246
  359MOL0     C49436   8.163   4.055   8.800  0.5612 -0.4839 -0.3909
  359MOL0     C49437   8.256   4.159   8.810 -0.5045  0.0919 -0.7557
  359MOL0     C49438   8.373   4.144   8.875 -0.5967  0.4479  1.0586
  359MOL0     C49439   8.400   4.015   8.933 -0.3299 -0.0103 -0.5003
  359MOL0     O49440   8.513   3.981   9.001 -0.2241 -0.0491  0.7083
  359MOL0     C49441   8.580   4.091   9.068 -0.6083  0.3087  0.0150
  359MOL0     C49442   8.675   4.046   9.181  0.0671  0.1865  0.4754
  359MOL0     C49443   8.798   3.996   9.134  0.5043 -0.0877  0.2952
  359MOL0     C49444   8.889   3.976   9.248  0.5968  0.7871 -0.2632
  359MOL0     C49445   9.037   3.968   9.191 -1.0018  0.7673  0.3340
  359MOL0     C49446   9.143   3.955   9.300 -0.2405 -0.1567  0.1832
  359MOL0     C49447   9.284   3.996   9.252  0.6761  0.4275  1.3846
  359MOL0     C49448   9.391   3.980   9.354  0.2930 -0.4197 -0.4240
  359MOL0    Cl49449   9.368   4.119   9.472 -0.1095 -0.1580  0.1157
  359MOL0     C49450   8.307   3.909   8.928  0.5874  0.0102 -0.1317
  359MOL0     C49451   8.183   3.931   8.858  0.4471 -0.4528  0.6486
  359MOL0     O49452   8.154   4.105   8.535 -0.1822  0.1371  0.0469
  359MOL0     C49453   7.941   4.140   8.382 -0.4672  1.4296 -2.0223
  359MOL0     C49454   7.830   4.133   8.293 -0.9056  0.3164 -0.4340
  359MOL0     N49455   7.126   4.429   8.131 -0.1736 -0.5710 -0.0293
  359MOL0     N49456   7.034   4.505   8.186 -0.2886  0.1507 -0.3618
  359MOL0     C49457   6.143   4.812   8.757  0.4332  1.0083  0.1394
  359MOL0     C49458   6.079   4.807   8.632  0.9540 -0.5432 -0.7807
  359MOL0     C49459   5.999   4.871   8.201  0.0038 -0.1878 -0.1400
  359MOL0     C49460   5.999   4.991   8.141 -0.3702  0.2530  0.3403
  359MOL0     C49461   5.926   5.027   8.024  0.1719  0.0581 -0.9823
  359MOL0     C49462   5.846   4.929   7.965  0.2472  0.4094  0.7476
  359MOL0     O49463   5.767   4.945   7.856  0.5055 -0.3534  0.2781
  359MOL0     C49464   5.751   5.075   7.798 -0.9063  0.7686 -0.5712
  359MOL0     C49465   5.847   5.084   7.683  0.1000 -0.0205  0.2567
  359MOL0     C49466   5.838   5.228   7.638 -0.1879  0.8129  0.5141
  359MOL0     C49467   5.694   5.275   7.594  0.0001 -0.1105 -0.6766
  359MOL0     C49468   5.685   5.398   7.527 -0.2805  0.1098  0.7379
  359MOL0     C49469   5.670   5.496   7.453  0.7115 -0.2516 -0.6366
  359MOL0     C49470   5.847   4.801   8.027 -0.2247 -0.6562  0.0034
  359MOL0     C49471   5.921   4.775   8.138  0.5411 -0.1180 -0.0385
  359MOL0     C49472   5.901   4.628   8.189 -0.0668 -0.1767 -0.4996
  359MOL0     H49473   6.293   4.617   8.453  1.5896  0.3955  0.3162
  359MOL0     H49474   6.409   4.624   8.666  0.8201  1.4258 -0.6862
  359MOL0     H49475   6.464   4.921   8.948 -0.8692  0.3215  0.3808
  359MOL0     H49476   6.496   4.866   8.782  0.8108 -1.9981 -0.1133
  359MOL0     H49477   6.681   4.829   8.968  0.4890 -0.5250 -0.9291
  359MOL0     H49478   6.553   4.724   9.038  0.9431  0.1354 -0.1036
  359MOL0     H49479   6.564   4.567   8.867 -0.8421  1.4383 -0.2184
  359MOL0     H49480   6.622   4.676   8.748 -0.7748 -1.3001  0.1261
  359MOL0     H49481   6.849   4.682   8.889  0.7452 -1.0638  1.3877
  359MOL0     H49482   6.799   4.546   8.974  0.8986  0.6850 -0.1105
  359MOL0     H49483   6.779   4.429   8.725 -0.3224  0.5574  0.8936
  359MOL0     H49484   6.934   4.469   8.804 -0.5085  0.6529  1.8210
  359MOL0     H49485   6.793   4.651   8.601  0.6560  1.4222 -0.9299
  359MOL0     H49486   6.951   4.684   8.659  1.3388 -0.5437 -2.2923
  359MOL0     H49487   6.889   4.428   8.497  0.6747  0.5721 -1.4427
  359MOL0     H49488   7.042   4.478   8.558 -0.7723 -0.3872  2.8186
  359MOL0     H49489   6.891   4.637   8.359 -1.4658  1.1581  2.7929
  359MOL0     H49490   7.044   4.687   8.445 -0.7131  0.2370 -1.1059
  359MOL0     H49491   7.259   4.482   8.418  2.9584 -2.3707 -1.9183
  359MOL0     H49492   7.419   4.345   8.281  0.4375  2.7290 -1.2727
  359MOL0     H49493   7.413   4.400   8.107  2.1849  0.5771  0.8315
  359MOL0     H49494   7.320   4.136   8.223  1.6781 -0.7557 -0.9644
  359MOL0     H49495   7.252   4.210   8.085  0.8756 -0.4306 -0.2598
  359MOL0     H49496   7.430   4.034   8.064 -0.4946 -0.3744 -0.3092
  359MOL0     H49497   7.459   4.180   7.963  2.4013 -1.6396  0.4043
  359MOL0     H49498   7.665   4.133   8.074 -1.0665  1.1095 -2.3169
  359MOL0     H49499   7.584   4.285   8.130 -0.8508 -0.0228 -3.2847
  359MOL0     H49500   7.592   4.046   8.506  0.7968  0.6462  3.5784
  359MOL0     H49501   7.658   3.968   8.698 -0.0191 -0.9979 -1.2392
  359MOL0     H49502   7.786   4.068   8.786  1.0078 -0.9913  1.0067
  359MOL0     H49503   7.821   3.907   8.739 -0.6155  0.6931  1.7346
  359MOL0     H49504   8.221   4.250   8.762 -1.8400 -0.1875 -0.3683
  359MOL0     H49505   8.441   4.228   8.878 -2.0163  1.8646 -2.2134
  359MOL0     H49506   8.636   4.146   8.991 -1.8074  1.1894 -0.2548
  359MOL0     H49507   8.505   4.158   9.111 -0.1125 -0.2353  1.8054
  359MOL0     H49508   8.698   4.142   9.229  0.8712 -0.4168  1.3571
  359MOL0     H49509   8.618   3.974   9.240 -0.6708  0.9397  0.6997
  359MOL0     H49510   8.830   4.074   9.065 -1.6521 -0.7782 -1.6297
  359MOL0     H49511   8.777   3.912   9.066 -0.1618  0.9040 -0.7791
  359MOL0     H49512   8.856   3.881   9.291  1.4223  0.2161 -0.8550
  359MOL0     H49513   8.874   4.050   9.327  0.5589 -0.0536  0.5292
  359MOL0     H49514   9.035   3.876   9.132 -0.3975  1.0098 -0.0803
  359MOL0     H49515   9.058   4.057   9.131 -0.9150 -1.0726 -2.5686
  359MOL0     H49516   9.129   3.863   9.358  0.4805 -0.3208  0.0972
  359MOL0     H49517   9.130   4.029   9.380 -0.1997 -2.7075  2.7522
  359MOL0     H49518   9.292   4.099   9.218 -1.3920 -0.8289 -4.0773
  359MOL0     H49519   9.304   3.933   9.164 -0.3086 -0.7066  1.9385
  359MOL0     H49520   9.490   3.984   9.308 -0.6331 -1.0287 -2.5992
  359MOL0     H49521   9.388   3.879   9.396 -0.9917 -0.8582 -1.5111
  359MOL0     H49522   8.309   3.810   8.972 -4.0460  0.5189  1.8714
  359MOL0     H49523   8.114   3.853   8.828  0.4046 -0.3943  0.5962
  359MOL0     H49524   8.033   4.184   8.346  0.9492  0.2116 -0.0738
  359MOL0     H49525   7.851   4.172   8.194  5.1978 -2.4938 -0.6588
  359MOL0     H49526   6.088   4.857   8.838  0.2244  0.5953  0.2263
  359MOL0     H49527   5.977   4.845   8.629 -0.0856 -2.9264  0.9027
  359MOL0     H49528   6.033   5.084   8.183  0.0265 -0.0722  0.7429
  359MOL0     H49529   5.945   5.121   7.975  1.1499 -1.9859 -4.9751
  359MOL0     H49530   5.651   5.082   7.753 -1.0175  2.0769 -0.1864
  359MOL0     H49531   5.762   5.149   7.878  2.0054 -1.3784  1.1934
  359MOL0     H49532   5.803   5.030   7.599 -0.2394  2.8749 -1.5429
  359MOL0     H49533   5.947   5.053   7.716 -0.8959  0.5790  4.4286
  359MOL0     H49534   5.870   5.302   7.712  0.8761  1.3115 -0.4017
  359MOL0     H49535   5.888   5.242   7.541  0.7887  1.2724  1.0683
  359MOL0     H49536   5.638   5.290   7.687 -0.9015 -4.3708 -0.2950
  359MOL0     H49537   5.637   5.200   7.539 -1.7391  2.2092 -2.1764
  359MOL0     H49538   5.643   5.568   7.379  2.0728  0.9235 -0.0399
  359MOL0     H49539   5.779   4.734   7.975  0.8498 -0.9738 -1.0447
  359MOL0     H49540   5.826   4.622   8.270 -0.6963 -1.3434 -1.1375
  359MOL0     H49541   5.860   4.571   8.106 -1.5618  1.6265 -1.0738
  359MOL0     H49542   5.995   4.580   8.217  1.0257  2.2049  0.1733
  360MOL0     O49543   2.531   0.117   1.876  0.5351  0.4021  0.3614
  360MOL0     C49544   2.619   0.162   1.804  1.0008  0.6533  0.0749
  360MOL0     O49545   2.659   0.097   1.684  0.6068 -0.1321  0.4668
  360MOL0     C49546   2.631  -0.035   1.666 -0.4551  0.2128 -0.5890
  360MOL0     C49547   2.623  -0.127   1.778 -0.0106 -0.0203 -0.3328
  360MOL0     C49548   2.605  -0.268   1.759 -0.6072 -1.2533  0.2515
  360MOL0     C49549   2.585  -0.312   1.623 -1.0325  0.3559  0.7086
  360MOL0     O49550   2.537  -0.438   1.590  0.4204  0.4034 -0.3373
  360MOL0     C49551   2.448  -0.502   1.679  0.0736 -0.1790  0.3116
  360MOL0     C49552   2.412  -0.637   1.632  0.1096  0.6019  0.4546
  360MOL0     C49553   2.309  -0.695   1.722  0.0159  0.0929 -0.4787
  360MOL0     C49554   2.269  -0.833   1.668  0.1615 -0.3759  0.2914
  360MOL0     C49555   2.160  -0.901   1.752 -0.3578  0.4116  0.7881
  360MOL0     C49556   2.023  -0.848   1.694 -0.5855  0.2129  0.2024
  360MOL0     C49557   1.909  -0.897   1.790 -0.0973 -0.4362 -0.1249
  360MOL0     C49558   1.780  -0.845   1.733 -0.2422  0.2659  0.8531
  360MOL0     N49559   1.670  -0.877   1.821  0.5374  0.3503  0.8176
  360MOL0     C49560   1.638  -1.004   1.863 -0.2621  0.4038  0.6299
  360MOL0     C49561   1.533  -0.993   1.949  0.9346 -1.5046 -0.6860
  360MOL0     C49562   1.458  -1.101   2.012  0.4903  0.3200 -0.0926
  360MOL0     C49563   1.477  -1.080   2.168 -0.1465 -0.3453  0.4052
  360MOL0     C49564   1.604  -1.141   2.222  0.3716 -0.2392 -0.0394
  360MOL0     C49565   1.670  -1.058   2.331 -0.1049  0.1655  0.4426
  360MOL0     O49566   1.602  -1.092   2.457 -0.1833  0.1620  0.0198
  360MOL0     C49567   1.553  -0.990   2.523  0.5930 -0.4121 -0.6676
  360MOL0     C49568   1.631  -0.880   2.578 -0.1156  0.1127 -0.3135
  360MOL0     C49569   1.574  -0.765   2.634  0.7119  0.4405  0.5196
  360MOL0     C49570   1.666  -0.666   2.684  0.3553 -0.9977 -0.2577
  360MOL0     C49571   1.435  -0.756   2.643 -0.1503 -0.5956 -0.2351
  360MOL0     C49572   1.361  -0.637   2.712  0.3652  0.7964 -0.7519
  360MOL0     O49573   1.232  -0.646   2.693 -0.0307  0.4479 -0.1556
  360MOL0     C49574   1.152  -0.550   2.740  0.0152  0.0056 -0.6525
  360MOL0     C49575   1.113  -0.546   2.876 -0.0743  0.2600  0.2634
  360MOL0     C49576   1.028  -0.445   2.927  0.0616 -0.0468  0.7848
  360MOL0     C49577   0.994  -0.341   2.836  0.1635  0.8543 -0.2624
  360MOL0     O49578   0.914  -0.232   2.865  0.1911 -0.3401  0.8683
  360MOL0     C49579   0.951  -0.161   2.983 -0.6473 -0.0230  0.1444
  360MOL0     C49580   0.834  -0.127   3.058  0.2721  0.1717  0.3446
  360MOL0     C49581   0.747  -0.020   2.994 -0.1790 -0.0582 -0.3478
  360MOL0     C49582   0.615  -0.016   3.073 -0.1623 -0.1515 -0.0972
  360MOL0     C49583   0.555   0.125   3.059 -0.2296  0.5562 -0.4169
  360MOL0     C49584   0.430   0.159   3.142 -0.0019 -0.3893 -0.1380
  360MOL0     C49585   0.326   0.058   3.157  0.1512 -0.0940 -0.0818
  360MOL0     C49586   0.234   0.044   3.041 -0.1075  0.0656 -0.3964
  360MOL0    Cl49587   0.170   0.208   2.975 -0.0730 -0.1113 -0.2466
  360MOL0     C49588   1.018  -0.371   2.704  0.8106 -0.6519  0.8112
  360MOL0     C49589   1.093  -0.465   2.646 -0.2661  0.8981  0.8063
  360MOL0     O49590   1.415  -0.549   2.773 -0.4659 -0.0660 -0.2077
  360MOL0     C49591   1.357  -0.872   2.610  0.2290 -0.1397 -0.5937
  360MOL0     C49592   1.415  -0.983   2.541 -0.4808  0.8884  0.5912
  360MOL0     N49593   1.503  -0.860   1.963  0.0878 -0.4462 -0.1216
  360MOL0     N49594   1.582  -0.790   1.882 -0.0156 -0.0055  0.8021
  360MOL0     C49595   2.599  -0.217   1.516  0.3442 -0.5929  0.3261
  360MOL0     C49596   2.626  -0.084   1.542  0.7794 -0.8431 -0.1956
  360MOL0     C49597   2.703   0.279   1.845 -0.1930 -0.0143  0.5457
  360MOL0     C49598   2.640   0.396   1.897  0.1539  0.3261  0.3258
  360MOL0     C49599   2.711   0.510   1.925 -0.1649  0.3915  0.0245
  360MOL0     C49600   2.853   0.513   1.898 -0.1461 -0.3011  0.2460
  360MOL0     O49601   2.907   0.636   1.939  0.9265  0.5898 -0.2002
  360MOL0     C49602   3.034   0.678   1.899  0.7197  0.6644 -0.7841
  360MOL0     C49603   3.047   0.823   1.949  0.1805 -0.7145 -0.0812
  360MOL0     C49604   2.957   0.910   1.869 -0.2339 -0.6329 -0.3354
  360MOL0     C49605   2.972   1.051   1.905 -0.3949 -0.2415 -0.5095
  360MOL0     C49606   2.895   1.145   1.822 -0.1093  0.2282  0.6037
  360MOL0     C49607   2.836   1.228   1.763 -0.2657 -0.3539 -0.5057
  360MOL0     C49608   2.920   0.396   1.874  0.3793 -0.2068  0.1269
  360MOL0     C49609   2.844   0.277   1.843  0.1210  0.5326  0.0914
  360MOL0     C49610   2.919   0.149   1.815 -0.5637 -0.1172  0.2769
  360MOL0     H49611   2.641  -0.096   1.880  0.8197 -0.8489 -0.2153
  360MOL0     H49612   2.600  -0.348   1.833  1.4002 -2.7612 -1.1528
  360MOL0     H49613   2.356  -0.443   1.692  1.2753  1.3207  2.6182
  360MOL0     H49614   2.490  -0.517   1.779 -0.3127 -0.1746  0.4769
  360MOL0     H49615   2.369  -0.630   1.532 -2.4815 -6.1789  0.5889
  360MOL0     H49616   2.490  -0.711   1.620 -1.6282 -1.3737  0.7683
  360MOL0     H49617   2.358  -0.721   1.816 -1.8712 -2.1686 -0.0384
  360MOL0     H49618   2.223  -0.631   1.742 -2.2899 -2.4287 -1.7416
  360MOL0     H49619   2.243  -0.827   1.562 -1.8381  1.8146  0.8374
  360MOL0     H49620   2.362  -0.891   1.668  0.8231  0.6411 -1.1157
  360MOL0     H49621   2.170  -0.870   1.856 -0.2874  1.6407  0.4381
  360MOL0     H49622   2.171  -1.009   1.741  1.9264  0.6253  0.5369
  360MOL0     H49623   2.035  -0.741   1.679 -0.0804  0.9609  4.4478
  360MOL0     H49624   2.013  -0.891   1.594 -0.6704 -2.5955  1.3123
  360MOL0     H49625   1.927  -0.871   1.895 -2.9230 -0.6804  0.5017
  360MOL0     H49626   1.906  -1.006   1.781 -4.0419 -0.3590 -2.1323
  360MOL0     H49627   1.792  -0.736   1.729  0.5841  0.1457 -0.3296
  360MOL0     H49628   1.764  -0.882   1.632 -0.5788  1.1532  0.5728
  360MOL0     H49629   1.693  -1.093   1.834 -1.3284  0.1508 -0.6817
  360MOL0     H49630   1.511  -1.191   1.979 -2.6081 -2.1793  1.1714
  360MOL0     H49631   1.355  -1.114   1.979  1.6060 -1.9301 -3.1597
  360MOL0     H49632   1.467  -0.975   2.198 -0.9098 -0.0185 -0.9209
  360MOL0     H49633   1.384  -1.125   2.205  0.7795 -2.5091  0.2562
  360MOL0     H49634   1.574  -1.241   2.253  2.0604 -0.6734  0.3115
  360MOL0     H49635   1.679  -1.153   2.142 -1.2383  3.2061 -2.3223
  360MOL0     H49636   1.771  -1.100   2.329 -0.4499 -0.6923 -1.4838
  360MOL0     H49637   1.662  -0.955   2.295 -3.1940 -0.5550 -1.3538
  360MOL0     H49638   1.735  -0.872   2.548 -0.6031  0.6660 -1.9845
  360MOL0     H49639   1.766  -0.689   2.644  0.3981 -3.1650  0.9163
  360MOL0     H49640   1.674  -0.662   2.793 -1.0057 -0.8732 -0.1438
  360MOL0     H49641   1.635  -0.571   2.641  3.5994 -0.2040 -1.1099
  360MOL0     H49642   1.156  -0.625   2.937  0.6439  0.7920  0.4704
  360MOL0     H49643   0.988  -0.441   3.028 -0.3371  0.7694  0.6089
  360MOL0     H49644   1.024  -0.207   3.051 -1.0329  0.3169  0.7884
  360MOL0     H49645   0.996  -0.066   2.952 -3.6129  1.5117  0.2232
  360MOL0     H49646   0.785  -0.222   3.081  0.4904 -0.6093 -2.1670
  360MOL0     H49647   0.867  -0.079   3.151 -1.8713 -0.0486  1.2815
  360MOL0     H49648   0.741  -0.045   2.887  1.2920 -3.3226  0.2130
  360MOL0     H49649   0.806   0.071   3.004 -1.2539  0.8218 -1.7374
  360MOL0     H49650   0.629  -0.035   3.179 -1.7791  3.5897  0.9534
  360MOL0     H49651   0.561  -0.103   3.035  1.2930  0.6466 -4.6290
  360MOL0     H49652   0.627   0.198   3.096  1.1103 -0.1666 -1.5245
  360MOL0     H49653   0.532   0.140   2.953  1.1362 -3.9381 -1.5365
  360MOL0     H49654   0.383   0.253   3.112  1.3485  0.0841 -0.8361
  360MOL0     H49655   0.462   0.185   3.244 -1.1367  1.7651 -0.2764
  360MOL0     H49656   0.267   0.073   3.248 -1.4791  0.5869 -1.2002
  360MOL0     H49657   0.370  -0.041   3.171  0.8693  0.1385 -0.6507
  360MOL0     H49658   0.157  -0.034   3.051 -0.0978 -0.5208 -3.6788
  360MOL0     H49659   0.298   0.010   2.959  0.0208  1.0032 -0.6928
  360MOL0     H49660   0.973  -0.293   2.643 -1.4876 -1.7929  0.9352
  360MOL0     H49661   1.119  -0.483   2.542  0.6074  0.8817  1.0197
  360MOL0     H49662   1.249  -0.870   2.616  0.0904  1.9643 -2.6684
  360MOL0     H49663   1.357  -1.070   2.510  0.7090  0.5649 -0.8040
  360MOL0     H49664   2.580  -0.253   1.416 -0.6245  1.2171 -0.1800
  360MOL0     H49665   2.637  -0.032   1.448  2.1773 -1.5316 -0.4322
  360MOL0     H49666   2.532   0.388   1.912 -0.4639  0.9523 -2.9711
  360MOL0     H49667   2.653   0.593   1.963  1.3827  0.6630  1.9146
  360MOL0     H49668   3.109   0.611   1.943 -1.6081 -3.5347 -2.6071
  360MOL0     H49669   3.033   0.671   1.790  0.1276 -1.2888 -0.6936
  360MOL0     H49670   3.151   0.856   1.939 -0.9234  2.9047 -1.1924
  360MOL0     H49671   3.023   0.831   2.056 -1.6968 -1.6667 -0.3819
  360MOL0     H49672   2.989   0.899   1.765  1.4172 -1.4876  0.2338
  360MOL0     H49673   2.851   0.885   1.876 -0.4159  0.6707  3.3942
  360MOL0     H49674   3.074   1.086   1.889 -1.5056  2.0315 -3.6725
  360MOL0     H49675   2.948   1.062   2.012 -0.0534  0.5410 -0.5082
  360MOL0     H49676   2.791   1.306   1.706 -0.5449 -1.6050 -2.0564
  360MOL0     H49677   3.028   0.407   1.866  0.6329 -0.6816  2.2698
  360MOL0     H49678   2.934   0.119   1.711  1.3920 -1.6823  0.9373
  360MOL0     H49679   3.020   0.150   1.857  0.8452 -2.0787 -2.6805
  360MOL0     H49680   2.868   0.069   1.870  0.4430 -1.1371 -0.2191
  361MOL0     O49681   2.741   3.161   9.117  0.8554 -0.2675  0.5970
  361MOL0     C49682   2.802   3.253   9.062  0.4632  0.5404 -0.6640
  361MOL0     O49683   2.758   3.308   8.943  0.5537 -0.9661 -0.5502
  361MOL0     C49684   2.661   3.237   8.876 -0.0497  0.2001  0.4327
  361MOL0     C49685   2.696   3.183   8.761 -0.0582 -0.1854  0.5643
  361MOL0     C49686   2.598   3.114   8.688  0.0258 -0.2183  0.0084
  361MOL0     C49687   2.462   3.106   8.722 -0.5511 -0.4729  0.7072
  361MOL0     O49688   2.363   3.050   8.640 -0.0761  0.1594 -0.5223
  361MOL0     C49689   2.409   2.941   8.552 -0.2045 -0.5499  0.6448
  361MOL0     C49690   2.294   2.868   8.469 -0.2358 -0.8081 -0.8076
  361MOL0     C49691   2.349   2.755   8.388  1.1791  0.1082 -0.3429
  361MOL0     C49692   2.404   2.635   8.468 -0.3634 -0.7669  0.0682
  361MOL0     C49693   2.385   2.507   8.379  0.8123 -0.8742  0.4093
  361MOL0     C49694   2.471   2.505   8.249 -0.0391 -0.8529 -0.2758
  361MOL0     C49695   2.438   2.375   8.179 -0.0823  0.3720 -0.3021
  361MOL0     C49696   2.527   2.356   8.059 -0.0376  0.2728 -1.2752
  361MOL0     N49697   2.492   2.224   7.995  0.3148 -0.5004  0.4111
  361MOL0     C49698   2.560   2.160   7.899 -0.8116 -0.3714  0.5572
  361MOL0     C49699   2.499   2.043   7.881  0.4432  0.6138 -0.9020
  361MOL0     C49700   2.561   1.938   7.793 -0.0846  0.3506 -0.9027
  361MOL0     C49701   2.671   1.872   7.875 -0.4680 -0.4763 -0.0790
  361MOL0     C49702   2.754   1.761   7.815  0.3850 -0.9497  0.7516
  361MOL0     C49703   2.846   1.699   7.926  0.4006 -0.5667  0.6516
  361MOL0     O49704   2.915   1.584   7.869 -0.6495 -0.4924 -0.2536
  361MOL0     C49705   2.994   1.508   7.944  0.5914 -0.1751 -0.1637
  361MOL0     C49706   2.980   1.506   8.081 -0.4252 -0.0979 -0.3954
  361MOL0     C49707   3.054   1.418   8.157  0.7693  0.0592 -0.2283
  361MOL0     C49708   3.023   1.418   8.300  0.6370 -0.3701  0.2053
  361MOL0     C49709   3.145   1.322   8.100 -0.1425 -0.1173  0.8850
  361MOL0     C49710   3.213   1.215   8.165  0.7956  0.8676  1.0193
  361MOL0     O49711   3.296   1.246   8.268  0.2466  0.7193  0.3815
  361MOL0     C49712   3.365   1.140   8.319 -0.0019 -1.2547 -0.1848
  361MOL0     C49713   3.490   1.110   8.278  0.4122  0.0109  0.4877
  361MOL0     C49714   3.556   1.002   8.340 -0.0165  0.6511  0.1870
  361MOL0     C49715   3.501   0.945   8.463 -0.2340 -0.2595  0.1838
  361MOL0     O49716   3.567   0.849   8.537 -0.5183 -0.1228 -0.1649
  361MOL0     C49717   3.687   0.903   8.605  0.3269 -0.8800 -0.4060
  361MOL0     C49718   3.643   1.009   8.709 -0.4766  0.0135  0.0452
  361MOL0     C49719   3.747   1.027   8.813 -0.0312  0.5787 -0.4019
  361MOL0     C49720   3.706   1.134   8.916 -0.2178  0.6488  0.3988
  361MOL0     C49721   3.795   1.141   9.044 -0.7272  0.4075  0.2496
  361MOL0     C49722   3.729   1.209   9.166  0.3122 -0.5595 -0.2594
  361MOL0     C49723   3.844   1.228   9.266  1.0965 -0.9642 -0.2275
  361MOL0     C49724   3.802   1.307   9.388  0.3823  0.0332  0.1912
  361MOL0    Cl49725   3.764   1.473   9.344 -0.3697  0.3748  0.5930
  361MOL0     C49726   3.377   0.987   8.503  0.8301 -0.0797 -1.0601
  361MOL0     C49727   3.310   1.080   8.429 -0.4722 -0.5546 -0.6923
  361MOL0     O49728   3.192   1.104   8.126 -0.0884 -0.2112  0.3830
  361MOL0     C49729   3.156   1.333   7.965  0.2587 -0.2628  0.1474
  361MOL0     C49730   3.088   1.429   7.885 -1.1248 -1.2542 -0.4652
  361MOL0     N49731   2.382   2.040   7.957  0.1827 -1.0316  0.3676
  361MOL0     N49732   2.381   2.153   8.026  0.2165 -0.9244  0.0239
  361MOL0     C49733   2.426   3.157   8.842 -0.5765 -0.2352 -0.8847
  361MOL0     C49734   2.528   3.215   8.916  0.1971  0.4887 -0.7676
  361MOL0     C49735   2.930   3.307   9.125  0.5476  0.3403  0.2810
  361MOL0     C49736   2.977   3.428   9.080 -0.0963  0.4667  0.1901
  361MOL0     C49737   3.105   3.477   9.121 -0.3685 -0.3559 -0.2596
  361MOL0     C49738   3.181   3.417   9.221 -0.2750  0.8294 -0.5817
  361MOL0     O49739   3.302   3.480   9.260  0.4201  0.1324  0.1080
  361MOL0     C49740   3.377   3.411   9.361 -0.1905  0.7256 -1.0933
  361MOL0     C49741   3.516   3.482   9.388 -0.5081 -0.5032 -0.3212
  361MOL0     C49742   3.597   3.401   9.497  0.0924 -0.2107 -0.0641
  361MOL0     C49743   3.521   3.387   9.626  0.2239  0.1794  0.1994
  361MOL0     C49744   3.473   3.515   9.676  0.5856  1.0222  0.5827
  361MOL0     C49745   3.398   3.606   9.712 -0.7337 -0.7005 -0.1058
  361MOL0     C49746   3.127   3.301   9.284  0.0910  0.0384 -0.6312
  361MOL0     C49747   3.002   3.244   9.239 -0.6507  0.2092 -0.8597
  361MOL0     C49748   2.931   3.132   9.317  0.2660 -0.8575 -0.0433
  361MOL0     H49749   2.801   3.179   8.732 -0.3718  0.5849 -0.7941
  361MOL0     H49750   2.628   3.071   8.593 -1.8874 -0.4545 -0.5273
  361MOL0     H49751   2.458   2.871   8.620 -2.4654 -1.1200  1.7602
  361MOL0     H49752   2.485   2.990   8.490  1.3273 -0.6312  2.3576
  361MOL0     H49753   2.218   2.831   8.538 -0.5191  2.7989  1.0712
  361MOL0     H49754   2.243   2.942   8.406  0.5481 -1.0564 -1.7645
  361MOL0     H49755   2.265   2.720   8.326  1.0951 -0.9327  0.3305
  361MOL0     H49756   2.427   2.787   8.319  1.1494  1.6638  0.3147
  361MOL0     H49757   2.509   2.641   8.499 -1.3671 -2.2888  4.3275
  361MOL0     H49758   2.338   2.631   8.555 -0.9851  1.3259 -0.2579
  361MOL0     H49759   2.281   2.490   8.350  0.6959 -1.6313  1.2255
  361MOL0     H49760   2.419   2.421   8.438  0.1453 -0.9752  0.6501
  361MOL0     H49761   2.431   2.584   8.184 -1.4100  0.8454  2.4194
  361MOL0     H49762   2.577   2.516   8.272  0.3596 -1.8981 -1.5314
  361MOL0     H49763   2.332   2.381   8.150  0.0861  0.5832 -0.8845
  361MOL0     H49764   2.456   2.290   8.245 -0.6513 -1.4030 -2.3205
  361MOL0     H49765   2.507   2.435   7.985  1.4546  0.3535 -1.6407
  361MOL0     H49766   2.633   2.378   8.076  0.3237 -2.4052  0.3829
  361MOL0     H49767   2.655   2.187   7.852 -2.1516 -0.5577 -2.5079
  361MOL0     H49768   2.598   1.987   7.703  1.6306  0.4272 -0.1916
  361MOL0     H49769   2.485   1.866   7.762 -0.7478  1.4109 -1.7995
  361MOL0     H49770   2.737   1.947   7.918 -1.1667  0.5005 -0.6512
  361MOL0     H49771   2.622   1.836   7.966  0.0837  4.1088  2.3573
  361MOL0     H49772   2.691   1.684   7.771 -0.1402  0.4797 -1.1742
  361MOL0     H49773   2.815   1.809   7.737  0.0407 -0.0321  1.0269
  361MOL0     H49774   2.910   1.777   7.968  0.7474 -1.0735  1.0760
  361MOL0     H49775   2.780   1.663   8.005  1.0122 -1.0724  0.9287
  361MOL0     H49776   2.895   1.560   8.123 -1.0050  0.8455 -2.6208
  361MOL0     H49777   3.052   1.515   8.341  0.0954  0.3436 -1.0690
  361MOL0     H49778   3.082   1.341   8.352  4.0317  3.4725  2.6814
  361MOL0     H49779   2.919   1.391   8.316  0.8613 -1.4080  0.0036
  361MOL0     H49780   3.529   1.171   8.198  0.5401  1.9927  1.9905
  361MOL0     H49781   3.653   0.972   8.301 -0.0195  4.1647 -3.0785
  361MOL0     H49782   3.724   0.816   8.659 -0.3968 -0.8629  0.1223
  361MOL0     H49783   3.764   0.946   8.539  0.7607 -1.4902 -0.3035
  361MOL0     H49784   3.619   1.103   8.660  1.6266 -0.3455 -1.8409
  361MOL0     H49785   3.560   0.977   8.772 -0.9027 -0.6557 -0.8394
  361MOL0     H49786   3.839   1.063   8.766  0.4738 -1.5221 -1.1335
  361MOL0     H49787   3.760   0.931   8.864  2.4141 -0.8818 -3.4013
  361MOL0     H49788   3.603   1.116   8.949 -0.2368  0.4461  0.2363
  361MOL0     H49789   3.703   1.230   8.865 -1.1869 -0.3007 -1.4728
  361MOL0     H49790   3.824   1.038   9.066 -1.8678 -0.2630 -1.1856
  361MOL0     H49791   3.885   1.192   9.008 -1.0034 -0.0783 -1.2094
  361MOL0     H49792   3.646   1.155   9.211 -2.6335  3.5126 -0.2250
  361MOL0     H49793   3.686   1.307   9.146 -1.3031 -0.9942  0.9095
  361MOL0     H49794   3.936   1.274   9.229  1.3820 -1.2025  0.1740
  361MOL0     H49795   3.865   1.128   9.307 -0.4641 -0.6175  1.5620
  361MOL0     H49796   3.881   1.298   9.464 -0.9372  2.1612  1.9440
  361MOL0     H49797   3.716   1.270   9.444  2.1944  1.5008  4.3855
  361MOL0     H49798   3.340   0.961   8.602  2.5296  1.8156  0.1658
  361MOL0     H49799   3.218   1.121   8.471  0.3432  0.2740  0.3204
  361MOL0     H49800   3.222   1.268   7.908  1.9608  0.0829  1.6241
  361MOL0     H49801   3.099   1.448   7.779  2.3021  0.7253  0.1039
  361MOL0     H49802   2.322   3.148   8.873 -1.0397 -2.4842 -2.7877
  361MOL0     H49803   2.517   3.251   9.018 -0.1032 -0.1605 -0.5692
  361MOL0     H49804   2.917   3.477   9.004  0.5221  1.0446  0.0638
  361MOL0     H49805   3.140   3.568   9.072 -2.6981  0.7384 -0.0092
  361MOL0     H49806   3.311   3.404   9.448  1.1946  1.2631  0.0317
  361MOL0     H49807   3.405   3.311   9.327  2.5900  2.0694 -3.1755
  361MOL0     H49808   3.506   3.585   9.423  0.5705 -0.9016  1.2457
  361MOL0     H49809   3.578   3.482   9.298  0.7465  1.2277  0.4770
  361MOL0     H49810   3.607   3.299   9.459  2.1642  0.0528 -0.3204
  361MOL0     H49811   3.695   3.445   9.514  0.5750 -1.7284  1.2989
  361MOL0     H49812   3.591   3.349   9.700  1.2371  1.8078  0.1259
  361MOL0     H49813   3.445   3.311   9.606 -0.9423  1.8359 -2.2686
  361MOL0     H49814   3.331   3.685   9.739 -1.1669 -1.1955  0.2797
  361MOL0     H49815   3.175   3.259   9.372 -1.3834 -1.8489 -0.6636
  361MOL0     H49816   2.924   3.047   9.248 -1.3003 -1.6263  1.0022
  361MOL0     H49817   2.996   3.094   9.397  0.5261  0.1577  0.2390
  361MOL0     H49818   2.836   3.170   9.354  0.6769 -0.6576  0.8503
  362MOL0     O49819   2.346   5.136  11.241 -0.1441  0.2145 -0.4372
  362MOL0     C49820   2.238   5.114  11.185  0.3083  0.6367  0.5792
  362MOL0     O49821   2.229   5.064  11.058 -0.1858 -0.0624 -0.5615
  362MOL0     C49822   2.336   5.039  10.982  0.0109  0.2453  0.8072
  362MOL0     C49823   2.443   4.955  11.023  0.0431 -0.7814 -0.5469
  362MOL0     C49824   2.534   4.912  10.920 -0.2198  0.4433  0.8920
  362MOL0     C49825   2.508   4.941  10.784 -0.0132 -0.4982  0.4482
  362MOL0     O49826   2.588   4.892  10.687 -0.1366 -0.8463  0.5627
  362MOL0     C49827   2.624   4.760  10.701 -0.2929  0.5454  0.0271
  362MOL0     C49828   2.673   4.716  10.561  0.3031 -0.0427 -0.5763
  362MOL0     C49829   2.733   4.574  10.561  0.2282 -0.6597 -0.1045
  362MOL0     C49830   2.713   4.495  10.427  0.4977 -1.6143  0.7805
  362MOL0     C49831   2.810   4.541  10.317  0.2132  0.1530  0.3389
  362MOL0     C49832   2.815   4.437  10.211 -0.0425 -0.7895 -0.0568
  362MOL0     C49833   2.689   4.401  10.141  1.2089 -0.1156 -0.3610
  362MOL0     C49834   2.588   4.519  10.120  0.8050 -0.3137 -0.2068
  362MOL0     N49835   2.478   4.482  10.023 -0.7764 -0.1313 -0.5008
  362MOL0     C49836   2.474   4.551   9.898 -0.1155  0.3592 -0.2685
  362MOL0     C49837   2.347   4.531   9.861 -0.3223  0.1581  0.8935
  362MOL0     C49838   2.306   4.584   9.731 -0.3390 -0.1261  0.1516
  362MOL0     C49839   2.251   4.729   9.737 -0.4163  0.1001  0.5284
  362MOL0     C49840   2.324   4.829   9.815 -0.2674  0.5448 -0.4379
  362MOL0     C49841   2.268   4.970   9.793  0.6686  0.0815 -0.3916
  362MOL0     O49842   2.138   4.983   9.847  0.0373  0.2379 -0.4087
  362MOL0     C49843   2.070   5.100   9.816 -0.7577  0.2000 -0.0250
  362MOL0     C49844   2.107   5.203   9.730  0.4836 -0.9749 -0.8304
  362MOL0     C49845   2.039   5.326   9.719  0.5700 -0.0977 -0.0078
  362MOL0     C49846   2.097   5.421   9.615  0.0868  0.0702  0.0271
  362MOL0     C49847   1.927   5.349   9.804 -0.1385 -0.2849 -0.0997
  362MOL0     C49848   1.857   5.484   9.814  0.2536  0.3766 -1.1646
  362MOL0     O49849   1.770   5.489   9.918 -0.7725 -0.1396 -0.0069
  362MOL0     C49850   1.736   5.619   9.965 -0.5847 -0.6903 -0.5124
  362MOL0     C49851   1.608   5.640   9.997  0.3808  0.0302 -0.3087
  362MOL0     C49852   1.565   5.761  10.048  0.5401 -0.4352 -0.7662
  362MOL0     C49853   1.650   5.868  10.064 -0.1389 -0.6601  0.4569
  362MOL0     O49854   1.614   5.976  10.135 -0.1938  0.1218  0.1240
  362MOL0     C49855   1.482   6.038  10.123 -0.1004  0.9794 -0.1524
  362MOL0     C49856   1.390   6.036  10.252 -0.1329  0.2147  0.5327
  362MOL0     C49857   1.342   5.899  10.293 -0.6912  0.5237  0.5019
  362MOL0     C49858   1.228   5.908  10.399 -0.5477  0.8511 -0.0818
  362MOL0     C49859   1.177   5.778  10.442  0.6006  0.1892  0.0397
  362MOL0     C49860   1.057   5.789  10.541  0.6786  0.1531  0.5743
  362MOL0     C49861   0.960   5.662  10.522 -1.5745  0.3994  0.5864
  362MOL0     C49862   0.844   5.690  10.621 -0.0444 -0.2528 -0.4118
  362MOL0    Cl49863   0.731   5.550  10.606  0.1068 -0.4902  0.2702
  362MOL0     C49864   1.780   5.856  10.020 -0.7503  0.3353 -0.5157
  362MOL0     C49865   1.826   5.732   9.981  0.3037 -0.0314  0.0251
  362MOL0     O49866   1.903   5.578   9.751  0.0607  0.1402 -0.1052
  362MOL0     C49867   1.896   5.244   9.890  0.0919 -0.0435 -0.6351
  362MOL0     C49868   1.960   5.130   9.890  0.3689  1.0065 -0.3300
  362MOL0     N49869   2.279   4.449   9.944 -0.2937 -0.4157 -0.0417
  362MOL0     N49870   2.354   4.437  10.048  0.5477  0.6159  0.1559
  362MOL0     C49871   2.405   5.023  10.760  0.5425 -1.3922 -0.2997
  362MOL0     C49872   2.317   5.071  10.853 -0.5195  0.2909 -0.6179
  362MOL0     C49873   2.115   5.102  11.267  1.1527 -0.6399  0.4007
  362MOL0     C49874   2.135   5.099  11.402  0.0156  0.0073 -0.4099
  362MOL0     C49875   2.038   5.065  11.492 -0.8855  0.2741 -0.2654
  362MOL0     C49876   1.910   5.050  11.451  0.5836  0.4931  1.2306
  362MOL0     O49877   1.804   5.027  11.544  0.0147  0.3492 -0.2791
  362MOL0     C49878   1.829   5.061  11.682  0.0712  0.9083  0.1038
  362MOL0     C49879   1.726   4.986  11.765  0.2298  0.1070  0.0927
  362MOL0     C49880   1.779   4.837  11.778  0.7745  0.4223 -0.5274
  362MOL0     C49881   1.689   4.751  11.874 -0.0627 -0.4407 -0.6127
  362MOL0     C49882   1.729   4.610  11.877 -0.2742  0.0058  0.2444
  362MOL0     C49883   1.766   4.497  11.898 -0.0260 -1.2811 -0.2838
  362MOL0     C49884   1.878   5.055  11.319  0.9306 -0.3315  0.1283
  362MOL0     C49885   1.978   5.091  11.223  0.0637  0.5408 -0.5965
  362MOL0     C49886   1.941   5.095  11.078  0.9034 -0.4971 -0.9667
  362MOL0     H49887   2.448   4.925  11.128 -0.9292  1.0012  0.0490
  362MOL0     H49888   2.618   4.848  10.945 -1.0711 -1.7845 -1.5197
  362MOL0     H49889   2.538   4.697  10.725 -0.1287  0.0425 -0.6535
  362MOL0     H49890   2.704   4.742  10.773  0.7719  0.7248 -1.0756
  362MOL0     H49891   2.588   4.713  10.492  1.1480 -1.0869 -1.6142
  362MOL0     H49892   2.750   4.784  10.525 -1.5082  2.5398  0.1711
  362MOL0     H49893   2.841   4.584  10.572  0.4663  1.7118 -3.2811
  362MOL0     H49894   2.695   4.521  10.649 -0.1569 -0.8342 -0.3713
  362MOL0     H49895   2.733   4.390  10.449 -1.7222 -2.2345  0.0684
  362MOL0     H49896   2.606   4.498  10.402  0.5443 -0.4621  0.6711
  362MOL0     H49897   2.909   4.564  10.359  0.5700  0.5113 -0.6625
  362MOL0     H49898   2.777   4.634  10.269 -2.2574 -0.1444  1.3189
  362MOL0     H49899   2.877   4.477  10.130 -0.4961 -0.2086 -0.1278
  362MOL0     H49900   2.854   4.340  10.243  2.9233  0.2149 -0.3558
  362MOL0     H49901   2.634   4.319  10.189 -2.0727  1.1859 -1.5516
  362MOL0     H49902   2.710   4.374  10.038 -0.9625  1.7830 -1.4179
  362MOL0     H49903   2.546   4.565  10.211  0.4800  1.2641 -1.1218
  362MOL0     H49904   2.654   4.595  10.078  2.5343 -0.4206  2.1264
  362MOL0     H49905   2.551   4.594   9.835 -0.1195 -0.6468 -0.9994
  362MOL0     H49906   2.230   4.517   9.689  0.3928  0.0037 -1.4723
  362MOL0     H49907   2.393   4.578   9.665  0.5043 -0.6691  1.2810
  362MOL0     H49908   2.232   4.759   9.633  1.0439 -0.8673 -0.0511
  362MOL0     H49909   2.160   4.724   9.797  0.4768 -0.5682  1.8832
  362MOL0     H49910   2.319   4.807   9.922  0.4835  0.1487 -0.4816
  362MOL0     H49911   2.429   4.838   9.787 -0.1774  3.4676  0.4325
  362MOL0     H49912   2.337   5.046   9.833  0.8036  0.3329 -1.0826
  362MOL0     H49913   2.249   4.978   9.685  3.6721 -2.1506 -1.2236
  362MOL0     H49914   2.189   5.184   9.662 -0.5877 -0.1242 -2.4109
  362MOL0     H49915   2.190   5.380   9.576 -0.0237  0.4595 -0.6520
  362MOL0     H49916   2.111   5.519   9.663  0.1146  0.4026 -0.6545
  362MOL0     H49917   2.028   5.422   9.531  0.6216 -2.3121 -0.5053
  362MOL0     H49918   1.544   5.564   9.954 -0.3906  0.2988  0.3477
  362MOL0     H49919   1.460   5.784  10.066  0.3230 -1.4158 -0.7167
  362MOL0     H49920   1.494   6.144  10.097  0.6893  0.6838 -1.0416
  362MOL0     H49921   1.433   6.002  10.032 -0.2747  2.7784 -0.8022
  362MOL0     H49922   1.447   6.076  10.337 -0.1481  0.5059  0.4081
  362MOL0     H49923   1.302   6.097  10.231  1.2200  1.3130 -2.6739
  362MOL0     H49924   1.432   5.854  10.336 -0.4005  0.1938 -0.4200
  362MOL0     H49925   1.308   5.844  10.204  0.6906 -0.1567  0.3766
  362MOL0     H49926   1.147   5.960  10.346 -0.4285  3.1844  1.8844
  362MOL0     H49927   1.270   5.954  10.489 -0.6720 -0.2933  0.5781
  362MOL0     H49928   1.152   5.718  10.354  1.6615  1.2761 -1.0459
  362MOL0     H49929   1.255   5.733  10.505  2.2151 -0.5974 -2.3975
  362MOL0     H49930   1.005   5.884  10.529  0.5021 -0.2768 -3.0361
  362MOL0     H49931   1.099   5.777  10.642 -0.4155 -1.8631  0.8454
  362MOL0     H49932   1.016   5.569  10.536  0.2322  0.6170 -3.8005
  362MOL0     H49933   0.930   5.655  10.417  2.9451 -1.5949 -0.8137
  362MOL0     H49934   0.788   5.780  10.596  0.7213  1.2296  2.6719
  362MOL0     H49935   0.880   5.706  10.723 -0.5395 -0.2996 -0.2257
  362MOL0     H49936   1.850   5.939  10.029 -0.7835  0.7237 -3.1302
  362MOL0     H49937   1.930   5.714   9.958  0.5560  1.3474  0.0023
  362MOL0     H49938   1.819   5.260   9.964 -0.6439 -0.6063 -1.2576
  362MOL0     H49939   1.926   5.051   9.955  1.3786  0.7708 -0.0758
  362MOL0     H49940   2.383   5.055  10.658 -0.8941  0.0225  0.4011
  362MOL0     H49941   2.224   5.120  10.827 -1.4296 -1.2039 -0.3045
  362MOL0     H49942   2.236   5.103  11.442 -0.5295  0.9112  0.9563
  362MOL0     H49943   2.080   5.062  11.592 -1.6460  0.9106  0.0851
  362MOL0     H49944   1.925   5.026  11.722 -1.0799 -2.2541  0.3651
  362MOL0     H49945   1.807   5.168  11.689 -1.1974  0.9010 -2.5773
  362MOL0     H49946   1.628   4.992  11.717  0.1613  0.8171  0.3036
  362MOL0     H49947   1.715   5.043  11.858 -3.3689  1.6836 -1.0960
  362MOL0     H49948   1.779   4.802  11.675 -1.2709  1.2259 -0.8535
  362MOL0     H49949   1.878   4.826  11.825  1.0109  1.1502 -0.8320
  362MOL0     H49950   1.586   4.750  11.837 -0.9499 -0.5114  1.7093
  362MOL0     H49951   1.687   4.794  11.975 -2.7324 -2.4199  0.2999
  362MOL0     H49952   1.799   4.395  11.904 -2.0609 -2.0362 -1.0824
  362MOL0     H49953   1.777   5.037  11.284  1.5607 -4.5194 -0.0003
  362MOL0     H49954   1.832   5.097  11.063  0.8104 -1.7196 -0.5593
  362MOL0     H49955   1.983   5.185  11.031  0.9083  0.1514  0.2414
  362MOL0     H49956   1.979   5.002  11.036 -0.2782 -2.6954  2.4975
  363MOL0     O49957   4.869   0.926   2.595  0.0451 -0.5452  0.3693
  363MOL0     C49958   4.858   0.851   2.693 -0.1803  0.5758 -0.9394
  363MOL0     O49959   4.950   0.781   2.746  0.1846  0.9045 -0.0486
  363MOL0     C49960   5.076   0.797   2.697 -0.5402 -0.5296  1.2199
  363MOL0     C49961   5.111   0.737   2.576  0.0793 -0.0169  0.1283
  363MOL0     C49962   5.250   0.725   2.537 -0.5895  0.4573  0.8122
  363MOL0     C49963   5.358   0.778   2.612 -0.1359 -0.6000  1.1992
  363MOL0     O49964   5.495   0.767   2.589 -0.2768  0.7559  0.8616
  363MOL0     C49965   5.545   0.724   2.456 -0.1779  0.9470 -0.4440
  363MOL0     C49966   5.513   0.836   2.359 -0.6136  0.8266  0.0448
  363MOL0     C49967   5.589   0.813   2.227  0.3917 -0.7271  0.3102
  363MOL0     C49968   5.516   0.739   2.127 -0.6860  0.1085 -0.0292
  363MOL0     C49969   5.616   0.721   2.003  0.3939 -0.4001 -0.5923
  363MOL0     C49970   5.534   0.661   1.888  0.5871 -0.2004  0.4514
  363MOL0     C49971   5.619   0.632   1.758 -0.1897  0.5934 -0.3120
  363MOL0     C49972   5.657   0.750   1.669 -0.0329  0.3604 -1.5715
  363MOL0     N49973   5.762   0.830   1.714  0.0346 -0.5493 -0.2877
  363MOL0     C49974   5.889   0.785   1.734  0.0838 -0.4014  0.1035
  363MOL0     C49975   5.955   0.900   1.768 -0.7830  0.6909  0.0155
  363MOL0     C49976   6.100   0.888   1.806  0.6487 -0.5356 -0.5510
  363MOL0     C49977   6.125   0.864   1.954  0.0914 -0.5214  0.0711
  363MOL0     C49978   6.068   0.731   2.010  0.6916 -0.3806  0.2417
  363MOL0     C49979   6.134   0.604   1.964 -0.1118 -0.1688 -0.3489
  363MOL0     O49980   6.037   0.502   1.935  0.3846 -0.1498 -0.1608
  363MOL0     C49981   5.996   0.413   2.039  0.5594  0.6144  0.1925
  363MOL0     C49982   6.030   0.433   2.174  0.4559 -0.1515 -0.0715
  363MOL0     C49983   5.986   0.343   2.272  0.1541 -0.3022 -1.3831
  363MOL0     C49984   6.003   0.399   2.419 -0.4548 -0.5579 -0.1297
  363MOL0     C49985   5.924   0.219   2.235  0.7848  0.9740 -0.2525
  363MOL0     C49986   5.872   0.127   2.326 -0.1458  0.2387 -0.1329
  363MOL0     O49987   5.803   0.020   2.268  0.0847 -0.0739 -0.5409
  363MOL0     C49988   5.779  -0.086   2.349  0.2526  0.6245  0.5418
  363MOL0     C49989   5.881  -0.160   2.408 -0.5820  0.3552 -0.0177
  363MOL0     C49990   5.850  -0.270   2.491  0.2711  0.4425 -0.1184
  363MOL0     C49991   5.720  -0.313   2.514 -0.9171 -0.9237 -0.7218
  363MOL0     O49992   5.707  -0.430   2.584 -0.3209 -0.4051  0.5384
  363MOL0     C49993   5.595  -0.512   2.575 -1.4043  0.3017  0.9908
  363MOL0     C49994   5.637  -0.655   2.550 -0.2906 -0.0719 -0.0373
  363MOL0     C49995   5.515  -0.732   2.511 -0.4839 -0.3238  0.8759
  363MOL0     C49996   5.570  -0.866   2.469  0.7365  0.3986  0.2766
  363MOL0     C49997   5.446  -0.964   2.470  0.3848 -0.5686 -0.0366
  363MOL0     C49998   5.362  -0.930   2.346 -1.0937 -0.6790 -0.4849
  363MOL0     C49999   5.279  -1.055   2.299  0.0320 -0.5014  0.1915
  363MOL0     C50000   5.166  -1.085   2.400  0.6504  0.3569 -0.6236
  363MOL0    Cl50001   5.056  -1.216   2.350  0.1888 -0.1397  0.0944
  363MOL0     C50002   5.619  -0.241   2.453 -0.3472 -0.0567 -0.1108
  363MOL0     C50003   5.650  -0.129   2.376 -0.1004 -0.1963  0.7280
  363MOL0     O50004   5.887   0.144   2.449  0.5223 -0.1419 -0.5282
  363MOL0     C50005   5.889   0.210   2.101  1.0202 -0.7494  0.5540
  363MOL0     C50006   5.924   0.301   2.000 -0.2144  0.3763  0.1970
  363MOL0     N50007   5.879   1.013   1.761  0.6773 -0.6434  0.3154
  363MOL0     N50008   5.761   0.968   1.721  0.8952 -0.8848  0.8709
  363MOL0     C50009   5.316   0.852   2.723  0.9933  1.0030 -1.2546
  363MOL0     C50010   5.184   0.859   2.765  0.3165 -0.2869  0.3387
  363MOL0     C50011   4.724   0.835   2.758 -0.1776  1.4041 -0.0536
  363MOL0     C50012   4.713   0.716   2.833  0.3376 -0.5146 -0.8444
  363MOL0     C50013   4.588   0.683   2.886 -0.4127 -0.5764  0.4545
  363MOL0     C50014   4.476   0.763   2.868 -0.3958  0.8671 -0.8932
  363MOL0     O50015   4.358   0.706   2.915 -0.2250  0.3378 -0.6585
  363MOL0     C50016   4.238   0.760   2.859  0.2381  0.2075 -0.4031
  363MOL0     C50017   4.109   0.684   2.901 -0.1736 -0.5011  0.1125
  363MOL0     C50018   4.115   0.535   2.860 -0.8312  0.3681 -0.2102
  363MOL0     C50019   3.986   0.452   2.884  1.0500  0.4339 -0.2628
  363MOL0     C50020   4.019   0.328   2.959  0.4795  0.3428  0.0955
  363MOL0     C50021   4.032   0.225   3.022 -0.8969  0.7646 -0.6847
  363MOL0     C50022   4.490   0.874   2.795 -0.6566 -0.2968  0.0475
  363MOL0     C50023   4.608   0.913   2.737 -0.0201  0.1275 -0.7903
  363MOL0     C50024   4.598   1.042   2.667 -0.2490 -0.8190  0.6387
  363MOL0     H50025   5.026   0.710   2.514 -1.4933  2.0952  1.1900
  363MOL0     H50026   5.265   0.662   2.450 -1.1882  1.7755 -0.2743
  363MOL0     H50027   5.485   0.636   2.431  0.0277  1.1801 -1.7997
  363MOL0     H50028   5.651   0.696   2.462  0.0528  1.3201 -2.3335
  363MOL0     H50029   5.406   0.840   2.336 -0.5788  1.0348 -0.0896
  363MOL0     H50030   5.536   0.937   2.393 -1.5060  2.6543 -4.1033
  363MOL0     H50031   5.614   0.912   2.187  0.7904 -1.6911 -1.9852
  363MOL0     H50032   5.686   0.772   2.253  2.1012  3.3273  1.0851
  363MOL0     H50033   5.492   0.639   2.165 -0.7002  0.6758  1.5364
  363MOL0     H50034   5.424   0.787   2.093 -0.4533  0.2652 -0.4411
  363MOL0     H50035   5.700   0.659   2.033  0.9027  1.0597  1.1688
  363MOL0     H50036   5.651   0.816   1.961 -2.1190 -0.1082 -2.2622
  363MOL0     H50037   5.486   0.569   1.922 -0.9458  1.0521  1.8349
  363MOL0     H50038   5.444   0.719   1.865 -0.2816 -1.6924 -0.0804
  363MOL0     H50039   5.572   0.577   1.677  3.0247 -0.8740 -1.3232
  363MOL0     H50040   5.714   0.588   1.788 -0.7973  0.2176  1.1420
  363MOL0     H50041   5.695   0.714   1.572  2.6163  2.3373 -1.3565
  363MOL0     H50042   5.570   0.814   1.650  0.2811  1.9556  1.8248
  363MOL0     H50043   5.933   0.687   1.714 -1.3580 -0.6114 -2.4807
  363MOL0     H50044   6.161   0.974   1.778  2.3896 -1.7370 -0.6035
  363MOL0     H50045   6.140   0.803   1.750  0.4979 -1.5272  0.8138
  363MOL0     H50046   6.234   0.866   1.964  0.2776  3.0411 -1.3522
  363MOL0     H50047   6.075   0.950   1.999 -1.7199  0.3243 -3.2372
  363MOL0     H50048   6.079   0.746   2.118  1.2239 -1.7879  0.4039
  363MOL0     H50049   5.962   0.725   1.984  1.0871 -0.2056 -1.5150
  363MOL0     H50050   6.191   0.631   1.875 -1.1739 -0.2699 -1.0741
  363MOL0     H50051   6.217   0.579   2.031  0.3975  0.7441 -0.6276
  363MOL0     H50052   6.079   0.522   2.212 -1.1156 -0.1991  2.3007
  363MOL0     H50053   6.040   0.502   2.418  0.5192 -0.8990 -0.7888
  363MOL0     H50054   6.068   0.343   2.486  0.5827  2.8494  2.0172
  363MOL0     H50055   5.907   0.402   2.472 -1.1129 -4.2311 -0.8926
  363MOL0     H50056   5.982  -0.124   2.392 -0.1432 -0.0991  1.4984
  363MOL0     H50057   5.934  -0.327   2.529 -0.9170 -1.8480 -0.7907
  363MOL0     H50058   5.537  -0.511   2.668 -2.5656 -1.0197  0.3267
  363MOL0     H50059   5.536  -0.465   2.496  1.5735  1.3700 -0.7951
  363MOL0     H50060   5.709  -0.661   2.468 -0.4772  1.7625 -0.3861
  363MOL0     H50061   5.674  -0.704   2.640  2.6209  0.9089 -0.5966
  363MOL0     H50062   5.460  -0.681   2.432  1.1410  0.8633  0.4530
  363MOL0     H50063   5.439  -0.760   2.584 -0.2978 -5.3631 -0.4670
  363MOL0     H50064   5.639  -0.901   2.547  1.5473  0.7063 -0.2886
  363MOL0     H50065   5.623  -0.867   2.374 -0.0117  2.5403 -0.2173
  363MOL0     H50066   5.490  -1.064   2.466 -0.0677 -0.7271 -2.9022
  363MOL0     H50067   5.395  -0.957   2.567 -0.8776 -0.5824 -0.6764
  363MOL0     H50068   5.420  -0.907   2.256  2.1072  1.1808  1.8317
  363MOL0     H50069   5.304  -0.839   2.363  1.7703  1.8575 -3.2317
  363MOL0     H50070   5.339  -1.145   2.283 -2.0328 -1.6561 -1.6293
  363MOL0     H50071   5.238  -1.032   2.200  0.8242  0.7311  0.1319
  363MOL0     H50072   5.100  -1.000   2.423 -1.2064 -1.2113  0.1816
  363MOL0     H50073   5.202  -1.110   2.499  0.3796  1.0548 -0.3376
  363MOL0     H50074   5.515  -0.272   2.445 -0.5649  0.5681  0.2506
  363MOL0     H50075   5.573  -0.083   2.316  0.8383 -0.3468 -0.6247
  363MOL0     H50076   5.839   0.118   2.072  1.4344 -0.2854 -1.8867
  363MOL0     H50077   5.903   0.282   1.895 -2.4125  0.3592  0.5781
  363MOL0     H50078   5.390   0.890   2.793 -0.1016  0.0659  0.4827
  363MOL0     H50079   5.155   0.907   2.859 -2.7557 -0.6627 -0.3100
  363MOL0     H50080   4.792   0.642   2.843  0.3635 -0.2362  1.4717
  363MOL0     H50081   4.567   0.594   2.944  1.2782 -0.5865  1.1277
  363MOL0     H50082   4.216   0.863   2.887 -0.2296 -0.0206  0.1171
  363MOL0     H50083   4.237   0.767   2.750  1.1387  3.0634 -0.2975
  363MOL0     H50084   4.028   0.735   2.849 -0.8018  1.6623  2.9524
  363MOL0     H50085   4.085   0.703   3.006 -0.9040 -2.4159  0.3367
  363MOL0     H50086   4.150   0.525   2.757  1.8839 -1.6092  0.7844
  363MOL0     H50087   4.196   0.485   2.914 -0.1735 -0.4639 -1.8925
  363MOL0     H50088   3.934   0.423   2.793  0.2767 -2.0693  0.8865
  363MOL0     H50089   3.900   0.504   2.925  1.6918  0.1861  1.4871
  363MOL0     H50090   4.045   0.144   3.090  1.0595  2.5990  1.2955
  363MOL0     H50091   4.399   0.932   2.787 -0.5469 -0.2107 -0.5961
  363MOL0     H50092   4.669   1.109   2.717  0.3635 -2.9278  2.7400
  363MOL0     H50093   4.616   1.020   2.561  1.1180  0.4391  0.5655
  363MOL0     H50094   4.500   1.089   2.673  1.2227  2.4515  1.4575
  364MOL0     O50095   7.191   1.936   7.911  0.6869 -0.2842  0.5952
  364MOL0     C50096   7.285   1.880   7.854  0.5392  0.2539  0.9066
  364MOL0     O50097   7.414   1.934   7.851  0.7354 -0.0829 -0.7526
  364MOL0     C50098   7.416   2.068   7.870 -0.8330  0.3870 -0.3777
  364MOL0     C50099   7.337   2.157   7.797  0.0904 -0.1932  0.4232
  364MOL0     C50100   7.355   2.297   7.818  0.0110  0.0323 -0.2779
  364MOL0     C50101   7.439   2.354   7.910 -0.0229 -0.3094 -0.5914
  364MOL0     O50102   7.449   2.499   7.920  0.4817  0.5310 -0.2671
  364MOL0     C50103   7.566   2.549   7.984 -0.6502 -0.2256  0.3762
  364MOL0     C50104   7.576   2.698   7.939 -0.8207 -1.0766 -0.2445
  364MOL0     C50105   7.691   2.768   8.013 -0.7334  0.3539 -0.0690
  364MOL0     C50106   7.707   2.918   7.961 -0.0993  1.1482  0.5185
  364MOL0     C50107   7.839   2.973   8.009  0.0385  0.5748 -0.1101
  364MOL0     C50108   7.839   3.122   7.976  0.9903  0.5474  0.1699
  364MOL0     C50109   7.982   3.182   8.008  0.3079  0.2379 -1.1550
  364MOL0     C50110   7.980   3.336   7.993  0.3332  0.0086  0.7268
  364MOL0     N50111   8.121   3.383   8.004  0.5113  0.3429  1.2194
  364MOL0     C50112   8.218   3.403   7.908  0.1272 -0.2050  0.2165
  364MOL0     C50113   8.324   3.454   7.977 -0.4949  0.2257 -0.2157
  364MOL0     C50114   8.459   3.442   7.910  0.4853  0.0951  0.2105
  364MOL0     C50115   8.532   3.571   7.885  0.6250 -0.6098 -0.0987
  364MOL0     C50116   8.517   3.670   8.004  0.2948 -0.4759  0.1241
  364MOL0     C50117   8.615   3.784   8.002 -0.3690  0.8561  0.1940
  364MOL0     O50118   8.610   3.883   7.894  1.0964 -0.1406 -0.0301
  364MOL0     C50119   8.492   3.952   7.869 -0.6030  1.5231  0.4583
  364MOL0     C50120   8.418   4.016   7.974 -0.1648  0.3995 -0.3571
  364MOL0     C50121   8.306   4.094   7.955 -0.5955 -0.0605 -0.7358
  364MOL0     C50122   8.233   4.137   8.086  0.1572 -0.4313 -0.6584
  364MOL0     C50123   8.259   4.108   7.817 -0.6270  0.1397 -0.4352
  364MOL0     C50124   8.140   4.193   7.787 -0.3770 -0.4747 -0.8417
  364MOL0     O50125   8.094   4.269   7.884  0.4853  0.3167 -0.5171
  364MOL0     C50126   7.982   4.337   7.847  0.9549  0.3753  0.4069
  364MOL0     C50127   7.983   4.457   7.769  0.6826  0.1960 -0.0564
  364MOL0     C50128   7.860   4.533   7.752 -0.8198 -0.1513  0.3813
  364MOL0     C50129   7.743   4.496   7.812  0.2579  0.2246  0.0986
  364MOL0     O50130   7.635   4.572   7.792  0.4505  0.2797  0.4737
  364MOL0     C50131   7.508   4.512   7.752  0.5333  0.0854 -0.5913
  364MOL0     C50132   7.422   4.618   7.688 -0.0831  0.4361  0.8925
  364MOL0     C50133   7.385   4.746   7.753 -0.8075 -0.0949 -0.3963
  364MOL0     C50134   7.283   4.823   7.674 -0.4412  0.2594 -0.5771
  364MOL0     C50135   7.257   4.966   7.724  0.5229  0.6293 -1.1922
  364MOL0     C50136   7.140   4.969   7.837  0.2884 -0.0886 -1.1039
  364MOL0     C50137   7.076   5.111   7.844  0.6597 -0.1816 -0.4993
  364MOL0     C50138   6.990   5.145   7.966 -0.2756 -1.0985 -0.6578
  364MOL0    Cl50139   6.837   5.045   7.937  0.4984 -0.0067 -0.0600
  364MOL0     C50140   7.744   4.378   7.899 -0.8106  0.1893 -0.0936
  364MOL0     C50141   7.864   4.302   7.908  0.1000 -0.8748 -0.7024
  364MOL0     O50142   8.098   4.179   7.675 -0.8463 -0.0143 -0.1865
  364MOL0     C50143   8.340   4.052   7.709  0.1547  0.4358 -0.2819
  364MOL0     C50144   8.453   3.981   7.738 -0.3178  0.6806 -0.5860
  364MOL0     N50145   8.294   3.475   8.105  0.2501  0.0197 -0.5012
  364MOL0     N50146   8.162   3.444   8.120  0.6044  0.3707  0.4847
  364MOL0     C50147   7.529   2.262   7.987  0.0789  0.0969 -0.3728
  364MOL0     C50148   7.505   2.121   7.959 -1.1647 -0.9957  0.1703
  364MOL0     C50149   7.254   1.775   7.749 -0.2958 -0.2487  0.6573
  364MOL0     C50150   7.360   1.730   7.656  0.0939 -0.0053  0.0585
  364MOL0     C50151   7.346   1.615   7.581  0.1963  0.6759  0.0510
  364MOL0     C50152   7.227   1.537   7.576  0.6148  0.2500 -0.2855
  364MOL0     O50153   7.221   1.426   7.495  0.1651 -0.0189  0.1130
  364MOL0     C50154   7.112   1.425   7.403  0.7084 -0.0297  0.2576
  364MOL0     C50155   6.989   1.332   7.437 -0.3056  0.1078 -0.7160
  364MOL0     C50156   6.846   1.388   7.409 -0.5066 -0.3129  0.5977
  364MOL0     C50157   6.732   1.288   7.435 -0.9664 -0.2877 -0.1404
  364MOL0     C50158   6.722   1.202   7.315 -0.0598 -0.4845 -0.0837
  364MOL0     C50159   6.711   1.145   7.212  0.0244  0.5382 -0.0586
  364MOL0     C50160   7.115   1.586   7.649  0.3742 -0.3343  0.9880
  364MOL0     C50161   7.122   1.700   7.730 -0.0913 -0.5620  0.2553
  364MOL0     C50162   7.003   1.719   7.809  0.3970 -0.1177 -0.3917
  364MOL0     H50163   7.268   2.120   7.722  0.2499  2.1469 -0.9929
  364MOL0     H50164   7.300   2.376   7.769  1.1808  0.6389 -0.6551
  364MOL0     H50165   7.652   2.492   7.948 -1.1961 -1.2222  0.6112
  364MOL0     H50166   7.555   2.551   8.093 -3.1484 -2.0568  0.2446
  364MOL0     H50167   7.590   2.710   7.831  3.1687  2.9334  0.4365
  364MOL0     H50168   7.485   2.751   7.966 -0.6012 -1.1771  0.7513
  364MOL0     H50169   7.671   2.776   8.120 -0.2828  2.1651 -0.0872
  364MOL0     H50170   7.787   2.715   8.005 -2.0308 -2.6031  2.0552
  364MOL0     H50171   7.694   2.917   7.853 -2.9092 -2.7421  0.7010
  364MOL0     H50172   7.628   2.970   8.016  0.1778  1.5836  0.5092
  364MOL0     H50173   7.929   2.919   7.978  0.1373 -1.0307  2.6543
  364MOL0     H50174   7.838   2.959   8.118 -1.9503 -2.8108 -0.4111
  364MOL0     H50175   7.815   3.142   7.871 -1.0051  0.1457  0.5128
  364MOL0     H50176   7.754   3.166   8.029 -3.2146 -1.6620 -4.0234
  364MOL0     H50177   8.057   3.134   7.944 -0.0881  0.3370 -1.6975
  364MOL0     H50178   7.998   3.165   8.115 -2.1176  1.3883 -0.5621
  364MOL0     H50179   7.942   3.359   7.893  0.8070 -0.6270  0.3962
  364MOL0     H50180   7.913   3.379   8.068 -0.1447 -0.9536  0.8615
  364MOL0     H50181   8.216   3.397   7.799  2.2096  0.3124  0.1127
  364MOL0     H50182   8.454   3.389   7.814  2.2057  0.5457 -0.1661
  364MOL0     H50183   8.524   3.374   7.966  2.2430  0.9653 -0.6600
  364MOL0     H50184   8.638   3.553   7.862  1.4915  1.8475  1.5737
  364MOL0     H50185   8.489   3.615   7.795  1.4368  1.2388  0.3633
  364MOL0     H50186   8.416   3.709   7.994  0.7877  0.7804 -0.1910
  364MOL0     H50187   8.531   3.630   8.105 -2.4276  2.3155  1.7793
  364MOL0     H50188   8.609   3.833   8.100  0.9684  2.3717 -0.4218
  364MOL0     H50189   8.717   3.746   8.012 -0.7386  0.3014  2.2666
  364MOL0     H50190   8.453   3.997   8.075  0.0788  1.7049 -0.1769
  364MOL0     H50191   8.274   4.086   8.173 -0.0793 -0.1603 -0.3864
  364MOL0     H50192   8.127   4.112   8.087 -0.3214  1.3353  1.4290
  364MOL0     H50193   8.246   4.246   8.093  2.1966 -0.5618 -1.5974
  364MOL0     H50194   8.080   4.490   7.732  0.8711  0.9691  1.0799
  364MOL0     H50195   7.868   4.618   7.685 -0.7897 -0.4328  0.0298
  364MOL0     H50196   7.517   4.432   7.678 -1.4222  0.7722 -1.6413
  364MOL0     H50197   7.459   4.473   7.842 -0.5979 -1.1962 -1.7371
  364MOL0     H50198   7.474   4.644   7.595  0.7325  0.6177  1.3872
  364MOL0     H50199   7.323   4.578   7.665  0.4310 -0.7120  0.6344
  364MOL0     H50200   7.470   4.811   7.775 -2.0814  0.7512  2.3931
  364MOL0     H50201   7.342   4.725   7.851  1.8687  0.5300  0.9928
  364MOL0     H50202   7.190   4.766   7.663 -0.3426 -0.3015  1.1969
  364MOL0     H50203   7.325   4.838   7.574 -1.4528  2.8833 -0.6869
  364MOL0     H50204   7.349   5.013   7.759 -0.5930  0.8092  1.7309
  364MOL0     H50205   7.211   5.016   7.638 -0.4213 -0.0479 -1.1026
  364MOL0     H50206   7.171   4.941   7.938 -0.6442  2.4309 -0.0055
  364MOL0     H50207   7.053   4.906   7.819  0.3770 -1.2724  2.0432
  364MOL0     H50208   7.029   5.137   7.749 -1.6860  0.0453  0.6453
  364MOL0     H50209   7.156   5.186   7.852 -0.5850  1.0397  1.8893
  364MOL0     H50210   6.963   5.251   7.968 -0.3693 -1.1340 -0.0855
  364MOL0     H50211   7.048   5.125   8.056 -2.3738  1.4096  1.4094
  364MOL0     H50212   7.655   4.343   7.950  0.3821  0.1066  2.0349
  364MOL0     H50213   7.877   4.215   7.972 -1.6031 -1.1322 -0.6543
  364MOL0     H50214   8.312   4.084   7.609  1.7692  1.9214 -0.3172
  364MOL0     H50215   8.519   3.948   7.659  0.2909  0.3882  0.0447
  364MOL0     H50216   7.595   2.292   8.068  0.4690 -3.0014  0.5648
  364MOL0     H50217   7.561   2.049   8.019 -1.1269 -0.4224  0.8300
  364MOL0     H50218   7.444   1.795   7.636 -0.3942 -0.0973 -2.6236
  364MOL0     H50219   7.432   1.575   7.528  0.0259  1.4548 -0.8390
  364MOL0     H50220   7.063   1.522   7.391 -0.7220 -0.6123  1.0484
  364MOL0     H50221   7.158   1.399   7.307  2.1588 -0.3501  1.0111
  364MOL0     H50222   6.994   1.308   7.543  0.6467 -1.2577 -1.0506
  364MOL0     H50223   6.994   1.250   7.365  3.8007  1.6938 -2.5422
  364MOL0     H50224   6.828   1.478   7.469 -4.4452 -1.0045  0.7150
  364MOL0     H50225   6.841   1.417   7.303 -0.0074  1.6557  1.0782
  364MOL0     H50226   6.643   1.349   7.456 -0.2021  0.3670  1.3584
  364MOL0     H50227   6.768   1.230   7.520 -0.9619 -1.0739 -0.6734
  364MOL0     H50228   6.704   1.083   7.125  0.0640 -1.4916  1.3306
  364MOL0     H50229   7.030   1.520   7.666 -0.0649  0.3641  1.5507
  364MOL0     H50230   7.014   1.795   7.886  1.3718 -1.6717  1.0538
  364MOL0     H50231   6.915   1.741   7.747  0.6309 -1.0738 -1.0957
  364MOL0     H50232   6.969   1.632   7.865 -0.8425 -0.9669 -2.3352
  365MOL0     O50233   9.203  10.889  10.539  0.4808  0.0018 -0.3284
  365MOL0     C50234   9.148  10.820  10.462  1.0153 -0.1699  0.3469
  365MOL0     O50235   9.209  10.770  10.351  0.4771 -0.0659  0.4548
  365MOL0     C50236   9.344  10.768  10.345 -0.1328 -0.3162 -0.0631
  365MOL0     C50237   9.404  10.653  10.292  0.6343  0.0433 -0.2191
  365MOL0     C50238   9.546  10.647  10.268 -0.0223 -0.8139 -0.7724
  365MOL0     C50239   9.628  10.755  10.318 -0.6015  0.7030  0.0717
  365MOL0     O50240   9.756  10.771  10.277 -0.4125  0.0186 -0.3938
  365MOL0     C50241   9.835  10.655  10.221  0.9940 -1.1340 -0.2088
  365MOL0     C50242   9.987  10.672  10.213 -0.6357  0.0124  0.0999
  365MOL0     C50243  10.056  10.689  10.343  0.2695  0.3334 -0.8353
  365MOL0     C50244  10.202  10.748  10.321  0.2980  0.5296  0.2537
  365MOL0     C50245  10.289  10.706  10.447  0.2508  0.4887 -0.2595
  365MOL0     C50246  10.355  10.575  10.430 -0.0690 -0.7570 -0.0405
  365MOL0     C50247  10.460  10.567  10.540 -0.5976  0.4762  0.0021
  365MOL0     C50248  10.504  10.409  10.528  0.4557 -0.8459 -0.1590
  365MOL0     N50249  10.614  10.403  10.619 -0.4814  0.8713 -0.4108
  365MOL0     C50250  10.751  10.399  10.591 -0.6247  0.2686  0.7080
  365MOL0     C50251  10.811  10.368  10.709  0.6803 -0.0921  0.1801
  365MOL0     C50252  10.963  10.356  10.731 -0.1347 -0.0103 -0.5623
  365MOL0     C50253  11.017  10.241  10.656 -0.1691 -0.0320 -0.5089
  365MOL0     C50254  11.163  10.258  10.614 -0.0048 -0.0594  0.3528
  365MOL0     C50255  11.234  10.127  10.590 -0.1847  0.1766 -0.6259
  365MOL0     O50256  11.376  10.141  10.571  1.0316  0.7161 -0.8866
  365MOL0     C50257  11.446  10.049  10.495  0.7495  0.0254 -1.2106
  365MOL0     C50258  11.578  10.084  10.477 -0.5369 -0.2412  1.1388
  365MOL0     C50259  11.669  10.000  10.407  0.5653 -0.4994  0.4042
  365MOL0     C50260  11.812  10.055  10.410  0.3480 -0.6536 -0.8010
  365MOL0     C50261  11.630   9.877  10.362 -0.6547  0.1985  0.3649
  365MOL0     C50262  11.727   9.790  10.277 -1.8521 -0.6031 -0.4031
  365MOL0     O50263  11.845   9.840  10.236 -0.2606  0.4193 -0.6186
  365MOL0     C50264  11.908   9.766  10.143 -0.6389  0.1640  0.1249
  365MOL0     C50265  11.908   9.794  10.007  0.6383 -0.1260  0.5356
  365MOL0     C50266  11.974   9.711   9.924  0.1289  0.2143  0.1492
  365MOL0     C50267  12.062   9.617   9.972  0.0117 -0.9264  0.5935
  365MOL0     O50268  12.133   9.560   9.879 -0.3258 -0.0285  0.0309
  365MOL0     C50269  12.249   9.490   9.930  0.7728 -0.0593  0.7451
  365MOL0     C50270  12.338   9.431   9.820 -0.0987 -0.4569  1.1408
  365MOL0     C50271  12.402   9.301   9.867 -0.4330 -0.4543 -0.0162
  365MOL0     C50272  12.519   9.264   9.780 -0.1608 -0.3386 -0.0122
  365MOL0     C50273  12.475   9.192   9.651  1.0505  0.5764  0.1292
  365MOL0     C50274  12.592   9.157   9.563 -0.3962  0.1892  0.0434
  365MOL0     C50275  12.547   9.104   9.429 -0.4597  0.2486  0.6072
  365MOL0     C50276  12.500   8.956   9.450  1.2188 -0.2423  0.1763
  365MOL0    Cl50277  12.409   8.883   9.307  0.1742  0.3813  0.3246
  365MOL0     C50278  12.079   9.599  10.104 -0.8470  0.0492  0.4453
  365MOL0     C50279  12.007   9.679  10.191  1.2224  1.2202 -1.2376
  365MOL0     O50280  11.693   9.675  10.255  0.1801  0.8394  0.2896
  365MOL0     C50281  11.495   9.843  10.374  0.1498 -0.3646 -0.1502
  365MOL0     C50282  11.405   9.920  10.448 -0.1487 -0.4056 -0.0172
  365MOL0     N50283  10.713  10.378  10.816  0.2511 -0.5296  1.2003
  365MOL0     N50284  10.596  10.382  10.755 -0.0056 -0.7524 -0.5680
  365MOL0     C50285   9.565  10.862  10.379  0.1135 -0.1171 -0.2209
  365MOL0     C50286   9.428  10.869  10.399  0.1040  0.8243  0.8215
  365MOL0     C50287   9.005  10.792  10.483  0.2033  0.5678  0.2441
  365MOL0     C50288   8.931  10.726  10.375  0.0415  0.3565 -0.2003
  365MOL0     C50289   8.799  10.685  10.379 -0.4293 -0.1687 -0.0464
  365MOL0     C50290   8.728  10.726  10.494 -0.1418  0.4540 -0.5121
  365MOL0     O50291   8.597  10.701  10.480  0.4187  0.5804  0.9398
  365MOL0     C50292   8.502  10.740  10.577 -0.0214  0.3817  0.4711
  365MOL0     C50293   8.499  10.636  10.682  0.3150  0.0443 -0.1943
  365MOL0     C50294   8.352  10.630  10.746  0.4866 -0.4436 -0.0404
  365MOL0     C50295   8.267  10.528  10.660 -0.2181 -0.0221  0.5434
  365MOL0     C50296   8.279  10.387  10.695 -0.1109  0.4231  1.0899
  365MOL0     C50297   8.319  10.279  10.730  0.3688  0.5805 -0.2164
  365MOL0     C50298   8.789  10.795  10.598  0.4644  0.7475  0.5745
  365MOL0     C50299   8.928  10.822  10.596  0.0230  1.2160 -0.0064
  365MOL0     C50300   8.983  10.885  10.727 -0.7964 -0.1564 -0.3017
  365MOL0     H50301   9.341  10.567  10.271  0.0385  0.1761  0.9620
  365MOL0     H50302   9.581  10.563  10.209 -0.1505 -0.9180 -0.7008
  365MOL0     H50303   9.789  10.639  10.123 -2.8518  0.3016  1.1766
  365MOL0     H50304   9.817  10.573  10.291 -2.3474  1.4933  2.3887
  365MOL0     H50305  10.018  10.573  10.177  0.0128 -0.1298  1.0137
  365MOL0     H50306  10.007  10.759  10.151 -2.9546  3.4012  3.6140
  365MOL0     H50307  10.013  10.757  10.417  3.2319 -0.7313  2.1169
  365MOL0     H50308  10.067  10.592  10.393 -1.3184 -1.2129 -3.2432
  365MOL0     H50309  10.262  10.713  10.237  2.5401  2.1859  1.0530
  365MOL0     H50310  10.192  10.857  10.325 -4.0271  0.2640  2.0616
  365MOL0     H50311  10.233  10.710  10.541 -0.1020  3.0959 -0.4972
  365MOL0     H50312  10.364  10.785  10.447  0.3572  0.4767 -3.1659
  365MOL0     H50313  10.284  10.492  10.431 -0.8746 -0.0783 -0.0541
  365MOL0     H50314  10.403  10.570  10.332  1.3441  1.8524  0.4272
  365MOL0     H50315  10.420  10.603  10.635 -2.1710  1.4333 -0.9740
  365MOL0     H50316  10.547  10.628  10.512  1.1029 -2.5699 -1.9189
  365MOL0     H50317  10.423  10.346  10.566  0.7372 -0.8151  0.5118
  365MOL0     H50318  10.518  10.362  10.431  2.3472 -0.2638 -0.1943
  365MOL0     H50319  10.792  10.406  10.491  2.1930  0.1388  1.7643
  365MOL0     H50320  10.988  10.345  10.837 -0.5493  2.6467 -0.1192
  365MOL0     H50321  11.006  10.453  10.703 -0.4932  1.0048  2.0542
  365MOL0     H50322  11.024  10.155  10.723  0.1279  1.0767  0.9268
  365MOL0     H50323  10.951  10.219  10.572  1.7583 -1.4691 -1.7332
  365MOL0     H50324  11.177  10.329  10.532  0.6030  0.1076  0.5974
  365MOL0     H50325  11.222  10.292  10.699 -0.6227 -0.1723  0.8314
  365MOL0     H50326  11.211  10.054  10.668  1.6844  1.7617  1.5174
  365MOL0     H50327  11.198  10.100  10.490  0.6454  0.5910 -1.0438
  365MOL0     H50328  11.603  10.183  10.513 -1.7725 -0.2650  2.1356
  365MOL0     H50329  11.888   9.984  10.444  1.1412 -0.8987 -2.9187
  365MOL0     H50330  11.817  10.147  10.470  0.6105 -1.1257 -0.0863
  365MOL0     H50331  11.848  10.073  10.308 -1.2365 -1.3288 -1.5049
  365MOL0     H50332  11.861   9.880   9.962  0.7129  0.3366  1.3299
  365MOL0     H50333  11.968   9.727   9.817 -3.0397 -0.2168  0.1689
  365MOL0     H50334  12.312   9.549   9.997  2.2550  2.3513 -2.5044
  365MOL0     H50335  12.215   9.400   9.983  3.0376 -2.6499 -1.8215
  365MOL0     H50336  12.286   9.404   9.728 -0.7042  0.2513  1.2698
  365MOL0     H50337  12.422   9.499   9.805  0.1687 -1.2627 -1.3895
  365MOL0     H50338  12.329   9.220   9.861 -1.5198  0.5824 -2.1088
  365MOL0     H50339  12.439   9.316   9.969  1.2625  0.8664 -0.7737
  365MOL0     H50340  12.588   9.203   9.839 -0.9214 -0.3207  0.9194
  365MOL0     H50341  12.573   9.356   9.755 -1.3052  0.4314  0.2677
  365MOL0     H50342  12.412   9.107   9.677 -0.1805  1.4044 -0.0622
  365MOL0     H50343  12.415   9.266   9.597  0.5414  2.0685  2.5620
  365MOL0     H50344  12.647   9.074   9.608 -3.8728 -1.5620  1.5014
  365MOL0     H50345  12.653   9.246   9.549 -0.0121 -0.1105 -0.2056
  365MOL0     H50346  12.626   9.092   9.353  0.0577  0.1928  1.1490
  365MOL0     H50347  12.466   9.167   9.392 -1.5455 -0.7885  1.1782
  365MOL0     H50348  12.432   8.964   9.535  0.5460 -1.5659 -0.1983
  365MOL0     H50349  12.588   8.896   9.475 -0.1096 -1.6049  1.9236
  365MOL0     H50350  12.141   9.522  10.150 -0.7247 -0.2267 -0.1733
  365MOL0     H50351  12.007   9.677  10.300 -1.8524  0.5199 -1.1723
  365MOL0     H50352  11.462   9.748  10.333  1.3069 -1.5980  1.6203
  365MOL0     H50353  11.307   9.875  10.464  0.6895 -2.3101  0.1257
  365MOL0     H50354   9.625  10.950  10.400  3.2775 -1.8065 -1.5020
  365MOL0     H50355   9.396  10.964  10.441  0.5676  1.5161 -0.3378
  365MOL0     H50356   8.993  10.712  10.287  2.4925 -0.1312  1.4937
  365MOL0     H50357   8.748  10.629  10.302 -1.7913 -0.9325  1.3622
  365MOL0     H50358   8.503  10.843  10.613  0.3254  0.5993 -0.1345
  365MOL0     H50359   8.413  10.730  10.514 -2.0564 -0.4248  3.3003
  365MOL0     H50360   8.567  10.681  10.754 -1.5265  2.9266 -0.1085
  365MOL0     H50361   8.521  10.538  10.638  1.7530  0.0859  0.3994
  365MOL0     H50362   8.368  10.602  10.850  0.8261 -1.0533 -0.2445
  365MOL0     H50363   8.299  10.725  10.735 -0.9271 -1.0902  0.9306
  365MOL0     H50364   8.302  10.537  10.556  1.0206  0.4054  0.9761
  365MOL0     H50365   8.161  10.556  10.663 -0.2896  0.2322 -1.9865
  365MOL0     H50366   8.366  10.190  10.766 -3.3691 -2.5332 -2.2786
  365MOL0     H50367   8.725  10.812  10.684 -3.2116 -3.6976 -0.8699
  365MOL0     H50368   9.082  10.849  10.757 -1.6480 -0.5490  2.2793
  365MOL0     H50369   8.989  10.994  10.715  4.0666 -0.2580 -0.4512
  365MOL0     H50370   8.926  10.854  10.815  1.5693 -2.0367  0.6718
  366MOL0     O50371   1.463   8.335   9.467  0.3266 -0.4422 -0.5283
  366MOL0     C50372   1.384   8.394   9.395 -0.4664 -1.1858 -0.0083
  366MOL0     O50373   1.421   8.495   9.307  1.0467 -0.0139  0.3675
  366MOL0     C50374   1.552   8.495   9.280 -0.7510 -0.2078 -0.0371
  366MOL0     C50375   1.645   8.541   9.373  0.2656  0.3476 -0.6830
  366MOL0     C50376   1.782   8.533   9.336 -0.1701 -0.0984  0.3620
  366MOL0     C50377   1.824   8.494   9.201  0.1559  0.1125  0.7203
  366MOL0     O50378   1.955   8.495   9.155 -0.4157  0.4143 -0.3490
  366MOL0     C50379   2.049   8.577   9.232 -0.0575 -0.5539 -0.4508
  366MOL0     C50380   2.181   8.574   9.161 -0.6089 -0.5525  0.4549
  366MOL0     C50381   2.290   8.649   9.242  0.4814 -0.9760  0.3847
  366MOL0     C50382   2.431   8.619   9.184 -0.3385 -0.2124  0.3062
  366MOL0     C50383   2.527   8.698   9.265 -0.4116  0.7240  0.8027
  366MOL0     C50384   2.678   8.699   9.224  0.3106 -0.1388 -0.2308
  366MOL0     C50385   2.741   8.574   9.271 -0.2808  0.7680  0.1945
  366MOL0     C50386   2.890   8.580   9.221 -0.1701 -0.0040  0.0744
  366MOL0     N50387   2.969   8.690   9.270 -0.1568 -0.3030 -0.3379
  366MOL0     C50388   3.053   8.685   9.376  0.1234 -0.4606  0.5508
  366MOL0     C50389   3.130   8.800   9.376 -0.5202 -0.5856  0.1831
  366MOL0     C50390   3.241   8.821   9.478 -0.4794  0.1995  0.1232
  366MOL0     C50391   3.324   8.949   9.438 -0.5120 -0.0568  0.2565
  366MOL0     C50392   3.407   9.010   9.552 -0.2508  0.0855 -0.0515
  366MOL0     C50393   3.470   9.137   9.511 -0.0788 -0.2189  0.7458
  366MOL0     O50394   3.555   9.139   9.386 -0.1084  0.5929  0.3649
  366MOL0     C50395   3.626   9.242   9.352  0.2029 -0.8884  0.3541
  366MOL0     C50396   3.717   9.223   9.249 -0.5418 -0.5844  0.7659
  366MOL0     C50397   3.817   9.322   9.215  1.1575 -0.6306  1.1862
  366MOL0     C50398   3.917   9.286   9.111  0.8058 -0.2323  0.0540
  366MOL0     C50399   3.824   9.446   9.291  0.0076 -0.4465  0.1405
  366MOL0     C50400   3.912   9.560   9.259 -0.0999  0.2172  0.4274
  366MOL0     O50401   3.867   9.681   9.305 -0.4682  0.5792  0.0305
  366MOL0     C50402   3.952   9.787   9.324 -0.3992 -0.3143 -0.4039
  366MOL0     C50403   3.917   9.865   9.438 -0.2228  0.4948  0.3188
  366MOL0     C50404   3.993   9.979   9.464 -0.1891 -0.2612 -0.0981
  366MOL0     C50405   4.080  10.031   9.371 -0.3343  0.2925  0.1667
  366MOL0     O50406   4.148  10.146   9.403 -0.5894  0.6671  0.3603
  366MOL0     C50407   4.258  10.130   9.500 -0.0521 -0.7312  0.5591
  366MOL0     C50408   4.299  10.270   9.543 -0.0378  0.0046 -0.0609
  366MOL0     C50409   4.415  10.286   9.635 -0.7957 -1.0831 -0.7456
  366MOL0     C50410   4.381  10.241   9.773 -0.3573  0.6784  0.4646
  366MOL0     C50411   4.502  10.230   9.864  0.6852  0.4198  0.0384
  366MOL0     C50412   4.466  10.216  10.015 -0.0318 -0.2153  0.0313
  366MOL0     C50413   4.403  10.078  10.055 -0.4070 -0.5516  0.5670
  366MOL0     C50414   4.367  10.065  10.203  0.8868 -0.1206 -0.9281
  366MOL0    Cl50415   4.215  10.158  10.242  0.2872 -0.0065 -0.0905
  366MOL0     C50416   4.104   9.963   9.248  0.6260  0.3980 -0.1700
  366MOL0     C50417   4.039   9.841   9.221 -0.1579  0.6813 -0.3900
  366MOL0     O50418   4.017   9.540   9.194  0.0602  0.0101  0.2999
  366MOL0     C50419   3.722   9.468   9.383 -0.0632  0.1018  0.3270
  366MOL0     C50420   3.628   9.363   9.414 -0.4067  0.1026  0.7624
  366MOL0     N50421   3.083   8.873   9.275 -0.1143 -0.6528  0.2847
  366MOL0     N50422   2.992   8.812   9.208 -0.6669 -0.1347  0.4513
  366MOL0     C50423   1.718   8.466   9.112  0.3290  0.2176  0.7812
  366MOL0     C50424   1.586   8.465   9.150 -0.0633  0.3581 -0.2089
  366MOL0     C50425   1.236   8.390   9.423 -0.3553 -0.5748  0.0789
  366MOL0     C50426   1.151   8.500   9.394 -0.2871  0.0922  0.4582
  366MOL0     C50427   1.015   8.493   9.431  0.0864  0.0705  0.8499
  366MOL0     C50428   0.958   8.388   9.503  0.1104 -0.6008 -0.6784
  366MOL0     O50429   0.821   8.403   9.544  0.1468  0.1878  0.1904
  366MOL0     C50430   0.755   8.280   9.579 -0.0887 -0.2701 -0.0811
  366MOL0     C50431   0.603   8.315   9.588  0.5435 -0.3267 -0.1737
  366MOL0     C50432   0.534   8.381   9.463 -0.5904  0.0518 -0.3746
  366MOL0     C50433   0.508   8.281   9.355 -0.5298  0.0943  0.2955
  366MOL0     C50434   0.458   8.365   9.244 -0.4364 -0.3550 -0.4924
  366MOL0     C50435   0.417   8.442   9.153  0.3689 -0.1833 -0.2012
  366MOL0     C50436   1.046   8.282   9.535  0.4037 -0.0839  1.6578
  366MOL0     C50437   1.178   8.271   9.481 -1.4124 -0.0917 -0.7916
  366MOL0     C50438   1.260   8.141   9.515 -0.3383 -0.1968  0.1138
  366MOL0     H50439   1.608   8.574   9.469 -1.0064 -1.4401 -0.5085
  366MOL0     H50440   1.845   8.559   9.420 -1.0061 -2.1537  1.7034
  366MOL0     H50441   2.063   8.520   9.324  1.0143  0.2713 -0.0741
  366MOL0     H50442   2.025   8.682   9.254 -0.4637 -0.6298 -0.5275
  366MOL0     H50443   2.218   8.472   9.146  0.8643 -0.1847  1.4119
  366MOL0     H50444   2.176   8.618   9.061  1.7759  0.9614  0.9355
  366MOL0     H50445   2.273   8.757   9.251  0.2438 -1.0013  0.2566
  366MOL0     H50446   2.281   8.619   9.346 -2.0957 -3.4302 -0.4183
  366MOL0     H50447   2.454   8.512   9.182  1.2765  0.0382 -3.6975
  366MOL0     H50448   2.438   8.657   9.082  0.8228  0.1510  0.5046
  366MOL0     H50449   2.525   8.664   9.369  0.6147 -2.1927 -0.0522
  366MOL0     H50450   2.493   8.802   9.267 -1.1474  0.4808  1.1928
  366MOL0     H50451   2.692   8.710   9.116  0.1105 -2.3735 -0.5433
  366MOL0     H50452   2.721   8.791   9.264  0.7225 -0.7125  0.6929
  366MOL0     H50453   2.707   8.479   9.228  0.5037 -0.7501  2.7091
  366MOL0     H50454   2.742   8.568   9.380  1.0189 -0.5944  0.1496
  366MOL0     H50455   2.930   8.484   9.256 -0.5256 -0.2104 -0.0743
  366MOL0     H50456   2.889   8.576   9.111 -0.3000  0.0980  0.0734
  366MOL0     H50457   3.063   8.601   9.444  0.1612 -0.4094  0.6091
  366MOL0     H50458   3.299   8.730   9.490  1.8725  1.5970 -0.0028
  366MOL0     H50459   3.185   8.843   9.570 -3.4438 -0.1495 -1.4599
  366MOL0     H50460   3.392   8.927   9.356  1.2946 -3.6530  2.4613
  366MOL0     H50461   3.254   9.029   9.411  0.6540  0.6234 -0.8911
  366MOL0     H50462   3.343   9.032   9.638  0.5888  3.2033 -0.1000
  366MOL0     H50463   3.488   8.941   9.575  1.0942  0.0449 -4.0773
  366MOL0     H50464   3.398   9.217   9.495  0.6837  0.3204 -0.0887
  366MOL0     H50465   3.543   9.159   9.589  3.9197 -1.8489 -2.2042
  366MOL0     H50466   3.721   9.125   9.203  0.5196  0.5402 -1.7214
  366MOL0     H50467   3.899   9.188   9.067  1.5043 -0.8308  1.0675
  366MOL0     H50468   4.021   9.284   9.147  0.2582  0.0184  1.7366
  366MOL0     H50469   3.902   9.356   9.028 -1.4867  0.5645  1.0591
  366MOL0     H50470   3.834   9.838   9.502  0.0670  0.3270  0.6267
  366MOL0     H50471   3.977  10.031   9.558 -1.5670  1.8451 -1.4016
  366MOL0     H50472   4.230  10.071   9.588  3.1023 -4.4886 -0.6634
  366MOL0     H50473   4.338  10.075   9.451  1.5050  1.3453  0.6411
  366MOL0     H50474   4.313  10.319   9.446  0.1024 -1.7285 -0.9484
  366MOL0     H50475   4.213  10.314   9.594  0.2990 -1.8187  2.2366
  366MOL0     H50476   4.439  10.393   9.640 -0.4667 -1.1563 -0.7405
  366MOL0     H50477   4.499  10.228   9.596  0.7523  1.2914 -1.2176
  366MOL0     H50478   4.329  10.145   9.777  0.5716  0.1083 -0.5023
  366MOL0     H50479   4.303  10.304   9.816  0.6538  1.5967  1.0096
  366MOL0     H50480   4.563  10.148   9.823 -2.3412 -2.1334  0.2151
  366MOL0     H50481   4.547  10.329   9.867  0.3088  0.5621  1.7441
  366MOL0     H50482   4.402  10.302  10.035  0.5097  0.2648 -0.2704
  366MOL0     H50483   4.557  10.228  10.073 -0.7673  2.1921  0.8213
  366MOL0     H50484   4.462   9.996  10.012 -0.6564  0.0957 -1.1116
  366MOL0     H50485   4.309  10.061  10.003 -1.8852  1.9540  2.2210
  366MOL0     H50486   4.451  10.102  10.263 -0.6203 -0.4020  1.4496
  366MOL0     H50487   4.358   9.958  10.225  2.0368  0.3498  2.4176
  366MOL0     H50488   4.167  10.007   9.171  0.0407  3.1372  0.7998
  366MOL0     H50489   4.058   9.785   9.130 -0.4096 -1.1453  0.6369
  366MOL0     H50490   3.702   9.564   9.429  2.2779  1.3821 -1.1811
  366MOL0     H50491   3.566   9.382   9.502  1.2129  0.2566  1.9270
  366MOL0     H50492   1.744   8.459   9.007 -0.3720  2.9600  0.3264
  366MOL0     H50493   1.521   8.435   9.069  0.1794 -0.3883 -0.1285
  366MOL0     H50494   1.184   8.591   9.345  1.0947 -0.3261  0.5910
  366MOL0     H50495   0.962   8.578   9.390  1.5249 -0.8835 -3.5185
  366MOL0     H50496   0.763   8.200   9.505  1.6481  0.3218 -0.5928
  366MOL0     H50497   0.777   8.241   9.678 -2.1954  2.0967  1.4325
  366MOL0     H50498   0.587   8.381   9.674 -1.5291 -1.7152  0.6103
  366MOL0     H50499   0.549   8.222   9.611  0.7662 -0.4595 -0.1906
  366MOL0     H50500   0.436   8.419   9.491 -1.0587 -2.7780  2.2743
  366MOL0     H50501   0.607   8.458   9.434  3.1515 -3.1721 -0.4092
  366MOL0     H50502   0.436   8.205   9.387 -0.8593 -0.9579 -2.6227
  366MOL0     H50503   0.600   8.233   9.321 -0.6221  1.1950 -1.6841
  366MOL0     H50504   0.376   8.492   9.067  0.3480 -1.1784 -0.7916
  366MOL0     H50505   1.016   8.206   9.606  1.5449 -0.6755  1.5380
  366MOL0     H50506   1.322   8.114   9.429 -3.1132  0.6276 -2.3210
  366MOL0     H50507   1.330   8.147   9.599 -1.9043  2.1122  1.3512
  366MOL0     H50508   1.195   8.060   9.547  1.8378 -1.0630  2.7311
  367MOL0     O50509   3.566   2.641  10.922  1.0529 -0.3288  0.1225
  367MOL0     C50510   3.536   2.732  11.003 -0.0913 -0.1626  1.0936
  367MOL0     O50511   3.621   2.825  11.063 -0.2221  0.3946 -0.1679
  367MOL0     C50512   3.752   2.790  11.036  0.3484  0.7442 -0.1077
  367MOL0     C50513   3.822   2.883  10.952 -0.1960 -0.0924  1.3534
  367MOL0     C50514   3.951   2.849  10.906  0.5360 -0.5504  0.9626
  367MOL0     C50515   4.011   2.724  10.942  1.2039 -0.1774 -0.5120
  367MOL0     O50516   4.124   2.672  10.888  0.0506  0.8775  0.6173
  367MOL0     C50517   4.234   2.763  10.885 -0.0917  0.3309 -0.2735
  367MOL0     C50518   4.354   2.678  10.873 -0.4109  0.1031 -0.1977
  367MOL0     C50519   4.478   2.765  10.886  0.6799 -0.0728 -0.3794
  367MOL0     C50520   4.560   2.730  11.010  0.2863  0.4623 -0.7644
  367MOL0     C50521   4.698   2.790  11.026 -0.1460  0.7970  0.2478
  367MOL0     C50522   4.794   2.752  10.911  0.2590 -0.3654  0.3322
  367MOL0     C50523   4.936   2.776  10.962  0.4099  0.6372 -0.3903
  367MOL0     C50524   5.026   2.744  10.842  0.3823  0.1486 -1.0117
  367MOL0     N50525   5.164   2.783  10.889 -0.0764 -0.2678  0.5578
  367MOL0     C50526   5.216   2.914  10.913  0.0247  0.3235  0.4675
  367MOL0     C50527   5.343   2.904  10.954 -0.3285  0.5435  0.7993
  367MOL0     C50528   5.434   3.024  10.974 -0.6352  0.1577 -0.5065
  367MOL0     C50529   5.561   3.020  10.885 -0.3055  0.2723 -0.4511
  367MOL0     C50530   5.646   2.891  10.889  0.2514  0.6662 -0.3439
  367MOL0     C50531   5.678   2.847  11.028 -0.4635 -0.1302 -0.8091
  367MOL0     O50532   5.781   2.920  11.092 -0.7749 -0.6596  0.1326
  367MOL0     C50533   5.915   2.888  11.078  0.6856 -0.4560  0.4099
  367MOL0     C50534   5.957   2.760  11.041 -0.3551 -0.2493 -0.6233
  367MOL0     C50535   6.091   2.725  11.048 -0.3219  0.4601 -0.4935
  367MOL0     C50536   6.131   2.583  11.003 -0.0681 -0.9251 -0.0150
  367MOL0     C50537   6.184   2.821  11.080  0.3181 -0.1015 -0.4376
  367MOL0     C50538   6.336   2.801  11.069 -0.5995  0.7991 -0.2786
  367MOL0     O50539   6.406   2.865  11.163 -0.7861 -0.8899  0.2083
  367MOL0     C50540   6.543   2.870  11.155 -0.5835  0.0163  0.6020
  367MOL0     C50541   6.605   2.986  11.119 -0.3505  0.2507  0.3846
  367MOL0     C50542   6.746   2.990  11.122  0.6315 -0.1799 -0.0169
  367MOL0     C50543   6.819   2.877  11.155 -0.0936 -0.3133  0.0648
  367MOL0     O50544   6.957   2.878  11.152 -0.0554 -0.1154 -0.3271
  367MOL0     C50545   7.021   2.783  11.052 -1.3214 -0.4892 -0.8434
  367MOL0     C50546   7.112   2.864  10.963  0.8706 -0.0648  0.0551
  367MOL0     C50547   7.207   2.970  11.012 -0.2933  0.2119  0.1009
  367MOL0     C50548   7.328   2.904  11.084 -0.1226 -0.5081  0.0002
  367MOL0     C50549   7.450   2.996  11.066  0.2704 -0.1120 -0.0356
  367MOL0     C50550   7.527   2.961  10.938 -0.5949 -0.1562 -0.7477
  367MOL0     C50551   7.652   3.058  10.925 -0.1065  0.1514 -0.3647
  367MOL0     C50552   7.755   3.031  10.817  0.2487  0.2050  0.6607
  367MOL0    Cl50553   7.689   3.099  10.666 -0.1456  0.2884 -0.3695
  367MOL0     C50554   6.749   2.763  11.187  1.2736  0.6472  0.1510
  367MOL0     C50555   6.614   2.759  11.174 -0.2845 -0.6093 -0.5459
  367MOL0     O50556   6.383   2.742  10.967  0.1036  0.6710  0.3397
  367MOL0     C50557   6.133   2.953  11.125 -0.3647  0.3192 -0.4274
  367MOL0     C50558   6.000   2.985  11.120 -0.1843 -0.3195  0.6329
  367MOL0     N50559   5.362   2.762  10.962 -0.6296 -0.2589  0.1099
  367MOL0     N50560   5.257   2.696  10.922 -0.0458 -0.3184 -1.0411
  367MOL0     C50561   3.949   2.642  11.039  0.6978  0.0237  0.3104
  367MOL0     C50562   3.820   2.671  11.087  0.9112 -0.6227  0.3782
  367MOL0     C50563   3.392   2.749  11.035  0.5296  0.0535  0.4663
  367MOL0     C50564   3.358   2.840  11.141  0.0024 -0.4091  0.3240
  367MOL0     C50565   3.220   2.857  11.183  1.2850 -0.4560 -0.0153
  367MOL0     C50566   3.118   2.786  11.120  0.2301 -0.2544  0.2407
  367MOL0     O50567   2.988   2.796  11.173  0.0539  0.3506 -0.4190
  367MOL0     C50568   2.886   2.704  11.126 -0.3849  0.3006  1.1570
  367MOL0     C50569   2.811   2.784  11.022  0.2134  0.2933 -0.1030
  367MOL0     C50570   2.682   2.708  10.995 -0.3239  0.7225 -0.5033
  367MOL0     C50571   2.595   2.803  10.909 -0.1308  0.4549 -0.2427
  367MOL0     C50572   2.539   2.888  11.011 -0.1044  0.1437 -0.8949
  367MOL0     C50573   2.499   2.961  11.104  0.9100  0.6765  0.6895
  367MOL0     C50574   3.147   2.711  11.012  0.1176 -0.1319 -1.0060
  367MOL0     C50575   3.283   2.679  10.979 -0.0233  0.7159 -0.3628
  367MOL0     C50576   3.285   2.575  10.865  0.5680  0.3216  0.8868
  367MOL0     H50577   3.778   2.979  10.926  0.9388  0.8172  2.6433
  367MOL0     H50578   3.987   2.900  10.817 -1.1125 -0.2626  0.4262
  367MOL0     H50579   4.247   2.837  10.965 -0.6828  0.6335 -0.4479
  367MOL0     H50580   4.221   2.829  10.799 -2.8629  2.0298  1.2950
  367MOL0     H50581   4.359   2.599  10.950 -1.4580 -0.5820 -0.8034
  367MOL0     H50582   4.352   2.616  10.783  0.4978 -0.4894  0.1731
  367MOL0     H50583   4.536   2.748  10.795 -0.4284 -1.7079 -0.8286
  367MOL0     H50584   4.463   2.873  10.884  4.4969  0.7902  3.3197
  367MOL0     H50585   4.509   2.754  11.105  0.9292 -0.2460 -0.2284
  367MOL0     H50586   4.564   2.621  11.010 -2.5730  0.2854 -1.8358
  367MOL0     H50587   4.735   2.750  11.121  2.4140  1.9460 -0.1810
  367MOL0     H50588   4.697   2.899  11.036 -1.1772  0.7725  0.5048
  367MOL0     H50589   4.781   2.645  10.891  2.1864 -0.9363  1.9331
  367MOL0     H50590   4.765   2.808  10.821 -3.9482  2.8487  3.3108
  367MOL0     H50591   4.970   2.708  11.040 -1.4406 -1.3783 -1.2275
  367MOL0     H50592   4.947   2.880  10.993 -0.7894  1.1382 -1.5007
  367MOL0     H50593   5.021   2.636  10.822 -1.3465 -0.5389  2.3472
  367MOL0     H50594   4.991   2.811  10.762 -0.8542  2.2064  1.1304
  367MOL0     H50595   5.164   3.006  10.889  1.6845  1.0687 -0.4539
  367MOL0     H50596   5.454   3.044  11.079 -0.4127 -0.2377 -0.4739
  367MOL0     H50597   5.378   3.111  10.938  0.0690 -0.2477 -2.7584
  367MOL0     H50598   5.534   3.043  10.782  0.3385  0.9913 -0.4662
  367MOL0     H50599   5.623   3.103  10.921  0.3679 -1.9681  4.2817
  367MOL0     H50600   5.605   2.813  10.825  1.2701  0.4182 -0.7169
  367MOL0     H50601   5.738   2.914  10.834 -0.2104  0.5335 -1.1911
  367MOL0     H50602   5.586   2.859  11.087  0.0890  1.1303 -0.1522
  367MOL0     H50603   5.702   2.741  11.032 -1.0022 -0.3031 -1.7404
  367MOL0     H50604   5.883   2.689  11.005  0.6586 -0.8409 -1.6131
  367MOL0     H50605   6.050   2.510  11.015  0.8289 -1.7439  1.4066
  367MOL0     H50606   6.208   2.546  11.070 -0.5858  2.2673  2.6443
  367MOL0     H50607   6.170   2.586  10.901  2.0977 -2.2812  0.7077
  367MOL0     H50608   6.548   3.075  11.098  1.6433  2.1618  2.5269
  367MOL0     H50609   6.806   3.080  11.107 -1.3155  0.9720 -1.3265
  367MOL0     H50610   7.084   2.708  11.100 -0.1311  0.6057 -0.6411
  367MOL0     H50611   6.951   2.722  10.994  0.9459 -3.9165 -0.2407
  367MOL0     H50612   7.153   2.806  10.880 -1.2092 -1.2338 -0.2306
  367MOL0     H50613   7.039   2.919  10.903  0.7356 -0.6282 -0.2996
  367MOL0     H50614   7.153   3.038  11.079 -2.0061 -0.9900 -0.0023
  367MOL0     H50615   7.237   3.016  10.918 -0.6707 -2.1117 -1.2265
  367MOL0     H50616   7.347   2.801  11.051 -0.6344 -0.3321 -0.8627
  367MOL0     H50617   7.291   2.903  11.187 -2.3288  0.9038 -0.7036
  367MOL0     H50618   7.416   3.099  11.072 -0.2873 -0.2396 -0.8452
  367MOL0     H50619   7.520   2.988  11.150  2.6800  1.5693 -1.7368
  367MOL0     H50620   7.463   2.975  10.851  2.6129  6.2482 -2.7076
  367MOL0     H50621   7.558   2.857  10.944 -0.2796  0.0177  1.5080
  367MOL0     H50622   7.707   3.056  11.020 -0.9925  2.4665  0.2914
  367MOL0     H50623   7.603   3.155  10.913 -2.2968 -0.4811  2.2303
  367MOL0     H50624   7.783   2.926  10.825  1.9179  0.5566 -0.1480
  367MOL0     H50625   7.841   3.095  10.837 -0.0898  0.5996  0.8746
  367MOL0     H50626   6.808   2.674  11.203  2.3067  1.3274  0.1851
  367MOL0     H50627   6.561   2.668  11.202 -0.8570  0.4593  2.1352
  367MOL0     H50628   6.202   3.025  11.166 -1.2060  0.6827  0.3812
  367MOL0     H50629   5.958   3.082  11.141  0.0848 -0.3824  1.4817
  367MOL0     H50630   3.983   2.543  11.068 -1.2807 -0.5474  0.8312
  367MOL0     H50631   3.783   2.593  11.152 -1.5480  0.7575  0.7465
  367MOL0     H50632   3.435   2.891  11.199  1.5119 -1.6344 -0.5261
  367MOL0     H50633   3.188   2.922  11.263  0.4550  0.8130 -1.3368
  367MOL0     H50634   2.922   2.607  11.091 -3.4678  0.3089 -2.7610
  367MOL0     H50635   2.818   2.681  11.208 -3.8834 -4.2873 -2.4678
  367MOL0     H50636   2.876   2.789  10.934 -2.4433  1.8758 -2.1237
  367MOL0     H50637   2.790   2.883  11.063 -0.6726 -0.1515  0.5602
  367MOL0     H50638   2.700   2.621  10.931 -1.1253  1.0648 -1.2254
  367MOL0     H50639   2.635   2.670  11.087 -0.0722 -0.9764 -1.0452
  367MOL0     H50640   2.522   2.744  10.852  1.0009  0.5209 -1.8308
  367MOL0     H50641   2.662   2.853  10.839  1.7992 -1.4979  0.1065
  367MOL0     H50642   2.450   3.017  11.180 -2.5023  0.3611 -1.0968
  367MOL0     H50643   3.069   2.659  10.959  0.8733 -0.5102 -1.7711
  367MOL0     H50644   3.192   2.566  10.808  0.0033 -2.9944  2.0821
  367MOL0     H50645   3.360   2.604  10.791 -1.1987  1.2904 -0.6012
  367MOL0     H50646   3.325   2.481  10.907  2.0111  0.1024 -0.8770
  368MOL0     O50647   0.231   3.146   9.513  0.0198  0.5968 -0.1484
  368MOL0     C50648   0.217   3.026   9.487  0.4952 -0.6481 -0.7465
  368MOL0     O50649   0.165   2.981   9.366  0.2827  0.4080  0.2810
  368MOL0     C50650   0.066   3.046   9.297 -0.4345 -0.2994  0.1929
  368MOL0     C50651   0.005   3.174   9.328  0.7381  0.6201 -0.5979
  368MOL0     C50652  -0.097   3.225   9.246  0.0261  0.0913 -0.2358
  368MOL0     C50653  -0.139   3.154   9.134 -0.5965  0.3368  0.5273
  368MOL0     O50654  -0.231   3.209   9.040  0.4651 -0.7243 -0.2884
  368MOL0     C50655  -0.348   3.138   9.027  0.4837  0.3270 -0.1927
  368MOL0     C50656  -0.469   3.236   9.004 -0.4534 -0.5360 -0.8670
  368MOL0     C50657  -0.602   3.165   9.057  0.4818 -0.0248  0.7759
  368MOL0     C50658  -0.705   3.279   9.059  0.4534  0.0651  0.1187
  368MOL0     C50659  -0.832   3.230   9.121  0.2900 -0.3656  0.8967
  368MOL0     C50660  -0.934   3.340   9.160 -0.3121 -0.0120  0.1983
  368MOL0     C50661  -1.058   3.277   9.245  0.0099  0.3218  0.6181
  368MOL0     C50662  -1.148   3.389   9.305  0.2437  0.4173  0.2838
  368MOL0     N50663  -1.259   3.344   9.392 -0.0233 -0.1470 -1.3270
  368MOL0     C50664  -1.247   3.312   9.525 -0.4160 -0.0687  0.2984
  368MOL0     C50665  -1.373   3.311   9.577 -0.5846 -0.5005 -0.4118
  368MOL0     C50666  -1.419   3.271   9.720  0.4255  0.8621 -0.6522
  368MOL0     C50667  -1.516   3.375   9.773 -0.0393  0.2774 -0.1195
  368MOL0     C50668  -1.663   3.338   9.740  0.3132 -0.2267 -0.5848
  368MOL0     C50669  -1.760   3.434   9.809  0.9321 -0.0145 -1.0642
  368MOL0     O50670  -1.893   3.413   9.763 -0.7008 -0.1011  0.0683
  368MOL0     C50671  -1.996   3.432   9.851  0.3038 -0.8866 -0.5435
  368MOL0     C50672  -1.986   3.505   9.971  0.6992 -0.5315 -0.0678
  368MOL0     C50673  -2.093   3.521  10.055  0.9888  0.1787  0.5015
  368MOL0     C50674  -2.059   3.579  10.194  0.0168  0.1326  0.5823
  368MOL0     C50675  -2.224   3.492  10.006  1.0407  0.0595 -0.3398
  368MOL0     C50676  -2.352   3.534  10.067 -0.3884 -0.4539 -0.2932
  368MOL0     O50677  -2.338   3.631  10.157  0.6980  0.2393 -0.4085
  368MOL0     C50678  -2.448   3.692  10.214 -0.8389 -0.1011 -0.3464
  368MOL0     C50679  -2.483   3.634  10.334 -0.3112 -0.6072 -0.7298
  368MOL0     C50680  -2.588   3.688  10.406 -0.5415  0.5216 -0.1206
  368MOL0     C50681  -2.654   3.799  10.373  0.1700 -0.1272  0.2906
  368MOL0     O50682  -2.757   3.862  10.446 -0.2003  0.0958  0.2797
  368MOL0     C50683  -2.868   3.774  10.471 -0.9155 -0.1421 -0.0350
  368MOL0     C50684  -2.996   3.845  10.467  0.7783 -0.5491 -0.8474
  368MOL0     C50685  -3.027   3.904  10.335  0.0263  0.1277  0.8279
  368MOL0     C50686  -2.980   4.042  10.303  1.1779 -0.0133  0.5368
  368MOL0     C50687  -3.008   4.072  10.156 -0.5843  0.1165 -0.1358
  368MOL0     C50688  -3.159   4.066  10.124  0.0032 -0.5631  0.2076
  368MOL0     C50689  -3.177   4.104   9.972 -0.0943 -0.1235 -0.6894
  368MOL0     C50690  -3.300   4.051   9.891 -0.2415 -0.2909 -0.3594
  368MOL0    Cl50691  -3.326   3.877   9.919  0.6667 -0.1791 -0.4597
  368MOL0     C50692  -2.620   3.855  10.242  0.1767  0.3724  0.0160
  368MOL0     C50693  -2.513   3.803  10.165 -0.6581 -0.4279  0.9357
  368MOL0     O50694  -2.458   3.495  10.027  0.0499  0.2548  0.4731
  368MOL0     C50695  -2.237   3.422   9.883  0.5045 -0.7086  0.0817
  368MOL0     C50696  -2.122   3.381   9.813 -0.2599 -0.5966  0.1335
  368MOL0     N50697  -1.460   3.341   9.472 -0.1770 -0.7487  0.0828
  368MOL0     N50698  -1.392   3.364   9.367 -0.1962 -0.1485 -0.8367
  368MOL0     C50699  -0.076   3.029   9.101  0.6492 -0.8816 -0.0195
  368MOL0     C50700   0.023   2.981   9.184  0.5500 -0.6228  0.3797
  368MOL0     C50701   0.273   2.944   9.587 -0.1782  1.0134 -0.0348
  368MOL0     C50702   0.234   2.956   9.728  0.4096  0.4252  0.2392
  368MOL0     C50703   0.296   2.884   9.823  0.9704 -0.2301 -0.3998
  368MOL0     C50704   0.386   2.790   9.796 -0.3515 -0.5288  0.0848
  368MOL0     O50705   0.443   2.721   9.900  0.6925 -0.6796 -0.1690
  368MOL0     C50706   0.474   2.589   9.877 -1.1117  0.5379 -0.1465
  368MOL0     C50707   0.522   2.522  10.006  0.4809 -0.5080  0.1632
  368MOL0     C50708   0.413   2.461  10.090  0.3281  0.3699  0.0712
  368MOL0     C50709   0.298   2.565  10.120  0.2865  0.3250 -0.0076
  368MOL0     C50710   0.226   2.496  10.224  0.3706 -0.4092 -0.5970
  368MOL0     C50711   0.175   2.434  10.313 -0.5957  0.0286  0.2334
  368MOL0     C50712   0.404   2.757   9.661 -0.8546 -0.7801  0.3727
  368MOL0     C50713   0.361   2.838   9.558 -0.1783 -0.6871 -0.2098
  368MOL0     C50714   0.407   2.808   9.421  0.3330  0.2524 -0.2867
  368MOL0     H50715   0.021   3.226   9.422  1.8751 -2.2960  0.9299
  368MOL0     H50716  -0.147   3.313   9.285  2.7832  1.5618  0.2545
  368MOL0     H50717  -0.365   3.068   9.109  2.0450  0.6564  0.4418
  368MOL0     H50718  -0.345   3.073   8.939  2.2882 -1.6798  1.2450
  368MOL0     H50719  -0.448   3.326   9.062  0.9262 -3.3237  3.4138
  368MOL0     H50720  -0.479   3.254   8.896  1.2906  0.8932 -0.8323
  368MOL0     H50721  -0.632   3.087   8.985 -0.5825 -1.2739  2.4942
  368MOL0     H50722  -0.588   3.115   9.153 -0.7007 -1.7114  0.1288
  368MOL0     H50723  -0.658   3.345   9.133 -1.9386  2.4144 -0.2624
  368MOL0     H50724  -0.718   3.314   8.956  1.4460 -0.3959 -0.1758
  368MOL0     H50725  -0.822   3.175   9.215 -0.6715 -0.8273  0.7439
  368MOL0     H50726  -0.888   3.166   9.051  0.2602  1.8472 -1.2174
  368MOL0     H50727  -0.886   3.415   9.224 -3.4794  0.6553  2.0059
  368MOL0     H50728  -0.971   3.390   9.070 -0.1168 -2.5425 -1.3858
  368MOL0     H50729  -1.021   3.212   9.325  0.4345 -0.4341 -0.1679
  368MOL0     H50730  -1.124   3.215   9.183  0.0009 -2.7322  3.3894
  368MOL0     H50731  -1.086   3.455   9.366  0.7388 -0.0380  0.2773
  368MOL0     H50732  -1.182   3.457   9.226 -0.2268  2.0481  1.8115
  368MOL0     H50733  -1.165   3.281   9.590  0.5417  3.3558  0.9471
  368MOL0     H50734  -1.332   3.256   9.784 -1.5905 -5.4262  1.3264
  368MOL0     H50735  -1.453   3.168   9.707  2.9913  0.0332 -1.2929
  368MOL0     H50736  -1.501   3.381   9.881 -1.7317 -2.5729  0.3726
  368MOL0     H50737  -1.488   3.475   9.738 -0.0786  1.2639  2.4735
  368MOL0     H50738  -1.681   3.324   9.633 -3.1932 -0.1048 -0.1153
  368MOL0     H50739  -1.659   3.238   9.785  1.6112 -1.0181 -2.3506
  368MOL0     H50740  -1.761   3.404   9.915  1.6391 -0.5984 -1.2152
  368MOL0     H50741  -1.733   3.540   9.812 -1.7755  0.7502 -0.2522
  368MOL0     H50742  -1.894   3.557   9.997  0.0883  3.0261 -3.9384
  368MOL0     H50743  -2.073   3.687  10.188 -0.8185  0.0053 -0.0297
  368MOL0     H50744  -1.953   3.564  10.217 -0.7823 -0.8413  4.3432
  368MOL0     H50745  -2.126   3.548  10.275 -1.1300 -3.0165 -1.3890
  368MOL0     H50746  -2.433   3.541  10.360 -1.5358 -1.2214 -0.4761
  368MOL0     H50747  -2.607   3.636  10.499 -2.0518  1.9089  0.3940
  368MOL0     H50748  -2.865   3.692  10.399 -0.2220  0.7717 -1.0932
  368MOL0     H50749  -2.839   3.737  10.570 -1.7058 -0.3807  0.1134
  368MOL0     H50750  -3.075   3.772  10.487  1.0451 -1.1535 -1.9310
  368MOL0     H50751  -2.993   3.926  10.541  2.0301 -1.0391 -0.3300
  368MOL0     H50752  -3.136   3.898  10.321 -0.2468  0.4652  2.5793
  368MOL0     H50753  -2.973   3.845  10.260  1.6885  3.4949 -0.8731
  368MOL0     H50754  -2.875   4.058  10.329  1.4867 -1.3673  0.1836
  368MOL0     H50755  -3.031   4.109  10.373 -1.6428  2.0596 -3.1540
  368MOL0     H50756  -2.966   4.173  10.144 -0.2307 -0.0269 -0.1048
  368MOL0     H50757  -2.951   3.999  10.098 -2.4281 -1.2721 -0.2673
  368MOL0     H50758  -3.218   4.137  10.184  0.5511  1.7101 -1.7761
  368MOL0     H50759  -3.197   3.966  10.144  0.4644 -0.3450  2.4920
  368MOL0     H50760  -3.095   4.048   9.927 -2.2337 -2.7744 -1.5558
  368MOL0     H50761  -3.170   4.212   9.956  0.4487 -0.2723 -1.5334
  368MOL0     H50762  -3.282   4.065   9.785  0.7782 -2.4841 -0.5413
  368MOL0     H50763  -3.387   4.111   9.918  0.3194  0.5819 -0.4725
  368MOL0     H50764  -2.674   3.946  10.218 -0.9464  0.3514  2.2069
  368MOL0     H50765  -2.489   3.864  10.078 -1.3104 -1.4899 -0.0239
  368MOL0     H50766  -2.334   3.393   9.844 -0.3226  0.6289  1.0456
  368MOL0     H50767  -2.133   3.319   9.724  2.2194 -1.2524  0.2104
  368MOL0     H50768  -0.112   2.971   9.017 -0.8007  1.7605 -1.3429
  368MOL0     H50769   0.065   2.887   9.151  0.4770 -0.7782  0.7262
  368MOL0     H50770   0.155   3.021   9.766 -0.6613 -2.5159  3.6273
  368MOL0     H50771   0.272   2.894   9.929  1.9799 -0.6590 -0.1130
  368MOL0     H50772   0.395   2.525   9.834 -0.3148  0.0881 -0.9787
  368MOL0     H50773   0.555   2.590   9.803 -0.7433  0.6001  0.2574
  368MOL0     H50774   0.571   2.591  10.075 -2.5458 -0.0365  2.0118
  368MOL0     H50775   0.596   2.445   9.978  2.0059  0.6278  0.9094
  368MOL0     H50776   0.368   2.379  10.033 -0.9850  0.7886  0.4769
  368MOL0     H50777   0.455   2.417  10.182  0.5612  1.3381  0.4342
  368MOL0     H50778   0.239   2.567  10.028  2.4348 -2.6096 -1.6176
  368MOL0     H50779   0.341   2.663  10.146  1.4318 -0.3602  0.8035
  368MOL0     H50780   0.126   2.373  10.387  0.1900 -0.7406  0.1422
  368MOL0     H50781   0.475   2.684   9.622  0.4518  1.1252 -1.0219
  368MOL0     H50782   0.330   2.751   9.369  0.0967 -2.3242  2.5420
  368MOL0     H50783   0.436   2.899   9.369  1.8967 -0.9459 -1.6224
  368MOL0     H50784   0.494   2.742   9.418  0.3765  0.2650  0.4577
  369MOL0     O50785   5.323   6.082   7.642 -0.4092  0.2810  1.3001
  369MOL0     C50786   5.208   6.120   7.607 -0.6140 -0.4755 -0.3198
  369MOL0     O50787   5.183   6.224   7.519 -0.6271  0.3719  0.2144
  369MOL0     C50788   5.278   6.253   7.424 -0.9633  0.0850 -0.4074
  369MOL0     C50789   5.269   6.212   7.293  0.1771 -0.5807 -0.3829
  369MOL0     C50790   5.372   6.219   7.197 -0.6138 -1.0521  0.0851
  369MOL0     C50791   5.499   6.267   7.238 -0.4375 -1.0485 -0.2072
  369MOL0     O50792   5.607   6.283   7.155 -0.2202  0.3319  0.2986
  369MOL0     C50793   5.707   6.189   7.155  0.0701  0.5463 -0.0439
  369MOL0     C50794   5.828   6.259   7.094  0.6869 -0.5120  0.4059
  369MOL0     C50795   5.881   6.375   7.188  0.1636  0.0765  0.2497
  369MOL0     C50796   5.976   6.323   7.301 -0.6343  0.1531  0.7968
  369MOL0     C50797   5.989   6.447   7.392 -0.2269  0.0822 -1.0554
  369MOL0     C50798   6.085   6.414   7.514  0.8288 -0.0486 -0.3679
  369MOL0     C50799   6.099   6.541   7.588  0.1359  0.6725  0.9491
  369MOL0     C50800   6.179   6.521   7.722 -0.3044 -0.2597  0.5397
  369MOL0     N50801   6.308   6.467   7.703 -0.6942 -0.4715  0.6098
  369MOL0     C50802   6.373   6.351   7.735  0.6090  0.3416 -0.7210
  369MOL0     C50803   6.502   6.360   7.701  0.2844 -0.7488 -0.2811
  369MOL0     C50804   6.604   6.264   7.752 -0.1001 -0.5949 -0.8479
  369MOL0     C50805   6.729   6.328   7.823  0.7457  0.6093  0.3232
  369MOL0     C50806   6.838   6.237   7.889 -0.5836  0.6600  0.6773
  369MOL0     C50807   6.930   6.181   7.788  0.1607  0.2647  0.5652
  369MOL0     O50808   7.048   6.133   7.855  0.0312 -0.3700  0.4101
  369MOL0     C50809   7.161   6.099   7.781 -0.1079 -1.2467  0.0089
  369MOL0     C50810   7.164   6.073   7.642  0.0405 -0.5524 -0.2328
  369MOL0     C50811   7.278   6.022   7.576 -0.7058  0.0703 -0.5019
  369MOL0     C50812   7.270   5.995   7.431 -0.2416 -0.0126 -0.7041
  369MOL0     C50813   7.400   6.012   7.651  0.8080  0.0761 -0.0730
  369MOL0     C50814   7.540   5.973   7.585  0.1204 -0.0410  0.1923
  369MOL0     O50815   7.638   5.990   7.680  0.2418 -0.5294  0.2365
  369MOL0     C50816   7.763   5.936   7.671  1.0066 -0.0955 -0.2835
  369MOL0     C50817   7.857   5.988   7.579 -0.5529  0.1036  0.3334
  369MOL0     C50818   7.989   5.937   7.567  0.1917 -0.7792  0.2829
  369MOL0     C50819   8.040   5.838   7.656 -0.8425 -0.4284  0.6128
  369MOL0     O50820   8.171   5.791   7.666 -0.7206  0.0071  0.0381
  369MOL0     C50821   8.234   5.847   7.782 -0.5530  0.0874  1.2707
  369MOL0     C50822   8.385   5.858   7.780  0.0225 -0.2301 -1.0347
  369MOL0     C50823   8.454   5.960   7.679 -0.0515  0.1811 -0.9148
  369MOL0     C50824   8.606   5.948   7.711  0.8326 -0.4647 -0.2612
  369MOL0     C50825   8.669   5.873   7.592  0.3861 -1.2121 -0.1949
  369MOL0     C50826   8.825   5.865   7.606  0.1567 -0.7323 -0.0735
  369MOL0     C50827   8.886   5.804   7.483 -0.3603  0.9153  0.4924
  369MOL0     C50828   8.868   5.883   7.355 -0.2419  0.7743  0.2378
  369MOL0    Cl50829   8.990   6.012   7.351  0.7622  0.2334  0.4141
  369MOL0     C50830   7.944   5.774   7.737 -0.6232  0.5269  0.0864
  369MOL0     C50831   7.805   5.818   7.739  0.2364  0.5037 -0.3564
  369MOL0     O50832   7.560   5.926   7.469  0.5328  0.4984  0.3960
  369MOL0     C50833   7.399   6.048   7.784  0.4403 -0.8312  1.3131
  369MOL0     C50834   7.286   6.085   7.850 -0.0439 -0.5611 -0.0921
  369MOL0     N50835   6.524   6.489   7.662  0.0797 -0.3320 -1.0212
  369MOL0     N50836   6.413   6.552   7.668  0.2792 -0.4172  0.7138
  369MOL0     C50837   5.511   6.315   7.377 -0.4806  0.4364  0.3945
  369MOL0     C50838   5.402   6.311   7.465  0.5294  0.2205 -0.9133
  369MOL0     C50839   5.091   6.055   7.661  0.4794 -0.1153 -0.5046
  369MOL0     C50840   4.969   6.077   7.587 -0.1524 -0.7105 -0.0441
  369MOL0     C50841   4.845   6.030   7.630  0.2224 -0.2538 -0.0557
  369MOL0     C50842   4.840   5.935   7.734 -0.7358 -0.2564 -0.8604
  369MOL0     O50843   4.724   5.868   7.763 -0.8495 -0.1317  0.8677
  369MOL0     C50844   4.727   5.738   7.814  1.3017  0.2394 -0.5797
  369MOL0     C50845   4.578   5.693   7.824 -0.2039  0.4074 -0.7104
  369MOL0     C50846   4.549   5.583   7.945  0.1229 -0.3798 -0.1917
  369MOL0     C50847   4.550   5.639   8.086  0.4922  0.8186 -0.7005
  369MOL0     C50848   4.679   5.649   8.153  0.8809 -0.0164  0.5455
  369MOL0     C50849   4.771   5.678   8.218  0.0831  0.5121  0.9053
  369MOL0     C50850   4.960   5.902   7.810 -0.5645 -0.1461  0.2870
  369MOL0     C50851   5.084   5.960   7.768  0.0836 -0.7770 -0.6439
  369MOL0     C50852   5.205   5.922   7.847  0.0725 -0.5071 -0.0071
  369MOL0     H50853   5.178   6.165   7.259  0.3056  0.0964 -1.7366
  369MOL0     H50854   5.360   6.194   7.092 -2.7451  0.2683 -0.0428
  369MOL0     H50855   5.681   6.097   7.103 -0.3342  0.0131  1.0752
  369MOL0     H50856   5.729   6.150   7.255  0.8544 -1.2036 -0.8527
  369MOL0     H50857   5.898   6.176   7.087 -0.4132 -1.3753 -0.8494
  369MOL0     H50858   5.816   6.291   6.990  0.2747  0.1108  0.6405
  369MOL0     H50859   5.939   6.442   7.124  0.8916 -0.6094  0.1725
  369MOL0     H50860   5.795   6.426   7.230  0.5150  2.2561 -1.4941
  369MOL0     H50861   5.942   6.228   7.342  0.5702 -1.5261 -1.8266
  369MOL0     H50862   6.069   6.299   7.250 -1.1361 -2.1633  0.8816
  369MOL0     H50863   5.890   6.479   7.427 -0.0699 -0.6405  0.0981
  369MOL0     H50864   6.037   6.531   7.341 -3.6536  2.8115 -0.1989
  369MOL0     H50865   6.039   6.338   7.578  0.7647  0.6175  0.3797
  369MOL0     H50866   6.180   6.381   7.471  1.2904  0.7471  0.0347
  369MOL0     H50867   6.002   6.589   7.604 -0.9370 -1.5852  1.5546
  369MOL0     H50868   6.169   6.602   7.530  1.7872  0.1054  2.2579
  369MOL0     H50869   6.191   6.622   7.762 -1.9670 -0.3116  1.2425
  369MOL0     H50870   6.125   6.453   7.788 -0.3389 -1.3725 -0.5911
  369MOL0     H50871   6.342   6.253   7.771  1.4963  0.0313 -0.7663
  369MOL0     H50872   6.627   6.204   7.663 -0.2908 -3.1839  0.7502
  369MOL0     H50873   6.556   6.186   7.812  0.7318 -1.2398 -0.9943
  369MOL0     H50874   6.774   6.384   7.741  1.3912 -1.9354 -1.1610
  369MOL0     H50875   6.686   6.396   7.898 -1.2498  0.2516 -0.4278
  369MOL0     H50876   6.897   6.292   7.963  2.0092 -1.6047  0.4672
  369MOL0     H50877   6.788   6.152   7.935  2.0755 -1.3546  0.1161
  369MOL0     H50878   6.891   6.110   7.714  1.4571  1.5515 -1.4728
  369MOL0     H50879   6.965   6.267   7.730 -0.0511 -0.6241 -0.9547
  369MOL0     H50880   7.071   6.079   7.586 -1.2350 -2.3638  1.5019
  369MOL0     H50881   7.291   5.890   7.407  4.4916 -0.7465  4.6967
  369MOL0     H50882   7.345   6.065   7.392  0.4671 -0.0435  0.5521
  369MOL0     H50883   7.169   6.023   7.400 -0.2212  0.0572 -0.7050
  369MOL0     H50884   7.824   6.065   7.510  0.7185  0.0600 -0.3601
  369MOL0     H50885   8.048   5.991   7.495  1.1845  1.7839  2.8207
  369MOL0     H50886   8.189   5.946   7.797 -0.9514 -0.0232  0.8354
  369MOL0     H50887   8.197   5.796   7.871 -2.6082  3.0845  2.3008
  369MOL0     H50888   8.418   5.882   7.881 -0.0280 -2.4820 -0.4219
  369MOL0     H50889   8.419   5.756   7.759 -2.6217 -1.2053 -0.9972
  369MOL0     H50890   8.423   6.064   7.680 -1.3027 -0.1682  0.6688
  369MOL0     H50891   8.434   5.932   7.576 -2.0049  2.9670 -1.4090
  369MOL0     H50892   8.623   5.891   7.803  0.8814  1.2560  0.8411
  369MOL0     H50893   8.651   6.045   7.732  3.8742 -2.4763  4.1748
  369MOL0     H50894   8.635   5.770   7.581 -0.5866 -0.9772  0.4173
  369MOL0     H50895   8.648   5.931   7.502  1.6907 -1.3938 -0.6320
  369MOL0     H50896   8.849   5.798   7.688 -1.3921 -0.7857  0.3761
  369MOL0     H50897   8.861   5.967   7.621 -1.2255  0.2367 -2.6570
  369MOL0     H50898   8.841   5.707   7.464  1.3802  0.5571 -2.4263
  369MOL0     H50899   8.994   5.791   7.496 -0.4189  1.1789  1.3615
  369MOL0     H50900   8.766   5.921   7.341 -0.9611 -1.7059 -2.0739
  369MOL0     H50901   8.884   5.817   7.270 -0.6022  1.5220 -0.4202
  369MOL0     H50902   7.974   5.692   7.802 -0.4345  1.2018  0.8630
  369MOL0     H50903   7.735   5.759   7.796 -2.8185  0.5939 -3.6881
  369MOL0     H50904   7.492   6.057   7.840  1.8217  2.4869 -1.1844
  369MOL0     H50905   7.301   6.106   7.955  1.8040 -3.6487  0.3600
  369MOL0     H50906   5.604   6.352   7.419  0.0830  0.9323 -1.1838
  369MOL0     H50907   5.415   6.343   7.568  0.6121  0.4221 -0.9859
  369MOL0     H50908   4.963   6.147   7.503  0.8472 -1.3390 -0.6607
  369MOL0     H50909   4.747   6.054   7.589 -0.0136 -2.8811 -1.2580
  369MOL0     H50910   4.782   5.670   7.748  1.1018  2.2520 -2.9588
  369MOL0     H50911   4.759   5.744   7.918 -4.7601  3.5902  1.6262
  369MOL0     H50912   4.537   5.650   7.732 -1.7595  2.4566 -1.0436
  369MOL0     H50913   4.504   5.772   7.842 -3.0900 -1.6654 -2.6074
  369MOL0     H50914   4.451   5.539   7.923  1.5899 -2.1529 -4.2479
  369MOL0     H50915   4.627   5.507   7.935  0.3101 -0.1983 -0.1203
  369MOL0     H50916   4.497   5.562   8.143 -0.7227  0.1861 -2.5803
  369MOL0     H50917   4.493   5.732   8.086 -1.9264 -0.5202  1.4093
  369MOL0     H50918   4.856   5.701   8.279  3.3854 -0.5729 -2.8628
  369MOL0     H50919   4.971   5.823   7.884  2.4899 -1.5386 -1.4260
  369MOL0     H50920   5.292   5.893   7.787 -1.2778 -4.4583 -0.3257
  369MOL0     H50921   5.220   6.004   7.918 -1.8005 -0.8533  0.8516
  369MOL0     H50922   5.194   5.827   7.900  0.1345 -1.8847 -2.3258
  370MOL0     O50923   5.018   9.203   9.945 -0.0805 -0.8779 -0.2489
  370MOL0     C50924   5.038   9.096   9.884  0.4751 -0.3715 -0.3320
  370MOL0     O50925   5.161   9.067   9.829  0.1486 -0.9091 -0.2054
  370MOL0     C50926   5.266   9.149   9.874 -0.2871  0.1750  1.0654
  370MOL0     C50927   5.335   9.225   9.779 -0.6166 -0.9633 -0.0083
  370MOL0     C50928   5.452   9.302   9.808  0.6058  0.5584 -0.0960
  370MOL0     C50929   5.500   9.312   9.938  0.9571 -0.6639 -0.0818
  370MOL0     O50930   5.606   9.396   9.961  0.1599  0.1411 -0.7511
  370MOL0     C50931   5.596   9.460  10.084 -0.2271 -0.6614  0.1587
  370MOL0     C50932   5.711   9.559  10.096  0.4956 -0.2682 -0.1357
  370MOL0     C50933   5.730   9.609  10.241  0.0166  0.1639  0.2580
  370MOL0     C50934   5.817   9.736  10.243 -0.7941  0.9381  0.0535
  370MOL0     C50935   5.979   9.717  10.254  0.5343  0.0962 -0.0696
  370MOL0     C50936   6.061   9.840  10.295  0.6249  0.4147  0.3614
  370MOL0     C50937   6.216   9.816  10.294 -0.5231 -0.5964 -0.0519
  370MOL0     C50938   6.291   9.960  10.302 -0.4668 -0.2239 -0.1916
  370MOL0     N50939   6.430   9.939  10.328  0.4795  0.1636 -0.4436
  370MOL0     C50940   6.535  10.006  10.262  0.3335  0.5394 -0.1824
  370MOL0     C50941   6.649   9.981  10.341  0.4556  0.0273  0.7935
  370MOL0     C50942   6.793  10.022  10.328  0.6431 -0.4636 -0.5059
  370MOL0     C50943   6.896   9.983  10.436  0.3585  0.0066  0.1834
  370MOL0     C50944   7.039  10.001  10.387  0.2161 -0.4488  0.3878
  370MOL0     C50945   7.143   9.963  10.493 -0.3477  0.2296 -0.5236
  370MOL0     O50946   7.279   9.967  10.437 -0.1603 -0.4887  0.4350
  370MOL0     C50947   7.389   9.977  10.517  0.4603 -0.3786  0.7482
  370MOL0     C50948   7.502   9.911  10.457  0.0856  0.0153 -0.6678
  370MOL0     C50949   7.628   9.920  10.528 -0.3772  0.1447  0.1021
  370MOL0     C50950   7.744   9.845  10.461 -0.3304  0.3341 -0.2932
  370MOL0     C50951   7.640  10.008  10.634 -0.2426  0.3999 -0.0217
  370MOL0     C50952   7.774  10.045  10.694  0.2857 -0.5538  0.3478
  370MOL0     O50953   7.760  10.097  10.821  0.3448 -0.2521 -0.2245
  370MOL0     C50954   7.885  10.105  10.891  1.2847  0.6443 -0.4021
  370MOL0     C50955   7.948   9.981  10.917 -0.4749  0.1594 -0.2813
  370MOL0     C50956   8.076   9.984  10.978 -0.0694 -0.0391  0.2653
  370MOL0     C50957   8.126  10.107  11.025 -0.1066 -0.6380  0.8523
  370MOL0     O50958   8.248  10.123  11.084  0.1464  0.4329 -0.1234
  370MOL0     C50959   8.254  10.073  11.221 -0.3573 -0.5995  0.0880
  370MOL0     C50960   8.388  10.012  11.263  0.2761 -0.5477 -0.0236
  370MOL0     C50961   8.397   9.881  11.188  0.7599 -0.3453  0.2038
  370MOL0     C50962   8.314   9.774  11.248 -0.1976  0.4563 -0.4355
  370MOL0     C50963   8.327   9.642  11.175  0.4060 -0.1089  0.6661
  370MOL0     C50964   8.185   9.576  11.164  0.7453 -0.5250 -0.6086
  370MOL0     C50965   8.184   9.461  11.061 -0.7719 -1.3689  0.5423
  370MOL0     C50966   8.068   9.366  11.065  0.1872 -0.1814 -0.0970
  370MOL0    Cl50967   8.035   9.322  11.236 -0.0625 -0.3095  0.5761
  370MOL0     C50968   8.052  10.228  11.007 -0.6865 -1.0261 -0.7312
  370MOL0     C50969   7.935  10.223  10.942 -0.7321 -0.3575 -0.7108
  370MOL0     O50970   7.878  10.030  10.632  0.0521 -0.2976  0.5367
  370MOL0     C50971   7.526  10.082  10.679 -1.1653 -0.0665 -0.6783
  370MOL0     C50972   7.407  10.074  10.613  0.1238 -0.5181 -0.0103
  370MOL0     N50973   6.604   9.911  10.452 -0.4975 -0.1132 -0.2255
  370MOL0     N50974   6.476   9.888  10.442 -0.2451 -0.1401 -0.6739
  370MOL0     C50975   5.435   9.230  10.033  0.0534 -0.3656 -0.5655
  370MOL0     C50976   5.315   9.149  10.004 -0.0313 -0.5597  0.1032
  370MOL0     C50977   4.939   8.994   9.874  0.2380 -0.7984  0.5232
  370MOL0     C50978   4.975   8.867   9.834 -1.1205 -0.2928 -0.1900
  370MOL0     C50979   4.900   8.748   9.837  1.1759 -0.6832  0.1144
  370MOL0     C50980   4.756   8.771   9.862  0.8172  0.1520 -0.1208
  370MOL0     O50981   4.662   8.672   9.877  0.1100  0.3224 -0.0131
  370MOL0     C50982   4.690   8.555   9.813  0.5978 -0.1739  0.2811
  370MOL0     C50983   4.570   8.475   9.860 -0.3711  0.2881 -0.4905
  370MOL0     C50984   4.442   8.505   9.787  0.4516 -0.9946 -0.7082
  370MOL0     C50985   4.329   8.417   9.834  0.3528 -0.9390 -0.0945
  370MOL0     C50986   4.247   8.484   9.931 -0.5357 -0.1402 -0.1579
  370MOL0     C50987   4.183   8.537  10.019 -1.0294 -0.7935 -0.6027
  370MOL0     C50988   4.712   8.899   9.903  1.1342 -0.0998  0.0713
  370MOL0     C50989   4.802   9.009   9.922 -0.2018  0.6579 -0.0507
  370MOL0     C50990   4.746   9.129   9.979  0.0391 -0.5961 -0.5196
  370MOL0     H50991   5.302   9.228   9.676 -0.3811  1.7956 -0.0737
  370MOL0     H50992   5.497   9.362   9.729  0.8910  1.3351  0.6439
  370MOL0     H50993   5.595   9.387  10.165 -2.7320  0.4762  1.2524
  370MOL0     H50994   5.500   9.511  10.098 -0.9340 -2.1723  0.9400
  370MOL0     H50995   5.808   9.530  10.056 -0.4056  0.6162 -3.2735
  370MOL0     H50996   5.678   9.634  10.023  2.3285 -1.2509 -2.0864
  370MOL0     H50997   5.642   9.637  10.300  0.8423  4.4816 -0.2564
  370MOL0     H50998   5.781   9.533  10.302 -0.9765  0.5223  1.5997
  370MOL0     H50999   5.778   9.802  10.165 -1.4107 -0.3757 -0.7859
  370MOL0     H51000   5.797   9.789  10.337  1.4369  0.8978  0.5985
  370MOL0     H51001   6.010   9.685  10.154 -0.2931  1.8603 -0.9368
  370MOL0     H51002   6.004   9.638  10.325  1.2150  0.6311  0.2973
  370MOL0     H51003   6.046   9.925  10.227 -1.2086 -1.9119 -2.3403
  370MOL0     H51004   6.026   9.874  10.393 -2.5019  0.1654 -0.5525
  370MOL0     H51005   6.246   9.772  10.198  3.1454  1.0502  0.1986
  370MOL0     H51006   6.250   9.759  10.380  1.0357  1.7724  1.0078
  370MOL0     H51007   6.285  10.027  10.216  0.8542  0.4990  0.2577
  370MOL0     H51008   6.250  10.016  10.386 -0.2860 -0.3476 -0.0206
  370MOL0     H51009   6.537  10.072  10.176 -2.0544  1.7396  0.5948
  370MOL0     H51010   6.792  10.132  10.330 -0.7268 -0.4158  2.2354
  370MOL0     H51011   6.820   9.983  10.230  0.9105 -2.7952  0.4359
  370MOL0     H51012   6.874  10.033  10.531 -2.2850  1.7073 -1.1872
  370MOL0     H51013   6.889   9.875  10.449 -2.9970 -0.5239 -3.9052
  370MOL0     H51014   7.052   9.956  10.288 -1.8637  1.5163 -0.8847
  370MOL0     H51015   7.043  10.108  10.368 -3.1772 -0.6295 -2.3592
  370MOL0     H51016   7.129  10.023  10.584  0.8980 -2.3229  1.5051
  370MOL0     H51017   7.134   9.861  10.532  2.5762  0.4156  0.9015
  370MOL0     H51018   7.482   9.851  10.369 -3.6083  0.6684 -0.4250
  370MOL0     H51019   7.825   9.829  10.532 -1.1810  2.6178  1.3449
  370MOL0     H51020   7.787   9.898  10.376 -2.2233  4.0902  0.8336
  370MOL0     H51021   7.704   9.747  10.436  2.2774 -0.8656 -0.0737
  370MOL0     H51022   7.900   9.893  10.876 -4.1501  0.7588  2.1724
  370MOL0     H51023   8.132   9.892  10.995 -2.9890 -2.2423 -1.1610
  370MOL0     H51024   8.233  10.161  11.283  0.8180  0.3546 -0.8131
  370MOL0     H51025   8.173  10.003  11.242 -1.6422  0.8436  0.0861
  370MOL0     H51026   8.472  10.079  11.244  1.0563 -1.5250 -0.0913
  370MOL0     H51027   8.384   9.992  11.370  2.3089 -0.1262  0.1537
  370MOL0     H51028   8.503   9.853  11.187 -0.1738 -4.5188 -0.8548
  370MOL0     H51029   8.375   9.892  11.082  2.2100 -2.9904 -0.4629
  370MOL0     H51030   8.210   9.806  11.248 -1.0507 -1.8310  2.9095
  370MOL0     H51031   8.349   9.773  11.351  1.8641  2.6140 -0.9973
  370MOL0     H51032   8.355   9.649  11.070  1.2522 -2.3920  0.6786
  370MOL0     H51033   8.407   9.588  11.227  2.2969  1.2354 -0.7167
  370MOL0     H51034   8.115   9.651  11.125  0.8440 -0.0919  0.0384
  370MOL0     H51035   8.165   9.536  11.264  0.5680 -1.2642 -0.9291
  370MOL0     H51036   8.276   9.404  11.069 -1.0262 -2.0305 -0.8985
  370MOL0     H51037   8.184   9.506  10.961  1.0734 -1.2981  0.5420
  370MOL0     H51038   8.091   9.280  11.002  1.7858 -0.2603  0.5595
  370MOL0     H51039   7.968   9.399  11.034 -1.0975 -1.4774  2.3017
  370MOL0     H51040   8.089  10.324  11.042 -2.9190 -0.1179 -0.6745
  370MOL0     H51041   7.876  10.308  10.907 -0.5240 -0.7112 -1.9882
  370MOL0     H51042   7.528  10.147  10.766 -0.9063  1.4515 -1.7658
  370MOL0     H51043   7.319  10.131  10.639  0.9689  1.4458 -1.2043
  370MOL0     H51044   5.463   9.218  10.137 -1.1152 -0.8329 -0.2784
  370MOL0     H51045   5.266   9.075  10.067 -0.0202 -0.8891 -0.2697
  370MOL0     H51046   5.081   8.848   9.820 -1.3637 -2.2744  0.4147
  370MOL0     H51047   4.942   8.648   9.830  0.2857 -1.2680  2.2351
  370MOL0     H51048   4.690   8.579   9.707  3.0069  2.1727  0.6924
  370MOL0     H51049   4.782   8.510   9.852  0.8503  0.8741  0.9355
  370MOL0     H51050   4.561   8.475   9.969 -0.3637 -2.0532 -0.4215
  370MOL0     H51051   4.595   8.370   9.842  1.7354 -0.0532  3.2966
  370MOL0     H51052   4.414   8.610   9.803 -1.0421 -1.4406 -0.1908
  370MOL0     H51053   4.450   8.493   9.679 -2.2348 -3.2881 -0.7650
  370MOL0     H51054   4.363   8.322   9.874 -2.5912 -2.2421 -0.3947
  370MOL0     H51055   4.258   8.400   9.752 -0.2160 -2.1804  0.6295
  370MOL0     H51056   4.117   8.582  10.090  0.0077  0.9557 -0.6849
  370MOL0     H51057   4.607   8.918   9.921  1.4700 -0.1759  2.4311
  370MOL0     H51058   4.784   9.218   9.929  0.5251 -1.8117 -2.4359
  370MOL0     H51059   4.638   9.137   9.971  0.2738  3.8564 -2.1249
  370MOL0     H51060   4.778   9.148  10.082 -0.9814  1.5283 -0.5575
  371MOL0     O51061  10.507   4.298   1.972  0.2011  0.3326 -0.5675
  371MOL0     C51062  10.528   4.261   1.862  0.0051 -0.4163  0.4762
  371MOL0     O51063  10.635   4.310   1.789  0.4345 -0.0660  0.1113
  371MOL0     C51064  10.743   4.369   1.860  0.6293  0.1816 -0.0334
  371MOL0     C51065  10.798   4.483   1.808 -0.5320 -0.7497 -0.1495
  371MOL0     C51066  10.915   4.538   1.860 -0.7188 -0.5847 -0.3876
  371MOL0     C51067  10.969   4.482   1.979  0.2787  0.0795  0.3667
  371MOL0     O51068  11.076   4.534   2.045  0.4771 -0.1767 -0.4149
  371MOL0     C51069  11.201   4.566   1.974  0.7806  0.4993  0.0876
  371MOL0     C51070  11.272   4.678   2.042 -0.1988 -0.0373 -0.1257
  371MOL0     C51071  11.215   4.822   2.030 -0.1943  0.6086  0.5471
  371MOL0     C51072  11.279   4.900   1.919  0.5086  0.1057 -0.0383
  371MOL0     C51073  11.213   5.036   1.897  0.0277 -0.5522  0.5928
  371MOL0     C51074  11.260   5.117   1.781 -0.9453 -0.9272  0.3010
  371MOL0     C51075  11.195   5.255   1.775 -0.4658 -0.1553 -1.4152
  371MOL0     C51076  11.051   5.261   1.723  0.6881  0.3893  0.0369
  371MOL0     N51077  11.012   5.391   1.656  0.6061 -0.1474 -0.5215
  371MOL0     C51078  10.992   5.519   1.714 -0.8699  0.1738 -1.2077
  371MOL0     C51079  10.956   5.601   1.612 -0.6197 -0.3395  1.2802
  371MOL0     C51080  10.929   5.748   1.609 -0.6133  0.2382  0.7584
  371MOL0     C51081  10.796   5.783   1.681 -0.5909  0.7175 -0.5222
  371MOL0     C51082  10.671   5.709   1.623 -0.2605 -0.9941 -0.3337
  371MOL0     C51083  10.553   5.771   1.681  0.7189 -0.3860  0.4946
  371MOL0     O51084  10.554   5.902   1.617  0.1246  0.4563 -0.4237
  371MOL0     C51085  10.428   5.956   1.592  0.9870  0.0687  0.1832
  371MOL0     C51086  10.407   6.030   1.479 -0.9243 -0.2083 -0.8588
  371MOL0     C51087  10.287   6.092   1.443 -0.5448 -0.9565  0.3144
  371MOL0     C51088  10.278   6.170   1.313  0.2589  0.3198 -0.5035
  371MOL0     C51089  10.177   6.072   1.525  1.1547  0.0204  0.4030
  371MOL0     C51090  10.043   6.132   1.492  0.8282  1.5261 -0.1221
  371MOL0     O51091  10.038   6.258   1.458 -0.9084 -0.3587  0.0865
  371MOL0     C51092   9.916   6.313   1.429 -0.7344  0.3483  0.5131
  371MOL0     C51093   9.859   6.395   1.524 -0.4696 -0.1824  0.1968
  371MOL0     C51094   9.734   6.460   1.490 -0.9361  0.3074 -0.5330
  371MOL0     C51095   9.677   6.433   1.357 -0.1613  0.0638 -0.1774
  371MOL0     O51096   9.550   6.470   1.322  0.7026 -0.3645  0.2383
  371MOL0     C51097   9.500   6.594   1.384  0.2526  0.6106  0.6903
  371MOL0     C51098   9.351   6.613   1.351  0.8820  0.1948  0.1510
  371MOL0     C51099   9.326   6.661   1.209  0.3042 -0.6815 -0.8555
  371MOL0     C51100   9.179   6.683   1.169 -0.0633 -0.6262  0.5748
  371MOL0     C51101   9.148   6.673   1.019 -1.2129  0.8486 -0.0164
  371MOL0     C51102   9.211   6.794   0.943 -0.0508 -0.4523 -0.5764
  371MOL0     C51103   9.149   6.826   0.820 -0.1423 -0.3944  0.1797
  371MOL0     C51104   9.213   6.937   0.749  0.2444  0.3408  0.2546
  371MOL0    Cl51105   9.221   7.091   0.834  0.1394  0.1025 -0.6944
  371MOL0     C51106   9.743   6.349   1.272 -0.6193  0.1280 -0.8165
  371MOL0     C51107   9.867   6.301   1.303 -0.3086 -0.2451  0.6418
  371MOL0     O51108   9.945   6.055   1.486  0.2229 -0.0174 -0.9314
  371MOL0     C51109  10.193   6.002   1.638  0.7034 -0.6820 -0.2624
  371MOL0     C51110  10.316   5.942   1.675 -0.3924 -0.0943  0.4066
  371MOL0     N51111  10.943   5.514   1.503  0.1518 -0.6349 -0.0138
  371MOL0     N51112  10.973   5.393   1.529  0.2585  0.6239  0.5948
  371MOL0     C51113  10.907   4.367   2.031 -0.3338  1.0122 -0.0792
  371MOL0     C51114  10.801   4.309   1.961  0.1515 -0.0924  0.0024
  371MOL0     C51115  10.442   4.152   1.805  0.0529  0.5889  0.1806
  371MOL0     C51116  10.388   4.058   1.901  0.0328 -0.0222 -0.4895
  371MOL0     C51117  10.298   3.953   1.873 -0.2601 -0.2684  0.0555
  371MOL0     C51118  10.266   3.932   1.731  0.6389 -0.8593 -0.7858
  371MOL0     O51119  10.181   3.841   1.698  0.5013 -0.0238 -0.7251
  371MOL0     C51120  10.055   3.829   1.778  0.7128 -0.1256  1.0516
  371MOL0     C51121   9.945   3.827   1.661  0.1133 -0.1756  0.1377
  371MOL0     C51122   9.835   3.711   1.664 -0.2779  0.2683  0.2357
  371MOL0     C51123   9.884   3.572   1.686  0.2072  0.0540 -1.0945
  371MOL0     C51124   9.983   3.545   1.587 -0.3826 -0.5216  0.1659
  371MOL0     C51125  10.069   3.523   1.512  0.4182  0.1832  0.1911
  371MOL0     C51126  10.319   4.021   1.633 -0.0281  0.7221  0.4943
  371MOL0     C51127  10.405   4.129   1.666  0.2986  0.2793  0.0477
  371MOL0     C51128  10.449   4.220   1.553  1.0664 -0.4846 -0.0271
  371MOL0     H51129  10.749   4.527   1.722 -0.1723 -0.7410 -0.3533
  371MOL0     H51130  10.972   4.622   1.821  0.0543 -0.9013  0.0300
  371MOL0     H51131  11.185   4.588   1.868 -0.7338 -0.3832  0.0934
  371MOL0     H51132  11.271   4.483   1.989  0.4371  0.1897  0.0177
  371MOL0     H51133  11.278   4.660   2.150  0.9709 -0.0789 -0.1916
  371MOL0     H51134  11.376   4.674   2.009 -0.3491  0.9441 -0.7577
  371MOL0     H51135  11.106   4.817   2.019 -0.1468  0.0298  0.3399
  371MOL0     H51136  11.235   4.873   2.125 -1.0902 -0.5620  1.3868
  371MOL0     H51137  11.382   4.916   1.953  1.5851 -0.3696 -2.7956
  371MOL0     H51138  11.259   4.846   1.826  1.2990  1.2705 -0.9255
  371MOL0     H51139  11.226   5.107   1.979 -0.3425  1.6197 -1.1258
  371MOL0     H51140  11.105   5.017   1.894 -0.0964  0.1835  0.0097
  371MOL0     H51141  11.369   5.126   1.790 -0.9498 -0.2382 -0.2422
  371MOL0     H51142  11.234   5.068   1.687 -1.5583 -1.1894  0.6049
  371MOL0     H51143  11.260   5.322   1.717  0.0419 -1.2376 -2.1237
  371MOL0     H51144  11.191   5.305   1.872 -0.1553 -1.4299 -0.7321
  371MOL0     H51145  11.043   5.186   1.644 -1.9357  0.5886  0.0208
  371MOL0     H51146  10.986   5.230   1.805 -1.4833 -1.3154 -2.1625
  371MOL0     H51147  10.995   5.549   1.819  4.2749  0.2107 -1.1317
  371MOL0     H51148  10.927   5.788   1.508  2.1062 -0.1437  0.4892
  371MOL0     H51149  11.013   5.805   1.648 -0.8373  1.3923 -0.4006
  371MOL0     H51150  10.811   5.749   1.785  0.7159  1.2521 -0.5104
  371MOL0     H51151  10.785   5.892   1.686 -0.0354  0.7352  1.6038
  371MOL0     H51152  10.662   5.720   1.514  1.0760  3.5449 -0.1774
  371MOL0     H51153  10.683   5.606   1.658 -1.0873 -1.1190 -0.3843
  371MOL0     H51154  10.465   5.709   1.663 -1.0338  1.8463  1.0247
  371MOL0     H51155  10.566   5.766   1.790 -0.2961  0.2717  0.6554
  371MOL0     H51156  10.500   6.045   1.425 -0.4271 -0.5765 -0.1246
  371MOL0     H51157  10.197   6.128   1.254  0.5298 -1.3759  0.2936
  371MOL0     H51158  10.376   6.171   1.264  0.2907  0.6383 -0.4376
  371MOL0     H51159  10.258   6.277   1.323  2.0902  1.0120 -3.0753
  371MOL0     H51160   9.901   6.413   1.622  0.8170  0.8223 -0.5081
  371MOL0     H51161   9.673   6.500   1.570  0.2854  0.8963  0.1405
  371MOL0     H51162   9.511   6.595   1.492  2.6266 -0.9004  0.5489
  371MOL0     H51163   9.561   6.680   1.354  1.5876  0.6539  3.2804
  371MOL0     H51164   9.294   6.522   1.370  2.1686 -0.8282 -0.7398
  371MOL0     H51165   9.301   6.693   1.407 -2.2239 -0.2977 -1.6446
  371MOL0     H51166   9.361   6.580   1.143  1.0075 -3.6248  2.7842
  371MOL0     H51167   9.380   6.756   1.204  0.1117 -0.1623  3.2390
  371MOL0     H51168   9.145   6.780   1.206  3.8328  1.0125  0.4117
  371MOL0     H51169   9.119   6.606   1.217 -0.9051 -0.6705 -0.5089
  371MOL0     H51170   9.201   6.586   0.978  0.1211  0.8136  1.7001
  371MOL0     H51171   9.042   6.655   0.998 -1.0697  0.3327 -0.3218
  371MOL0     H51172   9.314   6.765   0.919  1.3925  3.9479 -0.6065
  371MOL0     H51173   9.218   6.879   1.012  1.5429 -0.6215 -0.4948
  371MOL0     H51174   9.043   6.853   0.831 -0.3398 -1.0563 -0.0362
  371MOL0     H51175   9.162   6.743   0.750  1.5450  1.2990 -1.6247
  371MOL0     H51176   9.161   6.950   0.654 -0.0825 -2.4412 -0.0313
  371MOL0     H51177   9.313   6.906   0.717  0.3553  0.8418  0.1084
  371MOL0     H51178   9.692   6.336   1.177 -4.9947  2.1098  0.9805
  371MOL0     H51179   9.921   6.237   1.234 -0.5808 -0.4471  0.6180
  371MOL0     H51180  10.109   5.976   1.701 -0.4347  1.5006 -0.7817
  371MOL0     H51181  10.317   5.887   1.768 -0.3845 -1.0629 -0.1550
  371MOL0     H51182  10.946   4.318   2.119 -3.2424 -0.2169  0.6499
  371MOL0     H51183  10.751   4.221   1.999 -1.3744  1.9101  3.0088
  371MOL0     H51184  10.400   4.072   2.008  0.5037 -0.4935 -0.4804
  371MOL0     H51185  10.258   3.898   1.957 -1.1942  1.3897  0.7412
  371MOL0     H51186  10.058   3.735   1.835 -1.9426 -1.1310 -0.2724
  371MOL0     H51187  10.032   3.913   1.844  0.5024  0.4020  0.3224
  371MOL0     H51188   9.995   3.833   1.563  3.6158  0.7514  1.8216
  371MOL0     H51189   9.892   3.921   1.678  1.4347  0.7748 -0.7003
  371MOL0     H51190   9.769   3.731   1.748  0.1083  1.1398  0.3426
  371MOL0     H51191   9.785   3.712   1.567  0.8628 -1.7512 -0.4444
  371MOL0     H51192   9.809   3.492   1.682  1.7924 -1.7545  1.8469
  371MOL0     H51193   9.912   3.567   1.792 -0.8039  2.2131 -0.6503
  371MOL0     H51194  10.132   3.495   1.430  0.2204  1.5216 -0.4300
  371MOL0     H51195  10.301   3.999   1.528  0.5362 -0.4608  0.6200
  371MOL0     H51196  10.374   4.223   1.473 -0.1020  0.7968  1.0631
  371MOL0     H51197  10.458   4.326   1.579 -1.6268 -0.2679  0.2724
  371MOL0     H51198  10.551   4.197   1.519  0.5376 -0.8801 -1.4263
  372MOL0     O51199  10.242   1.593   1.783  0.2007 -0.4014  0.3976
  372MOL0     C51200  10.216   1.693   1.716  0.0529  0.0976  0.1412
  372MOL0     O51201  10.312   1.793   1.694 -0.3936  0.2546  0.3047
  372MOL0     C51202  10.447   1.770   1.708  0.4480  1.0710  0.7383
  372MOL0     C51203  10.529   1.883   1.738 -0.0396 -0.5924  0.4111
  372MOL0     C51204  10.666   1.861   1.770  0.9448  0.0609 -0.4217
  372MOL0     C51205  10.718   1.730   1.761  0.4009 -0.5731 -0.6168
  372MOL0     O51206  10.855   1.705   1.773  0.7020  0.7480  0.1656
  372MOL0     C51207  10.936   1.749   1.882 -0.5952  0.2459  0.3519
  372MOL0     C51208  11.086   1.772   1.850 -0.8177  0.3432 -0.9810
  372MOL0     C51209  11.167   1.686   1.752 -0.2731 -0.1926 -0.7755
  372MOL0     C51210  11.315   1.741   1.733  0.0491  0.6112  0.0800
  372MOL0     C51211  11.383   1.666   1.614  0.1985  0.1991 -0.3646
  372MOL0     C51212  11.535   1.688   1.626  0.4771 -0.1270  0.2078
  372MOL0     C51213  11.615   1.665   1.498  0.0013  0.7967  0.4515
  372MOL0     C51214  11.766   1.664   1.512  0.5556  1.1565 -0.8631
  372MOL0     N51215  11.829   1.801   1.522 -0.9249 -0.2253 -0.0516
  372MOL0     C51216  11.871   1.877   1.418  1.0647  0.6784  0.4542
  372MOL0     C51217  11.952   1.974   1.470 -0.0057 -0.9261  0.1214
  372MOL0     C51218  12.036   2.052   1.374 -0.5673  0.0418 -0.8882
  372MOL0     C51219  12.162   1.968   1.329 -0.6507  0.8942  0.0530
  372MOL0     C51220  12.272   2.057   1.274  0.0950  0.1185 -0.3536
  372MOL0     C51221  12.406   1.988   1.227  0.1131  0.1588 -0.6136
  372MOL0     O51222  12.484   2.087   1.163  0.2768 -0.0867 -0.1890
  372MOL0     C51223  12.451   2.127   1.031  0.1690  0.1027  0.6389
  372MOL0     C51224  12.343   2.094   0.945  0.4416  0.8698 -0.1046
  372MOL0     C51225  12.313   2.134   0.815  0.2859  0.2093  0.0125
  372MOL0     C51226  12.203   2.065   0.734  0.4586 -0.9865  0.1495
  372MOL0     C51227  12.399   2.243   0.765  0.2853  0.8751 -0.2733
  372MOL0     C51228  12.382   2.324   0.640  0.5737  0.1829 -0.3592
  372MOL0     O51229  12.433   2.450   0.633  0.3874 -0.3958  0.5817
  372MOL0     C51230  12.411   2.532   0.528 -0.5809 -0.3624  0.9161
  372MOL0     C51231  12.368   2.670   0.548 -1.0714  0.2267  0.3823
  372MOL0     C51232  12.352   2.747   0.441  0.8559  0.2852 -1.2829
  372MOL0     C51233  12.371   2.706   0.310  0.6649 -0.3144 -0.0451
  372MOL0     O51234  12.363   2.783   0.197 -0.1059 -0.3874 -0.5724
  372MOL0     C51235  12.289   2.738   0.092 -0.5970 -0.4112 -0.2624
  372MOL0     C51236  12.270   2.856   0.001  0.5205 -0.4606 -0.6203
  372MOL0     C51237  12.232   2.832  -0.147  0.6927  0.3471 -0.1369
  372MOL0     C51238  12.086   2.792  -0.161 -0.4393 -0.2900  0.4847
  372MOL0     C51239  12.054   2.802  -0.308  0.9896  0.6051  0.5244
  372MOL0     C51240  11.901   2.747  -0.327 -0.0641 -0.4408  0.0649
  372MOL0     C51241  11.876   2.727  -0.475 -0.9198  0.0843  0.4743
  372MOL0     C51242  11.729   2.733  -0.513  0.2501 -0.5306 -0.1445
  372MOL0    Cl51243  11.676   2.903  -0.463 -0.5158 -0.0943 -0.1854
  372MOL0     C51244  12.426   2.582   0.287  0.0115  0.1707  0.4885
  372MOL0     C51245  12.445   2.494   0.399 -0.1706  0.0834 -0.0056
  372MOL0     O51246  12.308   2.274   0.557  0.2804  0.4721 -0.7084
  372MOL0     C51247  12.514   2.274   0.841  0.2471  0.1684  0.3989
  372MOL0     C51248  12.533   2.228   0.969 -0.3262  0.7305 -0.1920
  372MOL0     N51249  11.965   1.961   1.608 -0.1845 -0.0396  0.2711
  372MOL0     N51250  11.887   1.859   1.630 -0.4481 -0.1789 -0.3329
  372MOL0     C51251  10.647   1.624   1.710  0.6033 -0.0123  0.4169
  372MOL0     C51252  10.507   1.641   1.683 -0.0985  0.3592 -0.8655
  372MOL0     C51253  10.070   1.727   1.686 -0.7084 -0.9338 -0.2599
  372MOL0     C51254   9.978   1.632   1.728 -0.2569 -0.2342  0.1695
  372MOL0     C51255   9.842   1.655   1.704 -0.1441  0.7237 -0.3882
  372MOL0     C51256   9.798   1.771   1.643 -0.2784 -0.4472 -0.1984
  372MOL0     O51257   9.667   1.803   1.629 -0.1232 -0.3392  0.6122
  372MOL0     C51258   9.589   1.775   1.743 -0.1057 -0.2635  1.0681
  372MOL0     C51259   9.439   1.825   1.716 -0.6066 -0.4167  0.0883
  372MOL0     C51260   9.362   1.792   1.846  0.2597  0.2853  0.0107
  372MOL0     C51261   9.215   1.831   1.833  0.4119 -0.2055 -0.1693
  372MOL0     C51262   9.147   1.797   1.965  0.3523 -1.0519 -0.2254
  372MOL0     C51263   9.074   1.774   2.060 -0.0672  0.6049 -0.1911
  372MOL0     C51264   9.894   1.869   1.589  0.2759 -0.7216  0.3310
  372MOL0     C51265  10.031   1.847   1.611  0.1123 -0.6337  0.6033
  372MOL0     C51266  10.127   1.937   1.530  0.1586 -0.2685 -0.3085
  372MOL0     H51267  10.472   1.975   1.727  1.8770  0.5327 -0.4963
  372MOL0     H51268  10.733   1.940   1.803  1.2704 -1.1132  2.0072
  372MOL0     H51269  10.931   1.675   1.962 -1.4010  0.9490  0.9807
  372MOL0     H51270  10.892   1.845   1.913  1.2131  1.0624  0.4980
  372MOL0     H51271  11.107   1.870   1.807  1.1584  1.5322  2.3452
  372MOL0     H51272  11.132   1.783   1.949  0.6556  1.0469 -1.7246
  372MOL0     H51273  11.177   1.580   1.777  0.8347  0.3909  1.5257
  372MOL0     H51274  11.118   1.696   1.655  0.9793  1.2853 -1.2973
  372MOL0     H51275  11.308   1.846   1.703  0.5977  0.4481 -0.6521
  372MOL0     H51276  11.376   1.742   1.823  0.1688 -1.5681  0.0779
  372MOL0     H51277  11.341   1.700   1.519 -1.0839  1.7073  0.6826
  372MOL0     H51278  11.366   1.558   1.614 -0.6382  0.3205 -1.1155
  372MOL0     H51279  11.565   1.786   1.663  2.1383  0.6431 -2.8594
  372MOL0     H51280  11.573   1.614   1.697 -1.0307 -1.8654 -0.6982
  372MOL0     H51281  11.601   1.752   1.433  4.1338 -0.0331 -1.8638
  372MOL0     H51282  11.591   1.575   1.441  1.5019  0.1215  0.8466
  372MOL0     H51283  11.784   1.597   1.596  0.4490  1.6435 -0.4470
  372MOL0     H51284  11.797   1.612   1.421  1.5260 -0.0699  0.1329
  372MOL0     H51285  11.847   1.854   1.315 -1.2770  0.1217  1.0818
  372MOL0     H51286  12.057   2.143   1.431  0.3235 -1.4587  1.3442
  372MOL0     H51287  11.991   2.085   1.281  0.7673  0.2550 -1.4863
  372MOL0     H51288  12.199   1.920   1.420 -2.3264  1.6595  1.1849
  372MOL0     H51289  12.124   1.886   1.267  0.6091 -0.2977  0.7966
  372MOL0     H51290  12.221   2.101   1.188  3.0581  0.8087 -1.9140
  372MOL0     H51291  12.293   2.129   1.354 -4.3964  0.6543  0.5714
  372MOL0     H51292  12.463   1.964   1.318 -0.8240  0.3634  0.0385
  372MOL0     H51293  12.392   1.901   1.163  2.5875 -0.0809 -0.9272
  372MOL0     H51294  12.286   2.005   0.972  2.7074 -1.2248 -1.7444
  372MOL0     H51295  12.123   2.131   0.701  0.6624 -1.4002 -1.2403
  372MOL0     H51296  12.161   1.992   0.804  0.4357  1.8690  3.3780
  372MOL0     H51297  12.249   2.022   0.645 -1.9736  2.5520 -3.1291
  372MOL0     H51298  12.356   2.711   0.648  1.5977 -0.9536  1.2823
  372MOL0     H51299  12.322   2.851   0.452  0.8906  0.4077 -2.2856
  372MOL0     H51300  12.339   2.661   0.034 -2.2794  0.3539 -2.8966
  372MOL0     H51301  12.196   2.690   0.124 -1.4901  0.1024 -1.9510
  372MOL0     H51302  12.202   2.923   0.054  0.3651 -0.3984 -0.8909
  372MOL0     H51303  12.359   2.919  -0.006  1.7544 -2.2932 -2.4073
  372MOL0     H51304  12.287   2.752  -0.199  1.3800  3.1368 -4.1756
  372MOL0     H51305  12.246   2.921  -0.208  0.0056  0.2791 -0.4093
  372MOL0     H51306  12.021   2.851  -0.097 -0.8257 -1.9672  1.7217
  372MOL0     H51307  12.060   2.699  -0.108 -1.1685  1.7567  4.0439
  372MOL0     H51308  12.062   2.909  -0.330  1.6509  0.6531  0.9478
  372MOL0     H51309  12.118   2.746  -0.377  0.3354 -0.3235  0.6509
  372MOL0     H51310  11.835   2.825  -0.288  0.5368  1.1590 -1.9637
  372MOL0     H51311  11.879   2.663  -0.261  1.8531  0.7895  2.4127
  372MOL0     H51312  11.911   2.627  -0.503 -2.3131 -0.0153 -0.9985
  372MOL0     H51313  11.928   2.802  -0.534 -0.4561  1.4569  2.5114
  372MOL0     H51314  11.673   2.654  -0.462  3.7498 -2.3643  1.1905
  372MOL0     H51315  11.711   2.726  -0.621  3.2781 -0.6024 -0.7398
  372MOL0     H51316  12.455   2.556   0.186 -0.4429  0.1858  0.3495
  372MOL0     H51317  12.478   2.391   0.400  1.1991  0.4223  3.1577
  372MOL0     H51318  12.585   2.348   0.807  0.2593  0.2720  0.6484
  372MOL0     H51319  12.622   2.269   1.015 -3.2678  3.6781  3.5107
  372MOL0     H51320  10.693   1.528   1.690  0.9725  0.7465 -2.9517
  372MOL0     H51321  10.446   1.555   1.657  1.1336 -1.4119  1.6867
  372MOL0     H51322  10.011   1.539   1.775 -3.9186 -2.7354 -1.6903
  372MOL0     H51323   9.779   1.573   1.739 -0.9715  0.8989 -1.4129
  372MOL0     H51324   9.594   1.669   1.769 -0.7878  0.0791  2.7698
  372MOL0     H51325   9.634   1.822   1.831 -2.3116 -1.4180  2.9248
  372MOL0     H51326   9.392   1.774   1.632 -5.1846  0.4065  1.8173
  372MOL0     H51327   9.446   1.933   1.698 -0.0184 -0.8198 -2.4098
  372MOL0     H51328   9.363   1.683   1.857 -0.7645  0.1535 -1.0406
  372MOL0     H51329   9.402   1.839   1.937  0.0362  0.7484 -0.1295
  372MOL0     H51330   9.159   1.780   1.754  1.1202 -3.4271  1.2730
  372MOL0     H51331   9.201   1.939   1.819  0.9947  0.0416  1.0488
  372MOL0     H51332   9.004   1.754   2.139 -0.4069  1.5094 -0.2433
  372MOL0     H51333   9.840   1.946   1.535 -1.6526 -1.9762  0.3902
  372MOL0     H51334  10.176   2.013   1.591  3.6247 -1.6449 -1.1629
  372MOL0     H51335  10.207   1.878   1.485  2.4748  1.0014  1.8971
  372MOL0     H51336  10.079   1.991   1.448  1.4277 -2.8305 -2.8974
  373MOL0     O51337   0.895   1.754  11.366 -0.4040  0.1604  0.4598
  373MOL0     C51338   0.850   1.660  11.306 -0.4984  0.5896 -0.0706
  373MOL0     O51339   0.713   1.636  11.280 -0.1251 -0.4304 -0.4154
  373MOL0     C51340   0.612   1.712  11.339 -1.2622 -0.4829  0.4049
  373MOL0     C51341   0.602   1.849  11.333  0.8980 -0.6789 -0.7849
  373MOL0     C51342   0.501   1.920  11.413  0.0883  0.1606 -0.1065
  373MOL0     C51343   0.404   1.846  11.481 -0.1034  0.3165  1.0821
  373MOL0     O51344   0.300   1.913  11.544 -0.4060  0.3305  0.8287
  373MOL0     C51345   0.171   1.861  11.580  0.0531  0.2789 -1.3119
  373MOL0     C51346   0.055   1.949  11.537  0.7778 -0.1388 -0.1499
  373MOL0     C51347  -0.066   1.905  11.617  0.2094 -0.1890  0.1181
  373MOL0     C51348  -0.187   1.990  11.561 -0.2893  0.1961  0.7530
  373MOL0     C51349  -0.297   1.994  11.668  0.0591  0.0993 -0.0932
  373MOL0     C51350  -0.385   1.868  11.661 -0.1281 -0.1386 -0.2315
  373MOL0     C51351  -0.465   1.860  11.798  0.1857  0.3229  0.2392
  373MOL0     C51352  -0.566   1.983  11.813  0.4934  0.5605 -0.8771
  373MOL0     N51353  -0.510   2.093  11.891  0.3645  0.4730 -0.7116
  373MOL0     C51354  -0.447   2.076  12.013 -0.7850  0.1863 -0.8141
  373MOL0     C51355  -0.466   2.195  12.077  0.3671 -0.2536  0.9697
  373MOL0     C51356  -0.425   2.224  12.214  0.1674 -0.3192  0.1565
  373MOL0     C51357  -0.544   2.250  12.312 -0.3083  0.1371 -0.0559
  373MOL0     C51358  -0.496   2.271  12.459 -0.1750 -0.3268  0.2011
  373MOL0     C51359  -0.593   2.352  12.544 -0.1708  0.4627 -0.8463
  373MOL0     O51360  -0.675   2.259  12.610 -0.3138  0.3171  0.5348
  373MOL0     C51361  -0.785   2.305  12.678 -0.3175  0.3524 -0.2847
  373MOL0     C51362  -0.871   2.201  12.713 -0.6496 -0.1670  0.8976
  373MOL0     C51363  -0.984   2.232  12.783  0.6061  0.0046 -1.1544
  373MOL0     C51364  -1.072   2.114  12.833  0.2674 -0.2886  0.6628
  373MOL0     C51365  -1.028   2.373  12.811 -0.7296 -0.0445 -0.2699
  373MOL0     C51366  -1.152   2.419  12.871 -0.3512 -0.5767  0.2026
  373MOL0     O51367  -1.150   2.513  12.965 -0.2048 -0.6743 -0.6229
  373MOL0     C51368  -1.267   2.587  12.972  0.2653 -0.4903 -0.7652
  373MOL0     C51369  -1.358   2.597  13.083  1.1873  0.5686  0.4583
  373MOL0     C51370  -1.478   2.672  13.066 -0.4393 -0.0564  0.6635
  373MOL0     C51371  -1.509   2.743  12.950  0.1848  0.1554 -0.5390
  373MOL0     O51372  -1.632   2.809  12.936  0.0913 -0.6328  0.1058
  373MOL0     C51373  -1.747   2.725  12.975 -0.0779 -1.4464  0.2605
  373MOL0     C51374  -1.855   2.759  12.878 -0.3115  0.4507  0.5070
  373MOL0     C51375  -1.972   2.672  12.894 -0.1662  0.1767  0.0268
  373MOL0     C51376  -1.957   2.530  12.827  0.0865  1.2041  0.2094
  373MOL0     C51377  -2.088   2.446  12.821  0.3069  0.2991  0.4142
  373MOL0     C51378  -2.111   2.384  12.962  0.7715  0.3600 -0.2129
  373MOL0     C51379  -2.257   2.359  12.972  0.2318  0.6550  0.3191
  373MOL0     C51380  -2.293   2.308  13.110 -0.2035  0.2505  0.3340
  373MOL0    Cl51381  -2.194   2.169  13.163 -0.0747 -0.1352 -0.3875
  373MOL0     C51382  -1.416   2.742  12.847  0.9589  0.3607  0.4854
  373MOL0     C51383  -1.292   2.674  12.860  0.0574  0.2001  0.0157
  373MOL0     O51384  -1.253   2.381  12.815  0.6982  1.5470 -0.8494
  373MOL0     C51385  -0.931   2.479  12.780 -0.7014 -0.0031 -0.2739
  373MOL0     C51386  -0.816   2.445  12.717  0.5642  0.6610  0.7567
  373MOL0     N51387  -0.509   2.289  11.991  0.0123  0.0460 -0.2859
  373MOL0     N51388  -0.535   2.227  11.879  0.1772 -0.1877  0.3943
  373MOL0     C51389   0.415   1.705  11.475 -0.3616 -0.1187 -0.3155
  373MOL0     C51390   0.516   1.638  11.410  0.2324  0.2910  0.2506
  373MOL0     C51391   0.938   1.567  11.237 -0.0423  0.1983  0.4014
  373MOL0     C51392   0.878   1.463  11.169 -0.3902 -0.1338 -0.1043
  373MOL0     C51393   0.944   1.368  11.095 -0.0859  0.9191 -0.6317
  373MOL0     C51394   1.086   1.376  11.085 -0.0479  0.7015  0.3386
  373MOL0     O51395   1.133   1.287  10.999 -0.2103 -0.3462 -0.0223
  373MOL0     C51396   1.266   1.307  10.950  0.3872 -0.4408 -0.6541
  373MOL0     C51397   1.367   1.256  11.051  0.0828  0.0496 -0.1659
  373MOL0     C51398   1.341   1.102  11.084 -0.5413  0.3118 -0.1387
  373MOL0     C51399   1.454   1.046  11.169  0.2635  0.5886  0.2696
  373MOL0     C51400   1.591   1.040  11.107 -0.5530 -0.4590  0.2493
  373MOL0     C51401   1.705   1.025  11.056 -0.1629  0.0731  0.2247
  373MOL0     C51402   1.153   1.484  11.145 -0.3295  0.0397  0.1605
  373MOL0     C51403   1.083   1.584  11.216 -0.4188 -0.6673 -0.3894
  373MOL0     C51404   1.162   1.711  11.273  0.2878 -0.0073  0.1141
  373MOL0     H51405   0.681   1.911  11.291  1.2438 -0.2308  0.4627
  373MOL0     H51406   0.499   2.028  11.401  0.1818 -0.0089 -1.8918
  373MOL0     H51407   0.166   1.851  11.689  1.9759 -0.6945 -1.2840
  373MOL0     H51408   0.157   1.757  11.548  0.4499 -0.8994  1.9643
  373MOL0     H51409   0.085   2.051  11.563  0.4490 -0.1708  0.3720
  373MOL0     H51410   0.029   1.937  11.432 -0.4243 -0.8032  0.2047
  373MOL0     H51411  -0.083   1.798  11.608 -1.9221  0.2857 -3.7605
  373MOL0     H51412  -0.053   1.922  11.724 -0.4998  0.4441  0.1174
  373MOL0     H51413  -0.155   2.093  11.545  0.1097 -0.1213 -0.6355
  373MOL0     H51414  -0.229   1.951  11.467  0.4517 -1.0929  0.9285
  373MOL0     H51415  -0.369   2.075  11.649 -2.2086 -1.4025  1.6048
  373MOL0     H51416  -0.250   2.007  11.766 -2.1999  1.6795  0.8732
  373MOL0     H51417  -0.454   1.859  11.576 -0.0091  0.7778 -0.4396
  373MOL0     H51418  -0.325   1.777  11.652 -0.7228 -0.3019 -4.2074
  373MOL0     H51419  -0.402   1.849  11.887 -0.0271  0.4106  0.4020
  373MOL0     H51420  -0.519   1.765  11.799 -0.9237  0.9367  0.9873
  373MOL0     H51421  -0.583   2.024  11.713 -0.3116  0.1175 -0.9308
  373MOL0     H51422  -0.661   1.951  11.857  2.0916 -2.2131  0.7901
  373MOL0     H51423  -0.441   1.987  12.076 -1.1107  1.0780  0.5124
  373MOL0     H51424  -0.357   2.309  12.224 -0.6131  0.5630 -1.6113
  373MOL0     H51425  -0.368   2.135  12.244 -0.6314 -2.1091 -3.0974
  373MOL0     H51426  -0.593   2.341  12.277 -0.2468 -0.2958 -1.3222
  373MOL0     H51427  -0.614   2.165  12.310 -1.4769  1.0489  0.8145
  373MOL0     H51428  -0.478   2.175  12.507 -0.6031 -0.7989 -0.5583
  373MOL0     H51429  -0.403   2.328  12.464 -0.3730  0.3469 -2.2124
  373MOL0     H51430  -0.540   2.413  12.618 -1.2944  2.0394 -1.3087
  373MOL0     H51431  -0.651   2.428  12.491  2.3556  1.5597 -2.2358
  373MOL0     H51432  -0.858   2.098  12.681  0.4951 -0.1870  1.3464
  373MOL0     H51433  -1.131   2.085  12.746  0.8096 -1.3724  0.6434
  373MOL0     H51434  -1.131   2.157  12.914 -1.6278 -0.3583 -0.6140
  373MOL0     H51435  -1.019   2.025  12.866 -3.5214 -3.9358 -1.9768
  373MOL0     H51436  -1.351   2.543  13.176 -2.1986  1.0922  1.1563
  373MOL0     H51437  -1.543   2.693  13.151 -1.7948  3.2912 -1.0513
  373MOL0     H51438  -1.719   2.621  12.961  0.5005 -1.1077 -1.3855
  373MOL0     H51439  -1.786   2.740  13.076  0.4609  1.1439  0.1713
  373MOL0     H51440  -1.882   2.862  12.902 -2.2601  0.0077  0.3853
  373MOL0     H51441  -1.822   2.753  12.774 -2.8053 -0.7693 -0.2806
  373MOL0     H51442  -2.063   2.720  12.856  0.1460  1.2592  0.5936
  373MOL0     H51443  -2.001   2.664  13.000  0.9809  0.4238  0.3764
  373MOL0     H51444  -1.884   2.470  12.883 -0.3509 -1.7776 -2.1678
  373MOL0     H51445  -1.916   2.536  12.725  0.2525  2.1969  0.3228
  373MOL0     H51446  -2.169   2.510  12.784  0.0446 -1.8091 -3.1074
  373MOL0     H51447  -2.074   2.372  12.742 -0.3222 -0.7385  1.2566
  373MOL0     H51448  -2.072   2.462  13.028  0.7465  1.3458 -1.3412
  373MOL0     H51449  -2.056   2.290  12.967 -1.7025 -1.2030 -0.3496
  373MOL0     H51450  -2.299   2.285  12.904 -2.8412 -0.6647  3.3684
  373MOL0     H51451  -2.314   2.450  12.953 -0.4641  0.7109  2.4188
  373MOL0     H51452  -2.397   2.275  13.111  0.4341 -1.9142 -0.4406
  373MOL0     H51453  -2.286   2.388  13.185 -3.6516  0.2260  0.8517
  373MOL0     H51454  -1.446   2.807  12.766 -3.9690  1.1117  2.5263
  373MOL0     H51455  -1.224   2.677  12.775 -1.4335  0.2187 -1.2195
  373MOL0     H51456  -0.939   2.585  12.799  1.1062  0.1398 -0.1103
  373MOL0     H51457  -0.748   2.529  12.710 -0.1957  1.3010  0.9478
  373MOL0     H51458   0.337   1.640  11.513  0.0850 -1.2518 -1.3011
  373MOL0     H51459   0.521   1.529  11.410 -1.1782  0.1824 -1.3898
  373MOL0     H51460   0.773   1.447  11.191 -0.9452  3.4271  0.4031
  373MOL0     H51461   0.888   1.286  11.051  3.0298 -1.4471 -0.4871
  373MOL0     H51462   1.278   1.242  10.862  1.5217 -0.9777 -0.1282
  373MOL0     H51463   1.283   1.410  10.917  2.2161 -0.5100 -0.0624
  373MOL0     H51464   1.361   1.319  11.140 -1.7540 -1.0391  0.5490
  373MOL0     H51465   1.463   1.269  10.999 -0.1244 -0.5223 -0.7096
  373MOL0     H51466   1.240   1.069  11.113  0.0513 -1.0657  0.4414
  373MOL0     H51467   1.357   1.045  10.992  4.0716  0.4782  0.3572
  373MOL0     H51468   1.424   0.946  11.203 -0.1993 -0.1163 -2.0394
  373MOL0     H51469   1.467   1.116  11.252  1.1749  3.4166 -2.0744
  373MOL0     H51470   1.797   1.015  11.001  1.3482 -1.0136  2.7689
  373MOL0     H51471   1.259   1.509  11.148 -0.7109  2.1782 -1.3329
  373MOL0     H51472   1.123   1.806  11.236  2.2161  0.3277 -1.1753
  373MOL0     H51473   1.158   1.710  11.383 -0.0792  1.5882  0.1406
  373MOL0     H51474   1.264   1.703  11.233 -0.5525 -2.1974 -1.8399
  374MOL0     O51475   4.802   4.182   3.988  0.0927  0.1102 -0.1172
  374MOL0     C51476   4.922   4.207   3.986  0.2916  0.6231 -0.1681
  374MOL0     O51477   4.988   4.275   3.881 -0.4722 -0.0176 -0.0973
  374MOL0     C51478   4.921   4.319   3.775  0.9156 -0.2339  0.4344
  374MOL0     C51479   4.954   4.446   3.727 -0.5009 -0.0949  0.3074
  374MOL0     C51480   4.898   4.501   3.617 -0.5840 -0.2461 -0.1270
  374MOL0     C51481   4.819   4.428   3.532 -0.0035 -0.3085 -0.1347
  374MOL0     O51482   4.765   4.484   3.415  0.0347 -0.3147  0.1923
  374MOL0     C51483   4.793   4.417   3.289  0.3027  0.2274  0.3810
  374MOL0     C51484   4.930   4.465   3.217  0.2944  0.6387  0.4684
  374MOL0     C51485   4.936   4.615   3.178 -0.0160  0.0782 -0.3030
  374MOL0     C51486   5.065   4.650   3.117 -0.2847 -0.2538  0.1551
  374MOL0     C51487   5.075   4.792   3.071 -0.5514 -0.1206 -0.1374
  374MOL0     C51488   5.180   4.826   2.959 -0.3887 -0.2435  0.1693
  374MOL0     C51489   5.316   4.819   3.024 -0.6474 -0.0675  0.3971
  374MOL0     C51490   5.424   4.854   2.915  0.1300 -0.1368 -0.3657
  374MOL0     N51491   5.548   4.886   2.991 -0.9744  0.4421 -0.2769
  374MOL0     C51492   5.625   5.004   2.981  0.6013 -0.0710  0.8142
  374MOL0     C51493   5.745   4.981   3.046  0.2890 -0.2164  0.2863
  374MOL0     C51494   5.855   5.084   3.070 -0.0298  0.4661 -0.2938
  374MOL0     C51495   5.891   5.087   3.219 -0.7402  0.4350 -0.4213
  374MOL0     C51496   5.947   5.220   3.275 -0.3157 -0.6250  0.2473
  374MOL0     C51497   6.093   5.249   3.236 -1.1146 -0.0034  0.1767
  374MOL0     O51498   6.086   5.322   3.113  0.0656  0.8866  0.3076
  374MOL0     C51499   6.192   5.306   3.025 -0.4133 -0.2918  0.3155
  374MOL0     C51500   6.187   5.365   2.902 -0.1932  0.3550  0.3255
  374MOL0     C51501   6.289   5.351   2.803 -0.4032  0.4295  0.8012
  374MOL0     C51502   6.261   5.398   2.664 -0.5806 -0.1371  0.4714
  374MOL0     C51503   6.412   5.287   2.838 -0.0988  0.7660  0.7605
  374MOL0     C51504   6.532   5.272   2.746 -0.3367  0.4119  1.0567
  374MOL0     O51505   6.645   5.194   2.796  0.0039 -0.2708 -0.3073
  374MOL0     C51506   6.761   5.193   2.728 -0.3669  0.2068 -0.9465
  374MOL0     C51507   6.795   5.087   2.647 -0.3334  0.3964  0.1717
  374MOL0     C51508   6.910   5.097   2.570 -0.5910  0.0734 -0.6111
  374MOL0     C51509   6.994   5.203   2.559  0.1660 -0.7714 -0.3744
  374MOL0     O51510   7.092   5.196   2.469 -0.3629 -0.1187 -0.6877
  374MOL0     C51511   7.203   5.281   2.498 -0.1156  0.4798  0.5546
  374MOL0     C51512   7.288   5.287   2.370  0.0331 -1.1354  0.2890
  374MOL0     C51513   7.432   5.322   2.415  0.2224  0.9580  0.3520
  374MOL0     C51514   7.534   5.258   2.318 -1.0258  0.0494 -0.3778
  374MOL0     C51515   7.678   5.299   2.365  0.4099  1.1576 -0.0821
  374MOL0     C51516   7.784   5.235   2.276  0.9310 -0.3606 -1.1871
  374MOL0     C51517   7.919   5.304   2.274 -0.2248  0.6986 -0.0498
  374MOL0     C51518   7.927   5.410   2.170  0.4144 -0.2227  0.4435
  374MOL0    Cl51519   7.927   5.344   2.008  0.1633 -0.3696 -0.2748
  374MOL0     C51520   6.977   5.300   2.657  0.1318 -0.0838 -0.4566
  374MOL0     C51521   6.852   5.304   2.737 -0.4671 -0.2055  0.1794
  374MOL0     O51522   6.534   5.315   2.625  0.1531 -0.2034 -1.0761
  374MOL0     C51523   6.411   5.223   2.962 -0.4503 -0.3095  0.3346
  374MOL0     C51524   6.313   5.236   3.050  0.2657 -0.3871 -0.3984
  374MOL0     N51525   5.748   4.850   3.081  0.4919  0.5717  0.1798
  374MOL0     N51526   5.632   4.798   3.051 -0.3413 -0.1368  0.4351
  374MOL0     C51527   4.802   4.291   3.563 -0.0205  0.7254 -0.2220
  374MOL0     C51528   4.851   4.235   3.689  0.1276 -0.2528  0.9689
  374MOL0     C51529   5.012   4.146   4.088 -0.1663 -0.2427 -0.1319
  374MOL0     C51530   5.145   4.113   4.059 -0.8163 -0.7011  0.5357
  374MOL0     C51531   5.224   4.053   4.159  0.2945  0.1161  0.6379
  374MOL0     C51532   5.173   3.999   4.276 -0.3591 -0.2059  0.4753
  374MOL0     O51533   5.254   3.924   4.354 -0.5449  0.0670 -0.3434
  374MOL0     C51534   5.212   3.863   4.469 -0.8196 -0.3708  0.5178
  374MOL0     C51535   5.209   3.967   4.579 -0.3599 -0.0468  0.1652
  374MOL0     C51536   5.191   3.897   4.709  0.8791 -0.5154  0.2281
  374MOL0     C51537   5.064   3.822   4.718 -0.0418 -0.0686 -0.5204
  374MOL0     C51538   5.052   3.793   4.865 -0.0286  0.5692  0.3602
  374MOL0     C51539   5.048   3.749   4.974 -0.5073 -0.1023 -0.2459
  374MOL0     C51540   5.036   4.023   4.303  0.3784  0.7441 -0.0043
  374MOL0     C51541   4.955   4.103   4.215 -0.1812  0.4587 -0.5453
  374MOL0     C51542   4.819   4.134   4.273  0.1588 -0.2112  0.4541
  374MOL0     H51543   5.037   4.496   3.775 -0.8961  1.8513 -0.9377
  374MOL0     H51544   4.930   4.602   3.592  3.3229 -0.3579  3.3934
  374MOL0     H51545   4.709   4.437   3.222 -0.0607  0.8355  0.9949
  374MOL0     H51546   4.800   4.310   3.308  0.3343  0.3474  1.0747
  374MOL0     H51547   4.997   4.450   3.302 -1.4946  0.3179  1.8808
  374MOL0     H51548   4.944   4.392   3.137  1.2632  0.8395  0.4388
  374MOL0     H51549   4.859   4.627   3.101  0.0725 -2.1259 -0.8023
  374MOL0     H51550   4.921   4.688   3.258 -3.6479  1.8855 -2.3633
  374MOL0     H51551   5.143   4.631   3.192  0.2909 -0.6269 -0.5243
  374MOL0     H51552   5.086   4.580   3.036  0.8865  0.1413  0.0969
  374MOL0     H51553   5.097   4.850   3.161  1.5029 -2.4045  0.9542
  374MOL0     H51554   4.972   4.813   3.040 -1.8740 -1.3672  2.9048
  374MOL0     H51555   5.172   4.761   2.872 -2.0861 -0.9520  0.8151
  374MOL0     H51556   5.162   4.927   2.921  0.6153 -0.9235 -2.2619
  374MOL0     H51557   5.330   4.732   3.089  0.9514  0.7616  1.2212
  374MOL0     H51558   5.329   4.903   3.093 -4.8047 -0.0976  1.5186
  374MOL0     H51559   5.453   4.769   2.852  2.1656 -1.7907  2.5428
  374MOL0     H51560   5.384   4.938   2.857 -0.6795  1.6619  2.5954
  374MOL0     H51561   5.600   5.097   2.932 -1.5501  0.2794  2.4278
  374MOL0     H51562   5.827   5.186   3.044  2.2707  1.9933  2.4941
  374MOL0     H51563   5.947   5.061   3.014  0.2041  0.7944 -0.0508
  374MOL0     H51564   5.794   5.070   3.267 -1.3876  1.7791 -1.2164
  374MOL0     H51565   5.961   5.007   3.248  1.8594  3.5088  2.6557
  374MOL0     H51566   5.885   5.300   3.233 -0.0137 -0.9630 -0.8750
  374MOL0     H51567   5.942   5.228   3.384 -0.0778  2.2421  0.1217
  374MOL0     H51568   6.148   5.310   3.307  3.4711 -3.2209 -0.1552
  374MOL0     H51569   6.143   5.151   3.234 -1.4552 -0.1726 -0.7695
  374MOL0     H51570   6.098   5.425   2.885  0.6830  1.0171 -2.3681
  374MOL0     H51571   6.153   5.384   2.654 -0.7289  1.0565  0.3133
  374MOL0     H51572   6.299   5.326   2.591 -0.2062  0.5675 -0.0437
  374MOL0     H51573   6.305   5.491   2.626  2.1254 -2.3394 -2.3227
  374MOL0     H51574   6.739   4.995   2.632  2.2908 -1.2867  0.0076
  374MOL0     H51575   6.936   5.009   2.512 -2.6605 -2.8952  2.5874
  374MOL0     H51576   7.168   5.383   2.516 -1.0072  0.4831 -1.0156
  374MOL0     H51577   7.250   5.239   2.587 -1.5757 -0.5062  0.8956
  374MOL0     H51578   7.283   5.196   2.309  0.4725 -0.7577 -0.3207
  374MOL0     H51579   7.246   5.364   2.305  1.7502  0.1090  0.5956
  374MOL0     H51580   7.441   5.266   2.509 -0.8469 -2.8597 -1.5866
  374MOL0     H51581   7.440   5.430   2.429 -1.8008  0.7510  4.7847
  374MOL0     H51582   7.522   5.292   2.215 -2.3671 -0.8665 -0.5416
  374MOL0     H51583   7.534   5.149   2.318  1.2649 -0.0072  0.4757
  374MOL0     H51584   7.679   5.408   2.357 -2.4373  1.1992 -0.9250
  374MOL0     H51585   7.679   5.271   2.471 -0.7240  3.5259  0.6241
  374MOL0     H51586   7.745   5.240   2.174 -0.0502  0.0801 -0.7961
  374MOL0     H51587   7.803   5.137   2.322  0.9444  0.7172  1.2338
  374MOL0     H51588   7.995   5.228   2.251 -1.3533 -0.1480 -1.1297
  374MOL0     H51589   7.940   5.350   2.370  0.7162 -0.0800  0.1346
  374MOL0     H51590   8.021   5.461   2.191 -0.8484  0.7882  4.4607
  374MOL0     H51591   7.844   5.477   2.193  0.4470  0.1702 -0.5122
  374MOL0     H51592   7.048   5.382   2.666  2.1233 -1.6164 -1.3438
  374MOL0     H51593   6.826   5.377   2.813 -1.0976 -0.9906  0.7323
  374MOL0     H51594   6.499   5.171   2.996 -0.0050 -0.5212 -1.0629
  374MOL0     H51595   6.328   5.191   3.148 -2.1865 -0.0879  0.1707
  374MOL0     H51596   4.735   4.233   3.498 -0.3677  2.2583 -1.2936
  374MOL0     H51597   4.818   4.139   3.727 -0.3147  0.0088  1.2564
  374MOL0     H51598   5.188   4.149   3.966  3.7040  0.8680  2.9200
  374MOL0     H51599   5.329   4.039   4.136  0.8854  1.9607  1.9288
  374MOL0     H51600   5.114   3.818   4.451  0.3351 -2.2136 -1.6424
  374MOL0     H51601   5.288   3.788   4.494  1.7846  2.4668  1.6916
  374MOL0     H51602   5.136   4.044   4.551 -0.4245 -0.2005 -0.0918
  374MOL0     H51603   5.301   4.026   4.581 -1.3044  1.4664  0.2782
  374MOL0     H51604   5.282   3.837   4.714  0.9883 -0.9545 -3.7387
  374MOL0     H51605   5.181   3.972   4.788  1.0636  0.0035 -0.2325
  374MOL0     H51606   5.072   3.730   4.658 -0.6290 -0.0600 -0.6208
  374MOL0     H51607   4.985   3.890   4.685  0.1947  0.7224  0.5079
  374MOL0     H51608   5.054   3.694   5.066  1.6321 -3.4893 -2.1984
  374MOL0     H51609   4.996   3.980   4.394  1.5123  1.5858  0.9157
  374MOL0     H51610   4.739   4.084   4.217 -0.6864  4.6558 -3.3411
  374MOL0     H51611   4.803   4.109   4.378  0.0836 -0.7239  0.3238
  374MOL0     H51612   4.799   4.240   4.255  1.6561  0.0016 -0.1552
  375MOL0     O51613   5.399   8.699   9.785  0.0565  0.7034 -0.1836
  375MOL0     C51614   5.481   8.653   9.696 -0.2083  0.1893  0.5769
  375MOL0     O51615   5.617   8.686   9.679  0.5041  0.0742  0.1063
  375MOL0     C51616   5.677   8.799   9.738  0.1196 -0.2258 -0.4195
  375MOL0     C51617   5.621   8.894   9.836 -0.4222  0.0337 -0.0397
  375MOL0     C51618   5.708   8.995   9.892 -0.0671 -0.4080  0.2212
  375MOL0     C51619   5.838   9.017   9.842  0.5292 -0.4522  0.0769
  375MOL0     O51620   5.912   9.102   9.923  0.5443 -0.4644 -0.0783
  375MOL0     C51621   5.929   9.246   9.885  0.2898  0.3509 -0.3754
  375MOL0     C51622   5.991   9.314  10.000 -0.4332 -0.1623  0.4355
  375MOL0     C51623   6.136   9.294  10.018 -0.9215  0.0703 -0.6844
  375MOL0     C51624   6.200   9.393  10.112  0.1206  0.0976  0.2794
  375MOL0     C51625   6.338   9.359  10.157 -0.4443 -0.1946 -0.7822
  375MOL0     C51626   6.402   9.483  10.224  0.8039 -0.2478 -0.4286
  375MOL0     C51627   6.549   9.475  10.250 -1.1668 -0.6686  0.0857
  375MOL0     C51628   6.603   9.579  10.359  0.1653  0.6847 -0.3635
  375MOL0     N51629   6.749   9.574  10.359 -0.1698 -0.6897 -0.1635
  375MOL0     C51630   6.822   9.538  10.473  0.2271  0.3035 -0.0290
  375MOL0     C51631   6.954   9.555  10.437  0.4762  1.4075  0.2162
  375MOL0     C51632   7.059   9.494  10.520  0.6893  0.4559  0.4596
  375MOL0     C51633   7.183   9.577  10.536 -0.9052  0.0047 -0.3462
  375MOL0     C51634   7.297   9.484  10.588 -0.4004  0.0477  0.2256
  375MOL0     C51635   7.427   9.562  10.613  0.8509 -0.3687 -0.0939
  375MOL0     O51636   7.530   9.474  10.660 -0.2386 -0.2999  0.0109
  375MOL0     C51637   7.530   9.444  10.796 -0.3212 -0.0937  0.9462
  375MOL0     C51638   7.432   9.476  10.889  0.4752 -0.5161 -0.5427
  375MOL0     C51639   7.446   9.433  11.027 -0.3037 -0.0494 -0.5676
  375MOL0     C51640   7.331   9.479  11.121  0.3378 -0.1844  0.4822
  375MOL0     C51641   7.568   9.366  11.065  0.5512  0.4906  0.2604
  375MOL0     C51642   7.603   9.330  11.204 -0.0619 -0.3228  0.1633
  375MOL0     O51643   7.701   9.237  11.235 -0.3250 -0.0851  0.0442
  375MOL0     C51644   7.732   9.208  11.362  0.4424  0.2608 -0.4231
  375MOL0     C51645   7.769   9.296  11.463 -0.5406 -0.3820 -0.5088
  375MOL0     C51646   7.788   9.253  11.593 -0.5274 -0.5994 -0.1495
  375MOL0     C51647   7.778   9.115  11.632  0.0423 -0.4231 -0.9397
  375MOL0     O51648   7.781   9.063  11.759 -0.0576 -0.0906 -0.1899
  375MOL0     C51649   7.878   9.114  11.853 -0.7135 -0.3845 -1.1724
  375MOL0     C51650   7.946   9.010  11.942 -0.1359  0.1205 -0.5196
  375MOL0     C51651   7.996   8.887  11.862  0.2116  0.9191  0.2710
  375MOL0     C51652   8.079   8.795  11.953 -0.2568 -0.9845 -0.2689
  375MOL0     C51653   8.118   8.678  11.866  0.0382 -0.7725 -0.4759
  375MOL0     C51654   8.209   8.574  11.924 -0.5213  0.2566  0.2372
  375MOL0     C51655   8.228   8.457  11.830  0.7735 -0.0257  0.7470
  375MOL0     C51656   8.349   8.376  11.862 -0.4442  0.4913 -0.1294
  375MOL0    Cl51657   8.342   8.313  12.029  0.4477 -0.0904 -0.0437
  375MOL0     C51658   7.754   9.020  11.527 -0.1815  0.5011 -0.7038
  375MOL0     C51659   7.728   9.066  11.397  0.4724  0.3220  0.0849
  375MOL0     O51660   7.527   9.373  11.286  0.1779 -0.2692  0.1372
  375MOL0     C51661   7.664   9.341  10.969 -0.3120  0.2944 -0.8303
  375MOL0     C51662   7.644   9.382  10.837 -1.1910  0.7460 -0.7697
  375MOL0     N51663   6.953   9.616  10.312  0.5868 -0.9379 -0.0091
  375MOL0     N51664   6.830   9.634  10.276  0.0664 -0.3038  0.2745
  375MOL0     C51665   5.888   8.932   9.743 -0.1882 -0.0994 -0.2303
  375MOL0     C51666   5.805   8.824   9.699 -0.2842  0.2630 -0.4844
  375MOL0     C51667   5.419   8.554   9.603  0.9986  0.8261 -0.9893
  375MOL0     C51668   5.484   8.541   9.482 -0.4446  0.2483  0.1029
  375MOL0     C51669   5.440   8.447   9.388  0.0953 -0.0313  0.1922
  375MOL0     C51670   5.324   8.366   9.412  0.5867  0.2070  0.2841
  375MOL0     O51671   5.272   8.277   9.320 -0.1726  0.3397  0.0914
  375MOL0     C51672   5.186   8.321   9.215 -0.1956  0.1680 -0.8170
  375MOL0     C51673   5.054   8.367   9.278  0.2493 -0.4529 -0.2314
  375MOL0     C51674   4.979   8.234   9.321  0.2529 -0.2520 -0.3193
  375MOL0     C51675   4.851   8.255   9.401  0.6710 -0.6851 -0.9241
  375MOL0     C51676   4.876   8.267   9.545 -0.1283 -0.3055 -0.6884
  375MOL0     C51677   4.907   8.315   9.645 -0.3198 -0.7347  0.3425
  375MOL0     C51678   5.257   8.380   9.534 -0.5993  0.5775  0.2484
  375MOL0     C51679   5.295   8.475   9.625  0.5250 -0.0078  0.5497
  375MOL0     C51680   5.219   8.490   9.749  0.4630  0.0823 -0.0168
  375MOL0     H51681   5.516   8.889   9.861 -0.1145  1.2320  1.7162
  375MOL0     H51682   5.680   9.069   9.966  2.6534  0.2392  0.7075
  375MOL0     H51683   5.830   9.290   9.874 -0.5310 -1.5062 -0.9187
  375MOL0     H51684   5.976   9.244   9.787  1.0811  1.1121 -0.0302
  375MOL0     H51685   5.979   9.421   9.981 -1.5179 -0.2097  0.7850
  375MOL0     H51686   5.941   9.291  10.095  0.4731 -0.2053  0.9115
  375MOL0     H51687   6.160   9.193  10.053 -0.2954  0.5227  0.2226
  375MOL0     H51688   6.179   9.296   9.918  2.7747  0.8312  0.7847
  375MOL0     H51689   6.222   9.484  10.055  0.8945  0.6615  1.4356
  375MOL0     H51690   6.145   9.423  10.201 -0.6347  2.1893 -0.8156
  375MOL0     H51691   6.398   9.339  10.068  2.0657  1.2143  0.4910
  375MOL0     H51692   6.321   9.275  10.225 -3.9251 -0.4073 -1.7521
  375MOL0     H51693   6.380   9.569  10.160  0.4342 -1.8901 -2.6417
  375MOL0     H51694   6.360   9.504  10.323  1.7574  0.5110 -0.1757
  375MOL0     H51695   6.598   9.506  10.158  0.1317  1.2020  1.3331
  375MOL0     H51696   6.581   9.375  10.279  0.0428 -0.1640  0.5438
  375MOL0     H51697   6.566   9.680  10.339 -1.5674  0.1668  0.0613
  375MOL0     H51698   6.558   9.548  10.454  1.0421  2.1348  0.5707
  375MOL0     H51699   6.794   9.498  10.570 -1.7584  0.0038 -0.6810
  375MOL0     H51700   7.080   9.398  10.472 -0.6339 -1.2857  3.0814
  375MOL0     H51701   7.034   9.478  10.626  5.3339  0.2089  1.7592
  375MOL0     H51702   7.217   9.625  10.444 -0.5619  1.1213  0.3508
  375MOL0     H51703   7.156   9.664  10.597  1.4454  2.3202 -2.4024
  375MOL0     H51704   7.273   9.420  10.673 -1.2252 -4.9905 -3.3524
  375MOL0     H51705   7.314   9.416  10.504  0.5075  0.1213  0.3421
  375MOL0     H51706   7.464   9.596  10.516 -1.9838 -2.3352 -1.9885
  375MOL0     H51707   7.396   9.646  10.676 -1.0159 -0.5121 -0.7464
  375MOL0     H51708   7.344   9.535  10.868  1.4167  0.2879 -2.5780
  375MOL0     H51709   7.291   9.388  11.169 -4.3636  1.6882  0.6601
  375MOL0     H51710   7.248   9.529  11.070 -2.1354 -3.4241  0.9608
  375MOL0     H51711   7.358   9.546  11.204  0.2551  0.0479  0.3213
  375MOL0     H51712   7.772   9.403  11.449  1.5771 -0.5364 -1.8741
  375MOL0     H51713   7.824   9.329  11.661  3.3532 -1.6862 -0.6954
  375MOL0     H51714   7.952   9.181  11.810  1.6968 -2.1821 -0.0839
  375MOL0     H51715   7.818   9.179  11.918 -1.9763 -0.9358 -1.7606
  375MOL0     H51716   8.035   9.052  11.990  0.6933 -1.1755 -0.8834
  375MOL0     H51717   7.875   8.976  12.018 -1.0471 -1.6732 -2.0776
  375MOL0     H51718   8.056   8.909  11.773 -1.0719 -0.8795 -1.1216
  375MOL0     H51719   7.906   8.837  11.826  0.2515  0.9371  0.1438
  375MOL0     H51720   8.018   8.772  12.042 -1.2645 -2.7102 -1.3506
  375MOL0     H51721   8.172   8.851  11.971 -1.4309  0.7862  0.6680
  375MOL0     H51722   8.028   8.628  11.829 -0.4421 -1.1832  1.1667
  375MOL0     H51723   8.165   8.719  11.776 -0.6454  1.4806  0.1072
  375MOL0     H51724   8.170   8.532  12.017  3.9595  1.0129  2.7385
  375MOL0     H51725   8.305   8.620  11.949 -0.0895 -1.2192  1.4253
  375MOL0     H51726   8.242   8.489  11.726  4.3257 -0.1932  1.0308
  375MOL0     H51727   8.144   8.390  11.846 -1.7022  3.1189  1.9753
  375MOL0     H51728   8.435   8.443  11.849 -0.7296  0.4284 -2.8714
  375MOL0     H51729   8.358   8.285  11.801 -3.0041 -0.4068  0.7198
  375MOL0     H51730   7.751   8.913  11.544  3.4599  0.0107 -2.1616
  375MOL0     H51731   7.711   9.002  11.310  4.4575  0.4714 -1.0003
  375MOL0     H51732   7.758   9.295  10.996 -0.1052  0.7908 -0.6776
  375MOL0     H51733   7.712   9.341  10.764 -1.5040 -1.4820  0.1131
  375MOL0     H51734   5.991   8.936   9.708  0.3327  1.8705  1.3534
  375MOL0     H51735   5.847   8.762   9.620  0.5953  1.4822 -1.0279
  375MOL0     H51736   5.571   8.604   9.470  0.7714 -1.3791 -0.0445
  375MOL0     H51737   5.495   8.426   9.297 -0.9427  2.9463 -1.2450
  375MOL0     H51738   5.225   8.408   9.160  1.3961 -1.9373 -3.2667
  375MOL0     H51739   5.183   8.237   9.145 -0.4702  0.5217 -1.2396
  375MOL0     H51740   4.992   8.430   9.213  1.6117  1.8462  0.5788
  375MOL0     H51741   5.063   8.433   9.365  2.7642  0.3909 -1.0228
  375MOL0     H51742   4.948   8.198   9.222 -1.3380 -1.6085  0.6084
  375MOL0     H51743   5.044   8.169   9.381  0.2754  3.3413  4.0489
  375MOL0     H51744   4.781   8.171   9.398 -0.0432 -0.1033 -0.8156
  375MOL0     H51745   4.794   8.343   9.370  0.7436 -0.4729 -0.4794
  375MOL0     H51746   4.934   8.353   9.742  0.4245  0.9112 -0.4573
  375MOL0     H51747   5.170   8.317   9.545  0.3855 -1.0890 -1.0597
  375MOL0     H51748   5.127   8.430   9.758 -0.6045  1.4662 -1.2289
  375MOL0     H51749   5.287   8.468   9.832  1.0905  0.2693 -0.4744
  375MOL0     H51750   5.180   8.590   9.771 -0.1152 -0.4926  1.7734
  376MOL0     O51751   7.905   0.475  11.361 -0.3404 -0.6454  0.1351
  376MOL0     C51752   7.856   0.438  11.467  0.5961 -0.0836 -0.3187
  376MOL0     O51753   7.885   0.327  11.530  0.7077 -0.4489  0.0273
  376MOL0     C51754   7.967   0.234  11.467  0.1803 -0.5641 -0.7480
  376MOL0     C51755   7.922   0.109  11.425 -0.2679  0.6069 -0.7379
  376MOL0     C51756   8.008   0.020  11.351  0.4020  0.1666 -1.2459
  376MOL0     C51757   8.144   0.055  11.326 -0.1219  0.0578  0.1020
  376MOL0     O51758   8.214  -0.038  11.258  0.0406 -0.1491  0.9911
  376MOL0     C51759   8.356  -0.026  11.251 -0.1965  0.5669 -0.2611
  376MOL0     C51760   8.398  -0.128  11.149  0.2349 -0.3575 -0.1547
  376MOL0     C51761   8.545  -0.110  11.119  0.2539 -0.3839  0.3204
  376MOL0     C51762   8.577   0.015  11.042 -0.6117 -0.3772 -0.0884
  376MOL0     C51763   8.728   0.028  11.020 -0.4527 -0.0559  0.5976
  376MOL0     C51764   8.747   0.160  10.939 -0.2488  0.1262  0.1398
  376MOL0     C51765   8.855   0.151  10.839 -0.9982 -0.7906 -0.3714
  376MOL0     C51766   8.825   0.259  10.736 -0.1322  0.3600  1.3895
  376MOL0     N51767   8.889   0.233  10.606 -0.0924 -0.2080  0.0712
  376MOL0     C51768   8.833   0.146  10.515  0.0315  0.4832  0.9695
  376MOL0     C51769   8.915   0.163  10.407 -0.7592  0.1143 -0.2327
  376MOL0     C51770   8.921   0.084  10.278  0.0742  0.5387  0.3280
  376MOL0     C51771   9.063   0.063  10.234 -1.5189  0.2069  0.1144
  376MOL0     C51772   9.071   0.004  10.092  0.3261 -0.1810 -0.1349
  376MOL0     C51773   9.028   0.115   9.990  0.9648  0.0108 -0.0326
  376MOL0     O51774   9.087   0.095   9.859  0.0814  0.4639  0.5244
  376MOL0     C51775   9.221   0.099   9.842  0.8918  0.4175 -1.0370
  376MOL0     C51776   9.301   0.218   9.840  0.5883  0.1416  0.0389
  376MOL0     C51777   9.440   0.227   9.843  0.2725  0.0275 -0.3300
  376MOL0     C51778   9.510   0.357   9.831  0.8921 -0.2977 -0.3646
  376MOL0     C51779   9.503   0.107   9.854 -0.4063  0.9070 -0.2233
  376MOL0     C51780   9.655   0.099   9.876  0.4415 -0.1305  1.5627
  376MOL0     O51781   9.735   0.160   9.787 -0.2928 -0.0198 -0.0306
  376MOL0     C51782   9.870   0.158   9.810  0.1086 -0.6817 -0.8540
  376MOL0     C51783   9.945   0.043   9.781 -0.0701 -0.4982 -0.4292
  376MOL0     C51784  10.083   0.044   9.804 -0.1359 -0.3598  0.8442
  376MOL0     C51785  10.145   0.163   9.841  0.4919  0.4513  0.2423
  376MOL0     O51786  10.277   0.170   9.864  0.6510  0.0138  0.2670
  376MOL0     C51787  10.370   0.063   9.838  0.3074  0.8536  0.1092
  376MOL0     C51788  10.494   0.127   9.889 -0.3259 -0.1088 -0.1966
  376MOL0     C51789  10.504   0.127  10.038 -0.4496 -0.5221  0.1542
  376MOL0     C51790  10.635   0.197  10.087  0.0121  0.4844 -0.1130
  376MOL0     C51791  10.644   0.234  10.242 -0.4076 -0.3085 -0.3687
  376MOL0     C51792  10.780   0.308  10.269  0.2661  0.7913 -0.5938
  376MOL0     C51793  10.806   0.310  10.417  0.5035  0.3398 -0.1697
  376MOL0     C51794  10.924   0.411  10.446 -0.2404  0.1081 -0.6350
  376MOL0    Cl51795  11.018   0.373  10.597  0.4755 -0.2356  0.3019
  376MOL0     C51796  10.074   0.288   9.848  0.1497 -0.1352 -0.5453
  376MOL0     C51797   9.935   0.281   9.840 -0.4390 -0.3636  0.1166
  376MOL0     O51798   9.689   0.043   9.974 -0.2716 -0.5697 -0.3653
  376MOL0     C51799   9.429  -0.011   9.846  0.1489 -0.3131 -0.7256
  376MOL0     C51800   9.289  -0.019   9.847  0.2477 -0.2085  0.4913
  376MOL0     N51801   9.000   0.270  10.431 -0.7186  0.4288 -0.2703
  376MOL0     N51802   8.991   0.309  10.553 -0.6791  0.8605  0.6528
  376MOL0     C51803   8.189   0.181  11.381 -0.2082  0.2930 -0.8611
  376MOL0     C51804   8.101   0.267  11.456  0.2054 -0.1847  0.3803
  376MOL0     C51805   7.791   0.547  11.543 -0.1004  0.7693  0.5642
  376MOL0     C51806   7.797   0.545  11.686  0.5684 -0.7436 -0.5590
  376MOL0     C51807   7.733   0.655  11.762 -0.9855 -0.2453  0.3758
  376MOL0     C51808   7.657   0.750  11.692 -0.7040 -0.1819  0.1162
  376MOL0     O51809   7.578   0.849  11.749  0.5033 -0.0339 -0.3964
  376MOL0     C51810   7.584   0.875  11.891  0.1416  0.0880  0.6762
  376MOL0     C51811   7.717   0.940  11.931  0.7104  0.7905 -0.2245
  376MOL0     C51812   7.726   0.959  12.081  0.2317 -0.1625 -0.2323
  376MOL0     C51813   7.676   1.090  12.141  0.3108 -0.1090  0.0058
  376MOL0     C51814   7.561   1.145  12.066 -0.3393  0.6434 -0.4321
  376MOL0     C51815   7.470   1.195  12.003  0.6746 -1.0861 -0.2534
  376MOL0     C51816   7.645   0.736  11.561  0.4037  0.6234 -0.0991
  376MOL0     C51817   7.705   0.642  11.485  0.6322 -0.3894  1.2132
  376MOL0     C51818   7.667   0.643  11.339  0.4227  0.0562 -0.2955
  376MOL0     H51819   7.814   0.096  11.426 -0.1946 -0.1817 -1.6175
  376MOL0     H51820   7.957  -0.062  11.303  1.4718 -2.0734  1.1810
  376MOL0     H51821   8.403  -0.048  11.347 -0.7382  1.1330  0.1464
  376MOL0     H51822   8.367   0.076  11.214  0.6267  0.8870  0.8146
  376MOL0     H51823   8.399  -0.228  11.193  0.0166 -0.0649  0.5302
  376MOL0     H51824   8.332  -0.144  11.063  0.6006 -0.8929 -0.3422
  376MOL0     H51825   8.597  -0.104  11.215  1.2998 -0.3224 -0.2352
  376MOL0     H51826   8.584  -0.199  11.069  1.3865 -1.4319  2.8865
  376MOL0     H51827   8.518   0.020  10.950 -0.8572  1.9522  0.1421
  376MOL0     H51828   8.549   0.103  11.101 -0.4015 -1.5162  1.8139
  376MOL0     H51829   8.748  -0.054  10.951 -4.3776 -2.4959  2.0230
  376MOL0     H51830   8.779   0.011  11.115  0.8552 -3.1474 -0.5287
  376MOL0     H51831   8.650   0.184  10.895 -1.0076 -0.1480  1.5846
  376MOL0     H51832   8.770   0.231  11.019  1.1476 -2.9336  2.7251
  376MOL0     H51833   8.854   0.060  10.780 -0.6794 -1.1584  0.1849
  376MOL0     H51834   8.954   0.157  10.885  0.3550 -0.0706 -3.1421
  376MOL0     H51835   8.721   0.281  10.710  0.1131 -0.6128 -0.6149
  376MOL0     H51836   8.867   0.354  10.772  0.1568  1.7772 -2.2797
  376MOL0     H51837   8.760   0.066  10.532  3.2382 -2.6917  0.9884
  376MOL0     H51838   8.856   0.124  10.199 -0.3401  0.7272  0.7576
  376MOL0     H51839   8.883  -0.014  10.308  1.2396 -0.4043 -1.1731
  376MOL0     H51840   9.132   0.147  10.228 -0.7574 -0.3366  0.9080
  376MOL0     H51841   9.108  -0.014  10.299 -1.0026 -0.3611 -0.8891
  376MOL0     H51842   9.175  -0.025  10.076  0.7655  1.2898 -0.1199
  376MOL0     H51843   9.023  -0.094  10.099  0.4578 -0.2345  0.0322
  376MOL0     H51844   8.921   0.094   9.978  0.5421  1.9211  0.1355
  376MOL0     H51845   9.058   0.215  10.022 -0.7277  0.9946 -1.3799
  376MOL0     H51846   9.247   0.311   9.832  1.2011  0.4507 -0.6195
  376MOL0     H51847   9.600   0.363   9.893  0.5025  2.9335  0.0671
  376MOL0     H51848   9.432   0.428   9.858  1.6200 -0.4413  2.4010
  376MOL0     H51849   9.549   0.368   9.729  3.2119 -0.4357  0.4400
  376MOL0     H51850   9.893  -0.049   9.758 -1.6714  0.3264 -0.2678
  376MOL0     H51851  10.143  -0.045   9.789 -0.2020 -0.3026  0.2375
  376MOL0     H51852  10.351  -0.035   9.884 -1.3189  0.9707 -0.2689
  376MOL0     H51853  10.375   0.054   9.729  0.2233  0.4065  0.1374
  376MOL0     H51854  10.577   0.062   9.858  0.2546 -0.0205  1.0929
  376MOL0     H51855  10.511   0.225   9.844  2.5110  0.7965  2.4937
  376MOL0     H51856  10.491   0.025  10.076 -0.2592 -1.4120 -2.0114
  376MOL0     H51857  10.421   0.187  10.077  1.6143  2.0264  0.9259
  376MOL0     H51858  10.653   0.291  10.034 -0.9138  0.7105 -0.0297
  376MOL0     H51859  10.716   0.129  10.060 -2.6931 -3.0880  0.0532
  376MOL0     H51860  10.567   0.303  10.279 -0.0421 -0.6799  1.1120
  376MOL0     H51861  10.640   0.139  10.295  1.4652 -0.4549 -0.4273
  376MOL0     H51862  10.784   0.407  10.221 -1.4902  0.6134 -1.1838
  376MOL0     H51863  10.856   0.247  10.219  0.3396  2.2944 -2.4710
  376MOL0     H51864  10.824   0.206  10.446  1.7050  0.3270 -0.9188
  376MOL0     H51865  10.714   0.334  10.471 -1.4535  0.1029 -3.1685
  376MOL0     H51866  10.870   0.505  10.459  0.6727  0.3579  1.8184
  376MOL0     H51867  10.989   0.426  10.358 -1.4266  1.4402 -1.3379
  376MOL0     H51868  10.128   0.381   9.866 -0.1700  0.4050 -2.2464
  376MOL0     H51869   9.873   0.370   9.836 -0.5065 -0.2812  2.0144
  376MOL0     H51870   9.486  -0.101   9.869  0.1181 -0.7042 -2.0716
  376MOL0     H51871   9.236  -0.113   9.846  0.5411 -0.3794 -1.0824
  376MOL0     H51872   8.296   0.199  11.379  0.0062 -0.9097 -1.9378
  376MOL0     H51873   8.140   0.361  11.495 -1.0004  0.0638  1.0106
  376MOL0     H51874   7.847   0.460  11.730 -1.0614 -2.1751 -1.3199
  376MOL0     H51875   7.748   0.663  11.870 -2.1277  0.2715  0.5119
  376MOL0     H51876   7.495   0.934  11.917  0.9355  0.9378  1.5629
  376MOL0     H51877   7.570   0.777  11.938 -1.4397 -0.0881 -0.0757
  376MOL0     H51878   7.733   1.036  11.880  0.2850  0.0740 -1.7506
  376MOL0     H51879   7.806   0.886  11.897 -0.6848  0.6555 -4.0866
  376MOL0     H51880   7.677   0.877  12.133  1.9590  0.5636  2.7445
  376MOL0     H51881   7.832   0.948  12.107 -0.2155 -2.0116  0.9608
  376MOL0     H51882   7.749   1.171  12.151 -1.4128  1.3061  1.7335
  376MOL0     H51883   7.643   1.073  12.244  1.4384 -0.0607  0.3829
  376MOL0     H51884   7.388   1.228  11.943  2.1013  1.4276 -0.9649
  376MOL0     H51885   7.588   0.815  11.513  0.3017  1.1520  0.8689
  376MOL0     H51886   7.582   0.711  11.326  0.5854  0.6089  1.2447
  376MOL0     H51887   7.756   0.667  11.280  0.8435 -0.3470  0.1738
  376MOL0     H51888   7.624   0.546  11.315 -0.0587  0.1272  0.2307
  377MOL0     O51889   9.069   5.628   0.356 -0.2897  0.0301  0.3012
  377MOL0     C51890   9.078   5.531   0.290  0.2193  0.6070 -0.3626
  377MOL0     O51891   8.975   5.452   0.245  0.1234 -0.6255 -0.0585
  377MOL0     C51892   8.843   5.482   0.257 -0.6223  0.0254 -0.4293
  377MOL0     C51893   8.753   5.473   0.146 -1.0406  0.4457 -0.6344
  377MOL0     C51894   8.620   5.513   0.162 -0.6372  0.5098  0.9270
  377MOL0     C51895   8.573   5.560   0.285  0.8884  0.5006  0.7739
  377MOL0     O51896   8.452   5.620   0.295  0.0412  0.7490 -0.4967
  377MOL0     C51897   8.366   5.637   0.189 -0.1134  0.3031  0.8778
  377MOL0     C51898   8.286   5.513   0.147  0.3479 -0.6119 -0.4197
  377MOL0     C51899   8.236   5.509   0.011  0.4514  0.7923  1.3241
  377MOL0     C51900   8.320   5.420  -0.083  0.1276 -0.4553  0.0683
  377MOL0     C51901   8.289   5.267  -0.060 -0.7607 -0.8676 -0.2275
  377MOL0     C51902   8.429   5.198  -0.042  0.2829  0.1910 -1.1138
  377MOL0     C51903   8.407   5.061   0.024 -0.4676  0.8101  0.9282
  377MOL0     C51904   8.538   4.987   0.076  1.1097 -0.9004 -0.5390
  377MOL0     N51905   8.625   4.933  -0.031  1.3506 -0.1291 -0.0747
  377MOL0     C51906   8.733   5.001  -0.080 -0.3644  0.6030  0.5679
  377MOL0     C51907   8.796   4.912  -0.166 -0.3570 -0.1138 -0.2007
  377MOL0     C51908   8.917   4.926  -0.249  0.3747  0.2926  0.5474
  377MOL0     C51909   8.901   4.894  -0.397 -0.4290  0.4566  0.1377
  377MOL0     C51910   9.024   4.933  -0.484 -0.0692  0.3271 -0.8357
  377MOL0     C51911   9.152   4.865  -0.443 -0.2136  0.5794 -0.4443
  377MOL0     O51912   9.230   4.868  -0.562  0.1778 -1.0233 -0.2484
  377MOL0     C51913   9.353   4.816  -0.553  1.0040  0.3046  0.2559
  377MOL0     C51914   9.410   4.801  -0.684 -0.9483  0.4224 -0.2278
  377MOL0     C51915   9.547   4.760  -0.695 -0.1039 -0.0325 -1.7767
  377MOL0     C51916   9.603   4.744  -0.829  0.2339  0.2103 -0.1382
  377MOL0     C51917   9.624   4.728  -0.572 -0.1061  0.5497  0.7732
  377MOL0     C51918   9.768   4.693  -0.560 -0.7325  0.2562  0.2786
  377MOL0     O51919   9.842   4.696  -0.680 -0.2059 -0.3567  0.5726
  377MOL0     C51920   9.958   4.623  -0.666 -0.0240 -0.3290 -0.5866
  377MOL0     C51921   9.970   4.487  -0.689  0.1725 -0.6234  0.4436
  377MOL0     C51922  10.090   4.425  -0.669  0.4320  0.3699 -0.5577
  377MOL0     C51923  10.206   4.493  -0.625  0.5519 -0.3504 -0.9943
  377MOL0     O51924  10.317   4.408  -0.601  0.2744  0.2479  0.1555
  377MOL0     C51925  10.443   4.473  -0.625  0.0154 -0.2235  0.4552
  377MOL0     C51926  10.544   4.357  -0.643 -0.0462  0.1129  0.1948
  377MOL0     C51927  10.689   4.407  -0.644  0.7684 -0.6077  0.1414
  377MOL0     C51928  10.787   4.292  -0.619 -1.0955  0.4983 -0.1755
  377MOL0     C51929  10.829   4.289  -0.479  0.3244 -0.5108 -0.8811
  377MOL0     C51930  10.923   4.164  -0.463  0.4803 -0.2303 -0.9338
  377MOL0     C51931  10.988   4.162  -0.329 -0.8240 -0.3443 -0.1699
  377MOL0     C51932  11.043   4.024  -0.286 -0.0675  0.4152  0.6460
  377MOL0    Cl51933  11.148   3.958  -0.413 -0.0742 -0.8435 -0.6141
  377MOL0     C51934  10.187   4.625  -0.591 -0.4074 -0.2854  0.2999
  377MOL0     C51935  10.068   4.688  -0.610 -0.4218 -0.0053 -0.4236
  377MOL0     O51936   9.811   4.650  -0.449  0.7144  0.0204 -0.3259
  377MOL0     C51937   9.551   4.729  -0.451  1.3745  0.1682  0.3455
  377MOL0     C51938   9.421   4.780  -0.440  0.8327 -0.5518 -0.0719
  377MOL0     N51939   8.732   4.793  -0.163  0.8918 -0.2884  0.1955
  377MOL0     N51940   8.636   4.801  -0.071  1.1520  0.0477 -0.4318
  377MOL0     C51941   8.656   5.560   0.392 -0.5816  0.3512  0.9199
  377MOL0     C51942   8.789   5.526   0.383 -0.3703  0.1773 -0.4413
  377MOL0     C51943   9.213   5.479   0.265  0.3513  0.5955 -0.5793
  377MOL0     C51944   9.228   5.337   0.249 -0.1810 -0.3627  0.6362
  377MOL0     C51945   9.353   5.290   0.221 -0.5174 -0.1516  0.5365
  377MOL0     C51946   9.473   5.367   0.237 -0.7020 -0.0157  0.5129
  377MOL0     O51947   9.597   5.315   0.252  0.3726  0.2232  0.1882
  377MOL0     C51948   9.628   5.176   0.223 -0.4164 -0.1972 -0.6150
  377MOL0     C51949   9.740   5.134   0.308  0.4346  0.1022 -0.5968
  377MOL0     C51950   9.874   5.189   0.268 -0.0826  0.4183 -0.0145
  377MOL0     C51951   9.984   5.120   0.347 -0.5234  0.6645 -0.1668
  377MOL0     C51952  10.001   5.181   0.483 -0.4501 -0.7292 -0.3474
  377MOL0     C51953  10.013   5.231   0.593  1.4411  0.2297  0.5012
  377MOL0     C51954   9.455   5.501   0.241 -0.2620  0.5694  0.7512
  377MOL0     C51955   9.329   5.561   0.242  0.3531  0.5743 -0.1216
  377MOL0     C51956   9.326   5.707   0.246  0.7204 -0.4675  0.0177
  377MOL0     H51957   8.784   5.439   0.048  0.0017  0.3419 -0.2833
  377MOL0     H51958   8.557   5.503   0.075 -0.5560 -4.0779  1.1326
  377MOL0     H51959   8.426   5.674   0.105 -0.4506 -1.4588 -0.1751
  377MOL0     H51960   8.293   5.715   0.213 -2.6463 -1.0646 -1.7510
  377MOL0     H51961   8.346   5.424   0.167  0.8421  0.1626  1.8665
  377MOL0     H51962   8.203   5.519   0.217  0.0680 -1.2963 -0.6916
  377MOL0     H51963   8.133   5.471   0.010  0.7319 -0.0340 -0.5725
  377MOL0     H51964   8.234   5.608  -0.035  2.5366  0.1745 -0.2421
  377MOL0     H51965   8.292   5.438  -0.187 -2.7154  0.9599  0.9736
  377MOL0     H51966   8.426   5.443  -0.079  0.5680 -2.3881  0.7104
  377MOL0     H51967   8.229   5.234  -0.146 -0.5260 -1.0417 -0.3252
  377MOL0     H51968   8.227   5.257   0.030  0.6403 -0.5545  0.7963
  377MOL0     H51969   8.483   5.193  -0.137  0.9966  0.8042 -0.7480
  377MOL0     H51970   8.495   5.254   0.025 -0.2469  1.8135 -1.8849
  377MOL0     H51971   8.356   4.998  -0.049 -1.3864  3.4653 -0.8518
  377MOL0     H51972   8.342   5.081   0.110 -0.6586  0.6303  0.8259
  377MOL0     H51973   8.602   5.039   0.148  3.6441 -3.5257 -0.6742
  377MOL0     H51974   8.502   4.895   0.122  0.1432 -0.4259 -0.3260
  377MOL0     H51975   8.769   5.102  -0.064  2.6466 -0.3383  0.4149
  377MOL0     H51976   9.002   4.866  -0.213 -1.4209 -0.9376  3.0484
  377MOL0     H51977   8.958   5.027  -0.233 -0.1572  1.3039 -3.4826
  377MOL0     H51978   8.877   4.788  -0.407 -1.2142  0.5068  1.2900
  377MOL0     H51979   8.816   4.945  -0.443 -0.9467 -3.3295 -3.8002
  377MOL0     H51980   8.995   4.915  -0.588  2.3754  1.6953 -1.8534
  377MOL0     H51981   9.033   5.042  -0.481  0.3050  0.2890  2.1525
  377MOL0     H51982   9.200   4.919  -0.361  0.4793  2.2404 -1.8884
  377MOL0     H51983   9.121   4.762  -0.423 -0.5523  0.7346 -0.1548
  377MOL0     H51984   9.345   4.810  -0.771 -2.8852 -0.6361  1.0436
  377MOL0     H51985   9.628   4.641  -0.856 -1.3010 -0.1015 -0.4532
  377MOL0     H51986   9.694   4.804  -0.827 -0.2498  0.9371  1.2798
  377MOL0     H51987   9.540   4.785  -0.908  1.0667 -0.9876 -1.4792
  377MOL0     H51988   9.890   4.430  -0.735  0.2821 -2.1141  2.0145
  377MOL0     H51989  10.108   4.321  -0.691  0.6463  0.3565 -0.3284
  377MOL0     H51990  10.449   4.533  -0.717  2.0338  0.4875  1.0130
  377MOL0     H51991  10.463   4.543  -0.544 -1.4193 -0.4620  1.0589
  377MOL0     H51992  10.526   4.288  -0.560  1.8775  0.4462  0.9432
  377MOL0     H51993  10.533   4.304  -0.739  0.5617 -1.6185  1.0334
  377MOL0     H51994  10.702   4.494  -0.580  1.1227  0.1596 -0.9406
  377MOL0     H51995  10.706   4.440  -0.747 -2.5873  0.7797 -0.0847
  377MOL0     H51996  10.879   4.299  -0.677 -0.7423 -0.2121  0.2712
  377MOL0     H51997  10.739   4.197  -0.646 -1.8068  0.7431  0.1848
  377MOL0     H51998  10.885   4.380  -0.458 -0.7319  0.1448 -0.8897
  377MOL0     H51999  10.742   4.279  -0.414  2.8159 -0.4600  2.7747
  377MOL0     H52000  10.997   4.159  -0.544 -0.1890  0.5733 -1.6283
  377MOL0     H52001  10.868   4.070  -0.462 -1.5976  0.9356 -0.1684
  377MOL0     H52002  10.920   4.194  -0.249  0.1591 -0.6593  0.8201
  377MOL0     H52003  11.070   4.234  -0.338 -2.4033  1.5039 -0.4092
  377MOL0     H52004  10.960   3.958  -0.261  0.6913 -1.0012 -0.4258
  377MOL0     H52005  11.103   4.036  -0.195 -1.0442  0.1087  1.3478
  377MOL0     H52006  10.263   4.675  -0.531 -2.1631  1.2547  1.3811
  377MOL0     H52007  10.063   4.790  -0.575 -1.4338 -1.3769  4.0027
  377MOL0     H52008   9.588   4.698  -0.354 -1.2004  0.0141  1.3644
  377MOL0     H52009   9.381   4.783  -0.339  0.5973  0.6798 -0.1875
  377MOL0     H52010   8.625   5.588   0.492  0.4626  1.6364  0.9107
  377MOL0     H52011   8.853   5.539   0.469  0.3637 -0.1422 -0.9333
  377MOL0     H52012   9.148   5.264   0.258 -0.1934 -0.7392 -1.7634
  377MOL0     H52013   9.366   5.184   0.206  1.5973  0.4567 -3.2495
  377MOL0     H52014   9.544   5.107   0.239  1.3965 -2.0274  1.7735
  377MOL0     H52015   9.658   5.155   0.120 -0.7540 -3.8375 -0.1260
  377MOL0     H52016   9.748   5.026   0.298  1.5650  0.1222 -0.1278
  377MOL0     H52017   9.719   5.160   0.412  0.3518 -1.0543 -0.3204
  377MOL0     H52018   9.887   5.164   0.162 -2.3578  1.2192 -0.5465
  377MOL0     H52019   9.881   5.298   0.267 -2.7644  0.6816  0.5213
  377MOL0     H52020  10.073   5.116   0.283 -1.3646 -1.4507 -1.3045
  377MOL0     H52021   9.971   5.013   0.366  5.4096  0.1041  3.2028
  377MOL0     H52022  10.045   5.276   0.685  3.3935 -0.5348  0.2392
  377MOL0     H52023   9.541   5.566   0.252  0.5332 -0.6007  1.5752
  377MOL0     H52024   9.310   5.742   0.349  0.1436  0.6802 -0.4459
  377MOL0     H52025   9.420   5.747   0.207 -0.1487 -0.3232 -2.0488
  377MOL0     H52026   9.254   5.747   0.174 -0.3906 -2.3753  0.0034
  378MOL0     O52027   8.466   6.738   4.938 -0.1821  0.0864  0.4917
  378MOL0     C52028   8.487   6.668   5.037  1.1244  0.2152  0.2758
  378MOL0     O52029   8.607   6.604   5.072 -0.1036 -0.6028  0.2319
  378MOL0     C52030   8.724   6.614   4.999 -0.0729  0.0781  0.3057
  378MOL0     C52031   8.740   6.686   4.880  0.1043 -0.6903 -0.2020
  378MOL0     C52032   8.865   6.697   4.814 -0.4798  1.3140 -0.1701
  378MOL0     C52033   8.974   6.620   4.859 -0.5428 -0.7369  0.1184
  378MOL0     O52034   9.099   6.610   4.791  0.7916 -0.2478 -0.0544
  378MOL0     C52035   9.108   6.676   4.663 -0.5575 -0.0508 -0.3050
  378MOL0     C52036   9.267   6.669   4.633  0.7467 -0.3456 -0.6936
  378MOL0     C52037   9.334   6.542   4.595 -0.5362  0.6020 -0.6724
  378MOL0     C52038   9.463   6.571   4.518 -0.4753  0.1246 -0.0111
  378MOL0     C52039   9.431   6.601   4.370 -0.2479  0.0221  0.2437
  378MOL0     C52040   9.558   6.603   4.272  0.9469 -0.5443  0.3505
  378MOL0     C52041   9.647   6.712   4.319 -0.9393 -0.3453 -0.4299
  378MOL0     C52042   9.771   6.719   4.224  0.0572 -0.4149 -0.4320
  378MOL0     N52043   9.879   6.809   4.266  0.5419  0.9568  0.4353
  378MOL0     C52044   9.978   6.764   4.358  0.5402  0.1601 -0.6747
  378MOL0     C52045  10.080   6.858   4.353  0.6894 -0.0496 -0.4733
  378MOL0     C52046  10.208   6.843   4.426  0.4330  0.2862 -0.5407
  378MOL0     C52047  10.334   6.862   4.338  0.1042  0.4059  0.1433
  378MOL0     C52048  10.469   6.845   4.410 -0.3039  0.4260  0.0362
  378MOL0     C52049  10.512   6.967   4.492  0.1767 -0.9482 -0.0614
  378MOL0     O52050  10.588   6.933   4.602 -0.8758 -0.5457 -0.0204
  378MOL0     C52051  10.722   6.920   4.601 -0.3677  0.5173 -0.5532
  378MOL0     C52052  10.802   6.924   4.481 -0.0603  0.1405  0.2278
  378MOL0     C52053  10.937   6.890   4.482  0.8394 -0.0553  0.9048
  378MOL0     C52054  11.027   6.897   4.359 -0.3370 -0.1386  0.1774
  378MOL0     C52055  11.001   6.869   4.609  0.1830  0.3963 -0.4449
  378MOL0     C52056  11.147   6.836   4.628  0.3470  1.1895 -0.9593
  378MOL0     O52057  11.189   6.850   4.751 -0.4751  0.0034 -0.4938
  378MOL0     C52058  11.320   6.822   4.782  0.3758  0.4046 -0.2373
  378MOL0     C52059  11.417   6.922   4.786  0.4033  0.3618  0.9188
  378MOL0     C52060  11.552   6.888   4.794  0.3611 -0.0695 -0.5553
  378MOL0     C52061  11.593   6.761   4.803 -0.5985 -0.0847  0.0370
  378MOL0     O52062  11.727   6.726   4.829  0.5873  0.1059  0.0094
  378MOL0     C52063  11.848   6.791   4.778 -0.2861  0.8195  0.1951
  378MOL0     C52064  11.905   6.694   4.667 -0.2043  0.2580  0.1975
  378MOL0     C52065  12.013   6.599   4.725  1.0431 -0.9497 -0.6434
  378MOL0     C52066  12.076   6.525   4.613 -0.4512 -0.1123  0.0841
  378MOL0     C52067  11.991   6.408   4.571 -0.0736 -0.0547  0.5788
  378MOL0     C52068  12.037   6.312   4.464 -0.5304  1.1050  0.1790
  378MOL0     C52069  11.975   6.170   4.464 -0.1579  0.7095  0.0262
  378MOL0     C52070  12.011   6.078   4.583  0.2051  0.2073 -0.2546
  378MOL0    Cl52071  12.173   5.995   4.580  0.2964  0.3076  0.1358
  378MOL0     C52072  11.499   6.659   4.794  0.0895  0.1650 -0.0059
  378MOL0     C52073  11.360   6.690   4.790  0.8618  0.3816  0.1768
  378MOL0     O52074  11.213   6.784   4.537 -0.6301  0.0104 -0.3444
  378MOL0     C52075  10.925   6.882   4.727 -0.7971 -0.3632 -0.4238
  378MOL0     C52076  10.791   6.899   4.728  0.1431 -0.5681  0.1049
  378MOL0     N52077  10.040   6.949   4.257 -0.9214 -0.5678  0.0388
  378MOL0     N52078   9.922   6.925   4.215 -0.2975  0.1364 -0.5509
  378MOL0     C52079   8.948   6.544   4.976 -0.2633  0.3537  0.9644
  378MOL0     C52080   8.829   6.535   5.043  0.5289 -0.0329 -0.7239
  378MOL0     C52081   8.374   6.661   5.131  0.4338 -0.8043  0.2570
  378MOL0     C52082   8.417   6.666   5.260 -0.0856  0.1432  0.2153
  378MOL0     C52083   8.324   6.684   5.362  0.3277 -0.2255 -0.0721
  378MOL0     C52084   8.189   6.707   5.335  0.0260 -0.1090  0.0194
  378MOL0     O52085   8.107   6.738   5.438 -0.2958  0.6445 -0.4408
  378MOL0     C52086   8.143   6.834   5.526  0.1339 -0.2556 -0.3870
  378MOL0     C52087   8.030   6.927   5.530  0.2342  1.5774  0.1620
  378MOL0     C52088   8.009   7.004   5.398 -0.2827  0.1494  0.2246
  378MOL0     C52089   8.116   7.119   5.366  0.1664 -0.5158 -0.7884
  378MOL0     C52090   8.196   7.062   5.259 -0.6748  0.0755  0.4399
  378MOL0     C52091   8.269   7.005   5.180  0.5134  0.0474 -0.7711
  378MOL0     C52092   8.139   6.689   5.205 -0.4561  0.6321 -0.1437
  378MOL0     C52093   8.235   6.668   5.100  1.0804 -0.5146  0.7512
  378MOL0     C52094   8.189   6.640   4.963 -0.0223 -0.2871 -0.2052
  378MOL0     H52095   8.654   6.726   4.828 -1.4757 -1.2377  1.8498
  378MOL0     H52096   8.872   6.758   4.725  1.7016  0.7384 -0.4592
  378MOL0     H52097   9.067   6.777   4.657 -2.7294 -0.9438 -1.4982
  378MOL0     H52098   9.066   6.610   4.587  2.0396 -1.8818 -0.2760
  378MOL0     H52099   9.270   6.740   4.549  0.6655  1.7324  0.9794
  378MOL0     H52100   9.317   6.720   4.716  0.0325 -0.1954 -0.3483
  378MOL0     H52101   9.360   6.482   4.682  0.3534  1.4580 -0.3333
  378MOL0     H52102   9.273   6.486   4.523 -0.4528 -0.5841  0.1558
  378MOL0     H52103   9.523   6.651   4.561  1.7787 -1.6503  0.3646
  378MOL0     H52104   9.519   6.477   4.521 -1.9229 -0.7757 -0.4102
  378MOL0     H52105   9.381   6.698   4.366  0.7734  0.5299 -1.1195
  378MOL0     H52106   9.358   6.525   4.340  0.8055 -0.3914 -1.4646
  378MOL0     H52107   9.610   6.507   4.268  1.5581 -0.1779 -1.7459
  378MOL0     H52108   9.526   6.630   4.171  1.1628 -2.1808 -0.1897
  378MOL0     H52109   9.695   6.683   4.413 -2.8540 -3.7170 -0.3346
  378MOL0     H52110   9.613   6.813   4.340  3.8595  1.0295  2.2686
  378MOL0     H52111   9.821   6.623   4.213 -0.6971 -0.6534 -1.9603
  378MOL0     H52112   9.740   6.751   4.124 -0.8247 -0.7382 -0.2695
  378MOL0     H52113   9.981   6.679   4.425  2.3120  0.2496 -0.6160
  378MOL0     H52114  10.209   6.742   4.467 -2.1894  1.1831  2.1612
  378MOL0     H52115  10.219   6.922   4.501  2.7782  0.4783 -0.9977
  378MOL0     H52116  10.330   6.792   4.254  1.5697 -0.2339  0.5773
  378MOL0     H52117  10.328   6.964   4.299 -1.1710  0.6850  1.0066
  378MOL0     H52118  10.464   6.759   4.477  0.6868  0.5366  0.2698
  378MOL0     H52119  10.555   6.838   4.343  0.1757  0.6776  0.6144
  378MOL0     H52120  10.569   7.040   4.434  1.5115 -0.4795  1.7638
  378MOL0     H52121  10.421   7.019   4.524  0.6303 -0.4401  0.4208
  378MOL0     H52122  10.763   6.939   4.381 -0.3119 -1.3276  0.0785
  378MOL0     H52123  10.974   6.961   4.287  0.9574 -0.5774 -1.2328
  378MOL0     H52124  11.052   6.801   4.314  3.1387  0.3869  0.7356
  378MOL0     H52125  11.124   6.946   4.372 -0.7436  0.3688  1.4228
  378MOL0     H52126  11.383   7.025   4.777  1.2923  0.5244 -1.3634
  378MOL0     H52127  11.629   6.965   4.794 -0.2012  0.5182 -1.4686
  378MOL0     H52128  11.821   6.882   4.724  0.9336  2.1904  1.7844
  378MOL0     H52129  11.929   6.815   4.847  0.2994 -1.0133  0.1910
  378MOL0     H52130  11.823   6.643   4.615  1.0772  0.7317 -2.4665
  378MOL0     H52131  11.955   6.754   4.590  0.3283  1.0533  1.1484
  378MOL0     H52132  11.959   6.538   4.799  2.0629 -0.9729  0.0957
  378MOL0     H52133  12.083   6.657   4.784 -0.8332 -0.2496  1.0177
  378MOL0     H52134  12.175   6.495   4.647  0.1032  0.4424 -0.9728
  378MOL0     H52135  12.089   6.596   4.530 -0.2315  0.5256  0.6545
  378MOL0     H52136  11.971   6.352   4.663 -1.9718  0.6796  0.6703
  378MOL0     H52137  11.896   6.453   4.539  1.2206  0.9071 -2.2186
  378MOL0     H52138  12.144   6.290   4.469 -0.7967 -0.5613 -0.5838
  378MOL0     H52139  12.019   6.356   4.365  0.9938  0.2792 -0.4999
  378MOL0     H52140  12.007   6.126   4.369 -0.0180  1.0421 -0.0845
  378MOL0     H52141  11.866   6.163   4.466 -0.0972 -0.1472  1.3567
  378MOL0     H52142  11.936   5.999   4.572 -2.0100  2.1602 -0.0556
  378MOL0     H52143  11.997   6.130   4.679 -2.1913 -2.9330  1.2795
  378MOL0     H52144  11.527   6.555   4.786 -2.0893 -0.3539 -2.1232
  378MOL0     H52145  11.282   6.614   4.782  0.3569  0.7947  1.0395
  378MOL0     H52146  10.965   6.858   4.825  1.5009  0.6653 -1.0401
  378MOL0     H52147  10.732   6.896   4.818  1.4097 -0.1456  0.9859
  378MOL0     H52148   9.033   6.485   5.009  0.2983  1.1735  1.0214
  378MOL0     H52149   8.809   6.465   5.123 -1.8354  0.2058 -1.0364
  378MOL0     H52150   8.522   6.653   5.286  0.4963 -0.3268 -2.1938
  378MOL0     H52151   8.360   6.706   5.462 -0.3259  1.6218 -0.1906
  378MOL0     H52152   8.163   6.788   5.623 -0.2825  0.0883 -0.1302
  378MOL0     H52153   8.234   6.889   5.502  0.6834 -0.2961  1.4340
  378MOL0     H52154   8.050   6.996   5.612 -0.6349  0.2386  1.5392
  378MOL0     H52155   7.935   6.877   5.551 -0.2699  1.8285 -1.3383
  378MOL0     H52156   8.005   6.932   5.316 -0.3060  1.0719 -0.5976
  378MOL0     H52157   7.911   7.054   5.403 -1.3673 -1.9129  0.9140
  378MOL0     H52158   8.168   7.145   5.458  1.4997 -0.9181 -1.3987
  378MOL0     H52159   8.074   7.211   5.325  0.0183 -0.9778 -1.7062
  378MOL0     H52160   8.336   6.942   5.126  1.1027 -0.7097  0.7535
  378MOL0     H52161   8.033   6.686   5.186 -0.3661  0.8510 -0.7029
  378MOL0     H52162   8.269   6.581   4.920  0.4784 -1.3184  1.9854
  378MOL0     H52163   8.095   6.584   4.966 -1.1713  1.5626  0.9270
  378MOL0     H52164   8.164   6.736   4.917 -1.2145 -0.8695 -0.8272
  379MOL0     O52165   8.439  10.750   0.085  0.3328 -0.0875  0.2087
  379MOL0     C52166   8.441  10.638   0.043 -0.4337  1.1269  0.1988
  379MOL0     O52167   8.547  10.559   0.046 -0.2467 -0.1313  0.5435
  379MOL0     C52168   8.681  10.603   0.038  0.0532  0.4084  0.4516
  379MOL0     C52169   8.730  10.707  -0.044  0.0359 -0.4049  0.1355
  379MOL0     C52170   8.866  10.731  -0.064  0.1442 -0.1332  0.3492
  379MOL0     C52171   8.961  10.645  -0.012 -0.0254 -0.1618 -0.7330
  379MOL0     O52172   9.098  10.669  -0.046  0.1036 -0.4245 -0.2297
  379MOL0     C52173   9.197  10.634   0.057  0.1174 -0.3226 -0.1201
  379MOL0     C52174   9.188  10.733   0.181 -0.1212  0.8699  0.4290
  379MOL0     C52175   9.326  10.790   0.215 -0.0402 -0.2058 -0.6637
  379MOL0     C52176   9.407  10.684   0.290  0.2164  0.9669  0.3312
  379MOL0     C52177   9.523  10.742   0.360 -0.4774 -0.0917  0.4760
  379MOL0     C52178   9.630  10.805   0.269 -0.1600  0.0010 -0.2733
  379MOL0     C52179   9.676  10.706   0.148 -0.2229 -0.0009 -0.0434
  379MOL0     C52180   9.797  10.756   0.062  0.6857  0.2198  0.7783
  379MOL0     N52181   9.928  10.736   0.127 -0.4211  0.1451 -0.3313
  379MOL0     C52182  10.031  10.829   0.131 -0.0342 -0.9585  0.0406
  379MOL0     C52183  10.137  10.763   0.176  0.9670 -0.2729 -0.8849
  379MOL0     C52184  10.279  10.809   0.187  0.2407 -0.3664 -0.0504
  379MOL0     C52185  10.302  10.909   0.300  0.4000 -0.3641 -1.1815
  379MOL0     C52186  10.316  10.842   0.441  0.0074 -0.3447  0.4110
  379MOL0     C52187  10.444  10.755   0.445 -0.9084  0.0736 -0.6496
  379MOL0     O52188  10.554  10.840   0.491 -0.0831  0.6138 -0.4953
  379MOL0     C52189  10.667  10.773   0.541 -0.3308  0.9303  0.3959
  379MOL0     C52190  10.786  10.835   0.540 -1.1323 -0.2424  0.3108
  379MOL0     C52191  10.909  10.780   0.587  0.1118 -0.2252  1.0551
  379MOL0     C52192  11.031  10.865   0.545  0.0619  0.2873 -0.1971
  379MOL0     C52193  10.907  10.659   0.658  0.0921  0.8551 -0.9302
  379MOL0     C52194  11.022  10.598   0.725  0.5708  0.6281 -1.0078
  379MOL0     O52195  10.995  10.540   0.844 -0.4884  0.3201 -0.2669
  379MOL0     C52196  11.074  10.446   0.905  0.3896 -0.8327  0.5211
  379MOL0     C52197  11.012  10.344   0.985  0.1030  0.1215 -0.1929
  379MOL0     C52198  11.087  10.248   1.062  0.3585  0.1222 -0.4867
  379MOL0     C52199  11.222  10.257   1.069 -0.1276 -0.2131  0.7795
  379MOL0     O52200  11.295  10.178   1.161 -0.1047 -0.1418  0.6770
  379MOL0     C52201  11.261  10.038   1.163 -0.1746  1.0947  0.0236
  379MOL0     C52202  11.385   9.969   1.215 -0.2476  0.9585 -0.7847
  379MOL0     C52203  11.393   9.822   1.167 -0.3622 -0.7328 -0.3886
  379MOL0     C52204  11.513   9.747   1.222 -0.9315  0.1482  0.0211
  379MOL0     C52205  11.532   9.619   1.146 -1.0240 -0.4886  0.1209
  379MOL0     C52206  11.671   9.562   1.179 -0.4209  0.4831  0.0819
  379MOL0     C52207  11.692   9.416   1.123  1.1630 -0.7571  0.3014
  379MOL0     C52208  11.647   9.395   0.975  0.2861  0.6861 -0.4552
  379MOL0    Cl52209  11.702   9.231   0.910 -0.4691 -0.5930  0.9192
  379MOL0     C52210  11.286  10.351   0.985 -0.5185  0.2200 -0.2214
  379MOL0     C52211  11.214  10.442   0.907  0.1002 -0.5921 -0.4921
  379MOL0     O52212  11.141  10.617   0.685  0.3067 -0.2680  0.4257
  379MOL0     C52213  10.791  10.592   0.666 -0.8579  1.0132  0.1769
  379MOL0     C52214  10.673  10.651   0.610 -0.3240  0.8763 -0.2707
  379MOL0     N52215  10.104  10.630   0.208  0.5914 -0.1790 -0.0311
  379MOL0     N52216   9.979  10.616   0.170 -1.5809  0.1643  0.0805
  379MOL0     C52217   8.915  10.540   0.073  0.1888  0.0695  0.4093
  379MOL0     C52218   8.778  10.520   0.098 -0.0209  1.4203  0.2162
  379MOL0     C52219   8.310  10.572   0.018  0.3865  0.3336 -0.1609
  379MOL0     C52220   8.193  10.611   0.088  1.2006  0.0429 -0.2933
  379MOL0     C52221   8.067  10.546   0.068  0.5271  0.1381 -0.2600
  379MOL0     C52222   8.059  10.455  -0.043  0.0922 -0.2251  0.4157
  379MOL0     O52223   7.930  10.420  -0.069 -0.7940  0.3492 -0.3759
  379MOL0     C52224   7.895  10.354  -0.188 -0.4599 -0.7722 -0.0309
  379MOL0     C52225   7.747  10.343  -0.191  0.1030  0.3240 -0.3906
  379MOL0     C52226   7.680  10.476  -0.209  0.5413  0.0077 -1.0425
  379MOL0     C52227   7.528  10.467  -0.259  0.4857 -0.4030  0.3856
  379MOL0     C52228   7.503  10.422  -0.396 -0.5644 -0.8380 -0.9273
  379MOL0     C52229   7.514  10.399  -0.511 -0.0233  0.7411  0.2588
  379MOL0     C52230   8.166  10.438  -0.126 -0.2469 -0.0153 -0.2961
  379MOL0     C52231   8.291  10.483  -0.097 -0.4774 -0.5472 -0.2597
  379MOL0     C52232   8.397  10.456  -0.205  0.4803 -0.1087 -0.5179
  379MOL0     H52233   8.654  10.774  -0.084 -1.1573 -0.4998  2.0991
  379MOL0     H52234   8.887  10.810  -0.135  0.5751 -0.6289 -0.0894
  379MOL0     H52235   9.290  10.649  -0.000  0.5961  0.7027  0.8951
  379MOL0     H52236   9.202  10.527   0.079  1.0892 -0.3308 -0.3303
  379MOL0     H52237   9.123  10.817   0.156  1.6604  1.0610 -4.6441
  379MOL0     H52238   9.143  10.684   0.268  0.2073  1.0862  0.7240
  379MOL0     H52239   9.382  10.830   0.130  0.9082  1.8020  0.8027
  379MOL0     H52240   9.313  10.877   0.279  1.1343 -0.9502  0.6607
  379MOL0     H52241   9.336  10.626   0.350  0.1013 -1.2916 -1.8470
  379MOL0     H52242   9.443  10.604   0.225 -0.2853  0.2898  0.8596
  379MOL0     H52243   9.577  10.661   0.410 -2.0146 -1.8914 -0.6285
  379MOL0     H52244   9.483  10.815   0.431 -2.7385 -0.1418 -0.6454
  379MOL0     H52245   9.582  10.894   0.229 -0.1021  1.2670  2.2560
  379MOL0     H52246   9.713  10.838   0.332  0.7890  0.1723 -1.5704
  379MOL0     H52247   9.585  10.703   0.088 -0.0800  3.5444 -0.6942
  379MOL0     H52248   9.706  10.607   0.182  0.1748  0.3124  0.5488
  379MOL0     H52249   9.801  10.700  -0.032 -1.7715 -2.0078  1.8801
  379MOL0     H52250   9.785  10.863   0.039 -0.0836  0.0498  0.3191
  379MOL0     H52251  10.032  10.927   0.084 -1.9710 -1.3629 -0.9785
  379MOL0     H52252  10.303  10.860   0.093  3.5609 -0.1852  0.7708
  379MOL0     H52253  10.351  10.728   0.204  0.5407  0.4601  3.4333
  379MOL0     H52254  10.395  10.965   0.289  1.5908 -2.3719 -1.7597
  379MOL0     H52255  10.215  10.974   0.317  0.0056 -1.7204  3.3115
  379MOL0     H52256  10.307  10.904   0.530 -0.4769  2.0513 -1.1987
  379MOL0     H52257  10.236  10.767   0.441 -0.3208 -0.0211 -0.8384
  379MOL0     H52258  10.428  10.670   0.512  1.3674 -0.5813 -0.8304
  379MOL0     H52259  10.475  10.703   0.354  1.4778 -1.5679  0.9770
  379MOL0     H52260  10.797  10.932   0.491 -0.3028  0.2597  1.4484
  379MOL0     H52261  11.003  10.940   0.471 -2.4446 -0.8332 -0.4808
  379MOL0     H52262  11.119  10.807   0.517  0.0942  0.4580 -0.4472
  379MOL0     H52263  11.052  10.923   0.636  2.6731  1.2381 -1.3081
  379MOL0     H52264  10.904  10.357   0.991  0.0490  0.9367 -2.0853
  379MOL0     H52265  11.036  10.166   1.111 -2.2686  0.7769 -1.9512
  379MOL0     H52266  11.176  10.023   1.231  0.2327  1.5935  0.6424
  379MOL0     H52267  11.236   9.996   1.065 -2.5078  0.9174  0.6309
  379MOL0     H52268  11.474  10.022   1.180 -0.6921  1.0379 -1.8488
  379MOL0     H52269  11.374   9.970   1.323 -1.8787 -1.6834 -0.8498
  379MOL0     H52270  11.397   9.825   1.058  2.7793  3.2620 -0.4192
  379MOL0     H52271  11.299   9.773   1.193 -1.1151  0.0835 -1.4783
  379MOL0     H52272  11.503   9.718   1.327  2.8600  2.4599  1.1884
  379MOL0     H52273  11.596   9.817   1.213 -0.6409  0.0171  1.3947
  379MOL0     H52274  11.455   9.550   1.180  0.2605 -1.5743  0.9473
  379MOL0     H52275  11.518   9.636   1.039  1.1224  1.8578  0.1097
  379MOL0     H52276  11.701   9.588   1.280  0.8279  3.6476 -0.9680
  379MOL0     H52277  11.744   9.622   1.123  3.1001 -1.3658  2.2784
  379MOL0     H52278  11.637   9.352   1.193 -2.9602  2.1037  0.0300
  379MOL0     H52279  11.797   9.387   1.123  0.9588 -1.7276 -2.2826
  379MOL0     H52280  11.686   9.473   0.910  2.9290 -0.1199  0.0348
  379MOL0     H52281  11.540   9.403   0.954 -0.0627  0.5677  1.1752
  379MOL0     H52282  11.391  10.370   0.970 -0.0942  0.8052  2.7452
  379MOL0     H52283  11.265  10.516   0.847 -0.9777  1.4600  0.9784
  379MOL0     H52284  10.784  10.500   0.723  1.0717  0.8489  0.1885
  379MOL0     H52285  10.578  10.599   0.623  0.6404 -0.7593  0.6157
  379MOL0     H52286   8.993  10.485   0.125  0.8009  0.2420 -0.3126
  379MOL0     H52287   8.744  10.445   0.168  0.6995 -0.6141 -1.4945
  379MOL0     H52288   8.199  10.696   0.156  1.4440  0.4212 -0.7808
  379MOL0     H52289   7.977  10.578   0.120 -1.9190 -3.7369 -1.6862
  379MOL0     H52290   7.935  10.411  -0.272  2.4245 -0.6312  1.3310
  379MOL0     H52291   7.940  10.256  -0.205  0.3389 -0.2020 -1.3458
  379MOL0     H52292   7.713  10.298  -0.097  1.7717  5.5794  3.1539
  379MOL0     H52293   7.708  10.288  -0.277 -2.2222  1.5087 -0.1917
  379MOL0     H52294   7.690  10.534  -0.117 -2.1407 -1.5105  0.3111
  379MOL0     H52295   7.726  10.542  -0.284 -2.6145  2.0748 -1.3954
  379MOL0     H52296   7.471  10.559  -0.242 -1.3629 -1.1594 -1.3197
  379MOL0     H52297   7.486  10.384  -0.201 -2.0686  1.7298  1.8162
  379MOL0     H52298   7.534  10.378  -0.614 -1.7023  1.3657 -0.2251
  379MOL0     H52299   8.149  10.374  -0.213 -0.4000 -0.7124  0.2401
  379MOL0     H52300   8.446  10.545  -0.245  1.7923 -1.1344 -1.2908
  379MOL0     H52301   8.473  10.392  -0.158  0.0869  0.0155  0.3102
  379MOL0     H52302   8.357  10.394  -0.286 -0.5537  2.1464 -1.8267
  380MOL0     O52303   7.997   5.408   6.660  0.1682  0.8975  0.1951
  380MOL0     C52304   8.064   5.448   6.753 -0.1250  0.0041 -0.3642
  380MOL0     O52305   8.153   5.542   6.746 -0.3983 -0.7083  0.3624
  380MOL0     C52306   8.168   5.629   6.638 -0.3013 -0.1539  0.5027
  380MOL0     C52307   8.083   5.661   6.538  0.0450 -0.1532  0.0794
  380MOL0     C52308   8.101   5.752   6.431 -0.0341 -0.4020 -0.7855
  380MOL0     C52309   8.228   5.813   6.430  0.0214  0.0113 -0.0674
  380MOL0     O52310   8.259   5.911   6.339  0.3866 -0.4848 -0.1467
  380MOL0     C52311   8.205   5.902   6.199  0.2172  0.1009 -0.2507
  380MOL0     C52312   8.240   6.027   6.114  0.0573  0.4082 -0.0412
  380MOL0     C52313   8.384   6.041   6.074  0.2241  0.0639 -0.1744
  380MOL0     C52314   8.410   6.166   5.982 -1.0573  0.1036 -1.0028
  380MOL0     C52315   8.443   6.285   6.071 -0.0789  0.2308  0.6037
  380MOL0     C52316   8.444   6.419   5.988  0.1415  0.2130 -1.0463
  380MOL0     C52317   8.556   6.426   5.880  0.6612  0.5949  1.0540
  380MOL0     C52318   8.700   6.409   5.935  0.4256  0.4456 -0.4781
  380MOL0     N52319   8.737   6.507   6.035  0.8751  0.4064  0.0308
  380MOL0     C52320   8.782   6.631   6.011 -0.0230 -0.3791  1.0208
  380MOL0     C52321   8.802   6.692   6.131  0.5534 -1.2226 -0.5394
  380MOL0     C52322   8.843   6.831   6.165  0.6274  0.7596  0.1345
  380MOL0     C52323   8.989   6.824   6.199  0.4035 -0.1615  1.2847
  380MOL0     C52324   9.060   6.954   6.245  0.8976  0.2553  0.0897
  380MOL0     C52325   9.209   6.940   6.258  0.3219 -0.2155 -0.8298
  380MOL0     O52326   9.259   6.964   6.133  0.3530 -0.0349 -1.0531
  380MOL0     C52327   9.391   6.948   6.115 -0.3798 -0.8849  0.9955
  380MOL0     C52328   9.474   6.869   6.190  0.1228  0.1078 -0.1785
  380MOL0     C52329   9.615   6.863   6.162  0.8157  0.3541  0.4563
  380MOL0     C52330   9.706   6.784   6.247  0.6629  0.2421  0.1811
  380MOL0     C52331   9.672   6.943   6.060  0.2969 -0.0354 -0.0916
  380MOL0     C52332   9.822   6.948   6.018 -0.3176  0.1023 -0.0096
  380MOL0     O52333   9.857   7.049   5.938 -0.2245 -0.8578 -0.2342
  380MOL0     C52334   9.985   7.059   5.892  0.3964 -0.5379 -0.2387
  380MOL0     C52335  10.034   6.966   5.801  0.0333  0.2723 -0.4266
  380MOL0     C52336  10.156   6.977   5.739 -0.2896  0.1934 -0.1505
  380MOL0     C52337  10.241   7.092   5.759  0.3062  0.0586 -0.1753
  380MOL0     O52338  10.356   7.130   5.699 -0.2950 -0.5140  0.4590
  380MOL0     C52339  10.407   7.042   5.598  0.0303  0.0508 -0.4171
  380MOL0     C52340  10.516   7.101   5.513  0.2335 -0.3645  0.4605
  380MOL0     C52341  10.611   7.203   5.578 -0.6309  0.5242 -0.8494
  380MOL0     C52342  10.726   7.230   5.476 -0.3469  0.3527  0.3915
  380MOL0     C52343  10.847   7.144   5.507 -0.3204  0.6717  1.1140
  380MOL0     C52344  10.923   7.206   5.625  0.1138  0.1165  0.7549
  380MOL0     C52345  11.067   7.154   5.645 -0.9063 -0.0743  0.7581
  380MOL0     C52346  11.166   7.173   5.526 -0.6796  0.1625 -0.2821
  380MOL0    Cl52347  11.203   7.348   5.478  0.5163  0.3667 -0.2048
  380MOL0     C52348  10.190   7.185   5.847 -0.2007  0.1625 -0.2302
  380MOL0     C52349  10.071   7.169   5.914  0.4563 -0.7982 -0.3064
  380MOL0     O52350   9.904   6.860   6.056  0.1782  0.1745 -0.4616
  380MOL0     C52351   9.581   7.023   5.992  0.4563 -0.4148  1.1652
  380MOL0     C52352   9.449   7.030   6.019 -0.3705  0.3558  0.0499
  380MOL0     N52353   8.753   6.602   6.234  0.0900  0.0325  0.0271
  380MOL0     N52354   8.720   6.491   6.172 -1.0533 -0.0642  1.1681
  380MOL0     C52355   8.320   5.785   6.525  0.1816  0.1442 -0.4227
  380MOL0     C52356   8.286   5.700   6.635 -0.3473 -0.8677 -0.0085
  380MOL0     C52357   8.032   5.395   6.887 -0.3083 -0.2044  0.2462
  380MOL0     C52358   7.907   5.412   6.932 -0.6232 -0.3250 -0.1090
  380MOL0     C52359   7.869   5.338   7.045  0.1365  0.5821 -0.3241
  380MOL0     C52360   7.963   5.262   7.121 -0.1514  0.8003  0.6193
  380MOL0     O52361   7.943   5.200   7.237  0.5346  0.2314 -0.3696
  380MOL0     C52362   7.820   5.194   7.299  0.0219  0.7135  0.4658
  380MOL0     C52363   7.852   5.132   7.433 -0.4714 -1.0657  0.1429
  380MOL0     C52364   7.844   4.976   7.426 -0.3148 -0.4768 -0.3358
  380MOL0     C52365   7.702   4.918   7.440  0.4487  0.1397  0.8931
  380MOL0     C52366   7.718   4.767   7.436  0.3379  0.2610  0.1435
  380MOL0     C52367   7.744   4.649   7.454  0.0541 -0.3188  0.1227
  380MOL0     C52368   8.093   5.255   7.078 -0.5329 -0.4821  0.4865
  380MOL0     C52369   8.134   5.324   6.964  0.7856 -1.0379 -0.3498
  380MOL0     C52370   8.271   5.302   6.917  0.0117  0.1496  0.3252
  380MOL0     H52371   7.982   5.620   6.546 -0.3747  0.3233 -2.1390
  380MOL0     H52372   8.016   5.779   6.369 -0.5383 -1.6254 -0.6819
  380MOL0     H52373   8.098   5.879   6.200  0.7864 -2.9079  0.4784
  380MOL0     H52374   8.250   5.822   6.139  0.0611 -0.0035 -0.2304
  380MOL0     H52375   8.190   6.015   6.017  1.4233  0.3755 -0.7725
  380MOL0     H52376   8.207   6.119   6.163  0.1391 -0.0209  0.8231
  380MOL0     H52377   8.426   6.052   6.174 -1.7783  0.9552  0.6077
  380MOL0     H52378   8.416   5.948   6.025  0.3031  0.0149 -0.0307
  380MOL0     H52379   8.497   6.150   5.917 -1.6196  1.7499 -2.2268
  380MOL0     H52380   8.315   6.187   5.932 -1.1057  1.4711 -0.3791
  380MOL0     H52381   8.536   6.264   6.125 -0.2689  0.1877  0.9100
  380MOL0     H52382   8.361   6.284   6.143  0.8785  0.6989  1.7416
  380MOL0     H52383   8.348   6.427   5.937  0.7112 -0.0631 -2.1880
  380MOL0     H52384   8.458   6.508   6.051  0.3945  0.2308 -1.1239
  380MOL0     H52385   8.555   6.531   5.849 -1.0871  1.1837  2.8590
  380MOL0     H52386   8.543   6.365   5.790  2.6460  3.4873 -1.4053
  380MOL0     H52387   8.712   6.310   5.979  1.0732 -0.3060 -2.2363
  380MOL0     H52388   8.764   6.415   5.847  0.7528  1.7635 -0.1705
  380MOL0     H52389   8.787   6.663   5.908 -2.9479 -0.2033  0.8605
  380MOL0     H52390   8.790   6.871   6.251  0.9477  2.2783 -0.3406
  380MOL0     H52391   8.819   6.890   6.076  0.0575 -2.6664 -2.1660
  380MOL0     H52392   9.011   6.746   6.272  0.1939 -2.9759 -1.4816
  380MOL0     H52393   9.030   6.794   6.102  0.1002 -0.1148  1.1442
  380MOL0     H52394   9.039   7.036   6.175 -0.6336  1.4900  1.8811
  380MOL0     H52395   9.025   6.982   6.345  2.9645  0.8874  0.6841
  380MOL0     H52396   9.239   7.014   6.333  2.4854 -3.1700  1.4742
  380MOL0     H52397   9.222   6.837   6.294 -1.7853 -0.9114 -1.9200
  380MOL0     H52398   9.442   6.816   6.280  0.3863  2.2838  1.2783
  380MOL0     H52399   9.767   6.847   6.312  4.2711 -0.9124 -1.8142
  380MOL0     H52400   9.769   6.716   6.188  1.7016  0.5432  0.9294
  380MOL0     H52401   9.646   6.717   6.309  0.1179  1.0044  0.4880
  380MOL0     H52402   9.965   6.887   5.776  3.8074 -2.3556 -3.8887
  380MOL0     H52403  10.183   6.899   5.668  3.2760  0.8694  0.2433
  380MOL0     H52404  10.439   6.951   5.649  0.4825  1.0765  1.2260
  380MOL0     H52405  10.331   7.013   5.526  1.6271 -0.0405 -2.1358
  380MOL0     H52406  10.577   7.024   5.465  1.2448  1.3623 -1.1589
  380MOL0     H52407  10.470   7.139   5.421  0.7025  1.5713  0.9924
  380MOL0     H52408  10.655   7.168   5.672  1.0304  1.5733 -1.2066
  380MOL0     H52409  10.563   7.298   5.604  0.6056  1.3044 -1.3729
  380MOL0     H52410  10.749   7.336   5.483  1.9487 -0.0985  0.4033
  380MOL0     H52411  10.693   7.227   5.372 -0.1632  2.0350  0.2694
  380MOL0     H52412  10.807   7.045   5.531 -0.6436  0.1865 -1.2121
  380MOL0     H52413  10.906   7.142   5.415 -2.0634  1.9681 -0.0848
  380MOL0     H52414  10.869   7.185   5.718 -0.5425  0.1724  0.3895
  380MOL0     H52415  10.934   7.315   5.620 -1.5425  0.2599 -0.9694
  380MOL0     H52416  11.063   7.047   5.668 -2.7413 -0.0796  0.5510
  380MOL0     H52417  11.103   7.208   5.733 -0.2317 -0.4733  0.7352
  380MOL0     H52418  11.116   7.133   5.438 -2.0284 -0.5635  0.7874
  380MOL0     H52419  11.262   7.126   5.548  0.4189  1.0085 -2.8940
  380MOL0     H52420  10.254   7.271   5.864 -0.5968  0.7646 -1.6599
  380MOL0     H52421  10.045   7.246   5.986 -0.3089 -1.7057  0.4294
  380MOL0     H52422   9.618   7.083   5.909  0.3580 -0.6369  0.9606
  380MOL0     H52423   9.393   7.093   5.950 -0.7659 -0.5942 -0.5171
  380MOL0     H52424   8.421   5.824   6.518  0.6972 -1.1152 -0.3923
  380MOL0     H52425   8.359   5.694   6.715  0.5669  0.2911 -0.7266
  380MOL0     H52426   7.826   5.467   6.887 -1.9877 -1.3951  0.9391
  380MOL0     H52427   7.763   5.335   7.068  0.7653 -3.9608  3.4591
  380MOL0     H52428   7.781   5.296   7.300  1.2863  1.3067  4.0949
  380MOL0     H52429   7.763   5.122   7.241  1.3556  2.1480 -2.9048
  380MOL0     H52430   7.787   5.176   7.509 -0.5528  1.0916 -1.1065
  380MOL0     H52431   7.951   5.169   7.462 -1.3881 -0.7396  3.2566
  380MOL0     H52432   7.891   4.949   7.332 -0.2370 -1.7050  0.0344
  380MOL0     H52433   7.899   4.943   7.515 -1.0076 -0.3293  0.1605
  380MOL0     H52434   7.644   4.954   7.355 -0.8785 -3.4523  0.1301
  380MOL0     H52435   7.652   4.953   7.531  1.3192 -0.5363  1.6455
  380MOL0     H52436   7.746   4.545   7.479 -2.1852 -0.7101 -1.0484
  380MOL0     H52437   8.158   5.181   7.124  0.3226  0.3705  0.6728
  380MOL0     H52438   8.307   5.365   6.834 -2.0762 -0.1155 -0.8517
  380MOL0     H52439   8.335   5.307   7.005 -1.6005  0.4961  1.5140
  380MOL0     H52440   8.261   5.200   6.878 -0.3087 -0.8199  2.8238
  381MOL0     O52441   4.516   0.656   6.210 -0.3206  0.0652  1.3232
  381MOL0     C52442   4.498   0.537   6.212 -0.8921 -0.2538 -0.0524
  381MOL0     O52443   4.384   0.459   6.197  0.4538  0.3115 -0.1053
  381MOL0     C52444   4.267   0.526   6.157  0.3373  0.1245  0.2350
  381MOL0     C52445   4.157   0.529   6.250 -0.0566  0.0564 -0.2644
  381MOL0     C52446   4.032   0.582   6.211 -0.4271 -0.4827 -0.0778
  381MOL0     C52447   4.020   0.635   6.086 -0.2547 -1.3146 -0.1559
  381MOL0     O52448   3.901   0.681   6.038  0.3587 -0.4976 -0.4807
  381MOL0     C52449   3.912   0.766   5.917 -0.2798 -0.2900  0.2552
  381MOL0     C52450   3.773   0.835   5.894  0.4692 -0.3708  0.1085
  381MOL0     C52451   3.663   0.736   5.853 -0.1226  0.1722 -0.7184
  381MOL0     C52452   3.610   0.657   5.976  0.7368 -0.0719 -0.1102
  381MOL0     C52453   3.472   0.601   5.959 -0.7211 -0.4851  0.2721
  381MOL0     C52454   3.433   0.502   6.056  0.5581  0.0815 -0.0631
  381MOL0     C52455   3.422   0.577   6.197  0.4977  1.2467 -0.2696
  381MOL0     C52456   3.349   0.505   6.312 -0.4885  0.2270 -0.6234
  381MOL0     N52457   3.434   0.393   6.359 -0.8915  0.2498 -0.4047
  381MOL0     C52458   3.462   0.288   6.282 -0.4583  0.5484 -0.2814
  381MOL0     C52459   3.567   0.222   6.346  0.2650  0.7120 -0.6943
  381MOL0     C52460   3.632   0.091   6.313  0.2705 -0.4604 -0.4282
  381MOL0     C52461   3.783   0.078   6.346 -0.1287 -0.4906  0.2506
  381MOL0     C52462   3.849  -0.043   6.277 -0.3383 -0.3673  0.5264
  381MOL0     C52463   3.992  -0.081   6.317 -0.4584 -0.3948 -0.2460
  381MOL0     O52464   4.077   0.042   6.346  0.1888  0.1387 -0.1466
  381MOL0     C52465   4.151   0.082   6.235  0.2129 -0.7357  0.5074
  381MOL0     C52466   4.282   0.037   6.208 -0.0182 -0.4791  0.4052
  381MOL0     C52467   4.345   0.085   6.092 -0.7917  0.0559 -0.1705
  381MOL0     C52468   4.475   0.016   6.058  0.7074  0.2843 -0.4249
  381MOL0     C52469   4.283   0.174   6.000  0.0257 -0.3076  0.2716
  381MOL0     C52470   4.332   0.221   5.861 -0.9977  0.0421 -0.4662
  381MOL0     O52471   4.465   0.201   5.836  0.0524  0.7278 -0.2557
  381MOL0     C52472   4.518   0.187   5.710 -1.3444 -0.2161 -0.4349
  381MOL0     C52473   4.441   0.159   5.598 -0.1729 -0.4336  1.1373
  381MOL0     C52474   4.491   0.164   5.463 -0.1145 -0.8916 -0.1622
  381MOL0     C52475   4.618   0.215   5.448  0.0131 -0.2650  0.6476
  381MOL0     O52476   4.659   0.253   5.317 -0.4118  0.0811 -0.1243
  381MOL0     C52477   4.646   0.143   5.218 -0.2164  0.0167 -0.4592
  381MOL0     C52478   4.693   0.185   5.076  0.6368 -0.1812 -0.0588
  381MOL0     C52479   4.703   0.056   4.998  0.2828 -0.6804 -0.2470
  381MOL0     C52480   4.566   0.022   4.941 -0.8659 -0.0367  0.1459
  381MOL0     C52481   4.575  -0.093   4.846  0.1805  0.2411  0.4048
  381MOL0     C52482   4.441  -0.139   4.795 -0.4020 -0.3229  0.8486
  381MOL0     C52483   4.464  -0.263   4.705  0.3193 -0.7994 -0.6361
  381MOL0     C52484   4.360  -0.291   4.597 -0.0081  0.0749 -0.3264
  381MOL0    Cl52485   4.228  -0.402   4.657  0.3928  0.0213  0.3584
  381MOL0     C52486   4.692   0.258   5.559  0.5911  0.6819  0.4602
  381MOL0     C52487   4.644   0.242   5.687  0.2313  0.8864  0.5387
  381MOL0     O52488   4.262   0.292   5.792 -1.1177 -0.0372 -0.2772
  381MOL0     C52489   4.156   0.223   6.044 -0.3918 -0.0296 -0.4873
  381MOL0     C52490   4.089   0.179   6.152 -0.0895  0.2210 -0.3486
  381MOL0     N52491   3.612   0.304   6.451  0.5342  0.4332 -0.1269
  381MOL0     N52492   3.534   0.405   6.456 -0.4639  0.4900  0.4049
  381MOL0     C52493   4.140   0.646   6.000  0.0831 -0.6980 -0.3005
  381MOL0     C52494   4.262   0.597   6.042 -0.4985  0.1400  0.7744
  381MOL0     C52495   4.627   0.465   6.233 -0.1782 -0.5377 -0.7382
  381MOL0     C52496   4.657   0.364   6.135 -0.0961  1.0389  0.0517
  381MOL0     C52497   4.782   0.299   6.146  0.4881  0.5194  0.0834
  381MOL0     C52498   4.876   0.323   6.253  0.6162  0.0131  0.0259
  381MOL0     O52499   4.980   0.240   6.282  0.4552  0.0625  0.7189
  381MOL0     C52500   5.063   0.183   6.175 -0.0168 -0.4136 -0.2941
  381MOL0     C52501   5.161   0.289   6.144  0.0395 -0.5773  0.0715
  381MOL0     C52502   5.268   0.309   6.248  0.0066  0.0072  0.0318
  381MOL0     C52503   5.381   0.395   6.197  1.7600 -0.4944  0.1432
  381MOL0     C52504   5.468   0.312   6.108 -0.1992  0.6997 -0.1236
  381MOL0     C52505   5.537   0.247   6.039  0.1897 -0.4276 -0.8104
  381MOL0     C52506   4.838   0.409   6.354 -1.3181 -0.4627 -0.0754
  381MOL0     C52507   4.720   0.484   6.344 -0.8116 -0.7069  0.1521
  381MOL0     C52508   4.706   0.593   6.459  0.0222  0.4823  0.1964
  381MOL0     H52509   4.164   0.475   6.344  0.1784  1.1049  0.3333
  381MOL0     H52510   3.951   0.579   6.282 -0.4559  1.1898 -0.0065
  381MOL0     H52511   3.917   0.701   5.828 -1.1870  0.1824 -0.1566
  381MOL0     H52512   3.980   0.851   5.925  0.6043 -0.8751 -0.7296
  381MOL0     H52513   3.741   0.889   5.984  1.7652  1.5005 -0.5031
  381MOL0     H52514   3.792   0.907   5.815  1.1302 -1.3034 -0.6152
  381MOL0     H52515   3.578   0.795   5.817  0.8658  3.8181  2.2170
  381MOL0     H52516   3.695   0.673   5.770 -0.3625  0.8865 -1.3617
  381MOL0     H52517   3.680   0.580   6.013  1.4401  0.3681 -0.5089
  381MOL0     H52518   3.606   0.715   6.069  1.3248 -0.8080  0.3944
  381MOL0     H52519   3.472   0.553   5.861  1.8590  0.2081 -0.1358
  381MOL0     H52520   3.393   0.675   5.951  0.0963  0.3209 -0.5238
  381MOL0     H52521   3.335   0.469   6.018 -0.7841  4.2219 -0.7349
  381MOL0     H52522   3.505   0.420   6.060  2.8199  2.0103  0.3435
  381MOL0     H52523   3.377   0.676   6.185 -2.5364 -0.2093 -2.0575
  381MOL0     H52524   3.527   0.595   6.220  1.1675  2.3026 -3.5263
  381MOL0     H52525   3.331   0.572   6.396  0.3416  0.2987 -0.4966
  381MOL0     H52526   3.252   0.461   6.288 -0.7981  0.7383 -0.3313
  381MOL0     H52527   3.408   0.246   6.198 -1.2500 -0.5891  0.7653
  381MOL0     H52528   3.598   0.076   6.210 -0.7006  0.8445 -0.3271
  381MOL0     H52529   3.583   0.018   6.378  2.0158 -0.2866  1.1622
  381MOL0     H52530   3.841   0.164   6.311 -0.8703  0.1174  0.4961
  381MOL0     H52531   3.792   0.061   6.454 -3.6529 -0.7258  0.6397
  381MOL0     H52532   3.777  -0.123   6.295 -1.7595  0.5906 -0.6006
  381MOL0     H52533   3.835  -0.029   6.169  0.2525 -2.8410  0.0774
  381MOL0     H52534   3.988  -0.123   6.418 -0.1994 -0.7978 -0.4027
  381MOL0     H52535   4.028  -0.156   6.247  0.4142  3.4690 -4.4106
  381MOL0     H52536   4.341  -0.033   6.265  2.9529  1.2995 -0.2432
  381MOL0     H52537   4.526  -0.038   6.139  0.0014 -1.3347 -1.0214
  381MOL0     H52538   4.553   0.092   6.045 -1.4254  2.9159  1.2001
  381MOL0     H52539   4.466  -0.038   5.963 -2.6595  0.9487 -0.5880
  381MOL0     H52540   4.339   0.128   5.618 -2.1231  3.8489 -1.0029
  381MOL0     H52541   4.425   0.152   5.377 -1.0199 -1.9524  0.6597
  381MOL0     H52542   4.690   0.051   5.259 -3.8883 -1.2244  1.0376
  381MOL0     H52543   4.541   0.113   5.214 -0.4862  0.9156 -0.3097
  381MOL0     H52544   4.623   0.264   5.046  1.4297  0.8894  0.8728
  381MOL0     H52545   4.797   0.218   5.080  0.4837  0.3093 -0.1545
  381MOL0     H52546   4.729  -0.029   5.062  0.2106 -1.1478 -0.8256
  381MOL0     H52547   4.782   0.061   4.923  0.7405 -1.3361  0.1838
  381MOL0     H52548   4.537   0.112   4.887 -1.3985 -0.6813 -0.6711
  381MOL0     H52549   4.491   0.010   5.020 -0.7536 -0.5435  0.1845
  381MOL0     H52550   4.638  -0.064   4.760  0.7514  0.3132  0.8399
  381MOL0     H52551   4.633  -0.169   4.899  1.0206  1.4775  1.3389
  381MOL0     H52552   4.401  -0.053   4.742  0.4712 -0.8492 -0.7232
  381MOL0     H52553   4.365  -0.161   4.871  0.3714 -2.2023  1.1557
  381MOL0     H52554   4.461  -0.354   4.765 -1.6043  0.9492  2.1355
  381MOL0     H52555   4.563  -0.251   4.658  0.2713 -0.4024 -0.6425
  381MOL0     H52556   4.409  -0.348   4.517  3.1836  0.3696  1.2184
  381MOL0     H52557   4.308  -0.200   4.566 -1.1859  0.8897  3.5646
  381MOL0     H52558   4.779   0.317   5.533  1.3348 -0.7764 -0.4726
  381MOL0     H52559   4.695   0.282   5.775 -0.5585 -0.6803  1.7634
  381MOL0     H52560   4.106   0.292   5.977  1.1588  1.2518 -0.3701
  381MOL0     H52561   3.990   0.216   6.176  0.0397 -0.9314  2.2910
  381MOL0     H52562   4.149   0.686   5.899  0.0087 -1.6549 -0.6993
  381MOL0     H52563   4.345   0.602   5.972 -1.8187  0.3954 -0.8285
  381MOL0     H52564   4.583   0.333   6.062 -1.5994 -1.7882  2.5624
  381MOL0     H52565   4.819   0.231   6.069  1.7837 -3.0216  3.4768
  381MOL0     H52566   5.107   0.091   6.212  1.3038  0.2207 -0.2207
  381MOL0     H52567   5.018   0.161   6.078 -2.3105 -0.7021  0.7592
  381MOL0     H52568   5.104   0.382   6.143  0.0325 -0.5826 -0.4310
  381MOL0     H52569   5.215   0.267   6.051 -2.1951 -0.3808 -1.3525
  381MOL0     H52570   5.230   0.348   6.343 -1.0503 -1.1905  0.1255
  381MOL0     H52571   5.309   0.209   6.265  2.4978  0.6721 -1.5371
  381MOL0     H52572   5.448   0.430   6.276 -0.1995  2.2909  0.7229
  381MOL0     H52573   5.345   0.482   6.143 -1.5901 -1.4369  0.6519
  381MOL0     H52574   5.599   0.185   5.979 -0.8994 -1.2639 -1.1088
  381MOL0     H52575   4.902   0.411   6.442  2.3491 -0.9135 -2.5063
  381MOL0     H52576   4.625   0.578   6.530 -1.1271  2.3082 -0.6448
  381MOL0     H52577   4.805   0.603   6.505  0.0892  1.1308 -0.0796
  381MOL0     H52578   4.691   0.691   6.412 -1.1383  1.1470  1.8593
  382MOL0     O52579   1.190   6.029   0.917 -0.1568 -0.4325  0.5056
  382MOL0     C52580   1.075   6.065   0.942 -0.8043 -0.8729 -0.2548
  382MOL0     O52581   0.971   5.994   0.927  0.3844  0.1974  0.0511
  382MOL0     C52582   0.954   5.862   0.887  0.3244 -0.2846 -0.6696
  382MOL0     C52583   1.038   5.784   0.813  0.2848 -0.0846  0.7981
  382MOL0     C52584   0.996   5.659   0.752 -0.7380 -1.3414 -0.4538
  382MOL0     C52585   0.876   5.608   0.771  1.1407  0.1834 -0.5597
  382MOL0     O52586   0.854   5.481   0.721 -0.4061  0.5876 -0.6684
  382MOL0     C52587   0.738   5.415   0.753  0.7551 -0.8383 -0.6007
  382MOL0     C52588   0.718   5.299   0.653  0.3518  0.3340 -0.2612
  382MOL0     C52589   0.573   5.228   0.675 -1.1633 -0.6514  1.2552
  382MOL0     C52590   0.561   5.142   0.552  0.3591 -0.3614 -0.2559
  382MOL0     C52591   0.458   5.025   0.571 -0.8955 -0.3047  0.3748
  382MOL0     C52592   0.468   4.948   0.447 -0.4828  0.2220 -0.7597
  382MOL0     C52593   0.364   4.841   0.451  0.1711  0.5294 -0.2151
  382MOL0     C52594   0.371   4.755   0.324 -0.1921  0.4217 -0.5202
  382MOL0     N52595   0.236   4.698   0.305  0.4326 -0.2552 -0.2904
  382MOL0     C52596   0.128   4.756   0.238  0.1801  0.5467  0.4060
  382MOL0     C52597   0.021   4.670   0.250 -0.4639  0.5779  1.1215
  382MOL0     C52598  -0.106   4.695   0.169 -0.4535 -0.3285 -0.1839
  382MOL0     C52599  -0.210   4.796   0.247  0.1359 -0.0341  0.7530
  382MOL0     C52600  -0.289   4.874   0.136  0.0185 -0.3574 -1.3298
  382MOL0     C52601  -0.398   4.781   0.079  0.0644 -0.3120  0.2561
  382MOL0     O52602  -0.476   4.868  -0.007  0.3157 -0.5911  0.0477
  382MOL0     C52603  -0.424   4.901  -0.134  0.0375  0.6477 -0.1430
  382MOL0     C52604  -0.485   5.006  -0.205  0.1333  0.0020  0.0999
  382MOL0     C52605  -0.427   5.052  -0.322  0.8547  0.6574 -0.0132
  382MOL0     C52606  -0.503   5.167  -0.382 -0.3200 -0.5730 -0.0823
  382MOL0     C52607  -0.327   4.983  -0.387 -0.3241  0.8210  0.6703
  382MOL0     C52608  -0.275   5.019  -0.519 -0.2426 -0.3186  0.1566
  382MOL0     O52609  -0.146   4.988  -0.551  0.3350 -0.5642  0.0818
  382MOL0     C52610  -0.092   4.992  -0.680 -0.1909 -0.5832 -0.1036
  382MOL0     C52611  -0.091   5.113  -0.754 -0.4979 -0.2551 -0.7137
  382MOL0     C52612  -0.044   5.114  -0.882  0.6515 -0.2543  0.1568
  382MOL0     C52613   0.017   5.002  -0.934 -0.6204 -0.3135  0.4136
  382MOL0     O52614   0.063   5.028  -1.067  0.0207 -0.7451  0.6069
  382MOL0     C52615   0.062   4.930  -1.166 -0.4193  0.8190  0.4885
  382MOL0     C52616   0.202   4.854  -1.148 -0.0693  0.8666 -0.2965
  382MOL0     C52617   0.315   4.950  -1.184  0.3039  0.3587  0.0124
  382MOL0     C52618   0.437   4.853  -1.196 -0.2821  0.4769  0.1073
  382MOL0     C52619   0.548   4.936  -1.240  0.3461  0.2264  0.5131
  382MOL0     C52620   0.682   4.852  -1.219  0.1146  0.0816 -0.8059
  382MOL0     C52621   0.800   4.931  -1.269  0.1382  0.3389  0.1284
  382MOL0     C52622   0.926   4.845  -1.279 -0.1932  0.3489  0.2266
  382MOL0    Cl52623   0.971   4.790  -1.115 -0.1033 -0.1570 -0.3818
  382MOL0     C52624   0.021   4.882  -0.854 -0.3521 -0.8057 -1.1401
  382MOL0     C52625  -0.036   4.876  -0.726 -0.7067  1.2909  0.9168
  382MOL0     O52626  -0.354   5.056  -0.602  0.5774 -1.0553 -0.5287
  382MOL0     C52627  -0.268   4.871  -0.323  0.6991  0.1957 -0.3327
  382MOL0     C52628  -0.316   4.833  -0.197  0.3216 -0.2266  0.0660
  382MOL0     N52629   0.059   4.561   0.322  0.5310 -0.5196  0.6915
  382MOL0     N52630   0.183   4.578   0.348  0.6644 -0.4841  0.5199
  382MOL0     C52631   0.789   5.685   0.858 -0.4191  0.4530 -0.6480
  382MOL0     C52632   0.823   5.813   0.898 -0.1763  0.1660 -1.0209
  382MOL0     C52633   1.055   6.186   1.024 -0.6536 -0.3055 -0.9864
  382MOL0     C52634   0.931   6.199   1.097 -0.0587 -0.3698  0.6441
  382MOL0     C52635   0.904   6.303   1.183 -0.0850  1.1497  0.2075
  382MOL0     C52636   1.001   6.407   1.210 -0.1545  0.0972 -0.0672
  382MOL0     O52637   0.988   6.513   1.294 -0.1844 -0.4292 -0.6501
  382MOL0     C52638   0.868   6.546   1.352  0.1851  0.2817  0.3625
  382MOL0     C52639   0.779   6.606   1.248 -0.1979  1.1686  0.7568
  382MOL0     C52640   0.637   6.610   1.302 -0.8596 -0.0020  0.1887
  382MOL0     C52641   0.540   6.692   1.240  0.1114 -0.7136 -0.3392
  382MOL0     C52642   0.412   6.678   1.304  0.0324 -0.1016 -0.5005
  382MOL0     C52643   0.303   6.675   1.353 -0.2820  0.3251  0.0807
  382MOL0     C52644   1.129   6.393   1.149 -0.0165 -0.8274  0.0917
  382MOL0     C52645   1.154   6.288   1.058  0.4613 -0.1998 -0.2709
  382MOL0     C52646   1.294   6.287   1.012 -0.2439 -0.3913  0.3537
  382MOL0     H52647   1.135   5.825   0.788 -0.2594 -0.0274 -1.4444
  382MOL0     H52648   1.075   5.597   0.708  1.4816  1.1553 -0.2685
  382MOL0     H52649   0.658   5.487   0.730 -0.5823 -2.1890 -0.2985
  382MOL0     H52650   0.732   5.383   0.857 -2.6890 -3.0737 -1.3129
  382MOL0     H52651   0.728   5.356   0.561 -0.0603 -2.7030 -2.3170
  382MOL0     H52652   0.800   5.228   0.667  0.7933  0.7107 -0.9048
  382MOL0     H52653   0.565   5.177   0.771 -0.2427  1.1499  2.3179
  382MOL0     H52654   0.499   5.308   0.663 -1.7170 -1.1378  1.3641
  382MOL0     H52655   0.532   5.212   0.474  0.7236  1.2513  1.0071
  382MOL0     H52656   0.657   5.095   0.527  0.5488 -0.2993  0.3459
  382MOL0     H52657   0.358   5.069   0.579 -1.3341 -1.2819  0.4030
  382MOL0     H52658   0.486   4.970   0.660  0.6642  0.0114  0.1075
  382MOL0     H52659   0.451   5.018   0.365 -0.5762  1.5053  0.3212
  382MOL0     H52660   0.569   4.906   0.439  0.4288  1.3077  3.1881
  382MOL0     H52661   0.266   4.888   0.464 -0.6700 -0.6015 -2.0410
  382MOL0     H52662   0.375   4.783   0.543 -1.2472  3.5077  1.9759
  382MOL0     H52663   0.388   4.814   0.234 -1.4999 -0.3604 -1.3075
  382MOL0     H52664   0.445   4.675   0.317  0.8151  1.2458  0.3415
  382MOL0     H52665   0.137   4.849   0.183  3.3897  1.4282  2.1535
  382MOL0     H52666  -0.156   4.602   0.141  0.0196  0.0384 -2.4646
  382MOL0     H52667  -0.062   4.741   0.080 -1.0965 -0.2531 -0.4665
  382MOL0     H52668  -0.280   4.752   0.318 -3.2435  1.9433 -1.1188
  382MOL0     H52669  -0.159   4.876   0.301  1.6782 -0.9536  0.7139
  382MOL0     H52670  -0.339   4.951   0.196  0.4461 -2.8208  2.4978
  382MOL0     H52671  -0.216   4.915   0.065  0.6257  3.2271  1.0948
  382MOL0     H52672  -0.356   4.693   0.030  0.9597  0.9570 -1.3565
  382MOL0     H52673  -0.459   4.744   0.162 -0.0880 -0.6233  0.0068
  382MOL0     H52674  -0.558   5.065  -0.151 -0.1148 -0.9012  0.7943
  382MOL0     H52675  -0.581   5.202  -0.315  0.8275 -1.4626  1.7974
  382MOL0     H52676  -0.556   5.124  -0.467 -0.7461 -1.3370  0.5566
  382MOL0     H52677  -0.437   5.246  -0.419 -1.1678  0.1642 -0.0355
  382MOL0     H52678  -0.132   5.205  -0.715 -0.8385  0.6878 -3.0803
  382MOL0     H52679  -0.049   5.206  -0.939 -3.8499 -0.3356  0.0101
  382MOL0     H52680  -0.022   4.861  -1.154  0.4939 -0.4454 -0.1255
  382MOL0     H52681   0.056   4.962  -1.270 -3.6319 -4.7216 -1.4380
  382MOL0     H52682   0.217   4.810  -1.049  1.3568 -2.0697 -1.7057
  382MOL0     H52683   0.206   4.769  -1.217 -0.3792 -0.4385  1.2336
  382MOL0     H52684   0.328   5.033  -1.113 -0.0291  2.4700 -2.2780
  382MOL0     H52685   0.298   4.999  -1.280 -1.6057 -1.2141 -0.5007
  382MOL0     H52686   0.419   4.779  -1.275  1.0878 -0.0788  0.2903
  382MOL0     H52687   0.473   4.791  -1.114  2.4581 -0.2823 -1.5428
  382MOL0     H52688   0.527   4.958  -1.345  1.0933  0.5123  0.4138
  382MOL0     H52689   0.553   5.026  -1.179  0.9163  0.7841 -0.3327
  382MOL0     H52690   0.675   4.756  -1.270  1.9659 -0.2454 -0.5005
  382MOL0     H52691   0.715   4.839  -1.116 -1.0670  0.4666 -0.3641
  382MOL0     H52692   0.822   5.024  -1.216 -0.7397 -0.7166  2.4962
  382MOL0     H52693   0.780   4.957  -1.373  1.8622 -1.4953 -0.7195
  382MOL0     H52694   1.013   4.893  -1.324  0.5084 -1.6007 -0.6065
  382MOL0     H52695   0.905   4.760  -1.345  2.1438 -1.1869  1.3200
  382MOL0     H52696   0.066   4.798  -0.904  0.9511 -0.2005 -1.0147
  382MOL0     H52697  -0.023   4.788  -0.664 -1.0692 -1.9531 -3.2001
  382MOL0     H52698  -0.195   4.809  -0.374  0.5348 -0.1867 -0.1100
  382MOL0     H52699  -0.261   4.760  -0.139  3.0389 -3.0819 -5.3925
  382MOL0     H52700   0.683   5.663   0.854 -0.6062  1.4650 -2.3988
  382MOL0     H52701   0.751   5.872   0.954 -0.4615 -3.1122  2.4633
  382MOL0     H52702   0.853   6.124   1.080  1.5524 -1.9147 -0.2522
  382MOL0     H52703   0.807   6.305   1.231  0.4320 -1.5582  1.5463
  382MOL0     H52704   0.821   6.459   1.397  1.1982  0.6451  2.1967
  382MOL0     H52705   0.891   6.610   1.438 -0.8707  1.3185 -0.0854
  382MOL0     H52706   0.786   6.547   1.157  0.2096  0.7395  1.0581
  382MOL0     H52707   0.805   6.706   1.212 -1.1791  1.6641  1.3604
  382MOL0     H52708   0.609   6.504   1.300 -0.8971 -0.0577  1.7988
  382MOL0     H52709   0.644   6.642   1.407  1.3324  3.4258 -0.8356
  382MOL0     H52710   0.536   6.660   1.136  1.4474 -1.0684 -0.2951
  382MOL0     H52711   0.577   6.795   1.246  1.3211 -0.8343 -3.7369
  382MOL0     H52712   0.208   6.651   1.395  0.3437 -2.8369 -0.0799
  382MOL0     H52713   1.201   6.465   1.186  0.2281 -0.6481 -0.7128
  382MOL0     H52714   1.302   6.248   0.910 -1.4001 -1.8661  0.7930
  382MOL0     H52715   1.340   6.386   1.004  1.0817 -1.1395 -3.5762
  382MOL0     H52716   1.349   6.219   1.077  0.8741  0.4120  0.2798
  383MOL0     O52717   0.969   6.482   5.678 -0.4697 -0.0704 -0.0474
  383MOL0     C52718   0.943   6.574   5.600 -0.7918 -0.2835 -0.3560
  383MOL0     O52719   1.041   6.652   5.538 -0.4228  0.5003 -0.0464
  383MOL0     C52720   1.180   6.652   5.572  0.5255 -0.1646 -0.1800
  383MOL0     C52721   1.246   6.547   5.636 -1.0249 -0.4957 -0.4210
  383MOL0     C52722   1.386   6.565   5.645 -0.3321  0.2334 -0.0508
  383MOL0     C52723   1.451   6.688   5.608 -1.1404  0.5501  0.4555
  383MOL0     O52724   1.588   6.710   5.636 -0.2513 -0.7414  0.6612
  383MOL0     C52725   1.667   6.781   5.530  0.0258  0.0010 -0.0751
  383MOL0     C52726   1.816   6.743   5.522  0.3542  0.6286 -0.1073
  383MOL0     C52727   1.880   6.831   5.630 -0.4108 -0.3544 -0.1242
  383MOL0     C52728   2.015   6.776   5.680  0.0427 -0.8589 -0.3808
  383MOL0     C52729   2.076   6.868   5.781 -0.3025 -0.3504  0.5568
  383MOL0     C52730   2.084   7.018   5.740 -0.2769 -0.4237  1.3395
  383MOL0     C52731   2.181   7.087   5.834  0.8366 -0.0659 -0.4402
  383MOL0     C52732   2.211   7.233   5.799 -0.5684 -0.6689 -0.1442
  383MOL0     N52733   2.292   7.238   5.672 -0.6462 -0.7163 -0.1237
  383MOL0     C52734   2.435   7.244   5.664  0.1257 -0.2554 -0.4458
  383MOL0     C52735   2.460   7.250   5.534 -0.3623  0.1092  0.4241
  383MOL0     C52736   2.585   7.282   5.468 -0.5969 -0.0094 -0.2684
  383MOL0     C52737   2.684   7.168   5.498  0.0191 -0.5345  0.8738
  383MOL0     C52738   2.625   7.029   5.452  0.2422  0.6418  0.7854
  383MOL0     C52739   2.703   6.913   5.519  0.5330 -0.5661 -0.1436
  383MOL0     O52740   2.841   6.926   5.466 -0.3402 -0.7771  0.3607
  383MOL0     C52741   2.945   6.866   5.532 -0.0235  0.8692  0.3476
  383MOL0     C52742   2.936   6.770   5.635  0.0719 -0.3247 -0.2588
  383MOL0     C52743   3.043   6.705   5.688  0.5689  0.8435  0.8995
  383MOL0     C52744   3.018   6.599   5.791 -0.0470  0.5114 -0.0577
  383MOL0     C52745   3.175   6.732   5.631 -0.0027  0.3022 -0.1899
  383MOL0     C52746   3.299   6.666   5.674  0.4464  0.1540 -0.3833
  383MOL0     O52747   3.419   6.718   5.641  0.1064  0.8979  0.4499
  383MOL0     C52748   3.533   6.644   5.646  0.2724  0.2081  0.0339
  383MOL0     C52749   3.623   6.664   5.747  0.2186  0.4026 -0.3638
  383MOL0     C52750   3.745   6.599   5.745  0.0461  0.2487 -0.0001
  383MOL0     C52751   3.767   6.498   5.650 -0.0011  0.9923  0.3663
  383MOL0     O52752   3.881   6.429   5.664 -1.0653  0.6725 -0.0318
  383MOL0     C52753   3.953   6.416   5.544  0.7244  0.0563 -1.1856
  383MOL0     C52754   4.105   6.384   5.577 -0.0209  0.3024 -0.0218
  383MOL0     C52755   4.207   6.424   5.468 -0.1753  0.1019  0.3514
  383MOL0     C52756   4.360   6.410   5.522 -0.1975 -0.3339 -0.0746
  383MOL0     C52757   4.418   6.277   5.476  0.0318 -0.1028 -0.3369
  383MOL0     C52758   4.556   6.262   5.528 -0.0210  0.9619  0.8737
  383MOL0     C52759   4.625   6.112   5.506 -0.4724  0.0051 -0.1382
  383MOL0     C52760   4.763   6.104   5.561  0.7342 -0.5253 -0.9470
  383MOL0    Cl52761   4.846   5.963   5.492 -0.0399  0.4271 -0.4005
  383MOL0     C52762   3.679   6.469   5.547  1.0508 -0.5232  0.3968
  383MOL0     C52763   3.559   6.550   5.551 -0.4594  1.2060  0.9493
  383MOL0     O52764   3.290   6.554   5.723  0.8958  0.4738 -0.2515
  383MOL0     C52765   3.178   6.829   5.530 -0.7586  0.5778 -1.0109
  383MOL0     C52766   3.070   6.894   5.484  1.1584 -0.0468  0.0955
  383MOL0     N52767   2.344   7.233   5.461 -0.2598  0.3679 -0.0061
  383MOL0     N52768   2.245   7.218   5.543 -0.5166  0.2896 -0.1760
  383MOL0     C52769   1.384   6.779   5.541 -0.0908 -0.6035  0.0683
  383MOL0     C52770   1.243   6.769   5.531  0.6323  0.2600  1.0718
  383MOL0     C52771   0.802   6.595   5.571 -0.4091  0.3210 -0.2851
  383MOL0     C52772   0.778   6.735   5.549  0.6309  0.7481 -0.0486
  383MOL0     C52773   0.646   6.774   5.504 -1.6609  0.6080  0.5956
  383MOL0     C52774   0.549   6.681   5.477  0.5920  0.7167 -0.6471
  383MOL0     O52775   0.428   6.721   5.425  0.8269 -0.1512 -0.0002
  383MOL0     C52776   0.338   6.786   5.519 -0.6233  0.2827 -0.0318
  383MOL0     C52777   0.295   6.688   5.632 -0.2079 -0.2222  0.1450
  383MOL0     C52778   0.203   6.577   5.577 -0.5409  0.1539  0.4082
  383MOL0     C52779   0.141   6.480   5.682 -0.7806 -0.9174 -0.2057
  383MOL0     C52780   0.231   6.379   5.723 -0.1357 -0.2150  0.1655
  383MOL0     C52781   0.299   6.282   5.747 -1.0468 -0.4290  0.1267
  383MOL0     C52782   0.570   6.543   5.519 -0.0884 -0.2437  0.3796
  383MOL0     C52783   0.699   6.500   5.552 -0.2727 -1.1323 -0.9287
  383MOL0     C52784   0.724   6.347   5.549 -0.2025 -0.1778  0.2789
  383MOL0     H52785   1.205   6.459   5.683 -1.4526 -0.8522 -1.4240
  383MOL0     H52786   1.449   6.486   5.686 -0.6364  0.1505  0.2646
  383MOL0     H52787   1.667   6.888   5.550  0.6984 -0.6546  4.4228
  383MOL0     H52788   1.624   6.758   5.432  0.1246 -0.3006 -0.0488
  383MOL0     H52789   1.833   6.635   5.522 -1.5101  0.1798 -3.6783
  383MOL0     H52790   1.859   6.775   5.427 -0.7561  2.6488  0.0067
  383MOL0     H52791   1.905   6.926   5.583 -0.6389  0.4817  1.3983
  383MOL0     H52792   1.810   6.847   5.712 -0.3191  3.1628 -0.6051
  383MOL0     H52793   1.999   6.677   5.725 -0.7839 -1.4807 -1.9472
  383MOL0     H52794   2.078   6.762   5.593  3.8779  1.3764  1.7854
  383MOL0     H52795   2.178   6.829   5.795 -1.3586 -3.5319  0.1222
  383MOL0     H52796   2.024   6.860   5.877 -1.9043  2.6384  0.0319
  383MOL0     H52797   2.115   7.019   5.635 -0.4501  2.3002  1.2483
  383MOL0     H52798   1.987   7.067   5.737  0.9349  2.1336 -2.1084
  383MOL0     H52799   2.270   7.022   5.836 -0.8592 -2.5827  2.4860
  383MOL0     H52800   2.135   7.082   5.933 -1.2168  0.5539 -1.3131
  383MOL0     H52801   2.119   7.291   5.788  1.6212  3.4436  1.0481
  383MOL0     H52802   2.277   7.269   5.879 -0.6977 -1.0908  0.1530
  383MOL0     H52803   2.511   7.257   5.740  2.0111 -2.1548 -1.8900
  383MOL0     H52804   2.617   7.381   5.504 -4.7253  1.9261 -1.2181
  383MOL0     H52805   2.570   7.281   5.360 -2.3898 -1.2756 -0.0484
  383MOL0     H52806   2.783   7.188   5.457  0.4955 -2.2149  1.1480
  383MOL0     H52807   2.695   7.158   5.606  0.8658 -4.4198  0.5651
  383MOL0     H52808   2.521   7.025   5.488  0.3901  2.2076  1.4305
  383MOL0     H52809   2.628   7.014   5.344  1.5757 -3.3580  1.2020
  383MOL0     H52810   2.695   6.931   5.627  1.3941 -3.4809  0.5149
  383MOL0     H52811   2.663   6.812   5.508  1.9121 -1.1434 -0.1652
  383MOL0     H52812   2.838   6.743   5.674  0.5608 -0.9760  0.5370
  383MOL0     H52813   3.062   6.614   5.890  2.2614  1.4038 -1.1619
  383MOL0     H52814   3.053   6.504   5.749  2.3992  1.1692  0.3351
  383MOL0     H52815   2.912   6.581   5.813 -0.1782  1.7600  0.3853
  383MOL0     H52816   3.591   6.740   5.817 -4.4391  0.5042 -2.2028
  383MOL0     H52817   3.810   6.603   5.831  0.7421 -0.6392 -0.4690
  383MOL0     H52818   3.906   6.342   5.478 -2.0532  0.1255  0.5637
  383MOL0     H52819   3.965   6.516   5.503  1.5608  2.3116  3.8534
  383MOL0     H52820   4.140   6.437   5.665  0.1330 -1.7185  1.1950
  383MOL0     H52821   4.117   6.281   5.611 -3.4028  0.2308  1.4328
  383MOL0     H52822   4.211   6.532   5.449  3.2081  0.0874  0.4852
  383MOL0     H52823   4.202   6.372   5.372 -0.9409  2.2820 -0.8803
  383MOL0     H52824   4.367   6.413   5.631  0.6760  0.5114 -0.1349
  383MOL0     H52825   4.430   6.488   5.489 -0.0989 -0.0415  0.8138
  383MOL0     H52826   4.345   6.205   5.512  0.2556 -0.6525 -0.9500
  383MOL0     H52827   4.425   6.274   5.366 -1.1289  2.3293 -0.5538
  383MOL0     H52828   4.548   6.276   5.636 -0.8665 -1.3597  1.1683
  383MOL0     H52829   4.624   6.327   5.472  1.1996 -0.4761  0.6192
  383MOL0     H52830   4.633   6.086   5.400 -1.6059 -1.0760  0.0239
  383MOL0     H52831   4.567   6.026   5.542 -0.2794 -1.1842 -2.4496
  383MOL0     H52832   4.758   6.087   5.669 -3.3209 -0.7064 -1.0418
  383MOL0     H52833   4.821   6.194   5.538 -0.7359  0.7033  0.0249
  383MOL0     H52834   3.693   6.401   5.463 -1.7089 -0.0914 -0.4961
  383MOL0     H52835   3.494   6.547   5.465  3.1848 -0.8310 -2.0134
  383MOL0     H52836   3.273   6.851   5.482 -0.8540 -0.8415 -1.9075
  383MOL0     H52837   3.087   6.962   5.401 -0.9958 -0.4466 -0.7334
  383MOL0     H52838   1.432   6.868   5.502 -1.2093 -0.4239 -0.9365
  383MOL0     H52839   1.199   6.854   5.479  0.9612 -0.9189 -1.2486
  383MOL0     H52840   0.845   6.818   5.567  2.9021 -0.7969 -1.0196
  383MOL0     H52841   0.624   6.879   5.488 -1.7658  0.2633 -1.8142
  383MOL0     H52842   0.382   6.877   5.561 -2.6618  1.3052  0.0405
  383MOL0     H52843   0.252   6.822   5.460  1.4176  1.6232 -2.3872
  383MOL0     H52844   0.230   6.735   5.706  0.4699 -0.8298  1.1424
  383MOL0     H52845   0.380   6.640   5.681 -0.3871  1.3794  2.1515
  383MOL0     H52846   0.121   6.635   5.534  1.2116  1.2208 -1.6788
  383MOL0     H52847   0.257   6.519   5.502  0.7730  1.4120  0.3512
  383MOL0     H52848   0.047   6.444   5.640 -0.0328 -3.5564  0.2033
  383MOL0     H52849   0.112   6.539   5.769  1.5343  2.1335 -1.3089
  383MOL0     H52850   0.350   6.199   5.793 -0.5610  0.0688  0.4993
  383MOL0     H52851   0.494   6.466   5.513 -0.4540  0.1032  0.4998
  383MOL0     H52852   0.680   6.302   5.639  0.6899  0.1172  0.8727
  383MOL0     H52853   0.673   6.304   5.462 -0.1409  0.2488  0.0276
  383MOL0     H52854   0.830   6.322   5.539  0.1740  1.2465  0.4438
  384MOL0     O52855   6.420   2.940   3.934  0.7263 -0.2101  0.1537
  384MOL0     C52856   6.350   2.897   4.024  0.1345 -0.1577 -0.4867
  384MOL0     O52857   6.391   2.885   4.156  0.6064 -0.5193  0.5751
  384MOL0     C52858   6.518   2.938   4.179  0.0273 -0.4966 -0.9205
  384MOL0     C52859   6.533   3.079   4.213 -0.5031  0.5601 -0.5592
  384MOL0     C52860   6.659   3.122   4.261  0.0893  0.2656  0.4058
  384MOL0     C52861   6.770   3.033   4.274  0.8289  0.7383 -0.3685
  384MOL0     O52862   6.896   3.076   4.319  0.5186  0.0041  0.0396
  384MOL0     C52863   6.923   3.005   4.438 -0.2591 -0.2061  0.2889
  384MOL0     C52864   7.057   3.056   4.489 -0.7522  0.4357 -0.5541
  384MOL0     C52865   7.061   3.061   4.642 -0.4358  0.3128  0.6078
  384MOL0     C52866   7.205   3.081   4.692  0.9969  0.1189  0.1960
  384MOL0     C52867   7.227   3.053   4.842  0.2223 -0.2728  0.7267
  384MOL0     C52868   7.370   3.065   4.885 -0.0772  0.4428  0.6566
  384MOL0     C52869   7.466   2.970   4.813 -0.5110  0.7746  0.3554
  384MOL0     C52870   7.583   2.913   4.901  0.5975 -0.0873 -0.7238
  384MOL0     N52871   7.648   3.024   4.958  0.2479 -0.2901  0.4397
  384MOL0     C52872   7.637   3.063   5.085  0.1543  1.4269 -0.8997
  384MOL0     C52873   7.722   3.165   5.098  0.6117  0.2166  0.2852
  384MOL0     C52874   7.742   3.242   5.231 -0.1068 -0.3345 -0.1904
  384MOL0     C52875   7.859   3.169   5.308 -0.5815  0.2800 -1.2129
  384MOL0     C52876   7.893   3.217   5.449 -0.6019  0.1178 -0.6601
  384MOL0     C52877   7.975   3.347   5.448 -0.5673  0.3141  0.0386
  384MOL0     O52878   8.077   3.346   5.344 -0.5303  0.3776 -0.7407
  384MOL0     C52879   8.185   3.429   5.359 -0.3800 -0.4485 -0.0969
  384MOL0     C52880   8.232   3.498   5.473 -0.1725 -0.0086  0.0438
  384MOL0     C52881   8.341   3.597   5.455  0.9380 -0.6018 -0.0923
  384MOL0     C52882   8.383   3.678   5.576  0.0836 -0.8501  0.0831
  384MOL0     C52883   8.407   3.612   5.327  0.4457 -0.5985 -0.4695
  384MOL0     C52884   8.505   3.714   5.298  0.3287 -0.1654  0.1663
  384MOL0     O52885   8.588   3.698   5.180 -0.0595 -0.0639 -0.2994
  384MOL0     C52886   8.695   3.781   5.156 -0.7469 -0.5572 -0.1679
  384MOL0     C52887   8.772   3.842   5.257  0.8324  0.4179  0.6491
  384MOL0     C52888   8.891   3.893   5.240  0.3142 -0.4436  0.1671
  384MOL0     C52889   8.939   3.906   5.114 -0.2635  0.6025  0.1299
  384MOL0     O52890   9.064   3.957   5.092 -0.5035  0.0400 -0.2166
  384MOL0     C52891   9.126   4.061   5.173  0.4627 -0.4312  0.1669
  384MOL0     C52892   9.079   4.183   5.107  0.7339 -0.9790 -0.3471
  384MOL0     C52893   9.134   4.216   4.963  0.2513 -0.5467 -0.7523
  384MOL0     C52894   9.280   4.240   4.946 -0.1558  0.0665  0.0975
  384MOL0     C52895   9.320   4.320   4.812 -0.5025 -0.0833 -1.3248
  384MOL0     C52896   9.468   4.355   4.801 -0.3982  0.2049  0.0868
  384MOL0     C52897   9.559   4.237   4.769  0.7038 -0.0010  0.3837
  384MOL0     C52898   9.698   4.260   4.844 -0.0314 -0.0363  0.4659
  384MOL0    Cl52899   9.766   4.409   4.795  0.7237  0.2175  0.1637
  384MOL0     C52900   8.875   3.854   5.003 -0.1560 -0.7110 -0.2163
  384MOL0     C52901   8.749   3.799   5.027 -0.4561 -0.0866 -0.1554
  384MOL0     O52902   8.506   3.821   5.361  0.7725 -1.0133  0.0129
  384MOL0     C52903   8.355   3.540   5.220 -0.6642 -1.5305  0.6140
  384MOL0     C52904   8.248   3.446   5.237  0.5682 -0.0796  0.2598
  384MOL0     N52905   7.796   3.183   4.980 -0.5895  0.2144  0.0031
  384MOL0     N52906   7.751   3.102   4.896 -0.0297  0.3489  0.7405
  384MOL0     C52907   6.749   2.900   4.227  0.1316 -0.5328 -0.1574
  384MOL0     C52908   6.622   2.847   4.189 -0.4350 -0.1482 -0.5335
  384MOL0     C52909   6.220   2.824   3.987 -0.8720 -0.1703  0.2278
  384MOL0     C52910   6.188   2.791   3.850  0.3514 -0.0742  0.4254
  384MOL0     C52911   6.070   2.734   3.821 -0.6689  0.6993  0.3862
  384MOL0     C52912   5.966   2.719   3.914 -0.5924  0.2255 -0.4485
  384MOL0     O52913   5.841   2.685   3.869  0.2395  1.2051  0.6519
  384MOL0     C52914   5.789   2.567   3.941 -0.0527  0.3247 -0.2006
  384MOL0     C52915   5.664   2.499   3.883 -0.7069 -0.7410 -0.2343
  384MOL0     C52916   5.683   2.396   3.763 -0.3893 -0.3203  0.0339
  384MOL0     C52917   5.564   2.329   3.709 -0.0073 -0.6990  0.2258
  384MOL0     C52918   5.471   2.428   3.656 -0.5096  0.1760 -0.4711
  384MOL0     C52919   5.404   2.527   3.632 -0.4631 -0.1342  0.1994
  384MOL0     C52920   5.993   2.737   4.049 -0.5304 -0.0969 -0.6590
  384MOL0     C52921   6.121   2.794   4.086  0.2079 -0.5653  1.1594
  384MOL0     C52922   6.134   2.815   4.232 -0.2247  0.9380 -0.5770
  384MOL0     H52923   6.447   3.145   4.214 -0.6194  0.4175  0.7410
  384MOL0     H52924   6.667   3.225   4.294 -0.5531  0.3492  0.3114
  384MOL0     H52925   6.921   2.897   4.449  0.5402 -0.3627 -0.9675
  384MOL0     H52926   6.861   3.039   4.522  0.0722  2.5249 -0.4651
  384MOL0     H52927   7.139   2.994   4.453  1.2110  2.1711  0.6496
  384MOL0     H52928   7.074   3.157   4.450 -0.4976 -0.6310 -3.4321
  384MOL0     H52929   6.999   3.146   4.672 -1.0118  0.8366 -1.8160
  384MOL0     H52930   7.029   2.963   4.677 -0.8481  0.0778 -0.3750
  384MOL0     H52931   7.261   3.005   4.636 -0.6205 -0.7129 -0.3452
  384MOL0     H52932   7.238   3.180   4.661  0.3161  0.4776  0.5908
  384MOL0     H52933   7.188   2.954   4.867 -1.4645 -0.0049 -0.6126
  384MOL0     H52934   7.177   3.130   4.901  1.3554 -1.1981  3.0436
  384MOL0     H52935   7.402   3.167   4.864  0.3488  0.3011  0.6038
  384MOL0     H52936   7.371   3.054   4.994 -1.1359 -4.0600  0.3866
  384MOL0     H52937   7.500   3.028   4.727 -0.4632  0.4303  0.1436
  384MOL0     H52938   7.405   2.893   4.767  0.7320  0.2271 -0.4246
  384MOL0     H52939   7.546   2.847   4.980  0.8167  1.4245  0.6818
  384MOL0     H52940   7.658   2.858   4.842  1.3399 -0.1748  0.2795
  384MOL0     H52941   7.567   3.026   5.160  0.3114 -1.9408 -2.2336
  384MOL0     H52942   7.654   3.242   5.295  2.2795  2.8492  3.5383
  384MOL0     H52943   7.754   3.347   5.201  1.3267 -0.5325 -0.3989
  384MOL0     H52944   7.831   3.064   5.319  0.6245  0.0431 -0.2266
  384MOL0     H52945   7.948   3.150   5.247  1.0376  1.6718  0.5860
  384MOL0     H52946   7.805   3.231   5.513 -0.3783 -0.3338 -0.2447
  384MOL0     H52947   7.952   3.138   5.496  0.5261  2.2374  1.7290
  384MOL0     H52948   7.912   3.435   5.434 -0.8950 -0.3341 -3.4626
  384MOL0     H52949   8.025   3.361   5.544 -0.8790  2.1600 -0.0281
  384MOL0     H52950   8.183   3.485   5.569 -1.2056 -1.1231 -0.6207
  384MOL0     H52951   8.336   3.638   5.667  0.3429  0.5894  0.8749
  384MOL0     H52952   8.356   3.783   5.563  0.2468 -0.8618 -0.3495
  384MOL0     H52953   8.491   3.665   5.576  0.5468  2.1822  1.4731
  384MOL0     H52954   8.736   3.842   5.360  1.9572  1.6009  1.0637
  384MOL0     H52955   8.953   3.928   5.322  0.2155 -1.7467  0.8166
  384MOL0     H52956   9.102   4.058   5.279  0.5213 -2.7100  0.1738
  384MOL0     H52957   9.236   4.062   5.168  0.4426  1.9562 -2.0427
  384MOL0     H52958   8.970   4.180   5.104  0.6320 -1.4671  2.0979
  384MOL0     H52959   9.099   4.268   5.172 -1.4308 -2.0194  1.8220
  384MOL0     H52960   9.080   4.308   4.940 -0.7697 -0.3022  2.1973
  384MOL0     H52961   9.099   4.136   4.898 -0.4090 -0.7171 -0.2014
  384MOL0     H52962   9.341   4.149   4.948 -0.4255 -0.1251 -0.1819
  384MOL0     H52963   9.313   4.285   5.040 -2.6833  2.2064  0.0506
  384MOL0     H52964   9.286   4.253   4.732  2.3637 -2.2802 -0.8209
  384MOL0     H52965   9.268   4.416   4.822 -1.3332 -0.7845  3.3870
  384MOL0     H52966   9.508   4.404   4.889  2.2783 -1.3047 -0.1804
  384MOL0     H52967   9.472   4.432   4.723 -2.1268  0.0480 -0.2142
  384MOL0     H52968   9.572   4.233   4.660 -0.4675 -0.1282  0.2338
  384MOL0     H52969   9.519   4.144   4.810 -1.8893  0.6595 -0.4535
  384MOL0     H52970   9.760   4.174   4.816 -2.3655 -2.2292  1.5562
  384MOL0     H52971   9.679   4.253   4.951 -2.7528 -1.4406 -0.0237
  384MOL0     H52972   8.905   3.862   4.899 -0.0705  0.9559 -0.0846
  384MOL0     H52973   8.690   3.753   4.948 -1.3586 -0.6113  0.7979
  384MOL0     H52974   8.394   3.554   5.119 -0.1727 -0.6699  0.9113
  384MOL0     H52975   8.207   3.386   5.156 -1.0530  0.2453  0.7982
  384MOL0     H52976   6.829   2.831   4.204  0.4914  0.4779 -2.1774
  384MOL0     H52977   6.601   2.747   4.153  1.2409 -0.8097  0.1872
  384MOL0     H52978   6.265   2.803   3.775  1.0799 -1.0917  0.9762
  384MOL0     H52979   6.058   2.705   3.718  2.3378 -0.9205  0.4027
  384MOL0     H52980   5.871   2.494   3.942  1.8834  2.3758  1.3538
  384MOL0     H52981   5.766   2.591   4.045  0.9857  1.0657 -0.1246
  384MOL0     H52982   5.613   2.592   3.855  0.0949 -0.4501 -0.7679
  384MOL0     H52983   5.601   2.456   3.962 -1.3585  2.8527  1.3995
  384MOL0     H52984   5.727   2.443   3.675 -4.2019 -0.5720 -2.2444
  384MOL0     H52985   5.752   2.317   3.792  3.0522  1.7493 -1.8079
  384MOL0     H52986   5.510   2.269   3.783 -0.2914 -1.0518 -0.2535
  384MOL0     H52987   5.600   2.266   3.627 -0.1779  3.6117 -3.5589
  384MOL0     H52988   5.352   2.616   3.600 -1.1123 -0.1456  1.1974
  384MOL0     H52989   5.920   2.714   4.126  3.1421 -3.4173  2.3012
  384MOL0     H52990   6.045   2.785   4.289  1.2665  0.0533  1.4158
  384MOL0     H52991   6.207   2.745   4.273 -0.5124 -1.0741 -3.2634
  384MOL0     H52992   6.154   2.915   4.271 -1.1229 -0.4167  3.9091
  385MOL0     O52993   5.479   0.102   8.732 -0.5662  0.7819 -0.0009
  385MOL0     C52994   5.488   0.079   8.610  0.3183 -0.5637  0.1217
  385MOL0     O52995   5.586   0.112   8.520  0.6164 -0.5851 -0.9448
  385MOL0     C52996   5.708   0.159   8.569 -0.1348 -0.3475  0.0055
  385MOL0     C52997   5.782   0.262   8.496  0.5190 -0.2950  0.4484
  385MOL0     C52998   5.917   0.291   8.530  0.1556  0.7438  0.5016
  385MOL0     C52999   5.980   0.225   8.637  0.5764  1.2205 -0.8229
  385MOL0     O53000   6.114   0.250   8.678  0.1323  0.5631  0.6055
  385MOL0     C53001   6.210   0.316   8.594  0.8001  0.7645 -0.0755
  385MOL0     C53002   6.341   0.310   8.673  0.6057  0.3046 -0.3711
  385MOL0     C53003   6.385   0.164   8.678 -0.5287 -0.9122 -0.9926
  385MOL0     C53004   6.538   0.151   8.686  1.2490  0.7290  0.0298
  385MOL0     C53005   6.598   0.177   8.826 -0.2943 -0.7803  0.5539
  385MOL0     C53006   6.749   0.215   8.808  0.6497  1.0414  0.6562
  385MOL0     C53007   6.813   0.210   8.952 -0.2108 -0.3374  0.6623
  385MOL0     C53008   6.855   0.067   9.004  0.4170 -0.0328 -0.4989
  385MOL0     N53009   6.953  -0.007   8.919  0.6909  0.7376  0.7397
  385MOL0     C53010   6.930  -0.119   8.843  0.1688  0.4041 -1.1167
  385MOL0     C53011   7.049  -0.160   8.791  0.0773 -1.0758  0.0056
  385MOL0     C53012   7.085  -0.278   8.710 -0.4656 -0.7687 -0.0440
  385MOL0     C53013   7.123  -0.233   8.569 -0.7451 -0.5106 -0.2593
  385MOL0     C53014   7.165  -0.348   8.462  0.2553  0.4182 -0.5130
  385MOL0     C53015   7.272  -0.457   8.516  0.4456  0.5134  0.3946
  385MOL0     O53016   7.388  -0.397   8.574 -0.3332 -0.0947  0.5173
  385MOL0     C53017   7.492  -0.364   8.490  0.4765 -0.8195 -0.0838
  385MOL0     C53018   7.612  -0.431   8.484 -0.5058 -0.8113  0.9447
  385MOL0     C53019   7.708  -0.401   8.381  0.4900  0.4222 -0.0851
  385MOL0     C53020   7.821  -0.504   8.377  0.3774 -0.2820 -0.8647
  385MOL0     C53021   7.693  -0.288   8.302 -0.5842 -1.2021  0.4272
  385MOL0     C53022   7.772  -0.252   8.189 -0.2315  0.4895  0.0232
  385MOL0     O53023   7.717  -0.158   8.108 -0.5713  0.1137 -0.8030
  385MOL0     C53024   7.787  -0.141   7.990  0.8026  0.2166 -0.9932
  385MOL0     C53025   7.891  -0.050   7.987  0.7630 -0.0218 -0.7964
  385MOL0     C53026   7.976  -0.024   7.874  0.6187  0.7040 -0.3053
  385MOL0     C53027   7.935  -0.097   7.758  0.1286  0.2980  0.2141
  385MOL0     O53028   7.995  -0.081   7.632  0.2437 -0.2919  0.0769
  385MOL0     C53029   8.103   0.017   7.617  0.2595 -0.3975  0.1518
  385MOL0     C53030   8.205  -0.036   7.514 -0.2696 -0.2273  0.6315
  385MOL0     C53031   8.322   0.058   7.492  0.7295  0.6641  0.6475
  385MOL0     C53032   8.454  -0.018   7.469  0.4576  0.3200 -0.1611
  385MOL0     C53033   8.570   0.077   7.454 -0.0302  0.0024  0.7837
  385MOL0     C53034   8.702   0.014   7.409 -0.1951  0.1744 -0.1392
  385MOL0     C53035   8.813   0.112   7.396  0.0133 -0.1239  0.1543
  385MOL0     C53036   8.942   0.045   7.379 -0.0366 -0.0340 -0.4868
  385MOL0    Cl53037   9.077   0.158   7.409 -0.2142  0.5843  0.1362
  385MOL0     C53038   7.833  -0.198   7.765  0.1272 -0.0823  0.2647
  385MOL0     C53039   7.766  -0.225   7.884  1.0053  0.6145  0.5631
  385MOL0     O53040   7.884  -0.308   8.176  0.1537  0.3966  0.1400
  385MOL0     C53041   7.588  -0.203   8.331  0.3885 -0.1272  0.9502
  385MOL0     C53042   7.488  -0.244   8.415  0.0341  0.7761  0.1483
  385MOL0     N53043   7.140  -0.062   8.836  0.6937  0.4473  0.4141
  385MOL0     N53044   7.081   0.021   8.915 -0.0162  0.0349 -0.0253
  385MOL0     C53045   5.912   0.124   8.702  0.2617  0.0674  0.1304
  385MOL0     C53046   5.770   0.098   8.682 -0.8224 -0.0302  0.1029
  385MOL0     C53047   5.356   0.031   8.558 -0.5874  0.0006 -0.4395
  385MOL0     C53048   5.372  -0.062   8.458  0.0133 -0.2431  0.5833
  385MOL0     C53049   5.260  -0.101   8.379 -0.3735 -0.1669  0.2031
  385MOL0     C53050   5.131  -0.057   8.412  0.1726  0.5198 -0.0260
  385MOL0     O53051   5.021  -0.082   8.338 -0.3514  0.0421  0.0813
  385MOL0     C53052   5.035  -0.147   8.208  0.3728 -0.1885 -0.0780
  385MOL0     C53053   4.904  -0.172   8.135  0.1440 -0.2303 -0.6088
  385MOL0     C53054   4.793  -0.240   8.224 -0.0146 -0.3803  0.1486
  385MOL0     C53055   4.670  -0.299   8.150  1.3589  0.4758  0.5030
  385MOL0     C53056   4.554  -0.328   8.232  0.4112  0.2608 -0.1124
  385MOL0     C53057   4.456  -0.347   8.297 -0.3290 -0.0014 -0.2781
  385MOL0     C53058   5.117   0.034   8.523  0.0317 -0.3215 -0.2901
  385MOL0     C53059   5.229   0.078   8.602  0.3935 -0.4421  1.0160
  385MOL0     C53060   5.203   0.164   8.720  0.0091  0.1828 -0.4884
  385MOL0     H53061   5.739   0.313   8.410 -0.3945 -2.4627 -0.4610
  385MOL0     H53062   5.974   0.365   8.474  1.1258 -0.7905 -0.6250
  385MOL0     H53063   6.167   0.417   8.591 -2.2589 -0.4343 -1.9265
  385MOL0     H53064   6.224   0.278   8.493  0.4294 -0.5060  0.3196
  385MOL0     H53065   6.409   0.382   8.626 -0.7634  0.9442 -1.4427
  385MOL0     H53066   6.327   0.346   8.776 -0.4278  0.4927 -0.5726
  385MOL0     H53067   6.331   0.123   8.764  0.3362  1.2440  0.6630
  385MOL0     H53068   6.354   0.114   8.585  1.5662 -1.5729 -1.3876
  385MOL0     H53069   6.581   0.057   8.651  1.6839  0.2549  1.7255
  385MOL0     H53070   6.578   0.220   8.612 -1.7872  3.6256  0.8381
  385MOL0     H53071   6.592   0.093   8.896 -1.5921 -1.1319  0.0398
  385MOL0     H53072   6.543   0.265   8.861 -2.1785 -0.6164 -2.4831
  385MOL0     H53073   6.796   0.153   8.732 -1.9975 -1.4985  0.9597
  385MOL0     H53074   6.753   0.315   8.763  3.0090 -0.1035 -1.9251
  385MOL0     H53075   6.745   0.254   9.026  1.0197 -0.4814  1.9279
  385MOL0     H53076   6.905   0.268   8.943  0.0684 -0.4275  2.4493
  385MOL0     H53077   6.907   0.087   9.099 -2.6706  0.6809  1.1474
  385MOL0     H53078   6.774  -0.006   9.006  2.3661 -2.4137  2.7264
  385MOL0     H53079   6.838  -0.177   8.853  0.1668  0.2503 -1.9642
  385MOL0     H53080   7.000  -0.346   8.703 -1.8234  0.5891  1.9069
  385MOL0     H53081   7.177  -0.325   8.747  1.0026  0.3508 -2.0982
  385MOL0     H53082   7.041  -0.170   8.531 -0.2182  0.1855 -0.2657
  385MOL0     H53083   7.212  -0.170   8.565 -1.1906  0.1385 -0.1889
  385MOL0     H53084   7.078  -0.397   8.418  0.3218  1.0965 -1.4138
  385MOL0     H53085   7.220  -0.308   8.377 -0.2669  0.4418 -0.8420
  385MOL0     H53086   7.227  -0.537   8.576 -1.7969  2.4831  1.5057
  385MOL0     H53087   7.318  -0.507   8.430  1.5540  0.7010  0.8621
  385MOL0     H53088   7.637  -0.510   8.554 -0.8469 -1.0650  0.7837
  385MOL0     H53089   7.815  -0.594   8.440  3.0548 -1.9520 -2.8107
  385MOL0     H53090   7.917  -0.458   8.401  0.6366 -0.5538 -1.3719
  385MOL0     H53091   7.821  -0.551   8.279  2.9052 -2.0325 -0.1397
  385MOL0     H53092   7.924   0.008   8.073 -0.3229 -1.7374  0.8548
  385MOL0     H53093   8.056   0.048   7.883  1.3812 -0.1625  0.0552
  385MOL0     H53094   8.061   0.111   7.580 -3.8824 -1.6102  1.1409
  385MOL0     H53095   8.160   0.036   7.708  1.5157  4.3709 -1.3379
  385MOL0     H53096   8.247  -0.132   7.547 -0.4282 -0.4195  0.2824
  385MOL0     H53097   8.158  -0.061   7.418  2.0074  2.6983 -1.4500
  385MOL0     H53098   8.327   0.124   7.579 -0.9768  1.6943  0.0275
  385MOL0     H53099   8.293   0.110   7.400  0.8053 -1.6542 -0.7799
  385MOL0     H53100   8.449  -0.081   7.380 -0.2897 -2.5584  1.7708
  385MOL0     H53101   8.477  -0.087   7.551  0.6444  1.2743  0.6098
  385MOL0     H53102   8.551   0.155   7.379  0.4829 -1.5892 -1.1061
  385MOL0     H53103   8.585   0.125   7.550  1.2480 -0.3672  0.7912
  385MOL0     H53104   8.693  -0.040   7.314  1.0239  0.8701 -0.6716
  385MOL0     H53105   8.724  -0.057   7.489  0.3718  1.3917  0.8085
  385MOL0     H53106   8.815   0.157   7.495  1.0060 -2.8162  1.4538
  385MOL0     H53107   8.792   0.175   7.309 -1.7865 -2.4918 -1.2746
  385MOL0     H53108   8.937   0.003   7.279 -0.6957 -0.1459 -0.4115
  385MOL0     H53109   8.952  -0.044   7.442 -2.5907 -2.5185 -3.2736
  385MOL0     H53110   7.802  -0.256   7.679  1.2342  0.2050 -0.3474
  385MOL0     H53111   7.699  -0.310   7.886  1.9270 -0.1987 -1.1200
  385MOL0     H53112   7.569  -0.118   8.267  0.8182 -0.0361  0.9466
  385MOL0     H53113   7.395  -0.187   8.415 -1.7065 -1.8355 -0.6843
  385MOL0     H53114   5.968   0.084   8.786 -1.3311  1.7654  2.1140
  385MOL0     H53115   5.728   0.008   8.726  0.7397 -0.2847  1.1525
  385MOL0     H53116   5.473  -0.099   8.444  0.1510 -0.2909  1.6234
  385MOL0     H53117   5.270  -0.171   8.297 -2.9730 -0.7284  0.2619
  385MOL0     H53118   5.109  -0.094   8.148  1.5983  0.5860  2.0086
  385MOL0     H53119   5.087  -0.242   8.227 -0.4291 -0.5457  0.3788
  385MOL0     H53120   4.921  -0.256   8.067  0.9859 -1.5104  1.1187
  385MOL0     H53121   4.865  -0.078   8.094  0.0827  0.0874  0.1529
  385MOL0     H53122   4.851  -0.317   8.276 -1.0156  0.3770  2.5339
  385MOL0     H53123   4.748  -0.169   8.295 -0.2099 -2.3514  2.1041
  385MOL0     H53124   4.693  -0.391   8.095  0.3050 -0.4308  1.5365
  385MOL0     H53125   4.640  -0.233   8.069 -1.1076 -1.9711 -0.7502
  385MOL0     H53126   4.380  -0.353   8.373  0.4967  1.9145  0.7783
  385MOL0     H53127   5.019   0.081   8.525  0.5008  0.6582  0.1416
  385MOL0     H53128   5.270   0.251   8.713  0.0205  0.3410  1.2451
  385MOL0     H53129   5.101   0.202   8.720 -0.2660 -0.5365 -0.2226
  385MOL0     H53130   5.209   0.105   8.812 -1.6063 -0.9466 -1.0571
  386MOL0     O53131   4.951   6.056   7.197  0.0886 -0.9545 -1.1670
  386MOL0     C53132   4.941   5.969   7.116 -0.8300  0.0856 -0.3537
  386MOL0     O53133   5.046   5.901   7.069 -0.1605  0.5799 -0.0923
  386MOL0     C53134   5.162   5.883   7.140  0.3102  0.9084 -0.0816
  386MOL0     C53135   5.170   5.890   7.280 -0.3338  0.4050 -0.4476
  386MOL0     C53136   5.297   5.881   7.337  0.9211 -0.6221 -0.0684
  386MOL0     C53137   5.414   5.858   7.267 -0.5762  0.5791  0.4760
  386MOL0     O53138   5.529   5.831   7.342 -0.2754 -0.0556  0.2998
  386MOL0     C53139   5.578   5.944   7.420 -0.1571  0.7066 -0.3250
  386MOL0     C53140   5.627   5.877   7.546 -0.1795 -0.2426 -0.8068
  386MOL0     C53141   5.516   5.790   7.616  1.3318  0.4386  0.0599
  386MOL0     C53142   5.573   5.734   7.738  0.0262  0.5309 -0.7178
  386MOL0     C53143   5.470   5.621   7.767 -0.3372  1.1653  0.1321
  386MOL0     C53144   5.463   5.561   7.912  0.5633 -0.1245 -0.1798
  386MOL0     C53145   5.601   5.504   7.961 -0.3542 -0.2767 -0.1153
  386MOL0     C53146   5.573   5.438   8.100  0.0701 -0.0852 -0.1933
  386MOL0     N53147   5.706   5.397   8.159 -0.5181  0.0730  0.2871
  386MOL0     C53148   5.789   5.462   8.248 -0.8319 -0.3237  0.5591
  386MOL0     C53149   5.908   5.404   8.241 -0.7362 -0.1068 -0.7065
  386MOL0     C53150   6.026   5.464   8.330 -0.4533  0.5249  0.1893
  386MOL0     C53151   6.148   5.371   8.355 -0.5693 -0.4631 -0.6019
  386MOL0     C53152   6.233   5.367   8.223  0.1476  0.3553 -0.1499
  386MOL0     C53153   6.356   5.275   8.241  0.7365  0.6543 -0.8877
  386MOL0     O53154   6.465   5.331   8.314  0.6804 -0.0779 -0.7814
  386MOL0     C53155   6.560   5.251   8.364 -0.0528  0.4717  0.3776
  386MOL0     C53156   6.546   5.113   8.386  0.3332  0.0812  0.2936
  386MOL0     C53157   6.654   5.030   8.401 -0.5066  0.2409 -0.4653
  386MOL0     C53158   6.629   4.881   8.413 -0.4600  1.2510  0.1138
  386MOL0     C53159   6.789   5.090   8.397 -0.0258  0.2659 -0.8671
  386MOL0     C53160   6.907   5.005   8.408 -0.4952 -0.2649  0.4948
  386MOL0     O53161   7.026   5.047   8.348  0.2328  0.2414 -0.1612
  386MOL0     C53162   7.115   4.946   8.320  0.8253 -0.6438  1.1216
  386MOL0     C53163   7.105   4.871   8.205  0.4479  0.1388 -0.0182
  386MOL0     C53164   7.212   4.785   8.170 -0.3218  0.2588  0.1316
  386MOL0     C53165   7.322   4.769   8.250  0.5433 -0.4561 -0.2457
  386MOL0     O53166   7.422   4.689   8.199 -0.4978  1.4301  0.2891
  386MOL0     C53167   7.564   4.724   8.228 -0.1213 -0.0428 -0.1048
  386MOL0     C53168   7.663   4.650   8.141  0.1336 -0.2686 -0.5691
  386MOL0     C53169   7.797   4.651   8.215 -0.5874  0.5601  1.1007
  386MOL0     C53170   7.904   4.558   8.141  0.2709  0.3741 -0.7851
  386MOL0     C53171   8.047   4.600   8.190  0.4628  0.6535 -0.2306
  386MOL0     C53172   8.105   4.491   8.288  0.2970  0.4394 -0.8411
  386MOL0     C53173   8.036   4.499   8.426 -0.4066 -0.0497 -0.0808
  386MOL0     C53174   8.126   4.466   8.548  0.1932 -0.5467 -0.5206
  386MOL0    Cl53175   8.262   4.588   8.563  0.1080  0.4562 -0.1617
  386MOL0     C53176   7.340   4.838   8.370  0.5712  1.0242  0.2877
  386MOL0     C53177   7.232   4.926   8.394 -0.7494  0.7908 -0.9489
  386MOL0     O53178   6.898   4.905   8.488 -0.0059 -1.1557 -0.6491
  386MOL0     C53179   6.804   5.233   8.375  0.7386 -0.4405  0.2553
  386MOL0     C53180   6.690   5.305   8.366  0.8132 -0.2686 -0.5796
  386MOL0     N53181   5.909   5.312   8.142 -0.3620  0.0406  0.1285
  386MOL0     N53182   5.793   5.315   8.094  0.3552  0.4834 -0.0813
  386MOL0     C53183   5.398   5.835   7.126 -0.1416 -0.1101 -0.2910
  386MOL0     C53184   5.271   5.845   7.060  0.0813 -0.1544  0.9726
  386MOL0     C53185   4.810   5.946   7.066  1.1023 -0.4194  0.0788
  386MOL0     C53186   4.798   5.879   6.941 -0.7549  0.6899  0.2791
  386MOL0     C53187   4.677   5.846   6.874  0.3647  0.0480 -0.2809
  386MOL0     C53188   4.558   5.882   6.932 -0.4715  0.3031 -0.5137
  386MOL0     O53189   4.440   5.844   6.879  0.0656 -0.1993  0.0716
  386MOL0     C53190   4.436   5.805   6.743 -0.1009 -0.3139  0.5445
  386MOL0     C53191   4.296   5.762   6.714  0.8442 -0.5880  0.1169
  386MOL0     C53192   4.208   5.887   6.714 -0.3558 -0.7067  0.4806
  386MOL0     C53193   4.061   5.866   6.687 -0.7427  0.1974 -0.1782
  386MOL0     C53194   3.998   5.779   6.791  0.4080 -0.4788  0.0499
  386MOL0     C53195   3.939   5.701   6.868  0.5250 -0.3065 -0.9058
  386MOL0     C53196   4.560   5.945   7.057  0.3109 -0.6287 -0.1209
  386MOL0     C53197   4.679   5.981   7.131  0.0385  0.1534  0.8265
  386MOL0     C53198   4.659   6.049   7.262  0.2057  0.6487 -0.6191
  386MOL0     H53199   5.082   5.903   7.342  0.5502  3.0857  0.3835
  386MOL0     H53200   5.304   5.886   7.445 -0.9071 -0.7768  0.0860
  386MOL0     H53201   5.511   6.025   7.450 -1.7381 -1.4933  2.5960
  386MOL0     H53202   5.672   5.983   7.380  0.8316  0.8738  1.9950
  386MOL0     H53203   5.714   5.821   7.511  1.8968  0.5591  2.5092
  386MOL0     H53204   5.666   5.948   7.620 -0.9619 -0.7601  0.1222
  386MOL0     H53205   5.432   5.855   7.644 -0.3976 -0.3559 -2.8316
  386MOL0     H53206   5.480   5.714   7.547  2.8250 -0.2254 -0.0194
  386MOL0     H53207   5.674   5.692   7.733  0.2933  1.2610 -1.7862
  386MOL0     H53208   5.569   5.798   7.826 -2.2648 -0.8858  0.3009
  386MOL0     H53209   5.501   5.534   7.710  2.1673  3.1939 -1.8503
  386MOL0     H53210   5.366   5.648   7.749 -0.3622  2.1342  1.5070
  386MOL0     H53211   5.421   5.640   7.975  0.8881  1.9681 -2.4325
  386MOL0     H53212   5.390   5.480   7.917  1.2506 -0.8022 -0.8086
  386MOL0     H53213   5.658   5.596   7.978 -3.9656  1.9914  0.7993
  386MOL0     H53214   5.642   5.431   7.890 -4.7681  0.9804 -4.5396
  386MOL0     H53215   5.519   5.507   8.166  2.1343  0.6995  0.7500
  386MOL0     H53216   5.510   5.350   8.084  0.1702 -0.2023  0.0479
  386MOL0     H53217   5.763   5.535   8.324 -1.0117 -0.0752  0.2636
  386MOL0     H53218   5.984   5.507   8.422  0.3968  1.4171  0.1771
  386MOL0     H53219   6.064   5.544   8.267  0.9088 -0.5623 -0.4248
  386MOL0     H53220   6.213   5.406   8.436  1.4541 -0.7335 -2.0275
  386MOL0     H53221   6.121   5.266   8.368 -0.4154 -0.4475 -0.1369
  386MOL0     H53222   6.185   5.332   8.131  1.9044 -2.8188 -0.0305
  386MOL0     H53223   6.260   5.465   8.184 -1.4691  1.4811  1.3827
  386MOL0     H53224   6.318   5.180   8.281  0.0798  0.7738 -1.2122
  386MOL0     H53225   6.396   5.251   8.142  2.4429 -1.8902  0.3240
  386MOL0     H53226   6.443   5.080   8.399  0.1199  1.1884  1.6991
  386MOL0     H53227   6.659   4.832   8.506 -1.3398 -0.0009 -0.2208
  386MOL0     H53228   6.677   4.836   8.326 -2.3146 -2.3055  0.7384
  386MOL0     H53229   6.521   4.861   8.405 -0.1562  0.0300 -1.5065
  386MOL0     H53230   7.013   4.885   8.149 -0.1187  0.2610  0.9346
  386MOL0     H53231   7.224   4.734   8.074  2.0034  1.4732 -0.3002
  386MOL0     H53232   7.585   4.831   8.228  1.3469 -0.3065 -1.2172
  386MOL0     H53233   7.586   4.704   8.333 -1.0594  0.4175  0.1933
  386MOL0     H53234   7.640   4.548   8.108  2.7373 -0.6730 -1.2943
  386MOL0     H53235   7.686   4.714   8.056  2.1271  2.4909  1.8540
  386MOL0     H53236   7.776   4.621   8.318 -2.8762 -4.4494 -0.5379
  386MOL0     H53237   7.830   4.755   8.228 -0.7927  0.6298  1.0675
  386MOL0     H53238   7.880   4.565   8.035 -5.1575 -1.5172  0.0094
  386MOL0     H53239   7.893   4.451   8.157  0.1466  0.0529 -2.8343
  386MOL0     H53240   8.096   4.608   8.092 -3.6482  0.6192 -2.5441
  386MOL0     H53241   8.039   4.698   8.237 -0.9978  1.7609 -2.5755
  386MOL0     H53242   8.213   4.501   8.301  0.1535 -0.5106  1.7973
  386MOL0     H53243   8.075   4.396   8.242 -0.9589  1.2554 -1.7949
  386MOL0     H53244   7.942   4.444   8.435 -0.1405 -0.1817  2.8215
  386MOL0     H53245   8.008   4.604   8.438 -1.0579  0.0357 -1.9782
  386MOL0     H53246   8.172   4.367   8.536 -1.9669 -1.7926  0.7808
  386MOL0     H53247   8.070   4.465   8.642 -2.0022  1.9366 -1.6908
  386MOL0     H53248   7.431   4.847   8.427 -0.2471  4.3139  1.2974
  386MOL0     H53249   7.252   4.996   8.475  2.0363 -1.6661  0.6723
  386MOL0     H53250   6.896   5.289   8.378  1.0240 -0.9109  0.3701
  386MOL0     H53251   6.707   5.411   8.351 -0.3914 -0.1008 -0.8877
  386MOL0     H53252   5.484   5.811   7.065 -0.7639 -1.0234 -0.8425
  386MOL0     H53253   5.275   5.828   6.953  1.6813  5.1412 -0.1022
  386MOL0     H53254   4.888   5.852   6.886  0.3875  0.2465  2.2658
  386MOL0     H53255   4.690   5.798   6.778  1.2554 -1.8947  0.7449
  386MOL0     H53256   4.471   5.880   6.672 -0.5803  0.1942  0.8397
  386MOL0     H53257   4.503   5.722   6.716 -1.7123 -1.8722  1.1657
  386MOL0     H53258   4.254   5.687   6.782 -3.5220  1.3550 -0.0701
  386MOL0     H53259   4.286   5.718   6.615 -1.3880 -2.7882  1.2007
  386MOL0     H53260   4.227   5.938   6.810 -0.5608  3.5137 -1.4880
  386MOL0     H53261   4.231   5.955   6.632 -0.9091 -1.7700 -0.5753
  386MOL0     H53262   4.037   5.834   6.585 -1.8331  2.0880 -0.5726
  386MOL0     H53263   4.021   5.968   6.693  1.1155  1.1377 -2.2878
  386MOL0     H53264   3.897   5.626   6.931  0.5249 -1.8207 -2.6133
  386MOL0     H53265   4.465   5.972   7.102  0.8932 -0.9512  1.3358
  386MOL0     H53266   4.651   6.158   7.256 -0.9984  0.4777 -2.5798
  386MOL0     H53267   4.561   6.024   7.304  0.9057  0.9199  1.3009
  386MOL0     H53268   4.740   6.023   7.332  2.2066  3.2459 -1.7859
  387MOL0     O53269   3.867  10.344   7.079 -0.2176 -0.0473  0.2805
  387MOL0     C53270   3.829  10.358   7.192 -0.1025 -0.1486  0.0869
  387MOL0     O53271   3.910  10.359   7.294  0.2662 -0.0760 -0.4169
  387MOL0     C53272   4.046  10.361   7.292  0.2458  0.4304 -0.2423
  387MOL0     C53273   4.108  10.302   7.411 -0.5512  0.3431  0.5373
  387MOL0     C53274   4.253  10.290   7.421  0.2201 -0.5592  1.0131
  387MOL0     C53275   4.338  10.332   7.313  0.0698 -0.9381  0.9102
  387MOL0     O53276   4.477  10.327   7.297 -0.5161  0.2629  0.2341
  387MOL0     C53277   4.545  10.292   7.423  0.8389  0.8063 -0.7799
  387MOL0     C53278   4.679  10.265   7.363  1.2460  0.2548 -0.3435
  387MOL0     C53279   4.695  10.134   7.273 -0.1516 -0.3497  0.0912
  387MOL0     C53280   4.828  10.120   7.192 -0.0976  0.4366 -0.5319
  387MOL0     C53281   4.957  10.130   7.282  0.0306 -0.3718  0.3555
  387MOL0     C53282   5.071  10.077   7.195  0.2264 -0.1635 -0.6636
  387MOL0     C53283   5.208  10.100   7.266  0.4366  0.3667 -0.5873
  387MOL0     C53284   5.334  10.052   7.197 -0.8818  0.0905 -0.6669
  387MOL0     N53285   5.360   9.914   7.242  0.2526  0.8467 -0.5390
  387MOL0     C53286   5.441   9.874   7.346  1.3740  0.8874 -0.0828
  387MOL0     C53287   5.428   9.738   7.346  0.1649  0.4304 -0.0443
  387MOL0     C53288   5.508   9.641   7.437  0.5059  0.4443 -0.9085
  387MOL0     C53289   5.442   9.574   7.555  0.5324 -0.1292 -0.3788
  387MOL0     C53290   5.299   9.518   7.532  0.3831  0.1170  0.9311
  387MOL0     C53291   5.262   9.403   7.614 -0.5586 -0.8026 -0.2340
  387MOL0     O53292   5.348   9.293   7.581  0.0817 -0.1950  0.0144
  387MOL0     C53293   5.292   9.170   7.588  0.0075  0.8287  0.1966
  387MOL0     C53294   5.366   9.070   7.517 -0.0298 -0.1004 -0.2790
  387MOL0     C53295   5.324   8.938   7.500 -0.3033  0.3007  0.4967
  387MOL0     C53296   5.401   8.841   7.430 -0.9170 -0.1336 -0.2433
  387MOL0     C53297   5.198   8.905   7.565  0.2363  0.4557  0.9346
  387MOL0     C53298   5.122   8.775   7.556  0.0275 -0.0558 -0.2903
  387MOL0     O53299   5.197   8.665   7.573 -0.0282  0.8393  0.7675
  387MOL0     C53300   5.139   8.545   7.580 -0.3113  0.3239 -0.2662
  387MOL0     C53301   5.191   8.430   7.517  0.0619 -0.8603 -0.4925
  387MOL0     C53302   5.141   8.304   7.543  0.3000 -0.8446  0.0759
  387MOL0     C53303   5.038   8.284   7.628 -0.5090 -0.6619 -0.7953
  387MOL0     O53304   4.975   8.168   7.634 -0.2874  0.0020 -0.1534
  387MOL0     C53305   5.065   8.062   7.677  0.5170 -0.6832 -0.1055
  387MOL0     C53306   5.043   7.943   7.583 -0.4585  0.3517 -0.3391
  387MOL0     C53307   5.117   7.825   7.638  0.0561  0.3707 -0.0836
  387MOL0     C53308   5.150   7.719   7.531 -0.4386 -0.0170  0.3749
  387MOL0     C53309   5.305   7.700   7.519 -0.1114 -0.4792  1.2166
  387MOL0     C53310   5.392   7.828   7.467  0.3601 -0.5025  0.2898
  387MOL0     C53311   5.542   7.794   7.452  0.7137  0.5351 -0.0904
  387MOL0     C53312   5.617   7.788   7.587  0.0310  0.5222  0.1416
  387MOL0    Cl53313   5.791   7.811   7.589  0.0911 -0.3354  0.0748
  387MOL0     C53314   4.983   8.394   7.688  0.6115  0.5301  0.5250
  387MOL0     C53315   5.030   8.517   7.669 -0.4667  0.5384  0.2488
  387MOL0     O53316   5.001   8.788   7.551 -0.0578 -0.6660  0.3832
  387MOL0     C53317   5.132   9.003   7.641 -0.6368 -1.1842 -0.8043
  387MOL0     C53318   5.175   9.133   7.654 -0.3272 -0.3775  0.0112
  387MOL0     N53319   5.348   9.694   7.235 -0.3946 -0.3353 -0.3994
  387MOL0     N53320   5.322   9.799   7.172  0.3874 -0.3596  0.3773
  387MOL0     C53321   4.269  10.391   7.205  0.5438  0.2834 -0.0944
  387MOL0     C53322   4.130  10.407   7.197  0.0439 -0.6074  0.8660
  387MOL0     C53323   3.679  10.390   7.229 -0.4279  0.5041  0.2895
  387MOL0     C53324   3.651  10.464   7.344 -0.1747  0.4184  0.8731
  387MOL0     C53325   3.529  10.502   7.399  0.8368 -1.0199  0.4450
  387MOL0     C53326   3.415  10.475   7.315 -0.3979  0.2525 -0.3567
  387MOL0     O53327   3.284  10.495   7.363 -0.2968 -0.0766 -0.0616
  387MOL0     C53328   3.245  10.625   7.339  0.7436 -0.3363  0.4344
  387MOL0     C53329   3.090  10.629   7.351 -0.6124 -0.2112  0.2463
  387MOL0     C53330   3.022  10.759   7.330  0.0087  0.1833 -0.3100
  387MOL0     C53331   3.013  10.843   7.465 -1.1823  0.0092  0.4714
  387MOL0     C53332   2.875  10.845   7.510  0.2321  0.6886 -0.2997
  387MOL0     C53333   2.757  10.855   7.538 -0.1759 -0.2311 -0.6279
  387MOL0     C53334   3.438  10.403   7.193 -0.5720  0.0102 -0.1152
  387MOL0     C53335   3.567  10.359   7.158 -0.1516 -0.1741  0.0388
  387MOL0     C53336   3.581  10.295   7.024 -0.2753  0.1257 -0.1082
  387MOL0     H53337   4.046  10.274   7.495 -1.2770  0.5103  0.0663
  387MOL0     H53338   4.297  10.231   7.500  0.9983 -0.3220  0.7659
  387MOL0     H53339   4.507  10.197   7.463  0.4577  0.1674 -2.5449
  387MOL0     H53340   4.538  10.374   7.495  2.9518  1.3328 -1.1221
  387MOL0     H53341   4.721  10.356   7.319 -0.7934  0.5003 -1.9513
  387MOL0     H53342   4.744  10.235   7.446 -0.1281  0.4569  0.8444
  387MOL0     H53343   4.678  10.049   7.339  1.1965 -1.9414 -1.5162
  387MOL0     H53344   4.618  10.131   7.195  0.9343  1.4681 -1.1271
  387MOL0     H53345   4.839  10.019   7.151  2.3962  0.1481  0.6927
  387MOL0     H53346   4.841  10.203   7.123 -2.8580  0.4434 -1.1454
  387MOL0     H53347   4.935  10.065   7.367 -1.1972 -0.5322 -0.0524
  387MOL0     H53348   4.982  10.233   7.309  0.8930  0.7233 -3.8261
  387MOL0     H53349   5.059   9.972   7.166  3.3040  0.0571 -3.3638
  387MOL0     H53350   5.072  10.125   7.096 -1.5843  0.3337 -0.4818
  387MOL0     H53351   5.195  10.061   7.367 -2.0445  1.5890 -0.3748
  387MOL0     H53352   5.216  10.209   7.275  1.6882  0.1995  0.8484
  387MOL0     H53353   5.331  10.046   7.088 -0.5295 -2.3758 -0.6049
  387MOL0     H53354   5.418  10.111   7.237 -3.5572  1.3353  3.8524
  387MOL0     H53355   5.490   9.942   7.414 -2.6048 -0.1168  4.2857
  387MOL0     H53356   5.611   9.678   7.448  0.4832  0.4162 -0.5973
  387MOL0     H53357   5.514   9.551   7.376  0.8562 -1.6007  1.9556
  387MOL0     H53358   5.505   9.489   7.583  0.0329 -0.5280 -0.4466
  387MOL0     H53359   5.445   9.645   7.639  2.1659 -0.7788  0.1518
  387MOL0     H53360   5.219   9.592   7.549 -1.2663 -1.1947 -0.7309
  387MOL0     H53361   5.296   9.477   7.431 -0.9730 -4.0484  2.4628
  387MOL0     H53362   5.262   9.440   7.717 -3.1572  0.5703 -0.6550
  387MOL0     H53363   5.158   9.381   7.589  0.0294 -0.0757 -3.8794
  387MOL0     H53364   5.458   9.098   7.467 -0.0450 -1.3400 -1.0246
  387MOL0     H53365   5.493   8.877   7.382 -1.7197 -1.5590 -3.0554
  387MOL0     H53366   5.340   8.807   7.346 -0.5214 -2.6294  0.4050
  387MOL0     H53367   5.422   8.751   7.487 -2.9101 -0.4455  0.0742
  387MOL0     H53368   5.288   8.449   7.471  1.6919  1.1173  3.3363
  387MOL0     H53369   5.175   8.220   7.483  2.2317 -0.3650  0.4326
  387MOL0     H53370   5.168   8.098   7.674  1.0230 -2.0116  0.8915
  387MOL0     H53371   5.051   8.041   7.783 -1.1071 -0.4049 -0.2284
  387MOL0     H53372   4.942   7.907   7.564 -0.4782  0.5407 -0.5988
  387MOL0     H53373   5.080   7.986   7.489 -0.9446  1.6946  0.0545
  387MOL0     H53374   5.045   7.783   7.708 -0.6525  1.8854  0.1367
  387MOL0     H53375   5.205   7.868   7.687  1.1121  2.7562 -3.6201
  387MOL0     H53376   5.115   7.739   7.430  0.7479 -1.1242 -0.2904
  387MOL0     H53377   5.101   7.625   7.557  0.5222 -0.4589  0.6340
  387MOL0     H53378   5.345   7.667   7.615  1.7496 -1.2533  0.2260
  387MOL0     H53379   5.326   7.619   7.448 -0.5935 -1.0346  1.6993
  387MOL0     H53380   5.375   7.911   7.536  0.3102 -0.5871  0.3798
  387MOL0     H53381   5.356   7.876   7.375 -3.0247  0.9326  2.1625
  387MOL0     H53382   5.581   7.884   7.406  1.4769  0.3103  0.1088
  387MOL0     H53383   5.550   7.699   7.398  2.7773  0.0426  0.9891
  387MOL0     H53384   5.590   7.692   7.632  2.5166 -0.2468  0.1445
  387MOL0     H53385   5.589   7.869   7.656 -0.9886 -1.7050  2.5367
  387MOL0     H53386   4.890   8.362   7.735  1.8321 -3.1645  0.7736
  387MOL0     H53387   4.985   8.595   7.728  1.3314  0.2891  2.0351
  387MOL0     H53388   5.029   8.981   7.668  0.1392 -2.0814  1.7503
  387MOL0     H53389   5.105   9.200   7.702 -0.4308 -0.3528 -0.1734
  387MOL0     H53390   4.318  10.435   7.119 -1.0361  2.6004  0.0858
  387MOL0     H53391   4.104  10.438   7.096  2.9494  0.7088  0.4059
  387MOL0     H53392   3.733  10.497   7.407  0.3489  1.7707 -0.4651
  387MOL0     H53393   3.508  10.557   7.491  0.1377 -2.7043  1.3423
  387MOL0     H53394   3.292  10.698   7.405 -4.2153  3.9274 -0.1196
  387MOL0     H53395   3.266  10.645   7.233 -1.7111 -1.6124 -0.3818
  387MOL0     H53396   3.058  10.593   7.449  2.1130 -0.9060  0.9601
  387MOL0     H53397   3.063  10.556   7.274  2.2680  0.4458 -1.5644
  387MOL0     H53398   3.076  10.815   7.253 -0.2116 -0.7142 -1.1257
  387MOL0     H53399   2.925  10.733   7.287 -1.1304  3.8705 -0.3156
  387MOL0     H53400   3.050  10.946   7.458 -1.7924  0.2289  0.4071
  387MOL0     H53401   3.078  10.812   7.547  2.5119 -1.7177 -2.7670
  387MOL0     H53402   2.651  10.861   7.551 -0.2268  0.0379 -1.1484
  387MOL0     H53403   3.364  10.382   7.117 -0.4635 -0.6974 -0.0286
  387MOL0     H53404   3.480  10.275   6.988 -1.0730 -3.3256  3.3344
  387MOL0     H53405   3.642  10.364   6.964  0.9734 -0.1483  0.7956
  387MOL0     H53406   3.638  10.202   7.027 -0.4763  0.0017 -0.0789
  388MOL0     O53407   2.458   6.694   2.055  0.6111  0.3248 -0.4284
  388MOL0     C53408   2.444   6.618   1.961  0.3225 -0.7966 -0.1575
  388MOL0     O53409   2.547   6.573   1.886 -0.6702  0.2967  0.0393
  388MOL0     C53410   2.674   6.636   1.886  0.4650  0.3067  0.4681
  388MOL0     C53411   2.703   6.742   1.794 -0.3363 -0.8533  1.0115
  388MOL0     C53412   2.831   6.794   1.778 -0.2197 -0.3655  0.1472
  388MOL0     C53413   2.928   6.752   1.866 -0.1445 -0.8268 -0.2455
  388MOL0     O53414   3.058   6.815   1.873  0.4010  0.1656 -0.0885
  388MOL0     C53415   3.076   6.938   1.795 -0.1467  0.2386 -0.4005
  388MOL0     C53416   3.218   6.988   1.821  0.1860 -0.1455  0.5380
  388MOL0     C53417   3.317   6.873   1.795  1.3652  0.0884 -0.0435
  388MOL0     C53418   3.448   6.919   1.855 -0.6196 -0.6904  0.1994
  388MOL0     C53419   3.556   6.811   1.807 -0.2887  0.0074  0.6132
  388MOL0     C53420   3.698   6.864   1.828  0.4029  0.1722 -0.0748
  388MOL0     C53421   3.790   6.810   1.714 -1.4323  0.7650 -0.5045
  388MOL0     C53422   3.944   6.837   1.735  0.7128  0.7705 -1.0892
  388MOL0     N53423   4.007   6.780   1.859 -0.1509 -1.0346  0.1749
  388MOL0     C53424   4.103   6.840   1.931  0.5380 -0.4533 -0.9785
  388MOL0     C53425   4.149   6.739   2.016 -0.2086 -0.1113  0.2003
  388MOL0     C53426   4.268   6.748   2.102  0.0556 -0.0428 -0.7719
  388MOL0     C53427   4.381   6.644   2.062 -0.2189  0.5310 -0.3336
  388MOL0     C53428   4.492   6.634   2.175  1.1529  0.5100 -0.6463
  388MOL0     C53429   4.619   6.558   2.129 -1.1350  0.7204  0.3207
  388MOL0     O53430   4.589   6.431   2.076  0.5689  0.2381 -0.0376
  388MOL0     C53431   4.672   6.382   1.980  0.0068 -0.4063 -0.9047
  388MOL0     C53432   4.695   6.443   1.855 -0.6711 -0.7742  0.0589
  388MOL0     C53433   4.803   6.403   1.779 -0.3230  0.0629  0.8408
  388MOL0     C53434   4.821   6.466   1.642  0.8332  0.7120  0.0115
  388MOL0     C53435   4.871   6.286   1.814  0.2872  0.7526  0.4091
  388MOL0     C53436   4.982   6.221   1.735 -0.1155  0.4439 -0.8907
  388MOL0     O53437   5.027   6.086   1.772 -0.2697 -0.0517  0.2678
  388MOL0     C53438   5.135   6.043   1.689  0.0342  0.1813 -0.3910
  388MOL0     C53439   5.249   6.001   1.756 -0.9492 -0.4149  0.2706
  388MOL0     C53440   5.356   5.946   1.688  0.0532  0.4319 -0.0146
  388MOL0     C53441   5.350   5.931   1.552 -0.3986 -0.0603  0.4126
  388MOL0     O53442   5.465   5.878   1.496 -0.0236 -0.1803 -0.6160
  388MOL0     C53443   5.491   5.897   1.353  0.4311  0.2799 -0.0524
  388MOL0     C53444   5.624   5.826   1.320 -0.4242 -0.8257 -0.7956
  388MOL0     C53445   5.623   5.673   1.340 -0.8345 -0.1349  0.1725
  388MOL0     C53446   5.739   5.593   1.269 -0.3890  0.6132 -0.8386
  388MOL0     C53447   5.867   5.606   1.348  0.3970 -0.5588 -0.1459
  388MOL0     C53448   5.968   5.516   1.268  0.1784  0.3067 -1.0311
  388MOL0     C53449   6.106   5.501   1.346  0.3597  0.2825  0.3411
  388MOL0     C53450   6.214   5.421   1.269 -0.2455  0.1885  0.1457
  388MOL0    Cl53451   6.174   5.242   1.248 -0.3366 -0.4343  0.5048
  388MOL0     C53452   5.236   5.973   1.479 -0.2119 -0.0611  0.3866
  388MOL0     C53453   5.126   6.033   1.547 -1.1630  0.2905 -0.1773
  388MOL0     O53454   5.044   6.294   1.663  0.2899  0.7384  0.5006
  388MOL0     C53455   4.827   6.203   1.929 -0.7618  0.0522  0.9113
  388MOL0     C53456   4.730   6.257   2.012 -0.3924  0.0842 -0.9701
  388MOL0     N53457   4.079   6.626   2.000  0.6959  0.2188 -0.4405
  388MOL0     N53458   3.994   6.653   1.904 -0.2239  0.1515  0.2800
  388MOL0     C53459   2.899   6.644   1.947  0.5104  0.4660  0.7940
  388MOL0     C53460   2.776   6.587   1.961  0.7716  0.1861  0.4766
  388MOL0     C53461   2.304   6.583   1.914 -0.1815 -0.6686 -0.0349
  388MOL0     C53462   2.309   6.531   1.785  0.9730  0.5054  0.2671
  388MOL0     C53463   2.193   6.490   1.725  0.0946  0.4086 -0.7039
  388MOL0     C53464   2.067   6.504   1.784 -0.5639  0.5279 -0.3059
  388MOL0     O53465   1.956   6.458   1.714  0.4179 -0.9051  0.1087
  388MOL0     C53466   1.828   6.497   1.760  0.7506  0.4428 -0.5563
  388MOL0     C53467   1.756   6.392   1.851 -0.5418 -0.8509  0.3194
  388MOL0     C53468   1.728   6.262   1.779  0.5331  0.4381 -0.1376
  388MOL0     C53469   1.630   6.266   1.668  0.2443  0.5516 -0.1825
  388MOL0     C53470   1.601   6.138   1.608  0.0364 -0.1926 -0.2067
  388MOL0     C53471   1.548   6.044   1.546 -0.0045 -0.4119 -0.2155
  388MOL0     C53472   2.067   6.561   1.907  0.5582  0.1342 -0.6618
  388MOL0     C53473   2.179   6.595   1.977 -0.3207  0.2817 -0.9935
  388MOL0     C53474   2.155   6.658   2.108  0.1340 -0.1273 -0.1259
  388MOL0     H53475   2.632   6.786   1.724  0.7801  2.4005  1.7380
  388MOL0     H53476   2.838   6.865   1.697 -1.4559  0.5337  0.7874
  388MOL0     H53477   2.998   7.004   1.833 -2.2808 -0.4280 -3.3164
  388MOL0     H53478   3.058   6.919   1.689 -1.6819 -1.6584  0.1254
  388MOL0     H53479   3.230   7.074   1.753 -1.5036 -0.4611 -0.2237
  388MOL0     H53480   3.221   7.020   1.925  0.6165  0.7330  0.2645
  388MOL0     H53481   3.290   6.784   1.852  0.8396  0.3974  0.1916
  388MOL0     H53482   3.323   6.862   1.686 -3.0433 -0.3107 -0.4079
  388MOL0     H53483   3.480   7.020   1.826  1.7360 -1.0288  1.3272
  388MOL0     H53484   3.450   6.915   1.965  0.8768  0.7924  0.2683
  388MOL0     H53485   3.538   6.798   1.700  3.0038 -0.0537 -0.0640
  388MOL0     H53486   3.546   6.713   1.854  4.3429 -0.8823  0.2547
  388MOL0     H53487   3.713   6.973   1.833  2.9304  0.0527 -2.4905
  388MOL0     H53488   3.722   6.820   1.925  2.5455 -1.4895 -1.2812
  388MOL0     H53489   3.763   6.855   1.618  1.0633  0.0412 -1.6288
  388MOL0     H53490   3.771   6.702   1.713  0.5073  0.2897  2.1758
  388MOL0     H53491   4.002   6.816   1.645  0.7490 -1.3336 -0.6192
  388MOL0     H53492   3.950   6.946   1.739 -0.9476  0.9309 -1.7571
  388MOL0     H53493   4.144   6.941   1.925  0.4583 -0.3954 -0.5910
  388MOL0     H53494   4.236   6.740   2.207 -3.2279 -0.4472 -1.6855
  388MOL0     H53495   4.310   6.848   2.091  1.6786 -0.8113 -1.9446
  388MOL0     H53496   4.346   6.546   2.027  0.9507  0.1390 -0.4395
  388MOL0     H53497   4.430   6.682   1.973  0.9437  0.6474  0.3346
  388MOL0     H53498   4.526   6.734   2.204 -0.1136  0.7092  0.2063
  388MOL0     H53499   4.445   6.587   2.262 -0.0717 -1.1620 -2.1517
  388MOL0     H53500   4.674   6.622   2.059 -2.1476  2.5763  1.1480
  388MOL0     H53501   4.683   6.533   2.214 -2.0934  2.0072  1.4585
  388MOL0     H53502   4.633   6.527   1.826  0.4723  1.1960  2.8155
  388MOL0     H53503   4.749   6.549   1.640 -0.6744 -0.5643 -1.8806
  388MOL0     H53504   4.776   6.393   1.575  0.6423  0.6041  0.2575
  388MOL0     H53505   4.921   6.505   1.618 -0.0136  1.4851 -2.5931
  388MOL0     H53506   5.256   6.015   1.863  0.5495  2.5152 -0.1122
  388MOL0     H53507   5.430   5.906   1.757 -0.9437  0.3655  1.0587
  388MOL0     H53508   5.411   5.844   1.301  1.2415 -1.3874  0.3228
  388MOL0     H53509   5.494   6.002   1.325 -1.5824  1.0898  2.3256
  388MOL0     H53510   5.666   5.853   1.223  0.5376 -2.2544 -0.7932
  388MOL0     H53511   5.697   5.849   1.398 -1.1881  0.0870 -0.3165
  388MOL0     H53512   5.528   5.641   1.296  0.3664 -1.4852 -1.5343
  388MOL0     H53513   5.597   5.653   1.445 -2.9472 -3.8539 -0.8889
  388MOL0     H53514   5.751   5.627   1.166  2.6639  3.1088  0.1902
  388MOL0     H53515   5.701   5.491   1.280 -1.5765  1.1619  0.4457
  388MOL0     H53516   5.894   5.712   1.340 -1.6180  0.0134  0.0541
  388MOL0     H53517   5.860   5.571   1.451 -0.8090  2.0348  0.7523
  388MOL0     H53518   5.992   5.560   1.170  3.0080  1.7649  0.1971
  388MOL0     H53519   5.938   5.412   1.255  5.0566 -1.5934  0.8645
  388MOL0     H53520   6.092   5.444   1.438 -1.1542 -0.6613 -0.4163
  388MOL0     H53521   6.141   5.604   1.357 -0.2839  1.0297 -3.2762
  388MOL0     H53522   6.298   5.440   1.336 -0.5739  1.8910  0.1277
  388MOL0     H53523   6.238   5.477   1.178  2.5345 -2.5618 -0.9714
  388MOL0     H53524   5.232   5.952   1.372  2.4438 -1.1732  0.4346
  388MOL0     H53525   5.046   6.079   1.491 -0.0790  1.6117 -0.6963
  388MOL0     H53526   4.865   6.102   1.937  2.8971  1.3256  1.5656
  388MOL0     H53527   4.689   6.203   2.097 -1.7042 -0.0619 -1.6636
  388MOL0     H53528   2.987   6.614   2.004  0.7715  3.0283  1.8609
  388MOL0     H53529   2.758   6.497   2.020  1.1037 -1.7422 -2.1963
  388MOL0     H53530   2.399   6.506   1.729 -0.1632 -0.4850 -1.1783
  388MOL0     H53531   2.187   6.444   1.627  0.2004 -1.1049 -0.0404
  388MOL0     H53532   1.822   6.598   1.801 -0.3012  1.3365 -2.7579
  388MOL0     H53533   1.762   6.517   1.675 -2.6269  0.4847  1.8527
  388MOL0     H53534   1.658   6.434   1.876  0.0902  2.2760 -1.8223
  388MOL0     H53535   1.821   6.377   1.938  2.1226 -0.6435 -1.5157
  388MOL0     H53536   1.821   6.220   1.740  0.5628  1.1021 -0.8158
  388MOL0     H53537   1.707   6.186   1.854  1.7766  1.2425  1.0692
  388MOL0     H53538   1.659   6.332   1.586  0.3069  0.2354 -0.4167
  388MOL0     H53539   1.533   6.304   1.701 -1.3667 -3.1527 -0.1678
  388MOL0     H53540   1.513   5.951   1.506 -1.8157 -1.3444  3.1753
  388MOL0     H53541   1.971   6.570   1.956  0.2355  1.3613 -1.4744
  388MOL0     H53542   2.177   6.765   2.107 -0.9125  0.2006  3.0646
  388MOL0     H53543   2.049   6.653   2.133 -0.2183  2.1287 -0.9110
  388MOL0     H53544   2.224   6.611   2.178 -0.4615 -0.4748  0.2288
  389MOL0     O53545  10.966   1.487   4.312 -0.0806  0.1979 -0.4324
  389MOL0     C53546  10.936   1.376   4.272  0.7182  0.7148 -0.2323
  389MOL0     O53547  10.994   1.299   4.173 -0.3350  0.2616  0.1153
  389MOL0     C53548  11.106   1.339   4.104 -1.6275 -0.1185 -1.2456
  389MOL0     C53549  11.198   1.231   4.087  0.2320  0.0263 -0.2377
  389MOL0     C53550  11.322   1.254   4.035  0.2000 -1.0059  0.0356
  389MOL0     C53551  11.370   1.385   4.000  1.1715  0.3347  0.1228
  389MOL0     O53552  11.489   1.422   3.947  0.0132  1.2636  0.9415
  389MOL0     C53553  11.605   1.343   3.974  1.0029  0.3140 -0.0766
  389MOL0     C53554  11.730   1.397   3.931 -0.5372  0.3276  0.0534
  389MOL0     C53555  11.754   1.387   3.780 -0.2309 -0.7089  0.7234
  389MOL0     C53556  11.882   1.460   3.740 -0.4883 -1.2738  0.0615
  389MOL0     C53557  11.863   1.476   3.586 -0.1431  0.7976 -0.8296
  389MOL0     C53558  11.998   1.529   3.513 -0.7841 -0.8035 -0.2250
  389MOL0     C53559  11.988   1.508   3.363 -0.2448  0.4757  1.6899
  389MOL0     C53560  12.093   1.597   3.283 -0.3594 -0.1057 -0.2580
  389MOL0     N53561  12.216   1.519   3.255  0.2150 -0.7352  0.5175
  389MOL0     C53562  12.341   1.565   3.283 -0.3417  0.5944 -0.6496
  389MOL0     C53563  12.433   1.474   3.231  0.8700 -0.1507  0.0804
  389MOL0     C53564  12.588   1.485   3.223 -0.0020  0.0781 -0.2537
  389MOL0     C53565  12.649   1.382   3.323 -1.1226 -0.1010 -0.2346
  389MOL0     C53566  12.796   1.355   3.284  0.2076 -0.7103  0.3682
  389MOL0     C53567  12.804   1.220   3.216 -0.5038 -0.4797  0.0175
  389MOL0     O53568  12.774   1.109   3.309  0.4993 -0.1684 -0.8010
  389MOL0     C53569  12.813   0.983   3.280  0.2646  0.0084  1.2583
  389MOL0     C53570  12.828   0.889   3.385 -0.2133 -0.0635 -0.4026
  389MOL0     C53571  12.870   0.761   3.356  0.2449  0.7112  0.3332
  389MOL0     C53572  12.874   0.667   3.477  0.2988  0.3217  1.1324
  389MOL0     C53573  12.889   0.718   3.222 -0.2062 -0.3520 -0.1896
  389MOL0     C53574  12.941   0.586   3.182 -0.3502  0.0835  0.7764
  389MOL0     O53575  13.000   0.507   3.271  0.4262  0.3870 -0.0619
  389MOL0     C53576  13.103   0.416   3.242  0.8360 -0.5707  0.0451
  389MOL0     C53577  13.187   0.425   3.135  0.0273  0.1022  0.4795
  389MOL0     C53578  13.294   0.339   3.108  0.4046 -0.0940  0.3602
  389MOL0     C53579  13.312   0.227   3.196 -0.5440 -0.0607  0.4260
  389MOL0     O53580  13.420   0.145   3.191 -0.3497 -0.5943 -0.5750
  389MOL0     C53581  13.437   0.068   3.071  1.2142 -0.0398  0.3277
  389MOL0     C53582  13.586   0.029   3.064 -0.9123 -0.5670 -0.5020
  389MOL0     C53583  13.639  -0.070   3.179 -1.2761  1.2004 -0.3035
  389MOL0     C53584  13.619  -0.208   3.117 -0.6373  0.1573 -0.3940
  389MOL0     C53585  13.676  -0.316   3.210 -0.9161  0.1351 -0.1410
  389MOL0     C53586  13.830  -0.318   3.207 -0.4002 -0.0575  0.5352
  389MOL0     C53587  13.901  -0.391   3.311  0.5779  0.6744 -0.2874
  389MOL0     C53588  14.054  -0.400   3.283  0.6209 -0.2047 -0.9105
  389MOL0    Cl53589  14.138  -0.503   3.410 -0.1119 -0.2418 -0.3284
  389MOL0     C53590  13.213   0.200   3.293  0.7217  0.3527 -0.3448
  389MOL0     C53591  13.111   0.295   3.317  0.5999  0.0191  0.8217
  389MOL0     O53592  12.926   0.565   3.058  0.1138  0.2464 -0.9278
  389MOL0     C53593  12.859   0.810   3.122 -0.1843 -0.5060  0.1380
  389MOL0     C53594  12.827   0.939   3.146 -0.5258  0.1586 -0.3144
  389MOL0     N53595  12.364   1.375   3.163  0.8186 -0.7676 -0.1898
  389MOL0     N53596  12.235   1.400   3.179 -0.1107 -0.0883 -0.5485
  389MOL0     C53597  11.277   1.488   4.023 -0.2556 -0.1530  0.2324
  389MOL0     C53598  11.143   1.468   4.070  0.5988 -0.6453 -0.6352
  389MOL0     C53599  10.823   1.311   4.347 -0.2707  0.4574  0.1931
  389MOL0     C53600  10.809   1.172   4.334  0.3119 -0.5796  0.0219
  389MOL0     C53601  10.709   1.099   4.395  0.2004 -0.0695 -0.2898
  389MOL0     C53602  10.620   1.163   4.486  0.3800 -0.2347 -0.0133
  389MOL0     O53603  10.507   1.098   4.525  0.0100 -0.6481 -0.7450
  389MOL0     C53604  10.414   1.170   4.614  0.4742  0.4705  0.1984
  389MOL0     C53605  10.282   1.086   4.636  1.4878  0.0991 -0.2849
  389MOL0     C53606  10.198   1.055   4.514 -0.4369  0.3748  0.2770
  389MOL0     C53607  10.050   1.029   4.539 -1.2413 -0.4332 -0.2658
  389MOL0     C53608   9.968   1.037   4.418 -0.4566 -1.4003 -0.0744
  389MOL0     C53609   9.902   1.046   4.314  0.0548  0.2743  0.3604
  389MOL0     C53610  10.640   1.301   4.510  0.3966  1.2631  0.7071
  389MOL0     C53611  10.740   1.373   4.441  0.3971 -0.4030 -0.6375
  389MOL0     C53612  10.744   1.521   4.476  0.1012 -0.1827 -0.4426
  389MOL0     H53613  11.162   1.130   4.107 -1.4082  0.8837  1.5896
  389MOL0     H53614  11.382   1.164   4.034  0.5988 -1.0158  4.4562
  389MOL0     H53615  11.588   1.246   3.926 -2.1513  0.2951  0.8527
  389MOL0     H53616  11.602   1.332   4.083  1.2194  1.3080  0.0480
  389MOL0     H53617  11.729   1.503   3.954 -2.9940  0.4196 -0.2210
  389MOL0     H53618  11.808   1.351   3.993  0.2447  4.4916  2.4779
  389MOL0     H53619  11.751   1.283   3.745 -0.6563 -0.6689  0.6421
  389MOL0     H53620  11.669   1.432   3.729  1.0557 -1.0204 -1.8274
  389MOL0     H53621  11.898   1.563   3.775  1.3704 -1.6840  0.5150
  389MOL0     H53622  11.971   1.396   3.747 -0.5030 -1.3616 -0.5085
  389MOL0     H53623  11.782   1.541   3.553 -2.6824 -0.6723  2.0782
  389MOL0     H53624  11.834   1.378   3.546  0.6388  1.0201 -2.0003
  389MOL0     H53625  12.011   1.636   3.531 -0.4299 -0.8810  0.0112
  389MOL0     H53626  12.085   1.476   3.554  0.4786  0.3831 -1.2860
  389MOL0     H53627  11.887   1.529   3.327  0.1266 -0.7264 -0.2374
  389MOL0     H53628  12.003   1.401   3.346  0.4463  0.9529 -1.3979
  389MOL0     H53629  12.044   1.616   3.187 -1.1667  0.1434  0.1935
  389MOL0     H53630  12.109   1.693   3.333 -1.4677  0.7529 -1.4950
  389MOL0     H53631  12.360   1.659   3.332 -2.6516  0.7914 -0.0329
  389MOL0     H53632  12.620   1.587   3.246  2.0308  0.5006 -4.2155
  389MOL0     H53633  12.621   1.470   3.120 -0.1569  1.5233 -0.5338
  389MOL0     H53634  12.653   1.423   3.425 -2.2048  0.0278 -0.2336
  389MOL0     H53635  12.593   1.288   3.328 -1.9527  0.4299  2.4031
  389MOL0     H53636  12.831   1.433   3.216  0.0496  1.8730  3.0286
  389MOL0     H53637  12.867   1.359   3.367  0.8813  0.6787 -0.2408
  389MOL0     H53638  12.740   1.236   3.129  1.2833  0.9446 -1.1001
  389MOL0     H53639  12.903   1.207   3.172 -1.2775 -1.1540 -1.6154
  389MOL0     H53640  12.819   0.930   3.485  0.7224 -0.5573 -0.1023
  389MOL0     H53641  12.859   0.716   3.574  0.8451  2.9524 -0.0400
  389MOL0     H53642  12.976   0.635   3.499  0.7550  1.2984  0.4618
  389MOL0     H53643  12.799   0.587   3.471 -1.2729  1.4342  4.1037
  389MOL0     H53644  13.162   0.495   3.056 -3.6648 -2.3542 -0.7441
  389MOL0     H53645  13.354   0.336   3.019  0.3976 -0.7985  0.3721
  389MOL0     H53646  13.379  -0.024   3.081  2.8156 -1.3933 -1.8416
  389MOL0     H53647  13.403   0.112   2.977  1.6657  0.2580  0.2981
  389MOL0     H53648  13.610  -0.010   2.965 -1.2354 -0.9836 -0.4209
  389MOL0     H53649  13.643   0.121   3.076  0.2008 -0.9134 -2.7205
  389MOL0     H53650  13.588  -0.055   3.274 -1.3866 -0.3633 -0.0888
  389MOL0     H53651  13.746  -0.056   3.197 -0.7794 -2.0608 -0.0580
  389MOL0     H53652  13.675  -0.218   3.023 -0.3057 -1.6762 -0.0582
  389MOL0     H53653  13.512  -0.218   3.096 -0.4815  0.4958 -1.4169
  389MOL0     H53654  13.649  -0.278   3.309  4.8421  2.1215  1.0478
  389MOL0     H53655  13.633  -0.409   3.173 -2.8862  1.3653 -1.1156
  389MOL0     H53656  13.872  -0.217   3.206  2.4248 -1.1041  1.5320
  389MOL0     H53657  13.864  -0.363   3.113  0.5853 -0.4563  1.0586
  389MOL0     H53658  13.847  -0.485   3.325 -1.7849  2.0499  0.5304
  389MOL0     H53659  13.885  -0.345   3.409 -2.4376 -0.1747 -0.2661
  389MOL0     H53660  14.089  -0.297   3.298 -0.1670 -0.2696  1.9780
  389MOL0     H53661  14.086  -0.437   3.185 -0.4994  0.0188 -1.3765
  389MOL0     H53662  13.221   0.109   3.351  0.6682 -0.6399 -1.8439
  389MOL0     H53663  13.049   0.278   3.405 -0.8222  1.9310  0.2478
  389MOL0     H53664  12.849   0.776   3.019  1.7990  0.0894 -0.2998
  389MOL0     H53665  12.817   1.003   3.058  0.5200 -2.1958 -2.2578
  389MOL0     H53666  11.320   1.583   3.992  2.0944 -2.1788 -3.3591
  389MOL0     H53667  11.076   1.551   4.088 -0.3736 -1.0039 -2.4011
  389MOL0     H53668  10.865   1.116   4.260 -1.0215 -4.2661  1.5553
  389MOL0     H53669  10.685   0.995   4.378 -3.8972  0.8455 -1.0139
  389MOL0     H53670  10.466   1.180   4.710  1.8754  1.1278 -0.6092
  389MOL0     H53671  10.394   1.270   4.576  4.2943  1.1526 -0.4899
  389MOL0     H53672  10.223   1.143   4.709  0.1588  0.6391 -1.7095
  389MOL0     H53673  10.314   0.991   4.679  0.8169 -1.6287 -3.3023
  389MOL0     H53674  10.205   1.135   4.439  1.6302 -0.6337 -0.6719
  389MOL0     H53675  10.248   0.971   4.467 -0.4863  0.7085 -0.3802
  389MOL0     H53676  10.014   1.104   4.610 -0.5012  0.8512 -1.2097
  389MOL0     H53677  10.035   0.924   4.567  0.5083 -0.9943 -1.2862
  389MOL0     H53678   9.832   1.064   4.234  0.9799 -0.1528 -0.5715
  389MOL0     H53679  10.577   1.345   4.587  1.1507 -1.1571  2.8433
  389MOL0     H53680  10.743   1.589   4.390  1.0910  0.4535  0.0257
  389MOL0     H53681  10.654   1.547   4.532 -1.0438 -1.4421 -1.6248
  389MOL0     H53682  10.835   1.542   4.533  0.2709  4.0779 -1.9614
  390MOL0     O53683   6.194   3.006   9.741 -0.8141  0.0007 -0.2818
  390MOL0     C53684   6.212   2.962   9.630 -0.0616  0.2106  0.0760
  390MOL0     O53685   6.316   2.999   9.543  1.2032  0.9863 -0.3398
  390MOL0     C53686   6.421   3.062   9.602  0.5722 -0.5268 -0.1512
  390MOL0     C53687   6.429   3.199   9.628  0.4847 -0.6426 -0.5034
  390MOL0     C53688   6.545   3.261   9.682 -0.6248 -0.6235  0.3185
  390MOL0     C53689   6.661   3.187   9.717 -0.1236 -0.2159 -0.8057
  390MOL0     O53690   6.772   3.253   9.783 -0.1194 -0.1567 -0.2706
  390MOL0     C53691   6.888   3.166   9.799 -0.3674 -0.4921 -0.8376
  390MOL0     C53692   7.016   3.252   9.832  0.5764 -0.4582 -0.7465
  390MOL0     C53693   7.142   3.169   9.847 -0.0288 -0.3023 -0.0232
  390MOL0     C53694   7.261   3.272   9.856  0.1372 -0.4282 -1.6769
  390MOL0     C53695   7.397   3.198   9.888  0.1572  0.4176  0.0158
  390MOL0     C53696   7.509   3.300   9.891  1.3050  0.4512  0.0324
  390MOL0     C53697   7.652   3.247   9.868 -0.1649 -0.3897  0.6728
  390MOL0     C53698   7.662   3.187   9.728 -0.7905  0.2951 -0.2674
  390MOL0     N53699   7.656   3.293   9.625  0.1136 -0.7914 -1.0387
  390MOL0     C53700   7.768   3.368   9.596 -0.3742  0.7869  0.5053
  390MOL0     C53701   7.730   3.460   9.501  0.2116 -0.7944  0.2560
  390MOL0     C53702   7.814   3.571   9.441  0.1315 -0.3915  0.2031
  390MOL0     C53703   7.786   3.710   9.516 -0.5170 -0.0170  0.7564
  390MOL0     C53704   7.649   3.774   9.497 -0.6880 -1.2973  0.0599
  390MOL0     C53705   7.656   3.906   9.578 -0.0184  0.6575  0.0925
  390MOL0     O53706   7.739   4.002   9.512 -0.0924  0.2234  0.0576
  390MOL0     C53707   7.794   4.098   9.595 -0.2969 -0.0991  0.7106
  390MOL0     C53708   7.877   4.192   9.527 -1.0992 -0.7454  0.6679
  390MOL0     C53709   7.923   4.309   9.586 -0.0858  0.3168 -0.5457
  390MOL0     C53710   8.005   4.408   9.510 -0.5622  0.6740  1.0204
  390MOL0     C53711   7.899   4.327   9.724  0.8395 -0.1059 -0.3473
  390MOL0     C53712   7.963   4.427   9.820 -0.1158  0.1228  0.0403
  390MOL0     O53713   7.977   4.381   9.944  0.1973 -0.2850 -0.6147
  390MOL0     C53714   8.061   4.430  10.043  0.3090 -0.3616 -0.0937
  390MOL0     C53715   8.171   4.519  10.034 -0.2145 -0.3013  0.5348
  390MOL0     C53716   8.248   4.554  10.153 -0.6774  0.7077  0.7137
  390MOL0     C53717   8.226   4.489  10.276 -0.1248 -0.4609  0.0587
  390MOL0     O53718   8.310   4.501  10.385 -0.2227 -0.9487 -0.0231
  390MOL0     C53719   8.435   4.563  10.365 -0.3961 -0.1882 -0.4288
  390MOL0     C53720   8.537   4.527  10.481  0.5831 -0.2228  0.0276
  390MOL0     C53721   8.566   4.371  10.481 -0.2309  0.7364 -0.1978
  390MOL0     C53722   8.676   4.333  10.581  0.7271 -0.4904 -0.4134
  390MOL0     C53723   8.689   4.175  10.587 -0.6247  0.3267 -0.0626
  390MOL0     C53724   8.811   4.143  10.680 -0.0651  0.3722  0.1518
  390MOL0     C53725   8.825   4.000  10.711  0.2622  0.5048 -1.0586
  390MOL0     C53726   8.946   3.986  10.806  1.2927 -0.6126  0.6821
  390MOL0    Cl53727   8.925   4.066  10.960  0.3716  0.0446  0.0056
  390MOL0     C53728   8.126   4.396  10.282 -0.8004 -0.4815  0.4042
  390MOL0     C53729   8.043   4.366  10.170  0.2337 -0.6115  0.0876
  390MOL0     O53730   8.015   4.527   9.772  0.4105 -0.0521  0.4937
  390MOL0     C53731   7.813   4.235   9.792 -0.0230  0.6540  0.5820
  390MOL0     C53732   7.765   4.117   9.719  0.8225 -1.1317 -0.1634
  390MOL0     N53733   7.592   3.447   9.479 -0.1565  0.2320 -0.0541
  390MOL0     N53734   7.551   3.353   9.556 -1.2306 -0.5416  0.3889
  390MOL0     C53735   6.649   3.049   9.691  0.2006  0.0615  0.2181
  390MOL0     C53736   6.534   2.986   9.639  0.7037 -0.9438 -0.1437
  390MOL0     C53737   6.105   2.876   9.567  1.0109  0.1387 -0.1792
  390MOL0     C53738   6.076   2.897   9.428  0.6465 -0.4880  0.0174
  390MOL0     C53739   5.982   2.821   9.359  0.5251  0.4029 -0.6385
  390MOL0     C53740   5.893   2.737   9.432 -0.3028  0.3577 -0.7253
  390MOL0     O53741   5.778   2.667   9.394 -0.4680  0.9085  0.0500
  390MOL0     C53742   5.733   2.676   9.259  0.2674  0.1695 -0.4198
  390MOL0     C53743   5.677   2.543   9.218 -0.3741 -0.2394  0.4063
  390MOL0     C53744   5.531   2.520   9.260 -0.2715 -0.3636 -1.2265
  390MOL0     C53745   5.483   2.414   9.156 -0.2937  0.4578 -0.3545
  390MOL0     C53746   5.344   2.397   9.188 -0.2153  0.2940  0.2257
  390MOL0     C53747   5.231   2.375   9.231 -0.2922 -0.5108 -0.4825
  390MOL0     C53748   5.917   2.718   9.575 -0.5538 -0.3411  0.1931
  390MOL0     C53749   6.019   2.789   9.643  0.7297  0.0927  0.2923
  390MOL0     C53750   6.045   2.763   9.788  0.0364  0.5049 -0.1777
  390MOL0     H53751   6.344   3.259   9.597  0.3402 -2.4041 -4.0507
  390MOL0     H53752   6.556   3.368   9.698 -3.7240  0.3096 -2.5190
  390MOL0     H53753   6.916   3.108   9.711  1.3062  0.1874 -0.7910
  390MOL0     H53754   6.855   3.107   9.885  2.4687 -1.3599 -0.2575
  390MOL0     H53755   7.028   3.329   9.755  1.3480  0.7826  0.5776
  390MOL0     H53756   7.007   3.299   9.930 -0.1377  0.5023 -1.2470
  390MOL0     H53757   7.134   3.104   9.935  1.0888  1.0625  1.1411
  390MOL0     H53758   7.152   3.100   9.762  2.3774 -0.5643  0.3983
  390MOL0     H53759   7.276   3.340   9.771 -3.3140 -0.0138 -2.1304
  390MOL0     H53760   7.242   3.349   9.931  2.1763 -3.0699  1.8480
  390MOL0     H53761   7.413   3.124   9.809 -1.5199  0.3557 -0.3100
  390MOL0     H53762   7.391   3.137   9.978  0.7219 -0.2772 -0.4054
  390MOL0     H53763   7.492   3.377   9.814 -3.2271 -0.0183  0.3030
  390MOL0     H53764   7.506   3.356   9.985 -2.6967 -0.4208  0.6262
  390MOL0     H53765   7.688   3.176   9.942  2.5314 -0.2905 -0.4415
  390MOL0     H53766   7.714   3.337   9.875 -1.3707  0.3990  1.8290
  390MOL0     H53767   7.752   3.126   9.718 -0.3959  0.3423  2.2599
  390MOL0     H53768   7.579   3.117   9.721 -0.8833  0.0329  2.2584
  390MOL0     H53769   7.866   3.371   9.642  0.7129 -0.4441 -1.5988
  390MOL0     H53770   7.801   3.570   9.333  0.8685  1.0819  0.0710
  390MOL0     H53771   7.920   3.547   9.452  0.2084  0.0397  0.4294
  390MOL0     H53772   7.795   3.696   9.624 -4.9175  0.9668  1.4130
  390MOL0     H53773   7.853   3.788   9.478 -1.5706  0.4717 -0.1617
  390MOL0     H53774   7.642   3.804   9.392  1.4299 -0.6433  0.0557
  390MOL0     H53775   7.565   3.712   9.529 -2.3198  0.7453 -0.0121
  390MOL0     H53776   7.554   3.946   9.581 -0.6295 -0.5961 -1.8194
  390MOL0     H53777   7.690   3.867   9.674 -0.5673  0.0172  0.0373
  390MOL0     H53778   7.888   4.179   9.420  0.1187 -1.2773  0.8420
  390MOL0     H53779   8.107   4.385   9.541 -1.2344 -3.8542  0.4506
  390MOL0     H53780   7.994   4.515   9.531 -1.2757  0.9104 -0.4459
  390MOL0     H53781   7.993   4.382   9.405  0.3326 -0.9540  1.2907
  390MOL0     H53782   8.194   4.570   9.941 -5.2773 -0.7466 -1.2866
  390MOL0     H53783   8.329   4.625  10.138 -0.4731  0.8161  2.1650
  390MOL0     H53784   8.484   4.527  10.274  4.0827 -0.2506  1.7478
  390MOL0     H53785   8.426   4.672  10.364 -1.3973 -0.1245  2.6579
  390MOL0     H53786   8.631   4.581  10.466  2.3630 -3.3074 -0.9892
  390MOL0     H53787   8.495   4.566  10.574 -3.2435 -1.5568 -0.9638
  390MOL0     H53788   8.587   4.321  10.386  1.6013  1.3541 -0.1536
  390MOL0     H53789   8.481   4.312  10.517  0.4874 -1.0184 -1.2623
  390MOL0     H53790   8.639   4.360  10.681 -1.6355 -1.8983 -0.8141
  390MOL0     H53791   8.771   4.381  10.558 -0.1305  0.4813 -2.0988
  390MOL0     H53792   8.596   4.136  10.628 -0.3166  1.1962  1.5554
  390MOL0     H53793   8.713   4.138  10.487 -0.2534  0.6058 -0.0818
  390MOL0     H53794   8.784   4.196  10.773  1.0041 -0.7916  1.1613
  390MOL0     H53795   8.901   4.178  10.630  0.1201 -1.8270 -1.1685
  390MOL0     H53796   8.833   3.934  10.625 -0.2777  0.8025 -1.3403
  390MOL0     H53797   8.738   3.961  10.765  1.0317 -0.3526 -0.3965
  390MOL0     H53798   9.040   4.016  10.759  2.0099 -1.6268  1.4126
  390MOL0     H53799   8.961   3.877  10.809  0.1108 -0.9708 -2.2721
  390MOL0     H53800   8.110   4.337  10.371 -0.5251  1.1204  1.5588
  390MOL0     H53801   7.969   4.293  10.198 -1.7094  1.0253 -0.5591
  390MOL0     H53802   7.802   4.223   9.899  0.7678 -2.6123  0.4221
  390MOL0     H53803   7.699   4.049   9.771  0.5089 -2.2425 -1.9204
  390MOL0     H53804   6.737   2.989   9.709  0.3925  0.2601 -0.0623
  390MOL0     H53805   6.527   2.878   9.642 -2.5584 -0.8233 -0.3739
  390MOL0     H53806   6.141   2.967   9.377 -0.7136  1.5124  0.8901
  390MOL0     H53807   5.963   2.837   9.253 -0.4603 -1.5867 -0.7984
  390MOL0     H53808   5.651   2.749   9.251  2.0223  2.6293  2.0640
  390MOL0     H53809   5.816   2.701   9.193  1.7076 -0.1998  1.1834
  390MOL0     H53810   5.724   2.459   9.270 -3.1720 -0.0492  3.5387
  390MOL0     H53811   5.687   2.545   9.109  1.4986  2.0833  0.5326
  390MOL0     H53812   5.516   2.486   9.362 -0.1670 -2.2421 -1.7946
  390MOL0     H53813   5.488   2.620   9.249 -3.1784 -0.9852  2.4270
  390MOL0     H53814   5.540   2.323   9.174 -1.2906  0.5177  4.0793
  390MOL0     H53815   5.491   2.448   9.052  0.3643  0.2927 -0.3654
  390MOL0     H53816   5.136   2.361   9.277 -0.0510  2.6925  1.3214
  390MOL0     H53817   5.865   2.637   9.624  0.9907 -2.2797 -1.2258
  390MOL0     H53818   6.011   2.848   9.849  1.2162 -0.0049  1.2657
  390MOL0     H53819   5.991   2.673   9.818  0.5824 -0.5586 -2.2778
  390MOL0     H53820   6.152   2.748   9.808  0.7847  4.1601 -0.7394
  391MOL0     O53821   5.229   5.406   3.166 -0.3412 -0.3161  0.0117
  391MOL0     C53822   5.192   5.304   3.102  0.2680 -0.3559  0.1034
  391MOL0     O53823   5.276   5.238   3.013  0.5725 -0.1499 -0.0756
  391MOL0     C53824   5.388   5.309   2.975 -0.2788 -0.2253 -0.5531
  391MOL0     C53825   5.504   5.302   3.054  0.4882 -0.0753 -1.1580
  391MOL0     C53826   5.611   5.390   3.022  1.1986 -1.0845  1.0151
  391MOL0     C53827   5.603   5.476   2.912  0.5945  0.1869  0.8238
  391MOL0     O53828   5.713   5.548   2.880 -0.3982 -0.0945  0.3182
  391MOL0     C53829   5.740   5.592   2.744  0.5069  0.1397  0.7346
  391MOL0     C53830   5.887   5.654   2.744 -0.1514 -0.5024  0.6531
  391MOL0     C53831   5.943   5.674   2.593 -0.0289 -0.6162 -0.3144
  391MOL0     C53832   6.086   5.734   2.601  0.5810  0.2520 -0.2273
  391MOL0     C53833   6.130   5.811   2.474  0.1055 -0.7916  0.0043
  391MOL0     C53834   6.188   5.700   2.387  0.1141  0.0033  1.0780
  391MOL0     C53835   6.238   5.746   2.248 -0.3921  0.2143  0.2664
  391MOL0     C53836   6.376   5.812   2.246 -0.4597  0.6005 -0.2410
  391MOL0     N53837   6.479   5.734   2.312 -0.5963 -0.6653 -0.1824
  391MOL0     C53838   6.529   5.610   2.271 -0.5944  0.2570 -0.1924
  391MOL0     C53839   6.621   5.574   2.361 -0.5703  0.3918  1.1245
  391MOL0     C53840   6.713   5.457   2.368 -1.1068  0.0616  0.0242
  391MOL0     C53841   6.813   5.458   2.242  0.8170  0.1335  0.1366
  391MOL0     C53842   6.890   5.331   2.234 -0.9036  0.8050  0.3422
  391MOL0     C53843   6.913   5.268   2.092  0.1106 -0.6246 -1.0438
  391MOL0     O53844   6.953   5.370   2.004 -0.4885 -0.8349 -0.7237
  391MOL0     C53845   7.061   5.350   1.922  0.1856  0.3237 -0.3329
  391MOL0     C53846   7.180   5.282   1.956  0.5226  0.4685  0.3389
  391MOL0     C53847   7.292   5.264   1.872 -0.8167  0.5099  0.5968
  391MOL0     C53848   7.406   5.189   1.921  0.4302 -0.4457 -0.6858
  391MOL0     C53849   7.287   5.334   1.744  0.0741  0.1127 -0.1095
  391MOL0     C53850   7.405   5.333   1.649 -0.6011  0.6809 -0.6325
  391MOL0     O53851   7.494   5.221   1.663 -0.2632  0.0339  0.5695
  391MOL0     C53852   7.570   5.196   1.559 -1.1633  0.5954 -0.2735
  391MOL0     C53853   7.526   5.212   1.425 -0.3621 -0.2143 -0.1535
  391MOL0     C53854   7.605   5.204   1.311 -0.9255 -0.4572 -0.5921
  391MOL0     C53855   7.732   5.160   1.322 -0.4804  0.7858  0.6821
  391MOL0     O53856   7.794   5.133   1.206 -0.3139  0.2362  0.4269
  391MOL0     C53857   7.923   5.066   1.206 -0.1646  0.0208  0.1250
  391MOL0     C53858   7.957   5.039   1.063  0.3303  0.4592 -0.4709
  391MOL0     C53859   7.974   5.170   0.987  1.2228 -0.1361 -0.1340
  391MOL0     C53860   8.096   5.163   0.886  1.2220  0.5890  0.4738
  391MOL0     C53861   8.090   5.282   0.795  0.2557 -0.2172  0.0963
  391MOL0     C53862   8.201   5.274   0.693  0.5817 -0.4278  0.9022
  391MOL0     C53863   8.209   5.388   0.587 -0.0205  0.0510 -0.0842
  391MOL0     C53864   8.301   5.347   0.478 -0.5503 -0.4935  0.4185
  391MOL0    Cl53865   8.224   5.210   0.384 -0.3511 -0.4530  0.0894
  391MOL0     C53866   7.788   5.125   1.449 -0.5198 -0.6010 -0.4561
  391MOL0     C53867   7.705   5.149   1.569 -0.0211  0.2587 -0.0675
  391MOL0     O53868   7.425   5.428   1.574 -0.0068 -0.0460  0.7469
  391MOL0     C53869   7.171   5.410   1.712  0.7373  0.0946 -0.2621
  391MOL0     C53870   7.057   5.417   1.793  0.0363  1.0088  0.6835
  391MOL0     N53871   6.613   5.662   2.459 -0.8486 -0.3718  0.5189
  391MOL0     N53872   6.532   5.760   2.434  0.9911  0.0607 -0.0476
  391MOL0     C53873   5.497   5.463   2.823  0.5407 -1.6493  0.1918
  391MOL0     C53874   5.389   5.388   2.860 -0.4790  0.1758 -0.2136
  391MOL0     C53875   5.058   5.251   3.126  0.5512  0.7351  0.6415
  391MOL0     C53876   5.004   5.147   3.041 -0.2551 -1.1664  0.3943
  391MOL0     C53877   4.880   5.089   3.066 -0.5533  0.5697 -1.0772
  391MOL0     C53878   4.803   5.131   3.173  0.2531 -0.3932  0.2251
  391MOL0     O53879   4.688   5.063   3.210 -0.4431 -0.6628 -0.9500
  391MOL0     C53880   4.649   4.937   3.165  0.4469 -0.6024  0.2684
  391MOL0     C53881   4.553   4.861   3.252  0.1223  0.4102 -0.7211
  391MOL0     C53882   4.622   4.829   3.389 -0.3390 -0.2007  0.6180
  391MOL0     C53883   4.524   4.756   3.489  0.1147  0.1893 -0.7070
  391MOL0     C53884   4.584   4.766   3.618 -0.3541  0.3022  1.1262
  391MOL0     C53885   4.618   4.768   3.737 -0.0349  1.0980  0.5035
  391MOL0     C53886   4.842   5.251   3.241  0.5898  0.1836  0.2169
  391MOL0     C53887   4.972   5.301   3.230 -0.5429  0.8651  0.1276
  391MOL0     C53888   5.005   5.412   3.329 -0.0384 -1.4392 -0.4015
  391MOL0     H53889   5.499   5.245   3.147  0.1646  0.3039 -0.9386
  391MOL0     H53890   5.706   5.402   3.074  0.8107  1.6468  1.1976
  391MOL0     H53891   5.664   5.662   2.708  0.7154  1.5833  2.8983
  391MOL0     H53892   5.746   5.503   2.681  3.6425  0.8768 -0.1877
  391MOL0     H53893   5.894   5.749   2.798  2.8418 -0.2122 -0.0279
  391MOL0     H53894   5.954   5.588   2.799  2.7624  0.5719 -1.3541
  391MOL0     H53895   5.952   5.582   2.535 -0.5086  0.0443 -1.4575
  391MOL0     H53896   5.883   5.747   2.539  2.3981  0.8008 -1.2392
  391MOL0     H53897   6.082   5.791   2.694 -2.0373 -0.3055  0.1022
  391MOL0     H53898   6.164   5.660   2.620  0.3806  0.2723  0.7280
  391MOL0     H53899   6.211   5.882   2.497 -0.6148 -0.1861  0.7490
  391MOL0     H53900   6.043   5.862   2.430  2.0361  2.4591 -0.4467
  391MOL0     H53901   6.267   5.639   2.432 -1.8294 -3.6662 -0.0951
  391MOL0     H53902   6.107   5.634   2.357  0.9944 -0.0325 -1.5014
  391MOL0     H53903   6.172   5.822   2.204  3.0026  2.2646 -1.7355
  391MOL0     H53904   6.245   5.662   2.179 -2.6264 -0.0546  0.2946
  391MOL0     H53905   6.408   5.826   2.142  2.3964  1.0427  0.5905
  391MOL0     H53906   6.362   5.915   2.280 -0.5054  1.7199 -3.3652
  391MOL0     H53907   6.518   5.565   2.174 -3.9066  1.5621 -0.5535
  391MOL0     H53908   6.646   5.371   2.370 -0.5643 -0.4677  4.4793
  391MOL0     H53909   6.778   5.457   2.455  1.3902  1.8281 -1.6892
  391MOL0     H53910   6.752   5.474   2.153  1.9628  2.0782 -0.3483
  391MOL0     H53911   6.880   5.544   2.246  1.8329 -0.6834  1.5289
  391MOL0     H53912   6.991   5.341   2.274 -0.8556 -1.1386  0.7661
  391MOL0     H53913   6.849   5.264   2.309 -0.7565  3.2741  2.7676
  391MOL0     H53914   6.981   5.183   2.103 -0.6252 -1.1656 -0.5262
  391MOL0     H53915   6.819   5.222   2.061 -2.0653  1.7894  1.4213
  391MOL0     H53916   7.191   5.242   2.057  1.0573 -3.0763 -0.9763
  391MOL0     H53917   7.381   5.153   2.022 -4.6124 -0.6058 -1.7454
  391MOL0     H53918   7.495   5.253   1.924  0.9018 -1.1119 -0.0397
  391MOL0     H53919   7.416   5.101   1.857 -1.8447  0.5773 -2.5664
  391MOL0     H53920   7.423   5.239   1.405  0.2540  0.4611 -2.7201
  391MOL0     H53921   7.563   5.221   1.213 -0.3508 -0.2658 -0.8093
  391MOL0     H53922   7.996   5.129   1.258  0.7037 -0.5969 -0.3129
  391MOL0     H53923   7.911   4.973   1.264  0.0108  0.1066  0.3025
  391MOL0     H53924   8.055   4.990   1.067  0.1326  0.1124  0.3810
  391MOL0     H53925   7.882   4.972   1.020  0.6036 -0.1138 -0.0557
  391MOL0     H53926   7.990   5.250   1.061  1.4387 -0.5330  0.2529
  391MOL0     H53927   7.881   5.185   0.930 -0.9978 -0.1300  3.2003
  391MOL0     H53928   8.093   5.074   0.822 -0.4723  1.3665 -0.6313
  391MOL0     H53929   8.186   5.148   0.945  1.1425 -2.0847  0.0388
  391MOL0     H53930   8.002   5.285   0.729  1.0577  1.8926 -0.9987
  391MOL0     H53931   8.089   5.377   0.849 -3.5174  0.5232 -0.9301
  391MOL0     H53932   8.186   5.182   0.635  2.1079  1.1274 -2.2268
  391MOL0     H53933   8.302   5.253   0.730  0.9951 -1.6374 -0.7733
  391MOL0     H53934   8.245   5.480   0.635  0.4102 -0.3633  0.4111
  391MOL0     H53935   8.115   5.425   0.547 -1.1535 -0.6017  1.8465
  391MOL0     H53936   8.393   5.309   0.525  0.4480 -0.6229 -1.5700
  391MOL0     H53937   8.316   5.430   0.409 -1.3568 -1.0681 -0.4595
  391MOL0     H53938   7.879   5.065   1.456 -0.7153 -0.8116  0.3230
  391MOL0     H53939   7.747   5.124   1.666  0.3928  1.8777  0.1974
  391MOL0     H53940   7.169   5.450   1.611 -0.7620 -0.4456 -0.4887
  391MOL0     H53941   6.979   5.485   1.760  1.1021  2.6716  1.4527
  391MOL0     H53942   5.484   5.523   2.733 -0.4501  0.0575  1.4290
  391MOL0     H53943   5.298   5.401   2.802 -0.4099  0.8751 -0.1727
  391MOL0     H53944   5.055   5.126   2.947 -1.5031 -0.5101 -0.4589
  391MOL0     H53945   4.848   5.004   3.006 -1.6979  0.3694 -0.2112
  391MOL0     H53946   4.622   4.943   3.060 -0.8295  2.1478  0.6748
  391MOL0     H53947   4.743   4.880   3.173  0.4547 -0.6096  0.1342
  391MOL0     H53948   4.528   4.769   3.199 -1.6462 -0.3581  1.3095
  391MOL0     H53949   4.455   4.907   3.261  0.2540  0.5081  0.2865
  391MOL0     H53950   4.711   4.769   3.368 -0.2280  0.4398 -0.9148
  391MOL0     H53951   4.649   4.920   3.444  3.0546  0.3652 -1.6627
  391MOL0     H53952   4.513   4.651   3.462 -1.9380  0.1882 -0.0524
  391MOL0     H53953   4.421   4.795   3.487  0.1011  0.1932 -0.1857
  391MOL0     H53954   4.657   4.768   3.837  0.6488  1.0551  0.2427
  391MOL0     H53955   4.789   5.285   3.330  2.0551  1.9289  0.4705
  391MOL0     H53956   4.929   5.418   3.407 -1.0050 -0.7432 -1.3695
  391MOL0     H53957   5.101   5.397   3.379 -0.4769  0.3194  1.1023
  391MOL0     H53958   4.999   5.504   3.270 -3.2032 -1.7843 -0.7820
  392MOL0     O53959  10.747   2.006   7.039 -0.1891 -0.8678  0.4437
  392MOL0     C53960  10.677   2.103   7.070  0.4281  0.1435  0.0200
  392MOL0     O53961  10.713   2.236   7.080  0.1184  0.0098  0.4508
  392MOL0     C53962  10.848   2.260   7.098  0.2143 -0.2099  0.2846
  392MOL0     C53963  10.916   2.221   7.211  0.3019  0.0447  0.0935
  392MOL0     C53964  11.046   2.262   7.231  0.0710  0.3192 -0.1354
  392MOL0     C53965  11.112   2.329   7.135 -0.5831  0.6607  0.1403
  392MOL0     O53966  11.242   2.361   7.171  0.2335  0.1245 -0.0743
  392MOL0     C53967  11.328   2.427   7.066  0.1987  0.4758  0.1586
  392MOL0     C53968  11.480   2.418   7.107 -0.3959 -0.3290 -0.3629
  392MOL0     C53969  11.541   2.279   7.108 -0.0931  0.1236  0.9042
  392MOL0     C53970  11.678   2.280   7.184 -0.0671 -0.4796 -0.3805
  392MOL0     C53971  11.737   2.142   7.219 -0.0313  0.3991 -0.1592
  392MOL0     C53972  11.818   2.090   7.095  0.4719  0.3108 -0.5869
  392MOL0     C53973  11.908   1.966   7.127 -0.2706 -0.5037  0.3248
  392MOL0     C53974  12.033   1.967   7.036 -0.0445  0.2787  0.0062
  392MOL0     N53975  12.002   1.934   6.901 -0.1230 -0.7404 -0.1685
  392MOL0     C53976  11.947   1.821   6.850  0.4356  0.1111  0.3450
  392MOL0     C53977  11.951   1.831   6.714 -0.2701  0.1758 -0.0629
  392MOL0     C53978  11.895   1.711   6.627 -0.2802  0.7872  0.1350
  392MOL0     C53979  12.013   1.653   6.536  0.0067  0.0101 -0.5249
  392MOL0     C53980  12.086   1.742   6.438  0.4697 -0.0304  0.1410
  392MOL0     C53981  12.236   1.773   6.457 -0.2807  0.4458 -1.1094
  392MOL0     O53982  12.267   1.852   6.348 -0.2623  0.2838 -0.8508
  392MOL0     C53983  12.387   1.917   6.343  0.2336  0.8977 -0.3402
  392MOL0     C53984  12.380   2.036   6.275 -0.2089  0.1476  0.0256
  392MOL0     C53985  12.483   2.129   6.282  0.3666 -1.0355 -0.1328
  392MOL0     C53986  12.455   2.257   6.212  0.0520 -0.0040 -1.0005
  392MOL0     C53987  12.605   2.094   6.337 -0.6730 -0.0808 -0.0805
  392MOL0     C53988  12.726   2.177   6.349 -0.0400 -0.8639  0.2251
  392MOL0     O53989  12.841   2.107   6.353 -0.3441  0.5674  0.1268
  392MOL0     C53990  12.969   2.170   6.348  0.3126 -0.1654 -0.3055
  392MOL0     C53991  13.002   2.275   6.264  0.0946 -0.2270 -0.0267
  392MOL0     C53992  13.133   2.330   6.253  0.0435  0.4850  0.4134
  392MOL0     C53993  13.232   2.275   6.333  0.3600 -0.7091  1.0575
  392MOL0     O53994  13.351   2.342   6.331  0.7655  0.1435 -0.3433
  392MOL0     C53995  13.421   2.342   6.459 -0.1127 -0.1777 -0.2798
  392MOL0     C53996  13.551   2.422   6.440  0.3771  0.2290 -0.1887
  392MOL0     C53997  13.654   2.337   6.359  0.3680 -0.1105 -0.2979
  392MOL0     C53998  13.759   2.419   6.288  0.3139 -0.0076  0.0407
  392MOL0     C53999  13.851   2.328   6.196  0.3011  1.2502  0.2168
  392MOL0     C54000  13.929   2.424   6.114  0.0713 -0.8705  0.3346
  392MOL0     C54001  14.022   2.355   6.011  0.6129 -0.3157 -0.5286
  392MOL0     C54002  14.141   2.432   5.953 -0.0242 -0.3452 -0.4602
  392MOL0    Cl54003  14.209   2.536   6.082  0.0636  0.4413  0.0197
  392MOL0     C54004  13.204   2.173   6.420  0.1651 -0.2791  0.5145
  392MOL0     C54005  13.074   2.121   6.425 -0.0947 -0.7935 -0.5415
  392MOL0     O54006  12.717   2.303   6.356 -0.2278  0.7357  0.1898
  392MOL0     C54007  12.614   1.973   6.404  0.2043  0.4952  0.5685
  392MOL0     C54008  12.505   1.885   6.408 -0.9614  0.4262 -0.4108
  392MOL0     N54009  12.015   1.951   6.679  0.0737  0.3698 -0.3998
  392MOL0     N54010  12.049   2.006   6.792  0.6199  0.2482  0.1687
  392MOL0     C54011  11.050   2.363   7.011 -0.4763  0.3858  0.2601
  392MOL0     C54012  10.917   2.331   6.998  0.4378 -0.2103  1.5583
  392MOL0     C54013  10.529   2.066   7.099  0.8821 -0.5673 -0.2644
  392MOL0     C54014  10.448   2.170   7.154 -0.9275  0.3323  0.3201
  392MOL0     C54015  10.306   2.157   7.165 -0.2113  0.2681 -0.2576
  392MOL0     C54016  10.241   2.037   7.140 -0.6963  0.8764 -0.2371
  392MOL0     O54017  10.110   2.034   7.172 -0.2383  0.0426  0.4576
  392MOL0     C54018  10.067   1.911   7.241 -0.0694  0.8244  0.0635
  392MOL0     C54019   9.995   1.813   7.165  0.1279 -0.6786  0.5954
  392MOL0     C54020   9.855   1.853   7.113 -0.3609 -0.5027  0.3620
  392MOL0     C54021   9.753   1.873   7.223 -1.1713  0.0745  0.0743
  392MOL0     C54022   9.611   1.876   7.173 -0.3952  0.0752 -0.3098
  392MOL0     C54023   9.491   1.872   7.139  0.1231 -0.1289 -0.1889
  392MOL0     C54024  10.317   1.926   7.102 -0.3605  0.5207  0.0952
  392MOL0     C54025  10.460   1.935   7.081  0.8918  0.3489 -0.7615
  392MOL0     C54026  10.533   1.816   7.015 -0.3658  0.1857  0.2343
  392MOL0     H54027  10.862   2.166   7.288  0.4616 -0.3965 -0.1061
  392MOL0     H54028  11.092   2.240   7.326  1.6629 -1.2892 -1.2107
  392MOL0     H54029  11.297   2.531   7.051  0.9277  0.3889 -2.3758
  392MOL0     H54030  11.327   2.390   6.963  2.1309  0.5795  0.0590
  392MOL0     H54031  11.538   2.492   7.052  0.6287 -2.2799 -2.0060
  392MOL0     H54032  11.480   2.458   7.209 -1.7241 -2.4721  0.5553
  392MOL0     H54033  11.474   2.207   7.155  2.1758 -1.3752  1.9957
  392MOL0     H54034  11.562   2.237   7.010 -0.3883 -0.2910  1.0158
  392MOL0     H54035  11.740   2.339   7.115 -0.2773 -0.2079 -0.3385
  392MOL0     H54036  11.669   2.343   7.273  4.1311  0.0458 -0.0921
  392MOL0     H54037  11.662   2.073   7.258 -0.2618  1.5190  1.4799
  392MOL0     H54038  11.809   2.161   7.299 -0.6585  0.9057  0.3026
  392MOL0     H54039  11.742   2.061   7.022 -0.6211 -1.4649  1.1538
  392MOL0     H54040  11.876   2.163   7.038 -0.9043 -0.3378 -2.9453
  392MOL0     H54041  11.854   1.874   7.105 -3.6688  1.0976  1.3445
  392MOL0     H54042  11.940   1.966   7.232  1.8703  4.2060 -0.0758
  392MOL0     H54043  12.084   2.063   7.024  0.6930 -0.4286 -3.8496
  392MOL0     H54044  12.097   1.891   7.082 -0.3766 -1.5283 -2.3538
  392MOL0     H54045  11.924   1.729   6.903  0.7454 -0.9744 -1.3171
  392MOL0     H54046  11.817   1.750   6.561 -1.1246 -1.6700 -0.4159
  392MOL0     H54047  11.849   1.639   6.695 -0.5935  0.4819 -0.3926
  392MOL0     H54048  12.096   1.605   6.589 -0.2243 -2.8704 -2.5316
  392MOL0     H54049  11.966   1.570   6.483 -1.6308 -0.2404  1.2066
  392MOL0     H54050  12.079   1.695   6.339 -2.1800 -0.9242  0.6834
  392MOL0     H54051  12.035   1.837   6.423 -0.6861 -0.2762  2.2052
  392MOL0     H54052  12.248   1.840   6.544 -0.2021  0.1103 -0.8606
  392MOL0     H54053  12.298   1.684   6.475  1.0151  1.5185  0.0617
  392MOL0     H54054  12.284   2.070   6.236 -1.8464 -0.3719  3.2104
  392MOL0     H54055  12.356   2.288   6.248  0.0826 -1.4474  0.4456
  392MOL0     H54056  12.459   2.268   6.104 -0.7732  0.9000 -0.9608
  392MOL0     H54057  12.523   2.337   6.242  1.4068 -1.7742  0.8915
  392MOL0     H54058  12.923   2.309   6.198 -1.2758 -2.0672  0.5738
  392MOL0     H54059  13.164   2.415   6.193 -0.0860  1.0677  1.1658
  392MOL0     H54060  13.361   2.398   6.531 -1.4246  2.1025 -2.9334
  392MOL0     H54061  13.449   2.240   6.485 -0.5541 -0.1611  0.2755
  392MOL0     H54062  13.522   2.520   6.402 -3.7286  0.2718  2.3952
  392MOL0     H54063  13.590   2.438   6.541  1.3427  0.3701 -0.5790
  392MOL0     H54064  13.600   2.268   6.293 -1.2338 -1.1062  1.9375
  392MOL0     H54065  13.713   2.278   6.430  0.8274 -0.8214 -1.2505
  392MOL0     H54066  13.815   2.474   6.363 -0.1161  1.0520 -0.4034
  392MOL0     H54067  13.705   2.486   6.221 -1.3930 -0.4212  0.9639
  392MOL0     H54068  13.915   2.256   6.248 -0.6938  1.1695  1.3942
  392MOL0     H54069  13.791   2.267   6.128 -0.9271  1.2687  1.2276
  392MOL0     H54070  13.974   2.499   6.180  0.6260 -1.9907  1.2636
  392MOL0     H54071  13.867   2.477   6.042  1.3178 -0.8285 -0.7424
  392MOL0     H54072  13.975   2.326   5.917 -1.4858  0.7903  0.1085
  392MOL0     H54073  14.074   2.274   6.063 -0.0586  0.1131  0.8816
  392MOL0     H54074  14.107   2.498   5.873  0.9470 -1.0405 -1.4718
  392MOL0     H54075  14.211   2.366   5.903  0.9996 -0.9760  1.6827
  392MOL0     H54076  13.276   2.138   6.492  1.0618  2.0575  0.8294
  392MOL0     H54077  13.052   2.046   6.500 -1.4884  1.4480  1.4261
  392MOL0     H54078  12.704   1.939   6.454  1.1247 -1.1245 -2.0071
  392MOL0     H54079  12.511   1.794   6.467  0.4979  0.9142  0.2522
  392MOL0     H54080  11.095   2.424   6.934 -2.6809 -0.1713 -1.5605
  392MOL0     H54081  10.862   2.361   6.909 -0.4436  0.9907  2.4855
  392MOL0     H54082  10.485   2.271   7.165 -1.1489  0.6598 -1.5880
  392MOL0     H54083  10.243   2.238   7.200  0.7410  0.0209  2.2305
  392MOL0     H54084  10.152   1.858   7.285 -0.9357  1.2193  2.3702
  392MOL0     H54085  10.011   1.940   7.331 -2.6737 -0.2889 -1.1145
  392MOL0     H54086   9.989   1.716   7.215  1.5513 -0.2200  1.7221
  392MOL0     H54087  10.054   1.797   7.074  0.1391  0.8832  0.2996
  392MOL0     H54088   9.870   1.944   7.054  1.2937  0.9114  2.7565
  392MOL0     H54089   9.821   1.775   7.045 -2.6723  0.8437 -0.1172
  392MOL0     H54090   9.776   1.969   7.270 -0.4170 -0.9009  1.7667
  392MOL0     H54091   9.757   1.794   7.298 -0.2762 -0.9165 -0.9805
  392MOL0     H54092   9.386   1.874   7.119 -1.0470  6.9748  3.5092
  392MOL0     H54093  10.263   1.834   7.086  0.4491  0.1610 -0.6652
  392MOL0     H54094  10.635   1.800   7.052  0.4838 -0.5950 -2.2576
  392MOL0     H54095  10.481   1.720   7.020 -1.7510  0.8547 -0.6861
  392MOL0     H54096  10.540   1.848   6.911 -3.0138 -1.7146 -0.6158
  393MOL0     O54097   8.987   4.917   4.272  0.3598  0.1549  0.6326
  393MOL0     C54098   8.942   4.960   4.165  0.8469  0.5311  0.4865
  393MOL0     O54099   9.004   5.045   4.083 -0.2745 -0.0617  0.6173
  393MOL0     C54100   9.133   5.059   4.119  0.2666  0.2181 -0.1349
  393MOL0     C54101   9.223   4.999   4.035 -0.7719  0.7179  0.3586
  393MOL0     C54102   9.359   5.008   4.060 -0.2491 -0.2341  0.7662
  393MOL0     C54103   9.409   5.072   4.170  0.5485  0.4125  0.2309
  393MOL0     O54104   9.537   5.089   4.194 -0.9023  0.1659 -0.5990
  393MOL0     C54105   9.646   5.019   4.126 -0.1020 -0.0189  0.1405
  393MOL0     C54106   9.778   5.046   4.212 -1.3613 -0.2335 -0.7220
  393MOL0     C54107   9.831   5.186   4.188 -0.3307  0.6690  0.1904
  393MOL0     C54108   9.956   5.214   4.274 -0.1786 -0.1371 -0.6567
  393MOL0     C54109  10.059   5.315   4.216  0.8174  0.4029  0.0684
  393MOL0     C54110  10.167   5.351   4.327  0.3483  1.0759 -0.4987
  393MOL0     C54111  10.246   5.480   4.289 -0.3503 -0.1270  0.7363
  393MOL0     C54112  10.349   5.456   4.175 -0.0256 -0.1428  0.3609
  393MOL0     N54113  10.408   5.589   4.161 -0.3164 -0.1359  0.1692
  393MOL0     C54114  10.352   5.696   4.095  0.0212 -0.3490  0.4591
  393MOL0     C54115  10.409   5.808   4.140 -0.4004  0.4713  0.3846
  393MOL0     C54116  10.387   5.954   4.100  0.8005  1.0401 -0.0134
  393MOL0     C54117  10.449   5.987   3.960 -0.2304 -0.6837  0.5775
  393MOL0     C54118  10.608   5.996   3.944 -1.0638  0.0865  0.3442
  393MOL0     C54119  10.693   6.071   4.053  0.5911  0.7449 -0.1314
  393MOL0     O54120  10.827   6.076   4.010  0.0790 -0.1654  0.5438
  393MOL0     C54121  10.902   5.960   4.023  1.1222 -0.4372 -0.0318
  393MOL0     C54122  10.858   5.841   4.102  0.0394  0.2074  0.3148
  393MOL0     C54123  10.945   5.744   4.138  0.1064  0.9639 -0.0915
  393MOL0     C54124  10.890   5.633   4.228 -0.1143  0.6178 -0.2806
  393MOL0     C54125  11.087   5.765   4.110  0.2184 -0.1165 -0.2951
  393MOL0     C54126  11.196   5.673   4.162 -0.2725  0.0049 -0.2706
  393MOL0     O54127  11.315   5.682   4.091 -0.5055  0.5174 -0.4677
  393MOL0     C54128  11.415   5.595   4.122  0.0443  0.0548 -0.2834
  393MOL0     C54129  11.546   5.627   4.086 -0.0948 -0.1812  0.4362
  393MOL0     C54130  11.653   5.549   4.108 -0.4292 -1.0688 -0.2334
  393MOL0     C54131  11.638   5.434   4.178 -0.7160 -0.1794  0.2490
  393MOL0     O54132  11.750   5.360   4.213  0.3833 -0.1014  0.5541
  393MOL0     C54133  11.873   5.431   4.233 -0.1976  0.2669 -0.7798
  393MOL0     C54134  11.978   5.349   4.297  0.6530  0.8615 -0.3458
  393MOL0     C54135  11.928   5.286   4.423 -0.1906  0.0687 -0.8327
  393MOL0     C54136  12.002   5.146   4.457  0.2635  0.1679  0.0526
  393MOL0     C54137  11.962   5.099   4.597  0.0812 -0.1918  0.3739
  393MOL0     C54138  12.049   4.986   4.649 -0.1768 -0.2294 -0.9695
  393MOL0     C54139  11.986   4.936   4.778 -0.4120 -0.3389 -0.5725
  393MOL0     C54140  11.880   4.830   4.748  0.5237  0.4989 -0.2088
  393MOL0    Cl54141  11.919   4.715   4.615  0.0038 -0.1964  0.3351
  393MOL0     C54142  11.515   5.379   4.207  0.8491  0.1746 -0.0262
  393MOL0     C54143  11.399   5.465   4.182 -1.4738  0.0319  0.0587
  393MOL0     O54144  11.176   5.609   4.262  0.1653  0.0114 -0.5681
  393MOL0     C54145  11.123   5.866   4.030  0.1185 -0.6061  0.1582
  393MOL0     C54146  11.028   5.957   3.981  0.7255 -0.2325 -0.4062
  393MOL0     N54147  10.514   5.766   4.219 -0.1165 -0.8798 -0.1970
  393MOL0     N54148  10.518   5.638   4.230  0.8104 -0.7961 -0.5070
  393MOL0     C54149   9.321   5.134   4.263 -0.8195 -0.1293 -0.1710
  393MOL0     C54150   9.183   5.131   4.231  0.3872 -1.2405  0.1706
  393MOL0     C54151   8.787   4.955   4.137 -0.7948  0.8881  0.3313
  393MOL0     C54152   8.728   5.031   4.044  0.0810 -0.0565  0.6368
  393MOL0     C54153   8.588   5.026   4.010 -0.3715  0.4072  0.2741
  393MOL0     C54154   8.504   4.943   4.079  0.7073 -0.1674 -1.2066
  393MOL0     O54155   8.369   4.943   4.048 -0.4124 -0.1459  0.8211
  393MOL0     C54156   8.269   4.850   4.092 -0.9350  0.4848 -0.3583
  393MOL0     C54157   8.172   4.817   3.974  0.1812 -0.2835 -0.2585
  393MOL0     C54158   8.045   4.744   4.011  0.7138 -0.4719 -0.0270
  393MOL0     C54159   7.972   4.697   3.890 -0.4115 -0.2439  1.3509
  393MOL0     C54160   7.914   4.823   3.836  0.1510  0.6959  1.2544
  393MOL0     C54161   7.858   4.921   3.784  0.2180 -0.1454  0.3602
  393MOL0     C54162   8.564   4.872   4.183  0.3951  0.3534 -0.8257
  393MOL0     C54163   8.705   4.873   4.208  0.8913 -0.1753 -0.1177
  393MOL0     C54164   8.749   4.780   4.323 -0.0103 -0.7911 -0.0244
  393MOL0     H54165   9.173   4.942   3.958 -1.5095  2.2877 -0.3834
  393MOL0     H54166   9.419   4.964   3.981 -0.7585 -0.1932  0.3487
  393MOL0     H54167   9.655   5.056   4.023 -0.9924 -1.3516 -0.4431
  393MOL0     H54168   9.643   4.910   4.125  1.2572 -0.0884  0.9750
  393MOL0     H54169   9.783   5.040   4.321  4.6744  0.4522 -0.6357
  393MOL0     H54170   9.856   4.973   4.192  0.1583  0.5322  1.8387
  393MOL0     H54171   9.857   5.192   4.082  3.1431 -1.1322  0.7819
  393MOL0     H54172   9.750   5.257   4.208 -0.3576  1.1360 -1.4490
  393MOL0     H54173   9.912   5.258   4.363  0.4833 -0.2223 -0.2815
  393MOL0     H54174  10.006   5.120   4.297  0.0981  0.3461  0.8183
  393MOL0     H54175   9.999   5.405   4.198  1.0696  0.2949 -1.4259
  393MOL0     H54176  10.113   5.279   4.129 -0.5132 -0.4808 -0.4227
  393MOL0     H54177  10.119   5.371   4.423 -0.1515 -1.9281 -0.0248
  393MOL0     H54178  10.226   5.260   4.339 -1.7294 -0.1509  1.1897
  393MOL0     H54179  10.307   5.517   4.372 -0.6698 -0.3361  1.0639
  393MOL0     H54180  10.171   5.557   4.270 -0.0324 -0.3913 -1.9077
  393MOL0     H54181  10.427   5.385   4.203  0.2720 -1.0962 -2.5816
  393MOL0     H54182  10.300   5.422   4.084  1.3080  1.3955 -1.0164
  393MOL0     H54183  10.279   5.699   4.014  1.4316  1.7960 -0.8205
  393MOL0     H54184  10.428   6.014   4.182  1.4363  2.1099 -1.0873
  393MOL0     H54185  10.279   5.965   4.095  0.4885 -1.1400  0.7633
  393MOL0     H54186  10.415   5.919   3.881 -0.5900  0.6222 -0.4212
  393MOL0     H54187  10.409   6.085   3.933  1.5692  0.3590  1.4592
  393MOL0     H54188  10.646   5.897   3.917 -2.3646  0.1601 -1.9777
  393MOL0     H54189  10.621   6.050   3.850  0.2348 -1.0341 -0.1550
  393MOL0     H54190  10.646   6.170   4.054 -0.4669  0.2817 -1.5943
  393MOL0     H54191  10.673   6.026   4.150 -3.3308 -0.7646 -1.4516
  393MOL0     H54192  10.754   5.840   4.132 -0.0812  0.0257 -0.1147
  393MOL0     H54193  10.781   5.630   4.229 -0.1388 -2.1507 -1.0840
  393MOL0     H54194  10.928   5.644   4.330  0.6109  1.7686 -0.6547
  393MOL0     H54195  10.924   5.536   4.190  1.4441  0.2349  1.9202
  393MOL0     H54196  11.567   5.718   4.032  3.1813 -0.6067  0.8098
  393MOL0     H54197  11.743   5.595   4.068 -1.2137 -0.6418 -1.5641
  393MOL0     H54198  11.920   5.476   4.145  1.9336  2.3211  1.2845
  393MOL0     H54199  11.850   5.515   4.299 -0.4080 -0.3402 -0.0587
  393MOL0     H54200  12.008   5.267   4.232  1.0164  1.5751 -1.0875
  393MOL0     H54201  12.070   5.408   4.307  1.4685  0.2628 -3.4004
  393MOL0     H54202  11.825   5.253   4.436 -0.2594  0.3419 -0.6737
  393MOL0     H54203  11.941   5.359   4.503 -3.6525 -1.6456  1.5808
  393MOL0     H54204  12.107   5.170   4.435  0.0311  1.8594  0.5857
  393MOL0     H54205  11.961   5.069   4.393 -1.5028 -0.6373  2.0186
  393MOL0     H54206  11.972   5.180   4.670  1.0558  0.9617 -0.9826
  393MOL0     H54207  11.857   5.068   4.592 -0.3717  1.3993 -2.2917
  393MOL0     H54208  12.149   5.029   4.662 -0.3312  0.8735 -3.0793
  393MOL0     H54209  12.062   4.907   4.574  2.0369 -1.3091  0.4147
  393MOL0     H54210  11.942   5.019   4.834  0.5983  0.3481 -0.7513
  393MOL0     H54211  12.058   4.889   4.846 -1.0069  0.4182  0.6266
  393MOL0     H54212  11.783   4.870   4.716  0.9700  0.6853 -1.4053
  393MOL0     H54213  11.850   4.777   4.839  2.9425  0.3974  0.6109
  393MOL0     H54214  11.505   5.277   4.244  0.1641  1.4023  3.6361
  393MOL0     H54215  11.304   5.414   4.194 -0.9669 -0.4904  2.2401
  393MOL0     H54216  11.228   5.887   4.015  0.2088 -0.6355  0.7107
  393MOL0     H54217  11.060   6.042   3.922  0.4305  0.7351  0.7849
  393MOL0     H54218   9.340   5.180   4.359  2.1409 -1.8868  0.1838
  393MOL0     H54219   9.110   5.181   4.295 -1.7609 -1.7873 -1.7359
  393MOL0     H54220   8.794   5.090   3.982  0.2730 -0.1534  0.7460
  393MOL0     H54221   8.574   5.089   3.923  5.7817 -2.1913 -3.2646
  393MOL0     H54222   8.318   4.766   4.142 -1.4172  2.2344  3.4280
  393MOL0     H54223   8.213   4.890   4.177  0.0221 -1.4601  1.2669
  393MOL0     H54224   8.217   4.755   3.896 -0.7250  0.8520 -1.7350
  393MOL0     H54225   8.141   4.910   3.927  1.4926  0.5096  0.3755
  393MOL0     H54226   8.068   4.649   4.061 -1.5645 -0.0712  1.9864
  393MOL0     H54227   7.985   4.811   4.074  0.8998  0.3466 -0.7115
  393MOL0     H54228   7.888   4.638   3.928  0.8338 -0.4634  3.9573
  393MOL0     H54229   8.040   4.645   3.822 -0.3457  2.0734 -0.4771
  393MOL0     H54230   7.815   5.006   3.735  3.6216  2.6549  1.7205
  393MOL0     H54231   8.507   4.810   4.251  1.4686  0.1352 -0.1021
  393MOL0     H54232   8.674   4.702   4.337  0.0452 -1.2368 -1.9161
  393MOL0     H54233   8.839   4.728   4.288  1.0106 -0.0787  1.4464
  393MOL0     H54234   8.766   4.830   4.418 -1.9993 -0.2589  0.0897
  394MOL0     O54235   8.706   8.379   4.791 -0.3422  0.0285  0.1745
  394MOL0     C54236   8.649   8.313   4.875  0.0054  0.3668  0.4880
  394MOL0     O54237   8.675   8.326   5.006 -0.4942 -0.2941  0.1399
  394MOL0     C54238   8.784   8.385   5.045  0.0580 -0.3641 -0.4933
  394MOL0     C54239   8.805   8.527   5.040  0.2094  0.2852  0.2415
  394MOL0     C54240   8.915   8.588   5.110  0.6277  0.6320  0.0691
  394MOL0     C54241   9.011   8.502   5.151 -1.0745 -0.0512 -0.3048
  394MOL0     O54242   9.133   8.544   5.198 -0.2170  0.3429 -0.4992
  394MOL0     C54243   9.181   8.679   5.153  0.0819  0.0291  0.7350
  394MOL0     C54244   9.312   8.720   5.219 -0.1657  0.0743  0.4335
  394MOL0     C54245   9.424   8.621   5.185  0.1838 -1.0571 -0.0265
  394MOL0     C54246   9.537   8.658   5.280 -0.3268 -0.3848  1.1671
  394MOL0     C54247   9.631   8.534   5.303  0.1598 -0.3675 -0.8412
  394MOL0     C54248   9.766   8.589   5.349 -0.5979  0.5985 -0.0770
  394MOL0     C54249   9.749   8.654   5.483 -0.1169  0.0426 -0.6135
  394MOL0     C54250   9.888   8.693   5.534 -0.7155  0.7191 -0.2696
  394MOL0     N54251   9.887   8.767   5.661 -0.6557 -0.0679 -0.4934
  394MOL0     C54252   9.854   8.722   5.785  0.3126  0.5377  0.3872
  394MOL0     C54253   9.853   8.838   5.859 -0.0259  0.1962  0.5212
  394MOL0     C54254   9.804   8.834   6.004 -0.9709 -0.1487 -0.5351
  394MOL0     C54255   9.904   8.768   6.113 -0.8460 -0.0918  0.1733
  394MOL0     C54256   9.875   8.615   6.110 -1.0570 -0.0617 -0.2612
  394MOL0     C54257   9.966   8.542   6.195 -0.1633  0.4492 -0.6969
  394MOL0     O54258  10.105   8.538   6.144  0.4756 -0.6897  0.8239
  394MOL0     C54259  10.207   8.457   6.198 -0.1814 -1.0102  0.0338
  394MOL0     C54260  10.183   8.367   6.311 -0.0608 -0.9586  0.2808
  394MOL0     C54261  10.291   8.309   6.377  0.0639 -0.0152  0.1116
  394MOL0     C54262  10.269   8.251   6.509 -0.3497 -1.0570  0.3232
  394MOL0     C54263  10.416   8.337   6.320  0.3414 -0.8594 -0.2125
  394MOL0     C54264  10.536   8.302   6.390 -0.2090  0.2693  0.2870
  394MOL0     O54265  10.600   8.404   6.453  0.1234 -0.4932  0.0530
  394MOL0     C54266  10.704   8.372   6.539  0.4814  0.4213  0.6964
  394MOL0     C54267  10.826   8.433   6.513 -0.1410 -0.1312 -0.2429
  394MOL0     C54268  10.937   8.409   6.591 -0.3192  0.2539 -1.0205
  394MOL0     C54269  10.922   8.350   6.717 -0.7214  0.7650 -0.3089
  394MOL0     O54270  11.033   8.341   6.796  0.3814  0.1207  0.3663
  394MOL0     C54271  11.029   8.259   6.907  0.9890  0.1313 -0.5078
  394MOL0     C54272  11.156   8.267   6.987  0.3826  0.1678 -0.7068
  394MOL0     C54273  11.278   8.263   6.894  0.1362  0.0361  0.6974
  394MOL0     C54274  11.275   8.137   6.799  0.0212 -0.1033  0.4087
  394MOL0     C54275  11.410   8.115   6.729 -0.3051 -0.3903 -0.1516
  394MOL0     C54276  11.538   8.081   6.812  0.3412 -0.2027 -0.5619
  394MOL0     C54277  11.548   7.928   6.840 -0.1356  0.3893 -0.0872
  394MOL0     C54278  11.430   7.880   6.933  0.0861 -0.3136 -0.2761
  394MOL0    Cl54279  11.401   7.976   7.077  0.1386  0.1190  0.4886
  394MOL0     C54280  10.799   8.289   6.748  0.5411 -0.0550  0.0074
  394MOL0     C54281  10.692   8.300   6.660  0.5043  0.6515  0.8044
  394MOL0     O54282  10.568   8.181   6.398  0.3575  0.0910  0.2933
  394MOL0     C54283  10.441   8.418   6.210  0.3114 -0.4607  0.4290
  394MOL0     C54284  10.331   8.484   6.147  0.0400  0.4918 -0.5165
  394MOL0     N54285   9.902   8.942   5.790 -0.1746 -0.3069  0.2251
  394MOL0     N54286   9.922   8.903   5.672 -0.6910  0.1363 -0.6093
  394MOL0     C54287   8.997   8.365   5.142  1.4686  0.2648 -0.4632
  394MOL0     C54288   8.880   8.306   5.095  0.4034  0.3021  1.0720
  394MOL0     C54289   8.553   8.211   4.832 -0.1810 -0.3483 -0.2283
  394MOL0     C54290   8.489   8.127   4.932 -1.0240  0.5764 -0.4368
  394MOL0     C54291   8.419   8.005   4.907  0.5647 -1.3571 -0.0056
  394MOL0     C54292   8.407   7.966   4.765  0.6077  0.2218  0.4931
  394MOL0     O54293   8.333   7.853   4.727  0.3793 -0.5550 -0.5684
  394MOL0     C54294   8.236   7.799   4.822 -0.4223 -0.2117 -0.4177
  394MOL0     C54295   8.146   7.707   4.744  0.2489 -0.4774  0.6402
  394MOL0     C54296   8.003   7.750   4.721 -0.6899 -0.1038 -0.6567
  394MOL0     C54297   7.933   7.762   4.855  0.7518 -0.0167  0.4202
  394MOL0     C54298   7.903   7.906   4.878 -0.5328  0.4617  1.6438
  394MOL0     C54299   7.866   8.019   4.905  0.1960  0.0749  0.1259
  394MOL0     C54300   8.475   8.041   4.671 -0.3756 -0.1390  0.1263
  394MOL0     C54301   8.534   8.166   4.700 -0.3768  0.3554  0.8886
  394MOL0     C54302   8.589   8.251   4.584  0.7770 -1.3436  0.1885
  394MOL0     H54303   8.729   8.592   4.999  1.4328  0.0752 -2.6053
  394MOL0     H54304   8.930   8.694   5.127 -0.7998  0.7930  0.4722
  394MOL0     H54305   9.112   8.763   5.168  2.0823  1.6518  1.3547
  394MOL0     H54306   9.195   8.673   5.045 -2.6653  1.5469  0.1927
  394MOL0     H54307   9.345   8.820   5.190  3.1690 -0.4105  2.0297
  394MOL0     H54308   9.300   8.717   5.328  1.1603 -0.3095  0.5830
  394MOL0     H54309   9.392   8.517   5.198 -0.5945 -1.0390 -1.5974
  394MOL0     H54310   9.454   8.635   5.081 -2.7918  0.3034 -0.8082
  394MOL0     H54311   9.602   8.733   5.234  0.3200 -1.2326  0.6451
  394MOL0     H54312   9.506   8.696   5.377  2.1090 -0.5723  2.1078
  394MOL0     H54313   9.652   8.476   5.212  1.1818  0.1441 -0.9416
  394MOL0     H54314   9.589   8.472   5.383  1.3188  1.7465  1.5626
  394MOL0     H54315   9.841   8.510   5.361  0.3593  1.6321  1.0200
  394MOL0     H54316   9.814   8.663   5.284  1.9425 -0.8304  0.0355
  394MOL0     H54317   9.699   8.585   5.552  1.9375  0.3245  1.2611
  394MOL0     H54318   9.681   8.739   5.484 -3.9856 -2.7543  1.7016
  394MOL0     H54319   9.932   8.597   5.561  0.0154  0.4714 -2.2040
  394MOL0     H54320   9.957   8.735   5.460 -1.5807  0.0625 -1.4744
  394MOL0     H54321   9.834   8.618   5.811 -1.9040  0.3014 -1.8031
  394MOL0     H54322   9.706   8.786   6.006 -0.9287 -0.2782 -1.4154
  394MOL0     H54323   9.781   8.937   6.034  0.8273 -0.5908  2.8700
  394MOL0     H54324  10.009   8.797   6.101 -0.7988 -0.3338  0.0054
  394MOL0     H54325   9.875   8.814   6.209 -0.7510 -0.2701  0.2875
  394MOL0     H54326   9.773   8.600   6.149  0.3217 -0.0788  3.8026
  394MOL0     H54327   9.877   8.570   6.010 -2.4455  0.0674 -0.3759
  394MOL0     H54328   9.947   8.591   6.291  1.0530 -1.1888  0.4348
  394MOL0     H54329   9.938   8.437   6.207  0.4476  0.3469 -0.0653
  394MOL0     H54330  10.082   8.365   6.350 -0.6978  3.7245 -0.5494
  394MOL0     H54331  10.165   8.225   6.534 -1.6543  2.8106 -0.3114
  394MOL0     H54332  10.319   8.313   6.584 -0.9775  1.1734 -1.0221
  394MOL0     H54333  10.318   8.153   6.514 -1.2524 -1.5029  0.8266
  394MOL0     H54334  10.840   8.482   6.417  1.8347 -1.8355 -0.9024
  394MOL0     H54335  11.040   8.426   6.562  0.6084 -0.1801  1.7462
  394MOL0     H54336  10.948   8.287   6.975  0.8499 -2.7641  0.6568
  394MOL0     H54337  11.008   8.157   6.874 -4.6002  1.4761 -2.1363
  394MOL0     H54338  11.165   8.360   7.043 -3.0339 -0.6085  1.4835
  394MOL0     H54339  11.148   8.182   7.056  0.1614  0.3045 -0.5635
  394MOL0     H54340  11.375   8.266   6.945 -0.8193  0.8692  2.5434
  394MOL0     H54341  11.266   8.355   6.835 -2.5731  0.1773  1.3490
  394MOL0     H54342  11.199   8.158   6.724  1.7395 -1.7901 -1.9217
  394MOL0     H54343  11.248   8.047   6.854  1.4903 -0.4938  0.5159
  394MOL0     H54344  11.393   8.040   6.651 -0.6725 -1.2126  0.7036
  394MOL0     H54345  11.434   8.212   6.684 -0.8447 -0.3165 -0.2821
  394MOL0     H54346  11.537   8.127   6.911  1.1610  0.7638 -0.9845
  394MOL0     H54347  11.631   8.112   6.763  2.1613  0.4864  2.9934
  394MOL0     H54348  11.632   7.901   6.904 -1.6826 -0.5609  1.6465
  394MOL0     H54349  11.546   7.873   6.745 -0.1035 -0.3907  0.3508
  394MOL0     H54350  11.458   7.783   6.975  0.0705 -0.7556 -1.2581
  394MOL0     H54351  11.335   7.865   6.880 -0.4944 -3.7093  1.4400
  394MOL0     H54352  10.771   8.248   6.845  1.2130  2.8628  1.5608
  394MOL0     H54353  10.606   8.237   6.682  2.2418 -1.7602  1.1269
  394MOL0     H54354  10.542   8.438   6.177  0.7648 -1.9348  0.8526
  394MOL0     H54355  10.333   8.552   6.062  0.0326 -0.0533 -0.9597
  394MOL0     H54356   9.072   8.299   5.184  0.9020 -0.0618  0.0461
  394MOL0     H54357   8.867   8.199   5.081 -0.2289  0.7665 -3.0001
  394MOL0     H54358   8.507   8.148   5.037 -2.0353 -1.5769  0.2336
  394MOL0     H54359   8.398   7.946   4.995  2.6380 -0.9295  0.8423
  394MOL0     H54360   8.288   7.739   4.898 -1.8343 -1.7637 -0.6122
  394MOL0     H54361   8.182   7.880   4.871 -1.7386 -1.0819 -0.3820
  394MOL0     H54362   8.135   7.601   4.771 -0.5741 -0.8208 -0.9024
  394MOL0     H54363   8.182   7.699   4.641  0.4151 -1.1191  0.7422
  394MOL0     H54364   8.009   7.838   4.657  0.6314 -0.1317 -0.5966
  394MOL0     H54365   7.942   7.685   4.658 -2.1403 -0.0007  0.5645
  394MOL0     H54366   7.996   7.721   4.934 -1.1637  0.0525  2.0659
  394MOL0     H54367   7.844   7.698   4.850  3.0992 -3.4423 -3.4119
  394MOL0     H54368   7.834   8.119   4.928  1.2669  0.3421  0.4932
  394MOL0     H54369   8.475   8.018   4.565  1.4648  1.8593 -0.3864
  394MOL0     H54370   8.697   8.236   4.572  1.2799  2.2339 -0.7631
  394MOL0     H54371   8.545   8.209   4.493 -2.1517 -0.5935  1.1485
  394MOL0     H54372   8.556   8.355   4.588  3.0261 -0.4476 -2.2215
  395MOL0     O54373   9.945   2.526   0.090  0.4469  1.0598 -0.4754
  395MOL0     C54374  10.028   2.529   0.004 -0.1464 -0.2769 -0.0750
  395MOL0     O54375  10.005   2.569  -0.126  0.3976  0.5336 -0.1979
  395MOL0     C54376   9.883   2.616  -0.163  0.5905  0.0993 -0.1960
  395MOL0     C54377   9.777   2.527  -0.188  0.3630 -0.7789 -0.4060
  395MOL0     C54378   9.649   2.583  -0.218 -0.4257 -0.1915  0.3556
  395MOL0     C54379   9.622   2.717  -0.217 -0.0737 -0.8919  0.6491
  395MOL0     O54380   9.500   2.774  -0.240  0.8504  0.2820  0.1955
  395MOL0     C54381   9.454   2.747  -0.373 -0.4071  0.2017  0.2503
  395MOL0     C54382   9.313   2.785  -0.387  0.4522  0.7251 -0.9969
  395MOL0     C54383   9.279   2.934  -0.377  0.4482  0.0392  0.4883
  395MOL0     C54384   9.343   3.027  -0.476  0.2621  0.2822 -0.1978
  395MOL0     C54385   9.294   3.171  -0.475  0.2716  0.2781 -1.0943
  395MOL0     C54386   9.308   3.234  -0.333  0.7062  0.9071 -0.2734
  395MOL0     C54387   9.259   3.387  -0.332 -0.2053  0.2726  0.1940
  395MOL0     C54388   9.111   3.418  -0.375  0.5133  0.0979  1.0849
  395MOL0     N54389   9.125   3.524  -0.479 -0.6139 -0.9887 -0.4277
  395MOL0     C54390   9.109   3.502  -0.616  0.6418 -0.0656 -0.1338
  395MOL0     C54391   9.120   3.626  -0.669 -0.5632  0.6010  0.0570
  395MOL0     C54392   9.104   3.667  -0.813  0.5639  0.4459 -0.3959
  395MOL0     C54393   9.218   3.753  -0.864 -0.3967  0.5395  0.4086
  395MOL0     C54394   9.355   3.686  -0.839 -0.8529 -0.1903 -0.0013
  395MOL0     C54395   9.475   3.761  -0.918 -0.2178  0.1049 -0.5880
  395MOL0     O54396   9.615   3.725  -0.887 -0.3189  0.6692 -0.1146
  395MOL0     C54397   9.706   3.692  -0.985  0.2379  0.0307 -0.3185
  395MOL0     C54398   9.712   3.750  -1.109  0.4787 -0.3071  0.2825
  395MOL0     C54399   9.802   3.713  -1.204 -0.3064  0.3355 -1.1087
  395MOL0     C54400   9.807   3.773  -1.340 -0.1523  0.1535 -0.6942
  395MOL0     C54401   9.900   3.615  -1.171 -0.0141 -0.3863 -0.0963
  395MOL0     C54402   9.995   3.557  -1.271 -0.6038 -0.3237 -1.2620
  395MOL0     O54403  10.111   3.507  -1.227  0.9567  0.2148 -0.1738
  395MOL0     C54404  10.183   3.431  -1.321 -0.3308  0.3121  0.7858
  395MOL0     C54405  10.269   3.492  -1.411 -0.8658  0.1766 -0.2626
  395MOL0     C54406  10.343   3.424  -1.501 -0.0121  0.4281  0.9483
  395MOL0     C54407  10.331   3.284  -1.506 -0.0251  0.2967  1.2299
  395MOL0     O54408  10.412   3.214  -1.592 -0.2682  0.0245  0.2939
  395MOL0     C54409  10.458   3.082  -1.548 -0.6424 -0.4734 -0.7235
  395MOL0     C54410  10.557   3.028  -1.661  0.6767  0.9811 -0.2730
  395MOL0     C54411  10.594   2.879  -1.644 -0.4938  0.1545  0.7347
  395MOL0     C54412  10.650   2.821  -1.777  1.1537 -0.5073  0.2111
  395MOL0     C54413  10.706   2.685  -1.751  0.1116 -0.1032  0.3312
  395MOL0     C54414  10.857   2.690  -1.736  0.1053 -0.0817 -1.5631
  395MOL0     C54415  10.911   2.542  -1.773  0.4937 -0.0709  0.6409
  395MOL0     C54416  11.063   2.537  -1.792  0.2380 -0.7877  0.0683
  395MOL0    Cl54417  11.106   2.376  -1.840 -0.2542  0.3711  0.2341
  395MOL0     C54418  10.244   3.215  -1.431 -0.0762  0.5191 -0.3091
  395MOL0     C54419  10.165   3.290  -1.331 -0.0499  0.1509 -0.0666
  395MOL0     O54420   9.949   3.540  -1.377  0.0984  0.5597  1.0431
  395MOL0     C54421   9.900   3.559  -1.041 -0.5782 -0.3578  0.6189
  395MOL0     C54422   9.801   3.601  -0.948  1.3127  0.4475 -0.0483
  395MOL0     N54423   9.164   3.713  -0.571  0.4031 -0.4849 -0.4379
  395MOL0     N54424   9.168   3.656  -0.453 -0.4588  0.2368 -0.1389
  395MOL0     C54425   9.729   2.802  -0.181 -0.2806 -0.2418  0.1881
  395MOL0     C54426   9.858   2.756  -0.152 -0.0736 -0.5266  1.3584
  395MOL0     C54427  10.166   2.488   0.044 -0.0434 -0.1447  0.5778
  395MOL0     C54428  10.271   2.542  -0.031 -0.2992  0.5897 -0.9347
  395MOL0     C54429  10.401   2.502  -0.005 -0.2775  0.2435  0.1396
  395MOL0     C54430  10.420   2.405   0.092 -1.0006  0.3834 -0.3359
  395MOL0     O54431  10.554   2.349   0.086  0.3228  0.5381  0.2716
  395MOL0     C54432  10.652   2.419   0.168  0.6836 -0.5886  1.3617
  395MOL0     C54433  10.773   2.438   0.084  0.2873  0.1439  0.7909
  395MOL0     C54434  10.866   2.313   0.079 -0.2814  0.1801 -1.1943
  395MOL0     C54435  10.946   2.307  -0.053 -0.0302  0.6431  0.5745
  395MOL0     C54436  11.022   2.430  -0.075  0.3885 -0.5931  0.6644
  395MOL0     C54437  11.092   2.524  -0.101  0.1303 -0.6953  0.1972
  395MOL0     C54438  10.324   2.350   0.165  0.4117  0.2364  0.0874
  395MOL0     C54439  10.195   2.392   0.145 -0.3265  0.7955 -0.1206
  395MOL0     C54440  10.100   2.312   0.223  0.0094  1.0502  0.6321
  395MOL0     H54441   9.798   2.421  -0.175  0.6507 -0.6229  0.4688
  395MOL0     H54442   9.572   2.514  -0.249  0.5751 -1.8703  1.4430
  395MOL0     H54443   9.467   2.644  -0.405  0.1460  0.8065 -1.5823
  395MOL0     H54444   9.504   2.818  -0.440 -1.8482  0.4265 -0.6244
  395MOL0     H54445   9.283   2.754  -0.487  2.7107 -4.0714 -0.4459
  395MOL0     H54446   9.250   2.726  -0.320  0.4287  1.5184 -0.2945
  395MOL0     H54447   9.170   2.950  -0.381  0.0747 -2.0851  0.8453
  395MOL0     H54448   9.307   2.967  -0.276  0.3099  1.3619  0.1153
  395MOL0     H54449   9.451   3.029  -0.459  0.2252  3.4240  0.1283
  395MOL0     H54450   9.322   2.987  -0.575 -1.1542 -0.1914  0.2717
  395MOL0     H54451   9.191   3.178  -0.512 -0.8831  0.6750  1.8984
  395MOL0     H54452   9.363   3.228  -0.537  1.7740 -0.0501  0.2043
  395MOL0     H54453   9.260   3.176  -0.254  2.4274  0.7449  0.6981
  395MOL0     H54454   9.417   3.234  -0.319  0.6567 -2.1022  0.7062
  395MOL0     H54455   9.332   3.434  -0.399 -0.1389 -0.2997 -0.1450
  395MOL0     H54456   9.277   3.432  -0.234  2.1556 -0.7288  0.2814
  395MOL0     H54457   9.057   3.334  -0.420 -0.9818  1.9738 -0.7923
  395MOL0     H54458   9.059   3.466  -0.292  0.7704  1.8313  0.2706
  395MOL0     H54459   9.072   3.414  -0.667  2.1413 -0.0332 -1.3478
  395MOL0     H54460   9.008   3.718  -0.819 -0.7683 -1.4077  2.6750
  395MOL0     H54461   9.101   3.571  -0.865 -0.3208  1.1811 -1.7594
  395MOL0     H54462   9.209   3.782  -0.969 -0.3311  1.9893  0.7797
  395MOL0     H54463   9.221   3.848  -0.810 -2.3875  1.0446 -0.3096
  395MOL0     H54464   9.382   3.684  -0.734  0.8789  0.2197 -0.4043
  395MOL0     H54465   9.351   3.580  -0.867 -0.6762  0.2135 -1.6827
  395MOL0     H54466   9.452   3.753  -1.024 -2.7678  4.6987 -0.6062
  395MOL0     H54467   9.459   3.867  -0.896  1.2075 -0.1216  1.9254
  395MOL0     H54468   9.657   3.841  -1.128  1.9966  0.9884  1.7381
  395MOL0     H54469   9.909   3.802  -1.367 -0.2219  2.6463  1.3188
  395MOL0     H54470   9.750   3.866  -1.339 -0.7843 -0.0918  3.1772
  395MOL0     H54471   9.761   3.709  -1.416 -0.2164  0.6714 -1.0989
  395MOL0     H54472  10.276   3.599  -1.396  4.0164 -0.1360  1.8583
  395MOL0     H54473  10.423   3.465  -1.562  0.2153 -2.2919 -0.7789
  395MOL0     H54474  10.512   3.096  -1.454  0.8824 -4.9499 -0.7078
  395MOL0     H54475  10.384   3.005  -1.523  0.9008 -1.7327  0.1381
  395MOL0     H54476  10.507   3.040  -1.758 -2.7807  1.2934  1.4058
  395MOL0     H54477  10.652   3.082  -1.670  0.2164  1.8114 -0.2825
  395MOL0     H54478  10.504   2.819  -1.630  0.4367 -1.9588 -1.4602
  395MOL0     H54479  10.664   2.877  -1.559  1.1088 -1.5750 -0.5298
  395MOL0     H54480  10.724   2.894  -1.813  0.7809  0.5293  1.4574
  395MOL0     H54481  10.579   2.822  -1.860  1.5478  1.3009 -0.1581
  395MOL0     H54482  10.652   2.639  -1.668  0.3234  1.8805  1.6536
  395MOL0     H54483  10.687   2.624  -1.839 -0.6461  2.9564 -1.7656
  395MOL0     H54484  10.885   2.724  -1.636 -0.6803  0.8194 -1.6362
  395MOL0     H54485  10.907   2.760  -1.803  0.0258  3.0159  1.3684
  395MOL0     H54486  10.868   2.510  -1.868  0.1327 -1.5979  1.2989
  395MOL0     H54487  10.870   2.475  -1.696 -3.7059  1.7924  0.3112
  395MOL0     H54488  11.104   2.571  -1.696  1.9692  0.1595 -0.9503
  395MOL0     H54489  11.097   2.611  -1.865 -1.4027  0.0895  0.1434
  395MOL0     H54490  10.240   3.107  -1.434 -0.0285  0.4252  1.6993
  395MOL0     H54491  10.106   3.251  -1.249  0.3323 -0.8890 -0.2810
  395MOL0     H54492   9.974   3.492  -1.000 -0.2644  0.5032  1.5148
  395MOL0     H54493   9.788   3.558  -0.849 -0.4156 -0.5740 -0.6843
  395MOL0     H54494   9.698   2.906  -0.173 -3.7731 -0.8648 -2.8014
  395MOL0     H54495   9.936   2.829  -0.129 -3.2744  2.8262  2.4518
  395MOL0     H54496  10.274   2.617  -0.110  3.7213 -1.5859 -3.1239
  395MOL0     H54497  10.489   2.540  -0.057 -0.8455  1.1374 -0.1925
  395MOL0     H54498  10.600   2.513   0.189 -0.6279 -1.2142  0.9884
  395MOL0     H54499  10.675   2.376   0.266  0.2490  0.1763  1.8169
  395MOL0     H54500  10.835   2.512   0.135  1.7198  1.6277 -2.7762
  395MOL0     H54501  10.753   2.472  -0.018 -1.1024 -1.8486  0.3290
  395MOL0     H54502  10.936   2.309   0.162  0.3798  1.7619 -1.6344
  395MOL0     H54503  10.806   2.223   0.096  0.0034  0.2178  0.0602
  395MOL0     H54504  10.881   2.283  -0.137  2.1799  1.5516 -1.5089
  395MOL0     H54505  11.011   2.219  -0.040 -1.8123 -0.7411  0.5127
  395MOL0     H54506  11.150   2.614  -0.105 -0.1468 -0.5288 -0.0096
  395MOL0     H54507  10.344   2.275   0.241  1.5153 -0.2258 -0.6340
  395MOL0     H54508  10.009   2.292   0.167 -0.5543 -0.2557  1.9270
  395MOL0     H54509  10.138   2.211   0.245  0.0086  0.6825 -0.9679
  395MOL0     H54510  10.071   2.369   0.312 -0.9157  1.6977 -0.0650
  396MOL0     O54511   8.686   9.768   2.534 -0.9525 -0.0148 -0.2021
  396MOL0     C54512   8.595   9.716   2.460 -0.5547 -0.0310  0.4124
  396MOL0     O54513   8.585   9.743   2.334 -0.7358 -0.1166 -0.4217
  396MOL0     C54514   8.665   9.836   2.271 -0.8380  0.3690  0.5295
  396MOL0     C54515   8.627   9.962   2.211 -0.0023 -0.7112  0.7282
  396MOL0     C54516   8.728  10.047   2.161  0.0245 -0.3609  0.0810
  396MOL0     C54517   8.861  10.000   2.153  0.5592  0.7455 -0.5001
  396MOL0     O54518   8.965  10.078   2.111  0.1086 -0.6860 -0.6865
  396MOL0     C54519   8.922  10.186   2.029  0.0476 -0.3197  0.1793
  396MOL0     C54520   9.039  10.258   1.950  0.4594  0.4388 -0.4406
  396MOL0     C54521   8.992  10.383   1.876 -0.2322  0.4253 -1.4546
  396MOL0     C54522   9.075  10.414   1.753 -0.3030 -0.1497  0.2619
  396MOL0     C54523   9.224  10.448   1.767  0.1236 -0.3657 -0.8767
  396MOL0     C54524   9.296  10.487   1.644 -0.1608  0.3953  0.6939
  396MOL0     C54525   9.444  10.486   1.672 -0.5557  0.5584 -0.4290
  396MOL0     C54526   9.516  10.494   1.543 -0.4955 -0.4637  0.3461
  396MOL0     N54527   9.538  10.623   1.487  0.4711 -0.1241  0.1741
  396MOL0     C54528   9.665  10.668   1.454 -0.0351 -0.4525 -0.3229
  396MOL0     C54529   9.645  10.802   1.440  0.7639  0.0576 -0.0803
  396MOL0     C54530   9.756  10.906   1.406 -0.5707  0.0488  0.1774
  396MOL0     C54531   9.831  10.942   1.540 -0.4538 -0.4829  1.6311
  396MOL0     C54532   9.938  11.054   1.503 -0.3994  0.0221  0.8478
  396MOL0     C54533  10.066  11.018   1.427 -0.6055  0.0949  0.1188
  396MOL0     O54534  10.133  10.907   1.480 -0.8261  0.0434 -0.1910
  396MOL0     C54535  10.258  10.930   1.534  0.5001 -0.1275  0.6178
  396MOL0     C54536  10.292  11.047   1.603 -0.2190 -0.3716 -0.1734
  396MOL0     C54537  10.418  11.053   1.662 -0.3151  0.8017  0.0587
  396MOL0     C54538  10.445  11.183   1.736 -0.1117  0.0808 -0.1527
  396MOL0     C54539  10.511  10.937   1.674  0.5109 -0.2999 -0.3645
  396MOL0     C54540  10.644  10.940   1.740 -0.6442  0.5875 -0.0251
  396MOL0     O54541  10.717  10.824   1.712 -0.0636  0.5588  0.2829
  396MOL0     C54542  10.844  10.790   1.753 -1.0201  0.2901  0.1138
  396MOL0     C54543  10.904  10.706   1.673 -0.6818 -0.1729  0.3347
  396MOL0     C54544  11.037  10.665   1.709  0.1853  0.3123 -0.1777
  396MOL0     C54545  11.101  10.710   1.822  0.5272  0.6200  0.3901
  396MOL0     O54546  11.226  10.681   1.868 -0.6493 -0.4523 -0.2329
  396MOL0     C54547  11.334  10.631   1.774  0.0373 -0.7647 -0.7787
  396MOL0     C54548  11.349  10.713   1.644 -0.0272  0.1660  0.9531
  396MOL0     C54549  11.450  10.634   1.546  0.9638  0.1213 -0.1738
  396MOL0     C54550  11.476  10.723   1.424  0.5853  0.6738  0.8116
  396MOL0     C54551  11.382  10.686   1.299  0.9842  0.9245  0.3772
  396MOL0     C54552  11.413  10.768   1.162  0.0818 -0.5787  0.3563
  396MOL0     C54553  11.361  10.917   1.177  0.9085 -0.1540  0.2623
  396MOL0     C54554  11.298  10.976   1.048  0.5474 -0.2712  0.6404
  396MOL0    Cl54555  11.167  10.875   0.989  0.2497 -0.3475  0.0664
  396MOL0     C54556  11.038  10.805   1.904  0.8674  0.8196 -0.3761
  396MOL0     C54557  10.914  10.846   1.863  0.2150 -0.9062 -0.3082
  396MOL0     O54558  10.691  11.031   1.801 -0.3937  0.0432 -0.5197
  396MOL0     C54559  10.466  10.820   1.612  0.0968 -0.5916 -0.3674
  396MOL0     C54560  10.341  10.818   1.545 -1.1914 -0.3981  1.0385
  396MOL0     N54561   9.511  10.833   1.456 -0.1027 -0.8084  0.1713
  396MOL0     N54562   9.449  10.727   1.494 -0.1466  0.0065 -0.0097
  396MOL0     C54563   8.892   9.877   2.198  0.6884  0.3804 -0.3284
  396MOL0     C54564   8.798   9.803   2.262 -0.1858  0.3278  0.1127
  396MOL0     C54565   8.496   9.615   2.510  0.4773  0.0209 -0.4899
  396MOL0     C54566   8.517   9.565   2.634 -0.2041 -0.4580 -0.4023
  396MOL0     C54567   8.435   9.470   2.695  0.6315 -0.4193  0.2402
  396MOL0     C54568   8.318   9.423   2.629 -0.5383 -0.3891 -0.2593
  396MOL0     O54569   8.228   9.333   2.680 -0.2100 -0.4966 -0.1666
  396MOL0     C54570   8.261   9.257   2.797  0.0605 -0.7009 -0.1322
  396MOL0     C54571   8.174   9.121   2.810  0.0773 -0.0234 -0.2883
  396MOL0     C54572   8.038   9.129   2.881 -0.3257 -0.7614  0.2101
  396MOL0     C54573   7.951   9.001   2.871  0.2622 -0.0012 -0.4303
  396MOL0     C54574   7.941   8.928   2.744  0.1703 -0.3373  0.6417
  396MOL0     C54575   7.941   8.861   2.645  0.3937 -0.4600  0.4924
  396MOL0     C54576   8.285   9.492   2.511  0.3360  0.2511  0.0750
  396MOL0     C54577   8.371   9.583   2.445  0.3646  0.5307 -0.5608
  396MOL0     C54578   8.329   9.642   2.311 -0.2137  0.4908 -0.1633
  396MOL0     H54579   8.521   9.982   2.219  0.0863  0.9886 -1.3002
  396MOL0     H54580   8.703  10.148   2.129  0.3788 -0.4162 -0.3771
  396MOL0     H54581   8.877  10.259   2.097 -0.1907  0.1005 -0.4220
  396MOL0     H54582   8.847  10.148   1.960 -1.6418 -1.7904  2.6706
  396MOL0     H54583   9.120  10.297   2.011 -1.2756  1.9871  0.9933
  396MOL0     H54584   9.062  10.177   1.880 -0.7695  1.4380 -2.0903
  396MOL0     H54585   8.885  10.370   1.858 -0.2970 -0.2423 -0.6309
  396MOL0     H54586   9.004  10.472   1.939 -0.2244  0.2866 -1.2614
  396MOL0     H54587   9.066  10.324   1.691 -0.1591  0.1109 -0.1393
  396MOL0     H54588   9.029  10.494   1.694 -0.1878 -1.1060 -1.1636
  396MOL0     H54589   9.270  10.368   1.825 -1.8650 -0.8286  0.1654
  396MOL0     H54590   9.218  10.534   1.835  2.7800 -2.0342  1.7163
  396MOL0     H54591   9.282  10.407   1.570  2.8363 -0.1368  0.5876
  396MOL0     H54592   9.263  10.579   1.595 -2.4906 -0.1631  1.0778
  396MOL0     H54593   9.480  10.395   1.721 -1.5144 -0.4883 -1.6112
  396MOL0     H54594   9.455  10.573   1.737  0.0866  0.6058 -0.5945
  396MOL0     H54595   9.617  10.455   1.557  0.3221  1.6665  0.7363
  396MOL0     H54596   9.460  10.439   1.466  1.8946 -0.8227 -1.2447
  396MOL0     H54597   9.761  10.622   1.439  1.7546  1.8804  2.7704
  396MOL0     H54598   9.710  10.991   1.353  0.9045 -0.4734 -2.0669
  396MOL0     H54599   9.830  10.858   1.341 -0.1906 -1.6622  1.8060
  396MOL0     H54600   9.754  10.992   1.600 -2.7303  0.2152 -1.6177
  396MOL0     H54601   9.861  10.842   1.573 -2.9138 -1.2641  1.7285
  396MOL0     H54602   9.875  11.128   1.452 -1.8307  0.1951  2.7806
  396MOL0     H54603   9.961  11.104   1.597 -1.0645  0.3663  0.8289
  396MOL0     H54604  10.048  10.988   1.323  0.9612  3.0048 -1.1250
  396MOL0     H54605  10.131  11.106   1.425 -4.2164  3.0708  1.6516
  396MOL0     H54606  10.227  11.133   1.619 -0.8756 -1.0893  1.1986
  396MOL0     H54607  10.464  11.153   1.840 -0.0176 -3.5252 -1.0635
  396MOL0     H54608  10.359  11.248   1.750 -1.5792 -2.0629  1.3791
  396MOL0     H54609  10.532  11.231   1.689 -1.5348  1.9261 -0.9968
  396MOL0     H54610  10.852  10.670   1.584  1.4399 -1.3010 -0.5066
  396MOL0     H54611  11.085  10.585   1.654  1.0871  0.8093 -0.1201
  396MOL0     H54612  11.424  10.627   1.836 -0.5724  1.0647  0.2972
  396MOL0     H54613  11.326  10.523   1.760  0.3002 -0.7258 -1.2591
  396MOL0     H54614  11.251  10.717   1.595 -1.4246 -0.7700  3.4377
  396MOL0     H54615  11.396  10.811   1.659  0.6642  0.2572 -1.4677
  396MOL0     H54616  11.395  10.549   1.507 -0.6325  0.9795  0.1069
  396MOL0     H54617  11.535  10.598   1.606  1.0430  0.0072 -0.3548
  396MOL0     H54618  11.576  10.700   1.386 -0.0586 -0.4140 -0.2732
  396MOL0     H54619  11.472  10.828   1.454  0.4419  0.7107  0.6583
  396MOL0     H54620  11.385  10.578   1.276 -3.4839  1.2123 -2.8780
  396MOL0     H54621  11.280  10.702   1.334  0.0681  0.1728 -1.7908
  396MOL0     H54622  11.366  10.710   1.082  1.5677 -0.9617 -0.2688
  396MOL0     H54623  11.522  10.765   1.153  0.2686 -0.7374  2.3074
  396MOL0     H54624  11.440  10.986   1.208  1.2792  0.7858 -2.4636
  396MOL0     H54625  11.283  10.925   1.254  2.5195  0.4272  1.9053
  396MOL0     H54626  11.381  10.988   0.978 -0.7772  1.1712 -0.7723
  396MOL0     H54627  11.262  11.079   1.056 -0.0588 -0.5951  2.4276
  396MOL0     H54628  11.080  10.844   1.996 -4.5900  0.8152  2.5085
  396MOL0     H54629  10.869  10.923   1.924  2.5162  0.8931 -0.7387
  396MOL0     H54630  10.525  10.729   1.620  1.8583  0.2375 -2.8036
  396MOL0     H54631  10.308  10.718   1.517 -2.3558 -0.2969  1.9590
  396MOL0     H54632   8.993   9.843   2.216 -0.0613 -1.4784  0.6186
  396MOL0     H54633   8.832   9.716   2.319  3.9847  1.0681 -0.8684
  396MOL0     H54634   8.606   9.590   2.691 -1.7727 -1.7969  2.9213
  396MOL0     H54635   8.476   9.432   2.788 -0.5828 -1.5074  0.3544
  396MOL0     H54636   8.366   9.227   2.790  1.1609  2.7231 -0.3890
  396MOL0     H54637   8.246   9.313   2.889  1.3684 -0.6558  0.0793
  396MOL0     H54638   8.222   9.041   2.867 -2.4554 -0.4843  1.3677
  396MOL0     H54639   8.170   9.074   2.712 -0.1058 -0.7918  0.0782
  396MOL0     H54640   8.040   9.147   2.989  1.3082  1.6128 -0.1265
  396MOL0     H54641   7.981   9.209   2.831  0.2907 -0.1358  0.4915
  396MOL0     H54642   7.847   9.027   2.891 -0.4120 -1.5627 -1.6656
  396MOL0     H54643   7.984   8.927   2.944 -1.1440 -0.9543 -0.7214
  396MOL0     H54644   7.929   8.798   2.559 -0.6788 -0.6884  0.7913
  396MOL0     H54645   8.184   9.469   2.477 -0.0735  1.4880  0.4134
  396MOL0     H54646   8.238   9.593   2.273  0.2929 -0.1024 -0.6251
  396MOL0     H54647   8.309   9.749   2.317 -2.7433  0.2572 -2.2644
  396MOL0     H54648   8.407   9.626   2.236 -0.8951  0.9355 -0.9929
  397MOL0     O54649   0.782   4.839   6.257 -0.2061  0.0119  0.5330
  397MOL0     C54650   0.725   4.931   6.315 -0.9260 -0.7163  0.8403
  397MOL0     O54651   0.790   5.025   6.398 -0.0692 -0.5511  0.4635
  397MOL0     C54652   0.922   5.034   6.379 -0.9878  0.2252 -1.1677
  397MOL0     C54653   0.991   5.027   6.257 -0.1528  0.1719 -0.2408
  397MOL0     C54654   1.131   5.035   6.257  0.4483 -0.5088 -0.2327
  397MOL0     C54655   1.206   5.041   6.372  0.4210  1.1715 -0.1114
  397MOL0     O54656   1.336   5.065   6.361 -0.7094  0.4832 -0.5470
  397MOL0     C54657   1.421   5.042   6.475 -0.0049  0.4805  0.8109
  397MOL0     C54658   1.424   5.160   6.568 -0.5039  1.7964 -0.4869
  397MOL0     C54659   1.493   5.293   6.527 -0.2169  0.1296 -0.9034
  397MOL0     C54660   1.485   5.381   6.653  0.4973  0.4520 -0.7332
  397MOL0     C54661   1.592   5.495   6.666  0.8107  0.9167  0.4445
  397MOL0     C54662   1.741   5.446   6.646  0.0055 -0.0270 -0.1291
  397MOL0     C54663   1.829   5.572   6.644 -0.6165  0.7859 -1.6792
  397MOL0     C54664   1.981   5.525   6.623  0.7115  0.3225  0.2105
  397MOL0     N54665   2.065   5.638   6.614 -0.1900 -0.1198 -0.5604
  397MOL0     C54666   2.055   5.755   6.689  0.4771 -0.4805  1.1276
  397MOL0     C54667   2.145   5.835   6.641 -0.3503  0.5820  0.3150
  397MOL0     C54668   2.188   5.974   6.690 -0.3559 -0.1946 -0.0449
  397MOL0     C54669   2.335   5.996   6.729 -0.2760  0.2726  0.1291
  397MOL0     C54670   2.397   6.102   6.650 -0.0014 -0.0757  0.2127
  397MOL0     C54671   2.370   6.248   6.688  0.2330 -0.6356  0.4556
  397MOL0     O54672   2.386   6.290   6.827 -0.0343  0.2765 -0.0441
  397MOL0     C54673   2.278   6.335   6.898 -0.8975 -0.0563 -0.1774
  397MOL0     C54674   2.303   6.399   7.016  0.1371 -0.1762  0.1170
  397MOL0     C54675   2.203   6.452   7.099 -0.5355  0.0832 -0.3490
  397MOL0     C54676   2.250   6.524   7.219 -0.2393 -0.0392 -0.6823
  397MOL0     C54677   2.074   6.423   7.064  0.7355 -0.1238  0.0734
  397MOL0     C54678   1.953   6.452   7.153 -0.2249 -0.0207 -0.3502
  397MOL0     O54679   1.966   6.540   7.257 -0.2511 -0.5407 -0.1942
  397MOL0     C54680   1.854   6.574   7.322  0.9893 -0.5793 -0.6394
  397MOL0     C54681   1.780   6.479   7.401 -0.6983 -0.2973 -1.0170
  397MOL0     C54682   1.666   6.524   7.473 -0.1607  0.5755  0.5554
  397MOL0     C54683   1.623   6.649   7.458 -0.1559 -0.8005 -0.5934
  397MOL0     O54684   1.514   6.682   7.542  0.9118  0.8824  0.3969
  397MOL0     C54685   1.460   6.819   7.532 -0.1179 -0.2398 -0.8950
  397MOL0     C54686   1.315   6.832   7.584 -0.0589  1.1133 -0.0369
  397MOL0     C54687   1.279   6.980   7.602 -0.4817 -0.6303  0.5250
  397MOL0     C54688   1.234   7.015   7.745 -0.0583  0.3231 -0.0862
  397MOL0     C54689   1.336   6.994   7.857 -0.5489 -0.3891 -0.0328
  397MOL0     C54690   1.264   7.033   7.988 -0.5618  0.7782 -0.2468
  397MOL0     C54691   1.285   7.180   8.033 -0.4471  0.2611 -0.5096
  397MOL0     C54692   1.429   7.210   8.091 -0.5156 -0.3128 -1.5116
  397MOL0    Cl54693   1.462   7.376   8.147  0.5711  0.4492 -0.3404
  397MOL0     C54694   1.700   6.742   7.388  0.1535  0.2889 -0.3060
  397MOL0     C54695   1.809   6.709   7.315  0.2033  0.6157 -0.2397
  397MOL0     O54696   1.845   6.404   7.127 -0.3879 -0.1326 -0.7007
  397MOL0     C54697   2.050   6.351   6.947  0.8983  0.1690 -0.0954
  397MOL0     C54698   2.152   6.312   6.861  0.3956 -0.1074 -0.3882
  397MOL0     N54699   2.215   5.762   6.545  0.7371 -0.5986 -0.0246
  397MOL0     N54700   2.173   5.640   6.536  0.0174  0.5653  0.3433
  397MOL0     C54701   1.137   5.031   6.492 -0.0771  0.1411  0.0266
  397MOL0     C54702   0.998   5.027   6.502 -0.2429  0.7276  0.1820
  397MOL0     C54703   0.584   4.937   6.311  0.3547  0.2250 -0.0269
  397MOL0     C54704   0.524   5.058   6.338  0.2826 -0.4657 -0.7500
  397MOL0     C54705   0.391   5.087   6.330  0.1763 -0.3381  0.3808
  397MOL0     C54706   0.303   4.985   6.292 -0.0616 -0.8945  0.5972
  397MOL0     O54707   0.173   5.017   6.263 -0.2963  0.1108 -0.3591
  397MOL0     C54708   0.082   5.031   6.370  0.4189 -0.0592 -0.3962
  397MOL0     C54709  -0.058   5.018   6.323  0.4054  0.3209 -0.2468
  397MOL0     C54710  -0.090   4.871   6.291  0.0357 -0.2262  1.2700
  397MOL0     C54711  -0.247   4.838   6.267  0.1343  0.6044  0.6268
  397MOL0     C54712  -0.303   4.912   6.154  0.1200 -0.0393  0.3428
  397MOL0     C54713  -0.347   4.969   6.051  0.4434 -0.4501  0.9903
  397MOL0     C54714   0.351   4.858   6.267  0.8859 -0.3340  0.1928
  397MOL0     C54715   0.490   4.835   6.277 -0.4793  0.9793  0.9953
  397MOL0     C54716   0.539   4.695   6.242 -0.2746  0.0122 -0.5995
  397MOL0     H54717   0.944   5.022   6.159 -1.9526  1.3814  0.5052
  397MOL0     H54718   1.178   5.028   6.160 -0.1358 -3.0431 -0.4223
  397MOL0     H54719   1.525   5.027   6.443  0.3036  1.4138  1.3540
  397MOL0     H54720   1.383   4.953   6.526  0.3441  1.6206  3.1885
  397MOL0     H54721   1.330   5.189   6.616  1.7491  2.8461  3.8489
  397MOL0     H54722   1.478   5.128   6.658  1.3155 -0.1752 -2.1886
  397MOL0     H54723   1.598   5.267   6.513 -0.1502  0.2591 -0.6502
  397MOL0     H54724   1.456   5.343   6.437 -0.9981 -0.9777 -1.2173
  397MOL0     H54725   1.386   5.428   6.657  0.4583  0.3406  3.1972
  397MOL0     H54726   1.502   5.317   6.739  0.4989 -0.1011 -1.1385
  397MOL0     H54727   1.579   5.553   6.758  0.4015  3.3789 -1.0725
  397MOL0     H54728   1.566   5.568   6.589 -0.2689 -1.0493 -1.1529
  397MOL0     H54729   1.778   5.378   6.724 -0.7507  1.3429  1.4678
  397MOL0     H54730   1.743   5.391   6.551 -0.8763 -0.7291  0.2471
  397MOL0     H54731   1.810   5.636   6.731  0.8746 -0.2919 -0.5038
  397MOL0     H54732   1.804   5.636   6.560 -1.0452  0.2299 -1.9804
  397MOL0     H54733   2.029   5.464   6.700 -0.0843  0.8840  1.1672
  397MOL0     H54734   1.993   5.466   6.531  1.0413  1.3567 -0.4165
  397MOL0     H54735   1.994   5.763   6.778  1.4314 -2.9663  2.0680
  397MOL0     H54736   2.137   6.005   6.782  0.5342 -0.8936  0.7001
  397MOL0     H54737   2.157   6.046   6.614  2.3396 -0.4093 -1.4640
  397MOL0     H54738   2.343   6.049   6.825 -0.7751 -0.1416  0.3987
  397MOL0     H54739   2.395   5.905   6.726  1.7432  1.5759 -1.6743
  397MOL0     H54740   2.503   6.075   6.647 -0.0352 -0.1446 -0.4168
  397MOL0     H54741   2.369   6.087   6.545  3.1037  1.3119 -0.9121
  397MOL0     H54742   2.431   6.310   6.621  1.9467 -2.2445  0.4335
  397MOL0     H54743   2.273   6.277   6.648  1.9809  1.2296 -2.8697
  397MOL0     H54744   2.408   6.409   7.041  0.3312  0.4338 -0.8608
  397MOL0     H54745   2.201   6.484   7.309  4.0952 -0.5289  1.7201
  397MOL0     H54746   2.245   6.633   7.216  1.7715  0.2268  1.9280
  397MOL0     H54747   2.355   6.503   7.240 -0.0777  0.5136 -0.9376
  397MOL0     H54748   1.821   6.379   7.411 -1.3967 -0.5058 -0.1997
  397MOL0     H54749   1.608   6.459   7.538  1.1305  0.4854  1.6585
  397MOL0     H54750   1.523   6.889   7.589 -0.3393  1.7506 -2.9389
  397MOL0     H54751   1.451   6.856   7.429 -0.7509 -1.4113 -1.2762
  397MOL0     H54752   1.253   6.790   7.505 -2.3647 -0.7016  2.5381
  397MOL0     H54753   1.305   6.774   7.676  1.4650 -0.4015 -0.7640
  397MOL0     H54754   1.202   7.010   7.530 -1.7738  0.9027  2.4353
  397MOL0     H54755   1.357   7.053   7.582 -0.5804  0.0249  2.3072
  397MOL0     H54756   1.145   6.955   7.766 -1.3221  1.8646 -0.8186
  397MOL0     H54757   1.199   7.119   7.742 -0.4620  0.3169  2.3807
  397MOL0     H54758   1.354   6.887   7.847 -0.6852 -0.3435 -0.9204
  397MOL0     H54759   1.431   7.047   7.841 -0.9167  0.1255 -0.5875
  397MOL0     H54760   1.305   6.966   8.064 -1.8089  0.0555 -0.1733
  397MOL0     H54761   1.155   7.017   7.983 -0.3699 -0.8604  0.0798
  397MOL0     H54762   1.212   7.207   8.110 -0.2251 -1.6033  0.4011
  397MOL0     H54763   1.281   7.240   7.941  0.5642 -1.1286 -1.4836
  397MOL0     H54764   1.503   7.178   8.017 -0.2993  0.9897 -1.8835
  397MOL0     H54765   1.436   7.144   8.178 -3.8406  0.7648 -0.2780
  397MOL0     H54766   1.680   6.849   7.393  3.7508  1.4064 -4.1129
  397MOL0     H54767   1.857   6.774   7.243  1.9687  1.8055  1.8949
  397MOL0     H54768   1.950   6.339   6.907  0.3318 -0.0689  1.3431
  397MOL0     H54769   2.126   6.261   6.769 -1.8410  1.0183 -0.4493
  397MOL0     H54770   1.190   5.036   6.587  0.2017  0.5865 -0.1480
  397MOL0     H54771   0.939   5.025   6.593 -0.6091  4.2885  0.1652
  397MOL0     H54772   0.589   5.137   6.374  1.6087 -1.4556 -0.8502
  397MOL0     H54773   0.351   5.187   6.344 -2.4625 -1.0870 -1.0418
  397MOL0     H54774   0.108   4.963   6.453 -0.7029 -1.1822 -0.9322
  397MOL0     H54775   0.096   5.128   6.419  1.1152 -1.1115  1.6073
  397MOL0     H54776  -0.077   5.081   6.235  2.1768  1.0589 -0.1415
  397MOL0     H54777  -0.116   5.059   6.406  0.4829 -3.1039  1.6806
  397MOL0     H54778  -0.033   4.844   6.202  0.6707  1.1243  1.2438
  397MOL0     H54779  -0.049   4.812   6.374 -0.5680 -1.7957  0.4949
  397MOL0     H54780  -0.300   4.861   6.359 -0.6721  0.3752  0.2316
  397MOL0     H54781  -0.262   4.735   6.233 -0.0940  0.7307  0.3421
  397MOL0     H54782  -0.382   5.026   5.967  0.6031  2.6680  2.8813
  397MOL0     H54783   0.273   4.788   6.238 -3.4581  3.7092  0.7820
  397MOL0     H54784   0.465   4.626   6.285  0.3479 -0.8771 -0.9275
  397MOL0     H54785   0.525   4.681   6.135 -0.6210  1.1117 -0.7083
  397MOL0     H54786   0.642   4.667   6.268  0.5183  0.6004 -2.8955
  398MOL0     O54787   2.678   3.058   0.401 -0.5953  0.7167 -0.1470
  398MOL0     C54788   2.613   3.115   0.316  0.4658 -0.5665  0.1261
  398MOL0     O54789   2.630   3.244   0.266  0.1878  0.2158 -0.1698
  398MOL0     C54790   2.743   3.303   0.302 -0.9256  0.5817  0.2358
  398MOL0     C54791   2.741   3.421   0.372  0.0648  0.5077  0.6776
  398MOL0     C54792   2.863   3.477   0.414 -0.5182  0.2404  0.2937
  398MOL0     C54793   2.987   3.433   0.362 -1.0233  0.1969 -1.2066
  398MOL0     O54794   3.108   3.495   0.398  0.2759  0.8887  0.3013
  398MOL0     C54795   3.173   3.415   0.498  0.2216 -0.0128 -0.0095
  398MOL0     C54796   3.284   3.499   0.574  0.3410  0.7135  0.5040
  398MOL0     C54797   3.368   3.418   0.677 -0.6375 -0.3375 -0.0074
  398MOL0     C54798   3.500   3.487   0.710  0.0229 -0.3381  0.4167
  398MOL0     C54799   3.542   3.476   0.856  0.2437 -0.2662 -0.9127
  398MOL0     C54800   3.458   3.574   0.948  0.1957 -0.6473 -0.1212
  398MOL0     C54801   3.488   3.566   1.100  0.3722 -0.1360  0.4400
  398MOL0     C54802   3.600   3.671   1.135  0.1409  0.9648 -0.5439
  398MOL0     N54803   3.731   3.627   1.094  0.3396  0.2889 -0.4585
  398MOL0     C54804   3.797   3.516   1.143  0.0166 -0.4085  0.3341
  398MOL0     C54805   3.900   3.503   1.055 -0.1589 -0.4358 -0.7399
  398MOL0     C54806   4.008   3.388   1.052  0.0852  0.7523 -0.9697
  398MOL0     C54807   4.148   3.422   0.998  0.3807 -0.1159  0.6562
  398MOL0     C54808   4.218   3.295   0.965 -1.0057  1.0148  0.6643
  398MOL0     C54809   4.366   3.319   0.910 -0.8235 -0.7877  0.1648
  398MOL0     O54810   4.459   3.390   1.001  0.3265 -0.1989  0.1203
  398MOL0     C54811   4.588   3.385   0.975 -0.7047  0.2951 -0.6956
  398MOL0     C54812   4.644   3.360   0.851  0.1416  0.9677 -0.3074
  398MOL0     C54813   4.781   3.348   0.825  0.3338  0.3823 -0.2289
  398MOL0     C54814   4.826   3.308   0.683  0.2218 -0.3331  0.0388
  398MOL0     C54815   4.869   3.364   0.933 -0.0659 -1.0510  0.5849
  398MOL0     C54816   5.019   3.369   0.908 -0.1113  0.0486  0.0751
  398MOL0     O54817   5.099   3.394   1.019  0.4735  1.1574  0.3606
  398MOL0     C54818   5.217   3.451   1.017 -0.3748  0.7476 -0.4379
  398MOL0     C54819   5.316   3.421   1.113 -0.2385 -0.5803  0.6832
  398MOL0     C54820   5.450   3.471   1.111  0.3382 -0.6432 -0.1234
  398MOL0     C54821   5.489   3.557   1.009 -0.5337  0.6960 -0.6156
  398MOL0     O54822   5.605   3.627   0.986 -0.5226  0.3400 -0.2977
  398MOL0     C54823   5.708   3.586   1.076  0.3142 -0.0367 -0.3210
  398MOL0     C54824   5.837   3.664   1.035  0.1959 -0.2995 -0.9440
  398MOL0     C54825   5.945   3.666   1.149 -0.2768  0.2820 -0.1647
  398MOL0     C54826   6.069   3.738   1.101 -0.2609 -0.2739  0.0254
  398MOL0     C54827   6.200   3.746   1.180  0.3781  1.2763 -0.2209
  398MOL0     C54828   6.237   3.616   1.256 -0.0430 -0.6350  0.2119
  398MOL0     C54829   6.294   3.523   1.151  0.1612  0.2549  0.4458
  398MOL0     C54830   6.283   3.377   1.192 -0.3162 -0.5431  0.0983
  398MOL0    Cl54831   6.378   3.340   1.340 -0.1602 -0.5300 -0.1738
  398MOL0     C54832   5.386   3.605   0.925 -0.4952  0.5461 -0.1095
  398MOL0     C54833   5.251   3.549   0.926 -0.3587 -0.6191  0.9289
  398MOL0     O54834   5.063   3.351   0.796  0.3136 -0.6684  0.5768
  398MOL0     C54835   4.816   3.384   1.058 -0.4473 -0.2430 -0.0894
  398MOL0     C54836   4.680   3.397   1.081  0.7239  0.5732  0.6642
  398MOL0     N54837   3.900   3.611   0.962  0.9052  0.4511 -0.1072
  398MOL0     N54838   3.806   3.690   0.995  0.0356  0.8230  1.0893
  398MOL0     C54839   2.985   3.334   0.276  0.4842  0.8155  0.3471
  398MOL0     C54840   2.866   3.262   0.249 -0.8052 -0.6136 -0.9058
  398MOL0     C54841   2.490   3.030   0.297  0.1049 -0.5284 -0.0656
  398MOL0     C54842   2.512   2.888   0.281  0.0603 -0.2771 -0.0869
  398MOL0     C54843   2.409   2.807   0.257  0.0844  0.1449  0.8739
  398MOL0     C54844   2.281   2.847   0.230  0.4147  0.6308  0.2877
  398MOL0     O54845   2.184   2.751   0.189  0.3351 -0.5870  0.0880
  398MOL0     C54846   2.114   2.680   0.296 -0.1142  0.1436 -0.7204
  398MOL0     C54847   2.146   2.530   0.288 -0.6110  0.7869 -0.5452
  398MOL0     C54848   2.125   2.471   0.143  0.4161 -0.8867  0.0945
  398MOL0     C54849   2.179   2.335   0.114  0.5428  0.0556 -1.4783
  398MOL0     C54850   2.323   2.319   0.159 -0.0410 -0.4352  0.1516
  398MOL0     C54851   2.436   2.321   0.217  0.3405  0.2239  0.1606
  398MOL0     C54852   2.258   2.988   0.242 -0.2190 -1.0310  0.4634
  398MOL0     C54853   2.363   3.074   0.275  0.3201 -0.4016  1.0895
  398MOL0     C54854   2.324   3.218   0.284  0.9268 -0.3166  0.4261
  398MOL0     H54855   2.645   3.462   0.399 -1.0628  1.5295 -4.0031
  398MOL0     H54856   2.871   3.573   0.464 -1.2965  0.1812  0.5548
  398MOL0     H54857   3.215   3.326   0.451  0.1086  0.1403 -0.4042
  398MOL0     H54858   3.103   3.378   0.574 -0.3598 -1.1338 -1.0635
  398MOL0     H54859   3.344   3.549   0.496  0.9664 -0.3348  0.2953
  398MOL0     H54860   3.244   3.582   0.633 -0.3793  1.4705 -0.9705
  398MOL0     H54861   3.312   3.413   0.771 -1.3881  1.9035 -0.2730
  398MOL0     H54862   3.384   3.317   0.640  2.3532 -0.5932  1.7193
  398MOL0     H54863   3.583   3.439   0.658 -0.4387 -3.9538  2.6322
  398MOL0     H54864   3.488   3.593   0.689  0.7441  0.2414  2.5639
  398MOL0     H54865   3.648   3.499   0.848  0.2306  2.9472  3.9681
  398MOL0     H54866   3.540   3.374   0.897  0.5170  0.2857  0.5272
  398MOL0     H54867   3.488   3.673   0.911 -0.7735 -0.0460  0.6408
  398MOL0     H54868   3.352   3.562   0.925  0.3575 -0.4866 -0.9861
  398MOL0     H54869   3.519   3.464   1.126  1.2077  0.7760  3.4010
  398MOL0     H54870   3.399   3.594   1.157  0.4469 -0.5208  0.7504
  398MOL0     H54871   3.578   3.769   1.090  2.7407  0.9407 -2.0436
  398MOL0     H54872   3.609   3.682   1.243  3.3709  4.0912 -0.9263
  398MOL0     H54873   3.770   3.464   1.234  0.8504  1.6290  1.8501
  398MOL0     H54874   3.973   3.303   0.992 -3.0116  1.3679 -0.2123
  398MOL0     H54875   4.015   3.357   1.157 -1.1295  1.3545 -0.6894
  398MOL0     H54876   4.148   3.488   0.911  1.7872  0.4696  1.0776
  398MOL0     H54877   4.193   3.484   1.075  0.3002 -1.2439  1.6352
  398MOL0     H54878   4.214   3.214   1.038  1.2532 -0.1746 -0.4173
  398MOL0     H54879   4.164   3.262   0.876  2.0778 -1.4850 -0.4646
  398MOL0     H54880   4.406   3.221   0.884 -0.9540 -0.7076 -0.3527
  398MOL0     H54881   4.360   3.379   0.819 -0.5118  0.1417  0.7367
  398MOL0     H54882   4.579   3.341   0.765  0.0313 -0.4604  0.0658
  398MOL0     H54883   4.900   3.227   0.681  1.1898  0.5633 -1.0595
  398MOL0     H54884   4.873   3.388   0.625  2.7793 -0.9678  1.0897
  398MOL0     H54885   4.740   3.279   0.621  0.2621  0.5807 -0.4510
  398MOL0     H54886   5.290   3.350   1.191  0.7422  0.0200  1.5901
  398MOL0     H54887   5.522   3.433   1.182 -0.4557  2.4542  2.5584
  398MOL0     H54888   5.673   3.611   1.177 -0.1486  1.7090 -0.8606
  398MOL0     H54889   5.728   3.479   1.065  0.4452 -0.1957  1.2271
  398MOL0     H54890   5.865   3.611   0.943 -2.4710 -2.1735 -0.7839
  398MOL0     H54891   5.808   3.765   1.006  1.3067  0.9763  2.0518
  398MOL0     H54892   5.967   3.563   1.179 -0.4781  0.3631  0.2767
  398MOL0     H54893   5.894   3.712   1.235 -1.1691  1.0009 -1.0569
  398MOL0     H54894   6.035   3.841   1.091  0.4322  0.2366  2.3826
  398MOL0     H54895   6.094   3.705   0.999  0.7867  1.3984 -0.2999
  398MOL0     H54896   6.287   3.777   1.121  1.3691  0.1205  0.5911
  398MOL0     H54897   6.205   3.829   1.252 -0.2090  2.6032 -1.6572
  398MOL0     H54898   6.156   3.571   1.315 -0.3694 -0.6307 -0.2324
  398MOL0     H54899   6.318   3.644   1.324 -1.8911  2.7150  1.2739
  398MOL0     H54900   6.395   3.555   1.125 -0.2721 -1.3482 -3.9248
  398MOL0     H54901   6.228   3.525   1.064  1.2654  0.2206 -0.4100
  398MOL0     H54902   6.327   3.324   1.107  1.7682  4.6161 -2.4502
  398MOL0     H54903   6.183   3.337   1.210  0.2178 -1.3450  1.4690
  398MOL0     H54904   5.398   3.680   0.848 -1.5885  1.6414  0.7443
  398MOL0     H54905   5.173   3.598   0.868  1.2406  1.7479  0.6129
  398MOL0     H54906   4.868   3.400   1.152 -2.1464  1.1549  0.6780
  398MOL0     H54907   4.655   3.403   1.187  0.9938 -0.1472  0.7738
  398MOL0     H54908   3.072   3.310   0.215 -1.3176  1.9060 -2.9261
  398MOL0     H54909   2.868   3.179   0.179 -2.5163 -0.6485 -0.9533
  398MOL0     H54910   2.614   2.852   0.289 -0.5557 -1.7666  1.8401
  398MOL0     H54911   2.412   2.699   0.247 -2.6088  0.1889 -2.2024
  398MOL0     H54912   2.135   2.720   0.396  1.6462  1.4177 -1.5433
  398MOL0     H54913   2.007   2.698   0.285 -0.7280 -1.5440  1.5771
  398MOL0     H54914   2.085   2.465   0.350 -0.0714 -1.5302 -2.2969
  398MOL0     H54915   2.247   2.506   0.322 -1.8540 -0.7959  2.3870
  398MOL0     H54916   2.016   2.475   0.131  0.2330 -0.3390  1.6310
  398MOL0     H54917   2.162   2.538   0.065  0.6465  0.8912  1.6588
  398MOL0     H54918   2.168   2.309   0.008 -3.4129 -0.6168 -1.0532
  398MOL0     H54919   2.124   2.259   0.172 -0.9260  0.5590 -2.1741
  398MOL0     H54920   2.532   2.312   0.264  0.5376  0.2703 -0.2239
  398MOL0     H54921   2.156   3.021   0.226  0.1637  0.0699  0.2130
  398MOL0     H54922   2.338   3.267   0.187 -0.9415 -1.8360 -0.6736
  398MOL0     H54923   2.217   3.222   0.309  1.0496 -0.8135  1.0262
  398MOL0     H54924   2.388   3.268   0.357  2.8885  1.9238 -2.6009
  399MOL0     O54925   8.265   7.517   9.120 -0.4015 -0.4284 -0.3628
  399MOL0     C54926   8.218   7.425   9.062 -0.7341  0.9575 -0.2385
  399MOL0     O54927   8.285   7.355   8.964 -1.0718 -0.8738 -0.0703
  399MOL0     C54928   8.407   7.422   8.922 -0.7195 -0.4306 -0.2162
  399MOL0     C54929   8.530   7.381   8.979  0.2365 -0.9011  0.1227
  399MOL0     C54930   8.649   7.455   8.934  0.3504 -0.1699 -0.8375
  399MOL0     C54931   8.636   7.542   8.825 -0.4648  0.2162  0.3905
  399MOL0     O54932   8.741   7.606   8.758 -0.1909 -0.3614 -0.1270
  399MOL0     C54933   8.855   7.519   8.748  0.0289  0.6200  0.4926
  399MOL0     C54934   8.948   7.579   8.643 -0.2486 -0.6824 -0.3097
  399MOL0     C54935   9.061   7.483   8.602 -0.0238  0.1343  0.9944
  399MOL0     C54936   9.191   7.556   8.577 -0.6773 -0.5913  0.8121
  399MOL0     C54937   9.306   7.468   8.533  0.7822 -0.6592  0.1434
  399MOL0     C54938   9.343   7.353   8.629  0.1241 -0.2798  0.1674
  399MOL0     C54939   9.464   7.282   8.605  0.1217  0.4082  0.2842
  399MOL0     C54940   9.589   7.327   8.681  0.2960 -0.5158  0.2120
  399MOL0     N54941   9.711   7.248   8.659 -0.2247  0.0234  0.7362
  399MOL0     C54942   9.739   7.184   8.539  0.6409 -0.4962  0.2737
  399MOL0     C54943   9.865   7.144   8.555  0.8297  0.4080 -1.2318
  399MOL0     C54944   9.957   7.068   8.457 -0.3722  0.2051  0.3491
  399MOL0     C54945  10.088   7.148   8.430  0.5748 -0.2621 -0.5714
  399MOL0     C54946  10.063   7.269   8.336  0.7044  0.3000 -0.2522
  399MOL0     C54947  10.201   7.336   8.306 -0.4161 -0.0319 -1.1153
  399MOL0     O54948  10.292   7.234   8.254  0.2665  0.4451 -0.0432
  399MOL0     C54949  10.405   7.223   8.315  0.0296  0.2832  0.0032
  399MOL0     C54950  10.438   7.265   8.452 -0.5922  0.5293 -0.7868
  399MOL0     C54951  10.562   7.241   8.518 -0.3527  0.3802  0.3268
  399MOL0     C54952  10.584   7.286   8.659 -0.6541 -0.6664 -0.3026
  399MOL0     C54953  10.653   7.160   8.443  0.0816 -0.8113  0.7180
  399MOL0     C54954  10.786   7.112   8.492  0.2537 -0.5739 -0.8569
  399MOL0     O54955  10.871   7.061   8.404  0.2028 -0.3127  0.5402
  399MOL0     C54956  11.003   7.053   8.430  0.0072  0.7484  0.1533
  399MOL0     C54957  11.067   7.006   8.543 -0.2488 -0.4763 -0.1888
  399MOL0     C54958  11.202   7.008   8.557  0.9508 -0.0817 -0.6191
  399MOL0     C54959  11.282   7.064   8.461  0.5665 -0.9008  0.9162
  399MOL0     O54960  11.416   7.083   8.464 -0.2176 -0.2980  0.5809
  399MOL0     C54961  11.477   7.116   8.587  0.5047 -0.9870 -0.5553
  399MOL0     C54962  11.620   7.161   8.557 -0.8199  0.0864 -0.4735
  399MOL0     C54963  11.680   7.265   8.655  0.0356 -0.8809  0.9571
  399MOL0     C54964  11.820   7.326   8.622 -0.1522 -0.0684 -0.3873
  399MOL0     C54965  11.855   7.442   8.704  0.3111 -0.0596 -1.1674
  399MOL0     C54966  11.920   7.416   8.847  0.1834 -1.0356  0.5197
  399MOL0     C54967  11.958   7.550   8.917 -0.2968  0.4437 -0.9684
  399MOL0     C54968  12.046   7.524   9.041  0.4123  0.3217  0.1223
  399MOL0    Cl54969  11.954   7.438   9.174 -0.0495  0.3405  0.0480
  399MOL0     C54970  11.217   7.110   8.348  0.5364  0.1279  1.0470
  399MOL0     C54971  11.084   7.101   8.327  0.6811 -0.4200 -0.2507
  399MOL0     O54972  10.812   7.127   8.608  1.2528 -0.3244 -0.0223
  399MOL0     C54973  10.619   7.118   8.312 -0.1381 -0.1155 -0.1855
  399MOL0     C54974  10.505   7.154   8.243  0.6763 -1.0635  0.3399
  399MOL0     N54975   9.905   7.181   8.682  0.1596 -0.9108 -0.4677
  399MOL0     N54976   9.814   7.239   8.748 -0.3898 -0.6303 -0.6305
  399MOL0     C54977   8.514   7.575   8.768  1.0256 -0.3342 -1.0626
  399MOL0     C54978   8.397   7.513   8.817  0.1986  0.1127 -0.2233
  399MOL0     C54979   8.096   7.364   9.108  0.7711  0.9678 -0.0692
  399MOL0     C54980   8.056   7.238   9.047 -0.0665  0.6071  0.0576
  399MOL0     C54981   7.944   7.176   9.079  0.5496 -0.4166  0.1415
  399MOL0     C54982   7.848   7.237   9.161  0.1058 -0.1823  0.0736
  399MOL0     O54983   7.728   7.169   9.176 -0.2534 -0.3473 -0.2990
  399MOL0     C54984   7.613   7.226   9.240 -0.4101  0.1662 -0.8233
  399MOL0     C54985   7.599   7.196   9.385  0.1952 -0.7177 -0.0857
  399MOL0     C54986   7.638   7.052   9.408 -0.3466 -0.0674  0.5468
  399MOL0     C54987   7.611   7.015   9.554  0.6526  0.1230 -0.0863
  399MOL0     C54988   7.475   6.971   9.556  0.0320 -0.4214 -0.3473
  399MOL0     C54989   7.359   6.940   9.540  0.1448  1.0859 -0.3925
  399MOL0     C54990   7.879   7.364   9.212  0.1263  0.1358  0.0877
  399MOL0     C54991   8.000   7.427   9.191 -0.8416  0.1460  0.5756
  399MOL0     C54992   8.027   7.556   9.263  0.6431 -0.8492 -0.2908
  399MOL0     H54993   8.541   7.307   9.057 -1.3802  0.0151  1.2549
  399MOL0     H54994   8.740   7.433   8.988 -0.7401 -1.3756  0.6242
  399MOL0     H54995   8.819   7.419   8.720  1.4767 -0.5714  2.5988
  399MOL0     H54996   8.911   7.496   8.839 -0.2783  1.5663  0.9261
  399MOL0     H54997   8.888   7.591   8.552 -0.2569 -0.9555 -0.3424
  399MOL0     H54998   8.979   7.681   8.664 -0.8159 -0.4628 -0.5172
  399MOL0     H54999   9.066   7.420   8.691  1.5151  1.2745  1.7562
  399MOL0     H55000   9.028   7.416   8.522 -1.8883  0.8125  1.1337
  399MOL0     H55001   9.181   7.637   8.504 -1.2482 -0.7533  0.7034
  399MOL0     H55002   9.216   7.613   8.667 -0.9092 -0.2807  0.6829
  399MOL0     H55003   9.402   7.516   8.512 -0.2402  0.3393 -2.9197
  399MOL0     H55004   9.279   7.426   8.435  1.1572 -1.3526  0.3315
  399MOL0     H55005   9.341   7.397   8.729  1.2588  0.4239 -0.0943
  399MOL0     H55006   9.267   7.275   8.629  0.6417 -0.8119 -0.8241
  399MOL0     H55007   9.484   7.282   8.497 -1.3278  1.0848 -0.0136
  399MOL0     H55008   9.445   7.179   8.636 -0.1541  0.4036  0.1104
  399MOL0     H55009   9.600   7.432   8.652  0.7770 -1.1622 -2.1522
  399MOL0     H55010   9.554   7.313   8.784 -0.0249  2.5263  0.6259
  399MOL0     H55011   9.676   7.172   8.452 -3.8561  1.0575  2.9492
  399MOL0     H55012   9.914   7.041   8.360  0.5637  0.5706 -0.1856
  399MOL0     H55013   9.976   6.970   8.502 -2.0820  1.2666  3.7538
  399MOL0     H55014  10.134   7.189   8.520  2.5292  0.4797 -1.8297
  399MOL0     H55015  10.155   7.072   8.388 -0.6560 -1.0810 -1.0846
  399MOL0     H55016  10.024   7.238   8.239 -2.5228 -0.2300  1.0901
  399MOL0     H55017   9.994   7.344   8.374 -1.1580  0.3233 -3.3486
  399MOL0     H55018  10.177   7.400   8.221  1.2388  2.0188 -0.1319
  399MOL0     H55019  10.241   7.392   8.392  2.4538 -1.6235 -1.3008
  399MOL0     H55020  10.366   7.320   8.512 -1.8853  1.2446 -2.8692
  399MOL0     H55021  10.582   7.194   8.717  2.4216  0.3411  1.6841
  399MOL0     H55022  10.506   7.353   8.695  0.3337 -0.0143  0.6992
  399MOL0     H55023  10.678   7.340   8.675 -1.9156  0.9992  2.1933
  399MOL0     H55024  11.010   6.952   8.617 -0.3150 -0.0821  0.0498
  399MOL0     H55025  11.258   6.951   8.631  3.3665 -0.6198 -2.7312
  399MOL0     H55026  11.432   7.211   8.616  1.0682 -1.0319  0.5055
  399MOL0     H55027  11.463   7.035   8.658 -0.9834  0.9310  1.4576
  399MOL0     H55028  11.674   7.067   8.563 -0.4094  0.1485 -2.6332
  399MOL0     H55029  11.625   7.200   8.455  1.9695  1.1800 -0.0129
  399MOL0     H55030  11.702   7.221   8.753  0.6134 -1.6677  0.4905
  399MOL0     H55031  11.606   7.345   8.654 -2.9460 -3.4699  1.5963
  399MOL0     H55032  11.825   7.355   8.517  0.3894  1.0306 -0.0759
  399MOL0     H55033  11.893   7.248   8.644  0.1219  0.2005 -0.3317
  399MOL0     H55034  11.912   7.512   8.642 -1.2895  1.0055 -1.5195
  399MOL0     H55035  11.758   7.487   8.729  0.8789  1.0502 -0.9050
  399MOL0     H55036  12.008   7.354   8.825 -1.3348 -2.8894 -0.6049
  399MOL0     H55037  11.844   7.362   8.904  1.6268 -1.5458  2.0582
  399MOL0     H55038  11.868   7.608   8.939 -1.9006 -1.9449 -0.8796
  399MOL0     H55039  12.004   7.614   8.841 -1.5126  1.1950 -1.1025
  399MOL0     H55040  12.082   7.616   9.089 -0.2834  0.9450 -0.5318
  399MOL0     H55041  12.131   7.458   9.020 -1.1369 -1.7367  0.0343
  399MOL0     H55042  11.269   7.160   8.267 -4.6099 -0.5267 -3.2114
  399MOL0     H55043  11.044   7.132   8.231  3.7920 -0.6231 -1.7575
  399MOL0     H55044  10.687   7.051   8.259 -0.4650  0.8409 -1.8935
  399MOL0     H55045  10.489   7.118   8.142  0.2327  0.3172 -0.1087
  399MOL0     H55046   8.496   7.632   8.678 -1.3080 -0.0154 -0.4878
  399MOL0     H55047   8.300   7.544   8.779  0.2330 -1.5259 -1.8089
  399MOL0     H55048   8.104   7.185   8.966 -0.6279 -1.4690  1.0254
  399MOL0     H55049   7.914   7.086   9.026  1.3776  0.7893 -2.5579
  399MOL0     H55050   7.606   7.333   9.220  1.5175  0.0407 -2.5617
  399MOL0     H55051   7.522   7.190   9.191 -1.1257 -0.5021  0.9120
  399MOL0     H55052   7.498   7.229   9.412  1.2793  4.0215 -0.9163
  399MOL0     H55053   7.667   7.259   9.444 -0.0936 -1.7193  1.3886
  399MOL0     H55054   7.597   6.978   9.339  0.6327  0.2187 -0.3755
  399MOL0     H55055   7.746   7.052   9.390 -0.4386 -0.9404 -0.0390
  399MOL0     H55056   7.624   7.099   9.622  0.5001  1.1921 -1.3317
  399MOL0     H55057   7.671   6.930   9.586  0.4313 -0.4714 -1.1895
  399MOL0     H55058   7.261   6.898   9.529 -0.2053  1.4907  0.9938
  399MOL0     H55059   7.815   7.416   9.282 -0.0389  0.6958 -0.4632
  399MOL0     H55060   7.932   7.599   9.296  1.5742 -0.0041  1.4402
  399MOL0     H55061   8.084   7.545   9.355 -0.2446  2.2634  0.7467
  399MOL0     H55062   8.067   7.637   9.201  1.6480 -1.0737  0.0525
  400MOL0     O55063   7.413   5.330   8.322  0.8942  0.9792  0.2170
  400MOL0     C55064   7.305   5.352   8.260  0.6737  0.2992  0.5474
  400MOL0     O55065   7.280   5.306   8.137 -0.9179 -0.1751  0.6411
  400MOL0     C55066   7.384   5.233   8.066 -0.0844 -0.1353  0.3837
  400MOL0     C55067   7.467   5.293   7.969  0.7023  0.8120 -0.3164
  400MOL0     C55068   7.567   5.215   7.900 -0.4323 -0.0299  0.3829
  400MOL0     C55069   7.570   5.076   7.923 -0.1039  0.2180 -0.0905
  400MOL0     O55070   7.663   4.996   7.858  0.0519 -0.1004  0.0553
  400MOL0     C55071   7.790   5.024   7.821 -0.9716 -0.7191 -0.1102
  400MOL0     C55072   7.887   4.911   7.842  0.2690 -0.3091 -0.0634
  400MOL0     C55073   8.030   4.967   7.839 -0.2701  0.2318 -0.5780
  400MOL0     C55074   8.134   4.849   7.849 -0.7707 -0.9677  1.1230
  400MOL0     C55075   8.275   4.902   7.874  0.1913  0.1501  0.0509
  400MOL0     C55076   8.353   4.844   7.996 -0.9169  0.0089  0.4883
  400MOL0     C55077   8.493   4.899   8.016  0.3212  0.7082 -0.8593
  400MOL0     C55078   8.593   4.835   7.914  0.3728 -0.5800 -0.1389
  400MOL0     N55079   8.719   4.905   7.924  0.8486 -0.0768  0.3655
  400MOL0     C55080   8.836   4.853   7.974  0.0983  0.1536  0.2960
  400MOL0     C55081   8.931   4.951   7.977 -0.6167 -0.6560  0.6055
  400MOL0     C55082   9.070   4.936   8.043 -0.6038  0.0554  0.1157
  400MOL0     C55083   9.155   5.065   8.025 -0.2830  0.5154  0.0406
  400MOL0     C55084   9.293   5.053   8.087  0.2699 -1.2384  0.9328
  400MOL0     C55085   9.388   5.174   8.065 -0.1467 -0.5856  0.2692
  400MOL0     O55086   9.519   5.155   8.125 -0.4208 -0.1072 -0.8540
  400MOL0     C55087   9.604   5.269   8.135 -0.1549 -0.1725  0.8728
  400MOL0     C55088   9.733   5.246   8.082  0.4171  0.3099  0.7295
  400MOL0     C55089   9.832   5.342   8.070 -0.9848  0.0613  0.0099
  400MOL0     C55090   9.962   5.303   7.995  0.0694  0.6738 -0.8274
  400MOL0     C55091   9.798   5.475   8.110  0.6576  0.4830 -0.0275
  400MOL0     C55092   9.879   5.590   8.101  0.2672 -0.0878  0.0105
  400MOL0     O55093   9.817   5.715   8.128  0.3454  0.1629  0.0654
  400MOL0     C55094   9.885   5.812   8.065  0.0317 -0.6425  0.5464
  400MOL0     C55095   9.843   5.848   7.933 -0.0107 -0.7873 -0.3345
  400MOL0     C55096   9.919   5.930   7.854  0.0398 -0.3585  0.4305
  400MOL0     C55097  10.044   5.973   7.893  0.1953  0.2922 -0.2505
  400MOL0     O55098  10.107   6.047   7.805 -1.1259 -0.3873  0.3664
  400MOL0     C55099  10.254   6.029   7.804  0.0381 -0.3568  0.2688
  400MOL0     C55100  10.295   5.906   7.732  0.2018  0.6933 -0.3219
  400MOL0     C55101  10.330   5.934   7.587 -0.8462 -0.8508  0.6648
  400MOL0     C55102  10.213   5.996   7.499 -0.2490 -0.4640 -0.3467
  400MOL0     C55103  10.243   6.009   7.356  0.5721 -0.2009  0.6565
  400MOL0     C55104  10.355   6.108   7.335 -0.0850  0.2907 -0.0867
  400MOL0     C55105  10.364   6.152   7.184  0.0329 -0.3771  0.4710
  400MOL0     C55106  10.502   6.217   7.153  0.0179  0.0209 -0.4823
  400MOL0    Cl55107  10.646   6.117   7.170 -0.2378 -0.0362 -0.2972
  400MOL0     C55108  10.094   5.935   8.020 -0.2109 -0.2455  0.1289
  400MOL0     C55109  10.006   5.863   8.105  0.0150  0.5091 -0.0228
  400MOL0     O55110  10.005   5.574   8.095  0.1768  0.0746 -0.4541
  400MOL0     C55111   9.673   5.491   8.178  0.9432  0.8080  0.3490
  400MOL0     C55112   9.572   5.393   8.179 -0.6211  0.3010 -0.6855
  400MOL0     N55113   8.881   5.053   7.910  0.3986  0.1183 -0.2862
  400MOL0     N55114   8.755   5.033   7.886 -0.4868  0.4417  0.5594
  400MOL0     C55115   7.486   5.012   8.012 -0.0241 -0.5440 -0.3821
  400MOL0     C55116   7.384   5.085   8.085 -0.5034  0.2396  0.2866
  400MOL0     C55117   7.192   5.432   8.317 -0.7118  0.2277  0.1804
  400MOL0     C55118   7.110   5.505   8.227  0.0362  0.0350 -0.7599
  400MOL0     C55119   7.008   5.591   8.282  0.3008 -0.6381  0.9046
  400MOL0     C55120   6.995   5.618   8.419  0.1576  0.0577 -0.0587
  400MOL0     O55121   6.901   5.708   8.445  0.2438 -0.3067  0.0918
  400MOL0     C55122   6.768   5.661   8.429 -0.2573 -0.0837 -0.1412
  400MOL0     C55123   6.683   5.762   8.492 -0.9321 -0.2001  0.3415
  400MOL0     C55124   6.535   5.721   8.459 -0.1553  0.9383  0.1989
  400MOL0     C55125   6.464   5.662   8.580 -0.2192 -0.1718 -0.7666
  400MOL0     C55126   6.478   5.744   8.706  0.5610  0.4333  0.3526
  400MOL0     C55127   6.504   5.809   8.812 -0.6984  0.1197 -0.0433
  400MOL0     C55128   7.075   5.547   8.499 -0.0556  0.0257 -0.2028
  400MOL0     C55129   7.169   5.451   8.456 -0.6347 -0.4694 -0.9069
  400MOL0     C55130   7.246   5.380   8.565 -0.1195 -0.3373 -0.3843
  400MOL0     H55131   7.454   5.399   7.953  4.6820  1.5751  0.4983
  400MOL0     H55132   7.618   5.258   7.814  0.2377  2.0412  1.7552
  400MOL0     H55133   7.827   5.118   7.863 -2.2618  0.1086 -0.7837
  400MOL0     H55134   7.802   5.036   7.713  2.1978  2.0082  0.3838
  400MOL0     H55135   7.863   4.871   7.942  1.0532  1.1045  0.7135
  400MOL0     H55136   7.878   4.831   7.768  0.0046 -0.7589  0.4460
  400MOL0     H55137   8.034   5.029   7.748 -0.7056  4.7827  2.1983
  400MOL0     H55138   8.054   5.024   7.929  0.6278 -1.1497  0.1008
  400MOL0     H55139   8.103   4.799   7.941 -1.1947  1.8828  2.6393
  400MOL0     H55140   8.134   4.787   7.758  2.9624  0.8188 -0.3016
  400MOL0     H55141   8.278   5.011   7.871 -0.7699  0.1662 -0.9012
  400MOL0     H55142   8.328   4.858   7.789 -0.9378  0.5569 -0.8891
  400MOL0     H55143   8.290   4.883   8.077 -1.7497 -2.3698  1.0752
  400MOL0     H55144   8.349   4.735   7.993 -2.2013  0.0213  1.1608
  400MOL0     H55145   8.539   4.875   8.113 -0.0569 -0.0716 -0.8716
  400MOL0     H55146   8.490   5.008   8.008 -3.5314  0.6596 -1.6395
  400MOL0     H55147   8.608   4.729   7.937  0.9531 -0.9489 -2.0498
  400MOL0     H55148   8.565   4.847   7.809 -0.1779  1.2136  0.1855
  400MOL0     H55149   8.862   4.757   8.018  3.8121  1.0387  0.3433
  400MOL0     H55150   9.118   4.852   7.991  3.4858  0.5792  2.5530
  400MOL0     H55151   9.062   4.921   8.151 -1.2929  1.4203  0.2707
  400MOL0     H55152   9.159   5.100   7.922  0.5901  0.6729  0.1213
  400MOL0     H55153   9.112   5.141   8.092 -1.0093  0.7169 -0.6420
  400MOL0     H55154   9.283   5.059   8.196  1.3208 -0.8999  1.0176
  400MOL0     H55155   9.351   4.965   8.058 -0.2676 -1.1321 -0.5429
  400MOL0     H55156   9.391   5.205   7.960 -2.1364  2.6105  1.0159
  400MOL0     H55157   9.343   5.262   8.112  1.6476  1.1419 -1.0392
  400MOL0     H55158   9.767   5.150   8.043 -0.3637 -0.8267  2.6671
  400MOL0     H55159   9.970   5.366   7.906  2.0971  1.0629 -0.4076
  400MOL0     H55160   9.965   5.196   7.970 -1.9485 -0.0950  1.7834
  400MOL0     H55161  10.050   5.331   8.053  0.1261 -0.7016 -0.2122
  400MOL0     H55162   9.748   5.817   7.893  0.6179 -2.8940 -0.3316
  400MOL0     H55163   9.880   5.965   7.759 -1.6778  1.2540  1.6589
  400MOL0     H55164  10.300   6.114   7.752  1.2380 -1.3286 -0.3115
  400MOL0     H55165  10.306   6.033   7.900 -0.3776  0.9221  0.4652
  400MOL0     H55166  10.383   5.860   7.778 -0.1944 -0.6403 -0.8447
  400MOL0     H55167  10.212   5.835   7.723 -0.6457  1.8705 -2.4754
  400MOL0     H55168  10.357   5.846   7.528  0.5351  0.3114 -0.4883
  400MOL0     H55169  10.415   6.003   7.582 -1.1655 -0.4126  1.1382
  400MOL0     H55170  10.183   6.090   7.547  1.8455 -0.7028  1.6430
  400MOL0     H55171  10.129   5.928   7.517  0.2855 -1.2613 -0.8068
  400MOL0     H55172  10.255   5.910   7.311 -2.7521 -0.5995  0.4297
  400MOL0     H55173  10.155   6.051   7.307  0.9896  0.7243  0.6810
  400MOL0     H55174  10.439   6.046   7.366 -2.7815 -2.4405  2.4020
  400MOL0     H55175  10.342   6.197   7.397 -1.1606  1.1651 -1.4809
  400MOL0     H55176  10.286   6.227   7.170 -0.7113 -1.0985  0.6558
  400MOL0     H55177  10.343   6.069   7.116  0.4781  0.0490 -0.1941
  400MOL0     H55178  10.506   6.287   7.237  0.5932 -2.7582  1.9851
  400MOL0     H55179  10.509   6.265   7.055 -0.4512  0.7175 -0.1803
  400MOL0     H55180  10.185   5.981   8.056 -0.4008  1.4056 -1.3925
  400MOL0     H55181  10.047   5.826   8.199  1.2340  1.7511 -0.0293
  400MOL0     H55182   9.654   5.576   8.243  1.1645 -0.2022  1.7914
  400MOL0     H55183   9.477   5.398   8.231 -0.4292 -0.4242 -0.2647
  400MOL0     H55184   7.481   4.904   8.020  1.6842 -0.9097 -2.8790
  400MOL0     H55185   7.307   5.041   8.147  1.6631 -0.0770  2.9871
  400MOL0     H55186   7.126   5.499   8.120 -2.4081 -1.1764 -1.1245
  400MOL0     H55187   6.945   5.644   8.211  1.3762  1.3677  1.3679
  400MOL0     H55188   6.741   5.635   8.326 -1.6451  0.5577  0.0400
  400MOL0     H55189   6.756   5.571   8.491  0.4654  0.1621  0.3621
  400MOL0     H55190   6.696   5.862   8.448  0.2656 -0.4767  0.0350
  400MOL0     H55191   6.704   5.756   8.599  0.8027 -1.7604 -0.0467
  400MOL0     H55192   6.491   5.814   8.420 -0.4404  0.6866 -0.0766
  400MOL0     H55193   6.528   5.649   8.378 -4.0951  0.7090  0.5469
  400MOL0     H55194   6.500   5.561   8.597  0.1942  0.1279  0.2376
  400MOL0     H55195   6.359   5.639   8.559 -0.6840 -1.8066  2.7209
  400MOL0     H55196   6.540   5.850   8.904  1.4145 -1.3811 -0.1442
  400MOL0     H55197   7.055   5.584   8.599 -0.6154 -1.8580  0.4290
  400MOL0     H55198   7.184   5.397   8.653 -2.1394 -0.4446 -1.7125
  400MOL0     H55199   7.248   5.274   8.540  2.5531 -0.6420  0.7187
  400MOL0     H55200   7.340   5.431   8.589 -0.5047 -0.3893  1.3499
  401MOL0     O55201   6.170   1.703   1.778  0.3790  0.0239  0.6638
  401MOL0     C55202   6.109   1.759   1.686 -0.9705 -0.5735 -0.5996
  401MOL0     O55203   6.150   1.876   1.636  0.1112 -0.4676 -0.0899
  401MOL0     C55204   6.274   1.926   1.664  0.6726  0.0641 -0.1730
  401MOL0     C55205   6.284   2.061   1.724  0.0682  1.2524  0.3284
  401MOL0     C55206   6.402   2.128   1.741  0.1939  0.3944  0.5448
  401MOL0     C55207   6.515   2.056   1.721 -0.1215 -0.1797  0.3110
  401MOL0     O55208   6.640   2.118   1.739 -0.4402 -0.4621 -0.6558
  401MOL0     C55209   6.725   2.139   1.632  0.4165 -0.7190 -0.2371
  401MOL0     C55210   6.847   2.235   1.640 -1.0076  0.1254  0.8850
  401MOL0     C55211   6.949   2.191   1.744  0.8806  0.5796 -1.1903
  401MOL0     C55212   7.076   2.274   1.746  0.6281 -0.1866  0.2082
  401MOL0     C55213   7.162   2.245   1.859 -0.0095  0.3960  1.0600
  401MOL0     C55214   7.223   2.360   1.938  0.5036  0.2768  0.7436
  401MOL0     C55215   7.353   2.415   1.873  1.1155 -1.0097  0.9797
  401MOL0     C55216   7.431   2.514   1.961  0.1400  1.1202 -0.0654
  401MOL0     N55217   7.474   2.447   2.089  0.0919  0.6099  0.0363
  401MOL0     C55218   7.438   2.482   2.220  0.2610 -0.3116  0.6092
  401MOL0     C55219   7.485   2.386   2.307 -0.0891  0.3765  0.0009
  401MOL0     C55220   7.467   2.386   2.460 -0.4756  1.3297  0.3143
  401MOL0     C55221   7.446   2.243   2.512  0.8158 -0.4093 -0.4642
  401MOL0     C55222   7.451   2.241   2.664  0.5471  0.4513 -0.4646
  401MOL0     C55223   7.593   2.222   2.731  0.4316  0.4577  0.0861
  401MOL0     O55224   7.650   2.094   2.705 -0.1269 -0.4784  1.1740
  401MOL0     C55225   7.770   2.092   2.772  0.6188  0.3593  0.1075
  401MOL0     C55226   7.884   2.169   2.725  0.1656  0.0568 -0.0917
  401MOL0     C55227   8.007   2.147   2.784 -0.8344 -0.6221 -0.7554
  401MOL0     C55228   8.118   2.232   2.725  0.1696  0.2544 -0.4093
  401MOL0     C55229   8.020   2.058   2.892 -0.4383 -0.2525  0.2819
  401MOL0     C55230   8.146   2.029   2.960  0.2427  0.2963 -0.5874
  401MOL0     O55231   8.249   2.128   2.955  0.0862 -0.0364  0.7771
  401MOL0     C55232   8.370   2.083   2.996 -0.4138  1.1622 -0.0870
  401MOL0     C55233   8.477   2.069   2.898 -0.5038 -0.5109 -0.5559
  401MOL0     C55234   8.600   2.050   2.938 -0.2192  0.3188  0.5720
  401MOL0     C55235   8.641   2.036   3.070 -0.0598  0.1329 -0.2581
  401MOL0     O55236   8.771   2.003   3.087 -0.2721 -0.7579 -1.0021
  401MOL0     C55237   8.822   1.949   3.217 -0.2008  0.2700  0.3585
  401MOL0     C55238   8.799   1.796   3.239 -0.3387 -0.8319 -0.6593
  401MOL0     C55239   8.843   1.717   3.121 -0.3758 -0.0613 -0.2079
  401MOL0     C55240   8.771   1.577   3.098  0.1479 -0.4755  0.1583
  401MOL0     C55241   8.855   1.467   3.019 -0.5337 -0.2964 -0.5102
  401MOL0     C55242   8.892   1.523   2.873 -0.1977  0.3586  0.3051
  401MOL0     C55243   8.763   1.559   2.789 -0.5225  1.2272 -0.7130
  401MOL0     C55244   8.798   1.589   2.639 -0.0166  0.9259 -0.1527
  401MOL0    Cl55245   8.647   1.612   2.548  0.1477  0.2649  0.1478
  401MOL0     C55246   8.535   2.049   3.172  0.2502 -0.4900  0.3849
  401MOL0     C55247   8.410   2.088   3.130  0.1990 -0.3106 -0.5576
  401MOL0     O55248   8.154   1.921   3.013  0.5649  0.8986 -0.3320
  401MOL0     C55249   7.905   1.986   2.935 -0.3017  0.6504 -0.1868
  401MOL0     C55250   7.785   1.999   2.870 -0.5906 -0.5179  0.5723
  401MOL0     N55251   7.550   2.288   2.230 -0.4963  0.0508 -0.2086
  401MOL0     N55252   7.528   2.322   2.107 -0.0100  0.1198 -0.0396
  401MOL0     C55253   6.509   1.916   1.687  0.0093  0.2527 -0.8025
  401MOL0     C55254   6.391   1.853   1.651 -0.1063  0.2287 -0.2176
  401MOL0     C55255   5.982   1.703   1.642  0.0732  0.8357  0.4977
  401MOL0     C55256   5.890   1.651   1.736  1.0294 -0.2314 -0.7852
  401MOL0     C55257   5.777   1.572   1.694  0.1323  0.3556  0.0128
  401MOL0     C55258   5.745   1.551   1.553 -1.0417 -0.2358  0.0292
  401MOL0     O55259   5.643   1.490   1.490 -0.0375  0.9288  0.6104
  401MOL0     C55260   5.547   1.417   1.564  0.0095 -1.3705 -0.1263
  401MOL0     C55261   5.422   1.394   1.474 -0.4633  0.5993 -0.2096
  401MOL0     C55262   5.472   1.306   1.357  0.3184 -0.4946 -1.2800
  401MOL0     C55263   5.354   1.231   1.309 -0.3342  0.3985 -0.1702
  401MOL0     C55264   5.324   1.109   1.391 -0.6026 -0.7888 -0.5602
  401MOL0     C55265   5.301   1.025   1.465 -0.0950  0.0146  0.3222
  401MOL0     C55266   5.843   1.605   1.466  0.8162  0.0362 -1.1897
  401MOL0     C55267   5.962   1.678   1.504 -0.3807  0.5699  1.6768
  401MOL0     C55268   6.050   1.731   1.391  0.5079 -0.2105  0.1950
  401MOL0     H55269   6.199   2.122   1.750  1.5178  3.7471 -0.4200
  401MOL0     H55270   6.411   2.233   1.767 -0.3603  0.9182 -1.2197
  401MOL0     H55271   6.671   2.177   1.545  1.4999  0.9520 -0.2159
  401MOL0     H55272   6.753   2.040   1.594 -0.4386 -0.4150 -1.7669
  401MOL0     H55273   6.897   2.230   1.543 -0.7303 -0.6564  1.0640
  401MOL0     H55274   6.818   2.340   1.655  2.7731  1.2842  1.1310
  401MOL0     H55275   6.891   2.173   1.836 -1.9556 -0.5080 -3.0484
  401MOL0     H55276   6.983   2.090   1.720  0.9726  0.2119  0.3322
  401MOL0     H55277   7.131   2.253   1.654  0.2419 -0.8433  0.1204
  401MOL0     H55278   7.045   2.379   1.753  2.1789  0.4424 -1.5619
  401MOL0     H55279   7.241   2.180   1.822  0.6032  1.0180  1.2516
  401MOL0     H55280   7.095   2.184   1.921 -1.8272 -0.9803 -2.0336
  401MOL0     H55281   7.152   2.441   1.957 -0.2220 -0.4303  1.1050
  401MOL0     H55282   7.240   2.317   2.037 -0.2769  0.7157  1.0812
  401MOL0     H55283   7.323   2.468   1.781 -1.1699 -1.8370  1.1839
  401MOL0     H55284   7.418   2.331   1.848 -2.7385 -3.4469 -2.1853
  401MOL0     H55285   7.519   2.547   1.905  0.2338  0.2635 -0.4307
  401MOL0     H55286   7.370   2.598   1.996 -6.4324 -3.1049  0.4106
  401MOL0     H55287   7.384   2.569   2.255  2.3551  0.7848  1.2846
  401MOL0     H55288   7.378   2.443   2.487 -0.2025  0.8040  2.4530
  401MOL0     H55289   7.552   2.439   2.505 -1.1237  3.0715 -0.4351
  401MOL0     H55290   7.350   2.210   2.472  0.8634  0.3735 -1.2320
  401MOL0     H55291   7.521   2.169   2.480  0.3936 -0.4137 -1.4693
  401MOL0     H55292   7.397   2.318   2.721  1.6602 -0.8408  2.5408
  401MOL0     H55293   7.388   2.157   2.693 -0.6750  0.8715 -1.7963
  401MOL0     H55294   7.654   2.308   2.701  1.6113  0.0463  1.2199
  401MOL0     H55295   7.570   2.228   2.838 -1.3542  0.1197 -0.2493
  401MOL0     H55296   7.869   2.234   2.640 -0.3824 -0.6377 -0.5426
  401MOL0     H55297   8.212   2.177   2.716  2.1127  3.3306 -0.3922
  401MOL0     H55298   8.144   2.310   2.797 -0.0253 -1.0165  1.0963
  401MOL0     H55299   8.090   2.261   2.623 -0.3207 -1.4124 -0.7744
  401MOL0     H55300   8.442   2.079   2.796 -1.4284  2.0289 -0.0573
  401MOL0     H55301   8.675   2.041   2.860 -2.2875 -0.2038 -1.4463
  401MOL0     H55302   8.929   1.972   3.212 -0.2354  1.1595  2.3799
  401MOL0     H55303   8.774   1.996   3.304 -1.3874 -1.6249  0.7866
  401MOL0     H55304   8.848   1.762   3.331  0.3397 -0.3625 -0.8322
  401MOL0     H55305   8.690   1.791   3.246 -0.2783 -3.6650 -0.7637
  401MOL0     H55306   8.950   1.694   3.129 -0.9898 -4.1045 -1.4462
  401MOL0     H55307   8.830   1.774   3.028 -1.6982 -3.5352 -2.3578
  401MOL0     H55308   8.676   1.599   3.047  0.9516 -1.0068 -1.6329
  401MOL0     H55309   8.748   1.544   3.200  0.9355  0.9682  0.8215
  401MOL0     H55310   8.943   1.436   3.076 -3.0911 -0.9718  3.4811
  401MOL0     H55311   8.793   1.378   3.008  1.1377 -1.4539 -0.9564
  401MOL0     H55312   8.956   1.457   2.815  1.1601  3.5719 -2.1293
  401MOL0     H55313   8.966   1.599   2.896  0.8926 -0.4498 -0.4342
  401MOL0     H55314   8.715   1.650   2.826 -2.1000  0.0068  0.3986
  401MOL0     H55315   8.686   1.482   2.800  0.2460  0.2907 -1.6800
  401MOL0     H55316   8.860   1.509   2.596 -1.7270  0.3923 -1.7235
  401MOL0     H55317   8.853   1.683   2.642 -2.2529  2.2772  1.0737
  401MOL0     H55318   8.563   2.046   3.276  2.0756 -0.0639 -0.0514
  401MOL0     H55319   8.339   2.118   3.206 -1.0389  0.5760 -2.0000
  401MOL0     H55320   7.923   1.911   3.011 -1.4900  0.4608 -0.0754
  401MOL0     H55321   7.706   1.931   2.901  1.8000 -3.4292  0.7290
  401MOL0     H55322   6.595   1.852   1.673  1.4274  1.5232  1.4326
  401MOL0     H55323   6.390   1.754   1.606 -0.2113  0.8552 -1.6347
  401MOL0     H55324   5.894   1.668   1.843 -1.2017  1.8221 -0.9353
  401MOL0     H55325   5.708   1.540   1.772  0.6433  0.0451  0.3410
  401MOL0     H55326   5.589   1.331   1.615 -0.0422 -1.6431 -0.5351
  401MOL0     H55327   5.509   1.475   1.649  3.1224 -0.4959  0.7809
  401MOL0     H55328   5.373   1.488   1.447 -1.8736 -0.0257  0.0633
  401MOL0     H55329   5.352   1.338   1.537 -0.4431 -0.8747 -1.4431
  401MOL0     H55330   5.513   1.376   1.283 -5.2320  1.4720 -3.0281
  401MOL0     H55331   5.560   1.245   1.376  0.3656 -0.0891 -0.1394
  401MOL0     H55332   5.372   1.202   1.205 -0.9446  3.0608 -1.1204
  401MOL0     H55333   5.267   1.297   1.301 -0.2497  0.6026  0.5071
  401MOL0     H55334   5.281   0.948   1.537 -0.1307  3.1369  3.9752
  401MOL0     H55335   5.819   1.583   1.362 -3.0070 -0.1205 -0.4018
  401MOL0     H55336   6.153   1.720   1.426  0.9595 -1.8396 -1.5054
  401MOL0     H55337   6.040   1.675   1.297  3.4305 -1.6868  0.6313
  401MOL0     H55338   6.016   1.833   1.368 -0.6987 -0.9817 -1.6146
  402MOL0     O55339   0.317   4.828   2.730  0.3715 -0.4637 -0.6040
  402MOL0     C55340   0.291   4.708   2.763  0.3896 -0.5813  0.1370
  402MOL0     O55341   0.367   4.593   2.725  0.2261 -0.5431  0.5759
  402MOL0     C55342   0.466   4.614   2.641 -0.8820 -0.6657  0.7237
  402MOL0     C55343   0.600   4.634   2.695 -0.1071 -0.1138  0.6303
  402MOL0     C55344   0.714   4.645   2.612 -0.6332  0.2947 -0.6889
  402MOL0     C55345   0.695   4.610   2.477  0.0621 -0.4011  0.0868
  402MOL0     O55346   0.808   4.623   2.390 -0.2631  0.0762 -0.1796
  402MOL0     C55347   0.852   4.497   2.333  0.3148 -0.8734 -0.1947
  402MOL0     C55348   0.915   4.536   2.192  0.2357 -0.3940 -0.2076
  402MOL0     C55349   0.998   4.659   2.194  1.2796 -0.0120 -0.1203
  402MOL0     C55350   1.143   4.632   2.243 -0.0747 -0.6012 -0.0306
  402MOL0     C55351   1.226   4.759   2.246  0.8965 -0.8501  0.0668
  402MOL0     C55352   1.243   4.820   2.104 -0.7413 -0.4321  0.1036
  402MOL0     C55353   1.363   4.914   2.099 -0.6856  0.6632 -0.4082
  402MOL0     C55354   1.398   4.962   1.958 -0.2204  0.1328 -0.2388
  402MOL0     N55355   1.527   5.038   1.955 -0.3587  0.5407  0.9603
  402MOL0     C55356   1.653   4.981   1.983 -0.7506  0.5314  0.8006
  402MOL0     C55357   1.732   5.082   1.974 -0.6107 -0.0111 -0.3270
  402MOL0     C55358   1.881   5.070   2.012  0.1458 -0.4833  0.1668
  402MOL0     C55359   1.977   5.180   1.952  0.3191  0.3545  0.0435
  402MOL0     C55360   2.111   5.164   2.022  0.2634  0.5332 -0.3029
  402MOL0     C55361   2.206   5.286   1.998 -1.1875 -0.5024 -0.1829
  402MOL0     O55362   2.336   5.237   2.051  0.2338 -0.4226  0.3694
  402MOL0     C55363   2.410   5.151   1.974  0.2781  0.0139 -0.1020
  402MOL0     C55364   2.511   5.097   2.039 -0.2489  0.5593 -0.9239
  402MOL0     C55365   2.601   5.009   1.976  0.0592  0.3144  0.2977
  402MOL0     C55366   2.712   4.956   2.065 -0.6149 -0.2150 -0.2071
  402MOL0     C55367   2.578   4.979   1.836  0.3266 -0.1452 -0.0473
  402MOL0     C55368   2.659   4.872   1.768  0.1594 -0.4826  0.5123
  402MOL0     O55369   2.633   4.855   1.632 -0.1104  0.2943  0.3721
  402MOL0     C55370   2.698   4.747   1.575  0.2525  0.0575  0.1347
  402MOL0     C55371   2.803   4.755   1.485 -0.2757  1.1540  0.9885
  402MOL0     C55372   2.851   4.632   1.426  0.2457  0.6487 -0.2216
  402MOL0     C55373   2.784   4.509   1.450  0.0643  0.6395 -0.0046
  402MOL0     O55374   2.820   4.395   1.382 -0.1480 -0.7099  0.2370
  402MOL0     C55375   2.767   4.266   1.424 -0.0557 -0.1506 -0.5402
  402MOL0     C55376   2.867   4.155   1.380 -0.5248  0.4594  0.2985
  402MOL0     C55377   2.801   4.022   1.371  0.2102  0.3411 -0.8654
  402MOL0     C55378   2.886   3.917   1.278 -0.1024 -0.3513 -0.1200
  402MOL0     C55379   2.801   3.785   1.282  0.5265 -0.3705  0.4524
  402MOL0     C55380   2.867   3.676   1.186  0.0477  0.0790 -0.5653
  402MOL0     C55381   3.002   3.613   1.217  0.0248 -0.7675 -0.1976
  402MOL0     C55382   2.995   3.519   1.337  1.1557 -0.4469 -0.5358
  402MOL0    Cl55383   2.983   3.608   1.494 -0.1924 -0.3729 -0.2445
  402MOL0     C55384   2.673   4.512   1.537  0.9700 -0.3065  0.1763
  402MOL0     C55385   2.634   4.631   1.600  0.2401 -0.5381 -0.6402
  402MOL0     O55386   2.729   4.804   1.839  0.8208  0.1926  0.6643
  402MOL0     C55387   2.465   5.038   1.773  0.7923 -0.0246  0.4430
  402MOL0     C55388   2.378   5.125   1.841 -0.1070  0.6078  0.4273
  402MOL0     N55389   1.666   5.196   1.947 -0.5958  0.2987 -0.0188
  402MOL0     N55390   1.537   5.170   1.949  0.2428  0.3025 -0.3134
  402MOL0     C55391   0.566   4.592   2.427 -0.7669 -0.8293  0.4284
  402MOL0     C55392   0.451   4.595   2.507 -0.3858  0.0486  0.3501
  402MOL0     C55393   0.164   4.694   2.849  0.3982 -0.6933 -0.0580
  402MOL0     C55394   0.064   4.789   2.830  0.3736 -0.7105 -0.2627
  402MOL0     C55395  -0.054   4.774   2.895  0.6132  0.8541  0.0399
  402MOL0     C55396  -0.080   4.678   2.993  0.9028 -0.4189 -0.3122
  402MOL0     O55397  -0.199   4.689   3.059  0.4971 -0.3142 -0.0706
  402MOL0     C55398  -0.315   4.706   2.976 -0.2652 -0.1453  0.3939
  402MOL0     C55399  -0.431   4.712   3.062 -0.5508 -0.0411  0.3375
  402MOL0     C55400  -0.449   4.847   3.138  0.7236 -0.2418 -0.3678
  402MOL0     C55401  -0.575   4.841   3.235  1.0332  0.4372 -0.0903
  402MOL0     C55402  -0.542   4.765   3.349 -0.0227  0.2132 -0.2931
  402MOL0     C55403  -0.513   4.676   3.432 -0.1445 -0.1862  0.4193
  402MOL0     C55404   0.019   4.579   3.016  0.8702 -0.3301 -0.9650
  402MOL0     C55405   0.138   4.590   2.948 -0.9637  0.1644 -0.4802
  402MOL0     C55406   0.228   4.468   2.977  0.3159 -0.7102  0.5480
  402MOL0     H55407   0.598   4.655   2.801  0.7994  1.4518  0.3762
  402MOL0     H55408   0.812   4.674   2.649 -1.1885  3.6575 -1.5613
  402MOL0     H55409   0.771   4.426   2.313 -1.8416 -0.0201  4.2227
  402MOL0     H55410   0.924   4.462   2.408  1.8662  2.5608  0.0951
  402MOL0     H55411   0.973   4.451   2.152 -3.5322 -3.6841  0.6300
  402MOL0     H55412   0.829   4.563   2.131  0.7737  0.3179 -0.6665
  402MOL0     H55413   0.997   4.693   2.090  0.4835  0.4665  0.0382
  402MOL0     H55414   0.957   4.738   2.257  0.9457  0.0944 -0.4668
  402MOL0     H55415   1.131   4.597   2.346 -1.0549  1.6733  0.6781
  402MOL0     H55416   1.200   4.560   2.184  0.6150 -0.3101  0.2721
  402MOL0     H55417   1.325   4.736   2.286  1.3094  1.5234  0.5640
  402MOL0     H55418   1.177   4.824   2.320  0.6388 -1.3155  0.3076
  402MOL0     H55419   1.243   4.740   2.030 -1.4575  1.2198 -1.7908
  402MOL0     H55420   1.158   4.879   2.065  0.0499 -0.0853 -1.1604
  402MOL0     H55421   1.451   4.865   2.141 -2.0235 -0.0519  1.7197
  402MOL0     H55422   1.336   5.002   2.158 -1.4723  0.1006  0.0820
  402MOL0     H55423   1.410   4.871   1.899  0.6056 -1.3410  2.0641
  402MOL0     H55424   1.320   5.029   1.922  1.4967  2.3724 -0.0365
  402MOL0     H55425   1.680   4.878   2.002  0.3953  0.9165  1.3670
  402MOL0     H55426   1.912   4.967   1.996 -0.3566 -0.2771 -2.6425
  402MOL0     H55427   1.889   5.078   2.121  2.3164  2.1364 -0.0592
  402MOL0     H55428   1.987   5.153   1.846  0.6642 -0.9665  0.3924
  402MOL0     H55429   1.940   5.281   1.971 -2.7704 -0.5173 -0.7740
  402MOL0     H55430   2.098   5.147   2.129 -0.4130  0.4777 -0.3873
  402MOL0     H55431   2.156   5.075   1.977  0.8603  0.7650 -0.1715
  402MOL0     H55432   2.212   5.319   1.894 -2.3548  0.8942  0.1689
  402MOL0     H55433   2.171   5.371   2.058 -3.2870 -1.7550  0.4387
  402MOL0     H55434   2.537   5.127   2.140 -1.2514 -3.2517  0.6556
  402MOL0     H55435   2.727   5.020   2.153  1.8858 -0.3283 -0.4853
  402MOL0     H55436   2.808   4.955   2.013 -0.8461  0.2355 -0.6440
  402MOL0     H55437   2.688   4.856   2.103  3.2603 -0.5872  1.7455
  402MOL0     H55438   2.851   4.848   1.458  1.1698 -0.3640 -2.2129
  402MOL0     H55439   2.937   4.648   1.363  1.1281 -1.8769  0.2080
  402MOL0     H55440   2.756   4.263   1.533  1.9261 -0.4164 -0.3241
  402MOL0     H55441   2.671   4.241   1.378  0.5679 -0.1095 -1.8953
  402MOL0     H55442   2.911   4.175   1.282  1.5931 -0.1689  1.0728
  402MOL0     H55443   2.955   4.151   1.445  0.3892  2.1379 -0.7913
  402MOL0     H55444   2.705   4.043   1.323  0.9796  4.9638 -0.8366
  402MOL0     H55445   2.781   3.985   1.472 -2.9539  2.2802 -0.6467
  402MOL0     H55446   2.991   3.915   1.306  0.1756  0.8947 -0.9945
  402MOL0     H55447   2.882   3.948   1.173 -1.2304  0.5746  0.1753
  402MOL0     H55448   2.771   3.746   1.380  1.1984 -0.9011  0.4590
  402MOL0     H55449   2.706   3.810   1.234 -0.1544 -1.6279  1.1064
  402MOL0     H55450   2.870   3.722   1.087  0.8325  0.6948 -0.2679
  402MOL0     H55451   2.792   3.597   1.177 -1.1511  1.3811 -3.1087
  402MOL0     H55452   3.083   3.684   1.231  0.6753 -1.0311 -2.2953
  402MOL0     H55453   3.035   3.545   1.138 -1.1735 -2.0513  0.3593
  402MOL0     H55454   3.088   3.463   1.331  0.3998 -1.6316 -1.7856
  402MOL0     H55455   2.924   3.435   1.332  0.3047  0.3203 -3.9662
  402MOL0     H55456   2.607   4.427   1.553 -0.2159  0.6729  0.6801
  402MOL0     H55457   2.547   4.621   1.664  1.4657 -1.2073  0.9755
  402MOL0     H55458   2.461   5.044   1.665 -0.8784  3.1735  0.5466
  402MOL0     H55459   2.289   5.159   1.789  0.6657 -0.6654 -1.8250
  402MOL0     H55460   0.539   4.598   2.322  3.3654  2.1593 -0.7244
  402MOL0     H55461   0.359   4.571   2.455  0.4341 -0.5347 -0.8964
  402MOL0     H55462   0.084   4.877   2.769 -0.5308 -0.1553  0.2311
  402MOL0     H55463  -0.112   4.865   2.884  2.6943  2.0317 -2.1065
  402MOL0     H55464  -0.318   4.804   2.926 -3.4426 -0.3554 -0.0233
  402MOL0     H55465  -0.323   4.623   2.905 -1.7006  0.4144 -0.1380
  402MOL0     H55466  -0.422   4.627   3.131 -0.3516 -4.4202 -4.5174
  402MOL0     H55467  -0.519   4.710   2.997 -2.1412 -0.8992  2.3780
  402MOL0     H55468  -0.359   4.877   3.193 -1.3245  1.2027  2.5037
  402MOL0     H55469  -0.470   4.924   3.063  0.8114  1.2086  1.0389
  402MOL0     H55470  -0.662   4.797   3.187  0.3475  1.1636  0.4600
  402MOL0     H55471  -0.602   4.945   3.255 -1.1565  0.2991 -2.0169
  402MOL0     H55472  -0.490   4.589   3.489 -0.5474  0.4764  1.6405
  402MOL0     H55473  -0.005   4.506   3.092  0.2561  0.5508 -0.2932
  402MOL0     H55474   0.216   4.404   2.889 -2.3012  1.1007 -0.5286
  402MOL0     H55475   0.333   4.493   2.992 -0.0563  1.9511 -0.6858
  402MOL0     H55476   0.184   4.409   3.058 -0.4615  1.3943  1.7392
  403MOL0     O55477   8.127   3.562   8.872 -0.7583 -0.2691  0.0059
  403MOL0     C55478   8.135   3.447   8.898  1.7408  0.6131 -0.3596
  403MOL0     O55479   8.240   3.363   8.876  0.8482 -0.0363  0.0341
  403MOL0     C55480   8.361   3.423   8.838  0.8262  0.0075  0.7743
  403MOL0     C55481   8.425   3.510   8.927  0.5912 -0.8028  0.3650
  403MOL0     C55482   8.549   3.563   8.886 -0.0133  0.3995 -0.1788
  403MOL0     C55483   8.614   3.518   8.772 -1.1578  0.1543  1.1089
  403MOL0     O55484   8.734   3.574   8.746  0.4839  0.9020 -0.4212
  403MOL0     C55485   8.832   3.490   8.690  0.1463  0.0707  0.1349
  403MOL0     C55486   8.973   3.546   8.726 -0.2304 -0.3262  0.1839
  403MOL0     C55487   9.038   3.462   8.842  0.1715  0.3992  0.4154
  403MOL0     C55488   9.192   3.499   8.865  0.1767 -0.3064 -0.2771
  403MOL0     C55489   9.265   3.390   8.940 -0.4089  0.3371 -0.1940
  403MOL0     C55490   9.418   3.405   8.937  0.0065  0.0903  0.6541
  403MOL0     C55491   9.476   3.308   9.037 -0.8877 -1.0734 -0.9519
  403MOL0     C55492   9.441   3.343   9.182 -0.0953 -0.4232  0.9306
  403MOL0     N55493   9.483   3.486   9.205 -0.2406  0.2918 -0.4858
  403MOL0     C55494   9.610   3.527   9.251  0.3801  0.3596 -0.1925
  403MOL0     C55495   9.591   3.659   9.271  0.1030 -0.3005 -0.1702
  403MOL0     C55496   9.691   3.755   9.316 -0.0535 -0.4490  0.5837
  403MOL0     C55497   9.761   3.819   9.190 -0.1357 -0.8702 -0.2583
  403MOL0     C55498   9.885   3.742   9.127 -0.0471  0.1653  0.2568
  403MOL0     C55499  10.026   3.793   9.158 -0.6668 -0.4833  0.2479
  403MOL0     O55500  10.119   3.714   9.085  0.0513 -0.3396  0.0042
  403MOL0     C55501  10.246   3.716   9.131 -0.3506 -0.1257 -0.4286
  403MOL0     C55502  10.336   3.671   9.027 -0.0349 -0.6904 -0.4516
  403MOL0     C55503  10.471   3.658   9.047 -0.8093  0.0353  0.0648
  403MOL0     C55504  10.538   3.620   8.911  0.2048  0.6991  0.7339
  403MOL0     C55505  10.529   3.685   9.168  1.0337  0.0478 -0.4253
  403MOL0     C55506  10.663   3.673   9.212 -0.6700 -0.1366  0.0832
  403MOL0     O55507  10.693   3.630   9.341 -0.1928  0.2967  0.1320
  403MOL0     C55508  10.822   3.639   9.372 -0.2004  0.1279  0.1615
  403MOL0     C55509  10.881   3.764   9.405 -0.5381  1.0759  0.4430
  403MOL0     C55510  11.014   3.772   9.435 -0.8712 -0.6488  0.2673
  403MOL0     C55511  11.090   3.652   9.443  0.7349  0.7927  0.7583
  403MOL0     O55512  11.220   3.670   9.483  0.6296  0.6296 -0.5117
  403MOL0     C55513  11.307   3.552   9.520  0.2038 -0.3194 -0.2084
  403MOL0     C55514  11.441   3.593   9.590 -0.4103  0.3894  0.3905
  403MOL0     C55515  11.520   3.471   9.632 -0.6190 -0.1686 -0.5840
  403MOL0     C55516  11.657   3.509   9.696  0.1940 -0.6793  0.5356
  403MOL0     C55517  11.750   3.582   9.599 -1.4960  0.4412  0.0781
  403MOL0     C55518  11.881   3.591   9.669 -0.1883  1.0930 -0.8930
  403MOL0     C55519  11.978   3.698   9.616 -0.2730 -1.3188 -0.4901
  403MOL0     C55520  12.125   3.676   9.658  0.2376  0.1311 -0.7362
  403MOL0    Cl55521  12.153   3.736   9.827 -0.0033  0.0567  0.1121
  403MOL0     C55522  11.034   3.530   9.395  0.8861 -0.4525 -0.5823
  403MOL0     C55523  10.900   3.524   9.365 -0.5048  0.5586 -0.0942
  403MOL0     O55524  10.746   3.695   9.121 -0.2454  0.0155 -0.4004
  403MOL0     C55525  10.442   3.741   9.264  0.1060  0.4569  0.1763
  403MOL0     C55526  10.306   3.753   9.247  0.7941 -0.3854  0.0256
  403MOL0     N55527   9.459   3.691   9.255  0.5683  0.4431 -0.1200
  403MOL0     N55528   9.393   3.590   9.216 -0.0260 -0.6017  0.1313
  403MOL0     C55529   8.545   3.425   8.688 -0.4556  0.5361  0.6002
  403MOL0     C55530   8.422   3.378   8.722  0.6742  0.7388  0.2595
  403MOL0     C55531   8.025   3.380   8.980 -0.1057  0.3676 -0.3980
  403MOL0     C55532   8.034   3.243   9.003 -0.4769 -0.3755  0.3975
  403MOL0     C55533   7.928   3.168   9.058 -0.2066 -0.3316 -0.5622
  403MOL0     C55534   7.807   3.227   9.089  0.5792  0.2893 -0.3915
  403MOL0     O55535   7.701   3.151   9.132  0.1595  0.2914  0.3061
  403MOL0     C55536   7.590   3.204   9.197 -0.2799  0.2758 -0.5417
  403MOL0     C55537   7.515   3.092   9.277 -0.1415  0.4555 -0.3489
  403MOL0     C55538   7.364   3.126   9.295 -0.6166 -0.2716  0.3205
  403MOL0     C55539   7.299   3.040   9.409 -0.3198 -0.0043  0.1801
  403MOL0     C55540   7.154   3.076   9.421  0.4758  0.1134  0.4262
  403MOL0     C55541   7.036   3.096   9.455  0.1529 -0.5499 -1.6189
  403MOL0     C55542   7.798   3.367   9.079  0.6901  0.3571 -0.4415
  403MOL0     C55543   7.905   3.448   9.024  0.0329 -0.0504 -1.4266
  403MOL0     C55544   7.896   3.598   9.033 -0.1362 -0.7941  0.6247
  403MOL0     H55545   8.372   3.550   9.013 -2.7037 -2.9950 -0.4587
  403MOL0     H55546   8.592   3.632   8.958 -1.0139  0.1344  0.7033
  403MOL0     H55547   8.818   3.493   8.581  0.9886 -1.6642 -0.0674
  403MOL0     H55548   8.814   3.384   8.711 -0.3288  0.6520  2.9217
  403MOL0     H55549   9.033   3.538   8.635 -1.0243 -1.7658 -0.2528
  403MOL0     H55550   8.982   3.652   8.752  0.6837  0.3127 -2.4907
  403MOL0     H55551   8.994   3.488   8.938 -0.6945 -2.5376  0.9165
  403MOL0     H55552   9.029   3.356   8.817 -0.1744  0.6403 -0.5444
  403MOL0     H55553   9.245   3.514   8.770  2.7666  1.0386  1.2969
  403MOL0     H55554   9.212   3.592   8.918  1.9214  1.1482 -3.1937
  403MOL0     H55555   9.243   3.297   8.888  0.0235  1.2411 -2.0699
  403MOL0     H55556   9.223   3.399   9.041  2.1425  2.1783  0.8065
  403MOL0     H55557   9.459   3.376   8.840 -0.9974 -3.7484  1.2054
  403MOL0     H55558   9.449   3.509   8.952  2.7594 -0.3807 -1.1079
  403MOL0     H55559   9.585   3.309   9.039 -0.8579  1.5387  0.5962
  403MOL0     H55560   9.442   3.204   9.030  0.5039 -1.5438 -1.0204
  403MOL0     H55561   9.335   3.324   9.200  0.3298 -1.7183  2.1939
  403MOL0     H55562   9.494   3.277   9.250 -3.0983 -1.8610  2.0394
  403MOL0     H55563   9.708   3.483   9.267  0.4756  0.6327 -0.0083
  403MOL0     H55564   9.758   3.695   9.378  0.3336 -0.1485  0.4583
  403MOL0     H55565   9.645   3.832   9.378  1.1587  0.0521  0.8836
  403MOL0     H55566   9.683   3.826   9.113  0.3702  0.2706 -0.6993
  403MOL0     H55567   9.807   3.912   9.227 -1.5989 -0.9477  1.9317
  403MOL0     H55568   9.886   3.637   9.158  0.8262 -0.2276 -0.9990
  403MOL0     H55569   9.872   3.744   9.018  1.5277 -1.7929 -0.0268
  403MOL0     H55570  10.044   3.895   9.121  1.2123 -0.3589  1.3764
  403MOL0     H55571  10.035   3.793   9.267 -1.3774  1.4556  0.3476
  403MOL0     H55572  10.288   3.646   8.933  2.4269  0.2555 -2.0546
  403MOL0     H55573  10.576   3.715   8.872  2.1511 -1.6069 -3.6179
  403MOL0     H55574  10.467   3.572   8.844  2.0118  0.0209 -0.7928
  403MOL0     H55575  10.628   3.559   8.921  1.1113  1.7040 -0.8912
  403MOL0     H55576  10.818   3.852   9.405 -1.9332  0.1247 -0.2930
  403MOL0     H55577  11.052   3.862   9.484  1.2696 -3.0788  3.4872
  403MOL0     H55578  11.253   3.485   9.587  0.7351  1.2205  1.8687
  403MOL0     H55579  11.342   3.489   9.438  1.4696 -3.4874  2.5325
  403MOL0     H55580  11.498   3.659   9.523  1.1727 -2.0572 -0.8376
  403MOL0     H55581  11.413   3.653   9.677 -1.7140  0.2710  0.0648
  403MOL0     H55582  11.527   3.406   9.545 -0.8427  0.1416 -0.8378
  403MOL0     H55583  11.475   3.415   9.714  0.9052 -0.7695 -0.1096
  403MOL0     H55584  11.712   3.423   9.734 -0.5053 -1.7610 -0.8304
  403MOL0     H55585  11.644   3.580   9.778 -1.2488  1.0686 -1.0869
  403MOL0     H55586  11.768   3.530   9.504  1.0440 -1.7448  1.5979
  403MOL0     H55587  11.724   3.684   9.569 -0.7144 -0.1326 -2.9668
  403MOL0     H55588  11.919   3.489   9.659  0.2429  1.3213 -1.6094
  403MOL0     H55589  11.862   3.606   9.776  0.9528 -1.5022 -0.2476
  403MOL0     H55590  11.951   3.799   9.648  0.7390 -0.8118 -1.1912
  403MOL0     H55591  11.971   3.712   9.508 -1.2569  2.8054 -0.0528
  403MOL0     H55592  12.187   3.732   9.587  3.3074  2.7384  3.5349
  403MOL0     H55593  12.141   3.568   9.649 -2.8816 -0.7745  2.3913
  403MOL0     H55594  11.088   3.438   9.377 -1.2906 -1.4040 -2.9158
  403MOL0     H55595  10.847   3.435   9.332  1.5774 -0.5410 -0.6474
  403MOL0     H55596  10.482   3.763   9.363  2.6731 -0.0778 -0.6574
  403MOL0     H55597  10.246   3.794   9.328  0.3298 -2.2873  0.6959
  403MOL0     H55598   8.582   3.388   8.593 -1.5951  0.8199  0.0291
  403MOL0     H55599   8.391   3.296   8.658 -0.7554  0.4810  1.2591
  403MOL0     H55600   8.130   3.198   8.982  0.4607  2.0849 -0.9720
  403MOL0     H55601   7.936   3.062   9.078  1.1790 -0.0177  0.6971
  403MOL0     H55602   7.610   3.292   9.259  1.2290  1.5684 -2.6930
  403MOL0     H55603   7.518   3.231   9.118 -1.7031  0.5931  0.8121
  403MOL0     H55604   7.563   3.079   9.375 -2.2618 -1.3696  0.5191
  403MOL0     H55605   7.520   3.006   9.210 -3.6563  1.5765 -2.2736
  403MOL0     H55606   7.346   3.232   9.315  2.4466  0.5099 -0.5545
  403MOL0     H55607   7.329   3.101   9.195  0.6989  0.1627 -0.2644
  403MOL0     H55608   7.352   3.059   9.503  1.4423 -0.9024 -0.5967
  403MOL0     H55609   7.319   2.936   9.381  0.3975 -0.0533  0.8551
  403MOL0     H55610   6.936   3.125   9.482  0.6107 -1.3232  1.1544
  403MOL0     H55611   7.710   3.423   9.111  0.3162  0.0436 -0.9167
  403MOL0     H55612   7.981   3.638   9.088  1.2825  0.5544 -2.3046
  403MOL0     H55613   7.900   3.639   8.932 -2.0961 -0.2039  0.7307
  403MOL0     H55614   7.801   3.623   9.081 -2.3895  1.3025 -4.2248
  404MOL0     O55615   0.969   2.172   3.788  0.1987  0.0892 -0.1401
  404MOL0     C55616   1.001   2.224   3.900 -0.9096 -0.0502  0.4349
  404MOL0     O55617   1.129   2.275   3.926 -0.1863 -0.1876 -0.1113
  404MOL0     C55618   1.225   2.228   3.839 -0.5957  0.2078 -0.0887
  404MOL0     C55619   1.284   2.096   3.847 -0.2701 -1.3174 -0.4369
  404MOL0     C55620   1.383   2.060   3.759  0.4101 -0.2452  0.5571
  404MOL0     C55621   1.431   2.150   3.666 -0.8208  0.4798 -0.2882
  404MOL0     O55622   1.534   2.113   3.584 -0.5107  0.0462  1.2541
  404MOL0     C55623   1.566   1.980   3.559 -0.3729 -0.1431 -0.6453
  404MOL0     C55624   1.669   1.988   3.441  0.4133 -0.4927 -0.5933
  404MOL0     C55625   1.813   2.008   3.495 -0.5649 -0.0940 -1.2050
  404MOL0     C55626   1.912   2.008   3.383 -0.6458  0.8070  0.4564
  404MOL0     C55627   2.053   1.997   3.443 -0.2536 -0.3896  0.5166
  404MOL0     C55628   2.151   2.000   3.321  0.3734 -0.5144 -1.0624
  404MOL0     C55629   2.304   1.991   3.342 -0.2055  0.0594 -0.2244
  404MOL0     C55630   2.375   2.075   3.239  0.2619 -0.7338 -0.6428
  404MOL0     N55631   2.525   2.045   3.248 -0.1384  0.9474  0.2112
  404MOL0     C55632   2.583   1.935   3.183  0.3392  0.3727  0.8053
  404MOL0     C55633   2.698   1.906   3.255  0.0351 -0.0594  1.4211
  404MOL0     C55634   2.787   1.795   3.212  0.5104  0.6798  0.0909
  404MOL0     C55635   2.910   1.780   3.299 -0.2679  0.7963 -0.8106
  404MOL0     C55636   2.997   1.671   3.238 -0.2549  0.6944  0.2136
  404MOL0     C55637   3.129   1.632   3.316  0.5355  0.4886  0.0206
  404MOL0     O55638   3.212   1.745   3.343  0.6612  0.1879 -0.2043
  404MOL0     C55639   3.326   1.713   3.412 -0.0350 -0.6866 -0.0917
  404MOL0     C55640   3.374   1.586   3.440 -1.2453  0.6493 -0.1569
  404MOL0     C55641   3.498   1.570   3.506 -0.0447  0.0450 -0.0738
  404MOL0     C55642   3.538   1.427   3.536 -0.9867  0.0625  0.9758
  404MOL0     C55643   3.578   1.686   3.538  0.6077  0.1594  0.3690
  404MOL0     C55644   3.718   1.681   3.592  0.7205 -0.3139  0.8297
  404MOL0     O55645   3.778   1.557   3.595  0.3950  0.1665  0.1010
  404MOL0     C55646   3.913   1.526   3.601  0.2078 -1.0828 -0.6989
  404MOL0     C55647   4.012   1.611   3.552  0.9887  0.1817  0.5125
  404MOL0     C55648   4.143   1.569   3.554 -0.4261 -0.1138 -0.3486
  404MOL0     C55649   4.188   1.452   3.611  0.2446 -0.5233  0.3446
  404MOL0     O55650   4.325   1.430   3.632 -0.6441 -0.0716  0.7070
  404MOL0     C55651   4.369   1.292   3.610 -0.7712 -0.5547 -0.1234
  404MOL0     C55652   4.522   1.289   3.592  0.4217  0.4460 -0.0997
  404MOL0     C55653   4.581   1.147   3.581  0.3532 -0.3579  0.5450
  404MOL0     C55654   4.510   1.039   3.660 -0.0899 -1.1010 -0.4563
  404MOL0     C55655   4.612   0.923   3.684  0.4201 -0.1622  0.3143
  404MOL0     C55656   4.534   0.791   3.691  0.1040  0.5330 -1.0042
  404MOL0     C55657   4.452   0.764   3.818  1.0666 -0.6797  0.0650
  404MOL0     C55658   4.384   0.628   3.814  1.0369 -0.7460 -0.6179
  404MOL0    Cl55659   4.227   0.613   3.715 -0.5942 -0.0340  0.1100
  404MOL0     C55660   4.089   1.361   3.656  0.3663 -0.3764 -0.5551
  404MOL0     C55661   3.953   1.396   3.651  0.6695  0.3314 -1.5545
  404MOL0     O55662   3.774   1.784   3.630  0.0014 -0.7503  0.5851
  404MOL0     C55663   3.515   1.808   3.520 -0.1335 -0.4490 -0.6449
  404MOL0     C55664   3.398   1.829   3.445  0.0962  0.1342  0.0329
  404MOL0     N55665   2.718   2.016   3.348 -0.3898 -0.2136 -0.5238
  404MOL0     N55666   2.610   2.087   3.343  0.7387 -0.1392 -0.7434
  404MOL0     C55667   1.376   2.277   3.661 -1.3264  0.0209 -0.3962
  404MOL0     C55668   1.276   2.321   3.745 -0.0909 -0.5561 -0.3508
  404MOL0     C55669   0.897   2.218   4.014  0.5399  0.6267 -0.1840
  404MOL0     C55670   0.772   2.147   3.980  0.1967  0.5404  0.3030
  404MOL0     C55671   0.666   2.128   4.076  0.2424  0.6416  0.1756
  404MOL0     C55672   0.683   2.178   4.206  0.3158  0.3959 -0.6647
  404MOL0     O55673   0.598   2.140   4.307 -0.7187  0.1955 -0.3666
  404MOL0     C55674   0.484   2.059   4.277  0.6661 -0.4708  0.1199
  404MOL0     C55675   0.404   2.041   4.409 -0.2414  0.0530 -0.2971
  404MOL0     C55676   0.474   1.947   4.499  0.3849  0.7815  0.3178
  404MOL0     C55677   0.394   1.931   4.623  0.5320  0.6886  0.5025
  404MOL0     C55678   0.271   1.845   4.598  0.2454  0.5518 -0.1742
  404MOL0     C55679   0.165   1.796   4.559 -1.0556  0.3726 -0.2676
  404MOL0     C55680   0.800   2.261   4.230  0.5250 -0.5902  1.1139
  404MOL0     C55681   0.907   2.280   4.141  0.4546  1.0476 -0.0060
  404MOL0     C55682   1.022   2.367   4.188 -0.1746 -0.5174 -0.5615
  404MOL0     H55683   1.259   2.025   3.926 -1.2649  0.3655  0.8385
  404MOL0     H55684   1.408   1.956   3.779  0.6866 -0.0156  1.4465
  404MOL0     H55685   1.478   1.925   3.525  0.0480 -0.7791 -0.7333
  404MOL0     H55686   1.617   1.930   3.643 -1.0865 -0.6946 -0.5300
  404MOL0     H55687   1.673   1.895   3.384  5.7750 -1.3373  0.6246
  404MOL0     H55688   1.642   2.076   3.382 -1.4400  0.6852  1.7876
  404MOL0     H55689   1.825   2.104   3.546 -2.6324 -1.1052  1.4372
  404MOL0     H55690   1.839   1.933   3.571 -1.4639  0.9567  0.2054
  404MOL0     H55691   1.893   1.931   3.308  0.1175 -0.7718  1.8227
  404MOL0     H55692   1.921   2.103   3.329  0.8834  0.3818 -0.1203
  404MOL0     H55693   2.073   1.913   3.510  1.6170 -0.5672 -0.2319
  404MOL0     H55694   2.068   2.089   3.500 -1.8972 -0.0316  0.4394
  404MOL0     H55695   2.124   1.910   3.265 -1.5408 -0.0720 -0.8996
  404MOL0     H55696   2.126   2.092   3.266  1.8438  0.3680 -0.3390
  404MOL0     H55697   2.326   1.886   3.318  1.7235  0.6087 -1.1169
  404MOL0     H55698   2.334   2.021   3.443 -1.6384 -1.4082  0.6855
  404MOL0     H55699   2.333   2.042   3.144  1.7244 -0.8878 -1.2549
  404MOL0     H55700   2.362   2.182   3.262  1.6279 -0.2386 -2.0216
  404MOL0     H55701   2.549   1.879   3.097 -1.5565  2.8686 -0.1930
  404MOL0     H55702   2.818   1.804   3.107 -0.6492 -1.8632 -0.5392
  404MOL0     H55703   2.740   1.697   3.219  0.6454  0.6864  1.3128
  404MOL0     H55704   2.975   1.867   3.313  0.0758  0.1508  2.6906
  404MOL0     H55705   2.883   1.744   3.399  2.5523 -0.4399 -0.3875
  404MOL0     H55706   2.941   1.579   3.223  2.0673 -1.0629  1.7325
  404MOL0     H55707   3.023   1.712   3.140  0.8985  0.0006  0.2144
  404MOL0     H55708   3.103   1.606   3.419 -1.4205 -0.1776 -0.5911
  404MOL0     H55709   3.181   1.546   3.273  1.4787 -0.5747  3.0021
  404MOL0     H55710   3.312   1.499   3.422 -1.2515  0.5566  0.2880
  404MOL0     H55711   3.619   1.401   3.467 -2.8007 -0.2029 -1.1689
  404MOL0     H55712   3.464   1.357   3.497  1.1997 -0.1913 -3.2303
  404MOL0     H55713   3.562   1.414   3.642 -1.5428  2.6056  1.4722
  404MOL0     H55714   3.986   1.708   3.511 -0.8842  0.6019  2.5058
  404MOL0     H55715   4.219   1.642   3.528 -1.0636  2.0966  3.2608
  404MOL0     H55716   4.346   1.235   3.701  2.6706 -0.1278  1.1703
  404MOL0     H55717   4.310   1.244   3.532  0.8130  1.4865 -2.7260
  404MOL0     H55718   4.542   1.342   3.498  0.3469  0.4517 -0.1121
  404MOL0     H55719   4.571   1.327   3.682  2.3717  0.4648 -1.1246
  404MOL0     H55720   4.685   1.140   3.616  0.2541 -2.5587  0.5527
  404MOL0     H55721   4.578   1.120   3.475  1.3066  2.5806 -0.3327
  404MOL0     H55722   4.420   1.007   3.607 -0.8009  1.4758 -0.9353
  404MOL0     H55723   4.485   1.088   3.754 -1.2690  1.5624 -2.0508
  404MOL0     H55724   4.686   0.906   3.605  0.8848 -0.7238  0.8594
  404MOL0     H55725   4.672   0.943   3.773  2.4792  2.8157 -1.5724
  404MOL0     H55726   4.611   0.713   3.692 -0.3501 -0.0184  2.1533
  404MOL0     H55727   4.478   0.778   3.598 -0.9595  1.8743 -0.5909
  404MOL0     H55728   4.387   0.850   3.840  3.1528  0.5671  1.8597
  404MOL0     H55729   4.515   0.769   3.908 -0.2825  1.1765  0.9857
  404MOL0     H55730   4.361   0.593   3.915  2.4998  0.1586  0.0627
  404MOL0     H55731   4.457   0.564   3.764  1.3977  0.1425 -1.2448
  404MOL0     H55732   4.121   1.268   3.702  1.0335 -0.6618 -1.5818
  404MOL0     H55733   3.881   1.322   3.684 -0.4479  1.3747 -1.5265
  404MOL0     H55734   3.572   1.899   3.537  0.3790 -0.5928 -1.5008
  404MOL0     H55735   3.362   1.927   3.417  0.2141  1.0784  2.8184
  404MOL0     H55736   1.409   2.337   3.576 -3.2198  2.2615  0.3266
  404MOL0     H55737   1.231   2.417   3.723  0.5297 -0.7189 -2.5701
  404MOL0     H55738   0.745   2.113   3.881 -3.5001  2.5586  0.4444
  404MOL0     H55739   0.580   2.070   4.045  3.3726 -4.4240 -0.2380
  404MOL0     H55740   0.414   2.103   4.206 -1.3890 -3.4059  0.1631
  404MOL0     H55741   0.512   1.961   4.236  1.5065 -0.7217  1.2243
  404MOL0     H55742   0.304   2.005   4.382 -0.8544  1.5326 -0.1490
  404MOL0     H55743   0.380   2.135   4.460 -3.3468 -1.9573  2.3898
  404MOL0     H55744   0.475   1.852   4.445 -2.9971  0.9222 -0.2728
  404MOL0     H55745   0.574   1.978   4.530 -0.0417  0.8122  1.7617
  404MOL0     H55746   0.360   2.028   4.659 -3.0381 -0.0870 -0.3019
  404MOL0     H55747   0.454   1.884   4.702 -0.3118 -1.5265 -0.0870
  404MOL0     H55748   0.079   1.754   4.511  0.5618  0.4882 -3.5138
  404MOL0     H55749   0.818   2.301   4.329 -2.1116  0.4006  1.2558
  404MOL0     H55750   1.048   2.441   4.112  1.4262 -0.1732  0.2924
  404MOL0     H55751   1.016   2.432   4.276  0.5447  0.3562 -1.1391
  404MOL0     H55752   1.111   2.307   4.206  1.7129  2.1684 -0.3287
  405MOL0     O55753   2.953   8.647  10.811  0.2536  0.5426  0.5508
  405MOL0     C55754   2.986   8.553  10.745 -0.7020 -0.0970  0.5914
  405MOL0     O55755   2.907   8.441  10.733 -0.7011 -0.3768 -0.6182
  405MOL0     C55756   2.803   8.421  10.820  0.3943 -0.2465 -0.0776
  405MOL0     C55757   2.817   8.375  10.950 -0.3809 -0.2946 -0.1080
  405MOL0     C55758   2.702   8.357  11.032 -1.0152  0.6350  0.1713
  405MOL0     C55759   2.573   8.395  10.992  0.4183  0.6807  0.2859
  405MOL0     O55760   2.456   8.393  11.070 -0.6189 -0.7860 -0.3782
  405MOL0     C55761   2.478   8.332  11.203 -0.1567 -0.3052  0.1635
  405MOL0     C55762   2.368   8.353  11.296 -0.0539 -0.3202 -0.4941
  405MOL0     C55763   2.253   8.254  11.261 -0.8433 -0.3748  0.2403
  405MOL0     C55764   2.127   8.300  11.326 -0.5172 -0.1738  0.1679
  405MOL0     C55765   2.017   8.203  11.302 -0.4597  0.5019  0.1022
  405MOL0     C55766   1.913   8.221  11.404  0.3257  0.3020 -0.6415
  405MOL0     C55767   1.788   8.130  11.378 -0.2304  0.6441 -0.6405
  405MOL0     C55768   1.803   7.981  11.412 -0.4624  0.5889  0.6999
  405MOL0     N55769   1.807   7.960  11.556  0.4723  0.2834  0.0259
  405MOL0     C55770   1.866   7.856  11.617  0.6305  0.0162  0.2266
  405MOL0     C55771   1.833   7.867  11.744  0.5868  0.0398 -0.1918
  405MOL0     C55772   1.889   7.779  11.852  1.2850  0.0518  0.1040
  405MOL0     C55773   1.929   7.853  11.978  0.2667 -0.6473  0.7824
  405MOL0     C55774   1.939   7.762  12.099 -0.0929  0.2474  1.1253
  405MOL0     C55775   2.039   7.647  12.085 -0.2012 -0.4048 -0.6879
  405MOL0     O55776   2.164   7.704  12.036  0.1616 -0.6908  0.8064
  405MOL0     C55777   2.260   7.746  12.133 -0.2610  0.0943 -0.7081
  405MOL0     C55778   2.323   7.869  12.111  0.4734  0.4413  0.3639
  405MOL0     C55779   2.429   7.913  12.198 -0.3215  0.1161  0.5944
  405MOL0     C55780   2.480   8.046  12.157  0.0374  0.1619  0.2216
  405MOL0     C55781   2.463   7.836  12.312 -0.1496 -0.6797  0.6869
  405MOL0     C55782   2.574   7.880  12.398  0.4078  0.4375 -0.0516
  405MOL0     O55783   2.602   8.017  12.427 -0.5318  0.9603  0.6768
  405MOL0     C55784   2.711   8.025  12.512 -0.3554 -0.1573 -0.2876
  405MOL0     C55785   2.716   7.992  12.645 -0.3457  0.2810  0.6948
  405MOL0     C55786   2.832   7.998  12.719  1.2658  0.4323 -0.0646
  405MOL0     C55787   2.959   8.026  12.669 -0.2820 -0.3590 -1.2069
  405MOL0     O55788   3.058   8.018  12.762 -0.5506  0.1248  0.4436
  405MOL0     C55789   3.147   8.125  12.761 -0.0768 -0.1642  0.1162
  405MOL0     C55790   3.161   8.174  12.908 -0.7625 -0.1758 -0.7152
  405MOL0     C55791   3.210   8.060  13.000  0.6959 -0.1036 -0.6473
  405MOL0     C55792   3.254   8.116  13.142 -0.5912 -0.2289  0.4820
  405MOL0     C55793   3.311   8.013  13.236 -0.2833 -0.4934 -0.2477
  405MOL0     C55794   3.441   7.942  13.176  0.4515 -0.5693  0.3574
  405MOL0     C55795   3.529   7.890  13.294 -0.6377  0.0422 -0.2897
  405MOL0     C55796   3.654   7.814  13.247  0.3201  0.3069  0.5832
  405MOL0    Cl55797   3.615   7.646  13.216 -0.3923  0.3678  0.0587
  405MOL0     C55798   2.964   8.058  12.532 -0.1283  0.2342  0.5153
  405MOL0     C55799   2.843   8.056  12.459  0.0365 -0.4748  0.8447
  405MOL0     O55800   2.646   7.785  12.434  0.2444  0.3096  0.1249
  405MOL0     C55801   2.391   7.714  12.338 -0.2745 -0.1798  0.4633
  405MOL0     C55802   2.292   7.671  12.245  0.4718 -0.2209  0.2485
  405MOL0     N55803   1.768   7.989  11.770  0.0881 -0.3544  0.2558
  405MOL0     N55804   1.750   8.041  11.649  0.0760  0.0809 -0.2171
  405MOL0     C55805   2.566   8.440  10.853 -0.0476  0.1224 -0.1210
  405MOL0     C55806   2.676   8.444  10.771  0.0898 -0.0496  0.3319
  405MOL0     C55807   3.119   8.553  10.679  1.6202  0.6219 -0.2942
  405MOL0     C55808   3.219   8.607  10.758  0.8230 -0.1535  0.6903
  405MOL0     C55809   3.344   8.613  10.700 -0.3038  1.4594 -0.2251
  405MOL0     C55810   3.374   8.548  10.573  0.4123  0.4810  0.3035
  405MOL0     O55811   3.494   8.547  10.505  0.6248 -0.1243  0.4389
  405MOL0     C55812   3.574   8.653  10.531  0.1229  0.7706 -0.0527
  405MOL0     C55813   3.524   8.776  10.462 -0.1855 -0.6307  0.1537
  405MOL0     C55814   3.651   8.864  10.427  0.8597 -0.0476  0.4726
  405MOL0     C55815   3.596   8.994  10.364 -1.2509 -0.8898  0.4462
  405MOL0     C55816   3.515   8.979  10.244 -0.3957  0.8322 -0.0779
  405MOL0     C55817   3.458   8.980  10.137  0.8970 -0.2553  0.3552
  405MOL0     C55818   3.275   8.484  10.506  0.2965 -0.7541  0.0765
  405MOL0     C55819   3.143   8.490  10.549 -0.4300 -0.4092 -0.1777
  405MOL0     C55820   3.045   8.418  10.462 -0.6389  0.0709  0.5831
  405MOL0     H55821   2.915   8.361  10.995 -0.3987  1.5601  0.6189
  405MOL0     H55822   2.725   8.303  11.123  1.6516 -3.7508 -2.7425
  405MOL0     H55823   2.568   8.372  11.250 -0.0938 -2.3680  1.9536
  405MOL0     H55824   2.497   8.225  11.199  0.9997 -0.1278  0.5650
  405MOL0     H55825   2.389   8.340  11.402 -0.7034  5.6712  0.6897
  405MOL0     H55826   2.340   8.456  11.271 -0.7978 -0.6675 -1.1606
  405MOL0     H55827   2.241   8.254  11.152 -1.8007 -3.3194  0.2690
  405MOL0     H55828   2.270   8.148  11.277  2.0005 -0.0426  0.0091
  405MOL0     H55829   2.140   8.311  11.434 -2.4391  1.1492  0.3168
  405MOL0     H55830   2.098   8.400  11.293 -0.5359  1.3705  4.2614
  405MOL0     H55831   2.051   8.099  11.303 -1.3680  0.0910 -2.5890
  405MOL0     H55832   1.975   8.216  11.201  0.4920 -0.9487 -0.5116
  405MOL0     H55833   1.955   8.204  11.504  3.0406  1.6316 -1.4666
  405MOL0     H55834   1.887   8.327  11.404 -0.4764  0.2318  2.7155
  405MOL0     H55835   1.747   8.135  11.276 -3.0799  0.5887  0.4092
  405MOL0     H55836   1.710   8.170  11.444  1.5046  1.8246  0.7884
  405MOL0     H55837   1.718   7.928  11.366  0.2059  1.4257 -1.6367
  405MOL0     H55838   1.884   7.938  11.352 -0.4613  1.8459 -0.2448
  405MOL0     H55839   1.928   7.784  11.564  0.6457 -2.0542  2.8566
  405MOL0     H55840   1.973   7.723  11.811  1.6972 -0.5031  1.6217
  405MOL0     H55841   1.810   7.705  11.870 -0.0989  1.8877  2.2055
  405MOL0     H55842   2.027   7.900  11.964  0.5419 -1.0127  1.4488
  405MOL0     H55843   1.847   7.922  11.997  0.0936 -0.5156 -0.3683
  405MOL0     H55844   1.966   7.821  12.187  1.1780 -2.8632  2.9783
  405MOL0     H55845   1.842   7.716  12.114 -0.5357  0.3546 -1.0770
  405MOL0     H55846   2.045   7.602  12.185 -1.2418  1.8649  0.4771
  405MOL0     H55847   2.000   7.570  12.018  1.2432 -2.1475  0.3769
  405MOL0     H55848   2.292   7.924  12.023 -2.0868 -2.9291 -1.0497
  405MOL0     H55849   2.429   8.126  12.211 -1.5093 -0.5564 -0.1382
  405MOL0     H55850   2.480   8.072  12.051 -0.2777  0.5379  0.3111
  405MOL0     H55851   2.586   8.049  12.185 -0.2553 -3.3012  2.2174
  405MOL0     H55852   2.622   7.949  12.678 -1.5735 -0.0146 -2.8170
  405MOL0     H55853   2.831   7.975  12.825  2.0380  0.7947  0.0320
  405MOL0     H55854   3.248   8.101  12.728 -0.3671 -2.1006  0.5422
  405MOL0     H55855   3.109   8.201  12.691  2.3142 -0.1768 -1.3087
  405MOL0     H55856   3.243   8.246  12.907  0.2510 -1.2156  0.9404
  405MOL0     H55857   3.077   8.226  12.955  0.1374  0.3572  0.3652
  405MOL0     H55858   3.291   8.001  12.955  2.7560  0.2064  2.3097
  405MOL0     H55859   3.127   7.992  13.020  1.0273  0.4999  4.0293
  405MOL0     H55860   3.160   8.165  13.168  0.2821  2.5918 -1.2464
  405MOL0     H55861   3.323   8.199  13.125 -2.7248  2.3922  3.4123
  405MOL0     H55862   3.346   8.063  13.327  1.1582  0.0797 -1.0822
  405MOL0     H55863   3.235   7.939  13.263 -1.6106  0.9245  0.0819
  405MOL0     H55864   3.494   8.012  13.111 -0.8791 -1.6151 -1.9570
  405MOL0     H55865   3.409   7.860  13.111  2.3368  1.3228 -3.2085
  405MOL0     H55866   3.461   7.828  13.353 -4.2180  3.7956 -0.0172
  405MOL0     H55867   3.563   7.973  13.357 -0.2217 -1.3755  1.4536
  405MOL0     H55868   3.733   7.825  13.322  1.4233  1.1302 -0.6659
  405MOL0     H55869   3.692   7.869  13.161  0.4511  1.9201  1.6171
  405MOL0     H55870   3.057   8.075  12.478 -0.6541 -0.2457 -0.5666
  405MOL0     H55871   2.839   8.066  12.351  1.8713  0.4013  0.8169
  405MOL0     H55872   2.421   7.662  12.429  3.4404 -1.1913 -1.1616
  405MOL0     H55873   2.249   7.572  12.261 -0.9073  0.3115  0.0305
  405MOL0     H55874   2.463   8.461  10.825  0.0794  1.7184  0.5204
  405MOL0     H55875   2.668   8.467  10.665 -0.4257 -0.4468  0.2783
  405MOL0     H55876   3.210   8.649  10.857 -1.3781  0.7690  0.1504
  405MOL0     H55877   3.420   8.667  10.755  1.1915 -1.7877  1.1278
  405MOL0     H55878   3.587   8.670  10.638  0.7986  1.6044 -0.2626
  405MOL0     H55879   3.672   8.624  10.492  0.0294 -0.6732  0.6890
  405MOL0     H55880   3.455   8.839  10.518  2.4764  1.4625  1.3095
  405MOL0     H55881   3.459   8.746  10.379 -0.2140  0.6246 -0.3032
  405MOL0     H55882   3.698   8.881  10.525  3.1230  0.7136 -0.6783
  405MOL0     H55883   3.704   8.808  10.349 -0.9379 -2.5356  0.9037
  405MOL0     H55884   3.691   9.037  10.330 -1.1435  0.3938  2.2009
  405MOL0     H55885   3.547   9.063  10.434  1.3225  0.4836  1.0351
  405MOL0     H55886   3.405   8.980  10.044  0.1248  3.3184  0.6765
  405MOL0     H55887   3.297   8.428  10.416 -0.6471  2.0800 -2.0495
  405MOL0     H55888   3.031   8.335  10.533  2.2320  0.5636  1.8703
  405MOL0     H55889   2.953   8.475  10.446  1.1474  3.2862  0.9563
  405MOL0     H55890   3.082   8.372  10.370 -0.1580  0.7596  0.4293
  406MOL0     O55891   7.249   9.854   1.054 -0.4143  0.0956  0.2006
  406MOL0     C55892   7.178   9.753   1.035  0.9051 -0.4738  0.2256
  406MOL0     O55893   7.081   9.749   0.932 -0.2874  0.9083  1.0694
  406MOL0     C55894   7.103   9.821   0.825 -0.1144 -0.2481  0.2486
  406MOL0     C55895   7.017   9.921   0.787  0.1123 -0.0258 -0.1559
  406MOL0     C55896   7.035  10.004   0.681 -0.1224 -0.2860  0.5173
  406MOL0     C55897   7.154   9.984   0.604 -0.7561  0.2366 -0.6051
  406MOL0     O55898   7.199  10.074   0.505 -0.2225  0.5563  0.5939
  406MOL0     C55899   7.102  10.105   0.392 -0.3953  0.4269  0.3451
  406MOL0     C55900   7.148  10.236   0.328  0.0402 -0.2719 -0.0978
  406MOL0     C55901   7.296  10.220   0.272 -0.2750  0.3602 -0.4712
  406MOL0     C55902   7.356  10.350   0.208  0.6011 -0.9113 -0.1637
  406MOL0     C55903   7.290  10.482   0.245  0.1650 -0.4522 -0.0093
  406MOL0     C55904   7.326  10.523   0.388 -0.0562  0.5412 -0.1473
  406MOL0     C55905   7.262  10.652   0.421 -0.2091 -1.0292  0.6466
  406MOL0     C55906   7.122  10.629   0.475  0.8575 -0.9398  0.5831
  406MOL0     N55907   7.053  10.758   0.471  0.0695 -0.5666  0.2126
  406MOL0     C55908   7.095  10.875   0.530 -0.2046 -0.7522 -0.6652
  406MOL0     C55909   6.994  10.961   0.522 -0.0657  0.1651  0.0570
  406MOL0     C55910   6.991  11.100   0.582  1.4458 -0.8247  0.3576
  406MOL0     C55911   6.851  11.143   0.639  0.8360  0.5201 -0.7136
  406MOL0     C55912   6.869  11.265   0.723  0.3236 -0.2473 -0.1616
  406MOL0     C55913   6.737  11.293   0.795 -0.2547 -0.3688  0.3746
  406MOL0     O55914   6.740  11.189   0.896 -0.4030 -0.5209  0.1380
  406MOL0     C55915   6.669  11.203   1.014 -0.2400 -0.5307 -0.1271
  406MOL0     C55916   6.543  11.268   1.024  0.1700 -0.0119  0.3610
  406MOL0     C55917   6.478  11.274   1.149 -0.4574  0.4724 -0.1532
  406MOL0     C55918   6.345  11.338   1.146 -0.3428 -0.8408 -0.3720
  406MOL0     C55919   6.542  11.231   1.266  1.1297  0.2624  0.1209
  406MOL0     C55920   6.486  11.240   1.407 -0.7299 -0.7350  0.2049
  406MOL0     O55921   6.561  11.190   1.504  0.0000  0.4773  0.5399
  406MOL0     C55922   6.530  11.208   1.636 -0.7028 -0.1620 -0.7865
  406MOL0     C55923   6.428  11.136   1.692  0.2376  0.0235 -0.2321
  406MOL0     C55924   6.407  11.142   1.835 -0.3818  0.0012  0.3648
  406MOL0     C55925   6.475  11.237   1.914  0.4176  0.5691 -1.2131
  406MOL0     O55926   6.438  11.256   2.048  0.2649 -0.0327  0.2318
  406MOL0     C55927   6.298  11.248   2.093 -1.0315 -0.4023  0.0224
  406MOL0     C55928   6.286  11.284   2.243 -0.4784 -1.0105  0.4281
  406MOL0     C55929   6.325  11.434   2.262  0.6894  0.5613  0.1015
  406MOL0     C55930   6.296  11.476   2.407  0.1764 -1.0828 -0.0033
  406MOL0     C55931   6.311  11.632   2.416  0.8944  0.6837  0.3899
  406MOL0     C55932   6.461  11.665   2.420 -0.0843 -0.2769 -0.4457
  406MOL0     C55933   6.481  11.803   2.490 -0.4304  0.7622 -0.3808
  406MOL0     C55934   6.624  11.853   2.469 -0.3008  0.0009 -0.4869
  406MOL0    Cl55935   6.727  11.743   2.582 -0.3228  0.4414  0.3106
  406MOL0     C55936   6.582  11.306   1.860 -0.0651 -0.6195 -0.1460
  406MOL0     C55937   6.613  11.291   1.720  0.6217  0.9126  0.7074
  406MOL0     O55938   6.373  11.282   1.415 -0.1968 -0.1401 -0.7775
  406MOL0     C55939   6.668  11.169   1.253 -0.2369 -1.0391  0.5160
  406MOL0     C55940   6.728  11.146   1.129 -0.3397 -0.2740  0.0449
  406MOL0     N55941   6.890  10.886   0.465  0.6366 -0.4529 -0.7819
  406MOL0     N55942   6.920  10.772   0.432 -0.1839 -0.6278  0.5264
  406MOL0     C55943   7.244   9.889   0.642 -1.1561  0.8815  0.1997
  406MOL0     C55944   7.223   9.809   0.755  0.2153 -0.7298  0.1651
  406MOL0     C55945   7.168   9.632   1.131  1.1069  0.0315  0.2689
  406MOL0     C55946   7.071   9.534   1.105  0.0289 -0.5064  0.9963
  406MOL0     C55947   7.075   9.423   1.189  0.5739  0.3513 -0.1401
  406MOL0     C55948   7.155   9.409   1.306  0.6908 -0.0734  0.2072
  406MOL0     O55949   7.158   9.299   1.392  0.8511 -0.3220  0.5729
  406MOL0     C55950   7.067   9.193   1.364  0.1912 -0.7431 -0.0629
  406MOL0     C55951   7.087   9.075   1.456 -0.6504 -0.5944 -0.4213
  406MOL0     C55952   7.039   9.110   1.597  0.4090 -0.3524  0.6390
  406MOL0     C55953   7.144   9.181   1.689 -1.1101  0.1004  0.4977
  406MOL0     C55954   7.261   9.088   1.726  0.0614 -0.2831  0.0612
  406MOL0     C55955   7.351   9.011   1.765 -0.0900  0.6429 -0.2227
  406MOL0     C55956   7.238   9.509   1.330 -0.5539  0.0221  0.2292
  406MOL0     C55957   7.249   9.620   1.242 -0.4276 -0.0648  0.1496
  406MOL0     C55958   7.358   9.725   1.276 -0.0643  0.4352  1.0163
  406MOL0     H55959   6.921   9.925   0.838 -0.2949  0.1867 -0.9378
  406MOL0     H55960   6.968  10.088   0.663  1.4689  0.7942 -0.6113
  406MOL0     H55961   6.996  10.105   0.416 -0.2185 -0.3843  1.2044
  406MOL0     H55962   7.117  10.017   0.330  2.2008  0.6684  0.4788
  406MOL0     H55963   7.074  10.257   0.250 -0.2065 -0.4977  0.0692
  406MOL0     H55964   7.145  10.317   0.401  0.5696 -0.9149  0.6550
  406MOL0     H55965   7.359  10.200   0.360 -0.9240 -0.6090 -0.2236
  406MOL0     H55966   7.299  10.139   0.199 -0.6407 -0.7622  0.7146
  406MOL0     H55967   7.463  10.370   0.218  0.3814 -0.0986  0.7401
  406MOL0     H55968   7.321  10.344   0.105 -0.5806  1.0349  0.0686
  406MOL0     H55969   7.182  10.475   0.228 -0.1936 -1.4148  2.2755
  406MOL0     H55970   7.330  10.556   0.175 -0.9764 -0.9232 -1.1844
  406MOL0     H55971   7.320  10.443   0.463 -0.7939  0.2221 -0.5399
  406MOL0     H55972   7.435  10.532   0.388  0.2550 -1.6549  3.1099
  406MOL0     H55973   7.261  10.712   0.329 -0.6854 -0.1283  1.2222
  406MOL0     H55974   7.324  10.706   0.493  0.5803 -1.7710  0.5260
  406MOL0     H55975   7.069  10.558   0.411 -0.7483 -1.1848  2.1047
  406MOL0     H55976   7.123  10.578   0.572  0.7039 -1.7747  0.1538
  406MOL0     H55977   7.181  10.887   0.595 -0.3530 -1.0275 -0.4135
  406MOL0     H55978   7.011  11.158   0.491 -0.5973 -1.3720 -0.4910
  406MOL0     H55979   7.064  11.112   0.663 -0.0733  4.2761  1.3264
  406MOL0     H55980   6.785  11.157   0.553 -2.9981 -0.5129  1.8236
  406MOL0     H55981   6.799  11.058   0.684 -1.3125  2.0468 -0.1542
  406MOL0     H55982   6.943  11.262   0.803 -0.5328 -1.5075  0.6028
  406MOL0     H55983   6.896  11.347   0.655 -1.2721  1.3659  1.0255
  406MOL0     H55984   6.740  11.394   0.838 -1.2802  0.2769 -0.9759
  406MOL0     H55985   6.644  11.280   0.739 -0.2728 -0.6841  0.4760
  406MOL0     H55986   6.499  11.294   0.928  0.4774 -4.3469 -1.1538
  406MOL0     H55987   6.352  11.426   1.212  2.7867 -0.2673 -1.2650
  406MOL0     H55988   6.269  11.276   1.193 -1.5216  1.9009  1.6290
  406MOL0     H55989   6.316  11.369   1.046 -0.4094 -3.4288 -1.2266
  406MOL0     H55990   6.365  11.069   1.635  0.8924 -0.7649 -0.0442
  406MOL0     H55991   6.328  11.087   1.885  0.0139 -0.2287  0.7489
  406MOL0     H55992   6.227  11.312   2.040  0.5382  0.0554 -1.6590
  406MOL0     H55993   6.264  11.145   2.077 -1.3254 -0.2756 -0.1774
  406MOL0     H55994   6.182  11.269   2.273 -1.5912 -2.8355 -3.5919
  406MOL0     H55995   6.349  11.214   2.298  0.0899 -0.5632  0.3671
  406MOL0     H55996   6.260  11.494   2.198  0.7720  0.6588  0.1072
  406MOL0     H55997   6.428  11.454   2.230  0.5697  2.3952  0.7252
  406MOL0     H55998   6.350  11.420   2.484  0.8756  1.7133  1.6646
  406MOL0     H55999   6.188  11.462   2.417 -0.3557  1.7094 -0.9210
  406MOL0     H56000   6.253  11.682   2.339  1.2568 -1.1551 -1.1462
  406MOL0     H56001   6.262  11.669   2.507 -0.6386  3.1108 -1.2946
  406MOL0     H56002   6.474  11.679   2.313 -0.6216  0.8496 -0.3820
  406MOL0     H56003   6.522  11.590   2.471 -1.0474 -0.3439  0.6510
  406MOL0     H56004   6.469  11.797   2.599 -3.3753 -1.9787 -0.7023
  406MOL0     H56005   6.403  11.871   2.455 -1.5002  0.8468  2.0045
  406MOL0     H56006   6.641  11.953   2.508 -0.0919 -0.5384  0.8800
  406MOL0     H56007   6.659  11.848   2.366 -0.6251 -0.8661 -0.5708
  406MOL0     H56008   6.642  11.373   1.921  0.3595  0.2067 -1.4335
  406MOL0     H56009   6.704  11.325   1.670  1.0958 -2.4688 -0.9775
  406MOL0     H56010   6.709  11.113   1.336 -0.8550 -0.9743  0.8702
  406MOL0     H56011   6.820  11.090   1.140 -0.6610 -0.5950  1.2934
  406MOL0     H56012   7.331   9.869   0.580 -1.7839  0.6179 -0.6077
  406MOL0     H56013   7.291   9.734   0.794 -1.1946 -1.1690  1.8780
  406MOL0     H56014   7.001   9.533   1.022 -0.1108 -0.2812  1.1096
  406MOL0     H56015   7.011   9.338   1.165 -1.0904  1.0889  1.4065
  406MOL0     H56016   6.962   9.220   1.375 -0.7520 -3.3393 -1.7291
  406MOL0     H56017   7.069   9.162   1.259  0.7805 -2.5016  0.4349
  406MOL0     H56018   7.185   9.029   1.468 -1.0235 -1.4049 -0.3851
  406MOL0     H56019   7.019   8.994   1.426  0.6837 -1.7021 -0.5877
  406MOL0     H56020   6.954   9.175   1.578  0.3155 -1.0287 -1.6235
  406MOL0     H56021   6.999   9.024   1.653 -4.3001  1.4000  0.4265
  406MOL0     H56022   7.087   9.213   1.777 -0.5261  1.6971  0.3214
  406MOL0     H56023   7.186   9.262   1.629 -0.4059 -1.3987 -1.1351
  406MOL0     H56024   7.431   8.949   1.800  1.8541  3.5661  0.8379
  406MOL0     H56025   7.306   9.498   1.413  1.2078 -0.9238 -1.2705
  406MOL0     H56026   7.426   9.681   1.350  1.9924 -0.2022 -1.1375
  406MOL0     H56027   7.428   9.750   1.196  0.2285  0.7177  1.3545
  406MOL0     H56028   7.304   9.812   1.316 -3.3509 -1.1183  0.2687
  407MOL0     O56029   8.912   0.464   0.976  0.0052  0.2271 -0.0588
  407MOL0     C56030   8.846   0.425   1.065 -0.0861  0.1375 -0.6769
  407MOL0     O56031   8.744   0.333   1.060  0.1360 -0.2603 -0.0624
  407MOL0     C56032   8.715   0.266   0.942 -0.7535 -0.3830 -1.0067
  407MOL0     C56033   8.810   0.201   0.863 -0.0343 -0.4948  0.2041
  407MOL0     C56034   8.773   0.155   0.736 -0.3519  0.9242  0.4507
  407MOL0     C56035   8.641   0.126   0.700  0.3850  0.4385 -0.4737
  407MOL0     O56036   8.614   0.064   0.588  0.2044 -0.4747  0.5535
  407MOL0     C56037   8.508  -0.026   0.582 -0.1620  0.3645  0.0118
  407MOL0     C56038   8.551  -0.134   0.476 -0.2159 -0.5497  0.4379
  407MOL0     C56039   8.673  -0.217   0.510 -0.3947 -0.0250 -0.3461
  407MOL0     C56040   8.690  -0.331   0.405  0.5757 -0.9173  0.3313
  407MOL0     C56041   8.783  -0.435   0.466 -0.1714 -0.4392  0.9527
  407MOL0     C56042   8.783  -0.569   0.380 -0.2137 -0.0432 -0.0530
  407MOL0     C56043   8.647  -0.638   0.385  0.6934 -0.1754 -0.7202
  407MOL0     C56044   8.644  -0.743   0.497  0.3410  0.8436  0.3752
  407MOL0     N56045   8.551  -0.857   0.465  0.9033  0.5577 -0.0535
  407MOL0     C56046   8.408  -0.850   0.473 -0.3731  0.7884 -0.3213
  407MOL0     C56047   8.362  -0.969   0.414  0.3988 -0.8183 -0.4555
  407MOL0     C56048   8.230  -1.037   0.427  0.0498 -0.5903 -0.9930
  407MOL0     C56049   8.230  -1.139   0.551 -0.1306 -0.5284  0.4336
  407MOL0     C56050   8.098  -1.220   0.541  0.4830 -0.8781  0.8125
  407MOL0     C56051   8.069  -1.306   0.661  1.0896  0.0131  0.6367
  407MOL0     O56052   7.968  -1.407   0.641  0.6217 -0.6042  0.3472
  407MOL0     C56053   7.997  -1.527   0.581  0.3560  0.5148 -0.4565
  407MOL0     C56054   7.882  -1.610   0.586  0.0721 -0.1474 -0.2291
  407MOL0     C56055   7.877  -1.737   0.527  0.3831  0.6676  0.0071
  407MOL0     C56056   7.755  -1.820   0.529  0.2905  0.1583  0.3153
  407MOL0     C56057   7.991  -1.783   0.469  0.1123  0.0661 -0.2579
  407MOL0     C56058   8.009  -1.924   0.409  1.1380 -0.0886  0.2392
  407MOL0     O56059   8.118  -1.947   0.328  0.8485  0.0127 -0.9001
  407MOL0     C56060   8.149  -2.076   0.288 -0.2262 -0.1143 -0.0322
  407MOL0     C56061   8.109  -2.127   0.162 -0.2449  0.1256  0.2052
  407MOL0     C56062   8.168  -2.249   0.135 -0.9256  0.3161  0.7686
  407MOL0     C56063   8.257  -2.317   0.222  0.9153  0.3761 -0.6429
  407MOL0     O56064   8.310  -2.440   0.189 -0.4377  0.8985  0.5704
  407MOL0     C56065   8.458  -2.439   0.157 -0.0450  0.0881 -0.5336
  407MOL0     C56066   8.527  -2.560   0.212  0.4837 -0.1224 -0.4800
  407MOL0     C56067   8.508  -2.585   0.358 -0.1539  0.3854 -1.0653
  407MOL0     C56068   8.574  -2.717   0.394 -0.7909  1.1046  0.1297
  407MOL0     C56069   8.614  -2.710   0.540  0.1329  0.3952  0.4955
  407MOL0     C56070   8.659  -2.837   0.604 -0.6332  0.3089 -0.1288
  407MOL0     C56071   8.779  -2.827   0.690 -0.5457  0.0764 -0.3419
  407MOL0     C56072   8.817  -2.966   0.751 -0.0309 -0.4839  0.4904
  407MOL0    Cl56073   8.950  -2.922   0.855  0.5643 -0.2597  0.2995
  407MOL0     C56074   8.290  -2.264   0.345  0.3361  0.3173 -0.2841
  407MOL0     C56075   8.238  -2.146   0.381 -0.1233 -0.6062  0.5286
  407MOL0     O56076   7.936  -2.018   0.444 -0.3743 -0.4394  0.0103
  407MOL0     C56077   8.110  -1.702   0.474  0.1721 -0.3992  0.0998
  407MOL0     C56078   8.116  -1.581   0.530 -0.2382 -0.4142 -0.0767
  407MOL0     N56079   8.473  -1.027   0.361 -0.2971 -0.1610 -0.9800
  407MOL0     N56080   8.584  -0.974   0.398 -0.4606 -0.1161  0.7529
  407MOL0     C56081   8.544   0.182   0.786 -0.5299  0.9810  0.0752
  407MOL0     C56082   8.580   0.252   0.905 -0.6734 -0.7184  0.5844
  407MOL0     C56083   8.846   0.496   1.204 -0.1212  0.4254 -0.3754
  407MOL0     C56084   8.750   0.477   1.304 -0.0951  0.4604 -0.3559
  407MOL0     C56085   8.760   0.533   1.438 -0.4557  0.2443  0.5127
  407MOL0     C56086   8.867   0.615   1.469  0.3637  0.1026  0.6466
  407MOL0     O56087   8.883   0.673   1.592  1.2280 -0.3207 -0.0517
  407MOL0     C56088   8.835   0.806   1.599  0.3842 -0.3451  0.3667
  407MOL0     C56089   8.743   0.831   1.709  0.4369 -0.6923  0.0393
  407MOL0     C56090   8.696   0.976   1.712  0.1597 -0.1690  0.5304
  407MOL0     C56091   8.605   0.995   1.839  0.2414  0.6759 -0.3877
  407MOL0     C56092   8.530   1.117   1.820 -0.3002 -0.6921 -0.3482
  407MOL0     C56093   8.468   1.219   1.793 -0.1646 -0.3050 -0.3342
  407MOL0     C56094   8.963   0.635   1.372 -0.5499 -0.0619  1.1605
  407MOL0     C56095   8.961   0.578   1.245 -0.2918  0.4803  0.2650
  407MOL0     C56096   9.061   0.626   1.149 -0.5483  0.2239  0.1436
  407MOL0     H56097   8.912   0.227   0.889 -0.2556  0.7020 -0.0657
  407MOL0     H56098   8.848   0.107   0.674 -1.4261  0.7137 -0.7278
  407MOL0     H56099   8.415   0.030   0.572 -0.0045  1.1046  2.1630
  407MOL0     H56100   8.495  -0.073   0.680  0.4733 -1.7047 -0.8368
  407MOL0     H56101   8.465  -0.190   0.440  0.3248  0.7750 -3.3783
  407MOL0     H56102   8.575  -0.076   0.387 -1.3184  1.6102  1.4868
  407MOL0     H56103   8.766  -0.165   0.535 -1.0145  0.9070  0.1143
  407MOL0     H56104   8.644  -0.273   0.599  2.3816 -3.5235 -1.4542
  407MOL0     H56105   8.588  -0.361   0.377 -0.2353  0.8215  1.2356
  407MOL0     H56106   8.735  -0.293   0.313 -1.7214 -2.8989 -1.7659
  407MOL0     H56107   8.739  -0.464   0.562 -0.7303 -0.1420  0.7940
  407MOL0     H56108   8.882  -0.388   0.468 -0.6205  0.5345  0.8498
  407MOL0     H56109   8.804  -0.541   0.276 -1.5521 -1.0370 -0.6212
  407MOL0     H56110   8.864  -0.635   0.412 -1.2163 -1.1836  0.2160
  407MOL0     H56111   8.638  -0.693   0.291  0.2085  0.4219 -1.0331
  407MOL0     H56112   8.557  -0.576   0.393 -1.6653 -3.4607  0.6328
  407MOL0     H56113   8.745  -0.780   0.518  1.1376  2.4839 -0.3933
  407MOL0     H56114   8.615  -0.692   0.589  0.9507  0.9193  0.5340
  407MOL0     H56115   8.349  -0.780   0.531 -2.7809 -0.8756 -0.6127
  407MOL0     H56116   8.218  -1.094   0.335 -1.0362 -3.4731  0.7881
  407MOL0     H56117   8.157  -0.955   0.433 -0.9644 -1.5571  2.7163
  407MOL0     H56118   8.321  -1.197   0.535  0.2196  0.6628 -2.6875
  407MOL0     H56119   8.234  -1.084   0.645 -0.8697  0.9236 -0.3387
  407MOL0     H56120   8.014  -1.151   0.528 -0.6511 -1.5994  3.6848
  407MOL0     H56121   8.112  -1.284   0.453  3.8327  1.1150 -0.3222
  407MOL0     H56122   8.158  -1.364   0.686  0.1624  0.3305  5.9012
  407MOL0     H56123   8.043  -1.243   0.747 -3.6841 -1.3597  0.4963
  407MOL0     H56124   7.791  -1.578   0.636 -1.8195 -1.3944 -2.6426
  407MOL0     H56125   7.774  -1.913   0.582  0.0427  0.2329  0.5340
  407MOL0     H56126   7.727  -1.834   0.424  1.6151  2.6881 -0.4779
  407MOL0     H56127   7.672  -1.767   0.576 -0.6413 -1.6828  0.8126
  407MOL0     H56128   8.054  -2.077   0.082 -0.2499 -0.9229 -0.4662
  407MOL0     H56129   8.135  -2.290   0.040  0.6419  0.0585  0.3219
  407MOL0     H56130   8.469  -2.447   0.048 -1.2760 -3.1603 -0.5537
  407MOL0     H56131   8.501  -2.344   0.190  1.2346 -0.2302 -1.2223
  407MOL0     H56132   8.489  -2.645   0.154  0.8699  0.1586 -1.1565
  407MOL0     H56133   8.631  -2.537   0.188  0.9850 -1.0925  0.6832
  407MOL0     H56134   8.404  -2.588   0.390  0.7670  1.0598  2.4082
  407MOL0     H56135   8.559  -2.498   0.401  2.5059 -1.4770 -0.2043
  407MOL0     H56136   8.662  -2.739   0.332 -0.9123  1.1678 -0.0670
  407MOL0     H56137   8.508  -2.803   0.380  1.9478 -0.8199 -2.2177
  407MOL0     H56138   8.691  -2.632   0.546  1.1980 -0.7085  1.6757
  407MOL0     H56139   8.531  -2.669   0.598 -0.4891  0.3577 -0.3614
  407MOL0     H56140   8.686  -2.908   0.525 -1.6152 -1.5464  1.1255
  407MOL0     H56141   8.582  -2.882   0.667 -0.5150 -0.8619 -0.7749
  407MOL0     H56142   8.770  -2.761   0.777  1.3627 -0.7526  0.5347
  407MOL0     H56143   8.855  -2.782   0.626  0.7179 -2.7148 -0.9289
  407MOL0     H56144   8.841  -3.037   0.671 -0.4410  1.0410 -1.0754
  407MOL0     H56145   8.734  -3.005   0.810 -0.9611 -0.2089 -0.5970
  407MOL0     H56146   8.351  -2.320   0.415 -0.8758  1.3648  1.7023
  407MOL0     H56147   8.264  -2.110   0.480  1.6652  2.1346 -0.8275
  407MOL0     H56148   8.197  -1.751   0.430  0.2213  0.4320 -0.7720
  407MOL0     H56149   8.212  -1.531   0.539 -0.5786  0.0795  1.0111
  407MOL0     H56150   8.446   0.162   0.745  0.2625  0.7838 -1.8241
  407MOL0     H56151   8.510   0.306   0.968 -1.5402 -0.9815 -0.1313
  407MOL0     H56152   8.668   0.408   1.287  1.5416 -1.7956  0.3470
  407MOL0     H56153   8.684   0.507   1.512 -2.0217  0.3524 -0.9975
  407MOL0     H56154   8.928   0.859   1.619  0.9891 -0.2668 -2.2732
  407MOL0     H56155   8.792   0.836   1.503  2.2139 -0.6469 -0.5844
  407MOL0     H56156   8.806   0.811   1.796  0.1508  0.6142  0.5736
  407MOL0     H56157   8.656   0.766   1.723 -1.0817  1.6021  1.9450
  407MOL0     H56158   8.775   1.051   1.720 -1.3081  2.0491 -3.2569
  407MOL0     H56159   8.640   1.000   1.622 -1.0239 -1.0416  1.0105
  407MOL0     H56160   8.655   0.993   1.937 -0.7787 -1.5783  0.1605
  407MOL0     H56161   8.537   0.909   1.840 -0.3129  1.1149  0.5594
  407MOL0     H56162   8.408   1.303   1.765 -0.5174 -1.0898 -2.1052
  407MOL0     H56163   9.045   0.704   1.392 -0.5190  0.0137  0.7833
  407MOL0     H56164   9.136   0.691   1.196 -0.9630  1.7407 -1.2181
  407MOL0     H56165   9.115   0.536   1.117 -2.1744 -0.3705 -1.0529
  407MOL0     H56166   9.015   0.676   1.064 -2.9427 -1.6894  0.2084
  408MOL0     O56167   7.098   8.345   3.478 -0.4859  0.3917  0.7545
  408MOL0     C56168   7.037   8.447   3.509 -0.0681  0.2569  0.2807
  408MOL0     O56169   7.096   8.551   3.586  0.3389 -0.2410 -1.1013
  408MOL0     C56170   7.231   8.570   3.577  0.2085 -0.0689  0.1120
  408MOL0     C56171   7.329   8.466   3.576 -0.2872 -0.2171  0.1404
  408MOL0     C56172   7.468   8.492   3.558  0.1082 -0.1700 -1.3259
  408MOL0     C56173   7.505   8.626   3.535 -0.5020 -0.1394 -0.0176
  408MOL0     O56174   7.634   8.669   3.517 -0.4310  0.6531  0.7679
  408MOL0     C56175   7.697   8.702   3.639  0.2763 -0.2395 -0.0002
  408MOL0     C56176   7.850   8.733   3.615  0.2455 -0.1979 -0.5794
  408MOL0     C56177   7.879   8.881   3.606 -1.4668 -0.1083  0.4702
  408MOL0     C56178   7.807   8.929   3.475  0.2397  0.3601 -0.7816
  408MOL0     C56179   7.857   8.874   3.339  0.7118 -0.3402  0.9953
  408MOL0     C56180   8.003   8.874   3.308 -0.1916  0.4417 -0.1568
  408MOL0     C56181   8.058   9.019   3.295  1.1126 -0.5900  0.2199
  408MOL0     C56182   8.189   9.018   3.216  0.5871 -0.2576  0.1486
  408MOL0     N56183   8.275   9.133   3.242 -0.3184  0.1722  1.1157
  408MOL0     C56184   8.385   9.137   3.331  0.4949 -0.0865  0.3841
  408MOL0     C56185   8.423   9.265   3.331 -0.3500 -0.7446 -0.3065
  408MOL0     C56186   8.547   9.316   3.408 -0.4393  0.5263 -0.9642
  408MOL0     C56187   8.525   9.459   3.459  0.1163  0.0295  0.4198
  408MOL0     C56188   8.618   9.491   3.581 -0.1264 -1.0177 -0.7146
  408MOL0     C56189   8.769   9.487   3.561  0.5248  0.1800  0.6716
  408MOL0     O56190   8.835   9.358   3.577 -0.6555  0.1180 -0.1775
  408MOL0     C56191   8.970   9.367   3.592  0.5556 -0.2470  0.0160
  408MOL0     C56192   9.041   9.483   3.571 -0.1708 -0.6219  1.0600
  408MOL0     C56193   9.178   9.490   3.596  0.2632 -0.9078 -0.0654
  408MOL0     C56194   9.252   9.622   3.555 -0.7487  0.1176  0.1417
  408MOL0     C56195   9.245   9.378   3.662 -0.2823 -0.0870  0.2646
  408MOL0     C56196   9.389   9.376   3.700  0.0754 -0.2617  0.2930
  408MOL0     O56197   9.429   9.250   3.704 -1.3061 -0.3371  0.4074
  408MOL0     C56198   9.565   9.223   3.717  0.1326  0.1113 -0.5158
  408MOL0     C56199   9.596   9.101   3.787  0.4620 -0.1299 -0.2830
  408MOL0     C56200   9.723   9.046   3.781  0.1709 -0.2259 -0.4889
  408MOL0     C56201   9.833   9.113   3.720 -0.3678  0.3365 -0.2925
  408MOL0     O56202   9.954   9.044   3.717  0.0556 -0.1379  0.5172
  408MOL0     C56203  10.077   9.118   3.720  0.8256 -0.5797 -0.5808
  408MOL0     C56204  10.193   9.048   3.791 -0.7909  0.4406 -0.3058
  408MOL0     C56205  10.167   9.005   3.945  0.1550 -0.0059 -0.1542
  408MOL0     C56206  10.279   8.897   3.987  0.5013  0.5764 -0.5854
  408MOL0     C56207  10.416   8.955   3.995 -0.0865 -0.6279 -0.8346
  408MOL0     C56208  10.520   8.864   4.056 -0.2208 -0.7429 -0.0460
  408MOL0     C56209  10.665   8.929   4.053  0.8575  1.5157  0.1091
  408MOL0     C56210  10.721   8.941   4.193  0.4711 -0.2911 -0.5432
  408MOL0    Cl56211  10.884   9.034   4.166  0.2984 -0.0668  0.3619
  408MOL0     C56212   9.794   9.228   3.639  0.6427  0.7662 -0.3797
  408MOL0     C56213   9.666   9.282   3.642  0.5260  0.6123 -0.4542
  408MOL0     O56214   9.463   9.475   3.712  0.1025  0.3100 -0.0654
  408MOL0     C56215   9.169   9.269   3.688 -0.5849  0.1733 -0.2835
  408MOL0     C56216   9.037   9.268   3.652 -0.5882  0.1985  0.9720
  408MOL0     N56217   8.331   9.336   3.261 -0.2426 -0.3136  0.1635
  408MOL0     N56218   8.246   9.262   3.209  0.4481  0.1535  0.7384
  408MOL0     C56219   7.413   8.731   3.534  0.1823  0.0390 -0.3458
  408MOL0     C56220   7.276   8.704   3.558  0.4339  0.3867  0.3044
  408MOL0     C56221   6.885   8.443   3.499 -0.2652 -0.2884 -0.4031
  408MOL0     C56222   6.804   8.544   3.553 -0.5836 -0.8445 -1.0609
  408MOL0     C56223   6.668   8.531   3.538 -0.3096  0.3689  1.4057
  408MOL0     C56224   6.602   8.422   3.472 -0.3014  0.0206 -0.2867
  408MOL0     O56225   6.469   8.401   3.452  0.6634 -1.5290 -0.0664
  408MOL0     C56226   6.385   8.520   3.466  0.5869 -0.4496  0.3178
  408MOL0     C56227   6.227   8.497   3.456 -0.8401 -0.1882  0.4947
  408MOL0     C56228   6.186   8.415   3.581 -0.2878 -0.7191  0.2666
  408MOL0     C56229   6.049   8.346   3.554 -0.3518 -1.1630 -0.2393
  408MOL0     C56230   5.939   8.445   3.541 -0.2968 -0.5447 -0.1456
  408MOL0     C56231   5.848   8.520   3.531  0.3261  0.3910 -0.0233
  408MOL0     C56232   6.685   8.319   3.431 -0.2985 -0.5099  0.2649
  408MOL0     C56233   6.822   8.324   3.445  0.0706  0.3668 -0.0525
  408MOL0     C56234   6.896   8.208   3.377  0.3380 -0.2076  0.7196
  408MOL0     H56235   7.311   8.360   3.592 -0.9145 -0.2567 -0.7381
  408MOL0     H56236   7.531   8.406   3.575 -0.5887 -0.3376  0.6491
  408MOL0     H56237   7.700   8.608   3.694  1.2153 -1.2243 -1.6672
  408MOL0     H56238   7.646   8.786   3.688  0.8476 -0.0797  0.3300
  408MOL0     H56239   7.889   8.688   3.707 -3.0019 -2.2414 -0.0616
  408MOL0     H56240   7.899   8.671   3.538 -0.2045 -1.6800  0.2812
  408MOL0     H56241   7.850   8.940   3.693  0.1538  0.5011  0.6170
  408MOL0     H56242   7.987   8.889   3.596 -1.5546  0.1419 -0.3988
  408MOL0     H56243   7.699   8.911   3.481  0.5567 -2.6247 -2.1327
  408MOL0     H56244   7.816   9.037   3.462  1.3713  0.7500  2.3402
  408MOL0     H56245   7.812   8.928   3.255  1.3661 -1.7621 -0.3268
  408MOL0     H56246   7.823   8.771   3.324  0.2008  0.2273 -2.9332
  408MOL0     H56247   8.045   8.821   3.393 -2.5291 -1.8063 -0.2829
  408MOL0     H56248   8.040   8.817   3.223  1.5879  1.0903  0.1510
  408MOL0     H56249   8.065   9.050   3.399 -1.8422  0.8606  0.1086
  408MOL0     H56250   7.986   9.082   3.241  2.9960  1.6782  0.2292
  408MOL0     H56251   8.251   8.930   3.235  2.7550  1.1493 -0.0204
  408MOL0     H56252   8.170   9.019   3.108  0.7590 -1.8153  0.0892
  408MOL0     H56253   8.433   9.043   3.355 -2.7623 -2.1979 -0.6750
  408MOL0     H56254   8.636   9.330   3.347 -1.4889  0.1384 -2.6450
  408MOL0     H56255   8.570   9.252   3.494  2.9171  2.1670 -0.4764
  408MOL0     H56256   8.546   9.526   3.375 -0.7354 -0.5853 -0.2838
  408MOL0     H56257   8.423   9.475   3.493  0.0082 -0.2762  0.2351
  408MOL0     H56258   8.592   9.591   3.616 -0.6211 -1.9615  1.8773
  408MOL0     H56259   8.583   9.436   3.669 -0.2028 -0.4658 -0.3976
  408MOL0     H56260   8.798   9.511   3.458 -1.3983 -0.9869 -0.1858
  408MOL0     H56261   8.812   9.555   3.635  0.2934 -2.3566  3.3067
  408MOL0     H56262   9.001   9.569   3.519  0.2468 -2.2462 -2.1848
  408MOL0     H56263   9.310   9.611   3.463 -0.9355  1.3916 -0.1495
  408MOL0     H56264   9.315   9.647   3.641 -1.1425 -2.5545  1.2935
  408MOL0     H56265   9.178   9.701   3.540  0.6868  1.2401 -1.3957
  408MOL0     H56266   9.510   9.052   3.831  0.0313  1.5085  0.7448
  408MOL0     H56267   9.736   8.949   3.829  2.4466 -0.0154 -0.5357
  408MOL0     H56268  10.095   9.137   3.614  0.8937  1.0287 -0.2953
  408MOL0     H56269  10.062   9.214   3.771 -1.2876  0.8869 -3.6529
  408MOL0     H56270  10.223   8.958   3.736  0.7847 -0.1014  1.3265
  408MOL0     H56271  10.281   9.112   3.791 -0.4919  0.0385 -0.2248
  408MOL0     H56272  10.074   8.953   3.971 -0.0468  0.4622  0.0677
  408MOL0     H56273  10.172   9.096   4.005 -1.5122  0.7768 -1.1504
  408MOL0     H56274  10.288   8.818   3.912  2.1178  1.9059 -1.8843
  408MOL0     H56275  10.248   8.852   4.081  0.6811 -1.8780 -1.6348
  408MOL0     H56276  10.446   8.985   3.895 -1.0542  0.5616 -0.7824
  408MOL0     H56277  10.406   9.044   4.058 -1.0167 -1.7662  0.6920
  408MOL0     H56278  10.504   8.765   4.013 -0.1295 -1.7152  2.0037
  408MOL0     H56279  10.486   8.848   4.159  2.6739  0.4375  1.2173
  408MOL0     H56280  10.659   9.033   4.020  0.0955  1.2578 -0.6090
  408MOL0     H56281  10.740   8.875   3.994 -0.3580 -0.6815  0.4556
  408MOL0     H56282  10.738   8.840   4.232 -2.8906 -1.1159 -0.8839
  408MOL0     H56283  10.657   8.998   4.261 -0.9873 -4.1464  1.6923
  408MOL0     H56284   9.866   9.279   3.575  0.1468 -0.2130 -1.7497
  408MOL0     H56285   9.639   9.365   3.578 -0.6584  0.0854 -0.6686
  408MOL0     H56286   9.215   9.181   3.730  1.0177  0.8522 -0.5318
  408MOL0     H56287   8.988   9.172   3.664  0.0123 -0.5986 -2.0955
  408MOL0     H56288   7.455   8.830   3.527 -0.2609  0.0875 -3.4050
  408MOL0     H56289   7.203   8.783   3.563  0.7747  0.6601  1.1762
  408MOL0     H56290   6.855   8.638   3.573  0.9040 -2.0870  1.4178
  408MOL0     H56291   6.606   8.617   3.563 -1.1830  0.3558 -0.5843
  408MOL0     H56292   6.396   8.574   3.561 -1.9801 -1.4585  1.2869
  408MOL0     H56293   6.407   8.584   3.380 -1.0946 -0.0898  0.1096
  408MOL0     H56294   6.211   8.449   3.359  0.9580  0.2802 -0.0714
  408MOL0     H56295   6.189   8.600   3.455  1.4121  0.7069  1.3195
  408MOL0     H56296   6.257   8.335   3.600 -1.3942 -1.8016 -0.0476
  408MOL0     H56297   6.167   8.489   3.659 -3.4996 -0.3425 -0.7349
  408MOL0     H56298   6.037   8.269   3.631  1.1565 -0.1278  1.0952
  408MOL0     H56299   6.055   8.300   3.455  2.2888 -1.8986  0.1880
  408MOL0     H56300   5.763   8.585   3.523  1.0552  1.7002  2.0814
  408MOL0     H56301   6.639   8.240   3.372  0.3859  1.3897 -3.0958
  408MOL0     H56302   6.958   8.241   3.293 -0.3921  0.0052  0.2609
  408MOL0     H56303   6.955   8.161   3.457  2.8999 -2.6485 -2.3041
  408MOL0     H56304   6.843   8.125   3.331  2.7759 -1.3164 -0.3019
  409MOL0     O56305   6.552   9.471   6.439  0.6718 -0.3122 -0.2836
  409MOL0     C56306   6.443   9.526   6.410  0.0254 -0.6800  0.2571
  409MOL0     O56307   6.430   9.656   6.362  0.0174  0.3094 -0.5728
  409MOL0     C56308   6.528   9.733   6.318 -0.1083 -0.6739  0.7514
  409MOL0     C56309   6.660   9.705   6.285 -0.1436  0.5863  0.3290
  409MOL0     C56310   6.754   9.802   6.234  0.6323  0.3278 -0.6688
  409MOL0     C56311   6.720   9.939   6.218 -0.0604  1.0156 -1.2042
  409MOL0     O56312   6.805  10.041   6.174  0.4947  0.9005  0.0328
  409MOL0     C56313   6.938  10.004   6.134  0.0501 -0.0812  0.0541
  409MOL0     C56314   7.017  10.125   6.092  0.7080  0.1222 -0.7475
  409MOL0     C56315   7.153  10.095   6.039 -1.0380  1.9054 -0.2545
  409MOL0     C56316   7.214  10.223   5.977 -0.2428  0.2445  0.6440
  409MOL0     C56317   7.368  10.213   5.944 -0.4141  0.3985 -0.5416
  409MOL0     C56318   7.405  10.324   5.842  0.0963  0.4231 -0.5745
  409MOL0     C56319   7.554  10.331   5.800  0.6755 -0.1284  0.5951
  409MOL0     C56320   7.578  10.451   5.711  0.2523  0.9877  0.1396
  409MOL0     N56321   7.720  10.454   5.660 -0.0995  0.2167 -0.1947
  409MOL0     C56322   7.823  10.533   5.703  0.3028 -0.4571  0.5382
  409MOL0     C56323   7.932  10.484   5.647  0.5711  1.0066 -1.3805
  409MOL0     C56324   8.075  10.525   5.681  0.7150  0.6565 -0.2504
  409MOL0     C56325   8.131  10.457   5.802  1.2262  0.3510  0.0528
  409MOL0     C56326   8.247  10.540   5.860  0.8701 -0.0187  0.4092
  409MOL0     C56327   8.337  10.462   5.950  0.6176  0.3093 -0.4667
  409MOL0     O56328   8.261  10.378   6.034  0.2536 -1.1804  0.5330
  409MOL0     C56329   8.326  10.262   6.066 -0.4116  0.4287 -0.4060
  409MOL0     C56330   8.248  10.156   6.105 -0.5416  0.1461  0.8438
  409MOL0     C56331   8.303  10.032   6.146  0.1296 -0.3078  0.2479
  409MOL0     C56332   8.198   9.935   6.194  0.6223  0.1722  0.7768
  409MOL0     C56333   8.440  10.019   6.156 -1.1340  0.5764  0.4729
  409MOL0     C56334   8.506   9.895   6.203  0.9267 -0.2166 -0.0649
  409MOL0     O56335   8.625   9.909   6.257  0.2841 -0.0138  0.6066
  409MOL0     C56336   8.728   9.826   6.212 -0.3022 -0.0715  0.3561
  409MOL0     C56337   8.846   9.817   6.289 -0.3813  0.0044  1.2825
  409MOL0     C56338   8.957   9.737   6.247  0.0207 -0.5365 -0.4119
  409MOL0     C56339   8.959   9.671   6.120  0.3667  0.1699  0.0757
  409MOL0     O56340   9.062   9.597   6.067  0.8195 -0.3609  0.4059
  409MOL0     C56341   9.159   9.541   6.150 -0.6771 -0.6755  0.5973
  409MOL0     C56342   9.102   9.418   6.211  0.4913  0.3486 -1.4927
  409MOL0     C56343   9.212   9.322   6.256  0.8057 -0.1551 -0.0084
  409MOL0     C56344   9.288   9.388   6.367 -0.0238  0.2847  0.4538
  409MOL0     C56345   9.365   9.273   6.433  0.7877 -0.0911 -0.0320
  409MOL0     C56346   9.443   9.321   6.553 -0.0081  1.1663 -0.5738
  409MOL0     C56347   9.499   9.198   6.626  0.6417 -0.2351  0.1040
  409MOL0     C56348   9.562   9.238   6.768  0.2744  0.0935  0.0191
  409MOL0    Cl56349   9.648   9.106   6.849 -0.2368  0.3426 -0.2473
  409MOL0     C56350   8.843   9.683   6.049  0.0670  0.4662  0.8186
  409MOL0     C56351   8.730   9.761   6.085 -1.0218 -0.0137  0.2026
  409MOL0     O56352   8.447   9.787   6.189  0.0214  0.0931 -0.8415
  409MOL0     C56353   8.518  10.134   6.133  0.0838  0.1680 -0.5200
  409MOL0     C56354   8.458  10.255   6.094 -0.0554  0.0795 -0.2437
  409MOL0     N56355   7.894  10.368   5.573 -0.0657  0.8226 -0.1727
  409MOL0     N56356   7.767  10.353   5.586 -0.5371 -1.1280 -0.1491
  409MOL0     C56357   6.593   9.977   6.268  0.5336 -0.7148  0.7859
  409MOL0     C56358   6.502   9.871   6.311  0.3811 -0.0482 -0.3587
  409MOL0     C56359   6.317   9.465   6.438 -0.4384  0.1488  0.4880
  409MOL0     C56360   6.219   9.550   6.488  0.6326 -0.7198  0.3581
  409MOL0     C56361   6.088   9.510   6.496 -0.5141 -0.4320 -0.1016
  409MOL0     C56362   6.059   9.377   6.453  0.4510 -0.2360 -1.0806
  409MOL0     O56363   5.927   9.350   6.452 -0.2468 -0.6090 -0.1046
  409MOL0     C56364   5.874   9.222   6.462 -0.7907  0.4362  0.1603
  409MOL0     C56365   5.889   9.169   6.607  0.9288 -0.6428  0.4240
  409MOL0     C56366   5.818   9.265   6.702  0.3788 -0.0814 -0.4922
  409MOL0     C56367   5.835   9.231   6.854 -0.5013 -1.1188 -0.8458
  409MOL0     C56368   5.765   9.103   6.875 -0.3438  0.6691  0.8753
  409MOL0     C56369   5.706   8.994   6.873  0.4083  0.4564 -0.6689
  409MOL0     C56370   6.150   9.286   6.414  0.3830 -0.5973 -0.1467
  409MOL0     C56371   6.284   9.331   6.396  1.0863  0.1424 -0.5497
  409MOL0     C56372   6.385   9.236   6.334 -0.9027 -0.4088 -0.0472
  409MOL0     H56373   6.703   9.605   6.278  0.9868  1.1768 -3.4891
  409MOL0     H56374   6.848   9.767   6.194  0.5999  1.0183 -1.3833
  409MOL0     H56375   6.932   9.936   6.049  0.1752 -0.3729  0.2769
  409MOL0     H56376   6.991   9.950   6.214  0.1129 -1.9446 -1.1773
  409MOL0     H56377   6.955  10.178   6.019  1.4393 -1.1433 -2.3411
  409MOL0     H56378   7.032  10.195   6.175  1.4076 -2.7163  1.6946
  409MOL0     H56379   7.223  10.057   6.114  0.0912  1.7133 -1.3532
  409MOL0     H56380   7.149  10.018   5.961  0.6864  1.3147  0.2037
  409MOL0     H56381   7.154  10.250   5.889  2.5517  0.6365 -1.2550
  409MOL0     H56382   7.196  10.302   6.051  2.1660  0.0902  1.4702
  409MOL0     H56383   7.385  10.111   5.908  3.4376  0.6459  0.1251
  409MOL0     H56384   7.428  10.222   6.035  2.4083 -0.3446 -2.2343
  409MOL0     H56385   7.345  10.311   5.751  1.4698  0.1331 -1.4710
  409MOL0     H56386   7.383  10.419   5.890 -1.3921  0.7489 -1.8190
  409MOL0     H56387   7.573  10.239   5.745  0.6182 -0.6587  1.4422
  409MOL0     H56388   7.615  10.346   5.889  0.0671  3.7605  0.5293
  409MOL0     H56389   7.506  10.442   5.629  0.3742  2.4871 -0.1473
  409MOL0     H56390   7.557  10.550   5.753  2.9795  1.5837  0.2789
  409MOL0     H56391   7.815  10.612   5.778  0.5330 -1.1658  1.3260
  409MOL0     H56392   8.076  10.631   5.705  1.9117  0.7199 -0.5463
  409MOL0     H56393   8.137  10.498   5.595 -0.8914  0.1485 -1.3013
  409MOL0     H56394   8.055  10.457   5.881  1.6103 -4.2458  0.6874
  409MOL0     H56395   8.174  10.360   5.775  3.7261  1.5385 -0.4922
  409MOL0     H56396   8.309  10.577   5.778 -0.9102 -0.8123 -1.4034
  409MOL0     H56397   8.202  10.620   5.919 -0.9783 -1.0169  0.4545
  409MOL0     H56398   8.401  10.407   5.880  2.3211  2.5144 -0.7731
  409MOL0     H56399   8.404  10.533   5.999  0.1483  1.5119 -1.5238
  409MOL0     H56400   8.142  10.173   6.113 -0.7620 -1.0704  0.6547
  409MOL0     H56401   8.209   9.877   6.286  0.1748  0.4981  1.0401
  409MOL0     H56402   8.196   9.864   6.111  4.5282 -2.6496  2.8052
  409MOL0     H56403   8.099   9.979   6.211  0.7706  0.3935  1.0621
  409MOL0     H56404   8.852   9.870   6.383  1.2642  0.8468  0.7479
  409MOL0     H56405   9.047   9.726   6.307 -1.5303 -0.9491  2.0090
  409MOL0     H56406   9.240   9.520   6.079 -1.5320 -1.8583 -0.0779
  409MOL0     H56407   9.199   9.602   6.232  1.7832 -2.5212  0.9308
  409MOL0     H56408   9.021   9.444   6.280 -2.5006  1.8738 -5.2441
  409MOL0     H56409   9.060   9.365   6.125 -0.6179 -0.1012 -0.7013
  409MOL0     H56410   9.284   9.298   6.177  0.6446 -3.5445  0.7498
  409MOL0     H56411   9.161   9.232   6.290 -0.4724  0.7490  0.5346
  409MOL0     H56412   9.224   9.428   6.445  0.5020  0.3991  0.8322
  409MOL0     H56413   9.357   9.465   6.330  1.0580 -1.2984 -1.0049
  409MOL0     H56414   9.296   9.191   6.454 -3.1305  2.8044 -0.3859
  409MOL0     H56415   9.439   9.241   6.359  0.0800  0.2272 -0.9073
  409MOL0     H56416   9.389   9.381   6.627 -1.7046 -1.2432  0.2743
  409MOL0     H56417   9.518   9.388   6.510  0.2412  0.5908 -1.0417
  409MOL0     H56418   9.571   9.142   6.566  0.1955 -2.0539  1.1830
  409MOL0     H56419   9.407   9.143   6.647 -0.4280  2.0790  1.9901
  409MOL0     H56420   9.482   9.280   6.830  0.2471 -0.3778  0.3037
  409MOL0     H56421   9.631   9.322   6.756 -0.0593  0.2386 -0.9534
  409MOL0     H56422   8.833   9.645   5.947 -1.7471  1.2126  0.6817
  409MOL0     H56423   8.641   9.760   6.023 -1.2110  1.3786  0.4092
  409MOL0     H56424   8.620  10.132   6.167 -0.7919  0.7947  2.4012
  409MOL0     H56425   8.523  10.339   6.074  1.9093 -0.8918  1.6086
  409MOL0     H56426   6.550  10.077   6.261  0.4278 -0.8236 -0.3281
  409MOL0     H56427   6.406   9.895   6.356  1.1030 -0.4366  1.4823
  409MOL0     H56428   6.239   9.655   6.511  2.4686 -0.5998 -1.5314
  409MOL0     H56429   6.005   9.564   6.542  0.9059  0.9401  0.9466
  409MOL0     H56430   5.775   9.219   6.416 -0.7626 -1.4853  0.1461
  409MOL0     H56431   5.938   9.154   6.404 -0.1252  2.7483 -2.0146
  409MOL0     H56432   5.997   9.162   6.622  1.4206  1.2588 -1.6668
  409MOL0     H56433   5.845   9.069   6.608  0.8726 -0.6233  0.0194
  409MOL0     H56434   5.865   9.364   6.698 -1.0556  0.6854  0.4380
  409MOL0     H56435   5.710   9.279   6.685  0.0705 -0.9832  0.5474
  409MOL0     H56436   5.789   9.314   6.908 -0.6677 -1.7052 -0.0716
  409MOL0     H56437   5.941   9.228   6.881 -0.4289  1.6544 -0.4697
  409MOL0     H56438   5.666   8.896   6.893  3.2893 -0.0868  4.1083
  409MOL0     H56439   6.122   9.187   6.379  0.5553 -0.6738 -0.0693
  409MOL0     H56440   6.429   9.287   6.248  1.2607  0.7522  1.6478
  409MOL0     H56441   6.470   9.215   6.399 -0.4572  1.6479  0.0816
  409MOL0     H56442   6.335   9.142   6.308  0.9472 -1.9507  1.7327
  410MOL0     O56443   1.055   1.408   7.305  0.0357 -0.8743  0.5253
  410MOL0     C56444   0.982   1.509   7.288  0.2366  0.7237 -0.4586
  410MOL0     O56445   1.033   1.622   7.219  0.0424  0.3267  0.3171
  410MOL0     C56446   1.155   1.609   7.162  0.3192 -0.3548  0.7268
  410MOL0     C56447   1.269   1.652   7.229 -0.1440  0.6630  0.4295
  410MOL0     C56448   1.401   1.638   7.179  0.3928  0.1012  0.6156
  410MOL0     C56449   1.415   1.578   7.050 -0.8700  0.4319  0.7287
  410MOL0     O56450   1.541   1.584   6.992 -0.4191 -0.3318  0.2847
  410MOL0     C56451   1.560   1.562   6.855  0.1879 -0.0026 -0.8826
  410MOL0     C56452   1.694   1.613   6.800 -0.1599 -0.5642  0.6593
  410MOL0     C56453   1.800   1.525   6.871 -0.1476  0.1806  0.4278
  410MOL0     C56454   1.930   1.581   6.823 -0.2956  0.2422  0.8166
  410MOL0     C56455   1.971   1.530   6.687 -0.5620 -0.0229  1.2661
  410MOL0     C56456   2.118   1.580   6.656  0.0957 -0.4012  0.0812
  410MOL0     C56457   2.173   1.525   6.528  0.5012  0.2786  0.7164
  410MOL0     C56458   2.290   1.606   6.473  0.0525  0.1399 -0.2088
  410MOL0     N56459   2.359   1.533   6.365 -0.5981 -0.9430 -0.1061
  410MOL0     C56460   2.297   1.489   6.250  0.1475  0.3638  0.1543
  410MOL0     C56461   2.378   1.392   6.197 -0.4767 -1.4158 -0.2534
  410MOL0     C56462   2.335   1.304   6.079 -0.5656 -0.8990  0.0710
  410MOL0     C56463   2.372   1.383   5.950  0.0391  0.9481 -0.6276
  410MOL0     C56464   2.337   1.308   5.825 -0.2418 -0.1212  0.5888
  410MOL0     C56465   2.381   1.385   5.702 -0.4274 -0.7086 -0.6203
  410MOL0     O56466   2.523   1.375   5.682  0.6036  0.2169  0.8644
  410MOL0     C56467   2.565   1.420   5.562 -0.2655 -0.3179 -0.0770
  410MOL0     C56468   2.695   1.383   5.522 -0.0022 -0.1819 -0.2182
  410MOL0     C56469   2.754   1.420   5.400  0.7786 -0.2265  0.0871
  410MOL0     C56470   2.891   1.371   5.367  0.2489  0.1843  0.3067
  410MOL0     C56471   2.675   1.511   5.319 -0.5588  0.0563 -0.6832
  410MOL0     C56472   2.724   1.588   5.203 -0.8305 -0.2300  0.9849
  410MOL0     O56473   2.631   1.658   5.132  0.1910 -0.1404 -0.1155
  410MOL0     C56474   2.653   1.713   5.011  0.1207  0.5096  1.0050
  410MOL0     C56475   2.770   1.787   4.991  0.0492 -0.6992 -0.1741
  410MOL0     C56476   2.788   1.845   4.861 -0.6001  0.2737 -1.0063
  410MOL0     C56477   2.697   1.840   4.755  0.5073  0.4891 -0.0301
  410MOL0     O56478   2.712   1.900   4.631  0.6033  0.1618  0.9188
  410MOL0     C56479   2.789   1.812   4.546 -0.4216  1.2283  0.6003
  410MOL0     C56480   2.934   1.852   4.547 -1.0045 -0.0397 -0.0602
  410MOL0     C56481   3.019   1.790   4.437 -0.1968  0.8569 -0.0188
  410MOL0     C56482   3.155   1.854   4.420 -0.1775 -0.9033  0.2424
  410MOL0     C56483   3.230   1.779   4.311 -0.6291  0.5167 -0.2847
  410MOL0     C56484   3.366   1.823   4.272 -0.3108  1.1363 -0.0626
  410MOL0     C56485   3.364   1.957   4.185 -0.0114  0.8391 -0.5831
  410MOL0     C56486   3.476   1.965   4.080 -0.1938 -0.5758  0.2046
  410MOL0    Cl56487   3.427   1.899   3.921 -0.4895 -0.3353  0.1465
  410MOL0     C56488   2.586   1.773   4.787  0.9706  0.3737 -0.1606
  410MOL0     C56489   2.553   1.715   4.909 -0.5925 -0.8567 -0.9897
  410MOL0     O56490   2.837   1.574   5.174 -0.9147 -0.0714 -0.0456
  410MOL0     C56491   2.539   1.531   5.356  0.2434  0.4786  0.6149
  410MOL0     C56492   2.485   1.488   5.473  0.4064 -0.7948  0.5030
  410MOL0     N56493   2.491   1.385   6.276  0.1544  0.4889 -0.3752
  410MOL0     N56494   2.482   1.469   6.374 -0.0889 -0.3390 -0.3635
  410MOL0     C56495   1.299   1.540   6.984 -0.3531 -0.2201  0.2531
  410MOL0     C56496   1.162   1.568   7.030 -1.2874  0.7339  0.0492
  410MOL0     C56497   0.837   1.505   7.337 -0.5457  0.7729 -0.8570
  410MOL0     C56498   0.762   1.617   7.297  0.1485 -0.1459 -0.2718
  410MOL0     C56499   0.636   1.641   7.346  0.8891 -1.0766 -0.5949
  410MOL0     C56500   0.578   1.555   7.428 -0.5727  1.0000  0.0360
  410MOL0     O56501   0.442   1.570   7.456 -0.3789 -0.1420  0.0323
  410MOL0     C56502   0.353   1.472   7.402  0.4988 -0.5548  0.0048
  410MOL0     C56503   0.212   1.526   7.371  0.7494  0.2478 -0.0242
  410MOL0     C56504   0.210   1.648   7.273 -0.3263 -0.3307 -0.2319
  410MOL0     C56505   0.150   1.608   7.131  0.5209 -0.3102 -0.7519
  410MOL0     C56506   0.008   1.604   7.151  1.1741 -0.0129 -0.4009
  410MOL0     C56507  -0.113   1.605   7.174 -0.7945  0.9252 -1.0675
  410MOL0     C56508   0.645   1.442   7.460 -0.3596 -0.0123 -0.1889
  410MOL0     C56509   0.771   1.412   7.418  0.9559 -0.6441 -0.0097
  410MOL0     C56510   0.835   1.287   7.477  0.5286  0.0749  0.4619
  410MOL0     H56511   1.276   1.704   7.324 -0.5523 -0.0437  0.8513
  410MOL0     H56512   1.484   1.676   7.238 -1.2379  5.1957  0.0831
  410MOL0     H56513   1.482   1.609   6.794 -0.2225 -1.6412 -1.6802
  410MOL0     H56514   1.547   1.455   6.835  0.2465 -0.4996  1.4997
  410MOL0     H56515   1.702   1.604   6.691  0.3886  2.2237  0.4074
  410MOL0     H56516   1.702   1.718   6.830  0.9137 -0.7570  1.0988
  410MOL0     H56517   1.785   1.533   6.979  1.0073  1.5044  0.5295
  410MOL0     H56518   1.800   1.422   6.834  1.4019  0.3274 -0.0820
  410MOL0     H56519   1.935   1.689   6.839  2.6988  0.3639 -0.2063
  410MOL0     H56520   2.003   1.532   6.889 -1.8492 -2.9312  0.3980
  410MOL0     H56521   1.895   1.562   6.616 -0.6057 -0.0557  1.2981
  410MOL0     H56522   1.967   1.422   6.678 -0.2481 -0.1740  2.6380
  410MOL0     H56523   2.124   1.689   6.645 -0.3119 -0.3230  0.6318
  410MOL0     H56524   2.183   1.550   6.738 -0.6052 -2.2010  0.0247
  410MOL0     H56525   2.098   1.527   6.449  1.0956  1.8470  0.1619
  410MOL0     H56526   2.211   1.423   6.543  1.7238  0.9570  2.6084
  410MOL0     H56527   2.243   1.701   6.444 -1.2557 -0.3922  0.1106
  410MOL0     H56528   2.358   1.623   6.557 -1.0966  1.7225  0.4389
  410MOL0     H56529   2.197   1.504   6.211 -0.0410  1.1057  0.8854
  410MOL0     H56530   2.226   1.299   6.081 -0.7357  1.6627  1.4922
  410MOL0     H56531   2.384   1.206   6.079 -3.0195 -2.2466  1.8330
  410MOL0     H56532   2.328   1.483   5.948 -0.5844  0.7550  1.3479
  410MOL0     H56533   2.481   1.390   5.955  0.2919 -1.8194 -0.8253
  410MOL0     H56534   2.398   1.217   5.820  0.3758  0.2078  1.7080
  410MOL0     H56535   2.230   1.295   5.847  0.0424  0.9725  2.9620
  410MOL0     H56536   2.325   1.338   5.620 -2.9466  0.6511  0.2005
  410MOL0     H56537   2.347   1.488   5.715 -0.9372 -0.8343 -0.9335
  410MOL0     H56538   2.749   1.312   5.585 -0.8016 -1.1468 -0.5896
  410MOL0     H56539   2.927   1.284   5.424  1.6272 -0.0749 -0.8953
  410MOL0     H56540   2.965   1.447   5.394  0.7365  0.2942 -1.2219
  410MOL0     H56541   2.893   1.349   5.260 -0.1621 -1.0649  0.5377
  410MOL0     H56542   2.845   1.798   5.068 -1.2643  0.9346  0.9465
  410MOL0     H56543   2.884   1.889   4.834 -0.6885  0.8004 -0.4784
  410MOL0     H56544   2.770   1.706   4.563  1.0435  0.7501 -0.5576
  410MOL0     H56545   2.750   1.842   4.448  0.6136 -0.6887 -0.4483
  410MOL0     H56546   2.933   1.961   4.535 -1.9332 -0.2668 -2.6842
  410MOL0     H56547   2.981   1.821   4.641  0.4768  3.1135  0.3744
  410MOL0     H56548   2.966   1.804   4.343 -1.9039  1.8035  1.0447
  410MOL0     H56549   3.030   1.683   4.457  1.8530  0.4662 -2.6664
  410MOL0     H56550   3.212   1.840   4.512  1.4665 -3.6981 -1.0849
  410MOL0     H56551   3.141   1.958   4.390  5.1821  0.3558  1.0560
  410MOL0     H56552   3.253   1.681   4.354 -0.9564  0.0929 -1.0674
  410MOL0     H56553   3.167   1.758   4.225  0.1790  0.4310 -0.8742
  410MOL0     H56554   3.421   1.751   4.210 -1.5617  1.6967 -1.8948
  410MOL0     H56555   3.425   1.823   4.364  0.5100  1.6372 -0.5839
  410MOL0     H56556   3.366   2.038   4.258  0.4177 -0.9730  1.5311
  410MOL0     H56557   3.274   1.966   4.124  0.6982  0.9938 -1.6406
  410MOL0     H56558   3.571   1.921   4.111  0.4277 -0.2116 -1.1193
  410MOL0     H56559   3.498   2.072   4.073 -0.4590 -0.6440 -2.7825
  410MOL0     H56560   2.510   1.785   4.711 -1.1370  2.3841  2.0631
  410MOL0     H56561   2.455   1.670   4.924 -1.4817  0.5853 -2.1469
  410MOL0     H56562   2.477   1.595   5.294 -0.8384 -0.1032  1.0641
  410MOL0     H56563   2.385   1.525   5.494  0.8348 -0.8213  2.8095
  410MOL0     H56564   1.299   1.481   6.892  0.1803  0.1634 -0.0035
  410MOL0     H56565   1.072   1.547   6.973 -0.4309 -1.4408 -0.6088
  410MOL0     H56566   0.805   1.696   7.237  1.2563 -1.7371 -1.6454
  410MOL0     H56567   0.585   1.733   7.318 -2.1743 -1.6138  2.4750
  410MOL0     H56568   0.392   1.427   7.310  0.4341 -1.3260  0.3457
  410MOL0     H56569   0.352   1.389   7.474  0.4361 -2.1679 -1.7573
  410MOL0     H56570   0.166   1.561   7.464 -1.6199 -0.5083 -0.8527
  410MOL0     H56571   0.156   1.445   7.324 -2.0372  2.4127 -0.6898
  410MOL0     H56572   0.157   1.724   7.330  0.1787 -1.9814  2.6480
  410MOL0     H56573   0.314   1.681   7.263 -1.1598  1.8677 -2.8007
  410MOL0     H56574   0.182   1.506   7.109 -3.6327 -1.9867  0.0471
  410MOL0     H56575   0.179   1.684   7.057 -2.7904  0.7826 -1.0894
  410MOL0     H56576  -0.219   1.610   7.185 -0.8413  3.0613 -1.9526
  410MOL0     H56577   0.587   1.373   7.521  1.9622 -1.2124  0.7666
  410MOL0     H56578   0.913   1.329   7.541  1.2032  2.9259 -2.0245
  410MOL0     H56579   0.764   1.221   7.529 -0.4666  1.5646  1.0552
  410MOL0     H56580   0.884   1.231   7.397 -2.4607  0.5340 -1.8887
  411MOL0     O56581   8.749   7.493   3.761 -0.2365  0.3801 -0.4165
  411MOL0     C56582   8.749   7.431   3.865  0.4591  0.1871  0.2781
  411MOL0     O56583   8.865   7.392   3.932 -0.1240  0.5014 -0.3233
  411MOL0     C56584   8.994   7.412   3.889  1.0551  0.1591 -0.2375
  411MOL0     C56585   9.050   7.510   3.803  0.7131  0.0143 -0.2314
  411MOL0     C56586   9.184   7.512   3.770  0.0431 -0.2479  0.5041
  411MOL0     C56587   9.279   7.415   3.817  0.3359  0.3281 -0.3979
  411MOL0     O56588   9.404   7.412   3.764  0.2814 -0.5193 -0.2340
  411MOL0     C56589   9.488   7.298   3.787  0.4777 -0.4190  0.2104
  411MOL0     C56590   9.622   7.331   3.721 -0.8822 -0.0105 -0.2151
  411MOL0     C56591   9.719   7.214   3.709  1.2557 -1.1590  0.7379
  411MOL0     C56592   9.715   7.122   3.826  0.0749  0.8340  0.0116
  411MOL0     C56593   9.822   7.012   3.819 -0.3940  0.4014  0.7295
  411MOL0     C56594   9.962   7.073   3.860  0.5610 -0.5005 -0.2004
  411MOL0     C56595  10.086   6.966   3.844  0.1789 -0.6035  0.0419
  411MOL0     C56596  10.138   6.937   3.704  0.3714  0.2954 -0.2459
  411MOL0     N56597  10.262   6.854   3.717  0.0870  0.0538 -0.6176
  411MOL0     C56598  10.367   6.839   3.623  0.3354  1.0929  0.0404
  411MOL0     C56599  10.440   6.736   3.673 -0.3196 -0.4063 -0.3209
  411MOL0     C56600  10.561   6.690   3.606  0.2423 -0.0277  1.1210
  411MOL0     C56601  10.646   6.588   3.677 -0.2815  1.0856 -1.3613
  411MOL0     C56602  10.784   6.625   3.713 -0.1119 -0.5920  0.7146
  411MOL0     C56603  10.865   6.525   3.787 -0.0276 -0.3964  0.1562
  411MOL0     O56604  10.934   6.446   3.692 -0.8173 -0.1263 -0.6541
  411MOL0     C56605  11.050   6.384   3.738 -0.0257  1.1708 -0.5648
  411MOL0     C56606  11.150   6.376   3.642  0.0317 -0.1192  0.5729
  411MOL0     C56607  11.269   6.310   3.660  0.8949  0.3813  0.6753
  411MOL0     C56608  11.356   6.282   3.535 -0.2537 -0.1866 -0.0293
  411MOL0     C56609  11.299   6.266   3.787  1.1068 -0.3438 -0.2829
  411MOL0     C56610  11.425   6.194   3.820  0.1373 -0.1533  0.4669
  411MOL0     O56611  11.442   6.172   3.950 -0.3911 -0.1319 -0.9073
  411MOL0     C56612  11.565   6.124   3.984 -1.1030  0.0841  0.2101
  411MOL0     C56613  11.573   6.013   4.068  0.9490 -0.2304 -0.1825
  411MOL0     C56614  11.691   5.975   4.133  0.1621  0.2753 -0.3275
  411MOL0     C56615  11.809   6.037   4.117  0.2811  0.2843  0.2192
  411MOL0     O56616  11.933   6.004   4.164 -0.3273 -0.0843 -0.6711
  411MOL0     C56617  11.950   5.878   4.240 -1.3518 -0.0935 -0.3276
  411MOL0     C56618  12.101   5.838   4.214 -0.2023  0.7564 -0.2974
  411MOL0     C56619  12.146   5.715   4.289  0.2360  0.0889  0.4094
  411MOL0     C56620  12.263   5.639   4.224 -0.0384 -0.1312 -0.3349
  411MOL0     C56621  12.384   5.728   4.190 -1.2106 -0.5872  0.2632
  411MOL0     C56622  12.466   5.770   4.316 -0.3449 -0.3891  0.3381
  411MOL0     C56623  12.568   5.887   4.303 -0.5404 -0.1033  0.5538
  411MOL0     C56624  12.688   5.888   4.391 -0.1049 -0.5516 -0.9859
  411MOL0    Cl56625  12.787   5.738   4.383  0.0241 -0.4732  0.0692
  411MOL0     C56626  11.803   6.156   4.045 -1.2024 -0.6602  1.0013
  411MOL0     C56627  11.689   6.197   3.976 -0.8103  1.4503 -0.2503
  411MOL0     O56628  11.487   6.140   3.723 -0.2236 -0.2967  0.4136
  411MOL0     C56629  11.207   6.280   3.892  0.9907 -0.3475 -0.0929
  411MOL0     C56630  11.077   6.333   3.869  0.2558  0.3354  0.2342
  411MOL0     N56631  10.387   6.684   3.785 -0.7411  0.7219  0.7264
  411MOL0     N56632  10.280   6.750   3.810 -0.8362  0.2616 -0.5651
  411MOL0     C56633   9.225   7.314   3.902  0.9353 -0.3676  0.4044
  411MOL0     C56634   9.088   7.306   3.933  0.2733  0.1838  0.2140
  411MOL0     C56635   8.619   7.375   3.923  0.5885  0.0677 -0.0521
  411MOL0     C56636   8.609   7.363   4.066  0.5345 -0.1568  0.7402
  411MOL0     C56637   8.489   7.331   4.123 -0.6742 -0.0799  0.1655
  411MOL0     C56638   8.377   7.303   4.040 -0.5975 -0.6367 -0.1099
  411MOL0     O56639   8.270   7.262   4.101 -0.6587  0.4396 -0.0795
  411MOL0     C56640   8.162   7.220   4.022 -0.8707  0.8382  0.0402
  411MOL0     C56641   8.153   7.076   3.967  0.7659 -0.1028 -0.6895
  411MOL0     C56642   8.177   6.981   4.092  0.8988  0.7657 -0.5481
  411MOL0     C56643   8.181   6.829   4.056  0.5046  0.2486  0.1481
  411MOL0     C56644   8.058   6.798   3.980 -0.5695  0.0292  0.0451
  411MOL0     C56645   7.948   6.777   3.931 -0.3636  0.2667  0.2497
  411MOL0     C56646   8.384   7.313   3.894 -0.1704  0.5299  0.0974
  411MOL0     C56647   8.509   7.343   3.837  0.4682 -0.0778 -0.1335
  411MOL0     C56648   8.524   7.312   3.687  0.1063 -0.8121 -0.9004
  411MOL0     H56649   8.993   7.599   3.780  0.2117 -0.1491  0.3597
  411MOL0     H56650   9.214   7.609   3.732  0.3278 -0.5222  0.0025
  411MOL0     H56651   9.443   7.209   3.742  0.0151  0.4329 -1.0591
  411MOL0     H56652   9.508   7.281   3.894  3.9693 -0.9941 -0.4121
  411MOL0     H56653   9.605   7.373   3.622  1.4889  1.0667 -0.2254
  411MOL0     H56654   9.658   7.405   3.793  3.0800  1.7926 -3.6312
  411MOL0     H56655   9.678   7.153   3.628 -0.5812  0.1087  0.6598
  411MOL0     H56656   9.822   7.245   3.688  0.6615  2.2932  2.2284
  411MOL0     H56657   9.740   7.174   3.919 -1.0793 -0.4297  1.0593
  411MOL0     H56658   9.619   7.072   3.837  0.6077  0.1903  2.2264
  411MOL0     H56659   9.819   6.979   3.715 -2.5055  0.9211  0.5870
  411MOL0     H56660   9.804   6.933   3.892 -0.5972 -1.6945 -1.4655
  411MOL0     H56661   9.978   7.158   3.792 -2.1205  0.4548  0.2676
  411MOL0     H56662   9.967   7.109   3.963 -0.1438 -0.9106 -0.0121
  411MOL0     H56663  10.059   6.871   3.891 -3.3023 -0.0439 -0.5552
  411MOL0     H56664  10.170   7.011   3.899  0.2471 -0.7271  0.0400
  411MOL0     H56665  10.062   6.886   3.644 -0.6306  1.0402  0.3472
  411MOL0     H56666  10.165   7.032   3.655  1.7267  0.2760  0.4285
  411MOL0     H56667  10.392   6.883   3.527  0.6918 -1.2129 -0.9969
  411MOL0     H56668  10.619   6.781   3.590  0.8142 -0.6200 -0.4447
  411MOL0     H56669  10.535   6.658   3.504  2.9970 -1.3803  0.7490
  411MOL0     H56670  10.597   6.553   3.769 -2.4278 -0.4855 -3.0029
  411MOL0     H56671  10.647   6.493   3.624 -3.3829 -0.4310  0.9759
  411MOL0     H56672  10.835   6.631   3.616 -0.0752 -1.4536  0.6811
  411MOL0     H56673  10.773   6.724   3.760 -3.8111  0.2671 -1.5693
  411MOL0     H56674  10.931   6.580   3.855  0.2452  0.0884 -0.4843
  411MOL0     H56675  10.803   6.460   3.850 -1.8511  0.6940 -0.4370
  411MOL0     H56676  11.124   6.409   3.542  1.5648  2.8674  1.0248
  411MOL0     H56677  11.325   6.343   3.450  1.5135  0.5641 -0.1729
  411MOL0     H56678  11.358   6.176   3.509 -0.0956 -0.2028  0.0471
  411MOL0     H56679  11.463   6.301   3.551 -0.7445  2.0129  1.0426
  411MOL0     H56680  11.481   5.957   4.078  1.6003 -1.5993 -1.4754
  411MOL0     H56681  11.685   5.884   4.192  1.9306  1.0431  1.1577
  411MOL0     H56682  11.937   5.891   4.348 -0.2698 -1.7450  0.0298
  411MOL0     H56683  11.899   5.793   4.193 -1.9733  1.0177 -1.7418
  411MOL0     H56684  12.124   5.833   4.107  0.5063 -1.0087 -0.0926
  411MOL0     H56685  12.151   5.929   4.250 -1.7825  2.2788 -1.7662
  411MOL0     H56686  12.060   5.649   4.278 -1.1975  2.3176 -3.6361
  411MOL0     H56687  12.176   5.743   4.390  1.8239  3.3796 -0.8344
  411MOL0     H56688  12.232   5.592   4.130  0.3445 -2.0788  0.4635
  411MOL0     H56689  12.296   5.563   4.295 -3.8209 -0.2536  1.5214
  411MOL0     H56690  12.459   5.673   4.133  2.1310  1.9496  1.8788
  411MOL0     H56691  12.361   5.823   4.142 -1.3261  0.1204  1.6795
  411MOL0     H56692  12.523   5.679   4.338  0.8078  0.2064 -0.0849
  411MOL0     H56693  12.406   5.788   4.405  0.4590  0.8627  0.6501
  411MOL0     H56694  12.520   5.982   4.328  1.1875  2.6492 -4.8220
  411MOL0     H56695  12.598   5.908   4.200  0.5399  0.1931  0.9190
  411MOL0     H56696  12.656   5.909   4.494  1.7261  4.8099 -1.1923
  411MOL0     H56697  12.750   5.976   4.376  0.8480 -0.8737  0.7914
  411MOL0     H56698  11.895   6.210   4.028 -0.2948 -1.9307  1.7491
  411MOL0     H56699  11.684   6.278   3.904 -0.9880  0.9056 -0.8635
  411MOL0     H56700  11.222   6.254   3.996 -2.4143 -1.1220  0.3286
  411MOL0     H56701  11.005   6.333   3.950  1.3919 -0.1117  1.2780
  411MOL0     H56702   9.303   7.257   3.950  0.6866 -0.5426  0.5985
  411MOL0     H56703   9.051   7.227   3.997  0.5585 -3.4638 -3.7194
  411MOL0     H56704   8.692   7.395   4.129  2.1320  1.4018 -1.9252
  411MOL0     H56705   8.492   7.311   4.229  2.4343 -1.1039 -0.0236
  411MOL0     H56706   8.077   7.212   4.090 -0.1015 -3.6944  0.7753
  411MOL0     H56707   8.137   7.292   3.943 -0.1740  0.6923 -0.3294
  411MOL0     H56708   8.237   7.066   3.898  2.3147 -4.1352  1.4302
  411MOL0     H56709   8.060   7.053   3.914  0.3161 -2.6529  1.0123
  411MOL0     H56710   8.273   7.003   4.140  0.9750  0.7487 -0.6933
  411MOL0     H56711   8.101   7.000   4.169  2.6695 -3.4545  2.6585
  411MOL0     H56712   8.189   6.765   4.144  0.3386 -1.0530 -0.7518
  411MOL0     H56713   8.267   6.810   3.990 -1.5208 -0.8913 -2.3280
  411MOL0     H56714   7.856   6.761   3.878 -0.2990 -0.0216  0.2259
  411MOL0     H56715   8.292   7.298   3.838  1.1477  1.5270 -2.5188
  411MOL0     H56716   8.595   7.379   3.638 -1.5646  1.3678 -0.5364
  411MOL0     H56717   8.549   7.209   3.661  4.6873  0.2597 -1.5434
  411MOL0     H56718   8.430   7.334   3.635 -1.2367  1.9428  2.2819
  412MOL0     O56719  10.448   1.252   9.429 -0.1449 -0.8837 -0.9031
  412MOL0     C56720  10.356   1.251   9.349  0.2657 -0.4054  0.2206
  412MOL0     O56721  10.346   1.168   9.235 -0.0229  0.2712 -0.1908
  412MOL0     C56722  10.450   1.078   9.236  0.1158  0.4923 -0.3542
  412MOL0     C56723  10.531   1.088   9.122 -0.4655 -0.8410 -0.5727
  412MOL0     C56724  10.612   0.976   9.087 -0.3143  0.1420  0.5644
  412MOL0     C56725  10.593   0.856   9.138  0.3516 -0.2103 -0.7619
  412MOL0     O56726  10.657   0.745   9.080  0.8892  0.4809  0.7077
  412MOL0     C56727  10.636   0.616   9.131  0.4149 -0.2369 -0.5322
  412MOL0     C56728  10.712   0.523   9.046  0.3795 -0.3765 -0.8139
  412MOL0     C56729  10.664   0.378   9.060  0.5200 -0.4756  0.6893
  412MOL0     C56730  10.673   0.320   9.207  0.4756 -0.6032  0.0035
  412MOL0     C56731  10.659   0.163   9.210 -1.1381  0.5861  0.0760
  412MOL0     C56732  10.670   0.121   9.355 -0.3586 -0.0519 -0.2062
  412MOL0     C56733  10.689  -0.031   9.366  0.1809 -1.4553  0.5895
  412MOL0     C56734  10.715  -0.073   9.506  0.0079 -0.2529  0.7473
  412MOL0     N56735  10.833  -0.000   9.552 -0.8245  0.1774  0.1623
  412MOL0     C56736  10.952  -0.004   9.497 -0.4071 -0.4614 -0.3316
  412MOL0     C56737  11.037   0.074   9.570  0.8458  0.2243 -0.6184
  412MOL0     C56738  11.184   0.098   9.559  0.1475 -0.2821 -0.3469
  412MOL0     C56739  11.210   0.244   9.520  0.4656 -0.2342 -0.4560
  412MOL0     C56740  11.349   0.312   9.557  0.9060  0.7731  0.8954
  412MOL0     C56741  11.338   0.466   9.536 -0.5214 -0.1586  0.4112
  412MOL0     O56742  11.329   0.502   9.394 -0.3271 -0.1918  0.1163
  412MOL0     C56743  11.354   0.630   9.346 -0.4033  0.3241 -0.7334
  412MOL0     C56744  11.375   0.747   9.429 -0.3388  0.0420 -0.2787
  412MOL0     C56745  11.440   0.855   9.373  0.6152 -0.1103  0.3337
  412MOL0     C56746  11.474   0.966   9.467  0.4148 -0.0119 -0.2338
  412MOL0     C56747  11.480   0.853   9.235 -0.4085 -0.4473  0.6204
  412MOL0     C56748  11.557   0.956   9.160 -0.1471 -0.3988  0.5263
  412MOL0     O56749  11.646   0.905   9.062 -0.1324 -0.8409 -1.1652
  412MOL0     C56750  11.745   0.996   9.021  0.4479  0.3034  0.2106
  412MOL0     C56751  11.842   1.060   9.102 -0.5932  1.2570 -0.1082
  412MOL0     C56752  11.941   1.141   9.049 -0.3400 -0.7074 -0.4921
  412MOL0     C56753  11.945   1.168   8.908 -0.4198 -0.4386 -0.5209
  412MOL0     O56754  12.023   1.255   8.850  0.3548  1.0506 -0.2712
  412MOL0     C56755  12.097   1.344   8.933  0.3359 -0.4497  0.4976
  412MOL0     C56756  12.186   1.409   8.838 -0.0023 -0.1614 -0.5665
  412MOL0     C56757  12.256   1.536   8.897  0.0511  1.1686 -0.1617
  412MOL0     C56758  12.158   1.661   8.903 -0.2058  1.0915  0.6337
  412MOL0     C56759  12.244   1.787   8.931 -0.4567 -0.2042  0.8507
  412MOL0     C56760  12.167   1.902   8.996  0.1749 -0.0148 -0.2223
  412MOL0     C56761  12.071   1.972   8.889  0.2340 -0.0680  1.2409
  412MOL0     C56762  11.968   2.056   8.962 -0.2860 -0.3034 -0.1404
  412MOL0    Cl56763  11.825   2.099   8.868  0.3215 -0.4463  0.0915
  412MOL0     C56764  11.837   1.121   8.832  0.5207  0.5412  0.7742
  412MOL0     C56765  11.739   1.037   8.888 -0.2713 -0.4787 -0.0942
  412MOL0     O56766  11.545   1.071   9.194  0.4615  0.4881  0.0805
  412MOL0     C56767  11.431   0.747   9.156 -0.5429  0.4420  0.1304
  412MOL0     C56768  11.372   0.635   9.211 -0.1162  0.5870  1.0408
  412MOL0     N56769  10.959   0.109   9.676  0.0342 -0.0992  0.3873
  412MOL0     N56770  10.835   0.074   9.673 -0.3285  0.5414  0.3017
  412MOL0     C56771  10.511   0.846   9.254  0.1965 -0.1083  0.2990
  412MOL0     C56772  10.444   0.960   9.301 -0.0052  0.3646  0.0994
  412MOL0     C56773  10.243   1.343   9.379 -0.5558  1.2278 -0.2801
  412MOL0     C56774  10.257   1.476   9.334 -0.1774  0.0875 -1.1305
  412MOL0     C56775  10.153   1.568   9.347  0.8669  0.1830 -0.8613
  412MOL0     C56776  10.028   1.535   9.398  1.1805 -0.0370  0.5147
  412MOL0     O56777   9.917   1.622   9.389 -0.3414 -0.2348  0.3073
  412MOL0     C56778   9.793   1.597   9.450  0.5138 -0.4371 -0.4638
  412MOL0     C56779   9.705   1.711   9.415  0.2457  0.5032  0.3469
  412MOL0     C56780   9.553   1.658   9.423 -0.3591 -0.1408  0.4713
  412MOL0     C56781   9.458   1.770   9.439  0.1503  0.1224 -0.2008
  412MOL0     C56782   9.435   1.854   9.330  0.3979 -1.1810  0.0304
  412MOL0     C56783   9.400   1.924   9.239  0.0321 -0.7102  0.6692
  412MOL0     C56784  10.016   1.401   9.445  0.4111 -0.0104 -0.7349
  412MOL0     C56785  10.120   1.304   9.438 -1.1243 -0.6777 -1.1647
  412MOL0     C56786  10.094   1.164   9.473  0.4429  0.4307 -0.4163
  412MOL0     H56787  10.533   1.181   9.067 -1.6605 -0.7087 -0.4220
  412MOL0     H56788  10.683   0.987   9.005  1.1578 -2.3483  1.3928
  412MOL0     H56789  10.530   0.589   9.128  0.1962 -0.2557  3.0793
  412MOL0     H56790  10.670   0.620   9.235 -0.2781  0.9541 -0.3404
  412MOL0     H56791  10.703   0.550   8.940 -0.7261 -0.1362 -0.6815
  412MOL0     H56792  10.819   0.529   9.063  0.0387 -0.0477  1.5439
  412MOL0     H56793  10.563   0.369   9.021  0.2353  3.1979  0.1962
  412MOL0     H56794  10.718   0.314   8.990 -0.9919 -2.6719  1.4279
  412MOL0     H56795  10.778   0.339   9.233  0.4539  0.0321 -0.3645
  412MOL0     H56796  10.603   0.360   9.281  0.4101 -0.7505  0.0209
  412MOL0     H56797  10.737   0.111   9.154 -1.2304 -1.2972  1.5667
  412MOL0     H56798  10.566   0.124   9.168 -0.8657  0.7841 -0.7388
  412MOL0     H56799  10.755   0.167   9.406  2.0858 -0.1940 -3.7663
  412MOL0     H56800  10.572   0.143   9.398 -0.4450 -2.0142  0.6973
  412MOL0     H56801  10.781  -0.045   9.309  0.1919  1.4149 -0.2183
  412MOL0     H56802  10.596  -0.077   9.331 -0.1810  0.0330 -0.5225
  412MOL0     H56803  10.627  -0.057   9.568 -0.6674 -1.2677  0.0784
  412MOL0     H56804  10.727  -0.181   9.511  2.8687 -0.0311  0.6682
  412MOL0     H56805  10.967  -0.066   9.409 -1.6478 -0.1831 -0.7599
  412MOL0     H56806  11.230   0.036   9.481 -1.1313 -0.3106 -1.1034
  412MOL0     H56807  11.222   0.069   9.657 -1.2166  1.7347  0.8516
  412MOL0     H56808  11.182   0.257   9.415 -0.2942 -0.0586 -0.2458
  412MOL0     H56809  11.134   0.302   9.575  1.3796 -1.5337  2.3825
  412MOL0     H56810  11.375   0.304   9.663  1.9349  1.5055  0.7113
  412MOL0     H56811  11.419   0.264   9.487 -2.0240 -0.8755 -1.1304
  412MOL0     H56812  11.250   0.509   9.585  0.1393  0.8319  0.7593
  412MOL0     H56813  11.431   0.508   9.576  2.2452 -3.4399 -2.1359
  412MOL0     H56814  11.361   0.756   9.537  1.3799  1.7791 -0.1543
  412MOL0     H56815  11.557   1.030   9.435 -3.0923  3.9927 -2.2843
  412MOL0     H56816  11.498   0.921   9.563  3.9588 -0.1375 -1.0407
  412MOL0     H56817  11.388   1.034   9.471 -0.8521 -1.5516 -0.2161
  412MOL0     H56818  11.842   1.049   9.210  1.4650  2.0065  0.0254
  412MOL0     H56819  12.010   1.183   9.122 -1.0391 -0.5185  0.0727
  412MOL0     H56820  12.042   1.423   8.985  1.3293  1.2461 -0.9439
  412MOL0     H56821  12.151   1.285   9.008 -0.5744 -1.0074  0.7323
  412MOL0     H56822  12.261   1.339   8.802  2.7266  2.6959 -0.8613
  412MOL0     H56823  12.130   1.437   8.748  0.9484 -2.7688 -2.0967
  412MOL0     H56824  12.336   1.557   8.825  0.6791  0.6535  0.3762
  412MOL0     H56825  12.298   1.512   8.995 -1.7236 -0.3708  0.2800
  412MOL0     H56826  12.092   1.644   8.988 -0.0640  0.4531  0.6222
  412MOL0     H56827  12.100   1.669   8.810  1.4254  1.1582 -0.4268
  412MOL0     H56828  12.328   1.761   8.997  0.6589 -3.2183 -1.5383
  412MOL0     H56829  12.292   1.816   8.838  1.5357 -2.4212  1.1039
  412MOL0     H56830  12.230   1.979   9.040  0.0381  0.4186 -0.7655
  412MOL0     H56831  12.116   1.867   9.086 -0.7704  1.6276 -0.0771
  412MOL0     H56832  12.010   1.903   8.830 -1.2637  0.2683  2.3319
  412MOL0     H56833  12.131   2.033   8.820 -1.0267 -0.8402 -0.6100
  412MOL0     H56834  12.003   2.154   8.995 -3.6417  1.2972 -0.8975
  412MOL0     H56835  11.938   1.996   9.049  1.6561 -2.8369 -1.0714
  412MOL0     H56836  11.833   1.153   8.728  0.4217  2.2724  1.2811
  412MOL0     H56837  11.666   0.989   8.823  2.8386 -2.2157 -2.6062
  412MOL0     H56838  11.441   0.762   9.049  1.3572  3.2217  0.5653
  412MOL0     H56839  11.361   0.543   9.154  2.2335  0.3516  0.8420
  412MOL0     H56840  10.492   0.749   9.299  1.3490 -0.8193 -0.6902
  412MOL0     H56841  10.383   0.956   9.391  2.4720 -2.0827  1.8434
  412MOL0     H56842  10.351   1.500   9.285  0.1337 -0.0566 -0.6165
  412MOL0     H56843  10.177   1.670   9.318 -0.1293  0.9649  0.9103
  412MOL0     H56844   9.745   1.510   9.403  0.0937 -1.9129  2.4731
  412MOL0     H56845   9.794   1.588   9.559 -0.4575  1.2119 -0.2851
  412MOL0     H56846   9.730   1.751   9.317 -1.7559  1.0258  0.0117
  412MOL0     H56847   9.711   1.788   9.493  2.1698 -1.4697  2.2729
  412MOL0     H56848   9.525   1.594   9.338 -1.7082 -1.1180  1.6148
  412MOL0     H56849   9.539   1.597   9.512 -2.5985 -2.4240 -1.2791
  412MOL0     H56850   9.476   1.812   9.539 -1.7550 -1.1217  0.7191
  412MOL0     H56851   9.361   1.725   9.461 -0.7180  0.7905 -2.4019
  412MOL0     H56852   9.371   1.988   9.158 -0.2406  1.4880  2.4181
  412MOL0     H56853   9.916   1.373   9.476 -0.3161 -0.8973 -3.5840
  412MOL0     H56854  10.066   1.159   9.579  1.5280  1.6001 -0.0397
  412MOL0     H56855  10.008   1.131   9.415 -1.1957 -0.3803  2.2723
  412MOL0     H56856  10.180   1.100   9.450  0.3603 -0.0478  0.5357
  413MOL0     O56857  11.230  11.230  10.789 -0.3970 -0.2475  0.1781
  413MOL0     C56858  11.235  11.129  10.860  0.4236  1.4035 -0.2313
  413MOL0     O56859  11.282  11.004  10.815 -0.2556  0.1273 -0.6954
  413MOL0     C56860  11.300  10.909  10.914 -0.2491 -0.4298  0.2708
  413MOL0     C56861  11.391  10.943  11.014  0.1294  0.3213 -0.6216
  413MOL0     C56862  11.426  10.841  11.106  0.5681 -0.3397 -0.1447
  413MOL0     C56863  11.377  10.713  11.091  0.0888  1.0319  0.8913
  413MOL0     O56864  11.432  10.612  11.173  0.0156 -0.0518  0.0058
  413MOL0     C56865  11.552  10.561  11.116  0.5086 -0.5641  0.5949
  413MOL0     C56866  11.521  10.468  11.006  0.1004  0.5326 -0.7127
  413MOL0     C56867  11.438  10.350  11.047  0.0683  0.4249 -0.1517
  413MOL0     C56868  11.373  10.282  10.929 -0.0316  1.2761 -0.1454
  413MOL0     C56869  11.333  10.140  10.956 -0.5175 -0.5281  0.3026
  413MOL0     C56870  11.455  10.040  10.944  0.4802  0.8571 -0.6903
  413MOL0     C56871  11.432   9.896  11.013  0.3704 -0.1479 -0.3286
  413MOL0     C56872  11.372   9.798  10.909 -0.4709  0.4464 -0.7493
  413MOL0     N56873  11.288   9.694  10.965 -1.0176 -0.1369  0.0968
  413MOL0     C56874  11.335   9.570  11.017 -0.7326 -0.4857  0.7465
  413MOL0     C56875  11.224   9.506  11.063  0.4844 -1.3252 -0.0495
  413MOL0     C56876  11.219   9.378  11.136  0.8203 -0.0412 -0.1902
  413MOL0     C56877  11.140   9.266  11.074  0.1307  0.3206  0.0423
  413MOL0     C56878  11.152   9.142  11.154  0.9046 -0.1538 -0.4266
  413MOL0     C56879  11.278   9.060  11.127 -0.0053  0.4353 -0.0297
  413MOL0     O56880  11.284   8.955  11.229 -0.2974 -0.4036 -0.4840
  413MOL0     C56881  11.351   8.986  11.347 -0.7038  0.2522 -0.1774
  413MOL0     C56882  11.390   9.119  11.378 -0.0134 -0.5023 -0.4868
  413MOL0     C56883  11.468   9.153  11.491  0.0855 -0.2439 -0.3915
  413MOL0     C56884  11.499   9.303  11.521  0.2308 -0.2251  1.2391
  413MOL0     C56885  11.518   9.052  11.575  0.2848  0.4023 -0.0539
  413MOL0     C56886  11.613   9.077  11.688  0.2236  0.2300  0.0821
  413MOL0     O56887  11.603   8.982  11.785  0.0221 -0.5917  0.3176
  413MOL0     C56888  11.707   8.976  11.874 -0.9488  0.3105  0.7073
  413MOL0     C56889  11.842   8.966  11.833  0.4466  0.1919 -0.6867
  413MOL0     C56890  11.946   8.932  11.927  0.6898  0.4912 -0.3865
  413MOL0     C56891  11.906   8.911  12.063 -0.3119 -0.1462 -0.4898
  413MOL0     O56892  12.012   8.864  12.141 -0.0034 -0.2373  0.6519
  413MOL0     C56893  11.997   8.784  12.260 -0.2643  0.9178  0.6285
  413MOL0     C56894  12.128   8.724  12.312 -0.1854  0.6012  0.2307
  413MOL0     C56895  12.192   8.646  12.207  0.3905 -0.2022 -0.3565
  413MOL0     C56896  12.296   8.567  12.270 -1.1956 -1.0790  1.1493
  413MOL0     C56897  12.375   8.485  12.169 -0.0309 -0.6946 -0.5535
  413MOL0     C56898  12.491   8.409  12.240  0.5778 -1.0756  0.2412
  413MOL0     C56899  12.510   8.265  12.198 -0.9029 -0.2695  0.2288
  413MOL0     C56900  12.604   8.186  12.288  0.3138  0.1648  0.1187
  413MOL0    Cl56901  12.749   8.268  12.309  0.3288 -0.7984  0.0183
  413MOL0     C56902  11.774   8.923  12.104 -0.2484  0.0566 -0.3739
  413MOL0     C56903  11.680   8.958  12.010  0.4315 -0.0726  0.4609
  413MOL0     O56904  11.679   9.180  11.699 -0.4432  0.6036 -0.2026
  413MOL0     C56905  11.476   8.916  11.545  0.4025 -0.2541 -0.5457
  413MOL0     C56906  11.396   8.886  11.437  0.1565  0.1177  0.1465
  413MOL0     N56907  11.118   9.593  11.046 -0.0187 -0.0463  0.0400
  413MOL0     N56908  11.155   9.704  10.987  0.4512 -0.7381 -0.6322
  413MOL0     C56909  11.280  10.686  10.998  0.1500 -0.6616  0.2669
  413MOL0     C56910  11.243  10.785  10.901 -0.2269 -0.1867  0.5309
  413MOL0     C56911  11.204  11.153  11.002  0.3692 -0.2604  0.0791
  413MOL0     C56912  11.098  11.091  11.060 -0.1723 -0.5246 -0.9555
  413MOL0     C56913  11.065  11.111  11.193  0.2175 -0.4634  0.2263
  413MOL0     C56914  11.150  11.198  11.267 -0.0354  0.5208  0.3392
  413MOL0     O56915  11.153  11.211  11.404 -0.1013 -0.9121  0.6369
  413MOL0     C56916  11.053  11.148  11.468  0.3468  0.3649  0.0052
  413MOL0     C56917  11.077  11.187  11.616  0.6328  0.5893  0.7351
  413MOL0     C56918  10.998  11.117  11.723 -0.0259  0.3856  0.2969
  413MOL0     C56919  10.849  11.154  11.712  0.2032  1.0976 -0.5266
  413MOL0     C56920  10.831  11.299  11.741 -0.0571 -0.0196 -0.1446
  413MOL0     C56921  10.827  11.421  11.754 -0.4439  0.4581 -0.3609
  413MOL0     C56922  11.250  11.275  11.206 -0.6516  0.1713  0.5338
  413MOL0     C56923  11.282  11.254  11.066  0.1062  0.1592 -0.5084
  413MOL0     C56924  11.396  11.332  11.001 -0.7610 -0.1424 -0.5047
  413MOL0     H56925  11.436  11.041  11.005 -0.0924  0.2588 -3.5229
  413MOL0     H56926  11.498  10.860  11.185 -0.5694  0.6943  0.6717
  413MOL0     H56927  11.609  10.512  11.195  0.1852 -0.2178  1.0427
  413MOL0     H56928  11.622  10.641  11.087 -1.5617  0.5066 -1.8037
  413MOL0     H56929  11.480  10.520  10.919  0.5373  0.4164 -0.9905
  413MOL0     H56930  11.615  10.423  10.972 -0.0774  0.9151 -1.7500
  413MOL0     H56931  11.512  10.291  11.101  1.2428  0.2752 -1.8606
  413MOL0     H56932  11.355  10.381  11.111 -1.1800 -0.6928 -1.1658
  413MOL0     H56933  11.280  10.335  10.903 -0.5786  0.5121  0.2321
  413MOL0     H56934  11.444  10.291  10.846  1.4285 -0.8427  0.8132
  413MOL0     H56935  11.247  10.109  10.895 -1.7631  2.2749  0.4941
  413MOL0     H56936  11.302  10.144  11.061 -0.5963  3.7803  0.2840
  413MOL0     H56937  11.503  10.035  10.846  0.8840  2.7755 -0.6264
  413MOL0     H56938  11.525  10.083  11.017 -0.3131  0.0896  0.5722
  413MOL0     H56939  11.351   9.912  11.085 -0.3808  1.3054 -1.4099
  413MOL0     H56940  11.529   9.870  11.055  0.4451  0.3520 -0.1767
  413MOL0     H56941  11.318   9.866  10.843 -2.0410 -0.1192 -0.0755
  413MOL0     H56942  11.458   9.746  10.865  0.1601 -1.1886  2.1376
  413MOL0     H56943  11.441   9.548  11.031 -0.0078  0.4693 -2.4341
  413MOL0     H56944  11.177   9.401  11.234 -1.5846 -0.7693 -0.9879
  413MOL0     H56945  11.323   9.345  11.146  0.8028  0.0790  0.4441
  413MOL0     H56946  11.035   9.295  11.063 -0.6181 -1.8553  0.9372
  413MOL0     H56947  11.178   9.240  10.975  0.2232 -2.8751  0.8218
  413MOL0     H56948  11.142   9.164  11.261  2.5464 -2.2063  0.2313
  413MOL0     H56949  11.068   9.080  11.121  0.6933  0.9244 -1.9706
  413MOL0     H56950  11.269   9.002  11.035  0.6728 -0.7509  0.6159
  413MOL0     H56951  11.374   9.111  11.113 -0.1531  0.7262 -0.0003
  413MOL0     H56952  11.371   9.200  11.308 -0.3553 -0.9067 -0.8666
  413MOL0     H56953  11.410   9.360  11.494  1.6996  2.4768  1.7085
  413MOL0     H56954  11.583   9.350  11.469 -0.7231  2.1365  1.7237
  413MOL0     H56955  11.525   9.326  11.625 -0.1954  0.7953  1.1347
  413MOL0     H56956  11.853   8.971  11.725  2.5423 -1.9863 -0.6694
  413MOL0     H56957  12.053   8.916  11.916  0.5377  0.5429 -2.2415
  413MOL0     H56958  11.958   8.842  12.345 -0.4336 -3.2602  3.7369
  413MOL0     H56959  11.927   8.700  12.246  2.2076 -0.9727 -1.3069
  413MOL0     H56960  12.195   8.808  12.333  2.6934 -1.4696 -0.1448
  413MOL0     H56961  12.108   8.663  12.400  0.4643  2.6819  1.9264
  413MOL0     H56962  12.245   8.714  12.139  0.0824 -0.5461 -0.9510
  413MOL0     H56963  12.121   8.586  12.149  0.3689  1.8810 -2.6910
  413MOL0     H56964  12.258   8.493  12.342 -0.3645 -3.7866 -1.0078
  413MOL0     H56965  12.360   8.631  12.332 -2.5393  0.5900  0.8505
  413MOL0     H56966  12.313   8.406  12.124  1.7796 -3.1260  0.9507
  413MOL0     H56967  12.421   8.545  12.089  1.4907 -1.7203 -0.5003
  413MOL0     H56968  12.477   8.413  12.348  3.7786 -5.8942  1.1468
  413MOL0     H56969  12.584   8.464  12.223  0.0463 -0.7347 -1.7324
  413MOL0     H56970  12.548   8.265  12.095 -0.7046 -1.6758  0.2955
  413MOL0     H56971  12.411   8.220  12.197 -1.2049  0.3713 -0.5138
  413MOL0     H56972  12.624   8.083  12.259 -1.7262  0.3187 -2.1620
  413MOL0     H56973  12.548   8.177  12.382  0.1892  1.9944  0.2565
  413MOL0     H56974  11.737   8.905  12.204 -0.9918  1.4276 -0.3786
  413MOL0     H56975  11.575   8.966  12.035  0.7804 -1.1900  2.4472
  413MOL0     H56976  11.503   8.840  11.617  0.7989  1.8440  1.6196
  413MOL0     H56977  11.372   8.781  11.420 -1.4747  0.7980 -2.2727
  413MOL0     H56978  11.232  10.589  10.985  0.0321 -0.9847  2.5912
  413MOL0     H56979  11.168  10.776  10.823 -0.9842  3.6470  0.6067
  413MOL0     H56980  11.046  11.014  11.003  0.7429 -2.1136  0.2520
  413MOL0     H56981  10.977  11.070  11.242  1.5523 -0.2910  2.9355
  413MOL0     H56982  10.953  11.186  11.444  0.7401  1.9205  0.7385
  413MOL0     H56983  11.070  11.041  11.450  0.2187  0.4787 -0.8676
  413MOL0     H56984  11.070  11.296  11.626 -3.8323  0.7096 -1.0648
  413MOL0     H56985  11.184  11.176  11.635  0.6609 -3.0106 -0.7254
  413MOL0     H56986  11.006  11.008  11.730  0.4962  0.5087  2.1412
  413MOL0     H56987  11.026  11.154  11.822  0.5333  2.4454 -0.5816
  413MOL0     H56988  10.791  11.100  11.788 -0.0615  1.6381 -0.3397
  413MOL0     H56989  10.800  11.133  11.617 -1.4328  0.6820  0.3705
  413MOL0     H56990  10.821  11.524  11.780  2.2657  0.3943  0.8397
  413MOL0     H56991  11.303  11.341  11.274 -1.5922 -1.0981  2.5966
  413MOL0     H56992  11.463  11.256  10.959  1.2241  0.1276  1.9407
  413MOL0     H56993  11.359  11.404  10.928  0.0770  1.6450  0.7514
  413MOL0     H56994  11.450  11.397  11.071  0.5892 -1.0356 -0.6700
  414MOL0     O56995   8.915   9.322   7.896  0.2822  0.0585 -0.2830
  414MOL0     C56996   8.892   9.305   8.011  0.3168 -0.5380 -0.3112
  414MOL0     O56997   8.948   9.372   8.110  0.2316  0.2319 -0.7974
  414MOL0     C56998   9.045   9.456   8.071  0.0877 -0.2840  0.1848
  414MOL0     C56999   9.023   9.585   8.023 -0.7111 -0.5134  0.2286
  414MOL0     C57000   9.126   9.673   8.009 -0.2508  0.3185 -0.4800
  414MOL0     C57001   9.257   9.633   8.036 -0.4168  0.1243 -0.9358
  414MOL0     O57002   9.365   9.712   8.023 -0.2586 -0.0303 -0.5294
  414MOL0     C57003   9.353   9.854   8.012 -0.7211 -0.4386 -0.1244
  414MOL0     C57004   9.480   9.907   7.939 -0.6353  0.0165  0.4245
  414MOL0     C57005   9.602   9.902   8.031 -0.6245 -0.9423  0.2926
  414MOL0     C57006   9.730   9.955   7.960  0.4546  0.2839 -0.2351
  414MOL0     C57007   9.841   9.979   8.066  0.9948  0.3568  0.2954
  414MOL0     C57008   9.958  10.031   7.980  0.1077  0.2433 -0.0581
  414MOL0     C57009  10.067  10.070   8.081 -0.0875 -0.3717  0.3087
  414MOL0     C57010  10.203  10.121   8.013 -0.6489 -0.0789 -0.0290
  414MOL0     N57011  10.297  10.173   8.112  0.2225  0.2766  0.0623
  414MOL0     C57012  10.378  10.101   8.200  0.3172  0.0617 -0.8297
  414MOL0     C57013  10.440  10.190   8.288 -0.3309  0.6258  1.3161
  414MOL0     C57014  10.531  10.147   8.401 -0.5613  0.0065  0.2953
  414MOL0     C57015  10.679  10.170   8.361 -0.3287  0.4774  0.6258
  414MOL0     C57016  10.745  10.061   8.271  0.2468 -0.8624  0.7647
  414MOL0     C57017  10.893  10.080   8.257 -0.0860  0.3652 -0.3444
  414MOL0     O57018  10.971  10.079   8.375 -0.4894  0.1447  0.1592
  414MOL0     C57019  11.105  10.107   8.365  0.5280 -0.1260 -0.2330
  414MOL0     C57020  11.168  10.169   8.473 -0.2645 -0.6313 -0.8069
  414MOL0     C57021  11.304  10.190   8.485 -0.0365 -0.0882  0.6588
  414MOL0     C57022  11.346  10.273   8.610 -0.1281  0.1190  0.5008
  414MOL0     C57023  11.388  10.151   8.381 -0.6264 -0.7136  0.6620
  414MOL0     C57024  11.534  10.178   8.377 -0.3185 -0.2227  0.0112
  414MOL0     O57025  11.587  10.196   8.255  1.1123 -1.0686 -0.3242
  414MOL0     C57026  11.693  10.281   8.245  0.0097  0.4001  0.0741
  414MOL0     C57027  11.721  10.387   8.341 -0.3094  0.0621 -0.4446
  414MOL0     C57028  11.832  10.471   8.322  0.6206  0.2826 -0.0451
  414MOL0     C57029  11.918  10.463   8.219 -0.1060 -0.5115 -0.4098
  414MOL0     O57030  12.032  10.537   8.226 -0.2402  0.6924  0.2647
  414MOL0     C57031  12.158  10.479   8.209 -1.3760  0.0330 -0.5042
  414MOL0     C57032  12.262  10.592   8.176  0.6853  0.2587 -0.0924
  414MOL0     C57033  12.385  10.529   8.109  0.7015 -0.0157 -0.3448
  414MOL0     C57034  12.498  10.636   8.109  0.6145 -1.4999  0.4582
  414MOL0     C57035  12.626  10.573   8.049  1.0014  0.5121 -0.0186
  414MOL0     C57036  12.744  10.666   8.047 -0.0741 -0.4518 -0.4365
  414MOL0     C57037  12.872  10.607   7.985 -1.5893  0.9055  1.0068
  414MOL0     C57038  12.874  10.591   7.838  0.2889  0.5961 -0.6633
  414MOL0    Cl57039  13.045  10.603   7.782  0.1007 -0.0399  0.4652
  414MOL0     C57040  11.880  10.372   8.118 -0.3064  0.4496  0.1803
  414MOL0     C57041  11.767  10.287   8.130 -1.1308  1.1466 -0.9412
  414MOL0     O57042  11.607  10.174   8.481 -0.0592  0.0427  0.1403
  414MOL0     C57043  11.325  10.080   8.272  0.0117  1.0981  0.2595
  414MOL0     C57044  11.193  10.064   8.264  0.9577 -0.7430  0.1264
  414MOL0     N57045  10.422  10.317   8.225  0.3311 -0.1982 -0.1358
  414MOL0     N57046  10.334  10.300   8.129 -0.2410 -0.3524  0.9293
  414MOL0     C57047   9.285   9.496   8.076  0.5366 -0.8361  0.6491
  414MOL0     C57048   9.177   9.412   8.093  0.5042 -0.0630  0.2512
  414MOL0     C57049   8.774   9.217   8.039  0.5036  0.1295  0.0934
  414MOL0     C57050   8.644   9.244   7.988 -0.1588  0.4187  0.3368
  414MOL0     C57051   8.531   9.166   8.004 -0.3474  0.5718  0.2869
  414MOL0     C57052   8.532   9.049   8.080 -0.0883 -1.1647  0.1456
  414MOL0     O57053   8.417   8.979   8.095  0.4482  0.0451 -0.1561
  414MOL0     C57054   8.394   8.874   8.192 -0.7075 -0.1585 -0.7791
  414MOL0     C57055   8.311   8.928   8.304  0.3883  0.2557  0.2111
  414MOL0     C57056   8.170   8.942   8.261  0.5623 -0.2160 -0.0680
  414MOL0     C57057   8.074   8.951   8.378  0.3367  1.2251  0.0609
  414MOL0     C57058   7.932   8.972   8.336 -0.4884  0.5462  0.3190
  414MOL0     C57059   7.821   8.981   8.288  0.1001 -0.4705 -0.4147
  414MOL0     C57060   8.656   9.017   8.133 -0.1269  0.2989 -0.1994
  414MOL0     C57061   8.767   9.102   8.120 -0.2728  0.3435  0.7956
  414MOL0     C57062   8.893   9.061   8.199  0.3167 -0.0355  0.1045
  414MOL0     H57063   8.920   9.616   8.011 -0.8425 -0.5602  1.1767
  414MOL0     H57064   9.097   9.769   7.968 -0.1093  0.7545  0.4283
  414MOL0     H57065   9.339   9.907   8.107 -3.1700  1.7070 -1.5493
  414MOL0     H57066   9.268   9.885   7.951  0.3525 -0.0358 -1.4756
  414MOL0     H57067   9.496   9.851   7.846  1.1115  1.7658 -0.3862
  414MOL0     H57068   9.453  10.009   7.910 -0.7587 -0.0750  0.2144
  414MOL0     H57069   9.583   9.958   8.123  1.0395 -0.2716  0.2732
  414MOL0     H57070   9.612   9.800   8.069 -2.2298 -1.2375 -0.0154
  414MOL0     H57071   9.765   9.874   7.896  0.9666 -3.1524  3.9163
  414MOL0     H57072   9.711  10.051   7.912  0.8622  1.0516  1.0788
  414MOL0     H57073   9.865   9.880   8.107  2.4176  0.4661 -0.2102
  414MOL0     H57074   9.822  10.055   8.142  1.6644 -0.4361  1.2749
  414MOL0     H57075   9.997   9.947   7.922  0.1845  1.2307 -1.4740
  414MOL0     H57076   9.935  10.120   7.921 -0.2676 -0.7648 -1.4815
  414MOL0     H57077  10.094   9.980   8.138  0.3682 -0.0932  0.5355
  414MOL0     H57078  10.024  10.143   8.150 -2.9894 -2.0943  0.4526
  414MOL0     H57079  10.251  10.043   7.953  3.6476  2.4425 -0.2566
  414MOL0     H57080  10.176  10.190   7.933  1.2374 -2.0712 -2.5660
  414MOL0     H57081  10.380   9.993   8.206  2.1719  0.0973 -0.1604
  414MOL0     H57082  10.505  10.044   8.427  1.9661 -0.6761  0.3954
  414MOL0     H57083  10.513  10.205   8.492  0.0124 -0.4380  0.7023
  414MOL0     H57084  10.682  10.263   8.303 -1.3381  0.0838 -0.0909
  414MOL0     H57085  10.731  10.184   8.456 -0.7888 -0.0682  0.9686
  414MOL0     H57086  10.721   9.961   8.308  0.1043 -0.6339  1.3067
  414MOL0     H57087  10.691  10.066   8.176 -0.8898 -3.9164  1.1234
  414MOL0     H57088  10.929   9.997   8.195 -0.7777 -0.6379  0.5530
  414MOL0     H57089  10.908  10.177   8.210 -4.4266  1.0118 -0.8364
  414MOL0     H57090  11.099  10.183   8.555 -0.7086  0.3517 -1.3273
  414MOL0     H57091  11.367  10.374   8.574  2.1004 -0.1053  1.0215
  414MOL0     H57092  11.434  10.233   8.660 -1.4596 -1.2830  1.8703
  414MOL0     H57093  11.268  10.265   8.687 -0.8929 -1.7944 -0.4163
  414MOL0     H57094  11.676  10.407   8.438  0.1006  0.5783 -0.3592
  414MOL0     H57095  11.857  10.546   8.397  1.0538  0.9823 -0.8740
  414MOL0     H57096  12.191  10.424   8.297 -1.0759  1.6251  0.4256
  414MOL0     H57097  12.158  10.413   8.122 -0.4623  0.3324 -0.7387
  414MOL0     H57098  12.221  10.656   8.098 -3.3014 -0.9681  0.7578
  414MOL0     H57099  12.286  10.655   8.262  1.4331  0.5747 -0.5264
  414MOL0     H57100  12.371  10.489   8.008 -1.2171 -1.5699  0.4707
  414MOL0     H57101  12.422  10.451   8.176 -1.3719 -0.0030  0.9015
  414MOL0     H57102  12.508  10.685   8.207 -2.7514 -0.4200  0.4083
  414MOL0     H57103  12.461  10.722   8.052  0.2006  0.3502  3.2667
  414MOL0     H57104  12.650  10.487   8.111 -1.4780  0.4207  0.9407
  414MOL0     H57105  12.604  10.532   7.950 -0.6561  0.8996  0.1530
  414MOL0     H57106  12.767  10.686   8.152  0.2967 -2.7350 -0.0236
  414MOL0     H57107  12.719  10.760   7.997  0.7898 -0.0766 -0.1833
  414MOL0     H57108  12.885  10.503   8.018 -1.8342  0.5265 -0.0446
  414MOL0     H57109  12.954  10.675   8.011 -0.9831  0.3223  0.6772
  414MOL0     H57110  12.817  10.670   7.789  1.1719  0.0206 -2.7525
  414MOL0     H57111  12.838  10.493   7.808  0.6696  0.5545 -1.0090
  414MOL0     H57112  11.947  10.365   8.033  1.9969 -1.4586  2.0153
  414MOL0     H57113  11.738  10.215   8.055  1.2977 -0.4606 -0.4643
  414MOL0     H57114  11.392  10.036   8.199  1.1244  0.8910  1.3677
  414MOL0     H57115  11.146  10.006   8.186 -0.2066 -1.1016  1.0719
  414MOL0     H57116   9.387   9.458   8.080  1.6412  1.6649 -0.8304
  414MOL0     H57117   9.198   9.310   8.123  1.2478  0.0246  0.0533
  414MOL0     H57118   8.643   9.337   7.932 -2.4332  0.6989  0.7374
  414MOL0     H57119   8.440   9.201   7.957  1.0864 -0.1598 -3.3337
  414MOL0     H57120   8.336   8.795   8.145 -2.6135  1.1597 -0.7580
  414MOL0     H57121   8.488   8.845   8.240  0.9989  1.8642 -2.6553
  414MOL0     H57122   8.341   9.028   8.336 -2.4479  0.9009  1.1896
  414MOL0     H57123   8.307   8.865   8.394  1.6975  0.1880  0.2313
  414MOL0     H57124   8.145   9.038   8.216 -1.4391 -0.3815  0.5981
  414MOL0     H57125   8.143   8.869   8.184 -3.0988 -0.1448  0.9272
  414MOL0     H57126   8.110   9.044   8.422  2.4077  1.7339 -2.4469
  414MOL0     H57127   8.085   8.867   8.447  0.0855 -0.4945 -1.8887
  414MOL0     H57128   7.719   9.001   8.262  0.8867  3.7294 -0.8941
  414MOL0     H57129   8.657   8.924   8.190 -2.5865 -0.0635 -0.6500
  414MOL0     H57130   8.858   8.974   8.256  0.8154 -0.2228  0.1277
  414MOL0     H57131   8.986   9.047   8.143 -0.0552 -1.4875 -0.2001
  414MOL0     H57132   8.923   9.150   8.255  1.8837 -0.6657  0.3303
  415MOL0     O57133   9.302   5.696  10.974  0.5346 -0.5240 -0.1073
  415MOL0     C57134   9.185   5.695  11.022  1.0271 -0.7464 -0.6170
  415MOL0     O57135   9.155   5.688  11.157 -0.6353 -0.7365  0.1219
  415MOL0     C57136   9.242   5.771  11.222  0.1571  0.0820  0.2937
  415MOL0     C57137   9.219   5.909  11.226 -0.4759  0.4767 -0.1068
  415MOL0     C57138   9.299   5.992  11.307  1.3889  0.4564  0.2018
  415MOL0     C57139   9.400   5.940  11.392 -0.1668  0.9092 -1.0551
  415MOL0     O57140   9.462   6.017  11.488 -0.6738 -0.3718 -0.7123
  415MOL0     C57141   9.602   6.023  11.470  0.2453 -0.0724  0.6065
  415MOL0     C57142   9.670   6.121  11.570 -0.4103 -0.4400  0.4233
  415MOL0     C57143   9.662   6.273  11.521 -0.1644  1.2766  0.6799
  415MOL0     C57144   9.739   6.375  11.602 -0.0775 -0.2930 -0.5291
  415MOL0     C57145   9.897   6.359  11.581 -0.1944  0.3132 -0.4350
  415MOL0     C57146   9.961   6.473  11.653  0.2141 -0.2475  0.2568
  415MOL0     C57147  10.108   6.452  11.670 -0.3189 -0.5695  0.8227
  415MOL0     C57148  10.194   6.426  11.542  0.6722 -0.7425 -0.0638
  415MOL0     N57149  10.162   6.535  11.441 -0.4379  0.0953 -0.2371
  415MOL0     C57150  10.081   6.533  11.333 -0.0906 -0.3891 -0.4679
  415MOL0     C57151  10.098   6.649  11.273  0.8964 -0.3161 -0.7090
  415MOL0     C57152  10.048   6.715  11.148  0.2399 -0.0836 -0.7664
  415MOL0     C57153   9.914   6.670  11.103  0.1190 -0.0462 -0.1305
  415MOL0     C57154   9.911   6.546  11.010 -0.6549  0.4729 -0.7335
  415MOL0     C57155   9.791   6.541  10.915  0.9461  0.3715 -0.2394
  415MOL0     O57156   9.674   6.554  11.000 -0.4688 -0.5153  0.1373
  415MOL0     C57157   9.550   6.563  10.939 -0.0642 -0.2543 -0.4538
  415MOL0     C57158   9.443   6.602  11.019  1.0634 -0.2903 -0.4332
  415MOL0     C57159   9.315   6.628  10.968  0.1834 -0.1806  0.0718
  415MOL0     C57160   9.207   6.661  11.062  0.3311  0.1610  0.5745
  415MOL0     C57161   9.294   6.609  10.826 -0.2146 -0.5445  0.0105
  415MOL0     C57162   9.169   6.613  10.753 -0.0177  0.3050 -0.9206
  415MOL0     O57163   9.150   6.536  10.644 -0.1767 -0.0915 -0.3986
  415MOL0     C57164   9.018   6.522  10.598 -0.2100 -0.3055  0.5189
  415MOL0     C57165   8.990   6.565  10.463 -0.3098  0.4710 -0.3168
  415MOL0     C57166   8.883   6.513  10.392 -0.4223 -0.2675  0.9468
  415MOL0     C57167   8.785   6.446  10.456  0.1247  0.2328 -0.1232
  415MOL0     O57168   8.673   6.398  10.384  0.5835 -0.1095 -0.3148
  415MOL0     C57169   8.636   6.453  10.263  1.5889  0.0960  0.0514
  415MOL0     C57170   8.530   6.374  10.182  0.0090  0.4599 -0.1205
  415MOL0     C57171   8.587   6.235  10.152  0.1128  0.2275 -0.1651
  415MOL0     C57172   8.466   6.147  10.113 -0.3485 -0.5279  0.1708
  415MOL0     C57173   8.525   6.007  10.087  0.3197 -0.8952 -0.1283
  415MOL0     C57174   8.418   5.910  10.062 -0.2837  0.1662  0.6766
  415MOL0     C57175   8.325   5.882  10.175  0.0143  0.4719 -0.8674
  415MOL0     C57176   8.227   5.755  10.145 -0.0375 -0.0940 -0.2440
  415MOL0    Cl57177   8.099   5.816  10.020 -0.2359 -0.1074 -0.3270
  415MOL0     C57178   8.803   6.408  10.591  0.2136  0.3242  0.5943
  415MOL0     C57179   8.922   6.442  10.661  0.2157  0.2443  0.2408
  415MOL0     O57180   9.084   6.684  10.804 -0.5634 -0.7454 -0.8296
  415MOL0     C57181   9.400   6.580  10.751 -0.9795  0.1779  1.0280
  415MOL0     C57182   9.529   6.562  10.803  0.2585 -0.1663  0.3431
  415MOL0     N57183  10.184   6.729  11.353  0.9031 -0.0001  0.8198
  415MOL0     N57184  10.222   6.656  11.447  0.1366 -0.5119 -0.2612
  415MOL0     C57185   9.424   5.798  11.379 -0.1597 -0.0564  0.2638
  415MOL0     C57186   9.343   5.715  11.294 -0.0802  0.2612  0.1729
  415MOL0     C57187   9.066   5.700  10.929 -0.2764 -0.1256  0.3977
  415MOL0     C57188   8.929   5.711  10.978 -0.0818  0.4965  0.3218
  415MOL0     C57189   8.814   5.711  10.900 -0.7683 -0.0580  0.3493
  415MOL0     C57190   8.831   5.695  10.764  0.4513  0.0542 -0.1962
  415MOL0     O57191   8.716   5.691  10.686 -0.1095  0.6421 -0.5790
  415MOL0     C57192   8.680   5.817  10.628  0.8338  0.0546 -0.1165
  415MOL0     C57193   8.575   5.893  10.714 -0.5127  0.6806  0.1783
  415MOL0     C57194   8.536   6.021  10.645  0.2185  0.5468 -0.1676
  415MOL0     C57195   8.459   6.002  10.512  0.3779  0.4366  0.0756
  415MOL0     C57196   8.383   6.124  10.466  0.1980 -0.4881  0.4133
  415MOL0     C57197   8.319   6.226  10.434  0.4828 -0.1181  0.6832
  415MOL0     C57198   8.956   5.700  10.711  0.4136 -0.2280  0.0543
  415MOL0     C57199   9.078   5.702  10.784  0.2445  0.1241 -0.2086
  415MOL0     C57200   9.218   5.710  10.709 -0.3590  0.2447 -0.3189
  415MOL0     H57201   9.137   5.946  11.165  1.0782  0.8753 -2.0387
  415MOL0     H57202   9.273   6.097  11.309  0.4521  0.2332 -0.0641
  415MOL0     H57203   9.625   6.075  11.376 -2.4560  0.0450 -0.0731
  415MOL0     H57204   9.641   5.922  11.478 -0.1188 -0.3281 -0.6220
  415MOL0     H57205   9.618   6.113  11.665  1.4603  1.9318  1.7384
  415MOL0     H57206   9.772   6.080  11.570 -1.6445 -3.8772 -0.3438
  415MOL0     H57207   9.694   6.282  11.417 -1.3070  1.6789  0.3438
  415MOL0     H57208   9.555   6.299  11.525 -0.5096 -0.1689  3.0744
  415MOL0     H57209   9.699   6.466  11.559 -4.2993  0.0940  3.4649
  415MOL0     H57210   9.718   6.369  11.709  1.3827 -2.9087 -0.3020
  415MOL0     H57211   9.923   6.371  11.476  2.3539 -2.2478 -0.2295
  415MOL0     H57212   9.926   6.265  11.630 -1.4348  1.3041  2.4343
  415MOL0     H57213   9.931   6.567  11.606  1.3631  0.9689  1.8323
  415MOL0     H57214   9.935   6.482  11.759  0.6433 -3.6859  0.7616
  415MOL0     H57215  10.125   6.372  11.743  1.2022 -1.5659 -0.5502
  415MOL0     H57216  10.147   6.546  11.710 -1.8194 -0.4262  2.0653
  415MOL0     H57217  10.298   6.428  11.578  0.2094 -1.3275  1.4215
  415MOL0     H57218  10.191   6.323  11.505 -1.1487 -0.9299  0.4866
  415MOL0     H57219  10.014   6.451  11.307 -2.5638  1.1112  0.7211
  415MOL0     H57220  10.117   6.705  11.063 -0.8302 -4.9682 -1.3574
  415MOL0     H57221  10.029   6.819  11.177 -2.7124 -1.3241  2.4717
  415MOL0     H57222   9.857   6.643  11.193 -0.6104  1.2842 -0.1624
  415MOL0     H57223   9.864   6.754  11.053 -0.9036 -1.1992 -1.1095
  415MOL0     H57224   9.997   6.547  10.941 -0.3784 -0.4395 -0.4102
  415MOL0     H57225   9.934   6.461  11.074  2.5612  0.9351 -1.1012
  415MOL0     H57226   9.796   6.612  10.832 -1.9327  2.9538  1.5607
  415MOL0     H57227   9.792   6.436  10.884  3.3337 -0.2835  1.6907
  415MOL0     H57228   9.466   6.634  11.120  0.8171  2.5460 -1.1788
  415MOL0     H57229   9.178   6.764  11.043 -3.9588 -0.5908  2.0836
  415MOL0     H57230   9.237   6.640  11.165 -0.6536  2.9291  1.4950
  415MOL0     H57231   9.116   6.607  11.034 -0.3227  1.3957  0.2754
  415MOL0     H57232   9.064   6.625  10.411 -0.5862 -1.2917 -2.8931
  415MOL0     H57233   8.880   6.552  10.290 -0.9248 -2.2432  0.1628
  415MOL0     H57234   8.600   6.556  10.265 -1.6732 -0.8095 -2.6838
  415MOL0     H57235   8.727   6.453  10.202  2.7421  1.0487  1.6852
  415MOL0     H57236   8.438   6.368  10.242  0.2019  0.7971  0.2125
  415MOL0     H57237   8.513   6.419  10.084 -1.1937  0.9193  0.2739
  415MOL0     H57238   8.631   6.205  10.248  0.6192  0.7671 -0.2209
  415MOL0     H57239   8.656   6.231  10.067 -2.6370  0.6584 -2.5682
  415MOL0     H57240   8.423   6.191  10.022  0.3839  1.4526  0.7125
  415MOL0     H57241   8.400   6.150  10.200  0.8882  1.5437  1.1273
  415MOL0     H57242   8.597   6.013  10.005 -1.2827  0.5313 -1.4908
  415MOL0     H57243   8.585   5.985  10.176 -0.1703 -1.6156  0.0280
  415MOL0     H57244   8.469   5.819  10.030  0.6027  0.6755  0.6301
  415MOL0     H57245   8.351   5.933   9.979  2.2556  1.7004 -1.0812
  415MOL0     H57246   8.258   5.964  10.201  0.0374 -0.0335  0.8953
  415MOL0     H57247   8.376   5.861  10.270 -0.9095 -0.7046 -0.6060
  415MOL0     H57248   8.170   5.731  10.235 -3.3109  1.2811 -1.7674
  415MOL0     H57249   8.281   5.672  10.099 -2.4534 -1.0293 -1.5601
  415MOL0     H57250   8.720   6.349  10.628 -0.3921  0.5893 -0.2961
  415MOL0     H57251   8.931   6.422  10.767 -0.3311 -3.4802 -0.2811
  415MOL0     H57252   9.382   6.566  10.645 -0.9087  0.6017  0.9585
  415MOL0     H57253   9.611   6.559  10.732 -1.8904 -1.6604 -2.2832
  415MOL0     H57254   9.501   5.760  11.445  0.1030 -1.9715 -1.0709
  415MOL0     H57255   9.349   5.608  11.305 -0.6685  0.4475  3.0519
  415MOL0     H57256   8.914   5.719  11.085 -3.9240  1.6023 -0.1545
  415MOL0     H57257   8.713   5.721  10.937 -2.4081 -0.9281 -3.5023
  415MOL0     H57258   8.766   5.880  10.603 -0.4304  2.0007  0.1543
  415MOL0     H57259   8.633   5.783  10.536  1.6912 -0.7470 -0.2600
  415MOL0     H57260   8.630   5.933  10.800 -0.9485  4.6089 -1.1932
  415MOL0     H57261   8.493   5.825  10.736 -0.1796 -0.8220 -2.7415
  415MOL0     H57262   8.479   6.079  10.718  0.1336 -0.5562  0.6690
  415MOL0     H57263   8.620   6.086  10.621 -0.0050  0.4265 -1.3739
  415MOL0     H57264   8.389   5.922  10.536  2.9244 -0.9525  3.7942
  415MOL0     H57265   8.525   5.966  10.432  1.8848 -0.3548  1.6163
  415MOL0     H57266   8.258   6.308  10.403  1.0206  0.9545  2.3316
  415MOL0     H57267   8.959   5.701  10.602 -2.3911  3.5832 -0.1973
  415MOL0     H57268   9.295   5.639  10.740  1.2493  2.0153 -0.0928
  415MOL0     H57269   9.196   5.702  10.602 -0.8067 -0.8021 -0.1685
  415MOL0     H57270   9.254   5.807  10.742  1.4241 -0.9722  1.5754
  416MOL0     O57271   0.427   4.634   7.755 -0.4926 -0.7734 -0.7164
  416MOL0     C57272   0.495   4.658   7.661 -0.5216  0.2036 -0.1468
  416MOL0     O57273   0.456   4.727   7.547 -0.6528  0.8541  0.8485
  416MOL0     C57274   0.324   4.745   7.520 -0.1161  0.3677 -0.0189
  416MOL0     C57275   0.248   4.640   7.473 -0.1756  0.1123 -0.1649
  416MOL0     C57276   0.113   4.661   7.438  0.5734 -0.1813 -1.4508
  416MOL0     C57277   0.061   4.792   7.448 -0.0798 -0.6692  0.0071
  416MOL0     O57278  -0.066   4.809   7.420 -0.2850  0.6806  0.5738
  416MOL0     C57279  -0.146   4.842   7.535  1.3366 -0.1346 -0.8899
  416MOL0     C57280  -0.215   4.979   7.508  0.0877  0.5844  0.1892
  416MOL0     C57281  -0.360   4.966   7.561 -0.6772 -0.2191  0.6163
  416MOL0     C57282  -0.404   5.101   7.602 -0.2074  0.2405 -0.1589
  416MOL0     C57283  -0.542   5.104   7.656 -0.1191 -0.5117 -0.8546
  416MOL0     C57284  -0.574   5.248   7.686 -0.2033 -2.0638  0.8974
  416MOL0     C57285  -0.492   5.315   7.804 -0.9505  1.2112 -0.4044
  416MOL0     C57286  -0.455   5.227   7.924 -0.3411 -1.2190  0.0519
  416MOL0     N57287  -0.405   5.290   8.046  0.9159 -0.7499  0.2162
  416MOL0     C57288  -0.358   5.415   8.064 -0.0219  0.4922 -0.4570
  416MOL0     C57289  -0.337   5.438   8.197 -0.7928 -0.1190  0.8002
  416MOL0     C57290  -0.271   5.564   8.255  0.2408 -0.0683 -0.1237
  416MOL0     C57291  -0.127   5.591   8.230  0.3950 -0.5965 -0.0113
  416MOL0     C57292  -0.034   5.470   8.234 -0.1326 -0.2845  0.1644
  416MOL0     C57293   0.112   5.503   8.261 -1.2838  0.1803  0.1241
  416MOL0     O57294   0.157   5.621   8.193  0.0651  0.5356  0.0891
  416MOL0     C57295   0.283   5.673   8.223  0.2404  0.2720  0.0453
  416MOL0     C57296   0.323   5.790   8.147 -0.0197  0.6000 -0.8065
  416MOL0     C57297   0.446   5.851   8.169  0.7131  0.3140 -0.0568
  416MOL0     C57298   0.459   5.981   8.095  0.0982  0.5137  0.0713
  416MOL0     C57299   0.535   5.790   8.264  0.0630 -0.0546 -0.4591
  416MOL0     C57300   0.670   5.844   8.283  0.1633 -0.3323  0.6844
  416MOL0     O57301   0.748   5.795   8.376  0.1358  0.4660 -0.0636
  416MOL0     C57302   0.862   5.848   8.435  0.3753 -0.0755  0.5679
  416MOL0     C57303   0.933   5.963   8.399  0.1389  1.3977  1.3436
  416MOL0     C57304   1.056   5.993   8.456 -0.1788  0.4255  0.2945
  416MOL0     C57305   1.130   5.899   8.541 -0.0498  0.5097 -0.1528
  416MOL0     O57306   1.258   5.936   8.582  0.3109 -0.6673 -0.4316
  416MOL0     C57307   1.298   5.894   8.719  0.2249  0.6775  0.8751
  416MOL0     C57308   1.422   5.973   8.757 -0.0602 -0.0794  1.0173
  416MOL0     C57309   1.491   5.938   8.891 -0.3711 -0.4843  0.2917
  416MOL0     C57310   1.621   6.022   8.890 -0.8732  0.3445  0.2801
  416MOL0     C57311   1.758   5.936   8.933  0.1821 -0.8298 -0.6438
  416MOL0     C57312   1.813   5.847   8.830  0.0462 -0.1569 -0.1705
  416MOL0     C57313   1.855   5.921   8.705  0.1879  0.7575 -0.1713
  416MOL0     C57314   1.919   5.827   8.603  0.0930 -0.7221  0.0017
  416MOL0    Cl57315   2.070   5.765   8.659 -0.1379  0.0566 -0.0232
  416MOL0     C57316   1.074   5.773   8.559  0.1208 -1.1311  0.4314
  416MOL0     C57317   0.936   5.755   8.516 -0.6892  0.5416 -0.5531
  416MOL0     O57318   0.715   5.925   8.206 -0.0080 -0.9280  1.0777
  416MOL0     C57319   0.492   5.680   8.338 -0.9075 -0.0516 -0.1605
  416MOL0     C57320   0.368   5.624   8.324  0.2108 -0.1663 -0.1840
  416MOL0     N57321  -0.385   5.321   8.261  0.1746 -0.3994  0.3060
  416MOL0     N57322  -0.428   5.240   8.169  0.1620  1.0779 -0.1368
  416MOL0     C57323   0.139   4.898   7.491  0.2872 -0.6250 -0.3977
  416MOL0     C57324   0.267   4.871   7.535  0.5774 -0.5007  0.1321
  416MOL0     C57325   0.643   4.621   7.665  0.6477 -0.1704  0.3322
  416MOL0     C57326   0.717   4.654   7.552 -0.7155 -0.1166  0.3921
  416MOL0     C57327   0.845   4.599   7.533 -0.0217 -0.4240 -0.1220
  416MOL0     C57328   0.907   4.520   7.631 -0.0995  0.7008 -1.1236
  416MOL0     O57329   1.026   4.443   7.614  0.5240  0.1159 -0.0870
  416MOL0     C57330   1.139   4.468   7.695  0.1253 -0.2163 -0.2025
  416MOL0     C57331   1.266   4.410   7.626 -0.0303  0.4626 -0.4281
  416MOL0     C57332   1.280   4.443   7.477  0.7469 -0.5952 -0.3522
  416MOL0     C57333   1.380   4.344   7.408  0.1596  0.1390  0.1600
  416MOL0     C57334   1.516   4.374   7.442 -0.5560  0.7388  0.0757
  416MOL0     C57335   1.628   4.419   7.456  0.2258  0.1560 -0.6802
  416MOL0     C57336   0.832   4.501   7.750 -1.0320 -0.1949 -0.1829
  416MOL0     C57337   0.701   4.544   7.771  0.3424 -0.1838 -0.2035
  416MOL0     C57338   0.627   4.483   7.890 -0.1573 -0.5921 -0.8662
  416MOL0     H57339   0.301   4.546   7.461  1.8748  1.0931  0.6680
  416MOL0     H57340   0.050   4.583   7.396 -1.8248  0.2431  1.1141
  416MOL0     H57341  -0.090   4.850   7.629  0.2671 -3.8343  0.2524
  416MOL0     H57342  -0.212   4.760   7.562 -0.0705  1.5532  1.0455
  416MOL0     H57343  -0.156   5.057   7.557 -0.5875  0.2181  1.6405
  416MOL0     H57344  -0.233   5.000   7.402 -2.8411  0.0219  0.4746
  416MOL0     H57345  -0.425   4.913   7.490  0.5367 -1.4322  0.3660
  416MOL0     H57346  -0.354   4.897   7.646 -1.6193 -2.6381 -1.1339
  416MOL0     H57347  -0.334   5.138   7.677 -1.8316  1.9890  0.5790
  416MOL0     H57348  -0.397   5.171   7.518 -0.6017 -0.7161 -1.0009
  416MOL0     H57349  -0.546   5.050   7.751  1.6042 -0.9831 -1.0144
  416MOL0     H57350  -0.618   5.067   7.587 -1.0479 -0.0980 -0.0717
  416MOL0     H57351  -0.574   5.312   7.597  0.0631 -0.5170  1.9649
  416MOL0     H57352  -0.678   5.256   7.720 -0.2841  3.1733  0.2047
  416MOL0     H57353  -0.548   5.400   7.845 -1.9377  0.4570 -0.1444
  416MOL0     H57354  -0.396   5.353   7.768  0.5229  0.5133  2.4757
  416MOL0     H57355  -0.541   5.165   7.951 -0.3954 -0.4882  1.7157
  416MOL0     H57356  -0.380   5.152   7.900  3.1042  2.0038 -0.3055
  416MOL0     H57357  -0.342   5.489   7.986  0.7345  0.6134 -0.2008
  416MOL0     H57358  -0.289   5.560   8.363  2.7670  4.7057  0.7406
  416MOL0     H57359  -0.330   5.649   8.218 -1.0631 -1.3224 -1.0219
  416MOL0     H57360  -0.131   5.625   8.127 -2.7439  0.0082  0.2126
  416MOL0     H57361  -0.099   5.671   8.299 -0.6479  0.4338 -0.7649
  416MOL0     H57362  -0.067   5.409   8.319 -0.3355  0.4893  0.6491
  416MOL0     H57363  -0.048   5.425   8.136 -0.8402  0.9962 -0.3403
  416MOL0     H57364   0.123   5.531   8.367 -1.9692  1.2158 -0.0677
  416MOL0     H57365   0.181   5.423   8.232  1.6624  2.7201 -0.4064
  416MOL0     H57366   0.267   5.848   8.075 -2.5511 -0.1472  0.4719
  416MOL0     H57367   0.501   5.963   7.995  2.2384 -0.9477  1.1762
  416MOL0     H57368   0.519   6.058   8.143  1.7409 -0.2211 -0.7304
  416MOL0     H57369   0.363   6.029   8.072  1.2187  2.0877 -1.5704
  416MOL0     H57370   0.893   6.021   8.316  0.1002 -1.3498 -0.7000
  416MOL0     H57371   1.109   6.084   8.429 -1.4557  1.5510  1.4661
  416MOL0     H57372   1.220   5.905   8.794  0.2286 -1.0711  1.1771
  416MOL0     H57373   1.326   5.788   8.720  0.2037  0.3412 -4.3875
  416MOL0     H57374   1.492   5.953   8.676 -1.7288 -1.0993 -0.2451
  416MOL0     H57375   1.388   6.077   8.755  1.8633  0.5756 -1.0020
  416MOL0     H57376   1.521   5.833   8.894 -0.0502 -0.4670 -1.5775
  416MOL0     H57377   1.430   5.971   8.976  0.4408 -0.1893  0.7715
  416MOL0     H57378   1.623   6.103   8.963 -0.7569  0.9608 -0.3914
  416MOL0     H57379   1.641   6.072   8.795  5.5300 -0.8247  0.5254
  416MOL0     H57380   1.832   6.012   8.961  0.4953 -0.3286 -2.6967
  416MOL0     H57381   1.755   5.867   9.017 -0.6047 -0.3234 -0.2398
  416MOL0     H57382   1.742   5.766   8.812 -0.0768 -0.4610  1.5208
  416MOL0     H57383   1.900   5.797   8.873  1.4367  1.3309 -1.1489
  416MOL0     H57384   1.929   5.998   8.728  3.8145 -2.3322 -0.4589
  416MOL0     H57385   1.775   5.982   8.662  1.8154  2.2420 -1.2068
  416MOL0     H57386   1.929   5.890   8.514 -1.7957 -0.9420 -0.4147
  416MOL0     H57387   1.842   5.754   8.576 -1.7400  1.1362 -0.0997
  416MOL0     H57388   1.131   5.697   8.612  3.3639  0.4809 -0.5349
  416MOL0     H57389   0.889   5.658   8.529  0.7328  0.0315  1.1325
  416MOL0     H57390   0.551   5.631   8.415 -3.5804 -2.9138  0.2890
  416MOL0     H57391   0.348   5.540   8.390  4.3156 -1.6371 -0.4952
  416MOL0     H57392   0.094   4.996   7.499  3.0320  0.7062 -0.2016
  416MOL0     H57393   0.326   4.955   7.571  0.0719  0.8075 -1.8850
  416MOL0     H57394   0.679   4.703   7.462  2.3741  2.5416  0.3402
  416MOL0     H57395   0.894   4.619   7.438  0.1267 -0.0119  0.0410
  416MOL0     H57396   1.141   4.575   7.722 -3.8676  1.2777 -4.5884
  416MOL0     H57397   1.123   4.427   7.795  0.0458  1.6356  0.5856
  416MOL0     H57398   1.273   4.303   7.649  0.4633  0.9381  1.9028
  416MOL0     H57399   1.349   4.445   7.688 -0.6631 -1.3152  1.5452
  416MOL0     H57400   1.188   4.455   7.420  0.8731  4.2843  0.1126
  416MOL0     H57401   1.324   4.543   7.471 -2.0182  0.8496  1.4861
  416MOL0     H57402   1.362   4.350   7.300 -0.3902 -0.8471  0.1811
  416MOL0     H57403   1.374   4.236   7.421 -1.2414 -0.9009 -5.9835
  416MOL0     H57404   1.710   4.476   7.493  0.3486 -1.0947  1.1050
  416MOL0     H57405   0.875   4.443   7.831 -1.2300 -0.3322 -0.1770
  416MOL0     H57406   0.593   4.560   7.960 -0.3139 -1.5638  0.1590
  416MOL0     H57407   0.545   4.422   7.850  0.2575 -0.3677 -2.0995
  416MOL0     H57408   0.700   4.415   7.936  0.0251  1.9344  3.0015
  417MOL0     O57409   2.731   3.009  10.326  0.8073 -0.1824 -0.1596
  417MOL0     C57410   2.636   3.088  10.318  0.2784 -0.3007 -0.2982
  417MOL0     O57411   2.604   3.181  10.415  0.7767  0.2587  0.3685
  417MOL0     C57412   2.709   3.186  10.506  0.7100  0.2474 -0.5014
  417MOL0     C57413   2.697   3.102  10.621 -0.0478 -0.4678 -0.4716
  417MOL0     C57414   2.795   3.113  10.719 -0.3974 -0.2716  0.0450
  417MOL0     C57415   2.908   3.200  10.701  0.2361  0.6588 -0.3915
  417MOL0     O57416   3.005   3.210  10.803  0.0737 -0.0380  0.0472
  417MOL0     C57417   3.067   3.089  10.836 -0.1260 -0.0162 -0.0932
  417MOL0     C57418   3.189   3.124  10.928 -0.2225 -0.0713 -0.4772
  417MOL0     C57419   3.296   3.193  10.845 -0.0153 -0.3944  0.0266
  417MOL0     C57420   3.438   3.158  10.893  0.2800  0.0830  0.1317
  417MOL0     C57421   3.483   3.222  11.024  1.1416  0.4088  0.7850
  417MOL0     C57422   3.627   3.206  11.045  0.4760 -0.3007 -0.1220
  417MOL0     C57423   3.664   3.273  11.184 -0.5078  0.9943 -0.4131
  417MOL0     C57424   3.812   3.258  11.211 -0.9879 -0.0092 -0.4596
  417MOL0     N57425   3.854   3.318  11.342 -0.0397  0.6640 -0.4956
  417MOL0     C57426   3.923   3.437  11.354 -0.0093  0.3710 -0.3954
  417MOL0     C57427   3.902   3.474  11.474 -0.0352  0.9062 -1.0389
  417MOL0     C57428   3.952   3.604  11.539 -0.3425  0.0056 -0.3574
  417MOL0     C57429   4.098   3.593  11.574 -0.2130  0.2757 -0.6315
  417MOL0     C57430   4.157   3.725  11.622 -0.5402  0.1473 -0.4243
  417MOL0     C57431   4.310   3.740  11.600 -0.3533 -0.1588  0.2159
  417MOL0     O57432   4.384   3.640  11.673  0.0625  0.2812  0.2548
  417MOL0     C57433   4.518   3.656  11.698  0.2702  0.4550 -0.8263
  417MOL0     C57434   4.604   3.760  11.654 -1.0904  0.6911  0.2629
  417MOL0     C57435   4.741   3.758  11.682 -0.1458 -0.2164  0.8057
  417MOL0     C57436   4.820   3.887  11.632  0.0057  0.6316  0.0660
  417MOL0     C57437   4.791   3.646  11.745 -0.4944 -0.0118 -0.1082
  417MOL0     C57438   4.938   3.636  11.794 -0.8754  0.4135 -0.1325
  417MOL0     O57439   4.990   3.509  11.820  0.3316 -0.4816  1.0437
  417MOL0     C57440   5.120   3.496  11.830 -0.2452  0.1531  0.5020
  417MOL0     C57441   5.200   3.498  11.713 -0.1931 -0.2680  0.2948
  417MOL0     C57442   5.332   3.458  11.707  0.9412  0.9593  0.4151
  417MOL0     C57443   5.395   3.434  11.825 -1.3611 -0.6403 -0.3200
  417MOL0     O57444   5.528   3.409  11.827 -0.4884 -0.2443 -0.5235
  417MOL0     C57445   5.623   3.493  11.752  0.2535 -0.1207 -0.4234
  417MOL0     C57446   5.690   3.597  11.841  0.7929  0.9297 -0.1632
  417MOL0     C57447   5.809   3.555  11.914 -1.5442 -0.2196  0.3275
  417MOL0     C57448   5.895   3.671  11.942 -0.5855 -0.3425 -0.2626
  417MOL0     C57449   6.042   3.622  11.977 -0.3871 -0.0921  0.4145
  417MOL0     C57450   6.032   3.552  12.115  0.0424  0.1097 -0.3057
  417MOL0     C57451   6.167   3.546  12.195  0.4168  0.1576  0.3180
  417MOL0     C57452   6.283   3.468  12.138 -0.0208  1.0155  0.4565
  417MOL0    Cl57453   6.414   3.456  12.256  0.2909  0.1666 -0.3871
  417MOL0     C57454   5.326   3.433  11.952  0.1497  0.8177 -0.3149
  417MOL0     C57455   5.185   3.447  11.949  0.2250 -0.2440  0.9317
  417MOL0     O57456   5.003   3.736  11.809 -1.0849 -0.5921  0.0957
  417MOL0     C57457   4.710   3.546  11.789  0.6620  0.2449 -0.6403
  417MOL0     C57458   4.568   3.559  11.771 -0.2769 -0.3325 -0.4847
  417MOL0     N57459   3.822   3.387  11.542 -0.5701 -0.1767 -0.3532
  417MOL0     N57460   3.804   3.285  11.466 -0.0472 -0.0737 -0.1748
  417MOL0     C57461   2.923   3.268  10.581  0.0012 -0.2625 -0.0865
  417MOL0     C57462   2.817   3.271  10.491  0.3378  0.2845 -0.2253
  417MOL0     C57463   2.539   3.074  10.208 -0.0673 -0.3664  0.4512
  417MOL0     C57464   2.523   2.952  10.137 -0.7413 -0.3216  0.6960
  417MOL0     C57465   2.443   2.943  10.034 -0.3172  0.6512 -0.3259
  417MOL0     C57466   2.359   3.044   9.992  0.3657  1.4912 -0.0211
  417MOL0     O57467   2.271   3.041   9.889 -0.3169 -0.7208 -0.6373
  417MOL0     C57468   2.234   2.927   9.823  0.0263  0.0691  0.4939
  417MOL0     C57469   2.220   2.958   9.674  0.4645  0.3358 -0.0957
  417MOL0     C57470   2.104   2.880   9.615  0.0385  0.3274 -0.2491
  417MOL0     C57471   2.134   2.852   9.466  0.1074  0.0332  0.1022
  417MOL0     C57472   2.049   2.748   9.413 -0.0408 -0.0124 -0.7323
  417MOL0     C57473   1.981   2.659   9.365  0.5569 -0.3319  0.3209
  417MOL0     C57474   2.381   3.164  10.051  0.3032  0.7737 -0.1616
  417MOL0     C57475   2.468   3.188  10.160 -0.1211 -0.2850  0.3602
  417MOL0     C57476   2.478   3.329  10.219  1.0514 -0.8328 -0.6087
  417MOL0     H57477   2.617   3.030  10.631  1.0813 -1.6666  0.2205
  417MOL0     H57478   2.774   3.045  10.801  1.6646 -1.0105 -0.0021
  417MOL0     H57479   3.098   3.016  10.760 -3.6781 -1.8721  0.0195
  417MOL0     H57480   3.005   3.023  10.897  2.6218 -0.4047  2.5294
  417MOL0     H57481   3.171   3.194  11.009  2.7459  0.1454  0.0968
  417MOL0     H57482   3.223   3.028  10.967 -0.0261  0.1759 -0.0360
  417MOL0     H57483   3.300   3.151  10.745  2.8876 -2.1430  0.7391
  417MOL0     H57484   3.269   3.299  10.836 -0.9101 -0.4029  2.0906
  417MOL0     H57485   3.450   3.050  10.906 -0.2762 -0.0252 -0.2320
  417MOL0     H57486   3.505   3.189  10.812  1.3619  0.6156  1.2077
  417MOL0     H57487   3.417   3.179  11.100 -2.2221 -0.4459 -2.3176
  417MOL0     H57488   3.458   3.329  11.024  3.7823  1.1881  3.7607
  417MOL0     H57489   3.644   3.098  11.052  0.4060 -0.2306  2.2225
  417MOL0     H57490   3.684   3.249  10.963 -1.5158 -0.7407 -1.8128
  417MOL0     H57491   3.606   3.221  11.260  1.3383  1.1737  1.1851
  417MOL0     H57492   3.643   3.380  11.175 -0.4078  0.9066 -2.0737
  417MOL0     H57493   3.838   3.152  11.205  1.5506  0.6446 -3.9372
  417MOL0     H57494   3.871   3.312  11.137  0.1418 -0.9336 -0.2669
  417MOL0     H57495   3.977   3.497  11.281 -0.9373  2.9682  0.9309
  417MOL0     H57496   3.899   3.622  11.633  2.0473 -0.5069  1.1812
  417MOL0     H57497   3.934   3.685  11.468 -0.8239 -1.2163 -1.6801
  417MOL0     H57498   4.111   3.524  11.658  0.7887  1.4503  0.2131
  417MOL0     H57499   4.142   3.569  11.477 -3.1576 -1.6226 -1.6501
  417MOL0     H57500   4.112   3.800  11.557 -0.2787 -0.9679 -1.9530
  417MOL0     H57501   4.134   3.749  11.726  0.0632  1.1764 -0.5127
  417MOL0     H57502   4.332   3.734  11.493  1.2587 -0.6448  0.5450
  417MOL0     H57503   4.339   3.840  11.633 -0.9494 -0.4469  1.6765
  417MOL0     H57504   4.559   3.842  11.598 -0.4338  2.0168  1.6011
  417MOL0     H57505   4.828   3.958  11.715  2.6758  1.2428 -0.6184
  417MOL0     H57506   4.766   3.933  11.549 -2.3515  2.3278  2.3476
  417MOL0     H57507   4.924   3.861  11.613 -1.0041 -2.7883 -1.4022
  417MOL0     H57508   5.151   3.529  11.621 -0.2273  1.4841  0.8703
  417MOL0     H57509   5.371   3.449  11.606  0.4998 -2.1181  0.4261
  417MOL0     H57510   5.696   3.423  11.711  0.2601 -1.2920  1.4547
  417MOL0     H57511   5.584   3.557  11.673  0.4198  0.3634 -0.1217
  417MOL0     H57512   5.712   3.688  11.785  0.0244  0.8376 -0.6268
  417MOL0     H57513   5.612   3.619  11.915 -1.0290 -4.2252 -0.1276
  417MOL0     H57514   5.866   3.481  11.857 -2.2243  0.1841 -0.9207
  417MOL0     H57515   5.793   3.510  12.012  1.2008  4.1280  3.1016
  417MOL0     H57516   5.842   3.727  12.020 -1.1867 -1.6482  0.2880
  417MOL0     H57517   5.890   3.742  11.859 -0.2411  2.3309  1.8451
  417MOL0     H57518   6.071   3.559  11.892  0.5165 -1.2168  1.5377
  417MOL0     H57519   6.113   3.705  11.978  1.5165 -1.6353 -0.0810
  417MOL0     H57520   5.987   3.455  12.094 -0.7463  0.5520 -0.6830
  417MOL0     H57521   5.966   3.611  12.179 -0.9840 -0.3351 -0.9405
  417MOL0     H57522   6.148   3.518  12.299  1.7430  2.5404  1.2837
  417MOL0     H57523   6.212   3.645  12.196  3.4689 -1.0623 -1.7347
  417MOL0     H57524   6.316   3.516  12.045  1.3872  1.6590  1.2458
  417MOL0     H57525   6.239   3.369  12.122 -0.4416  1.1088  1.0051
  417MOL0     H57526   5.392   3.404  12.033 -0.0363  0.5205 -0.2662
  417MOL0     H57527   5.130   3.443  12.043 -2.0092  1.8377 -0.1716
  417MOL0     H57528   4.750   3.454  11.831  0.5371 -0.9801 -3.0234
  417MOL0     H57529   4.500   3.479  11.800 -1.8418 -0.2541 -3.5213
  417MOL0     H57530   3.006   3.337  10.567 -0.4433 -0.0689 -2.0878
  417MOL0     H57531   2.829   3.322  10.396 -0.2677 -0.5378 -0.7540
  417MOL0     H57532   2.590   2.869  10.160  1.8680  0.1593 -4.0664
  417MOL0     H57533   2.453   2.854   9.973  1.0867  1.6382 -1.6291
  417MOL0     H57534   2.291   2.833   9.826  1.6068  0.6698 -3.4596
  417MOL0     H57535   2.131   2.907   9.851  0.0468  0.5343  0.9111
  417MOL0     H57536   2.312   2.935   9.620  0.0106 -2.0519  0.0627
  417MOL0     H57537   2.198   3.064   9.659 -1.4782 -0.1694 -1.1596
  417MOL0     H57538   2.085   2.789   9.673 -0.9380  1.7944  1.8723
  417MOL0     H57539   2.012   2.938   9.627  0.4240  0.8916  0.0168
  417MOL0     H57540   2.236   2.838   9.430 -0.4504  1.2201 -2.1242
  417MOL0     H57541   2.115   2.951   9.422  0.5111  0.8099  1.5898
  417MOL0     H57542   1.922   2.588   9.311  1.1924 -0.0595 -0.7597
  417MOL0     H57543   2.329   3.247  10.005 -1.2940 -0.5356 -0.8217
  417MOL0     H57544   2.415   3.388  10.151 -2.4188 -2.2240  1.1461
  417MOL0     H57545   2.433   3.333  10.319 -1.5797 -1.5258 -1.6706
  417MOL0     H57546   2.581   3.366  10.225  0.5765  0.3038  2.9216
  418MOL0     O57547   5.331   0.526   6.895 -0.0127 -0.0480 -0.7331
  418MOL0     C57548   5.309   0.645   6.872  1.0179 -0.2469  0.8962
  418MOL0     O57549   5.332   0.746   6.952  0.0310  0.4894  0.3583
  418MOL0     C57550   5.394   0.725   7.070  0.2686  0.6051 -1.4399
  418MOL0     C57551   5.335   0.758   7.194  0.0447 -0.9895  0.4842
  418MOL0     C57552   5.419   0.763   7.313 -0.4991 -0.2779  0.2795
  418MOL0     C57553   5.549   0.711   7.314  0.2035  0.5683 -0.4317
  418MOL0     O57554   5.625   0.708   7.428 -0.6143  0.0690 -0.0053
  418MOL0     C57555   5.570   0.740   7.559 -0.9393  0.0515 -0.2296
  418MOL0     C57556   5.648   0.694   7.679  0.8357 -0.0604 -0.6511
  418MOL0     C57557   5.789   0.762   7.674 -0.6711  0.2633 -0.5408
  418MOL0     C57558   5.875   0.698   7.780 -0.5912 -0.7465 -1.2109
  418MOL0     C57559   6.024   0.751   7.764 -0.3792 -0.3229  0.3169
  418MOL0     C57560   6.127   0.680   7.850  1.2883  0.2137 -0.0615
  418MOL0     C57561   6.268   0.723   7.824 -0.3432  0.9166  0.8207
  418MOL0     C57562   6.330   0.702   7.684 -0.4906  0.2472  0.1148
  418MOL0     N57563   6.462   0.758   7.672 -0.6754 -0.0866  0.3804
  418MOL0     C57564   6.573   0.691   7.637 -1.2048  0.4176  0.0949
  418MOL0     C57565   6.674   0.780   7.642 -0.6213 -0.4539 -0.1297
  418MOL0     C57566   6.817   0.750   7.623  0.7930 -0.5141 -0.0567
  418MOL0     C57567   6.901   0.791   7.735 -0.2744 -0.4476  0.2509
  418MOL0     C57568   6.941   0.937   7.745  0.6466 -0.7365  0.4050
  418MOL0     C57569   7.027   0.964   7.872  0.3443 -0.4067  0.8656
  418MOL0     O57570   7.054   1.113   7.874 -0.0269  0.5400 -0.0493
  418MOL0     C57571   7.157   1.157   7.946  0.1955 -0.2658 -0.2930
  418MOL0     C57572   7.203   1.288   7.928 -0.1814 -0.4424  0.0286
  418MOL0     C57573   7.318   1.339   7.996  0.8057 -0.3100 -0.1794
  418MOL0     C57574   7.369   1.465   7.946  0.1186 -0.1423  0.0761
  418MOL0     C57575   7.388   1.256   8.090  0.0556 -0.1476 -0.7411
  418MOL0     C57576   7.520   1.294   8.158  0.3465 -0.2475 -0.4225
  418MOL0     O57577   7.586   1.191   8.209  0.2037  0.4452 -0.3420
  418MOL0     C57578   7.723   1.221   8.231  0.2547  0.0465  0.1995
  418MOL0     C57579   7.806   1.238   8.125 -0.2174 -0.0385 -0.0108
  418MOL0     C57580   7.941   1.250   8.161 -0.6500  0.8485  0.3480
  418MOL0     C57581   7.992   1.233   8.299 -0.7093 -0.0628 -0.9137
  418MOL0     O57582   8.125   1.240   8.337 -0.2994 -0.6436  0.0123
  418MOL0     C57583   8.213   1.308   8.248 -0.4997 -0.5197 -0.0535
  418MOL0     C57584   8.323   1.385   8.329 -0.1817 -0.2424  0.0117
  418MOL0     C57585   8.434   1.293   8.361 -0.0736  1.1608  0.0492
  418MOL0     C57586   8.539   1.361   8.450 -0.0601 -0.4691  0.1654
  418MOL0     C57587   8.501   1.388   8.598  0.5392  0.0733  0.5916
  418MOL0     C57588   8.617   1.431   8.687  0.1495 -0.8728 -0.3581
  418MOL0     C57589   8.719   1.323   8.721 -0.0417 -0.2685 -0.6356
  418MOL0     C57590   8.827   1.389   8.816  0.4085 -0.0551  0.5416
  418MOL0    Cl57591   8.924   1.265   8.914 -0.3816  0.0315  0.1050
  418MOL0     C57592   7.895   1.208   8.400  0.4818  0.1011 -0.0193
  418MOL0     C57593   7.767   1.207   8.362 -1.1014 -1.2379 -0.1686
  418MOL0     O57594   7.559   1.415   8.165 -0.3269  0.1141 -0.1616
  418MOL0     C57595   7.327   1.133   8.113  0.2688 -0.0297  0.5506
  418MOL0     C57596   7.207   1.086   8.050 -0.7005  0.1005  1.0002
  418MOL0     N57597   6.616   0.907   7.669 -0.0992  0.0643 -0.0065
  418MOL0     N57598   6.495   0.890   7.699 -0.8637  0.3204 -0.1278
  418MOL0     C57599   5.599   0.659   7.192 -0.2831  0.7383  0.2555
  418MOL0     C57600   5.528   0.673   7.072  0.2727 -0.5293  0.0022
  418MOL0     C57601   5.274   0.697   6.731 -0.4705  0.4959 -0.1348
  418MOL0     C57602   5.253   0.593   6.634 -0.1233  0.3053 -0.4467
  418MOL0     C57603   5.209   0.624   6.512  0.2029  0.0248 -0.5026
  418MOL0     C57604   5.198   0.762   6.469 -0.0690 -0.3872  1.1186
  418MOL0     O57605   5.140   0.807   6.347 -0.2328 -0.2661  0.0248
  418MOL0     C57606   5.065   0.700   6.270 -0.5721 -0.0232 -0.6327
  418MOL0     C57607   4.983   0.761   6.154  0.1489  0.7492 -0.2304
  418MOL0     C57608   4.930   0.656   6.064  0.2428  0.0771  1.3067
  418MOL0     C57609   4.849   0.725   5.953 -1.2254  0.5266 -0.2821
  418MOL0     C57610   4.774   0.637   5.862 -1.2196 -0.5134  0.1331
  418MOL0     C57611   4.716   0.575   5.772 -0.3390 -0.1054 -0.1034
  418MOL0     C57612   5.230   0.858   6.557 -0.3648 -0.4428  0.1724
  418MOL0     C57613   5.267   0.833   6.684 -0.2955  0.8639  0.3087
  418MOL0     C57614   5.297   0.941   6.768 -0.1053  0.1814  0.0655
  418MOL0     H57615   5.238   0.805   7.203  0.3105 -0.0883 -1.0247
  418MOL0     H57616   5.369   0.805   7.400 -2.0066 -2.3637  0.4974
  418MOL0     H57617   5.466   0.727   7.590 -0.5095  0.3462  1.4632
  418MOL0     H57618   5.578   0.849   7.570  1.8982 -0.2201  1.2213
  418MOL0     H57619   5.601   0.740   7.767 -1.2236 -0.8152 -1.3058
  418MOL0     H57620   5.648   0.584   7.683  0.5282 -0.0317  1.9858
  418MOL0     H57621   5.837   0.741   7.578  2.2385 -3.1925  1.4456
  418MOL0     H57622   5.782   0.871   7.682  2.0065  0.4902 -0.3587
  418MOL0     H57623   5.848   0.719   7.884 -3.2593 -0.0118 -1.9706
  418MOL0     H57624   5.874   0.588   7.781  1.4953 -1.0272  3.9047
  418MOL0     H57625   6.039   0.856   7.791  2.4941 -0.2196 -1.3295
  418MOL0     H57626   6.055   0.747   7.659 -0.4633  0.9029  0.2301
  418MOL0     H57627   6.100   0.686   7.956 -0.6482 -0.7694 -0.4524
  418MOL0     H57628   6.108   0.580   7.811 -0.5392  2.0746 -4.7785
  418MOL0     H57629   6.331   0.675   7.900  0.0602  1.3341  0.7557
  418MOL0     H57630   6.280   0.828   7.853 -2.2651  0.5676  3.1988
  418MOL0     H57631   6.325   0.596   7.658 -2.1374  0.8673 -2.3830
  418MOL0     H57632   6.266   0.760   7.616 -0.3543 -0.4343 -0.6035
  418MOL0     H57633   6.586   0.587   7.611 -0.0309  0.4323  0.5735
  418MOL0     H57634   6.853   0.801   7.533 -0.2669  0.6797  0.1723
  418MOL0     H57635   6.822   0.643   7.598 -1.6419 -0.0287 -3.3091
  418MOL0     H57636   6.857   0.762   7.831  4.0958  0.8944  2.9754
  418MOL0     H57637   6.990   0.729   7.727 -1.7447 -2.3696 -3.0311
  418MOL0     H57638   6.997   0.964   7.655 -2.3894  1.8121 -0.9206
  418MOL0     H57639   6.859   1.010   7.741  3.3023  2.5240  0.7193
  418MOL0     H57640   6.987   0.925   7.966  3.6505 -3.7493  1.1336
  418MOL0     H57641   7.119   0.909   7.853 -0.1372 -0.6681 -0.8529
  418MOL0     H57642   7.154   1.357   7.859  1.1303 -0.0191 -0.5088
  418MOL0     H57643   7.472   1.493   7.972  0.0647  2.0235 -1.7709
  418MOL0     H57644   7.308   1.545   7.989  1.4181  0.2030  1.3725
  418MOL0     H57645   7.380   1.472   7.837 -0.5441  1.6103  0.0877
  418MOL0     H57646   7.779   1.248   8.020  1.9553  0.0488 -0.6136
  418MOL0     H57647   8.015   1.258   8.082  0.6284  0.8074  1.5071
  418MOL0     H57648   8.260   1.244   8.173  0.1085  0.9948 -1.0008
  418MOL0     H57649   8.165   1.384   8.186  2.6953  0.5767 -1.4082
  418MOL0     H57650   8.371   1.469   8.278  0.3646 -1.3217 -1.2896
  418MOL0     H57651   8.274   1.419   8.421  0.9696  0.2394  0.4720
  418MOL0     H57652   8.485   1.265   8.268 -1.7107 -0.3371 -0.4499
  418MOL0     H57653   8.388   1.208   8.412  2.6825  0.2587  1.2045
  418MOL0     H57654   8.570   1.451   8.396  1.9220 -1.2743 -0.1261
  418MOL0     H57655   8.628   1.298   8.455 -2.2006 -3.7931 -0.6895
  418MOL0     H57656   8.439   1.477   8.582  1.5720  0.3902 -2.1056
  418MOL0     H57657   8.460   1.300   8.649  4.3511 -2.0561  0.3538
  418MOL0     H57658   8.578   1.475   8.779  0.5795 -0.5728 -0.3156
  418MOL0     H57659   8.682   1.500   8.631  0.4615 -0.3926  0.5807
  418MOL0     H57660   8.769   1.286   8.631  1.8187  2.7651 -1.0115
  418MOL0     H57661   8.664   1.248   8.779 -1.2402 -0.3852 -1.8712
  418MOL0     H57662   8.774   1.451   8.890 -1.8915 -1.0159 -0.2064
  418MOL0     H57663   8.894   1.455   8.761 -0.0624  0.9784  1.1740
  418MOL0     H57664   7.920   1.208   8.505  0.6613  0.6034 -0.0590
  418MOL0     H57665   7.690   1.193   8.438 -0.1369 -0.1724  1.0574
  418MOL0     H57666   7.367   1.054   8.175  0.7936 -1.9492 -2.0556
  418MOL0     H57667   7.166   0.988   8.071 -2.9886  0.4855 -1.2407
  418MOL0     H57668   5.697   0.615   7.181 -1.1891 -1.5815  1.0624
  418MOL0     H57669   5.577   0.663   6.975 -2.9575 -0.4719 -1.7877
  418MOL0     H57670   5.263   0.493   6.676 -0.6456  0.4255 -0.0270
  418MOL0     H57671   5.197   0.548   6.435  1.3769 -1.5431  0.7857
  418MOL0     H57672   5.140   0.636   6.223 -0.3972 -1.1399  1.0817
  418MOL0     H57673   5.006   0.643   6.342 -1.2796  2.4490  0.8735
  418MOL0     H57674   5.040   0.836   6.100 -0.8817  1.0107 -0.9943
  418MOL0     H57675   4.898   0.810   6.203  0.1981  0.6690 -0.0612
  418MOL0     H57676   5.023   0.610   6.028  0.3109  0.7349  0.5964
  418MOL0     H57677   4.867   0.580   6.111  0.9051 -0.6541  1.0282
  418MOL0     H57678   4.917   0.788   5.896 -1.4160  0.1003 -0.9923
  418MOL0     H57679   4.775   0.793   5.996 -0.6436  1.1548 -0.2542
  418MOL0     H57680   4.665   0.524   5.692 -1.8886  1.7766 -0.3920
  418MOL0     H57681   5.214   0.963   6.531  1.7661 -0.3492 -0.9654
  418MOL0     H57682   5.399   0.918   6.801  0.5724 -2.7030 -3.3945
  418MOL0     H57683   5.284   1.038   6.719 -2.1643  1.5094  2.9529
  418MOL0     H57684   5.225   0.944   6.850  0.1044  0.4858  0.2432
  419MOL0     O57685   9.429   7.326   5.790 -0.4841 -0.2840 -0.4609
  419MOL0     C57686   9.429   7.351   5.912  0.0125  0.1840 -0.6547
  419MOL0     O57687   9.539   7.376   5.995 -0.4621  1.0241 -0.5451
  419MOL0     C57688   9.665   7.412   5.942 -0.8736 -0.2593  0.0299
  419MOL0     C57689   9.724   7.345   5.826 -0.6410  0.2910 -0.1626
  419MOL0     C57690   9.854   7.373   5.778 -0.1145 -0.3816  0.0213
  419MOL0     C57691   9.928   7.467   5.849  0.4344 -0.2050 -0.0374
  419MOL0     O57692  10.054   7.492   5.807  0.4113  0.6086  0.5152
  419MOL0     C57693  10.067   7.627   5.755 -0.0261  0.0893 -0.3308
  419MOL0     C57694  10.223   7.662   5.758 -0.3079  1.5584 -0.0061
  419MOL0     C57695  10.290   7.678   5.894 -0.2154 -0.9233 -0.2648
  419MOL0     C57696  10.431   7.735   5.893  0.0281  0.0654  0.7782
  419MOL0     C57697  10.513   7.691   6.018  0.3562 -0.0200  0.1297
  419MOL0     C57698  10.490   7.780   6.147  0.6902 -0.7971  0.1189
  419MOL0     C57699  10.614   7.776   6.238  0.1635 -0.3220  0.3384
  419MOL0     C57700  10.587   7.834   6.373  1.0499  0.2610 -0.3912
  419MOL0     N57701  10.703   7.830   6.453 -0.2329 -0.6747 -0.1801
  419MOL0     C57702  10.794   7.933   6.461 -0.7946  0.2170 -0.0110
  419MOL0     C57703  10.900   7.892   6.533  0.5365 -0.2098 -0.2380
  419MOL0     C57704  11.024   7.971   6.567  0.3756 -0.1289 -0.1901
  419MOL0     C57705  11.107   8.021   6.447  0.8379 -0.4321 -0.8676
  419MOL0     C57706  11.170   7.901   6.370  0.6738 -0.6070  0.6433
  419MOL0     C57707  11.265   7.812   6.455  0.2779 -0.2307 -0.3519
  419MOL0     O57708  11.360   7.753   6.367  0.7456 -0.5656 -0.4966
  419MOL0     C57709  11.489   7.729   6.426  0.2115 -0.9133 -0.0907
  419MOL0     C57710  11.496   7.678   6.556  0.7597 -0.0924 -0.3850
  419MOL0     C57711  11.617   7.646   6.616  0.2998  0.8073 -1.0333
  419MOL0     C57712  11.614   7.555   6.737 -0.1895 -0.1281  0.9528
  419MOL0     C57713  11.741   7.693   6.551  0.2301 -0.4290  0.6717
  419MOL0     C57714  11.877   7.664   6.585 -0.3050 -0.5999 -1.5433
  419MOL0     O57715  11.973   7.674   6.493  0.0023  0.0418 -0.1586
  419MOL0     C57716  12.100   7.645   6.529 -0.0381  1.0839  0.0529
  419MOL0     C57717  12.171   7.545   6.465  0.0038  0.2026 -0.6242
  419MOL0     C57718  12.309   7.518   6.492 -0.1808 -0.6040  0.0710
  419MOL0     C57719  12.373   7.599   6.587  0.2215  0.2111 -0.0851
  419MOL0     O57720  12.505   7.582   6.619  0.1076  0.1298  0.3854
  419MOL0     C57721  12.552   7.446   6.616 -0.5739 -0.1778 -0.1489
  419MOL0     C57722  12.690   7.443   6.680  0.6730 -0.6020 -0.4375
  419MOL0     C57723  12.805   7.518   6.621 -0.0594  0.0803 -0.2006
  419MOL0     C57724  12.930   7.544   6.703  0.4906 -0.2906 -0.4592
  419MOL0     C57725  12.991   7.425   6.779 -0.7262 -0.3306 -0.1250
  419MOL0     C57726  13.000   7.295   6.710 -0.3038  0.9392  0.1678
  419MOL0     C57727  13.087   7.204   6.796  0.4839 -0.3646 -0.4974
  419MOL0     C57728  13.099   7.057   6.759 -0.5681 -0.1287  0.3233
  419MOL0    Cl57729  13.186   7.047   6.601  0.2422 -0.2361  0.0370
  419MOL0     C57730  12.304   7.706   6.644 -0.1318 -0.6809 -0.5789
  419MOL0     C57731  12.168   7.729   6.618 -0.4069 -0.2616  0.2206
  419MOL0     O57732  11.897   7.622   6.705 -0.0728  0.2110  0.6021
  419MOL0     C57733  11.727   7.764   6.423  0.3967  0.3124 -0.0756
  419MOL0     C57734  11.609   7.774   6.361  0.2887 -0.4854  0.3316
  419MOL0     N57735  10.867   7.759   6.571 -0.3466  0.1868 -0.2762
  419MOL0     N57736  10.750   7.719   6.519 -0.6327 -0.0711  0.5688
  419MOL0     C57737   9.881   7.519   5.963 -0.4312 -0.7885  0.1168
  419MOL0     C57738   9.754   7.495   6.009 -0.4633 -0.5522  0.4526
  419MOL0     C57739   9.294   7.339   5.976 -0.2903  0.0962 -0.6492
  419MOL0     C57740   9.295   7.327   6.117 -0.7306 -0.1713  0.0190
  419MOL0     C57741   9.183   7.313   6.192 -0.0620 -0.7923 -0.5149
  419MOL0     C57742   9.059   7.321   6.129 -0.2849 -0.1414  0.2458
  419MOL0     O57743   8.952   7.284   6.202 -0.6770  0.0737 -0.0384
  419MOL0     C57744   8.834   7.363   6.188 -0.9953 -0.9454 -0.2251
  419MOL0     C57745   8.723   7.290   6.258 -1.1074 -0.2022 -0.8876
  419MOL0     C57746   8.678   7.169   6.182  0.2658 -0.6020  0.1834
  419MOL0     C57747   8.590   7.189   6.052  0.4361  0.3990 -0.1419
  419MOL0     C57748   8.467   7.258   6.066  0.7010 -0.1921  0.2927
  419MOL0     C57749   8.360   7.312   6.066  0.1338  0.0954 -0.4986
  419MOL0     C57750   9.058   7.339   5.984  0.2326 -0.0220  0.3022
  419MOL0     C57751   9.170   7.349   5.904  0.4382  0.2045 -0.6429
  419MOL0     C57752   9.156   7.359   5.752  0.0018 -1.0616  0.3624
  419MOL0     H57753   9.683   7.262   5.769  1.8595 -2.0369  1.1735
  419MOL0     H57754   9.891   7.331   5.685  0.1979  1.5124 -0.7643
  419MOL0     H57755  10.019   7.702   5.819 -0.9477 -2.2331  1.8585
  419MOL0     H57756  10.029   7.624   5.653 -0.1366  0.6850 -0.3104
  419MOL0     H57757  10.277   7.596   5.690  0.3755  2.1289 -0.0297
  419MOL0     H57758  10.226   7.764   5.718 -1.0293  0.5196 -2.9303
  419MOL0     H57759  10.228   7.716   5.975  1.8937 -1.5722  1.7788
  419MOL0     H57760  10.316   7.576   5.926  1.8572 -0.1357  0.7823
  419MOL0     H57761  10.476   7.694   5.802 -0.0841  3.9343 -1.2127
  419MOL0     H57762  10.427   7.842   5.872  0.1826 -0.0396  0.2017
  419MOL0     H57763  10.620   7.696   5.995 -0.2480  0.0328 -3.2255
  419MOL0     H57764  10.488   7.591   6.055 -1.5113  1.0044  1.8221
  419MOL0     H57765  10.469   7.880   6.108 -2.8060 -2.0962 -1.8174
  419MOL0     H57766  10.397   7.754   6.198  0.2990 -0.2643 -0.3128
  419MOL0     H57767  10.695   7.832   6.191  1.5951 -0.6799  2.2493
  419MOL0     H57768  10.641   7.671   6.252 -0.6515 -0.5633  0.1885
  419MOL0     H57769  10.552   7.937   6.372 -1.1799 -0.2284  3.5869
  419MOL0     H57770  10.510   7.773   6.423  1.1146  0.1373 -0.4409
  419MOL0     H57771  10.783   8.032   6.416  2.8830  1.1091  0.7065
  419MOL0     H57772  11.083   7.914   6.640  1.1596  1.0842  0.1473
  419MOL0     H57773  10.993   8.059   6.624  1.6685  0.7299 -0.7656
  419MOL0     H57774  11.044   8.071   6.373  0.4764 -0.4751 -0.5865
  419MOL0     H57775  11.175   8.093   6.495 -1.0937 -0.9885  3.1179
  419MOL0     H57776  11.097   7.828   6.334  0.5379 -0.1835  0.0232
  419MOL0     H57777  11.222   7.953   6.288  0.5105  0.7060  1.3372
  419MOL0     H57778  11.306   7.876   6.534 -1.2134 -0.4486  0.6552
  419MOL0     H57779  11.202   7.739   6.506  0.5436  0.9690  1.8341
  419MOL0     H57780  11.408   7.639   6.607 -0.1064 -0.4319 -2.0845
  419MOL0     H57781  11.623   7.615   6.828 -1.1662  2.2198 -0.3997
  419MOL0     H57782  11.676   7.465   6.738  0.1776  0.1192  0.5994
  419MOL0     H57783  11.510   7.522   6.746 -0.4146  0.3466  0.1561
  419MOL0     H57784  12.112   7.481   6.400 -1.3182 -1.0641  1.6820
  419MOL0     H57785  12.373   7.453   6.433  1.7585  1.0034  0.2983
  419MOL0     H57786  12.489   7.394   6.688  0.3483 -1.3319 -0.1564
  419MOL0     H57787  12.564   7.399   6.518  1.5333  2.0993 -1.1024
  419MOL0     H57788  12.669   7.475   6.782 -1.0148 -1.4327 -0.4944
  419MOL0     H57789  12.719   7.337   6.684  0.9077 -0.5054  0.7148
  419MOL0     H57790  12.772   7.615   6.583  0.1276  0.5509  0.8037
  419MOL0     H57791  12.837   7.452   6.540  1.3153 -1.2733  1.3642
  419MOL0     H57792  12.916   7.624   6.777  1.6208  1.4596 -2.0241
  419MOL0     H57793  13.003   7.577   6.629 -0.0383 -1.5287 -1.5761
  419MOL0     H57794  13.090   7.460   6.807 -1.2988 -0.6054  2.5355
  419MOL0     H57795  12.924   7.405   6.863 -2.9722 -1.0355 -1.9565
  419MOL0     H57796  13.032   7.307   6.606 -3.1315 -1.9606 -1.2099
  419MOL0     H57797  12.900   7.250   6.712  0.1717 -0.1577  1.2112
  419MOL0     H57798  13.045   7.218   6.896 -1.5544  0.5704 -1.4106
  419MOL0     H57799  13.191   7.234   6.785  0.2373  1.8693  2.1218
  419MOL0     H57800  13.003   7.004   6.765 -0.8740  0.3826  0.1229
  419MOL0     H57801  13.175   7.006   6.818  1.7044 -0.3351 -2.5684
  419MOL0     H57802  12.359   7.760   6.720  0.1623  1.6421 -2.3534
  419MOL0     H57803  12.126   7.821   6.658  0.2587 -0.0164  0.3662
  419MOL0     H57804  11.810   7.804   6.365  0.7223  3.8957  2.5659
  419MOL0     H57805  11.613   7.817   6.262 -1.4615 -0.7198  0.1137
  419MOL0     H57806   9.952   7.583   6.014  1.0937  0.2928 -3.0634
  419MOL0     H57807   9.724   7.539   6.104  0.1980 -1.8225  1.2727
  419MOL0     H57808   9.384   7.318   6.178 -2.3035 -1.0790  2.3421
  419MOL0     H57809   9.186   7.299   6.299  2.2971  0.6091 -0.3191
  419MOL0     H57810   8.855   7.463   6.225 -2.2917 -0.7758  0.0911
  419MOL0     H57811   8.816   7.381   6.081 -0.7056  2.3854  0.1907
  419MOL0     H57812   8.636   7.356   6.263  0.1463  1.4183  1.0281
  419MOL0     H57813   8.760   7.260   6.356  2.1871 -2.2971 -2.5516
  419MOL0     H57814   8.769   7.121   6.144  1.3133  1.7375 -0.4369
  419MOL0     H57815   8.619   7.111   6.253 -0.0887 -0.9170 -0.3576
  419MOL0     H57816   8.573   7.085   6.023  1.1113 -0.3876  2.0626
  419MOL0     H57817   8.646   7.242   5.974 -0.0570 -0.6934 -1.2667
  419MOL0     H57818   8.265   7.360   6.065 -0.8643 -1.7380  0.0759
  419MOL0     H57819   8.961   7.326   5.938  0.5116  1.6961 -0.8863
  419MOL0     H57820   9.131   7.260   5.714  0.8485 -0.7297 -1.1435
  419MOL0     H57821   9.070   7.424   5.733  0.8035 -0.2662 -0.6915
  419MOL0     H57822   9.243   7.403   5.703 -0.6916  0.5202  0.4752
  420MOL0     O57823   6.184   1.709   0.511 -0.3499 -0.1230  0.6664
  420MOL0     C57824   6.234   1.707   0.620 -0.1357 -0.0528 -0.3318
  420MOL0     O57825   6.325   1.792   0.665  0.6538 -0.1301 -0.3946
  420MOL0     C57826   6.375   1.885   0.580  0.4278 -0.4244 -0.3869
  420MOL0     C57827   6.515   1.880   0.554 -0.2527 -0.1562  0.4342
  420MOL0     C57828   6.574   1.962   0.454  0.6646 -0.4390 -0.3266
  420MOL0     C57829   6.496   2.056   0.377  0.4707  0.2867  0.0459
  420MOL0     O57830   6.543   2.142   0.286 -0.1437  0.2814 -0.1863
  420MOL0     C57831   6.680   2.127   0.243 -0.2321  0.0698  0.3267
  420MOL0     C57832   6.774   2.199   0.334  0.2287  0.2890 -0.6350
  420MOL0     C57833   6.918   2.171   0.308 -0.1905  0.2570  0.5893
  420MOL0     C57834   7.003   2.228   0.423  0.9039 -0.3034  0.8682
  420MOL0     C57835   7.147   2.163   0.412  1.6671 -0.5085  0.3928
  420MOL0     C57836   7.151   2.034   0.490  0.5801  0.4290  0.3395
  420MOL0     C57837   7.282   1.974   0.450  0.5677 -0.2596 -0.1171
  420MOL0     C57838   7.398   2.054   0.509  0.2450  0.8712  0.1143
  420MOL0     N57839   7.531   2.015   0.456  0.1146 -0.4267 -0.3800
  420MOL0     C57840   7.607   1.906   0.495 -0.4466 -0.7285  0.8119
  420MOL0     C57841   7.686   1.888   0.386  0.2339 -0.2940 -0.3830
  420MOL0     C57842   7.790   1.779   0.374  0.4871  0.1717  0.3250
  420MOL0     C57843   7.923   1.820   0.449  0.2421 -0.4544  0.0099
  420MOL0     C57844   7.998   1.934   0.377  0.3706 -1.3112 -0.1540
  420MOL0     C57845   8.146   1.936   0.397 -0.3711  0.3422 -0.0757
  420MOL0     O57846   8.202   1.808   0.367  0.0335  0.2385 -0.5144
  420MOL0     C57847   8.335   1.780   0.407  0.1426  0.7048  0.2104
  420MOL0     C57848   8.372   1.647   0.423  1.0499 -0.2703  0.3651
  420MOL0     C57849   8.497   1.621   0.459  0.1833  0.1577 -0.3652
  420MOL0     C57850   8.534   1.475   0.469 -0.1454 -0.7285  0.1994
  420MOL0     C57851   8.584   1.723   0.495 -0.4535  0.5936 -0.3831
  420MOL0     C57852   8.716   1.694   0.550 -0.1808  0.2711  0.3022
  420MOL0     O57853   8.829   1.709   0.478 -0.1861  0.1876  0.1464
  420MOL0     C57854   8.821   1.751   0.347  0.1183 -0.9463 -0.2516
  420MOL0     C57855   8.827   1.884   0.307  0.7468  0.6598  0.1177
  420MOL0     C57856   8.812   1.934   0.180 -0.1896  0.6329 -0.2923
  420MOL0     C57857   8.793   1.830   0.075  0.9810 -0.4630 -0.4917
  420MOL0     O57858   8.774   1.847  -0.062 -0.0361 -1.0013 -0.3134
  420MOL0     C57859   8.789   1.964  -0.139  0.6440 -0.8747 -0.4849
  420MOL0     C57860   8.736   1.941  -0.281  0.7699  0.1813  0.6131
  420MOL0     C57861   8.858   1.881  -0.354 -0.2113  0.4109  0.4740
  420MOL0     C57862   8.810   1.811  -0.486  0.3050 -0.0847  0.4382
  420MOL0     C57863   8.922   1.726  -0.538  0.2424  0.3946 -0.9509
  420MOL0     C57864   8.884   1.656  -0.669  0.4128  0.7415 -1.0043
  420MOL0     C57865   8.995   1.573  -0.726 -0.4479  0.1124  0.1204
  420MOL0     C57866   9.093   1.670  -0.803 -0.0948  0.4550 -0.5196
  420MOL0    Cl57867   9.262   1.618  -0.827 -0.0990  0.9093 -0.2335
  420MOL0     C57868   8.777   1.690   0.117  0.8840 -0.2551  0.9271
  420MOL0     C57869   8.799   1.653   0.243  0.0073  0.2835 -0.5365
  420MOL0     O57870   8.702   1.668   0.666 -0.1119  0.2429 -0.1212
  420MOL0     C57871   8.549   1.854   0.488  0.7538  0.8570  0.3195
  420MOL0     C57872   8.425   1.882   0.435  0.3483 -0.2916 -0.5232
  420MOL0     N57873   7.652   1.968   0.280  1.1471  0.7248  0.1929
  420MOL0     N57874   7.560   2.052   0.332 -0.2630  0.5496  0.2581
  420MOL0     C57875   6.351   2.059   0.406  0.2933  0.7084 -0.6066
  420MOL0     C57876   6.290   1.969   0.499 -0.3344  0.2848 -0.4862
  420MOL0     C57877   6.189   1.593   0.710 -0.1142 -0.1237 -0.2193
  420MOL0     C57878   6.151   1.468   0.650  0.6750 -0.3487 -0.0555
  420MOL0     C57879   6.099   1.374   0.730 -0.8914  0.2920  1.0632
  420MOL0     C57880   6.083   1.383   0.864  0.0274 -0.5255  0.4925
  420MOL0     O57881   6.004   1.302   0.946 -0.2113 -0.4093 -0.1305
  420MOL0     C57882   5.919   1.193   0.907  0.3641  0.7069 -0.3905
  420MOL0     C57883   5.787   1.237   0.842 -0.6661 -0.0681  0.5957
  420MOL0     C57884   5.706   1.314   0.946  0.3344 -0.3359 -0.6341
  420MOL0     C57885   5.580   1.388   0.901  0.4357 -0.5477 -1.0884
  420MOL0     C57886   5.547   1.482   1.009  0.6133  0.1083  0.8758
  420MOL0     C57887   5.511   1.549   1.099 -0.1298 -0.4381 -0.0565
  420MOL0     C57888   6.129   1.506   0.930  0.1748 -0.9403  0.7974
  420MOL0     C57889   6.191   1.609   0.855 -0.4258 -0.3390  0.1676
  420MOL0     C57890   6.229   1.743   0.929  0.2138 -0.2410 -1.1576
  420MOL0     H57891   6.571   1.802   0.605 -0.4870 -0.9300 -0.4537
  420MOL0     H57892   6.677   1.942   0.426  0.8932 -0.0727  0.2449
  420MOL0     H57893   6.691   2.168   0.142 -2.5264 -4.3691 -2.0342
  420MOL0     H57894   6.717   2.025   0.231 -2.7710 -1.3780  3.3421
  420MOL0     H57895   6.757   2.307   0.332 -1.7866  0.0481  0.4356
  420MOL0     H57896   6.750   2.160   0.433  0.2067  1.0344 -0.3342
  420MOL0     H57897   6.942   2.065   0.298  2.9741  0.9633 -0.8370
  420MOL0     H57898   6.958   2.216   0.217 -1.3508 -0.2392 -0.1887
  420MOL0     H57899   7.001   2.335   0.403 -2.7529 -0.1882  1.3256
  420MOL0     H57900   6.956   2.208   0.519 -2.2417 -0.5489 -0.6147
  420MOL0     H57901   7.218   2.233   0.456  2.2027 -2.3052  2.5594
  420MOL0     H57902   7.174   2.152   0.306  2.1569 -0.6227  0.5279
  420MOL0     H57903   7.136   2.050   0.597 -0.3390  2.3529 -0.0281
  420MOL0     H57904   7.071   1.970   0.453 -1.5532  3.1376 -0.0826
  420MOL0     H57905   7.303   1.966   0.343 -1.3902  2.2944 -0.7892
  420MOL0     H57906   7.290   1.878   0.502 -0.7573 -0.3792 -0.1208
  420MOL0     H57907   7.389   2.162   0.495 -1.3451  0.4110 -3.6480
  420MOL0     H57908   7.397   2.032   0.616  3.9392 -0.6826 -0.0347
  420MOL0     H57909   7.595   1.850   0.588 -0.4252  0.6676  1.6866
  420MOL0     H57910   7.799   1.739   0.273  0.6928 -1.7448  1.0702
  420MOL0     H57911   7.759   1.690   0.429  0.6082 -0.9739 -1.3783
  420MOL0     H57912   7.914   1.824   0.558 -3.8243 -1.4138 -0.1212
  420MOL0     H57913   7.983   1.729   0.443  0.0637 -0.5756  0.0469
  420MOL0     H57914   7.990   1.923   0.269  2.6027 -0.3261 -0.4820
  420MOL0     H57915   7.958   2.034   0.394 -0.0266 -1.5378  0.2658
  420MOL0     H57916   8.197   2.020   0.349  0.3322  1.2029  2.0552
  420MOL0     H57917   8.169   1.956   0.502 -0.2553  1.4166 -0.2872
  420MOL0     H57918   8.290   1.581   0.396  2.1219 -2.4877  2.1804
  420MOL0     H57919   8.531   1.444   0.573 -1.1647  0.9293  0.6934
  420MOL0     H57920   8.631   1.457   0.420  0.2337  0.6151  0.3944
  420MOL0     H57921   8.460   1.412   0.419 -0.9344  0.0081  0.4187
  420MOL0     H57922   8.856   1.962   0.376  0.4024  0.8315  0.0690
  420MOL0     H57923   8.821   2.039   0.156 -3.9816  1.3978  0.9112
  420MOL0     H57924   8.722   2.041  -0.099  0.6601 -0.2065 -1.6843
  420MOL0     H57925   8.894   1.996  -0.135  0.4657 -0.3443  0.0872
  420MOL0     H57926   8.647   1.878  -0.289 -0.6343  2.1938 -0.5779
  420MOL0     H57927   8.723   2.033  -0.339 -1.4852  0.6507  1.8032
  420MOL0     H57928   8.908   1.802  -0.298 -0.5949  0.4767  0.9175
  420MOL0     H57929   8.939   1.951  -0.376 -1.2595  2.3289  2.3541
  420MOL0     H57930   8.768   1.886  -0.554 -4.7684 -3.2469 -0.4768
  420MOL0     H57931   8.719   1.756  -0.461 -0.7973  1.7426  0.6604
  420MOL0     H57932   9.010   1.787  -0.563  0.6878  0.2291  0.1303
  420MOL0     H57933   8.945   1.647  -0.465 -1.2684 -1.4393 -2.3525
  420MOL0     H57934   8.846   1.732  -0.737  1.7330  3.9291  1.5396
  420MOL0     H57935   8.797   1.593  -0.650 -0.1866  0.9146 -3.0011
  420MOL0     H57936   8.958   1.504  -0.802  3.0529 -0.5025 -1.1701
  420MOL0     H57937   9.040   1.512  -0.647 -0.5255  0.1748  0.2131
  420MOL0     H57938   9.098   1.775  -0.774  2.3411 -0.0589  1.2395
  420MOL0     H57939   9.041   1.670  -0.899 -1.4027 -2.0806  0.0904
  420MOL0     H57940   8.760   1.616   0.040 -0.9353  0.4858  0.5818
  420MOL0     H57941   8.793   1.546   0.258 -0.8430  0.5238  1.1486
  420MOL0     H57942   8.624   1.928   0.513  2.6716 -1.3657  1.6171
  420MOL0     H57943   8.402   1.987   0.425 -2.2291 -0.7386 -0.0196
  420MOL0     H57944   6.291   2.118   0.337 -0.3107 -3.1419 -3.7109
  420MOL0     H57945   6.182   1.956   0.506 -0.0978 -2.8351 -1.2937
  420MOL0     H57946   6.145   1.461   0.542  0.1537  0.5916 -0.1006
  420MOL0     H57947   6.063   1.288   0.674  2.3041  0.3325 -1.2938
  420MOL0     H57948   5.977   1.125   0.844  0.0742  2.6013 -2.9085
  420MOL0     H57949   5.891   1.129   0.990 -0.9863 -2.0269 -2.7657
  420MOL0     H57950   5.721   1.155   0.813 -2.7554  0.0214  4.3774
  420MOL0     H57951   5.805   1.303   0.757 -1.8611  2.1989  1.9759
  420MOL0     H57952   5.667   1.250   1.025  1.6091  0.5428  0.7457
  420MOL0     H57953   5.772   1.388   0.991 -2.2455  1.8108 -0.1512
  420MOL0     H57954   5.497   1.320   0.877  0.4016 -1.0527  0.3748
  420MOL0     H57955   5.612   1.448   0.815 -0.9921 -0.6622 -1.7188
  420MOL0     H57956   5.475   1.597   1.188  0.5899  1.3121 -0.6677
  420MOL0     H57957   6.107   1.534   1.033 -0.3163  1.6902  0.0468
  420MOL0     H57958   6.200   1.736   1.034 -1.9351  0.8599 -1.6382
  420MOL0     H57959   6.337   1.760   0.923  0.4286 -0.3630  1.4464
  420MOL0     H57960   6.173   1.826   0.886  0.0090  0.4650  0.4265
  421MOL0     O57961   7.327   4.581   9.547 -0.2930 -0.3520 -0.5599
  421MOL0     C57962   7.417   4.583   9.463  0.3845 -0.6662 -0.6971
  421MOL0     O57963   7.530   4.640   9.477 -0.2872 -0.0619  0.7208
  421MOL0     C57964   7.563   4.678   9.604 -0.2091 -0.5780  0.1195
  421MOL0     C57965   7.491   4.786   9.665 -0.3573 -0.3610 -0.6987
  421MOL0     C57966   7.518   4.819   9.797 -0.2745 -0.7335  0.4939
  421MOL0     C57967   7.631   4.769   9.855  0.0340 -0.0753  0.5677
  421MOL0     O57968   7.663   4.815   9.977 -0.7844  0.3669 -0.0875
  421MOL0     C57969   7.792   4.869  10.002 -0.1485  0.5572 -0.3443
  421MOL0     C57970   7.869   4.756  10.074 -0.3101  0.7744  0.8547
  421MOL0     C57971   7.956   4.792  10.194 -0.6883  0.1670 -0.1608
  421MOL0     C57972   8.082   4.858  10.142 -0.2399 -0.3115  0.8290
  421MOL0     C57973   8.154   4.909  10.269  0.3437  0.3481 -0.5755
  421MOL0     C57974   8.300   4.950  10.242 -0.5337 -0.6740  0.5879
  421MOL0     C57975   8.362   5.001  10.379 -0.4590 -0.1056  1.1222
  421MOL0     C57976   8.503   5.043  10.351  0.4468  0.0525 -0.1097
  421MOL0     N57977   8.601   4.938  10.349  0.1859 -0.2103 -0.4594
  421MOL0     C57978   8.633   4.859  10.242  0.7705 -0.0023  0.7921
  421MOL0     C57979   8.743   4.793  10.275 -1.0503 -0.1750  0.5002
  421MOL0     C57980   8.813   4.700  10.174 -0.1073  0.1993  0.1534
  421MOL0     C57981   8.957   4.708  10.207 -0.7485  0.9040  0.6564
  421MOL0     C57982   9.039   4.631  10.095  0.0938  0.2112 -0.4807
  421MOL0     C57983   9.159   4.561  10.169  0.1348 -0.2073  0.1935
  421MOL0     O57984   9.249   4.668  10.212  0.1786 -0.3762  0.6158
  421MOL0     C57985   9.376   4.631  10.226 -1.0260 -0.5141  0.3493
  421MOL0     C57986   9.462   4.714  10.160 -0.4438 -0.3853  0.2210
  421MOL0     C57987   9.599   4.689  10.163  0.6116  0.1504  0.6413
  421MOL0     C57988   9.675   4.775  10.068 -0.0866  0.1281 -0.0590
  421MOL0     C57989   9.650   4.594  10.248 -0.8101  0.3498 -0.1960
  421MOL0     C57990   9.797   4.579  10.276 -0.4496 -0.1420 -0.0620
  421MOL0     O57991   9.829   4.519  10.399 -0.5316  0.2551 -0.1917
  421MOL0     C57992   9.964   4.479  10.412  0.8906 -0.2048 -0.3070
  421MOL0     C57993  10.061   4.584  10.408 -0.5546  1.1388  0.2440
  421MOL0     C57994  10.201   4.552  10.421 -0.2746  0.1607  0.0838
  421MOL0     C57995  10.238   4.416  10.445 -0.7397 -0.1308  0.2223
  421MOL0     O57996  10.365   4.390  10.469  0.2812  0.3906  0.1933
  421MOL0     C57997  10.417   4.277  10.399  0.4578 -0.0455 -0.0994
  421MOL0     C57998  10.427   4.144  10.481  0.6765  0.7447  0.1619
  421MOL0     C57999  10.559   4.073  10.486  0.1589  0.0112  0.4039
  421MOL0     C58000  10.562   3.969  10.597  0.2248 -0.2960  0.4703
  421MOL0     C58001  10.697   3.923  10.635 -0.2354  0.2569 -0.1885
  421MOL0     C58002  10.669   3.837  10.761  0.2990 -0.5772 -0.0368
  421MOL0     C58003  10.792   3.761  10.809 -0.2387  0.2044 -0.8396
  421MOL0     C58004  10.766   3.721  10.951 -0.3703  0.6156  0.5024
  421MOL0    Cl58005  10.904   3.601  10.980  0.3079  0.3821 -0.4152
  421MOL0     C58006  10.139   4.314  10.431 -0.8088 -0.1427  0.0578
  421MOL0     C58007  10.005   4.347  10.423  0.0678 -0.5951 -0.3086
  421MOL0     O58008   9.874   4.595  10.184  0.8125  0.4210  0.5891
  421MOL0     C58009   9.563   4.508  10.321 -0.2461  0.2444 -0.0559
  421MOL0     C58010   9.432   4.527  10.311  0.0000 -0.5399 -0.2932
  421MOL0     N58011   8.784   4.814  10.402  0.5875  0.0309  0.0504
  421MOL0     N58012   8.697   4.903  10.445  0.0051 -0.0371  0.9221
  421MOL0     C58013   7.708   4.671   9.792  0.5576  0.1089 -1.1225
  421MOL0     C58014   7.670   4.615   9.668 -0.5878  0.4206  0.2145
  421MOL0     C58015   7.391   4.508   9.345 -1.0607 -0.4960 -1.1295
  421MOL0     C58016   7.295   4.550   9.264  0.1143  0.2894 -0.2986
  421MOL0     C58017   7.289   4.498   9.136  0.0711  0.8426 -0.8235
  421MOL0     C58018   7.373   4.397   9.092  1.0657 -0.1955 -0.2789
  421MOL0     O58019   7.354   4.363   8.964 -0.7728 -0.6119 -0.2443
  421MOL0     C58020   7.457   4.303   8.898 -0.3050  0.0966  0.8007
  421MOL0     C58021   7.458   4.346   8.750  0.4444  0.7438  0.2983
  421MOL0     C58022   7.319   4.324   8.681  0.1080  0.0789  0.5602
  421MOL0     C58023   7.249   4.190   8.713  0.3751  0.0207  0.1148
  421MOL0     C58024   7.144   4.175   8.621 -0.5852  0.1738  0.1012
  421MOL0     C58025   7.048   4.164   8.546  0.9983 -0.4186 -0.0752
  421MOL0     C58026   7.454   4.330   9.182  0.4978 -0.2203 -0.8172
  421MOL0     C58027   7.462   4.386   9.315 -0.2773  0.1699  0.7495
  421MOL0     C58028   7.526   4.300   9.430  0.1662 -0.2975  0.2890
  421MOL0     H58029   7.412   4.832   9.607  0.3181  1.4281 -0.2506
  421MOL0     H58030   7.451   4.892   9.841 -1.5988 -1.3253 -0.4600
  421MOL0     H58031   7.794   4.951  10.074 -0.8905  1.0594 -0.8822
  421MOL0     H58032   7.833   4.892   9.903 -0.6808  0.4395 -0.5985
  421MOL0     H58033   7.802   4.680  10.114  0.0622  0.2683  0.5373
  421MOL0     H58034   7.933   4.704  10.002  1.2239  1.2086  1.8595
  421MOL0     H58035   7.901   4.855  10.265  0.7361 -0.3066  1.4445
  421MOL0     H58036   7.989   4.705  10.253 -1.9991 -0.7508 -0.7407
  421MOL0     H58037   8.153   4.791  10.093 -1.1188 -0.9161  0.3658
  421MOL0     H58038   8.049   4.945  10.084  0.6368  1.6667  3.1077
  421MOL0     H58039   8.149   4.837  10.351  0.8744  1.8240  0.8178
  421MOL0     H58040   8.095   4.996  10.298 -0.9873 -1.1433  1.4633
  421MOL0     H58041   8.361   4.862  10.218 -0.1505 -0.7716  1.8459
  421MOL0     H58042   8.301   5.021  10.158 -0.3046 -1.1836  0.1540
  421MOL0     H58043   8.358   4.926  10.458  3.5635 -2.5199 -0.6206
  421MOL0     H58044   8.309   5.092  10.409 -1.1757 -0.2484  0.3308
  421MOL0     H58045   8.514   5.109  10.265  0.5721  0.6985  0.3948
  421MOL0     H58046   8.534   5.086  10.447  1.6194 -2.4792  0.7552
  421MOL0     H58047   8.584   4.867  10.145 -1.1490 -0.8794  1.6386
  421MOL0     H58048   8.783   4.747  10.079 -0.5719 -0.5473 -0.0799
  421MOL0     H58049   8.784   4.596  10.184  3.6919 -1.1570 -1.0837
  421MOL0     H58050   8.989   4.812  10.203 -0.8075  0.8888 -0.8057
  421MOL0     H58051   8.970   4.670  10.308  2.0434  1.3596  0.5312
  421MOL0     H58052   8.984   4.544  10.059  3.0586 -2.5004  0.9952
  421MOL0     H58053   9.068   4.682  10.004  2.2058  0.8519  0.4916
  421MOL0     H58054   9.122   4.504  10.254 -3.3950  0.4207 -0.7564
  421MOL0     H58055   9.221   4.503  10.100  2.1325  2.2415 -0.2401
  421MOL0     H58056   9.416   4.786  10.093  1.1645 -1.1294 -1.7708
  421MOL0     H58057   9.746   4.840  10.121 -0.1229 -0.0144  0.1664
  421MOL0     H58058   9.608   4.844  10.016 -1.3876 -1.7027 -0.9232
  421MOL0     H58059   9.736   4.709  10.006  0.1180  0.1805  0.0844
  421MOL0     H58060  10.033   4.686  10.383 -0.5265  0.6939 -1.8608
  421MOL0     H58061  10.280   4.626  10.427 -0.9828  0.9675 -0.3468
  421MOL0     H58062  10.366   4.252  10.306  0.2215  0.0393  0.0086
  421MOL0     H58063  10.519   4.299  10.366  0.0073  1.3138 -0.6231
  421MOL0     H58064  10.408   4.172  10.585 -1.1189 -0.1720  0.1138
  421MOL0     H58065  10.360   4.062  10.454  2.6843 -0.8989 -0.0634
  421MOL0     H58066  10.634   4.147  10.513 -0.6081 -0.2847  3.8021
  421MOL0     H58067  10.566   4.013  10.395  0.1374 -0.1709  0.5233
  421MOL0     H58068  10.511   3.876  10.571 -1.3657  0.6748 -0.0686
  421MOL0     H58069  10.514   4.010  10.686 -1.7305  0.1356 -0.7322
  421MOL0     H58070  10.728   3.860  10.551 -0.1279 -1.2089  0.9138
  421MOL0     H58071  10.765   4.006  10.660 -0.6393  1.2397 -2.1350
  421MOL0     H58072  10.596   3.762  10.729  0.0620 -0.6863  0.7560
  421MOL0     H58073  10.620   3.884  10.846 -2.8685 -0.4127 -1.7933
  421MOL0     H58074  10.878   3.829  10.814  0.5492 -0.8701  1.4143
  421MOL0     H58075  10.812   3.673  10.747  0.6679  0.4922 -0.9731
  421MOL0     H58076  10.670   3.669  10.943  0.5112 -0.9331 -0.4246
  421MOL0     H58077  10.763   3.803  11.024  0.0290 -0.5392  1.8674
  421MOL0     H58078  10.172   4.211  10.437 -1.2698 -0.2191  3.1464
  421MOL0     H58079   9.938   4.261  10.420  3.3136 -3.3546  0.2085
  421MOL0     H58080   9.607   4.447  10.399  1.3325  1.5820  0.1728
  421MOL0     H58081   9.379   4.470  10.386  0.7089  0.6581  1.1671
  421MOL0     H58082   7.797   4.639   9.845 -1.5511 -2.4140  1.1109
  421MOL0     H58083   7.717   4.538   9.608 -0.5610  1.0567 -0.5907
  421MOL0     H58084   7.236   4.637   9.292 -0.5677 -0.5894  1.1087
  421MOL0     H58085   7.211   4.534   9.071  0.7947  2.4489 -0.8455
  421MOL0     H58086   7.550   4.339   8.943  0.3469  0.4279 -0.7553
  421MOL0     H58087   7.465   4.195   8.909 -1.0333 -0.0783 -0.2502
  421MOL0     H58088   7.529   4.281   8.699  0.6676 -0.3261  1.8997
  421MOL0     H58089   7.478   4.454   8.744 -2.1246  1.2188 -1.0788
  421MOL0     H58090   7.256   4.408   8.712  0.0512  0.2571 -0.0441
  421MOL0     H58091   7.336   4.340   8.574 -0.2861  0.1543  0.5088
  421MOL0     H58092   7.204   4.195   8.813 -0.5129 -0.0609 -0.2687
  421MOL0     H58093   7.316   4.105   8.720 -0.7017 -0.8443  0.2468
  421MOL0     H58094   6.979   4.153   8.464 -1.5875  1.5632  1.6350
  421MOL0     H58095   7.513   4.245   9.151  3.9148  1.7164 -0.1779
  421MOL0     H58096   7.495   4.196   9.427  1.3647 -0.7234  1.3289
  421MOL0     H58097   7.635   4.313   9.427  0.1034  0.1274 -0.9559
  421MOL0     H58098   7.498   4.344   9.526 -0.7098 -0.9473  0.3348
  422MOL0     O58099  11.111   2.532   3.375 -0.4299  0.0340 -0.2759
  422MOL0     C58100  11.052   2.506   3.267 -0.5632  0.3272 -0.3972
  422MOL0     O58101  10.978   2.582   3.190 -0.3908 -0.1357  0.1114
  422MOL0     C58102  10.951   2.710   3.213  0.3034 -0.2904  0.2152
  422MOL0     C58103  10.939   2.791   3.099 -0.1451  0.3044  0.3666
  422MOL0     C58104  10.902   2.926   3.110 -0.4227  1.0237 -0.9702
  422MOL0     C58105  10.893   2.989   3.240  0.0586  0.8002  0.5439
  422MOL0     O58106  10.865   3.119   3.263 -1.1229 -0.1292 -0.3820
  422MOL0     C58107  10.842   3.211   3.148  0.4747 -0.9109 -0.5792
  422MOL0     C58108  10.775   3.335   3.205 -0.7303 -0.3199  0.3106
  422MOL0     C58109  10.845   3.405   3.316 -1.2133 -0.5044  0.5691
  422MOL0     C58110  10.996   3.438   3.297 -0.4778  0.3745 -0.4832
  422MOL0     C58111  11.027   3.529   3.183 -0.3972 -0.0595  0.1090
  422MOL0     C58112  11.178   3.542   3.171  0.9374  0.1130  0.2749
  422MOL0     C58113  11.218   3.639   3.061 -0.6598  0.5823  0.6276
  422MOL0     C58114  11.364   3.650   3.039  0.0794  0.8331 -0.4816
  422MOL0     N58115  11.434   3.535   2.998  0.5742  1.0907  0.2224
  422MOL0     C58116  11.469   3.428   3.070 -0.7802 -0.5925  0.1040
  422MOL0     C58117  11.514   3.344   2.983  0.1543  0.7050  0.2338
  422MOL0     C58118  11.572   3.215   3.021  0.2269 -0.2490  0.0296
  422MOL0     C58119  11.714   3.227   3.085  0.8305  0.4350  0.0728
  422MOL0     C58120  11.754   3.100   3.147 -0.3847 -0.0953 -0.6139
  422MOL0     C58121  11.891   3.127   3.216 -0.3254 -0.1201  0.0949
  422MOL0     O58122  11.912   3.020   3.317  0.1447  0.3562  0.1858
  422MOL0     C58123  12.028   3.014   3.392 -0.8011  0.1787  0.0407
  422MOL0     C58124  12.121   3.120   3.404  0.3045 -0.0712 -0.5821
  422MOL0     C58125  12.234   3.117   3.486  0.1564 -0.2264 -0.1803
  422MOL0     C58126  12.318   3.243   3.488  0.4017  0.1480 -0.5375
  422MOL0     C58127  12.260   3.003   3.563 -0.0272  0.1133 -0.4089
  422MOL0     C58128  12.372   2.986   3.656 -0.2501  0.2763  0.3461
  422MOL0     O58129  12.402   2.853   3.694  0.9076  0.1467 -0.2380
  422MOL0     C58130  12.521   2.820   3.753 -0.2098 -0.5517 -0.0234
  422MOL0     C58131  12.524   2.702   3.828  0.0147 -0.1902 -1.5218
  422MOL0     C58132  12.636   2.649   3.897  0.4854  0.5195 -1.0199
  422MOL0     C58133  12.760   2.710   3.884 -1.4446 -0.3648  0.5772
  422MOL0     O58134  12.877   2.661   3.947 -0.2983 -0.1470  0.6095
  422MOL0     C58135  12.929   2.546   3.875  0.2344  0.9756  0.2553
  422MOL0     C58136  13.073   2.539   3.904 -0.1006 -0.4796  0.4536
  422MOL0     C58137  13.147   2.413   3.859  0.7502  0.4903  0.8327
  422MOL0     C58138  13.117   2.282   3.933 -0.0384 -0.2671  0.3761
  422MOL0     C58139  13.227   2.181   3.915  0.1663  0.2469 -0.0679
  422MOL0     C58140  13.361   2.221   3.975  0.8556 -0.9543  0.6078
  422MOL0     C58141  13.450   2.096   3.982 -0.1842 -0.1168 -0.2310
  422MOL0     C58142  13.598   2.131   4.006  0.7551  0.0475  0.4920
  422MOL0    Cl58143  13.654   2.205   3.856  0.4588  0.0780  0.1204
  422MOL0     C58144  12.762   2.828   3.813  0.1224 -0.5320 -0.4022
  422MOL0     C58145  12.650   2.888   3.742  0.2268  0.0097 -1.1548
  422MOL0     O58146  12.434   3.084   3.694 -0.0436  0.2996  0.5630
  422MOL0     C58147  12.164   2.896   3.562  0.6376 -0.9575  0.4600
  422MOL0     C58148  12.054   2.899   3.481  0.7116 -0.3446  0.6551
  422MOL0     N58149  11.508   3.393   2.861  0.5741  0.0533 -0.8960
  422MOL0     N58150  11.450   3.509   2.872 -0.6249 -0.6906  0.3816
  422MOL0     C58151  10.897   2.902   3.354 -0.1766  1.1041 -0.4856
  422MOL0     C58152  10.927   2.773   3.340 -0.0989  0.2447 -0.5867
  422MOL0     C58153  11.088   2.369   3.222 -0.0231 -0.0723 -0.2470
  422MOL0     C58154  11.113   2.348   3.086 -0.4323 -0.2477 -0.8311
  422MOL0     C58155  11.128   2.223   3.031 -0.0390 -0.3654 -0.0187
  422MOL0     C58156  11.130   2.108   3.119  0.3634 -0.1544 -0.2637
  422MOL0     O58157  11.147   1.982   3.062  0.5967  0.9670  0.3327
  422MOL0     C58158  11.275   1.928   3.086  0.2424  0.0158  0.0832
  422MOL0     C58159  11.298   1.807   2.993 -0.9130 -0.1835  0.1203
  422MOL0     C58160  11.340   1.823   2.847 -0.1085 -0.1258 -0.3700
  422MOL0     C58161  11.257   1.928   2.770 -0.3213 -0.0617  0.8944
  422MOL0     C58162  11.289   1.944   2.624  0.0407  0.5769  0.4053
  422MOL0     C58163  11.331   1.947   2.512 -0.5933  0.0721 -0.0138
  422MOL0     C58164  11.111   2.125   3.254 -0.3374 -0.4514 -0.1536
  422MOL0     C58165  11.075   2.256   3.311 -0.8330 -0.1756  0.0031
  422MOL0     C58166  11.030   2.264   3.455 -0.0998  0.6122  0.0852
  422MOL0     H58167  10.950   2.741   3.004 -0.7643  1.3676 -0.2842
  422MOL0     H58168  10.880   2.995   3.030  1.7231  0.5547 -2.0453
  422MOL0     H58169  10.786   3.178   3.060 -0.0831  2.2765 -1.5566
  422MOL0     H58170  10.944   3.239   3.119  1.7726 -2.8439  1.7505
  422MOL0     H58171  10.761   3.410   3.126  1.3602 -0.1604  0.0076
  422MOL0     H58172  10.674   3.310   3.236 -2.1925 -0.0826 -3.7090
  422MOL0     H58173  10.795   3.501   3.329  0.5548  1.1410 -3.1776
  422MOL0     H58174  10.837   3.345   3.407 -2.2618  0.6308  1.2467
  422MOL0     H58175  11.032   3.488   3.388 -1.8088 -0.4745  0.5433
  422MOL0     H58176  11.046   3.341   3.297 -2.9988 -1.1666  3.5783
  422MOL0     H58177  10.981   3.623   3.215 -4.0689 -1.6220 -0.1711
  422MOL0     H58178  10.983   3.490   3.091  3.4740 -0.5495 -1.7511
  422MOL0     H58179  11.224   3.567   3.268 -0.3851  0.3653  0.8622
  422MOL0     H58180  11.220   3.446   3.138  0.0575 -1.7684  4.0433
  422MOL0     H58181  11.177   3.738   3.083 -2.7291 -0.3064  0.9721
  422MOL0     H58182  11.171   3.598   2.971 -0.7389 -1.3927  1.5141
  422MOL0     H58183  11.373   3.728   2.963  1.2393  0.9619 -0.2377
  422MOL0     H58184  11.415   3.682   3.131 -2.1186  1.6558  0.5323
  422MOL0     H58185  11.465   3.411   3.177 -0.0177 -0.7957  0.1045
  422MOL0     H58186  11.578   3.160   2.926 -0.1719 -0.8193  0.3306
  422MOL0     H58187  11.505   3.154   3.082 -1.3031 -0.0657 -1.3922
  422MOL0     H58188  11.781   3.262   3.005  0.9124  0.1905  0.0312
  422MOL0     H58189  11.708   3.295   3.170  1.0521 -0.4784  0.8417
  422MOL0     H58190  11.679   3.061   3.216  0.5055  0.5921  0.7926
  422MOL0     H58191  11.765   3.026   3.067  0.0526 -0.8411  0.1303
  422MOL0     H58192  11.966   3.124   3.137  0.3917 -1.6758  0.7806
  422MOL0     H58193  11.904   3.228   3.256  1.5293 -0.0652 -0.5353
  422MOL0     H58194  12.104   3.203   3.336 -0.6342 -0.2799 -0.6155
  422MOL0     H58195  12.339   3.265   3.593 -0.3989 -2.4551  0.2379
  422MOL0     H58196  12.258   3.326   3.448 -2.3624 -1.6776 -0.4756
  422MOL0     H58197  12.403   3.223   3.423  0.1052 -0.6327 -0.6944
  422MOL0     H58198  12.426   2.660   3.848  0.4687 -0.0252  1.5524
  422MOL0     H58199  12.639   2.576   3.977  2.2189  2.2063  0.5571
  422MOL0     H58200  12.878   2.455   3.905  1.8741  0.4166  1.4971
  422MOL0     H58201  12.917   2.555   3.766  1.9977 -3.3818 -0.5086
  422MOL0     H58202  13.100   2.623   3.840 -2.5972 -0.5416 -0.8363
  422MOL0     H58203  13.090   2.563   4.010 -1.4441 -1.1353  0.8463
  422MOL0     H58204  13.255   2.431   3.859  0.7085  0.7458  0.6388
  422MOL0     H58205  13.122   2.396   3.754  1.2936  0.1240  0.7572
  422MOL0     H58206  13.023   2.241   3.894 -0.0919 -1.5958  1.8031
  422MOL0     H58207  13.111   2.295   4.041 -2.5784 -3.6489  0.8421
  422MOL0     H58208  13.201   2.086   3.962  0.6027  0.9670  1.7333
  422MOL0     H58209  13.237   2.154   3.810 -1.9834  1.3983 -0.6265
  422MOL0     H58210  13.345   2.256   4.078 -2.3375 -1.3933  0.3607
  422MOL0     H58211  13.414   2.306   3.930  1.4792 -1.5366  0.2242
  422MOL0     H58212  13.422   2.024   3.904  1.2535 -0.3995 -0.5138
  422MOL0     H58213  13.421   2.041   4.073 -0.1079  0.1070 -0.0719
  422MOL0     H58214  13.667   2.051   4.033 -0.9834 -2.2957 -1.4921
  422MOL0     H58215  13.608   2.197   4.092 -0.0515  1.0504 -0.1527
  422MOL0     H58216  12.853   2.886   3.797  0.3302 -1.2874 -2.2344
  422MOL0     H58217  12.664   2.983   3.692  1.3032  1.1798  1.2065
  422MOL0     H58218  12.183   2.811   3.626  0.0273 -3.5437 -2.5539
  422MOL0     H58219  11.977   2.822   3.488 -1.1683  1.0924 -2.2547
  422MOL0     H58220  10.877   2.947   3.451  1.2970 -0.5263  0.6248
  422MOL0     H58221  10.935   2.721   3.435  1.4913  2.9452  0.8894
  422MOL0     H58222  11.123   2.437   3.025  2.7733 -0.4706 -0.7540
  422MOL0     H58223  11.143   2.223   2.923  1.0409  2.7554  0.0226
  422MOL0     H58224  11.355   2.002   3.087 -0.0699  0.4033 -1.4362
  422MOL0     H58225  11.274   1.882   3.186  1.9844 -2.0530 -0.7732
  422MOL0     H58226  11.201   1.756   2.989 -0.7699 -0.4242 -0.3118
  422MOL0     H58227  11.369   1.741   3.043 -0.1701  1.6781  1.6482
  422MOL0     H58228  11.448   1.839   2.839 -0.0651  0.0521  0.4771
  422MOL0     H58229  11.317   1.730   2.793  2.4485 -0.5888 -0.7946
  422MOL0     H58230  11.279   2.029   2.805  1.5797  0.3195 -1.1889
  422MOL0     H58231  11.150   1.905   2.775  0.1464 -3.2413 -0.7875
  422MOL0     H58232  11.371   1.946   2.412  0.1645  1.6430  0.2309
  422MOL0     H58233  11.116   2.044   3.326 -2.3172 -1.5533 -1.1563
  422MOL0     H58234  10.951   2.337   3.477  0.0723  1.4626 -1.9317
  422MOL0     H58235  11.013   2.163   3.493  0.2831  1.4588  2.7153
  422MOL0     H58236  11.118   2.299   3.511  0.1224  1.9536 -1.0601
  423MOL0     O58237   7.438  10.587   7.895 -0.1680 -0.4297 -0.3956
  423MOL0     C58238   7.422  10.688   7.838  0.6654 -0.0454 -0.9422
  423MOL0     O58239   7.518  10.782   7.841  0.6716 -0.3217  0.3975
  423MOL0     C58240   7.649  10.763   7.877  0.4530  1.3816  0.1323
  423MOL0     C58241   7.690  10.681   7.978 -0.8613 -0.3138  0.6378
  423MOL0     C58242   7.823  10.673   8.007 -0.2274 -0.0752  0.1129
  423MOL0     C58243   7.922  10.751   7.947  0.6356 -0.2128  0.4995
  423MOL0     O58244   8.060  10.728   7.956 -0.1064  0.2095 -0.6852
  423MOL0     C58245   8.103  10.769   8.088 -0.7696 -0.4149 -0.2593
  423MOL0     C58246   8.125  10.922   8.098 -0.1284  0.3100 -0.1415
  423MOL0     C58247   8.233  10.975   7.997  0.7707  0.5946 -0.8424
  423MOL0     C58248   8.279  11.120   8.030 -0.7169  0.5741  0.3114
  423MOL0     C58249   8.398  11.157   7.942  1.1275  0.1313 -0.0376
  423MOL0     C58250   8.454  11.275   8.018 -0.2998  0.3932  0.4527
  423MOL0     C58251   8.570  11.355   7.950  0.9367 -0.0518 -0.1427
  423MOL0     C58252   8.687  11.266   7.957  0.0447 -0.0040  0.2280
  423MOL0     N58253   8.791  11.333   7.874  0.1164 -0.0953 -0.0635
  423MOL0     C58254   8.877  11.433   7.912  1.1943 -0.7646  0.4686
  423MOL0     C58255   8.954  11.447   7.801  0.8145 -0.3702  0.6117
  423MOL0     C58256   9.052  11.554   7.781 -0.1168  0.1649 -0.8534
  423MOL0     C58257   8.980  11.683   7.772  0.1093 -1.0829  0.8231
  423MOL0     C58258   9.081  11.809   7.781  0.1287 -0.1645  0.0842
  423MOL0     C58259   9.170  11.814   7.906  0.1885 -0.7156 -0.0575
  423MOL0     O58260   9.095  11.770   8.014 -0.1939  0.1668 -0.3724
  423MOL0     C58261   9.132  11.812   8.141  0.0772 -0.2573 -1.3269
  423MOL0     C58262   9.032  11.826   8.238  0.0243 -0.5607 -0.3687
  423MOL0     C58263   9.063  11.865   8.369 -0.1077  0.0677 -0.0487
  423MOL0     C58264   8.945  11.875   8.459  0.5868  1.2154 -0.6101
  423MOL0     C58265   9.197  11.889   8.411 -0.9629 -0.0092 -0.3236
  423MOL0     C58266   9.236  11.929   8.551 -0.3151 -1.3627  0.3248
  423MOL0     O58267   9.366  11.963   8.575 -0.3057  0.1484  0.4815
  423MOL0     C58268   9.390  12.018   8.697 -0.1571 -0.8130 -0.5098
  423MOL0     C58269   9.415  11.946   8.814  0.1455 -0.1515 -0.2929
  423MOL0     C58270   9.433  12.017   8.938  0.0359 -0.1586 -0.5267
  423MOL0     C58271   9.443  12.158   8.940 -0.8101 -0.5174  0.3137
  423MOL0     O58272   9.478  12.208   9.063 -0.1227 -0.4167 -0.1069
  423MOL0     C58273   9.506  12.349   9.085 -0.4710  0.3028  0.5785
  423MOL0     C58274   9.575  12.364   9.223 -0.4252 -0.1425  0.2171
  423MOL0     C58275   9.729  12.311   9.224  0.4868 -0.5488 -0.5452
  423MOL0     C58276   9.800  12.351   9.365  0.7146 -0.8215 -0.1024
  423MOL0     C58277   9.935  12.276   9.363  0.5995  0.6962  0.9293
  423MOL0     C58278   9.993  12.284   9.505  0.1657 -1.0232  0.7668
  423MOL0     C58279  10.104  12.187   9.520  0.4157  0.3393 -0.3623
  423MOL0     C58280  10.149  12.201   9.665 -0.4873  0.0895  0.3619
  423MOL0    Cl58281  10.025  12.152   9.780  0.4201 -0.1597  0.2673
  423MOL0     C58282   9.421  12.231   8.818  0.8774  0.4685 -0.2836
  423MOL0     C58283   9.387  12.160   8.707 -0.4626  0.6380  0.4934
  423MOL0     O58284   9.151  11.913   8.639 -0.0608  0.7256 -0.2080
  423MOL0     C58285   9.294  11.883   8.307  0.0293 -0.1148 -0.6060
  423MOL0     C58286   9.264  11.844   8.174  0.0712 -0.4074 -0.1766
  423MOL0     N58287   8.904  11.375   7.693  0.0960  0.0362 -0.1669
  423MOL0     N58288   8.814  11.301   7.743 -0.1756  0.3189 -0.4442
  423MOL0     C58289   7.879  10.843   7.852 -0.5570 -0.6107  0.0691
  423MOL0     C58290   7.736  10.853   7.817 -0.7699 -0.9472 -0.0776
  423MOL0     C58291   7.282  10.719   7.783  1.0668 -0.5824  0.0805
  423MOL0     C58292   7.243  10.856   7.766  0.1128 -0.1376 -0.0246
  423MOL0     C58293   7.125  10.891   7.710  0.2696  0.2871  0.9072
  423MOL0     C58294   7.036  10.791   7.662  0.1903 -0.8346  0.5848
  423MOL0     O58295   6.915  10.846   7.612  0.1529  0.1902 -0.4417
  423MOL0     C58296   6.804  10.757   7.589  0.3007 -0.1877  0.9873
  423MOL0     C58297   6.674  10.838   7.578  0.4021 -0.5645  0.4017
  423MOL0     C58298   6.545  10.743   7.594  0.0433 -0.2137  0.4227
  423MOL0     C58299   6.413  10.824   7.592  0.8297 -0.4936 -0.4538
  423MOL0     C58300   6.293  10.737   7.591  0.1287  0.5280  0.5189
  423MOL0     C58301   6.184  10.672   7.601 -0.0257  0.3145  0.1181
  423MOL0     C58302   7.077  10.663   7.669  0.6171  0.6020 -0.3394
  423MOL0     C58303   7.194  10.622   7.738 -0.3208 -0.0428  0.5997
  423MOL0     C58304   7.230  10.476   7.736 -0.0948  0.1891 -0.2626
  423MOL0     H58305   7.619  10.623   8.037 -1.0497 -0.4683  0.2591
  423MOL0     H58306   7.852  10.602   8.084  0.1036  1.4148  1.3885
  423MOL0     H58307   8.203  10.731   8.111 -1.4470 -0.0382  4.1637
  423MOL0     H58308   8.041  10.733   8.171  0.1724  0.3380  0.7954
  423MOL0     H58309   8.029  10.969   8.076 -1.9980 -2.7714  0.8718
  423MOL0     H58310   8.145  10.940   8.204 -0.4903  0.8239 -0.1534
  423MOL0     H58311   8.323  10.914   8.009 -0.3014 -0.6905  1.2330
  423MOL0     H58312   8.192  10.966   7.896 -2.1502 -1.8384  0.4023
  423MOL0     H58313   8.198  11.193   8.030 -1.5259 -0.1927  3.0523
  423MOL0     H58314   8.320  11.126   8.132  3.5764 -0.6163 -1.1100
  423MOL0     H58315   8.361  11.169   7.840 -0.5721  0.1754  0.5597
  423MOL0     H58316   8.475  11.079   7.949  1.3538  0.2607 -0.9178
  423MOL0     H58317   8.371  11.345   8.035 -0.0146  0.3087  2.5072
  423MOL0     H58318   8.493  11.251   8.117  1.1384  0.9927  0.0571
  423MOL0     H58319   8.588  11.450   8.000 -0.3105  0.8640 -1.3671
  423MOL0     H58320   8.545  11.374   7.846 -0.4578  0.4392  0.2617
  423MOL0     H58321   8.719  11.235   8.057  2.2768  0.0082 -0.4338
  423MOL0     H58322   8.667  11.174   7.901 -0.3169 -0.9127  1.8039
  423MOL0     H58323   8.875  11.505   7.994  0.0062  0.0336 -0.2236
  423MOL0     H58324   9.125  11.532   7.703  0.9910 -1.4116  0.5387
  423MOL0     H58325   9.113  11.549   7.872 -0.5943  0.7203 -0.4977
  423MOL0     H58326   8.930  11.682   7.675  0.3919 -2.4929  0.6713
  423MOL0     H58327   8.905  11.708   7.848 -0.4406  0.6574 -0.2235
  423MOL0     H58328   9.143  11.811   7.691  0.0965  1.9898  0.0541
  423MOL0     H58329   9.023  11.902   7.779  0.8344  0.2805 -0.0387
  423MOL0     H58330   9.248  11.737   7.899  0.6503 -0.2367 -0.2705
  423MOL0     H58331   9.219  11.911   7.925 -0.9714 -0.8540  5.2654
  423MOL0     H58332   8.930  11.806   8.208 -0.2681  0.3360 -0.0293
  423MOL0     H58333   8.947  11.970   8.513 -1.9411 -0.3664  2.6276
  423MOL0     H58334   8.939  11.796   8.535  0.1636  2.2115  0.4336
  423MOL0     H58335   8.850  11.886   8.405  0.9100  0.6253 -1.3155
  423MOL0     H58336   9.407  11.837   8.815 -1.1254 -0.0837  1.3235
  423MOL0     H58337   9.454  11.960   9.028  2.7789  0.5130 -0.6451
  423MOL0     H58338   9.572  12.391   9.009  0.4306  1.4231  1.9209
  423MOL0     H58339   9.411  12.402   9.098  0.5012  1.4841  4.1470
  423MOL0     H58340   9.570  12.469   9.255  1.2891  0.7433 -2.1346
  423MOL0     H58341   9.514  12.303   9.291 -0.1351  0.6147  1.1851
  423MOL0     H58342   9.788  12.352   9.141 -0.7874  0.0746 -1.1640
  423MOL0     H58343   9.721  12.203   9.213 -1.0093 -0.5426  0.2532
  423MOL0     H58344   9.740  12.315   9.449  0.9805 -1.3237 -0.1175
  423MOL0     H58345   9.810  12.458   9.382 -0.7116 -0.9772  2.0485
  423MOL0     H58346   9.918  12.175   9.323  3.8706  1.2027 -2.3094
  423MOL0     H58347   9.996  12.327   9.287 -2.4743  3.3232 -0.0138
  423MOL0     H58348   9.911  12.262   9.574 -2.7344  0.7747 -1.8426
  423MOL0     H58349  10.037  12.383   9.524  1.1413 -1.5061  1.1122
  423MOL0     H58350  10.190  12.193   9.453  2.1884 -1.6148  1.5985
  423MOL0     H58351  10.074  12.083   9.505  2.3138 -0.4843  1.1612
  423MOL0     H58352  10.180  12.304   9.685  0.8891  0.0194 -1.1821
  423MOL0     H58353  10.238  12.139   9.670 -0.4489  0.1301  0.1808
  423MOL0     H58354   9.417  12.338   8.830 -1.2273  0.3589  0.5309
  423MOL0     H58355   9.353  12.209   8.616 -0.6819  0.5294  0.5153
  423MOL0     H58356   9.400  11.902   8.318  0.2676 -1.3289 -0.6919
  423MOL0     H58357   9.343  11.835   8.101 -1.2545  0.8177 -1.8328
  423MOL0     H58358   7.960  10.901   7.811 -0.0826 -2.3729 -1.6174
  423MOL0     H58359   7.710  10.932   7.748  2.5706  1.7975  1.5237
  423MOL0     H58360   7.307  10.937   7.800  1.5577  0.1079 -3.0253
  423MOL0     H58361   7.106  10.998   7.704  0.5693  0.2801 -0.8317
  423MOL0     H58362   6.818  10.698   7.498  1.0426 -0.7819  1.4662
  423MOL0     H58363   6.793  10.694   7.678 -0.5224  1.6969  2.3127
  423MOL0     H58364   6.675  10.872   7.474 -1.5932 -1.5220  0.0111
  423MOL0     H58365   6.666  10.919   7.651  1.5208  2.2962 -2.4473
  423MOL0     H58366   6.533  10.669   7.513  3.8230 -0.6331  0.0674
  423MOL0     H58367   6.557  10.692   7.690 -0.0921  1.6275  1.4419
  423MOL0     H58368   6.408  10.875   7.495 -1.7980  2.0485  0.8730
  423MOL0     H58369   6.407  10.891   7.678  2.4144 -1.6817  0.6510
  423MOL0     H58370   6.087  10.627   7.607  0.5109 -0.7376  1.7727
  423MOL0     H58371   7.011  10.591   7.622  1.5078 -0.3356 -0.1859
  423MOL0     H58372   7.265  10.447   7.835 -1.1141  0.3782  0.1619
  423MOL0     H58373   7.137  10.421   7.719 -0.2669  0.4230 -0.0782
  423MOL0     H58374   7.307  10.451   7.663  0.9291  0.9444  0.5362
  424MOL0     O58375   4.419   6.999   2.881  0.1086 -0.0149 -0.2100
  424MOL0     C58376   4.390   7.015   3.001  0.5678  0.4857 -0.2385
  424MOL0     O58377   4.480   7.051   3.095 -0.9143 -0.2029  0.1070
  424MOL0     C58378   4.607   7.081   3.059 -0.2138  0.3783 -0.3480
  424MOL0     C58379   4.646   7.171   2.951 -0.0619  0.5735  0.3977
  424MOL0     C58380   4.773   7.205   2.919 -0.4177  0.9885 -0.5850
  424MOL0     C58381   4.872   7.157   3.009  0.7390 -0.6614 -0.0713
  424MOL0     O58382   4.998   7.199   3.003 -0.4307 -0.4712 -0.3205
  424MOL0     C58383   5.048   7.302   2.920  0.2487 -0.3667 -0.0978
  424MOL0     C58384   5.188   7.325   2.970  0.4512  0.7982 -0.4687
  424MOL0     C58385   5.275   7.205   2.950  0.1447 -0.3602  0.0150
  424MOL0     C58386   5.425   7.245   2.962 -0.2238  0.4222 -0.1756
  424MOL0     C58387   5.531   7.142   2.923  0.2158 -0.2849 -0.4568
  424MOL0     C58388   5.669   7.198   2.956 -0.2184 -0.4682 -0.5074
  424MOL0     C58389   5.705   7.189   3.101 -0.3408  0.6381  0.5882
  424MOL0     C58390   5.850   7.221   3.138 -0.7304  0.3263  1.1172
  424MOL0     N58391   5.953   7.124   3.084 -0.2946 -0.0855  0.4051
  424MOL0     C58392   5.940   6.984   3.089 -0.0243  0.6406  0.8624
  424MOL0     C58393   6.049   6.937   3.019 -0.0260  0.4282 -0.0312
  424MOL0     C58394   6.083   6.792   2.991 -0.4374  0.7518  1.1398
  424MOL0     C58395   6.034   6.756   2.849  0.2804  0.0066 -0.2858
  424MOL0     C58396   6.072   6.617   2.804  0.0397 -0.1138  0.1549
  424MOL0     C58397   5.980   6.556   2.694 -0.0165  0.7476  0.0587
  424MOL0     O58398   5.847   6.539   2.745 -0.2266  0.6644  0.2637
  424MOL0     C58399   5.751   6.480   2.658 -0.8514  0.5314 -0.9990
  424MOL0     C58400   5.727   6.539   2.532 -0.2216 -0.1475 -0.1219
  424MOL0     C58401   5.622   6.497   2.446 -0.1842  0.4562  0.1922
  424MOL0     C58402   5.596   6.574   2.321  0.3533  0.2666  0.4844
  424MOL0     C58403   5.528   6.393   2.490  0.0834  0.1064  0.3775
  424MOL0     C58404   5.427   6.337   2.400 -0.3425  0.1562 -0.5856
  424MOL0     O58405   5.426   6.200   2.400 -0.2249 -0.0545 -0.2478
  424MOL0     C58406   5.306   6.157   2.350  0.4600 -0.6966  0.8872
  424MOL0     C58407   5.282   6.165   2.207 -0.1316  0.7437 -0.1782
  424MOL0     C58408   5.157   6.123   2.153 -0.1949  0.4136  0.2590
  424MOL0     C58409   5.067   6.054   2.235 -0.7991 -0.1910  0.0045
  424MOL0     O58410   4.958   5.994   2.176 -0.6537 -0.5296 -0.0439
  424MOL0     C58411   4.890   5.876   2.226 -0.5294  0.6002 -0.1272
  424MOL0     C58412   4.756   5.919   2.283  0.5338  0.0095 -0.9180
  424MOL0     C58413   4.663   5.802   2.311  0.3533 -0.0200  0.1058
  424MOL0     C58414   4.518   5.842   2.352  0.6375  0.1607 -0.0634
  424MOL0     C58415   4.412   5.724   2.333 -0.1019  0.0683 -0.7544
  424MOL0     C58416   4.275   5.766   2.286  0.0182 -0.0017  0.2990
  424MOL0     C58417   4.189   5.659   2.211 -0.2077 -1.0693 -0.5507
  424MOL0     C58418   4.048   5.712   2.177 -0.1698  0.3022  0.0678
  424MOL0    Cl58419   3.959   5.587   2.096  0.2395  0.0563 -0.2716
  424MOL0     C58420   5.100   6.031   2.366  0.3664  0.5285  0.6854
  424MOL0     C58421   5.207   6.091   2.424  0.0404 -0.9179 -0.0250
  424MOL0     O58422   5.341   6.417   2.358  0.4950  0.1753  0.1152
  424MOL0     C58423   5.565   6.327   2.604 -0.0160 -0.2078 -1.1063
  424MOL0     C58424   5.669   6.375   2.695 -0.0831  0.2467 -0.2036
  424MOL0     N58425   6.128   7.045   2.986  0.7396 -0.8348  0.7578
  424MOL0     N58426   6.084   7.149   3.043 -0.1748 -0.1346  0.2489
  424MOL0     C58427   4.843   7.081   3.117 -0.2759  0.1586 -0.0203
  424MOL0     C58428   4.712   7.045   3.144  0.2160  0.8626 -0.4506
  424MOL0     C58429   4.245   6.998   3.037  0.0284  0.3209  0.4804
  424MOL0     C58430   4.163   6.958   2.927  0.6799 -0.1924 -1.3342
  424MOL0     C58431   4.030   6.927   2.946 -0.5951  0.5762  0.3066
  424MOL0     C58432   3.978   6.933   3.076  0.1627  0.4199 -0.2076
  424MOL0     O58433   3.853   6.895   3.101  0.3674 -0.4299  0.1370
  424MOL0     C58434   3.754   6.992   3.056  0.1110  0.4991  0.0553
  424MOL0     C58435   3.751   7.126   3.122  0.0734 -0.1557  0.4762
  424MOL0     C58436   3.705   7.126   3.269  0.4056 -0.5068 -0.1931
  424MOL0     C58437   3.604   7.233   3.317 -0.4639  0.3919  0.3439
  424MOL0     C58438   3.480   7.226   3.248 -0.8324  0.3348  0.3770
  424MOL0     C58439   3.385   7.216   3.176  0.1688 -0.4221  0.2338
  424MOL0     C58440   4.055   6.993   3.174  0.0109 -0.1169 -0.2651
  424MOL0     C58441   4.190   7.034   3.157  0.4021 -0.3866 -0.0267
  424MOL0     C58442   4.271   7.087   3.281  0.5951 -0.0123  0.4362
  424MOL0     H58443   4.566   7.195   2.882 -0.0943  0.3405  0.3542
  424MOL0     H58444   4.791   7.257   2.825 -0.7216 -1.0231 -1.8005
  424MOL0     H58445   4.988   7.392   2.939 -1.2596 -1.1391 -0.9921
  424MOL0     H58446   5.037   7.294   2.811 -0.5578  1.0048 -0.1413
  424MOL0     H58447   5.230   7.411   2.916 -2.4680  1.3351 -2.0515
  424MOL0     H58448   5.186   7.344   3.078 -1.0760 -2.0540  0.0979
  424MOL0     H58449   5.247   7.120   3.012  1.5941 -1.3092 -0.5623
  424MOL0     H58450   5.253   7.164   2.850  1.9539  0.7437 -0.8922
  424MOL0     H58451   5.443   7.334   2.901 -0.4044  2.1932  2.2238
  424MOL0     H58452   5.439   7.276   3.066  3.4077 -2.5145  0.3983
  424MOL0     H58453   5.533   7.115   2.817 -1.1752 -1.4878 -0.2055
  424MOL0     H58454   5.508   7.051   2.979  3.2656 -1.1623 -0.4159
  424MOL0     H58455   5.754   7.157   2.900  0.4780  0.6856 -0.3155
  424MOL0     H58456   5.672   7.300   2.918 -0.1437 -0.2092  0.1753
  424MOL0     H58457   5.692   7.088   3.139  0.0934  0.4859  0.3426
  424MOL0     H58458   5.633   7.253   3.153 -1.2627  3.0400 -3.1849
  424MOL0     H58459   5.873   7.314   3.085  1.0256  0.1008  1.4025
  424MOL0     H58460   5.874   7.229   3.245 -1.3724  1.4055  1.1957
  424MOL0     H58461   5.846   6.932   3.108  0.1118 -1.9466 -4.0069
  424MOL0     H58462   6.042   6.718   3.061  1.0081  0.4641  1.7187
  424MOL0     H58463   6.191   6.789   3.000 -0.3074  0.7816 -0.1606
  424MOL0     H58464   5.925   6.751   2.841  0.0545  2.4185  0.7194
  424MOL0     H58465   6.075   6.828   2.778  0.3889 -0.6237 -0.8805
  424MOL0     H58466   6.176   6.623   2.770 -0.3113  1.7451 -0.7144
  424MOL0     H58467   6.079   6.550   2.890  0.5957 -0.3609 -0.0809
  424MOL0     H58468   5.989   6.615   2.603  2.4251 -0.6466 -0.6998
  424MOL0     H58469   6.020   6.458   2.665  0.2042  1.3899 -1.9782
  424MOL0     H58470   5.772   6.635   2.507 -3.0079  2.2679  3.0678
  424MOL0     H58471   5.531   6.661   2.336  0.8364  0.7061  0.0631
  424MOL0     H58472   5.567   6.511   2.237  2.1098  0.1731 -0.0872
  424MOL0     H58473   5.694   6.611   2.288  2.5766 -3.4189  2.3309
  424MOL0     H58474   5.355   6.214   2.144 -1.6899 -0.0674 -2.7667
  424MOL0     H58475   5.140   6.140   2.047 -0.5105  1.7629  0.4975
  424MOL0     H58476   4.866   5.810   2.143 -0.3617  2.1309 -1.4459
  424MOL0     H58477   4.952   5.820   2.297 -2.7922  0.0113  1.5066
  424MOL0     H58478   4.769   5.980   2.372  3.3562 -1.2318 -0.3803
  424MOL0     H58479   4.709   5.983   2.207 -1.8477 -0.9532 -0.3429
  424MOL0     H58480   4.702   5.739   2.392 -0.4633 -0.6094  0.0556
  424MOL0     H58481   4.654   5.731   2.228  1.1607  2.2434 -2.0151
  424MOL0     H58482   4.481   5.923   2.288 -0.3052  0.1324  0.4274
  424MOL0     H58483   4.510   5.874   2.456 -0.1760  0.1127 -0.1006
  424MOL0     H58484   4.458   5.654   2.263  3.8657  1.4681  0.2121
  424MOL0     H58485   4.406   5.660   2.422  2.5629  2.0459  0.9785
  424MOL0     H58486   4.282   5.850   2.217  1.9574  0.7466  1.3237
  424MOL0     H58487   4.219   5.795   2.375 -0.3527 -0.2208  0.1405
  424MOL0     H58488   4.166   5.573   2.275  0.6067 -0.0285  1.2076
  424MOL0     H58489   4.239   5.626   2.119  1.4765 -0.9170  0.2847
  424MOL0     H58490   4.057   5.797   2.108 -0.2420  0.7121  0.5565
  424MOL0     H58491   3.990   5.750   2.261  1.7414  0.8259  1.2281
  424MOL0     H58492   5.034   5.966   2.424  2.1202 -0.9305  1.1488
  424MOL0     H58493   5.221   6.090   2.532 -1.4678  1.5718  0.2726
  424MOL0     H58494   5.512   6.235   2.627  0.3192 -0.1987 -0.2582
  424MOL0     H58495   5.672   6.325   2.791  1.4828  2.3666  0.9316
  424MOL0     H58496   4.904   7.052   3.202  1.2484  0.1106 -1.0864
  424MOL0     H58497   4.685   6.996   3.237  2.2780 -0.8127 -0.6698
  424MOL0     H58498   4.205   6.948   2.828  1.5140 -0.5271 -0.9587
  424MOL0     H58499   3.962   6.891   2.869  0.0938 -2.5879  1.0117
  424MOL0     H58500   3.775   7.006   2.949  1.9010  1.7094  0.5083
  424MOL0     H58501   3.655   6.946   3.065  0.6213 -0.9663 -1.2781
  424MOL0     H58502   3.675   7.187   3.071  1.0985 -0.1439 -1.0886
  424MOL0     H58503   3.845   7.181   3.112  1.6019 -2.4899  1.2593
  424MOL0     H58504   3.660   7.031   3.299 -0.3715 -0.1830 -0.3065
  424MOL0     H58505   3.790   7.156   3.332 -0.2666  2.1013 -0.3964
  424MOL0     H58506   3.647   7.334   3.314  1.3520 -0.3192  0.8530
  424MOL0     H58507   3.592   7.226   3.425  1.3277  0.3527  0.5720
  424MOL0     H58508   3.308   7.200   3.103 -0.2498 -4.2703  1.2609
  424MOL0     H58509   4.002   7.027   3.262 -1.3516  2.1124 -1.8538
  424MOL0     H58510   4.205   7.083   3.367  0.8919 -1.2166  0.6239
  424MOL0     H58511   4.367   7.037   3.295  0.1149 -0.7990  0.9722
  424MOL0     H58512   4.279   7.194   3.257 -2.0226  0.2922  0.6855
  425MOL0     O58513   2.752  10.330  10.851 -0.4443 -0.5678 -0.4915
  425MOL0     C58514   2.775  10.209  10.836 -0.2363  1.0519 -0.9965
  425MOL0     O58515   2.883  10.143  10.902  0.2629 -0.5679 -0.0576
  425MOL0     C58516   2.958  10.214  10.994 -0.6938  0.0643  0.7875
  425MOL0     C58517   3.082  10.287  10.964 -0.9653 -1.0091  0.2492
  425MOL0     C58518   3.162  10.333  11.068  0.4474  0.2742 -0.4962
  425MOL0     C58519   3.129  10.329  11.206 -0.2709 -0.1548 -0.0523
  425MOL0     O58520   3.215  10.384  11.298 -0.2434 -0.2099  0.5603
  425MOL0     C58521   3.171  10.406  11.435 -0.1340 -0.1543 -0.1107
  425MOL0     C58522   3.285  10.499  11.487  0.2117  0.7116  0.1473
  425MOL0     C58523   3.264  10.644  11.433 -1.0801  0.8398 -0.4758
  425MOL0     C58524   3.356  10.740  11.501  0.1813 -0.2986  0.9665
  425MOL0     C58525   3.293  10.791  11.642 -0.3487  0.4509  0.0946
  425MOL0     C58526   3.355  10.925  11.686 -0.6509  0.0927 -0.0315
  425MOL0     C58527   3.346  10.968  11.835  0.0908  0.2627  0.4141
  425MOL0     C58528   3.370  11.120  11.853 -0.7230 -0.0926 -0.1363
  425MOL0     N58529   3.379  11.151  12.001  0.5694  0.0945  0.6640
  425MOL0     C58530   3.487  11.120  12.065 -0.6276 -0.3772 -0.8368
  425MOL0     C58531   3.451  11.153  12.198 -1.5070  0.4576 -0.1453
  425MOL0     C58532   3.532  11.138  12.323  0.8172 -0.6426 -0.6646
  425MOL0     C58533   3.589  11.279  12.365 -0.6209 -0.8000 -0.3578
  425MOL0     C58534   3.677  11.264  12.488 -0.7881 -0.0578  0.1336
  425MOL0     C58535   3.738  11.399  12.530 -0.7188  0.5895  0.9490
  425MOL0     O58536   3.836  11.434  12.432  0.3443  0.6587  0.6115
  425MOL0     C58537   3.958  11.371  12.445 -0.7461  0.0721  0.1756
  425MOL0     C58538   4.006  11.293  12.554  0.7065 -0.0031 -0.2200
  425MOL0     C58539   4.134  11.230  12.548 -0.5965  0.7976  1.2517
  425MOL0     C58540   4.176  11.150  12.668  0.5974  0.4887  0.5108
  425MOL0     C58541   4.218  11.247  12.443 -0.4283  0.2282  0.9921
  425MOL0     C58542   4.366  11.208  12.440  0.2507  0.5589 -0.7025
  425MOL0     O58543   4.452  11.291  12.383  0.1151 -0.0133 -0.0911
  425MOL0     C58544   4.587  11.258  12.382 -0.4817 -0.1526 -0.5776
  425MOL0     C58545   4.676  11.361  12.406 -1.3225  0.9568 -0.3978
  425MOL0     C58546   4.816  11.353  12.396 -0.6419 -0.1132 -0.4019
  425MOL0     C58547   4.874  11.227  12.372  0.8357 -0.1909  0.1921
  425MOL0     O58548   5.006  11.201  12.375 -0.0343  0.1399  0.7649
  425MOL0     C58549   5.102  11.300  12.379 -0.3088 -0.0290  0.1797
  425MOL0     C58550   5.239  11.234  12.402 -0.8434  0.9256  0.5875
  425MOL0     C58551   5.329  11.348  12.422  0.6163  0.3305 -0.1902
  425MOL0     C58552   5.470  11.292  12.460  0.3631 -0.3128 -0.6125
  425MOL0     C58553   5.574  11.399  12.481 -0.2967 -0.0597 -0.9316
  425MOL0     C58554   5.712  11.333  12.518 -0.6619  0.2489 -0.4416
  425MOL0     C58555   5.809  11.437  12.583 -0.4938  0.2301 -0.0682
  425MOL0     C58556   5.947  11.376  12.605 -0.0621  0.0701  0.3124
  425MOL0    Cl58557   6.022  11.317  12.448 -0.2752  0.3184  0.3616
  425MOL0     C58558   4.782  11.123  12.332 -1.1392  0.1692  0.3965
  425MOL0     C58559   4.643  11.138  12.328 -1.0200 -0.9174  0.5416
  425MOL0     O58560   4.400  11.104  12.501  0.5342 -0.0938  0.3179
  425MOL0     C58561   4.169  11.328  12.334  0.4177  0.0732 -0.3720
  425MOL0     C58562   4.046  11.393  12.341  0.8123  0.5578  0.6932
  425MOL0     N58563   3.321  11.198  12.201  0.1100 -0.1955  0.4307
  425MOL0     N58564   3.277  11.200  12.080  0.2285  0.2275 -0.0585
  425MOL0     C58565   3.010  10.265  11.230 -0.9388 -0.0445  0.6211
  425MOL0     C58566   2.927  10.208  11.126 -0.0112  0.2725 -0.4749
  425MOL0     C58567   2.666  10.128  10.770 -0.4059 -0.1450  0.9540
  425MOL0     C58568   2.549  10.194  10.731  0.8819 -0.0236  0.1405
  425MOL0     C58569   2.451  10.132  10.660 -0.4687  0.6617  0.2546
  425MOL0     C58570   2.469  10.008  10.607  0.0491 -0.1984 -0.5838
  425MOL0     O58571   2.385   9.948  10.513 -0.5426 -0.0497  0.4184
  425MOL0     C58572   2.249   9.956  10.552  0.0112  0.6325  0.0238
  425MOL0     C58573   2.153   9.880  10.463  0.1317 -0.3678 -0.9921
  425MOL0     C58574   2.023   9.844  10.530  0.6492 -0.5698 -0.9078
  425MOL0     C58575   1.928   9.778  10.426  0.4476  0.2609  0.5594
  425MOL0     C58576   1.792   9.767  10.474  0.0216 -0.5687  0.2374
  425MOL0     C58577   1.675   9.778  10.500  0.3288 -0.4398 -0.0357
  425MOL0     C58578   2.574   9.935  10.650  0.7062 -1.3021 -0.6190
  425MOL0     C58579   2.677   9.997  10.726 -0.0607 -0.1892  0.6916
  425MOL0     C58580   2.787   9.904  10.753 -0.2565 -0.0570 -0.0083
  425MOL0     H58581   3.115  10.291  10.861  1.4387 -1.4708  0.9546
  425MOL0     H58582   3.257  10.380  11.044 -0.1480  1.8464  0.0956
  425MOL0     H58583   3.159  10.314  11.493 -3.2982 -0.7199 -1.4418
  425MOL0     H58584   3.079  10.465  11.443  1.0341  1.8360 -0.6288
  425MOL0     H58585   3.285  10.514  11.596 -0.1331  1.2362  0.0795
  425MOL0     H58586   3.385  10.463  11.462 -0.2831 -0.3488 -0.3864
  425MOL0     H58587   3.274  10.648  11.324 -1.6930 -0.9550 -0.6315
  425MOL0     H58588   3.158  10.664  11.448 -1.4869 -2.1989  1.3703
  425MOL0     H58589   3.460  10.708  11.514 -0.4137 -1.8489  2.1947
  425MOL0     H58590   3.351  10.832  11.443 -2.6507 -1.3292 -0.6548
  425MOL0     H58591   3.323  10.717  11.717 -0.2376  1.0846  0.6911
  425MOL0     H58592   3.186  10.810  11.640 -0.2827  0.9323  0.7624
  425MOL0     H58593   3.461  10.920  11.661  0.0378  3.3415  1.7583
  425MOL0     H58594   3.311  11.006  11.627  0.4972  0.3167 -0.5993
  425MOL0     H58595   3.409  10.911  11.904 -0.5466 -1.6473 -0.5165
  425MOL0     H58596   3.241  10.952  11.861 -0.7881 -0.5145 -3.0726
  425MOL0     H58597   3.468  11.143  11.811  0.1754 -0.6058  1.6216
  425MOL0     H58598   3.287  11.178  11.812  1.8268  3.1369 -1.1676
  425MOL0     H58599   3.586  11.087  12.033 -1.2579 -0.5899 -2.6985
  425MOL0     H58600   3.616  11.069  12.312 -1.1786 -3.0484 -1.6163
  425MOL0     H58601   3.464  11.094  12.397  1.3708 -3.2974 -1.6355
  425MOL0     H58602   3.655  11.319  12.287  1.4495  1.0825  2.2153
  425MOL0     H58603   3.508  11.348  12.386 -0.2662 -0.5498  0.2057
  425MOL0     H58604   3.599  11.243  12.561 -1.1498 -1.9374 -0.7400
  425MOL0     H58605   3.758  11.190  12.489  1.6634  2.3456  3.4704
  425MOL0     H58606   3.659  11.475  12.527 -0.5124  0.7739  0.0683
  425MOL0     H58607   3.788  11.410  12.627  0.6348 -1.6354  0.5809
  425MOL0     H58608   3.941  11.269  12.638  1.5561 -0.9617  0.1870
  425MOL0     H58609   4.105  11.158  12.751 -1.2751 -1.6755 -0.7668
  425MOL0     H58610   4.275  11.174  12.707  0.7676 -0.1959  0.5181
  425MOL0     H58611   4.176  11.043  12.645 -0.4514  0.5329  0.2276
  425MOL0     H58612   4.639  11.460  12.430  0.3107  1.0428  2.1574
  425MOL0     H58613   4.877  11.439  12.423  0.7635 -1.4706  0.9865
  425MOL0     H58614   5.111  11.349  12.281 -1.0010  2.6625  1.3603
  425MOL0     H58615   5.073  11.371  12.457 -1.3739 -0.6469  0.3613
  425MOL0     H58616   5.241  11.160  12.482  1.2781  1.8443  1.4484
  425MOL0     H58617   5.259  11.182  12.307  0.4361  1.4278  0.5732
  425MOL0     H58618   5.293  11.420  12.495  3.2682  2.5822 -0.9567
  425MOL0     H58619   5.350  11.399  12.327  2.7160 -3.4019 -1.9774
  425MOL0     H58620   5.505  11.223  12.383  2.8576 -0.5049  0.5857
  425MOL0     H58621   5.460  11.238  12.555 -0.1003 -0.7499 -0.9025
  425MOL0     H58622   5.592  11.442  12.382  2.1161  0.1537 -0.4490
  425MOL0     H58623   5.543  11.471  12.557  0.1965 -1.0508  0.2428
  425MOL0     H58624   5.756  11.295  12.426 -2.4140 -2.8245 -0.1762
  425MOL0     H58625   5.698  11.247  12.585  2.4721  0.3419  0.5033
  425MOL0     H58626   5.764  11.466  12.679 -0.5295 -1.0037  0.3059
  425MOL0     H58627   5.825  11.533  12.534  2.1838 -1.4069 -2.7572
  425MOL0     H58628   5.937  11.287  12.668  0.6053 -2.0212 -2.3634
  425MOL0     H58629   6.024  11.436  12.654  1.8397 -3.7671  2.4022
  425MOL0     H58630   4.842  11.035  12.308  1.2001  2.0369 -1.1407
  425MOL0     H58631   4.582  11.064  12.277  0.1203  1.0470 -4.2106
  425MOL0     H58632   4.226  11.333  12.241  1.1858 -0.9345  0.0310
  425MOL0     H58633   4.014  11.461  12.263  4.1375 -2.1964 -3.5497
  425MOL0     H58634   2.972  10.253  11.331 -0.8000  1.8627  0.9471
  425MOL0     H58635   2.841  10.159  11.169  0.2931 -0.5120 -0.7496
  425MOL0     H58636   2.530  10.296  10.762  0.7345 -0.0085  0.0049
  425MOL0     H58637   2.360  10.181  10.628 -0.5561 -0.4257 -1.2814
  425MOL0     H58638   2.234   9.911  10.650  1.8297  1.0090  0.5075
  425MOL0     H58639   2.225  10.062  10.555 -0.6119  0.5097  3.5537
  425MOL0     H58640   2.201   9.788  10.430 -0.6255 -0.5925 -1.4834
  425MOL0     H58641   2.139   9.941  10.373  0.2100  3.8140  1.5269
  425MOL0     H58642   2.035   9.771  10.611  2.0479 -0.2926 -0.8482
  425MOL0     H58643   1.975   9.933  10.574  1.5543 -0.8926  0.8447
  425MOL0     H58644   1.965   9.681  10.393 -0.1687  0.4326 -0.7092
  425MOL0     H58645   1.930   9.841  10.336 -2.6426 -4.4319 -3.3302
  425MOL0     H58646   1.577   9.776  10.543  1.0636  0.1562  1.8108
  425MOL0     H58647   2.580   9.833  10.612  1.9787 -1.5869  0.2849
  425MOL0     H58648   2.874   9.954  10.710  0.4456 -2.4451 -1.5715
  425MOL0     H58649   2.810   9.885  10.858  2.7476 -0.5265 -0.6514
  425MOL0     H58650   2.771   9.807  10.704 -1.1599  1.2709 -2.5420
  426MOL0     O58651   5.732   7.623   5.555 -0.6016 -0.0160  0.4670
  426MOL0     C58652   5.669   7.684   5.641  0.2544  0.5654  0.8353
  426MOL0     O58653   5.679   7.670   5.769  0.0516  0.4879  0.2050
  426MOL0     C58654   5.745   7.572   5.835 -0.1527 -0.6627  0.6569
  426MOL0     C58655   5.762   7.438   5.785 -0.2824 -0.4606 -0.8382
  426MOL0     C58656   5.842   7.345   5.852 -1.0555 -0.0980 -0.0079
  426MOL0     C58657   5.914   7.379   5.974 -0.5303 -0.4232  0.1255
  426MOL0     O58658   6.005   7.291   6.039  0.6067  0.5015  0.3237
  426MOL0     C58659   6.070   7.315   6.163  0.0264 -0.6790 -0.4302
  426MOL0     C58660   6.143   7.182   6.192  0.7968 -0.1612  0.0831
  426MOL0     C58661   6.203   7.168   6.334 -0.7155  0.0706  0.2107
  426MOL0     C58662   6.276   7.295   6.388  0.2968 -0.2485  0.9534
  426MOL0     C58663   6.337   7.278   6.522 -1.0245  0.4388 -0.3029
  426MOL0     C58664   6.401   7.415   6.569  0.0223  0.9041  0.6030
  426MOL0     C58665   6.435   7.409   6.714  0.7220 -0.2826 -0.8779
  426MOL0     C58666   6.472   7.548   6.778 -0.0310 -0.3787  0.7685
  426MOL0     N58667   6.603   7.610   6.745  0.5591 -0.1337  0.8772
  426MOL0     C58668   6.722   7.548   6.730  0.2582 -0.6630 -0.3080
  426MOL0     C58669   6.810   7.651   6.725  0.6359  0.3116  0.1359
  426MOL0     C58670   6.959   7.642   6.720 -0.9503 -0.8787 -0.3575
  426MOL0     C58671   7.033   7.689   6.597  0.3918  0.8416 -0.5634
  426MOL0     C58672   6.990   7.602   6.476  0.4190 -0.1617  0.0111
  426MOL0     C58673   7.087   7.628   6.363  0.7472 -0.4867  0.0338
  426MOL0     O58674   7.038   7.551   6.258  0.0075 -0.4831  0.4320
  426MOL0     C58675   7.050   7.586   6.126 -0.2404 -0.9472  0.5069
  426MOL0     C58676   6.962   7.528   6.039  0.0950  0.2410  0.0340
  426MOL0     C58677   6.968   7.553   5.901 -0.3978  0.9739  0.6383
  426MOL0     C58678   6.890   7.455   5.818 -1.1169 -0.0827 -0.6735
  426MOL0     C58679   7.078   7.631   5.842  0.4602  0.3958 -0.3765
  426MOL0     C58680   7.091   7.663   5.697 -0.5325  0.9125 -0.5467
  426MOL0     O58681   7.185   7.750   5.668 -0.5278  0.0231  0.4153
  426MOL0     C58682   7.232   7.772   5.537  0.5926 -0.4026 -0.0473
  426MOL0     C58683   7.264   7.668   5.448  0.3208 -1.3564 -0.1758
  426MOL0     C58684   7.348   7.699   5.331  1.0751  0.8126 -0.4185
  426MOL0     C58685   7.401   7.827   5.309  0.8930 -0.3775  0.3605
  426MOL0     O58686   7.486   7.850   5.208  0.3373  0.8177  0.2141
  426MOL0     C58687   7.520   7.983   5.152 -0.7381 -0.0801 -0.2625
  426MOL0     C58688   7.603   8.065   5.235 -0.3991 -0.1733  0.5758
  426MOL0     C58689   7.691   7.984   5.318  0.4362  0.1885  0.3554
  426MOL0     C58690   7.799   8.071   5.374  0.2715 -0.4976 -0.0869
  426MOL0     C58691   7.751   8.199   5.436  0.2936  0.1318  0.3115
  426MOL0     C58692   7.866   8.266   5.522 -1.2400  0.8742  0.3704
  426MOL0     C58693   7.857   8.253   5.674 -0.1552  0.2456 -0.6757
  426MOL0     C58694   8.003   8.257   5.732  0.6220 -0.8197 -0.0539
  426MOL0    Cl58695   7.986   8.252   5.910  0.1210 -0.4097  0.1639
  426MOL0     C58696   7.349   7.925   5.391 -0.1633 -0.0325 -0.5582
  426MOL0     C58697   7.278   7.901   5.509 -0.8947 -0.6806 -0.0778
  426MOL0     O58698   7.017   7.620   5.615  0.0134  0.0311  0.4002
  426MOL0     C58699   7.165   7.684   5.934 -0.5102 -0.4635 -0.6931
  426MOL0     C58700   7.141   7.673   6.074  0.1717  0.2471 -0.0266
  426MOL0     N58701   6.749   7.768   6.735 -1.0114  0.0829 -0.4286
  426MOL0     N58702   6.619   7.747   6.742 -0.0022  0.6765 -0.3455
  426MOL0     C58703   5.886   7.507   6.029 -0.1166  1.3361  1.5871
  426MOL0     C58704   5.793   7.595   5.959 -0.0673 -0.0385 -0.7279
  426MOL0     C58705   5.573   7.783   5.583  0.7686 -0.1949 -0.3409
  426MOL0     C58706   5.587   7.824   5.447  0.2104 -0.0729  0.4701
  426MOL0     C58707   5.499   7.914   5.384 -0.6640  1.4322  1.0342
  426MOL0     C58708   5.390   7.963   5.442 -0.2606 -0.6089  0.2418
  426MOL0     O58709   5.303   8.056   5.386 -0.4883 -1.2442 -0.6049
  426MOL0     C58710   5.305   8.087   5.246  0.2272 -0.0203 -0.3194
  426MOL0     C58711   5.257   7.973   5.152  0.0888 -0.5704 -0.6931
  426MOL0     C58712   5.113   7.913   5.177 -0.4375 -0.3417  0.9007
  426MOL0     C58713   5.005   8.016   5.149 -0.9630  0.6323 -0.0832
  426MOL0     C58714   4.873   7.949   5.165 -0.3211 -0.4598 -0.0511
  426MOL0     C58715   4.771   7.887   5.181 -0.8504  0.2932  0.6550
  426MOL0     C58716   5.375   7.929   5.581 -0.1589 -0.4482  0.3559
  426MOL0     C58717   5.457   7.843   5.652 -0.2666 -0.7144 -0.4468
  426MOL0     C58718   5.406   7.822   5.791 -0.8023  0.8040  0.3680
  426MOL0     H58719   5.717   7.409   5.690 -1.6706  1.4834 -0.8215
  426MOL0     H58720   5.864   7.250   5.805  0.6679  0.0515  0.4305
  426MOL0     H58721   5.991   7.336   6.236 -0.0844 -2.1603 -0.1026
  426MOL0     H58722   6.144   7.396   6.160  1.1542 -1.3298  3.5281
  426MOL0     H58723   6.063   7.109   6.188  0.9692 -0.5600  2.2885
  426MOL0     H58724   6.211   7.157   6.110  1.5509 -1.4381  1.0650
  426MOL0     H58725   6.127   7.145   6.408  1.1487 -2.7073  1.4355
  426MOL0     H58726   6.275   7.086   6.324  1.7715  2.2445 -1.1152
  426MOL0     H58727   6.345   7.325   6.309 -1.3073  0.7296 -0.1368
  426MOL0     H58728   6.195   7.368   6.392 -1.1406 -1.5898 -1.3153
  426MOL0     H58729   6.419   7.205   6.527  0.8756  2.4551 -0.7194
  426MOL0     H58730   6.262   7.254   6.598  2.8141 -1.5827  3.2756
  426MOL0     H58731   6.489   7.440   6.508 -2.1480  2.9363 -1.9585
  426MOL0     H58732   6.326   7.495   6.561  0.3617  1.2450  0.7807
  426MOL0     H58733   6.520   7.341   6.731  3.3168  3.0074  0.4442
  426MOL0     H58734   6.343   7.378   6.765  0.4018  1.8024 -0.1056
  426MOL0     H58735   6.390   7.620   6.773 -0.6604 -1.1273 -0.1803
  426MOL0     H58736   6.488   7.535   6.885  2.2314  2.3171  0.8568
  426MOL0     H58737   6.744   7.442   6.736  0.1987 -0.5950  2.8420
  426MOL0     H58738   6.982   7.537   6.739 -1.4395 -1.4225 -2.4467
  426MOL0     H58739   6.994   7.704   6.802 -1.5463 -1.0432  0.0258
  426MOL0     H58740   7.019   7.795   6.575 -0.1912  1.0448  0.7134
  426MOL0     H58741   7.142   7.686   6.597  0.4015  0.6424 -1.5038
  426MOL0     H58742   6.985   7.494   6.496  0.7801 -0.0830  0.5631
  426MOL0     H58743   6.893   7.638   6.441  0.0969  1.0933  2.0078
  426MOL0     H58744   7.086   7.735   6.342  0.6308 -0.2588  1.1049
  426MOL0     H58745   7.184   7.584   6.388 -0.6649 -4.4513 -0.7737
  426MOL0     H58746   6.885   7.462   6.079  0.3078  0.0109  0.0721
  426MOL0     H58747   6.797   7.502   5.783 -0.1232  1.2300 -1.6711
  426MOL0     H58748   6.869   7.370   5.883 -1.0263 -0.1999 -0.7977
  426MOL0     H58749   6.951   7.424   5.733 -2.3818  2.8180 -2.8531
  426MOL0     H58750   7.237   7.566   5.469  1.8357 -2.4710 -3.0103
  426MOL0     H58751   7.374   7.620   5.261 -2.5199  1.5478 -2.8267
  426MOL0     H58752   7.567   7.968   5.054 -0.0801  0.3573 -0.0224
  426MOL0     H58753   7.423   8.027   5.128 -2.9983 -3.9680  0.8333
  426MOL0     H58754   7.662   8.129   5.168 -1.3035 -1.1425 -1.2192
  426MOL0     H58755   7.536   8.123   5.299 -2.2410 -3.6389  2.0589
  426MOL0     H58756   7.744   7.909   5.258 -0.8538 -1.0379  0.6795
  426MOL0     H58757   7.636   7.941   5.403 -0.6158 -0.4443 -0.6185
  426MOL0     H58758   7.867   8.097   5.292  1.7248 -0.4007  1.1070
  426MOL0     H58759   7.857   8.001   5.435  2.1444 -1.0292 -2.3182
  426MOL0     H58760   7.710   8.263   5.358 -0.9213 -0.3055  0.5673
  426MOL0     H58761   7.668   8.179   5.505  1.4017  0.7319  1.8926
  426MOL0     H58762   7.872   8.373   5.503 -2.6832  0.7447 -1.0687
  426MOL0     H58763   7.961   8.235   5.476 -2.1892  1.4652 -2.1117
  426MOL0     H58764   7.798   8.168   5.709 -0.0233  1.3277  2.4863
  426MOL0     H58765   7.801   8.329   5.730  1.2689  0.4425  0.5465
  426MOL0     H58766   8.040   8.359   5.720  0.1376 -0.5309  0.7843
  426MOL0     H58767   8.067   8.175   5.699  1.4419  0.6300 -2.2726
  426MOL0     H58768   7.365   8.032   5.385 -0.9553  0.2623  1.6806
  426MOL0     H58769   7.280   7.974   5.590  0.6230  0.8731 -1.4122
  426MOL0     H58770   7.248   7.740   5.891 -1.3545  0.2879 -1.3801
  426MOL0     H58771   7.204   7.724   6.146  0.0153  0.1915  0.1509
  426MOL0     H58772   5.915   7.537   6.129  4.8080  2.1652  0.1588
  426MOL0     H58773   5.785   7.693   6.005 -2.8812 -1.3986  2.0907
  426MOL0     H58774   5.646   7.769   5.375 -1.1361 -0.1443 -0.6173
  426MOL0     H58775   5.523   7.934   5.280  0.4904  0.7755  1.1486
  426MOL0     H58776   5.247   8.179   5.237  1.0504  0.5110 -0.3493
  426MOL0     H58777   5.410   8.097   5.217  1.4694 -2.8411  2.5679
  426MOL0     H58778   5.320   7.884   5.159  2.1898  0.8591 -0.5837
  426MOL0     H58779   5.251   8.015   5.051 -1.3113  1.6778  0.2540
  426MOL0     H58780   5.101   7.828   5.109  1.7914  1.4067 -1.9601
  426MOL0     H58781   5.112   7.878   5.280 -0.3205 -1.5123  0.5131
  426MOL0     H58782   5.022   8.058   5.050  3.2776 -0.0517  0.1736
  426MOL0     H58783   5.023   8.095   5.222  0.4495  0.2228  0.0386
  426MOL0     H58784   4.673   7.843   5.178 -1.1403  0.9709 -0.9982
  426MOL0     H58785   5.283   7.970   5.621 -1.2703  0.4730 -2.7886
  426MOL0     H58786   5.325   7.887   5.825  0.7513  0.9132  4.4648
  426MOL0     H58787   5.366   7.721   5.804  1.0621  0.3432  3.8838
  426MOL0     H58788   5.483   7.839   5.867 -1.6850 -1.8233  1.9952
  427MOL0     O58789   7.561   6.232   8.834 -0.5609  0.6846  0.4561
  427MOL0     C58790   7.635   6.326   8.840 -0.6500 -0.3571 -0.6300
  427MOL0     O58791   7.611   6.429   8.919 -0.0838  0.3304  0.0557
  427MOL0     C58792   7.497   6.436   8.997 -1.0214 -0.1914  0.0870
  427MOL0     C58793   7.461   6.568   9.033  0.1381 -0.1175  0.2107
  427MOL0     C58794   7.349   6.601   9.108  0.1274  0.5581 -0.1188
  427MOL0     C58795   7.277   6.498   9.167 -0.0160  0.2845 -0.3877
  427MOL0     O58796   7.180   6.523   9.253  0.5592  0.1246 -0.2125
  427MOL0     C58797   7.051   6.567   9.199  1.1620  0.1428 -0.1180
  427MOL0     C58798   6.958   6.593   9.319 -0.2259  0.8378 -0.1183
  427MOL0     C58799   7.010   6.688   9.422  0.5489 -0.3972  0.6608
  427MOL0     C58800   6.905   6.707   9.541 -0.6547 -0.2339  0.0038
  427MOL0     C58801   6.887   6.584   9.619 -0.1935  0.1185 -0.3043
  427MOL0     C58802   6.782   6.595   9.738  0.0673  0.3828  0.0270
  427MOL0     C58803   6.795   6.459   9.815  0.0822 -0.0667 -0.6235
  427MOL0     C58804   6.739   6.482   9.954  0.9188 -0.6297  0.5398
  427MOL0     N58805   6.591   6.505   9.944 -0.5374 -0.0040 -0.2023
  427MOL0     C58806   6.502   6.405   9.982 -0.3025 -0.5066  0.4534
  427MOL0     C58807   6.376   6.459   9.963 -0.2133 -0.3156 -0.5002
  427MOL0     C58808   6.241   6.406   9.983 -0.0687 -0.0357  0.0417
  427MOL0     C58809   6.130   6.451   9.884  0.0623 -0.7188  0.2200
  427MOL0     C58810   6.118   6.370   9.751  0.1819 -0.1804 -0.3238
  427MOL0     C58811   6.254   6.378   9.680 -0.7606 -0.3031 -0.2710
  427MOL0     O58812   6.232   6.339   9.546  1.1013 -0.2931 -0.1176
  427MOL0     C58813   6.334   6.324   9.451  0.2618  0.3892 -0.1679
  427MOL0     C58814   6.302   6.293   9.316 -0.6301  0.3526 -0.6981
  427MOL0     C58815   6.405   6.277   9.217  0.1340  0.8343 -0.5887
  427MOL0     C58816   6.377   6.255   9.077 -0.5825  0.1283  0.9168
  427MOL0     C58817   6.542   6.302   9.249 -0.5919 -0.2194 -0.1017
  427MOL0     C58818   6.664   6.276   9.171  1.2048 -0.0302  0.7267
  427MOL0     O58819   6.656   6.163   9.092 -0.6790 -0.1640  0.0106
  427MOL0     C58820   6.772   6.114   9.024  1.3485  0.9227 -0.4582
  427MOL0     C58821   6.906   6.122   9.069  0.4962 -0.3889 -0.1389
  427MOL0     C58822   7.012   6.084   8.977  0.7520 -0.3311  0.2123
  427MOL0     C58823   6.984   6.035   8.848 -0.1996 -0.0202 -0.1734
  427MOL0     O58824   7.084   6.006   8.769 -0.0541  0.2394  0.3240
  427MOL0     C58825   7.067   5.977   8.635 -0.1566  0.1193 -0.5252
  427MOL0     C58826   7.208   5.957   8.578  0.1480 -0.0714 -0.1963
  427MOL0     C58827   7.275   5.830   8.636 -0.2428 -0.3931  0.8713
  427MOL0     C58828   7.425   5.834   8.589  0.4543 -0.1456  0.2088
  427MOL0     C58829   7.495   5.708   8.638  0.1709 -0.8703 -0.0907
  427MOL0     C58830   7.651   5.722   8.617  0.2381  0.2640  0.6826
  427MOL0     C58831   7.728   5.587   8.634  1.1763  0.1230  0.8101
  427MOL0     C58832   7.669   5.448   8.582 -0.4551  0.1253  0.6020
  427MOL0    Cl58833   7.800   5.341   8.610  0.0099  0.1532 -0.2068
  427MOL0     C58834   6.850   6.019   8.807  0.8016 -0.0366  0.1480
  427MOL0     C58835   6.747   6.062   8.892 -0.3118  0.6809 -0.0813
  427MOL0     O58836   6.765   6.348   9.188  0.5179  0.8283 -0.2402
  427MOL0     C58837   6.561   6.344   9.384 -0.4021  0.1667  0.1891
  427MOL0     C58838   6.463   6.345   9.483  1.0486 -0.6723 -1.5003
  427MOL0     N58839   6.403   6.581   9.908 -0.8373  0.0405 -0.0111
  427MOL0     N58840   6.527   6.617   9.907  0.8332 -0.1063  0.1300
  427MOL0     C58841   7.313   6.366   9.139 -0.2983  0.3713 -0.7341
  427MOL0     C58842   7.420   6.334   9.058 -0.2538 -0.5928  1.2902
  427MOL0     C58843   7.772   6.327   8.770  0.3966  0.4559 -0.6634
  427MOL0     C58844   7.827   6.451   8.744 -0.4886 -0.2768  0.4908
  427MOL0     C58845   7.954   6.462   8.673  0.0010 -0.3148 -0.2845
  427MOL0     C58846   8.024   6.338   8.647 -0.4460 -0.3996  0.3467
  427MOL0     O58847   8.151   6.349   8.593 -0.4256  0.2939  0.0048
  427MOL0     C58848   8.227   6.238   8.553 -0.3429 -0.4450 -0.2830
  427MOL0     C58849   8.340   6.293   8.476 -0.0032 -0.3850 -0.3402
  427MOL0     C58850   8.426   6.178   8.410 -1.0456 -0.7764  0.5401
  427MOL0     C58851   8.573   6.222   8.409  1.1546  0.1642  0.3772
  427MOL0     C58852   8.636   6.190   8.536  0.3653  0.4789  0.4111
  427MOL0     C58853   8.678   6.172   8.643 -0.0570 -0.2913  0.1055
  427MOL0     C58854   7.972   6.218   8.682 -0.2722 -0.1973  0.5373
  427MOL0     C58855   7.841   6.204   8.740  0.8898  1.2084  0.1534
  427MOL0     C58856   7.788   6.067   8.784 -0.4108  0.2447  0.2888
  427MOL0     H58857   7.527   6.652   9.011  0.4289 -0.9692 -2.4231
  427MOL0     H58858   7.324   6.701   9.143  1.0551 -0.3137  3.4537
  427MOL0     H58859   7.005   6.491   9.135 -0.9043  1.3390 -0.1336
  427MOL0     H58860   7.073   6.659   9.144  0.1697  0.2240 -0.3881
  427MOL0     H58861   6.865   6.632   9.277 -1.1278  0.0730  1.1018
  427MOL0     H58862   6.944   6.494   9.362 -0.6321  0.9529  0.0166
  427MOL0     H58863   7.107   6.653   9.459  1.9487  2.7644  0.2307
  427MOL0     H58864   7.033   6.784   9.377  1.6771 -0.3739  1.2644
  427MOL0     H58865   6.947   6.779   9.612 -1.1605 -1.7450  1.9132
  427MOL0     H58866   6.809   6.750   9.511 -0.4067 -0.0010 -0.4765
  427MOL0     H58867   6.985   6.560   9.661  0.4156  0.8200 -1.2879
  427MOL0     H58868   6.857   6.503   9.552 -2.4684  2.4191 -2.2739
  427MOL0     H58869   6.800   6.674   9.811 -1.6540 -2.0306  3.3526
  427MOL0     H58870   6.677   6.605   9.706 -0.5285 -0.1640  1.7121
  427MOL0     H58871   6.899   6.439   9.840 -0.7233 -2.2390  1.2566
  427MOL0     H58872   6.736   6.387   9.758 -1.1263  0.4609 -0.0873
  427MOL0     H58873   6.748   6.392  10.017 -1.0130 -0.8955  0.4918
  427MOL0     H58874   6.782   6.568  10.006  2.9896  0.1913 -2.2829
  427MOL0     H58875   6.529   6.301   9.998  0.8266 -0.1585  0.8829
  427MOL0     H58876   6.203   6.437  10.081  1.7718 -1.2130  1.1856
  427MOL0     H58877   6.236   6.297   9.986 -1.8506 -0.1229 -2.7739
  427MOL0     H58878   6.034   6.434   9.935 -0.4771  0.9827 -0.1897
  427MOL0     H58879   6.141   6.557   9.862 -3.5351 -0.2384  0.1521
  427MOL0     H58880   6.079   6.269   9.761 -2.8188  0.5795 -2.8569
  427MOL0     H58881   6.049   6.425   9.686 -2.5064  0.3024  2.6723
  427MOL0     H58882   6.307   6.474   9.684 -0.3438 -0.4323 -1.9563
  427MOL0     H58883   6.321   6.307   9.731 -1.1468 -0.7951 -0.4442
  427MOL0     H58884   6.197   6.287   9.290  0.1955 -0.1324 -4.4911
  427MOL0     H58885   6.425   6.326   9.009 -0.3049 -1.4625 -0.6410
  427MOL0     H58886   6.272   6.249   9.048  0.0141 -0.7981 -1.2959
  427MOL0     H58887   6.424   6.161   9.045  0.3070  1.9147 -3.8328
  427MOL0     H58888   6.927   6.160   9.169 -1.7127 -0.2897  0.3256
  427MOL0     H58889   7.112   6.097   9.017  0.9533 -2.3625  0.4601
  427MOL0     H58890   7.027   5.875   8.625  3.3952 -1.3723 -0.9524
  427MOL0     H58891   7.030   6.062   8.577 -1.2328  1.1958  1.6235
  427MOL0     H58892   7.198   5.943   8.470 -2.8861  0.6193 -0.0942
  427MOL0     H58893   7.271   6.043   8.598  2.1950 -0.1561 -4.9819
  427MOL0     H58894   7.229   5.739   8.596  0.2518  1.2901 -4.3040
  427MOL0     H58895   7.264   5.837   8.744  0.6321  0.1207  0.9314
  427MOL0     H58896   7.474   5.923   8.630 -1.2066  0.9636 -0.0883
  427MOL0     H58897   7.434   5.852   8.481  5.0737 -2.3931 -0.0198
  427MOL0     H58898   7.464   5.677   8.738 -0.8150 -0.7758 -0.3586
  427MOL0     H58899   7.466   5.626   8.572  1.5516 -0.0318 -1.8272
  427MOL0     H58900   7.703   5.784   8.691  1.2477  2.1526 -1.5122
  427MOL0     H58901   7.671   5.745   8.512 -2.1986 -1.6535 -0.3021
  427MOL0     H58902   7.741   5.578   8.742 -1.4027  1.4507  1.3011
  427MOL0     H58903   7.826   5.605   8.590  0.6189 -4.1394 -3.0504
  427MOL0     H58904   7.644   5.458   8.476  1.0583 -0.2253  0.1872
  427MOL0     H58905   7.574   5.423   8.631 -0.6181 -0.3020  0.0702
  427MOL0     H58906   6.810   5.985   8.713  1.5620 -0.7250  0.0646
  427MOL0     H58907   6.643   6.069   8.860 -0.1481 -0.0317 -0.7906
  427MOL0     H58908   6.662   6.371   9.415 -1.2632  2.5884  1.0932
  427MOL0     H58909   6.497   6.361   9.585 -3.0275 -3.0446  0.5082
  427MOL0     H58910   7.255   6.289   9.189  1.5612 -0.2927  0.5072
  427MOL0     H58911   7.449   6.229   9.059  0.2620 -0.4900 -0.2835
  427MOL0     H58912   7.780   6.541   8.782 -0.8632 -1.1546  2.1967
  427MOL0     H58913   7.975   6.565   8.646 -1.2258 -0.3294 -1.4149
  427MOL0     H58914   8.252   6.175   8.639  0.7338 -2.1559 -1.7749
  427MOL0     H58915   8.178   6.173   8.480  0.0798 -0.9536 -0.1182
  427MOL0     H58916   8.393   6.365   8.540 -1.0439  1.1131 -1.1017
  427MOL0     H58917   8.297   6.349   8.392  0.9828  2.3533  0.8533
  427MOL0     H58918   8.415   6.078   8.453 -0.0338 -1.6164 -1.0329
  427MOL0     H58919   8.395   6.176   8.305 -0.1700  0.3340  0.2279
  427MOL0     H58920   8.580   6.329   8.388  2.1356 -0.2046 -1.4169
  427MOL0     H58921   8.624   6.167   8.329 -0.2589  0.6009 -0.8798
  427MOL0     H58922   8.693   6.163   8.749  1.2144 -1.6992 -0.1591
  427MOL0     H58923   8.033   6.128   8.678  1.0173  0.6485  0.5040
  427MOL0     H58924   7.772   6.058   8.892  2.5195 -3.1860  0.6182
  427MOL0     H58925   7.689   6.046   8.741  0.1896 -0.1620 -0.9202
  427MOL0     H58926   7.856   5.985   8.763 -0.5626  0.2556 -0.2604
  428MOL0     O58927   1.037   4.688   1.096  0.2982 -0.0348  0.2698
  428MOL0     C58928   1.139   4.716   1.152 -0.4940  0.2399 -0.0631
  428MOL0     O58929   1.162   4.724   1.288  0.1370 -0.0624 -0.2706
  428MOL0     C58930   1.064   4.685   1.385 -0.5182 -0.5111 -0.0562
  428MOL0     C58931   1.113   4.707   1.512  0.0631 -0.0839  0.2827
  428MOL0     C58932   1.035   4.681   1.624  0.5816 -0.3371 -0.2896
  428MOL0     C58933   0.908   4.618   1.615 -0.1214  0.2607  0.1555
  428MOL0     O58934   0.848   4.575   1.730  0.2318 -0.0820 -0.4188
  428MOL0     C58935   0.769   4.463   1.726  0.5449  0.2151  0.1411
  428MOL0     C58936   0.616   4.491   1.702  0.5040 -0.1313 -1.0099
  428MOL0     C58937   0.555   4.592   1.800  1.1237  0.3931  0.0727
  428MOL0     C58938   0.537   4.731   1.729 -0.3579  0.2859 -0.2284
  428MOL0     C58939   0.486   4.844   1.821 -0.0600  0.4942  0.2746
  428MOL0     C58940   0.572   4.878   1.941 -0.4620 -0.0604  0.6486
  428MOL0     C58941   0.687   4.969   1.893  0.8406 -1.2440  0.4101
  428MOL0     C58942   0.812   4.924   1.957  0.6555 -1.0765  0.3985
  428MOL0     N58943   0.928   4.993   1.906 -0.3971 -0.5262 -0.1865
  428MOL0     C58944   0.982   5.099   1.977 -0.1168 -0.3164  0.6039
  428MOL0     C58945   1.065   5.145   1.893  0.2487 -0.4599  0.7406
  428MOL0     C58946   1.146   5.274   1.901  0.4140  0.0259  0.3177
  428MOL0     C58947   1.136   5.376   1.781 -0.1581  0.6448  0.1583
  428MOL0     C58948   1.264   5.440   1.735  0.0660 -0.3987  0.1762
  428MOL0     C58949   1.338   5.499   1.861  0.3860 -0.2833  0.6938
  428MOL0     O58950   1.416   5.603   1.821 -0.9965 -0.8854 -0.1415
  428MOL0     C58951   1.546   5.572   1.781  0.0331  0.0833 -1.0697
  428MOL0     C58952   1.625   5.684   1.767  0.4335 -0.1872 -0.1826
  428MOL0     C58953   1.753   5.682   1.728  0.1590  0.4765 -1.0936
  428MOL0     C58954   1.824   5.816   1.720 -1.2449 -0.1796 -0.8058
  428MOL0     C58955   1.817   5.556   1.724 -0.6878  0.0799 -0.4166
  428MOL0     C58956   1.962   5.541   1.687  0.5654  0.3452 -0.7910
  428MOL0     O58957   1.972   5.489   1.562  0.3087 -0.3407 -0.1564
  428MOL0     C58958   2.099   5.482   1.516  0.1933  0.3299 -0.1372
  428MOL0     C58959   2.156   5.604   1.462  0.7029  0.8084 -0.2208
  428MOL0     C58960   2.291   5.605   1.420 -0.2695  1.3398 -0.2708
  428MOL0     C58961   2.361   5.480   1.407  0.8376  0.1255  0.2622
  428MOL0     O58962   2.483   5.484   1.353 -0.8704  0.8500  0.5867
  428MOL0     C58963   2.519   5.354   1.303  0.8322 -0.3297 -0.5081
  428MOL0     C58964   2.657   5.358   1.242 -0.6925 -0.3761  0.0243
  428MOL0     C58965   2.650   5.444   1.120 -0.6419 -0.5203 -0.2319
  428MOL0     C58966   2.787   5.455   1.050  0.2005  0.5286  0.1996
  428MOL0     C58967   2.778   5.470   0.901 -0.0512 -0.9934  0.9130
  428MOL0     C58968   2.698   5.596   0.855  0.6555 -0.0473 -0.0514
  428MOL0     C58969   2.718   5.645   0.708 -0.7565  1.2314 -1.1492
  428MOL0     C58970   2.638   5.562   0.607  0.1423 -0.1531 -0.3269
  428MOL0    Cl58971   2.454   5.569   0.634  0.0561  0.0606 -0.0355
  428MOL0     C58972   2.306   5.364   1.470  0.1792 -0.5024  0.1863
  428MOL0     C58973   2.178   5.368   1.521  0.2864 -0.5398  0.4011
  428MOL0     O58974   2.047   5.576   1.764  0.0363 -0.2767  0.2840
  428MOL0     C58975   1.738   5.444   1.743 -0.1394  0.1075 -0.2183
  428MOL0     C58976   1.606   5.448   1.761  0.8665 -0.1511 -0.5220
  428MOL0     N58977   1.078   5.063   1.785 -0.6384 -0.7811  0.3184
  428MOL0     N58978   0.992   4.974   1.787 -0.4568  0.2356 -0.1596
  428MOL0     C58979   0.860   4.595   1.482  0.9622  0.0831 -0.1534
  428MOL0     C58980   0.935   4.633   1.367  0.0400 -0.5140 -0.3310
  428MOL0     C58981   1.258   4.764   1.077 -0.8586  0.9862  0.6762
  428MOL0     C58982   1.373   4.807   1.145 -0.3022  0.0301  0.2126
  428MOL0     C58983   1.485   4.844   1.081 -0.2646 -0.9343 -0.1044
  428MOL0     C58984   1.492   4.850   0.941  0.1536 -0.2105  0.0634
  428MOL0     O58985   1.589   4.906   0.867  0.1820  0.1705 -0.0987
  428MOL0     C58986   1.707   4.825   0.846 -0.4730  1.1423 -1.3018
  428MOL0     C58987   1.821   4.907   0.800  0.7445  0.0355  0.1943
  428MOL0     C58988   1.883   5.005   0.897  0.0383 -0.4256 -0.1495
  428MOL0     C58989   1.969   4.945   1.009 -0.1107  0.5772 -0.7136
  428MOL0     C58990   2.083   4.875   0.956 -1.6014  0.1470  0.0321
  428MOL0     C58991   2.191   4.828   0.913 -0.0648 -0.1848 -0.4568
  428MOL0     C58992   1.377   4.807   0.869 -0.2764  0.2303  0.5189
  428MOL0     C58993   1.261   4.771   0.926 -0.0103  1.2379 -0.2969
  428MOL0     C58994   1.156   4.722   0.835 -0.4588  0.5449  0.1428
  428MOL0     H58995   1.217   4.736   1.520 -0.3411  1.8708 -0.7683
  428MOL0     H58996   1.077   4.675   1.724 -2.7068 -1.3378  1.1852
  428MOL0     H58997   0.780   4.414   1.823 -0.0129 -0.5676 -0.1807
  428MOL0     H58998   0.788   4.390   1.647 -3.2626 -1.4273  0.5104
  428MOL0     H58999   0.601   4.524   1.599 -0.8487 -1.1021 -1.1590
  428MOL0     H59000   0.560   4.397   1.704 -1.3383  0.8816 -2.1500
  428MOL0     H59001   0.465   4.546   1.844  1.8796 -2.3420 -1.0426
  428MOL0     H59002   0.615   4.589   1.892  2.3457 -1.2769 -0.7328
  428MOL0     H59003   0.636   4.763   1.695 -0.7457 -0.8498 -2.6520
  428MOL0     H59004   0.475   4.721   1.639 -1.3128  1.3950  0.2819
  428MOL0     H59005   0.391   4.801   1.856  0.1439 -0.2776 -0.0951
  428MOL0     H59006   0.462   4.933   1.762  3.0010  1.5356  0.4380
  428MOL0     H59007   0.515   4.931   2.018 -0.2455 -2.4197  2.5304
  428MOL0     H59008   0.599   4.783   1.988  0.8278 -0.0474 -0.0172
  428MOL0     H59009   0.666   5.073   1.920 -0.7041 -0.4601 -3.1678
  428MOL0     H59010   0.704   4.964   1.785 -0.5639 -1.7571  0.1951
  428MOL0     H59011   0.798   4.963   2.058 -3.6856  1.1484 -0.8447
  428MOL0     H59012   0.827   4.816   1.949  0.6741 -1.1206  0.9785
  428MOL0     H59013   0.950   5.139   2.072 -0.4737 -2.2203  1.3388
  428MOL0     H59014   1.250   5.248   1.922  0.1336 -2.5303 -1.1083
  428MOL0     H59015   1.108   5.340   1.980  1.5210  0.6373  0.3625
  428MOL0     H59016   1.093   5.317   1.700  0.3893  2.6317 -1.6678
  428MOL0     H59017   1.075   5.462   1.811  0.8468  1.9151 -1.2784
  428MOL0     H59018   1.325   5.371   1.676  3.5651  0.6400  2.2695
  428MOL0     H59019   1.233   5.523   1.670  1.0468  0.7642  1.1399
  428MOL0     H59020   1.269   5.539   1.935  0.3402 -0.3116  0.6663
  428MOL0     H59021   1.389   5.417   1.913 -0.8074 -1.0628  0.6707
  428MOL0     H59022   1.578   5.781   1.781  0.1780  0.4140 -4.0527
  428MOL0     H59023   1.805   5.880   1.633  3.2780 -2.0590 -3.4909
  428MOL0     H59024   1.932   5.799   1.721 -1.3573 -1.3945 -2.9709
  428MOL0     H59025   1.794   5.870   1.810 -1.0775  0.0728 -0.9010
  428MOL0     H59026   2.104   5.698   1.475  0.0624  0.4480 -0.1156
  428MOL0     H59027   2.321   5.703   1.386 -2.3241  2.4015  0.7311
  428MOL0     H59028   2.538   5.300   1.396  3.4371  0.6902 -0.3574
  428MOL0     H59029   2.439   5.306   1.245  1.2760 -1.0256 -0.5654
  428MOL0     H59030   2.725   5.417   1.304 -0.6882 -1.6023  1.2384
  428MOL0     H59031   2.706   5.262   1.227  0.5052  0.3822 -1.1922
  428MOL0     H59032   2.618   5.543   1.152 -2.4423 -1.7452  2.0864
  428MOL0     H59033   2.571   5.410   1.053  1.4105 -2.3765 -1.9070
  428MOL0     H59034   2.854   5.373   1.076  2.1136  1.7480 -0.6938
  428MOL0     H59035   2.836   5.545   1.086 -1.0125  1.5256 -0.5458
  428MOL0     H59036   2.880   5.480   0.863  0.1119  0.7359  1.7228
  428MOL0     H59037   2.746   5.374   0.860  2.4771 -1.0008 -1.3391
  428MOL0     H59038   2.738   5.672   0.923  2.3233 -1.7358  0.9660
  428MOL0     H59039   2.596   5.562   0.875  1.1751 -1.8190 -0.2843
  428MOL0     H59040   2.825   5.635   0.684 -0.4334 -1.0801  0.8469
  428MOL0     H59041   2.694   5.751   0.694  0.5559  1.6204 -0.6393
  428MOL0     H59042   2.674   5.459   0.612  0.6724  0.0600  0.3267
  428MOL0     H59043   2.665   5.593   0.506  2.8330  2.3301  1.0181
  428MOL0     H59044   2.366   5.277   1.493  0.9745  0.3440  1.4744
  428MOL0     H59045   2.128   5.286   1.572  0.6346 -0.3261  1.1042
  428MOL0     H59046   1.784   5.346   1.752  0.5791  0.5093  0.7347
  428MOL0     H59047   1.555   5.354   1.775  0.5604 -0.3572 -2.6733
  428MOL0     H59048   0.759   4.561   1.464  0.7864  1.6562 -2.6370
  428MOL0     H59049   0.899   4.624   1.265  0.5858 -1.4124 -0.4523
  428MOL0     H59050   1.378   4.795   1.253  0.4189  0.2775  0.2132
  428MOL0     H59051   1.576   4.875   1.132 -0.8493  4.1011 -1.6085
  428MOL0     H59052   1.724   4.790   0.948 -0.1673 -2.2211 -2.3709
  428MOL0     H59053   1.698   4.738   0.779 -1.6558 -0.3712  0.7140
  428MOL0     H59054   1.784   4.963   0.713  0.9298  1.0701  0.7619
  428MOL0     H59055   1.895   4.832   0.770  0.3845 -0.4109  0.4248
  428MOL0     H59056   1.949   5.077   0.848 -0.0167 -0.1008  0.2512
  428MOL0     H59057   1.802   5.066   0.937 -0.4143 -2.0120  1.5252
  428MOL0     H59058   1.898   4.881   1.063 -1.2316  3.6491  1.7930
  428MOL0     H59059   1.992   5.033   1.070 -3.4364  2.7204 -2.2592
  428MOL0     H59060   2.274   4.778   0.866 -1.5908 -1.1796 -2.2372
  428MOL0     H59061   1.393   4.791   0.763  3.6371 -5.2729  1.4963
  428MOL0     H59062   1.065   4.780   0.848 -0.5369  0.3577  0.4651
  428MOL0     H59063   1.178   4.743   0.730 -0.1178  3.1881  0.6818
  428MOL0     H59064   1.133   4.619   0.865 -0.3399  1.2115  2.7607
  429MOL0     O59065   1.974   4.785   9.578 -0.0411  0.1035 -0.3754
  429MOL0     C59066   1.941   4.670   9.610 -0.4295  0.3083 -0.7838
  429MOL0     O59067   1.964   4.554   9.539 -0.4567 -0.8551  0.2248
  429MOL0     C59068   2.062   4.564   9.434  0.5184  0.1479 -0.1383
  429MOL0     C59069   2.070   4.659   9.333  0.0553 -0.3079 -0.8638
  429MOL0     C59070   2.178   4.654   9.242  0.2640  0.3898 -0.2637
  429MOL0     C59071   2.264   4.555   9.241 -1.0213  0.9514 -0.6460
  429MOL0     O59072   2.365   4.548   9.147 -0.6270 -0.9294  0.2495
  429MOL0     C59073   2.493   4.482   9.178 -0.4900 -0.3613 -0.6701
  429MOL0     C59074   2.604   4.510   9.084  0.3707  0.1913  0.4809
  429MOL0     C59075   2.585   4.460   8.942  0.8300  0.3024 -0.2403
  429MOL0     C59076   2.699   4.494   8.840 -0.4851  0.2394 -0.1293
  429MOL0     C59077   2.814   4.397   8.854  0.0279 -0.3691  0.4296
  429MOL0     C59078   2.950   4.462   8.803 -0.8738  0.4745 -0.1804
  429MOL0     C59079   3.071   4.360   8.822  0.3303 -0.6951 -0.0829
  429MOL0     C59080   3.100   4.348   8.972  0.3781  0.5197 -0.3035
  429MOL0     N59081   3.195   4.240   8.989 -0.0710  0.4332 -0.6386
  429MOL0     C59082   3.153   4.108   8.990 -0.4494  0.3337 -0.5232
  429MOL0     C59083   3.264   4.033   9.027  0.6367  0.0615 -0.7065
  429MOL0     C59084   3.283   3.887   9.060 -0.3801  0.5359 -0.3977
  429MOL0     C59085   3.325   3.861   9.209 -0.0998  0.7195  0.1132
  429MOL0     C59086   3.470   3.912   9.239 -0.1760 -0.2994 -0.0159
  429MOL0     C59087   3.522   3.880   9.380 -0.4607  1.1940 -0.3080
  429MOL0     O59088   3.423   3.906   9.475  0.0200  0.1440 -0.3975
  429MOL0     C59089   3.448   3.915   9.606 -0.5471  0.6547 -0.7888
  429MOL0     C59090   3.351   3.980   9.681 -0.9323  0.6536 -0.1079
  429MOL0     C59091   3.374   4.016   9.814  0.2155 -0.9298  0.5591
  429MOL0     C59092   3.248   4.059   9.887  0.6507  0.1292  0.3105
  429MOL0     C59093   3.498   3.995   9.879 -0.4853  0.6549 -0.2579
  429MOL0     C59094   3.528   4.049  10.014 -0.6529 -0.8221  0.6473
  429MOL0     O59095   3.648   4.018  10.073  0.3501 -0.1624  0.0932
  429MOL0     C59096   3.686   4.071  10.192 -0.6350 -0.7054 -0.2110
  429MOL0     C59097   3.613   4.149  10.286 -0.5005 -0.3270  0.0489
  429MOL0     C59098   3.668   4.189  10.402  0.1679 -0.5549 -0.1758
  429MOL0     C59099   3.794   4.159  10.438 -1.0697  0.7362  0.1715
  429MOL0     O59100   3.858   4.178  10.559 -1.1160 -0.5399  0.2985
  429MOL0     C59101   3.840   4.308  10.628 -0.3122  0.2719 -0.4105
  429MOL0     C59102   3.921   4.424  10.561 -0.1766  0.2558 -0.3224
  429MOL0     C59103   4.069   4.407  10.574 -0.2029  0.4608  0.4515
  429MOL0     C59104   4.159   4.524  10.521 -0.8675 -0.2454 -0.0063
  429MOL0     C59105   4.303   4.479  10.545  0.1594  0.4037 -0.4167
  429MOL0     C59106   4.402   4.590  10.520 -0.6849  1.0139 -0.0107
  429MOL0     C59107   4.410   4.697  10.630 -0.5009  0.6771 -0.2824
  429MOL0     C59108   4.484   4.658  10.756 -0.1706  0.3520 -1.4073
  429MOL0    Cl59109   4.670   4.666  10.722  0.4074  0.1615 -0.2146
  429MOL0     C59110   3.872   4.081  10.353 -0.2423 -0.1590  0.4778
  429MOL0     C59111   3.816   4.033  10.228 -0.3330 -1.3113 -0.7804
  429MOL0     O59112   3.454   4.135  10.052 -0.2039 -0.4164 -0.4218
  429MOL0     C59113   3.597   3.930   9.797  0.1880  0.4475  0.9527
  429MOL0     C59114   3.569   3.889   9.665 -0.3271 -0.3101 -0.3611
  429MOL0     N59115   3.363   4.128   9.044  0.0481 -0.4558 -0.5100
  429MOL0     N59116   3.329   4.246   9.022 -0.4169  0.0297  0.9463
  429MOL0     C59117   2.253   4.441   9.331 -0.3602 -0.2624  0.1796
  429MOL0     C59118   2.149   4.455   9.425  0.0085 -0.3810 -0.1307
  429MOL0     C59119   1.868   4.655   9.733 -0.7479 -0.4817 -0.6235
  429MOL0     C59120   1.843   4.775   9.806  0.7106 -0.2869 -0.6555
  429MOL0     C59121   1.776   4.774   9.928  0.0835 -1.4849  0.0119
  429MOL0     C59122   1.743   4.661   9.994  0.6635 -0.6537  0.7707
  429MOL0     O59123   1.690   4.670  10.120  0.1797 -0.1649 -0.1336
  429MOL0     C59124   1.561   4.612  10.132 -0.0333 -0.0951 -0.1720
  429MOL0     C59125   1.457   4.711  10.182  0.3842  0.6577  0.0407
  429MOL0     C59126   1.317   4.650  10.197  0.1457  0.2481  0.0965
  429MOL0     C59127   1.240   4.646  10.059  0.7002 -0.4463 -0.8098
  429MOL0     C59128   1.231   4.787   9.994 -0.0901 -0.8757 -0.1738
  429MOL0     C59129   1.241   4.894   9.937 -0.7533 -1.0871 -0.4154
  429MOL0     C59130   1.771   4.541   9.932  0.7269 -0.3473 -0.3917
  429MOL0     C59131   1.826   4.538   9.797 -0.6647 -0.7985  0.0522
  429MOL0     C59132   1.845   4.406   9.734 -0.1199 -0.8107 -0.1648
  429MOL0     H59133   2.004   4.745   9.340  2.3105  1.3584  2.3295
  429MOL0     H59134   2.170   4.732   9.167 -1.6914  2.1571  1.6263
  429MOL0     H59135   2.485   4.374   9.196 -1.9008  0.2433  3.6368
  429MOL0     H59136   2.522   4.523   9.275  0.1185 -1.5509 -0.3248
  429MOL0     H59137   2.627   4.617   9.083  3.7581 -0.4395 -1.7547
  429MOL0     H59138   2.697   4.469   9.124  2.2233  2.4953 -1.1749
  429MOL0     H59139   2.558   4.357   8.920 -1.1104  0.8737 -0.7099
  429MOL0     H59140   2.500   4.513   8.898  0.5670  1.0705  1.1281
  429MOL0     H59141   2.668   4.487   8.735  1.7659  1.2794 -0.9308
  429MOL0     H59142   2.730   4.598   8.853  3.1260 -0.6929 -0.3088
  429MOL0     H59143   2.787   4.311   8.792  3.3278 -0.8253 -0.5846
  429MOL0     H59144   2.813   4.369   8.960 -2.4230  3.3015  1.5736
  429MOL0     H59145   2.957   4.490   8.698 -1.2221 -0.2298 -0.4019
  429MOL0     H59146   2.979   4.550   8.861 -1.2445  1.5905 -1.6376
  429MOL0     H59147   3.162   4.403   8.781 -0.3892  2.0331  0.9361
  429MOL0     H59148   3.040   4.269   8.770  1.4080 -1.6783  0.9275
  429MOL0     H59149   3.151   4.434   9.016  0.1489  0.8690 -0.7205
  429MOL0     H59150   3.014   4.334   9.039  0.3829 -0.8700 -0.5448
  429MOL0     H59151   3.047   4.084   8.983 -0.2587 -0.1432 -2.2400
  429MOL0     H59152   3.349   3.845   8.984 -0.4034  0.9283 -0.6374
  429MOL0     H59153   3.185   3.840   9.048 -0.4232  0.7011 -0.7174
  429MOL0     H59154   3.259   3.917   9.276  0.8054  2.0883 -0.0803
  429MOL0     H59155   3.318   3.753   9.221 -0.6538  0.4096 -2.3582
  429MOL0     H59156   3.551   3.885   9.170  1.8749 -0.2615  2.2292
  429MOL0     H59157   3.474   4.021   9.240 -1.2520 -0.2505 -0.1119
  429MOL0     H59158   3.554   3.775   9.382 -3.3494  0.1578  3.8693
  429MOL0     H59159   3.612   3.937   9.405  1.1122 -1.7776  1.3786
  429MOL0     H59160   3.256   4.009   9.637 -1.4309 -0.4641  0.2202
  429MOL0     H59161   3.237   4.167   9.873  2.9025  0.1164 -2.3130
  429MOL0     H59162   3.248   4.030   9.993 -0.3008 -4.0722 -0.6715
  429MOL0     H59163   3.165   4.003   9.843  2.2734 -0.4174 -2.2146
  429MOL0     H59164   3.520   4.201  10.266 -0.1482  1.3741  2.4030
  429MOL0     H59165   3.612   4.260  10.461 -0.3598 -0.6721 -0.5322
  429MOL0     H59166   3.732   4.328  10.633 -0.5345 -1.1434  2.5229
  429MOL0     H59167   3.867   4.289  10.732 -2.8647 -0.9685  0.1081
  429MOL0     H59168   3.895   4.436  10.455  2.0688 -0.0154 -0.9450
  429MOL0     H59169   3.897   4.516  10.615  2.6220  0.6582  0.3860
  429MOL0     H59170   4.090   4.311  10.526 -1.8842 -0.4417  1.3851
  429MOL0     H59171   4.094   4.395  10.680  2.6914  1.7404 -0.0076
  429MOL0     H59172   4.132   4.604  10.590 -1.3960 -0.6182  0.2322
  429MOL0     H59173   4.142   4.557  10.418 -1.7280  3.9782  1.3012
  429MOL0     H59174   4.314   4.443  10.647  2.9812 -1.1753 -1.1551
  429MOL0     H59175   4.320   4.388  10.486  1.9442 -0.4708  1.3268
  429MOL0     H59176   4.381   4.622  10.418 -0.2327  0.1411 -0.3935
  429MOL0     H59177   4.503   4.548  10.511 -1.9304 -2.1940 -0.5812
  429MOL0     H59178   4.305   4.722  10.649 -0.2375  3.6886 -2.2095
  429MOL0     H59179   4.450   4.784  10.578 -2.1955  0.2740 -2.4081
  429MOL0     H59180   4.454   4.562  10.798 -0.3059  0.8612 -0.3263
  429MOL0     H59181   4.463   4.734  10.831 -1.3374  3.8779 -4.9580
  429MOL0     H59182   3.977   4.070  10.379  0.6232  1.9390 -1.7637
  429MOL0     H59183   3.868   3.961  10.166 -3.0430 -3.2909 -0.9478
  429MOL0     H59184   3.697   3.913   9.837  1.8514 -1.3396 -3.3709
  429MOL0     H59185   3.660   3.851   9.619 -0.8352  0.3691 -1.9720
  429MOL0     H59186   2.317   4.354   9.318 -2.3369 -2.0425  1.7012
  429MOL0     H59187   2.139   4.380   9.504 -3.4249  1.8120  1.7868
  429MOL0     H59188   1.888   4.867   9.770 -0.7535  0.6495 -0.1708
  429MOL0     H59189   1.759   4.869   9.978 -0.1062 -1.5157  0.0060
  429MOL0     H59190   1.527   4.570  10.037 -1.6081 -3.6991  1.7414
  429MOL0     H59191   1.573   4.518  10.188  0.6119 -1.3234 -2.2714
  429MOL0     H59192   1.443   4.800  10.120 -3.3076 -1.1402 -2.1003
  429MOL0     H59193   1.487   4.743  10.283 -2.9259  1.8524  0.7792
  429MOL0     H59194   1.331   4.554  10.249  3.4542  1.0719  0.9832
  429MOL0     H59195   1.258   4.711  10.267  2.6707  1.7153  1.1076
  429MOL0     H59196   1.138   4.609  10.071  1.2783 -1.4975  1.5872
  429MOL0     H59197   1.299   4.570  10.007 -0.1659 -1.5001 -0.2948
  429MOL0     H59198   1.240   4.992   9.894 -0.2910 -1.5544 -1.5495
  429MOL0     H59199   1.748   4.454   9.993 -1.5626 -0.4924 -1.3837
  429MOL0     H59200   1.807   4.405   9.631 -0.4797 -0.3275 -0.0402
  429MOL0     H59201   1.954   4.392   9.736  0.1687  1.0730 -0.5092
  429MOL0     H59202   1.795   4.325   9.786 -0.7299 -0.6492 -0.4890
  430MOL0     O59203   3.477   9.210   7.253  0.5480 -0.5004  0.8130
  430MOL0     C59204   3.426   9.114   7.309  0.2923  0.0158  0.6453
  430MOL0     O59205   3.455   9.070   7.428  0.2320 -0.2102 -0.3489
  430MOL0     C59206   3.584   9.073   7.478  0.0007  0.2251 -0.2809
  430MOL0     C59207   3.598   9.103   7.611 -0.6083  0.5930  1.5073
  430MOL0     C59208   3.727   9.138   7.664 -0.1204  0.1268  0.1702
  430MOL0     C59209   3.842   9.103   7.588 -0.0222 -0.1539  0.4918
  430MOL0     O59210   3.970   9.117   7.631  0.5300 -0.8979  0.0629
  430MOL0     C59211   3.999   9.248   7.686  0.0713 -0.9576 -0.0541
  430MOL0     C59212   4.142   9.298   7.667 -0.2272  0.1450  0.2535
  430MOL0     C59213   4.240   9.179   7.673 -0.7165 -0.3935  1.5598
  430MOL0     C59214   4.382   9.229   7.660  0.0161 -0.0957  0.3290
  430MOL0     C59215   4.477   9.107   7.676  0.5957  0.2788  1.0980
  430MOL0     C59216   4.618   9.151   7.660  0.5934 -0.8585  0.2815
  430MOL0     C59217   4.720   9.045   7.681  0.4740  0.3630 -0.3617
  430MOL0     C59218   4.731   9.007   7.832 -0.1601 -1.1823  0.6681
  430MOL0     N59219   4.857   8.945   7.861 -0.9127 -0.7785 -0.6871
  430MOL0     C59220   4.954   9.018   7.929  0.7676 -0.4087 -0.4591
  430MOL0     C59221   5.049   8.927   7.967  0.2153  1.0868 -0.3386
  430MOL0     C59222   5.192   8.955   8.032  0.4788 -0.0637  0.4157
  430MOL0     C59223   5.274   9.049   7.942  0.0366  0.1426 -1.4319
  430MOL0     C59224   5.413   9.083   8.002  0.2248  0.3431 -0.1659
  430MOL0     C59225   5.498   9.164   7.908 -0.1231 -0.1081  0.2213
  430MOL0     O59226   5.628   9.157   7.965  0.3888  0.4150 -0.2568
  430MOL0     C59227   5.732   9.191   7.885 -0.2732 -0.5601  0.3811
  430MOL0     C59228   5.865   9.138   7.910 -0.4616 -0.5672  0.4031
  430MOL0     C59229   5.971   9.177   7.827  0.2733 -0.6213 -0.2816
  430MOL0     C59230   6.097   9.142   7.884 -0.1924  0.4944 -1.0028
  430MOL0     C59231   5.954   9.267   7.720 -0.3387  0.2330  0.7190
  430MOL0     C59232   6.061   9.317   7.637 -0.0406 -0.5954  0.0946
  430MOL0     O59233   6.164   9.232   7.609  0.3728  0.6091  0.1579
  430MOL0     C59234   6.267   9.287   7.538 -0.2314  0.0657  0.2990
  430MOL0     C59235   6.284   9.250   7.401  0.6862 -0.5572 -0.4375
  430MOL0     C59236   6.392   9.301   7.335 -0.4838 -0.0513 -0.2293
  430MOL0     C59237   6.499   9.368   7.393 -0.7906 -0.6387  0.0180
  430MOL0     O59238   6.617   9.399   7.321  0.0047  0.1353 -0.1307
  430MOL0     C59239   6.744   9.381   7.406 -0.1413 -0.7891  0.1320
  430MOL0     C59240   6.879   9.391   7.330  0.2834 -0.3885 -1.5615
  430MOL0     C59241   6.880   9.309   7.204 -0.3010 -0.0074 -0.6406
  430MOL0     C59242   6.960   9.367   7.098  0.6489 -0.3240  0.5724
  430MOL0     C59243   6.961   9.269   6.979  0.2551 -0.5941 -0.5326
  430MOL0     C59244   7.053   9.319   6.864 -0.3065  1.2159 -0.1768
  430MOL0     C59245   7.050   9.228   6.740  0.3274  0.3964 -0.2641
  430MOL0     C59246   7.149   9.110   6.759 -0.1310  0.1279 -0.2513
  430MOL0    Cl59247   7.156   9.018   6.610  0.0667 -0.0386 -0.6466
  430MOL0     C59248   6.481   9.399   7.529  1.0062  0.4277 -0.2998
  430MOL0     C59249   6.364   9.367   7.603  0.3978 -0.2914  0.6804
  430MOL0     O59250   6.051   9.436   7.604  0.2112 -0.3648  0.5998
  430MOL0     C59251   5.828   9.308   7.691  0.1094  1.4387  0.0339
  430MOL0     C59252   5.716   9.272   7.764 -0.0609  0.2965  0.5951
  430MOL0     N59253   4.992   8.799   7.940 -0.1364 -0.7416 -0.2034
  430MOL0     N59254   4.887   8.811   7.872  1.0765  0.2406  0.0397
  430MOL0     C59255   3.831   9.041   7.461  0.7554  0.0854  0.4542
  430MOL0     C59256   3.704   9.035   7.398  0.5660 -0.8993  0.2784
  430MOL0     C59257   3.325   9.034   7.229  0.2062  0.4160 -0.1682
  430MOL0     C59258   3.317   9.056   7.090  0.3641  0.3987  0.5639
  430MOL0     C59259   3.246   8.974   7.001 -0.4943 -0.5060 -0.5697
  430MOL0     C59260   3.155   8.883   7.053 -0.7992 -0.0041  0.2949
  430MOL0     O59261   3.075   8.800   6.980 -0.1805 -0.1129  0.6681
  430MOL0     C59262   3.048   8.867   6.856 -0.2373 -0.3312 -0.5374
  430MOL0     C59263   2.915   8.802   6.816  0.1760  0.0555  0.0841
  430MOL0     C59264   2.863   8.851   6.684 -0.0556 -0.7726  0.1440
  430MOL0     C59265   2.727   8.790   6.653 -0.3086  0.1026 -0.5619
  430MOL0     C59266   2.655   8.870   6.556 -0.1767 -0.0857 -0.5302
  430MOL0     C59267   2.604   8.939   6.474  0.6641  0.5635  0.0202
  430MOL0     C59268   3.154   8.866   7.187 -0.0514 -0.5184 -0.1034
  430MOL0     C59269   3.233   8.938   7.275  0.2805  0.0821  1.1118
  430MOL0     C59270   3.226   8.903   7.426  0.7309  0.2892  0.1930
  430MOL0     H59271   3.512   9.127   7.672 -0.4851 -0.1791  1.9945
  430MOL0     H59272   3.735   9.193   7.757  0.4234  1.5854 -0.6994
  430MOL0     H59273   3.983   9.238   7.794  0.1774  0.0909  0.0716
  430MOL0     H59274   3.932   9.323   7.642  0.1747 -1.0357 -0.3440
  430MOL0     H59275   4.147   9.348   7.570  0.6081  0.0944  0.2597
  430MOL0     H59276   4.192   9.365   7.738  3.4633 -1.0127 -1.0441
  430MOL0     H59277   4.229   9.118   7.763 -0.1955 -0.8605  1.3142
  430MOL0     H59278   4.224   9.113   7.588  0.8501 -0.7345  1.4987
  430MOL0     H59279   4.416   9.267   7.563  2.1289 -1.1722  0.5850
  430MOL0     H59280   4.395   9.310   7.731 -0.6804 -1.2429  1.8101
  430MOL0     H59281   4.458   9.039   7.593  0.5928  1.8539 -0.2553
  430MOL0     H59282   4.465   9.055   7.771 -0.1370 -2.6586 -0.4872
  430MOL0     H59283   4.629   9.175   7.554  0.1705 -1.6231  0.0620
  430MOL0     H59284   4.642   9.235   7.726  0.5894 -0.5018 -0.1590
  430MOL0     H59285   4.809   9.095   7.644 -0.1106  0.6279 -1.4545
  430MOL0     H59286   4.702   8.954   7.624  0.1674 -0.4804  1.0298
  430MOL0     H59287   4.705   9.093   7.894 -3.4129  0.2954 -2.3693
  430MOL0     H59288   4.649   8.935   7.844 -0.9992 -0.6347 -1.4258
  430MOL0     H59289   4.968   9.125   7.929 -0.7230 -0.0206  3.7230
  430MOL0     H59290   5.232   8.855   8.053 -3.1934 -1.8557 -0.2985
  430MOL0     H59291   5.175   9.006   8.127 -1.0584  1.3506 -0.5767
  430MOL0     H59292   5.298   9.008   7.843  0.7229  0.4616 -1.4045
  430MOL0     H59293   5.226   9.146   7.930  0.2049  1.0777  3.3821
  430MOL0     H59294   5.409   9.138   8.096 -3.5017 -0.4469  0.3151
  430MOL0     H59295   5.462   8.987   8.020  1.1464  0.2660 -2.6074
  430MOL0     H59296   5.491   9.123   7.807 -2.1878 -1.1506  0.7252
  430MOL0     H59297   5.456   9.265   7.899  1.2162  0.4449  0.0068
  430MOL0     H59298   5.874   9.071   7.994  1.1736 -1.3371 -0.3484
  430MOL0     H59299   6.138   9.042   7.864 -1.0654 -1.9013  6.1622
  430MOL0     H59300   6.104   9.154   7.993  0.1087 -1.3209 -0.7943
  430MOL0     H59301   6.172   9.215   7.853  0.0122  0.8260  0.2111
  430MOL0     H59302   6.217   9.176   7.359 -0.9690  0.3912  0.4186
  430MOL0     H59303   6.398   9.271   7.231  0.2553  0.9937 -0.4978
  430MOL0     H59304   6.739   9.448   7.492  0.1758  1.7404 -1.6853
  430MOL0     H59305   6.736   9.275   7.432  0.1487 -1.4404 -2.1431
  430MOL0     H59306   6.896   9.497   7.309 -0.9090 -0.0081 -0.7006
  430MOL0     H59307   6.959   9.353   7.393  0.8227  0.7566 -1.5329
  430MOL0     H59308   6.778   9.287   7.170 -0.8652 -3.2731  2.4926
  430MOL0     H59309   6.904   9.208   7.241 -1.4107  0.7203  2.4180
  430MOL0     H59310   7.061   9.392   7.131 -0.0758  1.8700  1.2936
  430MOL0     H59311   6.901   9.449   7.058 -0.3742 -2.2605 -2.1853
  430MOL0     H59312   7.002   9.173   7.015  1.6365 -0.0584 -0.6271
  430MOL0     H59313   6.860   9.268   6.938  0.2316 -0.6747 -0.4730
  430MOL0     H59314   7.154   9.320   6.906  0.1494 -4.0613 -0.4799
  430MOL0     H59315   7.016   9.419   6.838 -2.3394  0.8540  1.1018
  430MOL0     H59316   7.078   9.291   6.655 -2.2459  3.1997  0.7920
  430MOL0     H59317   6.956   9.177   6.717  0.5833  0.4457 -1.5083
  430MOL0     H59318   7.114   9.047   6.841 -0.0187 -1.2982 -1.2620
  430MOL0     H59319   7.248   9.150   6.785 -0.2852 -0.7967  1.8677
  430MOL0     H59320   6.553   9.455   7.588 -0.1480  1.9132 -0.2460
  430MOL0     H59321   6.356   9.380   7.711  3.0383 -0.1494  0.9213
  430MOL0     H59322   5.808   9.370   7.604  0.5801 -1.0968 -2.0171
  430MOL0     H59323   5.622   9.310   7.726  0.0927 -0.5898 -0.7280
  430MOL0     H59324   3.919   9.013   7.405 -0.6559 -2.0811 -0.8011
  430MOL0     H59325   3.690   9.007   7.294 -0.3009 -2.6941  0.8483
  430MOL0     H59326   3.388   9.130   7.053  0.8388  0.2056  1.0693
  430MOL0     H59327   3.269   8.990   6.895  3.2335 -3.7152 -0.4765
  430MOL0     H59328   3.032   8.975   6.856  0.6540 -0.1848 -1.0696
  430MOL0     H59329   3.130   8.849   6.786  1.8511  0.8997  1.4563
  430MOL0     H59330   2.852   8.804   6.905  0.8962 -4.5731  0.9585
  430MOL0     H59331   2.928   8.696   6.789 -3.5155 -0.0423 -1.9589
  430MOL0     H59332   2.852   8.960   6.689  0.5420 -0.5932 -1.8076
  430MOL0     H59333   2.933   8.824   6.604 -2.6174 -0.6366 -2.2968
  430MOL0     H59334   2.664   8.780   6.742  1.4691 -0.5878  0.6799
  430MOL0     H59335   2.746   8.692   6.608  1.4926  0.1118  0.0940
  430MOL0     H59336   2.561   8.994   6.392 -1.4414  0.0668  0.7462
  430MOL0     H59337   3.098   8.789   7.240 -2.4061 -0.2494 -2.0048
  430MOL0     H59338   3.122   8.875   7.446  1.3035 -1.3158  1.1472
  430MOL0     H59339   3.278   8.810   7.452 -0.2057 -0.3324 -0.0986
  430MOL0     H59340   3.247   8.987   7.492  0.6640 -0.9415  1.8609
  431MOL0     O59341   5.015  10.191   3.843  0.2230 -0.1040 -0.2051
  431MOL0     C59342   4.922  10.217   3.759  0.2952 -0.2544 -0.1122
  431MOL0     O59343   4.940  10.304   3.647  0.2179  0.1493 -0.3354
  431MOL0     C59344   5.058  10.365   3.642 -0.1872  0.9724 -0.7553
  431MOL0     C59345   5.103  10.454   3.740 -0.4033  0.1875 -0.1907
  431MOL0     C59346   5.228  10.509   3.725  0.3705 -0.2100 -0.0971
  431MOL0     C59347   5.320  10.475   3.619 -0.1503  0.9175 -0.3966
  431MOL0     O59348   5.454  10.518   3.605 -0.5992 -0.3472  0.2123
  431MOL0     C59349   5.501  10.607   3.716  0.4431  0.0290  0.8820
  431MOL0     C59350   5.639  10.660   3.688 -0.1405  0.5587  0.3283
  431MOL0     C59351   5.747  10.547   3.689  0.0171  0.1867 -0.1787
  431MOL0     C59352   5.896  10.598   3.648  0.2882  0.0115 -0.4109
  431MOL0     C59353   6.013  10.488   3.643 -0.6983  1.2558 -0.2360
  431MOL0     C59354   6.049  10.431   3.784  0.3787  0.3115 -0.0016
  431MOL0     C59355   6.160  10.322   3.788  0.7411  0.2960 -0.3840
  431MOL0     C59356   6.296  10.364   3.723  0.3804  0.4385 -0.1956
  431MOL0     N59357   6.353  10.487   3.782  0.3758  0.3021 -0.4830
  431MOL0     C59358   6.446  10.493   3.876 -0.1310 -0.6598  0.6740
  431MOL0     C59359   6.457  10.626   3.908 -0.5870  0.1014 -1.0726
  431MOL0     C59360   6.560  10.691   4.001  0.3726 -0.6328 -0.7524
  431MOL0     C59361   6.604  10.831   3.960 -0.4276 -0.3660 -0.8708
  431MOL0     C59362   6.713  10.875   4.059 -0.4384 -0.1866 -0.0512
  431MOL0     C59363   6.760  11.016   4.033 -0.8415  0.0625 -0.1600
  431MOL0     O59364   6.857  11.040   4.135  0.1440 -0.5704  0.0530
  431MOL0     C59365   6.947  11.147   4.122 -0.4292 -0.0840  0.4007
  431MOL0     C59366   6.932  11.255   4.034  0.1899  0.2472 -0.0441
  431MOL0     C59367   7.031  11.361   4.022 -0.1697  0.8918 -0.4080
  431MOL0     C59368   7.000  11.479   3.929 -0.7445 -0.0422 -0.4061
  431MOL0     C59369   7.151  11.359   4.114  0.9845  0.3692  0.6564
  431MOL0     C59370   7.249  11.466   4.115 -0.6140 -0.5080 -0.3612
  431MOL0     O59371   7.339  11.460   4.212 -0.6502 -0.6748  0.4612
  431MOL0     C59372   7.459  11.535   4.209 -0.3614  0.2652  0.0275
  431MOL0     C59373   7.483  11.657   4.148 -0.0280 -0.2521  0.2565
  431MOL0     C59374   7.605  11.721   4.158 -1.0937  0.3887 -0.4790
  431MOL0     C59375   7.702  11.672   4.250  0.1667  0.2147 -0.9349
  431MOL0     O59376   7.824  11.738   4.277  0.1108 -0.0903  0.6367
  431MOL0     C59377   7.855  11.850   4.190 -0.3256  0.5489  0.4658
  431MOL0     C59378   7.982  11.914   4.259  0.3263  0.3745  0.0128
  431MOL0     C59379   8.107  11.825   4.220 -0.1664  0.4771 -0.2350
  431MOL0     C59380   8.237  11.866   4.285  0.2709 -0.5351  0.1521
  431MOL0     C59381   8.348  11.757   4.263 -0.0502  0.5444 -0.4332
  431MOL0     C59382   8.480  11.808   4.322 -0.0581 -0.1965  0.0140
  431MOL0     C59383   8.567  11.679   4.330  0.6436  1.3708  0.0413
  431MOL0     C59384   8.721  11.702   4.364  0.5164  0.6043 -0.1124
  431MOL0    Cl59385   8.809  11.543   4.364  0.6506  0.0745  0.2883
  431MOL0     C59386   7.674  11.555   4.318 -0.8050  0.1944 -0.8189
  431MOL0     C59387   7.559  11.488   4.293 -0.3410  0.5670  0.0943
  431MOL0     O59388   7.256  11.550   4.025  0.4530  0.8497 -0.3775
  431MOL0     C59389   7.161  11.248   4.203 -1.1306  1.0011  0.3724
  431MOL0     C59390   7.069  11.145   4.199  0.3073 -0.1561  0.3271
  431MOL0     N59391   6.358  10.695   3.842 -0.4869  0.2406 -0.0928
  431MOL0     N59392   6.305  10.614   3.760  0.8218 -0.4650 -0.0198
  431MOL0     C59393   5.275  10.383   3.529  0.1425  1.2097  0.1575
  431MOL0     C59394   5.143  10.333   3.534 -0.2457 -0.4630  0.4423
  431MOL0     C59395   4.796  10.149   3.793 -0.3364 -0.0256  0.2789
  431MOL0     C59396   4.681  10.179   3.712  0.1700 -0.0045 -0.5280
  431MOL0     C59397   4.553  10.134   3.740  0.6509  0.0938 -0.2112
  431MOL0     C59398   4.530  10.076   3.860  0.8173  0.1161  0.6110
  431MOL0     O59399   4.401  10.054   3.887 -0.1508  0.2406  0.0497
  431MOL0     C59400   4.324  10.175   3.920 -0.6078 -0.9234  0.1989
  431MOL0     C59401   4.249  10.155   4.051 -0.4385 -0.4480  0.0047
  431MOL0     C59402   4.117  10.070   4.031 -0.0956 -0.5059 -0.1720
  431MOL0     C59403   4.064  10.002   4.156  0.3335 -0.3081  0.3354
  431MOL0     C59404   3.939   9.928   4.128 -0.1975 -0.9688  0.3103
  431MOL0     C59405   3.833   9.880   4.082 -0.1218 -0.7865 -0.2081
  431MOL0     C59406   4.633  10.044   3.942 -0.5780 -0.0160  0.1633
  431MOL0     C59407   4.765  10.070   3.911 -0.4103  0.7725  0.4930
  431MOL0     C59408   4.860  10.010   4.020 -0.2819  0.4995  0.4105
  431MOL0     H59409   5.032  10.476   3.819 -2.5882 -0.8301 -1.7500
  431MOL0     H59410   5.247  10.576   3.808 -2.1860 -1.5690  1.7475
  431MOL0     H59411   5.507  10.550   3.810 -1.2123 -0.9790  0.4097
  431MOL0     H59412   5.427  10.687   3.724  0.3118 -0.1972  2.1355
  431MOL0     H59413   5.645  10.708   3.590  0.3785 -1.1974 -0.5424
  431MOL0     H59414   5.659  10.732   3.769 -1.1737  0.5703  0.5909
  431MOL0     H59415   5.764  10.500   3.786 -0.5069 -2.4578 -1.2737
  431MOL0     H59416   5.717  10.465   3.622  1.1503 -2.5870  2.4322
  431MOL0     H59417   5.873  10.656   3.558  0.3964 -0.1745 -0.5589
  431MOL0     H59418   5.938  10.673   3.715 -0.8118 -0.4080  0.7818
  431MOL0     H59419   6.103  10.521   3.591  2.5344 -3.0582  1.9137
  431MOL0     H59420   5.969  10.403   3.589  0.1598  1.2905 -1.0002
  431MOL0     H59421   6.078  10.522   3.836  0.8883  0.7671 -1.0610
  431MOL0     H59422   5.958  10.386   3.824  0.4592 -1.9496 -2.0996
  431MOL0     H59423   6.133  10.229   3.737  1.8023  0.1121 -0.6303
  431MOL0     H59424   6.179  10.292   3.892  0.3013 -0.2100 -0.4413
  431MOL0     H59425   6.371  10.283   3.723 -1.0252 -0.9142 -0.3021
  431MOL0     H59426   6.276  10.383   3.617 -0.8565 -0.5948 -0.1656
  431MOL0     H59427   6.508  10.407   3.898  0.9057 -0.3103 -0.7368
  431MOL0     H59428   6.647  10.625   4.011 -0.6155 -1.7140  1.4176
  431MOL0     H59429   6.515  10.686   4.101  0.9157 -0.2677 -0.4810
  431MOL0     H59430   6.642  10.835   3.858 -0.9265  2.3287 -1.0253
  431MOL0     H59431   6.520  10.900   3.977  2.1437  2.6514  0.6309
  431MOL0     H59432   6.676  10.868   4.162  2.1582  0.8480  1.0227
  431MOL0     H59433   6.799  10.812   4.037 -1.1741 -0.1809 -3.4595
  431MOL0     H59434   6.818  11.020   3.940  0.2330 -0.7361  0.4512
  431MOL0     H59435   6.679  11.088   4.022 -0.7255  0.0583 -1.1687
  431MOL0     H59436   6.839  11.263   3.979 -0.3926 -0.0749  0.8744
  431MOL0     H59437   6.903  11.459   3.884  0.7308 -3.9682 -2.2202
  431MOL0     H59438   7.076  11.499   3.853  2.2769 -1.5844  1.9654
  431MOL0     H59439   6.990  11.575   3.981 -0.9955  0.9209 -2.1511
  431MOL0     H59440   7.404  11.714   4.101  0.5338 -2.1964 -3.4396
  431MOL0     H59441   7.630  11.819   4.117  1.4999  0.6539  1.4811
  431MOL0     H59442   7.870  11.826   4.085  0.1414  1.1394  0.3950
  431MOL0     H59443   7.770  11.919   4.202  0.2458  1.2123  0.7915
  431MOL0     H59444   7.989  12.020   4.231  1.3046  0.0746 -0.9446
  431MOL0     H59445   7.973  11.917   4.368 -1.3752  0.4607 -0.1013
  431MOL0     H59446   8.131  11.835   4.113 -1.4036 -1.9126 -0.8016
  431MOL0     H59447   8.093  11.720   4.248  2.2271  0.1251 -0.1049
  431MOL0     H59448   8.218  11.885   4.391 -3.3665  2.5501 -0.8246
  431MOL0     H59449   8.270  11.964   4.249 -3.5656  1.4815  1.6122
  431MOL0     H59450   8.315  11.663   4.309  1.1090  0.3170 -0.0292
  431MOL0     H59451   8.363  11.740   4.156  0.4044  0.5632 -0.3768
  431MOL0     H59452   8.467  11.857   4.419 -3.2545 -2.8669  1.1441
  431MOL0     H59453   8.510  11.879   4.245 -2.1112 -0.7304 -1.3277
  431MOL0     H59454   8.569  11.627   4.234  0.4381  0.4155  0.5400
  431MOL0     H59455   8.523  11.602   4.394  1.8237  1.2946  0.7872
  431MOL0     H59456   8.728  11.756   4.458 -0.2474 -1.0790  0.9512
  431MOL0     H59457   8.757  11.765   4.282  1.8760 -0.4452 -0.3627
  431MOL0     H59458   7.750  11.505   4.377 -0.4512  0.9050 -0.6618
  431MOL0     H59459   7.553  11.387   4.332  1.5371 -0.3319 -1.7354
  431MOL0     H59460   7.246  11.242   4.270 -0.3844  0.4683 -0.5938
  431MOL0     H59461   7.091  11.062   4.266  1.1875 -1.4543 -1.4963
  431MOL0     H59462   5.344  10.356   3.449  0.5745 -0.7109  1.1275
  431MOL0     H59463   5.113  10.265   3.454 -3.0728  0.6307  0.4554
  431MOL0     H59464   4.692  10.245   3.626  0.8386 -0.8346 -1.0974
  431MOL0     H59465   4.474  10.169   3.674 -0.6558 -1.0445  0.6890
  431MOL0     H59466   4.379  10.270   3.926 -2.1323  0.1615 -1.8046
  431MOL0     H59467   4.251  10.197   3.841 -0.4759 -0.7107  0.1361
  431MOL0     H59468   4.222  10.257   4.082 -0.0620 -0.4497  0.3409
  431MOL0     H59469   4.310  10.099   4.122  2.2157 -1.7420 -3.0526
  431MOL0     H59470   4.044  10.143   3.995 -0.5686 -1.4742 -1.2443
  431MOL0     H59471   4.128   9.991   3.957  3.5560 -1.3841  1.1160
  431MOL0     H59472   4.038  10.068   4.239  0.6430  0.7811 -0.3998
  431MOL0     H59473   4.147   9.936   4.181  0.7985  0.5842  1.2157
  431MOL0     H59474   3.745   9.842   4.035  0.4478 -0.7086 -1.3818
  431MOL0     H59475   4.623   9.990   4.036  1.0941  2.1719  1.6922
  431MOL0     H59476   4.958   9.989   3.975 -0.3056 -2.7672  1.6296
  431MOL0     H59477   4.859  10.088   4.096 -1.9117  2.8968 -1.8842
  431MOL0     H59478   4.820   9.915   4.057  1.1373 -0.0777  0.4996
  432MOL0     O59479   8.181   1.276   2.364  1.4167  0.8807  0.5937
  432MOL0     C59480   8.210   1.308   2.478  0.3040 -0.5013  0.4383
  432MOL0     O59481   8.126   1.339   2.577  0.1120 -0.3253 -0.0808
  432MOL0     C59482   7.986   1.340   2.551 -0.7326 -0.3872  0.0483
  432MOL0     C59483   7.900   1.250   2.609  0.7408  0.8536  0.4356
  432MOL0     C59484   7.764   1.257   2.587 -0.2418 -0.2977 -0.6258
  432MOL0     C59485   7.714   1.348   2.492 -0.3001  0.2962 -0.5025
  432MOL0     O59486   7.579   1.359   2.466 -0.2335  0.2652  0.3823
  432MOL0     C59487   7.512   1.235   2.449  0.4932  0.0183 -0.0263
  432MOL0     C59488   7.518   1.197   2.302  0.4734  0.0430 -0.2408
  432MOL0     C59489   7.426   1.077   2.284 -1.1576  0.5348 -0.0903
  432MOL0     C59490   7.424   1.022   2.138 -0.1314 -0.5132 -0.6685
  432MOL0     C59491   7.315   0.923   2.119 -0.0893 -0.1748 -0.2895
  432MOL0     C59492   7.341   0.801   2.209  0.2682  0.4434 -0.0243
  432MOL0     C59493   7.264   0.679   2.149 -1.0532 -0.2826 -0.3139
  432MOL0     C59494   7.120   0.698   2.106  0.1810  0.8624  0.1994
  432MOL0     N59495   7.031   0.675   2.221 -0.2476 -0.5807  0.0591
  432MOL0     C59496   7.007   0.754   2.339  0.3184  0.4659 -0.1324
  432MOL0     C59497   6.900   0.688   2.395 -0.2353 -0.5987  0.0792
  432MOL0     C59498   6.848   0.735   2.522  0.0142  1.0677 -0.7334
  432MOL0     C59499   6.923   0.679   2.637  0.7185  0.3941  1.6804
  432MOL0     C59500   6.837   0.691   2.764  0.2819 -0.1735  0.1339
  432MOL0     C59501   6.897   0.609   2.876  0.6766  0.6670 -0.4797
  432MOL0     O59502   7.032   0.621   2.904 -0.4217  0.0519 -0.2665
  432MOL0     C59503   7.092   0.539   2.999 -0.0677  0.4788  0.5758
  432MOL0     C59504   7.024   0.447   3.074  0.1057 -0.1478  0.0949
  432MOL0     C59505   7.102   0.373   3.170  0.1501  0.1201 -0.2827
  432MOL0     C59506   7.032   0.272   3.253 -0.0335  0.9491  0.4399
  432MOL0     C59507   7.232   0.395   3.182 -0.4203  0.3412 -0.3394
  432MOL0     C59508   7.329   0.326   3.268  0.0432  0.1986 -0.7836
  432MOL0     O59509   7.374   0.397   3.381  0.2699 -0.6158 -0.8828
  432MOL0     C59510   7.445   0.316   3.464 -0.6428 -0.1641 -0.2311
  432MOL0     C59511   7.412   0.304   3.599 -0.6453 -0.0571  0.3263
  432MOL0     C59512   7.483   0.231   3.694 -0.3443  0.7528  0.6415
  432MOL0     C59513   7.585   0.148   3.645  1.1022 -0.0779 -0.0685
  432MOL0     O59514   7.662   0.058   3.723 -0.5711  0.6232  0.3772
  432MOL0     C59515   7.678   0.071   3.867 -0.8117  1.4408  0.4712
  432MOL0     C59516   7.740  -0.053   3.931  0.0429 -0.0973  0.4218
  432MOL0     C59517   7.676  -0.188   3.890 -0.2931  0.1381  0.0356
  432MOL0     C59518   7.537  -0.213   3.943  0.2967  0.3819 -0.1508
  432MOL0     C59519   7.497  -0.358   3.899  0.1605 -0.0922  0.4617
  432MOL0     C59520   7.345  -0.365   3.883 -0.3003 -0.3419 -0.4085
  432MOL0     C59521   7.304  -0.511   3.836 -0.1734 -0.4955 -0.4124
  432MOL0     C59522   7.157  -0.541   3.844  1.0509  0.1367 -0.3909
  432MOL0    Cl59523   7.071  -0.401   3.788  0.2507  0.3807 -0.1293
  432MOL0     C59524   7.623   0.147   3.509 -0.0164  0.2936  0.1097
  432MOL0     C59525   7.553   0.233   3.422  1.0639  0.3644  0.5782
  432MOL0     O59526   7.341   0.207   3.247  0.2070 -0.0714  0.4413
  432MOL0     C59527   7.307   0.478   3.095  0.9032 -0.0312 -0.4051
  432MOL0     C59528   7.237   0.548   3.004 -0.4314 -0.3084 -1.1130
  432MOL0     N59529   6.869   0.567   2.328 -0.7433  0.0585  0.2985
  432MOL0     N59530   6.943   0.571   2.218  0.1731  0.3410 -0.8560
  432MOL0     C59531   7.793   1.436   2.414  0.0178 -0.1645 -0.3947
  432MOL0     C59532   7.935   1.425   2.449  0.0515 -0.9093  0.7001
  432MOL0     C59533   8.355   1.300   2.514  0.0075  0.4781 -0.0426
  432MOL0     C59534   8.378   1.306   2.652 -0.4333  0.8532 -0.3003
  432MOL0     C59535   8.498   1.259   2.702  0.3806  0.0583 -0.3272
  432MOL0     C59536   8.611   1.234   2.616 -0.3434  0.1189  0.0951
  432MOL0     O59537   8.730   1.206   2.669  0.0097  0.1390  0.7367
  432MOL0     C59538   8.845   1.187   2.579 -0.4071 -0.6021 -0.0222
  432MOL0     C59539   8.963   1.162   2.667  0.0409 -0.8648  0.0380
  432MOL0     C59540   8.942   1.032   2.737 -0.0492 -0.1259 -0.5546
  432MOL0     C59541   9.039   1.004   2.854 -0.4762 -0.4684 -0.8971
  432MOL0     C59542   9.039   1.082   2.981 -0.4503 -0.1512  0.0813
  432MOL0     C59543   9.060   1.153   3.076 -0.4505 -0.0410  0.0578
  432MOL0     C59544   8.588   1.235   2.476 -0.9259  0.1774 -0.2587
  432MOL0     C59545   8.464   1.262   2.433  0.5952  0.0697 -0.5544
  432MOL0     C59546   8.450   1.258   2.286  0.0769 -0.1379  0.8644
  432MOL0     H59547   7.932   1.172   2.678 -0.2026 -0.6570 -0.7902
  432MOL0     H59548   7.704   1.193   2.653  0.6493  1.4903  2.1055
  432MOL0     H59549   7.413   1.229   2.494 -0.5343 -1.9709 -2.3720
  432MOL0     H59550   7.555   1.152   2.506 -2.5750 -1.5246  0.2316
  432MOL0     H59551   7.485   1.274   2.231  1.7061  0.7706 -0.0601
  432MOL0     H59552   7.618   1.163   2.272 -0.6601 -2.5049 -1.3443
  432MOL0     H59553   7.466   1.009   2.361 -0.3982  0.5096 -0.4978
  432MOL0     H59554   7.323   1.112   2.292 -1.3847  0.7413 -3.0253
  432MOL0     H59555   7.417   1.111   2.074  0.4882  1.0600  1.3323
  432MOL0     H59556   7.522   0.977   2.126 -0.0970 -0.9148  0.9627
  432MOL0     H59557   7.319   0.889   2.016  0.4078 -0.4528 -0.1798
  432MOL0     H59558   7.214   0.964   2.131  0.5069  2.6915 -3.4302
  432MOL0     H59559   7.447   0.773   2.207  0.0905 -0.2757  0.3482
  432MOL0     H59560   7.308   0.822   2.311  1.0886 -0.6511  0.4934
  432MOL0     H59561   7.262   0.590   2.213  1.2187  0.5915  1.1095
  432MOL0     H59562   7.326   0.663   2.061 -0.3194 -0.4771  0.2261
  432MOL0     H59563   7.106   0.787   2.043  2.6000 -0.1733 -2.0276
  432MOL0     H59564   7.095   0.621   2.032  0.5898  1.6315 -0.7694
  432MOL0     H59565   7.062   0.838   2.378  2.6440 -0.9035 -0.2731
  432MOL0     H59566   6.752   0.684   2.515  1.0454 -0.9954 -0.7821
  432MOL0     H59567   6.838   0.844   2.524  0.9172  1.1786  2.0222
  432MOL0     H59568   6.938   0.572   2.617 -3.0010 -0.1648  1.2503
  432MOL0     H59569   7.024   0.721   2.649  0.9404  0.5356 -0.4237
  432MOL0     H59570   6.831   0.799   2.782 -0.0968 -0.0404 -0.7489
  432MOL0     H59571   6.736   0.660   2.734  1.1605 -0.8930 -2.3046
  432MOL0     H59572   6.849   0.638   2.970 -1.4528 -0.4983 -1.1366
  432MOL0     H59573   6.878   0.503   2.861  4.4690  0.0699 -2.2298
  432MOL0     H59574   6.918   0.427   3.063  0.5897 -2.0487 -2.0006
  432MOL0     H59575   6.948   0.316   3.308 -0.0068 -0.3792  1.5843
  432MOL0     H59576   7.093   0.215   3.324 -1.4855  0.5270  1.4119
  432MOL0     H59577   6.986   0.207   3.179  2.9970  2.1546 -2.7410
  432MOL0     H59578   7.328   0.363   3.634  1.0346  1.0879  2.6703
  432MOL0     H59579   7.462   0.239   3.800 -1.8635  3.1766  0.2215
  432MOL0     H59580   7.749   0.148   3.899 -0.0616  0.8079  0.3823
  432MOL0     H59581   7.577   0.085   3.906 -0.7157  1.7439  0.6148
  432MOL0     H59582   7.840  -0.068   3.891 -0.3417  3.6437 -2.4970
  432MOL0     H59583   7.745  -0.030   4.038 -0.6173 -1.2254  0.7154
  432MOL0     H59584   7.743  -0.263   3.933  2.4066  2.4794  0.1939
  432MOL0     H59585   7.685  -0.197   3.781  2.5483  0.7246  0.1531
  432MOL0     H59586   7.469  -0.145   3.890  0.6982 -1.4066 -3.1912
  432MOL0     H59587   7.537  -0.196   4.051  0.4986 -1.5091  0.1766
  432MOL0     H59588   7.549  -0.373   3.804  2.4126 -1.2534  1.7896
  432MOL0     H59589   7.533  -0.432   3.972 -1.1203 -2.3837 -1.1217
  432MOL0     H59590   7.317  -0.285   3.814  0.5282 -2.1982 -3.1054
  432MOL0     H59591   7.290  -0.342   3.975 -0.1857  1.3512 -0.7388
  432MOL0     H59592   7.361  -0.591   3.884  0.4037 -0.6268 -1.2847
  432MOL0     H59593   7.326  -0.521   3.729 -2.3323 -0.1361 -0.9241
  432MOL0     H59594   7.123  -0.566   3.945 -1.6311  2.0567 -0.7072
  432MOL0     H59595   7.133  -0.626   3.780 -0.3337 -0.4868  0.9041
  432MOL0     H59596   7.709   0.087   3.482  1.3039  1.1880  2.0916
  432MOL0     H59597   7.583   0.226   3.318  1.5163 -0.0851  0.7372
  432MOL0     H59598   7.413   0.493   3.113  0.1416  2.2654  3.1821
  432MOL0     H59599   7.283   0.622   2.939 -0.0468 -0.0607 -0.5695
  432MOL0     H59600   7.755   1.516   2.351  0.6637  1.1067  0.7837
  432MOL0     H59601   8.009   1.492   2.406  0.5882 -1.5275  0.6590
  432MOL0     H59602   8.309   1.342   2.727  1.0051  2.3256  0.3647
  432MOL0     H59603   8.526   1.258   2.807  0.0366  1.0119 -0.2187
  432MOL0     H59604   8.842   1.110   2.501 -1.8025 -0.2614 -0.3417
  432MOL0     H59605   8.850   1.288   2.535  0.2363  0.0613  1.5173
  432MOL0     H59606   8.977   1.246   2.735 -1.2548 -0.3519 -0.2956
  432MOL0     H59607   9.058   1.168   2.614 -0.1501 -2.4250 -0.5409
  432MOL0     H59608   8.844   1.026   2.787  1.0825  0.2211  1.8394
  432MOL0     H59609   8.953   0.963   2.653  1.7084 -1.3118  0.6132
  432MOL0     H59610   9.142   1.006   2.817 -0.6374 -0.5631 -1.3705
  432MOL0     H59611   9.030   0.898   2.882  0.9221  0.2639  2.7286
  432MOL0     H59612   9.065   1.218   3.160  3.5237 -0.3546  0.2406
  432MOL0     H59613   8.665   1.216   2.402  0.1253  0.2637  0.7792
  432MOL0     H59614   8.542   1.254   2.227 -0.2531  0.5991  0.2708
  432MOL0     H59615   8.384   1.175   2.259 -3.8237  3.0456 -0.4511
  432MOL0     H59616   8.386   1.340   2.252 -2.3993 -1.7364  1.4587
  433MOL0     O59617  10.704   4.230   2.713 -0.6694 -0.4888  0.4338
  433MOL0     C59618  10.683   4.145   2.798 -0.8546 -0.8909 -0.3751
  433MOL0     O59619  10.776   4.077   2.878 -0.5353 -0.4261 -0.0660
  433MOL0     C59620  10.910   4.125   2.868  0.8679  0.0567  0.9295
  433MOL0     C59621  11.013   4.039   2.859  0.0864  0.0135 -0.3517
  433MOL0     C59622  11.138   4.087   2.871 -0.1015  0.2041  0.4562
  433MOL0     C59623  11.161   4.219   2.888  0.2326 -0.3139  0.0670
  433MOL0     O59624  11.287   4.267   2.881 -0.3655 -0.2794  0.1932
  433MOL0     C59625  11.323   4.340   2.763  0.2723 -0.7234 -0.4735
  433MOL0     C59626  11.316   4.273   2.625  0.3392  0.5707  0.5102
  433MOL0     C59627  11.393   4.350   2.530  0.1512  0.2662 -0.0789
  433MOL0     C59628  11.384   4.280   2.397 -0.2058  0.0981  0.7907
  433MOL0     C59629  11.466   4.358   2.288  0.3193  0.3356 -0.4420
  433MOL0     C59630  11.480   4.290   2.160 -0.4561  0.1830 -0.3742
  433MOL0     C59631  11.577   4.168   2.159 -1.1799 -0.5438 -0.7732
  433MOL0     C59632  11.590   4.110   2.015  0.1344 -0.1018 -0.0539
  433MOL0     N59633  11.628   4.202   1.906 -0.0853  0.0073  0.3678
  433MOL0     C59634  11.566   4.214   1.779 -0.5925 -0.4184 -0.0129
  433MOL0     C59635  11.670   4.245   1.700 -0.1928  0.3754 -0.2608
  433MOL0     C59636  11.666   4.261   1.544 -0.3819  0.0296  0.2610
  433MOL0     C59637  11.532   4.211   1.476  0.3887  0.3090  0.6545
  433MOL0     C59638  11.515   4.283   1.328 -0.1082  0.1435  0.0909
  433MOL0     C59639  11.641   4.255   1.239 -0.0030  0.6964 -0.3246
  433MOL0     O59640  11.694   4.125   1.263  0.7493  0.9748  0.1413
  433MOL0     C59641  11.802   4.074   1.195 -0.7782  0.0575  0.3930
  433MOL0     C59642  11.820   3.939   1.214 -0.6973  0.2612 -0.1892
  433MOL0     C59643  11.931   3.875   1.158 -0.1595  0.8587 -0.3528
  433MOL0     C59644  11.954   3.733   1.212 -0.3654  0.4043 -0.1284
  433MOL0     C59645  12.020   3.939   1.061 -0.1269 -0.7338  0.1311
  433MOL0     C59646  12.135   3.873   0.999  0.9211 -0.2115  0.3631
  433MOL0     O59647  12.214   3.968   0.928 -0.0358 -0.5489  0.1607
  433MOL0     C59648  12.309   3.919   0.845  0.5312 -0.1576  0.1971
  433MOL0     C59649  12.405   3.824   0.881  0.5281  0.4338  0.9425
  433MOL0     C59650  12.500   3.769   0.785 -0.3175 -0.0975 -0.8088
  433MOL0     C59651  12.511   3.827   0.663 -0.0228 -0.1241  0.9346
  433MOL0     O59652  12.611   3.788   0.583 -0.2191 -0.5322 -0.3343
  433MOL0     C59653  12.590   3.783   0.443 -0.2247  0.2778  0.1677
  433MOL0     C59654  12.695   3.700   0.375 -0.2370  0.1204 -0.8309
  433MOL0     C59655  12.660   3.550   0.357  0.8814 -0.0460 -0.2776
  433MOL0     C59656  12.782   3.482   0.299 -0.4849  0.3332  0.3635
  433MOL0     C59657  12.755   3.345   0.239  0.2483 -0.6745 -0.5337
  433MOL0     C59658  12.688   3.251   0.335 -0.1144  0.2250  0.1645
  433MOL0     C59659  12.670   3.116   0.278 -0.3602  0.2155  0.0176
  433MOL0     C59660  12.589   3.029   0.360 -0.7016  0.2949 -0.1924
  433MOL0    Cl59661  12.675   2.999   0.516 -0.4416  0.1711 -0.3703
  433MOL0     C59662  12.415   3.919   0.626 -0.2254  0.3947  0.6545
  433MOL0     C59663  12.320   3.975   0.720 -1.2720  0.5314 -0.0560
  433MOL0     O59664  12.121   3.753   0.973  0.1245 -0.2573 -0.3598
  433MOL0     C59665  11.994   4.078   1.039  0.0408  0.0160  0.4791
  433MOL0     C59666  11.886   4.150   1.108 -0.1370 -0.6414  0.4073
  433MOL0     N59667  11.785   4.261   1.776 -0.2028 -0.3963 -0.4582
  433MOL0     N59668  11.755   4.251   1.898 -0.3173 -0.1931  0.7989
  433MOL0     C59669  11.059   4.306   2.910 -0.2240 -0.0583 -0.3111
  433MOL0     C59670  10.933   4.261   2.898  1.3000  0.7255  0.2172
  433MOL0     C59671  10.549   4.103   2.827  0.6194 -0.1992  0.4218
  433MOL0     C59672  10.541   3.970   2.882 -0.2668  0.6359 -0.3850
  433MOL0     C59673  10.410   3.914   2.914 -0.9154 -0.4825 -0.8657
  433MOL0     C59674  10.290   3.989   2.881  0.4772  0.2910  1.0574
  433MOL0     O59675  10.160   3.936   2.883 -0.5637 -0.4100 -0.0353
  433MOL0     C59676  10.137   3.799   2.933 -0.3803  0.5626 -0.2938
  433MOL0     C59677   9.985   3.766   2.943  0.2900 -0.2698 -0.0278
  433MOL0     C59678   9.925   3.795   3.080 -0.4437  0.7658 -0.3478
  433MOL0     C59679   9.958   3.689   3.190  0.2568 -0.9883 -0.6773
  433MOL0     C59680   9.888   3.567   3.155  0.1312  0.1802 -0.2114
  433MOL0     C59681   9.818   3.462   3.149 -0.1680 -0.0370 -0.1605
  433MOL0     C59682  10.306   4.118   2.825  0.3175 -0.5246  0.1629
  433MOL0     C59683  10.423   4.181   2.805 -0.0808 -1.4074  0.4886
  433MOL0     C59684  10.420   4.317   2.743  0.1984  0.6768  0.3890
  433MOL0     H59685  11.000   3.933   2.843  0.4560 -0.1281  0.2177
  433MOL0     H59686  11.223   4.022   2.857 -0.0832  0.2875  0.1858
  433MOL0     H59687  11.428   4.358   2.784 -0.0943 -0.2737  1.1359
  433MOL0     H59688  11.281   4.441   2.755 -1.9495 -1.6662 -1.6580
  433MOL0     H59689  11.367   4.176   2.628  1.1829  1.0273  2.1074
  433MOL0     H59690  11.212   4.263   2.594 -0.0087  2.3872  1.0006
  433MOL0     H59691  11.350   4.450   2.515 -5.6791 -1.8825 -0.4858
  433MOL0     H59692  11.499   4.347   2.554 -0.6223  0.7986  4.3041
  433MOL0     H59693  11.417   4.176   2.410 -2.3283 -1.2496 -3.1444
  433MOL0     H59694  11.284   4.269   2.355  0.7858 -0.7146 -1.5368
  433MOL0     H59695  11.566   4.387   2.321 -0.0370 -0.2088  1.2335
  433MOL0     H59696  11.413   4.453   2.273 -0.2346 -0.0794 -1.2002
  433MOL0     H59697  11.387   4.253   2.114  0.0984  0.9620 -2.2517
  433MOL0     H59698  11.523   4.366   2.094  0.2534  0.6279  0.5813
  433MOL0     H59699  11.546   4.088   2.227 -1.8634  0.3398 -0.0233
  433MOL0     H59700  11.677   4.199   2.193 -0.0109 -2.4476 -2.2566
  433MOL0     H59701  11.667   4.034   2.026  0.6360  0.6734  2.3423
  433MOL0     H59702  11.499   4.060   1.980 -1.1338  1.8567  0.2476
  433MOL0     H59703  11.459   4.203   1.761 -0.8381 -1.3227  1.7963
  433MOL0     H59704  11.750   4.207   1.499  0.3841  1.5045 -0.1319
  433MOL0     H59705  11.677   4.366   1.517 -0.0844 -0.1261 -0.2388
  433MOL0     H59706  11.527   4.101   1.471 -1.1722  0.3752  0.2556
  433MOL0     H59707  11.438   4.228   1.530 -0.3139  1.0687 -0.7696
  433MOL0     H59708  11.424   4.240   1.285 -0.1345 -3.4107  3.1756
  433MOL0     H59709  11.505   4.391   1.342 -0.2506 -0.1744  3.0341
  433MOL0     H59710  11.620   4.274   1.134  2.5692 -1.8955 -1.4485
  433MOL0     H59711  11.727   4.318   1.266 -0.3713  1.2820 -0.5016
  433MOL0     H59712  11.767   3.883   1.290 -0.0945  0.0509  0.0806
  433MOL0     H59713  11.858   3.682   1.205  0.4982 -1.5594  1.3737
  433MOL0     H59714  11.967   3.747   1.320  2.3141  1.2959 -0.5022
  433MOL0     H59715  12.040   3.678   1.172  0.8990  1.6960  0.7051
  433MOL0     H59716  12.412   3.783   0.981  1.3706 -1.5211  0.1338
  433MOL0     H59717  12.575   3.697   0.818 -2.3564 -1.9165  0.0527
  433MOL0     H59718  12.485   3.757   0.423  0.0322 -2.8932  2.2047
  433MOL0     H59719  12.602   3.884   0.402  1.4968 -0.3540 -0.9730
  433MOL0     H59720  12.722   3.760   0.288  1.5419  2.0849  0.9498
  433MOL0     H59721  12.783   3.714   0.438  0.6666  1.6872 -2.3631
  433MOL0     H59722  12.577   3.540   0.286 -0.1103 -1.5131  1.0305
  433MOL0     H59723  12.629   3.504   0.451  1.0846  1.7765  0.7189
  433MOL0     H59724  12.869   3.464   0.363  0.5315  0.9162 -0.7928
  433MOL0     H59725  12.807   3.542   0.211  0.2914  2.2539  1.8259
  433MOL0     H59726  12.694   3.357   0.149  2.3163 -0.1855 -1.9511
  433MOL0     H59727  12.852   3.306   0.207  1.0662  2.6028 -2.5495
  433MOL0     H59728  12.587   3.291   0.351  0.5489  2.1591 -0.1791
  433MOL0     H59729  12.734   3.243   0.434 -0.0608  0.3696  0.1507
  433MOL0     H59730  12.771   3.076   0.266 -1.2361 -2.2691  0.3548
  433MOL0     H59731  12.639   3.116   0.173 -0.5329  1.9132  0.0385
  433MOL0     H59732  12.594   2.929   0.316  3.4253 -0.3570  1.3524
  433MOL0     H59733  12.488   3.065   0.382 -0.4846  1.2842 -0.7636
  433MOL0     H59734  12.430   3.964   0.529  2.9945 -0.2879  0.7303
  433MOL0     H59735  12.246   4.048   0.687 -1.2602  1.2572  1.4617
  433MOL0     H59736  12.060   4.133   0.973  2.1673  2.8828  4.5356
  433MOL0     H59737  11.865   4.256   1.098  2.2324 -0.1876 -0.3317
  433MOL0     H59738  11.079   4.411   2.927  1.3822 -0.3978  0.0589
  433MOL0     H59739  10.849   4.330   2.895  0.7552  0.0809 -2.3797
  433MOL0     H59740  10.625   3.913   2.919 -1.4089 -1.0071 -0.2194
  433MOL0     H59741  10.404   3.818   2.965  2.9502 -0.4398 -0.0212
  433MOL0     H59742  10.180   3.723   2.867 -0.5416  2.6347 -2.9616
  433MOL0     H59743  10.170   3.793   3.037 -2.9904  3.1126  0.8216
  433MOL0     H59744   9.978   3.664   2.906  3.4114  0.2084 -2.3672
  433MOL0     H59745   9.930   3.833   2.876  1.1192 -1.5981 -2.1240
  433MOL0     H59746   9.966   3.893   3.109  2.1660 -0.0790 -0.9337
  433MOL0     H59747   9.818   3.809   3.063 -1.6676 -3.8644  1.7879
  433MOL0     H59748   9.902   3.727   3.276 -0.4469 -0.4941 -1.3399
  433MOL0     H59749  10.066   3.680   3.205  0.8631 -0.3108 -3.7682
  433MOL0     H59750   9.781   3.361   3.144 -2.6579  0.8685 -1.7767
  433MOL0     H59751  10.212   4.168   2.808 -0.6156 -0.9015  3.4031
  433MOL0     H59752  10.326   4.368   2.765  0.1103  1.0504 -0.7988
  433MOL0     H59753  10.500   4.379   2.784  1.1625  0.0525 -0.4964
  433MOL0     H59754  10.424   4.306   2.634  2.0668  0.7850  0.4175
  434MOL0     O59755   9.366   7.246   9.262  0.6487 -0.7435 -0.3824
  434MOL0     C59756   9.459   7.310   9.312 -0.4421 -0.3860  0.4283
  434MOL0     O59757   9.440   7.399   9.414 -0.4476  0.0137 -0.2414
  434MOL0     C59758   9.323   7.392   9.490 -0.9762 -0.0187  0.3145
  434MOL0     C59759   9.246   7.282   9.527 -0.5608 -0.3816  0.2235
  434MOL0     C59760   9.119   7.298   9.593 -1.0178 -0.6910  0.0768
  434MOL0     C59761   9.082   7.425   9.637 -0.7096 -0.1525  0.6061
  434MOL0     O59762   8.965   7.454   9.709  0.4499  0.0203 -0.1728
  434MOL0     C59763   8.856   7.368   9.673  0.4538 -0.0472 -0.7379
  434MOL0     C59764   8.730   7.428   9.735  0.0423  0.5816 -0.3811
  434MOL0     C59765   8.731   7.429   9.892  0.3054 -0.6389 -0.1646
  434MOL0     C59766   8.739   7.286   9.936  0.1584  0.3012  0.5165
  434MOL0     C59767   8.688   7.272  10.083  0.2511  0.1599  0.7334
  434MOL0     C59768   8.637   7.136  10.118 -0.0500  0.9955 -0.6594
  434MOL0     C59769   8.750   7.039  10.161 -0.9805  0.5431  0.1549
  434MOL0     C59770   8.713   6.898  10.210 -0.2841 -1.0120 -0.0406
  434MOL0     N59771   8.664   6.896  10.353  0.6454 -0.3865  0.8418
  434MOL0     C59772   8.733   6.873  10.462  0.2997  0.0452 -0.1962
  434MOL0     C59773   8.641   6.837  10.556  0.6522  0.3249 -0.6777
  434MOL0     C59774   8.691   6.789  10.698 -0.5149  0.4229  1.0004
  434MOL0     C59775   8.759   6.898  10.773  0.8217 -0.1406  0.3252
  434MOL0     C59776   8.794   6.871  10.925 -0.5652  0.1045  0.2290
  434MOL0     C59777   8.698   6.804  11.014 -0.2191 -0.0798 -0.3824
  434MOL0     O59778   8.576   6.878  11.016  0.4061 -0.5136  0.1700
  434MOL0     C59779   8.468   6.803  11.046  0.3728  0.5861 -0.3595
  434MOL0     C59780   8.354   6.833  10.982  0.2184 -0.0201  0.7387
  434MOL0     C59781   8.232   6.757  10.997 -0.7481 -1.1582 -0.7494
  434MOL0     C59782   8.105   6.813  10.931 -0.0612  0.3200 -0.9935
  434MOL0     C59783   8.241   6.652  11.097  0.7937  0.6577 -0.3395
  434MOL0     C59784   8.119   6.576  11.129  0.0860  0.4288 -0.2019
  434MOL0     O59785   8.126   6.507  11.247  0.4307  0.4285  0.7392
  434MOL0     C59786   8.019   6.429  11.282  0.4136  0.0765 -0.0824
  434MOL0     C59787   7.900   6.491  11.334 -1.0225 -0.1219 -0.3806
  434MOL0     C59788   7.788   6.415  11.356 -0.4185 -0.0077 -0.0980
  434MOL0     C59789   7.786   6.280  11.341  0.4953  0.2924 -0.2115
  434MOL0     O59790   7.669   6.214  11.388  0.4634 -0.2060 -0.1256
  434MOL0     C59791   7.566   6.203  11.297  0.5449 -0.7380 -0.4015
  434MOL0     C59792   7.436   6.171  11.376 -0.0641  0.4904  0.4470
  434MOL0     C59793   7.323   6.119  11.286  0.3041  0.1769  0.2447
  434MOL0     C59794   7.260   6.227  11.199  0.4381 -0.2239  1.3759
  434MOL0     C59795   7.120   6.189  11.145  0.0531  0.5815  0.7091
  434MOL0     C59796   7.051   6.277  11.046 -0.1030 -0.7034  0.8286
  434MOL0     C59797   7.148   6.306  10.925 -0.3774 -1.0871 -0.1818
  434MOL0     C59798   7.097   6.408  10.822  0.1268  0.8869 -0.5923
  434MOL0    Cl59799   6.978   6.345  10.696  0.1189 -0.8387  0.2327
  434MOL0     C59800   7.905   6.217  11.290 -0.1331  0.3471 -0.0269
  434MOL0     C59801   8.022   6.290  11.270 -0.1609 -0.2152  0.0249
  434MOL0     O59802   8.022   6.571  11.055  0.1974 -0.1196 -0.0924
  434MOL0     C59803   8.359   6.630  11.170  0.3075 -0.6602 -0.2176
  434MOL0     C59804   8.470   6.705  11.143 -0.9257 -0.2157  0.2294
  434MOL0     N59805   8.515   6.851  10.502 -0.3504  0.1687 -0.5940
  434MOL0     N59806   8.531   6.885  10.380 -0.4221  0.1654 -0.3881
  434MOL0     C59807   9.171   7.532   9.620  0.4343 -0.4171  0.3962
  434MOL0     C59808   9.288   7.518   9.542 -0.1320  0.1473 -0.2928
  434MOL0     C59809   9.600   7.295   9.255 -0.3166  0.5866 -0.3380
  434MOL0     C59810   9.708   7.350   9.318  0.5552  0.1263 -0.7106
  434MOL0     C59811   9.836   7.349   9.275 -0.3659  0.8437  0.9016
  434MOL0     C59812   9.865   7.288   9.149  0.2703 -0.5701  0.9895
  434MOL0     O59813   9.995   7.283   9.116  0.6139 -0.0554 -0.2719
  434MOL0     C59814  10.019   7.293   8.979  0.2552  0.1385 -0.0074
  434MOL0     C59815  10.167   7.314   8.960 -0.2376  0.2843  0.0369
  434MOL0     C59816  10.205   7.314   8.817 -0.6448  0.8910  0.4958
  434MOL0     C59817  10.174   7.442   8.743  1.5492  0.0441  0.2961
  434MOL0     C59818  10.264   7.546   8.793 -0.0738 -0.6643  0.3800
  434MOL0     C59819  10.333   7.647   8.824  0.2566 -0.9738  0.0695
  434MOL0     C59820   9.762   7.222   9.080  0.6503 -0.1633  0.3530
  434MOL0     C59821   9.636   7.228   9.131  0.5709 -0.5607  0.7413
  434MOL0     C59822   9.534   7.158   9.050 -0.6437 -0.6824  0.1848
  434MOL0     H59823   9.281   7.186   9.490 -1.0792 -1.2745  1.9643
  434MOL0     H59824   9.062   7.211   9.623 -1.7146 -0.7725 -1.3994
  434MOL0     H59825   8.860   7.264   9.705 -2.1052 -0.1958 -0.6822
  434MOL0     H59826   8.862   7.365   9.564  0.5388 -0.3464 -0.7262
  434MOL0     H59827   8.725   7.529   9.694  2.3611  1.4399  1.2466
  434MOL0     H59828   8.646   7.364   9.706 -0.1714 -0.2437  1.8575
  434MOL0     H59829   8.822   7.479   9.928 -1.3884  1.8584  0.9875
  434MOL0     H59830   8.641   7.479   9.929 -0.3657 -1.2944 -0.9014
  434MOL0     H59831   8.681   7.220   9.871 -0.4934  0.8500  0.5380
  434MOL0     H59832   8.843   7.256   9.925  0.0251  0.0596 -0.1288
  434MOL0     H59833   8.600   7.337  10.090 -2.4176 -2.7157 -2.4232
  434MOL0     H59834   8.763   7.310  10.153  0.0072  1.4297  0.3362
  434MOL0     H59835   8.570   7.156  10.202 -1.2515  1.9094 -1.7878
  434MOL0     H59836   8.586   7.102  10.028  0.5669  0.8778 -0.9754
  434MOL0     H59837   8.802   7.080  10.248  0.2813 -0.5175 -0.0687
  434MOL0     H59838   8.822   7.018  10.081 -0.0951  1.3745  0.7056
  434MOL0     H59839   8.632   6.853  10.152 -0.8144  0.1533 -0.2323
  434MOL0     H59840   8.802   6.835  10.214 -0.2093 -0.9195 -0.2269
  434MOL0     H59841   8.839   6.858  10.478 -0.0732 -0.9393  1.6086
  434MOL0     H59842   8.759   6.704  10.688  1.3448  2.1339 -2.9320
  434MOL0     H59843   8.599   6.766  10.752 -0.2487 -1.9046  0.5444
  434MOL0     H59844   8.846   6.933  10.717 -0.1417  0.2324 -0.9784
  434MOL0     H59845   8.681   6.974  10.766  0.1251 -0.9830 -2.4216
  434MOL0     H59846   8.882   6.806  10.921  0.8866  2.0064 -0.5171
  434MOL0     H59847   8.822   6.970  10.963  0.0636  0.7755 -1.8921
  434MOL0     H59848   8.677   6.701  10.986 -0.7227  0.2276 -1.1695
  434MOL0     H59849   8.733   6.802  11.118  2.2524 -0.8406 -1.1806
  434MOL0     H59850   8.352   6.912  10.907 -3.9916 -3.1212 -2.9257
  434MOL0     H59851   8.025   6.836  11.001 -1.2769 -0.8846 -1.9470
  434MOL0     H59852   8.073   6.736  10.860 -0.2971 -0.3429 -0.1979
  434MOL0     H59853   8.131   6.897  10.867 -0.6488  0.1119 -1.5080
  434MOL0     H59854   7.903   6.599  11.340  3.9487 -0.1135  2.9671
  434MOL0     H59855   7.693   6.464  11.372 -1.7963 -1.9430 -1.8465
  434MOL0     H59856   7.543   6.300  11.252 -4.5444 -0.5293  1.8823
  434MOL0     H59857   7.586   6.132  11.216 -0.2263 -0.3738 -0.9327
  434MOL0     H59858   7.464   6.087  11.441 -0.3969  0.5466  0.6648
  434MOL0     H59859   7.398   6.259  11.428 -0.1979  0.2153  0.8188
  434MOL0     H59860   7.243   6.087  11.352 -2.1306 -0.9407 -2.9813
  434MOL0     H59861   7.353   6.030  11.231 -1.3881 -0.4695  0.3168
  434MOL0     H59862   7.328   6.236  11.114 -0.0634  0.2537  1.0205
  434MOL0     H59863   7.246   6.323  11.249 -0.1509 -0.0476  0.8993
  434MOL0     H59864   7.120   6.086  11.110  3.7488  0.9909 -1.0079
  434MOL0     H59865   7.060   6.185  11.236  0.1003 -2.2491  0.6842
  434MOL0     H59866   7.023   6.369  11.098 -0.2719 -0.8740  1.0469
  434MOL0     H59867   6.957   6.236  11.009  0.4200 -0.0548 -1.3297
  434MOL0     H59868   7.173   6.213  10.874  1.1055 -0.3520 -0.8632
  434MOL0     H59869   7.239   6.353  10.963 -0.6857 -0.8162  0.2243
  434MOL0     H59870   7.180   6.452  10.766 -0.8479  1.1193 -1.8865
  434MOL0     H59871   7.049   6.492  10.874  1.4270  1.5671 -0.4467
  434MOL0     H59872   7.908   6.111  11.268  0.5933  0.4298 -0.3272
  434MOL0     H59873   8.113   6.249  11.226  0.4099  3.8292 -3.1219
  434MOL0     H59874   8.369   6.546  11.239 -4.3855 -1.2954  0.0383
  434MOL0     H59875   8.558   6.691  11.206 -2.7123 -4.2511  2.2385
  434MOL0     H59876   9.136   7.629   9.653  0.8072 -0.6720  1.6116
  434MOL0     H59877   9.358   7.600   9.532  3.9946 -2.9562  0.2812
  434MOL0     H59878   9.697   7.401   9.414  2.8903 -1.8899  0.7515
  434MOL0     H59879   9.914   7.394   9.335  0.9743 -0.9812  0.5790
  434MOL0     H59880   9.988   7.200   8.931  2.4856 -0.5600 -0.1862
  434MOL0     H59881   9.964   7.374   8.929 -0.3667 -0.3208 -0.0758
  434MOL0     H59882  10.217   7.232   9.012 -2.5240 -1.9546 -1.0633
  434MOL0     H59883  10.191   7.404   9.017 -1.4555  0.8766 -0.3530
  434MOL0     H59884  10.313   7.313   8.802 -0.9970  1.6397 -2.7528
  434MOL0     H59885  10.167   7.226   8.766  1.7539 -0.2527  0.5479
  434MOL0     H59886  10.066   7.458   8.757  1.0085 -1.7107 -1.3500
  434MOL0     H59887  10.186   7.428   8.635 -1.0624  1.4477 -0.2606
  434MOL0     H59888  10.390   7.735   8.846 -0.0867 -0.4044 -1.1920
  434MOL0     H59889   9.784   7.178   8.983  3.2509  1.7982 -0.0545
  434MOL0     H59890   9.575   7.087   8.978 -0.8052  1.5229 -2.1925
  434MOL0     H59891   9.457   7.102   9.106 -1.0226 -1.4008 -1.0117
  434MOL0     H59892   9.494   7.231   8.980 -0.7205  1.5770  2.4388
  435MOL0     O59893   2.198   9.508   9.683  0.2310  0.5327 -0.6357
  435MOL0     C59894   2.206   9.400   9.627 -0.3399 -0.5082 -0.6471
  435MOL0     O59895   2.315   9.375   9.552  0.0096  0.0721  0.6139
  435MOL0     C59896   2.402   9.473   9.510 -0.2423 -0.1974 -0.5328
  435MOL0     C59897   2.378   9.514   9.378 -1.1531 -0.1487 -0.8824
  435MOL0     C59898   2.467   9.612   9.321 -0.1945 -0.0659  0.1443
  435MOL0     C59899   2.574   9.669   9.396 -1.0159  0.3567 -0.0398
  435MOL0     O59900   2.667   9.746   9.335 -1.7742 -0.1459  0.1943
  435MOL0     C59901   2.796   9.748   9.409 -0.4939  0.4761  0.7597
  435MOL0     C59902   2.912   9.825   9.341 -0.1202  0.1016  0.5344
  435MOL0     C59903   3.037   9.851   9.419 -0.7929 -0.3394 -0.2976
  435MOL0     C59904   3.034   9.958   9.529 -0.8607 -0.2564 -0.2498
  435MOL0     C59905   3.179   9.966   9.589  0.1535 -0.0144  0.3988
  435MOL0     C59906   3.180  10.074   9.692  0.3410 -0.0787  0.3832
  435MOL0     C59907   3.172  10.217   9.626  0.4204  0.2569  0.4678
  435MOL0     C59908   3.199  10.347   9.708  0.3213  0.0650  0.6673
  435MOL0     N59909   3.335  10.390   9.691 -0.4848 -0.4054  0.5120
  435MOL0     C59910   3.439  10.338   9.757  1.0173 -0.9434 -0.3985
  435MOL0     C59911   3.549  10.392   9.696  0.0417  0.3926  0.7277
  435MOL0     C59912   3.690  10.349   9.716  0.3723  0.2511  0.2851
  435MOL0     C59913   3.777  10.456   9.796  0.0910 -0.0848  1.0391
  435MOL0     C59914   3.925  10.450   9.750  0.2145  0.3696  0.2542
  435MOL0     C59915   4.009  10.541   9.831  1.0104 -0.7270  0.2646
  435MOL0     O59916   4.005  10.501   9.971  0.1874 -0.1911  0.2455
  435MOL0     C59917   4.075  10.586  10.053 -0.9847  0.1601 -0.0115
  435MOL0     C59918   4.168  10.541  10.141  0.5944 -0.3776 -0.0360
  435MOL0     C59919   4.251  10.618  10.226 -0.2836 -0.4358  0.0921
  435MOL0     C59920   4.351  10.541  10.317 -0.0763 -0.6322  0.3234
  435MOL0     C59921   4.239  10.768  10.236 -0.0751  0.5061  0.5889
  435MOL0     C59922   4.309  10.854  10.328 -0.4375 -0.0366 -0.5950
  435MOL0     O59923   4.317  10.814  10.454 -0.0864  0.6275 -0.6538
  435MOL0     C59924   4.386  10.885  10.552 -0.9308 -0.5139  0.3048
  435MOL0     C59925   4.484  10.987  10.532  0.3736 -0.2912  0.0170
  435MOL0     C59926   4.543  11.055  10.644 -0.5812  0.8377  0.0619
  435MOL0     C59927   4.516  11.011  10.769  0.0907 -0.9776 -0.0360
  435MOL0     O59928   4.576  11.062  10.886  0.0662 -0.3957  0.2727
  435MOL0     C59929   4.690  11.152  10.880  0.5567 -0.5816  0.1191
  435MOL0     C59930   4.746  11.168  11.018 -0.2375 -0.1560  0.1831
  435MOL0     C59931   4.859  11.272  11.018  0.2594  0.3071 -0.1989
  435MOL0     C59932   4.940  11.285  11.142 -0.4008 -0.5411 -0.3046
  435MOL0     C59933   5.059  11.186  11.152 -0.2033 -0.0889  0.0047
  435MOL0     C59934   5.031  11.055  11.223  0.3620 -1.6110 -0.5664
  435MOL0     C59935   5.151  10.962  11.203 -0.1710  0.1628 -0.3477
  435MOL0     C59936   5.144  10.855  11.303 -0.5242 -0.4765 -0.1153
  435MOL0    Cl59937   5.206  10.909  11.468 -0.0269 -0.2182 -0.4570
  435MOL0     C59938   4.430  10.900  10.799  0.0077 -0.3767  0.2596
  435MOL0     C59939   4.371  10.840  10.683 -0.4160 -0.3523 -1.0958
  435MOL0     O59940   4.331  10.963  10.290  0.4545  0.1302 -0.1850
  435MOL0     C59941   4.145  10.818  10.142 -0.9379  0.7370  0.5470
  435MOL0     C59942   4.072  10.730  10.052 -0.2427 -0.4199  0.0670
  435MOL0     N59943   3.514  10.484   9.596 -0.0169  0.4673 -0.0156
  435MOL0     N59944   3.386  10.486   9.597 -0.0983  0.1976 -0.1491
  435MOL0     C59945   2.580   9.636   9.533  0.1454  0.0738  0.0217
  435MOL0     C59946   2.496   9.536   9.592  0.3334  0.2231  0.3727
  435MOL0     C59947   2.102   9.292   9.632  0.2748  0.4430  0.4142
  435MOL0     C59948   2.114   9.189   9.537  0.6516  0.4015  0.6252
  435MOL0     C59949   2.029   9.079   9.526 -0.2171 -0.8512 -0.1371
  435MOL0     C59950   1.928   9.065   9.622 -0.2490 -0.3429 -0.4204
  435MOL0     O59951   1.842   8.961   9.630  0.3647 -0.2455 -0.1628
  435MOL0     C59952   1.824   8.862   9.533  0.3496  0.0859 -0.8147
  435MOL0     C59953   1.707   8.905   9.447  0.0600 -0.4419  1.0539
  435MOL0     C59954   1.591   8.950   9.531  0.2076 -0.3040 -0.1816
  435MOL0     C59955   1.466   8.994   9.448 -0.1853 -0.2858 -0.4672
  435MOL0     C59956   1.426   8.883   9.367  0.3626  0.1962  0.2217
  435MOL0     C59957   1.396   8.803   9.283 -0.7812  0.8052  0.5029
  435MOL0     C59958   1.912   9.166   9.716 -0.4564 -0.4485  0.4703
  435MOL0     C59959   2.005   9.275   9.736  0.5880  1.8330  0.9658
  435MOL0     C59960   1.994   9.350   9.864  0.7129 -0.5061  1.1277
  435MOL0     H59961   2.294   9.468   9.328  0.5184 -3.2508 -1.0982
  435MOL0     H59962   2.453   9.651   9.220 -2.1937  0.0715  0.4425
  435MOL0     H59963   2.828   9.646   9.429  3.6862  0.9152 -2.3895
  435MOL0     H59964   2.792   9.795   9.508  1.1520 -1.1915  1.6820
  435MOL0     H59965   2.941   9.766   9.254 -2.8186 -1.0222  0.2957
  435MOL0     H59966   2.870   9.917   9.299 -1.3924 -0.4867  0.4687
  435MOL0     H59967   3.074   9.760   9.468  0.8043  0.1296 -0.5816
  435MOL0     H59968   3.112   9.879   9.345 -0.0818 -0.3435  0.4097
  435MOL0     H59969   2.991  10.051   9.490 -0.7518  0.4084  1.1559
  435MOL0     H59970   2.969   9.927   9.611 -4.6011  1.8573 -2.1699
  435MOL0     H59971   3.251   9.998   9.513 -0.5606  1.1374  0.1835
  435MOL0     H59972   3.213   9.876   9.642  2.1436  1.0933  1.1307
  435MOL0     H59973   3.103  10.058   9.768  1.0730 -1.9214  0.7815
  435MOL0     H59974   3.269  10.082   9.756  1.0248  1.0019 -0.6625
  435MOL0     H59975   3.074  10.235   9.581  0.4382 -1.9028 -0.5615
  435MOL0     H59976   3.240  10.224   9.541 -1.1874  4.0329 -0.7106
  435MOL0     H59977   3.124  10.421   9.675  1.0481 -1.1458 -4.7243
  435MOL0     H59978   3.173  10.318   9.810 -0.5172 -1.7513 -0.0236
  435MOL0     H59979   3.444  10.271   9.842  0.4909 -1.1777 -0.5531
  435MOL0     H59980   3.735  10.341   9.616 -1.3975 -1.4336 -0.4493
  435MOL0     H59981   3.698  10.254   9.770  2.2000  0.5981  0.7001
  435MOL0     H59982   3.731  10.554   9.780 -2.3024 -0.9129  2.4022
  435MOL0     H59983   3.771  10.447   9.904  1.8662  0.5826  1.2211
  435MOL0     H59984   3.952  10.345   9.737 -1.5914  0.0581 -1.4192
  435MOL0     H59985   3.929  10.486   9.647  0.3938 -0.0027  0.1264
  435MOL0     H59986   4.114  10.530   9.803  0.6954 -0.7819 -0.9455
  435MOL0     H59987   3.986  10.647   9.814  0.3673 -0.6390  1.5308
  435MOL0     H59988   4.190  10.435  10.139  1.4399 -0.2149  0.0978
  435MOL0     H59989   4.454  10.577  10.304 -0.5269  0.1427 -1.2617
  435MOL0     H59990   4.351  10.432  10.308 -3.4999 -0.7857  0.8991
  435MOL0     H59991   4.334  10.566  10.423 -0.6481 -0.7520  0.2612
  435MOL0     H59992   4.503  11.021  10.431  2.8438  0.7227  0.7532
  435MOL0     H59993   4.604  11.143  10.625  1.5719 -0.1798  1.7885
  435MOL0     H59994   4.773  11.127  10.813  0.3342  0.2412 -0.4924
  435MOL0     H59995   4.640  11.245  10.851 -1.1880 -2.1066 -2.1439
  435MOL0     H59996   4.670  11.197  11.091 -1.3209 -1.1121 -0.5319
  435MOL0     H59997   4.781  11.070  11.051  1.9674  1.2994  2.5395
  435MOL0     H59998   4.827  11.373  10.992 -2.1416 -0.9471 -2.4487
  435MOL0     H59999   4.927  11.245  10.937 -1.1835  1.4235 -1.8417
  435MOL0     H60000   4.876  11.274  11.230 -0.5610 -2.1411 -0.5799
  435MOL0     H60001   4.986  11.384  11.144  0.9271 -1.1403  0.1516
  435MOL0     H60002   5.083  11.172  11.046  1.1996  0.1096  0.2827
  435MOL0     H60003   5.146  11.241  11.189 -0.5604  0.2535  0.3412
  435MOL0     H60004   4.941  11.009  11.181 -0.2396 -0.8822 -0.1101
  435MOL0     H60005   5.012  11.082  11.327  1.2343 -1.9415 -0.3197
  435MOL0     H60006   5.241  11.024  11.208 -0.4389  0.4919  0.7017
  435MOL0     H60007   5.126  10.914  11.108 -0.9812 -1.0549  0.4459
  435MOL0     H60008   5.209  10.778  11.260 -1.9134 -1.5260 -0.3984
  435MOL0     H60009   5.043  10.818  11.321 -1.4541  2.7173  2.0943
  435MOL0     H60010   4.403  10.874  10.901  0.7439 -3.0069 -0.1613
  435MOL0     H60011   4.311  10.753  10.708  1.4174 -0.6080  3.2077
  435MOL0     H60012   4.125  10.925  10.135 -0.0562  0.8066 -2.0479
  435MOL0     H60013   4.005  10.776   9.980  0.3999 -1.6402 -1.3514
  435MOL0     H60014   2.651   9.684   9.600 -0.1961  1.2619 -0.4440
  435MOL0     H60015   2.511   9.500   9.693 -0.9183 -0.7704  0.2281
  435MOL0     H60016   2.201   9.187   9.471  0.6806  1.0909  0.6384
  435MOL0     H60017   2.039   8.999   9.453 -0.9457 -2.2493  1.2197
  435MOL0     H60018   1.913   8.833   9.477  0.5750 -2.9960  0.9074
  435MOL0     H60019   1.802   8.761   9.570 -0.0073 -0.7179 -3.1054
  435MOL0     H60020   1.688   8.825   9.375  3.2654 -1.9232  1.6589
  435MOL0     H60021   1.747   8.991   9.394 -0.6646 -0.4304  0.5132
  435MOL0     H60022   1.555   8.879   9.607  1.3114  1.2670  1.9073
  435MOL0     H60023   1.617   9.039   9.588 -1.2681 -0.5427  0.9275
  435MOL0     H60024   1.490   9.077   9.381 -0.6385 -2.3714 -3.3806
  435MOL0     H60025   1.383   9.033   9.508 -1.4231 -1.6017 -1.2679
  435MOL0     H60026   1.370   8.736   9.204  1.5102  2.1548 -1.5592
  435MOL0     H60027   1.847   9.156   9.802  2.0115  1.4996  2.7446
  435MOL0     H60028   2.045   9.290   9.940  0.7236 -0.1053  1.4338
  435MOL0     H60029   2.053   9.442   9.863  1.6991 -1.1238  0.3706
  435MOL0     H60030   1.890   9.360   9.896  0.4607 -2.4203  1.0695
  436MOL0     O60031   9.314   1.190   8.191  0.0602  0.3827 -0.4911
  436MOL0     C60032   9.294   1.270   8.290  1.1982 -0.7942  0.0677
  436MOL0     O60033   9.194   1.367   8.293  0.4386 -0.4211  0.1220
  436MOL0     C60034   9.097   1.359   8.202 -0.0281 -0.1365  0.1752
  436MOL0     C60035   9.110   1.380   8.061 -1.0033 -0.7618 -0.1133
  436MOL0     C60036   8.993   1.383   7.977 -0.6346  0.1937  0.2771
  436MOL0     C60037   8.874   1.359   8.029 -0.9012  1.1932 -1.8690
  436MOL0     O60038   8.773   1.338   7.952  0.2296 -0.5443 -0.2672
  436MOL0     C60039   8.655   1.412   7.972 -1.0063  0.7431 -0.2337
  436MOL0     C60040   8.652   1.524   7.871  0.4818  0.2225 -0.4356
  436MOL0     C60041   8.742   1.650   7.907  0.2254  0.4983  0.3918
  436MOL0     C60042   8.717   1.765   7.813 -0.2526  0.4801  0.1230
  436MOL0     C60043   8.795   1.885   7.856  0.5136 -0.1271  0.5546
  436MOL0     C60044   8.823   1.975   7.729 -0.8105 -0.0151 -0.0765
  436MOL0     C60045   8.929   2.075   7.773 -0.3273  0.7641  0.3005
  436MOL0     C60046   9.080   2.013   7.764 -0.3246  0.0063 -0.6166
  436MOL0     N60047   9.169   2.109   7.826 -0.0241 -0.4777  0.3688
  436MOL0     C60048   9.179   2.239   7.781 -0.1535 -0.1261 -0.2868
  436MOL0     C60049   9.270   2.297   7.861 -0.4816  0.2450  0.2496
  436MOL0     C60050   9.332   2.438   7.848 -0.1326  0.5365  0.0310
  436MOL0     C60051   9.274   2.498   7.717 -0.0724  0.1981  0.6376
  436MOL0     C60052   9.342   2.640   7.681 -0.2987  0.0217  0.6550
  436MOL0     C60053   9.496   2.625   7.674  1.0741  0.0682  0.3515
  436MOL0     O60054   9.563   2.745   7.624 -0.0886  0.5689  0.8445
  436MOL0     C60055   9.698   2.734   7.634  0.2381  0.2723 -0.0192
  436MOL0     C60056   9.772   2.660   7.729 -0.8097  0.0186 -0.5770
  436MOL0     C60057   9.909   2.656   7.733 -0.0272 -0.3580  0.4090
  436MOL0     C60058   9.975   2.544   7.806 -0.1001  0.5145 -0.5197
  436MOL0     C60059   9.986   2.749   7.639  0.0898 -0.0862 -0.0096
  436MOL0     C60060  10.135   2.750   7.637 -0.4831  0.0472  0.6262
  436MOL0     O60061  10.182   2.857   7.558  0.0755  0.1248 -0.4381
  436MOL0     C60062  10.306   2.878   7.502  0.9369  0.2456  0.0415
  436MOL0     C60063  10.428   2.840   7.567 -0.4738  0.7405 -0.3543
  436MOL0     C60064  10.554   2.872   7.501 -0.4382 -0.1172 -1.2576
  436MOL0     C60065  10.555   2.953   7.387  0.2166  0.1151 -0.3024
  436MOL0     O60066  10.682   2.982   7.337  0.6024  0.0255 -0.5014
  436MOL0     C60067  10.704   3.002   7.193 -0.0994  0.1288 -0.2460
  436MOL0     C60068  10.700   3.145   7.148  0.5212  0.2612  0.0933
  436MOL0     C60069  10.766   3.248   7.233 -0.3848 -0.3659 -0.6454
  436MOL0     C60070  10.900   3.212   7.278 -1.1078  0.1408  0.2812
  436MOL0     C60071  10.955   3.323   7.370  0.5868 -0.2055  0.0814
  436MOL0     C60072  11.104   3.300   7.418 -0.8913  0.5998  0.1194
  436MOL0     C60073  11.177   3.423   7.478  0.1406 -0.6156 -0.0606
  436MOL0     C60074  11.292   3.383   7.576 -0.4431  0.0844  0.5672
  436MOL0    Cl60075  11.416   3.525   7.597 -0.1175  0.0778  0.2555
  436MOL0     C60076  10.435   2.989   7.326 -0.2849  0.3848  0.0489
  436MOL0     C60077  10.313   2.950   7.377 -0.1271  0.4340 -0.2170
  436MOL0     O60078  10.206   2.669   7.696 -0.0471 -0.0171 -0.1831
  436MOL0     C60079   9.909   2.830   7.557 -0.4463  0.9667  0.5305
  436MOL0     C60080   9.770   2.826   7.558 -0.9034  1.0798  0.6130
  436MOL0     N60081   9.316   2.205   7.951  0.3211 -0.3376 -0.6340
  436MOL0     N60082   9.260   2.086   7.924  0.6657 -1.1054  0.2401
  436MOL0     C60083   8.861   1.338   8.169  0.0511  0.0391 -0.6002
  436MOL0     C60084   8.971   1.347   8.253  0.7036  0.4100  0.1619
  436MOL0     C60085   9.384   1.238   8.405 -0.2227 -0.1864 -0.3406
  436MOL0     C60086   9.445   1.107   8.413 -0.4586 -0.1645  0.3502
  436MOL0     C60087   9.527   1.086   8.520  0.6206  0.3119  0.2000
  436MOL0     C60088   9.541   1.181   8.624 -0.4838 -0.7732  0.3686
  436MOL0     O60089   9.630   1.165   8.731  0.0445 -0.4640 -0.7303
  436MOL0     C60090   9.749   1.091   8.698  0.0688  0.1095  0.0659
  436MOL0     C60091   9.874   1.148   8.778 -0.1446 -0.8524 -0.4702
  436MOL0     C60092   9.849   1.105   8.920  0.4138  0.7151 -0.3576
  436MOL0     C60093   9.980   1.125   9.015  0.5715  0.3669 -0.4559
  436MOL0     C60094   9.998   1.262   9.066 -0.1592 -0.0521 -0.2458
  436MOL0     C60095  10.005   1.374   9.109  0.1322  0.4554  1.3478
  436MOL0     C60096   9.481   1.300   8.612  0.0558  0.1598 -0.5021
  436MOL0     C60097   9.394   1.333   8.512 -0.1313  0.2336 -0.1131
  436MOL0     C60098   9.316   1.457   8.530 -0.1444  0.4421  1.0870
  436MOL0     H60099   9.209   1.402   8.023 -1.6958 -1.2356 -2.3049
  436MOL0     H60100   9.018   1.394   7.872  2.2198  2.5292  1.0590
  436MOL0     H60101   8.644   1.463   8.069  3.3293  2.9429 -0.6612
  436MOL0     H60102   8.579   1.337   7.948 -0.6813 -0.1888  1.4941
  436MOL0     H60103   8.682   1.488   7.772  2.3317  3.7539 -1.3279
  436MOL0     H60104   8.547   1.555   7.866 -0.1436 -1.7062  0.1557
  436MOL0     H60105   8.725   1.694   8.005 -0.1159 -0.3397  0.7187
  436MOL0     H60106   8.844   1.610   7.896 -0.0286 -0.9425  2.6501
  436MOL0     H60107   8.752   1.737   7.714  1.8466 -0.5129  1.0641
  436MOL0     H60108   8.610   1.785   7.807 -0.4534  1.2571  3.8286
  436MOL0     H60109   8.883   1.841   7.904  1.8020 -0.5840 -2.0696
  436MOL0     H60110   8.738   1.941   7.931  1.8342 -0.6826  2.0378
  436MOL0     H60111   8.855   1.917   7.642 -4.0222  1.8992 -2.7603
  436MOL0     H60112   8.742   2.041   7.699 -0.9743  0.5072  1.4264
  436MOL0     H60113   8.917   2.121   7.871  4.5352 -0.8050  1.8767
  436MOL0     H60114   8.921   2.154   7.697 -0.7509 -1.8974 -2.6385
  436MOL0     H60115   9.089   1.915   7.811  2.4253  0.1986 -0.5579
  436MOL0     H60116   9.092   1.993   7.658 -0.3701 -1.2636 -0.3950
  436MOL0     H60117   9.126   2.294   7.703  1.2604  0.5020 -0.8529
  436MOL0     H60118   9.441   2.436   7.847 -0.0563 -0.8903  2.8521
  436MOL0     H60119   9.304   2.501   7.934 -1.9401  0.2198 -0.2792
  436MOL0     H60120   9.286   2.438   7.627  0.3360 -0.6409  1.2403
  436MOL0     H60121   9.166   2.517   7.727 -0.5258 -2.1363  0.7562
  436MOL0     H60122   9.289   2.669   7.590  1.1717  1.1847  0.1376
  436MOL0     H60123   9.322   2.706   7.766  1.2006  0.2204  0.8754
  436MOL0     H60124   9.518   2.627   7.782  0.4454  1.6343  0.4887
  436MOL0     H60125   9.521   2.536   7.617  0.7101 -2.6275  4.0552
  436MOL0     H60126   9.711   2.598   7.794 -1.8522  0.6854 -0.9027
  436MOL0     H60127  10.052   2.567   7.880 -1.6099 -3.1607  2.5390
  436MOL0     H60128  10.002   2.457   7.745  5.1648  2.2863 -1.2174
  436MOL0     H60129   9.896   2.502   7.870  0.0743 -0.2613 -0.7980
  436MOL0     H60130  10.429   2.780   7.658  0.0110  0.6974 -0.3876
  436MOL0     H60131  10.637   2.812   7.536 -2.4984 -2.4143  0.0122
  436MOL0     H60132  10.802   2.956   7.180 -0.2673 -0.4162  0.3583
  436MOL0     H60133  10.632   2.947   7.132 -2.0379  1.6240  0.5689
  436MOL0     H60134  10.742   3.160   7.048 -0.4144  2.1279 -0.0813
  436MOL0     H60135  10.594   3.173   7.138  1.0854  2.4533 -0.3508
  436MOL0     H60136  10.705   3.262   7.323  0.7538 -1.0818  0.2775
  436MOL0     H60137  10.763   3.342   7.178 -0.4966  1.3476  2.1090
  436MOL0     H60138  10.966   3.204   7.191 -0.0243  5.0486  0.3532
  436MOL0     H60139  10.891   3.116   7.328 -0.8312  0.1534  0.3562
  436MOL0     H60140  10.959   3.421   7.321  1.3005 -0.1483  0.2409
  436MOL0     H60141  10.892   3.340   7.458  0.2939  0.2123 -0.2063
  436MOL0     H60142  11.164   3.274   7.329 -1.1924  1.8745 -0.4733
  436MOL0     H60143  11.090   3.215   7.486 -1.5474 -0.6897 -1.5362
  436MOL0     H60144  11.112   3.494   7.530  2.6738  0.5649  1.6835
  436MOL0     H60145  11.236   3.468   7.397  2.4350 -0.2183  1.7147
  436MOL0     H60146  11.346   3.302   7.528 -0.5159  0.5732 -0.3541
  436MOL0     H60147  11.252   3.340   7.668 -1.4594  2.4441  1.3033
  436MOL0     H60148  10.443   3.047   7.235  1.8713  0.6281  0.3387
  436MOL0     H60149  10.220   2.970   7.324  0.1001  1.8566 -0.1017
  436MOL0     H60150   9.953   2.909   7.498 -0.1685 -0.7801 -1.7464
  436MOL0     H60151   9.715   2.895   7.495  0.5945  1.9028  0.1645
  436MOL0     H60152   8.764   1.313   8.212 -1.3576  1.9153 -2.4886
  436MOL0     H60153   8.940   1.344   8.357  1.0477  1.6759  0.3192
  436MOL0     H60154   9.424   1.035   8.334  0.2264 -0.0489  0.0544
  436MOL0     H60155   9.571   0.987   8.513  1.1627  0.5787 -0.1980
  436MOL0     H60156   9.744   0.984   8.718  2.1000 -0.5653 -2.4466
  436MOL0     H60157   9.777   1.095   8.592  1.8908  1.0735  0.5394
  436MOL0     H60158   9.883   1.257   8.784 -2.4915 -0.5430 -1.4613
  436MOL0     H60159   9.959   1.099   8.730 -1.6496 -4.3930  0.2156
  436MOL0     H60160   9.754   1.131   8.968  0.2158 -0.0805 -0.3100
  436MOL0     H60161   9.843   0.996   8.917  1.2027  0.6697 -0.5312
  436MOL0     H60162  10.070   1.091   8.964 -0.5861 -1.7114 -1.2057
  436MOL0     H60163   9.967   1.060   9.102 -1.0332 -0.0144 -0.9523
  436MOL0     H60164  10.012   1.477   9.138  0.7903  0.1633  2.2561
  436MOL0     H60165   9.487   1.378   8.687 -2.7683  0.3113 -0.3371
  436MOL0     H60166   9.341   1.508   8.623  1.3370  0.8854  0.4754
  436MOL0     H60167   9.332   1.529   8.449  1.0944  2.4684  3.0044
  436MOL0     H60168   9.210   1.430   8.535  0.5584 -2.8776  0.6404
  437MOL0     O60169   7.784   0.735   2.182 -0.0811  0.1309 -0.0388
  437MOL0     C60170   7.728   0.624   2.153 -0.2455 -1.0725 -0.1610
  437MOL0     O60171   7.732   0.516   2.228 -0.1918  0.2718  0.8760
  437MOL0     C60172   7.834   0.499   2.320 -0.1941 -0.3435  0.1595
  437MOL0     C60173   7.967   0.544   2.315 -0.8616  1.4891  0.0256
  437MOL0     C60174   8.059   0.505   2.415 -0.1557 -0.8268  1.0775
  437MOL0     C60175   8.014   0.425   2.526  0.2221 -1.1456  0.0667
  437MOL0     O60176   8.091   0.374   2.622  0.2090 -0.1250 -0.7567
  437MOL0     C60177   8.235   0.391   2.619  1.1100  0.0144 -0.1061
  437MOL0     C60178   8.273   0.374   2.762  0.2091  0.4555 -0.7145
  437MOL0     C60179   8.291   0.221   2.795 -0.6399  0.0680  0.2477
  437MOL0     C60180   8.425   0.169   2.721  0.6058  0.3346  0.5157
  437MOL0     C60181   8.499   0.055   2.785 -0.7582  0.5591  0.1217
  437MOL0     C60182   8.545   0.075   2.923 -0.2367  0.2208 -0.7136
  437MOL0     C60183   8.619  -0.039   2.983 -0.5957  0.7859  0.1567
  437MOL0     C60184   8.656  -0.017   3.126  0.6556  0.4037 -0.0423
  437MOL0     N60185   8.745  -0.122   3.168 -0.0129  0.4031 -0.6294
  437MOL0     C60186   8.711  -0.259   3.180 -0.2808 -1.0797 -0.1070
  437MOL0     C60187   8.828  -0.319   3.214  0.2362  0.8379 -0.7438
  437MOL0     C60188   8.834  -0.470   3.234  0.0593 -0.2273  0.2602
  437MOL0     C60189   8.960  -0.528   3.165 -0.3438  0.6556 -0.1764
  437MOL0     C60190   8.946  -0.524   3.016 -0.1146  1.3330 -0.3710
  437MOL0     C60191   9.062  -0.598   2.946  0.0364  0.2522  0.0185
  437MOL0     O60192   9.048  -0.737   2.934  0.1683 -0.0403  0.1747
  437MOL0     C60193   9.156  -0.812   2.890  0.8398 -1.0872 -0.5627
  437MOL0     C60194   9.276  -0.758   2.855 -0.2749  0.1000  0.2396
  437MOL0     C60195   9.379  -0.842   2.815 -0.3284 -0.1191  0.4530
  437MOL0     C60196   9.504  -0.772   2.776 -0.1878 -0.6323 -0.0279
  437MOL0     C60197   9.357  -0.979   2.802  0.2878 -0.0652 -0.4661
  437MOL0     C60198   9.458  -1.083   2.762 -0.2613  0.3679 -0.4297
  437MOL0     O60199   9.431  -1.187   2.672  0.6750 -0.0663 -0.2547
  437MOL0     C60200   9.511  -1.299   2.668 -0.0190 -0.1730  0.5004
  437MOL0     C60201   9.552  -1.353   2.541 -0.6967 -0.7974 -1.0976
  437MOL0     C60202   9.625  -1.469   2.535 -0.4125 -0.1961  0.1621
  437MOL0     C60203   9.660  -1.536   2.652 -0.4429 -0.3903 -0.8828
  437MOL0     O60204   9.737  -1.652   2.661 -0.5793 -0.3436  0.8493
  437MOL0     C60205   9.714  -1.742   2.554 -0.1506 -0.1711  0.0359
  437MOL0     C60206   9.765  -1.876   2.579 -0.0695 -0.3308 -0.1289
  437MOL0     C60207   9.918  -1.882   2.582 -0.0675 -0.3119  0.4396
  437MOL0     C60208   9.955  -2.013   2.652  0.0545  0.4385 -0.0342
  437MOL0     C60209  10.107  -2.023   2.677  0.1520 -0.6750  0.5273
  437MOL0     C60210  10.125  -2.165   2.738  0.7308 -0.7404  0.2485
  437MOL0     C60211  10.263  -2.163   2.800 -0.5502  0.1147  0.1555
  437MOL0     C60212  10.301  -2.299   2.856 -0.3707 -0.0970 -0.1828
  437MOL0    Cl60213  10.192  -2.337   2.989  0.2049 -0.0850 -0.1508
  437MOL0     C60214   9.611  -1.481   2.774 -0.0096  0.3834 -0.1199
  437MOL0     C60215   9.533  -1.371   2.784  0.1678 -0.6265 -0.1642
  437MOL0     O60216   9.569  -1.059   2.804  0.1647 -0.3044 -0.2723
  437MOL0     C60217   9.230  -1.031   2.825  0.6276 -0.4186 -0.3451
  437MOL0     C60218   9.128  -0.946   2.876 -0.4544 -0.8473  0.6775
  437MOL0     N60219   8.921  -0.224   3.225  0.2569 -0.4408  0.5169
  437MOL0     N60220   8.874  -0.113   3.195 -0.8813 -0.8524 -0.5951
  437MOL0     C60221   7.872   0.390   2.531 -0.3755 -0.0802  0.3087
  437MOL0     C60222   7.785   0.428   2.427  0.4417  0.7965  0.0975
  437MOL0     C60223   7.661   0.613   2.019  0.5631 -0.9989 -1.0577
  437MOL0     C60224   7.604   0.493   1.987  0.3392 -0.4975 -0.0525
  437MOL0     C60225   7.523   0.468   1.877 -0.5611  0.1235  0.4583
  437MOL0     C60226   7.502   0.565   1.785 -0.7571 -0.0569 -0.0049
  437MOL0     O60227   7.425   0.560   1.675 -1.1305  0.0832 -0.0333
  437MOL0     C60228   7.355   0.435   1.644  0.3386  1.1629 -0.2815
  437MOL0     C60229   7.291   0.435   1.499 -0.0256 -0.4293  0.7394
  437MOL0     C60230   7.167   0.531   1.464  0.3458 -0.4834  0.5906
  437MOL0     C60231   7.092   0.485   1.343  0.5380  0.7670  0.4477
  437MOL0     C60232   7.168   0.420   1.224 -0.6778 -0.7224 -1.1632
  437MOL0     C60233   7.231   0.383   1.132 -0.1604 -0.4992 -0.2216
  437MOL0     C60234   7.565   0.690   1.800  0.7453 -0.2780 -0.6321
  437MOL0     C60235   7.649   0.715   1.916 -0.0459  1.0903 -0.8076
  437MOL0     C60236   7.717   0.848   1.925 -0.4518 -0.6974 -0.2839
  437MOL0     H60237   8.010   0.603   2.235  3.9778  0.9603  1.9330
  437MOL0     H60238   8.163   0.525   2.391 -0.7407  0.4540 -0.5031
  437MOL0     H60239   8.264   0.493   2.593 -0.4156  0.6534  0.5639
  437MOL0     H60240   8.292   0.317   2.562  0.0285 -0.6980 -0.2915
  437MOL0     H60241   8.369   0.425   2.775  0.4696 -0.0883 -0.4670
  437MOL0     H60242   8.203   0.410   2.837  2.7224 -0.1302  2.1234
  437MOL0     H60243   8.288   0.212   2.904 -2.2856 -1.3333  0.1467
  437MOL0     H60244   8.209   0.156   2.762 -2.0404  1.7781  0.1668
  437MOL0     H60245   8.394   0.134   2.622 -0.3805 -0.2724  1.0201
  437MOL0     H60246   8.489   0.258   2.717 -0.1713  0.9811  1.8113
  437MOL0     H60247   8.595   0.048   2.734  2.5519 -0.4512  5.7171
  437MOL0     H60248   8.441  -0.038   2.777 -0.8448  0.6635 -0.5255
  437MOL0     H60249   8.600   0.170   2.920 -0.6199  0.4365 -2.8167
  437MOL0     H60250   8.462   0.097   2.991  0.5364 -0.9330  0.6581
  437MOL0     H60251   8.704  -0.067   2.921 -1.4484 -4.4712  0.8822
  437MOL0     H60252   8.555  -0.128   2.984  2.6975 -1.7994 -0.5450
  437MOL0     H60253   8.695   0.084   3.140  2.7891 -0.0272 -2.1807
  437MOL0     H60254   8.567  -0.030   3.188  1.0691  1.8226  0.8955
  437MOL0     H60255   8.611  -0.302   3.172 -2.2122  3.1007 -1.4580
  437MOL0     H60256   8.743  -0.524   3.204 -0.8984  0.1539  2.3062
  437MOL0     H60257   8.835  -0.483   3.343 -0.6535  3.0425  0.7712
  437MOL0     H60258   9.046  -0.467   3.195 -0.1635 -0.0620  0.8126
  437MOL0     H60259   8.975  -0.634   3.188 -1.5502 -0.0093 -2.2287
  437MOL0     H60260   8.851  -0.566   2.982  0.7833  0.4230 -1.8358
  437MOL0     H60261   8.949  -0.420   2.983  0.0604  1.1250 -1.0096
  437MOL0     H60262   9.056  -0.555   2.846 -0.3032  0.2828  0.0498
  437MOL0     H60263   9.158  -0.577   2.994 -0.2995  3.6282 -0.5661
  437MOL0     H60264   9.293  -0.651   2.852  1.1713 -0.1293 -1.0964
  437MOL0     H60265   9.570  -0.764   2.864 -0.9820  0.8798  0.4639
  437MOL0     H60266   9.491  -0.670   2.739 -1.0878 -0.8006 -0.1906
  437MOL0     H60267   9.553  -0.831   2.698 -1.3669 -1.1793 -0.3654
  437MOL0     H60268   9.542  -1.296   2.449  2.2572 -1.0653 -1.6686
  437MOL0     H60269   9.646  -1.516   2.439 -2.0749 -1.9869  0.5927
  437MOL0     H60270   9.606  -1.750   2.535 -0.1234 -0.2879 -0.0674
  437MOL0     H60271   9.770  -1.707   2.467  2.2468  0.8830  1.8706
  437MOL0     H60272   9.728  -1.923   2.671 -0.2557  0.6082  0.2830
  437MOL0     H60273   9.732  -1.944   2.499 -0.4066  3.2886 -3.3620
  437MOL0     H60274   9.961  -1.792   2.627 -0.4733  0.2817 -0.3264
  437MOL0     H60275   9.958  -1.881   2.480 -1.8705  1.3568 -0.3177
  437MOL0     H60276   9.935  -2.103   2.593  3.7197 -0.6978  0.1936
  437MOL0     H60277   9.895  -2.022   2.743 -2.1731 -0.1221 -1.4803
  437MOL0     H60278  10.165  -2.010   2.585  0.5362  5.4685  1.2568
  437MOL0     H60279  10.130  -1.942   2.746 -2.0031 -0.7159  1.3612
  437MOL0     H60280  10.111  -2.235   2.655  2.7723  1.2031 -1.8750
  437MOL0     H60281  10.049  -2.185   2.814 -0.2955  1.6893 -0.0545
  437MOL0     H60282  10.277  -2.089   2.880 -3.1529 -0.5043  1.2694
  437MOL0     H60283  10.338  -2.139   2.723 -0.0851 -2.9726 -0.4745
  437MOL0     H60284  10.401  -2.309   2.899  0.5475  2.1319 -1.6038
  437MOL0     H60285  10.294  -2.374   2.777  1.4185 -1.0147  0.4591
  437MOL0     H60286   9.646  -1.524   2.867  0.7362  1.8100  0.2838
  437MOL0     H60287   9.499  -1.336   2.881 -2.3048  1.7857 -1.7405
  437MOL0     H60288   9.202  -1.134   2.804  1.1023 -0.4325 -0.9360
  437MOL0     H60289   9.040  -0.995   2.917  0.5424 -3.2604  0.0920
  437MOL0     H60290   7.842   0.328   2.614  1.3343 -0.5375  0.6314
  437MOL0     H60291   7.678   0.414   2.439  0.7854 -1.7897  0.8048
  437MOL0     H60292   7.598   0.423   2.071  0.8812 -1.2508 -0.6269
  437MOL0     H60293   7.484   0.369   1.860 -1.6587  0.4714  0.8930
  437MOL0     H60294   7.426   0.352   1.650 -1.0659 -0.0686  0.0530
  437MOL0     H60295   7.291   0.396   1.724 -0.7828  0.5573 -1.4360
  437MOL0     H60296   7.255   0.333   1.484  0.5433 -0.4073 -1.1367
  437MOL0     H60297   7.365   0.446   1.419 -0.3300 -1.4993  0.2817
  437MOL0     H60298   7.099   0.537   1.549  2.0834  3.3855  1.9525
  437MOL0     H60299   7.200   0.633   1.443 -0.1432 -0.2208  1.0750
  437MOL0     H60300   7.045   0.572   1.296 -1.4985 -0.1146  0.7524
  437MOL0     H60301   7.023   0.407   1.378 -0.5385  1.1768 -0.6794
  437MOL0     H60302   7.281   0.366   1.039 -0.5675  1.4495 -0.8461
  437MOL0     H60303   7.549   0.770   1.729  2.0289 -0.2370 -0.9017
  437MOL0     H60304   7.689   0.906   1.836 -2.7866 -0.1202  0.7389
  437MOL0     H60305   7.695   0.906   2.015  1.2013 -0.4552 -0.0067
  437MOL0     H60306   7.826   0.843   1.928 -0.4204 -0.2211 -0.3826
  438MOL0     O60307   4.369   4.852   2.448 -0.1301  0.7161  0.3436
  438MOL0     C60308   4.288   4.782   2.384 -0.4785  0.2888 -0.1997
  438MOL0     O60309   4.326   4.684   2.307  0.4269 -0.2188 -0.3579
  438MOL0     C60310   4.456   4.688   2.260  0.9947  0.3663  0.7288
  438MOL0     C60311   4.517   4.782   2.178  0.2452  0.4802 -0.1245
  438MOL0     C60312   4.651   4.765   2.143  0.4851  0.3994  0.1825
  438MOL0     C60313   4.720   4.656   2.178 -0.5776 -0.5674  0.6602
  438MOL0     O60314   4.854   4.655   2.149 -0.4087  0.0751  0.1170
  438MOL0     C60315   4.894   4.694   2.014  0.1309 -0.2087 -0.2955
  438MOL0     C60316   5.042   4.650   2.002 -0.3216  0.4669 -0.4561
  438MOL0     C60317   5.062   4.499   2.015 -0.2968 -0.3701 -0.4534
  438MOL0     C60318   5.210   4.470   2.011 -0.2282 -0.5042 -0.1120
  438MOL0     C60319   5.224   4.315   2.021 -0.6695  0.0761 -0.9060
  438MOL0     C60320   5.369   4.266   2.029  0.2590  0.8365  0.3638
  438MOL0     C60321   5.454   4.270   2.161  0.2428  0.0258 -0.3024
  438MOL0     C60322   5.592   4.201   2.148 -1.0947 -0.3248 -0.1498
  438MOL0     N60323   5.706   4.270   2.071  0.4389  0.4328 -0.2185
  438MOL0     C60324   5.771   4.215   1.969 -0.4562 -0.2833  0.6261
  438MOL0     C60325   5.885   4.291   1.959  0.5571 -0.1369  0.5625
  438MOL0     C60326   5.998   4.262   1.866 -0.2754 -0.4563  0.5325
  438MOL0     C60327   6.066   4.402   1.826 -0.2113 -0.6621  0.3786
  438MOL0     C60328   6.191   4.377   1.745  1.0548  0.1609  0.8890
  438MOL0     C60329   6.238   4.509   1.682 -0.0536 -0.2881  1.1375
  438MOL0     O60330   6.329   4.572   1.766  0.1586  0.0169 -0.3566
  438MOL0     C60331   6.467   4.542   1.775 -0.8213  0.5567 -0.5049
  438MOL0     C60332   6.524   4.427   1.717  0.8262 -0.0050 -0.0954
  438MOL0     C60333   6.664   4.399   1.729  0.1144  0.2677 -0.7534
  438MOL0     C60334   6.712   4.276   1.654  0.8755  0.5643  0.9201
  438MOL0     C60335   6.745   4.480   1.813  0.8727  0.4111 -0.0629
  438MOL0     C60336   6.896   4.463   1.829  0.5075  0.3509  0.5548
  438MOL0     O60337   6.933   4.466   1.960  0.4685 -0.2587 -0.5105
  438MOL0     C60338   7.066   4.430   1.987 -0.3784  0.2451 -0.5061
  438MOL0     C60339   7.088   4.299   2.041  0.2795 -0.0798  0.5146
  438MOL0     C60340   7.215   4.260   2.050 -0.9090  0.5874  0.1320
  438MOL0     C60341   7.330   4.347   2.032  0.1804  0.0927  0.1944
  438MOL0     O60342   7.451   4.295   2.063  0.2038  0.2521  0.1417
  438MOL0     C60343   7.559   4.388   2.080  0.3329 -0.0516  0.3671
  438MOL0     C60344   7.694   4.315   2.107 -0.4610  0.6280  0.4925
  438MOL0     C60345   7.803   4.413   2.132  0.1707  0.2263  1.3666
  438MOL0     C60346   7.853   4.449   1.988 -0.0864  0.3719 -0.3896
  438MOL0     C60347   7.967   4.545   1.991  0.0135  0.1294 -0.7746
  438MOL0     C60348   8.095   4.479   2.034  0.4846  0.3031 -0.1772
  438MOL0     C60349   8.183   4.563   2.125  0.1328 -0.0140  0.0871
  438MOL0     C60350   8.119   4.562   2.258  0.1292  0.0375  0.2379
  438MOL0    Cl60351   8.200   4.667   2.382 -0.1182 -0.0552 -0.4928
  438MOL0     C60352   7.299   4.482   1.995  0.1347 -0.2267  0.9109
  438MOL0     C60353   7.170   4.524   1.982 -0.0461 -0.4398  0.4413
  438MOL0     O60354   6.964   4.468   1.729  0.1555  0.5551 -0.3673
  438MOL0     C60355   6.684   4.585   1.884  0.3239  0.6057 -0.3848
  438MOL0     C60356   6.548   4.610   1.873  0.3358 -0.2850  0.3236
  438MOL0     N60357   5.878   4.387   2.050 -0.4280 -0.9483 -0.4973
  438MOL0     N60358   5.780   4.374   2.121  0.0419 -0.0984 -0.5556
  438MOL0     C60359   4.666   4.563   2.259 -0.1300 -0.0017 -0.1747
  438MOL0     C60360   4.539   4.579   2.303 -0.7669  0.1754 -0.0228
  438MOL0     C60361   4.145   4.813   2.415  0.7478 -0.3153 -0.4522
  438MOL0     C60362   4.119   4.906   2.520  0.2161  0.4076 -0.7718
  438MOL0     C60363   3.996   4.945   2.541 -0.8944 -1.0116 -0.1703
  438MOL0     C60364   3.890   4.907   2.470 -0.0863  1.1231  0.2828
  438MOL0     O60365   3.770   4.967   2.495  0.3044  0.0783  0.2897
  438MOL0     C60366   3.645   4.889   2.485 -0.6848 -0.3626  0.1530
  438MOL0     C60367   3.550   4.948   2.597  0.0444  0.0960  0.8176
  438MOL0     C60368   3.430   4.854   2.602 -1.2241  0.4796 -0.2662
  438MOL0     C60369   3.325   4.906   2.699 -0.6669  0.3462  1.1631
  438MOL0     C60370   3.216   4.811   2.721  0.3549  0.3940  0.2511
  438MOL0     C60371   3.140   4.724   2.754 -0.0139  0.3678 -0.7360
  438MOL0     C60372   3.909   4.809   2.365  0.3224 -0.6336 -0.5438
  438MOL0     C60373   4.034   4.761   2.339  0.1249  0.5024  0.0710
  438MOL0     C60374   4.053   4.655   2.227  0.1488  0.4842 -0.8910
  438MOL0     H60375   4.463   4.865   2.132 -0.5184  2.5825  4.0740
  438MOL0     H60376   4.689   4.856   2.097 -0.6937 -0.1300 -1.9966
  438MOL0     H60377   4.900   4.802   2.001  0.5600 -0.1585  0.2341
  438MOL0     H60378   4.833   4.654   1.933 -1.9789  2.2816 -0.0342
  438MOL0     H60379   5.077   4.682   1.904 -1.9624  1.0395 -0.8848
  438MOL0     H60380   5.107   4.700   2.074  0.6673 -2.6592  1.0144
  438MOL0     H60381   5.022   4.465   2.111 -0.8171  2.0265  0.2455
  438MOL0     H60382   5.012   4.438   1.939 -1.3392  0.3619 -0.3644
  438MOL0     H60383   5.259   4.494   1.916  0.2388 -0.5785  0.1073
  438MOL0     H60384   5.266   4.521   2.090 -1.1470  0.2721  0.0537
  438MOL0     H60385   5.180   4.279   1.928 -0.6920 -2.2386 -0.0617
  438MOL0     H60386   5.158   4.281   2.101  3.5819 -2.5558  1.9162
  438MOL0     H60387   5.357   4.161   2.002  0.0964  0.3212  2.3139
  438MOL0     H60388   5.433   4.315   1.955  2.4595 -1.2308  0.7865
  438MOL0     H60389   5.398   4.238   2.248 -0.1486  1.5866  0.0386
  438MOL0     H60390   5.470   4.376   2.178  0.0204 -0.2746  2.0335
  438MOL0     H60391   5.628   4.175   2.248  0.9143 -1.1170 -1.0417
  438MOL0     H60392   5.570   4.104   2.102  2.0413  0.0702 -2.8236
  438MOL0     H60393   5.735   4.134   1.907 -2.4194  3.2541 -3.3080
  438MOL0     H60394   5.966   4.193   1.788 -0.7006 -0.2864  0.5562
  438MOL0     H60395   6.079   4.224   1.930  0.9011  1.7223  0.4101
  438MOL0     H60396   5.996   4.462   1.768 -0.1568  0.2411  1.2306
  438MOL0     H60397   6.104   4.464   1.907  3.7878  0.0739 -1.7866
  438MOL0     H60398   6.273   4.340   1.808  2.5489 -0.3395 -1.2420
  438MOL0     H60399   6.172   4.302   1.668  0.4647  1.2166 -0.0105
  438MOL0     H60400   6.295   4.492   1.590 -3.5709  1.4040 -1.5970
  438MOL0     H60401   6.158   4.580   1.659  0.0216 -0.3632  0.6315
  438MOL0     H60402   6.466   4.355   1.660 -2.8777  0.0598  3.0990
  438MOL0     H60403   6.626   4.238   1.599  0.3017  0.6069  1.7601
  438MOL0     H60404   6.725   4.196   1.727 -0.9408  0.7209  1.4597
  438MOL0     H60405   6.800   4.294   1.592  0.3404 -0.9532 -0.3231
  438MOL0     H60406   7.009   4.230   2.066  1.7100 -1.9863 -0.0010
  438MOL0     H60407   7.240   4.159   2.081  0.5544  1.1663  0.9520
  438MOL0     H60408   7.557   4.456   1.994 -2.5503  0.0016  0.3717
  438MOL0     H60409   7.540   4.453   2.165  1.5981 -0.4379  0.9693
  438MOL0     H60410   7.671   4.250   2.192  1.4503 -1.1238 -0.2290
  438MOL0     H60411   7.716   4.238   2.032 -0.7365 -1.2884  2.3001
  438MOL0     H60412   7.881   4.361   2.188 -0.7402 -1.9672  0.7471
  438MOL0     H60413   7.770   4.506   2.179 -1.5230 -0.7757  2.2919
  438MOL0     H60414   7.774   4.495   1.930  0.2841 -0.0878 -1.2762
  438MOL0     H60415   7.893   4.364   1.931  2.4323  1.3868 -0.2803
  438MOL0     H60416   7.982   4.587   1.891  0.4328  0.5491 -0.5414
  438MOL0     H60417   7.935   4.618   2.066  1.6583  0.3214 -0.2041
  438MOL0     H60418   8.149   4.441   1.946 -1.0148 -0.8616 -0.6346
  438MOL0     H60419   8.075   4.382   2.081 -3.0381  0.5474 -0.9382
  438MOL0     H60420   8.189   4.669   2.099 -0.6150 -0.3570 -1.6308
  438MOL0     H60421   8.287   4.529   2.123  1.0484  2.5455  1.0274
  438MOL0     H60422   8.123   4.459   2.294 -2.2772 -0.7451 -1.4562
  438MOL0     H60423   8.014   4.592   2.259 -0.2702 -1.2470  1.6390
  438MOL0     H60424   7.372   4.563   1.998 -1.8982  1.8696 -1.5729
  438MOL0     H60425   7.146   4.629   1.964  0.4742 -0.1843  1.1704
  438MOL0     H60426   6.745   4.647   1.949  0.9401  2.2038 -2.3642
  438MOL0     H60427   6.502   4.668   1.952  2.0041 -2.0525  2.7658
  438MOL0     H60428   4.729   4.479   2.285 -1.5170 -0.8934  0.4148
  438MOL0     H60429   4.492   4.501   2.362  0.2206  0.2168  0.8410
  438MOL0     H60430   4.192   4.954   2.584 -0.4462  2.5182 -1.5207
  438MOL0     H60431   3.967   5.006   2.626 -0.6025 -2.3016  0.9062
  438MOL0     H60432   3.604   4.891   2.384 -0.2436  1.6343 -0.0175
  438MOL0     H60433   3.662   4.783   2.505  1.8722 -0.7679 -3.2898
  438MOL0     H60434   3.526   5.048   2.561 -0.7616 -0.3934 -0.0681
  438MOL0     H60435   3.598   4.947   2.696 -3.4177 -3.0337  2.6997
  438MOL0     H60436   3.383   4.830   2.507  2.2060 -3.5764 -1.2373
  438MOL0     H60437   3.460   4.751   2.622 -0.8799  0.0273 -2.7798
  438MOL0     H60438   3.291   5.000   2.654  0.7915 -1.3492 -4.2870
  438MOL0     H60439   3.374   4.922   2.795 -2.9813  0.1833  2.4509
  438MOL0     H60440   3.067   4.651   2.780  0.0885  1.4946  3.4665
  438MOL0     H60441   3.821   4.778   2.309 -0.8663 -0.6984  1.2795
  438MOL0     H60442   4.100   4.574   2.283 -2.5017 -1.3314 -1.1192
  438MOL0     H60443   3.956   4.624   2.186  0.7895 -1.4795 -0.9794
  438MOL0     H60444   4.121   4.690   2.148  2.2981 -1.4192  0.0038
  439MOL0     O60445   7.851   7.144   9.984 -0.5660  0.6009  0.5854
  439MOL0     C60446   7.905   7.065   9.908  0.2790 -0.8709  0.9896
  439MOL0     O60447   7.974   7.101   9.800  0.5088  1.2676 -0.1415
  439MOL0     C60448   7.924   7.214   9.742  0.3369 -1.0015  0.1629
  439MOL0     C60449   8.025   7.294   9.687 -0.9804 -1.1549 -0.9110
  439MOL0     C60450   7.986   7.405   9.603  0.7474 -0.7335 -0.3591
  439MOL0     C60451   7.849   7.444   9.588 -0.5938  0.3842  0.1946
  439MOL0     O60452   7.824   7.564   9.525  0.0598 -0.0723  0.3118
  439MOL0     C60453   7.865   7.681   9.600 -0.1267 -0.1481 -0.1613
  439MOL0     C60454   7.815   7.809   9.528  0.4629  0.0006 -0.0743
  439MOL0     C60455   7.819   7.928   9.628 -1.4717 -0.7797 -0.5851
  439MOL0     C60456   7.962   7.987   9.619 -0.6339  0.6484 -0.1081
  439MOL0     C60457   7.987   8.063   9.742 -0.3535 -0.4043  0.0318
  439MOL0     C60458   8.111   8.150   9.740 -0.6249 -0.6206  1.6842
  439MOL0     C60459   8.111   8.246   9.852  0.2792 -0.2583  0.0826
  439MOL0     C60460   8.248   8.320   9.851 -0.6040  0.4633 -0.4595
  439MOL0     N60461   8.365   8.246   9.914 -0.2867  0.6819 -0.1643
  439MOL0     C60462   8.476   8.193   9.847 -0.1760 -0.5949 -0.1811
  439MOL0     C60463   8.554   8.139   9.947  0.7000  0.7647 -0.2807
  439MOL0     C60464   8.690   8.090   9.931 -0.1903 -0.4335  0.0096
  439MOL0     C60465   8.790   8.170  10.012  0.2047 -0.2388  0.3976
  439MOL0     C60466   8.929   8.104   9.980  0.8429  0.1378 -0.2878
  439MOL0     C60467   9.047   8.145  10.072 -0.4941 -0.7216  0.3514
  439MOL0     O60468   9.020   8.079  10.203 -0.1503  0.7410  0.8261
  439MOL0     C60469   9.120   8.082  10.297  0.1857  0.2005 -0.3611
  439MOL0     C60470   9.239   8.144  10.287 -0.8643  0.1956 -0.5811
  439MOL0     C60471   9.332   8.139  10.392  0.3889 -1.3035  0.7847
  439MOL0     C60472   9.450   8.228  10.376  0.0116 -0.4171  0.4156
  439MOL0     C60473   9.304   8.074  10.513 -0.2030  0.6597  0.2167
  439MOL0     C60474   9.390   8.052  10.628 -0.2623  0.0180  0.9118
  439MOL0     O60475   9.323   8.032  10.748 -0.1864  0.3254 -0.8796
  439MOL0     C60476   9.402   8.009  10.857  0.7836 -0.6122 -0.1082
  439MOL0     C60477   9.467   7.882  10.879 -0.3904  0.1333  0.3403
  439MOL0     C60478   9.540   7.859  10.993 -0.2038 -0.5318 -0.3062
  439MOL0     C60479   9.521   7.961  11.094  0.3169  0.3652  1.2370
  439MOL0     O60480   9.561   7.952  11.217  0.4906 -0.7365 -0.1144
  439MOL0     C60481   9.643   7.842  11.268  1.1236  0.4637  0.5126
  439MOL0     C60482   9.659   7.835  11.414 -1.3320 -0.1434  0.7483
  439MOL0     C60483   9.527   7.810  11.490  0.2160  0.2917  0.7174
  439MOL0     C60484   9.554   7.777  11.634 -0.7119 -0.3525  0.2453
  439MOL0     C60485   9.426   7.754  11.713  0.2047 -0.1636  0.2612
  439MOL0     C60486   9.442   7.700  11.856 -0.0662  0.2459  0.7058
  439MOL0     C60487   9.299   7.667  11.913 -0.6417  0.3620  0.3973
  439MOL0     C60488   9.298   7.595  12.049  0.2197 -0.7490  0.0978
  439MOL0    Cl60489   9.445   7.494  12.087 -0.1476  0.1075 -0.1181
  439MOL0     C60490   9.453   8.085  11.072  0.5204 -0.3958  0.3723
  439MOL0     C60491   9.393   8.102  10.953 -0.5220  0.5610 -0.0778
  439MOL0     O60492   9.512   8.046  10.614  0.1137  0.4318  0.2829
  439MOL0     C60493   9.179   8.016  10.523  0.0104  1.0786 -0.3183
  439MOL0     C60494   9.092   8.022  10.415  0.1609  0.3445  0.6212
  439MOL0     N60495   8.489   8.154  10.069 -0.1593  0.3022 -0.2076
  439MOL0     N60496   8.379   8.225  10.049  0.3988  0.5126 -0.0885
  439MOL0     C60497   7.753   7.376   9.657 -0.6255  0.0080  0.5985
  439MOL0     C60498   7.787   7.265   9.731 -0.6377 -0.1319  0.7116
  439MOL0     C60499   7.886   6.921   9.927  0.2589 -0.7524  0.1271
  439MOL0     C60500   7.869   6.842   9.809  0.0991 -0.3933 -0.4779
  439MOL0     C60501   7.839   6.705   9.823 -0.1503  0.1326  0.2006
  439MOL0     C60502   7.818   6.647   9.947  0.1471  0.5702 -0.3570
  439MOL0     O60503   7.808   6.512   9.941 -0.0537  0.3722 -0.4916
  439MOL0     C60504   7.692   6.456  10.001 -0.2877 -0.4167 -0.3111
  439MOL0     C60505   7.557   6.470   9.917 -0.8493  0.7226 -0.2749
  439MOL0     C60506   7.426   6.423   9.998 -0.9140 -0.3738  0.5119
  439MOL0     C60507   7.439   6.286  10.041 -0.6946 -0.2240 -0.2132
  439MOL0     C60508   7.314   6.229  10.075 -0.0017  0.0106 -0.1799
  439MOL0     C60509   7.211   6.175  10.098 -0.2252  0.0287 -0.2300
  439MOL0     C60510   7.826   6.719  10.066 -0.2030  0.1981 -0.0296
  439MOL0     C60511   7.869   6.856  10.058 -0.6335  0.5927  0.6878
  439MOL0     C60512   7.872   6.939  10.190  0.0111 -0.0456  0.6198
  439MOL0     H60513   8.126   7.259   9.705 -0.2790  1.5409  0.9187
  439MOL0     H60514   8.058   7.467   9.552 -0.4486  0.8649 -0.1936
  439MOL0     H60515   7.974   7.684   9.611  0.1189 -1.8444 -1.6333
  439MOL0     H60516   7.812   7.675   9.695 -2.7124 -0.3355 -1.5039
  439MOL0     H60517   7.869   7.827   9.434  0.5323  2.1186  0.3225
  439MOL0     H60518   7.712   7.809   9.492  0.6019  0.0788 -0.4896
  439MOL0     H60519   7.757   8.014   9.600  0.3752  0.8751  0.1281
  439MOL0     H60520   7.798   7.903   9.732 -2.0156  1.3421 -0.1197
  439MOL0     H60521   8.040   7.913   9.599 -0.0413  1.7870 -2.2894
  439MOL0     H60522   7.955   8.065   9.543  0.6126  1.1879  0.3095
  439MOL0     H60523   7.983   7.989   9.822  0.0837 -2.7368 -1.9774
  439MOL0     H60524   7.903   8.132   9.759 -0.7387 -0.1578 -2.3986
  439MOL0     H60525   8.196   8.081   9.745  1.3086  1.5868  0.9774
  439MOL0     H60526   8.109   8.203   9.645 -1.3041 -0.1984  1.9280
  439MOL0     H60527   8.096   8.195   9.947 -1.8352  0.8071  0.3696
  439MOL0     H60528   8.029   8.314   9.826  0.0454 -0.7502 -0.4814
  439MOL0     H60529   8.276   8.345   9.749  1.0610  2.4848  0.4153
  439MOL0     H60530   8.237   8.419   9.897  0.3766  1.7493 -2.8317
  439MOL0     H60531   8.499   8.198   9.741 -3.6585  0.3629 -1.0183
  439MOL0     H60532   8.718   8.088   9.825  1.9843 -3.1681  0.4978
  439MOL0     H60533   8.691   7.985   9.962  0.7439 -0.3459  0.3290
  439MOL0     H60534   8.787   8.278   9.993  0.1118 -0.5666 -1.6138
  439MOL0     H60535   8.768   8.160  10.119  1.2156  1.8457  0.8573
  439MOL0     H60536   8.926   7.995   9.987 -4.0165  0.1551  1.8354
  439MOL0     H60537   8.951   8.131   9.876 -0.0475 -1.2604 -0.8615
  439MOL0     H60538   9.144   8.108  10.038 -1.3976 -2.1893 -0.7698
  439MOL0     H60539   9.056   8.254  10.078  0.9627 -0.7066 -1.2148
  439MOL0     H60540   9.257   8.205  10.199 -1.3726  0.2787 -0.6339
  439MOL0     H60541   9.544   8.173  10.369  0.2926  0.1026  0.0504
  439MOL0     H60542   9.473   8.295  10.459  2.8744 -1.1191  0.3073
  439MOL0     H60543   9.443   8.294  10.289  2.9593 -1.4363 -0.7300
  439MOL0     H60544   9.468   7.805  10.802 -0.9812  1.6071 -1.2302
  439MOL0     H60545   9.601   7.770  11.002  1.4317  0.4580 -1.0762
  439MOL0     H60546   9.594   7.749  11.240 -1.3296  1.4614  1.2260
  439MOL0     H60547   9.743   7.834  11.225  0.5949 -0.2182 -0.6241
  439MOL0     H60548   9.729   7.754  11.436 -0.9159  1.0681  4.5886
  439MOL0     H60549   9.703   7.926  11.455  0.2253  0.7272 -2.5326
  439MOL0     H60550   9.480   7.726  11.437  1.3130  1.1790 -1.7964
  439MOL0     H60551   9.454   7.891  11.480  2.8178  3.1075  2.6646
  439MOL0     H60552   9.621   7.850  11.683 -1.7206  0.6815  0.1144
  439MOL0     H60553   9.606   7.681  11.625 -1.5260 -0.7555 -0.2411
  439MOL0     H60554   9.366   7.845  11.717  3.5821  2.3364 -1.3859
  439MOL0     H60555   9.365   7.674  11.670 -0.2661 -0.7640  1.9622
  439MOL0     H60556   9.483   7.781  11.917 -2.6345  1.6106  0.7544
  439MOL0     H60557   9.498   7.606  11.850  1.5851  1.2272  0.0532
  439MOL0     H60558   9.246   7.593  11.852 -0.6852 -0.4249  1.3544
  439MOL0     H60559   9.241   7.759  11.907  0.1621  0.8022 -1.2778
  439MOL0     H60560   9.210   7.530  12.057 -0.4560  0.2719  1.3956
  439MOL0     H60561   9.288   7.677  12.120  0.4117 -0.4448 -0.2276
  439MOL0     H60562   9.466   8.169  11.139  2.3230  0.7635 -1.3274
  439MOL0     H60563   9.348   8.191  10.910 -1.1510 -1.6489 -4.5449
  439MOL0     H60564   9.158   7.960  10.614  0.3028  2.7071  0.7874
  439MOL0     H60565   9.002   7.961  10.421  1.3389 -1.4242  0.8604
  439MOL0     H60566   7.656   7.420   9.680 -0.7354  0.4575 -0.6714
  439MOL0     H60567   7.697   7.220   9.772 -1.6499  0.4155 -0.8136
  439MOL0     H60568   7.870   6.886   9.709  1.6753  0.2030 -0.2333
  439MOL0     H60569   7.840   6.639   9.737  2.2592 -0.0602  0.3036
  439MOL0     H60570   7.708   6.348  10.011  1.4963 -0.3881 -2.1190
  439MOL0     H60571   7.679   6.513  10.094 -0.1964 -0.4785 -0.2624
  439MOL0     H60572   7.573   6.416   9.823  0.7249  0.0060  0.3628
  439MOL0     H60573   7.547   6.576   9.895 -0.2776  1.0777  1.0894
  439MOL0     H60574   7.416   6.498  10.077 -0.0292  0.8524 -0.4947
  439MOL0     H60575   7.339   6.439   9.933  0.0794 -1.9669 -1.3358
  439MOL0     H60576   7.510   6.288  10.125  0.6303  1.2952 -1.3084
  439MOL0     H60577   7.486   6.225   9.963  0.7198 -0.2087  0.5962
  439MOL0     H60578   7.132   6.118  10.142  0.8063 -0.1715  1.4709
  439MOL0     H60579   7.816   6.673  10.164 -0.2024  1.7653  0.7335
  439MOL0     H60580   7.771   6.974  10.213 -1.7401 -4.1444  0.0740
  439MOL0     H60581   7.894   6.863  10.265  1.0910  0.4073  0.7680
  439MOL0     H60582   7.951   7.013  10.179 -0.5108  0.1609 -3.6975
  440MOL0     O60583   3.905   9.952   6.100  0.7665  1.2194  0.2507
  440MOL0     C60584   3.886   9.913   6.211 -0.1541  0.5619  0.1926
  440MOL0     O60585   3.779   9.843   6.247 -0.3118  0.1996 -0.2577
  440MOL0     C60586   3.694   9.819   6.136 -0.7896  0.5494 -0.4513
  440MOL0     C60587   3.679   9.686   6.091  0.4352  0.4680 -1.1557
  440MOL0     C60588   3.584   9.658   5.992 -0.5690  0.5613  0.2785
  440MOL0     C60589   3.515   9.758   5.928  0.4077  0.0126 -0.1555
  440MOL0     O60590   3.414   9.716   5.850 -1.2163 -0.0454 -0.7100
  440MOL0     C60591   3.307   9.803   5.826  0.6900  0.5055 -0.0564
  440MOL0     C60592   3.207   9.748   5.719 -0.6027 -0.3301 -1.3135
  440MOL0     C60593   3.287   9.696   5.598 -0.2643  0.3443  0.1467
  440MOL0     C60594   3.380   9.804   5.537  0.0149 -0.3485 -0.8876
  440MOL0     C60595   3.376   9.794   5.380 -0.8590 -0.1210  0.4971
  440MOL0     C60596   3.464   9.683   5.330  0.0227  0.7124 -1.0747
  440MOL0     C60597   3.502   9.700   5.191  0.3185  0.1519 -0.5948
  440MOL0     C60598   3.586   9.583   5.151 -0.1684 -0.1532  0.1318
  440MOL0     N60599   3.653   9.607   5.023 -0.7254 -0.5674 -0.5421
  440MOL0     C60600   3.748   9.705   4.981 -0.2066  0.2095 -0.4034
  440MOL0     C60601   3.747   9.710   4.849 -0.0399 -0.5118  0.3288
  440MOL0     C60602   3.813   9.831   4.769  0.6015 -0.1825 -0.1457
  440MOL0     C60603   3.721   9.881   4.662 -0.3464  0.0069  0.4700
  440MOL0     C60604   3.798   9.956   4.556  0.0431 -0.3689  0.0772
  440MOL0     C60605   3.709  10.002   4.441 -0.2983  0.0780  0.2855
  440MOL0     O60606   3.611  10.091   4.488 -0.2902 -0.0547  0.2158
  440MOL0     C60607   3.567  10.190   4.404  0.1223 -0.9097 -0.4645
  440MOL0     C60608   3.545  10.319   4.459  0.3828 -0.4318 -1.0081
  440MOL0     C60609   3.501  10.424   4.378 -0.1223 -0.4249  0.0869
  440MOL0     C60610   3.443  10.546   4.441  0.0122  0.4447  0.6317
  440MOL0     C60611   3.502  10.413   4.238 -0.0682 -0.0098  0.4052
  440MOL0     C60612   3.467  10.513   4.136  0.5408 -0.3504  0.2226
  440MOL0     O60613   3.435  10.462   4.005  0.1389 -0.3923 -0.3023
  440MOL0     C60614   3.407  10.538   3.890 -0.2270 -0.0412  0.9806
  440MOL0     C60615   3.402  10.679   3.878 -0.9521 -0.3780 -0.0053
  440MOL0     C60616   3.368  10.743   3.757 -0.1023  1.1754 -0.1012
  440MOL0     C60617   3.330  10.664   3.646  0.2078  0.3928  0.7577
  440MOL0     O60618   3.303  10.728   3.523 -0.0551  0.0080 -0.9971
  440MOL0     C60619   3.239  10.650   3.423 -0.2943  0.2933 -0.1076
  440MOL0     C60620   3.190  10.745   3.319 -0.2494 -0.2573 -0.2155
  440MOL0     C60621   3.085  10.686   3.222  0.4490 -0.3709  0.9947
  440MOL0     C60622   2.942  10.656   3.288 -0.3188  0.6889  0.6101
  440MOL0     C60623   2.822  10.646   3.193  0.5852  0.6114 -0.5320
  440MOL0     C60624   2.824  10.516   3.105 -0.3571 -0.1064  0.2019
  440MOL0     C60625   2.804  10.388   3.184  0.2929 -0.1697 -0.7654
  440MOL0     C60626   2.702  10.297   3.119 -0.2083 -0.5367 -1.5104
  440MOL0    Cl60627   2.675  10.151   3.228 -0.0701 -0.1326  0.4712
  440MOL0     C60628   3.326  10.528   3.657  0.2923 -0.8648  0.2332
  440MOL0     C60629   3.359  10.466   3.774  0.3259 -0.0014  0.0382
  440MOL0     O60630   3.479  10.635   4.165  0.4447  0.2525  0.0555
  440MOL0     C60631   3.528  10.283   4.181 -0.6604  0.0085 -0.0465
  440MOL0     C60632   3.555  10.174   4.266  0.3752 -0.4327  0.1236
  440MOL0     N60633   3.656   9.610   4.804 -0.0033  0.5037 -0.5276
  440MOL0     N60634   3.613   9.551   4.910  0.2370 -1.1721  0.4460
  440MOL0     C60635   3.543   9.895   5.962 -0.3275 -0.7026  0.4697
  440MOL0     C60636   3.616   9.924   6.072 -0.3471  0.5812 -0.5978
  440MOL0     C60637   4.000   9.914   6.310  0.6278 -0.1493  0.0077
  440MOL0     C60638   4.133   9.918   6.254 -0.3916 -0.4541  0.5899
  440MOL0     C60639   4.242   9.905   6.340 -0.0584  0.9446 -0.5081
  440MOL0     C60640   4.236   9.912   6.476  0.0835 -0.1013  0.1668
  440MOL0     O60641   4.352   9.910   6.551 -0.4273 -0.3188 -0.4597
  440MOL0     C60642   4.348   9.947   6.685  0.2351 -0.8076 -0.3520
  440MOL0     C60643   4.492   9.970   6.722  0.9081  0.1950  0.5576
  440MOL0     C60644   4.597   9.986   6.619 -0.8345  0.5504 -0.5087
  440MOL0     C60645   4.714  10.060   6.681  0.5737  0.3641 -1.2786
  440MOL0     C60646   4.829  10.058   6.598 -0.2998 -0.4325 -0.0355
  440MOL0     C60647   4.936  10.054   6.536  0.6537 -0.2154  0.1432
  440MOL0     C60648   4.103   9.907   6.534 -0.3647  0.1451  0.7559
  440MOL0     C60649   3.988   9.913   6.446  0.8921  0.5166 -0.5823
  440MOL0     C60650   3.844   9.909   6.508 -0.3743 -1.1437 -0.7842
  440MOL0     H60651   3.731   9.600   6.134 -0.8646  0.0820 -0.3077
  440MOL0     H60652   3.566   9.553   5.969  1.8936 -0.1271  1.1465
  440MOL0     H60653   3.337   9.906   5.803 -0.9524  0.8250 -0.9269
  440MOL0     H60654   3.255   9.806   5.922  2.7203  1.2530  1.0695
  440MOL0     H60655   3.153   9.665   5.765  1.5282 -0.7067  0.6815
  440MOL0     H60656   3.150   9.836   5.688 -1.0991  0.0140  0.4756
  440MOL0     H60657   3.347   9.609   5.625 -0.1323  1.2211  3.0632
  440MOL0     H60658   3.213   9.675   5.521  1.5762 -1.4247 -1.2473
  440MOL0     H60659   3.365   9.907   5.569  1.3109 -0.4761  0.2021
  440MOL0     H60660   3.482   9.781   5.568 -0.4943  0.1464  1.2656
  440MOL0     H60661   3.422   9.878   5.327  0.7620 -1.3968 -0.2292
  440MOL0     H60662   3.279   9.771   5.335 -0.2138 -1.1025 -0.4389
  440MOL0     H60663   3.557   9.687   5.387 -0.6362 -3.1112  0.5573
  440MOL0     H60664   3.406   9.591   5.343 -0.8457  1.5335  1.4587
  440MOL0     H60665   3.565   9.789   5.184 -0.3372  0.8510  1.6484
  440MOL0     H60666   3.414   9.715   5.126 -0.7251  2.0055  1.1286
  440MOL0     H60667   3.666   9.563   5.224  2.2331 -1.0143 -2.5235
  440MOL0     H60668   3.527   9.491   5.150  0.5909 -0.6660 -1.6468
  440MOL0     H60669   3.800   9.768   5.053 -0.7783  1.1454 -0.7885
  440MOL0     H60670   3.914   9.801   4.737  1.1114 -1.3423  2.3127
  440MOL0     H60671   3.815   9.917   4.836 -0.3932  0.3878 -0.8224
  440MOL0     H60672   3.672   9.796   4.614  0.2394 -1.0470  1.6610
  440MOL0     H60673   3.645   9.946   4.707 -2.0374 -1.4004 -0.2348
  440MOL0     H60674   3.849  10.044   4.595  0.8016 -0.1947 -1.2457
  440MOL0     H60675   3.877   9.892   4.515  1.7642 -0.6439  3.4503
  440MOL0     H60676   3.775  10.049   4.367 -1.6541  1.9783  0.1967
  440MOL0     H60677   3.675   9.911   4.391  1.5203  0.3240 -1.5298
  440MOL0     H60678   3.575  10.325   4.563  1.0007 -2.5052 -1.0218
  440MOL0     H60679   3.512  10.631   4.440 -0.8522  1.1558 -0.1366
  440MOL0     H60680   3.426  10.517   4.545 -4.4543  1.6031  0.4225
  440MOL0     H60681   3.346  10.567   4.396  1.3238 -0.5408 -2.9477
  440MOL0     H60682   3.415  10.744   3.964 -0.2111  0.7330 -0.9222
  440MOL0     H60683   3.368  10.851   3.755 -2.6887  1.2277 -2.8408
  440MOL0     H60684   3.312  10.590   3.368 -0.3165  0.3293 -0.1767
  440MOL0     H60685   3.153  10.593   3.458 -0.2716  1.7004  2.4760
  440MOL0     H60686   3.145  10.835   3.361 -0.2311  1.0440 -2.7586
  440MOL0     H60687   3.277  10.788   3.269 -2.2804  2.2686 -1.9000
  440MOL0     H60688   3.114  10.588   3.185  0.1985 -1.4492  3.4562
  440MOL0     H60689   3.070  10.754   3.137 -1.4101  1.9279  2.9942
  440MOL0     H60690   2.920  10.743   3.351  1.9358  1.0668  0.9528
  440MOL0     H60691   2.941  10.568   3.352 -3.1888 -0.1829 -0.4776
  440MOL0     H60692   2.725  10.652   3.243  1.0840  0.7100  0.4359
  440MOL0     H60693   2.821  10.738   3.133 -3.2172  0.4968 -0.9131
  440MOL0     H60694   2.924  10.514   3.061  0.1552 -3.4677  1.2309
  440MOL0     H60695   2.738  10.526   3.039  0.1288  0.0535 -0.4096
  440MOL0     H60696   2.774  10.408   3.287  1.2232 -0.9198 -0.3362
  440MOL0     H60697   2.902  10.344   3.205  0.9476  2.3543  2.2229
  440MOL0     H60698   2.742  10.271   3.020  3.0657  1.7018 -0.9311
  440MOL0     H60699   2.600  10.337   3.109 -0.7187 -0.9133  1.3360
  440MOL0     H60700   3.287  10.464   3.578 -1.4877  0.3077  0.0838
  440MOL0     H60701   3.363  10.358   3.766 -0.2290  0.0794 -1.6854
  440MOL0     H60702   3.539  10.261   4.076 -1.2458 -2.4393  0.3479
  440MOL0     H60703   3.589  10.080   4.223  0.3282 -0.7825  0.8385
  440MOL0     H60704   3.506   9.984   5.912 -0.3473  0.2931  2.1853
  440MOL0     H60705   3.650  10.022   6.105  1.1706 -0.3709  0.8659
  440MOL0     H60706   4.147   9.903   6.147 -0.7332 -3.6329  0.9076
  440MOL0     H60707   4.341   9.905   6.295  1.3987  1.4868  2.4620
  440MOL0     H60708   4.291  10.041   6.690  3.0322  0.9462  2.0149
  440MOL0     H60709   4.293   9.878   6.750  0.1789 -2.5090 -2.1370
  440MOL0     H60710   4.518   9.878   6.775  1.8608  0.2088  0.1331
  440MOL0     H60711   4.491  10.053   6.793  0.0496  1.4462 -0.8617
  440MOL0     H60712   4.616   9.889   6.571 -2.0934 -0.8704  1.6805
  440MOL0     H60713   4.561  10.055   6.543  0.5770  1.3857 -0.4573
  440MOL0     H60714   4.740  10.017   6.779  1.6084  2.2011 -0.7140
  440MOL0     H60715   4.690  10.165   6.697  2.0627  0.3744  1.7719
  440MOL0     H60716   5.022  10.039   6.474  1.1038 -2.3150  1.1834
  440MOL0     H60717   4.087   9.904   6.641  0.6993  1.1812  0.9768
  440MOL0     H60718   3.769   9.952   6.442 -2.1193  1.0608  2.3895
  440MOL0     H60719   3.812   9.806   6.526  0.9042 -1.3570  0.5259
  440MOL0     H60720   3.828   9.977   6.592 -1.2815 -1.8845 -0.3441
  441MOL0     O60721   5.207   0.071   7.392  0.8100 -0.0750 -0.6144
  441MOL0     C60722   5.247   0.181   7.433 -0.2640 -0.1374  1.0489
  441MOL0     O60723   5.202   0.297   7.397  0.6163 -0.1910 -0.0161
  441MOL0     C60724   5.090   0.317   7.314 -0.2624  0.1034 -0.5655
  441MOL0     C60725   5.033   0.219   7.223  0.0331 -0.3244 -0.4567
  441MOL0     C60726   4.930   0.265   7.137 -0.3603  0.3271  0.9425
  441MOL0     C60727   4.895   0.403   7.127  0.6668 -0.9513 -0.4178
  441MOL0     O60728   4.793   0.432   7.037  0.0358 -0.6850  0.5989
  441MOL0     C60729   4.789   0.559   6.986  0.0359 -0.3557  1.4151
  441MOL0     C60730   4.919   0.599   6.922  0.0463  0.2889  0.1038
  441MOL0     C60731   4.909   0.730   6.856  0.2978 -0.4177 -0.4698
  441MOL0     C60732   4.906   0.845   6.969 -0.8672 -0.5614  1.0096
  441MOL0     C60733   4.891   0.973   6.893 -0.3094 -0.5388  0.2181
  441MOL0     C60734   4.886   1.102   6.978 -0.0153 -0.6335 -0.1341
  441MOL0     C60735   5.001   1.120   7.069  1.0925  0.3043  0.3028
  441MOL0     C60736   4.994   1.265   7.132 -0.5009 -0.3809 -0.3631
  441MOL0     N60737   5.114   1.265   7.218 -0.0665 -0.0015 -0.7022
  441MOL0     C60738   5.251   1.275   7.193 -0.2694  0.8018  0.1829
  441MOL0     C60739   5.304   1.262   7.318  0.3091  0.2804  0.0365
  441MOL0     C60740   5.448   1.250   7.367  1.4613 -0.0792 -0.4469
  441MOL0     C60741   5.501   1.104   7.346 -0.1095  0.6220  0.3961
  441MOL0     C60742   5.651   1.073   7.325 -0.0815  0.0331  0.1020
  441MOL0     C60743   5.732   1.126   7.450  0.4892 -0.1858  0.1034
  441MOL0     O60744   5.872   1.097   7.436 -0.0541  0.6639  0.4591
  441MOL0     C60745   5.968   1.155   7.520  0.4041  0.2690  0.9339
  441MOL0     C60746   6.103   1.165   7.469 -0.1645  0.2087  0.0535
  441MOL0     C60747   6.217   1.220   7.550  0.5705 -0.1707  0.8947
  441MOL0     C60748   6.354   1.238   7.493 -0.5289  1.6949 -0.0845
  441MOL0     C60749   6.181   1.252   7.686  0.0614 -0.9152  0.5464
  441MOL0     C60750   6.272   1.316   7.784  0.5447  0.0677  0.1793
  441MOL0     O60751   6.394   1.368   7.741  0.1365 -0.8086  0.0152
  441MOL0     C60752   6.492   1.408   7.820  0.1219  0.2687 -0.0242
  441MOL0     C60753   6.489   1.535   7.875  0.8013  0.0458 -0.2601
  441MOL0     C60754   6.589   1.579   7.969  0.3227 -0.1302 -0.1162
  441MOL0     C60755   6.694   1.493   8.009 -0.1988  0.2173  0.8442
  441MOL0     O60756   6.797   1.536   8.093  0.4897 -0.2786  0.4165
  441MOL0     C60757   6.888   1.438   8.151 -0.7650 -0.1462  0.2128
  441MOL0     C60758   6.974   1.505   8.254  0.3806  0.7716 -0.0186
  441MOL0     C60759   7.082   1.588   8.190  0.0922  0.4489 -0.5188
  441MOL0     C60760   7.196   1.602   8.297  0.2617 -0.1687 -0.0487
  441MOL0     C60761   7.306   1.705   8.254 -0.4746  1.2162  0.0114
  441MOL0     C60762   7.434   1.712   8.347  0.2370 -1.0547  0.8602
  441MOL0     C60763   7.542   1.810   8.292  0.1009  0.6233  0.0767
  441MOL0     C60764   7.614   1.743   8.165 -0.2224 -0.3562  0.2112
  441MOL0    Cl60765   7.782   1.834   8.145 -0.2640 -0.2198 -0.2272
  441MOL0     C60766   6.703   1.365   7.938  0.0570  0.5819  0.6384
  441MOL0     C60767   6.600   1.329   7.849 -0.0780 -0.2171  0.0152
  441MOL0     O60768   6.241   1.305   7.902  0.3701 -0.4472 -0.8200
  441MOL0     C60769   6.052   1.238   7.732  0.5665  0.0274  0.1425
  441MOL0     C60770   5.943   1.188   7.653 -0.2378  0.4622 -0.1620
  441MOL0     N60771   5.204   1.256   7.417 -0.3757 -0.2126 -0.3412
  441MOL0     N60772   5.093   1.253   7.352 -0.5140  0.9488  0.8022
  441MOL0     C60773   4.959   0.498   7.209 -1.0575 -0.3170 -0.2038
  441MOL0     C60774   5.047   0.449   7.315  0.0065 -1.0986 -0.4187
  441MOL0     C60775   5.374   0.172   7.517  0.0778  0.1315 -0.6153
  441MOL0     C60776   5.435   0.048   7.531 -0.7433  0.4008  1.1341
  441MOL0     C60777   5.560   0.028   7.601 -0.4020  0.6338  0.4104
  441MOL0     C60778   5.612   0.136   7.666 -0.3976  0.3870 -0.5623
  441MOL0     O60779   5.726   0.130   7.750  0.5049  0.2595 -0.3400
  441MOL0     C60780   5.825   0.019   7.733 -1.0018 -0.0857  0.0075
  441MOL0     C60781   5.965   0.058   7.774 -1.0847 -0.9025 -0.0866
  441MOL0     C60782   6.031   0.153   7.666 -0.1795  0.2582 -0.2398
  441MOL0     C60783   6.187   0.140   7.693  0.4279 -1.0291  0.2122
  441MOL0     C60784   6.229   0.229   7.802 -0.4106  1.1812 -0.1475
  441MOL0     C60785   6.251   0.318   7.879  0.5157 -0.9832  0.5995
  441MOL0     C60786   5.549   0.251   7.670 -0.7912 -0.5110 -0.0005
  441MOL0     C60787   5.427   0.278   7.595  0.1340  0.1144 -0.3266
  441MOL0     C60788   5.362   0.405   7.623 -0.2250  0.5582  0.3557
  441MOL0     H60789   5.056   0.114   7.225  3.0388  0.2608  1.9654
  441MOL0     H60790   4.882   0.190   7.076 -1.8838  2.8248 -1.1384
  441MOL0     H60791   4.740   0.636   7.047  0.8004 -0.9433  2.8192
  441MOL0     H60792   4.725   0.561   6.897 -1.9923  2.1952  2.7899
  441MOL0     H60793   5.007   0.617   6.984  0.0060  1.5907 -0.1879
  441MOL0     H60794   4.943   0.521   6.849  0.0980 -1.2447  1.7120
  441MOL0     H60795   4.997   0.744   6.793 -0.3470  2.5884 -0.8815
  441MOL0     H60796   4.822   0.736   6.790  0.6216 -1.6772 -1.0349
  441MOL0     H60797   4.834   0.829   7.049  0.5167 -1.3685  2.1187
  441MOL0     H60798   5.000   0.840   7.025 -0.7842 -2.1743  0.7523
  441MOL0     H60799   4.797   0.978   6.837  0.8602 -0.7385 -1.8419
  441MOL0     H60800   4.973   0.975   6.822 -1.4418  1.4377 -1.1470
  441MOL0     H60801   4.889   1.185   6.907 -0.2552 -2.3820 -2.2895
  441MOL0     H60802   4.791   1.115   7.031  1.6758  2.0191  2.5694
  441MOL0     H60803   5.095   1.132   7.014  2.7466  2.2537  3.3028
  441MOL0     H60804   5.009   1.054   7.156 -0.1409  1.5280  1.3877
  441MOL0     H60805   4.999   1.345   7.058 -1.1261  1.2476  1.2735
  441MOL0     H60806   4.899   1.284   7.184  0.6130 -2.3258  2.6275
  441MOL0     H60807   5.307   1.283   7.101  0.3758 -2.4686  0.1639
  441MOL0     H60808   5.445   1.283   7.471  0.5727 -3.1672  0.6220
  441MOL0     H60809   5.505   1.322   7.308  0.8578  0.6726 -0.1344
  441MOL0     H60810   5.473   1.038   7.428  0.7196 -1.4773 -0.9177
  441MOL0     H60811   5.445   1.067   7.259 -0.5867 -0.4934  1.1566
  441MOL0     H60812   5.677   0.967   7.334  1.5823  0.4754  0.8922
  441MOL0     H60813   5.689   1.106   7.229  0.0529  3.1564  1.1151
  441MOL0     H60814   5.710   1.233   7.460 -1.3549 -0.5535  0.4508
  441MOL0     H60815   5.689   1.071   7.535 -1.6978  0.6746 -0.3887
  441MOL0     H60816   6.112   1.123   7.370 -3.7425  0.3670 -0.4672
  441MOL0     H60817   6.394   1.339   7.486 -1.4883  2.0183 -1.0659
  441MOL0     H60818   6.364   1.184   7.399  2.5468 -0.8675  1.5157
  441MOL0     H60819   6.418   1.186   7.565 -2.6623 -1.7503 -0.4377
  441MOL0     H60820   6.409   1.607   7.864  0.8428  0.0073 -0.8246
  441MOL0     H60821   6.580   1.677   8.015  0.5446 -0.3510  0.4067
  441MOL0     H60822   6.827   1.364   8.205 -1.1755 -1.0588 -1.4379
  441MOL0     H60823   6.948   1.383   8.078  2.2621  0.6409  1.9483
  441MOL0     H60824   6.903   1.576   8.297  0.4325  1.2241 -0.6571
  441MOL0     H60825   7.019   1.438   8.328 -0.1769  0.3756 -0.0319
  441MOL0     H60826   7.032   1.681   8.159 -2.3805  0.1517  2.1351
  441MOL0     H60827   7.137   1.537   8.111  1.7824 -1.1892  1.6011
  441MOL0     H60828   7.242   1.502   8.305  1.4965  0.3553 -0.3415
  441MOL0     H60829   7.152   1.631   8.392  0.5180 -1.6235  0.5450
  441MOL0     H60830   7.346   1.683   8.155 -0.3738 -2.6156  0.7414
  441MOL0     H60831   7.255   1.802   8.259 -2.3014  0.7406 -4.4554
  441MOL0     H60832   7.466   1.608   8.360 -0.3668 -1.1764  1.4123
  441MOL0     H60833   7.408   1.746   8.448  2.3251  2.4650  0.3640
  441MOL0     H60834   7.611   1.823   8.376 -0.9066  0.4943  0.9541
  441MOL0     H60835   7.498   1.910   8.279 -1.7443 -0.2883 -1.1876
  441MOL0     H60836   7.550   1.741   8.075 -0.0927  2.1179  0.0136
  441MOL0     H60837   7.635   1.641   8.199  1.0656  0.5141  2.0987
  441MOL0     H60838   6.786   1.294   7.936  1.3267  2.0256  0.3854
  441MOL0     H60839   6.607   1.229   7.807  1.2010 -1.0804  2.1337
  441MOL0     H60840   6.018   1.278   7.827  0.2303  2.8455 -1.0783
  441MOL0     H60841   5.845   1.175   7.698  1.6420 -1.5490  4.0193
  441MOL0     H60842   4.948   0.605   7.194  1.4215 -0.0557 -0.4563
  441MOL0     H60843   5.091   0.521   7.383 -0.2179  1.6572 -2.9743
  441MOL0     H60844   5.416  -0.045   7.478  0.9653  0.6254  0.0454
  441MOL0     H60845   5.613  -0.067   7.607  1.3628  1.6060  0.8845
  441MOL0     H60846   5.785  -0.059   7.798  0.2742 -1.5246 -0.8528
  441MOL0     H60847   5.829  -0.015   7.629  2.6775 -0.3281  0.1176
  441MOL0     H60848   6.037  -0.023   7.791  0.2495  0.2208 -0.2366
  441MOL0     H60849   5.970   0.111   7.870 -1.3151 -0.6438 -0.2169
  441MOL0     H60850   6.015   0.122   7.562 -1.7630  0.4344 -0.0735
  441MOL0     H60851   5.988   0.252   7.683 -0.3993  0.4034 -1.5160
  441MOL0     H60852   6.236   0.173   7.601 -1.3897 -2.3590 -1.3167
  441MOL0     H60853   6.227   0.039   7.707  1.6058 -0.4606  1.1556
  441MOL0     H60854   6.265   0.395   7.952 -0.2032 -2.6524  2.6042
  441MOL0     H60855   5.590   0.323   7.741  1.7948  0.2161 -2.0874
  441MOL0     H60856   5.254   0.390   7.628  0.0695 -1.9516  0.2038
  441MOL0     H60857   5.406   0.443   7.715 -0.8711  1.9743  0.1190
  441MOL0     H60858   5.379   0.478   7.543 -1.0270  1.0543  0.6268
  442MOL0     O60859   0.710  10.593   3.264 -0.3847  0.1636 -0.5518
  442MOL0     C60860   0.671  10.605   3.383 -0.7006  0.6750 -0.0634
  442MOL0     O60861   0.751  10.584   3.489 -0.0057  0.6156  0.0984
  442MOL0     C60862   0.867  10.515   3.476  0.2586 -0.6454  0.2221
  442MOL0     C60863   0.984  10.564   3.530 -0.1360 -0.4064  0.1223
  442MOL0     C60864   1.104  10.503   3.504  0.1578  0.5561  0.6133
  442MOL0     C60865   1.111  10.376   3.440  0.1259  0.3709 -0.1225
  442MOL0     O60866   1.224  10.314   3.394 -0.4715  0.5128  0.1777
  442MOL0     C60867   1.353  10.365   3.432 -0.4529  0.1610  0.6256
  442MOL0     C60868   1.460  10.256   3.400 -0.3778 -1.0702 -0.0919
  442MOL0     C60869   1.454  10.128   3.488 -0.2875 -0.4966  0.5530
  442MOL0     C60870   1.556  10.021   3.461  0.2501  0.0460 -1.1948
  442MOL0     C60871   1.691  10.066   3.515 -0.0705 -0.0165  0.0356
  442MOL0     C60872   1.780   9.939   3.525 -0.9300  0.0324 -0.1542
  442MOL0     C60873   1.919   9.976   3.572 -0.2980  0.9336 -0.3859
  442MOL0     C60874   1.999   9.849   3.597 -0.9286  0.5716 -0.2187
  442MOL0     N60875   2.144   9.861   3.596  0.1930 -1.2000  0.0015
  442MOL0     C60876   2.209   9.873   3.472 -0.0640 -0.6422  0.0313
  442MOL0     C60877   2.338   9.890   3.502  0.4565  0.1369  0.4433
  442MOL0     C60878   2.444   9.926   3.408 -0.1007  0.2274  0.5904
  442MOL0     C60879   2.520   9.803   3.351  0.0402  0.7111 -0.0467
  442MOL0     C60880   2.592   9.713   3.464 -0.2747  0.7717 -0.0669
  442MOL0     C60881   2.653   9.590   3.389  0.0847  0.8355  0.9490
  442MOL0     O60882   2.746   9.628   3.293 -0.8781 -0.0058 -0.2922
  442MOL0     C60883   2.875   9.661   3.345  0.1208 -0.3960 -0.2684
  442MOL0     C60884   2.932   9.637   3.473 -0.1369  0.4993 -0.3720
  442MOL0     C60885   3.057   9.668   3.512 -0.4265 -0.7941 -0.0092
  442MOL0     C60886   3.099   9.613   3.649 -0.2044  0.3226 -0.4966
  442MOL0     C60887   3.144   9.733   3.411 -0.0799  0.5069 -0.2808
  442MOL0     C60888   3.289   9.759   3.438  0.5642  0.3305 -0.3238
  442MOL0     O60889   3.356   9.834   3.343  0.7888  0.4200  0.0389
  442MOL0     C60890   3.489   9.845   3.349  1.0404 -0.6207  1.1931
  442MOL0     C60891   3.538   9.949   3.271  0.3450  0.0918 -0.0222
  442MOL0     C60892   3.678   9.971   3.256 -0.9242 -0.4789 -0.3508
  442MOL0     C60893   3.776   9.893   3.316 -0.9193  0.6389 -0.0840
  442MOL0     O60894   3.905   9.930   3.300  0.6873  0.3580 -0.4084
  442MOL0     C60895   4.001   9.866   3.385  0.6556 -0.0694  0.2700
  442MOL0     C60896   4.141   9.904   3.362 -0.5064 -0.2131  0.9788
  442MOL0     C60897   4.219   9.838   3.477  0.4226 -0.2588  0.7214
  442MOL0     C60898   4.380   9.849   3.469 -0.9499 -0.0019 -0.4702
  442MOL0     C60899   4.430   9.806   3.603  0.1375 -1.6872 -0.8699
  442MOL0     C60900   4.587   9.796   3.595  0.3429 -0.7340  0.6302
  442MOL0     C60901   4.645   9.747   3.730  0.0073 -0.3497  0.0981
  442MOL0     C60902   4.784   9.705   3.711  0.7239  0.5490  0.3227
  442MOL0    Cl60903   4.878   9.842   3.663  0.3294 -0.0484  0.2091
  442MOL0     C60904   3.725   9.785   3.401  0.4546 -0.2348 -0.2894
  442MOL0     C60905   3.587   9.771   3.415  0.4475  0.1514  0.3513
  442MOL0     O60906   3.340   9.722   3.549  0.1127 -0.1501  0.4502
  442MOL0     C60907   3.086   9.769   3.289 -0.6982  0.0170  1.2174
  442MOL0     C60908   2.952   9.741   3.259  0.5408  0.4548 -1.0443
  442MOL0     N60909   2.353   9.889   3.642 -0.4288  0.7315  0.4726
  442MOL0     N60910   2.238   9.873   3.693  1.0383  0.0438  0.0642
  442MOL0     C60911   0.991  10.315   3.391  0.0351 -1.1154 -0.4517
  442MOL0     C60912   0.873  10.396   3.403  0.2843  0.4345 -1.2662
  442MOL0     C60913   0.536  10.656   3.410  0.2343  0.4235  0.1701
  442MOL0     C60914   0.496  10.681   3.551 -0.1923 -0.1006 -0.1144
  442MOL0     C60915   0.372  10.733   3.585 -0.5164  0.2435 -0.6870
  442MOL0     C60916   0.270  10.758   3.484  0.9996 -0.6003 -0.7763
  442MOL0     O60917   0.134  10.803   3.486 -0.1256 -0.2588 -0.2477
  442MOL0     C60918   0.098  10.872   3.607 -0.1768  0.0953 -0.1731
  442MOL0     C60919   0.124  11.017   3.597  0.3949 -0.5466  1.2600
  442MOL0     C60920   0.072  11.080   3.469  0.0324  1.1690  0.5285
  442MOL0     C60921   0.056  11.226   3.490  1.2369  0.1187  0.3185
  442MOL0     C60922  -0.009  11.286   3.371 -0.6312  0.5097 -0.1923
  442MOL0     C60923  -0.040  11.358   3.280 -0.4054  0.6843  0.3225
  442MOL0     C60924   0.303  10.721   3.353 -0.1050 -0.0700 -0.1979
  442MOL0     C60925   0.434  10.675   3.317  0.3325 -0.6129 -0.2836
  442MOL0     C60926   0.447  10.638   3.172 -0.1107 -0.4300  0.0247
  442MOL0     H60927   0.983  10.664   3.572  0.1079  0.0934 -1.0059
  442MOL0     H60928   1.200  10.549   3.526  0.5476 -0.7696  1.8429
  442MOL0     H60929   1.359  10.392   3.538 -1.9803  1.2691  0.4673
  442MOL0     H60930   1.380  10.452   3.372  0.4997 -2.4736 -3.1532
  442MOL0     H60931   1.469  10.235   3.293 -4.1045 -3.6793 -0.0962
  442MOL0     H60932   1.554  10.307   3.421 -0.2521  0.1622 -3.1556
  442MOL0     H60933   1.478  10.152   3.591 -2.7544 -2.2061  1.6294
  442MOL0     H60934   1.352  10.089   3.479 -0.9203  1.1446  0.3159
  442MOL0     H60935   1.526   9.939   3.527  2.3127  1.5942  1.9159
  442MOL0     H60936   1.566   9.988   3.357  4.9525  0.8334 -1.2129
  442MOL0     H60937   1.692  10.121   3.610  0.6316 -0.3785  0.2473
  442MOL0     H60938   1.737  10.127   3.438  3.0119 -0.0695  1.6761
  442MOL0     H60939   1.753   9.856   3.591  1.0761  0.8419  1.8327
  442MOL0     H60940   1.787   9.889   3.428 -1.0560 -2.3546  0.9894
  442MOL0     H60941   1.905  10.036   3.662 -0.9519  3.4721 -2.0885
  442MOL0     H60942   1.961  10.035   3.490  0.1652 -0.0515 -0.8891
  442MOL0     H60943   1.966   9.801   3.690 -0.5331  0.0782 -0.3321
  442MOL0     H60944   1.980   9.776   3.518  2.2085  0.2826 -0.8203
  442MOL0     H60945   2.163   9.876   3.374 -2.2102 -3.8600  0.7874
  442MOL0     H60946   2.520   9.990   3.453  1.8601  0.3509 -2.5879
  442MOL0     H60947   2.412   9.988   3.324  1.5402  0.1843 -0.0937
  442MOL0     H60948   2.450   9.737   3.299  0.9392  1.7089 -2.6793
  442MOL0     H60949   2.597   9.832   3.279 -0.3786  2.7944  0.2893
  442MOL0     H60950   2.657   9.776   3.526  0.5867  0.3697 -0.5404
  442MOL0     H60951   2.521   9.670   3.535  2.6970  1.0634  3.3881
  442MOL0     H60952   2.687   9.523   3.469 -0.2083 -1.9321 -1.1023
  442MOL0     H60953   2.561   9.544   3.351  1.2562 -1.5049  0.7804
  442MOL0     H60954   2.869   9.579   3.539 -3.2525  2.9856 -0.9387
  442MOL0     H60955   3.139   9.695   3.711 -0.6109 -1.3847  2.1773
  442MOL0     H60956   3.177   9.537   3.646  0.5352  1.0829 -1.0352
  442MOL0     H60957   3.019   9.556   3.698  0.4252 -2.2551 -2.3116
  442MOL0     H60958   3.474  10.020   3.218  0.6013 -1.4342 -2.5502
  442MOL0     H60959   3.689  10.053   3.186  1.2125 -0.7810 -0.4308
  442MOL0     H60960   3.970   9.890   3.487  0.8394  1.2007  0.0530
  442MOL0     H60961   3.996   9.760   3.361  1.3129 -0.0837  0.1793
  442MOL0     H60962   4.175   9.866   3.265  0.1377 -0.2144  1.2027
  442MOL0     H60963   4.140  10.013   3.373  0.2558 -0.2897  1.9687
  442MOL0     H60964   4.186   9.735   3.495 -1.1472  0.4194  2.0531
  442MOL0     H60965   4.191   9.899   3.564  0.1627  0.5152  0.1114
  442MOL0     H60966   4.413   9.951   3.449  1.6415 -0.2137  2.0507
  442MOL0     H60967   4.416   9.781   3.392 -0.2561  1.4718 -1.4949
  442MOL0     H60968   4.407   9.884   3.677  0.3721  0.1675 -2.6525
  442MOL0     H60969   4.373   9.715   3.623 -3.0465  0.3182 -0.0195
  442MOL0     H60970   4.636   9.893   3.577  0.9672 -1.1957 -0.2401
  442MOL0     H60971   4.616   9.734   3.510 -0.3446  1.5875 -1.4318
  442MOL0     H60972   4.590   9.660   3.769  1.4534 -1.1197  0.4854
  442MOL0     H60973   4.638   9.821   3.810  1.3531  1.4430 -1.3758
  442MOL0     H60974   4.780   9.628   3.632 -3.1232  1.7285 -0.8518
  442MOL0     H60975   4.830   9.660   3.799  0.7058  1.0386  0.5815
  442MOL0     H60976   3.780   9.713   3.460  1.0484 -1.1941 -1.9645
  442MOL0     H60977   3.549   9.687   3.473 -2.5643  1.8319  0.9900
  442MOL0     H60978   3.144   9.831   3.222 -2.1681  3.7091  3.0637
  442MOL0     H60979   2.895   9.764   3.169  1.3572  1.8107 -1.2446
  442MOL0     H60980   0.999  10.220   3.340  0.6690 -1.2855 -0.0432
  442MOL0     H60981   0.777  10.355   3.373 -0.4905  1.5285 -0.4059
  442MOL0     H60982   0.564  10.668   3.634  0.0975 -1.4725 -0.5403
  442MOL0     H60983   0.353  10.748   3.691  1.7748 -3.6511  0.4649
  442MOL0     H60984  -0.010  10.854   3.620 -0.5662  2.1078 -0.2649
  442MOL0     H60985   0.148  10.834   3.696 -2.0131  2.6081  2.0874
  442MOL0     H60986   0.230  11.039   3.591  0.2739 -0.3044 -0.3122
  442MOL0     H60987   0.082  11.073   3.681 -2.4198 -2.6072  1.4081
  442MOL0     H60988   0.146  11.078   3.388  0.4289  2.2309  0.8482
  442MOL0     H60989  -0.021  11.030   3.440  0.3587 -0.1072  1.6089
  442MOL0     H60990   0.152  11.277   3.504  2.3425 -1.3167 -1.6075
  442MOL0     H60991  -0.007  11.245   3.577  2.1243  1.8263  0.6417
  442MOL0     H60992  -0.077  11.427   3.207 -1.1544 -0.6802 -0.6244
  442MOL0     H60993   0.231  10.725   3.271 -1.4587 -4.1413  0.5204
  442MOL0     H60994   0.474  10.533   3.161 -0.4144 -0.5289  0.2022
  442MOL0     H60995   0.351  10.654   3.123  0.3033  0.8948 -0.3893
  442MOL0     H60996   0.523  10.705   3.130  2.2552 -2.9807 -0.0193
  443MOL0     O60997   2.852  10.181   9.699 -0.9570  0.7502  0.1567
  443MOL0     C60998   2.741  10.207   9.741 -0.2304 -0.2098  0.2464
  443MOL0     O60999   2.711  10.276   9.850 -0.2472 -0.2115  0.0076
  443MOL0     C61000   2.805  10.360   9.906 -0.4184  0.8981 -0.7258
  443MOL0     C61001   2.932  10.329   9.955  0.4096 -0.7176 -0.3407
  443MOL0     C61002   3.014  10.432   9.996 -0.1757  0.0867 -0.8892
  443MOL0     C61003   2.973  10.567  10.005 -0.2679  0.3397 -0.2510
  443MOL0     O61004   3.041  10.678  10.057  0.7973  0.8521 -0.5740
  443MOL0     C61005   3.181  10.683  10.029 -0.0001 -0.1461  0.7734
  443MOL0     C61006   3.227  10.800  10.114 -0.0820 -0.3520 -0.4815
  443MOL0     C61007   3.198  10.929  10.036 -0.2588  0.1743  0.3287
  443MOL0     C61008   3.278  11.043  10.114  0.7353  0.5923  0.9431
  443MOL0     C61009   3.273  11.191  10.061 -0.2138 -0.2165  0.5366
  443MOL0     C61010   3.341  11.276  10.169  0.0005 -0.3189 -0.4449
  443MOL0     C61011   3.493  11.268  10.175  0.1636  0.0269  0.1505
  443MOL0     C61012   3.566  11.369  10.086 -0.9487  0.7122  0.1574
  443MOL0     N61013   3.712  11.371  10.101 -0.0784 -0.1864 -0.0180
  443MOL0     C61014   3.792  11.276  10.063 -1.3310 -0.0019  0.3670
  443MOL0     C61015   3.916  11.322  10.043  0.4200 -0.2022  0.2388
  443MOL0     C61016   4.034  11.260   9.967 -0.8115 -0.5934  0.2918
  443MOL0     C61017   4.158  11.236  10.055  0.2791 -0.3662  0.2928
  443MOL0     C61018   4.271  11.168   9.968 -1.3596 -0.4900  1.2978
  443MOL0     C61019   4.415  11.181  10.024 -0.2700 -0.5110 -0.4459
  443MOL0     O61020   4.444  11.322  10.053  0.1544 -0.3707  0.3049
  443MOL0     C61021   4.569  11.368  10.093 -0.6744  0.4970  0.2570
  443MOL0     C61022   4.678  11.277  10.104  0.2412  0.2768 -0.4289
  443MOL0     C61023   4.808  11.314  10.143 -0.5021 -0.1860  0.8085
  443MOL0     C61024   4.903  11.193  10.137  0.0551  0.4511  0.0114
  443MOL0     C61025   4.836  11.449  10.163  0.1789  0.7735 -0.8137
  443MOL0     C61026   4.975  11.499  10.190  0.1456  0.4167  0.5358
  443MOL0     O61027   4.984  11.628  10.175  0.2301  0.3416  0.5572
  443MOL0     C61028   5.107  11.701  10.197 -0.1812  0.2916  1.1595
  443MOL0     C61029   5.237  11.656  10.167  0.4408  0.9892 -0.0995
  443MOL0     C61030   5.353  11.722  10.197  0.4056 -1.2191  0.1468
  443MOL0     C61031   5.350  11.850  10.254  0.3725 -0.0694 -0.6628
  443MOL0     O61032   5.446  11.945  10.267  0.6888  0.4617 -0.1044
  443MOL0     C61033   5.571  11.931  10.189 -0.0134 -0.3430 -0.0182
  443MOL0     C61034   5.656  11.839  10.272  0.0318  0.4035  0.4220
  443MOL0     C61035   5.781  11.808  10.195 -0.2915 -0.2832  0.0417
  443MOL0     C61036   5.872  11.717  10.270  0.6192 -0.6437  0.1652
  443MOL0     C61037   6.013  11.706  10.203 -1.0231 -1.0410  0.1206
  443MOL0     C61038   6.114  11.736  10.319  0.0782 -0.2131  0.2960
  443MOL0     C61039   6.253  11.707  10.263 -0.0666  0.0082 -0.3117
  443MOL0     C61040   6.366  11.704  10.371  0.5562  0.0636  0.2674
  443MOL0    Cl61041   6.379  11.873  10.448 -0.2343 -0.1038 -0.3014
  443MOL0     C61042   5.231  11.909  10.287  0.7396 -0.0785 -0.2099
  443MOL0     C61043   5.111  11.833  10.247 -0.5453 -0.3021 -0.1180
  443MOL0     O61044   5.062  11.425  10.235  0.2111 -0.1112  0.2703
  443MOL0     C61045   4.726  11.539  10.147 -0.8602  0.1774  0.0460
  443MOL0     C61046   4.600  11.500  10.102  1.0076 -0.3141 -0.3204
  443MOL0     N61047   3.906  11.458  10.069  0.2386 -0.3806 -0.6769
  443MOL0     N61048   3.782  11.485  10.104 -0.1001 -0.3888  0.3671
  443MOL0     C61049   2.843  10.590   9.957  0.1009  0.4202  0.2390
  443MOL0     C61050   2.758  10.489   9.910  0.1473  0.4053 -0.2231
  443MOL0     C61051   2.629  10.139   9.674  0.2988  0.1161  0.0864
  443MOL0     C61052   2.532  10.080   9.760 -0.5888  0.1816  0.3340
  443MOL0     C61053   2.433   9.999   9.710  0.7673  0.9333 -0.2118
  443MOL0     C61054   2.405   9.985   9.572 -0.0894 -0.2522 -0.4199
  443MOL0     O61055   2.302   9.916   9.524  0.3997 -0.3653 -0.0585
  443MOL0     C61056   2.236   9.815   9.601  0.4864  0.1670  0.6345
  443MOL0     C61057   2.111   9.874   9.659 -0.2242  0.2033 -0.5351
  443MOL0     C61058   1.987   9.772   9.648 -0.7202 -0.5689 -0.9816
  443MOL0     C61059   1.846   9.818   9.664  0.2526 -0.1287 -0.9227
  443MOL0     C61060   1.822   9.934   9.755 -0.3134 -0.1156 -0.4948
  443MOL0     C61061   1.796  10.021   9.830 -0.4615 -1.0381 -0.1659
  443MOL0     C61062   2.494  10.050   9.485 -0.4110 -0.4733  0.4805
  443MOL0     C61063   2.604  10.124   9.529 -0.2798  0.2822 -1.5812
  443MOL0     C61064   2.697  10.175   9.425  0.1101  0.5492  0.5168
  443MOL0     H61065   2.968  10.227   9.948  1.0896 -0.3839 -4.1850
  443MOL0     H61066   3.112  10.409  10.036  0.6118  1.8032 -1.7068
  443MOL0     H61067   3.206  10.714   9.927  0.5323  2.1339  1.5319
  443MOL0     H61068   3.241  10.595  10.056 -0.4112 -0.7454 -0.2247
  443MOL0     H61069   3.187  10.800  10.216  1.1363  2.2295  0.0686
  443MOL0     H61070   3.336  10.791  10.121 -0.2862 -2.0577  4.1306
  443MOL0     H61071   3.218  10.915   9.930 -0.5326  1.6012  0.0717
  443MOL0     H61072   3.093  10.957  10.046 -0.0815  2.0360 -2.2388
  443MOL0     H61073   3.267  11.038  10.223  0.4157  0.3286  0.8989
  443MOL0     H61074   3.384  11.016  10.103  0.2717 -0.4393 -1.4993
  443MOL0     H61075   3.174  11.221  10.025  0.8196 -1.4633 -4.0188
  443MOL0     H61076   3.323  11.185   9.964 -1.0415 -1.8824  0.1718
  443MOL0     H61077   3.310  11.380  10.162  0.2128 -0.0404  1.8774
  443MOL0     H61078   3.305  11.260  10.271 -3.2818  3.8868 -0.6624
  443MOL0     H61079   3.533  11.172  10.141  0.5484 -0.8395  2.8147
  443MOL0     H61080   3.534  11.277  10.276  2.6135 -0.2568 -0.7413
  443MOL0     H61081   3.560  11.332   9.983 -1.1557 -0.1918  0.4859
  443MOL0     H61082   3.527  11.471  10.087  1.2864  1.6372 -0.9839
  443MOL0     H61083   3.771  11.176  10.027 -1.5764  0.2178 -0.1257
  443MOL0     H61084   4.054  11.316   9.875  1.3323  2.0398  2.2148
  443MOL0     H61085   3.995  11.161   9.941  1.5432 -1.4380 -0.2895
  443MOL0     H61086   4.192  11.335  10.089  0.9148 -0.0349 -1.2027
  443MOL0     H61087   4.136  11.175  10.143 -1.7124  3.2712  2.5681
  443MOL0     H61088   4.244  11.064   9.945 -0.0392  0.0038 -3.5759
  443MOL0     H61089   4.281  11.219   9.872 -1.3301 -2.2417  0.3220
  443MOL0     H61090   4.438  11.127  10.117  3.7404 -0.7247 -1.3932
  443MOL0     H61091   4.487  11.142   9.952 -0.4247  0.2347 -1.0064
  443MOL0     H61092   4.661  11.170  10.090  0.6370  0.1566 -0.0334
  443MOL0     H61093   4.857  11.094  10.148  2.4151 -0.8664 -1.1718
  443MOL0     H61094   4.981  11.193  10.214 -0.3026  0.0319  0.3844
  443MOL0     H61095   4.953  11.186  10.040 -0.4085  0.9693 -0.2706
  443MOL0     H61096   5.254  11.564  10.111 -1.1156  0.7103 -0.1538
  443MOL0     H61097   5.443  11.682  10.151  0.3452 -0.5548 -0.5760
  443MOL0     H61098   5.546  11.898  10.088 -1.4155  2.2326 -0.5872
  443MOL0     H61099   5.628  12.024  10.187  0.1960 -0.4651 -2.3140
  443MOL0     H61100   5.686  11.885  10.366  0.5590  1.0285 -0.0500
  443MOL0     H61101   5.596  11.749  10.288 -0.8301  0.5295 -1.7445
  443MOL0     H61102   5.825  11.905  10.172  1.7840 -1.7546 -2.6039
  443MOL0     H61103   5.766  11.775  10.093 -0.0566  2.5161 -1.0039
  443MOL0     H61104   5.821  11.621  10.278  2.5951 -1.6179  2.0743
  443MOL0     H61105   5.878  11.755  10.372  1.0557  0.5243 -0.2624
  443MOL0     H61106   6.028  11.609  10.155  2.8547 -1.3799  1.6459
  443MOL0     H61107   6.044  11.772  10.121 -0.6901 -1.9499 -0.4898
  443MOL0     H61108   6.087  11.679  10.409 -0.9610 -2.6435 -1.4422
  443MOL0     H61109   6.104  11.843  10.339  0.8040 -0.1440  0.3253
  443MOL0     H61110   6.284  11.769  10.179  0.6195  0.5977  0.3661
  443MOL0     H61111   6.267  11.608  10.218  0.5144 -0.6962  1.3517
  443MOL0     H61112   6.463  11.682  10.327  1.2699 -1.1718  2.3020
  443MOL0     H61113   6.346  11.622  10.441  0.6011  1.2896  1.7718
  443MOL0     H61114   5.210  12.010  10.321 -0.3303 -1.1025  2.4511
  443MOL0     H61115   5.014  11.876  10.269 -0.0962 -0.3118  2.0346
  443MOL0     H61116   4.751  11.644  10.160 -1.1117  0.1150  1.1448
  443MOL0     H61117   4.513  11.563  10.086 -1.5429 -3.8132 -1.5641
  443MOL0     H61118   2.816  10.695   9.956  1.1390  0.7087  0.9594
  443MOL0     H61119   2.667  10.514   9.857 -0.3348  0.3074  0.5355
  443MOL0     H61120   2.537  10.090   9.869  1.8710  1.7283  0.1837
  443MOL0     H61121   2.364   9.962   9.785  2.1673 -3.6891 -0.9042
  443MOL0     H61122   2.211   9.744   9.522  5.8584  1.4576 -2.7974
  443MOL0     H61123   2.299   9.766   9.676  1.7819  0.2936 -0.3222
  443MOL0     H61124   2.085   9.969   9.612  2.7991  1.0231 -0.7620
  443MOL0     H61125   2.115   9.894   9.766 -2.3648 -0.5257 -0.2748
  443MOL0     H61126   1.988   9.734   9.545 -0.1343 -2.2561 -0.3803
  443MOL0     H61127   2.009   9.687   9.712 -2.5123 -1.8980 -2.0104
  443MOL0     H61128   1.789   9.734   9.706 -0.4105  1.1777  0.9817
  443MOL0     H61129   1.794   9.846   9.572 -0.5602 -0.1122 -0.4755
  443MOL0     H61130   1.778  10.099   9.901  2.4620 -2.6507  2.5501
  443MOL0     H61131   2.449  10.037   9.387 -1.5215  3.8184  0.2216
  443MOL0     H61132   2.659  10.158   9.323  0.4184  0.2668  0.4496
  443MOL0     H61133   2.718  10.281   9.440  2.3722  0.2128 -0.0205
  443MOL0     H61134   2.792  10.122   9.432 -0.5841 -0.6836  0.9481
  444MOL0     O61135   3.709   7.224   5.485  0.1910 -0.2207 -0.3734
  444MOL0     C61136   3.683   7.297   5.390  0.0251 -0.0661  0.2915
  444MOL0     O61137   3.758   7.411   5.346  0.3674  0.4721 -0.0958
  444MOL0     C61138   3.871   7.440   5.408 -0.2418 -0.6570 -0.4155
  444MOL0     C61139   3.989   7.426   5.331 -0.3768  0.2443 -0.9761
  444MOL0     C61140   4.116   7.461   5.392  0.6143  0.2842 -0.1242
  444MOL0     C61141   4.122   7.499   5.526 -0.3037  0.2139 -0.2310
  444MOL0     O61142   4.228   7.529   5.602  0.7770 -0.1447  0.2721
  444MOL0     C61143   4.352   7.534   5.539 -0.4127 -0.0341 -0.1064
  444MOL0     C61144   4.436   7.504   5.661 -0.8159 -0.5398 -0.2537
  444MOL0     C61145   4.422   7.625   5.762 -0.2091  0.3455  1.0041
  444MOL0     C61146   4.513   7.613   5.878  0.0274  0.1620  0.4359
  444MOL0     C61147   4.476   7.502   5.984  0.3445 -0.5538  1.1879
  444MOL0     C61148   4.328   7.493   6.015  0.3782  0.3654 -0.3321
  444MOL0     C61149   4.322   7.434   6.159 -0.4286 -0.3336 -0.6303
  444MOL0     C61150   4.193   7.369   6.194  0.3652 -0.2075 -0.7708
  444MOL0     N61151   4.081   7.461   6.202  0.1557 -0.8240 -0.4612
  444MOL0     C61152   4.008   7.490   6.321 -0.1891 -0.1083  0.0745
  444MOL0     C61153   3.912   7.577   6.283 -0.0473  0.0715 -0.7112
  444MOL0     C61154   3.814   7.651   6.369 -1.2294 -0.5196  0.8083
  444MOL0     C61155   3.690   7.568   6.389  0.5243  0.3786  0.0566
  444MOL0     C61156   3.574   7.644   6.462  0.1174  0.4593 -0.2070
  444MOL0     C61157   3.612   7.724   6.592  0.3150 -0.7594  0.1259
  444MOL0     O61158   3.680   7.650   6.699  0.0932 -0.3361 -0.3606
  444MOL0     C61159   3.717   7.721   6.809 -0.5363 -0.1670 -0.2580
  444MOL0     C61160   3.624   7.774   6.896 -0.8064 -0.4191  0.4283
  444MOL0     C61161   3.671   7.849   7.007 -0.6037 -0.5494 -0.4040
  444MOL0     C61162   3.559   7.930   7.083 -0.0201  0.2173 -0.2710
  444MOL0     C61163   3.810   7.856   7.039  1.4412  0.3872  0.2500
  444MOL0     C61164   3.866   7.923   7.162 -0.4440 -0.2008  0.0923
  444MOL0     O61165   3.996   7.928   7.161  0.1180 -0.5656  0.2184
  444MOL0     C61166   4.064   7.995   7.252 -0.2125  0.2974 -0.3690
  444MOL0     C61167   4.069   7.962   7.387 -0.8048  0.3610 -0.2506
  444MOL0     C61168   4.163   8.023   7.470 -0.7712  0.2767  0.0094
  444MOL0     C61169   4.255   8.125   7.427  0.2588 -0.7633  0.0016
  444MOL0     O61170   4.346   8.170   7.524 -0.1995  0.2539  0.5856
  444MOL0     C61171   4.479   8.197   7.481 -1.5191  0.3359 -1.0213
  444MOL0     C61172   4.575   8.213   7.600  0.4769 -0.5555  0.4302
  444MOL0     C61173   4.604   8.071   7.641  0.4602 -0.1147  0.4080
  444MOL0     C61174   4.695   8.057   7.765  0.7235 -0.3051 -0.4671
  444MOL0     C61175   4.718   7.913   7.796  0.1767  0.0572  0.1307
  444MOL0     C61176   4.779   7.898   7.929 -0.6390  0.3675 -0.1074
  444MOL0     C61177   4.800   7.753   7.963 -0.3043 -0.0445 -1.0142
  444MOL0     C61178   4.779   7.714   8.116  0.1232 -0.3782 -0.6070
  444MOL0    Cl61179   4.592   7.683   8.138 -0.1578 -0.0802  0.1443
  444MOL0     C61180   4.254   8.151   7.294 -0.0357 -0.1262 -0.5339
  444MOL0     C61181   4.165   8.082   7.207  0.5687 -0.0733  0.2980
  444MOL0     O61182   3.793   7.981   7.244  0.2899  0.0428  0.2976
  444MOL0     C61183   3.887   7.782   6.957 -0.2225  0.5950  0.9305
  444MOL0     C61184   3.850   7.725   6.840 -0.4049 -0.1619  0.1895
  444MOL0     N61185   3.910   7.580   6.143  0.7336  0.7557  0.1931
  444MOL0     N61186   4.011   7.517   6.098 -0.3323  0.1379 -0.2974
  444MOL0     C61187   4.005   7.525   5.591 -0.3915 -0.9523  0.2845
  444MOL0     C61188   3.878   7.500   5.534 -0.6367 -0.1890 -0.3138
  444MOL0     C61189   3.557   7.275   5.314  0.4513  0.8721  0.8795
  444MOL0     C61190   3.517   7.379   5.232  0.3815 -0.3884  0.0019
  444MOL0     C61191   3.398   7.366   5.155 -0.0827 -0.5120  0.5782
  444MOL0     C61192   3.326   7.245   5.165 -0.4575 -0.5367  0.0969
  444MOL0     O61193   3.217   7.232   5.086  0.2103  0.7035 -0.3269
  444MOL0     C61194   3.097   7.177   5.134  0.3014  0.4515  0.3627
  444MOL0     C61195   2.980   7.195   5.030 -0.3874  0.7143  0.6410
  444MOL0     C61196   2.849   7.155   5.101  0.6690  0.1108  1.4308
  444MOL0     C61197   2.731   7.152   4.996 -0.2269 -0.1107 -0.5168
  444MOL0     C61198   2.611   7.093   5.062  0.4724 -0.0269  1.2311
  444MOL0     C61199   2.504   7.055   5.105 -1.0857 -1.9342  0.1028
  444MOL0     C61200   3.358   7.143   5.256  0.6450  0.3121 -0.3508
  444MOL0     C61201   3.469   7.160   5.333 -0.2175  0.3051 -0.1948
  444MOL0     C61202   3.506   7.049   5.429  0.2026  0.3620  0.7995
  444MOL0     H61203   3.989   7.397   5.227 -2.2161 -0.2850 -0.8588
  444MOL0     H61204   4.205   7.441   5.333 -0.1417 -2.0515 -0.5696
  444MOL0     H61205   4.372   7.634   5.499  4.2185  0.5160  2.7402
  444MOL0     H61206   4.364   7.460   5.460  0.3173 -1.0817  0.9443
  444MOL0     H61207   4.411   7.407   5.705 -0.3049 -1.1473 -1.2415
  444MOL0     H61208   4.540   7.499   5.625 -0.7162 -1.6754  0.1400
  444MOL0     H61209   4.439   7.723   5.716  1.8127 -0.8926 -1.0700
  444MOL0     H61210   4.322   7.632   5.806  0.9624  0.4384  3.8962
  444MOL0     H61211   4.615   7.583   5.855  0.9273 -0.2790  4.2313
  444MOL0     H61212   4.522   7.704   5.938 -0.1007 -1.4473  3.0576
  444MOL0     H61213   4.537   7.516   6.074 -1.1060  2.3030  1.8381
  444MOL0     H61214   4.494   7.401   5.945 -1.2975 -0.6260  0.5492
  444MOL0     H61215   4.267   7.584   6.018 -0.3127 -0.0835 -0.6739
  444MOL0     H61216   4.274   7.429   5.946  1.1107  1.0355 -1.5746
  444MOL0     H61217   4.338   7.513   6.233 -0.5437  1.3417 -2.3130
  444MOL0     H61218   4.406   7.365   6.173  0.4567  0.7584 -0.4343
  444MOL0     H61219   4.173   7.295   6.116  4.5041  0.7696 -3.0082
  444MOL0     H61220   4.220   7.318   6.287  3.1148  0.0825 -1.3288
  444MOL0     H61221   4.021   7.438   6.415 -4.4787 -1.0950  0.2970
  444MOL0     H61222   3.782   7.746   6.324 -1.0496 -0.3874  0.9613
  444MOL0     H61223   3.862   7.665   6.465  0.2641  2.6453 -0.2536
  444MOL0     H61224   3.653   7.513   6.302 -1.7711 -0.9486  1.7636
  444MOL0     H61225   3.723   7.487   6.453 -1.9721  1.3708  2.8234
  444MOL0     H61226   3.522   7.706   6.387 -2.1151 -2.0602 -0.8750
  444MOL0     H61227   3.511   7.560   6.489  1.5574 -0.8739 -0.8401
  444MOL0     H61228   3.688   7.799   6.568  0.2080  0.1729  2.4087
  444MOL0     H61229   3.521   7.778   6.621  0.2015 -0.0123 -1.5534
  444MOL0     H61230   3.516   7.766   6.886 -1.1959  2.2927  1.6372
  444MOL0     H61231   3.572   8.037   7.068 -0.5099  0.7109  2.3089
  444MOL0     H61232   3.562   7.906   7.190  0.3737  0.4021 -0.2372
  444MOL0     H61233   3.461   7.905   7.042 -0.0928  1.3994 -0.8420
  444MOL0     H61234   4.005   7.879   7.413 -0.4011  0.2406  0.3574
  444MOL0     H61235   4.156   7.994   7.574 -1.0397  2.0573  0.5145
  444MOL0     H61236   4.514   8.141   7.394  3.6116  0.8884  0.3258
  444MOL0     H61237   4.481   8.302   7.451 -0.6929  0.9382  0.9296
  444MOL0     H61238   4.675   8.254   7.578  0.7798 -1.0875  0.7898
  444MOL0     H61239   4.518   8.273   7.672  1.0812 -1.2438  1.5098
  444MOL0     H61240   4.654   8.014   7.562  0.9152 -0.5808  1.0167
  444MOL0     H61241   4.511   8.018   7.663  1.1826 -0.8477  1.8816
  444MOL0     H61242   4.637   8.113   7.839  0.8068 -0.0637 -0.5848
  444MOL0     H61243   4.795   8.097   7.751 -0.5684  2.5678 -2.6673
  444MOL0     H61244   4.626   7.855   7.793  0.1391  0.0657  0.9467
  444MOL0     H61245   4.790   7.860   7.733  0.0065  0.2490 -0.2242
  444MOL0     H61246   4.709   7.939   8.002 -0.8732  1.3843 -0.8788
  444MOL0     H61247   4.877   7.948   7.929 -0.6451  0.3840 -0.3915
  444MOL0     H61248   4.900   7.729   7.927 -0.6503 -0.0643 -1.9648
  444MOL0     H61249   4.735   7.692   7.900  0.6217 -1.7644 -0.3654
  444MOL0     H61250   4.821   7.788   8.185  0.0695  1.3244 -2.3094
  444MOL0     H61251   4.838   7.623   8.128  0.2107 -0.0825  1.4930
  444MOL0     H61252   4.307   8.236   7.253 -1.6709 -0.1878 -2.9892
  444MOL0     H61253   4.152   8.104   7.102 -2.7551 -1.8286  0.2180
  444MOL0     H61254   3.995   7.780   6.965 -0.1295  1.7384  0.2302
  444MOL0     H61255   3.917   7.679   6.767 -1.7639 -0.5746 -0.8430
  444MOL0     H61256   4.030   7.565   5.689  1.0764  1.1545 -0.8653
  444MOL0     H61257   3.789   7.525   5.591  1.9119 -3.1102  5.9203
  444MOL0     H61258   3.550   7.482   5.236 -0.6268 -0.0843  1.2424
  444MOL0     H61259   3.371   7.443   5.083  2.1616 -2.6467 -2.8347
  444MOL0     H61260   3.111   7.070   5.150 -0.6795 -0.0154 -1.6300
  444MOL0     H61261   3.066   7.223   5.229 -1.5010  0.2065 -0.0847
  444MOL0     H61262   2.995   7.123   4.949  0.8386  1.8846 -0.2180
  444MOL0     H61263   2.971   7.292   4.981 -0.3476 -0.1262 -1.1404
  444MOL0     H61264   2.861   7.051   5.133 -0.0745 -0.8636 -1.1690
  444MOL0     H61265   2.813   7.213   5.186 -0.0928 -2.5509  3.0476
  444MOL0     H61266   2.763   7.086   4.915  2.9914 -0.1483  0.6513
  444MOL0     H61267   2.703   7.254   4.967 -0.7293 -0.7104 -2.2459
  444MOL0     H61268   2.403   7.033   5.132 -1.5701  1.1870  1.2516
  444MOL0     H61269   3.295   7.055   5.268 -0.5833  1.0470 -1.1719
  444MOL0     H61270   3.608   7.012   5.444 -0.0695  0.1594  2.3030
  444MOL0     H61271   3.455   7.056   5.526 -1.2559  3.1683 -0.0782
  444MOL0     H61272   3.456   6.957   5.396  1.6441 -2.0904  4.6920
  445MOL0     O61273   6.989   5.039   0.141 -0.2320  0.0432  0.3910
  445MOL0     C61274   7.057   5.138   0.160 -0.3597  0.4828  0.6949
  445MOL0     O61275   7.114   5.212   0.063  0.4524 -0.3589  0.4146
  445MOL0     C61276   7.107   5.179  -0.078  0.1605  0.1065  0.3869
  445MOL0     C61277   6.989   5.162  -0.136  0.4158 -0.7950  0.6568
  445MOL0     C61278   6.982   5.158  -0.277 -1.0272 -0.0924 -0.5070
  445MOL0     C61279   7.093   5.177  -0.361  0.8212 -0.2211 -0.8968
  445MOL0     O61280   7.064   5.173  -0.498 -0.8391  0.1970  0.0584
  445MOL0     C61281   7.162   5.100  -0.575  0.1121  0.3452  0.6426
  445MOL0     C61282   7.105   5.037  -0.706 -0.4029  0.4013  0.7796
  445MOL0     C61283   7.022   5.140  -0.789  0.3856 -0.4677  1.0319
  445MOL0     C61284   7.099   5.260  -0.846  0.2264  0.1382 -0.8710
  445MOL0     C61285   6.996   5.365  -0.893  0.2945  0.1670 -0.3401
  445MOL0     C61286   6.916   5.440  -0.778 -0.6967  0.1792  0.2199
  445MOL0     C61287   7.015   5.505  -0.677 -0.0333  1.6151  0.0278
  445MOL0     C61288   6.945   5.609  -0.601 -0.2880  0.2367  0.0333
  445MOL0     N61289   7.013   5.648  -0.479 -0.3819 -0.2637 -0.1698
  445MOL0     C61290   7.027   5.569  -0.363 -0.2191  0.1260  0.1171
  445MOL0     C61291   7.090   5.647  -0.275 -0.4718  0.2421 -0.4137
  445MOL0     C61292   7.132   5.599  -0.136 -0.1561  0.2458 -1.0505
  445MOL0     C61293   7.199   5.712  -0.062 -0.1405 -0.1923 -0.7293
  445MOL0     C61294   7.236   5.663   0.079 -0.2324 -0.1297 -0.2648
  445MOL0     C61295   7.269   5.767   0.188 -0.2571  1.1298 -0.4534
  445MOL0     O61296   7.187   5.885   0.167 -0.4215 -0.0638  0.2337
  445MOL0     C61297   7.058   5.902   0.202  0.3119 -0.1707  0.0307
  445MOL0     C61298   7.000   6.026   0.179 -0.2204  0.4804 -0.1077
  445MOL0     C61299   6.871   6.062   0.223 -0.0973 -0.5276  0.0958
  445MOL0     C61300   6.814   6.190   0.171 -0.8953 -0.6618 -0.5028
  445MOL0     C61301   6.792   5.973   0.295  0.0402  0.0922 -0.4678
  445MOL0     C61302   6.665   6.003   0.365 -0.6231  0.0017 -0.1144
  445MOL0     O61303   6.605   5.892   0.420 -1.1899 -0.1032  0.4558
  445MOL0     C61304   6.477   5.921   0.451 -0.2977  0.1138 -0.3950
  445MOL0     C61305   6.440   6.017   0.550 -0.0929 -0.7005 -0.2102
  445MOL0     C61306   6.307   6.029   0.591  0.0362 -0.0643 -0.1084
  445MOL0     C61307   6.202   5.971   0.525 -0.8117 -0.0085  0.2193
  445MOL0     O61308   6.073   5.993   0.564  0.4620 -0.1919  0.1388
  445MOL0     C61309   5.971   5.976   0.460  0.1844  1.0716  0.0692
  445MOL0     C61310   5.848   6.051   0.505 -0.8983  0.5108  0.8744
  445MOL0     C61311   5.840   6.186   0.454 -1.2955  0.4484  0.5832
  445MOL0     C61312   5.940   6.287   0.501 -0.3719 -0.0871 -0.4400
  445MOL0     C61313   5.897   6.430   0.452 -0.2387  0.0108  0.9503
  445MOL0     C61314   5.791   6.509   0.535  0.1993  0.2158  0.8265
  445MOL0     C61315   5.764   6.650   0.472  0.0986 -0.5989  0.4627
  445MOL0     C61316   5.675   6.736   0.564 -0.6348 -0.5841 -0.2257
  445MOL0    Cl61317   5.657   6.900   0.496  0.1634  0.0824 -0.0370
  445MOL0     C61318   6.247   5.876   0.422 -0.0641  0.0278  0.7147
  445MOL0     C61319   6.378   5.850   0.395 -0.3806 -0.3454  0.6407
  445MOL0     O61320   6.620   6.119   0.366 -0.0691  0.5903 -0.5276
  445MOL0     C61321   6.845   5.845   0.308 -0.5170 -0.2866  0.1999
  445MOL0     C61322   6.982   5.808   0.280  0.2834 -0.0712  0.1334
  445MOL0     N61323   7.118   5.771  -0.338 -0.8349  0.2916 -0.6703
  445MOL0     N61324   7.071   5.770  -0.455 -0.1993 -0.2000 -0.5204
  445MOL0     C61325   7.219   5.199  -0.297  0.3777  0.5293 -0.4163
  445MOL0     C61326   7.226   5.202  -0.154 -0.2428  0.8299  0.8230
  445MOL0     C61327   7.105   5.169   0.291 -0.0159 -1.3470 -0.0012
  445MOL0     C61328   7.007   5.169   0.391  0.3717  0.2883 -0.2737
  445MOL0     C61329   7.037   5.234   0.512 -0.3471  0.3515  0.0697
  445MOL0     C61330   7.160   5.281   0.547 -1.7664  0.1961  0.3017
  445MOL0     O61331   7.188   5.334   0.665 -0.0916  0.5946 -0.4593
  445MOL0     C61332   7.204   5.232   0.774 -0.3814 -0.3336  0.5989
  445MOL0     C61333   7.277   5.293   0.887 -0.2617 -0.6284 -0.8366
  445MOL0     C61334   7.179   5.396   0.956 -0.4656  0.0453 -0.2846
  445MOL0     C61335   7.253   5.454   1.083 -0.6852 -0.4255  0.6256
  445MOL0     C61336   7.366   5.531   1.034 -1.1433  0.3148 -0.8581
  445MOL0     C61337   7.455   5.602   0.988  0.6881  0.3058  0.0186
  445MOL0     C61338   7.257   5.277   0.448  1.1754 -0.2510  0.0632
  445MOL0     C61339   7.232   5.228   0.320 -0.9483 -0.4750  0.4765
  445MOL0     C61340   7.346   5.241   0.218  0.2613  0.4435  0.1155
  445MOL0     H61341   6.894   5.161  -0.083 -2.8238  4.2645 -4.0448
  445MOL0     H61342   6.885   5.142  -0.322 -1.3881 -4.0742  1.3126
  445MOL0     H61343   7.213   5.022  -0.518 -0.7060 -0.8117 -0.1585
  445MOL0     H61344   7.245   5.170  -0.588  0.3609 -0.0457  0.0929
  445MOL0     H61345   7.185   4.998  -0.770 -1.1866  1.7076 -1.0722
  445MOL0     H61346   7.047   4.948  -0.680  1.0691 -0.8554 -0.0406
  445MOL0     H61347   6.976   5.099  -0.879  2.6529  0.9478 -0.9063
  445MOL0     H61348   6.944   5.178  -0.722 -0.3230 -0.7276  0.3644
  445MOL0     H61349   7.172   5.283  -0.769  0.2056  0.7403 -1.0331
  445MOL0     H61350   7.150   5.233  -0.939 -1.5971 -1.5918 -1.4605
  445MOL0     H61351   6.923   5.319  -0.960 -1.4111 -0.5663  1.9154
  445MOL0     H61352   7.041   5.439  -0.961  0.2307 -1.6185 -2.4388
  445MOL0     H61353   6.855   5.517  -0.826  0.6322  1.1629  0.0426
  445MOL0     H61354   6.834   5.386  -0.731 -0.9671  1.0618  0.7927
  445MOL0     H61355   7.104   5.543  -0.728  1.9616 -1.3389  1.0249
  445MOL0     H61356   7.040   5.418  -0.617 -0.5477  0.6584 -1.1063
  445MOL0     H61357   6.944   5.700  -0.662  1.6688  0.9192  0.9338
  445MOL0     H61358   6.843   5.581  -0.573 -1.3889 -0.6059 -4.1375
  445MOL0     H61359   7.000   5.465  -0.348  0.6721 -0.3609 -1.3772
  445MOL0     H61360   7.183   5.502  -0.137  0.5923  0.5509  1.3537
  445MOL0     H61361   7.039   5.587  -0.079  1.0836  1.7159  1.4461
  445MOL0     H61362   7.289   5.744  -0.114  1.3253 -0.9734  1.1897
  445MOL0     H61363   7.129   5.796  -0.057  1.3870  1.1528  4.3608
  445MOL0     H61364   7.144   5.623   0.123 -0.0406 -1.5734 -1.1235
  445MOL0     H61365   7.308   5.580   0.075 -0.3417 -0.2675  0.5116
  445MOL0     H61366   7.258   5.725   0.288 -0.9540  0.9477 -0.6001
  445MOL0     H61367   7.374   5.797   0.177 -0.6414  2.0249 -2.0869
  445MOL0     H61368   7.062   6.090   0.117 -0.4144 -0.6272 -1.5016
  445MOL0     H61369   6.893   6.244   0.118 -0.9516 -1.0258 -0.9636
  445MOL0     H61370   6.781   6.261   0.247  0.0892 -0.6572 -0.0608
  445MOL0     H61371   6.732   6.167   0.103 -1.2341  0.2221 -0.4051
  445MOL0     H61372   6.524   6.072   0.591 -0.6838  0.4190 -0.4916
  445MOL0     H61373   6.284   6.105   0.665 -0.4300  1.1019 -1.4110
  445MOL0     H61374   6.005   6.003   0.360 -0.7162 -4.0762 -1.9619
  445MOL0     H61375   5.942   5.871   0.446 -1.0733  1.4071  0.0157
  445MOL0     H61376   5.766   5.988   0.471  0.7100 -1.3318  0.2132
  445MOL0     H61377   5.852   6.045   0.615 -0.6258  0.2640  0.8534
  445MOL0     H61378   5.738   6.221   0.477 -1.0617  1.2954  0.3648
  445MOL0     H61379   5.842   6.175   0.345 -2.2585  4.0439  0.0551
  445MOL0     H61380   6.024   6.251   0.442  0.2924 -0.6663  0.8299
  445MOL0     H61381   5.967   6.287   0.607  0.0514  0.9835 -0.5382
  445MOL0     H61382   5.982   6.498   0.443  0.2902 -0.9045 -2.5817
  445MOL0     H61383   5.851   6.426   0.353 -1.0139  2.2209  1.1630
  445MOL0     H61384   5.825   6.526   0.638 -0.9745 -0.4994  1.3565
  445MOL0     H61385   5.700   6.449   0.538  1.1030 -1.3359 -1.0315
  445MOL0     H61386   5.722   6.638   0.371 -1.2516  0.8191  0.8160
  445MOL0     H61387   5.861   6.700   0.468 -0.9844  1.5672 -0.3450
  445MOL0     H61388   5.728   6.760   0.657 -0.1094 -0.9008 -0.4438
  445MOL0     H61389   5.579   6.684   0.575 -0.5420 -1.2552 -2.2136
  445MOL0     H61390   6.168   5.826   0.368 -0.2410 -1.7619  2.5034
  445MOL0     H61391   6.410   5.776   0.322  1.8380 -1.9107  3.0051
  445MOL0     H61392   6.790   5.775   0.370  0.1577 -0.1756  0.9397
  445MOL0     H61393   7.027   5.714   0.308  0.0416 -0.3714 -0.4632
  445MOL0     H61394   7.319   5.204  -0.339  0.6376 -1.7065 -0.1631
  445MOL0     H61395   7.321   5.224  -0.106  0.2118  0.9052 -0.0874
  445MOL0     H61396   6.912   5.118   0.394  0.2971  0.4710  0.6827
  445MOL0     H61397   6.961   5.228   0.589 -1.5900  0.4187 -1.1142
  445MOL0     H61398   7.112   5.183   0.808  0.0840 -1.8784 -0.2567
  445MOL0     H61399   7.277   5.157   0.741  0.6983  1.2144 -0.6878
  445MOL0     H61400   7.368   5.339   0.848 -0.6698  0.7554 -0.2412
  445MOL0     H61401   7.307   5.218   0.961  0.9689  1.2869  0.7094
  445MOL0     H61402   7.147   5.477   0.890  0.3227  1.7049  1.2578
  445MOL0     H61403   7.094   5.339   0.995 -0.2203  0.0948  0.3403
  445MOL0     H61404   7.288   5.384   1.160  0.6956  0.3721  0.7696
  445MOL0     H61405   7.180   5.517   1.135 -1.2570  0.2920 -0.9880
  445MOL0     H61406   7.535   5.655   0.940 -0.0743  0.8341 -0.6968
  445MOL0     H61407   7.353   5.309   0.487  0.8255 -1.9250  2.5506
  445MOL0     H61408   7.350   5.143   0.168 -1.4796 -0.3522  1.4554
  445MOL0     H61409   7.316   5.317   0.145 -2.0686 -0.4806  0.0346
  445MOL0     H61410   7.446   5.263   0.256  2.4532 -0.2809 -4.4313
  446MOL0     O61411   7.666   7.819   6.808 -0.0147 -0.3477  0.2145
  446MOL0     C61412   7.652   7.702   6.848  0.1613 -0.4045  0.0602
  446MOL0     O61413   7.755   7.621   6.879 -0.5279 -0.3323 -0.1556
  446MOL0     C61414   7.888   7.660   6.857  0.5508  0.1179 -0.7087
  446MOL0     C61415   7.942   7.641   6.734  0.1442  0.1040 -0.7109
  446MOL0     C61416   8.075   7.670   6.719  0.6918 -0.3311 -0.0485
  446MOL0     C61417   8.161   7.715   6.815  0.5957 -0.0658 -0.4554
  446MOL0     O61418   8.294   7.719   6.783 -0.4911  0.0896 -0.3660
  446MOL0     C61419   8.382   7.701   6.890 -0.3004 -0.9490 -0.2956
  446MOL0     C61420   8.426   7.837   6.933 -0.4357  0.2325 -0.6704
  446MOL0     C61421   8.535   7.839   7.035  0.2354 -0.1190 -0.1308
  446MOL0     C61422   8.552   7.985   7.084 -0.0831  0.8988 -1.3867
  446MOL0     C61423   8.628   8.004   7.215  0.3708 -0.1002  0.0274
  446MOL0     C61424   8.772   7.961   7.200  0.6193  0.6168  0.8066
  446MOL0     C61425   8.864   7.965   7.322  0.4256  0.0833 -0.2470
  446MOL0     C61426   8.930   8.105   7.345  0.5846  0.3490 -0.3633
  446MOL0     N61427   9.048   8.080   7.424  0.6374  0.0630 -0.2371
  446MOL0     C61428   9.057   8.066   7.560  0.5618 -0.2408  0.6376
  446MOL0     C61429   9.187   8.042   7.589 -0.2321 -0.4118 -0.6180
  446MOL0     C61430   9.247   8.017   7.723 -1.0852 -0.9376  0.3602
  446MOL0     C61431   9.209   7.882   7.789  0.7310 -1.4615 -0.0964
  446MOL0     C61432   9.236   7.865   7.940 -0.3526 -0.1651  0.3444
  446MOL0     C61433   9.380   7.892   7.967 -0.0295 -0.3090 -0.5691
  446MOL0     O61434   9.404   7.832   8.093 -0.4990 -0.3637 -0.1999
  446MOL0     C61435   9.538   7.805   8.110 -0.5260 -0.5082 -0.6509
  446MOL0     C61436   9.564   7.721   8.218  0.5839 -0.0894 -0.3519
  446MOL0     C61437   9.690   7.676   8.244 -0.1426 -0.6126 -0.1541
  446MOL0     C61438   9.696   7.563   8.353 -0.0080  0.0022 -0.8841
  446MOL0     C61439   9.800   7.713   8.162  0.6621 -1.0706 -0.1626
  446MOL0     C61440   9.940   7.654   8.169  1.5398 -0.1824 -0.1483
  446MOL0     O61441  10.003   7.644   8.052 -0.3490  0.1585  0.5075
  446MOL0     C61442  10.138   7.626   8.051 -0.7801 -0.4804  0.6289
  446MOL0     C61443  10.230   7.663   8.154  0.0697 -0.1133  0.2840
  446MOL0     C61444  10.366   7.611   8.136  0.7342 -0.7185  0.0058
  446MOL0     C61445  10.403   7.542   8.024 -0.0712  1.6392 -0.3663
  446MOL0     O61446  10.541   7.510   8.018  0.3992  0.1975  0.3956
  446MOL0     C61447  10.573   7.381   7.962 -0.5322 -0.8170 -0.1969
  446MOL0     C61448  10.706   7.336   8.023 -0.2930 -0.3835  0.1472
  446MOL0     C61449  10.834   7.420   8.011 -0.1770  0.7201 -0.6649
  446MOL0     C61450  10.942   7.375   8.115 -0.1507 -0.1228 -0.9349
  446MOL0     C61451  11.068   7.469   8.094  0.5830  0.1431 -0.4966
  446MOL0     C61452  11.170   7.432   7.997  0.9746 -0.0624  0.4102
  446MOL0     C61453  11.273   7.541   7.965 -0.1503 -0.2240  0.4524
  446MOL0     C61454  11.362   7.491   7.862 -0.2221  0.1865  0.6310
  446MOL0    Cl61455  11.532   7.542   7.891  0.0727 -0.3412  0.3279
  446MOL0     C61456  10.314   7.509   7.925  0.3383  0.5004  0.0943
  446MOL0     C61457  10.184   7.550   7.946  0.4911  0.1541 -0.3645
  446MOL0     O61458   9.985   7.633   8.282  0.0696  0.1288 -0.4194
  446MOL0     C61459   9.784   7.812   8.065 -1.3323 -0.3924 -0.7206
  446MOL0     C61460   9.653   7.852   8.036 -0.5901 -0.2545 -0.0207
  446MOL0     N61461   9.260   8.049   7.467  0.0298  0.1560 -0.3817
  446MOL0     N61462   9.174   8.066   7.372  0.0034 -1.0687  0.0409
  446MOL0     C61463   8.097   7.751   6.940 -0.0637  0.2547 -0.7501
  446MOL0     C61464   7.965   7.716   6.963  0.0519 -0.7125  0.2781
  446MOL0     C61465   7.509   7.665   6.900  0.3828  0.0357  0.1422
  446MOL0     C61466   7.407   7.753   6.871  0.2544  0.5702  0.4176
  446MOL0     C61467   7.277   7.734   6.914 -0.1514  0.5532  0.3183
  446MOL0     C61468   7.249   7.633   7.006 -0.6634 -0.2009  0.3525
  446MOL0     O61469   7.123   7.635   7.067 -0.4085 -0.6852  0.5332
  446MOL0     C61470   7.064   7.511   7.109 -0.3799 -0.0296  0.9372
  446MOL0     C61471   6.915   7.507   7.081 -0.7067  0.7408 -0.7752
  446MOL0     C61472   6.857   7.364   7.056 -0.5913 -0.6241 -0.2930
  446MOL0     C61473   6.908   7.263   7.153  0.3194  0.3919 -0.1209
  446MOL0     C61474   6.862   7.281   7.290 -0.4687  0.2790  0.3725
  446MOL0     C61475   6.823   7.313   7.401 -0.0297  0.2742 -0.5870
  446MOL0     C61476   7.351   7.542   7.038  0.0950  0.4208 -0.4110
  446MOL0     C61477   7.480   7.549   6.982 -0.4076 -0.6686 -0.1026
  446MOL0     C61478   7.574   7.442   7.021  0.2920  0.7956  0.0995
  446MOL0     H61479   7.878   7.599   6.656 -2.4238 -2.9838  2.6942
  446MOL0     H61480   8.115   7.662   6.619 -3.2780 -1.7790 -1.7432
  446MOL0     H61481   8.467   7.633   6.877  0.9341  0.2407  1.1561
  446MOL0     H61482   8.333   7.665   6.981 -0.8903  1.9300  0.6472
  446MOL0     H61483   8.466   7.893   6.848 -1.2025  1.4814 -0.2297
  446MOL0     H61484   8.339   7.885   6.978  1.5970  1.7244  1.9189
  446MOL0     H61485   8.506   7.785   7.125 -1.2037  0.8385  0.0038
  446MOL0     H61486   8.632   7.807   6.995  1.6765  0.1067  2.8752
  446MOL0     H61487   8.610   8.030   7.004  0.5521  0.2967 -1.2682
  446MOL0     H61488   8.455   8.032   7.107 -0.7514 -1.2072  0.5925
  446MOL0     H61489   8.578   7.955   7.299 -2.0461 -0.3497 -1.4795
  446MOL0     H61490   8.632   8.112   7.233  1.6000 -0.0769 -0.2956
  446MOL0     H61491   8.757   7.856   7.172  1.8526  0.2688  1.3934
  446MOL0     H61492   8.819   8.015   7.117 -2.1261  1.4468 -0.3463
  446MOL0     H61493   8.948   7.897   7.307  0.6490 -0.1377  1.7624
  446MOL0     H61494   8.817   7.940   7.418  1.1359  1.4106  0.4743
  446MOL0     H61495   8.959   8.139   7.245 -2.6668 -2.5865 -2.5560
  446MOL0     H61496   8.860   8.166   7.403  0.4641 -1.1416  1.1044
  446MOL0     H61497   8.975   8.077   7.630 -0.6249  0.3548 -0.7843
  446MOL0     H61498   9.219   8.104   7.782  0.0667  0.0466 -0.4969
  446MOL0     H61499   9.355   8.023   7.713 -0.7216 -0.6342  3.6437
  446MOL0     H61500   9.102   7.864   7.782  0.2105  0.2583  2.1935
  446MOL0     H61501   9.252   7.797   7.735 -0.1873 -1.2441 -1.1892
  446MOL0     H61502   9.165   7.918   8.004 -0.9727 -0.3957 -0.1366
  446MOL0     H61503   9.211   7.760   7.958  0.2537 -0.5568 -0.9538
  446MOL0     H61504   9.443   7.844   7.892  1.6277 -0.7821  1.0596
  446MOL0     H61505   9.392   8.001   7.973 -2.9276  0.0859 -0.5803
  446MOL0     H61506   9.475   7.687   8.271  0.8940 -2.0573 -0.9790
  446MOL0     H61507   9.598   7.561   8.401  0.4877  1.9391  0.3546
  446MOL0     H61508   9.769   7.572   8.434 -1.0640 -3.4723  0.6510
  446MOL0     H61509   9.718   7.476   8.291  2.6166 -1.0108  1.2659
  446MOL0     H61510  10.209   7.719   8.245  2.7114  1.2705  0.1424
  446MOL0     H61511  10.447   7.635   8.204  2.2501 -0.6457 -1.7467
  446MOL0     H61512  10.510   7.296   7.987  2.1345 -2.7001  0.6390
  446MOL0     H61513  10.591   7.397   7.856 -0.0885 -2.2553 -0.3603
  446MOL0     H61514  10.684   7.351   8.129 -1.8260 -3.2672  0.3658
  446MOL0     H61515  10.715   7.229   8.001  1.5198 -0.1804 -0.2378
  446MOL0     H61516  10.801   7.523   8.027 -3.9591 -0.2745 -1.0996
  446MOL0     H61517  10.884   7.418   7.914 -0.6867  3.5364 -1.0667
  446MOL0     H61518  10.980   7.273   8.106  0.5730 -0.3143  2.7447
  446MOL0     H61519  10.905   7.388   8.217  0.3131 -3.9444 -0.1162
  446MOL0     H61520  11.037   7.572   8.075 -0.2407  0.7570  3.2824
  446MOL0     H61521  11.114   7.463   8.193  0.7465  0.9511 -0.5185
  446MOL0     H61522  11.106   7.412   7.910  1.1499 -2.4122  0.7456
  446MOL0     H61523  11.215   7.334   8.017 -1.5716 -1.3983  0.0590
  446MOL0     H61524  11.327   7.558   8.058 -1.1020  1.4845  0.7423
  446MOL0     H61525  11.216   7.630   7.935 -2.0861 -2.3730 -2.9890
  446MOL0     H61526  11.320   7.523   7.766  1.1078 -0.6635 -0.2670
  446MOL0     H61527  11.361   7.382   7.852 -1.9349  0.3108 -1.0093
  446MOL0     H61528  10.344   7.449   7.840  1.9234 -3.0611  2.9110
  446MOL0     H61529  10.106   7.513   7.880  0.9139  0.1659 -0.8756
  446MOL0     H61530   9.874   7.844   8.013 -2.3317 -1.5047 -3.3433
  446MOL0     H61531   9.635   7.934   7.968 -0.2123 -0.1164  0.0463
  446MOL0     H61532   8.154   7.796   7.021 -3.4032  1.9233  0.8759
  446MOL0     H61533   7.924   7.714   7.063  0.4958 -1.3519  0.4505
  446MOL0     H61534   7.437   7.833   6.805  3.4564 -1.3087 -0.6625
  446MOL0     H61535   7.211   7.815   6.884  1.1619  0.7702 -2.2656
  446MOL0     H61536   7.107   7.436   7.041 -0.4118  0.2249  0.6352
  446MOL0     H61537   7.088   7.484   7.212  1.7278  1.2701  0.8610
  446MOL0     H61538   6.882   7.571   6.999 -0.6388 -0.5738 -1.8704
  446MOL0     H61539   6.876   7.545   7.176  0.9252 -1.3007  0.8221
  446MOL0     H61540   6.748   7.366   7.054 -0.6731 -2.7020  0.1350
  446MOL0     H61541   6.886   7.337   6.955 -0.9831 -1.4820 -0.1834
  446MOL0     H61542   7.017   7.267   7.159  0.2846  1.2556 -0.0142
  446MOL0     H61543   6.893   7.158   7.125  4.7608 -1.3165  2.7727
  446MOL0     H61544   6.807   7.335   7.505  0.3125 -0.9090 -0.2648
  446MOL0     H61545   7.333   7.464   7.112  1.2146 -0.6473 -1.2290
  446MOL0     H61546   7.620   7.404   6.929 -2.6990  1.9903 -2.0665
  446MOL0     H61547   7.645   7.489   7.089  0.9881  1.5650 -1.1148
  446MOL0     H61548   7.525   7.356   7.068  1.7647 -0.1446 -0.0134
  447MOL0     O61549   1.932   2.938   7.418  1.1181 -0.2236  0.2525
  447MOL0     C61550   1.914   3.024   7.505 -0.0133  1.3642  0.1414
  447MOL0     O61551   1.932   3.003   7.632 -0.1824 -0.2110 -0.5547
  447MOL0     C61552   1.982   2.879   7.673 -0.2707 -0.7856 -0.0583
  447MOL0     C61553   2.110   2.822   7.630  0.1397  1.2490 -0.6117
  447MOL0     C61554   2.156   2.700   7.679  0.8944  0.4426 -0.3429
  447MOL0     C61555   2.072   2.633   7.764 -0.3959  0.7872 -0.4808
  447MOL0     O61556   2.115   2.515   7.825 -0.7072  0.1805 -0.8778
  447MOL0     C61557   2.253   2.465   7.821 -0.3054  0.2762  0.3526
  447MOL0     C61558   2.302   2.385   7.695  0.6546  0.1184  0.7038
  447MOL0     C61559   2.448   2.418   7.658 -0.3739  0.5863  0.5654
  447MOL0     C61560   2.517   2.328   7.548  0.5876 -0.1313 -0.0509
  447MOL0     C61561   2.666   2.339   7.545 -0.1539 -0.4796 -0.0548
  447MOL0     C61562   2.750   2.313   7.668 -0.1471  0.0228 -0.3527
  447MOL0     C61563   2.906   2.353   7.640  0.8355  1.1217  0.3735
  447MOL0     C61564   2.989   2.353   7.767 -0.2312  0.3175  0.2094
  447MOL0     N61565   3.001   2.214   7.821  0.2155 -0.5624  0.5405
  447MOL0     C61566   3.082   2.125   7.756  0.2501 -0.9961  0.1203
  447MOL0     C61567   3.085   2.017   7.833  0.1027  0.1151 -0.1950
  447MOL0     C61568   3.167   1.885   7.819  0.5591 -0.3574  0.0975
  447MOL0     C61569   3.245   1.860   7.944  0.4963  1.1281 -1.0193
  447MOL0     C61570   3.309   1.715   7.943 -0.5815  0.3184 -1.0211
  447MOL0     C61571   3.317   1.672   8.082  0.0531 -0.5083 -0.1660
  447MOL0     O61572   3.416   1.748   8.149 -0.2692 -1.1761 -0.5758
  447MOL0     C61573   3.481   1.686   8.258  0.6445 -0.6029 -0.2250
  447MOL0     C61574   3.444   1.567   8.328  0.4934 -0.4072 -0.0914
  447MOL0     C61575   3.523   1.523   8.437 -0.0790  0.0003  0.5213
  447MOL0     C61576   3.463   1.405   8.498  0.1773 -0.6948 -0.1451
  447MOL0     C61577   3.632   1.591   8.487 -0.5234 -1.0607 -1.3365
  447MOL0     C61578   3.720   1.550   8.601  0.0340 -0.7053  0.0450
  447MOL0     O61579   3.796   1.646   8.666  0.0660 -0.3764 -0.4659
  447MOL0     C61580   3.880   1.626   8.770 -0.8686  0.6776 -1.2842
  447MOL0     C61581   3.863   1.515   8.866  0.3495  0.3717 -0.4778
  447MOL0     C61582   3.954   1.490   8.977  0.4064 -0.7647  0.8026
  447MOL0     C61583   4.062   1.583   9.001  0.7991 -0.2199  0.1862
  447MOL0     O61584   4.152   1.575   9.106 -0.0213 -0.3146 -0.2042
  447MOL0     C61585   4.123   1.492   9.217  0.5316  0.3059  0.0533
  447MOL0     C61586   4.247   1.489   9.304  0.1455  0.0833 -0.2938
  447MOL0     C61587   4.225   1.385   9.418  0.6510 -0.2498 -0.2891
  447MOL0     C61588   4.337   1.395   9.526  0.4770  0.2577  0.9866
  447MOL0     C61589   4.295   1.331   9.660 -0.4188 -0.0744  0.2792
  447MOL0     C61590   4.250   1.183   9.638  0.5650 -0.7562  0.5993
  447MOL0     C61591   4.203   1.143   9.780  0.6666  0.8213  0.2124
  447MOL0     C61592   4.194   0.987   9.804 -1.3622  0.1424  0.0176
  447MOL0    Cl61593   4.174   0.954   9.981  0.3182 -0.5541 -0.1769
  447MOL0     C61594   4.063   1.697   8.926  0.2815 -1.0750 -0.5026
  447MOL0     C61595   3.982   1.720   8.811  0.0337 -0.5820  0.3259
  447MOL0     O61596   3.734   1.430   8.622 -0.5396 -0.3466  0.3914
  447MOL0     C61597   3.661   1.714   8.423  0.0351 -0.4360 -0.3169
  447MOL0     C61598   3.587   1.759   8.311 -0.8224 -0.7375 -0.3595
  447MOL0     N61599   2.999   2.039   7.936 -0.0713 -0.5811  0.1172
  447MOL0     N61600   2.939   2.148   7.922 -0.4345 -0.0458 -0.2697
  447MOL0     C61601   1.940   2.676   7.797 -0.4225  0.3290  0.4667
  447MOL0     C61602   1.905   2.805   7.759 -0.1967 -0.0378 -0.0932
  447MOL0     C61603   1.856   3.151   7.464  0.6451  0.2408 -0.0295
  447MOL0     C61604   1.824   3.242   7.571 -0.1649 -0.2394 -0.8939
  447MOL0     C61605   1.760   3.365   7.550 -0.1817 -0.5419  0.2489
  447MOL0     C61606   1.736   3.403   7.418  0.2251 -0.7020 -0.2498
  447MOL0     O61607   1.674   3.521   7.389 -0.6455 -0.4153  0.8800
  447MOL0     C61608   1.756   3.629   7.332 -0.1314  0.2318  0.6144
  447MOL0     C61609   1.849   3.696   7.433  0.7836  1.1697  0.6847
  447MOL0     C61610   1.891   3.837   7.392  0.1467  0.2155  0.1019
  447MOL0     C61611   1.973   3.847   7.263  0.2335 -0.0328  0.5165
  447MOL0     C61612   1.938   3.982   7.220 -0.1846  0.4863 -0.2496
  447MOL0     C61613   1.914   4.097   7.219  0.2346 -0.4064  0.4174
  447MOL0     C61614   1.762   3.317   7.309 -0.0159 -0.4060  0.2819
  447MOL0     C61615   1.828   3.193   7.325  0.6723  1.1435 -0.6386
  447MOL0     C61616   1.851   3.100   7.208  1.0958 -0.7563 -0.4638
  447MOL0     H61617   2.171   2.870   7.554 -0.4106  1.3157 -1.0167
  447MOL0     H61618   2.255   2.665   7.653  0.7403  0.1148 -0.4948
  447MOL0     H61619   2.260   2.396   7.905 -0.2793 -2.8539 -2.0152
  447MOL0     H61620   2.321   2.549   7.836  0.4308 -0.2806  0.1883
  447MOL0     H61621   2.274   2.282   7.718 -0.7353 -0.3364 -2.4829
  447MOL0     H61622   2.235   2.407   7.611  1.1985  1.9862  0.7117
  447MOL0     H61623   2.459   2.520   7.620  0.2699  0.2492 -0.1608
  447MOL0     H61624   2.508   2.404   7.749  0.1863 -5.8772 -0.3273
  447MOL0     H61625   2.496   2.226   7.582 -1.7488  1.1693  2.9285
  447MOL0     H61626   2.471   2.350   7.451  0.9071  1.8081  0.1893
  447MOL0     H61627   2.689   2.438   7.504  2.0419 -0.5838  0.7809
  447MOL0     H61628   2.705   2.263   7.476  0.9480 -0.6284  0.6943
  447MOL0     H61629   2.723   2.364   7.761  2.4792 -3.0385  2.3434
  447MOL0     H61630   2.752   2.206   7.688  0.2623  0.1206  0.1334
  447MOL0     H61631   2.903   2.460   7.621  0.2220  1.6204  2.9021
  447MOL0     H61632   2.948   2.295   7.557  0.7382 -1.0217  1.7333
  447MOL0     H61633   3.091   2.387   7.745  0.2938 -0.6344  1.0717
  447MOL0     H61634   2.940   2.418   7.840 -2.6525 -1.9184  0.7128
  447MOL0     H61635   3.142   2.143   7.667 -1.2308  0.5766 -0.6248
  447MOL0     H61636   3.233   1.890   7.731  0.7302  1.5060  0.2960
  447MOL0     H61637   3.100   1.801   7.797  1.5482 -1.0062 -0.5512
  447MOL0     H61638   3.327   1.931   7.954  1.7865 -0.1048 -2.2217
  447MOL0     H61639   3.173   1.865   8.026  0.8562  0.1259 -0.6268
  447MOL0     H61640   3.240   1.645   7.896 -0.2520  1.2228 -2.9312
  447MOL0     H61641   3.408   1.706   7.897 -0.6302 -0.1854 -1.0230
  447MOL0     H61642   3.223   1.660   8.136  0.9232 -1.1888  1.2632
  447MOL0     H61643   3.353   1.569   8.070 -0.7992 -0.9203  0.6470
  447MOL0     H61644   3.361   1.505   8.294  0.7489 -0.2361 -1.0593
  447MOL0     H61645   3.479   1.393   8.606 -0.2160 -1.7695 -0.1984
  447MOL0     H61646   3.495   1.312   8.452  3.4665 -1.9708  4.0220
  447MOL0     H61647   3.356   1.421   8.508  0.3794  0.1411  0.9373
  447MOL0     H61648   3.784   1.442   8.854  0.9564 -0.0203 -2.4208
  447MOL0     H61649   3.935   1.405   9.042  1.9648 -0.1992  2.0432
  447MOL0     H61650   4.039   1.534   9.273  0.3140  1.7447 -1.3158
  447MOL0     H61651   4.098   1.392   9.181  3.1745 -1.3804  2.4281
  447MOL0     H61652   4.337   1.461   9.248  2.3036  1.8681  2.0653
  447MOL0     H61653   4.271   1.587   9.346 -0.2250 -0.2182  0.6476
  447MOL0     H61654   4.217   1.289   9.366 -1.7070 -0.7975  0.9183
  447MOL0     H61655   4.128   1.413   9.462 -0.0953  2.8030 -3.3949
  447MOL0     H61656   4.373   1.497   9.533 -2.7910  1.8331 -1.9744
  447MOL0     H61657   4.421   1.331   9.498 -0.6300 -0.5999 -0.5356
  447MOL0     H61658   4.367   1.346   9.741 -4.0212  0.7491  3.6168
  447MOL0     H61659   4.211   1.388   9.701  1.3115  1.4003  1.9936
  447MOL0     H61660   4.327   1.119   9.595  2.7609  2.3014 -0.3912
  447MOL0     H61661   4.162   1.187   9.574 -2.8134  0.0796  4.7751
  447MOL0     H61662   4.098   1.171   9.791  0.9035  1.7575  0.1390
  447MOL0     H61663   4.251   1.196   9.863  0.0542  3.3497 -0.9697
  447MOL0     H61664   4.276   0.930   9.759 -2.2200 -2.0785  1.1283
  447MOL0     H61665   4.099   0.948   9.767 -1.8732  0.8288  0.5734
  447MOL0     H61666   4.131   1.776   8.957  3.3161 -3.7461  0.0811
  447MOL0     H61667   4.004   1.798   8.739 -1.0710  0.9087  1.5313
  447MOL0     H61668   3.753   1.766   8.448  2.0229 -4.0633  0.7957
  447MOL0     H61669   3.629   1.838   8.249 -0.4432  0.0560  0.8853
  447MOL0     H61670   1.890   2.622   7.876 -1.5583  0.9235  0.1658
  447MOL0     H61671   1.814   2.845   7.802 -0.9560  2.3133 -3.4927
  447MOL0     H61672   1.859   3.222   7.671 -1.0671  1.0575 -0.2920
  447MOL0     H61673   1.724   3.435   7.626 -1.1868 -0.2319 -0.4876
  447MOL0     H61674   1.809   3.584   7.248 -2.7531 -0.4486 -0.7782
  447MOL0     H61675   1.690   3.701   7.283 -0.7789 -0.0268  1.0873
  447MOL0     H61676   1.927   3.626   7.462 -1.1372 -0.4441  2.3046
  447MOL0     H61677   1.787   3.710   7.522 -3.3039  0.2520 -1.7534
  447MOL0     H61678   1.795   3.890   7.387 -0.0259 -0.0174  0.9392
  447MOL0     H61679   1.940   3.893   7.472  1.0180  1.8415 -1.4989
  447MOL0     H61680   1.947   3.780   7.181  1.4710  2.9923 -2.5922
  447MOL0     H61681   2.079   3.829   7.280  0.7407  0.7483 -1.5000
  447MOL0     H61682   1.888   4.201   7.224  0.0791 -0.4527  0.6124
  447MOL0     H61683   1.737   3.356   7.211 -0.0128  2.0917  1.1972
  447MOL0     H61684   1.816   3.147   7.116  3.1611  1.6766 -0.1162
  447MOL0     H61685   1.958   3.079   7.194  0.7988 -1.2548 -2.1244
  447MOL0     H61686   1.799   3.004   7.210  0.1884 -0.2902 -1.0930
  448MOL0     O61687   2.029   8.095   2.507 -0.0867 -0.4528  0.3760
  448MOL0     C61688   1.974   8.197   2.560  0.1298  0.4285  0.8001
  448MOL0     O61689   2.048   8.306   2.613 -0.2576 -0.7608  0.0676
  448MOL0     C61690   2.184   8.291   2.611  0.1691  0.3063 -1.0950
  448MOL0     C61691   2.255   8.186   2.680  0.3336  0.5049 -0.1047
  448MOL0     C61692   2.393   8.187   2.695 -0.7042 -0.7549 -0.7034
  448MOL0     C61693   2.464   8.307   2.658 -0.2035  1.0548 -0.3171
  448MOL0     O61694   2.602   8.314   2.675 -0.1949 -0.4150  0.9019
  448MOL0     C61695   2.658   8.235   2.776  0.3536  0.4503 -0.5110
  448MOL0     C61696   2.808   8.283   2.811 -0.2948  0.2106  0.9193
  448MOL0     C61697   2.865   8.199   2.921  0.0449  0.2103 -0.0247
  448MOL0     C61698   3.011   8.242   2.958  0.2502  0.1895  0.0719
  448MOL0     C61699   3.077   8.149   3.059 -0.2325  0.5227  0.7750
  448MOL0     C61700   3.210   8.218   3.098  0.4239 -0.1183  0.2290
  448MOL0     C61701   3.288   8.160   3.218  0.1999 -0.5131  0.1520
  448MOL0     C61702   3.367   8.032   3.168  0.4984  0.1946 -0.5730
  448MOL0     N61703   3.494   8.063   3.105 -0.0923  0.3329 -0.0859
  448MOL0     C61704   3.506   8.104   2.972 -0.0601 -0.6489  0.3569
  448MOL0     C61705   3.633   8.144   2.963 -0.7657  0.1415  0.6789
  448MOL0     C61706   3.715   8.196   2.853 -0.6341 -0.2674  0.1325
  448MOL0     C61707   3.816   8.100   2.788  0.5839  0.6718 -0.7277
  448MOL0     C61708   3.933   8.173   2.724  0.0220  0.0208  0.1874
  448MOL0     C61709   3.889   8.243   2.597 -0.2102 -0.1999  0.1265
  448MOL0     O61710   3.832   8.368   2.627  0.2799 -0.3449  0.2224
  448MOL0     C61711   3.759   8.445   2.537  0.0528 -0.1958  0.1813
  448MOL0     C61712   3.750   8.587   2.561 -0.1252  0.5304  0.0648
  448MOL0     C61713   3.685   8.678   2.487 -0.4731 -0.5301  0.2016
  448MOL0     C61714   3.693   8.825   2.531 -0.5445 -0.0982 -0.1210
  448MOL0     C61715   3.617   8.622   2.367 -1.0161  0.0099  0.1722
  448MOL0     C61716   3.535   8.707   2.278 -0.2153 -0.4850  0.3028
  448MOL0     O61717   3.431   8.648   2.219  0.3219 -0.7742  0.1630
  448MOL0     C61718   3.361   8.711   2.115  0.6516 -0.4906 -0.4681
  448MOL0     C61719   3.218   8.690   2.118  0.2508  0.2715 -0.2594
  448MOL0     C61720   3.132   8.756   2.027  0.7646 -0.0313 -0.4861
  448MOL0     C61721   3.187   8.843   1.929  0.5853  0.7926 -1.4455
  448MOL0     O61722   3.109   8.913   1.838  0.1027 -0.0043 -0.2570
  448MOL0     C61723   2.967   8.888   1.807  0.6335 -0.6948  0.2542
  448MOL0     C61724   2.877   8.977   1.893 -0.0891  0.6756 -0.1077
  448MOL0     C61725   2.731   8.980   1.849 -0.3275  0.6793  0.5059
  448MOL0     C61726   2.648   9.035   1.973  0.3374  0.8709 -0.4089
  448MOL0     C61727   2.492   9.025   1.955 -0.5166 -0.8422  0.5432
  448MOL0     C61728   2.437   8.886   1.933  0.0125 -1.2766 -1.6426
  448MOL0     C61729   2.293   8.886   1.880 -0.0594 -0.3743 -0.0942
  448MOL0     C61730   2.251   8.741   1.837  0.1076 -0.7011 -0.0057
  448MOL0    Cl61731   2.096   8.781   1.747  0.1840 -0.4737 -0.3444
  448MOL0     C61732   3.323   8.864   1.931 -0.3683  0.4846  0.3882
  448MOL0     C61733   3.410   8.802   2.025  0.0879  0.6679 -0.0283
  448MOL0     O61734   3.570   8.828   2.269 -0.1156  0.2558  0.0265
  448MOL0     C61735   3.633   8.481   2.337  0.4829  0.0385 -0.4056
  448MOL0     C61736   3.690   8.392   2.428  0.0962  0.0008 -0.1997
  448MOL0     N61737   3.690   8.122   3.085  0.5615 -0.3949  0.5909
  448MOL0     N61738   3.614   8.068   3.171 -0.7579 -0.6170 -0.3067
  448MOL0     C61739   2.392   8.412   2.608  0.7472  0.2926 -0.0121
  448MOL0     C61740   2.258   8.394   2.566  0.0229 -0.2817  0.0036
  448MOL0     C61741   1.827   8.214   2.559  0.4293 -0.4116 -0.1820
  448MOL0     C61742   1.784   8.283   2.671  0.0390 -0.2347 -1.1590
  448MOL0     C61743   1.646   8.304   2.702  0.7165 -0.5834 -0.2981
  448MOL0     C61744   1.551   8.252   2.608 -1.1095  0.0904 -0.8188
  448MOL0     O61745   1.425   8.291   2.636  0.1167  0.0657 -0.6587
  448MOL0     C61746   1.311   8.254   2.552 -0.1298 -0.6677 -0.5711
  448MOL0     C61747   1.254   8.117   2.600  0.3803 -1.0766  0.0564
  448MOL0     C61748   1.162   8.149   2.726 -0.1068 -0.2385 -0.3609
  448MOL0     C61749   1.094   8.028   2.783 -0.5513  1.1746  0.4442
  448MOL0     C61750   0.967   8.061   2.849 -0.3010 -0.2606  0.4387
  448MOL0     C61751   0.855   8.099   2.893  0.0557  0.5603  0.0735
  448MOL0     C61752   1.595   8.183   2.497  0.2443  0.0378  0.2960
  448MOL0     C61753   1.733   8.160   2.470 -0.6298 -0.7937 -0.0544
  448MOL0     C61754   1.779   8.103   2.343 -0.1360  0.6963 -0.4276
  448MOL0     H61755   2.204   8.102   2.726 -1.5756  1.8498  0.3761
  448MOL0     H61756   2.446   8.109   2.748  1.0059  1.0463  0.3624
  448MOL0     H61757   2.671   8.129   2.751  2.3250  0.0101  1.9415
  448MOL0     H61758   2.592   8.236   2.863  1.5464  1.8451  0.4358
  448MOL0     H61759   2.863   8.279   2.717 -1.4315 -1.2662  0.2831
  448MOL0     H61760   2.800   8.390   2.836  1.0634  0.6511 -0.3968
  448MOL0     H61761   2.805   8.226   3.009 -1.8233  3.6668 -2.1544
  448MOL0     H61762   2.859   8.092   2.899 -0.7249  0.6234 -1.9825
  448MOL0     H61763   3.066   8.237   2.863 -0.6632 -2.1308 -0.4173
  448MOL0     H61764   3.005   8.345   2.992 -0.7823  0.7399 -1.6204
  448MOL0     H61765   3.093   8.054   3.009 -2.5459  0.4444  0.0921
  448MOL0     H61766   3.025   8.128   3.153  1.0010  2.1954  1.8947
  448MOL0     H61767   3.272   8.228   3.008  1.5079 -2.7031  0.6258
  448MOL0     H61768   3.176   8.317   3.132  0.6623 -0.4336  1.4294
  448MOL0     H61769   3.221   8.128   3.297  1.3390  1.2112  1.8894
  448MOL0     H61770   3.352   8.238   3.259  0.4555 -0.9728  0.6324
  448MOL0     H61771   3.378   7.970   3.258 -0.3300  1.3451  0.3561
  448MOL0     H61772   3.308   7.971   3.099  0.5247 -1.1869  0.5648
  448MOL0     H61773   3.434   8.096   2.890 -1.9307 -1.8433  2.0296
  448MOL0     H61774   3.765   8.279   2.903 -2.6522 -0.5002  2.7486
  448MOL0     H61775   3.642   8.238   2.783 -0.0254  0.8930  0.1668
  448MOL0     H61776   3.848   8.033   2.868 -1.3633  1.0055  0.4026
  448MOL0     H61777   3.776   8.026   2.717  0.1482  0.6412 -0.4571
  448MOL0     H61778   3.977   8.240   2.799  0.7977 -1.0583  0.7231
  448MOL0     H61779   4.014   8.105   2.697 -0.1349 -1.6428  3.4717
  448MOL0     H61780   3.975   8.245   2.529  1.9551 -2.8125  2.5596
  448MOL0     H61781   3.826   8.171   2.544  0.8725 -1.1062  0.0272
  448MOL0     H61782   3.809   8.614   2.648  1.5761  0.6111 -1.0681
  448MOL0     H61783   3.764   8.877   2.466  0.3041 -0.6047  0.3815
  448MOL0     H61784   3.742   8.836   2.629  1.6112 -0.2583 -1.1255
  448MOL0     H61785   3.598   8.879   2.539 -1.4128 -1.6521  0.6118
  448MOL0     H61786   3.172   8.633   2.198 -2.8968 -0.3884 -2.3914
  448MOL0     H61787   3.024   8.751   2.033  0.8019  0.5629  0.9431
  448MOL0     H61788   2.954   8.912   1.701  1.6862  0.6659  0.4064
  448MOL0     H61789   2.939   8.782   1.815 -1.3813 -0.0661  4.2029
  448MOL0     H61790   2.881   8.954   2.000 -0.9893 -1.7321 -0.5199
  448MOL0     H61791   2.921   9.077   1.888  2.0670 -0.2826 -3.4956
  448MOL0     H61792   2.703   8.876   1.826  1.8154 -0.0357  0.8923
  448MOL0     H61793   2.715   9.032   1.754  0.4369  1.7384  0.9374
  448MOL0     H61794   2.675   9.138   1.995  2.0913  0.7946 -1.9529
  448MOL0     H61795   2.679   8.964   2.050 -3.6945  0.4683  1.1143
  448MOL0     H61796   2.431   9.064   2.037 -0.8238  0.2914 -0.2105
  448MOL0     H61797   2.473   9.087   1.867 -0.9251 -0.7712  0.6780
  448MOL0     H61798   2.452   8.842   2.032 -0.3505  2.5212  0.2746
  448MOL0     H61799   2.489   8.833   1.852 -2.6885 -0.5343 -4.0601
  448MOL0     H61800   2.284   8.949   1.791  0.8890 -2.4553 -1.7760
  448MOL0     H61801   2.218   8.925   1.949  0.0616  2.4431 -1.4206
  448MOL0     H61802   2.222   8.680   1.923 -0.6481 -0.6601 -0.2263
  448MOL0     H61803   2.327   8.688   1.779 -0.4842 -1.3093 -0.2471
  448MOL0     H61804   3.375   8.930   1.863  0.2646  0.2546  0.6372
  448MOL0     H61805   3.516   8.828   2.026  0.6527 -1.4646 -0.3952
  448MOL0     H61806   3.587   8.444   2.245  0.8615 -0.7829 -0.2722
  448MOL0     H61807   3.681   8.285   2.409  2.0626 -0.0856 -0.8580
  448MOL0     H61808   2.447   8.505   2.595 -0.0446  0.7656 -0.0165
  448MOL0     H61809   2.202   8.471   2.514  0.5822 -0.5740 -1.0657
  448MOL0     H61810   1.852   8.322   2.746 -0.2466  3.2627 -2.4815
  448MOL0     H61811   1.619   8.370   2.784  3.4378  1.1340 -0.6289
  448MOL0     H61812   1.230   8.326   2.566  0.8313  0.3447 -0.1126
  448MOL0     H61813   1.331   8.248   2.445  2.2641  2.4388 -0.4004
  448MOL0     H61814   1.337   8.053   2.630  1.6946  0.1081 -0.8739
  448MOL0     H61815   1.193   8.064   2.526  0.7924 -0.5304 -0.6920
  448MOL0     H61816   1.228   8.188   2.803  1.2333 -0.2087 -1.4982
  448MOL0     H61817   1.085   8.222   2.697  3.0228  3.1262 -0.8570
  448MOL0     H61818   1.166   7.975   2.847 -1.5986  0.9823  1.4919
  448MOL0     H61819   1.083   7.974   2.688  1.3173 -2.1937  1.9557
  448MOL0     H61820   0.765   8.135   2.938  1.5648  0.2081  3.7677
  448MOL0     H61821   1.524   8.147   2.424  2.5534  0.5078 -2.3426
  448MOL0     H61822   1.865   8.157   2.301  3.5988 -3.2704  1.3535
  448MOL0     H61823   1.821   8.002   2.352  0.8487  0.7011 -3.6167
  448MOL0     H61824   1.689   8.104   2.281 -1.6748 -0.1318  1.6654
  449MOL0     O61825   6.317   3.959   4.398  0.1040  0.1099 -0.0119
  449MOL0     C61826   6.217   4.028   4.368  0.3402 -0.4475 -0.3936
  449MOL0     O61827   6.202   4.160   4.385  0.0242 -0.0760 -0.0013
  449MOL0     C61828   6.294   4.217   4.469 -0.8929 -0.0049 -0.1229
  449MOL0     C61829   6.244   4.277   4.581 -0.1394 -0.4425 -0.8006
  449MOL0     C61830   6.330   4.341   4.667 -0.6734 -0.4665 -0.2169
  449MOL0     C61831   6.475   4.343   4.639  1.1798  0.5056  0.4404
  449MOL0     O61832   6.565   4.411   4.714  0.3535  0.4313 -0.3700
  449MOL0     C61833   6.526   4.439   4.848 -0.2555 -0.2636  0.4232
  449MOL0     C61834   6.644   4.499   4.937  0.2971 -0.0783 -0.3449
  449MOL0     C61835   6.592   4.517   5.083 -0.3869 -0.3789 -0.9842
  449MOL0     C61836   6.555   4.380   5.147 -0.5761 -0.1005  0.8240
  449MOL0     C61837   6.559   4.387   5.295  0.1616  1.0687 -0.9625
  449MOL0     C61838   6.695   4.377   5.365 -0.0229 -0.0645  0.8382
  449MOL0     C61839   6.778   4.253   5.327 -0.0100 -0.4826 -0.0738
  449MOL0     C61840   6.897   4.238   5.427  0.2943  0.8770 -0.6739
  449MOL0     N61841   7.028   4.285   5.377  0.4397  0.2218  0.6316
  449MOL0     C61842   7.085   4.406   5.378 -1.3105 -0.5797  0.1366
  449MOL0     C61843   7.218   4.392   5.340  0.5040 -0.1335 -0.1668
  449MOL0     C61844   7.308   4.508   5.316 -0.3632  0.6819 -0.3900
  449MOL0     C61845   7.348   4.505   5.168  0.0907  0.2942  0.1231
  449MOL0     C61846   7.229   4.484   5.070  0.1676  0.3056  0.7922
  449MOL0     C61847   7.278   4.509   4.927  0.1574  0.6661 -0.8443
  449MOL0     O61848   7.391   4.429   4.896  0.0463 -0.1327  0.1664
  449MOL0     C61849   7.430   4.416   4.759 -0.7225  0.2401 -0.4886
  449MOL0     C61850   7.349   4.445   4.647 -0.0309 -0.4738 -0.6786
  449MOL0     C61851   7.392   4.424   4.509 -0.4969  0.6245 -0.1547
  449MOL0     C61852   7.289   4.462   4.394  0.2537  0.5074  0.9003
  449MOL0     C61853   7.518   4.357   4.489  0.2520 -0.1599  0.3307
  449MOL0     C61854   7.576   4.324   4.354  0.6136  0.2327  0.6623
  449MOL0     O61855   7.712   4.315   4.349 -0.2399  0.0935  0.1799
  449MOL0     C61856   7.770   4.289   4.225  0.3431  0.4597  0.0496
  449MOL0     C61857   7.747   4.366   4.116 -0.0984  0.0267 -0.5293
  449MOL0     C61858   7.805   4.331   3.995  0.2111  0.2865 -0.1912
  449MOL0     C61859   7.886   4.224   3.985  0.0763 -0.6572  0.5841
  449MOL0     O61860   7.964   4.200   3.880 -0.6973 -0.5920  0.6284
  449MOL0     C61861   7.968   4.280   3.761 -0.2564  0.1272 -0.4624
  449MOL0     C61862   8.058   4.210   3.659  1.0544 -0.3583 -0.6200
  449MOL0     C61863   7.982   4.102   3.586 -0.1247  0.3206 -0.2865
  449MOL0     C61864   8.067   4.059   3.463 -0.6263  0.4583 -0.5473
  449MOL0     C61865   8.184   3.960   3.497  0.0358  0.4387  0.5357
  449MOL0     C61866   8.266   3.931   3.373 -0.5378  0.7712 -0.1677
  449MOL0     C61867   8.322   3.788   3.383  0.0176  0.4642  0.4607
  449MOL0     C61868   8.235   3.688   3.314 -0.0429  0.6478 -0.0796
  449MOL0    Cl61869   8.246   3.707   3.147 -0.1707 -0.4500 -0.3707
  449MOL0     C61870   7.904   4.143   4.092  0.7988 -1.1850 -0.3553
  449MOL0     C61871   7.844   4.173   4.216 -0.1761  0.0647  0.3131
  449MOL0     O61872   7.502   4.321   4.258  0.1436 -0.5775 -0.2858
  449MOL0     C61873   7.601   4.337   4.604 -0.2663 -0.5567 -0.0753
  449MOL0     C61874   7.558   4.358   4.741  0.2251 -0.1578 -0.0344
  449MOL0     N61875   7.235   4.262   5.318  0.1543  0.1662 -0.5997
  449MOL0     N61876   7.125   4.204   5.329  0.1946  0.8052 -0.2910
  449MOL0     C61877   6.519   4.282   4.521 -0.2469 -0.6492 -0.2507
  449MOL0     C61878   6.428   4.206   4.446 -0.4419 -0.0311 -0.2479
  449MOL0     C61879   6.098   3.969   4.303 -0.4984  0.3279 -0.1885
  449MOL0     C61880   5.976   4.038   4.299 -0.4398 -0.9764 -0.2019
  449MOL0     C61881   5.857   3.987   4.248  0.2452  0.4534  1.1318
  449MOL0     C61882   5.844   3.855   4.195  0.6139  0.1323  0.1941
  449MOL0     O61883   5.733   3.797   4.131  0.1883 -0.5621 -0.0035
  449MOL0     C61884   5.623   3.892   4.099 -0.0914  0.0290 -0.6944
  449MOL0     C61885   5.526   3.837   3.998 -0.2229 -0.4024  0.1539
  449MOL0     C61886   5.438   3.728   4.070  0.1842  0.0985  0.2100
  449MOL0     C61887   5.375   3.629   3.980 -0.3834  0.4548 -0.0601
  449MOL0     C61888   5.296   3.686   3.871 -0.0026  0.5173  0.1791
  449MOL0     C61889   5.239   3.744   3.780 -0.1045  0.9190  0.6287
  449MOL0     C61890   5.962   3.773   4.226 -0.0871 -0.3966  0.0788
  449MOL0     C61891   6.077   3.823   4.280 -0.1580 -0.8761 -0.3374
  449MOL0     C61892   6.179   3.721   4.290 -0.4222 -0.3086  0.8174
  449MOL0     H61893   6.137   4.273   4.600 -0.2397 -4.5889 -1.3401
  449MOL0     H61894   6.286   4.381   4.758  1.1445 -1.8438  1.3315
  449MOL0     H61895   6.489   4.348   4.894 -1.4067 -0.0760 -0.1033
  449MOL0     H61896   6.451   4.517   4.862 -0.5505 -0.8081  1.9993
  449MOL0     H61897   6.735   4.438   4.937  0.7555  0.5846  0.4149
  449MOL0     H61898   6.667   4.596   4.892 -3.5096  0.9228 -0.4641
  449MOL0     H61899   6.681   4.557   5.131 -1.9895  1.6447  0.4853
  449MOL0     H61900   6.511   4.590   5.095  2.2725  2.8172 -1.0530
  449MOL0     H61901   6.451   4.363   5.117 -0.7400  3.6249 -1.4731
  449MOL0     H61902   6.628   4.305   5.115 -1.8869 -0.7308 -0.8170
  449MOL0     H61903   6.494   4.307   5.332  2.7432  0.4062  2.7285
  449MOL0     H61904   6.515   4.479   5.334  3.2946  2.5125 -0.5234
  449MOL0     H61905   6.747   4.471   5.351 -0.0803 -0.1353  0.1242
  449MOL0     H61906   6.681   4.369   5.473  2.5862 -0.4825  1.2152
  449MOL0     H61907   6.819   4.253   5.226 -1.3067  3.0231 -0.7587
  449MOL0     H61908   6.715   4.164   5.328  0.0579 -0.5313 -0.1488
  449MOL0     H61909   6.870   4.288   5.520  0.0100 -1.2545  0.4280
  449MOL0     H61910   6.890   4.132   5.453  1.4109  0.5250 -1.6588
  449MOL0     H61911   7.035   4.500   5.396  3.5047  2.6039 -1.1758
  449MOL0     H61912   7.392   4.510   5.385  0.7731 -0.1745 -1.7104
  449MOL0     H61913   7.258   4.603   5.336 -0.4527  0.5018  0.2407
  449MOL0     H61914   7.390   4.606   5.167 -1.1767  0.8630  1.3643
  449MOL0     H61915   7.428   4.433   5.148 -0.7599 -0.4587 -0.6636
  449MOL0     H61916   7.196   4.379   5.076  0.4947  0.2900  3.9058
  449MOL0     H61917   7.148   4.551   5.097  0.3532  0.9875 -0.2822
  449MOL0     H61918   7.192   4.488   4.863  2.1765 -1.3494 -3.1092
  449MOL0     H61919   7.295   4.616   4.915 -2.2934  1.7194  3.2137
  449MOL0     H61920   7.252   4.484   4.678  2.0903  1.9373  3.7910
  449MOL0     H61921   7.231   4.550   4.422 -1.8186 -0.3534 -0.5317
  449MOL0     H61922   7.229   4.373   4.374  1.4549  0.0137 -0.7457
  449MOL0     H61923   7.332   4.486   4.297 -0.4444 -0.8307  0.2397
  449MOL0     H61924   7.694   4.461   4.123  1.6906  1.0263 -0.1360
  449MOL0     H61925   7.785   4.385   3.903  0.4497  1.8389  0.6390
  449MOL0     H61926   7.867   4.291   3.721  0.3317  0.9121 -1.8096
  449MOL0     H61927   8.009   4.381   3.780 -0.6879 -0.0132  1.4434
  449MOL0     H61928   8.083   4.297   3.598  0.5748  2.6540  3.1140
  449MOL0     H61929   8.144   4.165   3.710  0.4865 -0.6999  0.0413
  449MOL0     H61930   7.884   4.127   3.543 -0.9373 -1.9871  0.1218
  449MOL0     H61931   7.966   4.023   3.659 -2.3103  1.0819  0.1688
  449MOL0     H61932   8.113   4.141   3.408  3.1801  0.6028  2.4059
  449MOL0     H61933   7.996   4.009   3.397 -2.4192  0.0569  1.5469
  449MOL0     H61934   8.254   3.996   3.572 -0.6279  2.3318  0.2889
  449MOL0     H61935   8.138   3.869   3.537 -0.6234  0.1737 -0.7575
  449MOL0     H61936   8.354   3.997   3.377  2.7507 -3.1342 -1.0605
  449MOL0     H61937   8.206   3.948   3.284  0.0163 -0.5464 -0.8071
  449MOL0     H61938   8.317   3.749   3.485  1.2137 -1.6969 -0.2624
  449MOL0     H61939   8.428   3.791   3.359  0.4830 -0.3458  2.2588
  449MOL0     H61940   8.132   3.689   3.350 -0.1989  0.1234 -0.5011
  449MOL0     H61941   8.268   3.586   3.338 -3.3544  0.0500  2.7120
  449MOL0     H61942   7.973   4.060   4.082  2.2485 -0.1333  0.5662
  449MOL0     H61943   7.851   4.114   4.307  0.8332  0.7559  0.7046
  449MOL0     H61944   7.705   4.309   4.589 -0.6038 -0.2728 -4.0088
  449MOL0     H61945   7.613   4.347   4.834 -0.1558 -1.9133  0.0096
  449MOL0     H61946   6.623   4.269   4.497 -0.2086  0.4026 -0.7004
  449MOL0     H61947   6.474   4.150   4.365  0.8098 -1.9146  1.6441
  449MOL0     H61948   5.978   4.144   4.324  0.7931 -0.2726 -2.9454
  449MOL0     H61949   5.778   4.062   4.250  0.1649  0.6213 -2.2704
  449MOL0     H61950   5.565   3.911   4.189  0.5499  1.0664 -0.4784
  449MOL0     H61951   5.657   3.989   4.063  1.1291  0.1357  0.6413
  449MOL0     H61952   5.578   3.792   3.913  0.4762 -1.0420  0.8991
  449MOL0     H61953   5.451   3.908   3.963 -3.1146 -1.4838  3.5515
  449MOL0     H61954   5.502   3.683   4.146  0.6698 -0.1411 -0.3376
  449MOL0     H61955   5.352   3.763   4.128  1.0525 -1.4256  2.5390
  449MOL0     H61956   5.319   3.551   4.031 -0.5466 -1.4888 -2.9873
  449MOL0     H61957   5.456   3.565   3.944 -0.4870 -2.1865  3.8855
  449MOL0     H61958   5.202   3.796   3.695 -1.0028 -3.0667 -1.6506
  449MOL0     H61959   5.953   3.669   4.197  0.8152 -0.5013  0.1480
  449MOL0     H61960   6.142   3.638   4.350 -3.9379  0.7062  0.2675
  449MOL0     H61961   6.205   3.693   4.187 -2.8082  1.7068 -0.4555
  449MOL0     H61962   6.275   3.760   4.324  0.7889 -0.4291 -2.1648
  450MOL0     O61963  10.539   5.662   0.656  0.2968 -0.5260  0.8624
  450MOL0     C61964  10.541   5.787   0.644 -0.2012  0.2712  0.1840
  450MOL0     O61965  10.636   5.868   0.698  0.2429 -0.0170 -0.3372
  450MOL0     C61966  10.743   5.831   0.778  0.3167 -0.5892 -0.0485
  450MOL0     C61967  10.860   5.908   0.755  0.4750  0.3566 -0.0468
  450MOL0     C61968  10.981   5.873   0.811  0.4057 -0.8016 -0.7846
  450MOL0     C61969  10.992   5.746   0.879  0.2005 -0.5690 -0.8509
  450MOL0     O61970  11.120   5.706   0.917  0.5724  0.5838  0.2462
  450MOL0     C61971  11.156   5.566   0.927  0.0051  0.1969 -0.8604
  450MOL0     C61972  11.140   5.505   1.057  0.6285  0.5059  0.9300
  450MOL0     C61973  11.236   5.381   1.076 -0.7373 -0.4388  0.5040
  450MOL0     C61974  11.223   5.263   0.977 -0.9106  0.2134 -1.2734
  450MOL0     C61975  11.340   5.166   0.989  0.3704 -0.8647 -0.4665
  450MOL0     C61976  11.326   5.073   1.109  0.5963  0.9946 -0.2459
  450MOL0     C61977  11.440   4.968   1.112 -0.0507 -0.4025 -0.1464
  450MOL0     C61978  11.429   4.868   1.226 -0.1371  0.1797 -0.3748
  450MOL0     N61979  11.551   4.789   1.234 -0.6647  0.0444  0.3321
  450MOL0     C61980  11.669   4.850   1.275  0.0702  0.0413  1.0856
  450MOL0     C61981  11.759   4.752   1.275 -0.0895  0.2277  0.3570
  450MOL0     C61982  11.903   4.761   1.311  0.2213  0.3620  1.0594
  450MOL0     C61983  11.978   4.662   1.229 -0.3813 -0.4797  0.3059
  450MOL0     C61984  11.951   4.654   1.076 -0.4077  0.0122 -0.7611
  450MOL0     C61985  12.030   4.746   0.992 -0.0527 -0.2762  0.6388
  450MOL0     O61986  11.992   4.758   0.850  0.6889 -0.1775  0.4448
  450MOL0     C61987  12.097   4.759   0.761 -0.4888  0.3970  0.5686
  450MOL0     C61988  12.084   4.679   0.641  0.3928 -0.3259  0.0833
  450MOL0     C61989  12.193   4.677   0.545  0.2141 -0.6742 -0.0255
  450MOL0     C61990  12.191   4.586   0.418 -0.0561 -0.1761  0.1327
  450MOL0     C61991  12.294   4.780   0.564  0.3095  1.0208  0.5349
  450MOL0     C61992  12.405   4.811   0.467  0.3132 -0.8839  0.3315
  450MOL0     O61993  12.413   4.729   0.359  0.4055 -0.8764 -0.1754
  450MOL0     C61994  12.526   4.728   0.277  0.5209 -0.2898  0.1600
  450MOL0     C61995  12.660   4.718   0.318  0.4879 -0.9355 -0.3514
  450MOL0     C61996  12.763   4.693   0.223  0.3766 -0.8100  0.1012
  450MOL0     C61997  12.740   4.686   0.084 -0.1656  0.1770 -0.0574
  450MOL0     O61998  12.848   4.670  -0.002 -0.3027 -0.0508  0.1820
  450MOL0     C61999  12.987   4.701   0.051 -0.5470 -0.1412  0.5230
  450MOL0     C62000  13.067   4.737  -0.072 -1.0001 -0.3177 -0.2201
  450MOL0     C62001  13.069   4.624  -0.178 -0.4839 -0.3631  0.3853
  450MOL0     C62002  13.168   4.653  -0.292  0.3856  0.5374 -0.3509
  450MOL0     C62003  13.312   4.611  -0.252  0.0751  1.0363  0.0715
  450MOL0     C62004  13.410   4.655  -0.351 -0.6865 -0.2847  0.2111
  450MOL0     C62005  13.547   4.621  -0.300  0.3912 -0.5950  0.0870
  450MOL0     C62006  13.638   4.728  -0.335  0.0628 -0.3845  1.0000
  450MOL0    Cl62007  13.660   4.730  -0.511 -0.0030  0.1590  0.1674
  450MOL0     C62008  12.608   4.713   0.037 -0.3454 -0.0505 -0.2695
  450MOL0     C62009  12.506   4.729   0.136 -0.0468 -0.5055 -1.1007
  450MOL0     O62010  12.485   4.907   0.497  0.0815  0.0300  0.9205
  450MOL0     C62011  12.300   4.857   0.677 -0.1553  0.1420 -0.7012
  450MOL0     C62012  12.205   4.845   0.777  0.2730 -0.2722 -0.4572
  450MOL0     N62013  11.694   4.632   1.234  0.1999 -0.5286  0.2302
  450MOL0     N62014  11.573   4.659   1.205  0.5831 -0.5614  0.7185
  450MOL0     C62015  10.876   5.674   0.905 -0.0103  0.6747 -0.1524
  450MOL0     C62016  10.748   5.714   0.851  0.7325  0.7854 -0.0445
  450MOL0     C62017  10.440   5.855   0.554 -0.1725 -0.6472  0.2378
  450MOL0     C62018  10.332   5.771   0.529  1.2251  0.8621 -1.0868
  450MOL0     C62019  10.202   5.825   0.490 -0.2073 -0.5431 -1.0006
  450MOL0     C62020  10.203   5.954   0.453 -0.6852  0.7398  0.7408
  450MOL0     O62021  10.092   6.004   0.412 -0.4935  0.0484 -0.0673
  450MOL0     C62022  10.049   5.964   0.280  0.6926  0.1052  0.0389
  450MOL0     C62023   9.942   5.855   0.289  0.1821 -0.4911 -0.1447
  450MOL0     C62024   9.822   5.879   0.382  0.6700  0.1340 -0.2710
  450MOL0     C62025   9.713   5.771   0.379  0.0463  0.7377 -0.4958
  450MOL0     C62026   9.767   5.630   0.401  0.2483 -0.3187  0.0589
  450MOL0     C62027   9.805   5.517   0.435  0.8956  0.6149 -0.2880
  450MOL0     C62028  10.323   6.032   0.436  0.5553  0.1834 -0.4388
  450MOL0     C62029  10.438   5.986   0.501 -0.1586 -0.0322  0.1895
  450MOL0     C62030  10.554   6.081   0.511  0.4788 -0.0593 -0.0167
  450MOL0     H62031  10.863   5.984   0.678 -0.6304 -1.5227 -2.0888
  450MOL0     H62032  11.076   5.920   0.787  0.6294 -0.7395  0.1717
  450MOL0     H62033  11.263   5.558   0.904 -0.1171 -3.4345 -0.6257
  450MOL0     H62034  11.097   5.525   0.845  0.2664  1.4332 -1.7011
  450MOL0     H62035  11.153   5.586   1.129  1.0341  1.3844 -0.1117
  450MOL0     H62036  11.035   5.478   1.071  0.0415  1.5405 -1.1706
  450MOL0     H62037  11.340   5.414   1.087  0.2277 -2.9093 -0.4064
  450MOL0     H62038  11.211   5.345   1.176 -2.5399  1.7477  0.9105
  450MOL0     H62039  11.144   5.187   0.987  0.7486 -1.5688 -0.9996
  450MOL0     H62040  11.220   5.299   0.874 -1.3793 -0.3219 -1.4542
  450MOL0     H62041  11.433   5.224   0.991 -0.8848  1.5612 -3.4480
  450MOL0     H62042  11.340   5.113   0.893  0.3694  0.5574 -1.2920
  450MOL0     H62043  11.322   5.113   1.210  0.3177  0.3703 -0.0012
  450MOL0     H62044  11.237   5.011   1.097  0.4898  0.5080  2.5886
  450MOL0     H62045  11.534   5.023   1.115  1.2649 -2.5871  0.4619
  450MOL0     H62046  11.444   4.907   1.021  0.2010  1.1225 -1.1879
  450MOL0     H62047  11.413   4.926   1.317  2.3376  3.6120 -1.8906
  450MOL0     H62048  11.340   4.805   1.221 -1.4930  1.6618  2.5841
  450MOL0     H62049  11.679   4.956   1.298 -2.7335  0.3049  1.4859
  450MOL0     H62050  11.922   4.734   1.415  0.5509 -3.3547  0.1944
  450MOL0     H62051  11.940   4.860   1.283  3.8990 -0.9846  0.6129
  450MOL0     H62052  12.085   4.675   1.249  0.2514 -3.3226 -0.7123
  450MOL0     H62053  11.956   4.562   1.267  2.5525 -1.7437 -1.0242
  450MOL0     H62054  11.982   4.559   1.029 -1.3481 -0.2816 -0.7995
  450MOL0     H62055  11.848   4.673   1.046  0.0469  0.0580 -2.3931
  450MOL0     H62056  12.018   4.844   1.041 -1.2619  1.5953 -3.0346
  450MOL0     H62057  12.135   4.717   0.993 -0.4181 -1.6557  0.4632
  450MOL0     H62058  11.996   4.620   0.620  1.2681 -1.9656  0.9000
  450MOL0     H62059  12.152   4.641   0.332  0.3320 -1.1561 -0.6924
  450MOL0     H62060  12.115   4.511   0.438  0.8515 -0.9667  0.6871
  450MOL0     H62061  12.280   4.526   0.396 -0.7584 -1.0660 -0.3473
  450MOL0     H62062  12.672   4.723   0.425  0.7384 -1.1003 -0.3711
  450MOL0     H62063  12.861   4.680   0.267 -0.4154 -1.1158  1.8336
  450MOL0     H62064  12.987   4.788   0.116  2.5789 -1.0558  1.9383
  450MOL0     H62065  13.034   4.615   0.099  3.0622  1.2569 -0.1869
  450MOL0     H62066  13.019   4.818  -0.128  0.8978 -0.2087 -1.8236
  450MOL0     H62067  13.165   4.778  -0.049 -1.6189  0.0227  2.0480
  450MOL0     H62068  12.973   4.629  -0.228 -0.5003  0.1542  0.4545
  450MOL0     H62069  13.082   4.527  -0.130 -1.1358 -1.7975 -2.1785
  450MOL0     H62070  13.178   4.762  -0.301 -0.5235  0.7319  0.7178
  450MOL0     H62071  13.141   4.616  -0.391 -0.5520  1.6830 -0.5476
  450MOL0     H62072  13.349   4.657  -0.160  0.6271  0.2420  0.2537
  450MOL0     H62073  13.322   4.503  -0.238 -3.2903  0.7916  1.5588
  450MOL0     H62074  13.391   4.763  -0.359  0.8520 -0.1002 -2.1207
  450MOL0     H62075  13.392   4.612  -0.450 -1.1346  1.0982 -0.3324
  450MOL0     H62076  13.593   4.532  -0.344 -0.3177 -0.2818 -1.3339
  450MOL0     H62077  13.545   4.601  -0.193 -0.6864  2.2843  0.6841
  450MOL0     H62078  13.738   4.721  -0.289  1.2920 -2.2963 -1.7148
  450MOL0     H62079  13.587   4.822  -0.313 -1.3331 -0.0962 -2.7924
  450MOL0     H62080  12.607   4.731  -0.070 -0.0504  2.2890  0.0792
  450MOL0     H62081  12.403   4.738   0.104 -0.0113  1.0643 -0.8256
  450MOL0     H62082  12.380   4.928   0.696  0.5255 -1.1055  1.3426
  450MOL0     H62083  12.190   4.913   0.860 -1.9309 -1.3633  0.1144
  450MOL0     H62084  10.877   5.585   0.968  2.3055  2.5718  2.7436
  450MOL0     H62085  10.669   5.642   0.869  2.4967 -0.6746  2.4105
  450MOL0     H62086  10.329   5.666   0.556 -1.3875  1.5441  1.8898
  450MOL0     H62087  10.104   5.779   0.499 -1.6637  2.7138  1.9478
  450MOL0     H62088   9.999   6.044   0.225  2.9484 -0.6071 -3.3214
  450MOL0     H62089  10.127   5.922   0.217  0.3650 -0.4915  0.0253
  450MOL0     H62090   9.985   5.760   0.321 -1.0276  0.0027  3.3374
  450MOL0     H62091   9.906   5.843   0.186  1.5242 -0.4288 -0.6375
  450MOL0     H62092   9.849   5.884   0.487 -3.3867  1.4447  0.9187
  450MOL0     H62093   9.759   5.967   0.360  0.0379 -0.5828 -1.4573
  450MOL0     H62094   9.660   5.778   0.284 -2.2395 -0.7709  0.5971
  450MOL0     H62095   9.642   5.792   0.459 -2.1859 -1.2773 -1.8349
  450MOL0     H62096   9.849   5.422   0.461  1.0093  1.2364  1.9392
  450MOL0     H62097  10.310   6.131   0.393  0.4181  0.8965  1.1580
  450MOL0     H62098  10.561   6.104   0.618 -2.3323 -0.9129  0.4323
  450MOL0     H62099  10.652   6.040   0.488  0.4019  0.9744 -2.5200
  450MOL0     H62100  10.530   6.172   0.454 -0.0495 -0.0800  0.1582
  451MOL0     O62101   4.526  10.865   2.224  0.0117 -0.4685  0.6268
  451MOL0     C62102   4.575  10.920   2.128  0.0642  0.6533  0.1157
  451MOL0     O62103   4.646  11.028   2.128 -0.2157 -0.4384 -0.1026
  451MOL0     C62104   4.658  11.103   2.239  1.0292 -0.1208 -0.3001
  451MOL0     C62105   4.574  11.104   2.355  0.0606 -0.5138 -0.1790
  451MOL0     C62106   4.596  11.192   2.464 -0.4053 -0.6192 -0.1318
  451MOL0     C62107   4.705  11.287   2.454  0.1084 -0.2490  0.2393
  451MOL0     O62108   4.737  11.379   2.557 -0.2086 -0.0159 -0.1669
  451MOL0     C62109   4.646  11.400   2.665 -0.3001 -0.6261 -0.1638
  451MOL0     C62110   4.685  11.526   2.724  0.2732  0.2356  0.1164
  451MOL0     C62111   4.652  11.643   2.628  0.7645  0.5725 -0.1428
  451MOL0     C62112   4.718  11.767   2.677 -0.5979  0.6387 -0.6080
  451MOL0     C62113   4.710  11.888   2.587  0.9002  0.3870 -0.3134
  451MOL0     C62114   4.562  11.938   2.590 -0.0874 -0.1006 -0.9222
  451MOL0     C62115   4.541  12.067   2.510 -0.3158  0.6045 -0.3320
  451MOL0     C62116   4.394  12.117   2.532  0.2172 -0.3518 -0.3411
  451MOL0     N62117   4.306  12.037   2.449  0.3630 -0.4171  0.6682
  451MOL0     C62118   4.307  12.036   2.309 -0.5097 -0.1750 -0.6766
  451MOL0     C62119   4.207  11.947   2.277 -0.2964 -0.3198  0.4084
  451MOL0     C62120   4.171  11.913   2.134  1.4434  0.5303  1.0629
  451MOL0     C62121   4.263  11.812   2.058  0.2153 -0.3873  0.0566
  451MOL0     C62122   4.207  11.797   1.919 -0.3410 -0.2081 -0.3394
  451MOL0     C62123   4.280  11.688   1.833 -1.2023  0.3665 -0.1880
  451MOL0     O62124   4.412  11.730   1.800 -0.1416  0.7676 -0.4373
  451MOL0     C62125   4.443  11.805   1.699 -0.8535  0.3539  0.4851
  451MOL0     C62126   4.575  11.843   1.699  0.0352 -1.0312  0.4185
  451MOL0     C62127   4.633  11.906   1.584 -0.3085 -0.2352 -0.0676
  451MOL0     C62128   4.764  11.969   1.606 -0.4594  0.0663  0.1359
  451MOL0     C62129   4.550  11.943   1.475  0.2550 -0.4407  0.3193
  451MOL0     C62130   4.596  12.029   1.367 -0.1283 -0.3027 -0.2645
  451MOL0     O62131   4.502  12.114   1.310 -0.2320  0.5361 -0.6804
  451MOL0     C62132   4.541  12.194   1.210 -0.0378 -0.1190  0.8747
  451MOL0     C62133   4.580  12.333   1.224  0.6131  0.3493  0.4719
  451MOL0     C62134   4.635  12.408   1.121  1.0629  0.2576  0.1524
  451MOL0     C62135   4.651  12.350   0.997 -0.4481  0.9257 -0.5993
  451MOL0     O62136   4.729  12.410   0.905  0.1590  0.2911  0.0532
  451MOL0     C62137   4.668  12.528   0.839 -0.2024  0.1489 -0.0406
  451MOL0     C62138   4.564  12.500   0.722  0.1481 -0.9906  0.4645
  451MOL0     C62139   4.433  12.439   0.766  0.0200 -0.2508 -0.6723
  451MOL0     C62140   4.351  12.535   0.847 -1.3003  0.7592 -0.0830
  451MOL0     C62141   4.232  12.471   0.918 -0.4164 -0.0957  0.4380
  451MOL0     C62142   4.252  12.333   0.984 -0.1837 -0.3234  0.3642
  451MOL0     C62143   4.126  12.298   1.069  0.1595 -0.2194  0.1854
  451MOL0     C62144   4.105  12.141   1.080  0.1337 -0.3282  0.0801
  451MOL0    Cl62145   4.252  12.055   1.148 -0.2978  0.2415  0.5325
  451MOL0     C62146   4.619  12.219   0.985  0.0060  0.4607  0.0992
  451MOL0     C62147   4.565  12.143   1.084 -0.2275  0.2814 -0.4194
  451MOL0     O62148   4.708  12.001   1.321  0.0022 -0.1350  0.2207
  451MOL0     C62149   4.413  11.907   1.486 -0.3135  0.6063 -0.0505
  451MOL0     C62150   4.362  11.850   1.600 -0.1160  0.2915  0.5178
  451MOL0     N62151   4.156  11.894   2.393 -1.0300 -0.4324 -0.4510
  451MOL0     N62152   4.218  11.952   2.491 -0.1892  0.5095  0.5109
  451MOL0     C62153   4.786  11.293   2.343  1.0587  0.7267 -0.5189
  451MOL0     C62154   4.758  11.201   2.239  0.7853  0.3263  0.5288
  451MOL0     C62155   4.550  10.849   1.993  0.3950  0.2279 -0.3176
  451MOL0     C62156   4.448  10.760   1.990  0.4015  0.5348  0.2719
  451MOL0     C62157   4.422  10.686   1.877 -0.8839 -0.5403  0.0431
  451MOL0     C62158   4.486  10.707   1.762 -0.5792  0.1377  0.3381
  451MOL0     O62159   4.434  10.639   1.659 -0.3180  0.5228  0.4552
  451MOL0     C62160   4.480  10.659   1.527 -0.8962  0.5430 -0.6144
  451MOL0     C62161   4.385  10.593   1.438  0.1357  0.8228  0.0583
  451MOL0     C62162   4.296  10.698   1.356 -0.1559 -1.1069  0.3050
  451MOL0     C62163   4.227  10.639   1.242  0.3007 -0.2327  0.4112
  451MOL0     C62164   4.181  10.721   1.128  0.1044 -0.8695  0.5151
  451MOL0     C62165   4.160  10.792   1.032  0.2568 -0.4543 -0.1365
  451MOL0     C62166   4.585  10.810   1.759  0.1428  0.4482 -0.7349
  451MOL0     C62167   4.623  10.882   1.876 -0.4793 -1.1247 -0.0921
  451MOL0     C62168   4.748  10.968   1.878 -1.0526 -0.0628 -0.1302
  451MOL0     H62169   4.486  11.043   2.370  1.2285 -2.0696  0.7357
  451MOL0     H62170   4.527  11.194   2.548 -0.3265  1.8397 -0.0423
  451MOL0     H62171   4.652  11.321   2.741  1.0970  0.2149  0.6490
  451MOL0     H62172   4.544  11.405   2.625 -0.4632  0.7733  0.3473
  451MOL0     H62173   4.632  11.544   2.818  1.0776 -0.5311  0.7305
  451MOL0     H62174   4.792  11.516   2.740  0.2751 -0.9030 -0.4873
  451MOL0     H62175   4.694  11.633   2.527  0.2394  0.3275 -0.3427
  451MOL0     H62176   4.543  11.647   2.629  0.4548 -2.1455  4.4062
  451MOL0     H62177   4.657  11.795   2.763  0.1832  0.5022  0.0117
  451MOL0     H62178   4.822  11.746   2.705 -1.1525  1.1766  2.1822
  451MOL0     H62179   4.734  11.853   2.487  1.4483 -1.5414  0.4599
  451MOL0     H62180   4.781  11.960   2.631  0.3796  0.6635  0.0863
  451MOL0     H62181   4.505  11.852   2.552  0.2090 -1.0377  0.6248
  451MOL0     H62182   4.518  11.965   2.687  2.5750  2.2443 -0.2359
  451MOL0     H62183   4.573  12.056   2.406 -1.6610 -0.6900 -0.6490
  451MOL0     H62184   4.605  12.148   2.546 -0.0008  0.7901 -1.2668
  451MOL0     H62185   4.359  12.094   2.633 -1.4593 -0.6842 -0.9629
  451MOL0     H62186   4.391  12.224   2.511 -2.3067 -0.4289 -0.7218
  451MOL0     H62187   4.356  12.101   2.237 -1.2817  0.0139 -1.0453
  451MOL0     H62188   4.150  12.009   2.086 -0.0303  0.0478  0.6686
  451MOL0     H62189   4.071  11.868   2.128  0.7859  2.0106  0.2959
  451MOL0     H62190   4.370  11.834   2.070 -0.6045  2.6329  3.5961
  451MOL0     H62191   4.258  11.717   2.111  2.6898 -0.4992  0.2438
  451MOL0     H62192   4.106  11.756   1.930  0.5471 -1.9349  2.3837
  451MOL0     H62193   4.188  11.892   1.868  0.4639  2.6669  4.1331
  451MOL0     H62194   4.295  11.599   1.894 -0.9743 -0.1108 -0.9295
  451MOL0     H62195   4.214  11.661   1.751 -2.7692 -1.4769  1.5908
  451MOL0     H62196   4.634  11.829   1.789 -0.6909 -0.4260  0.9983
  451MOL0     H62197   4.764  12.077   1.588 -1.9684  0.0351 -0.1255
  451MOL0     H62198   4.843  11.922   1.545 -0.5802 -4.2883  2.9008
  451MOL0     H62199   4.795  11.955   1.710 -1.6786 -1.4729  0.3220
  451MOL0     H62200   4.562  12.378   1.321 -0.9818 -1.9684  1.3540
  451MOL0     H62201   4.639  12.517   1.129  0.2405  0.4819 -1.7694
  451MOL0     H62202   4.623  12.601   0.907 -1.1550  1.2037 -1.7249
  451MOL0     H62203   4.754  12.580   0.797  1.0899 -0.9040  1.1918
  451MOL0     H62204   4.555  12.597   0.672  1.6840  0.0806  2.1321
  451MOL0     H62205   4.594  12.433   0.641 -2.1437 -1.7571  0.1853
  451MOL0     H62206   4.460  12.352   0.827  1.0920  1.2287  1.1208
  451MOL0     H62207   4.366  12.424   0.682 -1.5529  1.9493  0.0930
  451MOL0     H62208   4.318  12.620   0.787 -3.2143 -1.1696 -1.9320
  451MOL0     H62209   4.409  12.589   0.923  1.0458  1.9090 -2.5080
  451MOL0     H62210   4.190  12.541   0.991  2.3893  1.2713  0.8666
  451MOL0     H62211   4.155  12.460   0.841 -0.0179 -1.7661  0.2553
  451MOL0     H62212   4.340  12.344   1.047  2.4786  3.4468 -3.4406
  451MOL0     H62213   4.270  12.257   0.908  1.2944 -0.1567  0.5201
  451MOL0     H62214   4.037  12.336   1.016 -0.8408 -0.9726  1.2840
  451MOL0     H62215   4.135  12.351   1.164  1.0627  0.8464 -0.4681
  451MOL0     H62216   4.079  12.105   0.980  1.0898  1.6454 -0.9521
  451MOL0     H62217   4.025  12.126   1.153  1.0759  2.4033  1.8349
  451MOL0     H62218   4.630  12.172   0.887 -2.3264  2.1168 -1.0660
  451MOL0     H62219   4.531  12.043   1.059  3.0962 -0.8139 -1.0903
  451MOL0     H62220   4.347  11.922   1.402  0.8767 -0.6050 -1.2636
  451MOL0     H62221   4.255  11.828   1.602  0.2776 -1.8552  0.3324
  451MOL0     H62222   4.878  11.346   2.365  1.6352 -0.8787  1.2872
  451MOL0     H62223   4.833  11.207   2.161  1.9661  3.6362  1.7333
  451MOL0     H62224   4.392  10.733   2.079 -0.8361  1.4625 -0.1898
  451MOL0     H62225   4.351  10.603   1.878 -1.1967 -0.3858  3.6618
  451MOL0     H62226   4.492  10.767   1.515  1.8281  0.2615 -1.1066
  451MOL0     H62227   4.583  10.625   1.508 -0.1475  1.3156  1.7341
  451MOL0     H62228   4.315  10.539   1.501 -0.1516 -1.2737 -1.9460
  451MOL0     H62229   4.440  10.520   1.378 -2.8657 -3.4496  2.0162
  451MOL0     H62230   4.219  10.751   1.412 -0.6939  0.4005 -1.6994
  451MOL0     H62231   4.353  10.785   1.322 -0.6544 -0.8825  0.0240
  451MOL0     H62232   4.137  10.589   1.279  0.9798  0.1235  2.6882
  451MOL0     H62233   4.281  10.551   1.207 -0.1915 -0.2838 -0.2398
  451MOL0     H62234   4.159  10.857   0.947 -0.4235 -1.3062 -0.7865
  451MOL0     H62235   4.641  10.832   1.668  1.6300  2.9911  0.6788
  451MOL0     H62236   4.808  10.932   1.794 -2.0454  2.0516 -1.8630
  451MOL0     H62237   4.722  11.075   1.876 -0.4848  0.1784  2.3991
  451MOL0     H62238   4.808  10.955   1.968  0.3823  2.1771 -0.6754
  452MOL0     O62239   7.533   4.006   0.046 -0.3204  0.3660  0.6262
  452MOL0     C62240   7.464   4.062  -0.033 -0.6004  0.3497  0.8795
  452MOL0     O62241   7.493   4.186  -0.090  0.1374 -0.1178  0.2033
  452MOL0     C62242   7.571   4.276  -0.025  0.0853 -0.7970 -0.2818
  452MOL0     C62243   7.623   4.391  -0.092 -0.0256 -0.3692 -0.5091
  452MOL0     C62244   7.716   4.485  -0.038 -0.0124 -0.7045  0.0924
  452MOL0     C62245   7.739   4.485   0.103  0.5057 -0.7973  1.1391
  452MOL0     O62246   7.823   4.571   0.175  0.2440 -0.0044 -0.5302
  452MOL0     C62247   7.836   4.709   0.128  0.7216 -0.3889  0.2787
  452MOL0     C62248   7.829   4.798   0.256  0.7920 -0.5838  0.3632
  452MOL0     C62249   7.829   4.946   0.235 -0.1293 -0.6138  0.1483
  452MOL0     C62250   7.969   5.006   0.210  0.2222 -0.6137  0.0725
  452MOL0     C62251   7.968   5.116   0.111  0.3409  0.2613 -0.1414
  452MOL0     C62252   7.925   5.251   0.164  0.1273 -0.5622  0.2210
  452MOL0     C62253   7.863   5.353   0.059 -0.1748  0.2163  0.2828
  452MOL0     C62254   7.715   5.351   0.054  0.7420  0.8191 -0.6337
  452MOL0     N62255   7.667   5.300  -0.070 -0.5882 -0.0688 -0.5025
  452MOL0     C62256   7.681   5.355  -0.194  0.3579 -0.1868 -0.3308
  452MOL0     C62257   7.646   5.252  -0.272  0.5559 -0.2122  0.0692
  452MOL0     C62258   7.655   5.239  -0.422  0.2282 -0.1233 -0.4477
  452MOL0     C62259   7.734   5.104  -0.456  0.4265  0.1011  0.4667
  452MOL0     C62260   7.635   4.991  -0.491 -0.2804  0.4809 -0.3663
  452MOL0     C62261   7.574   5.021  -0.626  0.4202  0.4512  0.3284
  452MOL0     O62262   7.457   4.938  -0.633  0.3235  0.5895  0.7512
  452MOL0     C62263   7.455   4.816  -0.705 -0.3084 -0.2441 -0.9947
  452MOL0     C62264   7.554   4.757  -0.786  0.6328  0.4169 -0.2522
  452MOL0     C62265   7.527   4.632  -0.850  0.0066  0.3293  0.4187
  452MOL0     C62266   7.636   4.578  -0.940  0.2482  0.7874  0.0751
  452MOL0     C62267   7.408   4.558  -0.822  0.2593  0.1242  0.2891
  452MOL0     C62268   7.365   4.427  -0.885 -0.0573  0.6489 -0.3195
  452MOL0     O62269   7.230   4.396  -0.881 -0.0109 -0.1558 -0.5512
  452MOL0     C62270   7.187   4.279  -0.939 -0.4643  0.4833 -0.0842
  452MOL0     C62271   7.128   4.286  -1.068  0.4591 -0.4948 -0.4530
  452MOL0     C62272   7.051   4.188  -1.114  0.4369  0.2088  0.2432
  452MOL0     C62273   7.042   4.072  -1.044 -0.7583 -0.2214 -0.1973
  452MOL0     O62274   6.934   3.989  -1.082 -0.1095 -0.9816 -0.3793
  452MOL0     C62275   6.872   3.895  -0.988 -0.0723  0.9035 -0.2660
  452MOL0     C62276   6.726   3.927  -0.966 -0.2625  0.1944  1.3197
  452MOL0     C62277   6.626   3.909  -1.082 -0.1187  0.8289  0.5856
  452MOL0     C62278   6.483   3.908  -1.033  0.2563  0.9649  0.3067
  452MOL0     C62279   6.370   3.895  -1.130  1.0603  0.0681  0.7008
  452MOL0     C62280   6.341   4.009  -1.236  0.3387 -0.2606  0.9260
  452MOL0     C62281   6.418   3.977  -1.361  0.0893  0.5531  0.1307
  452MOL0     C62282   6.395   4.093  -1.468 -0.1411 -0.6381  0.3207
  452MOL0    Cl62283   6.462   4.047  -1.621 -0.5317  0.1846  0.2655
  452MOL0     C62284   7.121   4.052  -0.930 -0.6220 -0.3598 -0.3711
  452MOL0     C62285   7.196   4.157  -0.876  0.7099  0.2787  0.4204
  452MOL0     O62286   7.452   4.347  -0.918  0.3644 -0.2919  0.0534
  452MOL0     C62287   7.313   4.624  -0.741  0.7308  0.9405 -0.0704
  452MOL0     C62288   7.334   4.745  -0.681 -0.4923 -0.4039  0.1441
  452MOL0     N62289   7.596   5.152  -0.195  0.0012 -0.7598  0.0388
  452MOL0     N62290   7.595   5.184  -0.073  0.5952  0.8293  0.4368
  452MOL0     C62291   7.687   4.375   0.178 -0.0097 -0.1083  0.1621
  452MOL0     C62292   7.616   4.272   0.112  0.9325 -0.0192  0.1047
  452MOL0     C62293   7.334   3.997  -0.077  0.2930 -0.0037 -0.1779
  452MOL0     C62294   7.236   4.085  -0.132 -0.4439 -0.1309 -0.4756
  452MOL0     C62295   7.105   4.050  -0.165 -0.3785  0.3363 -0.7725
  452MOL0     C62296   7.071   3.914  -0.159  0.1599 -0.0478  0.0916
  452MOL0     O62297   6.944   3.866  -0.166 -0.0077 -0.1369  0.0974
  452MOL0     C62298   6.833   3.958  -0.186  0.6196  0.3892  0.5804
  452MOL0     C62299   6.817   3.995  -0.342  0.2417  0.5363 -0.5869
  452MOL0     C62300   6.792   3.865  -0.433  0.3462  0.4544 -0.1483
  452MOL0     C62301   6.792   3.896  -0.580 -0.4678  0.0020 -1.2291
  452MOL0     C62302   6.660   3.957  -0.611  0.1987 -0.2011  0.8773
  452MOL0     C62303   6.548   4.013  -0.623  0.1165  0.3855 -0.3345
  452MOL0     C62304   7.163   3.818  -0.115  0.3295  0.5975  0.4292
  452MOL0     C62305   7.298   3.859  -0.092 -0.3760  0.3332  0.4119
  452MOL0     C62306   7.389   3.750  -0.047  0.1319  0.0094  0.9637
  452MOL0     H62307   7.590   4.405  -0.194  0.4393 -3.5094 -1.2110
  452MOL0     H62308   7.762   4.553  -0.109  0.4642  0.0505  1.0966
  452MOL0     H62309   7.752   4.737   0.064  3.1585  2.3141 -2.0608
  452MOL0     H62310   7.919   4.731   0.060 -0.2266  2.3643 -0.1117
  452MOL0     H62311   7.737   4.772   0.309  0.4044  1.7665  0.9476
  452MOL0     H62312   7.909   4.786   0.330  2.0377  1.1159 -0.6480
  452MOL0     H62313   7.760   4.961   0.152 -0.1258 -1.6848 -0.0548
  452MOL0     H62314   7.785   4.992   0.324  0.4115 -2.0447  1.1858
  452MOL0     H62315   8.023   5.026   0.303  3.5665  1.1696 -2.0209
  452MOL0     H62316   8.032   4.933   0.158 -1.0183  1.6220 -5.1654
  452MOL0     H62317   7.900   5.091   0.029 -0.0900  0.0980  0.2665
  452MOL0     H62318   8.066   5.119   0.063  0.5464 -0.8454  0.1733
  452MOL0     H62319   7.852   5.224   0.242  1.1843 -2.1460  0.7158
  452MOL0     H62320   8.007   5.301   0.215  1.1392 -0.6306 -1.2718
  452MOL0     H62321   7.903   5.350  -0.043  0.7038 -0.9109  0.6376
  452MOL0     H62322   7.885   5.454   0.096 -0.6624  1.0551 -1.5991
  452MOL0     H62323   7.677   5.286   0.133 -0.5011 -1.1806 -2.7843
  452MOL0     H62324   7.666   5.449   0.055 -1.1765 -0.1072 -0.3156
  452MOL0     H62325   7.727   5.451  -0.217  0.6538 -0.8153 -2.6146
  452MOL0     H62326   7.712   5.325  -0.458 -1.1373  0.7638 -0.5569
  452MOL0     H62327   7.553   5.252  -0.458 -0.1775 -0.3471  0.5937
  452MOL0     H62328   7.791   5.135  -0.544 -3.7411  3.5551 -1.3729
  452MOL0     H62329   7.793   5.057  -0.376 -0.3521 -1.1903  0.3168
  452MOL0     H62330   7.684   4.895  -0.505 -0.1350  0.3674  0.8230
  452MOL0     H62331   7.565   4.970  -0.410  1.0335  0.8683  0.9183
  452MOL0     H62332   7.552   5.126  -0.646 -1.6262 -0.0911 -0.4338
  452MOL0     H62333   7.637   4.990  -0.709 -0.5357 -1.7894  0.3648
  452MOL0     H62334   7.646   4.812  -0.805  0.1749  0.7627 -1.6007
  452MOL0     H62335   7.592   4.521  -1.022  0.4164  0.0701  0.4671
  452MOL0     H62336   7.708   4.518  -0.884 -0.2038  0.9828  0.8822
  452MOL0     H62337   7.688   4.661  -0.989 -2.7971  1.5397 -2.1878
  452MOL0     H62338   7.139   4.383  -1.115 -1.7510  0.6615  1.2448
  452MOL0     H62339   6.988   4.203  -1.201 -3.1061  0.1046  2.5825
  452MOL0     H62340   6.906   3.792  -1.003  1.4545  0.9670  2.1257
  452MOL0     H62341   6.918   3.919  -0.892  1.4090 -0.4759 -0.5751
  452MOL0     H62342   6.692   3.860  -0.886 -3.0549 -1.4703 -1.0678
  452MOL0     H62343   6.724   4.029  -0.928 -0.7420  0.3899  0.7678
  452MOL0     H62344   6.646   3.809  -1.122 -1.2621  0.9574 -0.3477
  452MOL0     H62345   6.635   3.990  -1.155 -0.2563 -0.0411 -0.4308
  452MOL0     H62346   6.471   3.998  -0.972  3.3066  1.1608  0.7791
  452MOL0     H62347   6.490   3.825  -0.963 -0.6881 -0.5123 -1.2709
  452MOL0     H62348   6.394   3.801  -1.182 -0.9676  1.2744 -2.7411
  452MOL0     H62349   6.276   3.884  -1.074 -0.2842  1.8121 -1.0810
  452MOL0     H62350   6.373   4.105  -1.194 -0.4614  0.2490  0.4046
  452MOL0     H62351   6.234   4.016  -1.260  0.5158  1.0626  0.4424
  452MOL0     H62352   6.375   3.885  -1.402  0.9742  0.0181  0.3861
  452MOL0     H62353   6.522   3.946  -1.349 -0.3053 -2.0757 -2.1655
  452MOL0     H62354   6.434   4.185  -1.424 -2.1407  2.2223 -3.2689
  452MOL0     H62355   6.289   4.112  -1.486 -0.0296  2.3254  2.0433
  452MOL0     H62356   7.107   3.966  -0.864  0.8129  0.3178  0.8863
  452MOL0     H62357   7.239   4.151  -0.777  0.2131  1.8638  0.7678
  452MOL0     H62358   7.219   4.575  -0.717  0.5119  1.4095  0.0290
  452MOL0     H62359   7.252   4.775  -0.616 -0.5756  1.0014 -0.5457
  452MOL0     H62360   7.722   4.348   0.277  1.1981 -4.0719 -1.1541
  452MOL0     H62361   7.587   4.201   0.189 -0.8036  0.1852 -0.3340
  452MOL0     H62362   7.254   4.191  -0.141  0.2162 -0.3023 -1.4070
  452MOL0     H62363   7.037   4.124  -0.205  1.2938  0.8184 -2.9546
  452MOL0     H62364   6.740   3.911  -0.153  0.5780  2.8375  4.6208
  452MOL0     H62365   6.827   4.052  -0.131 -1.6201 -0.1956  1.4487
  452MOL0     H62366   6.910   4.047  -0.365  1.2187 -1.5411 -1.6434
  452MOL0     H62367   6.731   4.056  -0.370 -0.6662 -1.6848 -3.0145
  452MOL0     H62368   6.872   3.792  -0.419 -0.4706 -0.2092  1.2736
  452MOL0     H62369   6.696   3.820  -0.408 -0.3103  0.2323 -2.7110
  452MOL0     H62370   6.813   3.804  -0.636  2.1606  0.5636 -1.2623
  452MOL0     H62371   6.877   3.955  -0.616  1.8501 -2.3908  0.0006
  452MOL0     H62372   6.448   4.045  -0.642 -0.6294 -1.2179  0.6763
  452MOL0     H62373   7.126   3.717  -0.106 -1.8689  1.4185  1.3249
  452MOL0     H62374   7.494   3.780  -0.048  0.2867 -0.4890 -0.2255
  452MOL0     H62375   7.360   3.721   0.054  0.1852 -1.6662  0.5333
  452MOL0     H62376   7.378   3.661  -0.111  2.0292 -1.6805  2.8401
  453MOL0     O62377  10.442   9.316   5.910 -0.2118  0.1496  0.2079
  453MOL0     C62378  10.375   9.240   5.845 -0.2322  0.1352 -0.2204
  453MOL0     O62379  10.396   9.107   5.816  0.1666 -0.0733 -0.5667
  453MOL0     C62380  10.494   9.035   5.887  0.2080  0.4598 -0.2005
  453MOL0     C62381  10.562   9.069   6.008 -0.6056 -1.2177  0.4600
  453MOL0     C62382  10.657   8.994   6.073 -0.4534  0.1732 -0.4919
  453MOL0     C62383  10.686   8.866   6.023 -0.0699  0.3578 -0.1899
  453MOL0     O62384  10.760   8.766   6.091  0.1171 -0.1471 -0.3593
  453MOL0     C62385  10.898   8.803   6.124 -1.5145 -0.1999 -0.5766
  453MOL0     C62386  10.963   8.682   6.188 -0.5582 -0.7599  1.0250
  453MOL0     C62387  11.118   8.695   6.188  0.3551  0.5720  0.0972
  453MOL0     C62388  11.171   8.580   6.282 -0.1294  0.4455 -0.4680
  453MOL0     C62389  11.318   8.559   6.272 -0.0537  0.4489  0.7477
  453MOL0     C62390  11.396   8.679   6.326  0.1893 -0.0158  0.0510
  453MOL0     C62391  11.544   8.656   6.351  0.6241  0.7108  0.2578
  453MOL0     C62392  11.620   8.634   6.217 -0.2554  0.0386 -0.5078
  453MOL0     N62393  11.752   8.577   6.244 -0.0925  1.0500  0.1548
  453MOL0     C62394  11.772   8.441   6.233 -0.0084 -0.4101  0.2426
  453MOL0     C62395  11.903   8.431   6.281  0.0938  0.1774  0.8217
  453MOL0     C62396  11.970   8.300   6.323 -0.1914  0.1546  0.2222
  453MOL0     C62397  11.924   8.251   6.460  0.1272  0.8978 -0.7082
  453MOL0     C62398  11.975   8.111   6.502  0.5033  0.9772  0.2069
  453MOL0     C62399  11.915   8.086   6.650  0.6500 -0.7179  0.0344
  453MOL0     O62400  11.996   8.001   6.721 -0.0945 -0.3047 -0.0566
  453MOL0     C62401  12.098   8.059   6.793 -0.1632  0.3099 -0.2809
  453MOL0     C62402  12.136   7.973   6.898 -0.7086  0.2624  0.5269
  453MOL0     C62403  12.230   8.012   6.989 -0.2524 -0.2618 -0.1074
  453MOL0     C62404  12.279   7.907   7.090 -0.0206  0.7077  0.3498
  453MOL0     C62405  12.292   8.144   6.976 -0.0788  0.2346 -0.5772
  453MOL0     C62406  12.389   8.195   7.076 -0.7847  0.2577 -0.1275
  453MOL0     O62407  12.497   8.263   7.023  0.2600 -0.0730 -0.3181
  453MOL0     C62408  12.599   8.286   7.110  0.5972  0.9042 -0.2862
  453MOL0     C62409  12.628   8.418   7.134  0.1947  0.0718  0.7996
  453MOL0     C62410  12.749   8.452   7.204  0.2766 -0.1667 -0.5471
  453MOL0     C62411  12.825   8.341   7.257  0.3466 -0.5462 -0.5423
  453MOL0     O62412  12.927   8.366   7.344  0.7044 -0.3089  0.4594
  453MOL0     C62413  12.897   8.321   7.476  0.2334  0.8768 -0.8204
  453MOL0     C62414  12.951   8.413   7.576 -0.2689  0.3321 -0.3879
  453MOL0     C62415  12.889   8.552   7.591  0.4268 -0.5611 -0.0677
  453MOL0     C62416  12.998   8.663   7.588  0.7972  0.1098  0.4807
  453MOL0     C62417  13.074   8.671   7.448  0.0872  0.4301 -0.5411
  453MOL0     C62418  13.144   8.804   7.400 -0.0800  0.1046 -0.2314
  453MOL0     C62419  13.271   8.835   7.485 -0.1805  0.6118  0.0510
  453MOL0     C62420  13.317   8.980   7.473 -0.2631 -0.3012  0.5540
  453MOL0    Cl62421  13.196   9.087   7.542  0.2822 -0.1510 -0.0568
  453MOL0     C62422  12.794   8.211   7.214 -0.2432  0.0898 -0.1404
  453MOL0     C62423  12.681   8.180   7.138  0.4845  0.7539 -0.9343
  453MOL0     O62424  12.374   8.167   7.192 -0.4237  0.0675 -0.4898
  453MOL0     C62425  12.238   8.231   6.880  0.6206  0.2286 -0.4824
  453MOL0     C62426  12.142   8.187   6.781 -0.2675  0.7227  0.4161
  453MOL0     N62427  11.962   8.552   6.296 -0.3405 -0.1796  0.5955
  453MOL0     N62428  11.865   8.646   6.283 -0.0511 -0.0796 -0.1934
  453MOL0     C62429  10.614   8.815   5.912  0.6746 -0.2594 -0.0322
  453MOL0     C62430  10.525   8.905   5.845  0.2402 -0.6271  0.2296
  453MOL0     C62431  10.260   9.301   5.782  0.4913  0.4830 -0.6102
  453MOL0     C62432  10.137   9.231   5.780  0.6779 -0.3493  0.2212
  453MOL0     C62433  10.022   9.293   5.721  0.4611  1.2251  0.6911
  453MOL0     C62434  10.023   9.427   5.680 -0.3959  0.9271 -0.4756
  453MOL0     O62435   9.918   9.498   5.634  0.1472 -0.2695 -0.0169
  453MOL0     C62436   9.775   9.458   5.635 -0.4685  0.5097  0.5390
  453MOL0     C62437   9.743   9.354   5.521  0.1336 -0.2326  0.0822
  453MOL0     C62438   9.761   9.405   5.380 -0.2263 -1.0194  0.6230
  453MOL0     C62439   9.676   9.526   5.356 -0.4286 -0.9037  0.2329
  453MOL0     C62440   9.533   9.504   5.386 -0.9893  0.2340 -0.1924
  453MOL0     C62441   9.419   9.474   5.430 -0.3333 -0.0958  1.0841
  453MOL0     C62442  10.135   9.499   5.687 -0.0970 -0.1731  0.5075
  453MOL0     C62443  10.254   9.441   5.737  0.1367 -0.5606  0.2487
  453MOL0     C62444  10.361   9.543   5.751  0.0353  0.1848 -0.3755
  453MOL0     H62445  10.539   9.163   6.056 -0.9550  0.1044 -2.0874
  453MOL0     H62446  10.697   9.031   6.167  1.1654 -4.0158  0.7112
  453MOL0     H62447  10.909   8.891   6.189  0.2626 -0.1290 -0.9269
  453MOL0     H62448  10.942   8.836   6.030 -2.0453  4.3403  0.5301
  453MOL0     H62449  10.922   8.687   6.290 -0.2064 -1.9049  1.2437
  453MOL0     H62450  10.930   8.589   6.141 -0.2665 -1.1914  1.6568
  453MOL0     H62451  11.149   8.684   6.083 -0.8640 -1.9335 -0.0683
  453MOL0     H62452  11.163   8.787   6.225  0.6300  0.8523 -0.8871
  453MOL0     H62453  11.149   8.609   6.386  1.4193 -1.9998  0.6359
  453MOL0     H62454  11.121   8.485   6.260 -0.6916  0.7749 -0.6456
  453MOL0     H62455  11.342   8.540   6.167  0.4166  2.2215  0.4884
  453MOL0     H62456  11.339   8.467   6.327 -1.6303  0.1231  0.8435
  453MOL0     H62457  11.382   8.770   6.266 -0.9413  1.7803  2.8230
  453MOL0     H62458  11.356   8.714   6.422 -0.7434  2.5780 -1.2008
  453MOL0     H62459  11.563   8.570   6.416 -0.9492  0.1867  0.0718
  453MOL0     H62460  11.582   8.754   6.382 -0.7682  1.6460 -0.8642
  453MOL0     H62461  11.571   8.565   6.149  2.5819 -1.3467 -1.2997
  453MOL0     H62462  11.630   8.729   6.163  0.1056 -0.3522 -1.1285
  453MOL0     H62463  11.698   8.363   6.222  0.3663 -0.9258  1.2343
  453MOL0     H62464  12.078   8.315   6.316  0.4069 -3.5896 -0.7035
  453MOL0     H62465  11.949   8.237   6.237  1.8357  2.0296 -1.7857
  453MOL0     H62466  11.967   8.325   6.527 -2.0119  1.1996  0.4187
  453MOL0     H62467  11.815   8.253   6.466  0.2059  2.1157  1.2719
  453MOL0     H62468  11.933   8.033   6.437  0.6706  0.5078  0.6563
  453MOL0     H62469  12.084   8.112   6.493  0.5106  0.4246  0.1640
  453MOL0     H62470  11.901   8.181   6.703 -2.2130 -1.6994  1.2615
  453MOL0     H62471  11.824   8.026   6.639  0.4441 -0.0940 -2.1494
  453MOL0     H62472  12.089   7.875   6.901  3.1569 -2.0216 -2.7739
  453MOL0     H62473  12.230   7.816   7.054 -0.7641  1.9216 -1.8915
  453MOL0     H62474  12.236   7.914   7.191  1.7490  1.8530  1.0772
  453MOL0     H62475  12.388   7.898   7.090  0.0834  1.1106  3.1510
  453MOL0     H62476  12.575   8.501   7.090 -0.7120 -0.5969  0.6095
  453MOL0     H62477  12.764   8.557   7.226  0.4426  0.4883 -3.3679
  453MOL0     H62478  12.791   8.296   7.488  0.8192 -0.2364  3.3527
  453MOL0     H62479  12.949   8.225   7.487  0.5842  0.7872 -2.7811
  453MOL0     H62480  12.938   8.363   7.672 -0.0816 -1.3760 -1.2038
  453MOL0     H62481  13.060   8.407   7.564 -0.3067 -4.9508 -0.7835
  453MOL0     H62482  12.833   8.555   7.684  0.0140 -1.9158 -0.2476
  453MOL0     H62483  12.811   8.562   7.515  0.0967 -1.1809  0.1820
  453MOL0     H62484  13.070   8.635   7.666  1.3576 -0.4658 -0.2258
  453MOL0     H62485  12.957   8.762   7.612 -2.1918 -0.1481 -2.7137
  453MOL0     H62486  13.156   8.598   7.443 -0.4548 -0.2743  0.3921
  453MOL0     H62487  12.996   8.640   7.378 -2.1611  0.1526  1.9342
  453MOL0     H62488  13.070   8.884   7.408 -1.3583 -1.1589  1.4821
  453MOL0     H62489  13.172   8.795   7.295  3.1854  3.4032  0.1351
  453MOL0     H62490  13.356   8.772   7.457  0.0095  1.2057 -0.7477
  453MOL0     H62491  13.250   8.829   7.592  0.3125  2.5600  0.2882
  453MOL0     H62492  13.337   9.004   7.368  0.0626 -1.3498  0.3627
  453MOL0     H62493  13.411   9.002   7.526 -0.4826 -0.7913  1.1488
  453MOL0     H62494  12.860   8.136   7.258  1.3445  1.5710  0.1218
  453MOL0     H62495  12.664   8.075   7.119 -0.1953  0.7858 -0.5212
  453MOL0     H62496  12.255   8.338   6.880  1.4254  0.1134  0.4813
  453MOL0     H62497  12.117   8.262   6.707  0.4638  0.8145  0.2499
  453MOL0     H62498  10.621   8.714   5.873  1.7740 -0.3656  0.4092
  453MOL0     H62499  10.458   8.877   5.764 -1.0146  1.5369  0.4444
  453MOL0     H62500  10.139   9.134   5.828 -0.8226  0.0108  1.0699
  453MOL0     H62501   9.927   9.242   5.710  1.0921  0.3971 -1.2757
  453MOL0     H62502   9.760   9.411   5.732  2.5329 -0.3806  0.6703
  453MOL0     H62503   9.707   9.544   5.624  0.7657  1.2517 -2.5651
  453MOL0     H62504   9.644   9.309   5.522 -0.7377  1.3038 -3.4119
  453MOL0     H62505   9.803   9.264   5.536 -1.4626 -1.2138  0.7098
  453MOL0     H62506   9.864   9.439   5.364 -1.0916  1.3812 -0.3293
  453MOL0     H62507   9.734   9.331   5.305  0.7225  0.0481 -0.8293
  453MOL0     H62508   9.667   9.552   5.250 -0.3239  0.9162  0.6298
  453MOL0     H62509   9.703   9.621   5.404  0.7075 -0.4483 -1.2279
  453MOL0     H62510   9.321   9.448   5.465 -0.5405  0.4603  0.9274
  453MOL0     H62511  10.135   9.598   5.642 -0.7216 -0.6742 -0.6001
  453MOL0     H62512  10.353   9.603   5.842 -0.4460 -0.0997 -0.2242
  453MOL0     H62513  10.462   9.502   5.753 -0.4217 -1.5388 -4.2398
  453MOL0     H62514  10.359   9.615   5.669 -0.8247  1.4944  0.7532
  454MOL0     O62515   5.462   8.947  10.220  0.6561  0.4372 -0.2258
  454MOL0     C62516   5.428   8.852  10.289 -0.5844  1.3872  0.0478
  454MOL0     O62517   5.512   8.762  10.345  0.0690 -0.3217 -0.2121
  454MOL0     C62518   5.646   8.744  10.306  0.1279  0.0856  0.6742
  454MOL0     C62519   5.688   8.751  10.171 -0.5388  0.4021 -0.6585
  454MOL0     C62520   5.825   8.725  10.138 -0.2012 -0.4885  0.1233
  454MOL0     C62521   5.925   8.687  10.229 -0.3015 -0.7359  0.1945
  454MOL0     O62522   6.061   8.666  10.204  0.2009  0.2058  0.2024
  454MOL0     C62523   6.106   8.619  10.076  0.0969 -0.5569  0.0840
  454MOL0     C62524   6.188   8.721  10.002  0.5437  1.0247 -0.4581
  454MOL0     C62525   6.272   8.816  10.088 -0.0434  0.5847  0.4635
  454MOL0     C62526   6.324   8.926   9.987 -0.8513  0.0394 -0.5737
  454MOL0     C62527   6.406   9.028  10.063  0.0536 -0.0588 -0.0565
  454MOL0     C62528   6.550   8.973  10.092 -0.2296  0.2941  0.4063
  454MOL0     C62529   6.620   9.064  10.201  0.3980 -0.2525  0.7315
  454MOL0     C62530   6.587   9.016  10.343  0.1731  0.0685  0.9559
  454MOL0     N62531   6.703   9.066  10.423 -0.1245  0.2745  0.1584
  454MOL0     C62532   6.789   8.987  10.501  0.0047  0.6314 -0.3054
  454MOL0     C62533   6.864   9.084  10.572  0.0793 -0.4511  0.2893
  454MOL0     C62534   6.988   9.065  10.658 -0.2541 -0.8695  0.5364
  454MOL0     C62535   7.040   9.199  10.717  0.0493 -0.3806 -0.3593
  454MOL0     C62536   7.150   9.180  10.811  0.0969  0.0736  0.7863
  454MOL0     C62537   7.115   9.109  10.949  0.7879  0.4848  0.7186
  454MOL0     O62538   7.235   9.107  11.029 -0.0862  0.5142 -0.8984
  454MOL0     C62539   7.230   9.019  11.135  0.2354 -0.6428 -0.5118
  454MOL0     C62540   7.154   8.905  11.152 -0.1092 -0.1627 -0.2311
  454MOL0     C62541   7.158   8.839  11.277  0.0964  0.5010 -0.1208
  454MOL0     C62542   7.048   8.732  11.290 -0.5479  0.0486 -0.1249
  454MOL0     C62543   7.248   8.882  11.382  0.6713 -0.2844 -0.2434
  454MOL0     C62544   7.252   8.821  11.514 -0.7328 -0.0358 -0.6177
  454MOL0     O62545   7.315   8.893  11.609 -0.6606 -0.3566 -0.3352
  454MOL0     C62546   7.356   8.833  11.720 -0.5768  0.2576 -0.6089
  454MOL0     C62547   7.313   8.891  11.837 -0.4991  0.0281 -0.2267
  454MOL0     C62548   7.351   8.834  11.958 -0.3584 -0.0247  0.9307
  454MOL0     C62549   7.446   8.733  11.958 -0.0389  0.4185 -0.6135
  454MOL0     O62550   7.495   8.679  12.070  0.3789  0.1730  0.5996
  454MOL0     C62551   7.443   8.711  12.205  0.4696 -0.3461  0.1240
  454MOL0     C62552   7.504   8.614  12.303 -0.2935 -1.3194  0.1796
  454MOL0     C62553   7.664   8.628  12.285 -0.3430 -0.6003 -0.0620
  454MOL0     C62554   7.739   8.626  12.417 -0.1756 -0.4375 -0.7284
  454MOL0     C62555   7.897   8.605  12.405 -0.4486  0.1556 -0.2408
  454MOL0     C62556   7.958   8.715  12.331  0.9563 -0.5593  0.2387
  454MOL0     C62557   8.112   8.694  12.334  0.5170  0.1846 -0.2985
  454MOL0     C62558   8.179   8.669  12.468  1.5294 -0.4246 -0.0705
  454MOL0    Cl62559   8.349   8.735  12.484  0.0801  0.0897  0.1870
  454MOL0     C62560   7.479   8.668  11.844 -0.2139  0.4229 -0.2607
  454MOL0     C62561   7.436   8.717  11.721  0.0691  0.1665  0.1437
  454MOL0     O62562   7.212   8.707  11.527 -0.1669 -0.3166  0.5332
  454MOL0     C62563   7.345   8.987  11.350  0.0545 -0.1368 -0.3772
  454MOL0     C62564   7.326   9.055  11.228 -0.2307  0.3799 -0.9015
  454MOL0     N62565   6.841   9.210  10.515  0.4310  0.6780  0.2478
  454MOL0     N62566   6.741   9.194  10.429 -0.1697 -0.0891 -0.0904
  454MOL0     C62567   5.878   8.679  10.356  0.1101  0.0613 -0.0977
  454MOL0     C62568   5.746   8.705  10.395  0.1203  0.1839 -0.0007
  454MOL0     C62569   5.285   8.839  10.318 -0.3336  0.2976  0.9028
  454MOL0     C62570   5.230   8.907  10.424  0.4093  0.2405 -0.2111
  454MOL0     C62571   5.096   8.906  10.456 -0.1084  0.2775 -0.2961
  454MOL0     C62572   5.007   8.831  10.384  0.2142 -0.1182 -0.0574
  454MOL0     O62573   4.879   8.820  10.430 -0.0897 -0.8893 -0.1565
  454MOL0     C62574   4.771   8.827  10.340  0.5970  0.0998  0.3613
  454MOL0     C62575   4.700   8.691  10.319 -0.6261 -0.6623 -1.1110
  454MOL0     C62576   4.594   8.711  10.206  0.9117  0.2268 -0.0071
  454MOL0     C62577   4.460   8.786  10.249 -0.0011  0.2835 -0.0740
  454MOL0     C62578   4.475   8.932  10.226 -0.0336  0.4714 -0.6888
  454MOL0     C62579   4.504   9.047  10.209  0.4791  0.3262 -0.0187
  454MOL0     C62580   5.062   8.749  10.287  0.3431  0.0221 -0.2663
  454MOL0     C62581   5.196   8.757  10.243  0.0104 -0.0453 -0.8345
  454MOL0     C62582   5.244   8.683  10.122 -0.1405 -0.1086 -0.5354
  454MOL0     H62583   5.613   8.753  10.093  0.7311 -1.2764 -1.9985
  454MOL0     H62584   5.857   8.730  10.035  1.4722  1.9292  0.6820
  454MOL0     H62585   6.023   8.583  10.014 -1.9974  0.7517  1.9855
  454MOL0     H62586   6.167   8.528  10.082 -0.7969 -1.2115 -0.4218
  454MOL0     H62587   6.254   8.674   9.929  0.0302  0.6443 -0.6820
  454MOL0     H62588   6.110   8.783   9.957  1.0300  1.5021 -0.6593
  454MOL0     H62589   6.212   8.874  10.159 -1.1194  0.5894 -0.4146
  454MOL0     H62590   6.354   8.757  10.129  1.0663  1.5934 -0.2175
  454MOL0     H62591   6.392   8.884   9.911 -0.0705 -1.1673  0.7374
  454MOL0     H62592   6.237   8.973   9.942 -2.2980 -0.3992  1.6278
  454MOL0     H62593   6.353   9.059  10.153 -1.0271 -1.4002 -0.1892
  454MOL0     H62594   6.423   9.113   9.996  1.1359 -1.7699 -2.1087
  454MOL0     H62595   6.548   8.866  10.117  1.1448 -0.3628 -1.9904
  454MOL0     H62596   6.605   8.982   9.998 -1.5499 -0.6436 -0.4968
  454MOL0     H62597   6.600   9.168  10.171 -3.2115 -1.5497 -2.1073
  454MOL0     H62598   6.729   9.054  10.192  0.4473  0.8195 -0.2533
  454MOL0     H62599   6.502   9.075  10.376 -0.9816 -0.4491 -0.9396
  454MOL0     H62600   6.578   8.907  10.354 -2.6161  0.2161  0.6369
  454MOL0     H62601   6.802   8.879  10.512  2.0469  0.7516 -1.0989
  454MOL0     H62602   7.073   9.019  10.606  0.6608 -1.1438  2.2304
  454MOL0     H62603   6.963   8.998  10.741 -0.1356 -0.0461  1.2454
  454MOL0     H62604   7.076   9.263  10.637 -0.8698  1.0888  0.3590
  454MOL0     H62605   6.957   9.253  10.763 -2.1551 -1.7431 -2.5094
  454MOL0     H62606   7.239   9.134  10.768 -1.2991 -2.0184 -0.0184
  454MOL0     H62607   7.194   9.279  10.831  0.2508  0.4710 -1.3122
  454MOL0     H62608   7.035   9.158  11.004 -2.7681 -1.9296 -1.8015
  454MOL0     H62609   7.086   9.007  10.921  3.3709 -0.3675  0.9345
  454MOL0     H62610   7.082   8.871  11.079  0.7432  3.2508 -2.9325
  454MOL0     H62611   7.041   8.674  11.197 -0.7900  1.5715 -1.1073
  454MOL0     H62612   6.957   8.793  11.286 -0.0841  0.7038 -1.1516
  454MOL0     H62613   7.050   8.665  11.376  2.3366  0.3018  0.0913
  454MOL0     H62614   7.246   8.976  11.828 -1.5703 -0.9457 -2.3024
  454MOL0     H62615   7.296   8.872  12.043 -3.0171 -1.1895 -0.1582
  454MOL0     H62616   7.471   8.815  12.223 -1.2280  0.2214 -0.3268
  454MOL0     H62617   7.334   8.699  12.206  0.4324  0.0377  0.6857
  454MOL0     H62618   7.471   8.638  12.404 -1.9390  3.3129 -1.1888
  454MOL0     H62619   7.464   8.516  12.274  0.2158 -0.9047 -2.1623
  454MOL0     H62620   7.686   8.720  12.229 -0.6412  0.1432  1.0112
  454MOL0     H62621   7.714   8.549  12.227  1.0358 -0.6888  1.1724
  454MOL0     H62622   7.701   8.541  12.474  1.1040 -0.0347  0.7974
  454MOL0     H62623   7.723   8.707  12.489 -2.5708 -2.5319  1.2971
  454MOL0     H62624   7.944   8.593  12.503  0.7660 -1.6836 -0.9981
  454MOL0     H62625   7.914   8.511  12.352 -0.0713  0.7624 -1.2202
  454MOL0     H62626   7.926   8.812  12.371 -1.4503 -0.7544 -1.0244
  454MOL0     H62627   7.928   8.719  12.226  0.3971 -2.6688  0.2911
  454MOL0     H62628   8.156   8.785  12.292  2.3799  0.8420  2.7379
  454MOL0     H62629   8.128   8.607  12.270 -0.2069 -0.9361  0.9901
  454MOL0     H62630   8.168   8.561  12.480  0.0459 -0.3383 -0.4635
  454MOL0     H62631   8.116   8.726  12.538  4.6230 -0.0409  2.6394
  454MOL0     H62632   7.542   8.580  11.845  2.5098  2.2342  1.2285
  454MOL0     H62633   7.467   8.669  11.629 -2.7244  0.3535 -0.9935
  454MOL0     H62634   7.407   9.026  11.430  0.2566  1.1913 -1.1615
  454MOL0     H62635   7.382   9.147  11.216  0.0561  0.5479  1.2415
  454MOL0     H62636   5.942   8.641  10.435 -1.3014  0.5342  1.3236
  454MOL0     H62637   5.710   8.697  10.497  0.3971 -0.6108  0.0430
  454MOL0     H62638   5.288   8.974  10.487  1.8797 -1.6119  0.5032
  454MOL0     H62639   5.053   8.953  10.543  2.2959 -1.9001  2.2590
  454MOL0     H62640   4.697   8.898  10.377  1.0347  1.4968 -1.3184
  454MOL0     H62641   4.797   8.869  10.242 -2.8626  3.0705  0.4970
  454MOL0     H62642   4.660   8.663  10.417  1.2001 -4.0631 -1.2025
  454MOL0     H62643   4.772   8.608  10.319 -2.2235 -2.2397  2.1894
  454MOL0     H62644   4.638   8.754  10.116  3.1737  1.1934  1.4759
  454MOL0     H62645   4.568   8.607  10.181  1.2999 -0.0576  0.7280
  454MOL0     H62646   4.429   8.764  10.351  0.7241  3.1342  0.8475
  454MOL0     H62647   4.378   8.756  10.183  0.3995  1.3150 -1.0708
  454MOL0     H62648   4.516   9.152  10.193 -1.0345  0.5791  0.3769
  454MOL0     H62649   4.992   8.681  10.240  0.1090 -1.2073  1.7523
  454MOL0     H62650   5.235   8.746  10.033  0.2288 -1.0624 -1.2689
  454MOL0     H62651   5.343   8.638  10.135  0.0986  0.6401  0.3402
  454MOL0     H62652   5.185   8.595  10.094  0.8223 -1.2048  0.7096
  455MOL0     O62653   6.604   1.125   6.750 -0.1574  0.3972  0.4310
  455MOL0     C62654   6.581   1.039   6.664  0.1644  0.4167  0.4022
  455MOL0     O62655   6.673   0.963   6.595 -0.1736  0.4334  0.9673
  455MOL0     C62656   6.807   0.973   6.636  0.3486  0.6755  0.2977
  455MOL0     C62657   6.911   1.031   6.565 -0.1244  0.0269  0.0465
  455MOL0     C62658   7.044   1.032   6.614  0.4580 -0.5860 -0.1708
  455MOL0     C62659   7.072   0.972   6.737 -0.2321  0.0283  0.5903
  455MOL0     O62660   7.204   0.959   6.775 -0.0994 -0.3391  0.4446
  455MOL0     C62661   7.275   1.083   6.787  0.2512 -0.3157  0.9403
  455MOL0     C62662   7.414   1.040   6.830  0.0803 -0.0111 -0.2935
  455MOL0     C62663   7.501   1.161   6.817 -0.4567 -0.1924  0.7031
  455MOL0     C62664   7.646   1.146   6.862 -0.4983 -1.0538 -0.4146
  455MOL0     C62665   7.737   1.087   6.748 -0.3422  0.0319 -0.5506
  455MOL0     C62666   7.883   1.108   6.780 -0.5515 -0.2861  0.2487
  455MOL0     C62667   7.992   1.049   6.676  0.2406  0.2307  0.1387
  455MOL0     C62668   7.960   1.070   6.534  0.7087 -0.1677  1.4263
  455MOL0     N62669   7.914   1.209   6.496 -0.0117  0.1508  0.3977
  455MOL0     C62670   7.980   1.320   6.527 -0.0755 -0.0951  0.5609
  455MOL0     C62671   7.961   1.412   6.427 -0.6242 -0.0980  0.2482
  455MOL0     C62672   8.018   1.549   6.416 -1.1120 -0.1969 -0.2288
  455MOL0     C62673   7.996   1.621   6.552  0.5303 -0.4241  0.5626
  455MOL0     C62674   7.858   1.687   6.572  0.1940 -0.2215 -1.0712
  455MOL0     C62675   7.734   1.580   6.559  0.6039 -0.2864  0.9292
  455MOL0     O62676   7.608   1.623   6.619 -0.1435 -0.4282  0.2021
  455MOL0     C62677   7.493   1.570   6.576 -0.4915  0.0105  0.5584
  455MOL0     C62678   7.381   1.656   6.593  0.2851  0.2452  0.1078
  455MOL0     C62679   7.252   1.623   6.551 -0.2617 -0.3179 -0.4183
  455MOL0     C62680   7.145   1.727   6.574 -0.5986 -0.7391 -0.0492
  455MOL0     C62681   7.229   1.488   6.504  0.2874  0.5409  0.0026
  455MOL0     C62682   7.099   1.429   6.461 -0.3250  0.9257  0.2113
  455MOL0     O62683   6.992   1.511   6.464 -0.3449  0.2537  0.1587
  455MOL0     C62684   6.871   1.466   6.429 -0.2097  0.1767  0.4425
  455MOL0     C62685   6.808   1.357   6.478 -0.1051  0.0304  1.0604
  455MOL0     C62686   6.687   1.307   6.429  0.4751 -0.1242  0.4106
  455MOL0     C62687   6.612   1.387   6.337 -0.0972  0.0237  1.1337
  455MOL0     O62688   6.499   1.330   6.290  0.0204 -0.4750  0.5596
  455MOL0     C62689   6.443   1.382   6.167 -0.3684  0.8008 -0.4642
  455MOL0     C62690   6.330   1.285   6.114 -0.3498 -0.6071  0.4973
  455MOL0     C62691   6.194   1.274   6.205  0.1120  0.9267  0.3330
  455MOL0     C62692   6.109   1.148   6.187  0.1546  0.4576  0.1150
  455MOL0     C62693   6.031   1.156   6.059 -0.5122  0.0739  0.4333
  455MOL0     C62694   5.899   1.076   6.058  0.1885  0.0111 -0.8280
  455MOL0     C62695   5.789   1.136   6.143 -1.0062  0.3346  0.0972
  455MOL0     C62696   5.734   1.039   6.241  0.0334 -0.3593  1.4630
  455MOL0    Cl62697   5.568   1.076   6.289  0.2787  0.2924 -0.1858
  455MOL0     C62698   6.673   1.503   6.291  0.3019 -0.5336 -0.2271
  455MOL0     C62699   6.798   1.543   6.342  1.2300  0.4573  1.1007
  455MOL0     O62700   7.096   1.314   6.410  0.2959  0.2431 -0.2297
  455MOL0     C62701   7.340   1.401   6.490  0.0786  0.1731  0.6276
  455MOL0     C62702   7.474   1.445   6.507  0.0786  0.4503 -0.3445
  455MOL0     N62703   7.860   1.354   6.356  0.5414 -0.1380  0.6436
  455MOL0     N62704   7.837   1.236   6.386 -0.9558 -0.4905 -0.5657
  455MOL0     C62705   6.971   0.916   6.811  0.1559  0.2356  0.4270
  455MOL0     C62706   6.834   0.919   6.765  0.2894  0.6679  0.4452
  455MOL0     C62707   6.433   1.010   6.645  0.0175  1.2795  0.2083
  455MOL0     C62708   6.382   1.004   6.512  0.4011  0.0969 -0.9757
  455MOL0     C62709   6.247   0.965   6.488  0.3317 -0.3206  0.5269
  455MOL0     C62710   6.168   0.936   6.604 -0.0542 -0.0683  0.0830
  455MOL0     O62711   6.034   0.896   6.586  0.0745 -1.1443  0.0013
  455MOL0     C62712   6.022   0.764   6.553  0.4209 -0.0242 -1.1478
  455MOL0     C62713   5.884   0.738   6.484 -0.4568 -0.4066 -0.2553
  455MOL0     C62714   5.761   0.806   6.554  0.2535  0.2473 -0.0550
  455MOL0     C62715   5.629   0.731   6.519  0.2606  0.3169  0.8088
  455MOL0     C62716   5.600   0.626   6.610 -0.0362 -0.1434  0.0036
  455MOL0     C62717   5.589   0.545   6.702 -0.1378 -0.1120  0.2265
  455MOL0     C62718   6.223   0.939   6.732  0.5449 -0.4680 -0.8915
  455MOL0     C62719   6.350   0.975   6.757 -1.1907 -0.3836 -0.9375
  455MOL0     C62720   6.399   0.961   6.903  0.2758  0.3309 -0.4156
  455MOL0     H62721   6.904   1.088   6.472 -1.3410 -1.9426 -1.1621
  455MOL0     H62722   7.122   1.086   6.561  1.2053  2.8379  3.7893
  455MOL0     H62723   7.234   1.150   6.863  0.0478  2.2160 -1.2509
  455MOL0     H62724   7.276   1.141   6.695  0.7034 -0.1854  1.0254
  455MOL0     H62725   7.408   1.007   6.935  0.2638 -0.1410 -0.3218
  455MOL0     H62726   7.443   0.953   6.770 -2.4072  0.9478 -3.0839
  455MOL0     H62727   7.511   1.188   6.712  1.2008 -2.8627  0.0786
  455MOL0     H62728   7.454   1.249   6.862  1.6447  0.6472  1.4095
  455MOL0     H62729   7.684   1.238   6.908 -2.6637 -0.6541  0.7060
  455MOL0     H62730   7.643   1.070   6.941 -1.0434 -0.4971  0.1087
  455MOL0     H62731   7.730   1.144   6.655  2.3110  1.6256  0.1046
  455MOL0     H62732   7.724   0.982   6.721 -1.2589  0.0891 -0.3369
  455MOL0     H62733   7.908   1.215   6.784 -4.0909  0.6497  0.2056
  455MOL0     H62734   7.907   1.064   6.877 -1.2119  0.9186  0.9758
  455MOL0     H62735   8.000   0.946   6.711 -0.0148  0.3207  0.4729
  455MOL0     H62736   8.086   1.101   6.698  1.5198 -2.5437  1.6621
  455MOL0     H62737   8.041   1.050   6.463  0.1828 -1.2662  1.1105
  455MOL0     H62738   7.874   1.007   6.510 -0.8813  2.5726 -0.6330
  455MOL0     H62739   8.049   1.332   6.610  0.8379  0.4612 -0.2569
  455MOL0     H62740   7.972   1.604   6.333  2.2203 -1.8319 -3.3875
  455MOL0     H62741   8.126   1.543   6.407 -0.9974  1.2686 -0.1883
  455MOL0     H62742   8.035   1.556   6.630  2.4672  0.3668  0.2994
  455MOL0     H62743   8.064   1.706   6.556  1.6205 -1.3000  1.1219
  455MOL0     H62744   7.854   1.731   6.672  0.4521  0.2968 -1.2849
  455MOL0     H62745   7.848   1.780   6.515 -0.4544 -0.9407 -2.1828
  455MOL0     H62746   7.716   1.564   6.453  0.0300  0.7749  0.8518
  455MOL0     H62747   7.767   1.481   6.594  3.3795 -0.6487 -2.1754
  455MOL0     H62748   7.404   1.751   6.641 -0.6227 -0.9937  3.2277
  455MOL0     H62749   7.119   1.755   6.471  0.1020  1.3111  0.2905
  455MOL0     H62750   7.184   1.810   6.633 -1.1991 -0.7408  0.3601
  455MOL0     H62751   7.068   1.673   6.630  0.5099 -1.7990  0.4919
  455MOL0     H62752   6.863   1.300   6.552  0.4016 -1.4889 -0.4492
  455MOL0     H62753   6.647   1.213   6.466 -0.8914 -0.7022 -2.2725
  455MOL0     H62754   6.397   1.480   6.179 -1.6220  0.1822 -0.0635
  455MOL0     H62755   6.527   1.390   6.097  1.0079 -1.0131  0.8764
  455MOL0     H62756   6.302   1.328   6.018 -1.1558  0.4702  1.1945
  455MOL0     H62757   6.375   1.185   6.103 -0.5052 -1.0438  3.0989
  455MOL0     H62758   6.139   1.368   6.214 -0.1132  0.6774  1.8258
  455MOL0     H62759   6.231   1.261   6.308 -0.8846  0.2582  0.6176
  455MOL0     H62760   6.034   1.140   6.267 -0.6200  0.6393 -0.5722
  455MOL0     H62761   6.179   1.064   6.180  1.0485  0.8914  2.7690
  455MOL0     H62762   6.010   1.262   6.040 -2.9052 -0.2233  1.1103
  455MOL0     H62763   6.093   1.125   5.973 -2.7197  0.9419 -1.5882
  455MOL0     H62764   5.923   0.979   6.101 -1.6794 -0.6416 -1.1674
  455MOL0     H62765   5.873   1.052   5.954 -1.7179 -1.7026 -0.0232
  455MOL0     H62766   5.699   1.161   6.087 -2.4865  3.5816  3.5329
  455MOL0     H62767   5.820   1.232   6.184 -0.9862  1.3262 -2.0808
  455MOL0     H62768   5.809   1.039   6.321  3.2362  0.1169 -1.2982
  455MOL0     H62769   5.736   0.945   6.184 -0.7151 -0.3761  1.4644
  455MOL0     H62770   6.620   1.571   6.225 -1.3077  0.1129  1.6225
  455MOL0     H62771   6.839   1.638   6.310  1.2650  0.0006 -0.2690
  455MOL0     H62772   7.341   1.306   6.437 -4.1150  2.5315 -4.6101
  455MOL0     H62773   7.546   1.371   6.475 -0.2267 -0.6754  1.4014
  455MOL0     H62774   6.997   0.865   6.903  0.6285  1.3297  0.9057
  455MOL0     H62775   6.756   0.877   6.828  0.2927 -0.8679 -0.5284
  455MOL0     H62776   6.453   1.022   6.432  1.8591 -0.7914  0.0899
  455MOL0     H62777   6.197   0.953   6.392 -0.3012  2.5062  0.4215
  455MOL0     H62778   6.108   0.740   6.489  1.9027 -1.9206  1.3462
  455MOL0     H62779   6.033   0.706   6.645 -3.6659  0.6408 -0.0576
  455MOL0     H62780   5.860   0.631   6.484  2.7740 -1.2161 -0.4903
  455MOL0     H62781   5.882   0.777   6.382  2.5486  0.6007 -0.0176
  455MOL0     H62782   5.761   0.820   6.663 -0.6642 -0.3216  0.0301
  455MOL0     H62783   5.750   0.909   6.520 -1.5360 -0.2890 -1.2175
  455MOL0     H62784   5.622   0.702   6.414 -0.2589  3.0046  0.0155
  455MOL0     H62785   5.547   0.802   6.536  0.6627  0.3132  2.9367
  455MOL0     H62786   5.581   0.470   6.779 -2.2686 -0.2242 -0.0422
  455MOL0     H62787   6.140   0.908   6.794 -1.9687  1.7741 -2.8697
  455MOL0     H62788   6.419   1.057   6.950  0.0298  0.2188 -0.0775
  455MOL0     H62789   6.324   0.902   6.959  0.3012  0.5569 -0.1432
  455MOL0     H62790   6.498   0.916   6.909  0.3473  0.6017  0.7469
  456MOL0     O62791   8.684   0.740   2.194  0.7857 -0.3156  0.7293
  456MOL0     C62792   8.658   0.809   2.295  0.5169 -0.5075  0.1672
  456MOL0     O62793   8.739   0.895   2.358 -0.1968 -0.1367 -0.2461
  456MOL0     C62794   8.866   0.904   2.300  0.0559 -0.5245 -0.7786
  456MOL0     C62795   8.886   0.961   2.173  0.3318 -0.8931 -1.1002
  456MOL0     C62796   9.017   0.979   2.129  0.0080 -0.2892  0.1854
  456MOL0     C62797   9.129   0.931   2.202 -0.3375 -0.6083  0.6204
  456MOL0     O62798   9.253   0.964   2.152 -1.1215  0.7080  0.0908
  456MOL0     C62799   9.376   0.907   2.206  0.0176 -0.2904 -0.6864
  456MOL0     C62800   9.491   0.979   2.130 -0.1795 -0.3753 -0.4774
  456MOL0     C62801   9.624   0.925   2.167  0.0862  0.6146 -0.3477
  456MOL0     C62802   9.650   0.793   2.100 -0.6984  0.0730  1.2801
  456MOL0     C62803   9.798   0.764   2.119 -0.6578  0.5016  0.4067
  456MOL0     C62804   9.832   0.622   2.084  1.5281 -0.0270 -0.3424
  456MOL0     C62805   9.979   0.580   2.094 -0.4273 -0.4759 -0.1301
  456MOL0     C62806  10.066   0.657   1.992  0.3488 -0.4384  0.6299
  456MOL0     N62807  10.192   0.576   1.967  0.1950  0.7675  0.3531
  456MOL0     C62808  10.236   0.514   1.853 -0.3941 -0.3993  0.7983
  456MOL0     C62809  10.366   0.471   1.876  0.3013 -0.0043 -0.4181
  456MOL0     C62810  10.461   0.422   1.767 -0.2294  0.4493  0.7777
  456MOL0     C62811  10.427   0.275   1.733 -0.5571  0.5915 -0.8212
  456MOL0     C62812  10.525   0.240   1.616 -0.2586  0.0961 -0.4526
  456MOL0     C62813  10.549   0.095   1.593  0.1006  0.3367  0.4711
  456MOL0     O62814  10.450   0.055   1.495 -0.0905 -0.1900  0.1965
  456MOL0     C62815  10.466  -0.063   1.420  0.1775 -0.4643 -0.3579
  456MOL0     C62816  10.584  -0.143   1.411 -0.4750  0.2117 -0.3346
  456MOL0     C62817  10.588  -0.262   1.339 -0.2935  0.4085  1.0994
  456MOL0     C62818  10.709  -0.350   1.344  0.4452 -0.2225 -0.3991
  456MOL0     C62819  10.471  -0.310   1.270 -0.5001 -0.1576 -0.0230
  456MOL0     C62820  10.465  -0.426   1.173  0.2508 -0.1798 -0.6497
  456MOL0     O62821  10.339  -0.486   1.164  0.7749  0.9207  0.1944
  456MOL0     C62822  10.313  -0.574   1.059  0.0869  0.4802 -0.8721
  456MOL0     C62823  10.371  -0.572   0.930 -0.8266  0.7910  1.2723
  456MOL0     C62824  10.343  -0.666   0.836  0.3002  0.0843 -0.1863
  456MOL0     C62825  10.251  -0.765   0.864  0.0581  1.4092  0.5102
  456MOL0     O62826  10.236  -0.861   0.762  0.5204 -0.7579 -0.2334
  456MOL0     C62827  10.113  -0.936   0.747 -0.1708  0.4089  0.5318
  456MOL0     C62828  10.026  -0.876   0.628  0.1503  0.4283 -0.4908
  456MOL0     C62829   9.975  -0.738   0.663 -0.1868  0.5665  0.8789
  456MOL0     C62830   9.869  -0.695   0.563 -0.3006 -0.3249 -0.0294
  456MOL0     C62831   9.818  -0.559   0.594 -0.0628 -0.0009 -0.7344
  456MOL0     C62832   9.925  -0.456   0.537 -0.8169  0.1536  0.9629
  456MOL0     C62833   9.863  -0.319   0.528 -0.6592 -0.4928 -0.2118
  456MOL0     C62834   9.756  -0.297   0.420 -1.0767  0.0235 -0.2687
  456MOL0    Cl62835   9.793  -0.347   0.247 -0.4676  0.2527  0.2769
  456MOL0     C62836  10.197  -0.772   0.986  1.1008  0.0927 -0.5570
  456MOL0     C62837  10.226  -0.680   1.091 -0.2940 -0.9386 -0.2283
  456MOL0     O62838  10.563  -0.448   1.107 -0.1801 -0.4381 -0.7488
  456MOL0     C62839  10.362  -0.220   1.276 -0.3503  0.4100  0.0322
  456MOL0     C62840  10.356  -0.109   1.358 -0.7218 -0.9585 -0.7867
  456MOL0     N62841  10.400   0.518   2.009 -0.4072  0.1825  0.0711
  456MOL0     N62842  10.285   0.549   2.059 -1.2301  0.0457 -0.0614
  456MOL0     C62843   9.102   0.864   2.320 -0.4282 -0.1494  0.2137
  456MOL0     C62844   8.970   0.844   2.373  0.0409 -0.6676  0.4616
  456MOL0     C62845   8.517   0.805   2.340 -0.1107  0.2360  0.3590
  456MOL0     C62846   8.418   0.830   2.245 -0.0472  0.2927 -0.6396
  456MOL0     C62847   8.288   0.829   2.286  0.1826  0.2195  0.1767
  456MOL0     C62848   8.250   0.821   2.418 -0.6351  0.5692 -0.1247
  456MOL0     O62849   8.121   0.821   2.443 -0.0539  0.4936 -0.1873
  456MOL0     C62850   8.076   0.836   2.585  0.4940  0.8772  0.3990
  456MOL0     C62851   7.926   0.882   2.592  0.1757  0.6968  0.7632
  456MOL0     C62852   7.822   0.795   2.520 -0.0175  0.5358 -1.3120
  456MOL0     C62853   7.689   0.843   2.482  0.0448  1.1847  0.5216
  456MOL0     C62854   7.617   0.866   2.599  0.0202 -0.3364 -0.4232
  456MOL0     C62855   7.558   0.886   2.707  0.5903  0.6972  0.3971
  456MOL0     C62856   8.346   0.793   2.512  0.3740 -0.2634 -0.2186
  456MOL0     C62857   8.483   0.783   2.475 -0.4287 -0.1139 -1.0380
  456MOL0     C62858   8.585   0.746   2.590 -0.0636  0.8250  0.9326
  456MOL0     H62859   8.804   1.000   2.113 -1.4881  0.2721  1.9273
  456MOL0     H62860   9.045   1.030   2.038  4.4382 -1.7955  0.4440
  456MOL0     H62861   9.381   0.798   2.200  0.0576 -0.3905  0.8772
  456MOL0     H62862   9.386   0.927   2.313  2.1370 -0.9329 -0.7250
  456MOL0     H62863   9.485   0.965   2.021 -0.0156  1.8960 -0.8398
  456MOL0     H62864   9.491   1.087   2.146  0.9012 -0.1629 -1.7385
  456MOL0     H62865   9.694   1.006   2.141 -1.2677  1.9112 -0.1057
  456MOL0     H62866   9.625   0.913   2.276  0.4293 -0.6946 -0.4803
  456MOL0     H62867   9.583   0.716   2.140  0.9635 -1.2098  1.7397
  456MOL0     H62868   9.629   0.798   1.992 -1.8447 -0.9736  1.4343
  456MOL0     H62869   9.824   0.777   2.225  2.1929 -2.1986  0.1817
  456MOL0     H62870   9.853   0.837   2.060  1.7479  1.8919  3.9892
  456MOL0     H62871   9.775   0.549   2.141  1.9910 -2.2604 -2.5299
  456MOL0     H62872   9.796   0.597   1.984 -0.7360 -1.2654  0.7248
  456MOL0     H62873   9.971   0.476   2.059 -1.5838 -0.4942  0.1403
  456MOL0     H62874  10.001   0.593   2.200 -0.5604 -0.8472 -0.0546
  456MOL0     H62875  10.020   0.668   1.893 -2.9373 -2.5593  1.7407
  456MOL0     H62876  10.100   0.758   2.015  2.2541 -0.8283 -0.2941
  456MOL0     H62877  10.188   0.496   1.757 -2.0105 -2.3487  1.8941
  456MOL0     H62878  10.564   0.435   1.800 -0.2222  1.3229  0.4166
  456MOL0     H62879  10.429   0.487   1.686 -2.9567  0.2307  1.5628
  456MOL0     H62880  10.444   0.217   1.824 -1.8593  2.0787  0.4449
  456MOL0     H62881  10.325   0.263   1.696 -0.7270  1.3768 -0.6418
  456MOL0     H62882  10.493   0.288   1.522 -2.1372  2.6177  1.3353
  456MOL0     H62883  10.624   0.282   1.634 -0.0813  0.0810 -1.3412
  456MOL0     H62884  10.641   0.074   1.538  0.9574 -2.7533  2.8012
  456MOL0     H62885  10.564   0.034   1.682  2.1858  1.8822  1.2713
  456MOL0     H62886  10.679  -0.116   1.458 -0.5706  0.2842 -0.1848
  456MOL0     H62887  10.763  -0.334   1.438  2.4547 -0.7049 -1.3929
  456MOL0     H62888  10.769  -0.332   1.255  0.6819 -0.5227 -0.3036
  456MOL0     H62889  10.693  -0.459   1.344  2.3518 -0.5534  0.4268
  456MOL0     H62890  10.439  -0.495   0.895  0.0618 -1.3014 -2.1036
  456MOL0     H62891  10.386  -0.669   0.737 -1.9443  1.3373 -1.2849
  456MOL0     H62892  10.143  -1.034   0.708  2.8395  2.4199 -2.8190
  456MOL0     H62893  10.062  -0.959   0.841  2.1197  0.4705  1.8601
  456MOL0     H62894  10.077  -0.865   0.532  2.0892 -1.0901  0.2938
  456MOL0     H62895   9.937  -0.939   0.615  1.1433 -1.6392  1.8257
  456MOL0     H62896  10.060  -0.670   0.649  0.4697  0.4320  3.7421
  456MOL0     H62897   9.936  -0.733   0.765 -1.5384  1.3501  0.3582
  456MOL0     H62898   9.781  -0.758   0.577 -0.3189 -0.3591 -0.2828
  456MOL0     H62899   9.891  -0.707   0.457  2.3264 -1.0471  0.5350
  456MOL0     H62900   9.719  -0.537   0.552  0.0740  1.4678 -0.3621
  456MOL0     H62901   9.815  -0.550   0.703  3.7585  0.3682 -0.5006
  456MOL0     H62902   9.947  -0.482   0.433  0.7094  1.3164  0.9661
  456MOL0     H62903  10.017  -0.461   0.596 -2.0883  0.3369  3.0499
  456MOL0     H62904   9.938  -0.242   0.510  0.6127 -1.2223  1.6314
  456MOL0     H62905   9.838  -0.299   0.633 -0.3195  0.1387 -0.2491
  456MOL0     H62906   9.741  -0.189   0.424 -0.6413  0.1006 -0.6971
  456MOL0     H62907   9.659  -0.344   0.439 -1.1850  0.8050  1.2863
  456MOL0     H62908  10.129  -0.854   1.007  1.2309  0.2503  0.5276
  456MOL0     H62909  10.197  -0.689   1.195  0.8086  2.3505  0.5024
  456MOL0     H62910  10.286  -0.240   1.201 -1.0782  3.3615 -0.1077
  456MOL0     H62911  10.265  -0.051   1.352  0.5704  1.5770  1.7701
  456MOL0     H62912   9.187   0.817   2.368 -0.2240 -3.0673 -2.6635
  456MOL0     H62913   8.948   0.784   2.461 -0.5372 -1.0737  0.0501
  456MOL0     H62914   8.455   0.851   2.146  0.4347  5.2880  0.3403
  456MOL0     H62915   8.200   0.826   2.223  0.3876 -1.8763 -0.0550
  456MOL0     H62916   8.064   0.743   2.641  1.6425  2.1802  2.9897
  456MOL0     H62917   8.141   0.899   2.647  0.1061  0.6522  1.0399
  456MOL0     H62918   7.915   0.983   2.553 -0.5556 -0.2726 -1.7566
  456MOL0     H62919   7.888   0.887   2.694 -2.7289  0.8052 -0.2240
  456MOL0     H62920   7.883   0.774   2.431  1.7483  2.3787 -0.6207
  456MOL0     H62921   7.809   0.696   2.564  0.5786  1.0544  0.0989
  456MOL0     H62922   7.638   0.769   2.419 -1.0428  2.1294  0.2663
  456MOL0     H62923   7.702   0.938   2.429  0.8389  0.8191  0.0280
  456MOL0     H62924   7.517   0.884   2.806 -1.3322 -2.3685 -0.3486
  456MOL0     H62925   8.316   0.794   2.616 -0.3208  1.3991 -0.4005
  456MOL0     H62926   8.530   0.679   2.656 -2.6798  1.8458 -0.0641
  456MOL0     H62927   8.677   0.713   2.541 -1.5767  1.0235 -2.3307
  456MOL0     H62928   8.611   0.833   2.650  0.0575  1.4872 -0.0475
  457MOL0     O62929   7.843   0.063   5.576  0.5891 -0.5226  0.0575
  457MOL0     C62930   7.824  -0.057   5.558  0.0687  0.8719  0.5472
  457MOL0     O62931   7.919  -0.146   5.544  0.4382  0.0056  0.6109
  457MOL0     C62932   8.035  -0.105   5.603 -0.9327 -1.1188  0.3617
  457MOL0     C62933   8.038  -0.089   5.738  0.3059 -0.9109  0.5026
  457MOL0     C62934   8.150  -0.038   5.803 -0.4131  0.3390 -0.3280
  457MOL0     C62935   8.268  -0.008   5.735  0.0964 -0.1521  0.2036
  457MOL0     O62936   8.379   0.019   5.817  0.4886  0.7583 -0.3374
  457MOL0     C62937   8.512   0.035   5.765  0.4934 -0.2177  0.3461
  457MOL0     C62938   8.608  -0.010   5.873  0.0883  0.4931  0.3387
  457MOL0     C62939   8.750   0.019   5.828  0.6010  1.5466  0.6965
  457MOL0     C62940   8.774   0.165   5.799 -0.9229  0.5398  0.4278
  457MOL0     C62941   8.899   0.219   5.852 -0.4090 -0.0480 -0.1422
  457MOL0     C62942   8.947   0.335   5.772 -1.7238 -0.9922  0.8735
  457MOL0     C62943   9.080   0.395   5.825  0.0066  0.1392  0.0047
  457MOL0     C62944   9.209   0.323   5.789 -0.0410 -0.4241  0.0516
  457MOL0     N62945   9.328   0.345   5.860  0.2955  0.0454 -1.0060
  457MOL0     C62946   9.332   0.323   5.991 -0.4831 -0.5937 -1.2000
  457MOL0     C62947   9.456   0.361   6.024 -1.0357 -0.6523  0.0727
  457MOL0     C62948   9.517   0.358   6.158  0.6375  0.6947 -0.1814
  457MOL0     C62949   9.560   0.498   6.204 -0.2790  0.1245 -0.3090
  457MOL0     C62950   9.639   0.486   6.334  0.2927  0.3746  0.4416
  457MOL0     C62951   9.773   0.560   6.345 -0.6531  0.5330  0.1055
  457MOL0     O62952   9.844   0.520   6.228  0.0936  1.1135 -0.2314
  457MOL0     C62953   9.979   0.524   6.212 -0.0799 -0.4000 -0.2388
  457MOL0     C62954  10.034   0.494   6.085 -0.8654  0.0070 -0.4888
  457MOL0     C62955  10.173   0.503   6.061 -0.6532  0.1467  0.7586
  457MOL0     C62956  10.210   0.467   5.923  0.3228 -0.3998  0.7448
  457MOL0     C62957  10.260   0.534   6.164  0.7225 -0.1562 -0.4419
  457MOL0     C62958  10.410   0.545   6.142  0.7147  0.2657 -1.5498
  457MOL0     O62959  10.479   0.601   6.247 -0.3610  0.1295  0.3247
  457MOL0     C62960  10.616   0.605   6.244  0.1461  0.9805 -0.3208
  457MOL0     C62961  10.679   0.529   6.344  0.7254 -0.2324  0.0665
  457MOL0     C62962  10.804   0.562   6.381 -0.1377 -1.1300 -0.7042
  457MOL0     C62963  10.875   0.662   6.311  0.1616  0.7766  0.0987
  457MOL0     O62964  10.999   0.684   6.357  0.1969 -0.4276  0.0121
  457MOL0     C62965  11.048   0.823   6.335 -0.0449 -0.1385 -0.0945
  457MOL0     C62966  11.155   0.833   6.437 -0.6929  0.1101  0.8164
  457MOL0     C62967  11.261   0.939   6.383  0.4100  0.3256 -0.3726
  457MOL0     C62968  11.381   0.961   6.477 -0.3502 -0.2418 -0.2956
  457MOL0     C62969  11.479   1.058   6.408 -0.1102 -0.8274 -0.1262
  457MOL0     C62970  11.590   1.088   6.498 -0.7407  0.2288  0.1496
  457MOL0     C62971  11.657   1.220   6.450 -0.5201  0.0224 -0.3432
  457MOL0     C62972  11.786   1.246   6.531  0.5134 -0.5442 -0.8666
  457MOL0    Cl62973  11.915   1.115   6.518  0.5076 -0.3208  0.5457
  457MOL0     C62974  10.823   0.713   6.193 -0.0234  0.3647  0.4248
  457MOL0     C62975  10.692   0.673   6.155 -1.4248 -0.0481 -0.4216
  457MOL0     O62976  10.464   0.493   6.048 -0.0774  0.0516 -0.3971
  457MOL0     C62977  10.206   0.550   6.295  0.1376  0.5522  0.1821
  457MOL0     C62978  10.062   0.558   6.314 -0.0182 -0.5777  0.4412
  457MOL0     N62979   9.529   0.409   5.916  0.1643 -0.2081 -0.5002
  457MOL0     N62980   9.453   0.389   5.810 -0.3213  0.4611 -0.2705
  457MOL0     C62981   8.271  -0.030   5.593  0.4537  1.2240 -0.0972
  457MOL0     C62982   8.152  -0.066   5.531  0.2424  0.1232 -0.0047
  457MOL0     C62983   7.685  -0.097   5.526  0.3616 -0.6741 -0.5574
  457MOL0     C62984   7.653  -0.209   5.453 -0.0177  0.2343  0.0285
  457MOL0     C62985   7.522  -0.240   5.414 -0.4333  0.5169  1.0412
  457MOL0     C62986   7.419  -0.160   5.458 -0.1488  0.2450  0.3573
  457MOL0     O62987   7.288  -0.178   5.420  0.5314 -0.3983 -0.3718
  457MOL0     C62988   7.253  -0.283   5.329  0.3701  0.9056  0.5789
  457MOL0     C62989   7.112  -0.271   5.281  0.4690  0.6411 -0.5351
  457MOL0     C62990   7.011  -0.272   5.405 -0.1243  0.5143  1.7621
  457MOL0     C62991   6.879  -0.337   5.390  0.0613  0.4381  0.0529
  457MOL0     C62992   6.811  -0.291   5.263  0.8139 -0.5149  0.4393
  457MOL0     C62993   6.756  -0.270   5.161  0.3088  0.1531  0.2487
  457MOL0     C62994   7.447  -0.056   5.552 -1.0948  0.0245 -0.8941
  457MOL0     C62995   7.574  -0.024   5.587  0.2206  0.2315  0.3956
  457MOL0     C62996   7.598   0.093   5.682 -0.6106 -0.3859  0.4903
  457MOL0     H62997   7.945  -0.112   5.789 -0.6165  0.5134 -0.4526
  457MOL0     H62998   8.132  -0.034   5.909  2.3267 -0.6965  0.2705
  457MOL0     H62999   8.517   0.141   5.736 -0.8223 -0.3475 -0.4264
  457MOL0     H63000   8.530  -0.017   5.671  1.7794  0.0530  0.4234
  457MOL0     H63001   8.585   0.042   5.967 -3.3999  0.1405 -0.1989
  457MOL0     H63002   8.598  -0.119   5.875  2.4591  0.0182 -3.3658
  457MOL0     H63003   8.811  -0.012   5.914  1.6598 -1.6262 -1.0144
  457MOL0     H63004   8.780  -0.047   5.745 -1.3822  1.3858  0.0646
  457MOL0     H63005   8.766   0.172   5.690  0.0388 -1.5109  0.1880
  457MOL0     H63006   8.696   0.221   5.852 -0.5013 -0.0489  1.7228
  457MOL0     H63007   8.976   0.142   5.863 -2.8816 -2.4010  2.3366
  457MOL0     H63008   8.869   0.256   5.951 -0.0795  1.1044 -0.4520
  457MOL0     H63009   8.989   0.310   5.674  1.6474  0.5812  1.7608
  457MOL0     H63010   8.876   0.416   5.753 -1.5670 -1.3582 -1.7504
  457MOL0     H63011   9.074   0.379   5.933  0.6985 -3.1791 -0.3427
  457MOL0     H63012   9.079   0.502   5.803 -1.0462  0.5092  1.6841
  457MOL0     H63013   9.185   0.216   5.782  1.0459 -0.5754 -2.2382
  457MOL0     H63014   9.219   0.344   5.682  0.1738 -0.3084  0.0940
  457MOL0     H63015   9.266   0.291   6.071  0.2420  0.7372 -0.0223
  457MOL0     H63016   9.602   0.291   6.145 -0.0613 -0.2092 -0.1447
  457MOL0     H63017   9.446   0.313   6.228  0.0798  2.6099  0.5679
  457MOL0     H63018   9.629   0.544   6.133  3.8242 -2.4059  1.6929
  457MOL0     H63019   9.468   0.556   6.218  1.6838  3.1601  1.0933
  457MOL0     H63020   9.571   0.514   6.415 -1.1821 -1.2211 -0.1933
  457MOL0     H63021   9.663   0.381   6.347  1.8432  0.8936  2.2395
  457MOL0     H63022   9.762   0.668   6.343 -0.7584  0.7501  4.0743
  457MOL0     H63023   9.833   0.524   6.429 -1.2681 -1.1745 -0.1373
  457MOL0     H63024   9.965   0.469   6.005 -2.1546 -1.3795  1.0032
  457MOL0     H63025  10.132   0.428   5.857  0.4419 -0.5553  0.6950
  457MOL0     H63026  10.299   0.403   5.914  1.7203  1.6386 -1.0196
  457MOL0     H63027  10.236   0.565   5.884 -3.5990  2.4244  4.3905
  457MOL0     H63028  10.623   0.463   6.410 -0.1378 -0.0568 -0.4743
  457MOL0     H63029  10.863   0.512   6.457  2.1434 -2.1903 -3.0136
  457MOL0     H63030  11.098   0.823   6.238  3.9809 -0.2941  1.7761
  457MOL0     H63031  10.966   0.892   6.356  1.2580  0.8444  2.1577
  457MOL0     H63032  11.111   0.875   6.528 -2.5642 -0.7924  0.3620
  457MOL0     H63033  11.205   0.740   6.462  0.5743  1.3969  3.5031
  457MOL0     H63034  11.202   1.030   6.375 -1.1651 -0.5748  0.4236
  457MOL0     H63035  11.301   0.908   6.286 -1.1711  0.9540 -1.2663
  457MOL0     H63036  11.421   0.861   6.494 -0.6997 -0.1207  1.4084
  457MOL0     H63037  11.343   0.997   6.573  1.8425  0.8413  0.2384
  457MOL0     H63038  11.525   1.025   6.315  2.6470 -0.8052  1.1314
  457MOL0     H63039  11.424   1.149   6.384  1.7359  0.1453 -0.8106
  457MOL0     H63040  11.678   1.022   6.493 -1.2325 -0.3479 -1.3933
  457MOL0     H63041  11.553   1.110   6.598  0.9974  1.2812  0.6157
  457MOL0     H63042  11.579   1.295   6.462 -0.4226  0.2287 -0.9528
  457MOL0     H63043  11.691   1.219   6.346  1.7293 -1.1532  0.3337
  457MOL0     H63044  11.769   1.276   6.635 -3.9786  2.4470 -2.1512
  457MOL0     H63045  11.819   1.338   6.483  2.4224 -0.4941  0.4554
  457MOL0     H63046  10.873   0.782   6.126 -1.5415 -1.3983 -2.7157
  457MOL0     H63047  10.647   0.713   6.065 -1.5953 -0.4561 -0.5204
  457MOL0     H63048  10.280   0.587   6.365  2.4871 -3.5156  0.1829
  457MOL0     H63049  10.027   0.610   6.403 -3.8993 -1.6520 -0.2545
  457MOL0     H63050   8.359  -0.016   5.532  1.0929 -1.8086 -0.0347
  457MOL0     H63051   8.165  -0.069   5.423  1.3120 -1.3817  0.1377
  457MOL0     H63052   7.728  -0.264   5.396  0.0342  0.1174  0.2077
  457MOL0     H63053   7.505  -0.318   5.341 -0.2354 -1.7395  3.2723
  457MOL0     H63054   7.314  -0.274   5.238 -1.6502  0.7635 -0.8639
  457MOL0     H63055   7.282  -0.380   5.369  0.0468  0.2126 -0.7910
  457MOL0     H63056   7.088  -0.343   5.202 -1.3349  2.6684 -1.9580
  457MOL0     H63057   7.100  -0.172   5.236 -0.4143  1.3586  1.1693
  457MOL0     H63058   7.058  -0.322   5.491 -1.7330 -1.4335  1.5867
  457MOL0     H63059   6.996  -0.167   5.428 -0.3387  1.2054 -1.1374
  457MOL0     H63060   6.818  -0.307   5.476  1.7807 -1.0748  1.8962
  457MOL0     H63061   6.886  -0.446   5.387  0.2070  0.3809  1.7034
  457MOL0     H63062   6.703  -0.257   5.068  0.2602  0.4038  0.3106
  457MOL0     H63063   7.360  -0.006   5.593  1.0711  2.4062  1.1471
  457MOL0     H63064   7.505   0.117   5.735 -1.0890  1.0976 -0.9451
  457MOL0     H63065   7.676   0.074   5.756 -0.3925 -1.2954  0.0481
  457MOL0     H63066   7.617   0.181   5.619 -0.5850 -1.1338 -0.5806
  458MOL0     O63067  11.078   9.439   6.775  0.5340 -0.5632 -0.6969
  458MOL0     C63068  11.162   9.407   6.855  0.9672  0.9140  0.0400
  458MOL0     O63069  11.274   9.474   6.895  0.1932 -0.3648 -0.9891
  458MOL0     C63070  11.309   9.592   6.836  0.4297  0.4405  0.3698
  458MOL0     C63071  11.418   9.656   6.908 -0.2811 -0.4376  0.1862
  458MOL0     C63072  11.473   9.779   6.865 -0.2290  0.5151  0.3218
  458MOL0     C63073  11.426   9.831   6.747  0.9619 -1.3359  0.6359
  458MOL0     O63074  11.491   9.940   6.699  0.1595 -0.0661 -0.2068
  458MOL0     C63075  11.403  10.038   6.624 -0.6524  0.2261  0.0840
  458MOL0     C63076  11.484  10.159   6.614  0.6807 -0.8937 -0.4679
  458MOL0     C63077  11.408  10.290   6.585 -0.6452  0.3262 -0.4005
  458MOL0     C63078  11.337  10.342   6.714 -0.0175  0.3585 -0.1429
  458MOL0     C63079  11.247  10.467   6.700 -0.3318 -0.3429  0.5784
  458MOL0     C63080  11.150  10.442   6.585 -0.4462 -0.2533  0.5729
  458MOL0     C63081  11.029  10.526   6.586 -0.0702  0.3308  0.8130
  458MOL0     C63082  10.904  10.453   6.628  0.6347 -0.1510 -1.2324
  458MOL0     N63083  10.776  10.531   6.617  0.2816  0.5596  0.2670
  458MOL0     C63084  10.730  10.587   6.492 -0.7974 -0.2184  0.0920
  458MOL0     C63085  10.620  10.656   6.526  0.3065  0.9317  0.4171
  458MOL0     C63086  10.535  10.735   6.431 -0.7029 -0.0747  0.0932
  458MOL0     C63087  10.387  10.718   6.430 -0.3030 -0.0148  0.4539
  458MOL0     C63088  10.348  10.570   6.413 -0.6862 -0.1549  0.9863
  458MOL0     C63089  10.204  10.556   6.470 -0.0365  0.2165  0.1628
  458MOL0     O63090  10.094  10.623   6.406 -0.0911 -0.3807 -0.0902
  458MOL0     C63091  10.050  10.579   6.281 -0.0447 -0.0048  0.5075
  458MOL0     C63092  10.028  10.682   6.182  0.7933 -0.2982  0.5001
  458MOL0     C63093   9.981  10.658   6.054  0.6216 -0.0686 -0.8667
  458MOL0     C63094   9.949  10.774   5.959 -0.2974  0.7909 -0.2838
  458MOL0     C63095   9.968  10.524   6.021 -0.8013  0.0068 -0.7217
  458MOL0     C63096   9.924  10.463   5.890 -0.4271 -0.2908 -1.0741
  458MOL0     O63097   9.998  10.350   5.853  0.4215  0.6657 -0.1773
  458MOL0     C63098   9.964  10.285   5.738 -0.0320 -0.0417 -0.0345
  458MOL0     C63099  10.058  10.284   5.639 -0.7515 -0.4056 -0.1158
  458MOL0     C63100  10.039  10.207   5.519 -0.1770  0.4338  0.2515
  458MOL0     C63101   9.920  10.133   5.500 -0.8999  0.3889 -0.0347
  458MOL0     O63102   9.888  10.069   5.388 -0.5511 -0.4084 -0.4826
  458MOL0     C63103   9.906   9.928   5.395  0.0087  0.5048 -0.0964
  458MOL0     C63104  10.051   9.873   5.391 -0.0336 -0.0318 -0.3650
  458MOL0     C63105  10.037   9.732   5.344  1.0826 -0.0118 -0.7575
  458MOL0     C63106  10.174   9.665   5.318 -0.2393  0.2452  0.1269
  458MOL0     C63107  10.144   9.514   5.272  0.0634  0.2310 -0.2794
  458MOL0     C63108  10.260   9.411   5.256  0.2342 -0.6026 -0.7738
  458MOL0     C63109  10.359   9.406   5.376 -0.1482  0.3082  0.5475
  458MOL0     C63110  10.484   9.317   5.343 -0.1740  0.5668  0.3032
  458MOL0    Cl63111  10.568   9.380   5.198  0.1971  0.0696  0.0194
  458MOL0     C63112   9.821  10.138   5.604  0.0661 -0.7900 -0.6325
  458MOL0     C63113   9.849  10.216   5.723  0.5966  0.5134  0.2654
  458MOL0     O63114   9.827  10.514   5.831 -0.1122  0.2863  0.4043
  458MOL0     C63115   9.999  10.428   6.118 -0.4850 -0.2348  0.4879
  458MOL0     C63116  10.039  10.446   6.244  0.7051  0.0970 -1.0072
  458MOL0     N63117  10.609  10.666   6.664 -0.1861 -0.0263  0.2605
  458MOL0     N63118  10.702  10.583   6.714 -0.0427 -1.4190  1.0590
  458MOL0     C63119  11.325   9.768   6.675 -0.1489  0.0574  0.1799
  458MOL0     C63120  11.267   9.653   6.721  1.4875  0.3667  0.0978
  458MOL0     C63121  11.155   9.277   6.926  0.3784  0.0098  0.1400
  458MOL0     C63122  11.234   9.250   7.039 -0.9709  0.9185 -0.1791
  458MOL0     C63123  11.226   9.126   7.104  0.4271 -1.4001  0.2176
  458MOL0     C63124  11.127   9.033   7.071 -0.0626 -1.5627  0.8311
  458MOL0     O63125  11.114   8.910   7.132 -0.1691  0.4525  0.1632
  458MOL0     C63126  11.189   8.884   7.256 -0.5540 -1.1303  0.3889
  458MOL0     C63127  11.142   8.754   7.319 -0.3237  0.4594 -0.2889
  458MOL0     C63128  11.194   8.732   7.467  0.5378 -0.5620  1.1949
  458MOL0     C63129  11.117   8.618   7.537 -0.4729  0.3415  0.1361
  458MOL0     C63130  11.185   8.598   7.665 -0.9267 -0.4339 -0.6626
  458MOL0     C63131  11.213   8.603   7.789 -0.4600  0.2379 -0.2417
  458MOL0     C63132  11.035   9.070   6.976 -0.4315  0.2687 -0.2194
  458MOL0     C63133  11.049   9.185   6.894  0.4314 -0.3225 -0.2684
  458MOL0     C63134  10.940   9.214   6.790  0.0366 -0.0457  0.6420
  458MOL0     H63135  11.464   9.607   6.994  0.2010  1.4996  1.0771
  458MOL0     H63136  11.567   9.810   6.911  0.6013 -4.0082  2.1693
  458MOL0     H63137  11.309  10.061   6.676 -0.4462  0.0896  0.5155
  458MOL0     H63138  11.370  10.001   6.526  0.8730  1.0007 -0.7595
  458MOL0     H63139  11.540  10.173   6.707 -1.4998 -1.9647  1.0928
  458MOL0     H63140  11.555  10.143   6.532  0.1514 -3.4098 -0.5298
  458MOL0     H63141  11.467  10.372   6.545 -1.7088  0.5800 -1.5057
  458MOL0     H63142  11.338  10.272   6.503 -0.1020 -0.9133 -0.6037
  458MOL0     H63143  11.276  10.255   6.739  1.2137 -0.8142 -1.0711
  458MOL0     H63144  11.412  10.348   6.794  2.9697  0.4277 -2.7210
  458MOL0     H63145  11.309  10.553   6.674 -2.8508  1.1637 -0.7034
  458MOL0     H63146  11.194  10.484   6.794 -0.1818 -1.8828  0.9800
  458MOL0     H63147  11.202  10.463   6.491 -1.5968 -1.2825 -0.3287
  458MOL0     H63148  11.122  10.337   6.568  0.9967 -0.9179  2.0408
  458MOL0     H63149  11.014  10.563   6.484 -4.9861  0.5469  1.3915
  458MOL0     H63150  11.036  10.608   6.657 -0.3395 -0.9937  2.4299
  458MOL0     H63151  10.902  10.375   6.552  1.8520  0.6458 -2.1208
  458MOL0     H63152  10.916  10.408   6.727  2.7060  1.2520 -0.7771
  458MOL0     H63153  10.791  10.583   6.402  0.1212 -1.7399  0.7391
  458MOL0     H63154  10.571  10.724   6.329 -0.3855  1.6343 -0.0212
  458MOL0     H63155  10.549  10.839   6.463  0.0586  0.1904 -1.0445
  458MOL0     H63156  10.353  10.764   6.524  0.9291  0.8783  0.4916
  458MOL0     H63157  10.347  10.777   6.346 -1.2016  0.2497  1.0465
  458MOL0     H63158  10.362  10.539   6.309 -1.0642  1.4435  0.4337
  458MOL0     H63159  10.407  10.502   6.474  1.8179  0.8861 -0.1513
  458MOL0     H63160  10.183  10.449   6.460 -0.8813 -0.0239  3.3282
  458MOL0     H63161  10.197  10.568   6.578 -1.1303 -1.7731  0.3684
  458MOL0     H63162  10.054  10.785   6.207  1.1619 -0.8159  2.3698
  458MOL0     H63163   9.962  10.871   6.008  0.2850  0.6798 -0.2159
  458MOL0     H63164   9.842  10.772   5.933 -0.2556  3.7734 -1.0059
  458MOL0     H63165   9.997  10.763   5.862  0.3705 -3.9416  0.3112
  458MOL0     H63166  10.154  10.333   5.652 -0.7492  0.2661 -2.2071
  458MOL0     H63167  10.109  10.211   5.437 -1.0179 -2.8740 -0.8116
  458MOL0     H63168   9.873   9.880   5.488  1.0449 -0.6992 -0.3100
  458MOL0     H63169   9.838   9.895   5.316 -1.3694  1.1984  0.7639
  458MOL0     H63170  10.114   9.935   5.326  2.0546  0.1034  1.6686
  458MOL0     H63171  10.100   9.870   5.489  3.0038 -3.4523 -1.7635
  458MOL0     H63172   9.992   9.725   5.244 -1.7405  0.5415  0.3781
  458MOL0     H63173   9.968   9.672   5.403  1.3007  1.0418  0.6188
  458MOL0     H63174  10.234   9.664   5.409  0.2876 -1.3170 -0.1961
  458MOL0     H63175  10.234   9.718   5.242  4.0917 -0.2991  2.8073
  458MOL0     H63176  10.071   9.477   5.345  0.5662  1.8006  1.0699
  458MOL0     H63177  10.096   9.504   5.174 -2.9384  1.8414  0.9227
  458MOL0     H63178  10.312   9.439   5.165 -0.5597  0.3356 -0.9513
  458MOL0     H63179  10.214   9.312   5.244 -2.6358  0.8802 -3.5641
  458MOL0     H63180  10.317   9.371   5.470  1.3155  0.0439  1.1369
  458MOL0     H63181  10.393   9.508   5.394  1.3666 -0.3293  1.5681
  458MOL0     H63182  10.448   9.216   5.320  0.8141  0.8178 -2.7762
  458MOL0     H63183  10.549   9.316   5.431  0.8658  2.4223 -0.3868
  458MOL0     H63184   9.726  10.087   5.589  0.0009 -0.8708  0.0446
  458MOL0     H63185   9.780  10.212   5.806 -0.3619  1.1613 -0.4880
  458MOL0     H63186   9.975  10.325   6.094  1.5979 -0.2881 -1.7599
  458MOL0     H63187  10.056  10.358   6.305 -1.3702  0.5152  0.2651
  458MOL0     H63188  11.279   9.807   6.584 -1.3403 -1.2619  0.1870
  458MOL0     H63189  11.210   9.588   6.655  4.9592 -0.3107 -2.5261
  458MOL0     H63190  11.313   9.321   7.060 -1.3269  1.7601 -1.5519
  458MOL0     H63191  11.297   9.107   7.185 -3.3125 -0.2972  4.1203
  458MOL0     H63192  11.291   8.887   7.218 -2.0123 -1.8484 -4.1543
  458MOL0     H63193  11.175   8.965   7.328 -0.8090  0.3158 -1.2186
  458MOL0     H63194  11.173   8.668   7.259  0.6016 -0.1348  0.9778
  458MOL0     H63195  11.033   8.762   7.321 -0.6450 -2.7168  0.8639
  458MOL0     H63196  11.301   8.706   7.467  0.4677 -0.8560  0.7808
  458MOL0     H63197  11.201   8.823   7.527 -1.1674  0.1873  0.3169
  458MOL0     H63198  11.105   8.527   7.477  0.5101 -0.3234  0.9218
  458MOL0     H63199  11.015   8.657   7.549  0.3014  3.0983 -1.3366
  458MOL0     H63200  11.237   8.609   7.894  0.1639 -2.1635 -0.1721
  458MOL0     H63201  10.952   9.000   6.974 -1.3450  1.2273  1.7184
  458MOL0     H63202  10.992   9.239   6.697 -1.2718  2.8932  0.5979
  458MOL0     H63203  10.870   9.131   6.780  2.2264 -2.3179  2.5559
  458MOL0     H63204  10.880   9.300   6.821  2.6329  2.5831 -1.0405
  459MOL0     O63205   3.244   8.526   0.799 -0.6009 -0.0541 -0.2663
  459MOL0     C63206   3.207   8.414   0.785 -0.1789  0.1098 -0.2641
  459MOL0     O63207   3.220   8.314   0.878  0.2440 -0.1021 -0.2349
  459MOL0     C63208   3.289   8.342   0.990 -0.2046 -0.2625 -0.5311
  459MOL0     C63209   3.421   8.295   0.999 -0.3485 -0.7027 -0.1317
  459MOL0     C63210   3.507   8.314   1.110  0.6160  0.4481 -0.4831
  459MOL0     C63211   3.456   8.382   1.223  1.3684  1.0222  0.0011
  459MOL0     O63212   3.538   8.401   1.322  0.7590  0.8392 -0.5233
  459MOL0     C63213   3.609   8.527   1.311 -0.0591  0.2038  0.2727
  459MOL0     C63214   3.758   8.543   1.358  0.3987 -0.0466 -0.3854
  459MOL0     C63215   3.779   8.494   1.500  0.7827 -0.7194  0.2543
  459MOL0     C63216   3.917   8.512   1.566 -0.0584 -0.2357 -1.0198
  459MOL0     C63217   3.944   8.431   1.697 -0.2684  0.3458 -0.8970
  459MOL0     C63218   4.095   8.435   1.708 -0.9956  0.4397 -0.2260
  459MOL0     C63219   4.158   8.357   1.829  0.6727  0.6544  0.2338
  459MOL0     C63220   4.309   8.384   1.845  0.4851 -1.1379 -0.1672
  459MOL0     N63221   4.388   8.273   1.894 -0.1446  0.0325  0.4052
  459MOL0     C63222   4.453   8.261   2.014 -0.0790  0.0086 -0.1381
  459MOL0     C63223   4.520   8.143   2.011  0.2529 -0.4620 -0.4650
  459MOL0     C63224   4.618   8.089   2.113 -0.4601 -0.7106  0.1754
  459MOL0     C63225   4.765   8.110   2.065 -0.4804 -1.2216 -0.2483
  459MOL0     C63226   4.789   8.250   2.016 -0.8685  0.4676  0.1612
  459MOL0     C63227   4.927   8.306   2.043 -0.0946  0.6106 -0.1127
  459MOL0     O63228   4.944   8.430   1.969 -0.3453  0.4610  0.4400
  459MOL0     C63229   5.077   8.450   1.937 -0.8750  0.1617  0.2853
  459MOL0     C63230   5.182   8.391   2.017  0.0192 -1.3792 -0.1162
  459MOL0     C63231   5.316   8.407   1.965 -0.8150 -0.4700  0.3151
  459MOL0     C63232   5.426   8.345   2.046 -0.5903  0.0432  0.0770
  459MOL0     C63233   5.344   8.472   1.839  0.3367  0.0357  0.4560
  459MOL0     C63234   5.465   8.481   1.763  0.1969  0.3617 -0.6421
  459MOL0     O63235   5.477   8.548   1.643 -0.3084  0.3913 -0.1233
  459MOL0     C63236   5.595   8.550   1.580 -0.4351  0.3534 -0.4733
  459MOL0     C63237   5.673   8.660   1.551 -0.0361 -0.7114  0.4618
  459MOL0     C63238   5.781   8.660   1.467  0.2604  0.6006  0.0370
  459MOL0     C63239   5.832   8.540   1.410  0.1658 -0.3844 -0.1255
  459MOL0     O63240   5.947   8.556   1.341 -0.7726 -0.3853  0.1444
  459MOL0     C63241   6.036   8.440   1.343  0.4479  0.0383  0.3525
  459MOL0     C63242   6.174   8.471   1.284  0.3919 -0.0335 -0.3885
  459MOL0     C63243   6.230   8.600   1.300 -0.3592 -0.3273 -0.0058
  459MOL0     C63244   6.367   8.610   1.217  0.3585  0.3229 -0.2136
  459MOL0     C63245   6.433   8.748   1.225  0.1886  0.9967  0.4110
  459MOL0     C63246   6.343   8.858   1.162  1.2141  0.4377 -0.4345
  459MOL0     C63247   6.411   8.991   1.163 -0.2160 -0.4862 -0.6866
  459MOL0     C63248   6.336   9.097   1.079  0.9205 -0.5907 -0.0464
  459MOL0    Cl63249   6.167   9.126   1.140  0.2782 -0.1983 -0.3043
  459MOL0     C63250   5.743   8.426   1.434  0.1179  0.4654 -0.0416
  459MOL0     C63251   5.633   8.431   1.516  0.7462  0.0146  0.6445
  459MOL0     O63252   5.564   8.422   1.819 -0.1562 -0.9337  0.4412
  459MOL0     C63253   5.238   8.528   1.770  1.3989 -1.5426  0.1071
  459MOL0     C63254   5.107   8.511   1.820  0.3238 -0.0379 -0.2267
  459MOL0     N63255   4.478   8.075   1.893 -0.0564 -0.4271  0.0186
  459MOL0     N63256   4.401   8.150   1.823  0.2592 -0.6814  0.9134
  459MOL0     C63257   3.329   8.441   1.218  0.7205  0.2002 -0.3249
  459MOL0     C63258   3.248   8.413   1.109  0.4807  0.5856 -0.4480
  459MOL0     C63259   3.164   8.381   0.649 -0.0920  0.4326 -0.1086
  459MOL0     C63260   3.093   8.474   0.574 -0.5140  0.6820 -0.4519
  459MOL0     C63261   3.045   8.444   0.446  1.0917  0.6123 -0.2898
  459MOL0     C63262   3.055   8.317   0.392 -0.6684 -0.7238 -0.5695
  459MOL0     O63263   3.026   8.293   0.261  0.6203 -0.1682  0.2104
  459MOL0     C63264   3.111   8.359   0.159  0.4775 -0.3087 -0.1076
  459MOL0     C63265   3.258   8.353   0.202  0.0651  0.1623  0.7100
  459MOL0     C63266   3.368   8.313   0.101 -0.3659 -0.1310 -0.0127
  459MOL0     C63267   3.425   8.409   0.001  0.0171  0.6421  0.0461
  459MOL0     C63268   3.511   8.510   0.066 -0.2925 -0.5402 -0.2339
  459MOL0     C63269   3.587   8.598   0.099  0.7878 -0.5364 -0.3995
  459MOL0     C63270   3.118   8.220   0.469 -0.4508 -0.0540  0.0422
  459MOL0     C63271   3.169   8.248   0.596 -0.0912  0.7742 -0.2583
  459MOL0     C63272   3.239   8.126   0.666  0.0425 -0.5064  0.2501
  459MOL0     H63273   3.444   8.231   0.914  0.5251 -1.5443  0.7115
  459MOL0     H63274   3.608   8.275   1.103 -0.1989 -1.7646 -0.9562
  459MOL0     H63275   3.554   8.608   1.359 -0.7442  0.2498 -0.5561
  459MOL0     H63276   3.613   8.556   1.205 -2.3800  1.3993  0.4514
  459MOL0     H63277   3.834   8.499   1.293  4.4467  3.2398  1.6876
  459MOL0     H63278   3.782   8.648   1.344  1.4724 -0.3097 -0.5522
  459MOL0     H63279   3.706   8.539   1.567  0.3005 -1.0207 -0.0565
  459MOL0     H63280   3.757   8.387   1.498 -2.0907 -0.2181 -1.8996
  459MOL0     H63281   3.973   8.458   1.489 -1.3768 -2.0455 -0.7762
  459MOL0     H63282   3.946   8.617   1.575  1.6496 -0.7634  0.3470
  459MOL0     H63283   3.910   8.327   1.694 -1.9291  0.8873 -1.6689
  459MOL0     H63284   3.899   8.473   1.787  5.2330  1.0714  1.9082
  459MOL0     H63285   4.134   8.393   1.616 -0.5782 -1.1340  0.6319
  459MOL0     H63286   4.125   8.540   1.712  1.4811 -0.2372  1.1080
  459MOL0     H63287   4.158   8.249   1.811  4.0893  0.0995  2.6283
  459MOL0     H63288   4.102   8.372   1.923 -1.0194  2.3431 -0.9729
  459MOL0     H63289   4.353   8.425   1.753 -1.6921  1.3095 -0.2306
  459MOL0     H63290   4.308   8.463   1.920 -2.6455 -0.7753 -0.4570
  459MOL0     H63291   4.466   8.344   2.084 -0.4233  0.1694 -0.2619
  459MOL0     H63292   4.609   7.981   2.130  1.9234 -1.2037 -1.3156
  459MOL0     H63293   4.604   8.156   2.199 -0.1597  0.4718 -0.6745
  459MOL0     H63294   4.831   8.099   2.152 -1.5256  2.6504  1.2419
  459MOL0     H63295   4.783   8.044   1.980 -1.8262 -0.9086 -0.8053
  459MOL0     H63296   4.769   8.241   1.909  3.6617 -2.0986 -0.7461
  459MOL0     H63297   4.721   8.321   2.064 -0.9658 -0.3035  1.2010
  459MOL0     H63298   4.928   8.317   2.152  0.7887  0.3605 -0.0928
  459MOL0     H63299   5.001   8.230   2.016 -1.1115 -0.6866  0.5838
  459MOL0     H63300   5.160   8.347   2.114 -2.3405  0.4881  0.2813
  459MOL0     H63301   5.401   8.317   2.149  0.7486 -2.1256 -0.1227
  459MOL0     H63302   5.511   8.412   2.049 -1.6219  1.3639  0.7056
  459MOL0     H63303   5.450   8.253   1.992  0.7794  0.2107  0.3785
  459MOL0     H63304   5.629   8.756   1.576 -2.5513 -1.5050 -0.5458
  459MOL0     H63305   5.842   8.749   1.456 -0.1606  0.6774 -2.2226
  459MOL0     H63306   6.052   8.406   1.445 -2.0026  0.9687  1.1129
  459MOL0     H63307   5.994   8.360   1.281  0.5236  1.8671 -2.2435
  459MOL0     H63308   6.248   8.404   1.327  1.7461  0.1654 -2.2588
  459MOL0     H63309   6.171   8.452   1.176  2.1590  1.7048 -0.7950
  459MOL0     H63310   6.248   8.613   1.407 -1.4389  0.0870  0.1383
  459MOL0     H63311   6.152   8.667   1.263 -0.7738 -1.3348 -1.0088
  459MOL0     H63312   6.355   8.578   1.114  0.8422 -2.0307  0.4144
  459MOL0     H63313   6.431   8.530   1.254 -1.2062 -2.2110 -2.6578
  459MOL0     H63314   6.461   8.775   1.327 -1.3456 -0.7879  1.3639
  459MOL0     H63315   6.517   8.744   1.155 -1.1176  0.5391 -1.2147
  459MOL0     H63316   6.243   8.858   1.205  1.2017 -0.1263 -0.4636
  459MOL0     H63317   6.322   8.820   1.061 -1.0778  0.5509 -0.0447
  459MOL0     H63318   6.513   8.970   1.128  1.4205 -2.7099  4.4619
  459MOL0     H63319   6.417   9.019   1.268  2.7891 -1.3691 -0.5446
  459MOL0     H63320   6.337   9.080   0.971  4.6408  0.2991 -0.3065
  459MOL0     H63321   6.392   9.188   1.107  0.1945 -0.1865  0.1203
  459MOL0     H63322   5.778   8.329   1.399  0.0417 -1.4790  4.5554
  459MOL0     H63323   5.573   8.344   1.540 -0.0460 -0.3351 -2.1778
  459MOL0     H63324   5.240   8.589   1.681  0.8596 -0.4237  0.8422
  459MOL0     H63325   5.017   8.525   1.760 -0.8261 -1.9738  0.9452
  459MOL0     H63326   3.304   8.511   1.297  1.8639 -1.4720  1.6325
  459MOL0     H63327   3.150   8.460   1.100 -0.2754 -0.8285  0.1137
  459MOL0     H63328   3.071   8.574   0.612  2.3970  0.9239  0.8805
  459MOL0     H63329   2.986   8.508   0.381  0.1206 -0.5144 -0.5549
  459MOL0     H63330   3.108   8.299   0.068 -1.8509 -1.4366  0.6198
  459MOL0     H63331   3.080   8.463   0.149  0.4941  0.0294  2.5394
  459MOL0     H63332   3.281   8.280   0.281 -0.7870  1.2249  1.9750
  459MOL0     H63333   3.295   8.452   0.230  2.4794 -0.0167 -1.4732
  459MOL0     H63334   3.455   8.267   0.150 -0.3149 -0.3107 -0.2676
  459MOL0     H63335   3.332   8.228   0.042 -0.7810  0.1697 -0.1927
  459MOL0     H63336   3.339   8.444  -0.058  1.1451 -1.7132 -3.2991
  459MOL0     H63337   3.495   8.357  -0.066 -1.3895  1.2745 -2.0281
  459MOL0     H63338   3.656   8.680   0.109 -0.3526  0.2705  1.3888
  459MOL0     H63339   3.114   8.118   0.431 -1.2309 -0.8698  2.1465
  459MOL0     H63340   3.345   8.148   0.677  0.9425 -2.3807 -3.2378
  459MOL0     H63341   3.185   8.114   0.761  0.6715 -0.0681  0.6694
  459MOL0     H63342   3.242   8.031   0.612 -0.4835 -0.5332  0.2608
  460MOL0     O63343   5.506   8.616   8.759 -0.9041 -0.2873 -0.8036
  460MOL0     C63344   5.568   8.640   8.867  0.5819 -0.5867  0.5684
  460MOL0     O63345   5.705   8.654   8.874 -0.1665 -0.3291  0.0386
  460MOL0     C63346   5.787   8.600   8.773 -0.0377 -0.4295  1.1329
  460MOL0     C63347   5.832   8.462   8.768  0.0172 -0.4843 -0.2760
  460MOL0     C63348   5.908   8.411   8.665 -0.1901 -0.0663 -0.8484
  460MOL0     C63349   5.939   8.497   8.558  0.6718  1.1612 -0.2708
  460MOL0     O63350   5.998   8.428   8.457  0.4523  0.5648  0.3558
  460MOL0     C63351   6.075   8.502   8.361 -0.6115 -0.0563 -0.2257
  460MOL0     C63352   6.196   8.582   8.415 -0.9410  0.4090  0.6338
  460MOL0     C63353   6.280   8.495   8.513  1.3690 -0.4775  0.7130
  460MOL0     C63354   6.413   8.442   8.446 -0.2680 -0.4705  0.6370
  460MOL0     C63355   6.486   8.351   8.547 -0.7432  0.2480  0.0721
  460MOL0     C63356   6.610   8.289   8.478 -0.0706  0.5266 -0.4851
  460MOL0     C63357   6.668   8.172   8.577  0.2707  0.1397  1.4409
  460MOL0     C63358   6.760   8.246   8.662 -0.2603  0.3499  0.0640
  460MOL0     N63359   6.813   8.157   8.766  0.7038  0.2968 -0.7581
  460MOL0     C63360   6.941   8.139   8.792  0.2985 -0.5698  0.1068
  460MOL0     C63361   6.942   8.053   8.898  0.0659  0.2635  0.4279
  460MOL0     C63362   7.048   8.029   8.999 -0.5933  1.2078  0.2491
  460MOL0     C63363   7.163   7.952   8.926 -0.5331 -0.2179 -0.0228
  460MOL0     C63364   7.151   7.798   8.935  0.2277 -0.3247  0.4097
  460MOL0     C63365   7.190   7.738   8.807 -0.5839  0.4591  0.0917
  460MOL0     O63366   7.323   7.771   8.793 -0.7363 -0.2515  0.6928
  460MOL0     C63367   7.389   7.765   8.674 -0.1765  0.0659  0.0933
  460MOL0     C63368   7.338   7.727   8.547 -0.0113 -0.6758 -0.1115
  460MOL0     C63369   7.420   7.725   8.434 -0.7747  0.2068 -0.6177
  460MOL0     C63370   7.360   7.701   8.296 -0.0662 -0.2854  0.0712
  460MOL0     C63371   7.563   7.743   8.449  0.1077  0.2474 -0.7789
  460MOL0     C63372   7.665   7.720   8.344 -0.1444  0.2701  0.2494
  460MOL0     O63373   7.630   7.741   8.212  1.1690 -0.3074 -0.1694
  460MOL0     C63374   7.736   7.724   8.120  0.4921  0.4124  0.0614
  460MOL0     C63375   7.740   7.630   8.029 -0.1373  0.6134 -0.2574
  460MOL0     C63376   7.837   7.616   7.930 -0.4040 -0.3107 -0.2791
  460MOL0     C63377   7.949   7.707   7.925 -1.1044 -0.0664  0.2142
  460MOL0     O63378   8.047   7.701   7.826 -0.1482  0.0917 -0.3226
  460MOL0     C63379   8.032   7.615   7.716 -0.1062 -0.6651  0.3643
  460MOL0     C63380   8.099   7.485   7.747 -0.9736 -0.0359  0.6871
  460MOL0     C63381   8.255   7.486   7.748  0.3257  0.2358  0.0603
  460MOL0     C63382   8.322   7.500   7.603 -0.0182  0.0373 -0.7261
  460MOL0     C63383   8.477   7.506   7.604  0.4853  0.5213 -0.0807
  460MOL0     C63384   8.541   7.587   7.706  0.2741  0.7100 -0.1076
  460MOL0     C63385   8.691   7.552   7.711  0.2029  0.4473 -0.2567
  460MOL0     C63386   8.788   7.668   7.759 -0.5595 -0.3495 -0.1140
  460MOL0    Cl63387   8.939   7.580   7.826  0.5420  0.0905 -0.0076
  460MOL0     C63388   7.953   7.798   8.032  0.3956  0.6050  0.2032
  460MOL0     C63389   7.859   7.803   8.130  0.4351  0.4395 -0.3357
  460MOL0     O63390   7.778   7.689   8.374 -0.3578  0.1471  0.2592
  460MOL0     C63391   7.612   7.776   8.578 -0.8346 -0.0261  0.0249
  460MOL0     C63392   7.526   7.784   8.688  0.6255  0.5783  0.0273
  460MOL0     N63393   6.813   8.014   8.922 -0.3544  0.3622  0.3403
  460MOL0     N63394   6.739   8.071   8.841  0.8289  0.1521 -0.1151
  460MOL0     C63395   5.878   8.623   8.550 -0.4916  0.8696  0.3224
  460MOL0     C63396   5.804   8.675   8.654  0.3855  0.2192 -0.0325
  460MOL0     C63397   5.482   8.681   8.982 -0.7086  0.6504 -0.0157
  460MOL0     C63398   5.544   8.748   9.089  0.0438  0.4056  0.1492
  460MOL0     C63399   5.488   8.779   9.208  0.3230 -0.6558 -0.4376
  460MOL0     C63400   5.354   8.754   9.222 -0.8396  0.5258 -0.1391
  460MOL0     O63401   5.296   8.785   9.345 -0.4024 -0.8081 -0.6560
  460MOL0     C63402   5.159   8.755   9.358  0.0258  0.6794 -0.5547
  460MOL0     C63403   5.101   8.810   9.486  0.5975 -0.4705 -0.5415
  460MOL0     C63404   4.962   8.750   9.523  0.3727 -0.5969 -0.1605
  460MOL0     C63405   4.878   8.706   9.395 -1.0229 -0.1547  0.6895
  460MOL0     C63406   4.739   8.695   9.437 -1.0991 -0.1314  0.7052
  460MOL0     C63407   4.621   8.685   9.462 -0.0959  0.2743 -0.5144
  460MOL0     C63408   5.284   8.684   9.120  0.4640 -0.3218  0.2004
  460MOL0     C63409   5.345   8.651   9.000  0.6429 -0.2017 -0.1406
  460MOL0     C63410   5.272   8.560   8.904 -0.1625  0.7311 -0.0673
  460MOL0     H63411   5.794   8.402   8.850  0.5203  1.5125  1.5094
  460MOL0     H63412   5.934   8.307   8.678  2.5553  0.5166 -1.0508
  460MOL0     H63413   6.012   8.563   8.296 -1.5092 -0.4343  0.2780
  460MOL0     H63414   6.117   8.426   8.293  0.8752  0.7243 -0.2189
  460MOL0     H63415   6.262   8.610   8.332 -2.0373 -0.4460 -0.5691
  460MOL0     H63416   6.158   8.663   8.477  2.1147 -0.0415  3.3628
  460MOL0     H63417   6.302   8.558   8.599 -2.2122 -0.8291  2.0835
  460MOL0     H63418   6.224   8.407   8.548 -0.7698 -0.3880 -2.0780
  460MOL0     H63419   6.385   8.396   8.351 -1.3164 -0.6597  1.0326
  460MOL0     H63420   6.474   8.529   8.420 -2.6063  1.2299  0.5150
  460MOL0     H63421   6.412   8.275   8.573  1.0596 -2.5479 -2.3207
  460MOL0     H63422   6.522   8.408   8.633 -0.3931  0.7932 -0.4254
  460MOL0     H63423   6.597   8.245   8.378  1.0123 -0.9870 -0.0011
  460MOL0     H63424   6.684   8.368   8.459  3.9236 -2.7543 -0.0166
  460MOL0     H63425   6.720   8.101   8.512  1.9078  0.0201  2.8215
  460MOL0     H63426   6.594   8.118   8.636  1.6381 -1.1767  2.0041
  460MOL0     H63427   6.847   8.277   8.605  1.1665 -0.5281  1.6768
  460MOL0     H63428   6.704   8.333   8.699 -0.0910  1.3849 -2.0025
  460MOL0     H63429   7.031   8.195   8.766  0.3148 -0.7343 -0.2109
  460MOL0     H63430   7.002   7.972   9.080  0.8602  1.9117  1.6257
  460MOL0     H63431   7.087   8.120   9.044 -0.4619  0.2638  2.1180
  460MOL0     H63432   7.165   7.984   8.822 -2.5438 -0.8468 -0.3020
  460MOL0     H63433   7.257   7.988   8.969  0.4500 -1.8149 -0.7187
  460MOL0     H63434   7.217   7.748   9.006  1.4349  0.9016  0.1945
  460MOL0     H63435   7.049   7.769   8.961  0.0223 -0.9056 -0.9894
  460MOL0     H63436   7.170   7.630   8.810 -0.0242  0.2501 -2.0846
  460MOL0     H63437   7.133   7.773   8.721  3.2333  1.1860 -2.3679
  460MOL0     H63438   7.229   7.722   8.540 -0.1884  0.4112  1.3376
  460MOL0     H63439   7.369   7.780   8.221 -0.9405 -0.7250 -0.5178
  460MOL0     H63440   7.258   7.665   8.310  1.1443 -4.3282 -0.1359
  460MOL0     H63441   7.407   7.614   8.249 -0.7263 -0.8761  0.4874
  460MOL0     H63442   7.650   7.569   8.023 -0.9388  1.8552 -1.2243
  460MOL0     H63443   7.815   7.546   7.851  1.4299 -2.8974  1.3441
  460MOL0     H63444   7.933   7.585   7.679  1.2257 -4.0567 -0.8556
  460MOL0     H63445   8.077   7.660   7.627 -1.0105 -0.4124  0.0232
  460MOL0     H63446   8.064   7.451   7.845  1.0657 -2.0034  0.8066
  460MOL0     H63447   8.059   7.414   7.674  0.0759 -2.7979  2.6088
  460MOL0     H63448   8.289   7.390   7.789  2.6069  1.1819  0.5160
  460MOL0     H63449   8.288   7.566   7.815  0.9122  2.2799 -2.5132
  460MOL0     H63450   8.290   7.598   7.566 -0.2873  1.2405  2.3922
  460MOL0     H63451   8.289   7.419   7.538 -0.5673 -0.5526  0.2697
  460MOL0     H63452   8.523   7.407   7.591  1.3146  1.0293 -1.2094
  460MOL0     H63453   8.489   7.558   7.508 -0.9547  1.7040  0.3458
  460MOL0     H63454   8.495   7.551   7.798  0.1711 -1.1264 -0.8308
  460MOL0     H63455   8.525   7.694   7.686 -2.2265  0.4678  0.2368
  460MOL0     H63456   8.725   7.506   7.618  0.0860 -2.2193  0.9337
  460MOL0     H63457   8.696   7.477   7.790 -0.4725  0.6408 -0.0217
  460MOL0     H63458   8.736   7.726   7.835 -0.6169 -2.4440  1.5702
  460MOL0     H63459   8.816   7.743   7.685  2.1948  0.9762  2.0810
  460MOL0     H63460   8.034   7.870   8.033  1.8041 -0.9178  1.5043
  460MOL0     H63461   7.857   7.878   8.208 -0.4494 -1.8057  1.9647
  460MOL0     H63462   7.718   7.785   8.596 -0.3430 -2.9417 -0.9178
  460MOL0     H63463   7.570   7.814   8.783 -1.7911  3.9353  0.2712
  460MOL0     H63464   5.894   8.681   8.460 -0.7188  0.5707  0.0877
  460MOL0     H63465   5.776   8.780   8.650  0.5286  0.2186 -2.5396
  460MOL0     H63466   5.648   8.772   9.071  0.3172 -1.3234 -0.6888
  460MOL0     H63467   5.546   8.828   9.285 -1.0535 -0.3914  0.4687
  460MOL0     H63468   5.100   8.803   9.279 -1.7941 -1.3205 -0.4720
  460MOL0     H63469   5.158   8.646   9.360  0.0352  0.6897  0.1033
  460MOL0     H63470   5.098   8.918   9.474 -2.0902 -0.3310  0.5300
  460MOL0     H63471   5.160   8.799   9.577 -0.5362  2.5846  0.6937
  460MOL0     H63472   4.969   8.662   9.589  0.0620 -0.5500 -0.0668
  460MOL0     H63473   4.903   8.820   9.582 -0.8110  0.7403 -2.7928
  460MOL0     H63474   4.908   8.608   9.356 -3.9574 -0.1944 -1.7800
  460MOL0     H63475   4.885   8.781   9.316 -2.1167  0.1014  0.8286
  460MOL0     H63476   4.520   8.664   9.490 -0.2228  0.2537 -0.9852
  460MOL0     H63477   5.179   8.662   9.130 -0.1502  1.3215 -2.0541
  460MOL0     H63478   5.230   8.622   8.824 -0.8950  1.3693  0.7959
  460MOL0     H63479   5.328   8.469   8.880 -0.0171  0.1408  2.3027
  460MOL0     H63480   5.191   8.521   8.967 -0.3996  2.0955  0.4973
  461MOL0     O63481   0.249   0.492   4.676 -0.0673  0.4139 -0.4952
  461MOL0     C63482   0.227   0.377   4.648 -0.0479  0.4629 -0.1846
  461MOL0     O63483   0.318   0.282   4.610 -0.1042  0.0396  0.4119
  461MOL0     C63484   0.435   0.322   4.544 -0.5836 -0.6513 -0.1754
  461MOL0     C63485   0.522   0.404   4.619  0.4988  0.8044  0.4096
  461MOL0     C63486   0.651   0.427   4.566 -0.4488  0.2582  0.5631
  461MOL0     C63487   0.686   0.372   4.446 -0.7389 -0.1359  0.2651
  461MOL0     O63488   0.816   0.405   4.403  0.2772  0.0708 -0.2247
  461MOL0     C63489   0.872   0.336   4.287 -0.0447  0.0800  0.3819
  461MOL0     C63490   1.019   0.353   4.289  0.7016  0.3938  0.5489
  461MOL0     C63491   1.098   0.262   4.186  0.7945 -0.9598  0.3435
  461MOL0     C63492   1.243   0.255   4.215 -0.1574  0.2036 -0.5954
  461MOL0     C63493   1.322   0.167   4.117  0.1751 -0.7186  0.0969
  461MOL0     C63494   1.470   0.172   4.158  1.0703 -0.5157 -0.1693
  461MOL0     C63495   1.545   0.292   4.102 -0.3773 -0.4289 -0.3948
  461MOL0     C63496   1.692   0.284   4.142 -0.2558  0.1229  0.3585
  461MOL0     N63497   1.774   0.404   4.111 -0.8044 -0.2738 -0.0411
  461MOL0     C63498   1.899   0.398   4.058  0.8597  0.1449  0.2871
  461MOL0     C63499   1.938   0.518   4.053  0.0337 -0.9429 -0.3127
  461MOL0     C63500   2.060   0.570   3.986  0.2259  0.2641  0.7016
  461MOL0     C63501   2.126   0.474   3.875 -0.1425  0.5369 -0.8723
  461MOL0     C63502   2.234   0.541   3.790 -0.1011  0.3921 -0.0779
  461MOL0     C63503   2.315   0.450   3.698 -0.5346  0.2689 -0.0709
  461MOL0     O63504   2.387   0.354   3.773 -0.4299  0.2746 -0.4592
  461MOL0     C63505   2.515   0.348   3.778 -0.3025 -0.4926 -0.1902
  461MOL0     C63506   2.567   0.232   3.829  0.8166  0.3918  0.6813
  461MOL0     C63507   2.702   0.203   3.838 -0.4161  0.3817 -0.1498
  461MOL0     C63508   2.738   0.065   3.879 -0.7891 -0.4040  0.1799
  461MOL0     C63509   2.792   0.309   3.807  0.5417 -0.6424 -0.2979
  461MOL0     C63510   2.941   0.288   3.795 -0.6104  0.5684 -0.1247
  461MOL0     O63511   3.042   0.380   3.828 -0.1602  0.9939 -0.0224
  461MOL0     C63512   3.171   0.342   3.803 -0.1068 -0.1038 -0.3683
  461MOL0     C63513   3.240   0.380   3.685 -0.2978 -0.3448 -0.1585
  461MOL0     C63514   3.371   0.357   3.662 -1.1339 -0.3136  0.1890
  461MOL0     C63515   3.447   0.287   3.743 -1.2795  0.2011 -0.4099
  461MOL0     O63516   3.584   0.280   3.711 -0.2225 -0.1594  0.2038
  461MOL0     C63517   3.683   0.246   3.811 -0.2629 -0.5941 -0.8205
  461MOL0     C63518   3.712   0.357   3.919  0.0087 -0.0380  0.0363
  461MOL0     C63519   3.807   0.465   3.861 -0.1708 -0.3269  0.5114
  461MOL0     C63520   3.836   0.579   3.963 -0.2014  0.2167 -0.8003
  461MOL0     C63521   3.951   0.539   4.048  0.1664  0.8224  0.6304
  461MOL0     C63522   3.988   0.653   4.152  0.1502  0.9452 -0.5595
  461MOL0     C63523   4.039   0.608   4.285  1.2321  0.6307  0.1180
  461MOL0     C63524   4.172   0.673   4.311  0.0338 -0.1382 -0.9131
  461MOL0    Cl63525   4.289   0.629   4.174 -0.0948  0.4190 -0.3781
  461MOL0     C63526   3.387   0.240   3.861  0.5131 -0.1511 -0.2981
  461MOL0     C63527   3.254   0.270   3.894  0.0574  0.1785  0.2337
  461MOL0     O63528   2.961   0.176   3.742 -0.0042  0.2780 -0.3243
  461MOL0     C63529   2.736   0.438   3.782 -0.7279 -0.6508  0.0642
  461MOL0     C63530   2.602   0.458   3.772 -0.5910  0.0866  0.1979
  461MOL0     N63531   1.839   0.609   4.098  0.8009  0.4183  0.2009
  461MOL0     N63532   1.742   0.534   4.121  0.3789 -0.0071 -0.1497
  461MOL0     C63533   0.596   0.293   4.369  0.1812 -0.0752 -0.8961
  461MOL0     C63534   0.468   0.270   4.417 -0.5505 -0.5968 -0.1792
  461MOL0     C63535   0.101   0.314   4.689  0.6581 -0.1383  0.1512
  461MOL0     C63536   0.106   0.183   4.728 -0.3797  0.5277 -0.3333
  461MOL0     C63537  -0.006   0.108   4.756 -0.0357 -0.6197 -1.4342
  461MOL0     C63538  -0.131   0.170   4.749  0.0790  0.7237 -0.2610
  461MOL0     O63539  -0.231   0.087   4.793 -0.1048  0.0283  0.1195
  461MOL0     C63540  -0.362   0.153   4.813 -0.3629 -0.0614  1.4756
  461MOL0     C63541  -0.472   0.070   4.860  0.2591  0.4885 -0.3105
  461MOL0     C63542  -0.479   0.058   5.013 -0.0609 -0.2329  0.1605
  461MOL0     C63543  -0.567  -0.061   5.047 -0.2447  0.3926 -0.7884
  461MOL0     C63544  -0.707  -0.074   4.998 -1.0749  0.1657 -1.0970
  461MOL0     C63545  -0.821  -0.093   4.955  0.5951  0.2918  0.3340
  461MOL0     C63546  -0.140   0.306   4.723  0.3851  0.5881  0.2343
  461MOL0     C63547  -0.024   0.381   4.691 -0.4199  0.6960 -0.6695
  461MOL0     C63548  -0.049   0.520   4.646  0.5345  0.9426  0.3112
  461MOL0     H63549   0.484   0.443   4.713  0.9696 -1.8307  1.8043
  461MOL0     H63550   0.733   0.475   4.618  0.3918  1.4388 -1.7164
  461MOL0     H63551   0.849   0.384   4.191  1.5145  1.4862  0.6486
  461MOL0     H63552   0.844   0.231   4.296  2.9208 -0.8376 -0.1890
  461MOL0     H63553   1.052   0.454   4.265  3.2054 -0.4956 -0.0205
  461MOL0     H63554   1.036   0.339   4.396 -2.6264 -1.2043  1.0275
  461MOL0     H63555   1.047   0.165   4.185  0.4809 -0.8227  1.5465
  461MOL0     H63556   1.083   0.307   4.088 -0.3915 -0.2917  0.8139
  461MOL0     H63557   1.284   0.356   4.203 -2.0385  0.8928 -1.6407
  461MOL0     H63558   1.245   0.222   4.320  0.6115  0.4934 -0.5087
  461MOL0     H63559   1.307   0.200   4.014  1.1568 -0.0269  0.1670
  461MOL0     H63560   1.273   0.069   4.114 -0.7606 -0.2446 -0.9212
  461MOL0     H63561   1.472   0.180   4.267 -2.5709  0.8671 -0.0670
  461MOL0     H63562   1.523   0.079   4.134  1.0223 -0.8142  0.8451
  461MOL0     H63563   1.502   0.386   4.138  1.7136  1.4293 -2.3893
  461MOL0     H63564   1.530   0.302   3.994  1.0092  2.6996 -0.4038
  461MOL0     H63565   1.712   0.253   4.245  2.2218 -2.1666 -0.6676
  461MOL0     H63566   1.739   0.197   4.094 -2.5299  0.0347 -1.8936
  461MOL0     H63567   1.953   0.304   4.048 -0.2964 -0.7259  1.8118
  461MOL0     H63568   2.134   0.573   4.066 -1.7022  2.7726  2.5440
  461MOL0     H63569   2.037   0.668   3.941  1.4140 -0.9252 -2.8475
  461MOL0     H63570   2.175   0.389   3.924 -0.8755  0.4708 -0.2197
  461MOL0     H63571   2.048   0.433   3.810  0.6329  0.5638 -1.8445
  461MOL0     H63572   2.180   0.617   3.733  0.1796  1.5102  1.0757
  461MOL0     H63573   2.306   0.589   3.858  0.4690  0.2824 -0.5950
  461MOL0     H63574   2.248   0.395   3.631  0.1494  0.6175 -1.0599
  461MOL0     H63575   2.374   0.513   3.630  0.6972 -1.0784 -0.3016
  461MOL0     H63576   2.492   0.157   3.853 -0.0226  0.7678 -0.6448
  461MOL0     H63577   2.756  -0.000   3.793  0.0404 -1.6876  1.2905
  461MOL0     H63578   2.660   0.023   3.943 -1.3124  0.1633 -0.0628
  461MOL0     H63579   2.831   0.076   3.935 -0.3757 -1.7687 -0.2008
  461MOL0     H63580   3.187   0.439   3.612 -1.0304 -3.4088 -2.2703
  461MOL0     H63581   3.426   0.409   3.584  1.7486 -3.6143 -0.2281
  461MOL0     H63582   3.644   0.156   3.860 -0.8274  0.4461  0.6924
  461MOL0     H63583   3.777   0.222   3.760  0.2884 -0.7615  0.2449
  461MOL0     H63584   3.618   0.401   3.951 -0.6722 -0.1824 -1.6367
  461MOL0     H63585   3.755   0.314   4.010  0.0705  1.8822  0.9703
  461MOL0     H63586   3.752   0.500   3.773 -1.1990 -1.4049  0.6855
  461MOL0     H63587   3.907   0.436   3.826 -1.6070  0.0043 -4.6388
  461MOL0     H63588   3.753   0.606   4.029  1.1599  1.2253  0.5549
  461MOL0     H63589   3.854   0.673   3.911 -1.8211  1.1913  0.3209
  461MOL0     H63590   3.916   0.451   4.102  1.5465  0.1269  0.4268
  461MOL0     H63591   4.033   0.500   3.988 -2.0669 -0.4784 -1.8076
  461MOL0     H63592   3.896   0.710   4.165 -1.1560 -1.0667 -0.6508
  461MOL0     H63593   4.061   0.720   4.106 -1.1380  0.8938 -2.8253
  461MOL0     H63594   4.055   0.500   4.291 -1.2613  0.2074  0.2834
  461MOL0     H63595   3.971   0.622   4.369  0.7800  0.8082 -0.2701
  461MOL0     H63596   4.200   0.623   4.404  1.2038  0.7362 -0.7721
  461MOL0     H63597   4.168   0.782   4.324  0.2236 -0.1924 -0.3601
  461MOL0     H63598   3.437   0.164   3.920  0.9322 -1.2502 -1.9969
  461MOL0     H63599   3.212   0.239   3.989 -1.3040  2.2049  0.3667
  461MOL0     H63600   2.807   0.519   3.771 -1.2955 -0.1272  0.2081
  461MOL0     H63601   2.561   0.558   3.760  1.1254  0.9963  1.4703
  461MOL0     H63602   0.625   0.254   4.272  1.7712 -2.2155  0.3514
  461MOL0     H63603   0.391   0.231   4.351 -0.1350 -2.2301  0.2597
  461MOL0     H63604   0.201   0.131   4.739 -0.4395  0.2148 -1.2216
  461MOL0     H63605   0.011   0.004   4.779  1.3111  0.1288  1.3725
  461MOL0     H63606  -0.359   0.245   4.872 -3.6283  1.4641 -0.4446
  461MOL0     H63607  -0.392   0.189   4.714 -1.0996 -0.0480  1.6987
  461MOL0     H63608  -0.454  -0.031   4.821  1.1924 -0.5159  2.4730
  461MOL0     H63609  -0.566   0.108   4.819 -1.3602  0.6930  3.2060
  461MOL0     H63610  -0.381   0.043   5.060  0.7869 -2.4139 -2.0669
  461MOL0     H63611  -0.527   0.152   5.040  0.6109  1.7269 -4.4192
  461MOL0     H63612  -0.577  -0.071   5.156  0.2339  1.1907 -0.6595
  461MOL0     H63613  -0.508  -0.142   5.004  0.4381  0.5162 -0.1164
  461MOL0     H63614  -0.918  -0.111   4.912  2.1477  2.1764 -4.6040
  461MOL0     H63615  -0.228   0.359   4.687  0.1959 -1.4166 -2.6357
  461MOL0     H63616   0.021   0.597   4.680 -1.3848  1.8905  2.3113
  461MOL0     H63617  -0.062   0.515   4.537  0.5724  4.9985 -0.0382
  461MOL0     H63618  -0.144   0.555   4.687  0.0213 -1.0759  0.9602
  462MOL0     O63619  10.044   7.114   5.368 -0.3277 -0.3498 -0.4911
  462MOL0     C63620   9.955   7.191   5.398 -0.3798 -0.8465 -0.2546
  462MOL0     O63621   9.974   7.328   5.400  0.4477 -0.3864  0.2403
  462MOL0     C63622  10.098   7.367   5.376  0.5933 -0.3772  0.2586
  462MOL0     C63623  10.143   7.368   5.242 -0.1964 -0.3754  0.1437
  462MOL0     C63624  10.276   7.411   5.219  0.0224  0.4362 -0.7620
  462MOL0     C63625  10.361   7.449   5.325 -0.2735 -0.1625  0.7964
  462MOL0     O63626  10.483   7.507   5.304  0.4218  1.0571  0.4283
  462MOL0     C63627  10.526   7.527   5.163  0.2136  0.1929 -0.3605
  462MOL0     C63628  10.652   7.590   5.154  0.0378  0.3547 -0.0476
  462MOL0     C63629  10.772   7.506   5.201  0.6862 -0.2422  0.9116
  462MOL0     C63630  10.903   7.578   5.161 -0.8124 -0.5057 -0.4923
  462MOL0     C63631  11.022   7.537   5.243 -1.1463 -0.5934  0.0687
  462MOL0     C63632  11.150   7.626   5.222 -0.5607 -0.4927 -0.1199
  462MOL0     C63633  11.282   7.582   5.288 -0.7836 -0.1736  0.1447
  462MOL0     C63634  11.388   7.680   5.245  0.2863  0.5921 -0.2750
  462MOL0     N63635  11.522   7.628   5.283  0.6148 -0.5448  0.0848
  462MOL0     C63636  11.617   7.703   5.335  0.9986  0.7333 -1.1623
  462MOL0     C63637  11.733   7.645   5.318 -0.0022  0.0549 -0.4788
  462MOL0     C63638  11.863   7.692   5.374 -0.2736  0.0194  0.5192
  462MOL0     C63639  11.979   7.587   5.375 -0.1276  0.0376 -0.4588
  462MOL0     C63640  12.041   7.544   5.242  0.2602 -0.5495 -0.0495
  462MOL0     C63641  12.171   7.464   5.260  0.7721 -0.3252  0.1292
  462MOL0     O63642  12.281   7.550   5.280 -0.2316 -0.3634  0.4051
  462MOL0     C63643  12.335   7.611   5.165  0.7751  0.8233 -0.8110
  462MOL0     C63644  12.455   7.674   5.175 -0.5965 -0.5698  0.1785
  462MOL0     C63645  12.517   7.749   5.074  0.6724  0.8980 -0.6608
  462MOL0     C63646  12.658   7.798   5.107 -0.4393 -0.7166  0.3194
  462MOL0     C63647  12.445   7.769   4.953 -0.3001  0.0416  0.4748
  462MOL0     C63648  12.504   7.832   4.828 -0.3986  0.1959 -0.9584
  462MOL0     O63649  12.429   7.821   4.716 -0.6444 -0.6732  0.2514
  462MOL0     C63650  12.456   7.909   4.615  0.9778  0.3699  0.1343
  462MOL0     C63651  12.544   7.881   4.517  0.0464 -0.6094  0.7561
  462MOL0     C63652  12.597   7.975   4.421  0.4378 -0.5770 -0.4563
  462MOL0     C63653  12.541   8.107   4.419  1.1393 -0.1800  0.1099
  462MOL0     O63654  12.590   8.218   4.354  0.3809 -0.0553  0.2001
  462MOL0     C63655  12.656   8.189   4.231 -0.2878 -0.5758  0.0063
  462MOL0     C63656  12.645   8.311   4.135 -0.2939 -0.4836 -0.8571
  462MOL0     C63657  12.705   8.438   4.203 -0.8114 -0.4973 -0.0798
  462MOL0     C63658  12.713   8.551   4.103 -0.5847 -0.2314  0.2486
  462MOL0     C63659  12.575   8.586   4.043 -0.0865 -0.6007  0.3591
  462MOL0     C63660  12.566   8.727   3.995  0.5203 -0.1030 -0.0982
  462MOL0     C63661  12.427   8.753   3.926 -0.2722 -0.7508  0.1074
  462MOL0     C63662  12.432   8.889   3.855 -0.0814  0.3579  0.5456
  462MOL0    Cl63663  12.268   8.930   3.792 -0.0835  0.1559 -0.2035
  462MOL0     C63664  12.436   8.132   4.514  0.2883 -1.0495  0.1955
  462MOL0     C63665  12.392   8.036   4.613  0.2282  0.4919  0.6530
  462MOL0     O63666  12.604   7.907   4.845  0.0754  0.2570 -0.9575
  462MOL0     C63667  12.320   7.707   4.936 -0.1995 -0.4164  0.3352
  462MOL0     C63668  12.268   7.628   5.039 -0.5510 -1.3146 -0.0800
  462MOL0     N63669  11.717   7.530   5.241 -0.6782 -0.3453 -0.8711
  462MOL0     N63670  11.590   7.520   5.227  0.3046 -0.4899 -0.3442
  462MOL0     C63671  10.315   7.432   5.458  0.4256  0.5420  0.6735
  462MOL0     C63672  10.188   7.396   5.485 -0.1024 -1.4624  0.4359
  462MOL0     C63673   9.816   7.139   5.423  0.1873 -0.5109 -0.3896
  462MOL0     C63674   9.803   7.009   5.472 -0.0859  0.5214  0.8983
  462MOL0     C63675   9.678   6.941   5.499 -1.2356  0.3314  0.0121
  462MOL0     C63676   9.557   7.008   5.478 -0.0909  0.2980  1.0406
  462MOL0     O63677   9.441   6.937   5.505 -0.1551 -0.0562  0.9430
  462MOL0     C63678   9.315   7.001   5.473  0.3122 -0.2934  0.2548
  462MOL0     C63679   9.200   6.929   5.558 -0.0767 -0.2858  0.1507
  462MOL0     C63680   9.226   6.957   5.710  0.5600  0.2606 -0.9872
  462MOL0     C63681   9.124   6.888   5.802  0.3502  0.4350 -0.0817
  462MOL0     C63682   8.976   6.934   5.797 -0.4566  0.6495 -0.0613
  462MOL0     C63683   8.873   6.987   5.806  1.0706  0.0827  0.1083
  462MOL0     C63684   9.571   7.139   5.422  0.2919 -0.1448  0.3467
  462MOL0     C63685   9.691   7.205   5.397 -0.5616 -0.2880 -0.1353
  462MOL0     C63686   9.685   7.342   5.338 -0.2416  0.6090  0.3277
  462MOL0     H63687  10.069   7.351   5.165 -0.9144 -0.5674  0.8558
  462MOL0     H63688  10.298   7.414   5.113  0.1845 -1.5404 -0.8210
  462MOL0     H63689  10.455   7.598   5.119 -0.2866 -0.4724 -0.6543
  462MOL0     H63690  10.528   7.431   5.109 -0.3477 -1.2846  2.0667
  462MOL0     H63691  10.664   7.631   5.053 -2.2428  1.8457  0.2009
  462MOL0     H63692  10.648   7.684   5.211  1.7630  2.0630 -2.5047
  462MOL0     H63693  10.753   7.494   5.308 -0.9325 -1.1633  0.5479
  462MOL0     H63694  10.777   7.407   5.155 -0.0165 -0.3565  1.0735
  462MOL0     H63695  10.935   7.563   5.057 -0.5490 -1.6743 -0.2558
  462MOL0     H63696  10.900   7.686   5.175  0.4449 -0.7324  2.0658
  462MOL0     H63697  11.049   7.435   5.216 -0.1058 -1.1335  2.7714
  462MOL0     H63698  10.986   7.535   5.347  1.7596 -1.6993  1.1754
  462MOL0     H63699  11.154   7.630   5.113 -0.5233 -4.2902 -0.3947
  462MOL0     H63700  11.124   7.725   5.259 -0.6299 -0.9705  1.1541
  462MOL0     H63701  11.299   7.482   5.248  0.4434  0.5623 -1.2542
  462MOL0     H63702  11.266   7.580   5.396 -1.5967 -2.6486  0.0301
  462MOL0     H63703  11.379   7.687   5.136  0.7339  1.7407 -0.2522
  462MOL0     H63704  11.372   7.780   5.284  2.6679  0.1535  2.1749
  462MOL0     H63705  11.596   7.790   5.397 -1.8197 -1.8573  1.9049
  462MOL0     H63706  11.858   7.724   5.478 -0.4010 -2.4199  1.3322
  462MOL0     H63707  11.897   7.784   5.325 -1.2963  1.0536  1.6956
  462MOL0     H63708  12.061   7.622   5.439  0.7275  0.2995 -1.6637
  462MOL0     H63709  11.938   7.499   5.425 -3.0211  1.6695  0.3271
  462MOL0     H63710  11.974   7.469   5.198  1.1348 -1.3976  0.0391
  462MOL0     H63711  12.043   7.624   5.168 -0.6079 -0.8622 -0.4296
  462MOL0     H63712  12.155   7.387   5.335  2.0881 -0.1220  0.6582
  462MOL0     H63713  12.188   7.399   5.174  2.4902  0.1475  0.0580
  462MOL0     H63714  12.510   7.672   5.268 -2.0849 -0.2236  1.0872
  462MOL0     H63715  12.732   7.755   5.038 -0.5698  1.1721 -1.0945
  462MOL0     H63716  12.690   7.782   5.210  0.6541  0.7138  0.2358
  462MOL0     H63717  12.655   7.907   5.098  0.3197 -0.5382  1.8863
  462MOL0     H63718  12.582   7.779   4.514 -1.7433 -1.3071  0.9480
  462MOL0     H63719  12.677   7.946   4.353 -1.0884 -1.6771 -1.8837
  462MOL0     H63720  12.763   8.170   4.244  0.1426 -0.2457 -2.6030
  462MOL0     H63721  12.609   8.107   4.177 -3.2250  0.6993  0.4306
  462MOL0     H63722  12.704   8.292   4.045  3.7689 -0.0322  1.4568
  462MOL0     H63723  12.537   8.324   4.126 -0.4369  0.5329  1.4462
  462MOL0     H63724  12.807   8.420   4.237 -1.0641 -1.9895 -0.0677
  462MOL0     H63725  12.651   8.474   4.291  0.2389 -1.9523  1.2138
  462MOL0     H63726  12.777   8.534   4.016 -1.1695  0.7305 -0.3861
  462MOL0     H63727  12.766   8.629   4.158  1.3355  1.1136 -3.1742
  462MOL0     H63728  12.561   8.519   3.957 -1.6818  2.1089 -1.6503
  462MOL0     H63729  12.502   8.560   4.120 -0.4684 -1.2839 -0.2203
  462MOL0     H63730  12.658   8.751   3.943  0.7562 -0.8772 -0.0475
  462MOL0     H63731  12.558   8.793   4.082 -1.1718 -0.7303  0.2785
  462MOL0     H63732  12.363   8.755   4.015 -1.2162 -4.8719 -0.2330
  462MOL0     H63733  12.395   8.673   3.857  0.7810  0.6030 -2.0421
  462MOL0     H63734  12.492   8.887   3.763  2.2086  0.7101  1.9416
  462MOL0     H63735  12.474   8.972   3.912 -1.7741  2.3153 -0.8870
  462MOL0     H63736  12.391   8.231   4.512  1.4014 -0.5318 -0.7034
  462MOL0     H63737  12.317   8.055   4.690  0.4229 -0.1112  1.0027
  462MOL0     H63738  12.263   7.708   4.844  2.4028 -0.3642 -1.3739
  462MOL0     H63739  12.168   7.596   5.011 -0.1789 -0.7919 -2.1232
  462MOL0     H63740  10.388   7.456   5.534  0.2560 -0.1676  1.0711
  462MOL0     H63741  10.167   7.388   5.591  2.3146  1.8712  1.3440
  462MOL0     H63742   9.896   6.958   5.495  0.2308  0.4300 -0.4752
  462MOL0     H63743   9.682   6.842   5.543  1.5006  0.9655  1.4399
  462MOL0     H63744   9.322   7.108   5.498  2.0974  0.2081 -2.0656
  462MOL0     H63745   9.288   6.994   5.368  0.5301  3.8324 -0.2509
  462MOL0     H63746   9.209   6.822   5.537  3.6326 -0.3162  1.1957
  462MOL0     H63747   9.098   6.956   5.532 -0.3189 -2.3743 -1.2609
  462MOL0     H63748   9.327   6.922   5.737  0.4711 -1.2106 -2.3831
  462MOL0     H63749   9.224   7.065   5.722  0.4901 -0.0109  2.3531
  462MOL0     H63750   9.163   6.896   5.904  2.0695 -2.5679 -0.3901
  462MOL0     H63751   9.131   6.783   5.772 -3.0596  0.2883 -0.7721
  462MOL0     H63752   8.774   7.025   5.821  1.0285  0.0576 -0.1102
  462MOL0     H63753   9.485   7.203   5.404  1.2299  1.3645  0.9779
  462MOL0     H63754   9.636   7.409   5.409  1.1919  1.0241  0.9611
  462MOL0     H63755   9.773   7.378   5.284  0.7427  1.3745  2.3502
  462MOL0     H63756   9.609   7.337   5.260  3.0991  2.0333 -3.3610
  463MOL0     O63757  11.221   6.598   0.016  0.1454  0.1590  0.3067
  463MOL0     C63758  11.188   6.639   0.130  1.2576 -1.1415  0.1410
  463MOL0     O63759  11.243   6.614   0.243  0.4228 -0.2190  0.0006
  463MOL0     C63760  11.334   6.507   0.260  0.4788 -0.4411 -1.3648
  463MOL0     C63761  11.467   6.533   0.279  0.2021 -0.5282 -0.0874
  463MOL0     C63762  11.558   6.429   0.293  0.6377  0.1687  0.6387
  463MOL0     C63763  11.521   6.297   0.281  0.0740  0.2153  0.1134
  463MOL0     O63764  11.604   6.190   0.279  0.3513 -0.3730  0.3442
  463MOL0     C63765  11.731   6.187   0.355 -0.1175  0.0899  0.2886
  463MOL0     C63766  11.838   6.195   0.263 -1.0432  0.3070  0.7936
  463MOL0     C63767  11.981   6.238   0.307 -0.6939 -0.3227 -0.3611
  463MOL0     C63768  12.063   6.260   0.181  0.5289  0.3993 -0.8776
  463MOL0     C63769  12.209   6.287   0.228  0.1175 -0.7759 -0.3269
  463MOL0     C63770  12.307   6.289   0.112 -0.0324  0.1512 -0.0570
  463MOL0     C63771  12.446   6.333   0.163  0.4329 -0.4267  0.2761
  463MOL0     C63772  12.517   6.395   0.044  0.7600 -0.4763 -0.1500
  463MOL0     N63773  12.654   6.427   0.081  0.0550 -0.6151 -0.0607
  463MOL0     C63774  12.741   6.340   0.136 -0.2639  0.2564 -0.0024
  463MOL0     C63775  12.857   6.411   0.147 -0.7830 -0.2747 -0.4381
  463MOL0     C63776  12.985   6.361   0.208 -0.3623 -0.6558 -0.8611
  463MOL0     C63777  13.056   6.459   0.310 -0.3370  0.3316  0.7276
  463MOL0     C63778  13.157   6.375   0.388  0.1519  0.5131 -0.4644
  463MOL0     C63779  13.244   6.461   0.476 -0.4076  0.2599  0.3139
  463MOL0     O63780  13.340   6.383   0.549 -0.9489  0.6534 -0.1402
  463MOL0     C63781  13.461   6.341   0.501  0.3548  0.1128  0.4693
  463MOL0     C63782  13.535   6.266   0.596 -0.3223  0.3965  0.1473
  463MOL0     C63783  13.669   6.222   0.561  0.2567  0.0452 -0.5744
  463MOL0     C63784  13.746   6.150   0.670  0.3554 -1.3248  0.5919
  463MOL0     C63785  13.723   6.254   0.436 -0.4595  0.3068  0.9443
  463MOL0     C63786  13.865   6.218   0.391 -0.1120  0.5240 -0.4473
  463MOL0     O63787  13.894   6.261   0.265 -0.0662  0.2261 -0.1334
  463MOL0     C63788  14.023   6.238   0.225 -0.8696 -1.1116 -0.1250
  463MOL0     C63789  14.112   6.348   0.220  0.1077 -0.0543 -0.1620
  463MOL0     C63790  14.244   6.336   0.170  0.1974  0.9083 -0.7088
  463MOL0     C63791  14.293   6.202   0.137 -0.1505  0.3148  0.5507
  463MOL0     O63792  14.414   6.178   0.074  0.7266 -0.3317 -0.1826
  463MOL0     C63793  14.528   6.273   0.093  0.3833  0.0648 -0.2741
  463MOL0     C63794  14.648   6.252   0.010 -0.0486  0.1068  0.7084
  463MOL0     C63795  14.661   6.345  -0.118  0.5201  0.0798 -0.1943
  463MOL0     C63796  14.784   6.324  -0.194  0.5298  0.1945  0.3983
  463MOL0     C63797  14.804   6.438  -0.297 -0.1041 -0.3723 -1.3555
  463MOL0     C63798  14.920   6.429  -0.394  0.3689 -0.2509 -0.0836
  463MOL0     C63799  15.056   6.379  -0.339 -0.2001  0.1723  0.1788
  463MOL0     C63800  15.127   6.322  -0.463 -0.0411 -0.0236  0.0621
  463MOL0    Cl63801  15.129   6.426  -0.610  0.7015  0.2153  0.1051
  463MOL0     C63802  14.195   6.092   0.141 -0.5364 -0.1216 -0.6318
  463MOL0     C63803  14.067   6.118   0.189  0.3059  0.3569 -0.6905
  463MOL0     O63804  13.927   6.139   0.458  0.3853  0.3021 -0.6115
  463MOL0     C63805  13.643   6.338   0.352  0.6173 -0.2484 -0.3387
  463MOL0     C63806  13.518   6.374   0.382 -0.1926  0.0325 -0.1833
  463MOL0     N63807  12.839   6.539   0.091 -0.5892 -0.3029  0.4151
  463MOL0     N63808  12.711   6.547   0.058  0.6599 -0.3957  0.8208
  463MOL0     C63809  11.386   6.265   0.272 -1.1542 -0.4309 -0.2316
  463MOL0     C63810  11.295   6.371   0.267  0.3532 -0.0212 -0.6312
  463MOL0     C63811  11.051   6.695   0.122  0.2006  0.5101  0.3898
  463MOL0     C63812  10.945   6.607   0.101 -0.4234  0.3003 -0.8602
  463MOL0     C63813  10.816   6.654   0.088 -1.7846  0.0506 -0.6023
  463MOL0     C63814  10.788   6.790   0.078 -0.8610  0.5123  0.5328
  463MOL0     O63815  10.656   6.822   0.055 -0.6795  0.1879 -0.3058
  463MOL0     C63816  10.621   6.958   0.036  0.5130  0.2265  0.1830
  463MOL0     C63817  10.486   6.960  -0.030  0.4060  1.3262  1.1066
  463MOL0     C63818  10.427   7.102  -0.040 -0.1405  0.1098  0.5772
  463MOL0     C63819  10.379   7.162   0.094  0.1052  0.0082 -0.1475
  463MOL0     C63820  10.264   7.090   0.148  0.8342  0.5840  0.2124
  463MOL0     C63821  10.158   7.044   0.185 -0.3631 -0.5541 -0.1176
  463MOL0     C63822  10.900   6.885   0.088  0.1357  0.2859  0.1233
  463MOL0     C63823  11.026   6.831   0.116 -0.2872 -0.7186  0.0396
  463MOL0     C63824  11.145   6.919   0.152 -0.1343 -0.3784 -0.2817
  463MOL0     H63825  11.504   6.633   0.301  0.8454 -1.1088  1.6384
  463MOL0     H63826  11.659   6.467   0.304 -0.6530  3.4523  2.3992
  463MOL0     H63827  11.731   6.093   0.412  2.8377 -1.2528 -1.6385
  463MOL0     H63828  11.743   6.267   0.429  2.1337 -1.1775  1.4240
  463MOL0     H63829  11.864   6.096   0.226  0.7839  0.9428  0.2682
  463MOL0     H63830  11.812   6.258   0.177  1.2077 -0.2169 -0.3367
  463MOL0     H63831  11.974   6.333   0.361 -1.7511  0.1286 -1.2555
  463MOL0     H63832  12.025   6.163   0.374  0.3127  0.4455 -0.1517
  463MOL0     H63833  12.077   6.161   0.137 -2.1848  0.2973 -1.6767
  463MOL0     H63834  12.025   6.339   0.116 -0.1467 -0.4880 -1.6014
  463MOL0     H63835  12.240   6.208   0.297  1.3856  0.0960  0.1440
  463MOL0     H63836  12.212   6.379   0.286 -3.4395 -1.4676  1.2526
  463MOL0     H63837  12.301   6.194   0.057 -1.5945  1.1260 -1.6689
  463MOL0     H63838  12.254   6.355   0.043 -0.1183 -0.3761 -0.5070
  463MOL0     H63839  12.503   6.247   0.201 -0.0013 -1.1183 -0.5797
  463MOL0     H63840  12.429   6.394   0.252 -2.5143 -3.0496  1.7401
  463MOL0     H63841  12.521   6.315  -0.031  3.1374 -0.5068 -0.0800
  463MOL0     H63842  12.461   6.482   0.008 -1.2096 -1.6432 -0.0574
  463MOL0     H63843  12.721   6.242   0.177 -0.1158  0.4643  0.5695
  463MOL0     H63844  13.055   6.343   0.126 -0.7361  0.3457 -1.4081
  463MOL0     H63845  12.970   6.271   0.269 -0.4347  1.0221  1.7813
  463MOL0     H63846  13.114   6.535   0.257 -1.3153  0.3792 -0.3209
  463MOL0     H63847  12.986   6.509   0.378 -0.0026 -0.1028  1.4007
  463MOL0     H63848  13.108   6.292   0.439 -1.1549 -0.3077 -2.8890
  463MOL0     H63849  13.231   6.323   0.327 -0.2361 -1.0352  0.3345
  463MOL0     H63850  13.301   6.536   0.420  1.8835 -1.0683  0.7449
  463MOL0     H63851  13.176   6.516   0.543 -1.0376  0.2933 -0.3339
  463MOL0     H63852  13.485   6.237   0.688 -0.4863 -2.5343 -0.7503
  463MOL0     H63853  13.789   6.056   0.636 -1.9056 -2.1295 -0.1973
  463MOL0     H63854  13.674   6.113   0.743 -2.8148  1.9913 -0.5314
  463MOL0     H63855  13.826   6.216   0.706  0.3539  1.2452 -3.4210
  463MOL0     H63856  14.076   6.438   0.269 -2.0075 -0.9964  0.1015
  463MOL0     H63857  14.313   6.420   0.166  0.1550  0.9161 -1.2820
  463MOL0     H63858  14.497   6.377   0.100 -1.1824 -0.4448  4.0425
  463MOL0     H63859  14.572   6.262   0.193 -0.3261 -2.2738 -0.1464
  463MOL0     H63860  14.739   6.269   0.070  1.5134 -0.2915 -1.4355
  463MOL0     H63861  14.648   6.146  -0.017  2.5782  0.0203  0.7788
  463MOL0     H63862  14.653   6.449  -0.087  0.3003  0.4762 -1.5346
  463MOL0     H63863  14.581   6.334  -0.192  2.4649 -0.2750 -2.3939
  463MOL0     H63864  14.770   6.223  -0.236  1.4068  0.6405 -1.0470
  463MOL0     H63865  14.875   6.324  -0.134 -0.0413 -2.9901  1.4661
  463MOL0     H63866  14.716   6.450  -0.361  0.9175  0.9571 -2.5834
  463MOL0     H63867  14.823   6.531  -0.242 -0.0856 -0.9647 -0.3542
  463MOL0     H63868  14.938   6.529  -0.435  0.8673 -1.3065 -2.6773
  463MOL0     H63869  14.890   6.373  -0.483  0.5349  2.7946 -2.2199
  463MOL0     H63870  15.038   6.305  -0.260 -0.4342  0.4196  0.3554
  463MOL0     H63871  15.119   6.455  -0.291  1.5513 -0.2341 -1.3521
  463MOL0     H63872  15.077   6.227  -0.486  3.0190 -1.1465 -2.8892
  463MOL0     H63873  15.229   6.291  -0.440 -0.2085 -3.0151 -2.5090
  463MOL0     H63874  14.233   5.994   0.115  1.0600  0.4106 -0.4637
  463MOL0     H63875  13.988   6.044   0.195 -1.3731  2.0630 -1.1633
  463MOL0     H63876  13.681   6.387   0.263 -1.1961 -0.8843 -1.5308
  463MOL0     H63877  13.463   6.432   0.309  3.0476  1.0586 -2.0438
  463MOL0     H63878  11.352   6.162   0.274  1.6447 -1.4335  0.2741
  463MOL0     H63879  11.187   6.362   0.268 -0.1561  3.6421  2.6365
  463MOL0     H63880  10.957   6.500   0.105  1.8318  0.5043  2.8602
  463MOL0     H63881  10.739   6.580   0.072 -0.6084 -1.6752  1.1639
  463MOL0     H63882  10.619   7.005   0.135  1.7318 -0.0154  0.3296
  463MOL0     H63883  10.686   7.024  -0.021 -0.3189  1.8624  1.0456
  463MOL0     H63884  10.417   6.894   0.023 -0.6699  1.5271  0.0080
  463MOL0     H63885  10.501   6.921  -0.131  3.2239  0.7293  1.6725
  463MOL0     H63886  10.514   7.159  -0.072  0.8860 -1.6925  0.0597
  463MOL0     H63887  10.348   7.114  -0.115  0.6408 -2.1378 -0.7077
  463MOL0     H63888  10.350   7.264   0.067  1.2869 -0.2895 -2.8947
  463MOL0     H63889  10.463   7.173   0.164  2.3735  0.1606 -2.7089
  463MOL0     H63890  10.067   6.998   0.218  1.0261 -1.8231  2.2320
  463MOL0     H63891  10.896   6.992   0.066  4.4629  0.5003 -0.6280
  463MOL0     H63892  11.219   6.926   0.072 -0.5492  0.4315 -0.6113
  463MOL0     H63893  11.101   7.016   0.176 -0.8196 -1.3637  2.8938
  463MOL0     H63894  11.187   6.886   0.247  2.6398 -0.0177 -1.2894
  464MOL0     O63895   2.482   2.165   2.178 -0.0145 -0.6154  0.1485
  464MOL0     C63896   2.482   2.189   2.294  0.3407  0.6704 -1.1962
  464MOL0     O63897   2.566   2.113   2.384 -0.0998  0.0449 -0.1694
  464MOL0     C63898   2.654   2.027   2.335 -0.3672 -0.0022 -0.1099
  464MOL0     C63899   2.776   2.053   2.270 -0.2356 -0.1712 -0.2042
  464MOL0     C63900   2.863   1.951   2.240 -0.1990  0.5001 -0.5379
  464MOL0     C63901   2.820   1.820   2.271 -0.4100 -0.0349 -0.3940
  464MOL0     O63902   2.903   1.718   2.248  0.1991  0.1406 -0.0820
  464MOL0     C63903   2.953   1.632   2.356 -0.5834  1.1035 -0.2809
  464MOL0     C63904   2.985   1.710   2.491 -0.2933  0.1146  0.7575
  464MOL0     C63905   3.051   1.622   2.602 -0.3949  0.2854 -0.1158
  464MOL0     C63906   3.077   1.705   2.728  0.0457  0.1829 -0.2540
  464MOL0     C63907   3.107   1.624   2.854  0.4725  0.5930 -0.4258
  464MOL0     C63908   3.206   1.508   2.837  0.2248  0.0299 -0.8571
  464MOL0     C63909   3.243   1.445   2.973 -0.0518 -0.4801 -0.5872
  464MOL0     C63910   3.370   1.356   2.958  1.0935 -0.1394 -0.3623
  464MOL0     N63911   3.387   1.267   3.080 -0.0925 -0.0471 -0.2462
  464MOL0     C63912   3.328   1.145   3.102 -0.1217  0.3289  1.2309
  464MOL0     C63913   3.363   1.113   3.227  0.9058  0.2597  0.2532
  464MOL0     C63914   3.303   1.001   3.306 -0.7472  0.0469 -0.4032
  464MOL0     C63915   3.157   1.029   3.334 -0.7683 -0.1893 -0.4420
  464MOL0     C63916   3.150   1.171   3.394  0.1292  0.1803 -0.2817
  464MOL0     C63917   3.023   1.212   3.466  1.3586  0.7509 -0.7928
  464MOL0     O63918   3.022   1.349   3.504 -0.4058  0.1113 -0.2633
  464MOL0     C63919   2.907   1.386   3.577 -0.5332  0.0127  0.2367
  464MOL0     C63920   2.814   1.478   3.532 -0.2303 -0.0084  0.6542
  464MOL0     C63921   2.703   1.523   3.604 -0.2161 -0.1863  0.0661
  464MOL0     C63922   2.622   1.627   3.541  0.4109 -0.3896  0.0551
  464MOL0     C63923   2.667   1.466   3.727 -0.4395  1.3428  0.5072
  464MOL0     C63924   2.544   1.502   3.804 -1.1093  0.4765  0.3094
  464MOL0     O63925   2.428   1.523   3.734 -0.5701 -0.7005  0.5605
  464MOL0     C63926   2.319   1.566   3.795  0.6518  1.0118  0.0667
  464MOL0     C63927   2.249   1.477   3.879 -0.2791  0.0725 -0.0055
  464MOL0     C63928   2.126   1.518   3.937 -0.6779  0.5334 -0.6546
  464MOL0     C63929   2.070   1.631   3.900  0.5681 -0.8706  0.9903
  464MOL0     O63930   1.945   1.669   3.932 -0.4666  0.4320 -0.0230
  464MOL0     C63931   1.922   1.678   4.073 -0.1746  0.1227  0.6806
  464MOL0     C63932   1.779   1.701   4.106 -0.2798 -0.2493  0.5667
  464MOL0     C63933   1.748   1.724   4.256 -0.0929  0.0659  0.5805
  464MOL0     C63934   1.608   1.781   4.272  0.6522 -0.0130 -0.1418
  464MOL0     C63935   1.609   1.940   4.269 -0.6675  0.4260  0.0869
  464MOL0     C63936   1.478   1.998   4.228 -0.1013  0.2456 -0.1115
  464MOL0     C63937   1.459   2.141   4.289  0.3196 -0.0580  0.2441
  464MOL0     C63938   1.350   2.205   4.215 -0.2647  0.9195 -1.0823
  464MOL0    Cl63939   1.348   2.366   4.275  0.0998  0.1256  0.1335
  464MOL0     C63940   2.139   1.727   3.814  0.3160 -0.1518  0.5724
  464MOL0     C63941   2.262   1.693   3.760  0.6041 -0.2208 -0.1469
  464MOL0     O63942   2.559   1.486   3.919 -0.4013 -0.1320 -0.1278
  464MOL0     C63943   2.765   1.362   3.778 -0.8986 -0.4343 -0.8803
  464MOL0     C63944   2.882   1.338   3.709 -0.7430  0.1210  0.0952
  464MOL0     N63945   3.439   1.212   3.281 -0.4869  0.3630 -0.2091
  464MOL0     N63946   3.455   1.302   3.193 -0.8540  1.2086  0.2472
  464MOL0     C63947   2.695   1.791   2.323  0.5363  0.6827 -0.9732
  464MOL0     C63948   2.615   1.893   2.361  0.8480 -0.3901  0.5173
  464MOL0     C63949   2.389   2.289   2.356  0.3974  0.2723 -0.5182
  464MOL0     C63950   2.390   2.305   2.497  0.6038 -0.6173  0.0524
  464MOL0     C63951   2.327   2.414   2.559 -0.5079  0.2006 -0.0447
  464MOL0     C63952   2.239   2.502   2.488 -0.1032  0.8994 -0.5191
  464MOL0     O63953   2.162   2.582   2.563 -0.9331  0.1869  0.1229
  464MOL0     C63954   2.089   2.687   2.490 -0.9874 -0.5019  0.2340
  464MOL0     C63955   2.025   2.798   2.571  0.1032  1.2982  0.0300
  464MOL0     C63956   1.933   2.739   2.680 -0.3686  1.0221 -0.3395
  464MOL0     C63957   1.804   2.675   2.629  0.6805  0.3766  0.0812
  464MOL0     C63958   1.701   2.661   2.737 -0.1391 -0.1436  0.0778
  464MOL0     C63959   1.615   2.656   2.815 -0.2806 -0.1894  0.7030
  464MOL0     C63960   2.239   2.484   2.346  0.3400  0.6571 -0.4996
  464MOL0     C63961   2.311   2.381   2.283  0.0194 -0.3630  0.4302
  464MOL0     C63962   2.314   2.387   2.138 -0.7008 -0.5563  0.0022
  464MOL0     H63963   2.794   2.158   2.247 -1.3871 -0.0470 -0.5938
  464MOL0     H63964   2.950   1.962   2.176 -0.7972  2.2143 -1.1057
  464MOL0     H63965   3.042   1.574   2.332 -0.9342  0.3380  0.2379
  464MOL0     H63966   2.879   1.553   2.375  1.1119 -0.3789  0.3663
  464MOL0     H63967   3.049   1.794   2.460 -0.1397 -0.1644  0.3101
  464MOL0     H63968   2.895   1.761   2.526 -0.9896 -2.0637  2.3618
  464MOL0     H63969   2.996   1.531   2.625  0.7206 -0.7467 -1.3728
  464MOL0     H63970   3.145   1.576   2.571 -1.4686 -1.6279 -0.6507
  464MOL0     H63971   3.155   1.778   2.705  1.5576  1.0400  5.7767
  464MOL0     H63972   2.991   1.769   2.754  1.4576  1.8548  0.4910
  464MOL0     H63973   3.016   1.576   2.889  1.5646 -1.0934  0.2382
  464MOL0     H63974   3.158   1.695   2.920  2.0941  0.8672 -1.8889
  464MOL0     H63975   3.159   1.425   2.782 -2.5061  1.3637 -0.7253
  464MOL0     H63976   3.293   1.544   2.783  0.3814 -0.4346 -0.9217
  464MOL0     H63977   3.161   1.377   2.997  0.9469 -1.5491 -0.0946
  464MOL0     H63978   3.258   1.524   3.047  2.9214 -2.4982  1.1752
  464MOL0     H63979   3.359   1.294   2.868  2.1222 -0.0338 -0.5738
  464MOL0     H63980   3.458   1.417   2.935  0.7729 -0.0595 -1.4409
  464MOL0     H63981   3.256   1.087   3.044 -2.0986  1.1428  2.7871
  464MOL0     H63982   3.357   0.982   3.399  1.4577  0.9194 -1.4398
  464MOL0     H63983   3.305   0.909   3.246 -0.4465 -1.1426  1.3655
  464MOL0     H63984   3.103   1.015   3.240 -0.7907 -2.9784 -0.0938
  464MOL0     H63985   3.123   0.955   3.407  1.7542 -0.5254  0.5105
  464MOL0     H63986   3.230   1.187   3.467 -0.0938 -0.8264  0.1960
  464MOL0     H63987   3.167   1.251   3.321  0.9453  0.0093 -0.2835
  464MOL0     H63988   2.939   1.207   3.396 -0.8711  0.4107  1.7515
  464MOL0     H63989   3.006   1.130   3.537  1.8552  1.0515 -0.3177
  464MOL0     H63990   2.834   1.515   3.431  1.9278 -0.7513  0.7513
  464MOL0     H63991   2.525   1.595   3.501  0.0232  1.7338 -0.8217
  464MOL0     H63992   2.675   1.679   3.461 -0.8299  0.7195 -0.0859
  464MOL0     H63993   2.601   1.703   3.617 -1.0358 -0.4508 -0.2575
  464MOL0     H63994   2.286   1.375   3.882  3.7081  1.3908  1.0724
  464MOL0     H63995   2.071   1.450   4.001 -0.0886  2.4423  2.0351
  464MOL0     H63996   1.956   1.584   4.118  0.1970 -0.9661 -1.6937
  464MOL0     H63997   1.979   1.762   4.113  0.2671 -1.2589  3.1724
  464MOL0     H63998   1.752   1.798   4.064 -3.0626 -1.1859 -0.0465
  464MOL0     H63999   1.717   1.626   4.055 -0.5228  1.7989 -2.4038
  464MOL0     H64000   1.825   1.779   4.310  0.6758 -1.1223  0.7128
  464MOL0     H64001   1.751   1.638   4.323  2.0690  0.4752  1.0713
  464MOL0     H64002   1.555   1.739   4.358  2.6538  0.4638  1.4068
  464MOL0     H64003   1.548   1.749   4.187  1.8279 -1.7201 -0.3857
  464MOL0     H64004   1.644   1.989   4.361  2.0828  2.2429 -1.7845
  464MOL0     H64005   1.679   1.970   4.191 -0.1083 -0.1853  0.3439
  464MOL0     H64006   1.402   1.933   4.273 -0.3627  0.2372 -0.5631
  464MOL0     H64007   1.479   2.002   4.119  1.4547  0.5283 -0.1071
  464MOL0     H64008   1.546   2.203   4.265 -0.2929  0.9811  0.6660
  464MOL0     H64009   1.448   2.132   4.397 -0.1770 -1.4737  0.1042
  464MOL0     H64010   1.258   2.155   4.246 -0.2654  0.9234 -1.0786
  464MOL0     H64011   1.374   2.209   4.108  1.4316 -0.1977 -0.8019
  464MOL0     H64012   2.099   1.826   3.795  1.7190  0.0173 -1.8390
  464MOL0     H64013   2.316   1.770   3.706  0.8810 -1.5112 -1.7563
  464MOL0     H64014   2.734   1.306   3.866  0.9833  1.6994  1.2858
  464MOL0     H64015   2.966   1.278   3.743 -1.1143  0.2571  1.3004
  464MOL0     H64016   2.659   1.693   2.352 -1.3145  1.5710 -0.0936
  464MOL0     H64017   2.527   1.852   2.410 -0.7704 -0.5453 -2.2904
  464MOL0     H64018   2.456   2.244   2.558  2.9496 -0.8823 -2.5516
  464MOL0     H64019   2.339   2.423   2.666  1.2092 -2.0688  0.0212
  464MOL0     H64020   2.152   2.733   2.414 -1.6269 -1.5690 -0.9789
  464MOL0     H64021   2.008   2.623   2.454 -1.9035 -0.0647  1.4555
  464MOL0     H64022   1.957   2.849   2.504  0.3272  1.0817 -0.3665
  464MOL0     H64023   2.104   2.860   2.616  0.4975  0.7127  0.1584
  464MOL0     H64024   1.992   2.664   2.733 -1.5589  1.4846  1.7832
  464MOL0     H64025   1.899   2.811   2.755  1.1424  0.5580  0.8427
  464MOL0     H64026   1.823   2.580   2.578 -4.1207 -3.2111  3.8944
  464MOL0     H64027   1.761   2.749   2.561  2.7103  2.3604  0.8485
  464MOL0     H64028   1.538   2.660   2.889  1.2581 -2.1605  2.5516
  464MOL0     H64029   2.180   2.554   2.288 -1.5684 -1.1067 -0.8165
  464MOL0     H64030   2.416   2.416   2.113  0.4592 -2.4137  2.2635
  464MOL0     H64031   2.297   2.294   2.083 -1.9056  1.0579 -2.5750
  464MOL0     H64032   2.246   2.465   2.101 -0.1803 -0.7498 -1.4136
  465MOL0     O64033  10.629   4.139   8.057  0.3263 -0.2177 -0.2141
  465MOL0     C64034  10.568   4.038   8.033 -0.0663 -0.6369  0.2077
  465MOL0     O64035  10.599   3.914   8.082 -0.7917 -0.1053  0.4587
  465MOL0     C64036  10.718   3.892   8.148  0.8444  0.4238 -0.1540
  465MOL0     C64037  10.822   3.817   8.094  0.4690 -0.3616  0.2655
  465MOL0     C64038  10.949   3.822   8.153  0.0558 -1.0259 -0.0454
  465MOL0     C64039  10.975   3.880   8.277  0.1719 -0.1612  0.4878
  465MOL0     O64040  11.105   3.892   8.332  0.8979 -0.3168 -0.1192
  465MOL0     C64041  11.223   3.881   8.258 -0.4306  0.0505 -0.2647
  465MOL0     C64042  11.343   3.929   8.348  0.8103 -0.7263 -0.4238
  465MOL0     C64043  11.478   3.897   8.280 -0.4774 -0.8404  0.4906
  465MOL0     C64044  11.558   4.020   8.281  0.3925 -0.3677 -0.0644
  465MOL0     C64045  11.692   3.988   8.221 -0.2580 -0.3796  0.6725
  465MOL0     C64046  11.790   4.111   8.220  0.8585  0.0171 -0.1543
  465MOL0     C64047  11.922   4.075   8.149 -0.1652 -0.2437 -0.4559
  465MOL0     C64048  12.038   4.184   8.163 -0.4329  0.2398 -0.0030
  465MOL0     N64049  12.154   4.125   8.092 -0.7134 -0.4237  0.5891
  465MOL0     C64050  12.205   3.997   8.114 -0.3424  0.4675  0.1346
  465MOL0     C64051  12.309   3.986   8.032 -0.5260 -0.2169 -1.3420
  465MOL0     C64052  12.398   3.861   8.028  0.2026  0.1647  0.7271
  465MOL0     C64053  12.497   3.865   7.910  0.1108  0.5130 -0.6313
  465MOL0     C64054  12.420   3.851   7.772  0.1682  1.2804 -1.0412
  465MOL0     C64055  12.494   3.899   7.648  0.2347  1.1311  0.5115
  465MOL0     O64056  12.625   3.847   7.639  0.1337  0.9711 -0.2554
  465MOL0     C64057  12.649   3.715   7.615  0.8856 -0.9912  0.0422
  465MOL0     C64058  12.547   3.624   7.578  0.4474 -0.5681  0.1686
  465MOL0     C64059  12.578   3.490   7.552  0.1802 -0.3140  0.0040
  465MOL0     C64060  12.462   3.405   7.492 -1.1291 -0.4667 -0.6059
  465MOL0     C64061  12.708   3.443   7.573  0.3805  0.2911 -0.5213
  465MOL0     C64062  12.747   3.301   7.561  0.6758 -0.4557  0.1214
  465MOL0     O64063  12.881   3.275   7.566  0.3056 -0.0075 -0.4607
  465MOL0     C64064  12.926   3.157   7.515 -0.6317 -1.0897  0.0874
  465MOL0     C64065  12.898   3.127   7.380  0.1362  0.5216 -0.1434
  465MOL0     C64066  12.930   3.003   7.332  0.5521  0.4045 -0.2001
  465MOL0     C64067  12.993   2.901   7.406 -0.5619  0.3280 -0.3076
  465MOL0     O64068  13.013   2.783   7.342  0.0647  0.3056 -0.2851
  465MOL0     C64069  13.127   2.708   7.384  0.4654  0.5661  0.0479
  465MOL0     C64070  13.164   2.599   7.277 -0.6628 -0.4053  0.1617
  465MOL0     C64071  13.253   2.487   7.331 -0.0973  0.9531  0.1919
  465MOL0     C64072  13.403   2.531   7.341  0.7810  0.5407  0.7857
  465MOL0     C64073  13.490   2.433   7.405  0.1517 -0.5043  0.6746
  465MOL0     C64074  13.514   2.295   7.362 -0.0030 -0.5571 -0.2077
  465MOL0     C64075  13.579   2.287   7.224  0.7643  0.7041 -0.3513
  465MOL0     C64076  13.586   2.143   7.166  0.2411 -0.6337 -0.2083
  465MOL0    Cl64077  13.667   2.131   7.013  0.1183 -0.6909 -0.0502
  465MOL0     C64078  13.010   2.936   7.542 -0.1776  0.4327 -0.9775
  465MOL0     C64079  12.984   3.060   7.594  0.7322  0.1459 -0.3443
  465MOL0     O64080  12.663   3.218   7.589 -0.5723  0.5194 -0.5362
  465MOL0     C64081  12.806   3.540   7.614 -0.1455  0.0490  0.5030
  465MOL0     C64082  12.772   3.674   7.636  0.0154 -0.0750  0.3894
  465MOL0     N64083  12.335   4.117   7.978  0.4605 -0.5332 -0.5054
  465MOL0     N64084  12.243   4.199   8.021 -0.6067 -0.2933 -0.6134
  465MOL0     C64085  10.865   3.940   8.342  0.5613 -0.4645  0.1658
  465MOL0     C64086  10.738   3.950   8.275 -0.1907  0.8333 -0.1996
  465MOL0     C64087  10.461   4.042   7.936 -0.2147  0.3198 -0.4000
  465MOL0     C64088  10.346   3.953   7.958 -0.0348 -0.2146  0.2534
  465MOL0     C64089  10.239   3.959   7.861 -0.4035  0.2920 -1.2764
  465MOL0     C64090  10.234   4.065   7.764 -0.3928  0.6625 -0.4690
  465MOL0     O64091  10.129   4.068   7.679  0.0345  0.2214 -0.1513
  465MOL0     C64092  10.134   4.161   7.566 -0.3408 -0.5946 -0.4861
  465MOL0     C64093  10.044   4.121   7.453  0.0151  0.5924  0.3552
  465MOL0     C64094  10.058   4.237   7.346  0.0119 -0.2864 -0.8495
  465MOL0     C64095   9.999   4.210   7.207 -0.8489  0.1835  0.6411
  465MOL0     C64096   9.979   4.313   7.110  0.7633  0.2731  0.1210
  465MOL0     C64097   9.944   4.384   7.021 -0.0043 -0.7279  0.5832
  465MOL0     C64098  10.346   4.152   7.759  0.2678 -1.0965 -0.0898
  465MOL0     C64099  10.465   4.137   7.825 -0.2492  0.1413 -0.6524
  465MOL0     C64100  10.583   4.226   7.798  0.7454  0.3495  0.1153
  465MOL0     H64101  10.818   3.769   7.997  2.6953  0.5879 -0.3520
  465MOL0     H64102  11.033   3.774   8.103  1.7814  1.8367 -0.1266
  465MOL0     H64103  11.227   3.939   8.166  1.6632  0.7702  0.2386
  465MOL0     H64104  11.232   3.783   8.212 -1.5436 -0.0925 -0.2092
  465MOL0     H64105  11.331   4.037   8.364  0.1296 -0.8377 -0.1615
  465MOL0     H64106  11.332   3.881   8.445 -2.6471  0.3133 -0.1825
  465MOL0     H64107  11.529   3.822   8.341  2.4178  0.8151  0.3229
  465MOL0     H64108  11.467   3.860   8.177 -3.4621 -1.4095  0.9306
  465MOL0     H64109  11.513   4.099   8.220  1.7871  1.7288  1.4978
  465MOL0     H64110  11.553   4.060   8.383 -0.8319 -2.0390  0.5791
  465MOL0     H64111  11.687   3.949   8.119 -0.0933 -1.3758  1.0326
  465MOL0     H64112  11.739   3.914   8.286  1.5853  1.3371  1.4325
  465MOL0     H64113  11.730   4.190   8.173 -1.4784  0.0781  2.6759
  465MOL0     H64114  11.808   4.135   8.325  0.6044  2.2837 -0.5735
  465MOL0     H64115  11.901   4.052   8.044 -1.9420  2.1219 -0.6908
  465MOL0     H64116  11.948   3.986   8.208 -3.6434 -1.3339 -0.3320
  465MOL0     H64117  12.012   4.281   8.121  1.9727  0.7802 -0.4102
  465MOL0     H64118  12.077   4.206   8.262  0.7122  1.9053 -0.7777
  465MOL0     H64119  12.177   3.910   8.172  1.4095  1.1137  2.0662
  465MOL0     H64120  12.336   3.771   8.017 -2.1081  1.7296  0.3128
  465MOL0     H64121  12.451   3.860   8.124  0.1682 -1.0127  0.7470
  465MOL0     H64122  12.549   3.961   7.910  2.0580 -0.4786  0.4515
  465MOL0     H64123  12.574   3.788   7.912 -0.0743  0.3172 -0.8775
  465MOL0     H64124  12.398   3.744   7.772  3.1092  0.5263  1.4101
  465MOL0     H64125  12.323   3.899   7.761 -1.0327 -1.1969 -1.8988
  465MOL0     H64126  12.436   3.876   7.558  0.1977  1.4195  0.4603
  465MOL0     H64127  12.500   4.009   7.655  2.7477  1.1752 -0.9256
  465MOL0     H64128  12.446   3.663   7.583  0.9988  0.8436  3.8259
  465MOL0     H64129  12.401   3.481   7.443 -1.9019 -0.7411 -0.0840
  465MOL0     H64130  12.413   3.360   7.579 -0.2143 -0.2569  0.0355
  465MOL0     H64131  12.497   3.333   7.417  2.3989  0.8930 -0.4682
  465MOL0     H64132  12.835   3.197   7.325 -1.2869 -0.4461  0.1812
  465MOL0     H64133  12.906   2.974   7.230 -1.5967  0.0816  0.3471
  465MOL0     H64134  13.214   2.771   7.406  0.2175  0.8755  0.1557
  465MOL0     H64135  13.106   2.647   7.472 -0.3587  0.0953 -0.4558
  465MOL0     H64136  13.076   2.552   7.231 -2.0805  1.4328  0.8823
  465MOL0     H64137  13.203   2.653   7.190 -1.4734  0.3888  0.2782
  465MOL0     H64138  13.246   2.399   7.267 -0.7005  1.5105 -0.5185
  465MOL0     H64139  13.200   2.453   7.420  0.4805  2.2034  1.0358
  465MOL0     H64140  13.418   2.624   7.397  0.3704  1.7364 -0.9936
  465MOL0     H64141  13.431   2.537   7.236 -2.5785  0.2202 -0.2572
  465MOL0     H64142  13.589   2.474   7.429  0.4625 -1.1736  0.5485
  465MOL0     H64143  13.439   2.410   7.500 -2.1877 -1.1895 -0.6735
  465MOL0     H64144  13.419   2.240   7.362 -0.9962  1.0319 -1.9315
  465MOL0     H64145  13.587   2.248   7.428  2.2400  1.6503 -0.9817
  465MOL0     H64146  13.682   2.325   7.229  1.1232 -0.0400 -1.6350
  465MOL0     H64147  13.525   2.360   7.163 -0.8962 -0.2673 -0.0948
  465MOL0     H64148  13.484   2.105   7.160  0.6398 -1.4957 -2.0071
  465MOL0     H64149  13.636   2.082   7.242 -0.2850  1.1589  1.6853
  465MOL0     H64150  13.024   2.852   7.609 -1.2224  1.8300  1.1060
  465MOL0     H64151  13.004   3.064   7.700  0.2315 -1.5818 -0.1643
  465MOL0     H64152  12.906   3.502   7.634  0.1386 -0.1303 -1.1318
  465MOL0     H64153  12.843   3.752   7.662 -1.1878  1.6961 -1.4135
  465MOL0     H64154  10.898   3.981   8.437 -0.6543  1.6491 -0.2783
  465MOL0     H64155  10.649   3.997   8.315 -0.9474  1.2380 -2.2061
  465MOL0     H64156  10.350   3.876   8.034 -0.7976 -0.8325 -0.3174
  465MOL0     H64157  10.151   3.896   7.869 -1.8722  2.4300  0.7466
  465MOL0     H64158  10.097   4.260   7.593  1.7441  0.1456 -0.1766
  465MOL0     H64159  10.236   4.160   7.527 -1.0777 -1.4138 -2.4792
  465MOL0     H64160   9.942   4.110   7.490 -0.5704  1.0423 -1.0533
  465MOL0     H64161  10.062   4.020   7.416 -1.7040 -0.9876  3.4598
  465MOL0     H64162  10.001   4.324   7.380 -1.5983 -0.1035 -3.6615
  465MOL0     H64163  10.157   4.279   7.331 -0.3739  0.3503 -1.7256
  465MOL0     H64164   9.911   4.145   7.213 -0.1202 -0.7425  2.3593
  465MOL0     H64165  10.074   4.153   7.152  2.3074  3.3855  1.2555
  465MOL0     H64166   9.939   4.441   6.930  2.8429 -1.0237  0.1441
  465MOL0     H64167  10.344   4.231   7.685  1.9990 -1.9378 -1.0757
  465MOL0     H64168  10.597   4.230   7.689 -1.9419  0.5587 -0.2761
  465MOL0     H64169  10.564   4.324   7.843  0.3705  0.5581 -0.4860
  465MOL0     H64170  10.678   4.181   7.829  2.4931  1.4939 -3.1056
  466MOL0     O64171   1.782  11.062   0.273  0.3421 -0.4161  0.0341
  466MOL0     C64172   1.761  10.940   0.265  0.0330  0.3040  0.1415
  466MOL0     O64173   1.801  10.844   0.357  0.5031  0.4085 -0.4775
  466MOL0     C64174   1.895  10.876   0.448  0.6126 -1.1596 -0.1466
  466MOL0     C64175   1.901  10.817   0.573 -0.1827 -0.3294 -0.2598
  466MOL0     C64176   2.018  10.835   0.650  0.1794  0.1612 -0.0877
  466MOL0     C64177   2.121  10.921   0.617 -0.1666 -0.0346  0.4233
  466MOL0     O64178   2.232  10.931   0.689 -0.3545  0.1681  0.0426
  466MOL0     C64179   2.358  10.976   0.637  0.2662 -0.8353  1.4026
  466MOL0     C64180   2.462  10.987   0.757  0.3085  0.1422  0.4798
  466MOL0     C64181   2.605  11.035   0.717  0.0810 -0.1693 -0.0826
  466MOL0     C64182   2.620  11.181   0.675  0.6653 -0.2399  0.8955
  466MOL0     C64183   2.761  11.232   0.675 -0.0780  0.2454  0.5310
  466MOL0     C64184   2.779  11.387   0.678 -0.0849 -0.0465 -0.1283
  466MOL0     C64185   2.919  11.431   0.669 -0.5651  0.7069 -0.8035
  466MOL0     C64186   2.945  11.588   0.647  0.0076  0.2135  0.2842
  466MOL0     N64187   3.080  11.637   0.691 -0.2678  0.0402 -0.0529
  466MOL0     C64188   3.183  11.560   0.744 -0.1359 -0.2986  0.5679
  466MOL0     C64189   3.288  11.645   0.752 -0.7205  0.8030 -0.3872
  466MOL0     C64190   3.428  11.590   0.770 -0.2390 -0.1515  0.3355
  466MOL0     C64191   3.545  11.694   0.754 -0.2820  0.0451 -0.1695
  466MOL0     C64192   3.691  11.629   0.754  0.7482  0.0192  0.6077
  466MOL0     C64193   3.787  11.711   0.672 -0.1659  0.6511 -0.2548
  466MOL0     O64194   3.923  11.658   0.680  0.4035 -0.7303  0.5586
  466MOL0     C64195   4.020  11.745   0.663 -0.3646 -0.7679  0.4680
  466MOL0     C64196   4.097  11.749   0.551  0.5177 -0.3632  0.2154
  466MOL0     C64197   4.193  11.851   0.534 -0.3856  0.0426 -0.0418
  466MOL0     C64198   4.237  11.862   0.393 -0.2170 -0.3795 -0.0645
  466MOL0     C64199   4.242  11.925   0.644 -0.2050  0.3634 -0.4992
  466MOL0     C64200   4.368  11.997   0.633 -0.5187  0.0775  0.4865
  466MOL0     O64201   4.462  11.965   0.532 -0.0522 -0.0625 -0.0248
  466MOL0     C64202   4.575  12.049   0.509 -0.0634 -0.8509 -0.3740
  466MOL0     C64203   4.678  12.052   0.596  0.0950  0.6999 -0.3539
  466MOL0     C64204   4.786  12.135   0.578 -0.7502 -0.1246  0.3570
  466MOL0     C64205   4.776  12.239   0.479  0.0075  0.0518 -0.4380
  466MOL0     O64206   4.867  12.332   0.451  0.3764  0.8442 -0.3426
  466MOL0     C64207   4.937  12.395   0.555 -0.7112  0.2369  0.4802
  466MOL0     C64208   4.934  12.543   0.533  0.0579 -0.4809 -0.1224
  466MOL0     C64209   5.028  12.629   0.628  0.5190  0.2631  0.1261
  466MOL0     C64210   5.091  12.761   0.571  0.4167  1.2285  0.5023
  466MOL0     C64211   5.104  12.866   0.674 -0.0542 -0.4749 -0.3232
  466MOL0     C64212   5.142  13.002   0.614  0.1011  0.7085  0.3977
  466MOL0     C64213   5.270  13.003   0.525 -0.3114  0.1898  0.2561
  466MOL0     C64214   5.381  12.958   0.621  0.4655 -0.1678  0.2065
  466MOL0    Cl64215   5.537  12.977   0.535 -0.3841  0.3088 -0.0500
  466MOL0     C64216   4.670  12.239   0.396 -0.0703  0.6352  0.3459
  466MOL0     C64217   4.565  12.146   0.409  0.5842 -0.2892 -0.1163
  466MOL0     O64218   4.374  12.090   0.710 -0.5227 -0.2506  0.1581
  466MOL0     C64219   4.174  11.911   0.765  0.1307 -0.3978  0.4155
  466MOL0     C64220   4.057  11.826   0.765 -0.8469 -0.0126 -0.0828
  466MOL0     N64221   3.252  11.774   0.716 -0.7462  0.2675 -0.6927
  466MOL0     N64222   3.128  11.765   0.672 -0.1554  0.0199  0.4607
  466MOL0     C64223   2.102  10.996   0.500  0.2013  0.6066  0.5411
  466MOL0     C64224   1.993  10.964   0.417 -0.1729 -0.3550 -0.7927
  466MOL0     C64225   1.678  10.902   0.153 -0.5605  0.0815 -0.2845
  466MOL0     C64226   1.546  10.956   0.134  0.4842  0.8088 -0.6504
  466MOL0     C64227   1.463  10.894   0.036 -0.1671 -0.6173  0.4213
  466MOL0     C64228   1.507  10.790  -0.050 -0.1692 -0.8050  0.4887
  466MOL0     O64229   1.416  10.743  -0.147  0.1488 -0.4674  0.3731
  466MOL0     C64230   1.435  10.605  -0.212 -0.2811 -0.8354 -0.9596
  466MOL0     C64231   1.306  10.552  -0.266 -0.1529  0.2689 -0.0397
  466MOL0     C64232   1.258  10.639  -0.391 -0.1553  0.1974 -0.3033
  466MOL0     C64233   1.128  10.599  -0.450  0.5356 -0.0170  1.0272
  466MOL0     C64234   1.019  10.612  -0.349 -0.1644 -0.3069 -1.0363
  466MOL0     C64235   0.934  10.639  -0.263 -0.4334 -0.7592  0.3331
  466MOL0     C64236   1.641  10.743  -0.034 -1.0777 -0.1466 -0.6852
  466MOL0     C64237   1.731  10.802   0.062  1.1005 -1.3170  0.1385
  466MOL0     C64238   1.876  10.770   0.052  0.1308  0.6651  0.2788
  466MOL0     H64239   1.831  10.735   0.590  3.1998 -3.5188 -0.5015
  466MOL0     H64240   2.010  10.785   0.746 -0.1840  3.0479  1.5077
  466MOL0     H64241   2.340  11.077   0.599  1.9527 -1.0576 -0.1166
  466MOL0     H64242   2.394  10.908   0.558  3.2537  2.4433 -0.3428
  466MOL0     H64243   2.418  11.050   0.835  0.8281  0.9210  0.1564
  466MOL0     H64244   2.471  10.883   0.789 -0.4988 -0.0839 -0.0153
  466MOL0     H64245   2.647  11.017   0.816 -2.0294 -1.2498  0.6852
  466MOL0     H64246   2.660  10.975   0.644  1.4741  2.5083 -1.3636
  466MOL0     H64247   2.590  11.206   0.573  1.9878 -0.4340  0.4302
  466MOL0     H64248   2.564  11.241   0.747 -0.2705 -0.3886  0.3085
  466MOL0     H64249   2.808  11.176   0.594 -1.3672 -1.2803  0.7715
  466MOL0     H64250   2.806  11.191   0.765  1.1679  0.0917 -0.1516
  466MOL0     H64251   2.718  11.423   0.595  0.0059  1.0133  0.2433
  466MOL0     H64252   2.742  11.423   0.774  2.3298  2.0371  0.1420
  466MOL0     H64253   2.970  11.381   0.586  0.0413 -0.2491  0.1145
  466MOL0     H64254   2.965  11.405   0.765 -2.0995 -0.7027 -0.3938
  466MOL0     H64255   2.924  11.614   0.542 -1.5419 -1.9398 -0.0144
  466MOL0     H64256   2.880  11.643   0.717  1.0678  1.0329  0.6509
  466MOL0     H64257   3.190  11.454   0.763 -1.3219 -0.5838 -0.4414
  466MOL0     H64258   3.447  11.512   0.696  0.4336  0.2518  0.0722
  466MOL0     H64259   3.436  11.543   0.869 -0.5282  0.2460  0.5518
  466MOL0     H64260   3.527  11.755   0.665  1.4901  0.9437  0.0476
  466MOL0     H64261   3.545  11.756   0.844  0.3568  0.6000 -0.5526
  466MOL0     H64262   3.717  11.629   0.860 -0.8079  0.7680  1.0098
  466MOL0     H64263   3.695  11.523   0.728 -0.7238  0.1815 -0.4709
  466MOL0     H64264   3.753  11.713   0.568 -0.0955 -2.7414 -0.4713
  466MOL0     H64265   3.790  11.811   0.714  2.0882 -1.1410  4.5788
  466MOL0     H64266   4.073  11.695   0.461  0.1948  0.1404 -0.0037
  466MOL0     H64267   4.169  11.812   0.324 -1.9632  1.0857  0.5205
  466MOL0     H64268   4.337  11.819   0.381  0.0803 -0.3189  1.8233
  466MOL0     H64269   4.239  11.969   0.374  0.7491 -0.3875 -0.0676
  466MOL0     H64270   4.676  11.980   0.677  1.1734  2.2510  1.1108
  466MOL0     H64271   4.862  12.138   0.656  2.7823 -0.6970 -2.8004
  466MOL0     H64272   4.892  12.388   0.655 -0.8278  0.6999  0.4610
  466MOL0     H64273   5.036  12.349   0.553  0.5880  2.6482 -3.6247
  466MOL0     H64274   4.965  12.576   0.434  2.8882 -1.6081  0.3056
  466MOL0     H64275   4.827  12.567   0.541  0.6813  2.0529  1.6659
  466MOL0     H64276   5.112  12.564   0.653 -2.1148 -2.9410  1.4138
  466MOL0     H64277   4.981  12.640   0.726  0.1368  1.2875 -0.1612
  466MOL0     H64278   5.019  12.803   0.499 -2.0446  1.1428  2.7546
  466MOL0     H64279   5.188  12.740   0.526 -0.9952  0.9678 -2.7367
  466MOL0     H64280   5.009  12.875   0.728 -1.1392  4.1843 -2.5950
  466MOL0     H64281   5.179  12.831   0.746  0.8171 -0.3213 -1.1458
  466MOL0     H64282   5.161  13.064   0.702  1.6681  1.7134 -0.5850
  466MOL0     H64283   5.051  13.027   0.559  0.9292  0.8884 -0.9362
  466MOL0     H64284   5.284  13.104   0.484 -2.2168 -0.3072 -1.8126
  466MOL0     H64285   5.244  12.932   0.446 -0.7867 -0.4531  0.9727
  466MOL0     H64286   5.371  12.857   0.662 -0.0846 -0.5316 -0.7759
  466MOL0     H64287   5.391  13.028   0.705  0.3459  3.8628 -2.8130
  466MOL0     H64288   4.665  12.321   0.325  0.8508 -0.5978 -1.2011
  466MOL0     H64289   4.477  12.155   0.346  0.3305  0.4867  0.3345
  466MOL0     H64290   4.203  11.976   0.847  0.2888  1.0792 -0.7649
  466MOL0     H64291   4.004  11.813   0.859  1.2585 -1.8917  0.9449
  466MOL0     H64292   2.165  11.073   0.458 -0.3730  2.1998  2.4318
  466MOL0     H64293   2.000  11.016   0.321  1.3351 -1.9030 -1.5787
  466MOL0     H64294   1.505  11.041   0.186 -2.3749  0.7504 -2.5825
  466MOL0     H64295   1.363  10.936   0.040  1.0344  2.6040 -0.5409
  466MOL0     H64296   1.509  10.602  -0.293 -0.1366  0.0163 -0.8641
  466MOL0     H64297   1.475  10.535  -0.138  2.3539  0.9918 -0.5138
  466MOL0     H64298   1.223  10.539  -0.197 -1.5304 -0.6903 -1.7691
  466MOL0     H64299   1.336  10.457  -0.312 -1.2092 -0.1397  0.0918
  466MOL0     H64300   1.247  10.737  -0.346 -0.8817  0.0492 -0.1420
  466MOL0     H64301   1.338  10.637  -0.466  2.9126  2.1034  2.6413
  466MOL0     H64302   1.139  10.498  -0.490 -0.6467  0.1240  0.3093
  466MOL0     H64303   1.101  10.684  -0.513 -0.3136  1.1164  2.8208
  466MOL0     H64304   0.853  10.672  -0.202 -0.0353  1.5359 -0.2784
  466MOL0     H64305   1.693  10.673  -0.098 -0.1279 -1.9863  1.9231
  466MOL0     H64306   1.894  10.684  -0.013  0.8550  0.8703  0.2006
  466MOL0     H64307   1.922  10.865   0.021 -3.1361  2.8015  1.4213
  466MOL0     H64308   1.922  10.746   0.148  1.0199 -0.9887 -0.5335
  467MOL0     O64309  11.136   0.438   6.039  0.7647 -0.0767  0.2287
  467MOL0     C64310  11.185   0.537   5.984 -0.1399  0.1357 -0.1785
  467MOL0     O64311  11.143   0.587   5.866 -0.3794 -0.0196 -0.7002
  467MOL0     C64312  11.026   0.544   5.812 -0.0796  0.2715 -0.3654
  467MOL0     C64313  11.005   0.564   5.675 -0.4006 -0.7649  0.5066
  467MOL0     C64314  10.895   0.518   5.612  0.2287 -0.7116  1.3019
  467MOL0     C64315  10.787   0.476   5.685  0.3280 -0.2824  0.2427
  467MOL0     O64316  10.674   0.433   5.616  0.0580 -0.0323 -0.2634
  467MOL0     C64317  10.575   0.359   5.689  0.3384 -0.9092  0.4426
  467MOL0     C64318  10.449   0.337   5.595 -0.0655 -0.1028 -0.1524
  467MOL0     C64319  10.353   0.225   5.629  0.3555 -0.0443 -0.5531
  467MOL0     C64320  10.236   0.192   5.533  0.0096 -0.9288 -0.2991
  467MOL0     C64321  10.152   0.319   5.514 -0.2744  0.0731  0.1604
  467MOL0     C64322  10.017   0.293   5.458  0.0551  0.5560  0.6290
  467MOL0     C64323   9.917   0.405   5.475  0.6396  0.5569  0.1110
  467MOL0     C64324   9.774   0.356   5.449  0.0121  0.0739 -0.5079
  467MOL0     N64325   9.722   0.260   5.549 -0.0179 -0.6219  0.2506
  467MOL0     C64326   9.708   0.259   5.686  0.5352  0.2364  0.4572
  467MOL0     C64327   9.665   0.135   5.717  0.0125  0.1896 -0.3307
  467MOL0     C64328   9.649   0.069   5.853 -0.4767 -0.1231 -0.5152
  467MOL0     C64329   9.778   0.051   5.932 -0.5471 -0.4125  0.9965
  467MOL0     C64330   9.846   0.176   5.981  0.9169 -0.9270  0.0775
  467MOL0     C64331   9.954   0.146   6.085 -0.1184  0.3981  0.0503
  467MOL0     O64332  10.073   0.100   6.013  0.9592 -0.3319 -0.9358
  467MOL0     C64333  10.196   0.136   6.065  0.4720 -0.8993  0.3476
  467MOL0     C64334  10.222   0.169   6.197  0.1595  0.8315 -0.1365
  467MOL0     C64335  10.346   0.184   6.244 -0.6905  0.4208 -0.3466
  467MOL0     C64336  10.364   0.225   6.397  1.2074 -0.2760  0.8845
  467MOL0     C64337  10.459   0.152   6.153 -0.1231  0.0335  0.4910
  467MOL0     C64338  10.601   0.185   6.179  0.6063  0.3919 -1.0692
  467MOL0     O64339  10.695   0.165   6.076  0.0531 -0.1271 -0.2410
  467MOL0     C64340  10.831   0.164   6.095 -0.1369  0.8303 -0.1383
  467MOL0     C64341  10.892   0.122   6.216 -0.2810  0.0517  0.7814
  467MOL0     C64342  11.026   0.088   6.233  0.1919 -0.9343  0.5347
  467MOL0     C64343  11.107   0.104   6.127  0.9290  0.6773 -0.2454
  467MOL0     O64344  11.238   0.075   6.137  0.5042  0.3099  0.3817
  467MOL0     C64345  11.313   0.032   6.021 -0.0148  0.3246 -0.2304
  467MOL0     C64346  11.454   0.001   6.064  0.7930  0.2806  0.7580
  467MOL0     C64347  11.524   0.129   6.103 -0.0010 -0.0037  0.4461
  467MOL0     C64348  11.676   0.109   6.139 -0.7099  0.4227  0.0484
  467MOL0     C64349  11.738   0.232   6.207 -0.2229 -0.3575 -0.5674
  467MOL0     C64350  11.887   0.215   6.232 -0.3103 -0.7345 -0.5907
  467MOL0     C64351  11.941   0.351   6.272  0.5641  0.3562 -0.4920
  467MOL0     C64352  12.096   0.357   6.277 -1.0785 -0.0400  0.4606
  467MOL0    Cl64353  12.164   0.243   6.388  0.2737 -0.0103 -0.4908
  467MOL0     C64354  11.051   0.156   6.007  1.0501 -1.2190 -0.5969
  467MOL0     C64355  10.914   0.175   5.991 -0.6304 -0.6694 -0.4083
  467MOL0     O64356  10.624   0.223   6.296  0.5944  0.3451  0.0593
  467MOL0     C64357  10.426   0.113   6.026 -0.3152 -0.3261 -0.7294
  467MOL0     C64358  10.298   0.112   5.978 -0.6364  0.2800  0.3071
  467MOL0     N64359   9.656   0.052   5.608 -0.1704  0.6131 -0.2350
  467MOL0     N64360   9.679   0.137   5.514 -0.5186  1.0089  0.0075
  467MOL0     C64361  10.793   0.471   5.828  1.0264 -0.5668 -0.6695
  467MOL0     C64362  10.912   0.500   5.885 -0.4508 -0.6241  0.2793
  467MOL0     C64363  11.301   0.600   6.058 -0.6421 -0.2974 -1.5370
  467MOL0     C64364  11.345   0.532   6.180  0.1680 -0.1569  0.6737
  467MOL0     C64365  11.450   0.570   6.263 -0.3926  0.0007 -0.2723
  467MOL0     C64366  11.527   0.678   6.213 -0.3573 -0.0645  0.2367
  467MOL0     O64367  11.654   0.717   6.254 -0.8456  0.3789 -0.4949
  467MOL0     C64368  11.716   0.651   6.373  0.5182 -0.2327  1.0090
  467MOL0     C64369  11.840   0.735   6.400  0.3631  0.5781 -0.6906
  467MOL0     C64370  11.938   0.737   6.282  0.6225  0.1976 -0.0918
  467MOL0     C64371  12.065   0.810   6.311 -0.3767  0.6273 -0.1261
  467MOL0     C64372  12.143   0.741   6.410 -0.8001  0.1689  0.3938
  467MOL0     C64373  12.214   0.676   6.482 -0.8160  0.6572  0.5549
  467MOL0     C64374  11.481   0.756   6.098 -0.0071 -0.0991 -0.6746
  467MOL0     C64375  11.371   0.720   6.021  0.7657  0.4383 -0.4428
  467MOL0     C64376  11.343   0.810   5.907  0.2658  0.4023 -0.8478
  467MOL0     H64377  11.092   0.595   5.618  0.3359 -0.8263  1.5597
  467MOL0     H64378  10.896   0.507   5.504  1.4492 -3.8232  1.5329
  467MOL0     H64379  10.542   0.419   5.775 -5.0662 -1.3784 -0.9269
  467MOL0     H64380  10.619   0.271   5.735  0.6593 -0.0987  1.7373
  467MOL0     H64381  10.388   0.427   5.586 -0.0265 -0.0061  0.5202
  467MOL0     H64382  10.472   0.314   5.490 -0.7657  1.5014 -0.6848
  467MOL0     H64383  10.407   0.129   5.628 -1.0682 -0.8756 -0.3017
  467MOL0     H64384  10.315   0.239   5.730  2.1914 -0.2787  0.2235
  467MOL0     H64385  10.270   0.170   5.431  0.0667  2.3075 -1.0844
  467MOL0     H64386  10.179   0.106   5.571 -0.5630 -0.0998  0.7573
  467MOL0     H64387  10.210   0.384   5.447 -1.5167 -0.5224 -1.5621
  467MOL0     H64388  10.143   0.379   5.605  2.3080  0.5618  0.1613
  467MOL0     H64389  10.026   0.251   5.358 -1.7398  0.2046  0.5960
  467MOL0     H64390   9.972   0.212   5.516  0.8207  0.0190  0.4895
  467MOL0     H64391   9.946   0.477   5.398  2.9626  0.9815  1.3141
  467MOL0     H64392   9.926   0.462   5.568 -0.0479  0.6717  0.1153
  467MOL0     H64393   9.702   0.438   5.456 -1.7747 -1.4914  0.0474
  467MOL0     H64394   9.771   0.301   5.355 -1.3853 -0.8032  0.0224
  467MOL0     H64395   9.744   0.331   5.759 -5.1245  2.1698  1.8330
  467MOL0     H64396   9.596  -0.026   5.841  0.9720 -0.6674 -3.6265
  467MOL0     H64397   9.575   0.130   5.906 -0.7842 -0.6558 -0.3260
  467MOL0     H64398   9.744  -0.000   6.022  0.3008 -1.7118  0.5950
  467MOL0     H64399   9.848  -0.012   5.876  0.4164  0.5704  1.0584
  467MOL0     H64400   9.899   0.226   5.898  0.5748 -0.2457  0.2607
  467MOL0     H64401   9.782   0.252   6.026 -0.1858 -2.3087  0.9093
  467MOL0     H64402   9.965   0.237   6.145  0.1938 -0.4243  1.2548
  467MOL0     H64403   9.927   0.065   6.153 -0.8987  0.0625 -0.6464
  467MOL0     H64404  10.135   0.201   6.253  0.7454  1.6682  0.3244
  467MOL0     H64405  10.421   0.318   6.397 -1.3715  1.4043  0.6437
  467MOL0     H64406  10.397   0.138   6.455  1.3627 -1.7520 -1.2895
  467MOL0     H64407  10.272   0.252   6.450  0.6092  2.1231 -1.2326
  467MOL0     H64408  10.830   0.112   6.305 -0.2919 -0.0456  0.7624
  467MOL0     H64409  11.068   0.052   6.327 -0.5208 -4.5432 -0.4043
  467MOL0     H64410  11.269  -0.060   5.981  1.6298 -1.1747  1.2358
  467MOL0     H64411  11.318   0.110   5.944 -1.6815 -0.0260 -0.7297
  467MOL0     H64412  11.447  -0.069   6.148  2.6901  0.6890  1.2850
  467MOL0     H64413  11.499  -0.047   5.977 -1.0078  1.2564 -0.7891
  467MOL0     H64414  11.478   0.175   6.191 -0.6063  2.9519 -1.2481
  467MOL0     H64415  11.508   0.202   6.022  2.0023  1.9113  1.6641
  467MOL0     H64416  11.730   0.079   6.048  1.5475  1.0243  1.1208
  467MOL0     H64417  11.689   0.030   6.213  1.1538  0.1269 -0.5297
  467MOL0     H64418  11.713   0.319   6.146 -1.0033 -1.9487 -2.6268
  467MOL0     H64419  11.694   0.239   6.307  0.6856 -0.2916 -0.1594
  467MOL0     H64420  11.934   0.187   6.137 -0.3041 -1.9173 -0.2566
  467MOL0     H64421  11.902   0.143   6.313  1.1148  1.8171  1.5619
  467MOL0     H64422  11.916   0.369   6.377 -2.4693  0.6374 -1.1611
  467MOL0     H64423  11.893   0.428   6.210  1.2610  2.8667  1.8965
  467MOL0     H64424  12.118   0.460   6.308 -1.5819  0.0656  0.4667
  467MOL0     H64425  12.135   0.355   6.175 -0.0056  0.3446  0.8474
  467MOL0     H64426  11.125   0.181   5.931  1.6002 -1.7280 -0.2315
  467MOL0     H64427  10.882   0.205   5.892  3.0149 -2.5300 -2.3538
  467MOL0     H64428  10.505   0.083   5.958 -0.4498 -1.0894 -0.5676
  467MOL0     H64429  10.283   0.059   5.884 -0.2705  1.9105 -0.6948
  467MOL0     H64430  10.712   0.438   5.892  1.1171 -0.6407 -0.5907
  467MOL0     H64431  10.899   0.500   5.992 -2.6739  0.8751  0.0999
  467MOL0     H64432  11.301   0.436   6.205 -1.7219  0.3621 -0.4240
  467MOL0     H64433  11.492   0.497   6.331 -1.5426 -1.0005 -0.5905
  467MOL0     H64434  11.645   0.656   6.456  1.6033  2.0428  1.8980
  467MOL0     H64435  11.743   0.545   6.366 -0.8421 -0.7999  3.2395
  467MOL0     H64436  11.895   0.689   6.483  0.1706 -0.2743 -1.0215
  467MOL0     H64437  11.803   0.836   6.416 -0.3837  0.3254 -0.7655
  467MOL0     H64438  11.949   0.636   6.240 -1.5329 -0.0163 -0.2212
  467MOL0     H64439  11.899   0.797   6.200  0.6689  3.0464  1.8246
  467MOL0     H64440  12.052   0.916   6.333  0.1715  0.8738 -0.9251
  467MOL0     H64441  12.111   0.824   6.213 -2.3185 -0.0752 -1.1892
  467MOL0     H64442  12.270   0.611   6.546 -0.9518  1.4228  1.4808
  467MOL0     H64443  11.543   0.843   6.079 -1.5752  1.2330  0.0737
  467MOL0     H64444  11.399   0.901   5.929  0.1812 -0.4658  3.9180
  467MOL0     H64445  11.383   0.768   5.815  1.4763 -1.8552  0.6259
  467MOL0     H64446  11.238   0.834   5.885  0.3832 -0.3099 -2.2835
  468MOL0     O64447  11.229   8.825  10.035  0.6304 -0.6849 -0.8519
  468MOL0     C64448  11.340   8.786  10.052 -0.2090 -0.0439  0.3677
  468MOL0     O64449  11.368   8.654  10.091  0.2397  0.2704  0.3720
  468MOL0     C64450  11.259   8.568  10.097 -1.1181  0.6519  1.0872
  468MOL0     C64451  11.167   8.570  10.210 -1.2042  0.4990  0.3319
  468MOL0     C64452  11.066   8.482  10.213 -0.3649 -0.5070 -0.3132
  468MOL0     C64453  11.046   8.390  10.111  0.6425  0.3662  0.2047
  468MOL0     O64454  10.955   8.289  10.113  0.6382 -0.2281  0.3232
  468MOL0     C64455  10.832   8.305  10.177  0.1846  0.1811  0.0036
  468MOL0     C64456  10.755   8.441  10.127  0.7356 -0.0647 -1.1817
  468MOL0     C64457  10.607   8.441  10.182  0.7574 -0.2617  0.4556
  468MOL0     C64458  10.511   8.338  10.114  0.1849 -1.3080 -0.5104
  468MOL0     C64459  10.362   8.341  10.172  0.0672  0.1016  1.0635
  468MOL0     C64460  10.280   8.269  10.085  0.4385 -0.5941 -0.0323
  468MOL0     C64461  10.128   8.272  10.107 -0.4056  0.6576 -1.2782
  468MOL0     C64462  10.086   8.211  10.250  0.1752 -0.4365  0.8165
  468MOL0     N64463   9.945   8.178  10.263 -0.3717 -0.6245  0.1256
  468MOL0     C64464   9.895   8.057  10.296 -0.6138  0.1630  0.9491
  468MOL0     C64465   9.771   8.056  10.250  0.0099 -0.5831 -0.5430
  468MOL0     C64466   9.682   7.938  10.254 -0.3216 -0.1569  0.1095
  468MOL0     C64467   9.553   7.951  10.178  0.0623  0.3211 -0.0249
  468MOL0     C64468   9.461   7.837  10.182  0.3832  0.7669 -0.2116
  468MOL0     C64469   9.334   7.853  10.097 -1.0414  0.2800 -0.3037
  468MOL0     O64470   9.360   7.867   9.949  0.1560  0.3291 -0.2048
  468MOL0     C64471   9.261   7.868   9.859  0.5149 -0.0487 -0.2712
  468MOL0     C64472   9.125   7.832   9.882 -0.7260  0.1577  0.0942
  468MOL0     C64473   9.030   7.831   9.782 -0.5784 -1.2515 -0.4760
  468MOL0     C64474   8.894   7.763   9.810  0.3989  0.1756 -0.2057
  468MOL0     C64475   9.073   7.872   9.650  0.5117  1.0776 -0.0589
  468MOL0     C64476   8.984   7.874   9.533 -0.9148  0.0305  0.9562
  468MOL0     O64477   8.854   7.830   9.549 -0.3802 -0.5061  0.1184
  468MOL0     C64478   8.781   7.843   9.442 -0.1543  0.4298 -0.0712
  468MOL0     C64479   8.706   7.954   9.415 -0.6683  0.4238  0.3350
  468MOL0     C64480   8.629   7.967   9.300 -0.0995  0.2624  0.8474
  468MOL0     C64481   8.630   7.862   9.205 -0.3421 -0.9735  0.2095
  468MOL0     O64482   8.564   7.863   9.090  0.2640  0.2265 -0.0404
  468MOL0     C64483   8.559   7.988   9.028  0.0898  1.0807  0.5483
  468MOL0     C64484   8.515   7.986   8.883  0.2881 -0.8479  0.0353
  468MOL0     C64485   8.372   7.921   8.862 -0.1080  0.0195  0.1164
  468MOL0     C64486   8.310   7.973   8.734  0.9865  0.9020 -0.4172
  468MOL0     C64487   8.188   7.884   8.695 -0.6188  0.7051 -0.8156
  468MOL0     C64488   8.228   7.775   8.588 -0.3268  0.2512 -0.1607
  468MOL0     C64489   8.121   7.679   8.557  0.3554 -0.2272  0.3654
  468MOL0     C64490   8.147   7.582   8.437 -0.3622  0.6091 -0.7113
  468MOL0    Cl64491   8.184   7.669   8.287  0.3243  0.3502  0.0145
  468MOL0     C64492   8.701   7.741   9.237  0.1898  0.5550  0.7475
  468MOL0     C64493   8.765   7.729   9.361 -0.9643  0.1829  0.2259
  468MOL0     O64494   9.045   7.891   9.424 -0.0341 -0.3786  0.8550
  468MOL0     C64495   9.201   7.918   9.633 -0.2596 -0.1249 -0.4846
  468MOL0     C64496   9.299   7.910   9.739  0.4068 -0.7076  0.5209
  468MOL0     N64497   9.742   8.185  10.205 -0.0194  0.3498  0.0148
  468MOL0     N64498   9.854   8.250  10.199 -0.1218  0.3405 -0.5444
  468MOL0     C64499  11.135   8.391   9.999  0.5545  0.5145 -0.5883
  468MOL0     C64500  11.251   8.474   9.994 -0.0743  0.6466  0.1209
  468MOL0     C64501  11.450   8.872  10.015  0.6698  0.1846  0.3264
  468MOL0     C64502  11.572   8.812   9.981 -0.3946  0.3224 -0.6704
  468MOL0     C64503  11.682   8.886   9.948  0.7344 -0.3039  0.9339
  468MOL0     C64504  11.685   9.023   9.955  0.3124  0.1398  0.0607
  468MOL0     O64505  11.804   9.097   9.969  0.0196  0.4458 -0.0355
  468MOL0     C64506  11.822   9.189   9.859  0.7332 -0.3681  0.4517
  468MOL0     C64507  11.901   9.122   9.745  0.0210  0.8503 -0.2953
  468MOL0     C64508  12.058   9.142   9.740  0.0952 -0.1723 -0.2707
  468MOL0     C64509  12.103   9.090   9.599  0.2073  0.4683  0.1127
  468MOL0     C64510  12.084   8.941   9.585 -0.6120 -0.3906 -1.3622
  468MOL0     C64511  12.092   8.818   9.582  0.8315 -0.6267  0.1897
  468MOL0     C64512  11.559   9.089   9.973 -0.1162  0.2165 -0.5235
  468MOL0     C64513  11.439   9.015   9.997 -0.3256  0.2374 -0.0357
  468MOL0     C64514  11.319   9.097  10.012  0.7543  0.0450 -0.3253
  468MOL0     H64515  11.194   8.643  10.286  1.5850  0.6709 -0.6984
  468MOL0     H64516  11.011   8.481  10.307  0.8542  0.2739  0.4245
  468MOL0     H64517  10.856   8.294  10.283  0.9408 -2.8739 -0.3865
  468MOL0     H64518  10.767   8.218  10.162  2.5113 -1.4501 -1.3374
  468MOL0     H64519  10.806   8.524  10.175  1.8281 -2.1119  1.4371
  468MOL0     H64520  10.771   8.461  10.020  4.0410  2.5935 -0.3584
  468MOL0     H64521  10.605   8.424  10.290  1.8071  0.9652  0.6948
  468MOL0     H64522  10.573   8.544  10.166  3.8884  1.0276  1.2733
  468MOL0     H64523  10.511   8.374  10.011 -2.7649  0.8035  0.0848
  468MOL0     H64524  10.564   8.244  10.101  3.6191  0.8143 -3.8508
  468MOL0     H64525  10.341   8.447  10.161  2.7747  0.4922 -2.0772
  468MOL0     H64526  10.349   8.311  10.277 -1.3122 -4.4667 -0.1578
  468MOL0     H64527  10.288   8.312   9.985  1.5447 -1.7913 -0.4877
  468MOL0     H64528  10.324   8.169  10.079  2.3380  0.2456 -0.8334
  468MOL0     H64529  10.066   8.219  10.035 -1.5248 -0.4172  0.3998
  468MOL0     H64530  10.098   8.376  10.088  0.2688  0.6501 -2.4720
  468MOL0     H64531  10.142   8.118  10.262  4.4321  1.4272 -1.9881
  468MOL0     H64532  10.116   8.287  10.323 -1.0516  2.9845 -1.9134
  468MOL0     H64533   9.942   7.970  10.341  3.1916  0.7147 -1.4694
  468MOL0     H64534   9.658   7.918  10.359 -0.4403  0.2551  0.1639
  468MOL0     H64535   9.743   7.853  10.223  2.9807  1.5082  1.5275
  468MOL0     H64536   9.505   8.036  10.229  3.1559  1.2409  1.6100
  468MOL0     H64537   9.572   7.971  10.073  2.0157  0.2957  0.2836
  468MOL0     H64538   9.518   7.747  10.158  4.4177  1.3121  5.2511
  468MOL0     H64539   9.434   7.833  10.288 -1.8721  2.5591 -0.6309
  468MOL0     H64540   9.271   7.766  10.116 -0.5489  0.1590  0.8133
  468MOL0     H64541   9.285   7.945  10.129  3.2406  2.4257  0.8914
  468MOL0     H64542   9.087   7.815   9.982  0.4007  1.0687  0.6872
  468MOL0     H64543   8.880   7.671   9.753  1.4077 -2.0539  2.8546
  468MOL0     H64544   8.815   7.833   9.781 -0.9039 -0.4060  1.7257
  468MOL0     H64545   8.881   7.729   9.913  2.0143 -0.3880 -0.1557
  468MOL0     H64546   8.721   8.044   9.474  0.6741 -0.0032  0.6727
  468MOL0     H64547   8.574   8.060   9.287 -0.1730  0.2115  0.7990
  468MOL0     H64548   8.496   8.051   9.092  1.7863  3.1349  0.3259
  468MOL0     H64549   8.656   8.038   9.037  2.1610 -2.2870 -1.0224
  468MOL0     H64550   8.512   8.085   8.838  1.6057 -0.3917  0.9041
  468MOL0     H64551   8.595   7.934   8.829  1.3717 -0.8345  1.5639
  468MOL0     H64552   8.316   7.926   8.956  0.2303  0.3875  0.3034
  468MOL0     H64553   8.381   7.817   8.829 -3.1969 -0.0214 -0.8710
  468MOL0     H64554   8.383   7.968   8.653  1.7809 -2.4532  0.3593
  468MOL0     H64555   8.278   8.076   8.755 -3.1688  0.0345 -1.4796
  468MOL0     H64556   8.146   7.840   8.786 -0.4619 -0.4777 -1.3004
  468MOL0     H64557   8.106   7.944   8.655  1.4617  4.1126 -0.4530
  468MOL0     H64558   8.315   7.721   8.626  1.5705  2.8427 -0.4977
  468MOL0     H64559   8.262   7.830   8.499  1.5165  1.8294  1.4268
  468MOL0     H64560   8.031   7.738   8.536 -0.7320 -0.2027  4.3099
  468MOL0     H64561   8.110   7.618   8.647 -1.4688 -3.1693 -1.6586
  468MOL0     H64562   8.067   7.507   8.432 -1.6828  1.3710  4.1145
  468MOL0     H64563   8.240   7.530   8.464 -2.1833 -2.4814  0.0479
  468MOL0     H64564   8.678   7.657   9.172  0.2333  0.7394  0.4921
  468MOL0     H64565   8.799   7.629   9.388  0.2845 -0.1543 -2.3185
  468MOL0     H64566   9.247   7.959   9.543  1.9769 -1.0925  0.1389
  468MOL0     H64567   9.399   7.945   9.715 -0.8466  0.7684 -3.2318
  468MOL0     H64568  11.116   8.312   9.927  1.2291  0.3916 -0.6403
  468MOL0     H64569  11.335   8.467   9.925  0.3515 -2.2641  0.7998
  468MOL0     H64570  11.582   8.704   9.977 -2.3119  0.1241 -0.7131
  468MOL0     H64571  11.783   8.850   9.928  1.2456  2.1009 -1.3350
  468MOL0     H64572  11.726   9.214   9.813  1.0048  1.9253  0.9797
  468MOL0     H64573  11.866   9.287   9.882 -0.1121 -0.5031  2.8654
  468MOL0     H64574  11.861   9.168   9.654  0.1974 -1.1513 -1.4470
  468MOL0     H64575  11.875   9.017   9.757  0.5085  0.6982 -0.5653
  468MOL0     H64576  12.089   9.246   9.745  1.4673 -0.6043  0.7926
  468MOL0     H64577  12.110   9.092   9.822 -0.4657 -0.9039 -0.3453
  468MOL0     H64578  12.205   9.121   9.575  0.9692 -0.3837  2.0132
  468MOL0     H64579  12.042   9.143   9.526  1.9771  0.8631 -1.1365
  468MOL0     H64580  12.109   8.713   9.576  0.5759 -0.6073 -1.1309
  468MOL0     H64581  11.553   9.197   9.977  1.2915  0.2808  1.6692
  468MOL0     H64582  11.231   9.057   9.962  0.6861  0.0707 -0.2256
  468MOL0     H64583  11.297   9.093  10.119  3.1766  0.7447  0.2655
  468MOL0     H64584  11.340   9.201   9.987  0.6223  1.0985  3.3779
  469MOL0     O64585   6.911  10.673   9.733  0.5356 -0.5707  0.3376
  469MOL0     C64586   6.822  10.756   9.748 -0.4328  0.0900 -1.0970
  469MOL0     O64587   6.852  10.888   9.786 -0.0040  0.0977  0.1830
  469MOL0     C64588   6.985  10.930   9.769  1.0782  0.2434  0.1579
  469MOL0     C64589   7.038  10.928   9.637 -0.8161 -0.3161  0.3941
  469MOL0     C64590   7.176  10.961   9.619 -0.4979 -0.3464 -0.3704
  469MOL0     C64591   7.263  10.978   9.734  0.8765 -0.3554 -0.5227
  469MOL0     O64592   7.398  10.983   9.714  0.4716  0.0332 -0.0261
  469MOL0     C64593   7.450  11.101   9.758  0.1702 -0.4245 -0.9258
  469MOL0     C64594   7.598  11.091   9.762 -1.2504  0.4056 -0.7970
  469MOL0     C64595   7.653  10.969   9.833  0.1426  0.1436  0.5096
  469MOL0     C64596   7.805  10.972   9.845 -0.6096  0.8391 -0.5044
  469MOL0     C64597   7.860  10.861   9.936 -0.5218  0.0542 -0.1014
  469MOL0     C64598   7.835  10.722   9.876 -0.1801 -0.1735 -0.4447
  469MOL0     C64599   7.924  10.607   9.927 -0.7962  0.3494  1.0869
  469MOL0     C64600   7.909  10.575  10.076 -0.1992 -1.1204 -0.7923
  469MOL0     N64601   7.774  10.538  10.120 -0.3398  0.8880  0.8473
  469MOL0     C64602   7.678  10.616  10.178  0.5607  0.2859 -0.7623
  469MOL0     C64603   7.566  10.542  10.151  0.0603 -0.4537 -0.6363
  469MOL0     C64604   7.430  10.588  10.195  0.1912  0.7276 -0.5751
  469MOL0     C64605   7.389  10.714  10.123  1.3776  0.0322 -1.0297
  469MOL0     C64606   7.252  10.762  10.172 -0.8334 -0.2868  0.2149
  469MOL0     C64607   7.145  10.662  10.177  0.3574 -0.4092 -0.1820
  469MOL0     O64608   7.015  10.721  10.188 -0.3437  0.1278  0.7276
  469MOL0     C64609   6.913  10.635  10.165  0.3756 -0.4803  0.0811
  469MOL0     C64610   6.790  10.698  10.144  0.3920  1.5084 -0.0750
  469MOL0     C64611   6.669  10.628  10.119 -0.0607 -0.3008  0.4283
  469MOL0     C64612   6.543  10.703  10.102  0.1732 -0.5068 -0.3197
  469MOL0     C64613   6.672  10.489  10.121  0.3624  0.5791  0.0801
  469MOL0     C64614   6.549  10.408  10.095  0.1109 -0.1358  0.2028
  469MOL0     O64615   6.436  10.438  10.171  0.5348 -0.5938  0.1253
  469MOL0     C64616   6.317  10.379  10.131 -0.1128 -0.3429 -0.0932
  469MOL0     C64617   6.268  10.398  10.005 -0.0092  0.2105  0.7151
  469MOL0     C64618   6.146  10.357   9.972 -0.6103 -0.4440 -1.0016
  469MOL0     C64619   6.056  10.304  10.071 -0.2299  0.1794 -0.9402
  469MOL0     O64620   5.925  10.298  10.044 -0.3274 -0.5401 -0.2630
  469MOL0     C64621   5.867  10.389   9.939 -0.3239 -0.0035 -0.1177
  469MOL0     C64622   5.747  10.457  10.006 -0.2776 -1.5995 -0.3706
  469MOL0     C64623   5.628  10.362  10.011 -0.2684  0.9074 -0.1626
  469MOL0     C64624   5.543  10.406  10.129  0.2214  0.0028  0.4791
  469MOL0     C64625   5.406  10.343  10.109  1.0060  0.0753 -0.6121
  469MOL0     C64626   5.292  10.435  10.162  0.0380  0.2851  0.3219
  469MOL0     C64627   5.292  10.436  10.314  0.1962  0.2018 -0.4192
  469MOL0     C64628   5.197  10.540  10.388  0.1231 -0.4916  0.6497
  469MOL0    Cl64629   5.045  10.578  10.309 -0.5937 -0.0649  0.0682
  469MOL0     C64630   6.112  10.271  10.196  0.8391 -0.6956  0.2625
  469MOL0     C64631   6.242  10.308  10.221  0.0598  0.4909  0.6036
  469MOL0     O64632   6.553  10.317  10.010  0.2214 -0.1746  0.6323
  469MOL0     C64633   6.795  10.428  10.137  0.1521 -0.1266  0.5293
  469MOL0     C64634   6.911  10.499  10.167  0.2732  0.1758  0.4863
  469MOL0     N64635   7.597  10.415  10.102  0.2627 -0.5436 -0.6223
  469MOL0     N64636   7.716  10.412  10.087 -0.1903  0.4343  0.1142
  469MOL0     C64637   7.202  10.978   9.871  0.7751  0.4682  0.0328
  469MOL0     C64638   7.062  10.957   9.884  0.0861  0.1109 -0.3659
  469MOL0     C64639   6.684  10.727   9.710 -1.5833  0.4364  0.3606
  469MOL0     C64640   6.611  10.840   9.682  0.7994 -0.4998 -0.0539
  469MOL0     C64641   6.472  10.828   9.641 -0.3941 -0.0202  0.0581
  469MOL0     C64642   6.420  10.695   9.632  0.4907  0.0980 -0.2047
  469MOL0     O64643   6.296  10.677   9.569 -0.5912  0.0385 -0.5286
  469MOL0     C64644   6.227  10.551   9.581 -0.7305 -0.4772  0.0667
  469MOL0     C64645   6.100  10.545   9.509 -0.6929 -0.4368  0.8674
  469MOL0     C64646   5.988  10.639   9.555 -0.1509 -0.7123 -0.0955
  469MOL0     C64647   5.855  10.619   9.489  0.1225  0.3789  0.8896
  469MOL0     C64648   5.816  10.475   9.505 -1.1206  0.7237 -0.2564
  469MOL0     C64649   5.790  10.357   9.527 -0.1805 -0.2825 -0.0144
  469MOL0     C64650   6.491  10.589   9.671  1.1095 -0.2601  0.0278
  469MOL0     C64651   6.620  10.604   9.709  0.5775 -0.2616 -0.9777
  469MOL0     C64652   6.687  10.473   9.743  0.0657 -0.1067 -0.1349
  469MOL0     H64653   6.972  10.886   9.562 -1.3108 -1.6382  1.5081
  469MOL0     H64654   7.216  10.938   9.521 -0.8192  0.3999 -0.6804
  469MOL0     H64655   7.415  11.130   9.857  1.0414 -2.5119  0.0427
  469MOL0     H64656   7.425  11.184   9.691  2.7408  1.8297  0.7103
  469MOL0     H64657   7.634  11.094   9.659 -2.7652  1.3275 -1.3316
  469MOL0     H64658   7.643  11.179   9.809 -1.7727  0.0109  0.5010
  469MOL0     H64659   7.615  10.940   9.931 -0.3839 -0.4519  0.1402
  469MOL0     H64660   7.628  10.885   9.767 -2.9621  1.7321 -0.5010
  469MOL0     H64661   7.847  10.965   9.745 -0.5247  0.9955 -0.4811
  469MOL0     H64662   7.846  11.068   9.879 -1.3717  1.1886 -0.5550
  469MOL0     H64663   7.822  10.865  10.039 -0.3238  0.8515 -0.0561
  469MOL0     H64664   7.969  10.865   9.946 -0.2017 -2.3484 -1.7137
  469MOL0     H64665   7.732  10.686   9.868 -0.6928  1.3117 -0.9026
  469MOL0     H64666   7.848  10.729   9.767 -2.4234 -0.4607 -0.7766
  469MOL0     H64667   8.029  10.636   9.918 -0.4620 -1.3240 -1.6792
  469MOL0     H64668   7.905  10.518   9.866  1.6447 -1.2435  2.4861
  469MOL0     H64669   7.982  10.500  10.108  0.1096 -0.1005  0.9978
  469MOL0     H64670   7.931  10.661  10.140 -1.2952 -0.2029 -1.6096
  469MOL0     H64671   7.683  10.714  10.224  3.1456 -0.0578 -0.1365
  469MOL0     H64672   7.431  10.604  10.303  0.5371  1.3418 -0.6681
  469MOL0     H64673   7.358  10.507  10.176  0.7940 -0.0153  0.2191
  469MOL0     H64674   7.457  10.795  10.150  2.6737 -1.6705  1.1292
  469MOL0     H64675   7.385  10.721  10.014  2.1613 -0.2100 -1.0829
  469MOL0     H64676   7.265  10.811  10.269  2.0383  0.8726 -0.6562
  469MOL0     H64677   7.219  10.838  10.100  2.9549  1.9166  0.5235
  469MOL0     H64678   7.157  10.589  10.096 -0.3090 -2.0865  1.1708
  469MOL0     H64679   7.162  10.609  10.271  2.6977  2.2304  0.9936
  469MOL0     H64680   6.787  10.807  10.150 -0.8527  1.5623 -1.1447
  469MOL0     H64681   6.565  10.792  10.042  1.9817  1.0737  2.4541
  469MOL0     H64682   6.516  10.742  10.201 -1.5775 -0.0283 -0.9572
  469MOL0     H64683   6.463  10.651  10.050  0.0079  0.7703 -1.3748
  469MOL0     H64684   6.323  10.454   9.931  0.8052  0.3498  1.4059
  469MOL0     H64685   6.106  10.383   9.875 -4.0978 -0.1152  0.3805
  469MOL0     H64686   5.936  10.468   9.906  1.0013 -0.0602  2.2902
  469MOL0     H64687   5.837  10.334   9.849  0.3625  1.8251 -1.5213
  469MOL0     H64688   5.775  10.497  10.104 -2.0202  1.5943 -1.0301
  469MOL0     H64689   5.734  10.548   9.947  3.7018 -1.5112 -1.3554
  469MOL0     H64690   5.653  10.256  10.022 -2.4897 -0.1804 -3.8034
  469MOL0     H64691   5.593  10.370   9.908 -2.0515 -1.5265  0.1748
  469MOL0     H64692   5.544  10.516  10.126  1.6933  0.0018  0.0486
  469MOL0     H64693   5.587  10.359  10.217  1.9912 -1.6088 -1.1492
  469MOL0     H64694   5.373  10.347  10.005 -1.9749  1.5369  0.2905
  469MOL0     H64695   5.405  10.244  10.155 -3.7411  1.0804  2.1661
  469MOL0     H64696   5.194  10.395  10.132  0.2326 -0.4901  0.6781
  469MOL0     H64697   5.298  10.535  10.120  1.3273 -0.9582 -2.7562
  469MOL0     H64698   5.394  10.446  10.351  0.7386 -1.5561 -1.3368
  469MOL0     H64699   5.269  10.334  10.347  0.3332  0.6205  1.0893
  469MOL0     H64700   5.271  10.620  10.394  0.2569 -0.6144  0.6760
  469MOL0     H64701   5.181  10.497  10.488  1.4989  1.8849  1.9669
  469MOL0     H64702   6.054  10.240  10.282  0.5374  0.6677  0.5662
  469MOL0     H64703   6.287  10.292  10.318 -2.6927 -0.4464  1.8198
  469MOL0     H64704   6.810  10.321  10.123  2.6758  0.2116  0.2688
  469MOL0     H64705   6.996  10.437  10.194  0.1729  0.2413  0.9727
  469MOL0     H64706   7.263  10.992   9.959  4.0648  1.8910 -2.2690
  469MOL0     H64707   6.997  10.951   9.970 -2.9648  0.1584 -2.5081
  469MOL0     H64708   6.635  10.945   9.696 -1.8543 -0.1226  2.6804
  469MOL0     H64709   6.409  10.913   9.616 -0.4693 -0.0001  0.3118
  469MOL0     H64710   6.294  10.476   9.539 -0.1785  0.4994 -0.8790
  469MOL0     H64711   6.213  10.539   9.689  0.3701  1.8009  0.5312
  469MOL0     H64712   6.060  10.443   9.516  0.9444 -1.0443  1.8020
  469MOL0     H64713   6.121  10.576   9.406 -2.5029  1.8224  1.0975
  469MOL0     H64714   5.982  10.631   9.663 -1.0526 -2.9381 -0.2609
  469MOL0     H64715   6.033  10.736   9.529  0.8767 -0.7531  1.4438
  469MOL0     H64716   5.852  10.641   9.381  0.6684  0.1895  0.8339
  469MOL0     H64717   5.778  10.689   9.523 -2.2769 -0.6827 -1.8670
  469MOL0     H64718   5.769  10.256   9.556  0.1280 -0.1834  0.5782
  469MOL0     H64719   6.442  10.493   9.662  0.9228 -0.0306 -1.5887
  469MOL0     H64720   6.604  10.404   9.759 -0.7786  1.1598  1.1284
  469MOL0     H64721   6.754  10.431   9.667  0.0412 -2.1197  0.8995
  469MOL0     H64722   6.742  10.490   9.836 -0.3354  0.0896  0.0668
  470MOL0     O64723   0.001   1.173   4.391  0.1414  0.0837 -0.4310
  470MOL0     C64724  -0.075   1.081   4.358 -0.5413 -0.5881 -0.2481
  470MOL0     O64725  -0.053   0.998   4.242 -0.5078 -0.2676 -0.6671
  470MOL0     C64726   0.065   0.992   4.170 -0.1831  0.2003  0.4531
  470MOL0     C64727   0.191   1.036   4.212  0.6585 -0.3603  0.5954
  470MOL0     C64728   0.302   1.029   4.131 -1.1702 -0.0564  0.1052
  470MOL0     C64729   0.289   0.995   3.997 -0.3172 -0.2785  0.4669
  470MOL0     O64730   0.393   1.014   3.902  0.2839 -0.1086  0.1850
  470MOL0     C64731   0.405   0.919   3.797  0.3644 -0.4838  0.2396
  470MOL0     C64732   0.546   0.918   3.730  0.0036  0.8312  0.1830
  470MOL0     C64733   0.594   1.060   3.669  0.0379 -1.5578 -0.8211
  470MOL0     C64734   0.725   1.053   3.610  0.1658 -0.1601  0.3021
  470MOL0     C64735   0.763   1.191   3.554 -0.3995 -0.2434 -0.6501
  470MOL0     C64736   0.906   1.192   3.495 -0.2895 -0.3123 -0.5625
  470MOL0     C64737   0.958   1.061   3.432 -0.1867 -0.9013  0.8033
  470MOL0     C64738   0.891   1.059   3.296  1.0587  0.0663  0.7252
  470MOL0     N64739   0.936   0.938   3.229 -0.0240  0.5682 -0.0627
  470MOL0     C64740   0.933   0.812   3.286 -0.2662 -0.2473  0.1065
  470MOL0     C64741   1.009   0.737   3.196 -0.8999  0.0927 -0.0136
  470MOL0     C64742   1.045   0.590   3.213  0.0644 -0.5361 -0.1324
  470MOL0     C64743   1.125   0.525   3.094  1.0466  0.4688 -0.0751
  470MOL0     C64744   1.151   0.375   3.123  0.9161 -0.7671  0.5679
  470MOL0     C64745   1.225   0.312   2.999  0.8324 -0.7836  0.3150
  470MOL0     O64746   1.184   0.171   2.998 -0.2596 -0.4825 -0.3906
  470MOL0     C64747   1.276   0.080   3.051  0.3160 -0.7048  0.5264
  470MOL0     C64748   1.287  -0.054   3.010  0.3498  0.0416  0.3587
  470MOL0     C64749   1.387  -0.150   3.046  0.1278 -0.5969  0.2860
  470MOL0     C64750   1.365  -0.289   3.003 -0.2948  0.9192  0.3717
  470MOL0     C64751   1.472  -0.117   3.160 -0.7187  0.0684 -0.5501
  470MOL0     C64752   1.578  -0.196   3.236  0.7103 -0.3539 -0.5132
  470MOL0     O64753   1.619  -0.146   3.360 -0.1476 -0.6811 -0.3082
  470MOL0     C64754   1.695  -0.230   3.451  0.6156 -0.1041  0.4052
  470MOL0     C64755   1.693  -0.203   3.587  0.1093 -0.1092  0.2070
  470MOL0     C64756   1.760  -0.271   3.683  0.0905 -0.4235 -0.6071
  470MOL0     C64757   1.818  -0.390   3.645  0.0004 -0.0099  0.6446
  470MOL0     O64758   1.871  -0.468   3.753 -0.4558 -0.4535 -0.4790
  470MOL0     C64759   1.960  -0.577   3.721  0.6826 -0.2187 -0.3307
  470MOL0     C64760   2.090  -0.533   3.665 -0.2257  0.7935  0.7839
  470MOL0     C64761   2.154  -0.408   3.742 -0.1172  0.1634  0.3701
  470MOL0     C64762   2.293  -0.379   3.692 -0.8234  0.2056  0.6265
  470MOL0     C64763   2.361  -0.274   3.782  0.0804 -0.1375 -0.6168
  470MOL0     C64764   2.499  -0.240   3.728  0.4191  0.0021  0.0747
  470MOL0     C64765   2.594  -0.357   3.746 -0.3662 -0.7336  0.5197
  470MOL0     C64766   2.605  -0.405   3.891 -0.3238 -0.2028  0.1828
  470MOL0    Cl64767   2.644  -0.270   4.001 -0.4465  0.1995 -0.3869
  470MOL0     C64768   1.827  -0.427   3.507 -0.5091 -0.4116  0.4312
  470MOL0     C64769   1.764  -0.344   3.409 -0.5786 -0.1972 -0.2806
  470MOL0     O64770   1.625  -0.289   3.168 -0.1642 -0.5449 -0.4752
  470MOL0     C64771   1.452   0.016   3.215 -0.4433 -1.0289  0.1520
  470MOL0     C64772   1.361   0.111   3.160  0.3161 -0.1849 -0.0645
  470MOL0     N64773   1.065   0.821   3.104 -0.4435  0.4509 -0.8597
  470MOL0     N64774   1.013   0.937   3.122 -0.6429 -0.1045  0.6502
  470MOL0     C64775   0.166   0.944   3.953  0.0623 -0.1313  0.7607
  470MOL0     C64776   0.055   0.937   4.042 -0.2377  0.1122 -0.0102
  470MOL0     C64777  -0.194   1.068   4.445 -0.0938 -0.0113  0.1408
  470MOL0     C64778  -0.260   1.187   4.488 -0.2747  0.8606 -1.0168
  470MOL0     C64779  -0.370   1.176   4.584  0.5982 -0.1603  1.2571
  470MOL0     C64780  -0.415   1.056   4.621 -0.0244 -0.2111 -0.0928
  470MOL0     O64781  -0.496   1.050   4.729 -0.4849  0.0303 -0.1653
  470MOL0     C64782  -0.618   0.967   4.717 -1.3276 -0.5809  0.6631
  470MOL0     C64783  -0.708   1.010   4.831 -0.8002 -0.0516 -0.0505
  470MOL0     C64784  -0.832   0.940   4.847  0.1645 -0.0650  0.1703
  470MOL0     C64785  -0.920   0.980   4.967 -0.6781  0.3975  0.2757
  470MOL0     C64786  -1.041   0.907   4.957  0.3000  0.1354 -0.4606
  470MOL0     C64787  -1.146   0.851   4.951  0.5214 -0.8336 -0.0841
  470MOL0     C64788  -0.358   0.941   4.580 -0.6991 -1.1860  0.0930
  470MOL0     C64789  -0.242   0.940   4.502 -1.0091  0.0111 -0.0070
  470MOL0     C64790  -0.166   0.812   4.471  0.8246  0.2485  0.4920
  470MOL0     H64791   0.208   1.082   4.309  1.7200 -1.1762  0.8159
  470MOL0     H64792   0.396   1.057   4.176 -1.2337  2.7607 -1.2865
  470MOL0     H64793   0.338   0.942   3.714  1.7811  0.6194 -0.6466
  470MOL0     H64794   0.380   0.820   3.836  0.5883  0.3236  2.5569
  470MOL0     H64795   0.615   0.874   3.802  3.5927  2.9604 -1.6391
  470MOL0     H64796   0.541   0.836   3.657 -1.8096  0.5825  0.5510
  470MOL0     H64797   0.528   1.082   3.584  0.9807  0.2622 -1.1251
  470MOL0     H64798   0.585   1.133   3.749  1.2279 -1.7739 -0.4800
  470MOL0     H64799   0.808   1.025   3.677 -0.7079 -1.7838  0.7472
  470MOL0     H64800   0.721   0.972   3.537  0.2442 -1.3492  1.5748
  470MOL0     H64801   0.774   1.248   3.647 -0.4086  0.7752 -1.2561
  470MOL0     H64802   0.692   1.224   3.478  1.9513  0.3026 -2.7709
  470MOL0     H64803   0.909   1.282   3.433 -2.0707 -2.9592 -4.9939
  470MOL0     H64804   0.971   1.206   3.582 -0.0619  1.6622 -1.0066
  470MOL0     H64805   0.935   0.981   3.503 -1.5563 -1.4531 -0.2107
  470MOL0     H64806   1.067   1.053   3.420 -0.2304  1.1258 -2.1804
  470MOL0     H64807   0.784   1.047   3.313  0.6972  0.8287 -0.8162
  470MOL0     H64808   0.907   1.152   3.241  0.2980  1.5973  2.9294
  470MOL0     H64809   0.876   0.783   3.374 -0.5941  3.3561  1.2349
  470MOL0     H64810   0.944   0.547   3.223 -0.3645  0.8048  1.6654
  470MOL0     H64811   1.105   0.564   3.301  0.6393 -0.6857 -0.5612
  470MOL0     H64812   1.075   0.543   2.998 -3.1438  1.3845  2.0449
  470MOL0     H64813   1.212   0.590   3.085 -0.1804  2.0670 -0.7952
  470MOL0     H64814   1.196   0.352   3.220 -1.6843 -1.7130  1.6418
  470MOL0     H64815   1.055   0.323   3.119  1.3659 -1.5207 -1.0606
  470MOL0     H64816   1.195   0.356   2.903  2.6105 -0.1334  0.0072
  470MOL0     H64817   1.334   0.325   2.995  0.8030 -0.0179  1.5720
  470MOL0     H64818   1.209  -0.078   2.937  1.4514  2.3246 -1.7228
  470MOL0     H64819   1.274  -0.305   2.945  0.9785  2.5294 -2.2714
  470MOL0     H64820   1.364  -0.357   3.088  0.8460  0.8674  0.3654
  470MOL0     H64821   1.444  -0.310   2.930 -0.8833  0.6546 -0.1971
  470MOL0     H64822   1.642  -0.110   3.610 -1.0325 -0.7979  0.5487
  470MOL0     H64823   1.763  -0.234   3.785  1.7910 -0.2652 -0.6821
  470MOL0     H64824   1.984  -0.618   3.819 -0.5069  0.7920  0.4153
  470MOL0     H64825   1.900  -0.650   3.667 -4.2025  2.9775  0.1579
  470MOL0     H64826   2.164  -0.613   3.676 -1.0417 -0.0337  0.3669
  470MOL0     H64827   2.082  -0.520   3.557  2.4496 -0.8659  0.2817
  470MOL0     H64828   2.149  -0.427   3.849  0.3932 -2.3232  0.0185
  470MOL0     H64829   2.093  -0.320   3.720 -0.8882 -0.0689  1.4866
  470MOL0     H64830   2.283  -0.347   3.588  0.2078  2.6883  1.2161
  470MOL0     H64831   2.356  -0.469   3.697 -2.8245 -1.3359 -0.2319
  470MOL0     H64832   2.293  -0.188   3.786 -1.4770 -1.1720 -2.7378
  470MOL0     H64833   2.368  -0.303   3.888 -2.9335 -1.9972 -0.7982
  470MOL0     H64834   2.542  -0.149   3.771  1.1236 -0.8631  1.2659
  470MOL0     H64835   2.486  -0.219   3.621  3.1770 -0.0847 -0.3511
  470MOL0     H64836   2.689  -0.310   3.721 -1.3019  1.0233  0.0432
  470MOL0     H64837   2.573  -0.446   3.686 -0.9801  1.7175 -3.2245
  470MOL0     H64838   2.684  -0.479   3.876 -0.2812 -0.1531  0.1630
  470MOL0     H64839   2.511  -0.452   3.922 -0.4966 -1.6205 -2.2416
  470MOL0     H64840   1.865  -0.517   3.460 -3.7832 -0.8514 -1.7117
  470MOL0     H64841   1.792  -0.386   3.313  0.5005 -0.8372  0.2938
  470MOL0     H64842   1.505   0.053   3.302  2.1746  0.5274 -1.9334
  470MOL0     H64843   1.360   0.217   3.181  3.1548  0.0631 -0.7844
  470MOL0     H64844   0.152   0.902   3.854  1.2345 -1.7170  1.2258
  470MOL0     H64845  -0.038   0.896   4.004  1.1274 -1.0725 -2.2893
  470MOL0     H64846  -0.223   1.279   4.443  0.2493  0.1850 -2.0039
  470MOL0     H64847  -0.433   1.257   4.621 -0.9708 -0.9353  0.4000
  470MOL0     H64848  -0.655   0.986   4.616  0.1286 -1.4706 -0.0730
  470MOL0     H64849  -0.594   0.861   4.719 -2.0812 -0.7684  0.1156
  470MOL0     H64850  -0.733   1.114   4.808 -0.1189  0.1920  0.2881
  470MOL0     H64851  -0.655   1.007   4.927  2.1413  0.6102 -1.5288
  470MOL0     H64852  -0.892   0.968   4.760  1.4611 -0.0799 -0.7700
  470MOL0     H64853  -0.821   0.831   4.849  0.4020 -0.0331  1.3861
  470MOL0     H64854  -0.941   1.087   4.960 -0.5383  0.3378 -1.6556
  470MOL0     H64855  -0.864   0.965   5.060 -0.8952  0.7441  0.4613
  470MOL0     H64856  -1.243   0.807   4.940  0.6520 -0.8066 -1.6334
  470MOL0     H64857  -0.382   0.855   4.642 -0.1684 -0.4166  1.4207
  470MOL0     H64858  -0.225   0.721   4.481  0.8162 -0.4817 -4.0507
  470MOL0     H64859  -0.134   0.807   4.366  0.2840 -0.8085  0.3679
  470MOL0     H64860  -0.073   0.811   4.529  2.4781  1.9103 -1.9325
  471MOL0     O64861   3.847   6.497  10.016 -0.1741  0.2682 -0.6816
  471MOL0     C64862   3.725   6.523  10.030 -0.2152  0.2881  1.0055
  471MOL0     O64863   3.658   6.543  10.146  0.1257 -0.9244 -0.4252
  471MOL0     C64864   3.735   6.578  10.264  0.0111 -0.5613  0.7572
  471MOL0     C64865   3.835   6.673  10.258  0.5984  0.6863  0.0345
  471MOL0     C64866   3.901   6.703  10.374 -0.5296 -0.3203 -0.1445
  471MOL0     C64867   3.890   6.636  10.498  0.2512  0.2394  0.4473
  471MOL0     O64868   3.975   6.666  10.594 -0.3507  0.2374  0.5228
  471MOL0     C64869   3.984   6.590  10.712 -0.5619  0.9013 -0.3211
  471MOL0     C64870   4.046   6.453  10.690  0.3345  0.0631  0.1074
  471MOL0     C64871   4.176   6.439  10.633 -0.3903  0.3230 -0.1778
  471MOL0     C64872   4.293   6.495  10.721 -1.0931 -0.5285  1.2583
  471MOL0     C64873   4.426   6.427  10.694 -0.6446  0.3882  0.3746
  471MOL0     C64874   4.478   6.445  10.556  0.4232  1.1234 -0.5508
  471MOL0     C64875   4.519   6.581  10.517 -0.1188 -0.1437  0.8414
  471MOL0     C64876   4.677   6.593  10.482  0.1312  0.3289  0.8382
  471MOL0     N64877   4.701   6.732  10.440 -1.0907 -0.5240  0.6719
  471MOL0     C64878   4.652   6.796  10.329 -0.7013  0.2753 -0.6353
  471MOL0     C64879   4.697   6.926  10.344  0.9031 -0.7421  0.6013
  471MOL0     C64880   4.691   7.055  10.263 -0.1474 -0.1717  0.1071
  471MOL0     C64881   4.789   7.047  10.151  0.2753  0.2085 -0.1188
  471MOL0     C64882   4.763   7.150  10.040  0.2530 -0.4746  0.5452
  471MOL0     C64883   4.819   7.292  10.073 -0.3271 -0.5489 -0.4032
  471MOL0     O64884   4.961   7.289  10.081  1.1995 -0.2561  0.3004
  471MOL0     C64885   5.029   7.406  10.101  0.3685 -0.1601 -0.1042
  471MOL0     C64886   4.972   7.527  10.130 -0.0082  0.5980 -0.1030
  471MOL0     C64887   5.042   7.642  10.157  0.0639 -0.2262  0.2268
  471MOL0     C64888   4.966   7.756  10.216 -0.3347  0.0650  0.5541
  471MOL0     C64889   5.184   7.632  10.152 -0.5212  0.1384  0.8093
  471MOL0     C64890   5.276   7.749  10.181 -0.2064 -0.6673 -0.3312
  471MOL0     O64891   5.403   7.728  10.219 -0.3351  0.2819 -0.1160
  471MOL0     C64892   5.492   7.832  10.223 -0.8177  0.2574 -0.5294
  471MOL0     C64893   5.580   7.831  10.333  1.1183 -0.2544  0.0996
  471MOL0     C64894   5.678   7.920  10.333  0.1732 -0.0391 -0.0390
  471MOL0     C64895   5.712   8.016  10.237  0.7942  0.8207  0.5285
  471MOL0     O64896   5.826   8.089  10.261  0.5213  0.1828 -0.0730
  471MOL0     C64897   5.851   8.195  10.167 -0.5964  0.1949 -0.1444
  471MOL0     C64898   5.989   8.266  10.188  1.4217 -0.8153 -0.2223
  471MOL0     C64899   6.104   8.175  10.201 -2.0074  0.2340  0.6668
  471MOL0     C64900   6.234   8.268  10.208 -0.6709  0.4196 -0.0452
  471MOL0     C64901   6.345   8.182  10.265 -0.0623 -0.0505  0.2429
  471MOL0     C64902   6.480   8.245  10.256 -0.5735 -0.1946 -0.6152
  471MOL0     C64903   6.482   8.395  10.289  0.8442  0.8448  0.2352
  471MOL0     C64904   6.620   8.453  10.298 -0.5159  0.1401  0.4664
  471MOL0    Cl64905   6.704   8.426  10.460 -0.2108 -0.2252 -0.1326
  471MOL0     C64906   5.620   8.015  10.134 -0.5854  0.0635  0.5124
  471MOL0     C64907   5.518   7.924  10.117  0.6439  0.1101 -0.3973
  471MOL0     O64908   5.232   7.861  10.165 -0.2782  0.1603 -0.1675
  471MOL0     C64909   5.243   7.504  10.112  0.1136  0.1479  0.0084
  471MOL0     C64910   5.163   7.400  10.086  0.2520  0.3893 -0.1174
  471MOL0     N64911   4.753   6.938  10.466  0.3014  0.0455 -1.0314
  471MOL0     N64912   4.756   6.821  10.525  0.3144  0.0472  0.2017
  471MOL0     C64913   3.796   6.530  10.493 -0.3420  0.7269 -0.4181
  471MOL0     C64914   3.718   6.503  10.376 -0.2708 -0.0096 -0.1381
  471MOL0     C64915   3.649   6.530   9.903  0.3790 -0.0602 -0.0504
  471MOL0     C64916   3.649   6.417   9.822 -0.2301 -0.0565 -0.3755
  471MOL0     C64917   3.570   6.413   9.702  0.1295  0.2008  0.8310
  471MOL0     C64918   3.490   6.518   9.663 -0.0502 -0.0555 -0.4598
  471MOL0     O64919   3.417   6.508   9.545 -0.0443  0.2070  0.2289
  471MOL0     C64920   3.315   6.612   9.510  0.2811  0.6502 -0.2717
  471MOL0     C64921   3.204   6.545   9.427 -1.1045 -0.3070  0.9390
  471MOL0     C64922   3.070   6.605   9.451  0.0318 -0.5238  0.7465
  471MOL0     C64923   2.966   6.514   9.379 -0.4453 -0.3766 -0.2170
  471MOL0     C64924   2.991   6.522   9.234 -0.0123 -0.2792 -0.0891
  471MOL0     C64925   3.016   6.535   9.112 -0.7923 -0.2880 -0.5736
  471MOL0     C64926   3.481   6.632   9.745 -1.0232 -0.1471  0.4500
  471MOL0     C64927   3.563   6.638   9.862  0.8663 -0.6598  0.0264
  471MOL0     C64928   3.560   6.771   9.942  0.3763 -0.0922  0.3651
  471MOL0     H64929   3.876   6.720  10.169 -0.6403  1.2191 -0.2665
  471MOL0     H64930   3.976   6.781  10.376  0.1857 -0.9552  2.9573
  471MOL0     H64931   3.887   6.587  10.763 -0.8603  1.7730 -0.8136
  471MOL0     H64932   4.067   6.644  10.759  0.4852  2.3399 -3.4769
  471MOL0     H64933   4.048   6.400  10.785 -0.0318  2.6314  1.6617
  471MOL0     H64934   3.980   6.397  10.623  0.6477 -0.7897  0.4980
  471MOL0     H64935   4.195   6.332  10.617  0.6660  0.6161 -1.0279
  471MOL0     H64936   4.174   6.480  10.532 -0.3582 -1.9493 -1.1505
  471MOL0     H64937   4.294   6.604  10.711  1.4383 -0.4783  1.3962
  471MOL0     H64938   4.271   6.485  10.828  1.1966 -0.2782  1.8133
  471MOL0     H64939   4.416   6.320  10.715 -0.1520  0.2545 -0.0338
  471MOL0     H64940   4.503   6.450  10.768  2.1633 -1.0462 -1.8898
  471MOL0     H64941   4.561   6.377  10.533 -1.5843 -1.9913  0.7285
  471MOL0     H64942   4.396   6.410  10.493  0.2176  3.2373 -1.5321
  471MOL0     H64943   4.489   6.661  10.586  0.7171  2.7527 -1.8869
  471MOL0     H64944   4.474   6.607  10.420  1.8161 -0.7419 -0.2705
  471MOL0     H64945   4.739   6.570  10.569 -0.6835  0.2868  1.4284
  471MOL0     H64946   4.702   6.515  10.410 -1.4575  0.3442  0.2250
  471MOL0     H64947   4.599   6.750  10.246 -0.0287 -5.9353  1.8048
  471MOL0     H64948   4.716   7.139  10.328 -0.4080 -1.3946  1.8639
  471MOL0     H64949   4.591   7.071  10.221 -0.4088 -1.9625 -0.0337
  471MOL0     H64950   4.888   7.062  10.195  0.6067 -0.8392 -0.4973
  471MOL0     H64951   4.776   6.946  10.111 -3.0390  0.3541  0.3251
  471MOL0     H64952   4.803   7.123   9.942  0.1414  1.1341  0.0259
  471MOL0     H64953   4.655   7.151  10.024  0.2596  1.7603  0.3108
  471MOL0     H64954   4.780   7.355   9.993 -2.1734  1.5435  1.9738
  471MOL0     H64955   4.781   7.331  10.168  1.9918  1.4997 -0.2072
  471MOL0     H64956   4.864   7.533  10.137 -0.1109  0.3440 -1.2491
  471MOL0     H64957   4.954   7.832  10.139  2.2661 -0.1641 -0.1711
  471MOL0     H64958   5.021   7.798  10.300 -0.3104  0.5795  0.2851
  471MOL0     H64959   4.867   7.733  10.255 -0.8787  1.9968  0.3857
  471MOL0     H64960   5.559   7.759  10.411 -2.5333  1.7225  1.1528
  471MOL0     H64961   5.740   7.923  10.421  0.5021 -0.4304 -0.2570
  471MOL0     H64962   5.856   8.159  10.064 -0.7072 -4.4425  1.2348
  471MOL0     H64963   5.768   8.266  10.177 -0.2884  0.5318  0.0844
  471MOL0     H64964   6.007   8.332  10.103  2.7307  0.1276  0.7405
  471MOL0     H64965   5.977   8.329  10.277  1.7549 -0.0870 -0.6834
  471MOL0     H64966   6.113   8.117  10.109  3.5641  2.7736 -0.8432
  471MOL0     H64967   6.081   8.115  10.290  1.2151  2.8484  3.5591
  471MOL0     H64968   6.212   8.359  10.264  1.6619 -0.5347  2.5888
  471MOL0     H64969   6.258   8.305  10.108  0.7302  0.4817  0.2957
  471MOL0     H64970   6.321   8.177  10.372  1.2239  0.9776  0.6134
  471MOL0     H64971   6.352   8.081  10.223  1.9148  1.6423 -4.0138
  471MOL0     H64972   6.521   8.246  10.154 -0.2438  0.4415 -0.4847
  471MOL0     H64973   6.550   8.192  10.320 -0.8235 -1.4743 -1.3528
  471MOL0     H64974   6.435   8.406  10.388  0.3788 -2.0685  0.4331
  471MOL0     H64975   6.419   8.445  10.215 -0.9133 -0.3734  0.8160
  471MOL0     H64976   6.617   8.561  10.281  1.0812 -0.0544 -1.2744
  471MOL0     H64977   6.682   8.403  10.223 -2.3120  0.3633 -1.2401
  471MOL0     H64978   5.635   8.105  10.074  0.8773  0.6352  1.6610
  471MOL0     H64979   5.473   7.924  10.018  0.4848  0.5924 -0.3230
  471MOL0     H64980   5.350   7.494  10.097  0.0954 -0.0982  0.0348
  471MOL0     H64981   5.220   7.316  10.047  0.4610  1.9862 -3.6156
  471MOL0     H64982   3.786   6.465  10.579 -2.6921 -0.9259 -1.8241
  471MOL0     H64983   3.651   6.417  10.378  0.1706 -0.3559 -0.1127
  471MOL0     H64984   3.699   6.327   9.856 -2.3587 -0.5883  1.6782
  471MOL0     H64985   3.585   6.325   9.640  2.1166  1.8280 -1.1430
  471MOL0     H64986   3.264   6.661   9.594  1.9216  1.3952  0.3229
  471MOL0     H64987   3.355   6.687   9.441  4.4801 -1.0355  0.0459
  471MOL0     H64988   3.214   6.438   9.444  0.0150 -0.4556 -0.4178
  471MOL0     H64989   3.229   6.566   9.322 -0.3463  0.8065  1.3106
  471MOL0     H64990   3.053   6.614   9.558 -0.0263 -0.8339  0.7627
  471MOL0     H64991   3.074   6.707   9.411 -0.4192 -1.0609 -0.7267
  471MOL0     H64992   2.864   6.549   9.398  0.0856  0.0812  2.1082
  471MOL0     H64993   2.970   6.412   9.418  0.0068  0.0308  0.8408
  471MOL0     H64994   3.032   6.552   9.007  1.4866 -2.3030 -0.6549
  471MOL0     H64995   3.420   6.719   9.722 -0.8688 -0.6567 -2.1697
  471MOL0     H64996   3.461   6.788   9.985 -0.0642 -1.7734  0.0915
  471MOL0     H64997   3.643   6.774  10.012  1.0593  0.3620 -0.4387
  471MOL0     H64998   3.589   6.852   9.874 -1.5446  2.2646  2.1629
  472MOL0     O64999  10.296   9.818   8.354 -0.6204 -0.0885  0.0183
  472MOL0     C65000  10.214   9.741   8.314 -0.3229 -0.5833 -0.1029
  472MOL0     O65001  10.250   9.622   8.247 -0.0920  0.2548 -0.6436
  472MOL0     C65002  10.381   9.574   8.255 -0.8242 -0.2564 -0.7940
  472MOL0     C65003  10.474   9.579   8.365 -0.0641 -0.2074  0.5174
  472MOL0     C65004  10.593   9.502   8.366 -0.7137  1.2209  0.1335
  472MOL0     C65005  10.633   9.441   8.248 -0.2081  0.0765 -0.2738
  472MOL0     O65006  10.751   9.365   8.233 -0.2724  0.1586  0.3546
  472MOL0     C65007  10.829   9.340   8.353 -0.9676  0.4476  0.3013
  472MOL0     C65008  10.917   9.223   8.330  0.0508  0.4257  0.4267
  472MOL0     C65009  11.027   9.209   8.434 -0.2043 -0.0772 -0.3330
  472MOL0     C65010  11.097   9.075   8.432 -0.3738 -0.5415 -0.3649
  472MOL0     C65011  11.229   9.071   8.507 -0.0061 -0.4057 -0.4337
  472MOL0     C65012  11.367   9.143   8.440  0.3351  0.3205 -0.1023
  472MOL0     C65013  11.448   9.207   8.553  0.4379  0.2575  0.2134
  472MOL0     C65014  11.579   9.284   8.513  0.1225 -0.0458 -0.8724
  472MOL0     N65015  11.676   9.175   8.496 -0.5813 -0.0185 -0.1477
  472MOL0     C65016  11.698   9.103   8.380  0.2823 -0.7230 -0.0203
  472MOL0     C65017  11.809   9.025   8.411 -1.5432  0.1287 -0.1112
  472MOL0     C65018  11.866   8.929   8.313 -0.9325  0.2397 -0.1666
  472MOL0     C65019  11.966   8.834   8.372 -0.0034  0.7668 -0.1774
  472MOL0     C65020  12.020   8.746   8.257  0.1100  0.5635 -0.4479
  472MOL0     C65021  12.107   8.634   8.324 -0.0551  0.2828  0.4525
  472MOL0     O65022  12.236   8.696   8.336  0.0709 -0.0302  0.2536
  472MOL0     C65023  12.332   8.617   8.393 -0.4156 -0.0256  0.3380
  472MOL0     C65024  12.330   8.496   8.462 -0.2756  0.0948 -0.0912
  472MOL0     C65025  12.434   8.417   8.499 -0.7421 -0.0327 -0.1252
  472MOL0     C65026  12.393   8.292   8.566 -0.0347  0.2488 -0.6411
  472MOL0     C65027  12.564   8.466   8.482 -0.2052  0.3562 -0.2094
  472MOL0     C65028  12.685   8.392   8.526 -0.6759  1.2760  0.2615
  472MOL0     O65029  12.799   8.463   8.494 -0.1530  0.4611 -0.5347
  472MOL0     C65030  12.926   8.466   8.555  0.9897 -0.2058  0.6447
  472MOL0     C65031  12.973   8.374   8.655 -0.2699  0.7893  0.3232
  472MOL0     C65032  13.101   8.376   8.710 -0.6354  0.5485  0.6325
  472MOL0     C65033  13.198   8.457   8.659  0.7250  0.2984  0.7305
  472MOL0     O65034  13.311   8.478   8.726 -0.0401  0.5810 -0.0244
  472MOL0     C65035  13.435   8.507   8.669 -0.2034 -0.8014  0.3031
  472MOL0     C65036  13.483   8.633   8.732 -0.6460 -0.2347  0.2687
  472MOL0     C65037  13.630   8.676   8.705 -0.9911  0.4519  0.8021
  472MOL0     C65038  13.671   8.801   8.776  0.5165  0.8824 -0.3481
  472MOL0     C65039  13.816   8.829   8.752 -0.1410 -0.0820  0.6764
  472MOL0     C65040  13.827   8.895   8.608  0.5552  0.1311 -0.6276
  472MOL0     C65041  13.971   8.910   8.578  0.2550 -0.3043  0.7503
  472MOL0     C65042  14.007   9.049   8.522 -0.0399  0.8334 -0.3108
  472MOL0    Cl65043  13.890   9.098   8.402 -0.0008 -0.2919  0.2099
  472MOL0     C65044  13.159   8.542   8.557  0.6304  1.0070 -0.6548
  472MOL0     C65045  13.025   8.550   8.513 -0.4978  0.3560  0.4876
  472MOL0     O65046  12.678   8.294   8.605  0.3895 -0.6555  0.0734
  472MOL0     C65047  12.578   8.589   8.411 -0.3987 -0.0881 -0.2753
  472MOL0     C65048  12.468   8.664   8.375  0.9453  0.2428 -0.3854
  472MOL0     N65049  11.829   9.030   8.549  0.1118 -0.0636 -0.1533
  472MOL0     N65050  11.754   9.122   8.592 -0.0836 -0.2243  0.4540
  472MOL0     C65051  10.551   9.446   8.137 -0.1594 -0.3192  0.1860
  472MOL0     C65052  10.423   9.502   8.145  0.7348 -0.1041  0.5194
  472MOL0     C65053  10.067   9.757   8.335 -0.4978 -0.0923 -1.6070
  472MOL0     C65054   9.981   9.665   8.276  0.5784  0.7502  0.0033
  472MOL0     C65055   9.846   9.662   8.310  0.8223 -0.3168 -0.1263
  472MOL0     C65056   9.783   9.767   8.377 -0.0725 -0.6567 -1.4154
  472MOL0     O65057   9.649   9.800   8.378 -0.1135 -0.0618  0.4516
  472MOL0     C65058   9.555   9.693   8.382  0.0183 -0.6053  0.4954
  472MOL0     C65059   9.405   9.722   8.358  0.7335  0.7054 -0.4383
  472MOL0     C65060   9.357   9.847   8.440 -0.7925 -0.1889  0.4295
  472MOL0     C65061   9.212   9.863   8.417  0.6802 -0.1458  0.0362
  472MOL0     C65062   9.132   9.843   8.540 -0.4545 -1.1137  0.1814
  472MOL0     C65063   9.082   9.831   8.651 -0.0661 -0.0157  0.0399
  472MOL0     C65064   9.867   9.866   8.422 -1.2910 -1.1706 -0.1308
  472MOL0     C65065  10.007   9.860   8.411 -0.2669 -0.1164  0.1765
  472MOL0     C65066  10.087   9.965   8.485  0.8713  0.0914  0.1734
  472MOL0     H65067  10.435   9.629   8.453  0.9254  1.6371 -0.0446
  472MOL0     H65068  10.653   9.489   8.455  2.8372  3.0824 -1.7749
  472MOL0     H65069  10.756   9.303   8.426 -1.1902 -0.9046 -0.5700
  472MOL0     H65070  10.885   9.431   8.377 -0.3059  0.0741  0.1942
  472MOL0     H65071  10.858   9.132   8.318  1.8224 -0.8231  0.8573
  472MOL0     H65072  10.962   9.237   8.231  1.2208 -2.8970  0.3744
  472MOL0     H65073  11.099   9.290   8.424  1.2103 -1.1929  0.3903
  472MOL0     H65074  10.981   9.226   8.531 -0.1967 -0.8280 -0.1871
  472MOL0     H65075  11.027   8.998   8.468 -0.4557 -0.3028  0.0041
  472MOL0     H65076  11.130   9.036   8.336  3.0901 -2.4085  1.3946
  472MOL0     H65077  11.249   8.967   8.532  2.1026 -0.4963 -2.1603
  472MOL0     H65078  11.215   9.122   8.603  1.7151  1.6406 -1.1672
  472MOL0     H65079  11.423   9.065   8.389 -0.8756 -0.9314  0.4176
  472MOL0     H65080  11.327   9.223   8.377  0.9250 -0.8798 -2.0845
  472MOL0     H65081  11.468   9.121   8.619 -0.3391 -1.5587 -1.7868
  472MOL0     H65082  11.382   9.279   8.602  0.6461  0.2702  0.4789
  472MOL0     H65083  11.571   9.340   8.420  5.7150 -0.2401 -1.7731
  472MOL0     H65084  11.623   9.352   8.587 -2.1766 -0.2047  0.7479
  472MOL0     H65085  11.649   9.124   8.285  0.8178 -0.8279 -0.3205
  472MOL0     H65086  11.918   8.982   8.233 -0.3094 -2.6008 -1.7711
  472MOL0     H65087  11.784   8.872   8.268 -0.8184  0.9218 -1.2991
  472MOL0     H65088  12.057   8.884   8.404  1.9474 -1.6214 -1.5812
  472MOL0     H65089  11.923   8.775   8.454 -0.8843  0.9511 -0.4951
  472MOL0     H65090  11.935   8.712   8.197  0.1663 -2.0117  0.8099
  472MOL0     H65091  12.080   8.809   8.191 -0.1131  2.6819  1.2604
  472MOL0     H65092  12.069   8.608   8.423  1.7359  0.8592  1.3486
  472MOL0     H65093  12.097   8.547   8.258 -1.0323  1.4162 -0.9421
  472MOL0     H65094  12.226   8.476   8.484  0.0037 -0.9739  0.3059
  472MOL0     H65095  12.455   8.215   8.519 -1.1691 -0.8736 -0.3488
  472MOL0     H65096  12.290   8.257   8.555  0.4619 -1.5147  0.0221
  472MOL0     H65097  12.415   8.301   8.672 -1.5261  2.5090 -0.4481
  472MOL0     H65098  12.905   8.294   8.682 -0.0750  0.4364 -0.2128
  472MOL0     H65099  13.139   8.311   8.789  1.0406  0.1377 -0.4552
  472MOL0     H65100  13.494   8.420   8.696 -0.6144 -0.9680  0.6778
  472MOL0     H65101  13.425   8.495   8.560  1.0539  1.7569 -0.1634
  472MOL0     H65102  13.415   8.711   8.696  1.6366  0.7782 -2.1974
  472MOL0     H65103  13.477   8.629   8.842 -0.8550  0.3150  0.2829
  472MOL0     H65104  13.630   8.686   8.596 -1.1167  0.3824  0.7957
  472MOL0     H65105  13.701   8.594   8.721 -1.7342 -1.8553 -4.9969
  472MOL0     H65106  13.656   8.778   8.882 -3.0395  2.0161 -0.4726
  472MOL0     H65107  13.598   8.877   8.746 -0.3206  0.5621  0.7839
  472MOL0     H65108  13.849   8.908   8.820  2.5352 -0.9561  0.5261
  472MOL0     H65109  13.884   8.745   8.768  0.0915 -0.2158 -0.8446
  472MOL0     H65110  13.784   8.995   8.609  1.7162  0.6810  1.6591
  472MOL0     H65111  13.783   8.838   8.526 -0.3394  1.7070 -1.2680
  472MOL0     H65112  14.005   8.839   8.503  2.3808  1.1159  0.2711
  472MOL0     H65113  14.037   8.896   8.665  1.4663 -0.9325 -0.2389
  472MOL0     H65114  14.110   9.042   8.485  0.3515 -3.3124  1.0494
  472MOL0     H65115  14.003   9.123   8.602 -0.1027  0.7905 -0.2740
  472MOL0     H65116  13.228   8.622   8.530 -0.7962  1.9258 -1.7179
  472MOL0     H65117  12.995   8.613   8.430 -2.1888 -1.5528 -0.4596
  472MOL0     H65118  12.677   8.633   8.401 -0.8876  1.0977 -0.1249
  472MOL0     H65119  12.495   8.765   8.345  1.6477  0.7312  1.7512
  472MOL0     H65120  10.575   9.407   8.039 -0.9841 -0.3229 -0.0259
  472MOL0     H65121  10.370   9.484   8.052  1.0062 -2.2727  0.7332
  472MOL0     H65122  10.024   9.580   8.224  2.8382  0.5258  2.0194
  472MOL0     H65123   9.790   9.581   8.265  0.6054  0.3745 -1.1452
  472MOL0     H65124   9.582   9.618   8.308 -0.0012  0.4813 -0.6571
  472MOL0     H65125   9.577   9.649   8.479  2.4644  0.1540  0.3534
  472MOL0     H65126   9.339   9.637   8.373 -2.4591  2.7895 -1.6959
  472MOL0     H65127   9.387   9.753   8.255  0.9962 -1.4917 -1.1972
  472MOL0     H65128   9.374   9.820   8.545 -0.5857 -1.7220  0.0303
  472MOL0     H65129   9.413   9.935   8.409 -2.6739  0.0297 -2.7200
  472MOL0     H65130   9.183   9.800   8.332  0.4983  1.7405 -1.3644
  472MOL0     H65131   9.197   9.969   8.397  1.0483  0.0531  0.7907
  472MOL0     H65132   9.042   9.821   8.750  3.7596  1.2841  1.9111
  472MOL0     H65133   9.819   9.945   8.480 -0.3203 -1.0522  0.5316
  472MOL0     H65134  10.127  10.033   8.408  0.4277 -0.7434 -0.8150
  472MOL0     H65135  10.013  10.020   8.543  0.5079 -0.0742 -0.1310
  472MOL0     H65136  10.161   9.920   8.552 -0.5169 -0.8409  1.1193
  473MOL0     O65137   9.562   4.682   8.331 -0.2832  0.8989  0.0449
  473MOL0     C65138   9.513   4.574   8.340  0.3401  0.1504  1.0763
  473MOL0     O65139   9.568   4.459   8.379 -0.6095  0.0840  0.3279
  473MOL0     C65140   9.702   4.459   8.418 -0.7277  0.0781 -0.3381
  473MOL0     C65141   9.734   4.425   8.548 -0.8454  0.5372 -0.4691
  473MOL0     C65142   9.871   4.423   8.593 -0.0301 -0.3566  0.8122
  473MOL0     C65143   9.970   4.450   8.497 -0.5948 -0.0180  0.1324
  473MOL0     O65144  10.108   4.449   8.525 -0.1203 -1.0386 -0.2918
  473MOL0     C65145  10.145   4.458   8.666  0.1425 -0.9231 -0.5260
  473MOL0     C65146  10.295   4.478   8.683 -0.1005 -0.2863  0.6795
  473MOL0     C65147  10.337   4.482   8.835  1.0279  0.6110  0.0315
  473MOL0     C65148  10.491   4.491   8.827  0.2238  0.6051 -0.2546
  473MOL0     C65149  10.541   4.527   8.965 -0.5820  0.3635 -0.2223
  473MOL0     C65150  10.697   4.547   8.965  0.6470 -0.2035  0.2421
  473MOL0     C65151  10.738   4.641   9.080 -0.8843 -0.1673  0.2600
  473MOL0     C65152  10.834   4.572   9.182  0.1775  0.5788  0.1490
  473MOL0     N65153  10.977   4.552   9.144 -0.5687 -0.1082  0.0406
  473MOL0     C65154  11.036   4.544   9.023 -0.3582 -1.1206 -0.0383
  473MOL0     C65155  11.170   4.536   9.033 -0.7563  0.0089 -0.6183
  473MOL0     C65156  11.266   4.535   8.918  0.1060 -0.6515 -1.0016
  473MOL0     C65157  11.362   4.410   8.934  0.2140 -0.5251  0.6511
  473MOL0     C65158  11.472   4.413   8.814  0.4085 -0.3162 -0.7267
  473MOL0     C65159  11.525   4.278   8.785 -0.0909 -0.1571 -0.5115
  473MOL0     O65160  11.613   4.297   8.678 -0.2849  0.7380 -0.7416
  473MOL0     C65161  11.706   4.197   8.649 -0.8156  0.4996  1.0591
  473MOL0     C65162  11.670   4.070   8.683  0.1806  0.0979 -0.7158
  473MOL0     C65163  11.757   3.961   8.669  0.0919 -0.3035 -0.4861
  473MOL0     C65164  11.694   3.831   8.707 -0.4054  0.1875  0.1187
  473MOL0     C65165  11.878   3.980   8.593 -0.8905 -0.9459 -0.4815
  473MOL0     C65166  11.969   3.873   8.545  0.8079 -0.8265  0.2252
  473MOL0     O65167  12.074   3.908   8.464 -0.1436 -0.2353  0.1845
  473MOL0     C65168  12.179   3.827   8.429  0.2996 -0.5348 -0.5799
  473MOL0     C65169  12.307   3.890   8.416 -0.0223  0.7505 -0.2130
  473MOL0     C65170  12.421   3.820   8.381  0.1784 -0.5282  0.9803
  473MOL0     C65171  12.411   3.687   8.350  0.2732  0.3178 -0.4543
  473MOL0     O65172  12.520   3.604   8.335 -0.0642 -0.5633 -0.1011
  473MOL0     C65173  12.640   3.652   8.274 -0.0666  0.3714  0.4064
  473MOL0     C65174  12.753   3.560   8.317 -0.1357  0.1890 -0.5470
  473MOL0     C65175  12.887   3.573   8.223  0.2616  1.0483  0.4083
  473MOL0     C65176  12.952   3.706   8.262  0.5090  0.1354  0.4872
  473MOL0     C65177  13.099   3.718   8.221  0.7916  0.1336  0.3504
  473MOL0     C65178  13.132   3.864   8.210 -0.0291 -0.1161  0.1231
  473MOL0     C65179  13.288   3.882   8.188 -0.1245  0.4351  0.0577
  473MOL0     C65180  13.314   4.006   8.107  0.7584 -1.2851  0.5415
  473MOL0    Cl65181  13.291   4.154   8.217 -0.1119 -0.2797  0.2078
  473MOL0     C65182  12.287   3.620   8.365  0.8566  0.6331  0.0821
  473MOL0     C65183  12.173   3.694   8.397  0.8539 -0.1070 -1.2343
  473MOL0     O65184  11.951   3.763   8.594 -0.8305  0.0043 -1.2868
  473MOL0     C65185  11.920   4.114   8.560  0.5466  0.2146 -0.7280
  473MOL0     C65186  11.835   4.221   8.585 -0.2288  0.5255  0.8167
  473MOL0     N65187  11.195   4.541   9.176 -0.6247  0.5379  0.3052
  473MOL0     N65188  11.074   4.554   9.236 -0.1580 -0.0212 -0.4448
  473MOL0     C65189   9.937   4.485   8.371 -0.2974  0.0443  0.8403
  473MOL0     C65190   9.802   4.490   8.325 -0.1297 -0.4066 -0.1712
  473MOL0     C65191   9.387   4.560   8.278 -0.3138 -0.9598  0.0935
  473MOL0     C65192   9.366   4.618   8.149 -0.1287  0.0608 -0.3327
  473MOL0     C65193   9.249   4.596   8.071  0.0168  0.0552  0.3028
  473MOL0     C65194   9.141   4.507   8.107 -0.6732  0.1160 -0.1935
  473MOL0     O65195   9.028   4.500   8.038  0.2371 -0.3622 -0.4459
  473MOL0     C65196   8.930   4.397   8.070 -0.3552  0.5805  0.6064
  473MOL0     C65197   8.814   4.435   7.976  0.4984  0.1262  0.6942
  473MOL0     C65198   8.698   4.329   7.987 -1.0621 -0.1370  0.4833
  473MOL0     C65199   8.594   4.339   7.877  0.0561  0.0380  0.6920
  473MOL0     C65200   8.486   4.424   7.930 -0.4714 -0.2738  1.0255
  473MOL0     C65201   8.376   4.466   7.964 -0.3449 -0.0221 -0.4433
  473MOL0     C65202   9.165   4.455   8.237  0.6131 -0.5165  0.5908
  473MOL0     C65203   9.277   4.484   8.327 -0.4732 -0.6392  0.1547
  473MOL0     C65204   9.279   4.414   8.458 -0.6861 -0.2384  0.0945
  473MOL0     H65205   9.647   4.409   8.610  1.0085 -1.6278  1.8094
  473MOL0     H65206   9.891   4.398   8.697 -1.5153  0.1119  1.2349
  473MOL0     H65207  10.110   4.375   8.729 -0.8134  0.1658  0.4418
  473MOL0     H65208  10.099   4.545   8.714  1.2044 -0.5205 -0.2036
  473MOL0     H65209  10.340   4.393   8.631  0.5707  2.1333 -3.0672
  473MOL0     H65210  10.327   4.569   8.632 -0.8737  0.2721  1.1623
  473MOL0     H65211  10.293   4.576   8.868 -0.7520  0.3494 -1.4043
  473MOL0     H65212  10.312   4.399   8.902  0.4826 -0.2864 -1.2186
  473MOL0     H65213  10.539   4.394   8.807  1.7262  0.9852  1.2948
  473MOL0     H65214  10.518   4.565   8.750 -2.1947  0.6492 -1.1331
  473MOL0     H65215  10.526   4.441   9.032 -0.9322 -0.3320 -1.1670
  473MOL0     H65216  10.490   4.617   8.999 -0.7134  1.7694 -3.7559
  473MOL0     H65217  10.756   4.456   8.975  1.7052 -0.0239 -3.0737
  473MOL0     H65218  10.725   4.589   8.867 -0.5293 -0.8805 -0.4046
  473MOL0     H65219  10.655   4.693   9.128 -2.4134 -1.0782 -1.2787
  473MOL0     H65220  10.791   4.727   9.037 -2.6076  1.4202  1.1580
  473MOL0     H65221  10.840   4.622   9.279  1.3114  0.2925  0.2461
  473MOL0     H65222  10.804   4.469   9.206  0.8223  0.1027 -1.0093
  473MOL0     H65223  10.987   4.569   8.929 -0.4773  2.3711  0.8040
  473MOL0     H65224  11.324   4.628   8.927  1.5666 -1.7040  4.3055
  473MOL0     H65225  11.213   4.524   8.824 -2.2931 -0.4108  0.2438
  473MOL0     H65226  11.408   4.409   9.033  0.3316  0.1686  0.6075
  473MOL0     H65227  11.298   4.321   8.923 -1.0155  0.2381  1.3310
  473MOL0     H65228  11.425   4.462   8.729 -0.7512 -0.1805 -0.0286
  473MOL0     H65229  11.552   4.481   8.842 -0.8667  2.1596 -2.7489
  473MOL0     H65230  11.570   4.244   8.879 -1.5194 -1.0165 -0.1122
  473MOL0     H65231  11.440   4.215   8.757 -0.4702  0.4832 -0.8245
  473MOL0     H65232  11.569   4.051   8.719  0.4372 -1.8705 -0.9296
  473MOL0     H65233  11.638   3.783   8.626  0.3877 -1.4987  0.5113
  473MOL0     H65234  11.639   3.834   8.802  2.2762 -0.9251  1.8415
  473MOL0     H65235  11.777   3.763   8.732  0.7529  0.9345 -1.5495
  473MOL0     H65236  12.309   3.997   8.436  0.3047  0.7467 -0.2224
  473MOL0     H65237  12.511   3.878   8.393  0.3351 -0.5473 -0.0429
  473MOL0     H65238  12.636   3.651   8.165 -0.0724 -1.2245  0.3939
  473MOL0     H65239  12.668   3.754   8.299  2.1371 -0.3262  1.0343
  473MOL0     H65240  12.777   3.579   8.422 -3.7058 -0.9672  0.6503
  473MOL0     H65241  12.724   3.455   8.307 -0.7793  0.4903 -2.2030
  473MOL0     H65242  12.866   3.561   8.116  4.4459 -1.2150 -0.3859
  473MOL0     H65243  12.960   3.494   8.241  0.8096  1.4906  0.1461
  473MOL0     H65244  12.935   3.726   8.368 -2.3664 -0.3112  0.1822
  473MOL0     H65245  12.891   3.784   8.215 -1.7860 -0.6309  2.0475
  473MOL0     H65246  13.155   3.671   8.302  0.7020  1.3991  1.1781
  473MOL0     H65247  13.122   3.652   8.137  0.0471  2.2467 -1.6155
  473MOL0     H65248  13.114   3.915   8.305  2.4398  0.2319  0.4563
  473MOL0     H65249  13.076   3.922   8.136 -0.9230  0.1287  0.9668
  473MOL0     H65250  13.327   3.804   8.122  2.0229  2.5151 -1.3003
  473MOL0     H65251  13.327   3.886   8.290 -0.9881  0.2096  0.4076
  473MOL0     H65252  13.249   4.019   8.020  1.4665  5.0590  0.5351
  473MOL0     H65253  13.411   4.005   8.056 -0.7975 -0.1828 -2.7342
  473MOL0     H65254  12.285   3.514   8.342 -2.0758  0.3278  1.3482
  473MOL0     H65255  12.076   3.644   8.401  0.8003  0.0382 -0.5344
  473MOL0     H65256  12.020   4.130   8.519  1.6008  0.9782  1.9334
  473MOL0     H65257  11.867   4.320   8.554  1.4414  0.9747  3.6036
  473MOL0     H65258  10.019   4.532   8.316  1.6647 -0.0568  3.4806
  473MOL0     H65259   9.779   4.532   8.227  0.9597  1.2751  0.2344
  473MOL0     H65260   9.447   4.680   8.111  0.6389 -0.5347  0.2898
  473MOL0     H65261   9.240   4.641   7.973  1.1683  2.0394  1.0393
  473MOL0     H65262   8.975   4.298   8.054 -1.7197 -1.0111  5.1328
  473MOL0     H65263   8.894   4.400   8.173 -0.1133  1.2327  0.6773
  473MOL0     H65264   8.850   4.463   7.876  0.7852  3.0673  1.5292
  473MOL0     H65265   8.769   4.525   8.019  0.4639 -0.9452  3.0230
  473MOL0     H65266   8.754   4.237   7.973  0.2905  0.3071  2.5591
  473MOL0     H65267   8.658   4.317   8.088 -0.0543 -3.9438  0.5502
  473MOL0     H65268   8.568   4.234   7.857  0.7424  0.2603 -1.6176
  473MOL0     H65269   8.648   4.382   7.793 -1.0964  1.8886  0.8482
  473MOL0     H65270   8.282   4.511   7.989  0.4439  1.1712  0.5064
  473MOL0     H65271   9.086   4.400   8.287  2.5824 -2.2309  1.9647
  473MOL0     H65272   9.342   4.325   8.449  0.6515  0.5918  0.8763
  473MOL0     H65273   9.309   4.481   8.539 -1.9404 -1.7645  1.9073
  473MOL0     H65274   9.187   4.379   8.505  0.9176 -3.2480  1.2278
  474MOL0     O65275   0.532   7.666  11.249  0.9319  0.0161  0.3923
  474MOL0     C65276   0.526   7.747  11.150  0.2701  0.2160  0.0205
  474MOL0     O65277   0.635   7.807  11.101  0.1515  0.7689  0.2255
  474MOL0     C65278   0.753   7.740  11.080 -0.4019 -0.9561 -0.0481
  474MOL0     C65279   0.806   7.749  10.951 -0.5799 -0.0955 -0.4873
  474MOL0     C65280   0.931   7.700  10.922 -0.6541 -0.3971 -1.4345
  474MOL0     C65281   1.006   7.634  11.021  0.0771  1.0072  0.6957
  474MOL0     O65282   1.136   7.592  11.010  0.1206  0.1107 -0.0879
  474MOL0     C65283   1.187   7.556  10.880  0.3395 -0.7968 -0.1379
  474MOL0     C65284   1.323   7.499  10.891 -0.5838 -0.2857  0.5613
  474MOL0     C65285   1.423   7.594  10.961  0.2422 -0.6833 -0.4905
  474MOL0     C65286   1.567   7.538  10.979  1.0410  0.5244 -0.2230
  474MOL0     C65287   1.643   7.638  11.069  0.1777  0.5096 -0.1175
  474MOL0     C65288   1.781   7.579  11.124  0.8532  0.3130  0.4730
  474MOL0     C65289   1.863   7.495  11.019 -0.6820  0.0531 -0.6626
  474MOL0     C65290   1.928   7.573  10.904 -1.0502  0.3694 -0.1661
  474MOL0     N65291   1.997   7.693  10.951  0.0609 -0.7332 -0.4849
  474MOL0     C65292   2.128   7.681  10.995  0.2232  0.1742 -0.0696
  474MOL0     C65293   2.182   7.808  10.986 -0.2553  0.1619 -0.4411
  474MOL0     C65294   2.317   7.849  11.019  0.5617 -0.0073  0.2064
  474MOL0     C65295   2.362   7.969  10.940 -0.4041  0.5042  0.0182
  474MOL0     C65296   2.514   7.997  10.957  0.2383 -0.0014 -0.0429
  474MOL0     C65297   2.569   7.984  11.097  0.3452 -0.4987 -1.5885
  474MOL0     O65298   2.638   7.855  11.100  0.4674 -0.5322  0.2139
  474MOL0     C65299   2.729   7.833  11.207 -1.1541 -0.8963  0.6906
  474MOL0     C65300   2.735   7.919  11.318  0.2258  0.6962 -0.5643
  474MOL0     C65301   2.817   7.893  11.427  0.3105 -0.3534 -0.3152
  474MOL0     C65302   2.843   8.004  11.528  0.2676  1.4714  0.4527
  474MOL0     C65303   2.893   7.773  11.429  1.0417 -0.1519 -0.1910
  474MOL0     C65304   2.995   7.735  11.534  0.4891  0.4303 -0.1237
  474MOL0     O65305   3.040   7.599  11.521  0.0063  0.1061  0.3516
  474MOL0     C65306   3.078   7.543  11.637 -0.4072  0.1340  0.3703
  474MOL0     C65307   2.989   7.534  11.757 -0.5234  0.2776  0.4413
  474MOL0     C65308   3.037   7.484  11.871 -0.5474 -0.0510  0.4525
  474MOL0     C65309   3.172   7.441  11.882  0.0119 -0.0235 -0.6555
  474MOL0     O65310   3.219   7.382  11.999 -0.2149 -0.4005 -0.0622
  474MOL0     C65311   3.126   7.359  12.102 -0.2556  0.7377  0.5393
  474MOL0     C65312   3.190   7.280  12.220 -0.1614  0.7728  0.4462
  474MOL0     C65313   3.104   7.278  12.349  0.7172  0.3484  0.1910
  474MOL0     C65314   3.148   7.204  12.478 -0.5285 -0.2336 -0.1202
  474MOL0     C65315   3.103   7.275  12.602  0.2485  0.8869  0.6416
  474MOL0     C65316   3.076   7.174  12.721  0.8323  0.8875 -0.2048
  474MOL0     C65317   3.012   7.234  12.852 -0.6196 -0.0239  0.1700
  474MOL0     C65318   2.991   7.130  12.960 -0.4550  0.6664 -0.2645
  474MOL0    Cl65319   2.944   7.230  13.104 -0.1691  0.3561 -0.0668
  474MOL0     C65320   3.266   7.468  11.775  0.1695  0.5091 -0.1073
  474MOL0     C65321   3.221   7.511  11.648  0.2550  0.5537  0.2104
  474MOL0     O65322   3.002   7.812  11.633  0.1469 -0.3806  0.9126
  474MOL0     C65323   2.868   7.685  11.323  1.1869 -0.8987 -0.1265
  474MOL0     C65324   2.784   7.708  11.209 -0.2192 -0.0026 -0.7294
  474MOL0     N65325   2.087   7.894  10.945  0.3825  0.5233 -0.1832
  474MOL0     N65326   1.977   7.826  10.924  0.2835 -0.3275 -0.2073
  474MOL0     C65327   0.955   7.633  11.149  0.0061  0.3422 -0.8194
  474MOL0     C65328   0.829   7.678  11.183  0.3443  0.2851 -0.5388
  474MOL0     C65329   0.398   7.804  11.104  0.1507 -0.5930 -0.0917
  474MOL0     C65330   0.398   7.937  11.068  0.1484  0.0201 -0.1267
  474MOL0     C65331   0.294   7.991  10.997 -0.1503  0.6308  0.5912
  474MOL0     C65332   0.171   7.925  10.989  0.2946 -0.2301  0.0649
  474MOL0     O65333   0.063   7.989  10.954 -0.8524 -0.8010 -0.3512
  474MOL0     C65334  -0.021   8.031  11.059  0.4510  0.0486 -0.1929
  474MOL0     C65335  -0.090   8.169  11.022 -0.4132 -0.3077 -0.7044
  474MOL0     C65336   0.011   8.281  10.976  0.0372  0.7283  0.5203
  474MOL0     C65337  -0.058   8.410  10.940 -0.1858  0.0293  0.2008
  474MOL0     C65338  -0.087   8.488  11.055 -0.5412  0.2684 -1.4105
  474MOL0     C65339  -0.109   8.578  11.136  0.1810  0.3143 -0.8197
  474MOL0     C65340   0.169   7.803  11.047  0.5032  0.2230 -0.7165
  474MOL0     C65341   0.274   7.734  11.101 -1.0695  0.2899 -0.6094
  474MOL0     C65342   0.256   7.587  11.136  0.2107 -0.3204  0.3837
  474MOL0     H65343   0.757   7.806  10.873  1.1588  2.2577  0.0043
  474MOL0     H65344   0.976   7.704  10.823  1.9664  0.9421 -0.2977
  474MOL0     H65345   1.193   7.645  10.816 -0.3950 -0.5894  0.0701
  474MOL0     H65346   1.122   7.481  10.835 -1.6547  1.4757 -1.2494
  474MOL0     H65347   1.314   7.404  10.945  0.7517 -0.4685  0.4939
  474MOL0     H65348   1.365   7.473  10.794 -0.6184  0.5471  0.3236
  474MOL0     H65349   1.440   7.686  10.904 -0.5753 -0.1109  0.1744
  474MOL0     H65350   1.383   7.615  11.060 -0.6485 -1.7305 -0.6137
  474MOL0     H65351   1.553   7.440  11.025 -0.8357 -0.2218 -2.2056
  474MOL0     H65352   1.600   7.517  10.877  0.0087 -1.2380 -0.2431
  474MOL0     H65353   1.590   7.663  11.161  1.8891  0.4465  0.9276
  474MOL0     H65354   1.677   7.717  11.001  4.4316  0.2993  1.4761
  474MOL0     H65355   1.835   7.661  11.172 -0.2898  1.9919 -0.9917
  474MOL0     H65356   1.753   7.509  11.203 -2.1652 -1.2169 -1.7524
  474MOL0     H65357   1.800   7.415  10.980 -3.3270  1.3984  0.5737
  474MOL0     H65358   1.945   7.453  11.078  0.9541  2.7811 -0.8155
  474MOL0     H65359   2.007   7.516  10.855  0.1324  0.2613  1.7532
  474MOL0     H65360   1.855   7.606  10.830  0.7800  1.4923 -1.5295
  474MOL0     H65361   2.183   7.591  11.020 -2.6371 -1.3050  1.4945
  474MOL0     H65362   2.391   7.769  11.005 -0.3288 -0.4956 -2.0986
  474MOL0     H65363   2.328   7.861  11.127  2.0764 -0.2610  0.1108
  474MOL0     H65364   2.355   7.953  10.832  0.0865 -1.0349  0.1937
  474MOL0     H65365   2.298   8.056  10.961 -2.7945 -1.0691 -0.4085
  474MOL0     H65366   2.564   7.937  10.881 -0.8608  0.2897 -1.0376
  474MOL0     H65367   2.530   8.101  10.925 -3.5275  0.1933 -1.9090
  474MOL0     H65368   2.633   8.071  11.114 -0.8079 -0.0068  0.5690
  474MOL0     H65369   2.484   7.988  11.166  2.1119  2.3411  0.6283
  474MOL0     H65370   2.681   8.013  11.315 -0.5286  0.2627 -0.9261
  474MOL0     H65371   2.951   8.023  11.532  0.5023  0.7480 -1.3351
  474MOL0     H65372   2.798   7.984  11.626 -0.0043  2.9929  0.6711
  474MOL0     H65373   2.799   8.099  11.496  0.7635  1.4833 -0.2343
  474MOL0     H65374   2.886   7.564  11.749  0.1652  2.8199  0.3523
  474MOL0     H65375   2.968   7.471  11.954 -1.1158  1.3178  0.2265
  474MOL0     H65376   3.086   7.457  12.130  1.8118  2.9988 -3.5521
  474MOL0     H65377   3.053   7.294  12.053  0.3325  0.7364 -0.3649
  474MOL0     H65378   3.212   7.179  12.183 -1.2379  1.0863 -1.2027
  474MOL0     H65379   3.285   7.329  12.240 -0.5855  2.5433 -1.5118
  474MOL0     H65380   3.018   7.216  12.321  1.2121  0.2031 -1.0990
  474MOL0     H65381   3.073   7.379  12.375 -0.5568  0.0776 -0.2261
  474MOL0     H65382   3.256   7.185  12.475 -0.2747  0.8609  0.9126
  474MOL0     H65383   3.109   7.104  12.498 -1.9523  0.4505  0.6865
  474MOL0     H65384   3.179   7.353  12.613  2.1588 -0.5510 -1.3653
  474MOL0     H65385   3.002   7.311  12.580 -1.1049 -2.0481  1.6134
  474MOL0     H65386   3.167   7.118  12.744  1.7965  2.3831 -0.1798
  474MOL0     H65387   3.009   7.096  12.686 -2.2927  3.3168 -0.0346
  474MOL0     H65388   2.917   7.283  12.826  1.8198  4.1598 -1.9862
  474MOL0     H65389   3.080   7.313  12.884  2.6046 -1.7195 -1.9441
  474MOL0     H65390   3.072   7.058  12.974 -1.4659 -0.2848  0.9602
  474MOL0     H65391   2.911   7.058  12.941  1.8769 -1.9901 -0.6877
  474MOL0     H65392   3.368   7.430  11.776 -1.5265 -5.1355 -2.7028
  474MOL0     H65393   3.288   7.500  11.564  0.0092 -2.6853  0.3185
  474MOL0     H65394   2.925   7.594  11.312  1.1171 -0.9057 -0.4429
  474MOL0     H65395   2.761   7.635  11.132  0.4787 -0.2332 -0.7315
  474MOL0     H65396   1.017   7.600  11.231 -0.5866 -2.8320 -1.5138
  474MOL0     H65397   0.782   7.679  11.281  1.3150 -0.9356 -0.0505
  474MOL0     H65398   0.491   7.989  11.087 -0.6252  0.6761  2.1589
  474MOL0     H65399   0.311   8.087  10.950  0.8482  0.8389  1.3533
  474MOL0     H65400  -0.093   7.951  11.077  0.2351  0.2236 -0.2771
  474MOL0     H65401   0.039   8.047  11.149  3.9104 -1.6199 -2.0372
  474MOL0     H65402  -0.137   8.214  11.109  2.9428  1.8313  0.2147
  474MOL0     H65403  -0.169   8.171  10.946  0.0949  1.2285 -1.2319
  474MOL0     H65404   0.086   8.305  11.052  2.3180  0.8269 -1.6305
  474MOL0     H65405   0.059   8.232  10.891 -1.6173 -1.9164  0.9881
  474MOL0     H65406  -0.154   8.378  10.897  0.1390 -0.6020 -0.0813
  474MOL0     H65407  -0.003   8.480  10.876 -0.9952  1.4601  1.0180
  474MOL0     H65408  -0.118   8.660  11.204 -0.0095  1.7730 -2.5114
  474MOL0     H65409   0.075   7.749  11.042  1.4590 -1.3793 -3.4265
  474MOL0     H65410   0.199   7.584  11.229  0.0189  0.9221  0.3126
  474MOL0     H65411   0.198   7.544  11.053 -0.5010  3.2153 -1.1106
  474MOL0     H65412   0.350   7.533  11.148 -0.2844 -0.9671  1.5648
  475MOL0     O65413   8.516   3.452   5.859  0.8900 -0.4957  0.1994
  475MOL0     C65414   8.469   3.378   5.772 -0.1396  0.8867  0.4388
  475MOL0     O65415   8.536   3.337   5.660 -0.0414  0.2363 -0.7321
  475MOL0     C65416   8.673   3.356   5.662  0.4996  0.2171  1.5734
  475MOL0     C65417   8.726   3.411   5.540  0.0603  0.0788  1.0419
  475MOL0     C65418   8.864   3.422   5.522 -0.8797  0.6703 -0.9064
  475MOL0     C65419   8.953   3.394   5.629  0.0159 -1.1432  0.4506
  475MOL0     O65420   9.090   3.402   5.614  0.5702  0.0434  0.5212
  475MOL0     C65421   9.166   3.460   5.725 -0.0097  0.0148  1.1605
  475MOL0     C65422   9.267   3.359   5.769  0.3382  0.6879 -0.1872
  475MOL0     C65423   9.358   3.315   5.646  0.2008  0.4007  0.1747
  475MOL0     C65424   9.479   3.238   5.701  0.1817  0.4290  0.1766
  475MOL0     C65425   9.569   3.203   5.593 -0.7310 -0.4616 -0.1102
  475MOL0     C65426   9.688   3.127   5.657  0.2836 -0.4069  0.2055
  475MOL0     C65427   9.782   3.073   5.541  0.5216 -0.4061 -0.2796
  475MOL0     C65428   9.859   2.947   5.586 -0.7501 -0.8478  0.4501
  475MOL0     N65429   9.938   2.904   5.467 -0.3433  0.2712 -0.0177
  475MOL0     C65430  10.066   2.951   5.431 -0.3754 -0.3368 -0.3806
  475MOL0     C65431  10.092   2.902   5.315 -0.3265  0.0560  1.1031
  475MOL0     C65432  10.216   2.928   5.236  0.1623 -0.1494  0.4852
  475MOL0     C65433  10.342   2.870   5.290 -0.5630 -1.0591 -0.1300
  475MOL0     C65434  10.464   2.937   5.216 -0.4037  0.0877 -0.3456
  475MOL0     C65435  10.603   2.881   5.244 -0.1967 -0.7810  0.5781
  475MOL0     O65436  10.697   2.972   5.196  0.6267  0.5614  0.2511
  475MOL0     C65437  10.803   2.925   5.131  0.2959 -0.1461  0.2241
  475MOL0     C65438  10.832   2.949   4.992  0.1021 -0.2987 -0.3198
  475MOL0     C65439  10.959   2.927   4.940 -0.2422 -0.4970  0.4640
  475MOL0     C65440  10.969   2.971   4.795  0.5773 -0.8919 -0.0175
  475MOL0     C65441  11.047   2.852   5.022 -0.3099 -0.6412 -0.1939
  475MOL0     C65442  11.178   2.799   4.971 -0.5110 -0.1725  0.5590
  475MOL0     O65443  11.247   2.717   5.053 -0.1233  0.0182  0.2756
  475MOL0     C65444  11.375   2.674   5.011 -0.1888 -0.5654  0.2251
  475MOL0     C65445  11.381   2.592   4.893 -0.4542 -0.7335 -0.6187
  475MOL0     C65446  11.501   2.533   4.858 -0.0119 -0.5435 -0.5334
  475MOL0     C65447  11.616   2.556   4.935  0.9043 -0.2432 -0.2234
  475MOL0     O65448  11.731   2.510   4.891 -0.6370 -0.3601  0.8887
  475MOL0     C65449  11.795   2.578   4.776  0.4611  0.4292  0.2089
  475MOL0     C65450  11.892   2.485   4.705  0.0765 -0.2513  0.1752
  475MOL0     C65451  11.902   2.485   4.556 -0.3035 -1.0344  0.5215
  475MOL0     C65452  12.049   2.432   4.515  0.1227 -0.1499  0.0501
  475MOL0     C65453  12.164   2.528   4.536  0.1773  0.0655  0.1035
  475MOL0     C65454  12.181   2.635   4.419 -0.5323  0.1715 -0.3991
  475MOL0     C65455  12.304   2.732   4.461 -0.4458  0.4024 -0.1158
  475MOL0     C65456  12.333   2.833   4.346  0.1505 -0.7030  0.0288
  475MOL0    Cl65457  12.392   2.749   4.196  0.3332 -0.1093  0.0562
  475MOL0     C65458  11.611   2.619   5.056 -0.1400 -0.1374  0.7949
  475MOL0     C65459  11.495   2.681   5.095  0.7920  0.4783  0.2686
  475MOL0     O65460  11.214   2.836   4.862 -0.2638 -0.0356  0.5188
  475MOL0     C65461  11.015   2.813   5.152 -0.0327  0.0039  0.5656
  475MOL0     C65462  10.899   2.854   5.214 -0.5943  0.0912 -0.2639
  475MOL0     N65463   9.988   2.822   5.267 -1.0474 -0.6907  0.1852
  475MOL0     N65464   9.898   2.816   5.363 -0.2579  0.1686 -0.4998
  475MOL0     C65465   8.905   3.341   5.750  0.5044 -0.6812 -0.1262
  475MOL0     C65466   8.768   3.328   5.768  0.1639  0.5425 -0.1238
  475MOL0     C65467   8.337   3.313   5.803  0.8566  1.1685  1.0487
  475MOL0     C65468   8.295   3.201   5.721 -0.0202  0.6084 -0.0869
  475MOL0     C65469   8.162   3.142   5.729 -1.3839 -0.0697 -0.1416
  475MOL0     C65470   8.081   3.190   5.837  0.1086 -1.0194  0.0027
  475MOL0     O65471   7.972   3.110   5.867 -0.1167  0.3316  0.7609
  475MOL0     C65472   7.862   3.181   5.929 -0.5564  0.1971 -0.3996
  475MOL0     C65473   7.737   3.107   5.895  0.4273  0.6128 -0.5277
  475MOL0     C65474   7.717   2.967   5.963 -0.3144  0.5062  0.3256
  475MOL0     C65475   7.570   2.911   5.930  0.6416  1.7157 -0.0750
  475MOL0     C65476   7.543   2.780   5.991  0.9395  0.2857 -0.5563
  475MOL0     C65477   7.528   2.670   6.048  0.6638  0.2688 -0.0067
  475MOL0     C65478   8.122   3.297   5.918 -0.3933  0.2232  0.0443
  475MOL0     C65479   8.245   3.355   5.900 -0.0528  0.1571  0.3782
  475MOL0     C65480   8.271   3.479   5.986  0.4742 -0.4484 -1.1041
  475MOL0     H65481   8.672   3.448   5.454 -0.9392 -0.7041  1.3098
  475MOL0     H65482   8.907   3.453   5.427 -2.4199  2.6037 -1.0276
  475MOL0     H65483   9.102   3.487   5.809 -0.2719 -0.1410  1.0160
  475MOL0     H65484   9.231   3.540   5.690  1.1330 -0.5167  2.0123
  475MOL0     H65485   9.330   3.411   5.842 -1.0733  0.3698  1.3114
  475MOL0     H65486   9.223   3.278   5.828 -0.2996  0.2981 -1.1778
  475MOL0     H65487   9.297   3.252   5.581 -0.4575 -0.0293  1.1796
  475MOL0     H65488   9.393   3.401   5.588 -4.3903  1.4278 -1.5896
  475MOL0     H65489   9.533   3.291   5.781 -1.2114 -0.9054  2.0947
  475MOL0     H65490   9.438   3.150   5.750 -1.7541  2.4735  2.5075
  475MOL0     H65491   9.614   3.285   5.536 -1.5388 -1.9069 -2.9807
  475MOL0     H65492   9.516   3.140   5.521 -0.1378 -1.7485  0.5492
  475MOL0     H65493   9.745   3.194   5.723  1.1239  2.3470 -2.9968
  475MOL0     H65494   9.662   3.037   5.713  0.1399 -1.7187 -1.8885
  475MOL0     H65495   9.852   3.151   5.510  0.2494  1.5519  3.4934
  475MOL0     H65496   9.715   3.046   5.458 -0.3424  4.7298 -1.5950
  475MOL0     H65497   9.930   2.973   5.665  1.3672  0.0610 -1.6207
  475MOL0     H65498   9.784   2.871   5.608 -1.3924 -0.6897 -1.0875
  475MOL0     H65499  10.127   3.023   5.484 -3.1180  1.9435 -0.1034
  475MOL0     H65500  10.212   3.034   5.209 -3.1293 -0.8029 -2.2079
  475MOL0     H65501  10.201   2.882   5.138  0.0968 -0.7133  0.7605
  475MOL0     H65502  10.347   2.895   5.396 -0.2745 -0.4931 -0.2729
  475MOL0     H65503  10.349   2.761   5.291 -0.9046 -1.0814  0.4439
  475MOL0     H65504  10.451   2.929   5.108 -1.1996  0.8207 -0.3119
  475MOL0     H65505  10.469   3.045   5.228  2.1747  0.0943 -0.8972
  475MOL0     H65506  10.598   2.864   5.352 -0.1878  0.1961  0.7399
  475MOL0     H65507  10.620   2.786   5.193  1.4304 -0.5031  0.5348
  475MOL0     H65508  10.758   3.002   4.934  0.7899 -0.4351 -1.3590
  475MOL0     H65509  11.053   3.040   4.783 -0.3339  0.5908  1.6247
  475MOL0     H65510  10.883   3.032   4.768  0.1510 -0.9419  1.1648
  475MOL0     H65511  10.982   2.887   4.727  1.0751 -0.3089 -0.6529
  475MOL0     H65512  11.299   2.552   4.835 -0.5850 -1.3216 -0.0357
  475MOL0     H65513  11.499   2.465   4.773  0.7117  0.2722 -1.2131
  475MOL0     H65514  11.724   2.604   4.697  0.8825  0.3034 -0.2168
  475MOL0     H65515  11.841   2.669   4.817  0.0856  1.2522 -1.1277
  475MOL0     H65516  11.987   2.515   4.751 -0.3357  4.6125 -1.6543
  475MOL0     H65517  11.876   2.379   4.727 -3.1661 -0.0141 -0.5922
  475MOL0     H65518  11.896   2.589   4.523  1.9499 -0.1766  2.5008
  475MOL0     H65519  11.827   2.425   4.503 -0.9081  2.9532 -3.8108
  475MOL0     H65520  12.053   2.400   4.411 -1.9403 -1.3578  0.2838
  475MOL0     H65521  12.059   2.338   4.570  0.5110 -0.8004 -1.1014
  475MOL0     H65522  12.142   2.577   4.631 -2.2358 -1.5956  0.4897
  475MOL0     H65523  12.255   2.469   4.548 -0.0509 -0.3401 -0.1185
  475MOL0     H65524  12.091   2.694   4.401 -0.4831 -0.4672 -3.0991
  475MOL0     H65525  12.200   2.593   4.320 -1.3731 -4.1580  1.0761
  475MOL0     H65526  12.393   2.672   4.480 -0.9610 -0.0744  0.8715
  475MOL0     H65527  12.294   2.788   4.555  1.2998 -0.3360  0.5370
  475MOL0     H65528  12.415   2.899   4.377  1.2719 -2.9032  2.1156
  475MOL0     H65529  12.239   2.883   4.320 -1.2916 -1.1544  3.7517
  475MOL0     H65530  11.694   2.621   5.126 -0.5727  0.9785  1.2874
  475MOL0     H65531  11.498   2.741   5.185  1.3875  2.0942 -0.7832
  475MOL0     H65532  11.089   2.751   5.201  1.5764  0.4585 -1.1696
  475MOL0     H65533  10.871   2.839   5.318 -2.8662 -1.2659 -1.0001
  475MOL0     H65534   8.967   3.299   5.829  2.5801  0.6419 -0.9489
  475MOL0     H65535   8.724   3.295   5.861 -0.7703 -1.7146 -1.2916
  475MOL0     H65536   8.365   3.156   5.651 -0.8604 -1.8128  0.5406
  475MOL0     H65537   8.123   3.053   5.681 -0.1750 -1.4289  1.2607
  475MOL0     H65538   7.876   3.191   6.037  0.5494  0.9896 -0.6077
  475MOL0     H65539   7.844   3.277   5.881 -3.4173 -0.3881 -0.7059
  475MOL0     H65540   7.732   3.097   5.786  0.0793  2.6299 -0.7273
  475MOL0     H65541   7.654   3.174   5.918  1.0383  1.7071 -1.4384
  475MOL0     H65542   7.788   2.894   5.923 -2.5244 -0.7662 -1.5054
  475MOL0     H65543   7.727   2.976   6.072 -0.8809  1.5257  0.3096
  475MOL0     H65544   7.545   2.925   5.824  0.7179 -0.3906 -0.4198
  475MOL0     H65545   7.495   2.979   5.971  0.9689  2.1363 -0.1628
  475MOL0     H65546   7.506   2.567   6.068  2.1628  0.0473  0.6524
  475MOL0     H65547   8.069   3.330   6.007  1.6304  1.8005  0.7583
  475MOL0     H65548   8.176   3.509   6.029  1.1438  1.0847 -0.6102
  475MOL0     H65549   8.334   3.453   6.072 -3.2189  0.1000  2.0121
  475MOL0     H65550   8.308   3.562   5.925  1.6395 -0.0097  0.1561
  476MOL0     O65551  10.525   6.395   9.617  0.1013  0.0037  0.0346
  476MOL0     C65552  10.556   6.281   9.589  0.2844  0.3644 -0.0045
  476MOL0     O65553  10.676   6.217   9.623  0.5756 -0.2532  0.8337
  476MOL0     C65554  10.732   6.257   9.741 -0.4728  0.9193 -0.3216
  476MOL0     C65555  10.870   6.229   9.739 -0.1023  0.0267 -0.1687
  476MOL0     C65556  10.954   6.262   9.845  0.7673 -0.6686  0.5373
  476MOL0     C65557  10.901   6.315   9.964  0.4603 -0.3025 -1.3077
  476MOL0     O65558  10.991   6.336  10.064  0.9098  0.1095  0.2201
  476MOL0     C65559  10.955   6.295  10.199 -0.3400 -0.3886 -0.3629
  476MOL0     C65560  10.980   6.401  10.298 -0.7208 -0.5077 -0.1009
  476MOL0     C65561  10.915   6.542  10.258  0.8012 -0.1516 -0.3294
  476MOL0     C65562  10.955   6.652  10.359 -0.3992  0.1996  0.7994
  476MOL0     C65563  10.875   6.781  10.365  0.2706  0.3349 -0.1609
  476MOL0     C65564  10.738   6.757  10.428 -0.1047 -0.4742 -0.4924
  476MOL0     C65565  10.648   6.884  10.413 -0.6758 -0.2320  0.4554
  476MOL0     C65566  10.691   6.995  10.508 -0.2158 -0.1405  0.0602
  476MOL0     N65567  10.628   7.122  10.475  0.6253  0.1352  0.5512
  476MOL0     C65568  10.590   7.174  10.349 -0.3894 -0.1822 -0.4557
  476MOL0     C65569  10.562   7.303  10.376 -0.2543 -0.9420 -0.6046
  476MOL0     C65570  10.504   7.393  10.273  1.0830 -0.2019 -0.2948
  476MOL0     C65571  10.356   7.421  10.285  0.7330  1.3675  0.1953
  476MOL0     C65572  10.287   7.304  10.211  0.6601  0.4088 -0.6578
  476MOL0     C65573  10.131   7.289  10.243  0.2007  0.8964  0.3451
  476MOL0     O65574  10.093   7.302  10.381 -0.2925 -0.9110 -0.1438
  476MOL0     C65575   9.972   7.277  10.419  0.2245  0.7081 -0.8082
  476MOL0     C65576   9.863   7.240  10.342 -0.5075  0.4453  0.8999
  476MOL0     C65577   9.737   7.215  10.392  0.0892 -0.0038  0.1844
  476MOL0     C65578   9.620   7.186  10.296  0.0991 -0.9149 -0.8947
  476MOL0     C65579   9.715   7.227  10.536  0.1158 -0.3943  0.7848
  476MOL0     C65580   9.573   7.213  10.606  0.2357 -0.4715 -0.4798
  476MOL0     O65581   9.576   7.225  10.746  0.7395 -0.3597 -0.2336
  476MOL0     C65582   9.447   7.251  10.795 -0.2521 -0.2034  0.0824
  476MOL0     C65583   9.400   7.374  10.865  0.1285  1.0168  0.6966
  476MOL0     C65584   9.268   7.379  10.928 -0.2619  0.2076  0.9959
  476MOL0     C65585   9.183   7.267  10.926  0.5127  0.1000  0.5470
  476MOL0     O65586   9.069   7.255  10.994  0.5644  0.1321  0.2666
  476MOL0     C65587   9.085   7.287  11.126 -0.1014 -0.1436 -0.2653
  476MOL0     C65588   8.982   7.214  11.215  0.1969 -0.5866  0.5863
  476MOL0     C65589   8.833   7.210  11.166  0.3566  0.6118  0.1324
  476MOL0     C65590   8.784   7.359  11.167 -1.2626  0.5292  0.6642
  476MOL0     C65591   8.655   7.380  11.090  0.5212  0.2366  0.7034
  476MOL0     C65592   8.609   7.533  11.093 -0.1060 -1.3414 -0.5683
  476MOL0     C65593   8.482   7.557  11.003  0.5093 -0.3292  0.4084
  476MOL0     C65594   8.463   7.703  10.967  0.3810  0.1368 -0.3614
  476MOL0    Cl65595   8.307   7.715  10.879  0.4916 -0.2232 -0.1551
  476MOL0     C65596   9.227   7.160  10.859 -1.2033  0.9147 -0.0200
  476MOL0     C65597   9.351   7.149  10.795 -0.0421  1.1401 -0.3836
  476MOL0     O65598   9.476   7.209  10.533 -0.4238 -0.4426 -0.1671
  476MOL0     C65599   9.827   7.263  10.622 -0.8584  0.1301  0.2778
  476MOL0     C65600   9.952   7.284  10.559  0.5248  1.2490  0.3738
  476MOL0     N65601  10.588   7.331  10.518  0.1660  0.0154  0.4609
  476MOL0     N65602  10.624   7.222  10.570  0.3805  0.6018  0.2647
  476MOL0     C65603  10.760   6.344   9.962  0.6046  0.0664 -0.8360
  476MOL0     C65604  10.678   6.320   9.851 -0.5293 -0.3805  0.0095
  476MOL0     C65605  10.473   6.199   9.492  0.5278  0.3939 -0.0718
  476MOL0     C65606  10.509   6.070   9.464 -0.3105  0.0827 -0.4081
  476MOL0     C65607  10.439   5.988   9.367  0.2043  1.1282 -0.2438
  476MOL0     C65608  10.341   6.045   9.289  1.4169  0.8412 -0.0291
  476MOL0     O65609  10.293   5.981   9.179  0.3619  0.4063  0.6694
  476MOL0     C65610  10.327   5.844   9.139  0.8802 -0.3952  0.3857
  476MOL0     C65611  10.266   5.820   8.998  0.3254 -0.0365  0.9422
  476MOL0     C65612  10.282   5.933   8.888 -0.0524  0.2500 -0.0417
  476MOL0     C65613  10.431   5.959   8.836 -0.2391 -0.1087 -1.5973
  476MOL0     C65614  10.489   5.839   8.782  0.0558  0.1128 -0.1239
  476MOL0     C65615  10.524   5.737   8.732  0.1510 -1.1318  0.2050
  476MOL0     C65616  10.303   6.182   9.312  0.1413 -0.2956 -0.0646
  476MOL0     C65617  10.366   6.257   9.414 -0.1157 -0.2537  0.4329
  476MOL0     C65618  10.314   6.400   9.420 -0.0586 -0.1751 -0.8117
  476MOL0     H65619  10.907   6.182   9.649 -0.9379 -0.7619 -0.1122
  476MOL0     H65620  11.062   6.260   9.839  0.7797 -0.9820  0.8119
  476MOL0     H65621  11.020   6.212  10.231  1.4827  1.2374  0.3407
  476MOL0     H65622  10.850   6.265  10.199 -0.0801 -1.4266 -1.9144
  476MOL0     H65623  10.933   6.384  10.395  2.2378  3.6765  2.3753
  476MOL0     H65624  11.089   6.406  10.310 -0.9915  0.1727  2.9343
  476MOL0     H65625  10.938   6.563  10.154 -0.2635 -1.8353 -0.9436
  476MOL0     H65626  10.806   6.531  10.263  0.9053 -1.1895 -0.1748
  476MOL0     H65627  10.953   6.606  10.459  0.4265 -1.5787  0.0458
  476MOL0     H65628  11.061   6.674  10.345  0.0049 -0.1232  3.0022
  476MOL0     H65629  10.851   6.806  10.261  1.2294  1.4633 -0.1323
  476MOL0     H65630  10.925   6.864  10.414 -1.3612 -1.6785  5.7385
  476MOL0     H65631  10.677   6.677  10.386 -1.2131 -0.2661  0.6492
  476MOL0     H65632  10.756   6.738  10.534 -2.4644  2.1004  0.4941
  476MOL0     H65633  10.548   6.853  10.444  0.4213 -1.0773  3.5008
  476MOL0     H65634  10.653   6.911  10.307 -0.0734 -0.6313  0.3786
  476MOL0     H65635  10.671   6.975  10.614  0.2525 -1.1374 -0.0242
  476MOL0     H65636  10.798   7.007  10.487 -0.0364  1.5391  1.7620
  476MOL0     H65637  10.574   7.120  10.256  0.2759 -2.5387  0.7093
  476MOL0     H65638  10.541   7.369  10.173 -1.3912  2.3465 -1.9879
  476MOL0     H65639  10.566   7.481  10.296  0.9642 -0.1517 -0.1674
  476MOL0     H65640  10.328   7.419  10.391 -1.8935  0.0792 -0.4257
  476MOL0     H65641  10.321   7.514  10.239 -0.7782  0.5788 -0.3297
  476MOL0     H65642  10.302   7.308  10.103  1.7172 -2.3554 -0.6939
  476MOL0     H65643  10.341   7.214  10.245  0.4271 -0.4620 -2.4648
  476MOL0     H65644  10.071   7.360  10.186  0.5365  1.6659  0.9297
  476MOL0     H65645  10.101   7.188  10.213  0.2008  0.0738  2.9016
  476MOL0     H65646   9.876   7.245  10.234  5.4838  3.4854  1.3328
  476MOL0     H65647   9.568   7.092  10.315 -0.9016 -0.2579 -0.3027
  476MOL0     H65648   9.647   7.180  10.190  0.5566 -2.4713 -0.7163
  476MOL0     H65649   9.546   7.265  10.307  1.4932  0.1532  2.1640
  476MOL0     H65650   9.468   7.458  10.875  0.4286  1.0636 -1.3204
  476MOL0     H65651   9.238   7.469  10.980 -2.4120 -0.2273  0.6335
  476MOL0     H65652   9.180   7.265  11.176 -0.0592 -2.2359 -1.1450
  476MOL0     H65653   9.073   7.395  11.139  0.7779 -0.1908  1.1608
  476MOL0     H65654   9.026   7.114  11.229  2.3397  0.4830  2.1272
  476MOL0     H65655   8.970   7.260  11.313  2.1389 -1.5641  1.3583
  476MOL0     H65656   8.766   7.147  11.225  1.8619 -1.0178  0.1937
  476MOL0     H65657   8.831   7.171  11.064  0.5182 -0.2147  0.4356
  476MOL0     H65658   8.852   7.416  11.103 -2.1075 -0.1796 -0.9287
  476MOL0     H65659   8.779   7.403  11.267  0.0907  0.9839  0.5570
  476MOL0     H65660   8.696   7.349  10.993 -0.8198 -1.8473  0.7399
  476MOL0     H65661   8.567   7.321  11.117 -1.3853  3.3038  1.7468
  476MOL0     H65662   8.682   7.599  11.044 -0.4816 -0.3981  0.1224
  476MOL0     H65663   8.593   7.559  11.198 -1.7174 -0.8396 -0.9171
  476MOL0     H65664   8.400   7.521  11.066 -1.3915  2.6802 -0.1118
  476MOL0     H65665   8.498   7.501  10.911  0.3573 -0.4522  0.4561
  476MOL0     H65666   8.551   7.728  10.908  1.1525 -2.3871 -0.4102
  476MOL0     H65667   8.451   7.766  11.055 -1.1190 -1.7251  0.8590
  476MOL0     H65668   9.179   7.064  10.878  0.3779  0.6673  3.5432
  476MOL0     H65669   9.355   7.047  10.756 -2.1760  0.2056  1.5565
  476MOL0     H65670   9.819   7.283  10.728 -0.8233  0.2484  0.2594
  476MOL0     H65671  10.037   7.312  10.620 -0.4377 -0.1293  2.4796
  476MOL0     H65672  10.714   6.388  10.050  0.0007 -2.3254  0.1297
  476MOL0     H65673  10.577   6.358   9.849 -0.1071  0.7808 -0.1123
  476MOL0     H65674  10.592   6.031   9.522  0.9420 -0.3777 -2.3796
  476MOL0     H65675  10.467   5.884   9.357 -2.9355  0.0985  0.4742
  476MOL0     H65676  10.436   5.833   9.136  1.0338  0.6547  1.5624
  476MOL0     H65677  10.281   5.773   9.208  1.1046 -1.0503 -0.1263
  476MOL0     H65678  10.159   5.806   9.015  0.2977  0.5146  1.2401
  476MOL0     H65679  10.298   5.728   8.948 -2.1387 -0.1009 -0.6752
  476MOL0     H65680  10.223   5.911   8.798  0.2322 -2.2015  0.3048
  476MOL0     H65681  10.251   6.031   8.925  0.8098  1.0289 -1.3072
  476MOL0     H65682  10.488   5.991   8.924 -0.3954  0.7628 -1.8070
  476MOL0     H65683  10.442   6.039   8.762  0.9498  1.2685  0.0033
  476MOL0     H65684  10.555   5.646   8.686 -1.1626 -2.0496  1.0700
  476MOL0     H65685  10.235   6.229   9.243  2.8127 -0.3979 -2.9699
  476MOL0     H65686  10.243   6.426   9.499  0.9817  1.4048 -0.3404
  476MOL0     H65687  10.385   6.479   9.447  0.0580  0.7049 -3.3446
  476MOL0     H65688  10.270   6.427   9.323  1.1212 -2.1433 -1.9569
  477MOL0     O65689  10.520   1.524   3.518 -0.3624 -0.2042  0.2263
  477MOL0     C65690  10.434   1.448   3.553 -0.4307  0.4734 -0.3012
  477MOL0     O65691  10.435   1.315   3.530  0.0424  0.4930 -0.2231
  477MOL0     C65692  10.542   1.248   3.482  0.5395 -0.1198  0.4286
  477MOL0     C65693  10.548   1.113   3.516  0.7552  0.4273 -0.4264
  477MOL0     C65694  10.641   1.028   3.464 -0.5422 -0.2607  0.0255
  477MOL0     C65695  10.752   1.071   3.388  0.3173 -0.4100 -0.2628
  477MOL0     O65696  10.835   0.984   3.322 -0.7231 -0.3303  0.5754
  477MOL0     C65697  10.790   0.858   3.270  0.7451  0.3622 -0.2333
  477MOL0     C65698  10.910   0.769   3.240  0.0143  0.6793  1.0357
  477MOL0     C65699  10.967   0.716   3.367  0.6224 -1.1157 -0.4409
  477MOL0     C65700  11.075   0.604   3.341 -0.0628 -0.3841  0.6292
  477MOL0     C65701  11.213   0.661   3.303 -0.1543  0.0722  0.6062
  477MOL0     C65702  11.304   0.546   3.263  1.2849 -0.6092 -0.3439
  477MOL0     C65703  11.448   0.577   3.286 -0.3510 -0.2644  0.6455
  477MOL0     C65704  11.497   0.590   3.433 -0.8432 -0.6212  0.2627
  477MOL0     N65705  11.632   0.639   3.453  0.2590  1.2218 -0.1440
  477MOL0     C65706  11.743   0.589   3.397 -0.1973  0.1137  0.2109
  477MOL0     C65707  11.839   0.675   3.438 -0.5147  0.6798 -0.6107
  477MOL0     C65708  11.984   0.676   3.385 -0.0871 -0.1767 -0.0818
  477MOL0     C65709  12.063   0.560   3.446 -1.0690 -0.8877  0.7865
  477MOL0     C65710  12.010   0.414   3.445 -0.4693  0.5696  1.0777
  477MOL0     C65711  12.127   0.305   3.448  0.2428 -0.3981  0.0646
  477MOL0     O65712  12.237   0.333   3.361 -0.2099  0.4628 -0.9690
  477MOL0     C65713  12.359   0.292   3.414 -0.3647 -0.5645 -0.3013
  477MOL0     C65714  12.402   0.164   3.399 -0.1633 -0.1922  0.5579
  477MOL0     C65715  12.529   0.123   3.438  0.3934 -0.5856 -0.1183
  477MOL0     C65716  12.562  -0.010   3.392  0.1769 -0.7029  0.1985
  477MOL0     C65717  12.620   0.207   3.511  0.8778  1.0695  0.2476
  477MOL0     C65718  12.748   0.166   3.560  0.5677  0.2003 -0.1020
  477MOL0     O65719  12.784   0.236   3.672 -0.2064  0.9087  0.0581
  477MOL0     C65720  12.913   0.210   3.726  0.5134  0.1905 -0.1242
  477MOL0     C65721  13.017   0.289   3.686  1.0446 -0.3368  0.9856
  477MOL0     C65722  13.148   0.259   3.707 -0.3258 -0.5752 -0.4163
  477MOL0     C65723  13.175   0.148   3.786  0.3108  0.3762  0.8938
  477MOL0     O65724  13.296   0.111   3.831  0.1213 -0.0468  0.5664
  477MOL0     C65725  13.410   0.141   3.741 -0.7934 -0.5210  0.2453
  477MOL0     C65726  13.441   0.032   3.638  0.7120 -0.1678  0.8442
  477MOL0     C65727  13.542   0.085   3.537 -0.8055  0.5702 -0.9404
  477MOL0     C65728  13.687   0.050   3.573 -0.5222  0.0781  0.2881
  477MOL0     C65729  13.784   0.133   3.485  0.4048 -0.5591 -0.1958
  477MOL0     C65730  13.923   0.076   3.511 -0.1220  0.4643 -0.6145
  477MOL0     C65731  14.035   0.173   3.473  0.4042  0.1521  0.0179
  477MOL0     C65732  14.061   0.189   3.322 -0.7602 -0.1112 -0.5132
  477MOL0    Cl65733  14.126   0.029   3.266 -0.1849  0.7245 -0.0829
  477MOL0     C65734  13.074   0.069   3.833  1.3838  0.4323  0.1979
  477MOL0     C65735  12.940   0.089   3.795 -0.0879 -0.0531  0.0935
  477MOL0     O65736  12.816   0.075   3.506  0.8168  0.6902 -0.5702
  477MOL0     C65737  12.560   0.334   3.531 -0.3042  0.3217 -1.3467
  477MOL0     C65738  12.439   0.385   3.478  0.0297  0.2339  0.1780
  477MOL0     N65739  11.784   0.766   3.517 -0.1652  0.5496  0.0052
  477MOL0     N65740  11.656   0.746   3.536 -0.4015 -0.1191 -0.0953
  477MOL0     C65741  10.751   1.207   3.357 -0.1142  0.1639  0.4505
  477MOL0     C65742  10.653   1.298   3.403 -0.1931  1.1519  0.3286
  477MOL0     C65743  10.311   1.501   3.606 -0.2371  0.1856 -0.5634
  477MOL0     C65744  10.189   1.439   3.569  0.1170  0.1753  0.0216
  477MOL0     C65745  10.061   1.487   3.604 -0.3327 -0.5888 -0.0026
  477MOL0     C65746  10.057   1.598   3.691  0.6401 -0.2397  0.4169
  477MOL0     O65747   9.941   1.643   3.742  0.9007 -0.7193 -0.1766
  477MOL0     C65748   9.860   1.550   3.817 -0.3733 -0.3007 -0.2575
  477MOL0     C65749   9.741   1.495   3.732  0.2890 -0.6028 -0.4951
  477MOL0     C65750   9.657   1.598   3.655 -0.8216 -0.5404  0.3872
  477MOL0     C65751   9.583   1.684   3.746 -0.7263  0.2249  0.1697
  477MOL0     C65752   9.495   1.616   3.838  0.5208  0.2135  0.5532
  477MOL0     C65753   9.412   1.550   3.911 -0.0617 -0.7582 -1.1103
  477MOL0     C65754  10.166   1.654   3.736 -0.6897 -0.5132 -0.1977
  477MOL0     C65755  10.296   1.616   3.693  0.7543 -0.1899  0.0187
  477MOL0     C65756  10.410   1.710   3.732  0.8972 -0.5395  0.0772
  477MOL0     H65757  10.464   1.076   3.574  1.9397  0.2108  1.2046
  477MOL0     H65758  10.629   0.921   3.476 -0.1748 -0.9028 -4.0655
  477MOL0     H65759  10.733   0.869   3.177  2.8741 -0.2299 -1.6892
  477MOL0     H65760  10.736   0.809   3.352 -0.2046  1.7043 -0.0389
  477MOL0     H65761  10.871   0.685   3.183 -3.3142  2.7285 -0.0046
  477MOL0     H65762  10.988   0.819   3.182 -1.0233  3.1590  1.6214
  477MOL0     H65763  11.011   0.795   3.429 -0.0865  0.3338 -1.7260
  477MOL0     H65764  10.892   0.664   3.427  1.4149 -0.7800  0.8834
  477MOL0     H65765  11.092   0.538   3.426  1.0098 -1.2255 -0.2069
  477MOL0     H65766  11.040   0.546   3.255 -0.2867  0.3277  0.2250
  477MOL0     H65767  11.264   0.719   3.381  2.8962  1.8195 -2.4088
  477MOL0     H65768  11.211   0.729   3.217  2.3255  1.2069  1.3505
  477MOL0     H65769  11.283   0.463   3.332  0.8804 -1.4806 -1.4879
  477MOL0     H65770  11.282   0.508   3.163 -0.5741  0.3548 -0.3572
  477MOL0     H65771  11.473   0.673   3.240 -1.5354  0.2135  0.9715
  477MOL0     H65772  11.512   0.511   3.226  0.9063  2.0853 -0.7697
  477MOL0     H65773  11.434   0.649   3.500 -2.1905 -1.0209 -0.6082
  477MOL0     H65774  11.502   0.487   3.470  2.6940 -0.7694 -0.2660
  477MOL0     H65775  11.756   0.509   3.326 -0.5977  1.5808 -1.5994
  477MOL0     H65776  12.042   0.768   3.401  1.3628 -0.9341 -0.7493
  477MOL0     H65777  11.988   0.664   3.276  4.8939 -2.0317  0.0181
  477MOL0     H65778  12.158   0.562   3.392 -0.6686  0.3336  1.5073
  477MOL0     H65779  12.083   0.586   3.550  0.6624  1.5414 -0.0580
  477MOL0     H65780  11.940   0.400   3.528  1.3058 -2.4997  2.2252
  477MOL0     H65781  11.968   0.398   3.346  1.0003 -0.5930  0.6029
  477MOL0     H65782  12.158   0.287   3.551 -0.3703  2.1425  0.7729
  477MOL0     H65783  12.077   0.216   3.408  0.0325  0.4316 -1.6121
  477MOL0     H65784  12.347   0.089   3.343  2.2254 -0.4116 -1.7256
  477MOL0     H65785  12.471  -0.071   3.397 -0.5994  0.1620 -1.9764
  477MOL0     H65786  12.639  -0.061   3.449  1.9038 -2.6008 -3.4741
  477MOL0     H65787  12.597  -0.009   3.288 -1.2036  0.1797 -0.3004
  477MOL0     H65788  12.990   0.378   3.631  3.1274  0.1339  0.6575
  477MOL0     H65789  13.216   0.336   3.671 -0.2466  0.5970  1.9971
  477MOL0     H65790  13.404   0.238   3.690  2.9152 -0.3949 -0.2631
  477MOL0     H65791  13.500   0.148   3.803  0.3274  1.8456 -1.4888
  477MOL0     H65792  13.462  -0.063   3.687 -0.4365 -1.1965 -0.5601
  477MOL0     H65793  13.350   0.012   3.581  0.9282 -0.4234  0.5872
  477MOL0     H65794  13.542   0.192   3.515 -0.5216  0.0958 -3.5457
  477MOL0     H65795  13.517   0.038   3.441  0.3614  1.8008 -1.8742
  477MOL0     H65796  13.705  -0.057   3.561  2.0990  0.0413  3.4115
  477MOL0     H65797  13.713   0.081   3.674 -2.2771  2.9707 -0.0222
  477MOL0     H65798  13.771   0.116   3.377  4.4100 -0.0810 -0.9155
  477MOL0     H65799  13.783   0.239   3.513 -0.6540 -0.9599  1.4192
  477MOL0     H65800  13.930  -0.020   3.457  0.1728  1.3324 -2.1898
  477MOL0     H65801  13.942   0.055   3.616  1.2360  0.8009 -0.7679
  477MOL0     H65802  14.131   0.149   3.519  0.0966 -1.4795 -0.1296
  477MOL0     H65803  14.009   0.266   3.524  0.3689 -0.7922  1.8135
  477MOL0     H65804  14.130   0.268   3.292 -0.0583 -2.0911 -4.8863
  477MOL0     H65805  13.971   0.208   3.264 -0.3372 -1.1527 -1.5398
  477MOL0     H65806  13.080  -0.029   3.878  1.2481 -0.4314 -1.5666
  477MOL0     H65807  12.859   0.019   3.814  2.0603 -2.1157  2.3491
  477MOL0     H65808  12.615   0.408   3.588 -1.4870  0.3241 -0.1824
  477MOL0     H65809  12.401   0.479   3.517 -1.4866 -1.2699  2.6367
  477MOL0     H65810  10.825   1.246   3.288 -2.6043  2.6489 -0.9745
  477MOL0     H65811  10.665   1.401   3.372  0.4861  0.6524 -1.1864
  477MOL0     H65812  10.197   1.351   3.505  1.5906  1.1284 -1.1678
  477MOL0     H65813   9.977   1.431   3.565 -0.0599 -1.2447  0.3275
  477MOL0     H65814   9.924   1.467   3.847  2.1497  0.4490 -3.0229
  477MOL0     H65815   9.822   1.606   3.903  0.7132  1.8385 -1.0994
  477MOL0     H65816   9.676   1.432   3.793  0.9877  0.7270  1.7383
  477MOL0     H65817   9.794   1.434   3.657 -0.0388 -0.1271 -1.1242
  477MOL0     H65818   9.730   1.658   3.600 -1.9422 -0.1761 -0.7745
  477MOL0     H65819   9.594   1.552   3.577  0.1093 -0.3958 -0.4666
  477MOL0     H65820   9.529   1.758   3.686 -1.1402 -0.1567  0.0627
  477MOL0     H65821   9.656   1.743   3.802  0.0310 -0.6407  0.1109
  477MOL0     H65822   9.330   1.496   3.954  0.5163 -0.3697  0.5377
  477MOL0     H65823  10.145   1.738   3.801  2.0509  0.0890  0.0423
  477MOL0     H65824  10.452   1.750   3.639  0.7522  1.0289  0.6616
  477MOL0     H65825  10.372   1.789   3.798  1.8329 -0.9549  1.1422
  477MOL0     H65826  10.490   1.661   3.789  0.6214 -0.3322  0.6432
  478MOL0     O65827   1.155   7.352   6.272  1.0988  0.3002 -0.6822
  478MOL0     C65828   1.133   7.255   6.208  0.9015  0.0255  0.4822
  478MOL0     O65829   1.206   7.213   6.103  0.8080 -0.3914 -0.5755
  478MOL0     C65830   1.308   7.284   6.043  0.2617  0.2116  1.2211
  478MOL0     C65831   1.280   7.403   5.979  1.2813  0.6318  0.7329
  478MOL0     C65832   1.376   7.480   5.917 -0.4511  0.5985 -0.8980
  478MOL0     C65833   1.511   7.429   5.907 -0.6737 -0.8593  0.8356
  478MOL0     O65834   1.612   7.502   5.846  0.7943 -0.2614 -0.4526
  478MOL0     C65835   1.693   7.437   5.748 -0.6707  0.1757 -0.1217
  478MOL0     C65836   1.833   7.395   5.804  0.2422  0.4491  0.2641
  478MOL0     C65837   1.927   7.512   5.801  0.0256  1.0055  0.1835
  478MOL0     C65838   1.998   7.537   5.672  0.4635 -0.3668 -0.1552
  478MOL0     C65839   2.079   7.659   5.665  0.9223  0.1676  0.0912
  478MOL0     C65840   2.198   7.656   5.765  0.8034 -0.7427  0.5144
  478MOL0     C65841   2.261   7.801   5.751  0.0365  1.2316  0.2988
  478MOL0     C65842   2.393   7.818   5.830  0.0297  0.3248 -0.5236
  478MOL0     N65843   2.421   7.966   5.828  1.0354 -0.1637  0.1261
  478MOL0     C65844   2.496   8.032   5.736 -0.4403  0.3918 -0.3539
  478MOL0     C65845   2.476   8.166   5.746  0.4081  0.7474  0.0719
  478MOL0     C65846   2.529   8.276   5.657  0.9619  0.7666 -0.3233
  478MOL0     C65847   2.641   8.343   5.736  0.3668  0.3374 -0.2790
  478MOL0     C65848   2.716   8.458   5.663 -0.0047  0.5403 -0.2291
  478MOL0     C65849   2.839   8.520   5.746  1.4143  0.5050  0.6553
  478MOL0     O65850   2.837   8.657   5.719 -0.0816  0.2728 -0.4346
  478MOL0     C65851   2.961   8.723   5.731 -0.2548  0.1304  0.3646
  478MOL0     C65852   3.069   8.689   5.808 -0.8191 -0.0129 -0.6820
  478MOL0     C65853   3.178   8.771   5.816  0.7234 -0.0475 -1.0954
  478MOL0     C65854   3.291   8.705   5.897  0.3389 -0.3882 -0.0667
  478MOL0     C65855   3.189   8.886   5.738  0.4867 -0.7021 -0.1709
  478MOL0     C65856   3.299   8.983   5.731 -0.8949 -0.0675 -0.5208
  478MOL0     O65857   3.313   9.064   5.628 -0.4066  0.1595 -0.6372
  478MOL0     C65858   3.412   9.156   5.630 -0.1031 -0.7206  0.1845
  478MOL0     C65859   3.408   9.254   5.727 -0.6160  0.3424 -0.7177
  478MOL0     C65860   3.507   9.362   5.722 -0.0000 -0.7418 -1.1397
  478MOL0     C65861   3.601   9.371   5.622 -0.3052  0.4270 -0.5685
  478MOL0     O65862   3.709   9.462   5.612 -0.0665  0.3225  0.1433
  478MOL0     C65863   3.716   9.581   5.693  0.3565 -0.6589 -0.9196
  478MOL0     C65864   3.821   9.667   5.643  0.7026 -0.1437  0.4569
  478MOL0     C65865   3.791   9.733   5.503  0.2568 -1.0097 -0.3296
  478MOL0     C65866   3.895   9.832   5.447  0.3712  0.7318  1.4265
  478MOL0     C65867   3.848   9.894   5.317 -0.8745  1.5569  0.8991
  478MOL0     C65868   3.963   9.976   5.259 -0.3303 -0.0174  0.6005
  478MOL0     C65869   3.908  10.042   5.116 -1.5970 -0.6375 -0.8831
  478MOL0     C65870   4.032  10.100   5.032 -0.1161 -0.1498  0.1140
  478MOL0    Cl65871   4.133  10.218   5.127  0.1401  0.3326  0.1690
  478MOL0     C65872   3.586   9.277   5.523  0.0858 -0.7502  0.4379
  478MOL0     C65873   3.504   9.168   5.524  0.0056 -0.4718 -0.6140
  478MOL0     O65874   3.370   8.984   5.835  0.2701 -0.6175 -0.4490
  478MOL0     C65875   3.081   8.908   5.647 -0.2723  0.1043  0.0870
  478MOL0     C65876   2.971   8.832   5.654 -0.0201  0.0437  0.0421
  478MOL0     N65877   2.375   8.174   5.844 -1.2257 -0.4503 -0.5160
  478MOL0     N65878   2.340   8.065   5.893 -0.0480 -0.0032  0.5174
  478MOL0     C65879   1.535   7.302   5.958 -0.1185  0.8528 -0.4195
  478MOL0     C65880   1.432   7.226   6.023  0.0653  0.2389  0.2097
  478MOL0     C65881   1.019   7.184   6.234 -0.2752 -0.1258 -0.3262
  478MOL0     C65882   1.045   7.054   6.277  1.1744  0.0896 -0.2962
  478MOL0     C65883   0.939   6.973   6.316 -0.3468 -0.5054 -0.1441
  478MOL0     C65884   0.807   7.017   6.307  1.0861 -0.5146  0.1017
  478MOL0     O65885   0.704   6.936   6.343  0.5944  0.2201  0.2015
  478MOL0     C65886   0.720   6.789   6.361  0.7004 -0.3842  0.3949
  478MOL0     C65887   0.638   6.744   6.487  0.0594 -0.8518  0.1530
  478MOL0     C65888   0.489   6.759   6.447 -0.2097 -0.5897 -0.3099
  478MOL0     C65889   0.403   6.725   6.579 -0.6944  0.1333  0.9103
  478MOL0     C65890   0.269   6.782   6.575 -0.4658  0.4443  0.2661
  478MOL0     C65891   0.156   6.829   6.570 -0.2233 -0.3677  0.0531
  478MOL0     C65892   0.780   7.145   6.277 -0.1574 -0.0741  0.8784
  478MOL0     C65893   0.884   7.225   6.222 -1.0962  0.4128 -0.5820
  478MOL0     C65894   0.842   7.360   6.155  0.0023  0.6041  0.1095
  478MOL0     H65895   1.177   7.437   5.983  2.1421  3.4545  1.7691
  478MOL0     H65896   1.355   7.579   5.880  2.0806  1.1489 -1.0648
  478MOL0     H65897   1.710   7.507   5.666  2.1656 -0.5649 -0.2946
  478MOL0     H65898   1.648   7.343   5.715  3.0793 -2.3756  1.3274
  478MOL0     H65899   1.818   7.364   5.908 -2.6457 -0.9692 -0.4962
  478MOL0     H65900   1.866   7.318   5.734  0.9096  2.5055 -1.7969
  478MOL0     H65901   1.871   7.601   5.832 -1.4894 -0.9174  3.4246
  478MOL0     H65902   2.008   7.500   5.874  1.5312  2.7749 -1.0778
  478MOL0     H65903   2.061   7.453   5.641 -0.3205 -0.1204 -2.7002
  478MOL0     H65904   1.923   7.555   5.594  0.1941  1.2801  0.4463
  478MOL0     H65905   2.014   7.747   5.676  1.8598  0.8222  0.4880
  478MOL0     H65906   2.126   7.665   5.567  2.3677 -1.5679  0.6292
  478MOL0     H65907   2.157   7.649   5.866 -0.3956  1.8811  0.2965
  478MOL0     H65908   2.267   7.572   5.752  0.5690 -0.8253 -0.2111
  478MOL0     H65909   2.183   7.869   5.787 -2.5848 -1.3525 -0.1876
  478MOL0     H65910   2.294   7.812   5.647  0.1026 -3.7081 -0.4175
  478MOL0     H65911   2.375   7.774   5.928  1.0618 -0.5909 -0.7198
  478MOL0     H65912   2.480   7.766   5.787  0.0788  0.2432 -0.3235
  478MOL0     H65913   2.553   7.992   5.652 -1.3736 -2.4692  0.2477
  478MOL0     H65914   2.443   8.343   5.648 -0.9253 -1.1374  2.4210
  478MOL0     H65915   2.564   8.246   5.557  1.8149 -0.8889  0.4405
  478MOL0     H65916   2.599   8.377   5.831  0.5218 -0.8972  0.2452
  478MOL0     H65917   2.714   8.272   5.776 -1.4681 -0.8826  1.0707
  478MOL0     H65918   2.764   8.415   5.574  1.1158  0.8648  0.1946
  478MOL0     H65919   2.647   8.537   5.633 -1.9289  0.1019  2.5779
  478MOL0     H65920   2.844   8.493   5.851 -0.1961 -1.8728  0.1915
  478MOL0     H65921   2.934   8.478   5.713  1.7399  0.3394  1.7809
  478MOL0     H65922   3.069   8.595   5.862  1.6137 -0.0055 -0.5444
  478MOL0     H65923   3.374   8.668   5.836  0.2135 -0.6998 -0.0464
  478MOL0     H65924   3.251   8.625   5.960  5.0327 -1.0838  2.4402
  478MOL0     H65925   3.347   8.773   5.962  0.6574  0.0464 -0.7786
  478MOL0     H65926   3.345   9.238   5.813 -0.2360  0.4226 -0.4215
  478MOL0     H65927   3.516   9.434   5.802  1.8414 -2.5557  0.4188
  478MOL0     H65928   3.619   9.629   5.689 -0.3730 -2.1192 -1.6414
  478MOL0     H65929   3.744   9.553   5.795  1.0188 -1.3354 -1.2694
  478MOL0     H65930   3.843   9.745   5.716  2.2247  1.1285 -1.2822
  478MOL0     H65931   3.905   9.600   5.622 -0.5581 -1.4071 -0.7403
  478MOL0     H65932   3.703   9.797   5.518  1.1821  0.2308  0.0523
  478MOL0     H65933   3.767   9.659   5.427 -1.1097  0.1764 -1.1107
  478MOL0     H65934   3.985   9.771   5.444 -1.2258 -1.7285  0.3548
  478MOL0     H65935   3.908   9.917   5.515  2.6068  2.6804 -1.2365
  478MOL0     H65936   3.846   9.811   5.245  5.3783 -0.0169  2.0217
  478MOL0     H65937   3.752   9.946   5.324 -2.5351 -0.4742 -3.1246
  478MOL0     H65938   4.053   9.916   5.238 -0.9302  0.0407 -2.6582
  478MOL0     H65939   3.990  10.062   5.322  0.2639 -0.1923  0.5885
  478MOL0     H65940   3.840  10.123   5.146  0.2808  0.1172  1.7085
  478MOL0     H65941   3.859   9.969   5.050 -0.4488 -2.5448  0.2995
  478MOL0     H65942   3.998  10.144   4.937  0.5027 -2.1184 -1.0881
  478MOL0     H65943   4.107  10.022   5.015  0.3419  0.4655 -0.7474
  478MOL0     H65944   3.663   9.277   5.447 -0.2409  0.0887  0.0895
  478MOL0     H65945   3.502   9.101   5.439  1.1007 -4.3856  2.1391
  478MOL0     H65946   3.081   8.994   5.581 -1.9303  1.3054  1.5434
  478MOL0     H65947   2.891   8.863   5.587  0.3236  1.3415  0.2080
  478MOL0     H65948   1.628   7.246   5.955  0.4264  1.7495 -1.8447
  478MOL0     H65949   1.449   7.131   6.072 -1.1775 -1.8443 -3.1243
  478MOL0     H65950   1.144   7.010   6.279  1.6022  0.6627 -3.3957
  478MOL0     H65951   0.975   6.875   6.345  1.0501  0.2949  0.9222
  478MOL0     H65952   0.668   6.747   6.275 -2.9482  0.7410  1.8215
  478MOL0     H65953   0.824   6.760   6.378  0.5546 -0.3319  1.4663
  478MOL0     H65954   0.663   6.814   6.567 -0.5586 -1.6551  1.0689
  478MOL0     H65955   0.658   6.639   6.512 -1.3134 -1.3626 -0.7487
  478MOL0     H65956   0.477   6.861   6.410  1.7929 -0.2333 -0.0714
  478MOL0     H65957   0.453   6.685   6.375 -3.0047 -0.3455  0.6722
  478MOL0     H65958   0.454   6.768   6.666  1.0079 -2.2018  1.1806
  478MOL0     H65959   0.405   6.617   6.598 -0.5277  0.3982  2.5469
  478MOL0     H65960   0.060   6.877   6.573  0.2045  0.6023 -0.7422
  478MOL0     H65961   0.674   7.164   6.274 -0.3117 -0.9574 -0.4099
  478MOL0     H65962   0.789   7.427   6.224 -1.1284 -0.6844  0.5390
  478MOL0     H65963   0.923   7.414   6.106 -0.7262  0.6773 -1.0383
  478MOL0     H65964   0.772   7.344   6.073 -0.6143 -0.5332  0.8160
  479MOL0     O65965   9.361   5.090   4.719 -0.5314  0.2778 -0.4982
  479MOL0     C65966   9.393   4.992   4.654  0.6042 -0.7842  0.2643
  479MOL0     O65967   9.517   4.963   4.614 -0.2252  0.2004  0.0088
  479MOL0     C65968   9.599   5.075   4.619 -0.7193 -0.6231 -0.3073
  479MOL0     C65969   9.591   5.181   4.527 -0.0824 -0.2891  0.2341
  479MOL0     C65970   9.662   5.297   4.541  0.3784 -0.7294 -0.1372
  479MOL0     C65971   9.753   5.308   4.647  0.2817 -0.6878 -0.1856
  479MOL0     O65972   9.827   5.425   4.650 -0.2652  0.2730 -0.0838
  479MOL0     C65973   9.964   5.404   4.676 -0.2475 -0.9729 -0.4790
  479MOL0     C65974  10.042   5.535   4.670  0.1591 -0.4451 -0.5496
  479MOL0     C65975  10.190   5.535   4.718  0.0970  0.5048  0.4870
  479MOL0     C65976  10.256   5.673   4.689 -0.1263 -0.4802 -0.7342
  479MOL0     C65977  10.394   5.681   4.738  0.0883  0.4865 -0.5469
  479MOL0     C65978  10.485   5.595   4.648 -0.3825  0.6678 -0.7932
  479MOL0     C65979  10.631   5.581   4.707  0.0870 -0.8203  1.4039
  479MOL0     C65980  10.710   5.491   4.610  0.2124  1.0809  0.2354
  479MOL0     N65981  10.834   5.442   4.664  0.5218 -0.1128 -0.1112
  479MOL0     C65982  10.939   5.521   4.693 -0.1499  0.1674 -0.2234
  479MOL0     C65983  11.037   5.435   4.719  0.1872 -0.4955 -0.0459
  479MOL0     C65984  11.176   5.489   4.752 -0.3053  1.1540 -0.0930
  479MOL0     C65985  11.277   5.446   4.637 -0.1943  0.2960 -0.3830
  479MOL0     C65986  11.400   5.533   4.643  0.4168  1.0757  0.5193
  479MOL0     C65987  11.495   5.491   4.533  0.3476 -0.9356  0.0985
  479MOL0     O65988  11.624   5.570   4.531  0.0582  0.0013 -0.5430
  479MOL0     C65989  11.722   5.540   4.622 -0.0530 -0.1406  0.2135
  479MOL0     C65990  11.847   5.600   4.608 -0.6974  0.4584  0.0106
  479MOL0     C65991  11.955   5.586   4.687  0.0425  0.1869 -0.1199
  479MOL0     C65992  12.082   5.672   4.651  0.0136  0.1188  0.3436
  479MOL0     C65993  11.939   5.496   4.801 -0.4532 -0.5124 -0.3146
  479MOL0     C65994  12.047   5.466   4.900  0.5479  0.1761  0.2582
  479MOL0     O65995  12.000   5.389   5.008 -0.4403  0.0362  0.1780
  479MOL0     C65996  12.095   5.344   5.092  0.1529  0.0920  0.1578
  479MOL0     C65997  12.141   5.216   5.079 -0.7193 -0.0428  1.2005
  479MOL0     C65998  12.227   5.156   5.175  0.4998  0.3938  0.3460
  479MOL0     C65999  12.275   5.240   5.271 -1.3001  0.2164  0.2508
  479MOL0     O66000  12.366   5.214   5.371 -0.9545  0.5426 -0.6867
  479MOL0     C66001  12.431   5.082   5.393  0.1044  0.2994 -0.0897
  479MOL0     C66002  12.531   5.063   5.281 -0.1786 -0.1439  0.3879
  479MOL0     C66003  12.654   5.151   5.318  0.3559  0.8285  0.9103
  479MOL0     C66004  12.770   5.112   5.223 -0.3765  0.3848  0.0245
  479MOL0     C66005  12.883   5.204   5.197 -1.0304  0.4098  0.6876
  479MOL0     C66006  12.986   5.226   5.314  0.2559  0.7662 -0.4073
  479MOL0     C66007  13.070   5.099   5.347 -0.6976 -0.1119  0.0539
  479MOL0     C66008  13.210   5.106   5.290 -0.8777 -0.5022 -0.1756
  479MOL0    Cl66009  13.216   5.139   5.118  0.0368  0.2311 -0.0693
  479MOL0     C66010  12.224   5.372   5.287 -0.3305  0.4264  0.1680
  479MOL0     C66011  12.128   5.428   5.195 -0.1358  0.0957  0.1348
  479MOL0     O66012  12.158   5.526   4.895  0.1703  0.6065 -0.3378
  479MOL0     C66013  11.815   5.434   4.824  0.7594 -0.1793 -0.1146
  479MOL0     C66014  11.707   5.454   4.730  0.0960  0.3160 -0.3708
  479MOL0     N66015  10.994   5.305   4.716  0.1615 -0.4191 -0.7196
  479MOL0     N66016  10.863   5.312   4.694 -0.9576  0.0409  1.0435
  479MOL0     C66017   9.759   5.202   4.743 -0.0523 -0.3573  0.6773
  479MOL0     C66018   9.692   5.085   4.723  0.2256 -0.3842 -1.2366
  479MOL0     C66019   9.288   4.889   4.631 -0.5945 -1.3706 -0.1514
  479MOL0     C66020   9.326   4.757   4.631  0.1335  0.1496 -0.0719
  479MOL0     C66021   9.237   4.656   4.599  0.0163  0.6407 -1.0129
  479MOL0     C66022   9.102   4.685   4.565 -0.0396  0.0293  0.5383
  479MOL0     O66023   9.009   4.594   4.512  0.3969  0.0914 -0.4356
  479MOL0     C66024   9.030   4.450   4.513  0.0418 -0.4732  0.1765
  479MOL0     C66025   8.989   4.383   4.641 -0.2760  0.1800  0.1705
  479MOL0     C66026   8.841   4.413   4.668  0.1302  0.3210 -0.2197
  479MOL0     C66027   8.791   4.339   4.787 -0.7440  0.5436  1.0670
  479MOL0     C66028   8.803   4.196   4.753 -1.1825  0.9264 -0.7727
  479MOL0     C66029   8.811   4.077   4.724 -0.0038 -0.0213  0.6393
  479MOL0     C66030   9.069   4.814   4.583  0.0061  0.9050  0.9794
  479MOL0     C66031   9.151   4.915   4.617 -0.1591  0.2073 -0.4491
  479MOL0     C66032   9.094   5.054   4.612  0.3833  0.0987  0.2452
  479MOL0     H66033   9.525   5.168   4.442 -0.0296 -1.4351  0.3557
  479MOL0     H66034   9.636   5.373   4.468 -2.1046 -0.7177  0.6770
  479MOL0     H66035   9.996   5.336   4.596 -0.0728 -0.4278 -0.8754
  479MOL0     H66036   9.996   5.356   4.769  2.3752 -0.1751 -0.8886
  479MOL0     H66037  10.040   5.582   4.571  1.2922  1.7615  0.4024
  479MOL0     H66038   9.982   5.602   4.733  0.7907  0.3658 -0.8007
  479MOL0     H66039  10.202   5.507   4.823  1.6964 -2.7584 -0.4542
  479MOL0     H66040  10.243   5.465   4.654 -1.6709 -0.7902  0.3762
  479MOL0     H66041  10.254   5.706   4.584  1.7314  0.4588 -0.5118
  479MOL0     H66042  10.202   5.749   4.745  2.1693  0.5275  0.2571
  479MOL0     H66043  10.396   5.647   4.842  0.1019  2.1013  0.0180
  479MOL0     H66044  10.423   5.786   4.729 -0.5699  0.6940 -0.3114
  479MOL0     H66045  10.448   5.492   4.649  0.2180  0.2709 -4.3274
  479MOL0     H66046  10.494   5.632   4.545 -1.6541  1.9909 -0.4558
  479MOL0     H66047  10.629   5.551   4.812  2.1084  1.5991  2.2435
  479MOL0     H66048  10.674   5.681   4.697 -0.7492 -0.6319 -0.7844
  479MOL0     H66049  10.647   5.404   4.591 -1.3394  2.1350  0.4264
  479MOL0     H66050  10.724   5.533   4.509  1.9753  0.0065 -0.0142
  479MOL0     H66051  10.948   5.624   4.661  0.6801 -0.7318 -3.2226
  479MOL0     H66052  11.216   5.466   4.851  2.1930  1.5935 -0.9156
  479MOL0     H66053  11.182   5.598   4.745 -0.7653  1.1184 -5.1624
  479MOL0     H66054  11.301   5.340   4.649 -0.4053 -0.1483 -3.2167
  479MOL0     H66055  11.238   5.458   4.536  3.0752  4.5200 -1.4585
  479MOL0     H66056  11.378   5.640   4.641  0.0198  1.0176 -2.4409
  479MOL0     H66057  11.444   5.523   4.743  1.2828  0.4282  0.0865
  479MOL0     H66058  11.513   5.384   4.535  0.0604 -0.9771  0.8286
  479MOL0     H66059  11.431   5.505   4.446  1.0887 -1.6370 -0.5718
  479MOL0     H66060  11.850   5.644   4.508 -0.9565 -1.0883 -0.7086
  479MOL0     H66061  12.176   5.624   4.623  0.1651 -0.1769  1.2929
  479MOL0     H66062  12.112   5.730   4.739 -0.7009  1.4221 -0.2406
  479MOL0     H66063  12.046   5.744   4.577  2.3238 -0.1748 -1.1531
  479MOL0     H66064  12.096   5.164   4.995 -0.7749  0.6831  0.7799
  479MOL0     H66065  12.258   5.052   5.167  1.6761  0.8047 -0.8812
  479MOL0     H66066  12.479   5.064   5.490 -0.9179 -0.3118  0.3226
  479MOL0     H66067  12.350   5.010   5.379  1.8971 -1.5113 -2.1520
  479MOL0     H66068  12.554   4.956   5.287 -1.6066 -0.4492  0.7506
  479MOL0     H66069  12.494   5.082   5.180  3.5315 -0.5143 -1.2172
  479MOL0     H66070  12.688   5.136   5.421  1.9481 -1.7293  0.1002
  479MOL0     H66071  12.624   5.255   5.303 -1.8556 -0.0457 -1.2910
  479MOL0     H66072  12.736   5.079   5.124  2.1828 -1.3116 -0.3990
  479MOL0     H66073  12.818   5.023   5.264  1.1301 -0.1556 -2.6482
  479MOL0     H66074  12.940   5.163   5.113  2.3733  3.3050  1.3379
  479MOL0     H66075  12.838   5.298   5.164 -0.5998  0.7841  1.1608
  479MOL0     H66076  12.939   5.251   5.409  1.0197 -2.2727  0.8877
  479MOL0     H66077  13.052   5.312   5.298  0.4547  0.5431 -0.8094
  479MOL0     H66078  13.019   5.007   5.318  0.1077 -0.6998  0.4674
  479MOL0     H66079  13.093   5.103   5.454  2.1577  3.1346 -0.4951
  479MOL0     H66080  13.262   5.014   5.322  2.1721  1.5070  1.1103
  479MOL0     H66081  13.254   5.195   5.337 -1.4818 -0.8666  1.1363
  479MOL0     H66082  12.262   5.433   5.368 -0.0687 -0.3433  0.6342
  479MOL0     H66083  12.072   5.519   5.214 -1.4872 -0.9532  1.3959
  479MOL0     H66084  11.792   5.372   4.910 -1.0520 -0.3889 -0.6912
  479MOL0     H66085  11.620   5.396   4.759  2.5424 -2.6881  1.6128
  479MOL0     H66086   9.833   5.213   4.822  2.3140 -3.0221 -0.9518
  479MOL0     H66087   9.714   5.002   4.789  4.0126  2.5875  1.6643
  479MOL0     H66088   9.429   4.731   4.650  0.0342 -0.4090 -0.2801
  479MOL0     H66089   9.282   4.558   4.588  2.2533  1.4431  0.3704
  479MOL0     H66090   8.967   4.411   4.433 -1.0092  1.6707 -0.1293
  479MOL0     H66091   9.136   4.433   4.489 -0.4562 -2.3391 -0.9086
  479MOL0     H66092   9.050   4.436   4.714 -0.7271  2.9421 -1.3025
  479MOL0     H66093   9.004   4.276   4.624 -0.3066  0.1992  0.0248
  479MOL0     H66094   8.830   4.520   4.685  0.2049  0.1239  1.1603
  479MOL0     H66095   8.775   4.376   4.589 -0.4865 -0.9832  0.8614
  479MOL0     H66096   8.692   4.380   4.811  0.5057  3.3320  1.8264
  479MOL0     H66097   8.844   4.359   4.880 -3.0884  0.8063  2.4103
  479MOL0     H66098   8.809   3.973   4.698 -0.1891 -0.1080  0.9871
  479MOL0     H66099   8.966   4.829   4.552  0.7853  1.9789 -1.3428
  479MOL0     H66100   9.127   5.108   4.523 -0.1982  3.0976  1.7194
  479MOL0     H66101   8.985   5.043   4.614  0.3240  0.6216 -0.0185
  479MOL0     H66102   9.123   5.121   4.694  0.8694  1.4657 -1.0137
  480MOL0     O66103   1.561   6.736   1.794  0.5821 -0.4741 -0.5687
  480MOL0     C66104   1.522   6.861   1.808 -0.0918 -0.4608  0.6999
  480MOL0     O66105   1.602   6.963   1.849 -0.4310  0.2380 -0.4520
  480MOL0     C66106   1.691   6.926   1.945 -0.1053  0.7095  0.0344
  480MOL0     C66107   1.650   6.871   2.070  0.1287 -0.2807  0.4749
  480MOL0     C66108   1.737   6.866   2.182  0.8555  0.4951 -0.2449
  480MOL0     C66109   1.867   6.911   2.177  0.0854  1.1752 -0.3692
  480MOL0     O66110   1.946   6.893   2.293  0.8858 -0.2627  0.2291
  480MOL0     C66111   2.062   6.971   2.319 -0.2404 -0.5071  0.0823
  480MOL0     C66112   2.165   6.892   2.400  0.1038 -0.0150  0.3117
  480MOL0     C66113   2.294   6.977   2.411 -0.1717 -0.2414 -0.2953
  480MOL0     C66114   2.421   6.911   2.476 -0.5474 -0.1267 -0.4160
  480MOL0     C66115   2.473   6.796   2.382  0.4884 -0.3775  0.5262
  480MOL0     C66116   2.602   6.729   2.427 -0.0655 -0.2235 -0.6535
  480MOL0     C66117   2.643   6.614   2.332 -0.0606 -0.2677 -0.6531
  480MOL0     C66118   2.582   6.478   2.363  0.6065  0.1989  0.1898
  480MOL0     N66119   2.646   6.376   2.287 -0.4699 -0.1560  0.2101
  480MOL0     C66120   2.596   6.301   2.178 -0.2367 -0.1129 -0.0630
  480MOL0     C66121   2.685   6.198   2.173 -1.0080 -0.5269  0.5918
  480MOL0     C66122   2.713   6.094   2.065 -0.5314 -1.2976  0.3242
  480MOL0     C66123   2.639   5.965   2.085  0.5058  0.5218 -0.9499
  480MOL0     C66124   2.646   5.869   1.964  0.2901 -0.4458  0.7914
  480MOL0     C66125   2.780   5.805   1.918 -1.0551  0.7482 -0.4036
  480MOL0     O66126   2.864   5.905   1.859 -0.1737  0.0993 -0.2937
  480MOL0     C66127   2.994   5.876   1.823 -1.0419  0.6296 -0.1135
  480MOL0     C66128   3.033   5.758   1.744 -0.3411 -1.5161 -1.1839
  480MOL0     C66129   3.167   5.750   1.695 -0.0748  0.2246 -0.4995
  480MOL0     C66130   3.190   5.637   1.595  0.1031  0.3042  0.8020
  480MOL0     C66131   3.259   5.860   1.719  0.0124  0.0761  0.6132
  480MOL0     C66132   3.401   5.863   1.684 -0.0074  0.1446 -1.2011
  480MOL0     O66133   3.457   5.982   1.658  0.5060  0.6559  0.1842
  480MOL0     C66134   3.592   5.987   1.620 -0.9446 -0.8449 -0.6420
  480MOL0     C66135   3.633   6.055   1.509  0.8845  0.6059  0.2579
  480MOL0     C66136   3.762   6.035   1.458  0.6346 -0.5990  0.6267
  480MOL0     C66137   3.862   5.988   1.541 -0.9120  1.6546 -0.1001
  480MOL0     O66138   3.995   5.978   1.507 -0.1599 -0.3878  0.1207
  480MOL0     C66139   4.041   6.019   1.378  0.7245  0.2835 -0.3405
  480MOL0     C66140   4.063   6.175   1.389  0.5958  0.2016 -0.1596
  480MOL0     C66141   4.193   6.201   1.467  0.4819 -0.4499  0.4012
  480MOL0     C66142   4.240   6.348   1.456  0.1317  0.3291 -0.0688
  480MOL0     C66143   4.383   6.354   1.503  0.6689 -0.2116  0.7254
  480MOL0     C66144   4.442   6.492   1.518  0.1554  0.2892 -0.1332
  480MOL0     C66145   4.361   6.600   1.578  0.1912 -0.8932 -0.3639
  480MOL0     C66146   4.430   6.708   1.665  0.7310  0.4559 -0.1368
  480MOL0    Cl66147   4.563   6.796   1.586 -0.3039  0.7672 -0.2027
  480MOL0     C66148   3.821   5.931   1.661  0.2178  0.7489  0.7899
  480MOL0     C66149   3.688   5.923   1.703 -0.5830 -0.5335  0.0594
  480MOL0     O66150   3.453   5.753   1.671 -0.3612 -0.5348 -0.3528
  480MOL0     C66151   3.209   5.974   1.776  0.4508  0.0129  0.0179
  480MOL0     C66152   3.082   5.985   1.827 -0.3176  0.4585  0.0217
  480MOL0     N66153   2.782   6.218   2.270 -0.1667 -0.0496  0.1796
  480MOL0     N66154   2.760   6.323   2.332  0.0906 -0.3475 -0.2235
  480MOL0     C66155   1.911   6.962   2.050  0.1076 -0.7496 -0.9547
  480MOL0     C66156   1.828   6.965   1.937 -0.0102 -0.0594 -0.5377
  480MOL0     C66157   1.386   6.898   1.758 -0.3503  0.5096 -0.2098
  480MOL0     C66158   1.299   6.786   1.727  0.3068  0.4613  0.0014
  480MOL0     C66159   1.167   6.809   1.686  0.0982 -0.2022 -0.6985
  480MOL0     C66160   1.121   6.944   1.661 -0.2250 -0.1523  0.3442
  480MOL0     O66161   0.987   6.966   1.629 -0.2382 -0.4161  0.1067
  480MOL0     C66162   0.911   6.865   1.556 -1.3408  0.4122  0.7537
  480MOL0     C66163   0.772   6.908   1.515  0.8192 -0.5410 -0.0448
  480MOL0     C66164   0.774   7.046   1.439 -0.1733 -0.4997  0.8601
  480MOL0     C66165   0.646   7.082   1.373 -0.6726 -0.4560  0.2715
  480MOL0     C66166   0.532   7.083   1.468  0.1264  0.0071  0.2745
  480MOL0     C66167   0.447   7.075   1.548 -0.1155 -0.1362  0.4966
  480MOL0     C66168   1.213   7.045   1.686  0.3711 -0.1163 -0.0413
  480MOL0     C66169   1.339   7.030   1.724 -0.3161  0.3522  0.2255
  480MOL0     C66170   1.425   7.142   1.756  0.2843 -0.2121  0.2741
  480MOL0     H66171   1.547   6.838   2.082 -1.4581  2.3195 -3.6888
  480MOL0     H66172   1.703   6.819   2.274  4.4193 -3.1964 -0.5181
  480MOL0     H66173   2.036   7.061   2.374 -0.0447 -1.6674  2.1959
  480MOL0     H66174   2.103   7.009   2.225  2.7940  0.0954  1.5392
  480MOL0     H66175   2.127   6.870   2.500  2.0748 -4.6278  0.2631
  480MOL0     H66176   2.187   6.793   2.360  1.7276 -0.0884  1.2981
  480MOL0     H66177   2.330   6.994   2.309  2.4141  0.9611  0.7208
  480MOL0     H66178   2.274   7.078   2.448 -0.7865 -0.8271  1.0257
  480MOL0     H66179   2.499   6.986   2.492 -0.2012 -0.2820 -1.2937
  480MOL0     H66180   2.394   6.868   2.572  0.7425  0.4744  0.2460
  480MOL0     H66181   2.487   6.841   2.283 -0.5075  1.2694  1.0870
  480MOL0     H66182   2.395   6.719   2.380 -0.3139  0.4278 -0.5709
  480MOL0     H66183   2.682   6.803   2.434 -1.3510  1.1023  0.7765
  480MOL0     H66184   2.587   6.701   2.532 -1.7668  1.7462 -0.3003
  480MOL0     H66185   2.749   6.590   2.348 -0.5180 -4.3367 -2.4548
  480MOL0     H66186   2.632   6.637   2.226 -0.3486  2.3078 -0.1169
  480MOL0     H66187   2.603   6.465   2.469  1.2770  0.7095  0.1312
  480MOL0     H66188   2.474   6.482   2.348  0.8013 -0.5284 -1.6425
  480MOL0     H66189   2.510   6.321   2.114 -2.2436 -4.1998  0.9700
  480MOL0     H66190   2.822   6.088   2.066 -0.3667  0.6683 -0.4073
  480MOL0     H66191   2.696   6.138   1.966  3.5704 -1.6195 -0.6882
  480MOL0     H66192   2.665   5.906   2.174  0.8697 -1.1556 -2.1124
  480MOL0     H66193   2.531   5.975   2.101  0.1664 -3.1674  0.0097
  480MOL0     H66194   2.585   5.779   1.974 -0.2078 -0.1639  0.3102
  480MOL0     H66195   2.612   5.925   1.877 -1.1231 -4.5947 -1.6205
  480MOL0     H66196   2.835   5.754   1.997  1.0992  2.8426 -0.4323
  480MOL0     H66197   2.759   5.724   1.848 -0.2839  1.3154 -1.3139
  480MOL0     H66198   2.962   5.677   1.731 -1.2647 -1.1091  0.8478
  480MOL0     H66199   3.244   5.661   1.503 -1.0569 -0.1335 -0.0211
  480MOL0     H66200   3.092   5.602   1.560  0.2378  0.6558  0.0572
  480MOL0     H66201   3.235   5.552   1.648 -0.7716 -0.6914  0.0115
  480MOL0     H66202   3.557   6.114   1.459  1.0455  2.5779  2.1978
  480MOL0     H66203   3.765   6.063   1.353 -3.4597 -0.2731  0.4168
  480MOL0     H66204   4.140   5.977   1.360  1.2293  1.8085 -1.2984
  480MOL0     H66205   3.977   5.989   1.294  2.8112 -2.7349 -1.0120
  480MOL0     H66206   4.080   6.215   1.289  0.7191 -1.0813 -0.6789
  480MOL0     H66207   3.974   6.222   1.432  0.1064 -0.6594 -0.1967
  480MOL0     H66208   4.270   6.132   1.433 -0.1562  0.2441 -2.7268
  480MOL0     H66209   4.171   6.174   1.571 -0.2172 -1.5134  0.0035
  480MOL0     H66210   4.166   6.405   1.514 -1.2088  0.1053 -1.4867
  480MOL0     H66211   4.227   6.390   1.356 -1.7870  1.8175  0.7257
  480MOL0     H66212   4.383   6.299   1.597 -0.4508 -2.2123 -0.3864
  480MOL0     H66213   4.446   6.294   1.436  0.7729 -0.8947  1.4300
  480MOL0     H66214   4.496   6.529   1.431 -0.5877  0.2275 -0.6255
  480MOL0     H66215   4.520   6.471   1.592 -0.1317 -0.5465 -0.0619
  480MOL0     H66216   4.277   6.563   1.637  1.6142 -1.2529  1.5362
  480MOL0     H66217   4.318   6.665   1.501  0.8336  1.8651  1.4486
  480MOL0     H66218   4.457   6.661   1.760 -1.5840  2.1214  1.4866
  480MOL0     H66219   4.361   6.784   1.703 -0.2500 -0.0044 -0.9446
  480MOL0     H66220   3.899   5.883   1.719 -0.1634  0.5724  1.1623
  480MOL0     H66221   3.643   5.883   1.793 -0.5706 -4.1667 -1.3858
  480MOL0     H66222   3.279   6.055   1.796 -0.0882 -0.0421  2.5207
  480MOL0     H66223   3.047   6.077   1.873 -1.8395 -0.1951  0.2387
  480MOL0     H66224   2.017   6.985   2.041  0.9526 -3.4210  0.7709
  480MOL0     H66225   1.866   7.002   1.842 -0.6742 -0.9780 -1.1720
  480MOL0     H66226   1.333   6.686   1.750 -1.6313 -0.3478 -0.4505
  480MOL0     H66227   1.095   6.729   1.673 -1.1690  0.6548  0.7090
  480MOL0     H66228   0.970   6.851   1.465  2.5429  1.6587  2.8386
  480MOL0     H66229   0.917   6.768   1.606  0.2540 -0.1570 -0.4540
  480MOL0     H66230   0.701   6.902   1.598 -1.2065 -1.6513 -1.7727
  480MOL0     H66231   0.735   6.825   1.454  0.4870 -2.7945  3.0100
  480MOL0     H66232   0.809   7.118   1.514  2.7088 -2.5146  1.6232
  480MOL0     H66233   0.853   7.048   1.364 -1.3403 -0.3298 -0.4073
  480MOL0     H66234   0.629   7.019   1.285  2.0221 -0.0569 -0.6373
  480MOL0     H66235   0.662   7.185   1.339  0.4949  0.4189  3.1369
  480MOL0     H66236   0.359   7.073   1.610 -1.5264 -0.3338 -1.4172
  480MOL0     H66237   1.178   7.147   1.679 -1.9466 -0.4404  4.1061
  480MOL0     H66238   1.371   7.234   1.731 -0.6543 -1.5892 -3.3641
  480MOL0     H66239   1.440   7.146   1.865 -0.1705 -1.1282  0.3787
  480MOL0     H66240   1.524   7.151   1.710 -0.2472 -0.7043 -1.0074
  481MOL0     O66241   2.466   9.046   0.466 -0.3348 -0.5924 -0.5288
  481MOL0     C66242   2.427   8.939   0.428  0.2209  0.0361  0.2273
  481MOL0     O66243   2.488   8.854   0.350 -0.5529 -0.4164 -0.5920
  481MOL0     C66244   2.622   8.845   0.389 -0.5212  0.4988  0.5622
  481MOL0     C66245   2.652   8.747   0.478  0.3755 -1.0892 -0.4112
  481MOL0     C66246   2.786   8.744   0.537  0.2645 -0.5194  0.0697
  481MOL0     C66247   2.883   8.827   0.506  0.2193 -0.1917 -0.6021
  481MOL0     O66248   3.012   8.803   0.555 -1.2448  0.1148 -0.5398
  481MOL0     C66249   3.093   8.919   0.573  0.2587  0.2381  0.1678
  481MOL0     C66250   3.217   8.855   0.642  0.8008  0.6792 -0.0823
  481MOL0     C66251   3.307   8.959   0.706  0.1353 -0.1496  0.5747
  481MOL0     C66252   3.432   8.895   0.748 -1.2932  0.3961 -0.7317
  481MOL0     C66253   3.530   8.990   0.820 -0.4301  0.7832  0.2518
  481MOL0     C66254   3.661   8.926   0.858 -0.5748  0.2589  0.7609
  481MOL0     C66255   3.737   9.032   0.938 -0.9766  0.0339 -0.6862
  481MOL0     C66256   3.846   8.962   1.028  0.8497  0.3891  0.8572
  481MOL0     N66257   3.954   8.937   0.937 -0.9670 -1.1815 -0.1716
  481MOL0     C66258   3.984   8.825   0.860  0.7235 -0.0419 -1.0193
  481MOL0     C66259   4.104   8.850   0.800  0.2434  0.4281 -0.4146
  481MOL0     C66260   4.187   8.755   0.716  0.4134 -0.1651  0.7568
  481MOL0     C66261   4.244   8.629   0.782 -0.2928  0.0299  0.0536
  481MOL0     C66262   4.331   8.675   0.891 -0.5976 -0.0152 -0.4933
  481MOL0     C66263   4.391   8.556   0.967 -1.1881  0.0144  0.4089
  481MOL0     O66264   4.479   8.606   1.065  0.1812  0.0681  0.2629
  481MOL0     C66265   4.569   8.530   1.121 -0.4559  0.4080 -0.4271
  481MOL0     C66266   4.677   8.593   1.177 -0.1956  0.0111  0.6340
  481MOL0     C66267   4.773   8.522   1.253 -0.3316  0.6063 -0.0088
  481MOL0     C66268   4.893   8.598   1.301 -0.3701  0.0694  0.3113
  481MOL0     C66269   4.758   8.386   1.283 -1.0091 -0.2284  0.3291
  481MOL0     C66270   4.857   8.299   1.370  0.2216 -0.1402  0.5909
  481MOL0     O66271   4.960   8.351   1.442 -0.8653 -0.0155 -0.0069
  481MOL0     C66272   5.022   8.272   1.539 -1.0774 -0.5137  0.4278
  481MOL0     C66273   5.164   8.278   1.545 -0.5725 -0.3824 -0.6277
  481MOL0     C66274   5.231   8.193   1.637 -0.7141  0.2710  0.5649
  481MOL0     C66275   5.162   8.122   1.734  0.8313  0.7875  0.3897
  481MOL0     O66276   5.216   8.045   1.837 -0.2257  0.3506  0.5077
  481MOL0     C66277   5.324   7.966   1.797 -1.4758  0.6604 -0.3145
  481MOL0     C66278   5.274   7.818   1.763  1.4023 -0.0063 -0.7509
  481MOL0     C66279   5.294   7.716   1.876  0.0217 -0.3233 -0.6156
  481MOL0     C66280   5.211   7.586   1.854  0.3417 -0.3562 -0.5387
  481MOL0     C66281   5.256   7.464   1.926  1.4189 -0.6554  0.0565
  481MOL0     C66282   5.217   7.470   2.073 -0.5962  0.0216 -0.5013
  481MOL0     C66283   5.066   7.473   2.105  0.4346  0.5481  0.8762
  481MOL0     C66284   5.025   7.396   2.227  0.5470 -0.1333 -0.4186
  481MOL0    Cl66285   5.043   7.218   2.198 -0.5063  0.3318 -0.0013
  481MOL0     C66286   5.020   8.132   1.731  0.7196  0.3657  0.4345
  481MOL0     C66287   4.947   8.210   1.636  0.1152  0.4407  1.3092
  481MOL0     O66288   4.823   8.178   1.368  0.5018 -0.0784  0.2432
  481MOL0     C66289   4.645   8.327   1.225  0.1026 -0.0553  0.4152
  481MOL0     C66290   4.547   8.397   1.147  0.2785 -0.3194  0.1673
  481MOL0     N66291   4.145   8.980   0.831  0.2207 -0.0308  0.6656
  481MOL0     N66292   4.058   9.028   0.915  0.1896  0.2926 -0.7012
  481MOL0     C66293   2.857   8.920   0.405 -0.3979 -0.6664 -0.3734
  481MOL0     C66294   2.726   8.925   0.350  0.0729 -0.0983  0.2948
  481MOL0     C66295   2.287   8.898   0.474 -0.3667  1.1270 -0.0294
  481MOL0     C66296   2.236   8.773   0.420 -0.9158  0.0862 -0.2904
  481MOL0     C66297   2.114   8.732   0.455  1.1485 -0.7784  0.1673
  481MOL0     C66298   2.027   8.807   0.530  0.1927  0.2772 -1.4235
  481MOL0     O66299   1.904   8.753   0.562  0.0728  0.8313 -0.7943
  481MOL0     C66300   1.803   8.838   0.525  0.5668 -0.4423  0.4941
  481MOL0     C66301   1.685   8.759   0.508  0.1303 -0.3224 -0.2278
  481MOL0     C66302   1.580   8.850   0.431  0.1290 -0.0756 -0.0492
  481MOL0     C66303   1.456   8.775   0.380  0.2299  0.3638  0.6479
  481MOL0     C66304   1.368   8.760   0.501 -0.6194  0.7052  0.2668
  481MOL0     C66305   1.299   8.746   0.601 -0.3187 -0.9858 -0.4616
  481MOL0     C66306   2.067   8.930   0.582  1.2346  0.1262 -0.3147
  481MOL0     C66307   2.200   8.982   0.554 -0.4306  0.8504 -0.7248
  481MOL0     C66308   2.242   9.102   0.624 -0.0768  0.2162 -0.4889
  481MOL0     H66309   2.569   8.680   0.499 -1.4145  1.1527  0.1124
  481MOL0     H66310   2.814   8.662   0.603  1.1248  0.7045  1.2800
  481MOL0     H66311   3.033   8.994   0.626  1.2099  2.0188 -1.1959
  481MOL0     H66312   3.127   8.958   0.477 -0.4911 -1.9741 -1.0802
  481MOL0     H66313   3.183   8.787   0.721  0.3934 -0.5148 -1.2516
  481MOL0     H66314   3.287   8.807   0.572  0.4175  2.2133 -1.5888
  481MOL0     H66315   3.316   9.047   0.641 -0.2608  1.1183  2.1830
  481MOL0     H66316   3.253   8.996   0.794 -1.0014  0.3507 -0.3043
  481MOL0     H66317   3.400   8.811   0.811  1.9377 -0.7929 -0.4931
  481MOL0     H66318   3.485   8.841   0.669  1.8217 -0.7862  1.9347
  481MOL0     H66319   3.486   9.028   0.913  1.3952  2.9486  0.3022
  481MOL0     H66320   3.566   9.074   0.761  0.6045  1.1348  1.3506
  481MOL0     H66321   3.649   8.836   0.919 -0.5929 -0.2985 -0.0464
  481MOL0     H66322   3.728   8.888   0.781 -1.5470 -0.3229  0.1710
  481MOL0     H66323   3.668   9.078   1.009 -0.7906  0.3833 -0.7322
  481MOL0     H66324   3.783   9.112   0.880  3.5618 -1.5945  0.2503
  481MOL0     H66325   3.875   9.023   1.113  1.2740  1.3942  0.0035
  481MOL0     H66326   3.805   8.871   1.074 -0.1756 -0.0074 -0.7414
  481MOL0     H66327   3.919   8.739   0.848  0.5905 -0.5956  2.5609
  481MOL0     H66328   4.266   8.808   0.662  0.3673  0.3985  1.2355
  481MOL0     H66329   4.121   8.722   0.634  2.0290  1.3497 -1.2613
  481MOL0     H66330   4.159   8.566   0.812 -0.0889 -1.7581 -2.7748
  481MOL0     H66331   4.305   8.569   0.714 -1.0300 -1.1665  0.4108
  481MOL0     H66332   4.415   8.737   0.860 -1.7689  2.6030  1.1706
  481MOL0     H66333   4.273   8.738   0.958 -3.1444  1.4551 -3.7933
  481MOL0     H66334   4.320   8.505   1.032 -1.4073  1.7190  1.5478
  481MOL0     H66335   4.436   8.488   0.893  0.4081 -0.8406  2.0943
  481MOL0     H66336   4.690   8.700   1.162  1.5312 -0.3979 -1.2636
  481MOL0     H66337   4.890   8.705   1.276  2.1851  0.4045  1.1321
  481MOL0     H66338   4.981   8.567   1.243 -1.1691  0.2158 -1.0105
  481MOL0     H66339   4.909   8.590   1.409  1.2145  0.3427  0.1198
  481MOL0     H66340   5.231   8.343   1.490 -1.5974  1.7190  0.5101
  481MOL0     H66341   5.337   8.182   1.621 -1.0480 -1.2318 -0.9063
  481MOL0     H66342   5.391   8.011   1.724 -0.1987  0.6047  0.7849
  481MOL0     H66343   5.387   7.966   1.887 -3.8017 -0.5059  1.4349
  481MOL0     H66344   5.168   7.832   1.741  1.7014  0.4717 -1.9827
  481MOL0     H66345   5.316   7.780   1.670  0.1507 -1.1272 -0.8936
  481MOL0     H66346   5.275   7.757   1.976  0.5931 -1.8494  0.1694
  481MOL0     H66347   5.400   7.691   1.866 -0.1968 -0.7471 -2.1304
  481MOL0     H66348   5.238   7.556   1.752  6.0054 -2.2765  1.1218
  481MOL0     H66349   5.103   7.601   1.862  0.5733  2.1662 -1.2869
  481MOL0     H66350   5.209   7.377   1.879 -0.8016  1.4293 -1.8807
  481MOL0     H66351   5.364   7.453   1.926  1.4914 -0.4506  2.1798
  481MOL0     H66352   5.268   7.562   2.104  0.1616  0.2130 -2.1960
  481MOL0     H66353   5.266   7.390   2.130 -0.5674  1.2040  1.2315
  481MOL0     H66354   5.002   7.437   2.025  1.6971  0.7987 -0.2865
  481MOL0     H66355   5.039   7.577   2.127 -1.6891 -0.2778  2.5382
  481MOL0     H66356   4.918   7.414   2.244  0.6713  1.8507 -1.4621
  481MOL0     H66357   5.089   7.438   2.305  1.2141 -1.7618 -0.0591
  481MOL0     H66358   4.979   8.075   1.814  1.1597 -0.3898  0.1473
  481MOL0     H66359   4.839   8.215   1.633  0.0893 -0.4408 -0.0970
  481MOL0     H66360   4.626   8.223   1.249 -2.0555  0.9262  3.6260
  481MOL0     H66361   4.457   8.348   1.113 -1.6488  0.0832  4.0983
  481MOL0     H66362   2.935   8.984   0.365  1.3625 -1.7198  1.1780
  481MOL0     H66363   2.715   8.998   0.270  0.2596 -1.9307 -1.5029
  481MOL0     H66364   2.282   8.696   0.359 -1.8690 -0.3855 -0.4422
  481MOL0     H66365   2.092   8.632   0.420 -0.3195 -0.4519  0.1235
  481MOL0     H66366   1.773   8.912   0.600 -1.4603 -1.4321  0.7336
  481MOL0     H66367   1.820   8.884   0.427 -0.5394  1.0994  0.9735
  481MOL0     H66368   1.654   8.714   0.603 -0.2411 -4.3439 -2.0155
  481MOL0     H66369   1.722   8.683   0.438  1.4540  1.2754 -1.3134
  481MOL0     H66370   1.552   8.942   0.483  0.4901  1.1040 -1.8610
  481MOL0     H66371   1.626   8.887   0.339 -0.1266  0.1734 -0.0762
  481MOL0     H66372   1.487   8.678   0.339 -2.7529 -0.0186 -0.9671
  481MOL0     H66373   1.399   8.822   0.300 -0.0047  0.2266  0.7318
  481MOL0     H66374   1.237   8.740   0.688  2.8462 -1.2763  1.9796
  481MOL0     H66375   2.012   8.989   0.655  1.5183  0.8451 -0.6652
  481MOL0     H66376   2.165   9.135   0.695 -0.8913 -1.1162 -0.7127
  481MOL0     H66377   2.332   9.076   0.680 -0.7618  0.2794  0.6890
  481MOL0     H66378   2.262   9.183   0.554 -1.0267 -0.2275 -1.3066
  482MOL0     O66379   6.607   9.189   1.580 -0.1022  0.0292 -0.5157
  482MOL0     C66380   6.667   9.242   1.675 -0.9529 -0.5769  0.2321
  482MOL0     O66381   6.722   9.371   1.670 -0.6604 -0.3257  0.3471
  482MOL0     C66382   6.732   9.441   1.551 -0.0988  0.2566 -0.6508
  482MOL0     C66383   6.850   9.496   1.509 -0.0953  0.6462 -0.2298
  482MOL0     C66384   6.850   9.594   1.410 -0.3099  0.2900 -0.0356
  482MOL0     C66385   6.733   9.639   1.356 -0.6597 -0.1434  0.3437
  482MOL0     O66386   6.734   9.729   1.253 -0.3094 -0.8170  0.2104
  482MOL0     C66387   6.810   9.849   1.289 -0.2459 -0.5515  0.4009
  482MOL0     C66388   6.762   9.966   1.203  0.3356  0.0905  0.5692
  482MOL0     C66389   6.843  10.096   1.240  0.3599 -0.8227  0.0314
  482MOL0     C66390   6.993  10.088   1.193  0.0522  0.1307  0.0064
  482MOL0     C66391   7.057  10.232   1.212 -0.1600 -0.3589  0.2677
  482MOL0     C66392   7.218  10.242   1.211  0.5950 -0.7347 -0.1021
  482MOL0     C66393   7.294  10.136   1.288  0.5971  0.4129 -0.4101
  482MOL0     C66394   7.438  10.123   1.248 -0.4378  0.6145  0.3255
  482MOL0     N66395   7.517  10.059   1.352 -0.0794 -0.1498 -0.9109
  482MOL0     C66396   7.577  10.116   1.460 -0.2162 -0.2966 -0.2567
  482MOL0     C66397   7.664  10.022   1.503  0.0925 -0.5968  0.2464
  482MOL0     C66398   7.750  10.032   1.615 -0.2161  0.9086 -0.4449
  482MOL0     C66399   7.688  10.007   1.753 -0.1318  0.2965 -0.0612
  482MOL0     C66400   7.620   9.866   1.764 -0.7494  0.0019  0.6379
  482MOL0     C66401   7.707   9.747   1.729  0.3218 -0.1089  0.6223
  482MOL0     O66402   7.827   9.730   1.801  0.6963 -0.1781  0.0045
  482MOL0     C66403   7.939   9.671   1.750 -0.2034 -0.2757  0.6136
  482MOL0     C66404   8.049   9.632   1.839 -0.2094  0.8943 -0.6262
  482MOL0     C66405   8.172   9.567   1.794  0.7732 -0.0283 -0.2837
  482MOL0     C66406   8.279   9.516   1.885  0.1450  0.4736  0.3202
  482MOL0     C66407   8.175   9.529   1.659  0.7716  0.3985  0.4072
  482MOL0     C66408   8.293   9.463   1.589  0.8946 -0.8298 -0.1469
  482MOL0     O66409   8.261   9.397   1.475 -0.2847 -0.4335 -0.9721
  482MOL0     C66410   8.366   9.339   1.404  0.5556 -0.2709  0.0782
  482MOL0     C66411   8.346   9.330   1.265 -0.5895 -0.5526 -0.4781
  482MOL0     C66412   8.441   9.264   1.189 -0.7318 -0.1752 -0.0660
  482MOL0     C66413   8.564   9.209   1.244  0.0448 -0.3787 -0.2583
  482MOL0     O66414   8.662   9.147   1.171 -0.0362  0.4037 -0.5968
  482MOL0     C66415   8.618   9.055   1.066 -0.1950 -0.3634 -0.2181
  482MOL0     C66416   8.674   8.915   1.089  0.7240 -0.5863 -1.0029
  482MOL0     C66417   8.633   8.854   1.219  0.1268  0.0915 -0.6331
  482MOL0     C66418   8.648   8.695   1.220  0.0707 -0.8480 -0.4144
  482MOL0     C66419   8.597   8.632   1.354  0.1004 -0.2219 -0.1081
  482MOL0     C66420   8.463   8.546   1.335 -0.3756  0.8241 -0.4879
  482MOL0     C66421   8.433   8.436   1.442 -0.2919 -0.1767 -0.3826
  482MOL0     C66422   8.401   8.498   1.572  0.6362  1.2846 -0.4032
  482MOL0    Cl66423   8.283   8.635   1.562  0.1237  0.0736 -0.0671
  482MOL0     C66424   8.581   9.227   1.383  0.3323  1.0537 -0.4775
  482MOL0     C66425   8.481   9.278   1.461 -0.0345 -0.4538  0.6047
  482MOL0     O66426   8.404   9.491   1.633  0.4691  0.4726  0.0778
  482MOL0     C66427   8.058   9.558   1.580 -0.0290 -0.5474 -0.1620
  482MOL0     C66428   7.946   9.636   1.618  0.6756 -0.1453 -0.5509
  482MOL0     N66429   7.661   9.916   1.412  0.4201  0.8582 -1.4129
  482MOL0     N66430   7.566   9.931   1.331  0.2403 -0.5700 -0.0584
  482MOL0     C66431   6.616   9.576   1.391 -0.2118  0.2832  0.1067
  482MOL0     C66432   6.611   9.479   1.485 -0.2271  0.2256 -0.7119
  482MOL0     C66433   6.697   9.169   1.796 -0.3740  0.4492 -0.1725
  482MOL0     C66434   6.816   9.196   1.872  0.5662 -0.2839  0.1359
  482MOL0     C66435   6.855   9.120   1.983  0.3797  0.7772  0.2260
  482MOL0     C66436   6.759   9.030   2.033 -1.2385 -0.5595  0.5172
  482MOL0     O66437   6.776   8.948   2.137 -0.0746  0.2485  0.2318
  482MOL0     C66438   6.835   9.002   2.263 -0.0672  0.3959  0.7596
  482MOL0     C66439   6.754   9.105   2.328  0.1071  0.1066 -0.0332
  482MOL0     C66440   6.615   9.058   2.376 -1.0499 -0.7059  0.0288
  482MOL0     C66441   6.524   9.161   2.449  1.0305  0.5005 -0.1086
  482MOL0     C66442   6.576   9.190   2.583  0.4942 -0.7026 -0.7974
  482MOL0     C66443   6.625   9.237   2.691 -0.4427  0.0978 -0.1709
  482MOL0     C66444   6.642   8.989   1.966 -0.0553  0.3062 -0.0981
  482MOL0     C66445   6.612   9.063   1.848 -0.3465 -0.1805  0.6455
  482MOL0     C66446   6.486   9.012   1.775 -0.4347  0.4375 -0.0640
  482MOL0     H66447   6.943   9.464   1.557  1.2465  2.3808 -1.5340
  482MOL0     H66448   6.938   9.638   1.363 -2.0961  1.0688 -2.9019
  482MOL0     H66449   6.917   9.833   1.275 -0.3722 -0.7631 -0.3857
  482MOL0     H66450   6.789   9.874   1.393 -3.3123 -1.2662  0.0613
  482MOL0     H66451   6.778   9.947   1.097  2.8287 -1.1164  1.0909
  482MOL0     H66452   6.659   9.983   1.237 -0.4271  0.0131 -1.5629
  482MOL0     H66453   6.804  10.181   1.182  1.4275  0.1319  0.6728
  482MOL0     H66454   6.843  10.122   1.346  2.8213  1.9938 -0.5150
  482MOL0     H66455   7.039  10.021   1.267 -0.6153  0.7716  1.0130
  482MOL0     H66456   7.013  10.057   1.090  2.1785 -1.4288  0.8012
  482MOL0     H66457   7.014  10.271   1.305  0.1550  2.4250 -0.6809
  482MOL0     H66458   7.014  10.298   1.137  0.5891  1.0619  1.0573
  482MOL0     H66459   7.251  10.243   1.107 -2.1191  3.0799 -1.1509
  482MOL0     H66460   7.255  10.334   1.258  2.0207 -1.0033 -0.6523
  482MOL0     H66461   7.250  10.038   1.263 -0.1182  0.1560  1.7038
  482MOL0     H66462   7.286  10.150   1.396  1.1833 -0.4885 -0.2396
  482MOL0     H66463   7.445  10.064   1.156  1.4766  0.6494  0.4077
  482MOL0     H66464   7.484  10.222   1.241  2.5624 -0.4211  2.7685
  482MOL0     H66465   7.566  10.217   1.497 -1.3345  0.0314 -1.4133
  482MOL0     H66466   7.790  10.133   1.604 -0.9813  1.0839 -1.7444
  482MOL0     H66467   7.836   9.969   1.593 -0.8968  0.1285 -0.9066
  482MOL0     H66468   7.775  10.015   1.819  2.1795 -0.4467 -2.8178
  482MOL0     H66469   7.607  10.078   1.770  1.8316  3.3864 -2.5020
  482MOL0     H66470   7.589   9.849   1.867 -0.7592  2.0673  1.0165
  482MOL0     H66471   7.530   9.853   1.704  0.4090  0.1185 -1.2362
  482MOL0     H66472   7.651   9.654   1.742 -2.3212  1.3441  0.2310
  482MOL0     H66473   7.728   9.760   1.623 -2.6273 -1.8213 -0.2762
  482MOL0     H66474   8.027   9.651   1.943  0.0273  1.0634 -0.6051
  482MOL0     H66475   8.305   9.412   1.862  4.2070  1.5277 -0.7720
  482MOL0     H66476   8.237   9.530   1.985 -1.5287 -1.6424 -0.0252
  482MOL0     H66477   8.368   9.580   1.883  1.1155 -0.7342  2.1005
  482MOL0     H66478   8.257   9.369   1.217 -1.0453  0.7586  1.3005
  482MOL0     H66479   8.431   9.256   1.081 -0.9615  0.5819 -0.1072
  482MOL0     H66480   8.509   9.043   1.055 -0.3357  2.1775 -2.7798
  482MOL0     H66481   8.651   9.093   0.969  0.3233  0.8503  0.4167
  482MOL0     H66482   8.647   8.853   1.004 -0.9391 -1.2615 -0.0277
  482MOL0     H66483   8.783   8.930   1.085  0.9648 -1.2386  1.5494
  482MOL0     H66484   8.529   8.871   1.248  0.7122  0.6405  1.2974
  482MOL0     H66485   8.690   8.895   1.302 -0.6106 -0.2038  0.0370
  482MOL0     H66486   8.753   8.666   1.207 -0.5408 -2.1106 -3.7104
  482MOL0     H66487   8.600   8.656   1.130 -0.8921  0.8824 -0.6980
  482MOL0     H66488   8.666   8.555   1.389 -0.0952  0.6365  2.3141
  482MOL0     H66489   8.583   8.703   1.436  2.5692 -0.7724  0.8889
  482MOL0     H66490   8.477   8.492   1.241 -1.4760  0.3489 -0.3907
  482MOL0     H66491   8.380   8.616   1.322 -3.8824 -2.1160  3.3356
  482MOL0     H66492   8.507   8.356   1.432 -0.8204 -1.1185  2.3284
  482MOL0     H66493   8.343   8.390   1.399 -0.8992  2.8396 -2.6256
  482MOL0     H66494   8.491   8.528   1.626  1.6532 -2.5279  0.3442
  482MOL0     H66495   8.349   8.424   1.635 -0.2113  2.7482  0.6697
  482MOL0     H66496   8.667   9.182   1.434 -2.1889 -1.2640  2.1173
  482MOL0     H66497   8.486   9.266   1.569  2.4021 -0.9291  0.4960
  482MOL0     H66498   8.066   9.529   1.476 -1.7474 -1.3582 -0.0937
  482MOL0     H66499   7.860   9.640   1.552 -0.9946 -1.8305  1.3736
  482MOL0     H66500   6.527   9.610   1.340 -0.0434  0.6625  0.0649
  482MOL0     H66501   6.519   9.433   1.522  2.4380 -1.5744  4.7427
  482MOL0     H66502   6.885   9.267   1.828  1.0977 -1.7341 -1.4920
  482MOL0     H66503   6.955   9.132   2.024  1.4657 -0.3038 -1.8986
  482MOL0     H66504   6.839   8.920   2.335  0.1929  0.1638  0.4799
  482MOL0     H66505   6.941   9.025   2.245  0.0959  1.1254  2.4089
  482MOL0     H66506   6.743   9.198   2.271  1.2107  0.7821  0.8023
  482MOL0     H66507   6.815   9.143   2.411  0.0884  0.2892 -0.1025
  482MOL0     H66508   6.563   9.029   2.285 -1.0160  0.5405 -0.4035
  482MOL0     H66509   6.637   8.968   2.434  1.4142  1.0887  2.1390
  482MOL0     H66510   6.425   9.116   2.457  0.6390  0.5564 -3.2103
  482MOL0     H66511   6.518   9.245   2.379  2.3380 -1.2337 -2.4633
  482MOL0     H66512   6.671   9.262   2.785 -0.3987 -0.1466 -0.1247
  482MOL0     H66513   6.583   8.914   2.018 -2.2662  0.7211 -1.8579
  482MOL0     H66514   6.438   8.925   1.819  0.2311 -1.6220 -3.0959
  482MOL0     H66515   6.420   9.100   1.774 -1.8240 -0.4274  3.1431
  482MOL0     H66516   6.513   8.983   1.673  1.4232  0.6069  0.3491
  483MOL0     O66517   1.763   7.454   0.721  0.9426 -0.5196 -0.1690
  483MOL0     C66518   1.713   7.338   0.724 -0.6087 -0.8790  0.2990
  483MOL0     O66519   1.774   7.228   0.784  0.4607  0.0261 -0.2759
  483MOL0     C66520   1.912   7.242   0.800  1.3008  0.3409 -0.2318
  483MOL0     C66521   1.977   7.309   0.903 -0.4274  0.1923  0.4238
  483MOL0     C66522   2.115   7.325   0.904  0.6164  0.3382  0.2706
  483MOL0     C66523   2.190   7.269   0.803 -0.3259 -0.5561  0.8539
  483MOL0     O66524   2.325   7.302   0.791 -0.4156  0.1232 -0.7132
  483MOL0     C66525   2.405   7.188   0.809  0.7307  0.5569  0.7421
  483MOL0     C66526   2.550   7.245   0.822 -0.3134 -0.3653  0.1947
  483MOL0     C66527   2.599   7.356   0.727  1.2320  0.9173 -0.1980
  483MOL0     C66528   2.565   7.331   0.583  0.3537  0.7815 -0.6587
  483MOL0     C66529   2.583   7.458   0.507 -0.6882 -0.0144  0.1584
  483MOL0     C66530   2.614   7.419   0.362 -0.2662 -1.0063  0.1463
  483MOL0     C66531   2.485   7.374   0.290  0.1033 -0.3055 -0.7339
  483MOL0     C66532   2.512   7.356   0.137 -0.6590  0.2347 -0.3357
  483MOL0     N66533   2.600   7.238   0.106 -0.1437 -0.7496 -0.1027
  483MOL0     C66534   2.738   7.251   0.084 -0.4113 -0.9906  0.0415
  483MOL0     C66535   2.775   7.127   0.072 -0.0253  0.6162  0.2765
  483MOL0     C66536   2.906   7.076   0.045 -0.2262  0.3240  0.3634
  483MOL0     C66537   2.998   7.126   0.150 -0.0452  0.2765 -0.6668
  483MOL0     C66538   3.141   7.058   0.143 -0.1420 -0.1903 -1.1051
  483MOL0     C66539   3.229   7.126   0.243 -0.6581 -0.0701  0.7338
  483MOL0     O66540   3.353   7.056   0.226  0.1376 -0.1366  0.2993
  483MOL0     C66541   3.459   7.133   0.267  0.0481  0.4948  0.2157
  483MOL0     C66542   3.466   7.186   0.396  0.3428  0.3231 -0.1171
  483MOL0     C66543   3.572   7.271   0.437 -0.6589  0.1253 -0.0173
  483MOL0     C66544   3.559   7.337   0.572 -0.0750  0.3810  0.2424
  483MOL0     C66545   3.688   7.277   0.364  0.2735 -0.1236  0.2862
  483MOL0     C66546   3.797   7.369   0.395  0.3496 -1.0699  0.3044
  483MOL0     O66547   3.772   7.501   0.423 -0.4009  0.2486 -1.0633
  483MOL0     C66548   3.861   7.568   0.499 -0.9252 -0.4795 -0.6171
  483MOL0     C66549   3.903   7.690   0.457  0.1796 -0.2157 -0.3913
  483MOL0     C66550   3.979   7.776   0.540 -0.2243 -0.3653 -0.1142
  483MOL0     C66551   4.036   7.724   0.660  0.0517 -0.6428  0.0997
  483MOL0     O66552   4.106   7.797   0.752  0.4410  0.1108  0.2159
  483MOL0     C66553   4.235   7.834   0.706  0.7935 -0.2911  0.3147
  483MOL0     C66554   4.327   7.727   0.744 -0.3036 -0.9970  0.3784
  483MOL0     C66555   4.480   7.763   0.740 -0.2455  0.1651 -0.4619
  483MOL0     C66556   4.588   7.652   0.747 -0.1466 -0.1507  0.3897
  483MOL0     C66557   4.549   7.534   0.842 -0.0242 -0.1403  0.4264
  483MOL0     C66558   4.655   7.424   0.873 -0.3323 -0.4809  0.3225
  483MOL0     C66559   4.735   7.384   0.746 -0.7528 -0.9887  0.7184
  483MOL0     C66560   4.823   7.267   0.778 -0.3299 -0.0827  0.4326
  483MOL0    Cl66561   4.947   7.298   0.894  0.5620 -0.4036 -0.3514
  483MOL0     C66562   4.006   7.595   0.690  0.1285  0.7241  0.4438
  483MOL0     C66563   3.927   7.510   0.610  0.6511  0.5764 -0.3254
  483MOL0     O66564   3.905   7.333   0.368 -0.2610  0.8946  0.6952
  483MOL0     C66565   3.688   7.212   0.235  0.2963  0.7794  0.1973
  483MOL0     C66566   3.571   7.153   0.183  1.0879 -0.5168  0.0218
  483MOL0     N66567   2.670   7.041   0.087  0.3053  0.3347  0.5681
  483MOL0     N66568   2.567   7.110   0.114  0.0837  0.2000 -0.0132
  483MOL0     C66569   2.121   7.194   0.704  0.5355  0.1385 -0.1195
  483MOL0     C66570   1.981   7.176   0.695 -0.0385  0.0693 -0.2707
  483MOL0     C66571   1.570   7.324   0.680  0.0178  0.4046 -0.6281
  483MOL0     C66572   1.495   7.209   0.717  0.2529  0.9117 -1.1895
  483MOL0     C66573   1.370   7.188   0.671 -0.1777 -0.5027  0.3321
  483MOL0     C66574   1.299   7.290   0.594 -0.6039  0.0805  0.3471
  483MOL0     O66575   1.168   7.286   0.558  0.3071 -0.1718 -0.3921
  483MOL0     C66576   1.073   7.246   0.656  1.2233 -0.5771 -0.0798
  483MOL0     C66577   0.937   7.311   0.632 -0.3564 -0.7243 -0.0991
  483MOL0     C66578   0.870   7.245   0.513  0.0690  0.2863  0.2055
  483MOL0     C66579   0.731   7.300   0.494 -0.4542  0.2864  0.4433
  483MOL0     C66580   0.634   7.219   0.427  0.1091 -0.1402 -0.6816
  483MOL0     C66581   0.556   7.145   0.365  0.9108 -1.2886  0.4172
  483MOL0     C66582   1.373   7.398   0.552  0.0667  0.4352 -0.4172
  483MOL0     C66583   1.505   7.416   0.593  0.4659  0.4675  0.3762
  483MOL0     C66584   1.584   7.541   0.531 -0.4037 -0.2157  0.5048
  483MOL0     H66585   1.917   7.352   0.983 -2.5219 -2.9154  0.7066
  483MOL0     H66586   2.162   7.385   0.982  1.6240 -1.5853  1.2160
  483MOL0     H66587   2.398   7.122   0.722 -1.8179  0.0139  1.2666
  483MOL0     H66588   2.388   7.132   0.901  6.6248  0.8469  2.3632
  483MOL0     H66589   2.559   7.297   0.918 -2.7500  0.4364  0.0471
  483MOL0     H66590   2.619   7.160   0.826  2.5479  1.8641  2.1634
  483MOL0     H66591   2.538   7.443   0.754 -2.1679 -0.9354 -1.3498
  483MOL0     H66592   2.703   7.387   0.737  0.9913  0.9694  3.1607
  483MOL0     H66593   2.613   7.241   0.543 -4.2657 -2.1508 -0.2928
  483MOL0     H66594   2.456   7.318   0.584  0.4938 -1.1950  2.2854
  483MOL0     H66595   2.670   7.512   0.547 -1.2890  1.4717 -0.4608
  483MOL0     H66596   2.493   7.518   0.519 -1.6360 -0.9306 -1.8673
  483MOL0     H66597   2.653   7.512   0.319  2.1405 -2.6634 -1.5497
  483MOL0     H66598   2.698   7.350   0.349  1.8909  1.8056 -2.2965
  483MOL0     H66599   2.403   7.445   0.300 -0.6975 -1.0876 -1.5942
  483MOL0     H66600   2.462   7.274   0.327 -2.0558  0.4228  0.0242
  483MOL0     H66601   2.409   7.337   0.105 -0.6998  2.2984 -1.6357
  483MOL0     H66602   2.542   7.448   0.087 -0.3487 -0.6633 -1.8788
  483MOL0     H66603   2.807   7.333   0.103 -2.6567  0.3976  3.0424
  483MOL0     H66604   2.948   7.103  -0.052  1.7457 -0.0504  1.0747
  483MOL0     H66605   2.897   6.970   0.070  2.2237  0.2026  0.9319
  483MOL0     H66606   3.016   7.233   0.143 -1.1787  0.4402 -1.1888
  483MOL0     H66607   2.949   7.099   0.244  0.8585 -2.5667 -0.9195
  483MOL0     H66608   3.138   6.949   0.157  0.5164  0.0389  1.1424
  483MOL0     H66609   3.189   7.064   0.044  0.6649  1.0580 -0.6601
  483MOL0     H66610   3.239   7.232   0.218 -0.9753 -0.1453  0.2702
  483MOL0     H66611   3.176   7.121   0.338 -2.5265 -2.3384 -0.3098
  483MOL0     H66612   3.386   7.181   0.468  0.3356 -0.2038 -0.1633
  483MOL0     H66613   3.520   7.439   0.570 -2.9426 -0.6056  0.3628
  483MOL0     H66614   3.658   7.329   0.618  2.0864 -1.4161 -4.1479
  483MOL0     H66615   3.499   7.270   0.634 -1.0333  0.2286 -0.8112
  483MOL0     H66616   3.861   7.730   0.365 -1.0995  2.5867  1.2484
  483MOL0     H66617   3.988   7.881   0.512 -1.9301 -0.0302  0.4730
  483MOL0     H66618   4.253   7.849   0.599  2.3996 -1.4280  0.3755
  483MOL0     H66619   4.263   7.928   0.754  1.5866  0.5717 -1.7297
  483MOL0     H66620   4.300   7.696   0.845  1.2796  2.5276  2.0458
  483MOL0     H66621   4.310   7.648   0.670  1.2966  0.5525 -1.7886
  483MOL0     H66622   4.502   7.827   0.826  0.2734  0.6866 -0.9711
  483MOL0     H66623   4.495   7.823   0.650 -2.0019 -1.5487 -1.9828
  483MOL0     H66624   4.684   7.697   0.774  1.2408 -1.7830 -1.4793
  483MOL0     H66625   4.607   7.617   0.645  2.2540  1.5839  0.1609
  483MOL0     H66626   4.519   7.575   0.938 -2.1086  0.9677 -0.6191
  483MOL0     H66627   4.474   7.474   0.789  1.2213 -2.6969  1.3683
  483MOL0     H66628   4.612   7.342   0.931 -1.1934 -1.1518 -1.2044
  483MOL0     H66629   4.724   7.473   0.941  0.9490 -0.6913 -0.7795
  483MOL0     H66630   4.801   7.468   0.725 -2.3948  0.6135  1.6881
  483MOL0     H66631   4.668   7.365   0.662  1.5585 -0.8505 -1.2538
  483MOL0     H66632   4.875   7.244   0.685 -0.6534  0.1786  0.1825
  483MOL0     H66633   4.757   7.190   0.817 -1.6222  1.0537  0.5631
  483MOL0     H66634   4.042   7.554   0.784  2.6435  1.2434 -0.2145
  483MOL0     H66635   3.919   7.404   0.632 -0.0232  0.6128 -0.3677
  483MOL0     H66636   3.776   7.229   0.174  0.5118 -0.1354  0.2467
  483MOL0     H66637   3.566   7.141   0.076 -0.2006 -2.4959  0.2433
  483MOL0     H66638   2.185   7.152   0.627 -0.7293 -1.7754 -0.1759
  483MOL0     H66639   1.921   7.122   0.622  0.3691 -2.4209  1.1473
  483MOL0     H66640   1.536   7.132   0.782 -0.3436  1.8997  0.4037
  483MOL0     H66641   1.329   7.092   0.702  1.5449 -0.7735  1.9060
  483MOL0     H66642   1.069   7.137   0.652 -1.0609 -0.7057  2.6811
  483MOL0     H66643   1.107   7.278   0.755 -0.2957  0.3701  0.1782
  483MOL0     H66644   0.949   7.419   0.619 -1.7627 -0.8179 -2.5649
  483MOL0     H66645   0.870   7.300   0.718 -0.1734  0.0756  0.1571
  483MOL0     H66646   0.931   7.256   0.423  0.1971 -1.1126  0.1001
  483MOL0     H66647   0.860   7.139   0.540  1.5042  0.3290  1.0020
  483MOL0     H66648   0.744   7.393   0.438 -2.2693  1.7853  2.3332
  483MOL0     H66649   0.682   7.332   0.587 -2.2260 -1.3078  0.1105
  483MOL0     H66650   0.492   7.086   0.302 -0.8044  2.8538 -2.1713
  483MOL0     H66651   1.318   7.472   0.495 -1.5145  0.6815  1.3606
  483MOL0     H66652   1.683   7.512   0.496 -0.7118 -2.4141  1.3059
  483MOL0     H66653   1.529   7.573   0.442 -0.8442  2.5869  1.6652
  483MOL0     H66654   1.602   7.630   0.591  0.4216  1.6645 -2.3285
  484MOL0     O66655   2.893   3.130   7.706 -0.5975  0.1645 -0.0114
  484MOL0     C66656   2.900   3.213   7.622  0.1206 -0.8708  0.8627
  484MOL0     O66657   3.002   3.250   7.542  0.4571  0.4506 -0.5250
  484MOL0     C66658   3.133   3.198   7.580  0.1984 -0.0878  0.1195
  484MOL0     C66659   3.229   3.191   7.480 -0.2058  1.1766  0.9354
  484MOL0     C66660   3.364   3.152   7.510  0.6945  0.5672  0.6382
  484MOL0     C66661   3.396   3.130   7.646 -1.1559 -0.2876 -0.4798
  484MOL0     O66662   3.527   3.105   7.684 -0.3713  0.6406 -0.4052
  484MOL0     C66663   3.635   3.126   7.598  0.7357 -0.9741  0.5956
  484MOL0     C66664   3.762   3.070   7.661  0.1800  0.2248  0.7737
  484MOL0     C66665   3.781   3.085   7.807 -0.0560  0.6721  0.7515
  484MOL0     C66666   3.907   3.009   7.851  0.7414 -0.4585 -0.0194
  484MOL0     C66667   3.923   3.021   8.005  0.1752  0.3467 -1.0274
  484MOL0     C66668   3.999   3.144   8.029 -0.1755 -0.5816 -0.1410
  484MOL0     C66669   4.042   3.166   8.175  0.6593 -0.7822  1.0303
  484MOL0     C66670   4.164   3.089   8.223  0.0080 -0.2815  1.1482
  484MOL0     N66671   4.217   3.129   8.353  0.3886 -0.6172  0.1619
  484MOL0     C66672   4.347   3.147   8.386  0.4398  0.9128 -0.3027
  484MOL0     C66673   4.355   3.209   8.508  0.5857 -0.1310 -0.2252
  484MOL0     C66674   4.478   3.240   8.588  0.9102 -0.0782 -0.2549
  484MOL0     C66675   4.550   3.359   8.537 -1.2406 -1.0243 -0.9271
  484MOL0     C66676   4.658   3.375   8.647 -0.2634 -0.6777  0.2767
  484MOL0     C66677   4.791   3.442   8.609  1.0989  0.1727  0.1007
  484MOL0     O66678   4.778   3.580   8.609 -0.3085 -0.8062  0.5328
  484MOL0     C66679   4.896   3.652   8.625  0.6338  0.3253  0.4217
  484MOL0     C66680   4.881   3.791   8.656 -0.6075  1.2482  0.2048
  484MOL0     C66681   4.994   3.875   8.672 -0.3938  0.3195  0.0797
  484MOL0     C66682   4.978   4.026   8.681 -0.1537  0.6104  0.6622
  484MOL0     C66683   5.123   3.804   8.676 -0.9741 -0.0662 -1.0942
  484MOL0     C66684   5.246   3.860   8.729 -0.8368 -0.0929  0.4233
  484MOL0     O66685   5.344   3.774   8.781 -0.7701  0.5034 -0.3371
  484MOL0     C66686   5.461   3.821   8.834  0.6407 -1.4936  0.8700
  484MOL0     C66687   5.555   3.885   8.750  0.6249  0.2937  0.1547
  484MOL0     C66688   5.666   3.944   8.811  0.3718 -0.4327  0.8075
  484MOL0     C66689   5.675   3.964   8.949  0.0942  0.7226  0.0798
  484MOL0     O66690   5.782   4.037   9.001 -0.3478 -0.0372 -0.4119
  484MOL0     C66691   5.741   4.126   9.106 -0.0357 -0.7202 -0.2550
  484MOL0     C66692   5.865   4.194   9.165 -0.0683  0.4865  0.2195
  484MOL0     C66693   5.947   4.084   9.247 -0.0923 -0.1995 -0.2803
  484MOL0     C66694   6.081   4.129   9.311 -0.1841 -0.8613 -0.0702
  484MOL0     C66695   6.152   4.018   9.372  0.7304  0.4814 -0.6468
  484MOL0     C66696   6.285   4.034   9.457  0.7443  0.9923  0.2876
  484MOL0     C66697   6.373   4.125   9.377  0.6980  0.6707 -0.0204
  484MOL0     C66698   6.521   4.121   9.412 -0.1700  0.0197 -0.0622
  484MOL0    Cl66699   6.606   3.952   9.392  0.5197 -0.0561 -0.4733
  484MOL0     C66700   5.575   3.901   9.034  0.1522 -0.4237 -0.6349
  484MOL0     C66701   5.475   3.826   8.972 -0.3225  0.1158  0.3726
  484MOL0     O66702   5.267   3.975   8.707 -0.1432 -0.3586 -0.2517
  484MOL0     C66703   5.129   3.671   8.641 -0.4729  0.5913 -0.1882
  484MOL0     C66704   5.018   3.600   8.610  0.1065 -0.1423  0.8284
  484MOL0     N66705   4.220   3.205   8.555 -0.5956 -0.1134 -0.4567
  484MOL0     N66706   4.145   3.165   8.462 -0.2573  0.2959  0.7127
  484MOL0     C66707   3.299   3.142   7.745  0.6591 -0.3709  0.6768
  484MOL0     C66708   3.169   3.178   7.719 -0.5987  0.0687 -0.6855
  484MOL0     C66709   2.780   3.298   7.590 -0.2181  0.2204  0.9856
  484MOL0     C66710   2.732   3.304   7.455 -0.6281 -0.6002 -0.5688
  484MOL0     C66711   2.613   3.366   7.419 -0.3163 -0.1228  0.3459
  484MOL0     C66712   2.553   3.446   7.510  0.1640 -0.3372  0.2843
  484MOL0     O66713   2.442   3.511   7.474  0.5537 -0.3685 -0.5925
  484MOL0     C66714   2.448   3.572   7.340 -0.2842 -0.0053  0.7234
  484MOL0     C66715   2.383   3.713   7.349  0.0572 -0.1370 -0.4320
  484MOL0     C66716   2.356   3.757   7.197  0.1455 -0.0605 -0.6027
  484MOL0     C66717   2.336   3.909   7.203 -0.2100  0.2307  0.3885
  484MOL0     C66718   2.453   4.000   7.218 -0.8841 -0.3608  0.5774
  484MOL0     C66719   2.549   4.077   7.217  0.1022 -0.6237  0.5578
  484MOL0     C66720   2.606   3.454   7.639 -1.0286  0.1757 -0.1274
  484MOL0     C66721   2.722   3.382   7.684  1.8516 -0.9736 -1.0333
  484MOL0     C66722   2.762   3.411   7.823 -0.4452 -0.3701 -0.1430
  484MOL0     H66723   3.206   3.200   7.374 -0.8369  0.8811  1.0437
  484MOL0     H66724   3.425   3.139   7.422 -1.2561 -2.5006 -0.3809
  484MOL0     H66725   3.639   3.235   7.594  4.2981 -1.0268 -0.3302
  484MOL0     H66726   3.620   3.083   7.499  0.3405 -1.7858  1.0026
  484MOL0     H66727   3.751   2.964   7.640 -1.8208  0.4733  0.4278
  484MOL0     H66728   3.843   3.115   7.602 -0.9220 -1.3737 -2.1897
  484MOL0     H66729   3.779   3.193   7.826 -0.4974  0.4997  1.7059
  484MOL0     H66730   3.692   3.038   7.848  0.0998  1.6494  2.3013
  484MOL0     H66731   3.889   2.901   7.849 -1.0441 -0.1779 -2.1957
  484MOL0     H66732   3.994   3.043   7.794 -2.2773  1.4931 -3.8507
  484MOL0     H66733   3.990   2.943   8.043 -1.2232  0.6286  2.4287
  484MOL0     H66734   3.828   3.006   8.058  0.5190 -1.8193 -0.9302
  484MOL0     H66735   4.085   3.156   7.962  0.2431  0.4650  0.5450
  484MOL0     H66736   3.938   3.229   7.997 -0.0179 -0.8430 -1.1680
  484MOL0     H66737   3.961   3.150   8.247  0.0474 -1.2093  0.2687
  484MOL0     H66738   4.074   3.271   8.174  1.3072 -0.9544  2.2519
  484MOL0     H66739   4.131   2.985   8.224  0.2257 -0.3759 -0.0818
  484MOL0     H66740   4.239   3.091   8.143 -3.2515 -1.4507 -2.2041
  484MOL0     H66741   4.428   3.108   8.325 -0.5678  0.3199 -1.2999
  484MOL0     H66742   4.544   3.154   8.575  1.8199 -0.3033  4.2576
  484MOL0     H66743   4.458   3.245   8.695  1.7413  1.7865 -0.1463
  484MOL0     H66744   4.582   3.337   8.434  0.8713 -1.3741 -0.2337
  484MOL0     H66745   4.504   3.459   8.537  0.0712 -0.4057 -0.5999
  484MOL0     H66746   4.619   3.419   8.739  2.8825  1.4293  0.7633
  484MOL0     H66747   4.696   3.275   8.669 -3.1465 -2.3865 -1.7869
  484MOL0     H66748   4.851   3.411   8.694 -0.5652  0.6264  1.4950
  484MOL0     H66749   4.829   3.406   8.513  0.6038 -2.5130  0.8211
  484MOL0     H66750   4.779   3.829   8.660 -2.1772 -1.8858 -3.4739
  484MOL0     H66751   5.058   4.070   8.622  0.4264  1.3610  1.9638
  484MOL0     H66752   4.973   4.058   8.786 -3.2242  1.1024  0.4576
  484MOL0     H66753   4.881   4.064   8.646  1.2333  1.3507 -2.7059
  484MOL0     H66754   5.538   3.883   8.643 -1.0753  0.2301  0.4000
  484MOL0     H66755   5.739   3.988   8.744 -2.8736  0.7791 -2.2635
  484MOL0     H66756   5.678   4.203   9.060 -3.1847 -0.4792  3.8468
  484MOL0     H66757   5.680   4.094   9.191 -0.0746 -1.1080 -0.4245
  484MOL0     H66758   5.913   4.243   9.080 -2.9675  3.5086  0.1196
  484MOL0     H66759   5.831   4.283   9.219  1.9855  1.8494 -0.6546
  484MOL0     H66760   5.970   4.013   9.167  1.8956  1.7995 -1.6250
  484MOL0     H66761   5.889   4.037   9.326 -0.1308  1.5518  0.7927
  484MOL0     H66762   6.064   4.216   9.375  1.1769  0.6838 -1.7264
  484MOL0     H66763   6.150   4.160   9.232 -1.8149 -0.3329 -1.3276
  484MOL0     H66764   6.081   3.965   9.437  3.5118 -2.0757  0.5451
  484MOL0     H66765   6.161   3.942   9.294  1.1039  0.1578 -0.2933
  484MOL0     H66766   6.327   3.934   9.459 -2.1879 -0.4653 -1.9395
  484MOL0     H66767   6.258   4.071   9.556 -1.9519 -1.1727  0.4988
  484MOL0     H66768   6.326   4.223   9.392 -1.0237 -0.2700  1.0556
  484MOL0     H66769   6.374   4.102   9.270  2.0213  0.6611 -0.0145
  484MOL0     H66770   6.522   4.155   9.516 -0.2850  2.4295 -0.7787
  484MOL0     H66771   6.578   4.198   9.359 -2.5468  2.9739  1.3637
  484MOL0     H66772   5.593   3.901   9.141  2.0188 -0.7906 -0.9071
  484MOL0     H66773   5.402   3.773   9.032 -0.2854  0.2634  0.5537
  484MOL0     H66774   5.222   3.616   8.647 -0.9344 -0.1639  0.1346
  484MOL0     H66775   5.038   3.498   8.578 -1.6783  0.5339 -2.9610
  484MOL0     H66776   3.313   3.137   7.852 -1.2800  2.3500  1.1457
  484MOL0     H66777   3.106   3.197   7.805 -1.0301  1.1587 -1.2138
  484MOL0     H66778   2.787   3.249   7.380  1.9846  1.5639 -0.3898
  484MOL0     H66779   2.586   3.352   7.315  2.2975  0.7981 -0.5616
  484MOL0     H66780   2.548   3.569   7.296 -0.6521 -0.4395 -0.1053
  484MOL0     H66781   2.384   3.508   7.277  2.1434 -3.2895  1.3331
  484MOL0     H66782   2.449   3.788   7.392 -0.5853  2.2251 -3.2307
  484MOL0     H66783   2.289   3.712   7.405  0.1514  2.3614 -0.1189
  484MOL0     H66784   2.437   3.733   7.127  0.5553 -0.7943  0.1100
  484MOL0     H66785   2.268   3.711   7.151 -0.9455 -0.7361  2.0250
  484MOL0     H66786   2.274   3.934   7.289  1.9841  1.4012  1.7424
  484MOL0     H66787   2.277   3.934   7.115 -4.2819 -0.6692  2.6136
  484MOL0     H66788   2.632   4.145   7.228 -0.9659  0.6979  0.7434
  484MOL0     H66789   2.560   3.520   7.712  2.0786 -1.4852  3.6663
  484MOL0     H66790   2.832   3.495   7.830  0.2157 -0.9233  0.0364
  484MOL0     H66791   2.679   3.432   7.890 -0.5156  2.4681 -0.9578
  484MOL0     H66792   2.810   3.325   7.869  0.7478  0.4218  0.1392
  485MOL0     O66793   4.870   6.310   4.809 -0.1704  0.4723 -0.1306
  485MOL0     C66794   4.937   6.408   4.776 -0.5005  0.1107  0.8838
  485MOL0     O66795   4.911   6.486   4.671  0.0284 -0.9153  0.8286
  485MOL0     C66796   4.785   6.476   4.616  0.4365 -1.0433  0.3823
  485MOL0     C66797   4.751   6.367   4.539 -0.9346  0.2134  0.9416
  485MOL0     C66798   4.619   6.374   4.487  1.1004 -0.5389  0.1493
  485MOL0     C66799   4.530   6.477   4.492  0.5595  0.0808  0.1947
  485MOL0     O66800   4.395   6.464   4.459 -0.2427 -0.1579  0.6193
  485MOL0     C66801   4.333   6.574   4.387  1.3657  0.1472 -0.1064
  485MOL0     C66802   4.213   6.508   4.329  1.1946  0.4564  0.2395
  485MOL0     C66803   4.102   6.492   4.437 -0.2049  0.1318 -1.3118
  485MOL0     C66804   3.973   6.444   4.363  0.2891  0.1582 -0.4529
  485MOL0     C66805   3.855   6.419   4.464 -0.6922 -0.4166  0.0074
  485MOL0     C66806   3.868   6.286   4.547  0.4498 -0.6888  0.3310
  485MOL0     C66807   3.725   6.228   4.589  0.0975  0.0711  0.4400
  485MOL0     C66808   3.738   6.100   4.674  0.8451 -0.4187  0.2979
  485MOL0     N66809   3.612   6.022   4.654 -0.5904 -0.0282  0.1842
  485MOL0     C66810   3.479   6.061   4.655  0.5239 -0.1549 -0.3456
  485MOL0     C66811   3.403   5.962   4.615  0.6930  0.4661  0.0849
  485MOL0     C66812   3.254   5.963   4.603  0.5025 -0.3654  0.0357
  485MOL0     C66813   3.223   5.962   4.450  0.7973 -0.8189  0.0829
  485MOL0     C66814   3.084   6.020   4.407 -0.2768 -0.2886  0.1050
  485MOL0     C66815   2.972   5.933   4.475 -0.5399  1.0216  0.0122
  485MOL0     O66816   2.841   5.995   4.436 -0.1002 -0.6840  0.9819
  485MOL0     C66817   2.718   5.961   4.496 -0.6387  0.0601  0.2012
  485MOL0     C66818   2.706   5.855   4.583 -0.2368 -0.3530 -0.8656
  485MOL0     C66819   2.586   5.831   4.654  0.2022  0.5795  0.1230
  485MOL0     C66820   2.588   5.718   4.761  0.6321 -0.3487 -0.6401
  485MOL0     C66821   2.481   5.929   4.648  0.5617  0.4499  0.0213
  485MOL0     C66822   2.357   5.932   4.727 -0.2841  0.4398 -0.2360
  485MOL0     O66823   2.237   5.940   4.644 -0.2671  1.2833 -0.7735
  485MOL0     C66824   2.131   5.989   4.712 -0.5399 -0.1323 -0.2033
  485MOL0     C66825   2.091   6.118   4.685  0.0529 -0.3331  0.4113
  485MOL0     C66826   1.987   6.176   4.752  0.3599  0.4538 -0.0300
  485MOL0     C66827   1.920   6.103   4.855  0.0948 -0.9554  0.1875
  485MOL0     O66828   1.824   6.171   4.934 -0.3903 -0.0945  0.2289
  485MOL0     C66829   1.726   6.248   4.863 -0.9334 -0.6345 -1.1890
  485MOL0     C66830   1.614   6.150   4.833  0.1047 -0.1764  0.8574
  485MOL0     C66831   1.480   6.221   4.787  0.5630  0.1718 -0.3480
  485MOL0     C66832   1.361   6.130   4.800 -0.6366  0.6810  0.1283
  485MOL0     C66833   1.233   6.200   4.787 -0.3404 -0.1885  0.0813
  485MOL0     C66834   1.115   6.105   4.777  0.8043 -0.5377  0.4977
  485MOL0     C66835   0.985   6.152   4.843 -0.3101 -0.4096 -0.2232
  485MOL0     C66836   0.917   6.266   4.768  0.3124  0.8222 -0.2635
  485MOL0    Cl66837   0.758   6.291   4.837 -0.1217 -0.4814  0.1951
  485MOL0     C66838   1.962   5.981   4.884  0.6241 -0.6499  0.0430
  485MOL0     C66839   2.059   5.914   4.809 -0.5009  0.2014  0.2939
  485MOL0     O66840   2.353   5.925   4.849 -0.0491 -0.0281  0.5225
  485MOL0     C66841   2.492   6.028   4.543  0.4675  0.1421 -1.0391
  485MOL0     C66842   2.610   6.047   4.470  0.1759 -0.5680  0.5327
  485MOL0     N66843   3.492   5.855   4.597  0.6103  0.3590 -0.0023
  485MOL0     N66844   3.609   5.893   4.612 -0.3870  0.4786 -0.3037
  485MOL0     C66845   4.574   6.595   4.551 -0.3860  0.7878 -1.0227
  485MOL0     C66846   4.701   6.593   4.615 -0.6606  0.2582  0.5342
  485MOL0     C66847   5.073   6.414   4.845 -0.1169 -0.2855  1.1004
  485MOL0     C66848   5.117   6.303   4.922  0.3674  0.6053  0.1853
  485MOL0     C66849   5.242   6.293   4.978 -1.0224  0.6194 -0.5842
  485MOL0     C66850   5.330   6.409   4.976  0.4423  0.0807  0.6338
  485MOL0     O66851   5.457   6.416   5.023 -0.2166  0.1356  0.0374
  485MOL0     C66852   5.501   6.302   5.093  0.2865 -0.5421  0.0426
  485MOL0     C66853   5.625   6.340   5.173  0.2357  0.6336  0.2764
  485MOL0     C66854   5.750   6.361   5.092  0.5716  0.3539 -0.7020
  485MOL0     C66855   5.865   6.406   5.185  0.5179 -0.4105 -0.5574
  485MOL0     C66856   5.981   6.396   5.099  1.1498  0.4731 -0.1950
  485MOL0     C66857   6.059   6.353   5.016  0.5188  0.1202  0.1727
  485MOL0     C66858   5.285   6.531   4.914  0.8007 -0.8543  1.1386
  485MOL0     C66859   5.158   6.532   4.844  0.1118  0.4024  0.0127
  485MOL0     C66860   5.119   6.655   4.766  0.7579 -0.2202  0.2226
  485MOL0     H66861   4.807   6.275   4.530  0.3761  1.1332 -1.3554
  485MOL0     H66862   4.577   6.282   4.445 -0.3743 -0.1133  0.6445
  485MOL0     H66863   4.403   6.615   4.313  3.1494  0.9063  1.8784
  485MOL0     H66864   4.307   6.657   4.454 -1.9277 -0.4021 -0.5583
  485MOL0     H66865   4.174   6.585   4.261 -0.3579  0.2555  0.8588
  485MOL0     H66866   4.246   6.416   4.281  1.7941  0.5165  0.5330
  485MOL0     H66867   4.129   6.425   4.518 -0.1015  2.1180  0.3754
  485MOL0     H66868   4.080   6.586   4.488  1.9362  0.2698 -0.5497
  485MOL0     H66869   3.936   6.504   4.280 -2.3815 -1.7991 -0.8238
  485MOL0     H66870   3.990   6.343   4.323 -1.6457  0.3877 -2.0199
  485MOL0     H66871   3.776   6.415   4.389 -0.1921  0.6140 -0.5898
  485MOL0     H66872   3.846   6.497   4.540 -0.1666 -0.7022  0.3729
  485MOL0     H66873   3.924   6.214   4.487  4.2396  2.2752 -0.0728
  485MOL0     H66874   3.913   6.311   4.643 -1.1221  3.3596  0.1955
  485MOL0     H66875   3.679   6.201   4.494  3.8441  0.6657 -1.7639
  485MOL0     H66876   3.676   6.306   4.648 -0.0515  0.0971  0.2814
  485MOL0     H66877   3.821   6.043   4.632 -1.1010 -1.1776 -2.9074
  485MOL0     H66878   3.754   6.127   4.778  1.4695  2.4801 -0.4736
  485MOL0     H66879   3.451   6.164   4.673 -0.7196 -0.4947 -0.2210
  485MOL0     H66880   3.210   6.051   4.651  1.8775 -0.0292  0.7135
  485MOL0     H66881   3.203   5.875   4.644  1.6687 -1.5681 -1.0012
  485MOL0     H66882   3.300   6.022   4.401 -1.4679 -0.3725 -3.2125
  485MOL0     H66883   3.232   5.860   4.412  1.7725 -0.3226 -1.0927
  485MOL0     H66884   3.094   6.116   4.458  0.9431  0.7502 -1.9454
  485MOL0     H66885   3.080   6.041   4.300  4.0807 -0.2702 -0.2478
  485MOL0     H66886   2.982   5.829   4.444  0.7534  1.3824 -0.8297
  485MOL0     H66887   2.992   5.942   4.583  2.4375  0.6373 -0.4332
  485MOL0     H66888   2.792   5.790   4.599 -0.1057 -0.9285 -3.4700
  485MOL0     H66889   2.683   5.664   4.767  0.0711 -1.1610  3.1548
  485MOL0     H66890   2.502   5.653   4.740  0.3811 -1.3424  2.8433
  485MOL0     H66891   2.584   5.758   4.862  2.7197  1.0700 -1.0725
  485MOL0     H66892   2.128   6.168   4.596 -0.5818 -3.1863 -1.5991
  485MOL0     H66893   1.973   6.282   4.734 -2.5308  0.5521  2.1706
  485MOL0     H66894   1.695   6.330   4.929  1.1001 -0.9606  0.2798
  485MOL0     H66895   1.771   6.288   4.771  2.2862 -4.4153 -1.5256
  485MOL0     H66896   1.644   6.080   4.755 -1.6412  1.5738 -1.5454
  485MOL0     H66897   1.597   6.100   4.929  1.3334 -1.4084  0.4634
  485MOL0     H66898   1.489   6.266   4.687  1.1835 -1.5372 -1.0960
  485MOL0     H66899   1.461   6.301   4.859  0.6245 -0.2537  0.1419
  485MOL0     H66900   1.361   6.087   4.901  1.3253 -1.3379 -0.6320
  485MOL0     H66901   1.380   6.051   4.726  0.3712  3.1298 -2.4042
  485MOL0     H66902   1.223   6.266   4.873 -0.1741  1.8928 -1.4272
  485MOL0     H66903   1.232   6.265   4.699 -0.6724 -2.2167 -1.4799
  485MOL0     H66904   1.124   6.005   4.822 -2.8507 -0.1583  2.4032
  485MOL0     H66905   1.093   6.098   4.670 -0.8363  2.0528  0.5839
  485MOL0     H66906   1.008   6.193   4.942  2.3382  1.6730 -1.5741
  485MOL0     H66907   0.908   6.075   4.841 -1.4010  0.6565 -2.4843
  485MOL0     H66908   0.913   6.236   4.663  1.6504  2.1156 -0.7198
  485MOL0     H66909   0.958   6.367   4.756 -0.4439  0.8577 -3.6774
  485MOL0     H66910   1.915   5.933   4.970 -1.3571 -0.6176 -0.9566
  485MOL0     H66911   2.095   5.815   4.834  0.3796 -0.3316 -2.7183
  485MOL0     H66912   2.405   6.085   4.513 -0.5034 -1.7321 -1.9997
  485MOL0     H66913   2.617   6.122   4.391 -1.9740  2.1913  2.7373
  485MOL0     H66914   4.523   6.691   4.552 -0.8521  0.5395 -0.4032
  485MOL0     H66915   4.740   6.676   4.673 -0.8799  0.7092  0.0349
  485MOL0     H66916   5.057   6.212   4.918 -1.4833  1.7543  0.4373
  485MOL0     H66917   5.283   6.202   5.020  1.6769  1.5406 -1.0323
  485MOL0     H66918   5.430   6.274   5.172 -1.5074  1.7721 -0.6358
  485MOL0     H66919   5.525   6.223   5.022 -0.1582  0.5461 -1.3632
  485MOL0     H66920   5.635   6.244   5.224  2.3414 -0.1341 -1.4059
  485MOL0     H66921   5.609   6.423   5.243  1.6369 -0.0848  1.4970
  485MOL0     H66922   5.772   6.267   5.041 -1.9431 -2.1864  2.4557
  485MOL0     H66923   5.725   6.439   5.019 -0.9484 -0.0031 -0.6070
  485MOL0     H66924   5.868   6.346   5.277 -1.3678  2.6596  1.7047
  485MOL0     H66925   5.849   6.512   5.207  0.0830 -0.9041  1.8149
  485MOL0     H66926   6.091   6.316   4.921  0.0642  2.6408 -1.0513
  485MOL0     H66927   5.338   6.625   4.913 -2.4164  1.1157  2.4264
  485MOL0     H66928   5.134   6.643   4.658 -2.1215 -1.4843 -0.1445
  485MOL0     H66929   5.013   6.682   4.767 -0.1963 -3.3340 -1.7671
  485MOL0     H66930   5.183   6.738   4.795  0.2489  1.3553 -2.6937
  486MOL0     O66931   1.961   3.773   8.970  0.3805 -0.1829  0.4033
  486MOL0     C66932   1.995   3.698   9.061  0.3638  0.5277  0.4495
  486MOL0     O66933   2.087   3.597   9.039 -0.1810  0.9202 -0.6342
  486MOL0     C66934   2.199   3.602   8.961 -0.2394 -0.0233 -0.1554
  486MOL0     C66935   2.271   3.486   8.917  0.7852  0.0218  0.6093
  486MOL0     C66936   2.392   3.515   8.836  0.3799  0.3574  0.4881
  486MOL0     C66937   2.447   3.638   8.827  0.1249  0.1665  0.7925
  486MOL0     O66938   2.565   3.632   8.763 -0.6800 -1.0412  0.3242
  486MOL0     C66939   2.645   3.757   8.767  0.4147  0.0121  0.0738
  486MOL0     C66940   2.786   3.719   8.704  0.2775 -0.0021 -0.1425
  486MOL0     C66941   2.881   3.835   8.715  0.7699  0.6935 -0.0065
  486MOL0     C66942   3.013   3.782   8.658 -0.4970 -0.4810  0.5466
  486MOL0     C66943   3.115   3.891   8.624 -0.0513  0.0902  0.3371
  486MOL0     C66944   3.239   3.821   8.583 -0.8513 -0.1904  0.3585
  486MOL0     C66945   3.342   3.920   8.541 -0.2496  0.0198 -0.7360
  486MOL0     C66946   3.418   3.965   8.662 -0.4460  0.2596 -0.7982
  486MOL0     N66947   3.556   3.906   8.672  0.6437  0.0361 -0.7620
  486MOL0     C66948   3.670   3.989   8.645 -0.1914  0.0383  0.3870
  486MOL0     C66949   3.773   3.899   8.656  0.1061 -1.6644 -0.3401
  486MOL0     C66950   3.922   3.926   8.632  1.0080 -0.0823  0.3961
  486MOL0     C66951   3.992   4.002   8.742 -0.3973  0.4236 -0.8145
  486MOL0     C66952   4.133   4.052   8.701  0.0980 -0.4607  0.3160
  486MOL0     C66953   4.170   4.182   8.776  0.2303  0.5046  0.0416
  486MOL0     O66954   4.203   4.152   8.912  0.6820  0.1356 -0.4008
  486MOL0     C66955   4.239   4.239   9.006 -0.0470 -0.7021 -0.9426
  486MOL0     C66956   4.204   4.379   9.003  0.0585  0.0450 -0.0178
  486MOL0     C66957   4.243   4.469   9.101 -0.1218 -0.2965 -0.2565
  486MOL0     C66958   4.202   4.613   9.082 -0.0905  0.0334  0.1226
  486MOL0     C66959   4.338   4.432   9.205 -0.0904  0.2505  0.8115
  486MOL0     C66960   4.400   4.532   9.302 -0.3869 -0.2991 -0.2841
  486MOL0     O66961   4.508   4.492   9.380  0.4980 -0.1547 -0.4897
  486MOL0     C66962   4.602   4.569   9.456 -0.5659  0.2546  0.1072
  486MOL0     C66963   4.670   4.505   9.561  0.3007  0.1611  0.2803
  486MOL0     C66964   4.762   4.559   9.647 -0.2641 -0.1845 -0.2288
  486MOL0     C66965   4.779   4.695   9.638 -0.4463  0.1761 -0.1524
  486MOL0     O66966   4.870   4.751   9.721 -0.5105 -0.1543  0.1642
  486MOL0     C66967   4.902   4.888   9.692  0.5719  0.3018 -0.2246
  486MOL0     C66968   5.040   4.931   9.756 -0.4728  0.6009 -0.6876
  486MOL0     C66969   5.055   5.082   9.736 -0.0730  0.7701  0.6579
  486MOL0     C66970   5.189   5.121   9.800 -0.2359  0.3795 -0.4337
  486MOL0     C66971   5.310   5.100   9.715 -0.2166 -0.2161  0.3704
  486MOL0     C66972   5.433   5.166   9.777 -0.9603  0.2202  0.4908
  486MOL0     C66973   5.424   5.302   9.830 -0.7387 -0.3633 -0.6771
  486MOL0     C66974   5.561   5.361   9.863  0.0590  0.0748 -0.3873
  486MOL0    Cl66975   5.524   5.526   9.936  0.0391  0.1143 -0.0216
  486MOL0     C66976   4.695   4.772   9.543  0.3445  0.1069 -0.4111
  486MOL0     C66977   4.622   4.703   9.444  0.9833 -0.6150 -0.2181
  486MOL0     O66978   4.354   4.648   9.311  0.1296  0.8341 -0.4145
  486MOL0     C66979   4.376   4.292   9.206  0.0882 -0.4872 -0.5658
  486MOL0     C66980   4.318   4.200   9.114  0.3334 -0.0600  0.2520
  486MOL0     N66981   3.726   3.779   8.702 -0.8092  0.3151 -0.2660
  486MOL0     N66982   3.597   3.778   8.702  0.4735  0.7326  0.1780
  486MOL0     C66983   2.372   3.748   8.868 -0.2719 -0.1019 -0.3217
  486MOL0     C66984   2.260   3.727   8.945  0.3419  0.2916  0.6778
  486MOL0     C66985   1.903   3.703   9.175 -1.1136 -0.0066 -0.2927
  486MOL0     C66986   1.819   3.810   9.202  0.8044  0.2871 -0.1569
  486MOL0     C66987   1.708   3.798   9.291 -0.6176 -0.3052 -0.1305
  486MOL0     C66988   1.696   3.690   9.377  0.2564  0.4730 -0.3927
  486MOL0     O66989   1.600   3.697   9.475 -0.3713 -0.6739 -1.1109
  486MOL0     C66990   1.639   3.632   9.603 -0.3248 -0.7245 -0.2074
  486MOL0     C66991   1.542   3.693   9.704  1.0759  0.3489 -0.8911
  486MOL0     C66992   1.602   3.708   9.848 -0.1577 -0.0502  0.1989
  486MOL0     C66993   1.492   3.720   9.954  0.5779  0.1138  0.5906
  486MOL0     C66994   1.525   3.749  10.098 -0.4187 -0.2280 -0.3135
  486MOL0     C66995   1.570   3.765  10.206  0.1467  0.0226 -1.3821
  486MOL0     C66996   1.796   3.579   9.366  0.0725 -0.4962  0.0286
  486MOL0     C66997   1.897   3.583   9.267 -0.8193 -1.2035  0.1720
  486MOL0     C66998   1.979   3.460   9.255 -0.2236  0.3035 -0.2582
  486MOL0     H66999   2.235   3.384   8.927 -0.3494  0.4372  0.9509
  486MOL0     H67000   2.447   3.441   8.778 -1.0137  2.2295 -3.6132
  486MOL0     H67001   2.648   3.796   8.869  2.4523 -2.3843  1.0621
  486MOL0     H67002   2.612   3.835   8.698  0.5694  0.5532  0.6061
  486MOL0     H67003   2.816   3.626   8.754  1.1676  1.4020  2.0998
  486MOL0     H67004   2.774   3.699   8.597  2.7049 -1.9638 -0.1476
  486MOL0     H67005   2.840   3.921   8.662 -4.3700 -1.1100  0.4935
  486MOL0     H67006   2.896   3.852   8.822 -1.0408 -1.1807  0.6033
  486MOL0     H67007   3.070   3.721   8.728  1.9323  1.7497  0.6786
  486MOL0     H67008   2.998   3.727   8.565 -0.7397  1.0506 -0.3625
  486MOL0     H67009   3.130   3.959   8.707  2.7518  2.1551 -1.6780
  486MOL0     H67010   3.075   3.951   8.542  0.8454  0.3419  0.0733
  486MOL0     H67011   3.279   3.755   8.660  2.1008  2.1239  0.9738
  486MOL0     H67012   3.223   3.777   8.484  0.4386  0.8149 -0.3185
  486MOL0     H67013   3.298   4.007   8.492 -0.7283  1.4689  2.0900
  486MOL0     H67014   3.417   3.874   8.475  1.4656  0.0145  1.1347
  486MOL0     H67015   3.427   4.072   8.644 -2.3744  0.0071 -4.0445
  486MOL0     H67016   3.369   3.950   8.758 -0.0539  1.8821 -0.3123
  486MOL0     H67017   3.687   4.091   8.613  1.2371 -0.5545 -0.8698
  486MOL0     H67018   3.936   3.984   8.540 -0.5482 -0.0570  0.1479
  486MOL0     H67019   3.967   3.827   8.622 -1.2379 -1.3401  1.9777
  486MOL0     H67020   3.933   4.086   8.779  0.1999  1.8146 -2.8459
  486MOL0     H67021   4.001   3.929   8.823  0.9167 -0.0786 -1.3972
  486MOL0     H67022   4.211   3.979   8.723  0.8585  0.5788  1.1667
  486MOL0     H67023   4.138   4.067   8.593  0.0919  0.1906  0.4043
  486MOL0     H67024   4.255   4.224   8.721  1.7478 -1.0687  1.1069
  486MOL0     H67025   4.082   4.247   8.764 -2.0173 -2.7454 -4.1656
  486MOL0     H67026   4.121   4.407   8.939 -1.3175 -1.0982  1.1947
  486MOL0     H67027   4.154   4.652   9.173  1.0139  1.4255  0.1563
  486MOL0     H67028   4.135   4.632   8.998  1.4050  4.0981 -0.4019
  486MOL0     H67029   4.290   4.675   9.064  0.9307 -1.3409  0.2382
  486MOL0     H67030   4.649   4.405   9.597  3.8808  0.0422  2.6610
  486MOL0     H67031   4.807   4.511   9.732  0.1524  2.3579  1.0746
  486MOL0     H67032   4.906   4.919   9.588  4.0712 -1.3955 -0.7237
  486MOL0     H67033   4.829   4.957   9.736  3.5061  3.6213 -0.1244
  486MOL0     H67034   5.042   4.905   9.862  1.7710 -1.3326 -1.1157
  486MOL0     H67035   5.122   4.878   9.705 -0.4324  0.7070 -0.7341
  486MOL0     H67036   4.975   5.137   9.787  1.3461  1.9672  1.7192
  486MOL0     H67037   5.054   5.101   9.628 -0.1293 -0.8395  0.3547
  486MOL0     H67038   5.184   5.073   9.899 -0.8119  0.6704 -0.3190
  486MOL0     H67039   5.168   5.228   9.807  0.3772  0.4114  2.3480
  486MOL0     H67040   5.345   4.997   9.703  1.9404  0.3746  1.1406
  486MOL0     H67041   5.287   5.138   9.614  2.0969  2.1863  0.6068
  486MOL0     H67042   5.507   5.166   9.696 -0.5261 -1.2632  0.8571
  486MOL0     H67043   5.471   5.092   9.847  1.6560 -0.3314 -1.3341
  486MOL0     H67044   5.377   5.290   9.929 -0.1992  1.4182 -0.1715
  486MOL0     H67045   5.373   5.375   9.767 -1.7312  1.2063  1.7714
  486MOL0     H67046   5.625   5.377   9.776 -0.2979  2.6023 -0.2595
  486MOL0     H67047   5.607   5.297   9.938  0.9810  3.4239  2.1496
  486MOL0     H67048   4.691   4.880   9.530 -2.2109 -0.0987 -1.9518
  486MOL0     H67049   4.570   4.764   9.371 -0.2335 -0.4714  0.7428
  486MOL0     H67050   4.444   4.263   9.286 -0.5757 -0.8665 -0.1182
  486MOL0     H67051   4.348   4.096   9.114 -1.2058 -0.5516 -0.7008
  486MOL0     H67052   2.407   3.851   8.865 -1.3421  0.2578 -0.8514
  486MOL0     H67053   2.205   3.809   8.990 -0.2405 -0.7670  1.9522
  486MOL0     H67054   1.820   3.900   9.142 -2.8573  0.8008  0.2860
  486MOL0     H67055   1.638   3.880   9.298  1.1362  1.1824  0.8408
  486MOL0     H67056   1.639   3.523   9.596 -1.5266 -0.7030 -0.7071
  486MOL0     H67057   1.740   3.670   9.623 -0.3896 -0.8137  0.2967
  486MOL0     H67058   1.453   3.632   9.720 -0.0742  1.8178 -1.4986
  486MOL0     H67059   1.500   3.788   9.672 -1.5911 -1.0472 -1.8602
  486MOL0     H67060   1.655   3.615   9.872 -0.3019 -1.5534 -4.3919
  486MOL0     H67061   1.678   3.787   9.851 -0.8328  0.7151 -1.4506
  486MOL0     H67062   1.441   3.623   9.950 -1.5710  1.2113 -0.4970
  486MOL0     H67063   1.413   3.788   9.922  0.5725  0.6049  1.6243
  486MOL0     H67064   1.601   3.787  10.306 -0.8179 -1.0914 -0.8172
  486MOL0     H67065   1.784   3.490   9.426 -1.4424 -0.9489 -0.8704
  486MOL0     H67066   1.962   3.387   9.335 -1.2004 -2.1503 -2.5354
  486MOL0     H67067   1.951   3.403   9.166  0.9624 -2.4508  1.0127
  486MOL0     H67068   2.084   3.489   9.259 -0.8504  3.3849 -2.5046
  487MOL0     O67069  10.753   6.943   0.771 -0.3559 -0.2550 -0.1960
  487MOL0     C67070  10.682   6.841   0.749 -0.3590  0.1425  0.2776
  487MOL0     O67071  10.729   6.721   0.699 -0.3227  0.2814 -0.2148
  487MOL0     C67072  10.867   6.707   0.722 -0.1935  0.7408  0.2966
  487MOL0     C67073  10.922   6.682   0.845  0.1847 -1.2309 -0.3473
  487MOL0     C67074  11.062   6.647   0.860 -0.8169 -0.3626 -0.5117
  487MOL0     C67075  11.152   6.654   0.753  1.4250 -0.7937  0.6853
  487MOL0     O67076  11.269   6.608   0.781 -0.2902 -0.0246  0.1431
  487MOL0     C67077  11.383   6.622   0.699  0.4996  0.3505 -0.2647
  487MOL0     C67078  11.492   6.520   0.719  0.5601 -0.8825  0.7142
  487MOL0     C67079  11.571   6.555   0.845 -0.2253  0.2354 -0.0753
  487MOL0     C67080  11.666   6.674   0.825 -0.3547 -0.9693  0.2715
  487MOL0     C67081  11.814   6.646   0.809 -0.1515 -0.9643 -0.0530
  487MOL0     C67082  11.897   6.775   0.788 -0.2927  0.0545  0.1224
  487MOL0     C67083  12.053   6.729   0.783 -0.0346  0.9179 -0.4071
  487MOL0     C67084  12.152   6.833   0.759 -0.5881  0.1464  0.0767
  487MOL0     N67085  12.157   6.924   0.867  0.6136  0.2181 -0.2572
  487MOL0     C67086  12.160   7.060   0.859  0.7368  0.2955 -0.2351
  487MOL0     C67087  12.181   7.108   0.984 -0.2805 -0.0411 -0.8125
  487MOL0     C67088  12.200   7.243   1.034 -0.4058 -0.4708 -0.1129
  487MOL0     C67089  12.351   7.265   1.068  0.5610 -0.0012 -0.1357
  487MOL0     C67090  12.387   7.402   1.118  0.1279 -1.2293  0.4764
  487MOL0     C67091  12.532   7.415   1.166 -0.1716  1.0040  0.6425
  487MOL0     O67092  12.623   7.397   1.053  0.0051 -0.7227  0.0962
  487MOL0     C67093  12.749   7.450   1.082  0.9954  0.8892  0.5078
  487MOL0     C67094  12.808   7.463   1.202  0.3130 -0.3016  0.4846
  487MOL0     C67095  12.938   7.522   1.216  0.4365  0.1298 -1.1803
  487MOL0     C67096  12.983   7.551   1.356  0.3691 -0.7585  0.3165
  487MOL0     C67097  13.026   7.543   1.105  0.0456 -0.0532 -0.0038
  487MOL0     C67098  13.171   7.585   1.128  1.1652  0.2153  0.0570
  487MOL0     O67099  13.250   7.500   1.194  0.1382 -0.3527 -0.6961
  487MOL0     C67100  13.377   7.521   1.236  0.4388  0.0123  0.6832
  487MOL0     C67101  13.472   7.601   1.162  0.1020 -0.3553  0.2506
  487MOL0     C67102  13.601   7.617   1.209 -0.1660  0.2735  0.0481
  487MOL0     C67103  13.640   7.550   1.327  0.1353 -0.9064  0.3668
  487MOL0     O67104  13.761   7.564   1.378  0.0938 -0.2847 -0.1748
  487MOL0     C67105  13.829   7.697   1.367  0.8322  1.2421 -0.0231
  487MOL0     C67106  13.935   7.718   1.476  0.4573 -0.2814 -0.3336
  487MOL0     C67107  14.076   7.665   1.444 -0.6583 -0.7865  0.4067
  487MOL0     C67108  14.162   7.696   1.564  0.4367 -0.0234 -0.1430
  487MOL0     C67109  14.304   7.640   1.559 -0.3912  0.0432  0.3477
  487MOL0     C67110  14.384   7.667   1.689 -0.0954 -0.4590  0.4025
  487MOL0     C67111  14.525   7.617   1.670  0.2048 -0.7109  0.2093
  487MOL0     C67112  14.566   7.544   1.793 -0.8030  0.0648  0.0123
  487MOL0    Cl67113  14.742   7.513   1.778  0.2724  0.0806  0.5439
  487MOL0     C67114  13.553   7.457   1.389 -0.2965 -0.1921  0.1592
  487MOL0     C67115  13.421   7.445   1.345 -0.1952 -0.0417 -0.9956
  487MOL0     O67116  13.209   7.686   1.076  0.2388 -0.1021 -0.3491
  487MOL0     C67117  12.969   7.517   0.978  0.0822  0.1983 -0.4223
  487MOL0     C67118  12.839   7.468   0.969  0.2368  0.0038  0.4660
  487MOL0     N67119  12.193   6.999   1.064  0.0533 -0.7637 -0.6285
  487MOL0     N67120  12.175   6.892   1.000  0.2541  0.3925 -0.5451
  487MOL0     C67121  11.102   6.701   0.628  0.1394  0.5386  0.6255
  487MOL0     C67122  10.959   6.721   0.614  0.0780 -0.7280 -0.5246
  487MOL0     C67123  10.534   6.858   0.768  0.3196 -0.1751 -0.4797
  487MOL0     C67124  10.459   6.745   0.740 -0.0145  0.1346  0.0733
  487MOL0     C67125  10.322   6.733   0.769  0.6648  0.3056 -0.0266
  487MOL0     C67126  10.252   6.844   0.815 -0.0859  0.3710  0.5257
  487MOL0     O67127  10.110   6.833   0.820  0.5672  0.4940 -0.2998
  487MOL0     C67128  10.051   6.788   0.941 -0.1399 -0.1604 -0.4676
  487MOL0     C67129   9.897   6.796   0.909 -0.1484  1.1686 -0.6704
  487MOL0     C67130   9.828   6.781   1.042  0.9716  0.5432 -0.8901
  487MOL0     C67131   9.686   6.710   1.034 -0.8796 -1.0180  0.3812
  487MOL0     C67132   9.597   6.812   0.982 -1.1074  0.5278 -0.6240
  487MOL0     C67133   9.541   6.904   0.933 -0.8861 -0.8302 -0.6603
  487MOL0     C67134  10.321   6.965   0.835  0.0463  0.5242 -0.8999
  487MOL0     C67135  10.463   6.968   0.815  0.1259 -0.5238  0.6332
  487MOL0     C67136  10.535   7.098   0.845  0.2360  0.4656 -0.4488
  487MOL0     H67137  10.854   6.697   0.928 -2.6316  4.6828 -3.1278
  487MOL0     H67138  11.102   6.612   0.955  1.7168 -0.2007 -1.4384
  487MOL0     H67139  11.421   6.722   0.724  0.1277  0.3453  0.3321
  487MOL0     H67140  11.347   6.633   0.596 -2.1140  2.2228  0.7286
  487MOL0     H67141  11.441   6.424   0.728 -0.8629 -0.0816  1.6178
  487MOL0     H67142  11.551   6.527   0.627 -0.9050  1.8641 -0.1273
  487MOL0     H67143  11.501   6.579   0.926  0.8252 -0.3740  1.0476
  487MOL0     H67144  11.634   6.466   0.858  1.4780  1.5683  1.2335
  487MOL0     H67145  11.634   6.740   0.744 -0.1628 -2.3569 -0.9752
  487MOL0     H67146  11.668   6.730   0.919  0.2165  1.9069 -1.3617
  487MOL0     H67147  11.838   6.597   0.715  3.0228 -0.0054  0.1218
  487MOL0     H67148  11.854   6.592   0.896  2.7022 -0.8155 -1.1451
  487MOL0     H67149  11.879   6.831   0.696 -0.4272  0.4317  0.3713
  487MOL0     H67150  11.880   6.832   0.880 -1.4903 -3.6618  2.4012
  487MOL0     H67151  12.068   6.655   0.704  0.6364 -1.2096  1.6007
  487MOL0     H67152  12.076   6.689   0.882  0.6716 -0.9510 -1.2802
  487MOL0     H67153  12.248   6.779   0.749 -1.5565 -1.3858 -1.5832
  487MOL0     H67154  12.128   6.883   0.665  0.0258 -1.4363 -0.9679
  487MOL0     H67155  12.148   7.118   0.768  0.9569  0.5408 -0.1094
  487MOL0     H67156  12.152   7.245   1.133  0.4037  2.3629  0.3065
  487MOL0     H67157  12.160   7.327   0.975  3.6028  1.4582 -0.3947
  487MOL0     H67158  12.386   7.188   1.137  0.4743 -1.7429 -1.9402
  487MOL0     H67159  12.416   7.253   0.981  0.3795  1.3159 -0.4689
  487MOL0     H67160  12.366   7.473   1.038  0.2099 -2.1159 -0.3499
  487MOL0     H67161  12.321   7.431   1.200 -1.2471 -1.6207 -0.4594
  487MOL0     H67162  12.537   7.510   1.219  0.2374  0.4512  1.6238
  487MOL0     H67163  12.557   7.330   1.230 -4.2938 -0.7649  0.2210
  487MOL0     H67164  12.757   7.434   1.293 -1.4428  2.1803  0.3957
  487MOL0     H67165  13.002   7.658   1.362  1.5978 -1.0300  1.7181
  487MOL0     H67166  13.082   7.519   1.388  1.4024  1.2825 -0.6838
  487MOL0     H67167  12.902   7.518   1.423  0.6027 -1.1428  0.4148
  487MOL0     H67168  13.440   7.652   1.071  1.0362  0.4200  0.3454
  487MOL0     H67169  13.668   7.680   1.151  0.1207 -0.1545 -0.0852
  487MOL0     H67170  13.876   7.709   1.269 -2.7484 -0.4476 -2.1560
  487MOL0     H67171  13.763   7.785   1.369 -1.5163 -0.3904 -0.7869
  487MOL0     H67172  13.940   7.823   1.508  0.2310 -0.3248 -0.1426
  487MOL0     H67173  13.908   7.660   1.565  1.9709 -0.4053  0.0672
  487MOL0     H67174  14.129   7.719   1.366 -1.1820 -3.3842 -1.9139
  487MOL0     H67175  14.077   7.556   1.434 -2.6365 -1.0040  1.9591
  487MOL0     H67176  14.122   7.638   1.647  0.3845  0.3288  0.0803
  487MOL0     H67177  14.157   7.802   1.591 -2.1205 -0.0413 -0.2863
  487MOL0     H67178  14.300   7.534   1.534 -1.4503  0.4682 -1.4994
  487MOL0     H67179  14.368   7.680   1.480  1.5667 -4.4460 -0.6530
  487MOL0     H67180  14.342   7.618   1.777  1.8057  0.1204  1.6878
  487MOL0     H67181  14.372   7.773   1.711  0.2145 -0.8165  2.4590
  487MOL0     H67182  14.579   7.710   1.649 -1.0650 -0.3400 -1.6419
  487MOL0     H67183  14.530   7.552   1.583  0.4681  1.3185 -1.3854
  487MOL0     H67184  14.519   7.445   1.791 -0.9083  0.1113 -1.5886
  487MOL0     H67185  14.532   7.594   1.884  0.0971  2.9891 -1.1386
  487MOL0     H67186  13.580   7.394   1.473 -0.1855  2.0321  1.8518
  487MOL0     H67187  13.346   7.399   1.409  0.7268  3.3589  3.0395
  487MOL0     H67188  13.044   7.532   0.902  2.9745  0.6921  2.3196
  487MOL0     H67189  12.801   7.431   0.874  0.8842  0.4871  0.0149
  487MOL0     H67190  11.165   6.698   0.540  0.6925 -1.5710  1.0298
  487MOL0     H67191  10.921   6.759   0.520  1.4787 -2.4857 -1.8811
  487MOL0     H67192  10.496   6.657   0.688  0.7452  0.2348  0.4317
  487MOL0     H67193  10.264   6.644   0.747  0.7882  0.2784 -0.2389
  487MOL0     H67194  10.079   6.683   0.954 -0.6568 -0.7105 -3.2256
  487MOL0     H67195  10.082   6.841   1.032  2.0696 -3.5837  0.9814
  487MOL0     H67196   9.870   6.705   0.854  2.4695  0.5869 -1.1417
  487MOL0     H67197   9.874   6.889   0.856 -0.8134  0.7477 -1.1330
  487MOL0     H67198   9.881   6.722   1.118 -3.1812 -1.2517  0.9583
  487MOL0     H67199   9.820   6.875   1.098  0.3728 -0.2454  0.4018
  487MOL0     H67200   9.661   6.681   1.136  0.1999 -0.8855  0.7004
  487MOL0     H67201   9.684   6.614   0.982 -0.6528 -0.8306  0.0188
  487MOL0     H67202   9.489   6.991   0.899  0.3257 -0.4894 -1.7153
  487MOL0     H67203  10.267   7.057   0.855 -0.7716 -0.2516  0.6457
  487MOL0     H67204  10.570   7.133   0.748 -0.7894 -2.2948 -1.9155
  487MOL0     H67205  10.468   7.177   0.879  0.4874  1.3137 -1.8597
  487MOL0     H67206  10.618   7.083   0.914 -0.9957 -2.0280  0.6502
  488MOL0     O67207   3.315  11.035   2.664 -0.3218 -0.0156 -0.1134
  488MOL0     C67208   3.330  11.143   2.714 -0.0155 -0.4718 -0.1900
  488MOL0     O67209   3.403  11.247   2.655 -0.3792  0.2017 -0.3768
  488MOL0     C67210   3.470  11.239   2.527 -0.4887  0.3810 -0.6860
  488MOL0     C67211   3.436  11.152   2.428  0.3247  0.8591  0.6350
  488MOL0     C67212   3.491  11.148   2.300 -0.1515 -0.5783 -0.3602
  488MOL0     C67213   3.596  11.244   2.280  0.8581  0.1588  1.1849
  488MOL0     O67214   3.647  11.243   2.155 -0.0663 -0.6165  0.2481
  488MOL0     C67215   3.784  11.256   2.141 -0.0278 -0.0491  0.5612
  488MOL0     C67216   3.826  11.218   2.001 -0.3780 -0.6406 -0.0388
  488MOL0     C67217   3.834  11.067   1.965 -0.3177  0.5237 -0.7427
  488MOL0     C67218   3.897  11.020   1.834 -0.1843 -0.0381  0.2602
  488MOL0     C67219   4.046  11.069   1.823  0.9789  0.8015 -0.1324
  488MOL0     C67220   4.118  11.017   1.703 -0.3294  0.1989  0.6009
  488MOL0     C67221   4.268  10.986   1.734 -0.6128  0.1760 -0.0903
  488MOL0     C67222   4.337  11.123   1.759 -0.0728  0.0683  0.1626
  488MOL0     N67223   4.297  11.231   1.666  0.4671 -0.5743  1.2845
  488MOL0     C67224   4.324  11.243   1.522 -0.1150  0.1026 -0.9057
  488MOL0     C67225   4.293  11.362   1.490  0.4347 -0.1732 -0.4514
  488MOL0     C67226   4.335  11.444   1.372  0.3786  0.3042 -0.4080
  488MOL0     C67227   4.482  11.430   1.351  0.8474 -0.1610 -0.2959
  488MOL0     C67228   4.541  11.545   1.423  0.0529 -0.0072  0.0672
  488MOL0     C67229   4.699  11.543   1.418  0.7785 -0.2301  0.7172
  488MOL0     O67230   4.757  11.608   1.298  0.1633  0.1916 -0.3304
  488MOL0     C67231   4.890  11.627   1.305 -0.2605  0.0780  0.4298
  488MOL0     C67232   4.983  11.524   1.340 -0.2729 -0.0972  0.8538
  488MOL0     C67233   5.123  11.544   1.347 -0.0385 -0.5773 -0.1026
  488MOL0     C67234   5.216  11.434   1.377  1.0400  1.6986  0.7954
  488MOL0     C67235   5.171  11.679   1.332  0.9620 -0.0405  0.2200
  488MOL0     C67236   5.313  11.709   1.335  0.6111  0.4621  0.2777
  488MOL0     O67237   5.353  11.796   1.431  0.0815 -1.2022  0.7083
  488MOL0     C67238   5.488  11.823   1.429 -0.1993  0.2315  0.0392
  488MOL0     C67239   5.548  11.911   1.343  0.6550 -0.5469 -0.3674
  488MOL0     C67240   5.689  11.932   1.337 -0.5205  0.8965 -0.1555
  488MOL0     C67241   5.770  11.867   1.432 -0.1071 -0.4066 -0.0382
  488MOL0     O67242   5.910  11.888   1.433  0.1521 -0.8122  0.0212
  488MOL0     C67243   5.997  11.792   1.500 -0.4755 -0.7671  0.1705
  488MOL0     C67244   6.133  11.773   1.427  0.6182  0.0205 -0.6054
  488MOL0     C67245   6.099  11.741   1.280  0.2730 -0.3657 -0.1538
  488MOL0     C67246   6.236  11.708   1.223  0.4097 -0.5614  0.1336
  488MOL0     C67247   6.212  11.678   1.074 -0.0223  0.8948 -0.3281
  488MOL0     C67248   6.348  11.658   0.997  0.0728  0.0571  0.0996
  488MOL0     C67249   6.431  11.786   0.980 -0.1982 -0.8326  0.7255
  488MOL0     C67250   6.492  11.809   0.842 -0.0073 -0.7797 -0.0200
  488MOL0    Cl67251   6.608  11.686   0.820  0.2116  0.3606  0.2212
  488MOL0     C67252   5.705  11.789   1.525 -0.0449  0.8323  0.6819
  488MOL0     C67253   5.564  11.769   1.528  0.7611  0.4604 -0.2930
  488MOL0     O67254   5.387  11.645   1.258 -0.0326  0.0108  0.3352
  488MOL0     C67255   5.075  11.778   1.295 -0.7035  0.9041 -0.3045
  488MOL0     C67256   4.940  11.751   1.288 -0.7007 -0.0785 -0.0474
  488MOL0     N67257   4.254  11.427   1.610 -0.3458 -0.5675 -0.4766
  488MOL0     N67258   4.254  11.351   1.712  0.2403 -0.1341 -0.2589
  488MOL0     C67259   3.630  11.346   2.375  0.3790 -0.1219 -0.0904
  488MOL0     C67260   3.565  11.339   2.500  0.2543 -0.4641 -0.0755
  488MOL0     C67261   3.255  11.160   2.838  0.3477 -0.7111 -0.6998
  488MOL0     C67262   3.163  11.050   2.871 -0.1749 -0.1441  0.1302
  488MOL0     C67263   3.085  11.056   2.983 -0.3877  0.1585  0.7779
  488MOL0     C67264   3.092  11.162   3.070  0.0904  0.0800 -0.8052
  488MOL0     O67265   3.008  11.147   3.177 -0.0345  0.3861  0.7476
  488MOL0     C67266   2.979  11.258   3.249 -0.6474 -0.7723 -0.5694
  488MOL0     C67267   3.082  11.283   3.352 -0.3819 -0.3514 -0.0753
  488MOL0     C67268   3.032  11.356   3.484 -0.8204 -0.2128  0.8019
  488MOL0     C67269   2.912  11.295   3.561  0.0379  0.4762 -0.1032
  488MOL0     C67270   2.942  11.167   3.627 -0.1241 -0.6385  0.1744
  488MOL0     C67271   2.953  11.050   3.662 -0.3570  0.4045 -0.5090
  488MOL0     C67272   3.165  11.276   3.031  0.1446 -0.0260 -0.1033
  488MOL0     C67273   3.254  11.273   2.924  0.1158  0.3722  0.8710
  488MOL0     C67274   3.311  11.404   2.882  0.4233 -0.5452 -0.1804
  488MOL0     H67275   3.358  11.079   2.450  1.2785  0.0019  1.2638
  488MOL0     H67276   3.465  11.080   2.220 -3.8838 -0.3628  0.5148
  488MOL0     H67277   3.841  11.184   2.202 -1.8981 -1.7921  0.3591
  488MOL0     H67278   3.817  11.356   2.168  1.7443 -0.1464 -1.0456
  488MOL0     H67279   3.757  11.270   1.935 -0.4065  0.5950  0.9286
  488MOL0     H67280   3.922  11.267   1.987 -1.5803  1.5631 -1.1478
  488MOL0     H67281   3.899  11.023   2.041  0.1194  1.1280 -0.7577
  488MOL0     H67282   3.731  11.028   1.963  0.6894 -2.3656 -3.0230
  488MOL0     H67283   3.904  10.911   1.828  0.5991  0.0728 -1.4860
  488MOL0     H67284   3.839  11.060   1.751 -1.1656  1.5135  1.6289
  488MOL0     H67285   4.097  11.038   1.915  0.2181  0.2743  0.1288
  488MOL0     H67286   4.042  11.178   1.817 -1.2868  0.7229 -0.9621
  488MOL0     H67287   4.067  10.927   1.668 -3.0613  2.0067 -0.4670
  488MOL0     H67288   4.105  11.081   1.615  2.5803 -0.7536 -0.6473
  488MOL0     H67289   4.315  10.948   1.643  1.4295  0.7600  0.6606
  488MOL0     H67290   4.268  10.903   1.805  2.9682  0.5943  0.6279
  488MOL0     H67291   4.314  11.152   1.862  3.9318  0.9088  0.9794
  488MOL0     H67292   4.446  11.113   1.756 -0.1939 -1.5465  0.4023
  488MOL0     H67293   4.374  11.168   1.460 -0.9927 -1.9157  0.7022
  488MOL0     H67294   4.304  11.549   1.381 -1.3498  0.2776 -4.2181
  488MOL0     H67295   4.278  11.430   1.280  0.9956  2.3347 -1.1462
  488MOL0     H67296   4.520  11.331   1.376  1.3966 -1.2212 -4.5552
  488MOL0     H67297   4.501  11.451   1.245  1.8805  0.6853  0.0363
  488MOL0     H67298   4.504  11.639   1.382 -1.1316 -0.2210  0.5871
  488MOL0     H67299   4.504  11.533   1.526 -2.3965  1.5560 -0.5637
  488MOL0     H67300   4.726  11.618   1.494  0.5579  2.9846 -2.1248
  488MOL0     H67301   4.734  11.444   1.445  2.1432  0.7216  2.7041
  488MOL0     H67302   4.947  11.422   1.350 -0.9018 -0.3461 -2.5568
  488MOL0     H67303   5.158  11.342   1.364  1.5781  1.7198 -2.5783
  488MOL0     H67304   5.257  11.442   1.478  0.9348  0.8336  0.9109
  488MOL0     H67305   5.296  11.430   1.302 -1.0112  0.4842 -1.4869
  488MOL0     H67306   5.481  11.964   1.276 -0.2645 -1.5609 -0.2812
  488MOL0     H67307   5.735  12.010   1.277 -0.3576  0.3159 -0.7917
  488MOL0     H67308   6.026  11.832   1.598  2.2614  1.1862 -1.3081
  488MOL0     H67309   5.950  11.694   1.509 -1.0834 -0.6092 -1.0624
  488MOL0     H67310   6.202  11.856   1.446  0.4860 -0.2509  1.2232
  488MOL0     H67311   6.174  11.677   1.459 -1.7056 -0.4217  1.3856
  488MOL0     H67312   6.062  11.828   1.225  1.5102 -0.3466 -1.0122
  488MOL0     H67313   6.028  11.659   1.266 -1.1608  0.9516 -0.9046
  488MOL0     H67314   6.271  11.617   1.273 -2.7388 -2.0388 -0.0895
  488MOL0     H67315   6.308  11.789   1.235 -0.1998 -0.1254  0.8331
  488MOL0     H67316   6.161  11.581   1.078  0.9138  0.4295  2.8157
  488MOL0     H67317   6.144  11.751   1.029 -3.6643 -0.2924  2.6732
  488MOL0     H67318   6.327  11.615   0.899  1.0628 -2.3700  0.8687
  488MOL0     H67319   6.411  11.590   1.056 -2.0564  0.1193  2.6500
  488MOL0     H67320   6.508  11.799   1.056 -0.4210  1.7179  0.5955
  488MOL0     H67321   6.366  11.872   0.999  1.0182 -0.2267  2.3710
  488MOL0     H67322   6.528  11.912   0.834 -2.3025 -0.0034 -1.5433
  488MOL0     H67323   6.420  11.805   0.760 -0.9576 -2.8715  0.8419
  488MOL0     H67324   5.774  11.738   1.593  2.2774  0.5930 -1.7114
  488MOL0     H67325   5.518  11.698   1.596  0.8579 -0.8084 -1.5060
  488MOL0     H67326   5.112  11.877   1.271  0.3120  0.2704 -1.4214
  488MOL0     H67327   4.872  11.831   1.259  0.6261  1.2018  0.2770
  488MOL0     H67328   3.701  11.427   2.358 -0.9833  1.0501 -0.3870
  488MOL0     H67329   3.585  11.409   2.580 -3.1398  1.1612 -0.4715
  488MOL0     H67330   3.149  10.965   2.805  2.6074 -0.5473 -0.0363
  488MOL0     H67331   3.025  10.967   2.997  0.2171 -0.4446 -0.2881
  488MOL0     H67332   2.961  11.350   3.193 -2.1527 -0.0967  0.9225
  488MOL0     H67333   2.886  11.240   3.304  1.2559 -2.8020  2.2499
  488MOL0     H67334   3.164  11.339   3.306  0.2558 -1.7879 -0.7162
  488MOL0     H67335   3.123  11.189   3.390 -2.6980 -2.1865 -1.8333
  488MOL0     H67336   3.118  11.372   3.549 -0.3935 -2.0770  0.7709
  488MOL0     H67337   3.001  11.458   3.462 -0.3397  0.1488  1.7818
  488MOL0     H67338   2.828  11.294   3.491  0.7671  2.3504 -1.0780
  488MOL0     H67339   2.880  11.362   3.642 -2.2291 -2.5564  1.7300
  488MOL0     H67340   2.956  10.951   3.704  0.4195  0.0062 -1.4604
  488MOL0     H67341   3.157  11.372   3.081  0.8104  0.3757 -0.7490
  488MOL0     H67342   3.327  11.465   2.971  2.5570 -1.6341  0.2431
  488MOL0     H67343   3.415  11.402   2.849  0.7220  0.5830  0.6563
  488MOL0     H67344   3.256  11.451   2.799  0.0384  0.4145  0.6046
  489MOL0     O67345   9.662   5.349   6.021 -0.3556  0.2135 -0.1002
  489MOL0     C67346   9.575   5.260   6.006 -0.6032 -0.0235  0.1520
  489MOL0     O67347   9.599   5.126   5.983 -0.2060  0.3024 -0.4594
  489MOL0     C67348   9.718   5.071   6.010  0.5735  0.4097 -0.7253
  489MOL0     C67349   9.837   5.119   5.951 -0.8067 -0.6262 -0.6035
  489MOL0     C67350   9.963   5.081   6.006  0.4458  0.0993 -0.0311
  489MOL0     C67351   9.966   4.993   6.114  0.3192 -0.6742 -0.5821
  489MOL0     O67352  10.076   4.980   6.193 -0.1967 -0.0466 -0.2630
  489MOL0     C67353  10.183   5.074   6.180 -0.4441 -0.4995 -0.7297
  489MOL0     C67354  10.295   5.030   6.269  0.6358  0.6655  0.0283
  489MOL0     C67355  10.425   5.108   6.260  0.2082  0.0974  0.8906
  489MOL0     C67356  10.540   5.044   6.349 -0.0647 -0.1111 -0.3770
  489MOL0     C67357  10.678   5.062   6.295  0.5568  0.7845  0.7291
  489MOL0     C67358  10.732   5.200   6.351 -0.3728 -0.7699  0.2767
  489MOL0     C67359  10.890   5.228   6.323  0.0882  0.3374  0.4689
  489MOL0     C67360  10.939   5.329   6.423  1.1963  0.0431 -0.0870
  489MOL0     N67361  11.070   5.371   6.379 -0.1013 -0.8030 -0.4396
  489MOL0     C67362  11.113   5.505   6.380 -0.1977 -0.3786 -0.2196
  489MOL0     C67363  11.236   5.490   6.321 -0.2276  0.5457 -0.5908
  489MOL0     C67364  11.330   5.596   6.287 -0.2680 -0.7118 -0.3492
  489MOL0     C67365  11.406   5.656   6.413  0.1938  0.5762 -0.8358
  489MOL0     C67366  11.494   5.770   6.377  0.6879  0.3580  0.1097
  489MOL0     C67367  11.535   5.841   6.505 -0.0960  0.6489 -0.0839
  489MOL0     O67368  11.620   5.946   6.476 -0.2941 -0.8007 -0.0625
  489MOL0     C67369  11.753   5.921   6.465  0.3667 -0.0933  0.6161
  489MOL0     C67370  11.819   5.891   6.583 -1.0016  0.2629 -0.7945
  489MOL0     C67371  11.963   5.862   6.570  0.9083 -0.7320 -0.6526
  489MOL0     C67372  12.035   5.828   6.689  0.0858 -0.4509  0.0910
  489MOL0     C67373  12.032   5.869   6.447 -0.0325  0.0906 -0.8991
  489MOL0     C67374  12.181   5.868   6.434  0.7834 -0.1429 -0.7533
  489MOL0     O67375  12.228   5.871   6.301  0.9224 -1.3661 -0.4222
  489MOL0     C67376  12.361   5.872   6.283  0.2017  0.0634  0.6052
  489MOL0     C67377  12.446   5.976   6.320 -0.1570  0.2338 -0.9060
  489MOL0     C67378  12.582   5.976   6.282  1.3186  0.1275  0.2908
  489MOL0     C67379  12.637   5.867   6.212 -0.4424 -0.6422  0.1369
  489MOL0     O67380  12.770   5.879   6.173 -0.3190 -0.6959  0.1299
  489MOL0     C67381  12.844   5.756   6.154 -0.5629 -0.3614  0.4609
  489MOL0     C67382  12.987   5.810   6.158  0.0341  0.1030  0.3653
  489MOL0     C67383  13.086   5.694   6.132 -0.5362 -0.5584  0.2560
  489MOL0     C67384  13.234   5.738   6.142 -0.5991 -0.2158  1.0362
  489MOL0     C67385  13.325   5.620   6.165 -0.4954  0.8650  0.8891
  489MOL0     C67386  13.467   5.636   6.128 -0.2461 -0.3242  0.8368
  489MOL0     C67387  13.560   5.516   6.159  0.1205 -0.4793  0.4910
  489MOL0     C67388  13.711   5.536   6.117 -0.0137  0.0124 -0.8154
  489MOL0    Cl67389  13.730   5.574   5.944  0.5154 -0.0203 -0.0955
  489MOL0     C67390  12.551   5.775   6.163  1.3440  0.3990  1.2938
  489MOL0     C67391  12.416   5.782   6.195  0.6232 -0.5210 -0.1540
  489MOL0     O67392  12.260   5.881   6.531  0.2767 -0.6385  0.6610
  489MOL0     C67393  11.953   5.906   6.333  0.0953  0.4970  0.9320
  489MOL0     C67394  11.816   5.930   6.342 -0.7155  0.3728 -0.0415
  489MOL0     N67395  11.274   5.361   6.318 -0.0334 -0.2476  0.1795
  489MOL0     N67396  11.174   5.290   6.363  0.2635  0.1925 -0.2536
  489MOL0     C67397   9.847   4.933   6.156  0.2168  0.0941 -0.1800
  489MOL0     C67398   9.723   4.976   6.104  0.6504 -1.0575 -0.3305
  489MOL0     C67399   9.429   5.302   6.000  0.2046 -0.7653  0.3942
  489MOL0     C67400   9.340   5.201   5.959 -0.4323  0.1000  0.2476
  489MOL0     C67401   9.197   5.231   5.942  0.6349  0.1654 -0.3427
  489MOL0     C67402   9.152   5.358   5.974  0.7824 -1.4659  0.1602
  489MOL0     O67403   9.018   5.404   5.995 -0.3978 -0.2396 -0.1029
  489MOL0     C67404   8.912   5.326   5.942  0.0519  0.3192 -0.1984
  489MOL0     C67405   8.871   5.206   6.020  0.3829 -0.1757 -0.2461
  489MOL0     C67406   8.920   5.205   6.170 -0.0095  0.0948 -0.8546
  489MOL0     C67407   8.885   5.078   6.246  0.7927 -0.3364  0.1993
  489MOL0     C67408   8.739   5.053   6.258 -0.3298 -0.3249  0.5371
  489MOL0     C67409   8.619   5.031   6.255  0.8147 -0.0356 -0.2909
  489MOL0     C67410   9.239   5.455   6.019  0.2587 -0.8375  0.7674
  489MOL0     C67411   9.376   5.428   6.024  0.7169  0.3704 -0.9974
  489MOL0     C67412   9.458   5.543   6.070  0.2551 -1.0547 -0.2154
  489MOL0     H67413   9.833   5.192   5.872 -3.5701  1.9286  1.6542
  489MOL0     H67414  10.052   5.133   5.970  0.4451  0.3332  0.2931
  489MOL0     H67415  10.145   5.165   6.227  0.6768  0.2478 -1.2204
  489MOL0     H67416  10.211   5.097   6.077 -1.5009  2.7375 -0.3944
  489MOL0     H67417  10.269   5.034   6.375  3.3254 -3.0767  1.0388
  489MOL0     H67418  10.314   4.923   6.252 -1.1872 -0.0612  2.1228
  489MOL0     H67419  10.462   5.109   6.157  1.0622 -1.7037  1.1361
  489MOL0     H67420  10.409   5.209   6.297  0.4551  0.4573  0.0369
  489MOL0     H67421  10.528   5.074   6.454 -0.7403  1.1611 -0.7942
  489MOL0     H67422  10.535   4.935   6.355 -1.0972 -0.1286 -1.2135
  489MOL0     H67423  10.681   5.052   6.186  1.4346  2.0020  0.6124
  489MOL0     H67424  10.746   4.985   6.333 -0.2388 -1.0871 -1.4828
  489MOL0     H67425  10.667   5.281   6.319  0.8130 -0.1317 -0.5910
  489MOL0     H67426  10.716   5.203   6.459 -0.6891  2.0421  0.2272
  489MOL0     H67427  10.906   5.260   6.220  1.0813 -2.1886 -0.2457
  489MOL0     H67428  10.942   5.131   6.321  0.3853  0.4834 -2.0220
  489MOL0     H67429  10.869   5.413   6.423  0.5472 -0.3807  2.7985
  489MOL0     H67430  10.943   5.284   6.523  2.4785 -0.1746 -0.2300
  489MOL0     H67431  11.054   5.592   6.406  0.7782  0.4656 -0.7453
  489MOL0     H67432  11.270   5.677   6.245  0.6164  2.0681  3.2466
  489MOL0     H67433  11.392   5.557   6.205  0.5142 -0.9013  0.3219
  489MOL0     H67434  11.328   5.675   6.487 -0.8748  1.4653 -2.1336
  489MOL0     H67435  11.471   5.578   6.454  2.5488  2.4080 -0.9112
  489MOL0     H67436  11.578   5.727   6.322 -0.6490  0.7586 -2.3725
  489MOL0     H67437  11.447   5.840   6.307 -0.1110 -0.8869 -0.6355
  489MOL0     H67438  11.450   5.874   6.565 -1.4710 -2.3001 -0.2227
  489MOL0     H67439  11.579   5.768   6.574 -1.6745 -0.0739  0.1961
  489MOL0     H67440  11.768   5.900   6.679 -2.1480  2.3532 -1.5474
  489MOL0     H67441  11.967   5.814   6.774 -1.6364 -0.4483 -1.2383
  489MOL0     H67442  12.105   5.904   6.724 -1.2595  0.9017 -0.0688
  489MOL0     H67443  12.091   5.736   6.671 -3.3633 -2.7653  0.2131
  489MOL0     H67444  12.407   6.044   6.395 -0.3330 -1.7675  0.9058
  489MOL0     H67445  12.658   6.049   6.304 -0.3854  1.6444  1.4068
  489MOL0     H67446  12.847   5.686   6.239  1.1019  0.0458  0.7714
  489MOL0     H67447  12.820   5.706   6.061  0.7679  0.3856 -0.3121
  489MOL0     H67448  13.005   5.876   6.072  1.3599 -0.7816 -0.0817
  489MOL0     H67449  12.999   5.860   6.254 -2.9153  1.8233 -0.0540
  489MOL0     H67450  13.095   5.667   6.026  1.8644  1.3272 -0.1270
  489MOL0     H67451  13.070   5.605   6.193  0.7480  0.5884  2.4125
  489MOL0     H67452  13.249   5.813   6.220 -0.7660  1.4641 -0.4833
  489MOL0     H67453  13.265   5.797   6.055 -0.7487  1.1139  1.8579
  489MOL0     H67454  13.318   5.598   6.272  1.0010 -0.6656  0.7239
  489MOL0     H67455  13.288   5.532   6.112  0.6516  1.2365 -0.5984
  489MOL0     H67456  13.510   5.714   6.191  1.2045 -1.0889  0.8331
  489MOL0     H67457  13.485   5.655   6.022  0.1742 -0.8265  0.8142
  489MOL0     H67458  13.513   5.425   6.121  0.3582 -0.8485  1.0662
  489MOL0     H67459  13.554   5.490   6.265 -1.4512  0.7446  0.7412
  489MOL0     H67460  13.765   5.441   6.130  0.9706  0.7563  0.7834
  489MOL0     H67461  13.761   5.614   6.175 -1.8610 -1.0848  2.4813
  489MOL0     H67462  12.594   5.693   6.106  1.1403  0.7509  0.6256
  489MOL0     H67463  12.357   5.704   6.148 -0.1413 -0.4454  0.6550
  489MOL0     H67464  11.996   5.906   6.233 -0.0717 -1.5311  0.8068
  489MOL0     H67465  11.769   5.952   6.247 -0.0328  0.8634 -0.2772
  489MOL0     H67466   9.846   4.868   6.243 -3.8683  0.3639  0.2062
  489MOL0     H67467   9.641   4.938   6.165  1.6247 -3.0953 -0.1858
  489MOL0     H67468   9.367   5.099   5.933  0.5757  0.1935  0.8800
  489MOL0     H67469   9.132   5.152   5.908  0.1100  0.6429 -0.4655
  489MOL0     H67470   8.829   5.396   5.925  2.5191  3.4748 -0.1541
  489MOL0     H67471   8.943   5.277   5.849  1.3075 -1.1206  0.9250
  489MOL0     H67472   8.881   5.120   5.953 -2.6595 -0.6829 -0.2161
  489MOL0     H67473   8.762   5.215   6.032  0.5985 -1.2458  3.8815
  489MOL0     H67474   9.029   5.203   6.161  0.2519 -0.0827  1.7532
  489MOL0     H67475   8.883   5.294   6.221 -0.4302  0.6784 -2.1329
  489MOL0     H67476   8.918   5.081   6.350 -2.2201  2.4781  1.2454
  489MOL0     H67477   8.928   4.988   6.203 -0.4771 -2.3258  2.7922
  489MOL0     H67478   8.513   5.022   6.247  0.7473  1.0625 -0.7427
  489MOL0     H67479   9.198   5.552   6.045  1.2119 -0.3138  0.3729
  489MOL0     H67480   9.470   5.607   5.982  1.0280  1.7101  1.7593
  489MOL0     H67481   9.401   5.601   6.143  0.9731  1.2145 -1.3544
  489MOL0     H67482   9.554   5.523   6.119 -0.0282 -2.1458 -0.0689
  490MOL0     O67483   1.497   7.154  11.399 -0.4982  0.2118 -0.6925
  490MOL0     C67484   1.398   7.162  11.477  0.3007 -0.6019 -0.5636
  490MOL0     O67485   1.397   7.133  11.616  0.7241 -0.0056  0.0543
  490MOL0     C67486   1.508   7.079  11.669  0.2200  0.9876  0.5156
  490MOL0     C67487   1.556   7.155  11.773  0.7551 -0.3224  0.0815
  490MOL0     C67488   1.679   7.123  11.825  0.6325 -0.2973 -0.5843
  490MOL0     C67489   1.744   7.008  11.781 -0.9867 -0.0428 -1.0234
  490MOL0     O67490   1.870   6.973  11.830  0.7542 -0.1456  0.2537
  490MOL0     C67491   1.889   6.839  11.880  0.6578  0.4656  0.1305
  490MOL0     C67492   1.968   6.835  12.006 -1.1273 -0.6229 -0.7256
  490MOL0     C67493   1.983   6.700  12.086 -0.8170 -0.1892  0.2656
  490MOL0     C67494   2.068   6.728  12.209 -0.4771 -0.3202 -0.1949
  490MOL0     C67495   2.111   6.603  12.269 -0.4411 -0.7990  0.1981
  490MOL0     C67496   1.987   6.525  12.314 -0.3219  0.4006 -0.6257
  490MOL0     C67497   2.039   6.405  12.400  0.5270  0.3208 -0.6657
  490MOL0     C67498   1.912   6.337  12.468  0.6716 -0.3252 -0.1337
  490MOL0     N67499   1.837   6.277  12.352  0.4069  0.2982  0.3945
  490MOL0     C67500   1.855   6.153  12.302  0.1764  0.6633 -0.5622
  490MOL0     C67501   1.759   6.133  12.208 -0.0552 -0.5447  1.0062
  490MOL0     C67502   1.735   6.028  12.110  0.6321 -0.0342 -0.3821
  490MOL0     C67503   1.859   5.965  12.044 -0.1645  0.3998  0.1839
  490MOL0     C67504   1.889   6.011  11.911  0.3148  0.7352 -0.0275
  490MOL0     C67505   2.028   5.969  11.863  0.7794  0.8627 -0.1688
  490MOL0     O67506   2.017   5.833  11.816 -0.0875  0.1108  0.7129
  490MOL0     C67507   2.114   5.796  11.729  0.0114 -0.9348  0.0126
  490MOL0     C67508   2.245   5.788  11.772  0.2400  0.9202 -0.6701
  490MOL0     C67509   2.344   5.764  11.681  0.6209 -0.9347  1.2861
  490MOL0     C67510   2.480   5.740  11.732 -0.0661  0.5280 -0.0800
  490MOL0     C67511   2.318   5.755  11.541 -0.4724  0.1769 -1.4274
  490MOL0     C67512   2.416   5.728  11.434 -0.1257 -0.3635 -0.0855
  490MOL0     O67513   2.367   5.659  11.326 -0.1539  0.3398  0.0245
  490MOL0     C67514   2.443   5.615  11.225 -1.2232 -0.5108 -0.1500
  490MOL0     C67515   2.453   5.477  11.215 -0.6810  0.1853 -0.2750
  490MOL0     C67516   2.525   5.420  11.113 -0.3352 -0.0718  0.4760
  490MOL0     C67517   2.583   5.493  11.016  0.8968 -0.1196  0.2187
  490MOL0     O67518   2.655   5.449  10.906  0.3578  0.4875  0.4762
  490MOL0     C67519   2.678   5.303  10.899  0.8523 -0.3335 -0.4793
  490MOL0     C67520   2.784   5.270  10.807  0.1403  0.3771  0.0838
  490MOL0     C67521   2.750   5.307  10.657 -1.2506  0.4283  0.6424
  490MOL0     C67522   2.648   5.211  10.594  0.1143 -0.4162  0.2418
  490MOL0     C67523   2.656   5.235  10.431  0.4312  0.0043 -0.6296
  490MOL0     C67524   2.551   5.144  10.360 -0.2563  0.1783  0.1302
  490MOL0     C67525   2.505   5.190  10.220  0.2791  0.6055 -0.2518
  490MOL0     C67526   2.418   5.090  10.140 -0.3681 -0.2567 -0.2716
  490MOL0    Cl67527   2.514   4.946  10.093 -0.2336  0.0597  0.0687
  490MOL0     C67528   2.570   5.628  11.027  0.1412  0.5058 -0.3830
  490MOL0     C67529   2.499   5.690  11.127 -0.2990 -0.0526  0.1007
  490MOL0     O67530   2.529   5.762  11.443 -0.1396  0.1458  0.2097
  490MOL0     C67531   2.185   5.764  11.498 -0.8026 -0.6241 -0.0132
  490MOL0     C67532   2.086   5.783  11.590 -0.1677  0.5718  0.5979
  490MOL0     N67533   1.659   6.236  12.220 -0.3822  0.5225 -0.5539
  490MOL0     N67534   1.711   6.314  12.307 -0.1666  0.0176 -0.4927
  490MOL0     C67535   1.696   6.923  11.693  0.5661 -0.8056  0.3898
  490MOL0     C67536   1.570   6.956  11.630 -0.1184 -0.8199 -0.8020
  490MOL0     C67537   1.264   7.210  11.422 -0.4328  0.0878 -0.7006
  490MOL0     C67538   1.152   7.175  11.495  0.2426  0.4252 -0.0723
  490MOL0     C67539   1.024   7.216  11.457 -0.6424 -0.0575  0.5319
  490MOL0     C67540   1.005   7.272  11.326 -0.6737 -0.1248 -0.7645
  490MOL0     O67541   0.888   7.328  11.277 -0.7549  0.7343 -0.4810
  490MOL0     C67542   0.765   7.311  11.349 -1.6548 -0.0303 -0.2684
  490MOL0     C67543   0.707   7.176  11.327 -1.0429 -0.0786 -0.5793
  490MOL0     C67544   0.644   7.161  11.195  0.2663 -0.4633 -0.4641
  490MOL0     C67545   0.566   7.036  11.165  0.3788  0.4956 -0.0284
  490MOL0     C67546   0.650   6.921  11.197 -0.6212  0.4610 -0.6228
  490MOL0     C67547   0.731   6.831  11.209  1.3993 -0.1351  1.6042
  490MOL0     C67548   1.116   7.307  11.248 -0.7174 -0.4684 -0.8850
  490MOL0     C67549   1.243   7.279  11.305 -0.9142 -0.4248  0.3144
  490MOL0     C67550   1.372   7.326  11.228  0.8704  0.0489 -0.3068
  490MOL0     H67551   1.511   7.252  11.792 -1.3359 -0.8592 -1.6662
  490MOL0     H67552   1.720   7.178  11.909 -1.0633  0.3251 -0.1383
  490MOL0     H67553   1.937   6.784  11.799 -0.5915  1.0021 -1.0152
  490MOL0     H67554   1.796   6.786  11.904 -1.2463  4.0114  1.3766
  490MOL0     H67555   2.069   6.865  11.979 -0.9599  0.5923  1.0692
  490MOL0     H67556   1.934   6.919  12.067  4.6611  1.1953  0.5503
  490MOL0     H67557   1.885   6.657  12.108 -0.0208 -2.4677 -0.3388
  490MOL0     H67558   2.036   6.623  12.028  2.3257  1.6675  0.4503
  490MOL0     H67559   2.164   6.775  12.186 -0.3407  0.1182  1.1493
  490MOL0     H67560   2.021   6.795  12.281 -0.6933  1.6887 -2.0952
  490MOL0     H67561   2.175   6.617  12.356  1.2303 -0.3277 -1.0639
  490MOL0     H67562   2.162   6.554  12.186 -0.2230 -1.4715  0.7221
  490MOL0     H67563   1.918   6.577  12.381 -1.1090 -2.5132  1.0049
  490MOL0     H67564   1.924   6.493  12.231 -3.0505  2.7091  0.4093
  490MOL0     H67565   2.093   6.439  12.489  2.8886 -0.4947 -1.7060
  490MOL0     H67566   2.102   6.332  12.347 -1.7797 -2.2091 -0.1318
  490MOL0     H67567   1.936   6.269  12.551 -0.4976 -0.9626 -0.3088
  490MOL0     H67568   1.846   6.412  12.510  3.0948  1.1470  1.3063
  490MOL0     H67569   1.927   6.074  12.317 -0.3030 -0.1735 -2.4107
  490MOL0     H67570   1.662   6.049  12.032  0.0324  0.5201  0.3080
  490MOL0     H67571   1.678   5.953  12.167 -0.4810  0.6484 -0.5600
  490MOL0     H67572   1.944   5.982  12.110  0.9704 -1.4871 -0.6974
  490MOL0     H67573   1.836   5.859  12.029 -0.2166  0.3538  0.5852
  490MOL0     H67574   1.823   5.968  11.835 -0.4407  2.2092 -0.2334
  490MOL0     H67575   1.872   6.119  11.908  2.5226  1.1765  1.1877
  490MOL0     H67576   2.048   6.036  11.780 -2.9286  3.0727  0.4597
  490MOL0     H67577   2.094   5.971  11.950  0.1587  1.0077  0.3139
  490MOL0     H67578   2.282   5.809  11.872  0.4294  0.3319 -0.6120
  490MOL0     H67579   2.543   5.830  11.731  2.1182 -0.9041  0.1795
  490MOL0     H67580   2.534   5.662  11.676 -0.9459  0.6469 -1.1163
  490MOL0     H67581   2.466   5.718  11.838  3.9211  0.0562  0.5258
  490MOL0     H67582   2.414   5.405  11.287  2.7905 -1.5369  0.0746
  490MOL0     H67583   2.533   5.312  11.108  0.7100 -0.0289  0.9649
  490MOL0     H67584   2.712   5.289  11.002 -2.3463 -2.6476  0.4244
  490MOL0     H67585   2.585   5.245  10.891 -0.4463  1.0621  2.9390
  490MOL0     H67586   2.877   5.324  10.830 -0.0295  0.8828 -0.3924
  490MOL0     H67587   2.807   5.165  10.825 -2.4532 -0.0316  1.4656
  490MOL0     H67588   2.845   5.307  10.603  0.3157  2.6853  3.1143
  490MOL0     H67589   2.715   5.411  10.659 -2.0196  0.1897  0.0114
  490MOL0     H67590   2.547   5.212  10.636 -0.7861  0.9599 -1.8060
  490MOL0     H67591   2.680   5.109  10.617  3.6522  0.5534  0.2295
  490MOL0     H67592   2.622   5.337  10.413 -1.0378 -0.3768 -0.1627
  490MOL0     H67593   2.754   5.219  10.386  0.0113  2.5223 -2.6428
  490MOL0     H67594   2.462   5.144  10.424 -1.1871  2.2461 -1.0547
  490MOL0     H67595   2.605   5.049  10.354  3.0929  1.9060  0.6360
  490MOL0     H67596   2.588   5.211  10.151 -0.3009  1.9361 -0.5872
  490MOL0     H67597   2.450   5.282  10.242  0.2986  0.1757  1.7513
  490MOL0     H67598   2.388   5.136  10.045  0.9454 -0.3292 -0.7334
  490MOL0     H67599   2.325   5.057  10.187 -0.9233  0.0277 -1.1372
  490MOL0     H67600   2.617   5.691  10.952  1.4389 -1.2819 -1.1353
  490MOL0     H67601   2.500   5.798  11.136 -4.7655  0.2268 -0.6027
  490MOL0     H67602   2.161   5.777  11.393  1.0879 -0.6251 -0.4889
  490MOL0     H67603   1.987   5.794  11.547 -1.8891 -2.7416  3.2410
  490MOL0     H67604   1.754   6.836  11.663  0.3731 -0.5176 -0.9196
  490MOL0     H67605   1.531   6.885  11.557 -1.2779 -0.0822 -0.9205
  490MOL0     H67606   1.161   7.125  11.591  0.0034  1.8775  0.7297
  490MOL0     H67607   0.938   7.218  11.522 -1.4483 -2.2658 -0.3707
  490MOL0     H67608   0.783   7.340  11.453  0.9329 -2.4064  0.0689
  490MOL0     H67609   0.693   7.382  11.308 -1.4294 -0.8589 -2.2094
  490MOL0     H67610   0.637   7.144  11.404  0.1037 -1.0900  0.0820
  490MOL0     H67611   0.788   7.103  11.335  0.6119  1.7742  0.4712
  490MOL0     H67612   0.575   7.245  11.182 -1.6590 -1.8057  0.5524
  490MOL0     H67613   0.726   7.163  11.123 -0.0916  1.0897 -0.8555
  490MOL0     H67614   0.536   7.054  11.062  2.4565  1.9495 -0.4426
  490MOL0     H67615   0.481   7.035  11.234  1.3841 -1.4681  1.2842
  490MOL0     H67616   0.803   6.752  11.209  1.0437 -0.6352 -1.9813
  490MOL0     H67617   1.104   7.363  11.156  2.5585  1.7076 -0.1559
  490MOL0     H67618   1.435   7.393  11.288 -1.5932  2.8157 -0.5712
  490MOL0     H67619   1.424   7.243  11.181 -0.0347 -0.7065  0.0007
  490MOL0     H67620   1.351   7.394  11.144  2.7345  0.9069 -0.1244
  491MOL0     O67621   8.334   6.837   4.411 -0.2227  0.3169  0.1432
  491MOL0     C67622   8.385   6.882   4.520 -0.9329 -0.0685 -0.1447
  491MOL0     O67623   8.506   6.847   4.577  0.3969 -0.2749 -0.3575
  491MOL0     C67624   8.579   6.739   4.534 -1.3642 -0.8951  0.0882
  491MOL0     C67625   8.538   6.607   4.537  0.2421  1.3677 -0.1881
  491MOL0     C67626   8.628   6.505   4.500 -0.7694 -0.5658 -0.1035
  491MOL0     C67627   8.758   6.535   4.457 -1.2368 -0.7231 -0.6245
  491MOL0     O67628   8.853   6.436   4.432  0.1518 -0.4338 -0.0595
  491MOL0     C67629   8.801   6.310   4.378  0.5251  0.6422 -0.4524
  491MOL0     C67630   8.923   6.230   4.343 -0.0404 -0.1395 -0.5290
  491MOL0     C67631   8.886   6.109   4.274  0.2816 -0.5116  0.7581
  491MOL0     C67632   8.996   6.020   4.207  0.1059  1.3193 -0.1588
  491MOL0     C67633   9.079   5.934   4.312  0.6128 -0.7068  0.8820
  491MOL0     C67634   8.996   5.818   4.367  0.6291 -0.5201  0.5495
  491MOL0     C67635   8.964   5.718   4.249  0.1452  0.2574 -0.6609
  491MOL0     C67636   9.084   5.633   4.208 -0.9448  0.5825  0.7844
  491MOL0     N67637   9.124   5.552   4.326 -1.4595  0.0321  1.1674
  491MOL0     C67638   9.236   5.569   4.403  0.1322 -0.5413 -0.0773
  491MOL0     C67639   9.227   5.480   4.507  0.1980  0.2713  0.1379
  491MOL0     C67640   9.317   5.461   4.623 -0.0683  0.5378 -0.4691
  491MOL0     C67641   9.313   5.566   4.734 -0.3291 -0.2343  0.1233
  491MOL0     C67642   9.356   5.709   4.693 -0.4036  0.1645 -0.4525
  491MOL0     C67643   9.495   5.720   4.633 -0.5067  0.3474 -0.5161
  491MOL0     O67644   9.516   5.842   4.572  0.2647 -1.1255 -0.3651
  491MOL0     C67645   9.644   5.888   4.543  0.1401  0.2714 -0.3586
  491MOL0     C67646   9.664   6.013   4.488 -0.2311  0.2760 -0.4974
  491MOL0     C67647   9.786   6.064   4.442  0.6963 -0.0240 -0.0063
  491MOL0     C67648   9.797   6.194   4.368  0.0646  0.3052  0.5770
  491MOL0     C67649   9.904   5.994   4.483 -0.7139 -0.1985 -0.4052
  491MOL0     C67650  10.040   6.046   4.468 -0.6182 -0.0906 -0.7252
  491MOL0     O67651  10.126   6.062   4.580  0.2983 -0.0066 -0.2416
  491MOL0     C67652  10.263   6.063   4.565 -0.2329  0.5898  1.7331
  491MOL0     C67653  10.336   6.120   4.669  0.2967  0.0330 -0.3523
  491MOL0     C67654  10.477   6.120   4.668 -0.1785  0.2087  0.5190
  491MOL0     C67655  10.542   6.053   4.567 -0.6580  0.1556  1.2375
  491MOL0     O67656  10.676   6.070   4.561 -0.6875  0.1839 -0.1291
  491MOL0     C67657  10.761   5.961   4.512  0.2965 -0.6142  0.5131
  491MOL0     C67658  10.907   6.006   4.524  0.2485  0.3603  0.1221
  491MOL0     C67659  10.993   5.903   4.448 -0.5307 -0.8440  0.4781
  491MOL0     C67660  11.134   5.896   4.493 -0.8469 -1.1722 -0.0252
  491MOL0     C67661  11.219   6.027   4.478 -0.4536  0.1902 -0.4616
  491MOL0     C67662  11.353   6.024   4.558 -0.7154 -0.2969  0.1926
  491MOL0     C67663  11.455   5.925   4.495  0.0760 -0.6051  0.8440
  491MOL0     C67664  11.584   5.910   4.582 -0.0214  0.5821  0.3197
  491MOL0    Cl67665  11.651   6.062   4.614 -0.1143  0.1512 -0.3074
  491MOL0     C67666  10.476   5.982   4.467  1.1023 -0.4112  0.5029
  491MOL0     C67667  10.332   5.977   4.481 -0.0861  0.3013 -0.0870
  491MOL0     O67668  10.072   6.071   4.353 -0.7138  0.2413  0.3260
  491MOL0     C67669   9.889   5.873   4.545  0.2587  0.0633 -0.8639
  491MOL0     C67670   9.763   5.818   4.565 -0.5836  0.1490  0.0420
  491MOL0     N67671   9.119   5.399   4.483 -0.5387  0.7212  0.1287
  491MOL0     N67672   9.065   5.435   4.367  0.2433  1.0025 -0.0943
  491MOL0     C67673   8.796   6.673   4.451 -0.5134 -0.5153 -0.0818
  491MOL0     C67674   8.707   6.772   4.492 -0.2930  0.8867 -0.0251
  491MOL0     C67675   8.294   6.966   4.600 -0.4383  0.8965  0.5114
  491MOL0     C67676   8.285   6.925   4.733  0.2316 -0.2672  1.3149
  491MOL0     C67677   8.209   7.003   4.816  0.4619  0.6237  0.0269
  491MOL0     C67678   8.140   7.119   4.788 -0.1600 -0.0767 -0.3103
  491MOL0     O67679   8.070   7.170   4.896 -0.3280 -0.3691  0.7200
  491MOL0     C67680   7.972   7.278   4.869 -0.4461  0.2865 -0.9105
  491MOL0     C67681   7.951   7.337   5.006 -0.0677 -0.5937 -0.0503
  491MOL0     C67682   8.063   7.434   5.045 -0.0358 -0.7537 -0.0878
  491MOL0     C67683   8.031   7.495   5.186  0.1275 -0.2034  0.8310
  491MOL0     C67684   7.902   7.573   5.186 -0.7602 -0.7579  0.4779
  491MOL0     C67685   7.799   7.627   5.203  0.5224 -0.3526 -0.2372
  491MOL0     C67686   8.144   7.150   4.652  0.4646 -0.1397  0.4453
  491MOL0     C67687   8.216   7.075   4.555 -0.3737  0.1521 -0.3743
  491MOL0     C67688   8.218   7.109   4.410  1.0809  1.1542 -0.9329
  491MOL0     H67689   8.440   6.579   4.573  1.4965 -1.4118  1.4471
  491MOL0     H67690   8.594   6.403   4.517  0.4486 -1.1798 -1.2283
  491MOL0     H67691   8.733   6.313   4.293 -0.6183  0.2704  0.4144
  491MOL0     H67692   8.742   6.252   4.450 -1.7767  0.1615 -2.6032
  491MOL0     H67693   8.990   6.288   4.278 -3.1525  1.2770 -2.7086
  491MOL0     H67694   8.974   6.194   4.433  1.5915  1.8786 -0.5731
  491MOL0     H67695   8.829   6.045   4.342 -0.0665  0.6870  1.6310
  491MOL0     H67696   8.819   6.127   4.189  1.0916 -0.5773  0.0976
  491MOL0     H67697   8.949   5.964   4.126 -2.0840  1.3484  1.0095
  491MOL0     H67698   9.068   6.089   4.163 -0.0938  0.5075 -1.8130
  491MOL0     H67699   9.103   5.984   4.406 -1.9188 -1.7940  2.2333
  491MOL0     H67700   9.166   5.896   4.259  1.1828 -2.0396  2.6487
  491MOL0     H67701   9.055   5.770   4.445 -0.0357  1.0185  2.0636
  491MOL0     H67702   8.906   5.852   4.419  1.1309  0.6054  0.7214
  491MOL0     H67703   8.913   5.765   4.165 -0.6468  0.2346 -0.2001
  491MOL0     H67704   8.895   5.643   4.288 -0.1049  0.5774 -0.4792
  491MOL0     H67705   9.052   5.573   4.123 -0.5542 -0.8145  1.5917
  491MOL0     H67706   9.166   5.700   4.181  0.9383 -0.7119  2.9377
  491MOL0     H67707   9.298   5.658   4.393 -2.0620  1.0998  0.0470
  491MOL0     H67708   9.422   5.450   4.596  0.3205  0.6843  0.8997
  491MOL0     H67709   9.289   5.372   4.681  0.2263  0.9685  0.3496
  491MOL0     H67710   9.209   5.564   4.767 -0.5748  0.0982 -0.6057
  491MOL0     H67711   9.375   5.534   4.818 -2.4565 -3.1177  0.7508
  491MOL0     H67712   9.278   5.749   4.628 -1.7814  1.6456  1.9400
  491MOL0     H67713   9.356   5.775   4.780 -0.3589 -0.4448  0.0149
  491MOL0     H67714   9.564   5.702   4.716  1.0254  0.4390 -1.7080
  491MOL0     H67715   9.519   5.640   4.563  0.7884  1.8097 -1.8288
  491MOL0     H67716   9.577   6.076   4.472 -0.0278  0.9633  0.9715
  491MOL0     H67717   9.861   6.254   4.434 -0.6493 -0.3288  1.8837
  491MOL0     H67718   9.703   6.245   4.345  0.7662  0.2179 -3.1033
  491MOL0     H67719   9.841   6.173   4.270 -1.8357 -2.6510  0.2065
  491MOL0     H67720  10.268   6.168   4.739 -0.4215  0.0572 -1.0467
  491MOL0     H67721  10.524   6.191   4.736 -2.2208 -0.3495  2.6087
  491MOL0     H67722  10.733   5.874   4.572  0.2791 -0.5451  0.6048
  491MOL0     H67723  10.728   5.936   4.410  1.7827 -1.0354  0.0961
  491MOL0     H67724  10.920   6.100   4.471 -0.3075  0.0286 -0.6225
  491MOL0     H67725  10.936   6.020   4.629 -0.0168  1.8249  0.0146
  491MOL0     H67726  11.001   5.928   4.342 -0.7052  1.7773  0.9965
  491MOL0     H67727  10.943   5.807   4.463  1.9020 -2.4353 -0.8969
  491MOL0     H67728  11.195   5.815   4.452  0.1330 -2.8578  4.2348
  491MOL0     H67729  11.127   5.874   4.600 -3.2478  0.5531  0.2379
  491MOL0     H67730  11.241   6.037   4.371 -1.6365 -0.4634 -0.7771
  491MOL0     H67731  11.174   6.118   4.519  3.4518  2.5266 -0.8477
  491MOL0     H67732  11.337   5.988   4.660  1.3216  0.4033  0.8183
  491MOL0     H67733  11.397   6.124   4.555 -2.6677  0.6603  1.8763
  491MOL0     H67734  11.487   5.978   4.405 -1.5260 -0.6266  0.2424
  491MOL0     H67735  11.407   5.828   4.478  0.5392 -0.6145 -0.5320
  491MOL0     H67736  11.655   5.851   4.524 -2.5593 -1.0911 -1.2715
  491MOL0     H67737  11.554   5.848   4.667 -1.9528 -0.8601 -1.3194
  491MOL0     H67738  10.537   5.935   4.391  2.7092 -1.0113  2.0802
  491MOL0     H67739  10.289   5.910   4.408  2.1027  1.0721 -2.2339
  491MOL0     H67740   9.972   5.814   4.582  0.3170 -0.2819 -1.5262
  491MOL0     H67741   9.753   5.720   4.611 -1.2061  0.9351  1.6606
  491MOL0     H67742   8.894   6.704   4.416 -2.2068  4.3059 -1.2835
  491MOL0     H67743   8.750   6.871   4.492  1.1962  0.2633 -0.4303
  491MOL0     H67744   8.333   6.835   4.770  1.8029  0.3891  0.9702
  491MOL0     H67745   8.193   6.970   4.918 -0.2964  1.5260  0.2137
  491MOL0     H67746   8.011   7.357   4.805 -2.5236  1.9381 -0.2617
  491MOL0     H67747   7.875   7.237   4.839 -2.1103  3.3515 -0.1650
  491MOL0     H67748   7.951   7.260   5.084 -0.5527  1.2475  1.8506
  491MOL0     H67749   7.850   7.377   4.997 -0.5593 -1.5077  1.1223
  491MOL0     H67750   8.156   7.377   5.052 -0.7647 -1.7565  3.2128
  491MOL0     H67751   8.068   7.518   4.975  0.4821 -0.2923  0.4855
  491MOL0     H67752   8.114   7.562   5.211  2.5042 -1.5235 -2.7128
  491MOL0     H67753   8.033   7.416   5.262  0.0472 -0.0138  1.0329
  491MOL0     H67754   7.693   7.646   5.202  0.8333  1.5709  0.7016
  491MOL0     H67755   8.093   7.241   4.625  0.0079  0.1251  2.0615
  491MOL0     H67756   8.319   7.094   4.370  1.4395 -1.0471  0.6067
  491MOL0     H67757   8.133   7.058   4.363 -0.4410 -1.2826  3.7877
  491MOL0     H67758   8.188   7.213   4.395 -1.1224  0.4606 -1.6308
  492MOL0     O67759   1.721   9.201  10.079  0.5476  0.6383 -0.2896
  492MOL0     C67760   1.704   9.077  10.076 -0.3400  0.5108  0.0448
  492MOL0     O67761   1.803   8.980  10.085  0.2326  0.1419  0.0147
  492MOL0     C67762   1.935   9.010  10.073 -0.0186 -0.1252 -0.7875
  492MOL0     C67763   2.005   8.972   9.965  0.2782  0.5939  0.1938
  492MOL0     C67764   2.144   8.982   9.956  0.5229 -0.2365 -0.2372
  492MOL0     C67765   2.216   9.037  10.062 -0.0838 -0.1401 -0.6870
  492MOL0     O67766   2.351   9.068  10.059  0.4350  0.4140 -0.2586
  492MOL0     C67767   2.397   9.116   9.934  0.1563 -0.0535 -0.1757
  492MOL0     C67768   2.527   9.205   9.936 -0.5987 -0.4046 -0.1043
  492MOL0     C67769   2.492   9.343   9.984 -0.5949 -0.9057  0.8991
  492MOL0     C67770   2.618   9.435   9.977  1.1580  0.7792 -0.8400
  492MOL0     C67771   2.574   9.579   9.994 -0.9744 -0.2703 -0.0773
  492MOL0     C67772   2.693   9.663   9.940 -1.3252 -0.1020  0.0652
  492MOL0     C67773   2.671   9.816   9.957  0.2353  0.4468  1.0252
  492MOL0     C67774   2.795   9.906   9.925 -0.0867 -0.8640  0.3453
  492MOL0     N67775   2.900   9.889  10.016 -0.1916  0.2208 -0.1327
  492MOL0     C67776   3.028   9.863   9.981 -1.2630 -0.2802  0.6451
  492MOL0     C67777   3.107   9.906  10.085 -0.2097  0.3758  0.4540
  492MOL0     C67778   3.260   9.898  10.080  0.2764  0.2842  0.3162
  492MOL0     C67779   3.327   9.993  10.182 -0.3043 -0.0967 -0.0507
  492MOL0     C67780   3.338  10.127  10.109 -0.1124 -0.3736 -0.3398
  492MOL0     C67781   3.416  10.241  10.176  0.2629  0.0992  0.2210
  492MOL0     O67782   3.421  10.351  10.086  0.4781 -0.2522  0.1473
  492MOL0     C67783   3.494  10.463  10.121  0.6995 -0.2306 -0.5902
  492MOL0     C67784   3.502  10.566  10.020  0.4900  0.9454 -0.4418
  492MOL0     C67785   3.582  10.676  10.040 -0.0246 -0.2235  0.3730
  492MOL0     C67786   3.602  10.769   9.918 -0.0291 -0.3244 -0.1056
  492MOL0     C67787   3.635  10.691  10.171 -0.4846  0.4800 -0.1997
  492MOL0     C67788   3.709  10.816  10.207  0.2302  0.0209  0.6476
  492MOL0     O67789   3.788  10.813  10.323 -0.2732  0.4548  0.5120
  492MOL0     C67790   3.854  10.926  10.362 -0.0642 -0.3262 -0.1523
  492MOL0     C67791   3.972  10.908  10.436  0.2410 -0.0222  0.3807
  492MOL0     C67792   4.046  11.013  10.481  0.2138  0.9475 -0.2636
  492MOL0     C67793   3.996  11.149  10.481 -0.1138  0.4262  0.4476
  492MOL0     O67794   4.058  11.267  10.519  0.0985 -0.3601  0.0988
  492MOL0     C67795   4.203  11.265  10.524  1.2647 -0.0191  0.5604
  492MOL0     C67796   4.253  11.404  10.537 -0.0016  0.0009 -0.3075
  492MOL0     C67797   4.403  11.406  10.575  0.4140  0.6087  0.3597
  492MOL0     C67798   4.474  11.547  10.580 -0.1601 -1.0357  0.1715
  492MOL0     C67799   4.620  11.551  10.638  0.7567 -0.4141  1.3161
  492MOL0     C67800   4.719  11.528  10.527 -0.7120  0.2112 -0.0841
  492MOL0     C67801   4.859  11.561  10.546 -1.1595 -0.0130 -0.5750
  492MOL0     C67802   4.926  11.474  10.657  0.1988  0.1420  1.0144
  492MOL0    Cl67803   4.882  11.302  10.642  0.2456  0.2870 -0.2917
  492MOL0     C67804   3.864  11.169  10.439  0.1435  0.6168  0.4651
  492MOL0     C67805   3.799  11.060  10.376 -0.3755 -1.1173 -0.0899
  492MOL0     O67806   3.681  10.923  10.144  0.3710 -0.1254 -0.1211
  492MOL0     C67807   3.623  10.594  10.270 -0.3976  0.4893  0.1460
  492MOL0     C67808   3.568  10.476  10.236  0.1211 -0.1896 -0.1971
  492MOL0     N67809   3.026   9.945  10.195  0.5421  0.0399  0.1374
  492MOL0     N67810   2.900   9.934  10.150 -0.0184 -0.0271 -0.4301
  492MOL0     C67811   2.142   9.079  10.170  0.8485 -0.3985  0.4485
  492MOL0     C67812   2.009   9.050  10.183  0.7001 -0.2413 -0.1890
  492MOL0     C67813   1.564   9.044  10.100 -0.3703  0.8192 -0.2227
  492MOL0     C67814   1.526   8.950  10.196  0.1350  0.5982  0.7123
  492MOL0     C67815   1.395   8.911  10.223  0.5038  0.3188  0.3838
  492MOL0     C67816   1.290   8.969  10.152 -0.7446 -0.4959 -0.3633
  492MOL0     O67817   1.158   8.955  10.169 -0.0398  0.5834 -0.1942
  492MOL0     C67818   1.104   8.878  10.285 -1.0079 -0.2513  0.3887
  492MOL0     C67819   0.952   8.869  10.276  0.2949 -0.5173  0.0336
  492MOL0     C67820   0.886   9.008  10.224 -0.8220  0.0996 -0.2294
  492MOL0     C67821   0.739   9.024  10.259 -0.3772 -0.3270 -0.2031
  492MOL0     C67822   0.684   9.156  10.220 -1.0021  0.1184  0.3313
  492MOL0     C67823   0.629   9.254  10.169  0.9837 -0.4691  1.1936
  492MOL0     C67824   1.325   9.047  10.041  0.3805  0.7284  0.0013
  492MOL0     C67825   1.461   9.091  10.016  0.1331 -0.0126 -0.4589
  492MOL0     C67826   1.484   9.166   9.891 -0.6076  0.5809  0.7426
  492MOL0     H67827   1.933   8.935   9.893 -0.4938  4.5168 -1.3242
  492MOL0     H67828   2.192   8.931   9.873  0.7420 -0.1523 -0.1631
  492MOL0     H67829   2.321   9.170   9.876  0.0145 -2.3362 -2.2750
  492MOL0     H67830   2.417   9.029   9.870 -0.4047  0.0861 -0.5486
  492MOL0     H67831   2.607   9.154   9.992 -0.4112  0.3410  0.3205
  492MOL0     H67832   2.552   9.215   9.830 -2.3948 -0.3027 -0.5357
  492MOL0     H67833   2.415   9.372   9.912 -0.0968 -0.6677  0.4652
  492MOL0     H67834   2.448   9.344  10.085  2.5704  2.6404  2.4808
  492MOL0     H67835   2.689   9.389  10.046  0.5497 -1.4336 -1.6156
  492MOL0     H67836   2.643   9.415   9.873 -2.3492 -0.1545 -1.6445
  492MOL0     H67837   2.541   9.591  10.098  0.4676 -7.0352  1.6366
  492MOL0     H67838   2.482   9.599   9.937 -0.5482  2.3606  0.0511
  492MOL0     H67839   2.780   9.637  10.000 -1.2314  1.1374  0.4782
  492MOL0     H67840   2.698   9.636   9.834  1.0142  2.3510 -0.5654
  492MOL0     H67841   2.647   9.832  10.063 -0.2493 -2.8318  1.5352
  492MOL0     H67842   2.587   9.845   9.894  0.0966 -1.9907 -0.0479
  492MOL0     H67843   2.831   9.883   9.825 -0.5111  1.7422 -0.4819
  492MOL0     H67844   2.766  10.010   9.941 -1.2941 -1.2827  1.0972
  492MOL0     H67845   3.078   9.826   9.892  2.7935  1.0615  2.1148
  492MOL0     H67846   3.290   9.933   9.981  0.3157  1.6123  0.7773
  492MOL0     H67847   3.287   9.793  10.093 -0.4962 -0.0920 -0.9120
  492MOL0     H67848   3.278   9.999  10.280  2.0116  0.5951  1.1317
  492MOL0     H67849   3.428   9.954  10.194  1.6593  3.9821 -1.6749
  492MOL0     H67850   3.383  10.127  10.010 -0.2674 -0.4929 -0.4108
  492MOL0     H67851   3.237  10.163  10.085  0.6358  1.2226 -1.1959
  492MOL0     H67852   3.358  10.277  10.261 -0.4660  1.0279 -0.6508
  492MOL0     H67853   3.516  10.205  10.201  0.2081  1.5188  2.8798
  492MOL0     H67854   3.480  10.550   9.915  4.4875  1.2254 -1.4725
  492MOL0     H67855   3.707  10.795   9.901 -0.4372  1.1162 -0.5986
  492MOL0     H67856   3.553  10.866   9.934 -1.9985 -1.2683 -0.1807
  492MOL0     H67857   3.570  10.718   9.827  1.6638 -1.8620  0.1075
  492MOL0     H67858   4.011  10.808  10.450  3.2676  1.3296  2.7993
  492MOL0     H67859   4.140  10.997  10.532 -1.9703  1.0292  4.3030
  492MOL0     H67860   4.224  11.220  10.621  0.2167  1.2243  1.4056
  492MOL0     H67861   4.253  11.206  10.447 -0.4789 -2.4781  1.1864
  492MOL0     H67862   4.242  11.460  10.444 -0.4233  1.1725  0.4218
  492MOL0     H67863   4.193  11.458  10.611  2.4230 -1.4902  2.9937
  492MOL0     H67864   4.446  11.343  10.496 -4.4521  0.4421 -2.6056
  492MOL0     H67865   4.426  11.362  10.672  1.4336  0.9937  0.3016
  492MOL0     H67866   4.418  11.610  10.650  0.0916  3.0628 -2.9355
  492MOL0     H67867   4.460  11.602  10.487 -0.5589  0.7134  1.2322
  492MOL0     H67868   4.636  11.652  10.677  2.4392 -1.4003  3.4114
  492MOL0     H67869   4.643  11.486  10.723 -1.1786  0.3929  2.5272
  492MOL0     H67870   4.683  11.584  10.441 -0.1908 -2.2901 -2.0691
  492MOL0     H67871   4.711  11.421  10.504 -2.6073 -0.3450  2.6246
  492MOL0     H67872   4.858  11.666  10.577  4.2651 -0.5076  2.4422
  492MOL0     H67873   4.920  11.560  10.456  0.6359  0.3264  0.5952
  492MOL0     H67874   4.887  11.500  10.755 -0.8711 -2.6280  1.4191
  492MOL0     H67875   5.031  11.501  10.652 -0.2317  1.7399 -0.3958
  492MOL0     H67876   3.809  11.263  10.447 -1.4759 -0.3997  2.3138
  492MOL0     H67877   3.702  11.073  10.329  0.5815 -0.3716 -1.9296
  492MOL0     H67878   3.667  10.603  10.369 -0.6063  2.3124  0.1068
  492MOL0     H67879   3.570  10.398  10.312 -2.0576 -1.5166 -1.4028
  492MOL0     H67880   2.186   9.125  10.258  0.9708  0.2108  0.0765
  492MOL0     H67881   1.959   9.057  10.280  3.1279 -1.0823  1.2083
  492MOL0     H67882   1.610   8.903  10.245  2.1861 -0.9840 -3.7950
  492MOL0     H67883   1.370   8.841  10.303  1.9633 -1.1632 -0.4006
  492MOL0     H67884   1.148   8.778  10.288 -0.6727 -0.1450 -0.7150
  492MOL0     H67885   1.130   8.939  10.372 -0.1220 -1.7030  1.1760
  492MOL0     H67886   0.924   8.842  10.379  1.1926  1.4008  0.8261
  492MOL0     H67887   0.927   8.782  10.214  2.6689 -0.2795 -1.3728
  492MOL0     H67888   0.935   9.086  10.283 -4.9221  2.1437  0.8530
  492MOL0     H67889   0.911   9.018  10.117  2.0644 -5.0420 -0.3843
  492MOL0     H67890   0.734   9.006  10.367  1.0934 -0.5631 -0.1432
  492MOL0     H67891   0.670   8.956  10.208 -2.6598  0.4616  1.6742
  492MOL0     H67892   0.561   9.326  10.128 -2.1916 -2.9874  1.5983
  492MOL0     H67893   1.245   9.093   9.984 -0.2962 -1.2925 -0.7574
  492MOL0     H67894   1.388   9.192   9.845 -0.4915 -4.3005 -3.0395
  492MOL0     H67895   1.537   9.260   9.906  0.0883  0.7413 -2.1556
  492MOL0     H67896   1.541   9.118   9.811 -1.9120  0.0760  0.0829
  493MOL0     O67897   9.439   9.037   1.401 -0.8745 -0.7524  0.3515
  493MOL0     C67898   9.516   9.028   1.307 -0.2738 -0.0388  0.4899
  493MOL0     O67899   9.506   9.085   1.184  0.7387  0.5567 -0.1866
  493MOL0     C67900   9.387   9.135   1.140  0.2620  0.7334  0.1870
  493MOL0     C67901   9.259   9.106   1.190  0.0498  1.0466 -1.2295
  493MOL0     C67902   9.150   9.168   1.147 -0.5728 -0.6563  0.7565
  493MOL0     C67903   9.151   9.257   1.035 -0.6804 -0.0786 -0.3076
  493MOL0     O67904   9.045   9.325   0.980  0.0865 -0.3687  0.0944
  493MOL0     C67905   8.917   9.341   1.049 -0.3312 -0.8753 -0.3566
  493MOL0     C67906   8.942   9.428   1.176 -0.0290 -0.1784  0.6018
  493MOL0     C67907   8.968   9.569   1.153  0.2525  0.0409  0.4173
  493MOL0     C67908   8.989   9.653   1.278 -0.5921  0.3130  0.8697
  493MOL0     C67909   9.039   9.797   1.247  0.2176  0.4110  0.7133
  493MOL0     C67910   9.160   9.820   1.153  0.6234 -0.3807  0.0876
  493MOL0     C67911   9.285   9.739   1.197 -0.1177  0.8560 -0.3188
  493MOL0     C67912   9.428   9.791   1.150 -0.4598  0.5161 -0.3951
  493MOL0     N67913   9.551   9.705   1.176  0.7198 -0.7634 -0.2071
  493MOL0     C67914   9.555   9.573   1.150  0.4742  0.3003 -0.0429
  493MOL0     C67915   9.664   9.524   1.204 -0.5032 -0.0136 -0.0363
  493MOL0     C67916   9.703   9.373   1.189 -0.3806 -0.0243  0.0731
  493MOL0     C67917   9.776   9.347   1.055 -0.4457 -0.1764  0.1501
  493MOL0     C67918   9.923   9.402   1.061 -0.3292 -0.0108  0.7204
  493MOL0     C67919  10.034   9.320   1.125  0.1023 -0.0845 -0.0212
  493MOL0     O67920  10.041   9.196   1.068 -0.2204 -0.8325  0.4931
  493MOL0     C67921  10.157   9.127   1.090 -0.2395  0.6170  1.1813
  493MOL0     C67922  10.175   9.004   1.021 -0.2900  0.1032 -0.1225
  493MOL0     C67923  10.281   8.914   1.057  0.9440 -0.1355 -0.0217
  493MOL0     C67924  10.261   8.778   0.997  0.9902 -0.0873  0.1397
  493MOL0     C67925  10.378   8.952   1.156 -0.7505 -0.1432  0.9848
  493MOL0     C67926  10.496   8.859   1.186 -1.1708  0.0820  0.0436
  493MOL0     O67927  10.603   8.929   1.246  0.9632 -0.9527 -0.1089
  493MOL0     C67928  10.648   8.864   1.357  0.4783 -0.2073  0.3285
  493MOL0     C67929  10.762   8.782   1.346 -1.0325 -0.9493  0.2507
  493MOL0     C67930  10.810   8.714   1.460 -0.3537 -1.1970 -0.0878
  493MOL0     C67931  10.731   8.715   1.580  0.6280  0.1343 -0.6362
  493MOL0     O67932  10.781   8.655   1.690  0.0479 -0.9341 -0.9978
  493MOL0     C67933  10.706   8.537   1.712  0.1203  0.0997  0.2982
  493MOL0     C67934  10.739   8.497   1.858 -0.8419  0.3410  0.2956
  493MOL0     C67935  10.679   8.365   1.895 -0.5950 -0.1558 -0.6577
  493MOL0     C67936  10.704   8.329   2.041 -0.3889  0.6701 -0.7502
  493MOL0     C67937  10.650   8.191   2.069  0.2250 -0.0262 -0.1350
  493MOL0     C67938  10.622   8.164   2.216 -0.2344  0.3704  0.1561
  493MOL0     C67939  10.501   8.246   2.267 -0.3629 -0.4990  0.0227
  493MOL0     C67940  10.424   8.175   2.391 -0.5438 -0.1167 -0.6486
  493MOL0    Cl67941  10.326   8.047   2.339  0.1046  0.2102 -0.3247
  493MOL0     C67942  10.621   8.791   1.591  0.6330 -0.2981 -0.4467
  493MOL0     C67943  10.577   8.866   1.483 -0.7138  0.4643  0.5726
  493MOL0     O67944  10.486   8.734   1.178  0.1662  0.0552 -0.5788
  493MOL0     C67945  10.364   9.077   1.223  0.7263 -0.2878 -0.5464
  493MOL0     C67946  10.254   9.160   1.188  0.7997 -0.0405 -0.0978
  493MOL0     N67947   9.727   9.634   1.261 -0.6909  0.4506 -0.2165
  493MOL0     N67948   9.659   9.746   1.248  0.4554 -0.0976 -0.9332
  493MOL0     C67949   9.268   9.272   0.970 -0.4411 -0.0127 -0.1185
  493MOL0     C67950   9.390   9.218   1.024  0.1783 -0.9990 -0.3309
  493MOL0     C67951   9.650   8.961   1.340 -0.3843  0.1667 -0.1928
  493MOL0     C67952   9.770   9.018   1.292  0.3878  0.1578 -0.4217
  493MOL0     C67953   9.889   8.964   1.331 -0.0166  0.7149  0.3461
  493MOL0     C67954   9.898   8.839   1.407  0.3426 -0.6927  0.0400
  493MOL0     O67955  10.007   8.780   1.458 -0.2870 -0.1794 -0.1238
  493MOL0     C67956  10.132   8.839   1.427  0.1685  0.3602 -0.1339
  493MOL0     C67957  10.240   8.742   1.474 -0.2753  0.0785  0.0027
  493MOL0     C67958  10.204   8.592   1.465 -0.4997 -0.1971  0.4464
  493MOL0     C67959  10.312   8.493   1.522  0.3204 -0.2850 -0.3296
  493MOL0     C67960  10.445   8.501   1.460  0.2270  0.8905  0.9389
  493MOL0     C67961  10.549   8.496   1.409 -0.1058 -1.0495  0.0557
  493MOL0     C67962   9.779   8.781   1.446 -0.2610 -0.3270 -0.0820
  493MOL0     C67963   9.653   8.835   1.421  0.4513 -0.6973  1.0816
  493MOL0     C67964   9.530   8.765   1.476  0.4061 -1.0872  1.0267
  493MOL0     H67965   9.246   9.040   1.275  1.1963  0.1341 -1.7291
  493MOL0     H67966   9.054   9.150   1.194 -0.2644 -1.1059  1.2179
  493MOL0     H67967   8.883   9.240   1.072  4.2454 -2.6622 -0.4507
  493MOL0     H67968   8.836   9.386   0.990 -1.3322  1.0340  2.2902
  493MOL0     H67969   8.847   9.439   1.230 -0.9308 -1.1901 -0.7045
  493MOL0     H67970   9.017   9.384   1.242  0.1307 -1.8074 -0.6043
  493MOL0     H67971   9.054   9.580   1.087 -1.4227  0.2359 -1.8378
  493MOL0     H67972   8.888   9.611   1.092 -0.9770  1.6979  2.9943
  493MOL0     H67973   8.891   9.662   1.326 -1.3459  0.4854 -0.6375
  493MOL0     H67974   9.068   9.601   1.334  1.4634 -1.4018 -3.2452
  493MOL0     H67975   9.053   9.852   1.340 -0.1826  0.1414  0.9393
  493MOL0     H67976   8.955   9.848   1.199 -1.8908 -0.7737  2.8625
  493MOL0     H67977   9.129   9.805   1.049  0.3457  1.7123 -0.1878
  493MOL0     H67978   9.182   9.927   1.159  0.3685 -0.3858  1.4156
  493MOL0     H67979   9.279   9.633   1.172  3.4506  0.6112 -0.6480
  493MOL0     H67980   9.291   9.740   1.307  0.9179 -1.0269 -0.3250
  493MOL0     H67981   9.425   9.802   1.041  1.6824  3.0535 -0.2937
  493MOL0     H67982   9.452   9.884   1.201  1.3526  0.7337 -1.5763
  493MOL0     H67983   9.476   9.520   1.097 -1.2211  3.5964 -1.0859
  493MOL0     H67984   9.610   9.316   1.179 -0.1923 -0.1405 -1.1988
  493MOL0     H67985   9.763   9.342   1.275 -0.3973  0.9889  0.4570
  493MOL0     H67986   9.778   9.244   1.020 -3.1899  0.0130 -0.8191
  493MOL0     H67987   9.721   9.403   0.979  0.3669  0.0342 -0.3082
  493MOL0     H67988   9.955   9.428   0.960  0.7612  0.2626  1.1269
  493MOL0     H67989   9.917   9.502   1.103  3.9446  0.7648 -0.0140
  493MOL0     H67990  10.125   9.380   1.118 -1.1769  1.8522 -1.2036
  493MOL0     H67991  10.007   9.298   1.228  0.4068 -4.4651 -0.7043
  493MOL0     H67992  10.097   8.985   0.949  0.8390 -4.6154 -0.4044
  493MOL0     H67993  10.171   8.777   0.934  0.7827  2.3917  0.3108
  493MOL0     H67994  10.257   8.715   1.086  1.6009 -0.0094  0.2274
  493MOL0     H67995  10.345   8.748   0.934 -0.7140 -1.9528 -1.4212
  493MOL0     H67996  10.818   8.779   1.253 -0.6293  1.2285  0.3752
  493MOL0     H67997  10.899   8.654   1.445  0.0720 -0.2104 -1.8358
  493MOL0     H67998  10.600   8.544   1.686  0.3691 -1.3465 -1.3283
  493MOL0     H67999  10.756   8.468   1.643  0.1284 -0.1531  0.5585
  493MOL0     H68000  10.847   8.485   1.850 -1.1992 -1.7868 -2.4035
  493MOL0     H68001  10.711   8.566   1.939 -1.2662 -1.9028  2.1440
  493MOL0     H68002  10.705   8.282   1.829  1.6341  0.6537 -0.8955
  493MOL0     H68003  10.571   8.378   1.884 -0.6883  0.0385  0.3917
  493MOL0     H68004  10.649   8.401   2.101  0.0345 -0.9945  1.7887
  493MOL0     H68005  10.812   8.341   2.057 -0.2140  3.9370 -3.3445
  493MOL0     H68006  10.558   8.174   2.012  1.3439 -0.4307 -1.9130
  493MOL0     H68007  10.720   8.117   2.029 -0.6387 -0.9635  0.0594
  493MOL0     H68008  10.712   8.180   2.275  0.8251  0.5731 -1.4516
  493MOL0     H68009  10.598   8.058   2.205  1.4492  0.1425 -2.2618
  493MOL0     H68010  10.424   8.264   2.192 -1.6445 -0.1078  1.3821
  493MOL0     H68011  10.543   8.344   2.293  1.7339 -0.1587 -3.9238
  493MOL0     H68012  10.382   8.254   2.454  1.8613  1.7433 -1.2111
  493MOL0     H68013  10.494   8.115   2.451  0.3855  2.1445  0.6384
  493MOL0     H68014  10.579   8.799   1.691  3.9884  1.1357  1.0349
  493MOL0     H68015  10.490   8.931   1.484 -0.5629  0.6939 -0.2062
  493MOL0     H68016  10.440   9.097   1.297  2.0898  0.8550 -2.1736
  493MOL0     H68017  10.238   9.248   1.251 -0.6175 -1.8905  2.3296
  493MOL0     H68018   9.260   9.334   0.882 -1.3021 -0.6609 -0.5191
  493MOL0     H68019   9.482   9.252   0.979 -0.3546  2.0968  0.6930
  493MOL0     H68020   9.773   9.109   1.234  2.2093  0.0788 -0.4917
  493MOL0     H68021   9.979   9.003   1.285 -0.9889  0.3764 -1.9814
  493MOL0     H68022  10.138   8.852   1.319 -2.2596  1.3702 -0.2130
  493MOL0     H68023  10.148   8.935   1.477  1.3353  1.2649 -2.1164
  493MOL0     H68024  10.256   8.754   1.582 -0.2894 -0.8281  0.1127
  493MOL0     H68025  10.336   8.764   1.426 -0.5548 -1.0728 -1.1406
  493MOL0     H68026  10.119   8.572   1.531 -2.8930  2.6783 -1.5202
  493MOL0     H68027  10.168   8.557   1.368  0.5902  0.0745 -0.0648
  493MOL0     H68028  10.269   8.393   1.513 -0.8502  0.1660  0.0795
  493MOL0     H68029  10.320   8.516   1.629  2.4663  0.2905 -0.5617
  493MOL0     H68030  10.637   8.489   1.349  0.0539 -2.0161  0.3843
  493MOL0     H68031   9.788   8.699   1.515  2.2191 -0.3373 -0.3479
  493MOL0     H68032   9.534   8.760   1.585  0.2410 -0.5335  1.0609
  493MOL0     H68033   9.437   8.818   1.452  2.5003  2.8581  0.8057
  493MOL0     H68034   9.520   8.667   1.428 -0.5440  0.4294 -2.1415
  494MOL0     O68035   4.324   3.190   3.364 -0.5495  0.7263  0.1935
  494MOL0     C68036   4.278   3.279   3.297  0.4091 -0.4966 -0.3508
  494MOL0     O68037   4.343   3.388   3.231  0.1246  0.2606  0.6110
  494MOL0     C68038   4.484   3.401   3.239  0.2780  0.6727  0.3995
  494MOL0     C68039   4.542   3.484   3.141 -0.2259  0.7208 -0.6242
  494MOL0     C68040   4.682   3.524   3.159  0.3117  0.3588 -0.5981
  494MOL0     C68041   4.753   3.491   3.277 -0.4662 -0.2320 -0.3428
  494MOL0     O68042   4.869   3.566   3.294 -0.4897 -0.7587  0.0159
  494MOL0     C68043   4.895   3.609   3.423  0.8636 -0.1502  0.4275
  494MOL0     C68044   5.001   3.715   3.425 -0.0801 -0.5743  0.1279
  494MOL0     C68045   4.951   3.837   3.351  0.0978 -0.7687 -0.2291
  494MOL0     C68046   5.044   3.962   3.349 -0.0606  0.3810  0.0890
  494MOL0     C68047   5.111   3.997   3.480  0.4516  0.7859 -0.4093
  494MOL0     C68048   5.170   4.137   3.470 -0.1764 -0.0615 -0.4394
  494MOL0     C68049   5.305   4.155   3.548  0.1798 -0.3897 -0.3356
  494MOL0     C68050   5.300   4.178   3.702 -0.1885  1.2612 -0.4165
  494MOL0     N68051   5.433   4.220   3.745 -0.5942  0.6526  0.2809
  494MOL0     C68052   5.487   4.340   3.730  0.3262 -0.3253 -0.7046
  494MOL0     C68053   5.613   4.329   3.781  0.4002  0.1972  0.3187
  494MOL0     C68054   5.705   4.441   3.775  0.9029 -1.0249 -0.4606
  494MOL0     C68055   5.834   4.404   3.711 -1.0828  0.6149  0.0386
  494MOL0     C68056   5.935   4.530   3.737  0.4442  1.0725  0.3587
  494MOL0     C68057   6.083   4.509   3.717 -0.4605  0.4721  0.2105
  494MOL0     O68058   6.121   4.417   3.820  0.8817 -0.1125  0.4597
  494MOL0     C68059   6.240   4.346   3.821 -0.2484 -0.0670  0.0113
  494MOL0     C68060   6.249   4.242   3.907  0.2223 -0.2347 -0.0023
  494MOL0     C68061   6.361   4.177   3.946  1.1631 -1.0800  0.0783
  494MOL0     C68062   6.340   4.069   4.038 -0.7537  0.0909  0.2022
  494MOL0     C68063   6.474   4.207   3.871  0.4291 -0.3577 -0.4246
  494MOL0     C68064   6.602   4.138   3.898 -0.4955  0.9335  0.3932
  494MOL0     O68065   6.689   4.126   3.796 -0.0457  0.7095  0.4246
  494MOL0     C68066   6.809   4.058   3.813 -0.3227 -0.1117  0.4080
  494MOL0     C68067   6.831   3.930   3.856  0.2993 -0.0137 -0.3349
  494MOL0     C68068   6.956   3.871   3.868 -0.1407 -0.0370  0.4258
  494MOL0     C68069   7.069   3.946   3.836  0.8665 -0.4978 -0.0655
  494MOL0     O68070   7.201   3.902   3.847  0.1196 -0.6541  0.7169
  494MOL0     C68071   7.219   3.761   3.874 -1.0103 -0.3675  1.2844
  494MOL0     C68072   7.365   3.730   3.858  0.5972 -1.0412 -0.2010
  494MOL0     C68073   7.402   3.597   3.911 -0.9646 -0.3413 -0.3631
  494MOL0     C68074   7.550   3.580   3.872 -1.1390 -0.2014 -0.2533
  494MOL0     C68075   7.599   3.441   3.909  0.1244 -0.2822  0.8467
  494MOL0     C68076   7.739   3.414   3.848 -0.7620  0.5033  0.3905
  494MOL0     C68077   7.799   3.275   3.882 -0.2856 -0.0687  0.3788
  494MOL0     C68078   7.815   3.280   4.040 -0.0787 -0.4316  0.4627
  494MOL0    Cl68079   7.929   3.147   4.101 -0.2723  0.1604 -0.0784
  494MOL0     C68080   7.054   4.081   3.794 -0.2298 -0.6946  0.5428
  494MOL0     C68081   6.923   4.129   3.779  0.5890  0.5784  0.3421
  494MOL0     O68082   6.623   4.101   4.011 -0.5229 -0.6761 -0.2633
  494MOL0     C68083   6.476   4.301   3.773 -0.0320 -0.2944 -0.1891
  494MOL0     C68084   6.362   4.379   3.759 -0.2163 -0.5320 -0.6604
  494MOL0     N68085   5.635   4.208   3.829  0.7123  0.2894 -0.4356
  494MOL0     N68086   5.527   4.143   3.806 -0.3172 -0.2035  0.3872
  494MOL0     C68087   4.689   3.416   3.372  0.2022 -1.0062 -0.5202
  494MOL0     C68088   4.557   3.365   3.353 -0.5237 -0.2545  0.7421
  494MOL0     C68089   4.132   3.269   3.271  0.2399  0.0475 -1.3303
  494MOL0     C68090   4.059   3.382   3.267  0.9185 -0.8387  1.0526
  494MOL0     C68091   3.926   3.370   3.229 -0.4519 -0.1986 -0.6817
  494MOL0     C68092   3.864   3.252   3.188 -0.3514  0.4253 -0.1180
  494MOL0     O68093   3.735   3.263   3.142  0.0940  0.4059 -0.6351
  494MOL0     C68094   3.655   3.147   3.176  0.4511  0.4944 -0.2182
  494MOL0     C68095   3.514   3.206   3.211 -0.3325  0.7916  0.0197
  494MOL0     C68096   3.508   3.299   3.327 -1.1236 -0.3132 -0.6332
  494MOL0     C68097   3.487   3.212   3.457  0.6732  0.5036 -0.1334
  494MOL0     C68098   3.344   3.182   3.484  0.5808  0.7191  1.1177
  494MOL0     C68099   3.231   3.143   3.492  0.6124 -0.3670 -0.0466
  494MOL0     C68100   3.951   3.137   3.173 -0.1884 -0.7208 -0.6010
  494MOL0     C68101   4.083   3.152   3.221  0.2396 -0.0505  0.5242
  494MOL0     C68102   4.171   3.028   3.197  0.2787 -0.2515 -0.5240
  494MOL0     H68103   4.485   3.501   3.050 -2.3086 -1.4406  0.1818
  494MOL0     H68104   4.727   3.580   3.078  1.1448 -0.7860 -0.9515
  494MOL0     H68105   4.932   3.529   3.487  3.2596  1.7938  1.6272
  494MOL0     H68106   4.802   3.652   3.463  2.3429  2.6712  1.1392
  494MOL0     H68107   5.021   3.744   3.528  2.0496 -4.0849  0.8625
  494MOL0     H68108   5.096   3.690   3.377 -0.2689 -0.8165 -0.1221
  494MOL0     H68109   4.917   3.817   3.249  3.0854 -3.0663 -0.9220
  494MOL0     H68110   4.870   3.867   3.418  2.0094 -0.3183  1.9865
  494MOL0     H68111   5.119   3.951   3.270 -1.2201  3.0201 -1.5182
  494MOL0     H68112   4.979   4.046   3.320  0.9668  1.6570  1.3552
  494MOL0     H68113   5.197   3.932   3.493 -1.1128 -1.3018  0.0299
  494MOL0     H68114   5.049   3.973   3.567 -0.3907 -0.1841 -1.2462
  494MOL0     H68115   5.199   4.160   3.367  1.3683 -0.0840 -0.0321
  494MOL0     H68116   5.106   4.224   3.488 -1.4705 -0.8125 -1.2520
  494MOL0     H68117   5.352   4.245   3.507 -3.6528  1.1529 -1.8015
  494MOL0     H68118   5.367   4.068   3.522 -1.6438 -1.6423 -0.6335
  494MOL0     H68119   5.241   4.263   3.735 -0.8511  0.2297  1.1400
  494MOL0     H68120   5.270   4.090   3.758  2.3992  0.8771  0.5272
  494MOL0     H68121   5.439   4.433   3.702  1.8843  1.9993  3.3460
  494MOL0     H68122   5.710   4.493   3.871 -2.6432  2.2455 -1.7530
  494MOL0     H68123   5.657   4.522   3.720 -1.4780 -0.0177  2.7701
  494MOL0     H68124   5.892   4.320   3.749  1.7726  2.2012 -0.5646
  494MOL0     H68125   5.823   4.385   3.604 -1.9168  0.2283  0.1867
  494MOL0     H68126   5.885   4.610   3.682 -3.2505 -0.7470  0.7212
  494MOL0     H68127   5.931   4.551   3.845  0.1643  1.4342  0.2797
  494MOL0     H68128   6.103   4.463   3.620  0.7865  0.3057  0.5355
  494MOL0     H68129   6.155   4.591   3.720  0.9858 -0.7106 -0.6124
  494MOL0     H68130   6.160   4.220   3.965 -0.4602  2.0350 -0.0892
  494MOL0     H68131   6.385   3.981   3.991  1.4652  0.2457  1.9049
  494MOL0     H68132   6.238   4.046   4.071 -1.5243  0.2491 -1.9065
  494MOL0     H68133   6.390   4.086   4.134 -0.7702  0.1578  0.1988
  494MOL0     H68134   6.749   3.865   3.887  1.9583 -0.5375  3.5229
  494MOL0     H68135   6.963   3.769   3.905 -0.4646 -0.6972 -1.2482
  494MOL0     H68136   7.205   3.746   3.982 -0.4779 -0.7980  1.2974
  494MOL0     H68137   7.160   3.685   3.823  0.5344 -2.2448  2.1637
  494MOL0     H68138   7.391   3.738   3.752  0.7276 -1.9950 -0.2550
  494MOL0     H68139   7.427   3.807   3.903 -1.0933  1.6816 -2.2285
  494MOL0     H68140   7.343   3.516   3.868 -2.6557  1.7919 -2.2925
  494MOL0     H68141   7.395   3.597   4.020 -0.5278 -1.6924 -0.3171
  494MOL0     H68142   7.610   3.652   3.928  1.4044 -2.9204  0.7933
  494MOL0     H68143   7.580   3.599   3.769  0.6690  0.8233  0.4227
  494MOL0     H68144   7.581   3.433   4.017 -1.1114  1.3643  0.7954
  494MOL0     H68145   7.530   3.365   3.871 -0.5553  0.6487  0.2029
  494MOL0     H68146   7.807   3.494   3.880  0.4232  0.5559 -2.0670
  494MOL0     H68147   7.732   3.413   3.739  1.7502 -0.5304  0.1797
  494MOL0     H68148   7.901   3.272   3.844  0.6986  0.8353  2.7329
  494MOL0     H68149   7.746   3.185   3.850 -1.0188  0.6921 -0.5968
  494MOL0     H68150   7.718   3.272   4.091 -2.6663  0.2032 -3.9015
  494MOL0     H68151   7.841   3.379   4.080 -1.6414 -0.4831  1.7162
  494MOL0     H68152   7.129   4.154   3.763 -0.3761 -1.2632 -1.2437
  494MOL0     H68153   6.909   4.229   3.737  1.3020  0.0251 -1.2911
  494MOL0     H68154   6.565   4.330   3.717 -0.7929  2.0191 -0.3145
  494MOL0     H68155   6.371   4.460   3.687 -1.3576 -0.4154 -0.6913
  494MOL0     H68156   4.719   3.397   3.474 -3.4245 -2.6851  0.4182
  494MOL0     H68157   4.504   3.318   3.435  1.0081 -2.4127  0.5874
  494MOL0     H68158   4.103   3.481   3.272  1.4730 -1.0336  0.2553
  494MOL0     H68159   3.870   3.463   3.233 -1.2384 -0.6990  1.4804
  494MOL0     H68160   3.639   3.083   3.089 -1.2072  0.7478 -0.1281
  494MOL0     H68161   3.698   3.083   3.253  0.2195  1.1425  0.4696
  494MOL0     H68162   3.448   3.120   3.227  2.4721 -1.4708  0.2102
  494MOL0     H68163   3.481   3.271   3.129 -0.5286  3.3715  2.0089
  494MOL0     H68164   3.600   3.358   3.335 -3.2262  3.3789 -1.2840
  494MOL0     H68165   3.417   3.358   3.313 -1.3482 -0.3302  0.6499
  494MOL0     H68166   3.508   3.275   3.544 -3.3359  0.3103  1.1618
  494MOL0     H68167   3.548   3.121   3.458  0.4023  0.3107  1.4362
  494MOL0     H68168   3.129   3.110   3.494 -0.6128  2.9677  3.2203
  494MOL0     H68169   3.916   3.042   3.132  2.4939 -1.4856 -1.3107
  494MOL0     H68170   4.205   2.992   3.294  2.4788  0.2598 -1.0439
  494MOL0     H68171   4.134   2.947   3.133  2.3543 -2.3825  0.7851
  494MOL0     H68172   4.266   3.059   3.152  1.0066 -1.1835  0.3364
  495MOL0     O68173   9.760   0.313   7.486 -1.5731  0.2427  0.0808
  495MOL0     C68174   9.774   0.406   7.398  0.6069  0.7024 -0.0536
  495MOL0     O68175   9.715   0.393   7.276 -0.4465  0.0441  0.7727
  495MOL0     C68176   9.626   0.285   7.257 -0.4364  0.4809  0.3506
  495MOL0     C68177   9.493   0.316   7.244  0.1898 -0.0907  0.2647
  495MOL0     C68178   9.392   0.214   7.230  0.6873  0.1778  0.2609
  495MOL0     C68179   9.432   0.079   7.219 -0.1908 -0.2509  0.2576
  495MOL0     O68180   9.339  -0.024   7.205 -0.1987  0.0799  0.0544
  495MOL0     C68181   9.386  -0.148   7.144  0.2735 -0.2983 -0.8618
  495MOL0     C68182   9.257  -0.213   7.103  0.2365  0.6181  0.0996
  495MOL0     C68183   9.200  -0.141   6.984  0.4387  0.5854  0.5473
  495MOL0     C68184   9.075  -0.220   6.918  0.4451  0.9191  0.0428
  495MOL0     C68185   9.021  -0.155   6.786  0.4438 -0.4824  0.4389
  495MOL0     C68186   9.110  -0.198   6.664 -0.0963 -0.2904 -0.2429
  495MOL0     C68187   9.122  -0.356   6.641 -1.2461 -1.1088 -0.5504
  495MOL0     C68188   8.994  -0.425   6.609  0.1188 -0.1360 -0.0786
  495MOL0     N68189   8.985  -0.570   6.609  0.9875  0.3217 -0.1331
  495MOL0     C68190   9.049  -0.661   6.532 -0.8761  0.5743 -0.8605
  495MOL0     C68191   9.057  -0.774   6.598 -0.1930  0.2571 -0.4460
  495MOL0     C68192   9.129  -0.902   6.560  0.1922 -0.4039  0.0791
  495MOL0     C68193   9.254  -0.857   6.491 -0.6472  0.7797  0.0244
  495MOL0     C68194   9.345  -0.980   6.457  0.0030 -1.0800 -0.0066
  495MOL0     C68195   9.419  -1.037   6.574  0.2674  0.2296  0.4725
  495MOL0     O68196   9.557  -1.037   6.535  0.0894  0.5488  0.1887
  495MOL0     C68197   9.645  -1.062   6.640 -0.7454 -0.0552 -0.1850
  495MOL0     C68198   9.628  -1.148   6.743  0.2813  0.6629 -0.4986
  495MOL0     C68199   9.723  -1.174   6.838 -0.2364 -0.2459  0.7446
  495MOL0     C68200   9.693  -1.272   6.943  0.4920  0.3228 -0.2013
  495MOL0     C68201   9.851  -1.114   6.820 -0.8204  0.2458 -0.1540
  495MOL0     C68202   9.983  -1.152   6.894  1.3687 -0.0738 -0.1976
  495MOL0     O68203  10.072  -1.051   6.892  0.5141  0.4161 -0.0361
  495MOL0     C68204  10.191  -1.074   6.950  0.6883 -0.2272  0.0504
  495MOL0     C68205  10.221  -1.150   7.059 -0.0505  0.1232 -0.4717
  495MOL0     C68206  10.358  -1.156   7.095 -0.7567  0.0123  0.2179
  495MOL0     C68207  10.460  -1.075   7.038  0.6473  0.5978  0.1397
  495MOL0     O68208  10.581  -1.091   7.098 -0.2672 -0.5084 -0.4449
  495MOL0     C68209  10.681  -1.010   7.035 -0.3326 -0.2837  1.7851
  495MOL0     C68210  10.807  -1.042   7.101  0.1624 -0.9373  0.0457
  495MOL0     C68211  10.937  -0.972   7.054 -0.3397 -0.5903  0.4657
  495MOL0     C68212  10.951  -0.829   7.111 -1.0699 -0.6440 -0.5883
  495MOL0     C68213  11.085  -0.770   7.059 -0.1902 -0.2406 -0.9553
  495MOL0     C68214  11.106  -0.631   7.135 -0.2235 -0.0739  0.2706
  495MOL0     C68215  11.226  -0.554   7.068 -0.2246 -0.5520  0.3424
  495MOL0     C68216  11.275  -0.444   7.152 -0.1105  0.6367  0.1505
  495MOL0    Cl68217  11.449  -0.421   7.153 -0.3046 -0.2407 -0.1445
  495MOL0     C68218  10.419  -1.003   6.923  0.2838 -0.7700  0.3461
  495MOL0     C68219  10.290  -1.002   6.882 -0.5318 -0.3192 -0.0172
  495MOL0     O68220   9.995  -1.264   6.949 -0.3739 -0.3242 -0.3502
  495MOL0     C68221   9.867  -1.040   6.705 -0.6073  0.4160 -0.1755
  495MOL0     C68222   9.773  -1.009   6.618 -0.4726 -0.2646  0.3534
  495MOL0     N68223   8.988  -0.758   6.722  0.3696  0.2806  1.4380
  495MOL0     N68224   8.949  -0.638   6.723  0.5405 -0.8044  0.3247
  495MOL0     C68225   9.577   0.055   7.226  1.0182  0.7925 -0.2434
  495MOL0     C68226   9.676   0.152   7.245  0.7671 -0.6301  0.3497
  495MOL0     C68227   9.859   0.524   7.420 -0.1805 -0.7035 -0.1729
  495MOL0     C68228   9.928   0.585   7.308 -0.0264  0.1754  0.0989
  495MOL0     C68229  10.025   0.684   7.333 -0.9946  0.8270 -0.1946
  495MOL0     C68230  10.050   0.727   7.463 -0.7430  0.2389  0.4288
  495MOL0     O68231  10.164   0.799   7.484  0.3818 -0.6058 -0.1549
  495MOL0     C68232  10.248   0.759   7.599 -0.0815  0.2789  0.2793
  495MOL0     C68233  10.398   0.771   7.561  0.9326 -0.0419 -0.2674
  495MOL0     C68234  10.490   0.704   7.657  0.8022  0.8626 -0.5874
  495MOL0     C68235  10.630   0.726   7.611 -0.2756 -0.8126 -0.1506
  495MOL0     C68236  10.718   0.694   7.720  0.0473  0.1660  0.4276
  495MOL0     C68237  10.799   0.660   7.796 -0.0297  0.6208  0.1570
  495MOL0     C68238   9.972   0.681   7.574 -0.7253 -0.0840  0.0480
  495MOL0     C68239   9.873   0.588   7.548  0.1289  1.4211  0.5010
  495MOL0     C68240   9.798   0.547   7.667 -0.2866 -0.1798 -0.7834
  495MOL0     H68241   9.472   0.421   7.262 -0.4812  0.4087 -2.8233
  495MOL0     H68242   9.288   0.242   7.222  1.0038  0.8350 -3.7746
  495MOL0     H68243   9.452  -0.205   7.209  0.4977  0.6686 -0.2203
  495MOL0     H68244   9.455  -0.125   7.062  1.1488  3.3872  0.6992
  495MOL0     H68245   9.269  -0.318   7.075 -1.4922  0.3847  0.0916
  495MOL0     H68246   9.187  -0.214   7.188 -0.4710 -2.0597 -0.4269
  495MOL0     H68247   9.147  -0.050   7.013 -2.6718 -1.5319  2.0574
  495MOL0     H68248   9.267  -0.102   6.907 -1.4848  1.5587 -0.7166
  495MOL0     H68249   9.102  -0.325   6.903  0.5581  0.9090  0.3146
  495MOL0     H68250   8.997  -0.229   6.994 -0.1808 -0.0776 -0.6954
  495MOL0     H68251   9.026  -0.047   6.805  0.0508 -0.0094 -1.9007
  495MOL0     H68252   8.920  -0.193   6.768  0.9032 -1.7180  0.4006
  495MOL0     H68253   9.073  -0.154   6.571  1.0812  0.0139 -0.5941
  495MOL0     H68254   9.210  -0.156   6.678  0.2794 -1.0040 -0.7087
  495MOL0     H68255   9.172  -0.395   6.730  0.9818 -1.7812 -2.0074
  495MOL0     H68256   9.190  -0.378   6.558 -2.3865 -2.3783 -1.1946
  495MOL0     H68257   8.921  -0.382   6.678 -1.6398 -2.9014 -0.0468
  495MOL0     H68258   8.957  -0.384   6.515  2.3971  1.6274 -0.2781
  495MOL0     H68259   9.107  -0.642   6.443  1.5761  0.0562  0.5524
  495MOL0     H68260   9.070  -0.956   6.486  0.8124 -0.1582 -0.6038
  495MOL0     H68261   9.147  -0.971   6.643  4.0230 -1.8267 -1.7085
  495MOL0     H68262   9.234  -0.819   6.391 -1.1401  1.4649  0.3765
  495MOL0     H68263   9.315  -0.793   6.556 -0.5888  1.7557 -0.9742
  495MOL0     H68264   9.269  -1.044   6.412 -1.1702 -0.5233  1.1149
  495MOL0     H68265   9.418  -0.956   6.379 -1.7917 -1.6289 -1.9752
  495MOL0     H68266   9.397  -0.971   6.659 -1.9818 -0.8324  0.8116
  495MOL0     H68267   9.379  -1.138   6.590  1.1518 -0.1970  0.0643
  495MOL0     H68268   9.530  -1.191   6.753 -1.0391  2.7433 -3.0328
  495MOL0     H68269   9.585  -1.289   6.934  0.9274 -2.9886 -0.3926
  495MOL0     H68270   9.718  -1.250   7.048 -0.6230 -2.2106  0.6673
  495MOL0     H68271   9.739  -1.370   6.926 -0.2385  0.5088 -3.9676
  495MOL0     H68272  10.154  -1.199   7.129  1.0669  1.8959  1.9673
  495MOL0     H68273  10.368  -1.211   7.188  1.0196 -0.0558  0.0316
  495MOL0     H68274  10.694  -1.034   6.929 -0.4191 -1.7703  2.0817
  495MOL0     H68275  10.666  -0.902   7.039  0.9950  0.0483 -0.4349
  495MOL0     H68276  10.787  -1.035   7.208 -1.8388 -1.3502 -0.2673
  495MOL0     H68277  10.824  -1.148   7.077  0.4200 -1.6418  3.0101
  495MOL0     H68278  10.951  -0.957   6.946 -2.9600  1.5416  0.3010
  495MOL0     H68279  11.015  -1.039   7.091  0.0372  0.0290  0.8027
  495MOL0     H68280  10.950  -0.822   7.220  0.3190 -1.5854 -0.4813
  495MOL0     H68281  10.868  -0.763   7.085  0.3157  0.6195 -2.0128
  495MOL0     H68282  11.164  -0.838   7.091 -0.4354 -1.2649 -2.4668
  495MOL0     H68283  11.076  -0.757   6.951 -1.4524  0.5615 -0.7864
  495MOL0     H68284  11.132  -0.653   7.239  4.4918 -1.1051 -0.8843
  495MOL0     H68285  11.019  -0.566   7.136  0.3143  0.8868 -3.0984
  495MOL0     H68286  11.197  -0.517   6.969 -0.4767 -3.5308 -0.7909
  495MOL0     H68287  11.319  -0.611   7.063  2.2314  3.0639  0.5227
  495MOL0     H68288  11.237  -0.471   7.251 -1.0301  1.3687  0.0080
  495MOL0     H68289  11.229  -0.348   7.129 -0.0865  0.4778 -0.5719
  495MOL0     H68290  10.487  -0.932   6.876 -0.2344 -0.3583  0.2183
  495MOL0     H68291  10.267  -0.943   6.794 -1.4222 -0.4854  0.0917
  495MOL0     H68292   9.965  -1.001   6.677 -0.1334 -0.3573  0.3581
  495MOL0     H68293   9.794  -0.949   6.531  0.6113  0.9426  1.3962
  495MOL0     H68294   9.609  -0.048   7.236 -1.5484 -0.0648 -0.1969
  495MOL0     H68295   9.779   0.126   7.263  1.0171  0.1789  0.1170
  495MOL0     H68296   9.912   0.548   7.207 -0.3851 -0.6818  0.4556
  495MOL0     H68297  10.089   0.736   7.263  1.0105 -0.6396  0.4343
  495MOL0     H68298  10.232   0.811   7.694 -1.8452 -1.4748  1.0133
  495MOL0     H68299  10.227   0.654   7.624 -1.0909  0.4837  0.3061
  495MOL0     H68300  10.428   0.874   7.537 -0.2194 -0.0183 -1.7381
  495MOL0     H68301  10.413   0.716   7.468  1.7610  0.8093 -0.6528
  495MOL0     H68302  10.471   0.735   7.760 -3.6743  0.1335 -1.0095
  495MOL0     H68303  10.473   0.596   7.657 -1.7682  1.2067 -1.4275
  495MOL0     H68304  10.637   0.827   7.571 -1.2783  0.1099  1.9106
  495MOL0     H68305  10.655   0.661   7.526  2.1712  0.7595 -0.7380
  495MOL0     H68306  10.868   0.640   7.876 -1.0018  2.2731  1.4689
  495MOL0     H68307  10.002   0.732   7.665 -0.1607  1.8998 -1.1866
  495MOL0     H68308   9.813   0.444   7.699  0.8992  0.2207  0.0248
  495MOL0     H68309   9.813   0.601   7.761 -3.7793 -1.4933  0.6812
  495MOL0     H68310   9.689   0.545   7.657 -0.3811  2.5077 -1.2008
  496MOL0     O68311   5.656   0.341   5.780 -0.3029 -0.1406 -0.1215
  496MOL0     C68312   5.656   0.395   5.673  0.4800  0.3217  0.5453
  496MOL0     O68313   5.764   0.401   5.593 -0.4445  0.0257  0.7777
  496MOL0     C68314   5.887   0.340   5.616 -0.1146  0.0233  0.6500
  496MOL0     C68315   5.952   0.316   5.738 -0.7622 -0.1775 -0.0447
  496MOL0     C68316   6.084   0.270   5.745 -0.0336  0.4110 -0.0336
  496MOL0     C68317   6.135   0.220   5.624 -0.4423  0.7872  0.5860
  496MOL0     O68318   6.243   0.141   5.637 -0.3449  0.2476  0.3840
  496MOL0     C68319   6.300   0.073   5.523  0.4076 -0.9829  0.6335
  496MOL0     C68320   6.433  -0.008   5.538 -0.2208  1.0166  1.0493
  496MOL0     C68321   6.534   0.073   5.596 -0.5597  1.2583 -0.1996
  496MOL0     C68322   6.667  -0.001   5.639 -0.1465 -0.5247  0.0549
  496MOL0     C68323   6.765   0.096   5.706  0.1006 -0.1251  0.3941
  496MOL0     C68324   6.898   0.015   5.756  0.4723 -1.1123 -0.0327
  496MOL0     C68325   6.999   0.117   5.816  0.1429 -0.1821 -0.0846
  496MOL0     C68326   7.061   0.199   5.707 -0.1362  0.3188  0.4755
  496MOL0     N68327   7.168   0.285   5.760 -0.3207 -0.2404  0.0641
  496MOL0     C68328   7.140   0.400   5.836  0.7363 -0.2470  0.4479
  496MOL0     C68329   7.259   0.455   5.841  0.5732 -0.2736 -0.4744
  496MOL0     C68330   7.294   0.578   5.914 -0.3740 -0.5133 -0.5179
  496MOL0     C68331   7.420   0.648   5.860 -1.2961 -0.1269  0.3383
  496MOL0     C68332   7.447   0.783   5.925 -0.2332  0.6117 -0.9621
  496MOL0     C68333   7.500   0.886   5.832 -0.1264 -0.4088 -0.5752
  496MOL0     O68334   7.624   0.852   5.775  0.1378  0.4389 -0.0785
  496MOL0     C68335   7.739   0.895   5.827 -0.4604 -0.3517 -0.0848
  496MOL0     C68336   7.755   0.942   5.957 -0.2512  0.0441 -0.9743
  496MOL0     C68337   7.879   0.967   6.019  1.1113  0.0429 -0.0330
  496MOL0     C68338   7.874   1.027   6.157 -0.3076 -0.4111  1.0959
  496MOL0     C68339   8.004   0.935   5.953 -0.1737  1.1674  0.5803
  496MOL0     C68340   8.138   0.939   6.022  0.0188  0.6753 -0.3338
  496MOL0     O68341   8.246   1.003   5.975 -0.1518 -0.2518 -0.9569
  496MOL0     C68342   8.339   1.034   6.071  0.0707 -0.2233  0.5155
  496MOL0     C68343   8.318   1.080   6.209  0.4255 -0.3100  0.0772
  496MOL0     C68344   8.424   1.125   6.287 -0.0819  0.2662  0.6931
  496MOL0     C68345   8.554   1.130   6.237  0.0205  0.1518  0.4440
  496MOL0     O68346   8.644   1.189   6.323 -0.6014 -0.4444  0.6428
  496MOL0     C68347   8.763   1.238   6.257  0.1993 -0.1739  1.2090
  496MOL0     C68348   8.821   1.355   6.339 -0.5020 -0.7259  0.5579
  496MOL0     C68349   8.960   1.388   6.285  0.8603 -0.1345  0.1146
  496MOL0     C68350   9.030   1.502   6.360  0.0966 -0.6331  0.4084
  496MOL0     C68351   9.176   1.505   6.320 -0.1343  0.4970 -0.4308
  496MOL0     C68352   9.261   1.626   6.376  0.9947  0.1843  0.0258
  496MOL0     C68353   9.383   1.647   6.285 -0.4774  0.0941 -0.2819
  496MOL0     C68354   9.492   1.728   6.359 -0.8390 -0.3022  0.9732
  496MOL0    Cl68355   9.433   1.871   6.437  0.3876 -0.5416 -0.2778
  496MOL0     C68356   8.572   1.077   6.111 -0.1586  0.3204  0.6086
  496MOL0     C68357   8.468   1.030   6.031 -0.1820 -0.2512 -0.2424
  496MOL0     O68358   8.138   0.866   6.125 -0.5522 -0.2902 -0.2817
  496MOL0     C68359   7.985   0.900   5.812  0.4563 -0.5270  0.6736
  496MOL0     C68360   7.856   0.891   5.755  0.3581 -0.4180 -0.6912
  496MOL0     N68361   7.358   0.380   5.784 -0.0439  0.1827  0.8532
  496MOL0     N68362   7.302   0.276   5.727  0.4516  0.6931  0.4507
  496MOL0     C68363   6.065   0.235   5.499 -0.7560  0.1561 -0.2261
  496MOL0     C68364   5.942   0.308   5.496 -0.0073 -0.0321  0.4748
  496MOL0     C68365   5.539   0.482   5.642 -0.0699 -0.4770  0.1512
  496MOL0     C68366   5.434   0.476   5.731 -0.0619  0.7510 -0.3239
  496MOL0     C68367   5.310   0.531   5.712  0.7909  0.4531 -0.2842
  496MOL0     C68368   5.289   0.608   5.599 -0.1453  0.4501  0.5614
  496MOL0     O68369   5.163   0.664   5.586 -0.2872  0.3515  0.0143
  496MOL0     C68370   5.133   0.754   5.484  0.0780 -0.6838  0.1574
  496MOL0     C68371   5.016   0.841   5.528  0.1436  0.7704  0.5948
  496MOL0     C68372   4.884   0.768   5.510 -0.1118 -0.6457  0.2608
  496MOL0     C68373   4.761   0.859   5.520 -0.2419 -0.5615 -0.0396
  496MOL0     C68374   4.772   0.982   5.436 -0.0837 -0.5193  0.0972
  496MOL0     C68375   4.791   1.082   5.367 -0.5507 -0.0550  0.0517
  496MOL0     C68376   5.397   0.618   5.501  0.2085  0.3911  0.0589
  496MOL0     C68377   5.513   0.551   5.518 -0.4713  0.1570 -0.0224
  496MOL0     C68378   5.622   0.564   5.412  0.1382  0.0961 -0.0674
  496MOL0     H68379   5.890   0.340   5.824 -1.5677  1.6371 -1.0677
  496MOL0     H68380   6.141   0.268   5.838  2.4987  1.5239 -1.4692
  496MOL0     H68381   6.317   0.158   5.456 -2.9442  1.2856  2.3684
  496MOL0     H68382   6.223   0.008   5.481 -0.2426 -0.6681  1.3095
  496MOL0     H68383   6.413  -0.102   5.589  0.2287 -0.1398 -0.8224
  496MOL0     H68384   6.474  -0.040   5.442 -3.6821  2.8335 -1.2240
  496MOL0     H68385   6.564   0.153   5.528 -0.7362  3.0814  1.8050
  496MOL0     H68386   6.495   0.111   5.690  0.9072 -0.6138  1.2453
  496MOL0     H68387   6.646  -0.084   5.707 -1.9068  1.0063  1.5196
  496MOL0     H68388   6.725  -0.034   5.552  0.2933  4.4447 -1.8441
  496MOL0     H68389   6.726   0.153   5.791 -0.7037 -0.1669  0.0641
  496MOL0     H68390   6.799   0.170   5.633  0.8262 -1.1405 -0.3164
  496MOL0     H68391   6.882  -0.056   5.838 -1.8184  0.9761  1.4663
  496MOL0     H68392   6.935  -0.045   5.672 -1.7480  1.0907 -2.7637
  496MOL0     H68393   7.082   0.062   5.863 -0.2870 -0.1547  0.7105
  496MOL0     H68394   6.954   0.182   5.892  1.9703  1.8086 -0.5870
  496MOL0     H68395   7.109   0.126   5.641  3.0228  0.8661  1.9556
  496MOL0     H68396   6.984   0.261   5.660 -3.7140 -3.1823  1.1883
  496MOL0     H68397   7.044   0.436   5.871  0.8712 -0.8014  1.4295
  496MOL0     H68398   7.307   0.542   6.016 -1.1317 -1.6124 -0.7907
  496MOL0     H68399   7.217   0.655   5.914 -2.5189 -2.5160  1.5785
  496MOL0     H68400   7.514   0.594   5.868 -1.2652 -1.0340 -3.7897
  496MOL0     H68401   7.404   0.672   5.754 -1.7456 -1.9569 -0.0389
  496MOL0     H68402   7.361   0.822   5.980  0.3846  0.8807 -0.1727
  496MOL0     H68403   7.516   0.760   6.007 -1.4221  1.5323  0.3459
  496MOL0     H68404   7.435   0.901   5.745  0.2408 -0.3924 -0.8495
  496MOL0     H68405   7.496   0.984   5.879 -1.9094  0.4183 -2.3250
  496MOL0     H68406   7.668   0.942   6.022  0.0308  0.5124 -0.5909
  496MOL0     H68407   7.944   1.110   6.170 -0.9593  0.0047  2.0106
  496MOL0     H68408   7.905   0.944   6.221  0.2345 -0.5935  0.6144
  496MOL0     H68409   7.769   1.056   6.167 -1.8202 -3.9303 -1.9899
  496MOL0     H68410   8.216   1.099   6.239  0.4515 -0.2136  0.1047
  496MOL0     H68411   8.393   1.184   6.373 -1.8921  1.7019 -0.8389
  496MOL0     H68412   8.825   1.149   6.249 -3.4195 -2.9375  1.4789
  496MOL0     H68413   8.748   1.275   6.155  2.6243 -3.3684 -0.4653
  496MOL0     H68414   8.768   1.451   6.328  2.3551  0.8338 -0.9217
  496MOL0     H68415   8.819   1.334   6.446 -0.3692  1.9999  1.1713
  496MOL0     H68416   8.958   1.394   6.175 -1.7932  1.3202  0.1595
  496MOL0     H68417   9.010   1.297   6.319 -1.5065 -1.7520 -0.4501
  496MOL0     H68418   9.025   1.492   6.469 -2.9835  0.8997  0.5107
  496MOL0     H68419   8.981   1.597   6.335 -2.3102 -1.7790  0.5378
  496MOL0     H68420   9.223   1.412   6.355  1.1956  1.0694 -0.6458
  496MOL0     H68421   9.178   1.495   6.211 -0.2417 -0.4788 -0.3592
  496MOL0     H68422   9.291   1.618   6.481 -0.6717  5.5983  1.2306
  496MOL0     H68423   9.193   1.712   6.373  0.3856 -0.3060 -0.7336
  496MOL0     H68424   9.351   1.696   6.193 -0.9001  2.8189  1.2293
  496MOL0     H68425   9.428   1.551   6.259 -2.8546 -1.2766  0.3341
  496MOL0     H68426   9.577   1.745   6.293 -0.8713 -0.9965  0.7451
  496MOL0     H68427   9.541   1.660   6.429  1.4532 -0.4508 -0.6748
  496MOL0     H68428   8.671   1.062   6.068 -0.0772  0.5265  0.7240
  496MOL0     H68429   8.490   0.995   5.931  0.3659  0.1983 -0.2851
  496MOL0     H68430   8.075   0.910   5.752  0.7569  0.0649  1.2068
  496MOL0     H68431   7.848   0.853   5.653 -3.7294 -1.6315 -0.0856
  496MOL0     H68432   6.107   0.195   5.407 -0.8300 -0.6279  0.0674
  496MOL0     H68433   5.886   0.328   5.406  0.7152 -0.6641 -0.1221
  496MOL0     H68434   5.436   0.417   5.822 -1.6355  1.6116  0.3000
  496MOL0     H68435   5.233   0.516   5.787 -1.4445  1.9512 -2.1164
  496MOL0     H68436   5.215   0.827   5.477 -2.2840  2.3015  1.3362
  496MOL0     H68437   5.122   0.699   5.390 -1.8362 -3.3990  1.8248
  496MOL0     H68438   5.013   0.931   5.465 -1.5299 -0.1721 -0.7365
  496MOL0     H68439   5.029   0.866   5.634 -1.0742  2.2021  0.4386
  496MOL0     H68440   4.883   0.724   5.409  0.2811 -0.7744  0.3137
  496MOL0     H68441   4.882   0.692   5.589 -0.7086 -1.1674 -0.2334
  496MOL0     H68442   4.737   0.891   5.622  1.4473 -0.8685  0.4714
  496MOL0     H68443   4.677   0.801   5.480 -0.4768 -1.0046  1.0714
  496MOL0     H68444   4.803   1.170   5.308  2.5660 -2.3616 -3.1507
  496MOL0     H68445   5.393   0.695   5.425 -0.3908  1.3338  1.0193
  496MOL0     H68446   5.635   0.465   5.368 -2.1883 -0.2444 -0.1384
  496MOL0     H68447   5.590   0.629   5.330 -0.9327  1.2190  1.1738
  496MOL0     H68448   5.715   0.608   5.450 -0.0460  2.4287 -2.0641
  497MOL0     O68449   4.361  10.529   7.617  0.2437 -0.2157  0.6012
  497MOL0     C68450   4.342  10.614   7.539  0.0025  0.1454  0.3944
  497MOL0     O68451   4.447  10.698   7.483  0.7155 -0.5592  0.2724
  497MOL0     C68452   4.581  10.690   7.496 -0.3106  0.3346 -0.7925
  497MOL0     C68453   4.656  10.712   7.386  0.2646 -0.2634 -1.3929
  497MOL0     C68454   4.796  10.713   7.396 -0.3675  1.2910 -0.4592
  497MOL0     C68455   4.866  10.672   7.515  0.3524  0.3775  1.7052
  497MOL0     O68456   5.006  10.669   7.510  0.0089  0.0187  0.3808
  497MOL0     C68457   5.063  10.550   7.568 -0.5690  0.6453 -0.2349
  497MOL0     C68458   5.193  10.516   7.503 -0.2129  0.5660 -0.2154
  497MOL0     C68459   5.299  10.632   7.504  0.0063 -0.0198  0.4823
  497MOL0     C68460   5.353  10.665   7.642 -0.8241  0.5175  0.7639
  497MOL0     C68461   5.444  10.787   7.648 -0.5314  0.0527 -0.4825
  497MOL0     C68462   5.576  10.775   7.567  0.3230 -0.4317 -0.6592
  497MOL0     C68463   5.659  10.668   7.643  0.1521  0.3343  0.3378
  497MOL0     C68464   5.806  10.675   7.605 -0.9105 -0.5214 -0.1262
  497MOL0     N68465   5.861  10.818   7.624  0.0085 -0.1749  0.4884
  497MOL0     C68466   5.881  10.875   7.751  1.1822 -0.7321  1.1016
  497MOL0     C68467   5.950  10.989   7.722 -0.3455  0.3034  0.1035
  497MOL0     C68468   5.995  11.091   7.819 -0.8128  0.0493 -0.3230
  497MOL0     C68469   6.110  11.028   7.911  0.1110 -0.3663  0.1808
  497MOL0     C68470   6.188  11.132   7.979  0.0569 -0.9771 -0.0126
  497MOL0     C68471   6.308  11.083   8.062 -0.4156 -0.2740  1.1917
  497MOL0     O68472   6.259  11.019   8.183 -0.5361 -0.1953  0.5201
  497MOL0     C68473   6.361  10.996   8.269  0.7083 -0.3337  0.0893
  497MOL0     C68474   6.499  10.998   8.254 -0.7116 -0.0444  0.4484
  497MOL0     C68475   6.585  10.982   8.357 -0.1547 -0.0492 -0.9843
  497MOL0     C68476   6.731  10.991   8.311 -0.2303  0.4588  0.8852
  497MOL0     C68477   6.536  10.967   8.487 -0.6009 -0.3472  0.6545
  497MOL0     C68478   6.633  10.967   8.601  0.4405 -0.4952 -0.8599
  497MOL0     O68479   6.627  10.858   8.696 -0.4664 -0.3650  0.3218
  497MOL0     C68480   6.748  10.819   8.752 -0.1781  0.2250  0.1116
  497MOL0     C68481   6.880  10.853   8.713 -0.6185  0.7554  0.9964
  497MOL0     C68482   6.998  10.820   8.785  0.2759 -0.4531  0.0291
  497MOL0     C68483   6.980  10.743   8.896 -0.6841  0.6523 -1.1936
  497MOL0     O68484   7.076  10.684   8.964 -0.3842 -0.2150  0.7458
  497MOL0     C68485   7.208  10.702   8.908  1.0716 -0.5386 -0.1158
  497MOL0     C68486   7.288  10.822   8.957 -0.1658 -0.1687 -0.2188
  497MOL0     C68487   7.297  10.823   9.110 -0.5891 -0.3709  0.7716
  497MOL0     C68488   7.396  10.929   9.172  0.7780  0.1025  0.3617
  497MOL0     C68489   7.481  10.883   9.291  0.3485  0.3421 -0.1362
  497MOL0     C68490   7.551  11.000   9.360 -0.4085  0.8703  0.2332
  497MOL0     C68491   7.653  11.071   9.272 -0.8311 -0.3931  0.3642
  497MOL0     C68492   7.763  11.143   9.354  0.2816  0.7922 -0.0131
  497MOL0    Cl68493   7.679  11.275   9.449 -0.5288  0.5667 -0.2868
  497MOL0     C68494   6.853  10.702   8.947 -0.3579  0.0092  0.3089
  497MOL0     C68495   6.739  10.746   8.881 -0.3971 -0.5904 -0.1697
  497MOL0     O68496   6.709  11.061   8.601 -0.0580  0.0063 -0.0886
  497MOL0     C68497   6.400  10.960   8.511 -0.3417 -0.5471 -0.1777
  497MOL0     C68498   6.313  10.967   8.402  0.6925  0.1253  0.0198
  497MOL0     N68499   5.978  10.986   7.587 -0.1499  0.1577 -0.6032
  497MOL0     N68500   5.929  10.884   7.530 -0.2030  0.2661 -0.1812
  497MOL0     C68501   4.783  10.652   7.626 -0.1162  0.3903 -0.6731
  497MOL0     C68502   4.646  10.658   7.619 -0.0719  0.2731  0.0930
  497MOL0     C68503   4.204  10.644   7.487 -0.3975 -0.4282  0.0402
  497MOL0     C68504   4.183  10.718   7.367  0.7890 -0.2028 -0.6636
  497MOL0     C68505   4.061  10.759   7.324  0.7209  0.3035 -0.6242
  497MOL0     C68506   3.946  10.719   7.381 -0.5329 -0.4396 -0.2408
  497MOL0     O68507   3.816  10.747   7.345  1.4589  0.5812 -0.1173
  497MOL0     C68508   3.793  10.785   7.212 -0.3162  0.8803 -0.0168
  497MOL0     C68509   3.640  10.784   7.183 -0.2997 -0.4459  0.1894
  497MOL0     C68510   3.572  10.895   7.256 -0.0219  0.5481  0.8019
  497MOL0     C68511   3.560  11.029   7.177  0.3545 -0.6751 -0.2835
  497MOL0     C68512   3.511  11.123   7.274 -0.3262 -0.2612 -0.2558
  497MOL0     C68513   3.457  11.193   7.356 -0.5757  0.7417 -0.1280
  497MOL0     C68514   3.960  10.644   7.494 -0.4300  0.4015  0.4249
  497MOL0     C68515   4.081  10.600   7.553 -1.0177 -0.1404 -0.6344
  497MOL0     C68516   4.076  10.525   7.686 -0.0287  0.1000  0.0260
  497MOL0     H68517   4.603  10.741   7.296 -2.5835 -5.3428 -1.7192
  497MOL0     H68518   4.848  10.738   7.304 -0.4533 -0.3087 -0.9762
  497MOL0     H68519   4.997  10.465   7.550  3.5201 -2.4265 -2.3762
  497MOL0     H68520   5.074  10.575   7.673  0.2614  1.8628 -0.5891
  497MOL0     H68521   5.247  10.435   7.554 -0.2494 -0.1650 -1.2971
  497MOL0     H68522   5.175  10.490   7.398  0.8907  0.3470 -0.3608
  497MOL0     H68523   5.378  10.604   7.434 -1.3538 -0.3349 -1.0038
  497MOL0     H68524   5.247  10.719   7.463  0.5820  1.2004  2.2566
  497MOL0     H68525   5.267  10.671   7.709 -3.2229 -0.8002 -1.9438
  497MOL0     H68526   5.410  10.578   7.675 -1.1971  0.5104  1.3971
  497MOL0     H68527   5.460  10.814   7.753 -0.9499 -1.2177 -0.0642
  497MOL0     H68528   5.391  10.871   7.603 -1.3833 -0.1205  0.1688
  497MOL0     H68529   5.548  10.752   7.464 -2.2655  2.6190 -0.7875
  497MOL0     H68530   5.616  10.877   7.568 -1.4113  0.3595  2.0886
  497MOL0     H68531   5.620  10.569   7.620  0.7746  0.3538 -0.8535
  497MOL0     H68532   5.645  10.681   7.751  2.6540 -1.8863  1.0347
  497MOL0     H68533   5.859  10.604   7.669 -0.1744 -0.6776 -0.9053
  497MOL0     H68534   5.821  10.646   7.501 -0.7654 -1.0048  0.0298
  497MOL0     H68535   5.866  10.845   7.854  1.1472  0.2327  1.3886
  497MOL0     H68536   5.909  11.114   7.883  1.0812  1.7081  1.7971
  497MOL0     H68537   6.035  11.177   7.763 -0.7079 -0.4912 -1.0911
  497MOL0     H68538   6.077  10.955   7.985  3.7132 -2.1863  0.1871
  497MOL0     H68539   6.177  10.977   7.842  1.2110 -1.4739  1.9971
  497MOL0     H68540   6.208  11.203   7.898 -0.4413 -2.0833 -1.1486
  497MOL0     H68541   6.127  11.185   8.052  1.0569 -3.1226  2.5612
  497MOL0     H68542   6.358  11.010   7.997 -1.5305 -1.2366  1.3778
  497MOL0     H68543   6.388  11.155   8.081 -0.7366  0.2205  0.7020
  497MOL0     H68544   6.551  11.005   8.159  0.9240 -0.5789  1.2748
  497MOL0     H68545   6.758  11.097   8.299  0.4719  0.1200 -0.7452
  497MOL0     H68546   6.747  10.927   8.224 -0.7445  0.5587  0.7181
  497MOL0     H68547   6.810  10.957   8.380  1.1444 -1.1419 -1.3568
  497MOL0     H68548   6.892  10.906   8.619 -0.6642 -0.5215  0.2471
  497MOL0     H68549   7.093  10.859   8.749  0.4856 -2.7159 -2.0705
  497MOL0     H68550   7.262  10.612   8.939  2.7513  0.6829  0.6693
  497MOL0     H68551   7.208  10.699   8.799  1.9281 -2.0080 -0.1109
  497MOL0     H68552   7.388  10.800   8.918 -0.8845 -2.8964 -0.7110
  497MOL0     H68553   7.247  10.918   8.924 -3.8590 -0.7739  2.0556
  497MOL0     H68554   7.334  10.727   9.146  1.3071 -0.6803 -1.7898
  497MOL0     H68555   7.197  10.840   9.152 -1.4527  0.3030 -1.3963
  497MOL0     H68556   7.332  11.014   9.200  0.0563  0.3185 -1.7705
  497MOL0     H68557   7.457  10.968   9.090  0.2012  3.5884  1.4161
  497MOL0     H68558   7.412  10.841   9.365  1.1694 -0.1340  0.3722
  497MOL0     H68559   7.551  10.803   9.263  2.1378  1.5166  0.8138
  497MOL0     H68560   7.603  10.954   9.444  1.1968  0.5725 -0.8757
  497MOL0     H68561   7.483  11.069   9.411  0.3894  1.3676  0.6490
  497MOL0     H68562   7.605  11.146   9.209  1.9172  0.1600 -1.2654
  497MOL0     H68563   7.700  10.995   9.208  0.4268 -1.5877  2.5665
  497MOL0     H68564   7.836  11.187   9.286 -0.3621 -0.6664 -1.7424
  497MOL0     H68565   7.816  11.063   9.407  0.0058  1.6898  1.6555
  497MOL0     H68566   6.864  10.628   9.026  1.1719 -2.0343 -1.6911
  497MOL0     H68567   6.640  10.716   8.913 -0.8392  2.7774  2.1116
  497MOL0     H68568   6.379  10.936   8.615  2.0707  0.1699  0.5171
  497MOL0     H68569   6.206  10.955   8.412  0.6832 -2.2283 -2.0303
  497MOL0     H68570   4.822  10.627   7.724  0.0317  2.2202 -0.2267
  497MOL0     H68571   4.587  10.661   7.710  0.3892 -2.0046  0.5234
  497MOL0     H68572   4.265  10.765   7.315  1.3021 -0.1351  0.1826
  497MOL0     H68573   4.067  10.821   7.235  1.9820  2.5278  0.9060
  497MOL0     H68574   3.841  10.883   7.203  1.0181  0.0634 -3.2960
  497MOL0     H68575   3.834  10.709   7.145 -2.2375 -1.2025  1.0632
  497MOL0     H68576   3.609  10.684   7.215  1.1788 -1.4050 -1.2042
  497MOL0     H68577   3.607  10.784   7.079 -0.3746  1.8199  0.1551
  497MOL0     H68578   3.472  10.856   7.277 -0.7392  0.0447 -2.9539
  497MOL0     H68579   3.618  10.906   7.355 -2.4598 -0.0461  2.0795
  497MOL0     H68580   3.502  11.016   7.085 -1.6947 -2.2332  1.1364
  497MOL0     H68581   3.659  11.071   7.159  1.5226 -2.6220  1.1590
  497MOL0     H68582   3.415  11.248   7.438 -1.0389  0.5999 -0.2678
  497MOL0     H68583   3.871  10.627   7.554  0.2380  0.0931  1.3605
  497MOL0     H68584   3.975  10.519   7.726  0.1357  0.0287  0.4299
  497MOL0     H68585   4.116  10.424   7.673 -1.7654 -0.8826  1.8240
  497MOL0     H68586   4.139  10.574   7.761  1.7731 -3.2791  0.9371
  498MOL0     O68587   8.855   6.994   1.943 -0.9119  0.0822 -0.2282
  498MOL0     C68588   8.779   6.953   2.037 -0.9986  0.8946  0.3541
  498MOL0     O68589   8.772   6.824   2.083 -0.4259  0.4701  0.5669
  498MOL0     C68590   8.822   6.717   2.010  0.1151 -0.1466  0.8155
  498MOL0     C68591   8.821   6.696   1.867  0.1714  0.3720 -0.5922
  498MOL0     C68592   8.867   6.577   1.811 -0.2539 -0.6814  0.9425
  498MOL0     C68593   8.921   6.472   1.888  0.4906 -0.5292 -0.0660
  498MOL0     O68594   8.977   6.362   1.827 -0.2216  0.8283 -0.2928
  498MOL0     C68595   9.031   6.253   1.916  0.4491  0.0644  0.0279
  498MOL0     C68596   9.009   6.118   1.846  0.9154  0.1771  0.3144
  498MOL0     C68597   9.027   5.987   1.931  0.6096  0.4948 -0.4928
  498MOL0     C68598   8.981   5.869   1.843  0.9161  1.2239 -0.4803
  498MOL0     C68599   8.929   5.745   1.921  0.9560  0.6657 -0.4150
  498MOL0     C68600   9.028   5.706   2.031 -0.0853  0.9320 -0.9226
  498MOL0     C68601   8.959   5.592   2.109  0.2370  0.4917 -0.3976
  498MOL0     C68602   8.956   5.455   2.037  0.0843 -0.3931 -0.7516
  498MOL0     N68603   9.088   5.412   1.982 -0.2167 -0.4155  0.4826
  498MOL0     C68604   9.120   5.447   1.854  0.2954  0.7574  0.1106
  498MOL0     C68605   9.237   5.381   1.839 -0.3935 -0.1940 -0.6350
  498MOL0     C68606   9.332   5.382   1.715 -0.5166  0.8365  0.7160
  498MOL0     C68607   9.306   5.248   1.633 -0.4879  0.4074 -0.0880
  498MOL0     C68608   9.165   5.233   1.567  0.6067  0.1231  0.2653
  498MOL0     C68609   9.073   5.130   1.634 -0.2914  0.2813  1.0078
  498MOL0     O68610   8.946   5.154   1.575  0.0435  0.5117 -0.6776
  498MOL0     C68611   8.846   5.215   1.641  0.7944 -0.1150 -0.3520
  498MOL0     C68612   8.828   5.207   1.780  0.1508  0.0298  0.2777
  498MOL0     C68613   8.721   5.273   1.849 -0.1031 -0.3759  0.3877
  498MOL0     C68614   8.704   5.255   1.999  0.1144 -0.9101  0.4642
  498MOL0     C68615   8.648   5.366   1.772 -0.2371 -0.5558 -1.1995
  498MOL0     C68616   8.546   5.460   1.826  0.4430  1.1759 -0.1644
  498MOL0     O68617   8.449   5.480   1.738  0.3522 -0.3988  0.1641
  498MOL0     C68618   8.351   5.565   1.778  0.1262  0.0292  0.8667
  498MOL0     C68619   8.236   5.519   1.845 -0.5759 -1.5622 -0.2920
  498MOL0     C68620   8.133   5.606   1.882 -0.0830  0.4537 -0.0485
  498MOL0     C68621   8.144   5.741   1.858 -0.4656 -0.6456  0.0236
  498MOL0     O68622   8.044   5.823   1.882 -0.7877  0.1538 -0.4172
  498MOL0     C68623   8.053   5.957   1.839 -0.0351  0.0380  0.7181
  498MOL0     C68624   7.930   6.031   1.895 -0.0799 -0.9864 -0.3736
  498MOL0     C68625   7.806   6.018   1.810  0.0999 -0.5351 -0.6687
  498MOL0     C68626   7.688   6.059   1.900  0.7897  0.3627  0.0742
  498MOL0     C68627   7.560   6.066   1.821  0.0776 -0.2119 -0.2662
  498MOL0     C68628   7.555   6.166   1.705  0.0218  0.3224  0.3217
  498MOL0     C68629   7.412   6.180   1.663  0.7158 -0.1102  0.0468
  498MOL0     C68630   7.396   6.273   1.547  0.3645  0.0360  0.0241
  498MOL0    Cl68631   7.477   6.186   1.401 -0.1197  0.1776 -0.0028
  498MOL0     C68632   8.264   5.786   1.805 -0.4766 -0.3378  0.0649
  498MOL0     C68633   8.368   5.703   1.777  0.9476 -0.1404 -0.4726
  498MOL0     O68634   8.553   5.516   1.940 -0.5458  0.1412 -0.6953
  498MOL0     C68635   8.668   5.382   1.636  0.1739 -0.0616  0.9980
  498MOL0     C68636   8.768   5.305   1.569 -0.2450  1.0164 -0.0215
  498MOL0     N68637   9.269   5.313   1.960 -0.2888 -0.7798 -0.0724
  498MOL0     N68638   9.180   5.342   2.046  0.2984 -0.1541  0.3391
  498MOL0     C68639   8.919   6.484   2.027 -0.6874  0.0138 -0.3309
  498MOL0     C68640   8.871   6.608   2.084 -0.0054 -0.0436  0.1190
  498MOL0     C68641   8.680   7.052   2.096  0.8264  0.2107 -0.2126
  498MOL0     C68642   8.605   7.008   2.208 -0.0024 -0.6455  0.0247
  498MOL0     C68643   8.513   7.088   2.275  0.2319 -0.6044  0.5340
  498MOL0     C68644   8.477   7.215   2.231  0.3508  0.1489  0.2818
  498MOL0     O68645   8.398   7.307   2.291 -0.2906  0.4215  0.2251
  498MOL0     C68646   8.344   7.282   2.424  0.7306 -0.0560  0.5399
  498MOL0     C68647   8.201   7.340   2.440 -0.0742  0.1586  0.1471
  498MOL0     C68648   8.090   7.261   2.363  0.0385 -1.6206 -0.0307
  498MOL0     C68649   7.981   7.361   2.331  0.2656 -0.8269  0.0110
  498MOL0     C68650   7.866   7.289   2.272  0.0066  0.7449 -0.0825
  498MOL0     C68651   7.758   7.244   2.227 -0.2817 -0.7945  0.1934
  498MOL0     C68652   8.550   7.255   2.116  0.4893 -0.2049  1.8236
  498MOL0     C68653   8.647   7.177   2.048 -0.5909 -0.4336 -0.2490
  498MOL0     C68654   8.703   7.252   1.928 -0.0867  0.5111  0.3109
  498MOL0     H68655   8.763   6.766   1.809 -1.7262 -2.0824 -1.8523
  498MOL0     H68656   8.857   6.561   1.704  0.0941 -0.9216  0.9454
  498MOL0     H68657   8.994   6.236   2.018  0.4279  0.2380  0.0499
  498MOL0     H68658   9.137   6.277   1.924  0.3885  1.3566 -2.2440
  498MOL0     H68659   8.906   6.124   1.808 -0.2744  3.0128  3.4871
  498MOL0     H68660   9.066   6.099   1.755  0.3984  0.4114 -0.0688
  498MOL0     H68661   9.132   5.982   1.961  0.4328  4.2701  1.4470
  498MOL0     H68662   8.967   6.005   2.021 -2.9610 -0.9892 -2.3896
  498MOL0     H68663   8.911   5.896   1.764 -1.3604 -3.1899 -0.3047
  498MOL0     H68664   9.071   5.838   1.789  0.2019  2.0554 -2.2290
  498MOL0     H68665   8.916   5.661   1.853  1.0051 -2.7895  3.4421
  498MOL0     H68666   8.831   5.751   1.970  1.3184 -2.6011  0.9639
  498MOL0     H68667   9.130   5.687   1.995  0.9648  1.6376  1.4232
  498MOL0     H68668   9.049   5.783   2.106 -3.2414  2.1816 -1.1618
  498MOL0     H68669   8.857   5.617   2.140 -0.1708 -0.6228 -0.7726
  498MOL0     H68670   9.018   5.582   2.199  0.3957 -1.3495 -0.6734
  498MOL0     H68671   8.917   5.388   2.114 -1.6293 -2.6743 -3.4212
  498MOL0     H68672   8.882   5.440   1.958 -1.7602 -3.0397  1.2610
  498MOL0     H68673   9.071   5.515   1.785  1.2389  1.3486  0.0065
  498MOL0     H68674   9.440   5.382   1.732 -0.0291  1.5956 -1.8638
  498MOL0     H68675   9.299   5.473   1.663 -1.6757  0.7287  1.2233
  498MOL0     H68676   9.386   5.240   1.560 -2.3350  3.2628 -2.6805
  498MOL0     H68677   9.330   5.166   1.701  0.7950  0.2087 -0.7471
  498MOL0     H68678   9.121   5.331   1.589 -0.6423 -0.5421  0.8339
  498MOL0     H68679   9.170   5.211   1.460 -2.5831  1.7012 -0.3454
  498MOL0     H68680   9.119   5.034   1.609  1.5081  1.2064  0.5566
  498MOL0     H68681   9.080   5.138   1.743  2.2596 -0.0522  0.9502
  498MOL0     H68682   8.894   5.144   1.839 -0.5944 -0.4392  0.6358
  498MOL0     H68683   8.601   5.220   2.016  0.3499 -1.8399  0.0628
  498MOL0     H68684   8.719   5.357   2.036  2.9193 -0.3401 -1.8515
  498MOL0     H68685   8.783   5.192   2.041  0.6212  0.2461  1.2722
  498MOL0     H68686   8.227   5.413   1.868  0.1485 -1.3350  1.2046
  498MOL0     H68687   8.038   5.576   1.926  1.0922 -2.3871  0.7213
  498MOL0     H68688   8.144   6.008   1.872  0.9659 -0.9251 -0.4075
  498MOL0     H68689   8.051   5.967   1.730  2.6123  0.2955  0.6323
  498MOL0     H68690   7.901   6.001   1.997  0.9357  1.7899  0.8137
  498MOL0     H68691   7.958   6.135   1.914 -1.3870 -0.8741  1.1695
  498MOL0     H68692   7.790   5.916   1.774 -0.3630 -1.5924  2.2506
  498MOL0     H68693   7.822   6.092   1.730  0.4565  1.3168  1.0267
  498MOL0     H68694   7.696   6.161   1.939 -0.7978  0.4963  0.1146
  498MOL0     H68695   7.677   5.981   1.976  0.7563 -0.3851 -0.6786
  498MOL0     H68696   7.531   5.965   1.788 -2.0385  0.2918 -0.0901
  498MOL0     H68697   7.480   6.103   1.886 -1.1336 -0.5957 -1.4799
  498MOL0     H68698   7.617   6.126   1.624  0.0589 -1.8187  1.3495
  498MOL0     H68699   7.607   6.251   1.750  0.8391 -1.2100  2.4101
  498MOL0     H68700   7.348   6.222   1.741 -0.0890  0.1080 -0.7134
  498MOL0     H68701   7.361   6.083   1.652  1.2337 -0.3238 -0.5649
  498MOL0     H68702   7.437   6.372   1.566 -2.3441  0.9558  1.5459
  498MOL0     H68703   7.291   6.293   1.524 -0.7086 -0.3141  3.9893
  498MOL0     H68704   8.288   5.891   1.791  1.3726 -1.0210 -2.6962
  498MOL0     H68705   8.464   5.734   1.737  0.8369 -1.2850 -1.6734
  498MOL0     H68706   8.611   5.455   1.581  1.7695  0.4788 -0.0147
  498MOL0     H68707   8.776   5.307   1.461  0.8897 -1.0823 -0.0294
  498MOL0     H68708   8.954   6.405   2.092  3.5187 -0.1134 -2.4294
  498MOL0     H68709   8.879   6.627   2.190  0.0499  0.6406 -0.0044
  498MOL0     H68710   8.629   6.910   2.247  0.4488  0.2099  1.9777
  498MOL0     H68711   8.468   7.052   2.366  0.9894 -0.9203  0.7891
  498MOL0     H68712   8.350   7.175   2.446  2.8452  0.0773  0.8818
  498MOL0     H68713   8.412   7.319   2.501  2.7395  0.1486 -1.2404
  498MOL0     H68714   8.205   7.444   2.406 -0.5827  0.6576  1.5354
  498MOL0     H68715   8.170   7.343   2.545  2.4264  0.5924  0.9354
  498MOL0     H68716   8.141   7.226   2.272  3.9402  0.5062  1.1018
  498MOL0     H68717   8.043   7.177   2.416  2.2484 -2.1861  1.1548
  498MOL0     H68718   8.010   7.439   2.260 -1.3390  0.4843  0.7371
  498MOL0     H68719   7.945   7.401   2.426 -2.2856 -1.5870 -0.5720
  498MOL0     H68720   7.664   7.220   2.182  0.2448  0.0709 -1.4406
  498MOL0     H68721   8.525   7.352   2.076 -0.5578 -1.3218 -0.4362
  498MOL0     H68722   8.791   7.313   1.951  1.3089 -0.0543 -2.9043
  498MOL0     H68723   8.732   7.188   1.844 -0.2621  0.3652  0.3616
  498MOL0     H68724   8.622   7.313   1.888  0.9482  1.3276 -0.6212
  499MOL0     O68725   2.599   5.296   5.595  0.5860  0.0326  0.2365
  499MOL0     C68726   2.522   5.360   5.519 -0.0982 -0.2266 -0.2059
  499MOL0     O68727   2.559   5.427   5.416  0.5596 -0.3891  0.5477
  499MOL0     C68728   2.688   5.480   5.417  0.5379 -0.6760 -0.4138
  499MOL0     C68729   2.781   5.427   5.333  0.4243  0.3918  0.0429
  499MOL0     C68730   2.915   5.467   5.337  0.5580 -0.1079  0.3747
  499MOL0     C68731   2.952   5.569   5.419  1.2991  0.0458  0.2160
  499MOL0     O68732   3.072   5.626   5.415  0.1206  0.1875 -0.5239
  499MOL0     C68733   3.125   5.677   5.292  0.3064  0.0773 -0.2430
  499MOL0     C68734   3.247   5.765   5.327  0.6492 -0.1829  0.2881
  499MOL0     C68735   3.363   5.671   5.386 -0.6115  0.4836  0.7111
  499MOL0     C68736   3.498   5.741   5.391  0.6574  0.5254  0.8446
  499MOL0     C68737   3.601   5.633   5.414 -0.1628 -0.2511  0.0667
  499MOL0     C68738   3.748   5.678   5.439 -0.0836  0.5518  0.4405
  499MOL0     C68739   3.841   5.550   5.449  1.4222  0.0092 -0.7607
  499MOL0     C68740   3.983   5.578   5.499 -0.3394  0.4944 -0.2115
  499MOL0     N68741   4.088   5.504   5.424 -0.5150 -0.5024 -0.4184
  499MOL0     C68742   4.196   5.442   5.485 -0.3962 -0.9497 -0.1882
  499MOL0     C68743   4.263   5.386   5.378  0.1285 -0.4942 -0.1148
  499MOL0     C68744   4.395   5.315   5.377  0.1947  0.2333  0.6809
  499MOL0     C68745   4.374   5.195   5.462  0.3133 -0.2895 -0.4057
  499MOL0     C68746   4.486   5.096   5.449 -0.3694  0.0130 -0.2279
  499MOL0     C68747   4.498   4.968   5.536  0.1095  0.1468  0.9202
  499MOL0     O68748   4.573   4.870   5.460  0.2338 -0.1747  0.0346
  499MOL0     C68749   4.519   4.794   5.366 -0.5200  1.0240 -0.3342
  499MOL0     C68750   4.606   4.695   5.315  0.2630 -0.5734 -0.4525
  499MOL0     C68751   4.570   4.614   5.206  0.1463  0.0716  1.0603
  499MOL0     C68752   4.672   4.505   5.179  0.0336  0.0709 -0.2147
  499MOL0     C68753   4.436   4.631   5.152 -0.1438  0.3188  0.0578
  499MOL0     C68754   4.390   4.548   5.040  0.4615 -0.1334 -0.2559
  499MOL0     O68755   4.273   4.477   5.049  0.2736  0.4336 -0.6714
  499MOL0     C68756   4.269   4.368   4.974 -0.4944 -0.2533 -0.0648
  499MOL0     C68757   4.218   4.371   4.840  0.4657  0.3468  0.0794
  499MOL0     C68758   4.213   4.257   4.764  0.4000 -0.5651  0.2968
  499MOL0     C68759   4.271   4.137   4.806 -0.4170  0.2153  0.5139
  499MOL0     O68760   4.273   4.023   4.725 -0.6429 -0.2242  0.0697
  499MOL0     C68761   4.333   4.027   4.591 -0.0609 -0.1846 -0.6652
  499MOL0     C68762   4.371   3.893   4.545 -0.8775 -0.1650 -0.2790
  499MOL0     C68763   4.462   3.902   4.420  0.7185 -0.0034 -0.0442
  499MOL0     C68764   4.518   3.765   4.392 -0.4349  1.1381  0.1643
  499MOL0     C68765   4.626   3.765   4.283  0.3555 -1.4283  0.5197
  499MOL0     C68766   4.653   3.635   4.210 -0.9378  0.3485 -0.4824
  499MOL0     C68767   4.669   3.518   4.319 -0.4231 -0.1086  0.4972
  499MOL0     C68768   4.804   3.529   4.404 -0.4275  0.0988 -0.5409
  499MOL0    Cl68769   4.793   3.407   4.542 -0.1369  0.0579 -0.0685
  499MOL0     C68770   4.303   4.130   4.939  0.0758 -0.5528 -0.0537
  499MOL0     C68771   4.305   4.246   5.025 -0.0501 -0.2572 -0.1038
  499MOL0     O68772   4.472   4.542   4.955 -0.1252 -0.7165  0.1142
  499MOL0     C68773   4.345   4.719   5.212  0.1935 -0.8476 -0.6132
  499MOL0     C68774   4.397   4.804   5.314 -0.1739  1.2101  0.5530
  499MOL0     N68775   4.198   5.439   5.262  0.3391 -0.0321  0.1360
  499MOL0     N68776   4.101   5.516   5.297 -0.4524 -0.2842  0.9161
  499MOL0     C68777   2.860   5.614   5.515 -0.3972  0.6437 -0.5316
  499MOL0     C68778   2.724   5.569   5.520  0.2998  0.0399 -0.0408
  499MOL0     C68779   2.374   5.330   5.544 -0.3467  0.1304 -0.2349
  499MOL0     C68780   2.331   5.318   5.678  0.6561 -0.1140 -0.0254
  499MOL0     C68781   2.195   5.308   5.706  0.2296  1.0426  1.0951
  499MOL0     C68782   2.106   5.290   5.601  0.3366  0.0317 -0.0237
  499MOL0     O68783   1.969   5.295   5.608  0.1975  0.1372  1.2169
  499MOL0     C68784   1.908   5.369   5.717  0.8205  0.2683 -0.8702
  499MOL0     C68785   1.758   5.359   5.728 -0.8707  0.1704  0.4547
  499MOL0     C68786   1.682   5.418   5.610 -0.4309 -0.3181  0.3130
  499MOL0     C68787   1.546   5.470   5.649  0.3751  0.4503 -0.7020
  499MOL0     C68788   1.557   5.593   5.729  0.0710  0.5467  0.3474
  499MOL0     C68789   1.579   5.699   5.782 -0.2276 -0.1869  0.5219
  499MOL0     C68790   2.155   5.278   5.467 -0.9236  0.5329  1.0366
  499MOL0     C68791   2.291   5.305   5.438 -0.7235  0.4350  0.2840
  499MOL0     C68792   2.316   5.289   5.291 -0.1129 -0.6755 -0.8813
  499MOL0     H68793   2.745   5.354   5.262 -0.6542  0.4055  0.5596
  499MOL0     H68794   2.981   5.423   5.263 -0.3838 -0.5494 -0.2331
  499MOL0     H68795   3.052   5.737   5.237  0.1554 -1.2370 -1.5241
  499MOL0     H68796   3.159   5.599   5.223  0.4748  0.3963 -0.5281
  499MOL0     H68797   3.290   5.820   5.243  1.6256 -1.8417 -0.3349
  499MOL0     H68798   3.209   5.851   5.383  2.7584  1.2960 -0.4189
  499MOL0     H68799   3.332   5.636   5.485 -0.5523 -0.1293  0.5175
  499MOL0     H68800   3.368   5.585   5.319 -4.6416  1.0346 -0.5889
  499MOL0     H68801   3.516   5.780   5.291 -0.5025 -1.2045 -0.0791
  499MOL0     H68802   3.494   5.820   5.467 -3.1112  0.5590  0.7979
  499MOL0     H68803   3.609   5.577   5.320  2.9061 -0.8015  0.5383
  499MOL0     H68804   3.570   5.561   5.489 -0.5298 -1.6598 -1.3795
  499MOL0     H68805   3.776   5.742   5.355  3.1589  1.6906  2.2080
  499MOL0     H68806   3.746   5.725   5.538 -3.9331 -1.2795  1.4098
  499MOL0     H68807   3.835   5.499   5.353 -2.9788 -2.3319  0.4768
  499MOL0     H68808   3.791   5.478   5.515 -1.4350 -1.5599 -4.2891
  499MOL0     H68809   4.013   5.682   5.483  1.4737 -0.2862 -2.4733
  499MOL0     H68810   3.992   5.554   5.605  1.3675 -2.2234 -0.8521
  499MOL0     H68811   4.225   5.438   5.590  0.6806 -1.6386 -0.4903
  499MOL0     H68812   4.481   5.379   5.394 -0.0225  0.8497 -0.4416
  499MOL0     H68813   4.406   5.270   5.278 -1.4727  0.0794  0.5426
  499MOL0     H68814   4.362   5.238   5.562 -2.4626  1.6220 -1.4542
  499MOL0     H68815   4.283   5.141   5.436  0.6290 -1.2482  0.4092
  499MOL0     H68816   4.503   5.061   5.347  2.6504 -1.6967  0.7212
  499MOL0     H68817   4.580   5.152   5.460 -1.3332  1.5576  0.4121
  499MOL0     H68818   4.554   4.996   5.626  2.0136 -1.9995  0.4830
  499MOL0     H68819   4.400   4.924   5.560 -0.3200  0.2168 -0.6253
  499MOL0     H68820   4.702   4.690   5.366 -0.6311  0.7631  1.4545
  499MOL0     H68821   4.773   4.532   5.210  0.4208  1.1688 -2.2679
  499MOL0     H68822   4.679   4.487   5.071 -0.6584 -1.4587 -0.0259
  499MOL0     H68823   4.638   4.411   5.223  0.4745 -0.2334 -0.5102
  499MOL0     H68824   4.181   4.460   4.791 -1.4516 -1.9692 -3.1085
  499MOL0     H68825   4.162   4.262   4.669 -3.7139 -1.0162  2.2696
  499MOL0     H68826   4.262   4.078   4.526  0.4057  0.9015 -0.3482
  499MOL0     H68827   4.419   4.094   4.605 -0.1016 -0.1243 -0.6979
  499MOL0     H68828   4.430   3.855   4.629  0.8996  2.2247 -0.3514
  499MOL0     H68829   4.290   3.821   4.528  0.0546 -1.3969  0.3609
  499MOL0     H68830   4.542   3.975   4.434 -1.9752  3.4133 -1.3129
  499MOL0     H68831   4.407   3.943   4.335  1.0537 -2.9352 -1.8333
  499MOL0     H68832   4.438   3.700   4.356 -0.6745  0.7573  1.3661
  499MOL0     H68833   4.566   3.727   4.482 -2.3668  0.9124  1.1426
  499MOL0     H68834   4.589   3.841   4.214 -1.6105  0.1631  3.1006
  499MOL0     H68835   4.721   3.787   4.333  0.0842 -1.2376  0.9582
  499MOL0     H68836   4.742   3.636   4.147  0.5172 -0.0944  1.4997
  499MOL0     H68837   4.565   3.609   4.149 -0.4296  0.4535 -1.2755
  499MOL0     H68838   4.675   3.431   4.253  0.5009  1.3831 -1.4556
  499MOL0     H68839   4.583   3.521   4.387 -0.0747 -0.9406  0.9934
  499MOL0     H68840   4.823   3.630   4.443 -1.9288  0.8049 -1.5765
  499MOL0     H68841   4.887   3.498   4.340 -2.4799 -3.5040 -1.6753
  499MOL0     H68842   4.323   4.036   4.989 -2.7674 -0.5414  1.3096
  499MOL0     H68843   4.332   4.240   5.129 -3.2366 -2.5877  0.7371
  499MOL0     H68844   4.242   4.731   5.180 -0.0783 -1.8528 -0.1466
  499MOL0     H68845   4.337   4.884   5.357 -3.8863 -1.5240  1.0226
  499MOL0     H68846   2.891   5.681   5.594  0.6524  0.6653 -0.9479
  499MOL0     H68847   2.646   5.604   5.587  0.2444  1.0280 -0.5976
  499MOL0     H68848   2.405   5.328   5.756 -0.2353 -2.0513  1.1388
  499MOL0     H68849   2.167   5.324   5.810  3.4597 -0.3995  2.2958
  499MOL0     H68850   1.956   5.318   5.801 -0.5653  3.8701  2.3801
  499MOL0     H68851   1.944   5.472   5.724 -0.7686  0.7293  1.1751
  499MOL0     H68852   1.724   5.425   5.809  1.1525  2.1864 -0.2371
  499MOL0     H68853   1.722   5.258   5.747  0.3267 -0.3683 -0.0684
  499MOL0     H68854   1.741   5.497   5.563 -0.2498  0.3938  1.6723
  499MOL0     H68855   1.660   5.333   5.545  0.3063 -3.2178  3.5627
  499MOL0     H68856   1.496   5.395   5.711 -3.2600 -1.5871 -5.4653
  499MOL0     H68857   1.479   5.479   5.563 -1.4452 -3.8487  0.0067
  499MOL0     H68858   1.607   5.789   5.833  3.4522  0.2347 -1.8275
  499MOL0     H68859   2.090   5.265   5.382 -0.8682 -0.4144  1.1289
  499MOL0     H68860   2.281   5.188   5.266 -0.9142 -0.8592  0.7924
  499MOL0     H68861   2.255   5.358   5.232 -2.2323 -1.9004 -0.2442
  499MOL0     H68862   2.419   5.303   5.258 -0.6394 -0.7519 -2.6405
  500MOL0     O68863   1.883   5.481   2.704  0.3988 -0.0862 -0.1746
  500MOL0     C68864   1.806   5.543   2.774  0.5957  0.7856 -0.1457
  500MOL0     O68865   1.843   5.613   2.880  0.4613  0.2775 -0.4564
  500MOL0     C68866   1.978   5.633   2.901  0.1273 -0.8981  0.7739
  500MOL0     C68867   2.057   5.702   2.812 -0.4028 -0.1914  0.2662
  500MOL0     C68868   2.194   5.706   2.837 -0.0457  0.6274  0.4314
  500MOL0     C68869   2.244   5.675   2.959 -1.1261  0.6113 -0.0390
  500MOL0     O68870   2.377   5.711   2.989  0.3368  0.0049 -0.4229
  500MOL0     C68871   2.437   5.687   3.115 -0.0427  0.2991 -0.2876
  500MOL0     C68872   2.541   5.573   3.105  0.2513  0.0492  0.0750
  500MOL0     C68873   2.647   5.587   2.993  0.4132 -0.0624 -0.2779
  500MOL0     C68874   2.746   5.480   3.035 -0.3837  0.5221 -0.7681
  500MOL0     C68875   2.868   5.491   2.940  0.0263  0.0397  0.2230
  500MOL0     C68876   2.942   5.356   2.952  0.0884 -0.1683 -0.5258
  500MOL0     C68877   3.081   5.360   2.882  0.0157  0.5432  0.2751
  500MOL0     C68878   3.080   5.417   2.739 -0.2132 -1.0552 -1.2597
  500MOL0     N68879   3.200   5.395   2.674 -0.6380 -0.4714  0.3090
  500MOL0     C68880   3.274   5.493   2.609  0.4699  0.2299  0.2884
  500MOL0     C68881   3.339   5.426   2.512  0.1469  0.2657 -0.4097
  500MOL0     C68882   3.412   5.494   2.398  0.1967 -0.5456  0.1091
  500MOL0     C68883   3.568   5.466   2.394 -0.0189 -0.1195 -0.5825
  500MOL0     C68884   3.582   5.324   2.324  0.1378 -0.4213  0.1432
  500MOL0     C68885   3.728   5.295   2.290 -0.4396 -0.4300  0.5852
  500MOL0     O68886   3.810   5.338   2.401 -0.0686 -0.1214  0.4313
  500MOL0     C68887   3.944   5.317   2.384 -0.1993  0.6073 -0.2266
  500MOL0     C68888   4.026   5.308   2.495 -0.2413  0.5779  0.5278
  500MOL0     C68889   4.162   5.276   2.475 -0.5918  0.0069 -0.3567
  500MOL0     C68890   4.238   5.271   2.603  0.6578 -0.4335 -0.3812
  500MOL0     C68891   4.221   5.262   2.347 -0.4957 -0.0304  0.3673
  500MOL0     C68892   4.360   5.234   2.320  0.0686 -0.5137 -0.7872
  500MOL0     O68893   4.385   5.128   2.233 -0.2859 -0.3321 -0.6330
  500MOL0     C68894   4.520   5.111   2.220  0.1335 -0.0805 -0.2828
  500MOL0     C68895   4.579   5.164   2.104 -1.2462 -0.1527  0.7480
  500MOL0     C68896   4.726   5.151   2.074  0.4339 -0.4142 -1.0869
  500MOL0     C68897   4.807   5.084   2.176 -0.8781 -0.2889 -0.3258
  500MOL0     O68898   4.939   5.078   2.160 -0.6833 -0.0471  0.4521
  500MOL0     C68899   5.016   5.003   2.259  0.0800  0.0238 -0.2595
  500MOL0     C68900   5.160   4.991   2.192 -0.2758 -0.3276 -0.2843
  500MOL0     C68901   5.230   5.129   2.148  0.1470 -0.4171 -0.2459
  500MOL0     C68902   5.372   5.113   2.084  0.1403 -0.0393  0.3665
  500MOL0     C68903   5.411   5.250   2.021  0.3532 -0.3247  0.0349
  500MOL0     C68904   5.547   5.235   1.952  0.3512 -0.1438  0.2799
  500MOL0     C68905   5.587   5.342   1.852  0.1698 -0.3472 -0.4394
  500MOL0     C68906   5.725   5.309   1.794 -0.2089  0.0989  0.1507
  500MOL0    Cl68907   5.792   5.429   1.680  0.1534  0.0107  0.0259
  500MOL0     C68908   4.739   5.043   2.293 -0.8327  0.3182 -0.6653
  500MOL0     C68909   4.601   5.060   2.319  0.2110  0.5030  0.7368
  500MOL0     O68910   4.444   5.318   2.365  0.0622  0.0024  0.3425
  500MOL0     C68911   4.132   5.271   2.243  0.0039  0.1357  0.0759
  500MOL0     C68912   4.000   5.305   2.258 -0.2122  0.2437 -0.5216
  500MOL0     N68913   3.313   5.289   2.519 -0.2412 -0.2617 -0.1520
  500MOL0     N68914   3.225   5.277   2.611 -0.1815 -0.5368 -0.9313
  500MOL0     C68915   2.165   5.613   3.049 -0.1120 -0.2974 -1.1390
  500MOL0     C68916   2.028   5.594   3.024  0.1388  0.1205 -0.4280
  500MOL0     C68917   1.656   5.546   2.742 -0.1684  0.2188  1.7397
  500MOL0     C68918   1.574   5.629   2.821 -0.5320  0.2339  0.1982
  500MOL0     C68919   1.443   5.647   2.792  0.3429  0.6664 -0.2629
  500MOL0     C68920   1.381   5.566   2.696 -0.5776 -0.1906 -0.1865
  500MOL0     O68921   1.247   5.569   2.661 -0.5491 -0.3408  0.5533
  500MOL0     C68922   1.164   5.659   2.725  0.5185 -0.3267  0.1389
  500MOL0     C68923   1.017   5.624   2.691 -1.5561  0.3916  0.3509
  500MOL0     C68924   0.978   5.676   2.549 -0.4164 -0.7657  0.1285
  500MOL0     C68925   0.833   5.648   2.542 -0.5629  0.5521 -0.1611
  500MOL0     C68926   0.787   5.703   2.416  0.3014  0.0897  0.6274
  500MOL0     C68927   0.737   5.728   2.308 -0.4616  0.5569 -0.2371
  500MOL0     C68928   1.454   5.467   2.628  0.0415  0.4921  0.7173
  500MOL0     C68929   1.593   5.453   2.652  0.2089  0.4038 -0.6889
  500MOL0     C68930   1.663   5.358   2.565 -0.0020  0.7248  0.4103
  500MOL0     H68931   2.031   5.747   2.716  3.5389  1.1253 -0.3769
  500MOL0     H68932   2.265   5.738   2.762  0.9651 -1.2647  0.5214
  500MOL0     H68933   2.370   5.675   3.200 -0.1238  2.8298  0.0738
  500MOL0     H68934   2.494   5.778   3.136  0.2315 -0.2909  1.6984
  500MOL0     H68935   2.586   5.571   3.205 -2.6034  2.0357  1.5435
  500MOL0     H68936   2.488   5.478   3.091 -1.2288  0.4231  2.5110
  500MOL0     H68937   2.606   5.588   2.891  0.9404  1.6392 -0.4925
  500MOL0     H68938   2.707   5.678   2.993  1.3630 -0.6541 -1.1910
  500MOL0     H68939   2.786   5.498   3.135  0.2731 -0.9236 -0.7425
  500MOL0     H68940   2.707   5.378   3.028  0.6950  0.1253 -1.3130
  500MOL0     H68941   2.935   5.571   2.974 -0.7732  0.5505  0.6393
  500MOL0     H68942   2.848   5.501   2.833 -0.0739 -0.6411  0.1744
  500MOL0     H68943   2.950   5.323   3.056 -0.5500 -0.2291 -0.4886
  500MOL0     H68944   2.887   5.275   2.902 -2.5336  1.8378 -1.1355
  500MOL0     H68945   3.096   5.252   2.874 -3.1436  0.0840 -1.2039
  500MOL0     H68946   3.162   5.403   2.941  1.4502  0.8671 -1.8155
  500MOL0     H68947   3.000   5.368   2.683 -1.8459  0.6602 -0.4974
  500MOL0     H68948   3.057   5.523   2.731  1.7635 -0.2799  1.6429
  500MOL0     H68949   3.267   5.602   2.613  1.1129  0.2296  2.6635
  500MOL0     H68950   3.407   5.601   2.420  1.8905 -0.7619  1.9342
  500MOL0     H68951   3.359   5.477   2.304 -1.3073 -1.7589  1.1351
  500MOL0     H68952   3.607   5.547   2.330  0.8414  0.2965  0.4455
  500MOL0     H68953   3.618   5.477   2.490  2.6635  0.5807 -1.9540
  500MOL0     H68954   3.559   5.244   2.395 -3.0202  0.7592  0.5756
  500MOL0     H68955   3.526   5.317   2.230  0.5457  1.6352 -0.2921
  500MOL0     H68956   3.739   5.187   2.271 -0.7977 -0.0188 -2.3813
  500MOL0     H68957   3.751   5.350   2.199 -3.4952  2.8395  1.5499
  500MOL0     H68958   3.975   5.328   2.589 -1.5118  0.6827 -0.1587
  500MOL0     H68959   4.169   5.272   2.688 -1.5056  1.8044 -2.0032
  500MOL0     H68960   4.309   5.353   2.619  0.3652 -0.2878  0.1971
  500MOL0     H68961   4.286   5.174   2.612  0.2614 -0.7142 -1.2493
  500MOL0     H68962   4.517   5.219   2.035  1.2066  2.8346  0.7121
  500MOL0     H68963   4.778   5.189   1.987  0.4792  0.8345 -0.5233
  500MOL0     H68964   5.013   5.061   2.352  0.8847 -1.1875  0.5532
  500MOL0     H68965   4.979   4.903   2.282  0.6499 -0.2056 -0.3263
  500MOL0     H68966   5.226   4.948   2.268  1.2531  1.2780 -0.6358
  500MOL0     H68967   5.154   4.926   2.105 -1.4019 -0.0158 -0.4579
  500MOL0     H68968   5.245   5.186   2.240  0.3194 -2.2430  0.9157
  500MOL0     H68969   5.164   5.187   2.083 -0.5084  0.5942  1.2633
  500MOL0     H68970   5.377   5.040   2.003 -0.1280  0.7761 -0.4078
  500MOL0     H68971   5.445   5.092   2.163  0.5100 -0.1725 -0.0119
  500MOL0     H68972   5.338   5.282   1.946  0.4289  1.1547  0.5640
  500MOL0     H68973   5.419   5.328   2.097 -1.1578 -0.5061  0.3919
  500MOL0     H68974   5.540   5.137   1.904 -1.8646  1.5458 -3.3164
  500MOL0     H68975   5.628   5.237   2.026  1.6634  2.4035 -1.0695
  500MOL0     H68976   5.580   5.445   1.886  1.1686  0.5773 -2.8213
  500MOL0     H68977   5.508   5.326   1.777 -0.2765  1.1932 -0.3190
  500MOL0     H68978   5.718   5.210   1.748  0.3625  0.0940  0.0694
  500MOL0     H68979   5.796   5.302   1.876 -0.6033  0.3282  0.5170
  500MOL0     H68980   4.782   4.992   2.378 -0.7204  2.6480  0.7805
  500MOL0     H68981   4.550   5.023   2.407 -0.1867 -2.3488 -0.5525
  500MOL0     H68982   4.170   5.266   2.142  2.4535 -0.5530  0.9508
  500MOL0     H68983   3.947   5.321   2.165  0.4111 -0.3471 -0.9936
  500MOL0     H68984   2.199   5.571   3.143  1.4340 -1.0369 -2.0024
  500MOL0     H68985   1.968   5.550   3.103  1.5169 -0.0354  0.5615
  500MOL0     H68986   1.620   5.703   2.886  0.0244  0.8438 -0.8589
  500MOL0     H68987   1.400   5.726   2.853 -1.4760 -2.2742  2.5862
  500MOL0     H68988   1.184   5.637   2.830 -0.1610  0.4575  0.4404
  500MOL0     H68989   1.190   5.765   2.716 -1.8067  0.3016  0.1964
  500MOL0     H68990   0.957   5.671   2.770  0.2050  1.1564  1.2824
  500MOL0     H68991   0.996   5.516   2.697 -1.7958 -0.1264 -5.0304
  500MOL0     H68992   0.984   5.784   2.535 -3.5626 -0.6812 -1.2930
  500MOL0     H68993   1.026   5.629   2.462  0.8817  0.4002  0.1780
  500MOL0     H68994   0.781   5.701   2.622  1.2318 -2.1060  3.0596
  500MOL0     H68995   0.820   5.540   2.555  2.8713 -0.0994 -1.1066
  500MOL0     H68996   0.697   5.726   2.209 -0.2579 -1.8061 -0.3286
  500MOL0     H68997   1.418   5.407   2.545  1.6413  0.2137  0.1900
  500MOL0     H68998   1.722   5.403   2.486 -0.9917  1.2163 -0.0761
  500MOL0     H68999   1.717   5.293   2.634 -2.2642 -0.0820  1.5470
  500MOL0     H69000   1.590   5.295   2.512 -5.3811  1.5313  5.6906
  501MOL0     O69001   8.232   8.823   8.963 -0.1533  0.3253 -0.2357
  501MOL0     C69002   8.193   8.787   9.077  0.0301 -0.8291  0.5854
  501MOL0     O69003   8.072   8.720   9.096  0.1902 -0.4906  0.1585
  501MOL0     C69004   7.998   8.701   8.977  0.4865  0.8005  0.1163
  501MOL0     C69005   8.047   8.620   8.874 -0.1974 -0.2634  0.2410
  501MOL0     C69006   7.967   8.571   8.766  0.2034 -0.7816  0.2793
  501MOL0     C69007   7.829   8.597   8.758  0.0020 -0.3898  0.9212
  501MOL0     O69008   7.756   8.572   8.643 -0.3312 -0.7370 -0.6681
  501MOL0     C69009   7.829   8.532   8.523  0.1186 -0.2426 -0.3345
  501MOL0     C69010   7.897   8.650   8.450  0.3203  0.6837 -0.4673
  501MOL0     C69011   7.978   8.604   8.331 -0.2628  0.2291 -0.4336
  501MOL0     C69012   8.115   8.560   8.385  1.2516 -1.0502 -0.8353
  501MOL0     C69013   8.215   8.538   8.267  0.3386 -0.0179 -0.1327
  501MOL0     C69014   8.348   8.510   8.321 -0.1527  0.1696  0.7085
  501MOL0     C69015   8.442   8.466   8.203  0.6874  0.5368  0.2536
  501MOL0     C69016   8.586   8.433   8.245 -1.3505  0.9573 -0.4560
  501MOL0     N69017   8.665   8.553   8.249 -0.6186 -0.4330 -0.5509
  501MOL0     C69018   8.717   8.614   8.137 -0.9849  0.2627  0.3029
  501MOL0     C69019   8.832   8.678   8.170  0.3698 -0.3676 -0.4103
  501MOL0     C69020   8.926   8.725   8.073 -0.0169 -0.2099  0.3349
  501MOL0     C69021   9.074   8.707   8.112 -0.4505  0.1661  0.5222
  501MOL0     C69022   9.173   8.747   7.995 -0.3644 -0.3616  0.1309
  501MOL0     C69023   9.160   8.900   7.946  0.2677  0.1095 -0.3796
  501MOL0     O69024   9.214   8.973   8.055 -0.2942  0.0135 -0.4501
  501MOL0     C69025   9.341   9.038   8.033  1.1121  0.3734  0.0203
  501MOL0     C69026   9.454   8.996   8.102 -0.6086  0.4194  0.2324
  501MOL0     C69027   9.586   9.050   8.093 -1.1218  0.3270 -0.8749
  501MOL0     C69028   9.705   8.981   8.160 -0.0813  0.2484  0.6170
  501MOL0     C69029   9.603   9.173   8.021 -0.1043  0.0654  0.4669
  501MOL0     C69030   9.720   9.253   8.016  0.2410  0.1357 -0.1364
  501MOL0     O69031   9.732   9.322   7.901  0.3578 -0.2265  0.0803
  501MOL0     C69032   9.845   9.392   7.888 -0.8137  0.4759 -0.0942
  501MOL0     C69033   9.942   9.346   7.793  0.3526 -0.0386  0.6398
  501MOL0     C69034  10.061   9.417   7.767  0.1435 -0.8642 -0.0732
  501MOL0     C69035  10.077   9.546   7.832  0.5331  0.6875  0.6476
  501MOL0     O69036  10.182   9.626   7.801 -0.1885  0.0232  0.0144
  501MOL0     C69037  10.235   9.626   7.668  0.7304 -1.1088 -0.2618
  501MOL0     C69038  10.305   9.765   7.646 -0.0079 -0.9343 -0.4148
  501MOL0     C69039  10.415   9.804   7.740 -0.9466 -0.3832 -0.1200
  501MOL0     C69040  10.472   9.948   7.712 -0.8825  0.4478  0.3465
  501MOL0     C69041  10.557  10.000   7.823 -0.0262  0.4168  0.3469
  501MOL0     C69042  10.596  10.148   7.797 -0.1440  0.2535 -0.2023
  501MOL0     C69043  10.640  10.213   7.929 -0.4470  0.1026 -0.2303
  501MOL0     C69044  10.677  10.358   7.901 -0.4849 -0.2928 -0.1210
  501MOL0    Cl69045  10.852  10.377   7.912 -0.4068 -0.1184 -0.3034
  501MOL0     C69046   9.986   9.586   7.931  0.1647 -0.1634  0.5250
  501MOL0     C69047   9.869   9.515   7.959 -1.1153  0.6042  0.2210
  501MOL0     O69048   9.788   9.269   8.115 -0.2751  0.2249  0.0734
  501MOL0     C69049   9.494   9.210   7.941 -0.6267  0.9042  0.4553
  501MOL0     C69050   9.364   9.146   7.954 -0.2364 -0.9105  0.3826
  501MOL0     N69051   8.840   8.681   8.313  0.6818 -0.3082 -0.0654
  501MOL0     N69052   8.739   8.599   8.354 -1.1091 -0.4165  0.9213
  501MOL0     C69053   7.779   8.674   8.869 -1.0374 -0.0083  0.6268
  501MOL0     C69054   7.860   8.722   8.979  1.3453 -0.4148 -0.3805
  501MOL0     C69055   8.272   8.825   9.202  0.1670  0.3913  0.5619
  501MOL0     C69056   8.192   8.823   9.320  0.4173 -0.1642  0.6464
  501MOL0     C69057   8.245   8.856   9.441  0.0758  0.1222 -1.0246
  501MOL0     C69058   8.377   8.881   9.460 -0.5349 -0.2765 -0.6269
  501MOL0     O69059   8.424   8.921   9.582  0.0677  0.9520  0.0395
  501MOL0     C69060   8.507   9.034   9.584  0.8216 -0.4475  0.4679
  501MOL0     C69061   8.649   8.986   9.620 -0.2644 -0.6533  0.1029
  501MOL0     C69062   8.676   8.944   9.773  0.0234 -0.6144  0.6829
  501MOL0     C69063   8.793   8.848   9.779 -0.2810  0.4342  0.0678
  501MOL0     C69064   8.918   8.921   9.755  0.5718  0.4057  0.5530
  501MOL0     C69065   9.017   8.990   9.746 -0.1690 -0.1970  0.5121
  501MOL0     C69066   8.456   8.861   9.347 -0.4157 -0.2177 -0.1118
  501MOL0     C69067   8.413   8.842   9.216 -0.0356  0.2865  0.9075
  501MOL0     C69068   8.516   8.835   9.102  0.0843  0.2010  0.1199
  501MOL0     H69069   8.156   8.613   8.869  0.1638  3.5393 -1.1467
  501MOL0     H69070   8.028   8.520   8.691  0.3552 -2.5902  1.5684
  501MOL0     H69071   7.754   8.497   8.452 -0.0712  2.4670 -1.6108
  501MOL0     H69072   7.890   8.443   8.541  2.0612  0.1494 -4.0147
  501MOL0     H69073   7.810   8.703   8.411 -0.7548 -1.7518 -1.5675
  501MOL0     H69074   7.958   8.700   8.526  1.6760 -1.0602 -0.3338
  501MOL0     H69075   7.931   8.522   8.275 -1.7632 -1.3529  2.8811
  501MOL0     H69076   7.998   8.687   8.262 -1.1165 -1.1192 -2.4151
  501MOL0     H69077   8.145   8.647   8.445 -2.3778 -1.4099  1.8847
  501MOL0     H69078   8.117   8.471   8.448  0.6420 -1.3248 -1.1975
  501MOL0     H69079   8.227   8.624   8.200  1.6525  1.6725  2.0833
  501MOL0     H69080   8.187   8.455   8.202  2.1097 -0.4188 -0.4345
  501MOL0     H69081   8.387   8.602   8.365 -1.9302  0.5583  1.5668
  501MOL0     H69082   8.342   8.433   8.398 -1.0275  0.0850  0.5655
  501MOL0     H69083   8.441   8.539   8.121 -0.8241 -1.4824 -1.6594
  501MOL0     H69084   8.389   8.390   8.144  1.7942 -0.9940  1.1471
  501MOL0     H69085   8.586   8.394   8.347 -3.7832 -2.5248 -1.6035
  501MOL0     H69086   8.628   8.376   8.162 -1.6374  3.2359 -2.2620
  501MOL0     H69087   8.681   8.583   8.039 -0.9464  1.3200 -0.0618
  501MOL0     H69088   8.913   8.830   8.043 -0.9732 -0.6066 -0.7192
  501MOL0     H69089   8.910   8.659   7.987 -3.3814 -2.3010  2.3604
  501MOL0     H69090   9.088   8.768   8.202  0.8166 -4.8245  4.1307
  501MOL0     H69091   9.106   8.604   8.133 -0.7507 -0.2831 -1.0986
  501MOL0     H69092   9.274   8.739   8.034 -0.1350  1.4642  0.0137
  501MOL0     H69093   9.170   8.681   7.908  1.6422  1.2139 -1.2148
  501MOL0     H69094   9.223   8.920   7.859  0.0021  1.4967 -0.2789
  501MOL0     H69095   9.058   8.926   7.916 -0.9932 -1.7051  1.9921
  501MOL0     H69096   9.436   8.922   8.179  2.4936 -0.1228  0.5592
  501MOL0     H69097   9.762   9.046   8.227 -0.2085  1.0593 -0.0458
  501MOL0     H69098   9.766   8.929   8.085 -1.8637 -2.9591  1.2193
  501MOL0     H69099   9.659   8.904   8.223 -1.4906  1.3344  0.9710
  501MOL0     H69100   9.915   9.253   7.743 -2.8809 -0.2265  2.4484
  501MOL0     H69101  10.131   9.388   7.689  1.9236  0.8814  0.8022
  501MOL0     H69102  10.322   9.559   7.664  1.3298 -0.4789  1.2503
  501MOL0     H69103  10.162   9.605   7.590  0.9192 -2.5223 -0.0933
  501MOL0     H69104  10.338   9.761   7.542 -2.7728 -0.7657 -1.3918
  501MOL0     H69105  10.236   9.850   7.648  2.4530  1.2177  2.1624
  501MOL0     H69106  10.494   9.734   7.712  1.3005  1.7645  0.4737
  501MOL0     H69107  10.388   9.779   7.843 -3.0967 -1.5376 -0.8944
  501MOL0     H69108  10.386  10.015   7.702 -0.9801  0.3099  0.2576
  501MOL0     H69109  10.517   9.957   7.612 -2.8542  0.6856 -0.5637
  501MOL0     H69110  10.506  10.001   7.920  0.7606  0.9681  0.7697
  501MOL0     H69111  10.646   9.937   7.839 -1.2322 -1.0915  1.4862
  501MOL0     H69112  10.511  10.204   7.756 -0.7413 -0.2904  0.2705
  501MOL0     H69113  10.674  10.154   7.720  2.3519 -1.8814  1.9572
  501MOL0     H69114  10.732  10.163   7.960 -0.2638  0.5390 -0.0722
  501MOL0     H69115  10.571  10.199   8.013  0.9889 -2.3147  0.6782
  501MOL0     H69116  10.624  10.426   7.969  0.5102  0.5456 -0.1555
  501MOL0     H69117  10.647  10.384   7.800  0.4895  0.0469 -0.3308
  501MOL0     H69118  10.017   9.674   7.987  1.0389 -0.6590  0.8398
  501MOL0     H69119   9.800   9.560   8.030  1.4028  2.5174  1.6490
  501MOL0     H69120   9.508   9.289   7.869  3.7171 -0.7653 -0.8946
  501MOL0     H69121   9.278   9.188   7.904  1.5788  0.0486 -2.1217
  501MOL0     H69122   7.673   8.695   8.871 -0.9391  0.5257  2.3881
  501MOL0     H69123   7.813   8.774   9.062 -2.4679  0.2402 -2.7152
  501MOL0     H69124   8.086   8.803   9.327  0.3066 -0.3909 -1.3118
  501MOL0     H69125   8.192   8.865   9.535 -0.9741 -0.1904 -1.5745
  501MOL0     H69126   8.502   9.078   9.484 -0.2214 -0.2508  0.5891
  501MOL0     H69127   8.472   9.113   9.651  0.0156 -3.0076  3.2908
  501MOL0     H69128   8.719   9.065   9.593  0.3527 -0.9226  0.8936
  501MOL0     H69129   8.692   8.910   9.554  1.7352  0.6052 -0.1278
  501MOL0     H69130   8.696   9.030   9.836  0.1950 -0.7802  0.8575
  501MOL0     H69131   8.586   8.893   9.808  0.7591 -0.2811  3.2181
  501MOL0     H69132   8.773   8.764   9.711  0.8154  0.9834 -0.9694
  501MOL0     H69133   8.784   8.810   9.881  0.3088  0.0895 -0.0029
  501MOL0     H69134   9.099   9.056   9.724 -1.9998  2.1586  0.3045
  501MOL0     H69135   8.563   8.864   9.365 -0.5323  0.5512  0.5007
  501MOL0     H69136   8.533   8.737   9.058  0.1957 -0.0995  0.8094
  501MOL0     H69137   8.479   8.893   9.017 -0.3264 -0.0741  0.1061
  501MOL0     H69138   8.614   8.873   9.131  1.4476 -2.2986 -0.9661
  502MOL0     O69139   1.620   5.417  11.251 -0.2110  0.5516  0.3911
  502MOL0     C69140   1.679   5.520  11.266  0.2838  0.2815 -0.8164
  502MOL0     O69141   1.633   5.626  11.340 -0.7373  0.6488 -0.0158
  502MOL0     C69142   1.525   5.611  11.429 -0.4576  0.2075 -0.2045
  502MOL0     C69143   1.401   5.636  11.390 -0.1898  0.6612 -0.1041
  502MOL0     C69144   1.294   5.592  11.470 -0.9271 -0.4907 -0.0034
  502MOL0     C69145   1.313   5.556  11.600 -0.2009 -0.3425 -0.4270
  502MOL0     O69146   1.206   5.492  11.669  0.6708 -0.9917  0.0035
  502MOL0     C69147   1.221   5.506  11.812 -0.0057  0.1657  0.6073
  502MOL0     C69148   1.093   5.484  11.885  0.3796  0.5205 -0.1248
  502MOL0     C69149   1.048   5.335  11.878  0.1672 -0.6162 -0.0280
  502MOL0     C69150   0.953   5.310  11.753  0.4236 -0.0861 -0.1070
  502MOL0     C69151   0.918   5.169  11.738 -0.0683 -0.5171 -1.0087
  502MOL0     C69152   0.812   5.149  11.626  0.7617  0.1983 -0.7352
  502MOL0     C69153   0.793   4.997  11.606 -0.5877  0.4138  0.5260
  502MOL0     C69154   0.649   4.982  11.554  0.2584  0.8331 -0.0714
  502MOL0     N69155   0.629   4.846  11.489  0.9490 -1.0356  0.1352
  502MOL0     C69156   0.570   4.820  11.363 -0.6096 -0.7523  0.1506
  502MOL0     C69157   0.599   4.686  11.338 -0.7121 -0.1989 -0.3724
  502MOL0     C69158   0.552   4.601  11.217 -0.5741 -0.2386  0.2086
  502MOL0     C69159   0.646   4.481  11.199 -0.3981 -0.3187  0.0676
  502MOL0     C69160   0.786   4.514  11.160 -0.3834 -0.2381 -0.6138
  502MOL0     C69161   0.883   4.393  11.134 -0.3600 -0.4533 -0.3671
  502MOL0     O69162   0.810   4.323  11.034 -0.3260 -0.0471  0.3189
  502MOL0     C69163   0.890   4.254  10.941  0.4189 -0.0803 -0.5163
  502MOL0     C69164   1.026   4.232  10.942 -0.3967  0.7789 -0.6451
  502MOL0     C69165   1.091   4.152  10.841  0.2557  0.6446 -1.1296
  502MOL0     C69166   1.235   4.130  10.849 -0.9744  0.4365 -0.1173
  502MOL0     C69167   1.012   4.102  10.731  0.0860 -0.7649 -0.9439
  502MOL0     C69168   1.074   4.021  10.617  0.7949  0.9412 -0.3463
  502MOL0     O69169   0.999   4.020  10.502 -0.2306  0.4780  0.1998
  502MOL0     C69170   1.028   3.909  10.426 -0.7069  0.2597 -0.2589
  502MOL0     C69171   1.114   3.919  10.314  0.5041  0.0328 -0.1796
  502MOL0     C69172   1.129   3.802  10.234 -0.8584  0.3475 -0.7743
  502MOL0     C69173   1.047   3.689  10.257  0.5467 -0.6426 -0.0664
  502MOL0     O69174   1.060   3.580  10.175 -1.6559  1.0142  0.0400
  502MOL0     C69175   0.967   3.472  10.174  0.1500  0.9918  0.6776
  502MOL0     C69176   1.010   3.352  10.081  0.0196 -0.4095 -1.0825
  502MOL0     C69177   1.012   3.388   9.926 -0.2344 -0.2662  0.2393
  502MOL0     C69178   1.122   3.472   9.882  0.0416 -0.6286  0.8967
  502MOL0     C69179   1.156   3.473   9.737  0.5180 -0.2404  0.2383
  502MOL0     C69180   1.048   3.549   9.661 -0.9556  0.6679  0.4519
  502MOL0     C69181   1.079   3.525   9.517  0.6084  0.3814  0.3714
  502MOL0     C69182   0.978   3.590   9.415  0.0471 -0.2068 -0.4005
  502MOL0    Cl69183   1.017   3.758   9.376 -0.3706 -0.0830  0.0201
  502MOL0     C69184   0.964   3.692  10.367 -0.4481  0.1975  0.3161
  502MOL0     C69185   0.945   3.799  10.448 -0.0303  0.1957 -0.1256
  502MOL0     O69186   1.170   3.945  10.646  0.0826 -0.1000  0.0990
  502MOL0     C69187   0.882   4.137  10.727  0.3967 -0.4313 -0.0117
  502MOL0     C69188   0.816   4.209  10.834  0.0840  0.8012 -0.1107
  502MOL0     N69189   0.639   4.640  11.464 -0.2047 -0.0572  0.2523
  502MOL0     N69190   0.665   4.731  11.545  0.6933  0.0631  0.1743
  502MOL0     C69191   1.449   5.527  11.645  0.0876 -0.1862  0.2709
  502MOL0     C69192   1.551   5.553  11.558  0.0507 -0.6510  0.6209
  502MOL0     C69193   1.790   5.554  11.185 -0.0727 -0.2093 -0.6415
  502MOL0     C69194   1.760   5.598  11.056 -0.0312 -0.1830  0.5036
  502MOL0     C69195   1.865   5.645  10.971  0.1303 -0.2497 -0.0507
  502MOL0     C69196   1.996   5.640  11.005 -0.9134 -0.1622 -0.0688
  502MOL0     O69197   2.082   5.665  10.901  0.2658  0.5049 -0.5238
  502MOL0     C69198   2.221   5.657  10.937  0.2079  0.5151 -0.2127
  502MOL0     C69199   2.306   5.662  10.807  0.0307 -0.4807  1.1487
  502MOL0     C69200   2.258   5.571  10.684  0.5112 -0.5713 -0.1609
  502MOL0     C69201   2.269   5.426  10.727  0.3566  0.6432 -0.0518
  502MOL0     C69202   2.217   5.327  10.631  0.0925 -0.5575  0.2119
  502MOL0     C69203   2.206   5.249  10.540 -0.1874  0.4638 -0.5833
  502MOL0     C69204   2.026   5.596  11.139 -0.5765 -1.5287 -0.8139
  502MOL0     C69205   1.921   5.551  11.227  0.5900 -0.5578  0.0453
  502MOL0     C69206   1.958   5.495  11.365  0.8452 -0.7252 -0.7370
  502MOL0     H69207   1.380   5.672  11.290 -0.3101 -1.6754 -0.9812
  502MOL0     H69208   1.206   5.612  11.410 -0.0380  2.2385 -0.5229
  502MOL0     H69209   1.250   5.609  11.835  1.0938  0.0543 -0.2217
  502MOL0     H69210   1.295   5.430  11.841 -1.4216 -1.1486  0.9136
  502MOL0     H69211   1.121   5.497  11.990  4.0672 -2.3060 -0.5567
  502MOL0     H69212   1.007   5.538  11.843 -0.9204 -2.0304 -0.9682
  502MOL0     H69213   1.132   5.266  11.864 -1.3657 -2.6791  0.2885
  502MOL0     H69214   0.984   5.308  11.963  0.0035 -1.1194 -0.3078
  502MOL0     H69215   0.857   5.361  11.756 -0.7028 -1.9731 -1.5845
  502MOL0     H69216   1.008   5.336  11.662  0.4054 -2.4474 -0.8633
  502MOL0     H69217   0.882   5.127  11.832  1.8994 -2.4354 -1.0455
  502MOL0     H69218   1.015   5.121  11.722  2.3701  2.2808  3.2962
  502MOL0     H69219   0.713   5.183  11.655 -1.5986 -5.5631 -0.6816
  502MOL0     H69220   0.848   5.196  11.534 -1.3834 -0.9467 -2.2320
  502MOL0     H69221   0.818   4.939  11.695 -0.8538 -0.4686  0.0378
  502MOL0     H69222   0.863   4.972  11.525  1.2622  1.8676  1.5857
  502MOL0     H69223   0.581   5.002  11.637  0.8184  0.1353  0.5721
  502MOL0     H69224   0.623   5.049  11.472  0.7342  0.8415 -0.2231
  502MOL0     H69225   0.524   4.884  11.287 -0.2469  0.3754  0.8624
  502MOL0     H69226   0.556   4.656  11.123 -1.1418 -0.3456  0.1182
  502MOL0     H69227   0.448   4.573  11.235 -0.2863 -0.3437  1.9136
  502MOL0     H69228   0.639   4.418  11.288 -0.2629 -0.4046  0.0181
  502MOL0     H69229   0.601   4.424  11.117 -0.5878 -0.1063  0.0216
  502MOL0     H69230   0.770   4.568  11.067 -2.0122 -2.0126 -1.4336
  502MOL0     H69231   0.831   4.563  11.247  2.1101 -2.2046 -0.6677
  502MOL0     H69232   0.981   4.437  11.113 -0.5861  2.0606  2.9926
  502MOL0     H69233   0.899   4.335  11.225 -1.4746  2.4661  1.8948
  502MOL0     H69234   1.086   4.262  11.028 -0.7263 -2.3038  0.8021
  502MOL0     H69235   1.280   4.153  10.752  3.9826  0.5403  1.9005
  502MOL0     H69236   1.251   4.023  10.864  0.5274  0.6769  0.1367
  502MOL0     H69237   1.291   4.186  10.925  0.1250  1.2581 -1.4887
  502MOL0     H69238   1.160   4.016  10.304 -0.7532  1.1963  3.6390
  502MOL0     H69239   1.193   3.808  10.147  0.8798 -0.9803  0.3583
  502MOL0     H69240   0.943   3.433  10.274  1.2716 -0.8300  0.2772
  502MOL0     H69241   0.870   3.507  10.137  0.2067 -0.3438 -0.8491
  502MOL0     H69242   1.108   3.316  10.113 -0.0466  0.7036  0.4812
  502MOL0     H69243   0.931   3.277  10.081  2.0385 -2.6191 -0.9304
  502MOL0     H69244   0.912   3.424   9.899 -0.1373 -0.3581 -0.2590
  502MOL0     H69245   1.025   3.295   9.869  1.4266  1.3978 -2.2976
  502MOL0     H69246   1.210   3.440   9.938 -0.9340 -1.3148  2.0537
  502MOL0     H69247   1.090   3.572   9.912 -0.2824 -0.8161  1.1749
  502MOL0     H69248   1.250   3.526   9.724 -0.2855  1.8615  2.2637
  502MOL0     H69249   1.160   3.371   9.697  0.9199 -0.4556  0.8056
  502MOL0     H69250   1.054   3.657   9.678  2.1845  0.5038  1.0527
  502MOL0     H69251   0.949   3.507   9.679 -1.1199  1.3818  1.2673
  502MOL0     H69252   1.059   3.419   9.496 -2.2028  0.6062  1.5808
  502MOL0     H69253   1.186   3.531   9.493  1.5931 -5.6006  1.5958
  502MOL0     H69254   0.876   3.589   9.454  0.9570 -0.3033  2.2183
  502MOL0     H69255   0.974   3.539   9.318  2.5584 -1.7995  0.2226
  502MOL0     H69256   0.905   3.602  10.380 -2.0294  1.3310  1.4897
  502MOL0     H69257   0.868   3.793  10.524 -1.6414 -1.1067 -1.7698
  502MOL0     H69258   0.818   4.107  10.644 -0.6300  1.7168 -0.0581
  502MOL0     H69259   0.710   4.230  10.827 -0.0038  1.2537  1.9385
  502MOL0     H69260   1.472   5.485  11.743  3.9234  2.1712  0.5981
  502MOL0     H69261   1.649   5.517  11.589  1.5978  1.6599 -1.2261
  502MOL0     H69262   1.662   5.590  11.011  1.1705 -0.0149 -2.3424
  502MOL0     H69263   1.838   5.659  10.867 -0.9853  0.5488  0.3270
  502MOL0     H69264   2.245   5.735  11.009  0.7073  0.1850 -0.0153
  502MOL0     H69265   2.231   5.556  10.978 -3.6448 -1.2114 -2.9427
  502MOL0     H69266   2.406   5.621  10.827  0.8727 -0.1427 -1.9411
  502MOL0     H69267   2.323   5.764  10.772 -2.4616 -1.3668 -3.3792
  502MOL0     H69268   2.156   5.589  10.651  0.5158  0.9061  0.5675
  502MOL0     H69269   2.320   5.589  10.596 -0.7725  0.6412 -0.8427
  502MOL0     H69270   2.205   5.418  10.815  2.2067 -0.4033  1.2856
  502MOL0     H69271   2.372   5.411  10.762  0.5005  3.0062  0.6823
  502MOL0     H69272   2.185   5.189  10.454 -3.2437  0.9329 -0.3046
  502MOL0     H69273   2.129   5.592  11.172 -0.7090 -1.0034 -0.3147
  502MOL0     H69274   1.937   5.559  11.451  1.2441  0.7655 -1.7154
  502MOL0     H69275   1.920   5.394  11.379  0.1605 -0.3760  0.0122
  502MOL0     H69276   2.064   5.468  11.368  1.1002  0.1226  3.6090
  503MOL0     O69277   8.413  10.135   0.894  0.3588  0.3183 -0.4677
  503MOL0     C69278   8.493  10.115   0.805 -0.1365 -0.1109  0.1384
  503MOL0     O69279   8.604  10.195   0.781  0.4788 -0.0508 -0.0417
  503MOL0     C69280   8.601  10.316   0.845 -0.9541 -0.5869  0.9510
  503MOL0     C69281   8.491  10.418   0.850  0.4591 -0.0917 -0.0803
  503MOL0     C69282   8.519  10.552   0.901  0.0083  0.0023 -0.0996
  503MOL0     C69283   8.641  10.580   0.958  0.8757 -0.2402 -0.0236
  503MOL0     O69284   8.664  10.694   1.016  0.4428  0.0302  0.1152
  503MOL0     C69285   8.558  10.771   1.073  0.0254  0.8957  0.3097
  503MOL0     C69286   8.630  10.871   1.172  0.1413  0.5187  0.5373
  503MOL0     C69287   8.537  10.931   1.274  0.2668 -0.7746  0.4267
  503MOL0     C69288   8.420  11.005   1.210  0.3166 -0.3810 -0.0502
  503MOL0     C69289   8.288  10.927   1.230 -0.5058 -0.8602 -0.2214
  503MOL0     C69290   8.173  10.988   1.154  0.5624 -0.3382  1.0340
  503MOL0     C69291   8.041  10.916   1.186 -0.4815 -0.4592  0.7618
  503MOL0     C69292   7.924  10.994   1.119  0.1025 -0.3679  1.2044
  503MOL0     N69293   7.907  11.130   1.181 -0.3354  0.2165  0.2402
  503MOL0     C69294   7.809  11.157   1.276 -0.2488 -1.1509  0.7550
  503MOL0     C69295   7.807  11.294   1.298 -0.7193  0.8102 -0.2889
  503MOL0     C69296   7.720  11.357   1.400  0.6073  1.3166 -0.5453
  503MOL0     C69297   7.626  11.452   1.334 -0.5646  0.2172 -1.2461
  503MOL0     C69298   7.695  11.591   1.326  0.1923  0.9805  1.2163
  503MOL0     C69299   7.591  11.699   1.292  0.4326 -0.7974 -0.1250
  503MOL0     O69300   7.542  11.689   1.157 -0.4222 -0.5631  0.5794
  503MOL0     C69301   7.609  11.740   1.052  0.1320  0.6348  0.1257
  503MOL0     C69302   7.549  11.743   0.935 -0.0744 -0.4649  0.4190
  503MOL0     C69303   7.599  11.800   0.817  0.6412 -0.8166  0.1728
  503MOL0     C69304   7.507  11.809   0.697 -0.1687  0.0278 -0.2723
  503MOL0     C69305   7.724  11.860   0.826  0.8107  0.4403  0.5948
  503MOL0     C69306   7.793  11.939   0.722  0.3307 -0.5125 -0.3936
  503MOL0     O69307   7.926  11.961   0.750 -0.4796  0.3452  0.4876
  503MOL0     C69308   7.995  12.026   0.643 -0.5302 -0.0464 -0.7340
  503MOL0     C69309   8.056  11.956   0.545  0.2245  0.5148 -0.6676
  503MOL0     C69310   8.108  12.016   0.435  0.1838 -1.0118 -0.3423
  503MOL0     C69311   8.100  12.161   0.419  0.3530  0.0863  0.0409
  503MOL0     O69312   8.165  12.235   0.326 -0.4043 -0.2631  0.4496
  503MOL0     C69313   8.082  12.229   0.204 -0.0434 -0.9126  0.7526
  503MOL0     C69314   8.156  12.239   0.075 -0.2936 -0.5907  0.2259
  503MOL0     C69315   8.269  12.136   0.065  0.2317 -0.7397 -0.2090
  503MOL0     C69316   8.362  12.165  -0.048  0.8500  0.0728  0.1583
  503MOL0     C69317   8.464  12.049  -0.044  0.3673 -0.0494 -0.5445
  503MOL0     C69318   8.568  12.070  -0.157 -0.2346  0.0257 -0.3804
  503MOL0     C69319   8.682  11.975  -0.139 -0.7753  0.0162 -0.5353
  503MOL0     C69320   8.789  12.008  -0.242 -0.5026 -0.3314  0.1645
  503MOL0    Cl69321   8.723  11.987  -0.406  0.3091  0.0134  0.2470
  503MOL0     C69322   8.064  12.227   0.540 -0.6389  0.8752  1.1137
  503MOL0     C69323   8.009  12.163   0.645  0.1269  0.2145  0.3158
  503MOL0     O69324   7.732  11.985   0.630  0.4729  0.3395 -0.2592
  503MOL0     C69325   7.798  11.835   0.945  0.0010 -1.1940 -0.1490
  503MOL0     C69326   7.742  11.783   1.053 -0.0320  0.0150  0.8039
  503MOL0     N69327   7.896  11.342   1.201  0.1293 -0.0817  0.5800
  503MOL0     N69328   7.958  11.250   1.141 -0.0317 -0.3896  0.2788
  503MOL0     C69329   8.739  10.478   0.969  0.4891  0.0771 -0.2166
  503MOL0     C69330   8.719  10.354   0.912 -1.0558  0.1181 -0.2845
  503MOL0     C69331   8.479   9.990   0.729  0.9410 -0.7207  0.5215
  503MOL0     C69332   8.534   9.998   0.597 -0.3051  0.4463 -0.0494
  503MOL0     C69333   8.513   9.887   0.506  0.5756  0.2708 -0.6898
  503MOL0     C69334   8.451   9.768   0.550 -0.5904  0.1219 -0.5917
  503MOL0     O69335   8.441   9.648   0.480  0.1706  0.1544  0.0033
  503MOL0     C69336   8.528   9.621   0.372 -0.5491  0.2541 -0.0342
  503MOL0     C69337   8.465   9.636   0.239 -0.3901 -0.5005 -0.5188
  503MOL0     C69338   8.542   9.564   0.130  0.7728 -0.0183 -0.2845
  503MOL0     C69339   8.527   9.408   0.133  0.3832 -0.0028 -0.6761
  503MOL0     C69340   8.522   9.344  -0.004  0.4347 -0.0283  0.0573
  503MOL0     C69341   8.531   9.279  -0.103  0.1493  0.0057 -0.9547
  503MOL0     C69342   8.401   9.773   0.681  0.1379 -0.3925 -0.7260
  503MOL0     C69343   8.412   9.879   0.775  0.7189  0.3817 -0.4310
  503MOL0     C69344   8.327   9.864   0.896 -0.7037  0.6281  0.0186
  503MOL0     H69345   8.401  10.393   0.794 -0.9686 -0.1207  2.1293
  503MOL0     H69346   8.442  10.628   0.900 -0.1647 -0.1481  0.9244
  503MOL0     H69347   8.496  10.702   1.130  0.1939 -0.1906 -0.7651
  503MOL0     H69348   8.502  10.824   0.996  0.3077 -0.9155 -1.2513
  503MOL0     H69349   8.699  10.811   1.232 -1.3091 -1.1849  0.6089
  503MOL0     H69350   8.675  10.940   1.100  0.0992 -0.1261 -0.1256
  503MOL0     H69351   8.494  10.854   1.339  2.2481 -4.2879 -2.0670
  503MOL0     H69352   8.589  10.996   1.344 -0.3172 -0.0865  0.2363
  503MOL0     H69353   8.411  11.096   1.269  0.3031 -0.3759 -0.0606
  503MOL0     H69354   8.447  11.037   1.109 -0.4365  3.8833  0.9163
  503MOL0     H69355   8.257  10.919   1.334 -2.4066  0.7618 -0.6005
  503MOL0     H69356   8.313  10.828   1.191 -1.7159 -1.3778  0.2950
  503MOL0     H69357   8.167  11.094   1.180  0.1417  0.2144 -1.0510
  503MOL0     H69358   8.190  10.983   1.046  0.1159 -0.5390  0.9705
  503MOL0     H69359   8.021  10.895   1.291 -1.8293 -4.5978 -0.1001
  503MOL0     H69360   8.050  10.817   1.139  0.1256 -1.0556  2.0986
  503MOL0     H69361   7.957  11.006   1.015  1.6248 -1.8799  1.4619
  503MOL0     H69362   7.829  10.940   1.110  0.0541 -0.4750  2.2336
  503MOL0     H69363   7.744  11.083   1.323  1.3697 -2.3953  1.1386
  503MOL0     H69364   7.776  11.403   1.481  1.5527 -2.4589  1.1600
  503MOL0     H69365   7.667  11.275   1.449  2.3815 -0.0014 -0.7517
  503MOL0     H69366   7.589  11.415   1.238  0.4018 -0.8541 -1.2348
  503MOL0     H69367   7.539  11.459   1.399  0.1155  0.5320 -0.3442
  503MOL0     H69368   7.724  11.619   1.427 -1.5557  1.5496  1.5899
  503MOL0     H69369   7.787  11.611   1.270 -0.2084  1.2345  0.6403
  503MOL0     H69370   7.499  11.682   1.349 -0.0284  1.4941 -0.0962
  503MOL0     H69371   7.627  11.801   1.307 -0.3832 -0.3872 -0.8427
  503MOL0     H69372   7.449  11.702   0.928  0.1169 -1.0719  1.0661
  503MOL0     H69373   7.560  11.770   0.610 -1.2019  0.8470 -1.2878
  503MOL0     H69374   7.488  11.915   0.680  3.3484  0.7600 -0.5392
  503MOL0     H69375   7.414  11.754   0.712 -1.0262  1.8439  1.6111
  503MOL0     H69376   8.047  11.848   0.534  0.5778  0.5345 -1.1961
  503MOL0     H69377   8.147  11.957   0.353  0.4653 -2.4279  0.7673
  503MOL0     H69378   8.030  12.133   0.196  1.7685 -1.9085  0.3698
  503MOL0     H69379   8.012  12.313   0.217 -0.8023 -0.7866 -2.9778
  503MOL0     H69380   8.088  12.223  -0.010 -2.0121  0.6613  1.2933
  503MOL0     H69381   8.199  12.340   0.075 -2.2595  0.3011  1.7110
  503MOL0     H69382   8.223  12.038   0.049  1.5320 -1.2552 -0.9796
  503MOL0     H69383   8.324  12.140   0.160  0.5960  0.2030 -0.4463
  503MOL0     H69384   8.409  12.261  -0.026 -0.1265  0.0527  2.6818
  503MOL0     H69385   8.311  12.165  -0.145 -2.2626 -1.6150  1.6201
  503MOL0     H69386   8.509  12.047   0.056  0.0838 -2.7877 -0.3772
  503MOL0     H69387   8.414  11.951  -0.049  0.1893  0.0003  0.1435
  503MOL0     H69388   8.599  12.175  -0.150 -2.5138  0.9077 -2.5142
  503MOL0     H69389   8.513  12.055  -0.250 -1.5088  0.0937  0.3492
  503MOL0     H69390   8.651  11.871  -0.153  0.2403 -0.2859 -0.6315
  503MOL0     H69391   8.737  11.986  -0.046 -0.5053 -0.5683 -0.6189
  503MOL0     H69392   8.875  11.946  -0.212 -2.5341 -2.6993  1.5030
  503MOL0     H69393   8.828  12.110  -0.233 -1.0242 -0.1392  0.2535
  503MOL0     H69394   8.067  12.335   0.531  0.6468  0.8241  0.7087
  503MOL0     H69395   7.959  12.217   0.726 -0.3227  2.5550 -1.4251
  503MOL0     H69396   7.891  11.887   0.967  0.8186 -3.0818  1.1267
  503MOL0     H69397   7.806  11.771   1.140  0.3313  1.6847  0.8014
  503MOL0     H69398   8.829  10.517   1.015  0.1229  0.3951  0.2389
  503MOL0     H69399   8.798  10.281   0.908  0.1365  1.2855  0.9185
  503MOL0     H69400   8.571  10.089   0.550  0.5714  0.7661  1.2342
  503MOL0     H69401   8.531   9.896   0.400  0.5406 -3.6676 -1.1764
  503MOL0     H69402   8.623   9.675   0.373 -0.2254 -0.2190 -1.8139
  503MOL0     H69403   8.547   9.514   0.383 -0.0312 -0.1686 -3.7490
  503MOL0     H69404   8.460   9.743   0.218  4.5561 -0.2596 -1.8046
  503MOL0     H69405   8.362   9.598   0.240 -1.0002  1.0646 -0.8838
  503MOL0     H69406   8.502   9.609   0.039 -1.6857 -0.1199  0.6689
  503MOL0     H69407   8.649   9.588   0.141  0.6282  1.7121 -2.1292
  503MOL0     H69408   8.434   9.375   0.178 -0.0448 -0.0700 -1.5808
  503MOL0     H69409   8.615   9.370   0.186 -1.1033 -0.8984  1.2645
  503MOL0     H69410   8.524   9.207  -0.182 -0.2438  0.1326 -1.0402
  503MOL0     H69411   8.344   9.682   0.694 -2.4943  1.0710 -1.2484
  503MOL0     H69412   8.389   9.882   0.984 -0.3124 -1.9785  0.3509
  503MOL0     H69413   8.231   9.917   0.896 -1.1187 -0.0565  1.6704
  503MOL0     H69414   8.304   9.757   0.896  0.8784  0.2289  1.8395
  504MOL0     O69415   5.087  10.521  11.379 -0.0171  0.6822  0.1526
  504MOL0     C69416   5.138  10.438  11.456  1.2115  0.2584 -0.2009
  504MOL0     O69417   5.271  10.428  11.483  0.2493  0.0045 -0.5503
  504MOL0     C69418   5.350  10.525  11.431 -0.5018 -0.5778 -0.3460
  504MOL0     C69419   5.393  10.519  11.299 -0.8672  0.0121  0.1864
  504MOL0     C69420   5.485  10.623  11.258  0.9357 -0.2352  0.3771
  504MOL0     C69421   5.535  10.708  11.349  0.0402 -1.0865  0.2023
  504MOL0     O69422   5.624  10.795  11.295  0.1372 -0.3308 -0.4091
  504MOL0     C69423   5.663  10.924  11.341 -0.4619 -0.1078  0.4768
  504MOL0     C69424   5.786  10.912  11.435  0.5922  0.2954  0.3385
  504MOL0     C69425   5.908  10.854  11.357  0.4821 -0.5765 -0.1151
  504MOL0     C69426   6.035  10.857  11.451  0.0433 -0.5983  0.3916
  504MOL0     C69427   6.045  10.734  11.536  0.7545  0.1420 -1.3688
  504MOL0     C69428   6.114  10.773  11.669 -0.4550 -0.0114 -0.1218
  504MOL0     C69429   6.117  10.666  11.773  0.4165 -0.4980 -0.3955
  504MOL0     C69430   6.251  10.606  11.803 -0.2659 -0.0119 -0.6490
  504MOL0     N69431   6.294  10.537  11.677  0.6521  0.2601 -0.8842
  504MOL0     C69432   6.278  10.404  11.661 -0.1400  0.0147  0.1353
  504MOL0     C69433   6.317  10.384  11.530  0.5482 -0.3738  0.3924
  504MOL0     C69434   6.314  10.249  11.470 -1.2369  0.0840 -0.0058
  504MOL0     C69435   6.176  10.183  11.437 -0.6603  0.0765 -0.3136
  504MOL0     C69436   6.127  10.265  11.311 -0.1244  0.6568  0.4365
  504MOL0     C69437   5.990  10.204  11.261 -1.1354 -0.0539 -0.1619
  504MOL0     O69438   5.926  10.304  11.186 -0.6186  0.3633  0.5447
  504MOL0     C69439   5.798  10.281  11.154  0.3875 -0.0526 -0.3231
  504MOL0     C69440   5.713  10.170  11.192 -0.3572  0.8483 -0.2921
  504MOL0     C69441   5.588  10.146  11.146  0.3785  0.5874  0.3417
  504MOL0     C69442   5.503  10.031  11.199 -0.3586  1.3208  0.0088
  504MOL0     C69443   5.533  10.241  11.061  0.3904 -0.0071  0.1597
  504MOL0     C69444   5.401  10.240  11.004 -0.2392 -0.5238  0.7101
  504MOL0     O69445   5.324  10.131  11.016 -0.1800 -0.3865  0.1765
  504MOL0     C69446   5.187  10.134  11.018 -0.2862 -0.2173 -0.3727
  504MOL0     C69447   5.119  10.226  11.093  0.2323 -0.8697 -0.6452
  504MOL0     C69448   4.977  10.217  11.107 -0.7997 -0.1613 -0.1528
  504MOL0     C69449   4.907  10.116  11.041  0.1006  0.3577  0.7987
  504MOL0     O69450   4.771  10.100  11.055  0.7107  0.3702  0.0060
  504MOL0     C69451   4.714  10.109  11.190  0.5540  0.1143  0.4043
  504MOL0     C69452   4.564  10.058  11.176 -0.9074 -0.0630 -0.6229
  504MOL0     C69453   4.489  10.150  11.075 -0.9561 -0.6156  0.4121
  504MOL0     C69454   4.335  10.142  11.091  0.3434  0.3110 -0.0521
  504MOL0     C69455   4.285  10.022  11.021 -0.1796  0.7852  0.6892
  504MOL0     C69456   4.151   9.982  11.084 -0.1419  0.4463 -0.6319
  504MOL0     C69457   4.078   9.874  10.992 -0.3548 -0.5546 -0.1230
  504MOL0     C69458   3.932   9.866  11.030 -0.1407 -0.3970 -0.7613
  504MOL0    Cl69459   3.859   9.713  10.968  0.0630  0.3400  0.1035
  504MOL0     C69460   4.987  10.017  10.969 -0.0507 -0.6424  0.2910
  504MOL0     C69461   5.124  10.030  10.967 -0.5705  0.6395 -0.1357
  504MOL0     O69462   5.365  10.346  10.965  0.6303 -0.0497  0.3874
  504MOL0     C69463   5.617  10.352  11.023  0.4406 -0.0596  0.2667
  504MOL0     C69464   5.745  10.370  11.072  0.3366 -0.2752 -0.0513
  504MOL0     N69465   6.360  10.503  11.477 -0.2059 -0.2800  0.4315
  504MOL0     N69466   6.352  10.589  11.566 -0.7793 -0.0948  0.3518
  504MOL0     C69467   5.502  10.706  11.483  1.5828  0.1053 -0.3555
  504MOL0     C69468   5.402  10.612  11.528  0.3117  0.5623 -0.0840
  504MOL0     C69469   5.041  10.349  11.532  0.1459 -0.1607  0.2468
  504MOL0     C69470   4.920  10.401  11.591 -1.3236 -0.9402 -0.4437
  504MOL0     C69471   4.838  10.318  11.661  0.1931  0.3475  0.2100
  504MOL0     C69472   4.860  10.181  11.667 -0.4724 -0.7245  0.6103
  504MOL0     O69473   4.762  10.103  11.728  0.9317 -0.0620  0.1784
  504MOL0     C69474   4.795   9.962  11.739 -0.4901  0.6014 -0.2000
  504MOL0     C69475   4.760   9.892  11.601 -0.4912  0.6790 -0.2224
  504MOL0     C69476   4.626   9.931  11.537 -0.7131 -0.4794 -0.4804
  504MOL0     C69477   4.507   9.853  11.611  0.0855  0.0457  0.1948
  504MOL0     C69478   4.384   9.936  11.607  0.5350 -0.7226  1.1128
  504MOL0     C69479   4.283  10.004  11.608 -0.0926 -0.2894 -0.7739
  504MOL0     C69480   4.974  10.133  11.609  0.0682 -0.6558  0.8561
  504MOL0     C69481   5.066  10.211  11.552 -1.0696 -0.6706 -0.3023
  504MOL0     C69482   5.178  10.140  11.478  0.0166 -0.5883  0.0476
  504MOL0     H69483   5.357  10.436  11.240  0.0509 -0.2236 -0.0530
  504MOL0     H69484   5.506  10.644  11.153 -0.1202  2.5932  0.6527
  504MOL0     H69485   5.585  10.963  11.408  2.0315  0.5616  3.1940
  504MOL0     H69486   5.671  10.982  11.249 -2.2098  0.5203  0.6830
  504MOL0     H69487   5.815  11.007  11.482  1.6204 -0.4330  1.2214
  504MOL0     H69488   5.757  10.847  11.518 -0.9077 -1.5316 -1.4957
  504MOL0     H69489   5.886  10.755  11.316  1.1694  0.2284 -2.6250
  504MOL0     H69490   5.940  10.923  11.278  0.1745  0.7279  0.8663
  504MOL0     H69491   6.129  10.869  11.396 -0.9612  0.2520 -1.2191
  504MOL0     H69492   6.037  10.947  11.513 -1.3207  1.1704 -1.9532
  504MOL0     H69493   6.098  10.661  11.475  1.2151  0.2622 -1.1168
  504MOL0     H69494   5.941  10.709  11.561 -0.9215  0.7929 -6.6082
  504MOL0     H69495   6.218  10.797  11.643 -0.0205  2.4253  3.2159
  504MOL0     H69496   6.057  10.851  11.721  3.1634  0.7699  3.1534
  504MOL0     H69497   6.042  10.590  11.751 -0.0566  0.4809 -2.3647
  504MOL0     H69498   6.091  10.716  11.867  2.5504  1.3622 -0.6954
  504MOL0     H69499   6.323  10.686  11.825 -0.6609  1.1161 -3.0983
  504MOL0     H69500   6.247  10.538  11.889  3.7466  1.0283  0.6125
  504MOL0     H69501   6.244  10.332  11.735 -0.1825 -0.4431 -0.3273
  504MOL0     H69502   6.360  10.179  11.539 -2.2021 -0.6477 -0.0730
  504MOL0     H69503   6.376  10.258  11.380  0.3258 -2.5131  0.7217
  504MOL0     H69504   6.186  10.078  11.409 -2.3930  0.2887 -1.8694
  504MOL0     H69505   6.107  10.196  11.520 -1.7200  2.9060 -1.5210
  504MOL0     H69506   6.105  10.363  11.353 -0.2920 -1.1830  5.3191
  504MOL0     H69507   6.192  10.257  11.223  0.0998  2.4931  0.4088
  504MOL0     H69508   6.013  10.112  11.206 -1.8348  1.1983 -2.7338
  504MOL0     H69509   5.937  10.176  11.352 -1.9842  0.4660 -0.4793
  504MOL0     H69510   5.754  10.088  11.251 -1.1861  2.3046  2.4760
  504MOL0     H69511   5.491   9.960  11.117 -1.8560  2.2036 -0.5801
  504MOL0     H69512   5.409  10.069  11.242 -2.2207 -1.1620 -1.5655
  504MOL0     H69513   5.548   9.984  11.287 -0.2638  0.1952 -0.6169
  504MOL0     H69514   5.172  10.296  11.157  1.6895 -2.3606 -0.1590
  504MOL0     H69515   4.919  10.273  11.179 -1.1749 -4.1140  2.9737
  504MOL0     H69516   4.768  10.053  11.267  0.0287  0.3648  0.9578
  504MOL0     H69517   4.714  10.215  11.215 -1.1925  0.0828  0.6417
  504MOL0     H69518   4.565   9.954  11.142 -2.5563 -0.3720  0.1835
  504MOL0     H69519   4.519  10.056  11.275  0.4155  1.3128  0.0378
  504MOL0     H69520   4.528  10.130  10.975 -0.8032  0.4819  0.2365
  504MOL0     H69521   4.511  10.255  11.099 -3.6652  0.0699  0.1625
  504MOL0     H69522   4.296  10.235  11.048 -1.7281  0.0805  1.1610
  504MOL0     H69523   4.310  10.131  11.198  0.3690 -0.7486 -0.1455
  504MOL0     H69524   4.264  10.047  10.916  1.4006  0.9814  0.3817
  504MOL0     H69525   4.359   9.942  11.032  0.1491 -0.1110 -4.7835
  504MOL0     H69526   4.085  10.069  11.087 -2.5162 -1.2560 -0.6396
  504MOL0     H69527   4.160   9.952  11.189 -0.0702 -1.2979 -1.1041
  504MOL0     H69528   4.125   9.780  11.022  0.4535 -0.5796 -1.4394
  504MOL0     H69529   4.089   9.888  10.885  1.9054  4.8173  0.4974
  504MOL0     H69530   3.879   9.956  10.996 -0.0472 -0.2043 -0.4140
  504MOL0     H69531   3.918   9.872  11.139 -2.6960  2.2589 -1.1152
  504MOL0     H69532   4.932   9.935  10.924 -1.6047  0.2921  0.4131
  504MOL0     H69533   5.190   9.960  10.915 -1.7634 -0.2374 -0.5167
  504MOL0     H69534   5.588  10.425  10.948 -0.3543 -0.7683 -0.1457
  504MOL0     H69535   5.798  10.458  11.036 -1.1669 -0.6535 -3.6745
  504MOL0     H69536   5.546  10.782  11.548 -1.7720  3.3124 -1.5185
  504MOL0     H69537   5.378  10.605  11.633 -1.6661 -1.5025 -0.6071
  504MOL0     H69538   4.897  10.507  11.597 -0.7300 -0.8264 -0.1085
  504MOL0     H69539   4.744  10.359  11.697 -0.6981 -1.3559 -0.0926
  504MOL0     H69540   4.900   9.960  11.772 -0.7209  2.7298  0.8582
  504MOL0     H69541   4.746   9.911  11.822 -0.0964 -0.1764 -0.4333
  504MOL0     H69542   4.763   9.783  11.607 -2.0526  0.6707  1.1137
  504MOL0     H69543   4.835   9.912  11.524  0.8178  0.5218  0.9581
  504MOL0     H69544   4.604  10.038  11.545 -1.1238 -0.5800 -0.2522
  504MOL0     H69545   4.625   9.918  11.429  0.1176 -0.8590 -0.4515
  504MOL0     H69546   4.519   9.830  11.717  0.4192 -1.9097 -0.2291
  504MOL0     H69547   4.492   9.752  11.572  0.6545 -0.9696  2.4279
  504MOL0     H69548   4.213  10.085  11.618 -1.1924 -1.2979 -0.2111
  504MOL0     H69549   4.984  10.025  11.605  0.1988 -0.6456  0.9244
  504MOL0     H69550   5.265  10.199  11.450 -0.0840  1.3013  3.2800
  504MOL0     H69551   5.215  10.060  11.544  0.5146 -0.2158  0.2285
  504MOL0     H69552   5.132  10.098  11.388  0.6679 -0.7835 -0.2052
  505MOL0     O69553  10.172   0.725   7.929 -0.1587  0.3255  0.7466
  505MOL0     C69554  10.185   0.770   8.039 -0.9701 -0.2714 -1.2151
  505MOL0     O69555  10.225   0.902   8.070  0.2496  0.0274 -0.0044
  505MOL0     C69556  10.314   0.953   7.969  1.0642 -0.3141  0.0201
  505MOL0     C69557  10.449   0.925   7.965 -0.3094  0.1903  0.3073
  505MOL0     C69558  10.532   0.990   7.871  0.3924 -0.0922  0.3677
  505MOL0     C69559  10.478   1.082   7.780  0.4471 -0.0692 -0.6955
  505MOL0     O69560  10.570   1.131   7.688  0.7315  0.1252  0.1049
  505MOL0     C69561  10.506   1.168   7.568  0.2987  0.0630 -0.2480
  505MOL0     C69562  10.612   1.214   7.472  0.1783 -0.4298  0.4051
  505MOL0     C69563  10.718   1.108   7.440 -0.5154 -0.4755 -0.3495
  505MOL0     C69564  10.809   1.157   7.326 -0.4602 -0.0729  0.4575
  505MOL0     C69565  10.739   1.115   7.191 -0.5329  0.0977  0.0764
  505MOL0     C69566  10.820   1.132   7.065 -0.7897 -1.2192 -0.0446
  505MOL0     C69567  10.888   1.266   7.038 -0.4395 -1.0810  0.8163
  505MOL0     C69568  10.800   1.389   7.007  0.5815 -0.9996 -0.5042
  505MOL0     N69569  10.717   1.438   7.115  0.1994 -0.3362 -1.1621
  505MOL0     C69570  10.765   1.510   7.218 -0.3010 -0.9680  0.5384
  505MOL0     C69571  10.656   1.569   7.277 -0.7993  0.6499  0.0850
  505MOL0     C69572  10.668   1.660   7.402  0.1947 -0.6117 -0.4081
  505MOL0     C69573  10.559   1.773   7.397  0.5414 -0.2936 -0.6154
  505MOL0     C69574  10.552   1.853   7.529  0.0861 -0.2414  0.4620
  505MOL0     C69575  10.454   1.969   7.512  0.1547 -0.1339 -0.7286
  505MOL0     O69576  10.320   1.929   7.508  0.0833 -1.3247  0.2503
  505MOL0     C69577  10.246   1.965   7.619  0.2943  0.0999  0.6215
  505MOL0     C69578  10.139   2.052   7.599  0.5462  0.0634 -0.0482
  505MOL0     C69579  10.062   2.091   7.710  0.3373 -1.1132 -1.0534
  505MOL0     C69580   9.931   2.159   7.684 -0.0767 -0.9189  0.5379
  505MOL0     C69581  10.098   2.048   7.838  0.4489 -0.5581 -0.5205
  505MOL0     C69582  10.022   2.080   7.966  0.1755 -0.0337  0.6211
  505MOL0     O69583  10.014   1.973   8.053 -0.4239  0.0167 -0.4156
  505MOL0     C69584   9.928   1.970   8.160 -1.0028  0.3688  0.3589
  505MOL0     C69585   9.793   2.012   8.159  0.3787 -1.1017 -0.0545
  505MOL0     C69586   9.707   1.999   8.269 -0.0358  0.2666 -0.3569
  505MOL0     C69587   9.750   1.939   8.383  0.3135 -0.7056 -0.3831
  505MOL0     O69588   9.662   1.905   8.478  0.4310 -0.1502  0.1731
  505MOL0     C69589   9.688   1.797   8.570  0.9488  0.1362  0.5940
  505MOL0     C69590   9.566   1.786   8.661  0.5658  1.2615 -0.4285
  505MOL0     C69591   9.605   1.730   8.796 -1.3876  0.5673  0.1393
  505MOL0     C69592   9.487   1.679   8.888  0.3278 -0.3649 -0.2117
  505MOL0     C69593   9.529   1.668   9.038 -0.1652 -0.3619 -0.6858
  505MOL0     C69594   9.631   1.552   9.062  0.4814  0.2949 -0.8640
  505MOL0     C69595   9.617   1.417   8.983 -0.1391 -0.0864  0.6731
  505MOL0     C69596   9.493   1.335   9.005 -0.3738 -0.1236 -0.9499
  505MOL0    Cl69597   9.503   1.283   9.175 -0.1587  0.1736 -0.0712
  505MOL0     C69598   9.880   1.894   8.383 -0.6129  0.1266 -0.6262
  505MOL0     C69599   9.968   1.915   8.280  0.2320  0.7288  0.0380
  505MOL0     O69600   9.962   2.192   7.975 -1.0618 -0.1964  0.1343
  505MOL0     C69601  10.212   1.960   7.854 -0.0026 -0.3505  0.0288
  505MOL0     C69602  10.278   1.912   7.747  0.3720  0.3761  0.3026
  505MOL0     N69603  10.540   1.528   7.205  0.5072  0.2843  0.6438
  505MOL0     N69604  10.578   1.440   7.118  0.3845 -0.9056  0.2425
  505MOL0     C69605  10.340   1.109   7.786 -0.3290 -0.1156 -0.1479
  505MOL0     C69606  10.260   1.045   7.883  0.4299 -0.0128 -0.6375
  505MOL0     C69607  10.147   0.681   8.153  0.4299 -0.5632  0.7556
  505MOL0     C69608  10.209   0.701   8.280 -0.2828 -0.1747  1.1979
  505MOL0     C69609  10.170   0.628   8.386  0.1658  0.1452  0.4638
  505MOL0     C69610  10.081   0.521   8.364  0.2436 -0.1010  0.2147
  505MOL0     O69611  10.044   0.453   8.477  0.2839 -0.4289 -0.1318
  505MOL0     C69612   9.914   0.402   8.498  0.3668  0.8331 -0.0317
  505MOL0     C69613   9.902   0.382   8.654  0.2523 -0.0242  0.1061
  505MOL0     C69614   9.760   0.316   8.686  0.5356 -0.4362 -1.0622
  505MOL0     C69615   9.764   0.271   8.830 -0.8245 -0.2037 -0.9809
  505MOL0     C69616   9.773   0.381   8.931 -0.4473 -0.3634 -0.8223
  505MOL0     C69617   9.779   0.455   9.025 -0.5055  0.2808  0.2146
  505MOL0     C69618  10.023   0.496   8.237 -0.7935 -0.1190 -0.4419
  505MOL0     C69619  10.048   0.585   8.136  0.7910  0.4159  0.0274
  505MOL0     C69620   9.965   0.543   8.010 -0.0854 -0.5432 -0.8682
  505MOL0     H69621  10.484   0.857   8.042  2.3727  1.6169  0.4404
  505MOL0     H69622  10.636   0.961   7.888 -0.6439 -2.1932  4.1993
  505MOL0     H69623  10.435   1.251   7.575  0.8669  0.4292  2.5753
  505MOL0     H69624  10.443   1.088   7.529  0.3038  0.6874 -1.5606
  505MOL0     H69625  10.574   1.261   7.381  1.2526  1.1196  0.7127
  505MOL0     H69626  10.668   1.292   7.525 -0.0690  0.7584 -1.0331
  505MOL0     H69627  10.781   1.086   7.527  0.0780  0.2686 -0.5904
  505MOL0     H69628  10.669   1.014   7.412 -1.2802  0.8179 -3.8775
  505MOL0     H69629  10.830   1.264   7.324  0.2055 -0.1837 -2.6754
  505MOL0     H69630  10.902   1.100   7.337 -0.5827 -0.9088 -2.2681
  505MOL0     H69631  10.649   1.176   7.180  1.0830  2.6232  0.0807
  505MOL0     H69632  10.714   1.009   7.191 -1.0796  0.2096  1.2045
  505MOL0     H69633  10.899   1.059   7.085 -0.0244 -0.2509  0.6166
  505MOL0     H69634  10.754   1.102   6.984  0.4431  2.3395 -2.5794
  505MOL0     H69635  10.959   1.256   6.955 -0.3993 -0.0884  0.7221
  505MOL0     H69636  10.956   1.290   7.121 -0.2010 -0.5133  0.4661
  505MOL0     H69637  10.860   1.472   6.970  0.0673  0.3916  1.6329
  505MOL0     H69638  10.734   1.356   6.926  1.5295 -2.2497 -0.8077
  505MOL0     H69639  10.872   1.514   7.234  0.2839  0.0986 -2.9555
  505MOL0     H69640  10.769   1.700   7.409  0.5742 -1.5571 -0.3288
  505MOL0     H69641  10.656   1.595   7.489  0.5363 -1.9724 -1.3535
  505MOL0     H69642  10.587   1.842   7.317 -0.1956  0.0848 -0.5545
  505MOL0     H69643  10.457   1.737   7.383 -0.1449 -0.1303  2.9703
  505MOL0     H69644  10.513   1.797   7.615 -2.9927  3.3008  1.6534
  505MOL0     H69645  10.650   1.897   7.544  0.0179 -0.7395  2.6382
  505MOL0     H69646  10.474   2.034   7.597  0.2477 -0.4923 -0.4712
  505MOL0     H69647  10.479   2.025   7.421 -0.5752 -0.9874 -1.4709
  505MOL0     H69648  10.117   2.095   7.502  0.2409  1.8403  0.7657
  505MOL0     H69649   9.901   2.137   7.581 -0.5424  0.0899  0.4480
  505MOL0     H69650   9.945   2.265   7.704 -0.3115 -0.7030 -0.4005
  505MOL0     H69651   9.845   2.133   7.746 -0.0968  0.4682  1.1219
  505MOL0     H69652   9.760   2.047   8.062  0.1732  1.8403  0.9817
  505MOL0     H69653   9.609   2.044   8.250  0.2512 -0.3185 -3.8380
  505MOL0     H69654   9.713   1.698   8.531 -2.4620 -1.4570  2.0293
  505MOL0     H69655   9.775   1.827   8.628 -0.1553  0.6356  2.0662
  505MOL0     H69656   9.521   1.882   8.689 -1.7924 -0.7580  3.5954
  505MOL0     H69657   9.481   1.729   8.623  1.3483  0.9173 -1.6996
  505MOL0     H69658   9.658   1.804   8.856  0.7773 -2.1312  1.7797
  505MOL0     H69659   9.688   1.658   8.791 -0.5687  1.0530  3.9888
  505MOL0     H69660   9.438   1.593   8.843 -1.4268  1.3120 -1.7019
  505MOL0     H69661   9.419   1.765   8.883  1.0365  0.3949  2.0911
  505MOL0     H69662   9.580   1.760   9.070 -1.4322 -0.3917  1.6192
  505MOL0     H69663   9.444   1.654   9.106 -0.6313  1.6547 -0.7914
  505MOL0     H69664   9.642   1.527   9.168 -0.1191 -3.0557 -1.4950
  505MOL0     H69665   9.728   1.594   9.032  1.2716 -0.0371  1.0637
  505MOL0     H69666   9.698   1.349   9.012  0.4498  1.5565  3.2659
  505MOL0     H69667   9.628   1.437   8.876  0.9437 -1.0302  0.5941
  505MOL0     H69668   9.498   1.249   8.937  1.3607 -0.9599  0.1466
  505MOL0     H69669   9.396   1.384   8.994 -0.5881  0.8272  3.3683
  505MOL0     H69670   9.915   1.846   8.474 -2.1833 -0.3441 -0.2463
  505MOL0     H69671  10.070   1.878   8.280  0.3449  1.0353 -0.0376
  505MOL0     H69672  10.234   1.930   7.956 -1.4138 -0.8917  0.1909
  505MOL0     H69673  10.366   1.850   7.761  1.0846  0.2696 -3.5101
  505MOL0     H69674  10.291   1.179   7.719  0.3833  2.1052  1.5478
  505MOL0     H69675  10.154   1.066   7.875  0.4400 -0.1427 -1.1302
  505MOL0     H69676  10.297   0.764   8.281 -0.1187 -0.3066 -0.7478
  505MOL0     H69677  10.220   0.649   8.481  1.9509  3.5648 -1.0329
  505MOL0     H69678   9.839   0.472   8.463  1.0117  1.4920 -0.1236
  505MOL0     H69679   9.912   0.306   8.446 -2.3012 -0.3545  2.0164
  505MOL0     H69680   9.903   0.480   8.703  0.8241 -0.7433  1.5917
  505MOL0     H69681   9.986   0.319   8.684  1.7371  2.0287  0.4674
  505MOL0     H69682   9.676   0.382   8.663 -0.7656 -0.4107  3.0979
  505MOL0     H69683   9.761   0.225   8.625 -0.5717 -4.2188  3.9087
  505MOL0     H69684   9.843   0.197   8.846 -0.4824 -0.0491 -1.9014
  505MOL0     H69685   9.668   0.222   8.851 -0.9973  0.8330  0.8964
  505MOL0     H69686   9.778   0.519   9.111  1.3547  0.1462  0.3637
  505MOL0     H69687   9.951   0.415   8.233 -2.1967  1.1492 -2.6119
  505MOL0     H69688   9.918   0.625   7.955  0.1484 -2.1498 -3.6647
  505MOL0     H69689  10.035   0.490   7.944  1.6363 -0.9583  1.1776
  505MOL0     H69690   9.877   0.482   8.030 -0.7602  0.8862  0.7576
  506MOL0     O69691   3.877  11.055   6.509 -0.0585 -0.0731 -0.6063
  506MOL0     C69692   3.847  10.940   6.530 -0.1031  0.5010  0.8654
  506MOL0     O69693   3.941  10.837   6.529 -0.2186  0.2651 -0.0285
  506MOL0     C69694   4.073  10.869   6.533 -0.0890  0.5968  0.1858
  506MOL0     C69695   4.165  10.810   6.446  0.4066  0.6893  0.9960
  506MOL0     C69696   4.308  10.828   6.458 -0.4099  0.3973 -0.0815
  506MOL0     C69697   4.349  10.926   6.553 -0.4131  0.5240  0.0153
  506MOL0     O69698   4.481  10.951   6.572 -0.8133 -0.0240  0.6963
  506MOL0     C69699   4.578  10.842   6.547  0.5065 -1.0265 -1.1123
  506MOL0     C69700   4.709  10.881   6.625  0.7551 -0.3057  0.6704
  506MOL0     C69701   4.829  10.791   6.580 -0.4493  0.9581  0.4812
  506MOL0     C69702   4.943  10.852   6.644 -0.3334 -0.1827  0.7759
  506MOL0     C69703   5.074  10.798   6.582 -0.2310  1.3525  0.0638
  506MOL0     C69704   5.207  10.789   6.672  0.4292 -1.0488 -0.1405
  506MOL0     C69705   5.314  10.693   6.613 -0.3860  1.2718 -1.2396
  506MOL0     C69706   5.386  10.759   6.502  0.0246  0.5878 -0.4238
  506MOL0     N69707   5.445  10.661   6.411  0.1414  0.2696 -0.1220
  506MOL0     C69708   5.570  10.607   6.406  0.5047  0.3162 -0.1374
  506MOL0     C69709   5.583  10.541   6.293  0.0221 -1.0654 -0.3811
  506MOL0     C69710   5.695  10.467   6.241 -0.2094  0.5437  0.5497
  506MOL0     C69711   5.833  10.532   6.283 -0.2695  0.2556 -0.0415
  506MOL0     C69712   5.934  10.428   6.345  0.5414 -0.9616  0.8890
  506MOL0     C69713   5.887  10.377   6.483 -0.0082 -0.2325  0.7960
  506MOL0     O69714   5.880  10.481   6.588 -0.5606  0.6220  0.1600
  506MOL0     C69715   6.002  10.524   6.637  0.4877  0.3928 -0.4046
  506MOL0     C69716   6.072  10.627   6.577  0.4188 -0.4483 -0.1284
  506MOL0     C69717   6.203  10.660   6.623  0.7272  0.7543  0.2207
  506MOL0     C69718   6.263  10.781   6.552 -0.4994  0.3990 -0.0383
  506MOL0     C69719   6.257  10.592   6.731 -0.9815 -0.3866  0.5537
  506MOL0     C69720   6.393  10.622   6.784 -0.2237  0.3006  0.4022
  506MOL0     O69721   6.479  10.680   6.698  0.8890  0.4190 -0.5848
  506MOL0     C69722   6.616  10.686   6.723  0.3658  0.0311  0.9593
  506MOL0     C69723   6.688  10.597   6.808  0.1307  0.2081  1.6474
  506MOL0     C69724   6.826  10.597   6.831 -0.5514  0.6951 -0.5573
  506MOL0     C69725   6.900  10.696   6.763  0.2941 -0.0393 -0.4167
  506MOL0     O69726   7.037  10.704   6.760 -0.4174 -0.4315 -1.1952
  506MOL0     C69727   7.099  10.604   6.832 -0.6782  0.6049 -0.3596
  506MOL0     C69728   7.243  10.636   6.836 -0.9022 -0.0069  1.2839
  506MOL0     C69729   7.316  10.604   6.699 -0.1232 -0.7984  0.5224
  506MOL0     C69730   7.458  10.675   6.690  0.1486 -0.0715  0.1131
  506MOL0     C69731   7.462  10.822   6.631  0.0738  0.0647 -0.5726
  506MOL0     C69732   7.591  10.903   6.642 -0.7376 -0.1741 -0.0009
  506MOL0     C69733   7.717  10.840   6.575  0.4602 -0.4005 -0.1996
  506MOL0     C69734   7.827  10.950   6.556  0.4185 -0.2709 -0.5293
  506MOL0    Cl69735   7.770  11.070   6.428 -0.1878  0.1327 -0.6309
  506MOL0     C69736   6.833  10.777   6.671 -0.4208 -0.1140 -0.2288
  506MOL0     C69737   6.699  10.762   6.639 -0.3012  0.4000  0.0551
  506MOL0     O69738   6.419  10.587   6.899 -0.5968 -0.1654 -0.2838
  506MOL0     C69739   6.182  10.496   6.798  0.1529 -0.1575 -0.6272
  506MOL0     C69740   6.053  10.464   6.749  0.3102 -0.0180 -0.5658
  506MOL0     N69741   5.466  10.549   6.221 -0.2998  0.2903  0.3834
  506MOL0     N69742   5.384  10.626   6.294 -0.1230  0.0069 -0.1493
  506MOL0     C69743   4.252  10.982   6.648 -0.0756 -0.0031 -0.6184
  506MOL0     C69744   4.116  10.951   6.637 -1.0437 -0.5098  0.6535
  506MOL0     C69745   3.706  10.912   6.516  0.1658 -0.1433  0.6576
  506MOL0     C69746   3.671  10.814   6.424 -0.1053  0.5188  0.2722
  506MOL0     C69747   3.535  10.775   6.404 -0.7905  1.9401 -0.5692
  506MOL0     C69748   3.434  10.848   6.467 -0.6912  0.0406  0.5270
  506MOL0     O69749   3.313  10.810   6.417  0.0167  0.2537 -0.1140
  506MOL0     C69750   3.195  10.880   6.464 -0.6457 -0.2056 -0.0722
  506MOL0     C69751   3.068  10.788   6.465  0.5869 -0.0315  0.5065
  506MOL0     C69752   2.931  10.868   6.487 -0.5983  0.4813 -0.4805
  506MOL0     C69753   2.816  10.760   6.504 -0.8298 -0.3478  0.3673
  506MOL0     C69754   2.682  10.805   6.481 -0.1615  0.9441  0.5269
  506MOL0     C69755   2.573  10.858   6.463 -0.0028  0.4336 -0.6689
  506MOL0     C69756   3.473  10.953   6.547 -0.3555  0.2472  1.4598
  506MOL0     C69757   3.604  10.977   6.587  0.2675  0.0124 -0.2421
  506MOL0     C69758   3.635  11.090   6.675  0.4565  0.3645  0.0753
  506MOL0     H69759   4.126  10.742   6.371  1.5269 -0.3986  1.3902
  506MOL0     H69760   4.372  10.778   6.386  2.9295  0.5508  2.5563
  506MOL0     H69761   4.612  10.841   6.443 -0.1113 -2.0059 -1.3167
  506MOL0     H69762   4.543  10.744   6.583 -0.9826 -0.9010 -2.1561
  506MOL0     H69763   4.735  10.987   6.623  1.4637 -0.4859 -0.0749
  506MOL0     H69764   4.679  10.863   6.729 -1.5701 -0.9382 -0.0457
  506MOL0     H69765   4.814  10.684   6.601 -0.7262  0.2731 -2.6757
  506MOL0     H69766   4.835  10.795   6.471 -0.2913 -1.4390  0.3420
  506MOL0     H69767   4.939  10.962   6.648  1.9858 -0.0092 -0.2351
  506MOL0     H69768   4.949  10.821   6.749  0.1246 -5.0015 -0.4698
  506MOL0     H69769   5.084  10.868   6.498  0.8807  1.5956  0.3789
  506MOL0     H69770   5.071  10.699   6.536  1.9013  0.1715  2.2292
  506MOL0     H69771   5.242  10.892   6.682  1.4041 -1.4255  0.5973
  506MOL0     H69772   5.172  10.742   6.764 -0.3263  0.3283  0.3082
  506MOL0     H69773   5.261  10.602   6.583 -1.7857  0.3956  3.1492
  506MOL0     H69774   5.389  10.662   6.686 -0.9150 -2.7762 -2.1700
  506MOL0     H69775   5.310  10.812   6.444 -1.3431 -0.9833 -0.1429
  506MOL0     H69776   5.470  10.820   6.536  1.2192 -1.6360  0.7918
  506MOL0     H69777   5.638  10.611   6.490 -0.5922 -1.4184  0.8773
  506MOL0     H69778   5.687  10.451   6.133  1.3793  1.4630  0.2712
  506MOL0     H69779   5.688  10.366   6.284 -0.6481  1.1140  1.8925
  506MOL0     H69780   5.874  10.594   6.203 -2.4932  0.5033 -1.0647
  506MOL0     H69781   5.819  10.610   6.358 -0.5248  0.2506 -0.0834
  506MOL0     H69782   5.945  10.347   6.272 -0.4807  1.0284 -1.6274
  506MOL0     H69783   6.030  10.480   6.349 -0.1773  0.8254 -1.9166
  506MOL0     H69784   5.789  10.331   6.470  0.4864 -0.9821 -0.4753
  506MOL0     H69785   5.944  10.289   6.515  0.5989 -0.2309 -0.2220
  506MOL0     H69786   6.038  10.667   6.482 -0.6164 -0.4108  0.2480
  506MOL0     H69787   6.287  10.859   6.625 -1.8936 -0.9464  1.9598
  506MOL0     H69788   6.184  10.826   6.491 -1.6747 -0.5570  0.7404
  506MOL0     H69789   6.354  10.754   6.498 -0.6868 -1.1472  0.3757
  506MOL0     H69790   6.646  10.515   6.866 -1.5287  0.5031  0.9237
  506MOL0     H69791   6.870  10.519   6.892 -3.1815 -0.8452 -0.4793
  506MOL0     H69792   7.061  10.609   6.934  1.5936 -1.4716  0.6782
  506MOL0     H69793   7.087  10.508   6.781  0.5635  1.1848 -1.8470
  506MOL0     H69794   7.250  10.744   6.851 -3.2066  0.2291  0.9748
  506MOL0     H69795   7.299  10.574   6.906  0.8704  1.0097  0.8379
  506MOL0     H69796   7.262  10.649   6.616  0.9840 -2.4987 -1.1949
  506MOL0     H69797   7.310  10.495   6.696 -1.9458 -0.7642 -4.0142
  506MOL0     H69798   7.525  10.615   6.628 -1.6555 -1.4587 -0.5781
  506MOL0     H69799   7.489  10.673   6.795 -0.8563 -1.3342  0.4148
  506MOL0     H69800   7.431  10.798   6.529 -2.1531 -0.5600  0.1839
  506MOL0     H69801   7.384  10.887   6.672  0.5400  1.6370 -2.0786
  506MOL0     H69802   7.620  10.910   6.748  2.8279  0.8473 -0.9096
  506MOL0     H69803   7.571  11.006   6.612 -0.0488  0.4724  1.6156
  506MOL0     H69804   7.693  10.794   6.479 -1.1607  2.5602 -1.3335
  506MOL0     H69805   7.758  10.763   6.641 -0.4326 -0.5055  0.2554
  506MOL0     H69806   7.913  10.909   6.503 -0.0792  1.9170 -3.2708
  506MOL0     H69807   7.868  10.995   6.648 -1.2063  0.3257 -0.0656
  506MOL0     H69808   6.883  10.857   6.618  0.9349  0.2276  1.4775
  506MOL0     H69809   6.664  10.822   6.556  0.7771  2.0983  0.7677
  506MOL0     H69810   6.227  10.444   6.883 -0.6220 -0.5928 -0.4724
  506MOL0     H69811   5.996  10.384   6.795  0.0057  0.7915  0.5035
  506MOL0     H69812   4.285  11.037   6.736 -2.9617  1.4440 -0.3070
  506MOL0     H69813   4.040  10.977   6.711 -1.2644  0.0426  0.2379
  506MOL0     H69814   3.749  10.764   6.367 -0.7250 -1.1404  0.8240
  506MOL0     H69815   3.522  10.700   6.327  1.5017 -0.0154  0.7847
  506MOL0     H69816   3.206  10.911   6.568  0.1768 -2.6818  0.6489
  506MOL0     H69817   3.175  10.973   6.410  0.2468  1.3850  2.1701
  506MOL0     H69818   3.076  10.713   6.545 -4.1731 -1.7009 -0.2339
  506MOL0     H69819   3.061  10.731   6.372 -0.6288  0.4694  0.2771
  506MOL0     H69820   2.934  10.931   6.576  1.5935 -0.9811  0.5482
  506MOL0     H69821   2.915  10.935   6.402 -1.4569 -0.4002 -1.0468
  506MOL0     H69822   2.816  10.727   6.608 -2.6548 -2.7989 -0.3445
  506MOL0     H69823   2.820  10.674   6.437  0.4783 -0.7464  0.9234
  506MOL0     H69824   2.474  10.886   6.433 -1.5251 -3.3821  0.2103
  506MOL0     H69825   3.397  11.017   6.590 -0.2404  0.6159  1.1258
  506MOL0     H69826   3.561  11.116   6.751 -0.0027  1.4156 -0.7100
  506MOL0     H69827   3.732  11.076   6.725  0.2334  0.1191  0.4430
  506MOL0     H69828   3.637  11.174   6.605 -1.2490 -2.1651 -3.2897
  507MOL0     O69829  11.183   8.052   4.597 -0.6175 -0.0085  0.0877
  507MOL0     C69830  11.096   8.086   4.518  1.2682  0.0653 -0.0123
  507MOL0     O69831  11.074   8.033   4.393  0.1933  0.2537  0.4394
  507MOL0     C69832  11.174   7.952   4.342 -0.1972  0.4111 -0.2907
  507MOL0     C69833  11.295   8.008   4.288 -0.2238  0.0783  0.8387
  507MOL0     C69834  11.395   7.925   4.244 -1.1133 -0.7013  0.4297
  507MOL0     C69835  11.384   7.793   4.248 -0.5020  0.4601  0.4044
  507MOL0     O69836  11.492   7.719   4.195 -0.0421 -0.4350 -0.1419
  507MOL0     C69837  11.489   7.575   4.192 -0.3318 -0.8395  0.5482
  507MOL0     C69838  11.616   7.516   4.132  0.2389  0.0636 -0.7269
  507MOL0     C69839  11.737   7.543   4.214 -0.6427  0.0110  0.3661
  507MOL0     C69840  11.859   7.451   4.200 -0.3505 -0.1725  0.5730
  507MOL0     C69841  11.972   7.487   4.296 -0.1285 -0.0741 -0.6863
  507MOL0     C69842  12.039   7.603   4.242 -1.1234 -0.3474  0.5734
  507MOL0     C69843  12.140   7.681   4.338  1.2021  0.1902  0.7640
  507MOL0     C69844  12.215   7.797   4.280  0.0935  0.0325  0.4477
  507MOL0     N69845  12.156   7.924   4.304 -0.4223  0.2000  0.8901
  507MOL0     C69846  12.217   8.047   4.270 -0.6952 -0.5976 -0.0039
  507MOL0     C69847  12.117   8.147   4.274 -0.1378  0.7519  1.4672
  507MOL0     C69848  12.136   8.297   4.276  0.2252  1.5816  0.7754
  507MOL0     C69849  12.106   8.363   4.144  0.1859  0.1102  0.3881
  507MOL0     C69850  12.235   8.376   4.060 -0.0167  0.9896  0.1930
  507MOL0     C69851  12.206   8.460   3.933 -0.1291 -0.6915 -0.2096
  507MOL0     O69852  12.121   8.376   3.846 -0.3461  1.1757 -0.0951
  507MOL0     C69853  12.072   8.424   3.724 -0.3058  0.1286  0.1329
  507MOL0     C69854  12.077   8.553   3.679 -0.2352  0.9410  1.1863
  507MOL0     C69855  12.022   8.602   3.566  0.4527  0.0319  0.3814
  507MOL0     C69856  12.015   8.746   3.542  0.3354  0.1138 -0.6864
  507MOL0     C69857  11.979   8.510   3.475 -0.0602 -0.9642  0.0554
  507MOL0     C69858  11.937   8.544   3.332 -0.1748 -0.4162 -0.4406
  507MOL0     O69859  11.873   8.441   3.273  0.2078 -0.1305 -0.6232
  507MOL0     C69860  11.798   8.456   3.154 -0.0884  0.9115  0.0868
  507MOL0     C69861  11.783   8.337   3.081  0.1327 -0.1765  0.1409
  507MOL0     C69862  11.715   8.326   2.960 -0.7458  0.2297 -0.1299
  507MOL0     C69863  11.686   8.442   2.894 -0.3339 -0.1838 -0.3213
  507MOL0     O69864  11.627   8.420   2.778  0.1908  0.6197  0.0599
  507MOL0     C69865  11.580   8.538   2.708  0.5555  0.4345 -1.2741
  507MOL0     C69866  11.535   8.511   2.565 -0.2379  0.0636 -0.5612
  507MOL0     C69867  11.418   8.420   2.571 -0.0150 -0.6120 -0.4725
  507MOL0     C69868  11.364   8.411   2.423 -0.6592 -0.6695  0.0384
  507MOL0     C69869  11.264   8.298   2.424  0.5047  0.7028  0.3781
  507MOL0     C69870  11.179   8.294   2.290  0.7983  0.1877  0.1958
  507MOL0     C69871  11.070   8.187   2.295  0.4777  0.3791  0.6809
  507MOL0     C69872  10.968   8.210   2.409  0.2102  0.5863  0.4830
  507MOL0    Cl69873  10.917   8.372   2.422 -0.2349 -0.2336  0.0698
  507MOL0     C69874  11.704   8.569   2.961  0.3769  0.7042 -0.5025
  507MOL0     C69875  11.755   8.574   3.090 -0.1072  0.1173 -0.6884
  507MOL0     O69876  11.974   8.645   3.274  0.8426 -0.1925  0.6480
  507MOL0     C69877  11.986   8.373   3.512  0.6686  0.0419 -0.2089
  507MOL0     C69878  12.026   8.327   3.632  0.3832 -0.0508 -0.5756
  507MOL0     N69879  11.994   8.073   4.294 -0.2325  0.2139  0.1108
  507MOL0     N69880  12.023   7.943   4.297  0.6305 -0.2244 -0.3972
  507MOL0     C69881  11.264   7.730   4.301 -0.5623 -0.3881  0.1733
  507MOL0     C69882  11.157   7.810   4.344  0.4076 -0.2636 -0.0096
  507MOL0     C69883  10.996   8.179   4.572 -0.0990  0.0823 -0.2008
  507MOL0     C69884  11.036   8.258   4.685 -1.1227 -0.4136  0.1105
  507MOL0     C69885  10.948   8.342   4.751 -0.7202 -0.1489  1.2752
  507MOL0     C69886  10.813   8.346   4.707  0.6595 -0.0461  0.2794
  507MOL0     O69887  10.739   8.419   4.796  0.5332 -0.3870 -0.2562
  507MOL0     C69888  10.607   8.468   4.757 -0.3966  1.0965  0.0626
  507MOL0     C69889  10.494   8.381   4.807  1.0557  0.1651 -0.8992
  507MOL0     C69890  10.416   8.452   4.910  0.5683  0.0848 -0.1633
  507MOL0     C69891  10.297   8.365   4.956  0.3289 -0.0657 -0.1835
  507MOL0     C69892  10.243   8.450   5.074 -0.5505  0.1048  0.1586
  507MOL0     C69893  10.224   8.522   5.165  0.3299  0.4674  1.2515
  507MOL0     C69894  10.775   8.284   4.594  0.7632 -0.5195  0.4174
  507MOL0     C69895  10.862   8.196   4.522  0.0876 -0.1407 -1.2472
  507MOL0     C69896  10.803   8.119   4.410 -0.0523  0.1725 -0.2614
  507MOL0     H69897  11.315   8.115   4.287  0.7541 -0.0990  0.8705
  507MOL0     H69898  11.481   7.978   4.204 -0.4467 -1.9855  0.0751
  507MOL0     H69899  11.412   7.552   4.118  0.2332  2.0175 -1.1165
  507MOL0     H69900  11.466   7.538   4.292 -3.0144  4.5877  2.3592
  507MOL0     H69901  11.601   7.407   4.133  2.0325 -0.2230  0.6760
  507MOL0     H69902  11.628   7.554   4.030 -1.0691  0.3458 -0.7882
  507MOL0     H69903  11.764   7.646   4.189 -3.0936  0.6046 -0.1183
  507MOL0     H69904  11.718   7.553   4.321  2.5149 -2.2602  1.2894
  507MOL0     H69905  11.841   7.346   4.226 -0.4140 -0.2095  0.3813
  507MOL0     H69906  11.897   7.447   4.098  1.3815 -1.5780  1.2150
  507MOL0     H69907  12.029   7.395   4.311 -1.5939 -1.0685 -1.0036
  507MOL0     H69908  11.934   7.513   4.395 -1.8082 -3.1418 -0.3966
  507MOL0     H69909  12.096   7.575   4.153  2.2981  1.3997  2.0382
  507MOL0     H69910  11.962   7.675   4.214 -1.8558 -0.7349  1.5074
  507MOL0     H69911  12.206   7.601   4.372 -0.5654 -2.2538 -1.1859
  507MOL0     H69912  12.085   7.711   4.428 -0.2316  0.7035 -0.2583
  507MOL0     H69913  12.319   7.813   4.310  0.4392  0.6515 -0.9919
  507MOL0     H69914  12.220   7.774   4.173  1.5126  1.3627  0.1881
  507MOL0     H69915  12.322   8.071   4.267 -0.9330  0.6260  0.6118
  507MOL0     H69916  12.238   8.314   4.311  0.8346  1.3657 -0.7913
  507MOL0     H69917  12.069   8.339   4.351 -0.4295 -1.2799  1.9373
  507MOL0     H69918  12.021   8.319   4.091  0.4113  1.4904 -1.1983
  507MOL0     H69919  12.071   8.463   4.172 -2.4266 -0.2238 -1.2810
  507MOL0     H69920  12.311   8.432   4.116  1.7694  0.0516 -1.1823
  507MOL0     H69921  12.274   8.278   4.033 -1.0624  0.2338  1.3321
  507MOL0     H69922  12.152   8.553   3.952 -0.5182 -1.2005  1.3232
  507MOL0     H69923  12.299   8.486   3.882 -1.6906 -1.6892 -3.9259
  507MOL0     H69924  12.131   8.618   3.747 -0.9831  1.4830  1.2696
  507MOL0     H69925  12.111   8.766   3.494  1.3399 -0.8785  0.8147
  507MOL0     H69926  12.016   8.802   3.636  2.6131  0.5259 -0.8833
  507MOL0     H69927  11.922   8.782   3.497  1.5356  2.5181 -1.4074
  507MOL0     H69928  11.821   8.245   3.124  0.6452 -0.9448 -1.8407
  507MOL0     H69929  11.711   8.238   2.897  3.7913 -0.7341  0.6262
  507MOL0     H69930  11.500   8.582   2.768  1.3324  0.7812 -0.4774
  507MOL0     H69931  11.656   8.617   2.708  0.6756  0.4140  1.4712
  507MOL0     H69932  11.520   8.611   2.522  1.1453  0.2976 -0.5601
  507MOL0     H69933  11.618   8.473   2.505  0.1144  0.3934 -0.2948
  507MOL0     H69934  11.345   8.468   2.637  0.4010 -1.5867  0.7429
  507MOL0     H69935  11.445   8.320   2.605  1.4021 -0.2308 -0.4214
  507MOL0     H69936  11.440   8.385   2.350 -0.1271 -3.0222  1.3295
  507MOL0     H69937  11.322   8.507   2.390  3.4539  0.4175 -2.8051
  507MOL0     H69938  11.312   8.201   2.436  2.1792  1.0705 -2.3688
  507MOL0     H69939  11.201   8.308   2.512  0.7139 -2.2290  0.9749
  507MOL0     H69940  11.243   8.271   2.204  0.6694  2.5569 -0.6029
  507MOL0     H69941  11.133   8.390   2.266 -0.7901 -0.9923 -1.8446
  507MOL0     H69942  11.112   8.086   2.290 -1.1578 -0.3194  0.4225
  507MOL0     H69943  11.014   8.208   2.203  0.3994  0.5091  0.7580
  507MOL0     H69944  11.011   8.169   2.501  1.1680  1.2011  0.3279
  507MOL0     H69945  10.885   8.143   2.385  1.0100  0.1887 -1.2928
  507MOL0     H69946  11.665   8.662   2.920  1.6472  0.8853 -1.3437
  507MOL0     H69947  11.760   8.664   3.149 -1.7751 -1.0786  1.3816
  507MOL0     H69948  11.961   8.295   3.440 -1.1179 -1.4603  1.9038
  507MOL0     H69949  12.010   8.232   3.682 -2.6552  0.5204 -0.2867
  507MOL0     H69950  11.259   7.622   4.305  2.8869 -0.7450 -1.2861
  507MOL0     H69951  11.064   7.762   4.374  0.3969 -0.2846 -0.0776
  507MOL0     H69952  11.136   8.255   4.725 -1.3425  4.1321  1.4952
  507MOL0     H69953  10.992   8.404   4.829 -1.4260  1.9524  0.1121
  507MOL0     H69954  10.599   8.571   4.792 -1.5278  0.9665  0.2427
  507MOL0     H69955  10.598   8.479   4.649 -0.6374  1.6497  0.1335
  507MOL0     H69956  10.523   8.281   4.839 -4.2840 -1.8635 -1.3742
  507MOL0     H69957  10.433   8.357   4.719  0.3319  0.0729 -0.3753
  507MOL0     H69958  10.485   8.463   4.994 -0.8463 -1.1771  1.2307
  507MOL0     H69959  10.379   8.545   4.866 -1.5818 -1.2093 -1.3033
  507MOL0     H69960  10.330   8.264   4.985 -0.0441  0.1647  1.1251
  507MOL0     H69961  10.226   8.366   4.873 -0.2734 -1.8218  0.2547
  507MOL0     H69962  10.207   8.583   5.252  0.8637  2.7736 -0.1731
  507MOL0     H69963  10.669   8.292   4.572  0.7386  1.8052  1.1536
  507MOL0     H69964  10.788   8.016   4.443 -0.2257  0.7229  1.5036
  507MOL0     H69965  10.709   8.166   4.382  2.0993  3.0451 -3.5415
  507MOL0     H69966  10.860   8.127   4.317  0.6127 -1.0326  0.0137
  508MOL0     O69967  10.155   9.342   0.356  0.8166  0.3858 -0.2724
  508MOL0     C69968  10.215   9.429   0.307  0.2226 -0.4404 -0.5663
  508MOL0     O69969  10.227   9.556   0.359 -0.0448 -0.9202  1.1058
  508MOL0     C69970  10.173   9.579   0.482  0.3811 -0.2124 -0.1997
  508MOL0     C69971  10.105   9.707   0.495 -0.2705  0.0567 -0.2273
  508MOL0     C69972  10.019   9.728   0.602 -0.0791  0.1445  0.4446
  508MOL0     C69973  10.014   9.636   0.713  0.2393  0.1220  0.0845
  508MOL0     O69974   9.940   9.659   0.817  0.6329  0.3289 -0.2503
  508MOL0     C69975   9.855   9.771   0.829  0.2513 -0.1933  0.7342
  508MOL0     C69976   9.929   9.882   0.901  0.1479 -0.3387 -0.6422
  508MOL0     C69977  10.023   9.833   1.016  0.4459 -0.3801 -0.8607
  508MOL0     C69978  10.085   9.948   1.099  0.2879 -0.3017 -0.5870
  508MOL0     C69979  10.172   9.881   1.201 -0.5930  0.0218 -0.0237
  508MOL0     C69980  10.243   9.987   1.275 -0.2080 -0.0774  0.5370
  508MOL0     C69981  10.330   9.931   1.382  0.6689 -0.1372  0.2251
  508MOL0     C69982  10.365  10.046   1.483  0.1669 -0.2786 -0.0017
  508MOL0     N69983  10.455  10.003   1.587  0.1586 -0.1937  0.5815
  508MOL0     C69984  10.492   9.871   1.616  0.4012 -0.4011  0.4253
  508MOL0     C69985  10.581   9.872   1.717 -0.0111  0.0067  0.2384
  508MOL0     C69986  10.665   9.754   1.753  0.0786  0.5748  0.1298
  508MOL0     C69987  10.804   9.778   1.692 -0.0202  0.3004  0.5704
  508MOL0     C69988  10.883   9.650   1.711  0.4865  0.9470  0.4084
  508MOL0     C69989  10.937   9.631   1.848 -0.0652  0.1002  0.2507
  508MOL0     O69990  10.979   9.489   1.855  0.4564 -0.4521  0.0590
  508MOL0     C69991  11.041   9.451   1.972 -0.4827  0.2326 -0.0360
  508MOL0     C69992  11.093   9.319   1.972 -0.0778 -0.9350 -0.7423
  508MOL0     C69993  11.156   9.276   2.093 -0.6112 -0.0813 -0.7195
  508MOL0     C69994  11.207   9.141   2.082 -0.3872  0.9024 -0.6763
  508MOL0     C69995  11.169   9.364   2.209 -0.3139  0.7988  0.5814
  508MOL0     C69996  11.249   9.316   2.327 -0.1579  0.4396  0.3317
  508MOL0     O69997  11.241   9.185   2.348  0.0492  0.5778 -0.6292
  508MOL0     C69998  11.345   9.116   2.415 -0.2058 -0.1389  0.8121
  508MOL0     C69999  11.327   8.981   2.423 -0.0482 -0.2998  0.3808
  508MOL0     C70000  11.433   8.905   2.483  0.8365  0.9894 -0.5461
  508MOL0     C70001  11.551   8.962   2.529  0.4941  1.4944  0.1263
  508MOL0     O70002  11.638   8.865   2.566  0.5232 -0.2323 -0.6389
  508MOL0     C70003  11.776   8.910   2.564 -0.3697  0.7763 -0.0822
  508MOL0     C70004  11.855   8.777   2.553 -0.7808 -0.4829  0.6059
  508MOL0     C70005  11.819   8.692   2.432 -0.3793  0.1828  0.7807
  508MOL0     C70006  11.906   8.564   2.441  0.4015 -0.1495 -0.6548
  508MOL0     C70007  11.893   8.471   2.319  0.6314 -0.1822  0.2545
  508MOL0     C70008  11.933   8.325   2.366  0.0460 -0.3809  0.0636
  508MOL0     C70009  11.810   8.233   2.384 -0.1167 -0.3471 -0.7839
  508MOL0     C70010  11.860   8.087   2.442 -0.5358  0.3918  0.3276
  508MOL0    Cl70011  11.924   8.100   2.605 -0.3826  0.1541  0.4179
  508MOL0     C70012  11.570   9.094   2.523  0.5068 -0.2798  0.3254
  508MOL0     C70013  11.464   9.167   2.466  0.4817  0.5327 -0.7134
  508MOL0     O70014  11.273   9.398   2.415 -0.4559 -0.6051 -0.0875
  508MOL0     C70015  11.112   9.495   2.205 -0.1845  0.4727  0.5932
  508MOL0     C70016  11.053   9.533   2.084 -0.3624 -0.2415  0.1108
  508MOL0     N70017  10.588   9.997   1.764  0.5609 -0.4047 -0.1614
  508MOL0     N70018  10.516  10.074   1.687  0.7743  0.1213  0.4393
  508MOL0     C70019  10.087   9.520   0.705  0.2736 -0.3665  0.3435
  508MOL0     C70020  10.169   9.488   0.593  0.2893 -0.7775  0.2136
  508MOL0     C70021  10.291   9.404   0.190  0.4801 -0.6822 -0.2778
  508MOL0     C70022  10.367   9.290   0.194  0.8219  0.8301  0.3984
  508MOL0     C70023  10.459   9.256   0.097 -0.1490  0.4718  0.0760
  508MOL0     C70024  10.490   9.351  -0.007  0.5016 -0.1099  0.2447
  508MOL0     O70025  10.598   9.334  -0.093  0.4043  0.3684 -0.9588
  508MOL0     C70026  10.626   9.426  -0.204 -0.7886 -0.2320  0.3960
  508MOL0     C70027  10.719   9.542  -0.168  0.6668  0.2802 -0.7057
  508MOL0     C70028  10.737   9.613  -0.294 -0.8077  0.3615 -0.5190
  508MOL0     C70029  10.832   9.729  -0.278 -0.0878  0.0513  0.4319
  508MOL0     C70030  10.796   9.811  -0.152 -0.4132  0.0089  0.6524
  508MOL0     C70031  10.783   9.884  -0.053 -0.3253  0.1432  0.0423
  508MOL0     C70032  10.417   9.472  -0.000 -0.6219  0.3338 -0.3836
  508MOL0     C70033  10.309   9.498   0.090 -0.2726 -0.2169 -0.3324
  508MOL0     C70034  10.217   9.615   0.067 -1.0812  0.2550  0.1788
  508MOL0     H70035  10.119   9.777   0.413 -0.0791  0.1228 -0.1402
  508MOL0     H70036   9.958   9.817   0.594  0.2160  0.3046 -0.0960
  508MOL0     H70037   9.772   9.743   0.894 -2.6268 -0.5180 -2.7485
  508MOL0     H70038   9.819   9.808   0.733  1.8242 -0.4676 -0.0033
  508MOL0     H70039   9.977   9.945   0.826  0.1883 -0.9520 -1.1458
  508MOL0     H70040   9.859   9.948   0.952 -0.3043 -0.2493 -1.3716
  508MOL0     H70041   9.961   9.765   1.074 -0.9564  1.6192  0.1040
  508MOL0     H70042  10.103   9.766   0.983  0.4163 -0.8101 -0.0801
  508MOL0     H70043  10.153  10.012   1.042  0.1384  0.2415 -0.1654
  508MOL0     H70044  10.014  10.008   1.157 -1.6624 -1.8447 -1.2514
  508MOL0     H70045  10.242   9.816   1.148 -0.3936 -0.7278  1.1265
  508MOL0     H70046  10.108   9.813   1.258  1.2574 -2.1120 -0.3828
  508MOL0     H70047  10.316  10.034   1.208  1.8468  0.9526  3.3126
  508MOL0     H70048  10.166  10.056   1.310 -1.3367  0.8953 -3.3680
  508MOL0     H70049  10.411   9.880   1.331  1.0524  0.2748  0.4162
  508MOL0     H70050  10.273   9.856   1.438  0.1546 -0.8426 -1.2203
  508MOL0     H70051  10.413  10.123   1.421 -0.9542 -0.5429 -1.2335
  508MOL0     H70052  10.281  10.103   1.523 -1.7555 -2.7360 -0.2905
  508MOL0     H70053  10.467   9.786   1.553  0.0034  0.1867 -0.2183
  508MOL0     H70054  10.623   9.658   1.722 -0.8082  1.5088 -1.7254
  508MOL0     H70055  10.682   9.752   1.861  0.0755 -0.1452  0.1160
  508MOL0     H70056  10.792   9.778   1.583  4.2127 -1.5481 -0.1129
  508MOL0     H70057  10.853   9.867   1.732 -0.2895  0.6645  0.1043
  508MOL0     H70058  10.825   9.563   1.678 -0.5324  1.2907  1.2215
  508MOL0     H70059  10.966   9.655   1.640  1.9818 -0.6549  1.9719
  508MOL0     H70060  11.019   9.699   1.873  0.2428  0.4825 -1.6181
  508MOL0     H70061  10.854   9.655   1.914 -0.9764 -0.7666 -0.5482
  508MOL0     H70062  11.068   9.245   1.898 -2.1366 -0.0876 -0.9452
  508MOL0     H70063  11.213   9.092   1.985  0.3687 -2.9109  1.0853
  508MOL0     H70064  11.137   9.076   2.137  2.3578 -3.2071 -1.6101
  508MOL0     H70065  11.308   9.130   2.122 -1.4346 -1.5528  1.7029
  508MOL0     H70066  11.244   8.926   2.381  1.4144 -1.4846 -1.1378
  508MOL0     H70067  11.419   8.797   2.482 -2.5105  1.3234 -2.2315
  508MOL0     H70068  11.804   8.973   2.479 -0.3517  0.5965 -0.2084
  508MOL0     H70069  11.795   8.952   2.664 -1.4059 -0.0666  0.4821
  508MOL0     H70070  11.955   8.815   2.530 -0.6667 -1.0956  0.0881
  508MOL0     H70071  11.840   8.726   2.649 -1.5903  1.7855  1.7830
  508MOL0     H70072  11.815   8.745   2.337  0.7664 -0.1102  0.5585
  508MOL0     H70073  11.716   8.658   2.445 -0.0668 -1.1602 -0.0360
  508MOL0     H70074  11.868   8.518   2.533 -1.9801  0.8400 -1.0723
  508MOL0     H70075  12.008   8.590   2.469 -0.3002 -1.6999  4.5414
  508MOL0     H70076  11.788   8.466   2.289  0.0807  0.4217  1.9628
  508MOL0     H70077  11.946   8.500   2.228 -0.1464  5.8907  1.3180
  508MOL0     H70078  11.972   8.326   2.468 -2.9463  1.0274  1.3365
  508MOL0     H70079  12.018   8.290   2.306  0.5652  1.2711 -0.2298
  508MOL0     H70080  11.748   8.220   2.295  0.9384 -2.7743 -1.2266
  508MOL0     H70081  11.743   8.283   2.455  1.0019 -0.8549  0.6808
  508MOL0     H70082  11.931   8.040   2.374  0.1901  1.5039  0.2902
  508MOL0     H70083  11.770   8.025   2.439 -0.9054  0.9231  0.2604
  508MOL0     H70084  11.658   9.148   2.555 -0.1613  0.8678  0.2945
  508MOL0     H70085  11.483   9.274   2.461  1.3541  0.4104 -0.1757
  508MOL0     H70086  11.099   9.561   2.291 -2.3131  0.3701  0.4219
  508MOL0     H70087  10.998   9.627   2.079 -0.7641 -0.4895 -0.2120
  508MOL0     H70088  10.084   9.452   0.790  0.0364 -0.2317  0.4453
  508MOL0     H70089  10.234   9.401   0.595  1.6622  0.2228  2.1437
  508MOL0     H70090  10.347   9.205   0.258  1.0580  1.4480  1.3069
  508MOL0     H70091  10.505   9.158   0.091  1.3325  1.1995 -0.9941
  508MOL0     H70092  10.682   9.376  -0.284 -0.8839  0.2341  0.0285
  508MOL0     H70093  10.535   9.452  -0.259  1.2821  0.2873 -3.1386
  508MOL0     H70094  10.817   9.505  -0.136  1.2110  1.5810 -0.8105
  508MOL0     H70095  10.674   9.594  -0.084  1.3885 -1.6810  0.9834
  508MOL0     H70096  10.774   9.554  -0.378  3.5492 -1.3773  2.2516
  508MOL0     H70097  10.642   9.663  -0.314 -0.4218  1.7793  1.0064
  508MOL0     H70098  10.832   9.797  -0.363  3.4239  0.2067  0.3924
  508MOL0     H70099  10.933   9.685  -0.276  0.9802  2.2033 -1.8339
  508MOL0     H70100  10.780   9.934   0.042 -2.6724  1.1343 -0.4804
  508MOL0     H70101  10.427   9.537  -0.087 -0.6082 -1.2385 -1.5943
  508MOL0     H70102  10.214   9.633  -0.041 -0.7273 -0.4456  0.0435
  508MOL0     H70103  10.121   9.584   0.110 -0.8491  0.4947  0.8757
  508MOL0     H70104  10.244   9.714   0.105 -0.7284  0.1023  0.3263
  509MOL0     O70105   9.522   9.524  11.415 -0.2595  1.1906  0.9711
  509MOL0     C70106   9.638   9.529  11.455 -0.5669 -0.4257 -0.2032
  509MOL0     O70107   9.751   9.547  11.382  0.0307  0.0881 -0.0476
  509MOL0     C70108   9.733   9.576  11.248  0.3068 -0.1549  0.2285
  509MOL0     C70109   9.727   9.476  11.155  0.0926  0.4019 -0.1308
  509MOL0     C70110   9.723   9.512  11.020  0.0903 -0.0301  0.4516
  509MOL0     C70111   9.718   9.637  10.971  0.1440  0.4866 -0.3164
  509MOL0     O70112   9.680   9.646  10.843  0.2615  0.4728  0.5756
  509MOL0     C70113   9.603   9.756  10.804  0.0748 -0.0077  0.2971
  509MOL0     C70114   9.562   9.720  10.665  0.1655  0.5334 -0.7429
  509MOL0     C70115   9.643   9.794  10.561 -0.0587 -0.9060 -0.4462
  509MOL0     C70116   9.618   9.756  10.419  0.2258  0.8590  0.2981
  509MOL0     C70117   9.472   9.761  10.374  0.9659  0.5630  0.0601
  509MOL0     C70118   9.414   9.905  10.382 -0.0316  0.0814  0.6370
  509MOL0     C70119   9.277   9.889  10.317  0.5566  0.5689  0.8782
  509MOL0     C70120   9.212  10.029  10.308 -0.1482  0.9589  0.1416
  509MOL0     N70121   9.240  10.098  10.182 -1.1946  0.4705 -0.2227
  509MOL0     C70122   9.236  10.042  10.055 -0.0959  0.2311 -0.4537
  509MOL0     C70123   9.300  10.128   9.975  0.8062 -0.0997 -0.1899
  509MOL0     C70124   9.347  10.120   9.833 -0.8770 -0.4598  0.3436
  509MOL0     C70125   9.247  10.052   9.735 -0.1866  0.1097  0.8309
  509MOL0     C70126   9.313  10.015   9.602  0.0762 -0.3156  0.4158
  509MOL0     C70127   9.208   9.968   9.500 -0.4191 -0.1114 -0.6634
  509MOL0     O70128   9.284   9.922   9.382 -0.3114 -0.5647  0.2142
  509MOL0     C70129   9.382   9.837   9.390  0.0009  0.2304 -0.2750
  509MOL0     C70130   9.486   9.850   9.303 -0.0161  0.2011 -0.3324
  509MOL0     C70131   9.587   9.753   9.287 -0.0728 -0.8797 -0.2732
  509MOL0     C70132   9.692   9.783   9.174  0.5515  0.0557 -0.9097
  509MOL0     C70133   9.592   9.646   9.370  0.0209 -0.4015  0.9251
  509MOL0     C70134   9.689   9.532   9.366  0.3455  0.1349 -0.0834
  509MOL0     O70135   9.738   9.487   9.248 -0.2688  0.6409 -0.1435
  509MOL0     C70136   9.850   9.401   9.234  0.2968 -0.1683  1.0087
  509MOL0     C70137   9.877   9.287   9.309 -0.8546  0.5032 -0.8562
  509MOL0     C70138   9.987   9.202   9.278  0.5826 -1.1485  0.8228
  509MOL0     C70139  10.073   9.235   9.176  0.1878 -0.1702  0.1846
  509MOL0     O70140  10.172   9.147   9.156 -0.3686 -0.6151 -0.0289
  509MOL0     C70141  10.208   9.110   9.021  0.1381 -0.5693 -0.3015
  509MOL0     C70142  10.316   9.001   9.024 -1.0085 -0.1436 -0.5075
  509MOL0     C70143  10.313   8.896   8.904 -0.1303  0.4433 -0.0782
  509MOL0     C70144  10.340   8.965   8.773  0.3894 -0.4482 -0.3004
  509MOL0     C70145  10.487   9.007   8.753  0.5911  0.4545 -0.2702
  509MOL0     C70146  10.514   9.042   8.607  0.5350 -0.2961  0.8621
  509MOL0     C70147  10.660   9.084   8.591 -0.6190  0.1489  0.9265
  509MOL0     C70148  10.762   8.979   8.633 -0.1349 -0.7172  0.2043
  509MOL0    Cl70149  10.722   8.803   8.614  0.2094  0.2747 -0.0449
  509MOL0     C70150  10.043   9.348   9.100  0.0939 -0.0278  0.3895
  509MOL0     C70151   9.934   9.431   9.123 -0.3875 -0.2722 -0.5208
  509MOL0     O70152   9.733   9.497   9.473  0.2728  0.9674  0.0266
  509MOL0     C70153   9.483   9.625   9.452  0.7635  0.0793 -0.6691
  509MOL0     C70154   9.378   9.717   9.464  0.7975  0.0735  1.2076
  509MOL0     N70155   9.336  10.238  10.058  0.3883 -0.3611 -0.0246
  509MOL0     N70156   9.312  10.216  10.178 -0.4616  0.1507 -0.2313
  509MOL0     C70157   9.714   9.739  11.062  0.4622 -0.1037 -0.3622
  509MOL0     C70158   9.719   9.713  11.203 -0.7265 -0.5172  0.4349
  509MOL0     C70159   9.661   9.507  11.602  1.0501 -0.5860 -0.4696
  509MOL0     C70160   9.571   9.573  11.691 -0.5970 -0.1278  0.2411
  509MOL0     C70161   9.580   9.557  11.836 -0.1801  0.6883  0.6851
  509MOL0     C70162   9.684   9.476  11.889 -0.2572  0.8223  0.1042
  509MOL0     O70163   9.680   9.450  12.026 -0.3771  0.6725  0.0904
  509MOL0     C70164   9.776   9.383  12.104 -0.5714 -0.1608 -0.0664
  509MOL0     C70165   9.758   9.234  12.132  0.0795 -0.0565  0.7901
  509MOL0     C70166   9.888   9.165  12.173 -0.4552 -0.9187  0.2382
  509MOL0     C70167   9.856   9.018  12.175  0.1145  0.0552  0.2466
  509MOL0     C70168   9.755   8.985  12.271 -0.8695  0.8556 -0.2321
  509MOL0     C70169   9.669   8.961  12.360 -0.8118 -0.3122 -0.2255
  509MOL0     C70170   9.784   9.422  11.800 -0.3969  0.4131 -0.8689
  509MOL0     C70171   9.767   9.431  11.662  0.0795 -0.9967 -0.0343
  509MOL0     C70172   9.872   9.360  11.584  0.5969  0.4183  0.9263
  509MOL0     H70173   9.728   9.371  11.182  1.0068 -0.9499 -4.5374
  509MOL0     H70174   9.730   9.426  10.955  1.3031 -0.7696  1.5198
  509MOL0     H70175   9.654   9.853  10.800 -2.0509  1.3207  2.8187
  509MOL0     H70176   9.510   9.761  10.860  0.0772  2.3340  0.1885
  509MOL0     H70177   9.572   9.612  10.649  0.1423  0.3972  0.1284
  509MOL0     H70178   9.458   9.753  10.657  0.1790  0.6996 -0.2748
  509MOL0     H70179   9.603   9.895  10.572  0.9789 -0.0656 -3.4539
  509MOL0     H70180   9.752   9.799  10.572 -0.2235  1.7198  0.9628
  509MOL0     H70181   9.669   9.825  10.351 -1.0358 -0.2239 -1.8830
  509MOL0     H70182   9.665   9.658  10.404 -1.9790 -0.3663  0.9247
  509MOL0     H70183   9.413   9.697  10.441  0.4679  0.6631 -0.2799
  509MOL0     H70184   9.469   9.719  10.273  1.0298  1.5772 -0.3797
  509MOL0     H70185   9.402   9.939  10.485 -1.6747  1.5080  0.0188
  509MOL0     H70186   9.479   9.972  10.324 -1.1861 -0.7174 -1.7447
  509MOL0     H70187   9.216   9.821  10.376 -1.5041  1.3554 -0.2598
  509MOL0     H70188   9.297   9.844  10.220  0.2464  1.3005  0.4649
  509MOL0     H70189   9.103  10.028  10.316 -0.3419  0.8888 -2.0910
  509MOL0     H70190   9.259  10.086  10.390  1.5814 -1.0482  0.6505
  509MOL0     H70191   9.187   9.950  10.026 -1.4141  0.1378  1.8337
  509MOL0     H70192   9.444  10.068   9.836  1.1910  3.1073  1.8490
  509MOL0     H70193   9.385  10.216   9.798  0.7960 -1.3700 -0.5097
  509MOL0     H70194   9.212   9.959   9.780  0.9268 -1.6828 -1.7918
  509MOL0     H70195   9.162  10.120   9.724 -0.3982 -0.0562  1.3941
  509MOL0     H70196   9.376  10.095   9.561  1.4037 -2.3051 -1.6775
  509MOL0     H70197   9.386   9.936   9.620  0.4129  0.4015  2.4872
  509MOL0     H70198   9.154   9.883   9.542  0.4766 -0.1010  0.5597
  509MOL0     H70199   9.135  10.042   9.464 -0.2177 -0.7126 -2.4170
  509MOL0     H70200   9.487   9.939   9.242  4.8396  2.3198  2.3034
  509MOL0     H70201   9.684   9.716   9.088 -1.0558 -2.6988  1.2191
  509MOL0     H70202   9.795   9.765   9.208  0.3733 -0.2485 -0.5169
  509MOL0     H70203   9.690   9.890   9.151  1.5986  0.3583  0.2560
  509MOL0     H70204   9.804   9.251   9.381 -1.3412 -0.2436 -1.6876
  509MOL0     H70205  10.006   9.108   9.330  0.8751 -1.1444  0.7207
  509MOL0     H70206  10.117   9.055   8.995 -1.3019  0.7434  1.6670
  509MOL0     H70207  10.229   9.192   8.953  1.4105 -0.7107 -0.0940
  509MOL0     H70208  10.413   9.051   9.021  0.3280 -2.4914  0.4234
  509MOL0     H70209  10.323   8.952   9.122  0.3926  0.2904 -0.3628
  509MOL0     H70210  10.212   8.856   8.898 -0.4094  1.0763  0.2800
  509MOL0     H70211  10.388   8.818   8.922 -0.3785  0.8093  3.1139
  509MOL0     H70212  10.265   9.045   8.767 -0.8939 -1.5173  0.7458
  509MOL0     H70213  10.314   8.896   8.692 -0.4382 -0.5505  0.0361
  509MOL0     H70214  10.505   9.100   8.808  0.4090  0.2085  0.2046
  509MOL0     H70215  10.558   8.936   8.797  0.5667  0.9096  0.5133
  509MOL0     H70216  10.452   9.119   8.561  2.6621 -0.8593 -3.5495
  509MOL0     H70217  10.493   8.951   8.549 -1.4241 -1.0409  2.6228
  509MOL0     H70218  10.694   9.171   8.649 -0.2556  0.8304 -0.2889
  509MOL0     H70219  10.671   9.100   8.484 -2.6848 -0.9108  0.5201
  509MOL0     H70220  10.800   8.995   8.735  1.2242 -0.7563 -0.2709
  509MOL0     H70221  10.842   9.000   8.561 -0.6498 -0.2293 -0.2373
  509MOL0     H70222  10.126   9.369   9.032  0.7064 -2.8143  0.1869
  509MOL0     H70223   9.913   9.521   9.066 -1.3284  1.9009  2.9635
  509MOL0     H70224   9.456   9.534   9.504 -0.0093  0.1403 -0.9609
  509MOL0     H70225   9.288   9.699   9.521  0.1226 -0.5983 -0.0166
  509MOL0     H70226   9.704   9.842  11.029 -0.7624  1.5331  4.2920
  509MOL0     H70227   9.719   9.790  11.280 -0.1995 -1.6745  1.6371
  509MOL0     H70228   9.498   9.637  11.642 -0.3466 -0.0491 -0.0325
  509MOL0     H70229   9.496   9.592  11.894  1.1442 -0.2469  3.3602
  509MOL0     H70230   9.873   9.397  12.055 -0.4515 -0.1811  0.1674
  509MOL0     H70231   9.799   9.426  12.201 -0.8182  1.5524 -0.7264
  509MOL0     H70232   9.711   9.173  12.054  1.9428 -2.4796  1.4525
  509MOL0     H70233   9.685   9.238  12.213 -0.2649 -3.7136  0.8070
  509MOL0     H70234   9.963   9.202  12.102  0.6977 -0.9291  1.4171
  509MOL0     H70235   9.901   9.210  12.272 -1.5508  1.3846 -0.5877
  509MOL0     H70236   9.945   8.964  12.208 -0.8651 -2.3518 -0.8135
  509MOL0     H70237   9.842   8.961  12.082 -0.3631 -0.3870  0.5760
  509MOL0     H70238   9.610   8.947  12.448  1.9551 -0.1248  1.8093
  509MOL0     H70239   9.857   9.347  11.827 -0.4292 -0.1262 -2.1973
  509MOL0     H70240   9.827   9.308  11.499  1.1857 -1.9303  1.9734
  509MOL0     H70241   9.951   9.433  11.563  2.4938 -1.1366  2.2674
  509MOL0     H70242   9.932   9.286  11.638 -0.6980 -1.7309 -0.3929
  510MOL0     O70243   3.702   8.123   2.100 -0.2969 -0.7577 -0.6608
  510MOL0     C70244   3.798   8.106   2.020 -0.2440  0.4353  0.4901
  510MOL0     O70245   3.803   8.177   1.900  0.0424  0.3873 -0.1000
  510MOL0     C70246   3.704   8.264   1.872  0.2222  0.4000  0.4889
  510MOL0     C70247   3.644   8.266   1.742 -0.0218 -0.1945 -0.3749
  510MOL0     C70248   3.555   8.368   1.698 -0.3721 -0.4808 -0.1863
  510MOL0     C70249   3.528   8.476   1.785  0.2105  0.2122 -0.9972
  510MOL0     O70250   3.452   8.595   1.760 -0.9993  0.0891  0.2236
  510MOL0     C70251   3.338   8.575   1.679  0.3059 -0.1161  0.1092
  510MOL0     C70252   3.225   8.507   1.758  0.5472 -0.0729  0.7831
  510MOL0     C70253   3.101   8.492   1.665  0.0635  0.8517 -0.3507
  510MOL0     C70254   3.003   8.401   1.746  0.0778  0.4282  0.4433
  510MOL0     C70255   2.874   8.372   1.668 -0.4413 -0.5888 -0.2949
  510MOL0     C70256   2.788   8.496   1.662 -0.8250  0.2689  0.3213
  510MOL0     C70257   2.662   8.448   1.596 -0.2230  0.1316 -0.6636
  510MOL0     C70258   2.557   8.558   1.596 -0.7888 -0.6848 -0.4358
  510MOL0     N70259   2.447   8.518   1.511 -0.1612 -0.1799  0.4446
  510MOL0     C70260   2.323   8.486   1.548  1.3348 -0.0257  0.4932
  510MOL0     C70261   2.263   8.456   1.431  0.8021 -0.8686 -0.4455
  510MOL0     C70262   2.115   8.402   1.422 -0.0926 -0.8970  0.1792
  510MOL0     C70263   2.031   8.522   1.412  0.2700 -0.4144  0.2621
  510MOL0     C70264   1.972   8.549   1.265 -0.4583  0.0079  0.4444
  510MOL0     C70265   1.862   8.651   1.258  0.0143 -0.2933  0.3026
  510MOL0     O70266   1.773   8.635   1.374  0.0004 -0.1584  0.2459
  510MOL0     C70267   1.729   8.752   1.434 -0.1931  0.1595  0.2844
  510MOL0     C70268   1.621   8.823   1.379 -0.5941 -0.5904 -0.0226
  510MOL0     C70269   1.558   8.919   1.451  0.6373  0.2378 -0.3346
  510MOL0     C70270   1.430   8.968   1.384  0.1122  0.4115 -0.2308
  510MOL0     C70271   1.620   8.971   1.566  0.6904 -0.1570  0.1860
  510MOL0     C70272   1.579   9.088   1.630 -0.5485 -0.4597  1.2187
  510MOL0     O70273   1.682   9.164   1.674 -0.4208  0.2177 -0.4848
  510MOL0     C70274   1.638   9.270   1.756  0.1119  0.1200 -0.1147
  510MOL0     C70275   1.550   9.244   1.870  0.7000 -0.5300  0.0065
  510MOL0     C70276   1.517   9.349   1.955  0.4236 -0.5053  0.5401
  510MOL0     C70277   1.566   9.475   1.928 -0.5279  0.6615 -0.2464
  510MOL0     O70278   1.525   9.570   2.021 -0.2958  0.2595  0.4158
  510MOL0     C70279   1.547   9.707   1.987  0.6640  0.1820 -0.5996
  510MOL0     C70280   1.431   9.776   1.907  0.2402  0.5920  0.2624
  510MOL0     C70281   1.447   9.924   1.915 -1.1671 -0.4654  0.4486
  510MOL0     C70282   1.325   9.991   1.845  0.0333 -0.0063  0.7808
  510MOL0     C70283   1.360  10.020   1.701 -0.0839  0.5320 -1.0406
  510MOL0     C70284   1.428  10.161   1.700  0.0706 -0.0432 -0.0533
  510MOL0     C70285   1.483  10.195   1.568 -0.9673 -0.0567 -0.0103
  510MOL0     C70286   1.625  10.131   1.536 -0.3415  0.4050 -0.8812
  510MOL0    Cl70287   1.680  10.214   1.396  0.6089  0.2020  0.4367
  510MOL0     C70288   1.638   9.502   1.809 -0.3214 -0.1754  0.5452
  510MOL0     C70289   1.683   9.394   1.730  0.1779 -0.4328  0.3124
  510MOL0     O70290   1.460   9.117   1.634 -0.6060  0.0106 -0.2777
  510MOL0     C70291   1.719   8.898   1.628 -0.4651  1.0833 -0.7391
  510MOL0     C70292   1.777   8.789   1.564 -0.5407 -0.2238 -0.4023
  510MOL0     N70293   2.346   8.475   1.324  0.0145  0.8164 -0.5923
  510MOL0     N70294   2.456   8.524   1.374  0.2188  0.1902 -0.0307
  510MOL0     C70295   3.592   8.473   1.917 -0.0973 -0.3968  0.6366
  510MOL0     C70296   3.688   8.378   1.950 -0.0836  0.0168  0.6801
  510MOL0     C70297   3.915   8.013   2.049 -0.3259  0.0290  0.2029
  510MOL0     C70298   4.018   8.012   1.956  0.1183 -0.3823  0.0574
  510MOL0     C70299   4.128   7.934   1.971  0.0956 -0.9825  0.0028
  510MOL0     C70300   4.141   7.845   2.078  0.0364  0.2386  0.0085
  510MOL0     O70301   4.254   7.768   2.098 -0.0732 -0.5619  0.6356
  510MOL0     C70302   4.340   7.730   1.992  0.5620 -0.4348  0.8583
  510MOL0     C70303   4.456   7.651   2.024 -0.4220  0.8158  0.5170
  510MOL0     C70304   4.531   7.636   1.890 -0.7146 -0.5393  1.0920
  510MOL0     C70305   4.664   7.568   1.925 -0.2742  0.5054  0.5108
  510MOL0     C70306   4.764   7.666   1.969 -0.2622  1.1984 -0.2995
  510MOL0     C70307   4.852   7.744   1.982 -0.5283  0.4656 -0.3447
  510MOL0     C70308   4.044   7.845   2.179 -0.1987  0.0037  0.2605
  510MOL0     C70309   3.930   7.928   2.163  0.6830 -0.1722  0.2744
  510MOL0     C70310   3.827   7.916   2.275 -0.2853 -0.0291  0.0027
  510MOL0     H70311   3.662   8.182   1.677 -3.6148 -1.3826 -0.0892
  510MOL0     H70312   3.514   8.350   1.599  0.7078 -2.6641 -0.3014
  510MOL0     H70313   3.362   8.513   1.593  1.2778  1.1247 -0.5391
  510MOL0     H70314   3.307   8.674   1.643  0.4334  0.9311  2.5963
  510MOL0     H70315   3.260   8.411   1.797  0.4241 -0.2620  0.4348
  510MOL0     H70316   3.197   8.572   1.842 -1.3438 -0.6869  0.6766
  510MOL0     H70317   3.057   8.592   1.651  2.6375  2.3894  1.6334
  510MOL0     H70318   3.132   8.445   1.572  1.6416 -0.4600  0.7896
  510MOL0     H70319   3.049   8.308   1.781  0.4360  0.4866  0.1227
  510MOL0     H70320   2.976   8.458   1.835 -1.1680 -0.7388  0.8531
  510MOL0     H70321   2.824   8.288   1.717  0.1785 -0.9601 -0.2783
  510MOL0     H70322   2.896   8.330   1.569 -0.8430 -0.2038 -0.5453
  510MOL0     H70323   2.761   8.531   1.762 -1.8003  1.2772 -0.2733
  510MOL0     H70324   2.824   8.576   1.597  0.3863  0.9591  1.8035
  510MOL0     H70325   2.622   8.361   1.649 -0.8985  1.8277  1.8329
  510MOL0     H70326   2.681   8.425   1.491  0.4475  2.0836 -1.0088
  510MOL0     H70327   2.521   8.567   1.699 -0.3758 -2.9222 -0.0286
  510MOL0     H70328   2.604   8.652   1.568  2.5472 -1.6243  1.3799
  510MOL0     H70329   2.277   8.481   1.646  1.4023 -2.9442  0.4709
  510MOL0     H70330   2.081   8.344   1.508  1.4611 -2.1355 -0.0074
  510MOL0     H70331   2.099   8.345   1.330 -1.1092  1.0573 -0.9374
  510MOL0     H70332   1.950   8.495   1.481  1.1364 -1.9252  0.7414
  510MOL0     H70333   2.086   8.610   1.446 -0.5799  0.7612 -1.3210
  510MOL0     H70334   2.056   8.579   1.202 -1.8048 -0.7287 -1.7926
  510MOL0     H70335   1.934   8.455   1.225 -1.7501  1.2328 -1.3171
  510MOL0     H70336   1.900   8.752   1.241 -0.1863 -0.3622 -0.6445
  510MOL0     H70337   1.806   8.642   1.164  0.4973  0.5018 -0.0700
  510MOL0     H70338   1.580   8.779   1.288  1.9305 -2.3398 -0.4307
  510MOL0     H70339   1.457   9.064   1.339  2.6544 -1.0486 -2.0513
  510MOL0     H70340   1.352   8.987   1.459  0.5164  0.0467  0.2883
  510MOL0     H70341   1.396   8.902   1.304  1.6295 -1.1619  0.3596
  510MOL0     H70342   1.514   9.144   1.894 -0.8526  0.3716  1.6884
  510MOL0     H70343   1.450   9.332   2.040 -0.6613 -0.2335 -0.2322
  510MOL0     H70344   1.545   9.765   2.079 -1.1778 -0.5252 -0.1352
  510MOL0     H70345   1.642   9.731   1.938  1.3206  0.5015  0.7935
  510MOL0     H70346   1.437   9.751   1.800 -2.2268  1.1138 -0.0522
  510MOL0     H70347   1.332   9.742   1.939 -0.3041  0.0405 -1.8514
  510MOL0     H70348   1.537   9.952   1.861  0.4058 -1.7844  2.2595
  510MOL0     H70349   1.445   9.957   2.020  1.5230 -0.4653  0.5609
  510MOL0     H70350   1.303  10.087   1.893  1.5713  0.2839  0.9649
  510MOL0     H70351   1.242   9.920   1.842 -0.5176  0.6703 -0.2133
  510MOL0     H70352   1.429   9.944   1.665  0.5995  1.5468 -1.9376
  510MOL0     H70353   1.263  10.024   1.649 -1.2038  1.5013  0.9745
  510MOL0     H70354   1.511  10.165   1.771 -0.4283 -0.8601  0.6095
  510MOL0     H70355   1.352  10.237   1.720  0.1214 -0.3550  1.4569
  510MOL0     H70356   1.495  10.304   1.569 -1.4350 -0.0102  0.9548
  510MOL0     H70357   1.413  10.169   1.487  1.8836 -1.8350 -2.1095
  510MOL0     H70358   1.615  10.023   1.526  0.7372 -0.0467  1.9465
  510MOL0     H70359   1.699  10.153   1.614  0.1300 -1.0951 -0.8735
  510MOL0     H70360   1.671   9.600   1.776  1.6043 -1.2819 -0.9655
  510MOL0     H70361   1.738   9.422   1.640 -2.4562  2.1111 -0.6760
  510MOL0     H70362   1.739   8.926   1.731  1.3887  3.3108 -1.6140
  510MOL0     H70363   1.861   8.736   1.607 -0.8680 -0.9234 -0.6059
  510MOL0     H70364   3.568   8.549   1.990  0.1846 -0.1811  0.5071
  510MOL0     H70365   3.734   8.376   2.048 -0.8801 -1.5995  1.0690
  510MOL0     H70366   4.006   8.080   1.872 -2.4839 -0.5409  0.2171
  510MOL0     H70367   4.210   7.962   1.905  2.8310  1.7272  4.0174
  510MOL0     H70368   4.275   7.686   1.915 -0.8156  0.9723  1.1594
  510MOL0     H70369   4.362   7.817   1.929 -1.0603  1.5689  2.8821
  510MOL0     H70370   4.422   7.556   2.066 -2.7176  2.3640  2.4230
  510MOL0     H70371   4.519   7.700   2.099  3.2829  0.1945 -1.9113
  510MOL0     H70372   4.476   7.578   1.815 -1.1562  3.1455 -1.7243
  510MOL0     H70373   4.557   7.730   1.840  2.1046 -2.3260 -1.0788
  510MOL0     H70374   4.703   7.531   1.830 -1.1660  1.3365 -0.2082
  510MOL0     H70375   4.656   7.484   1.993 -0.4314 -1.1168 -1.4199
  510MOL0     H70376   4.930   7.818   1.991  1.5459 -1.7946  1.8271
  510MOL0     H70377   4.046   7.772   2.260 -3.1664 -0.7293 -0.2502
  510MOL0     H70378   3.855   7.840   2.348  2.5581  1.0908  0.2232
  510MOL0     H70379   3.831   8.015   2.321  4.0932  1.2040 -2.5039
  510MOL0     H70380   3.731   7.891   2.228 -0.9126 -1.3145  1.8528
  511MOL0     O70381   7.030   0.524   5.218 -0.3606 -0.3252  0.0869
  511MOL0     C70382   6.983   0.607   5.141  0.1476 -0.6020 -0.5844
  511MOL0     O70383   7.048   0.706   5.069  0.0806 -0.1013 -0.1188
  511MOL0     C70384   7.181   0.723   5.078 -0.1840 -0.6433 -0.3394
  511MOL0     C70385   7.229   0.856   5.056  0.2208  0.9004  0.5394
  511MOL0     C70386   7.369   0.885   5.051 -0.2276  0.4056  0.0645
  511MOL0     C70387   7.464   0.793   5.088 -0.2774 -0.1375  0.2016
  511MOL0     O70388   7.599   0.824   5.107  0.2988 -0.3493  0.2873
  511MOL0     C70389   7.703   0.727   5.147 -0.4340 -0.3340  0.4625
  511MOL0     C70390   7.838   0.785   5.099  0.5758  0.2815  0.3870
  511MOL0     C70391   7.960   0.711   5.164  0.3450  0.3556  0.1762
  511MOL0     C70392   7.978   0.561   5.122  0.1102  0.2949 -0.3153
  511MOL0     C70393   8.038   0.472   5.236  0.9867  0.9042  0.0483
  511MOL0     C70394   8.064   0.331   5.186  0.1128  0.9340 -0.0168
  511MOL0     C70395   7.934   0.253   5.160  0.1425  0.2423 -0.4510
  511MOL0     C70396   7.898   0.163   5.269 -0.7307  0.4219  0.1188
  511MOL0     N70397   7.820   0.050   5.212 -0.1380  0.4164 -0.2634
  511MOL0     C70398   7.692   0.045   5.173  0.0251 -0.2946 -0.7058
  511MOL0     C70399   7.669  -0.079   5.139  0.3071  0.7357  0.1568
  511MOL0     C70400   7.545  -0.140   5.089  0.7736  0.6080 -0.2293
  511MOL0     C70401   7.519  -0.104   4.943 -0.2253 -0.2486 -0.3962
  511MOL0     C70402   7.597  -0.200   4.854 -0.6293 -1.1412 -0.1515
  511MOL0     C70403   7.576  -0.188   4.705  0.2445  0.5554 -0.6605
  511MOL0     O70404   7.436  -0.168   4.660  0.0175 -0.0404 -0.2365
  511MOL0     C70405   7.340  -0.264   4.688 -0.1338  0.2960  1.0799
  511MOL0     C70406   7.206  -0.237   4.654 -0.4339  0.6809 -0.7355
  511MOL0     C70407   7.109  -0.328   4.701 -1.1260  0.3589  0.3005
  511MOL0     C70408   6.962  -0.295   4.681  0.3376  0.7595 -0.7591
  511MOL0     C70409   7.150  -0.444   4.766  0.3749  0.4141  0.5812
  511MOL0     C70410   7.062  -0.540   4.839 -0.4772  0.5581 -0.3360
  511MOL0     O70411   6.938  -0.551   4.806  0.7100  0.5314 -0.5835
  511MOL0     C70412   6.860  -0.643   4.877  1.0022  0.6578  1.0640
  511MOL0     C70413   6.897  -0.781   4.902 -0.2318 -0.0324  0.1148
  511MOL0     C70414   6.820  -0.852   4.995 -0.5157  0.4557 -0.4179
  511MOL0     C70415   6.698  -0.802   5.040 -0.1500 -0.6341  0.1817
  511MOL0     O70416   6.618  -0.891   5.108  0.1371 -0.0108  0.1615
  511MOL0     C70417   6.483  -0.896   5.072  0.3107  0.0429  0.1269
  511MOL0     C70418   6.393  -0.932   5.190 -0.2925  0.3076  0.0030
  511MOL0     C70419   6.235  -0.937   5.151 -0.0103 -0.3799 -0.0450
  511MOL0     C70420   6.148  -0.997   5.258  0.5921  0.0353 -0.4103
  511MOL0     C70421   6.019  -1.035   5.197  1.4117  0.5214  0.7577
  511MOL0     C70422   5.910  -1.096   5.289 -0.7347  0.1176  0.1236
  511MOL0     C70423   5.817  -0.982   5.334 -0.5333 -0.1048 -0.0645
  511MOL0     C70424   5.882  -0.887   5.435  0.2859  0.6014 -0.3589
  511MOL0    Cl70425   5.946  -0.965   5.582  0.2020  0.1036 -0.3946
  511MOL0     C70426   6.659  -0.670   5.010  0.1722 -0.5960 -0.5521
  511MOL0     C70427   6.733  -0.602   4.912  0.6573 -0.5035 -1.4783
  511MOL0     O70428   7.120  -0.607   4.934 -0.2781 -0.6385 -0.0778
  511MOL0     C70429   7.286  -0.477   4.769  0.2802  0.3807 -0.8414
  511MOL0     C70430   7.382  -0.395   4.734  0.4078  0.4137 -0.2473
  511MOL0     N70431   7.790  -0.156   5.150 -0.8084 -0.7462  0.1081
  511MOL0     N70432   7.879  -0.075   5.204 -0.4519 -0.3464  0.6949
  511MOL0     C70433   7.415   0.662   5.123 -0.0537  0.5027  0.1172
  511MOL0     C70434   7.280   0.627   5.110 -0.0190 -0.2914 -0.1886
  511MOL0     C70435   6.832   0.599   5.127  0.1003 -0.3748 -0.7463
  511MOL0     C70436   6.757   0.553   5.243  0.3047 -0.7173 -0.9955
  511MOL0     C70437   6.620   0.533   5.233 -0.0461 -0.3884  0.7834
  511MOL0     C70438   6.544   0.568   5.118 -0.1173  0.6479 -0.3636
  511MOL0     O70439   6.400   0.563   5.126 -0.0492  0.4462  1.4010
  511MOL0     C70440   6.331   0.595   5.247  1.1102  0.3066  0.0503
  511MOL0     C70441   6.371   0.723   5.317 -0.1432  0.4283  0.9371
  511MOL0     C70442   6.249   0.785   5.392 -1.0282  0.4009  0.4843
  511MOL0     C70443   6.188   0.710   5.508 -0.0124 -0.2285 -0.5362
  511MOL0     C70444   6.092   0.813   5.568 -0.1921  1.0941  0.2882
  511MOL0     C70445   6.035   0.912   5.603 -0.2646 -1.5697  0.5001
  511MOL0     C70446   6.615   0.620   5.005  0.3276 -0.1066 -0.5623
  511MOL0     C70447   6.761   0.637   5.008  0.5951 -0.1816 -0.1862
  511MOL0     C70448   6.834   0.687   4.887 -0.5729 -0.1276  0.4422
  511MOL0     H70449   7.162   0.941   5.043 -1.3915 -0.7173 -3.1453
  511MOL0     H70450   7.410   0.980   5.018  1.3517 -0.9526 -2.2182
  511MOL0     H70451   7.698   0.627   5.104  2.0759 -0.7903  1.0578
  511MOL0     H70452   7.717   0.716   5.255 -1.4116 -1.0719  0.5268
  511MOL0     H70453   7.853   0.763   4.993  2.4971 -2.3573  1.1100
  511MOL0     H70454   7.840   0.892   5.120 -2.2571  0.5555 -0.4161
  511MOL0     H70455   8.052   0.768   5.150  0.5008  0.1997  0.5588
  511MOL0     H70456   7.944   0.714   5.272 -0.8176  2.8934  0.0128
  511MOL0     H70457   7.880   0.531   5.085  0.6533 -2.3508  0.2346
  511MOL0     H70458   8.053   0.569   5.043  1.5939  1.4521  1.1411
  511MOL0     H70459   7.963   0.478   5.315 -0.2449  2.4707 -1.1661
  511MOL0     H70460   8.132   0.511   5.277  0.5693  3.9369 -1.5939
  511MOL0     H70461   8.109   0.347   5.088 -1.7105  2.1791 -0.7084
  511MOL0     H70462   8.137   0.270   5.238 -0.6531  0.4131  0.4649
  511MOL0     H70463   7.958   0.187   5.076 -2.3124 -3.0688  1.2219
  511MOL0     H70464   7.850   0.316   5.129 -0.6734 -1.2603 -1.4538
  511MOL0     H70465   7.985   0.119   5.318 -1.5502 -1.3667  0.0749
  511MOL0     H70466   7.853   0.223   5.349 -0.0522  1.6203 -0.3816
  511MOL0     H70467   7.624   0.130   5.171 -1.0671 -1.1628 -0.9029
  511MOL0     H70468   7.472  -0.088   5.151 -0.2525  0.8481 -1.5921
  511MOL0     H70469   7.520  -0.243   5.116 -0.4194  1.4341  2.0697
  511MOL0     H70470   7.410  -0.105   4.932 -0.5974  2.5238  1.9092
  511MOL0     H70471   7.537   0.002   4.918 -1.1930 -0.3437 -1.6137
  511MOL0     H70472   7.704  -0.180   4.868 -0.4225 -1.7007 -0.8524
  511MOL0     H70473   7.584  -0.300   4.894 -1.4387 -0.6136  0.9524
  511MOL0     H70474   7.631  -0.099   4.673  1.0944  0.8133  1.3583
  511MOL0     H70475   7.627  -0.271   4.655 -0.2329 -0.8069  1.0482
  511MOL0     H70476   7.184  -0.144   4.604  0.4535  1.1971 -0.1890
  511MOL0     H70477   6.917  -0.254   4.771  2.2899  1.2410  0.0501
  511MOL0     H70478   6.908  -0.373   4.627 -2.2462  1.2256  0.9816
  511MOL0     H70479   6.959  -0.212   4.609  1.9184  0.8349 -0.7755
  511MOL0     H70480   6.992  -0.813   4.861  0.8952  0.7690  1.9232
  511MOL0     H70481   6.839  -0.951   5.036 -4.7792 -0.5054 -0.2999
  511MOL0     H70482   6.446  -0.802   5.029  0.0826 -0.8921 -1.8727
  511MOL0     H70483   6.476  -0.966   4.987 -2.4641 -0.2231  0.5032
  511MOL0     H70484   6.437  -1.025   5.227  4.1771  1.5094 -1.5671
  511MOL0     H70485   6.410  -0.854   5.265 -0.6640 -2.9818  3.8382
  511MOL0     H70486   6.224  -0.998   5.061 -2.1004 -1.7051  1.0484
  511MOL0     H70487   6.216  -0.832   5.124 -2.0203 -1.1168 -1.7534
  511MOL0     H70488   6.138  -0.917   5.331 -1.1772 -0.4313 -0.0925
  511MOL0     H70489   6.204  -1.077   5.307  0.5870  1.8037  2.7315
  511MOL0     H70490   5.981  -0.953   5.135  4.1435  0.5346 -1.0716
  511MOL0     H70491   6.026  -1.116   5.124 -0.1208  1.3125 -0.3196
  511MOL0     H70492   5.948  -1.142   5.380 -3.7972  3.4507  3.3977
  511MOL0     H70493   5.863  -1.178   5.235  3.1137 -1.7453 -0.7856
  511MOL0     H70494   5.733  -1.030   5.385  0.0067 -0.2038  0.7564
  511MOL0     H70495   5.786  -0.927   5.245  2.2769  2.3498  0.2919
  511MOL0     H70496   5.803  -0.823   5.474 -0.4335  1.4383 -2.9952
  511MOL0     H70497   5.951  -0.812   5.393  3.0471  0.1076  2.9040
  511MOL0     H70498   6.570  -0.624   5.051  0.3470  1.4303 -2.3155
  511MOL0     H70499   6.695  -0.502   4.891 -1.5055 -0.1336  3.0909
  511MOL0     H70500   7.318  -0.570   4.815  2.8833  0.6870 -1.8989
  511MOL0     H70501   7.482  -0.430   4.759 -0.6135 -0.4712  3.1178
  511MOL0     H70502   7.486   0.583   5.146 -3.7183 -3.5647 -1.2184
  511MOL0     H70503   7.251   0.528   5.144  0.7483 -0.7523 -0.8450
  511MOL0     H70504   6.805   0.524   5.335 -0.5146 -1.6324 -0.8342
  511MOL0     H70505   6.565   0.496   5.319  1.3007 -3.4898  0.4794
  511MOL0     H70506   6.225   0.599   5.219  1.2938  2.3760 -0.5231
  511MOL0     H70507   6.339   0.511   5.317 -3.7118 -0.4468  0.0262
  511MOL0     H70508   6.420   0.796   5.253 -2.2776  1.2917  0.1984
  511MOL0     H70509   6.450   0.689   5.385 -0.3177  0.8564  1.3594
  511MOL0     H70510   6.286   0.887   5.410  2.4999 -0.8438  1.0008
  511MOL0     H70511   6.171   0.804   5.318  0.6174 -0.3287 -1.5195
  511MOL0     H70512   6.262   0.675   5.580 -2.4880  0.7206  2.6939
  511MOL0     H70513   6.144   0.618   5.467  1.8378 -0.4185 -2.2195
  511MOL0     H70514   5.982   0.993   5.648  1.7884 -0.6247  1.3591
  511MOL0     H70515   6.560   0.644   4.915  1.9224  1.3272 -1.2293
  511MOL0     H70516   6.767   0.675   4.802 -1.2614 -1.7459  1.1736
  511MOL0     H70517   6.867   0.791   4.897  1.3709 -0.7788  1.2742
  511MOL0     H70518   6.917   0.622   4.857 -0.5665  0.5817 -1.1835
  512MOL0     O70519  10.323   7.588   4.153 -0.2533  0.1426  0.3051
  512MOL0     C70520  10.234   7.505   4.137 -0.6754  1.0118 -0.3302
  512MOL0     O70521  10.248   7.377   4.114 -0.0967 -0.6656  0.4620
  512MOL0     C70522  10.372   7.312   4.096 -0.8411  0.6810 -0.2490
  512MOL0     C70523  10.380   7.169   4.063  0.6081 -2.1657  0.1351
  512MOL0     C70524  10.496   7.093   4.057 -0.1905  0.1926 -0.2522
  512MOL0     C70525  10.619   7.147   4.076  0.2857  0.0464 -1.0030
  512MOL0     O70526  10.736   7.073   4.068  0.4392 -0.0235  0.2551
  512MOL0     C70527  10.862   7.136   4.048  0.2615  0.8365  0.2142
  512MOL0     C70528  10.959   7.031   3.988  0.5379 -0.0904  0.3244
  512MOL0     C70529  10.960   6.996   3.844  0.5758 -0.7031 -0.2118
  512MOL0     C70530  11.077   6.902   3.819  0.7248  0.1588 -0.0795
  512MOL0     C70531  11.087   6.857   3.670 -0.5794  0.7341  0.7600
  512MOL0     C70532  11.195   6.744   3.655  0.5072  0.5710  0.0490
  512MOL0     C70533  11.213   6.706   3.508 -0.4385 -0.9860 -0.9830
  512MOL0     C70534  11.367   6.675   3.497  0.7516 -0.3063 -0.3651
  512MOL0     N70535  11.409   6.615   3.365  0.0223 -0.7739 -0.4672
  512MOL0     C70536  11.373   6.674   3.244 -0.1352 -0.1502 -0.1951
  512MOL0     C70537  11.449   6.601   3.161  0.1226 -0.1919 -0.9462
  512MOL0     C70538  11.474   6.631   3.010 -0.2460 -0.5608  0.7288
  512MOL0     C70539  11.609   6.597   2.956  0.3622 -0.5728  0.3293
  512MOL0     C70540  11.708   6.702   3.006  0.0308 -0.7654  0.9883
  512MOL0     C70541  11.854   6.686   2.942  0.6457 -0.2778 -0.5315
  512MOL0     O70542  11.904   6.556   2.956  0.2448  0.1412 -0.5597
  512MOL0     C70543  11.962   6.531   3.078 -1.2351  0.1900  0.0592
  512MOL0     C70544  11.886   6.497   3.188  0.1320 -1.0490 -0.0308
  512MOL0     C70545  11.943   6.477   3.312 -0.2490  0.1305  0.5121
  512MOL0     C70546  11.847   6.441   3.416  0.7627 -0.5799  0.1080
  512MOL0     C70547  12.094   6.477   3.327  0.2596 -0.7755  0.4998
  512MOL0     C70548  12.165   6.431   3.445 -1.2041 -0.3806  0.4428
  512MOL0     O70549  12.302   6.387   3.433 -0.8673 -0.3302 -0.6609
  512MOL0     C70550  12.386   6.418   3.539 -0.6734 -0.0895 -0.0294
  512MOL0     C70551  12.358   6.519   3.636 -1.0067  0.5450  0.7603
  512MOL0     C70552  12.461   6.556   3.736  0.6637 -0.1931 -0.3133
  512MOL0     C70553  12.565   6.470   3.750 -0.2320 -0.8598 -0.3548
  512MOL0     O70554  12.669   6.500   3.834  0.4252 -0.5793 -0.1318
  512MOL0     C70555  12.766   6.587   3.773  0.8211  0.1219 -0.2246
  512MOL0     C70556  12.897   6.579   3.844 -0.9581 -0.1956 -0.2131
  512MOL0     C70557  12.878   6.605   3.996  0.6488  0.0651  0.5741
  512MOL0     C70558  13.016   6.603   4.073  0.0729 -0.1402  0.3063
  512MOL0     C70559  13.004   6.624   4.222  0.4826 -0.4659 -0.0688
  512MOL0     C70560  13.148   6.608   4.290  0.3783 -0.3211  0.2497
  512MOL0     C70561  13.123   6.645   4.439 -0.1289  0.2446 -0.5896
  512MOL0     C70562  13.122   6.797   4.472 -0.7688  1.6418  0.5291
  512MOL0    Cl70563  13.279   6.864   4.457 -0.4224  0.2979  0.3879
  512MOL0     C70564  12.582   6.368   3.665  0.6500 -0.7365  0.8989
  512MOL0     C70565  12.503   6.351   3.551 -0.1377  0.5376 -0.3065
  512MOL0     O70566  12.103   6.412   3.551  0.0634 -0.1823 -0.3145
  512MOL0     C70567  12.165   6.522   3.210  0.0808  0.9970 -0.4210
  512MOL0     C70568  12.102   6.550   3.097  0.6836 -0.1258 -0.0024
  512MOL0     N70569  11.533   6.514   3.233  0.3477 -0.1166 -0.4883
  512MOL0     N70570  11.497   6.523   3.354 -0.2686  0.6206  0.7461
  512MOL0     C70571  10.625   7.282   4.107 -0.2891 -0.6378 -0.6528
  512MOL0     C70572  10.510   7.359   4.122  0.6419 -0.5218 -0.0304
  512MOL0     C70573  10.097   7.572   4.121 -0.9200  0.3423  0.2302
  512MOL0     C70574  10.082   7.687   4.203 -0.7312  0.1313 -0.5157
  512MOL0     C70575   9.953   7.736   4.220  0.4256 -1.0321  0.4314
  512MOL0     C70576   9.849   7.683   4.151  0.1047 -0.3905 -0.1131
  512MOL0     O70577   9.727   7.742   4.169 -0.5518  0.2010 -0.2298
  512MOL0     C70578   9.641   7.767   4.061  0.3506 -0.2770 -0.3637
  512MOL0     C70579   9.507   7.710   4.091 -0.4849  0.4894 -0.6438
  512MOL0     C70580   9.408   7.762   3.988  0.1157 -0.5677 -0.8675
  512MOL0     C70581   9.263   7.735   4.036 -0.2962 -0.0396 -0.3438
  512MOL0     C70582   9.236   7.820   4.152 -0.5811 -0.2314  0.7316
  512MOL0     C70583   9.204   7.888   4.245 -0.2616  0.6464 -1.0910
  512MOL0     C70584   9.869   7.586   4.052  0.2567  0.0129  0.1232
  512MOL0     C70585   9.995   7.524   4.036 -0.1008  0.0396 -0.1158
  512MOL0     C70586  10.005   7.406   3.944 -0.5499 -0.7300 -0.1332
  512MOL0     H70587  10.287   7.117   4.044 -0.0387 -2.0272  2.5223
  512MOL0     H70588  10.482   6.988   4.037 -1.8690  0.1279  1.0169
  512MOL0     H70589  10.892   7.181   4.143  2.9282  1.6884 -0.9407
  512MOL0     H70590  10.865   7.213   3.970  1.6044  0.3636 -0.2140
  512MOL0     H70591  11.055   7.075   4.016  0.6331  0.3407 -0.6557
  512MOL0     H70592  10.952   6.943   4.054  0.7140  1.3153  2.3027
  512MOL0     H70593  10.865   6.956   3.808 -0.9103  0.7371  1.8681
  512MOL0     H70594  10.979   7.092   3.795  3.8591 -0.0986  1.9533
  512MOL0     H70595  11.172   6.954   3.834  3.4254 -2.8298 -4.6504
  512MOL0     H70596  11.074   6.812   3.880  0.6615 -0.0905 -0.4494
  512MOL0     H70597  11.122   6.948   3.621  0.6368 -0.4965 -0.7790
  512MOL0     H70598  10.990   6.830   3.628  0.2998  0.3589 -1.1362
  512MOL0     H70599  11.287   6.785   3.698 -0.5061  2.8118  0.1687
  512MOL0     H70600  11.169   6.657   3.716  1.0989 -0.2050 -0.7715
  512MOL0     H70601  11.180   6.789   3.445 -2.8766 -1.5065 -0.4929
  512MOL0     H70602  11.162   6.615   3.476  0.0151 -0.9966 -1.6959
  512MOL0     H70603  11.412   6.774   3.508 -1.0964  0.4646  0.6917
  512MOL0     H70604  11.403   6.603   3.571 -1.1515 -0.5303  0.3927
  512MOL0     H70605  11.304   6.757   3.230  0.1695  0.0173 -0.7090
  512MOL0     H70606  11.450   6.737   2.993  0.7843 -0.4208  0.0489
  512MOL0     H70607  11.401   6.578   2.948 -1.9720  1.1224  1.2081
  512MOL0     H70608  11.632   6.493   2.982  0.2271 -0.8127 -0.4790
  512MOL0     H70609  11.613   6.607   2.847  1.4638  1.8770  0.5243
  512MOL0     H70610  11.670   6.801   2.977  0.6988 -0.9308 -0.5463
  512MOL0     H70611  11.709   6.700   3.115 -1.5657 -2.0726  1.0038
  512MOL0     H70612  11.852   6.717   2.837  0.5590  2.3618  0.1748
  512MOL0     H70613  11.915   6.760   2.995 -0.0002 -0.3536  0.3259
  512MOL0     H70614  11.782   6.506   3.161  0.3306 -0.1957 -0.5490
  512MOL0     H70615  11.865   6.347   3.469 -1.5807 -2.1749 -1.7302
  512MOL0     H70616  11.747   6.445   3.373  1.5874  1.3347 -1.7828
  512MOL0     H70617  11.844   6.517   3.495  0.0841 -2.3645  1.9034
  512MOL0     H70618  12.262   6.569   3.638 -2.5166 -2.1649  0.9253
  512MOL0     H70619  12.449   6.634   3.810 -1.3936  0.3048 -1.1001
  512MOL0     H70620  12.793   6.564   3.670  0.2827 -0.6995 -0.1921
  512MOL0     H70621  12.729   6.689   3.783 -0.7176 -0.6114  2.9976
  512MOL0     H70622  12.937   6.479   3.828 -0.4531 -0.1338  0.5890
  512MOL0     H70623  12.970   6.656   3.815 -3.4633  2.0625 -0.9297
  512MOL0     H70624  12.812   6.527   4.035 -0.8394  1.9047  1.9265
  512MOL0     H70625  12.833   6.700   4.026  1.8556  0.2722  1.8599
  512MOL0     H70626  13.079   6.682   4.030 -1.8693  0.4086 -1.7278
  512MOL0     H70627  13.061   6.506   4.047 -0.5894 -0.5256  0.5906
  512MOL0     H70628  12.972   6.728   4.232  2.3175 -0.0046  1.7706
  512MOL0     H70629  12.930   6.563   4.274 -0.8164  1.6923  0.7387
  512MOL0     H70630  13.221   6.671   4.238 -1.4240  0.3506 -1.5501
  512MOL0     H70631  13.181   6.504   4.282 -0.2724 -0.8522  3.1588
  512MOL0     H70632  13.210   6.600   4.487  0.4211  1.1909 -0.6781
  512MOL0     H70633  13.030   6.597   4.470 -0.0166 -0.0584 -0.7190
  512MOL0     H70634  13.081   6.828   4.569 -1.6474  1.5660  0.1938
  512MOL0     H70635  13.069   6.845   4.389 -0.4318 -0.6383 -1.1172
  512MOL0     H70636  12.678   6.318   3.670  1.8060  1.2370 -0.3889
  512MOL0     H70637  12.531   6.276   3.477  3.4410  2.3288 -0.9617
  512MOL0     H70638  12.274   6.514   3.207  0.1455  1.9480 -2.6428
  512MOL0     H70639  12.168   6.579   3.016 -0.7559 -2.1735 -2.0509
  512MOL0     H70640  10.716   7.329   4.143 -1.3250 -0.5693  2.0702
  512MOL0     H70641  10.507   7.465   4.147 -2.6681 -0.8549  1.5213
  512MOL0     H70642  10.159   7.721   4.271  0.5486 -0.3132 -1.6824
  512MOL0     H70643   9.938   7.822   4.285 -1.0681 -2.4229  2.0199
  512MOL0     H70644   9.630   7.876   4.058  1.6092 -0.1050  0.4216
  512MOL0     H70645   9.681   7.733   3.965  1.7810 -2.9406  1.0555
  512MOL0     H70646   9.475   7.734   4.193  0.6560 -1.3815  0.2118
  512MOL0     H70647   9.515   7.601   4.095  0.5292  0.5585 -0.3588
  512MOL0     H70648   9.427   7.868   3.969  2.3159  0.5602  5.2659
  512MOL0     H70649   9.403   7.706   3.895 -0.3116 -2.9982  0.5419
  512MOL0     H70650   9.254   7.631   4.068  1.2893  0.7822  3.2797
  512MOL0     H70651   9.202   7.754   3.947 -0.3901  0.2919 -0.2087
  512MOL0     H70652   9.182   7.938   4.338 -0.7702 -1.1442 -0.2005
  512MOL0     H70653   9.775   7.547   4.014  0.1443  1.3579 -1.0540
  512MOL0     H70654   9.918   7.402   3.877 -2.0301 -1.0668  1.7356
  512MOL0     H70655  10.102   7.408   3.894  0.2532  0.8129  1.3909
  512MOL0     H70656  10.003   7.310   3.996  0.8855 -2.1931 -2.5953
  513MOL0     O70657   2.897   4.448   4.643 -0.4760 -0.8192  0.4899
  513MOL0     C70658   2.878   4.339   4.685  0.5284 -0.3958 -0.9213
  513MOL0     O70659   2.761   4.269   4.669 -0.5851  0.0082  0.6708
  513MOL0     C70660   2.661   4.309   4.582 -0.3565 -0.0702 -0.0541
  513MOL0     C70661   2.681   4.323   4.447  0.8782 -0.6413  0.0820
  513MOL0     C70662   2.573   4.356   4.373  0.7236  0.0415 -0.6184
  513MOL0     C70663   2.451   4.380   4.425  0.7747  0.3259  0.1510
  513MOL0     O70664   2.337   4.394   4.345 -0.1757 -0.7309  0.4585
  513MOL0     C70665   2.320   4.286   4.259  0.8850 -0.2690  0.2122
  513MOL0     C70666   2.174   4.255   4.250  0.4115  0.3912 -0.0880
  513MOL0     C70667   2.086   4.377   4.203 -0.0479 -0.2566  0.1791
  513MOL0     C70668   1.934   4.361   4.225  0.4020 -0.2814  0.2869
  513MOL0     C70669   1.850   4.424   4.118  0.1957 -0.7138 -0.2344
  513MOL0     C70670   1.865   4.575   4.099  0.2158  0.2940 -0.1201
  513MOL0     C70671   1.764   4.608   3.986 -0.0798 -0.1806  0.6445
  513MOL0     C70672   1.760   4.760   3.949  0.2781  0.0009 -0.8142
  513MOL0     N70673   1.886   4.797   3.885  0.0971 -0.4732  0.3841
  513MOL0     C70674   1.955   4.913   3.911  0.0873 -1.5906  0.1777
  513MOL0     C70675   2.055   4.910   3.821  0.9116 -0.4604 -1.0477
  513MOL0     C70676   2.174   4.998   3.837  0.2426  0.6416  0.0653
  513MOL0     C70677   2.272   4.944   3.943 -0.6853 -0.4453  0.1585
  513MOL0     C70678   2.315   5.054   4.035 -0.3858 -0.0092 -1.5872
  513MOL0     C70679   2.406   4.993   4.144  0.6542 -0.8457  0.2823
  513MOL0     O70680   2.520   4.940   4.074  0.3576  0.1656 -0.1358
  513MOL0     C70681   2.648   4.973   4.107 -0.3485 -0.8922 -0.2105
  513MOL0     C70682   2.718   5.072   4.046  0.1305  0.3102 -0.8264
  513MOL0     C70683   2.853   5.090   4.079 -0.5572 -0.0477 -1.0068
  513MOL0     C70684   2.928   5.198   4.006  0.1316  0.8212 -0.3711
  513MOL0     C70685   2.910   5.026   4.189  1.2862 -0.7687 -0.6532
  513MOL0     C70686   3.053   5.038   4.224  0.3295 -0.2594  0.8373
  513MOL0     O70687   3.141   5.063   4.124 -0.1360  0.1630  0.3099
  513MOL0     C70688   3.271   5.093   4.143 -0.8282  0.0956  0.6651
  513MOL0     C70689   3.366   5.005   4.103 -0.5212 -0.7568 -0.1615
  513MOL0     C70690   3.507   5.017   4.132 -0.3836  0.3488  0.4443
  513MOL0     C70691   3.550   5.129   4.199  0.0906 -0.2886 -0.1255
  513MOL0     O70692   3.680   5.157   4.234 -0.2935  0.8709  0.1764
  513MOL0     C70693   3.750   5.249   4.146  0.4481 -0.0129  0.0622
  513MOL0     C70694   3.897   5.264   4.192 -0.1445  0.3486  0.4220
  513MOL0     C70695   3.966   5.132   4.227 -0.7667 -0.6830 -0.0300
  513MOL0     C70696   4.123   5.134   4.233  0.4784  0.6575 -0.7220
  513MOL0     C70697   4.178   4.996   4.270  0.4740 -0.5069  0.4151
  513MOL0     C70698   4.322   4.978   4.222  0.3749 -0.2882 -0.5745
  513MOL0     C70699   4.351   4.988   4.070  0.4562  0.1548 -0.1962
  513MOL0     C70700   4.481   4.937   4.027 -0.8672  0.2424 -0.1319
  513MOL0    Cl70701   4.623   5.036   4.100 -0.1552  0.0151  0.3682
  513MOL0     C70702   3.458   5.232   4.238  0.0523 -0.1297 -0.3779
  513MOL0     C70703   3.322   5.218   4.208 -0.1028  0.7641 -0.0454
  513MOL0     O70704   3.082   5.037   4.345  0.4280  0.9130  0.2745
  513MOL0     C70705   2.824   4.948   4.273 -0.1838  0.1066  0.7885
  513MOL0     C70706   2.697   4.912   4.225 -0.3535 -0.6241  0.0057
  513MOL0     N70707   2.045   4.797   3.746 -0.3775  0.6185  0.4966
  513MOL0     N70708   1.938   4.736   3.779  0.3147  0.9334 -0.2166
  513MOL0     C70709   2.430   4.386   4.562 -0.5279 -0.0376  0.0395
  513MOL0     C70710   2.536   4.351   4.645 -0.0823  0.6513 -0.0341
  513MOL0     C70711   2.992   4.261   4.749  1.2384  0.6812 -0.1471
  513MOL0     C70712   2.954   4.127   4.781 -0.7376 -0.3113 -0.5067
  513MOL0     C70713   3.037   4.046   4.857 -0.0234 -0.0666  0.8039
  513MOL0     C70714   3.168   4.080   4.880 -0.1638 -0.2430 -0.1252
  513MOL0     O70715   3.243   3.987   4.954  0.4947 -0.0364  0.0571
  513MOL0     C70716   3.357   4.032   5.032  1.2021 -0.8400  0.2676
  513MOL0     C70717   3.406   3.913   5.113  0.6762 -0.4924 -0.5236
  513MOL0     C70718   3.449   3.790   5.028 -0.4877 -0.5526  0.1257
  513MOL0     C70719   3.521   3.691   5.126 -0.7520 -0.4414 -0.2235
  513MOL0     C70720   3.502   3.553   5.096 -0.1978  0.6727 -0.0186
  513MOL0     C70721   3.492   3.444   5.052  0.1735  0.6619 -0.3711
  513MOL0     C70722   3.211   4.208   4.840  0.4435  0.3346 -0.2525
  513MOL0     C70723   3.122   4.296   4.785 -0.0582 -0.8421 -0.6532
  513MOL0     C70724   3.174   4.436   4.756 -0.4580 -0.3222 -0.4231
  513MOL0     H70725   2.769   4.296   4.390 -0.1853 -0.6612 -1.6162
  513MOL0     H70726   2.582   4.372   4.266 -1.1486  0.0724 -0.8020
  513MOL0     H70727   2.375   4.200   4.299 -0.3029 -1.1515  0.0110
  513MOL0     H70728   2.354   4.313   4.159 -0.5107 -2.2043 -0.8610
  513MOL0     H70729   2.153   4.162   4.197 -0.6342  0.1548  0.7087
  513MOL0     H70730   2.148   4.222   4.351  0.8308 -3.1038 -0.9891
  513MOL0     H70731   2.115   4.477   4.236 -2.6152  2.5597 -4.8930
  513MOL0     H70732   2.098   4.382   4.094 -0.1034  1.0126  0.2220
  513MOL0     H70733   1.915   4.254   4.226  1.5418 -0.5052  1.0477
  513MOL0     H70734   1.914   4.402   4.324 -0.4368  0.4307 -0.1645
  513MOL0     H70735   1.745   4.401   4.138 -0.4390 -0.8506 -3.2379
  513MOL0     H70736   1.879   4.375   4.025  1.4648 -1.4364  0.5203
  513MOL0     H70737   1.838   4.629   4.191 -0.2738  0.9165 -0.6141
  513MOL0     H70738   1.967   4.609   4.074  0.4058 -0.2702 -0.1127
  513MOL0     H70739   1.664   4.571   4.012  1.3276 -3.3933  1.9882
  513MOL0     H70740   1.802   4.567   3.893 -1.0967 -0.8666  0.5119
  513MOL0     H70741   1.686   4.774   3.870  1.2315  2.4003 -1.3787
  513MOL0     H70742   1.749   4.825   4.036  0.6183  0.2958 -0.9865
  513MOL0     H70743   1.937   4.988   3.988  0.3110  0.4108 -1.6246
  513MOL0     H70744   2.139   5.101   3.850  1.5042  1.0798  0.1313
  513MOL0     H70745   2.238   4.990   3.748  1.8862  0.4216  1.2348
  513MOL0     H70746   2.219   4.868   4.001 -0.3259 -2.5356 -2.0956
  513MOL0     H70747   2.362   4.904   3.895 -2.0372 -1.5723 -1.5800
  513MOL0     H70748   2.373   5.130   3.981  1.1610 -1.5460 -2.1905
  513MOL0     H70749   2.233   5.100   4.090 -0.8979 -0.2076 -2.1620
  513MOL0     H70750   2.440   5.071   4.213  1.2423 -0.8347 -0.0122
  513MOL0     H70751   2.347   4.918   4.198 -0.5818 -0.6593 -0.7743
  513MOL0     H70752   2.660   5.138   3.982  0.0913  1.2745  0.1583
  513MOL0     H70753   2.851   5.260   3.959 -0.3332  0.9416  0.5212
  513MOL0     H70754   3.002   5.154   3.939 -0.2676 -0.5961  0.1018
  513MOL0     H70755   2.975   5.263   4.080 -1.7307  1.7782  0.0230
  513MOL0     H70756   3.330   4.912   4.062  3.7709 -1.9193 -1.7994
  513MOL0     H70757   3.586   4.950   4.099  0.0569  1.4132 -0.7125
  513MOL0     H70758   3.757   5.205   4.046  0.5880 -0.1432  0.1278
  513MOL0     H70759   3.695   5.343   4.145 -1.4542 -1.0459  1.6017
  513MOL0     H70760   3.957   5.314   4.115 -0.0699 -1.5375 -0.8155
  513MOL0     H70761   3.890   5.332   4.278  0.7161  2.4522 -1.0762
  513MOL0     H70762   3.946   5.050   4.157  0.3322 -0.3183 -0.7980
  513MOL0     H70763   3.922   5.094   4.319  0.9579 -1.7252  0.3888
  513MOL0     H70764   4.157   5.196   4.317 -1.1365 -2.2791  2.3774
  513MOL0     H70765   4.171   5.176   4.145  0.7702  1.9580  0.0192
  513MOL0     H70766   4.172   4.982   4.379  3.1266 -2.9942  0.3730
  513MOL0     H70767   4.119   4.914   4.228 -0.1760 -0.4150  1.1158
  513MOL0     H70768   4.350   4.880   4.260  0.7386 -0.1689 -0.5229
  513MOL0     H70769   4.387   5.057   4.261  1.2517 -1.4931  0.4702
  513MOL0     H70770   4.328   5.090   4.038 -0.1682  0.5893  1.5171
  513MOL0     H70771   4.272   4.939   4.013  2.2752 -0.4382 -2.3829
  513MOL0     H70772   4.490   4.959   3.920  0.7348  0.4860  0.0142
  513MOL0     H70773   4.491   4.831   4.053 -0.5995 -0.8112 -3.9608
  513MOL0     H70774   3.503   5.324   4.275  1.1706 -0.3948 -1.0335
  513MOL0     H70775   3.242   5.287   4.232 -0.5617  0.6749 -1.2267
  513MOL0     H70776   2.869   4.900   4.359 -0.3580 -0.3755  0.6124
  513MOL0     H70777   2.626   4.854   4.283  0.2392 -1.3253  0.0422
  513MOL0     H70778   2.328   4.390   4.598 -0.3063  2.2860  0.5728
  513MOL0     H70779   2.534   4.341   4.753  0.6407 -0.3181 -0.0994
  513MOL0     H70780   2.857   4.084   4.759 -0.6306 -0.5204 -0.5707
  513MOL0     H70781   3.003   3.947   4.884  0.0852  0.0459  1.3590
  513MOL0     H70782   3.438   4.066   4.966  1.2551 -2.0701 -0.3279
  513MOL0     H70783   3.330   4.107   5.107 -1.8744 -0.6755 -0.8580
  513MOL0     H70784   3.325   3.885   5.181  0.8189  0.3675  0.0148
  513MOL0     H70785   3.489   3.937   5.181 -1.7989 -0.0083  2.5590
  513MOL0     H70786   3.359   3.757   4.976 -2.5487  1.9368  1.8771
  513MOL0     H70787   3.535   3.802   4.961  0.4780 -2.1725  1.0130
  513MOL0     H70788   3.499   3.703   5.233  1.9545 -0.5904  0.4100
  513MOL0     H70789   3.629   3.705   5.118 -0.6439 -0.9599  0.2594
  513MOL0     H70790   3.493   3.347   5.005 -1.5760 -1.1536  2.9662
  513MOL0     H70791   3.313   4.237   4.864  0.6124 -1.2257  1.1180
  513MOL0     H70792   3.095   4.512   4.748  0.6589  0.8280 -0.8768
  513MOL0     H70793   3.243   4.458   4.837 -0.6063 -2.3832  0.3258
  513MOL0     H70794   3.221   4.426   4.658 -0.2606  0.3708 -0.4028
  514MOL0     O70795   5.471   1.787   5.735 -0.1890  0.3341 -0.5267
  514MOL0     C70796   5.478   1.818   5.855  1.1197 -0.8557  0.6762
  514MOL0     O70797   5.367   1.860   5.936 -0.5812 -0.5456  0.4280
  514MOL0     C70798   5.245   1.867   5.870 -0.7663  0.4352 -0.5175
  514MOL0     C70799   5.143   1.792   5.923  0.4527 -0.7283 -0.4084
  514MOL0     C70800   5.019   1.781   5.853 -0.5371  0.8483  0.2344
  514MOL0     C70801   4.997   1.858   5.738 -0.1281  0.1929  0.0794
  514MOL0     O70802   4.873   1.857   5.680 -0.2535  0.5762  0.2271
  514MOL0     C70803   4.852   1.871   5.540  0.1248  0.2344  0.3208
  514MOL0     C70804   4.718   1.817   5.505  0.3051 -0.0178  0.5431
  514MOL0     C70805   4.612   1.903   5.557 -0.1359  0.4398 -0.2584
  514MOL0     C70806   4.473   1.852   5.526 -0.3310 -0.9593 -0.5386
  514MOL0     C70807   4.369   1.964   5.567 -0.4323  0.5072  0.6976
  514MOL0     C70808   4.219   1.927   5.560  0.5261 -0.4532 -0.6577
  514MOL0     C70809   4.177   1.930   5.421 -0.7754 -0.7263  0.0097
  514MOL0     C70810   4.197   2.063   5.350 -0.1447 -0.0752 -1.2890
  514MOL0     N70811   4.137   2.179   5.423 -0.0168 -0.2465 -0.1533
  514MOL0     C70812   4.012   2.225   5.390  0.0367  0.5128 -0.2886
  514MOL0     C70813   3.987   2.337   5.467 -0.3359  0.3249 -0.0316
  514MOL0     C70814   3.873   2.428   5.455 -0.0545 -0.4182 -0.3711
  514MOL0     C70815   3.879   2.524   5.339 -0.1388  0.1599  0.0350
  514MOL0     C70816   3.796   2.645   5.368  0.4776  0.6662 -0.7109
  514MOL0     C70817   3.855   2.736   5.475 -0.7733 -0.0139  0.0280
  514MOL0     O70818   3.963   2.789   5.401  0.1509  0.8453 -0.0774
  514MOL0     C70819   4.071   2.840   5.463 -1.0470  0.2406  0.6893
  514MOL0     C70820   4.190   2.855   5.387  0.2684 -0.3352  0.7982
  514MOL0     C70821   4.311   2.889   5.441 -0.0676 -0.7123 -0.4291
  514MOL0     C70822   4.435   2.907   5.369 -0.1823 -0.5833  0.8906
  514MOL0     C70823   4.319   2.909   5.579 -0.1342 -1.1005  0.0726
  514MOL0     C70824   4.444   2.959   5.655  0.0187 -0.5973 -0.0194
  514MOL0     O70825   4.512   3.068   5.609  0.7762  0.3418  0.5231
  514MOL0     C70826   4.645   3.091   5.634  0.7693 -0.6803  0.1427
  514MOL0     C70827   4.681   3.192   5.730 -0.1182  0.2580 -0.1523
  514MOL0     C70828   4.814   3.212   5.759  1.2453  0.1451  0.2346
  514MOL0     C70829   4.910   3.137   5.696  0.0937 -0.3232  1.1910
  514MOL0     O70830   5.038   3.173   5.705  0.6714 -0.2804  0.5742
  514MOL0     C70831   5.106   3.122   5.815 -1.0791  1.1688  0.4524
  514MOL0     C70832   5.253   3.161   5.799  0.8241  0.0934  0.5121
  514MOL0     C70833   5.348   3.082   5.887  0.3913  0.5534 -0.8300
  514MOL0     C70834   5.489   3.098   5.830  0.1143 -0.0108  0.3320
  514MOL0     C70835   5.595   3.020   5.912  0.2414 -0.0813 -0.4387
  514MOL0     C70836   5.728   3.027   5.849 -0.3937 -0.4452  0.0089
  514MOL0     C70837   5.843   2.988   5.942  0.1492  0.6823  0.1510
  514MOL0     C70838   5.824   2.859   6.025  0.3936  0.1343  0.2065
  514MOL0    Cl70839   5.782   2.709   5.915  0.1257  0.1965  0.2206
  514MOL0     C70840   4.873   3.034   5.611  0.7177  0.1531  0.3188
  514MOL0     C70841   4.742   3.007   5.583  0.1129  0.3040 -0.2497
  514MOL0     O70842   4.478   2.891   5.747  0.5543 -0.2967  0.4827
  514MOL0     C70843   4.197   2.900   5.651 -0.5342  0.6765  0.4623
  514MOL0     C70844   4.076   2.868   5.597  0.2796  0.4451  0.0829
  514MOL0     N70845   4.110   2.365   5.536  0.3829  0.3904  0.2223
  514MOL0     N70846   4.192   2.263   5.514 -0.2895 -0.1016  0.4333
  514MOL0     C70847   5.104   1.933   5.690  0.9569 -0.0642  0.0952
  514MOL0     C70848   5.226   1.934   5.755  0.3297 -0.4958  0.6733
  514MOL0     C70849   5.601   1.796   5.934  0.6934  0.6733 -0.6544
  514MOL0     C70850   5.587   1.784   6.081 -1.1800  0.9033 -0.0808
  514MOL0     C70851   5.705   1.781   6.155  0.2761  1.2703  1.0112
  514MOL0     C70852   5.829   1.791   6.090 -0.8874 -0.3554 -0.9982
  514MOL0     O70853   5.951   1.784   6.166  0.7640 -0.5644 -0.0005
  514MOL0     C70854   5.980   1.649   6.214  0.3132  0.1580  0.2192
  514MOL0     C70855   6.096   1.645   6.314 -0.1937 -0.1494  0.1913
  514MOL0     C70856   6.222   1.723   6.257  0.4870  0.7076  0.0002
  514MOL0     C70857   6.326   1.721   6.362 -0.9614  0.2203 -0.1932
  514MOL0     C70858   6.427   1.805   6.309 -0.3842 -0.1336  0.9099
  514MOL0     C70859   6.508   1.878   6.266 -0.0787 -0.1163 -0.8744
  514MOL0     C70860   5.848   1.818   5.960  0.1346  0.4418  0.7472
  514MOL0     C70861   5.726   1.810   5.875 -0.5031 -0.3853  0.1546
  514MOL0     C70862   5.751   1.826   5.725  0.2389  0.7021  0.6682
  514MOL0     H70863   5.158   1.739   6.016  0.8871 -1.0358 -0.6543
  514MOL0     H70864   4.943   1.723   5.904 -1.6880  0.0757 -2.2201
  514MOL0     H70865   4.932   1.813   5.494 -0.0146  0.1941  0.1310
  514MOL0     H70866   4.863   1.978   5.524 -1.5376  0.2155 -1.1749
  514MOL0     H70867   4.720   1.812   5.396  0.0692  1.4874  0.4365
  514MOL0     H70868   4.696   1.717   5.542  1.9844  0.4443  3.0951
  514MOL0     H70869   4.619   1.913   5.665  0.7577 -1.1912 -0.1368
  514MOL0     H70870   4.633   2.005   5.523  3.0026 -0.9537 -3.0261
  514MOL0     H70871   4.473   1.833   5.418 -2.1259  1.6427 -1.0710
  514MOL0     H70872   4.445   1.759   5.576 -2.0145 -0.5052 -0.5848
  514MOL0     H70873   4.382   2.057   5.513 -1.2733  0.0496 -0.3284
  514MOL0     H70874   4.376   1.981   5.675 -0.3248  0.0667  0.7651
  514MOL0     H70875   4.185   1.832   5.601  0.6965 -0.2681 -0.0790
  514MOL0     H70876   4.174   2.013   5.611  0.1468  0.7744 -2.9130
  514MOL0     H70877   4.068   1.921   5.421 -1.0153  1.3298 -1.2859
  514MOL0     H70878   4.220   1.852   5.357  1.1737  1.5487 -1.6475
  514MOL0     H70879   4.303   2.085   5.335  0.5538 -2.5384 -0.5476
  514MOL0     H70880   4.150   2.060   5.251  0.3047 -1.7071 -1.4899
  514MOL0     H70881   3.950   2.168   5.322  1.0305 -3.6052  1.8811
  514MOL0     H70882   3.877   2.479   5.551 -0.2237  0.9117 -1.0450
  514MOL0     H70883   3.778   2.374   5.447 -2.3180  2.9932  1.3197
  514MOL0     H70884   3.981   2.559   5.318 -0.4252 -0.1391 -2.0944
  514MOL0     H70885   3.845   2.480   5.245 -2.3047  0.1153  0.7741
  514MOL0     H70886   3.761   2.703   5.282 -1.2082 -1.7109 -1.7223
  514MOL0     H70887   3.699   2.612   5.406  1.4472  1.1635  2.5489
  514MOL0     H70888   3.780   2.812   5.500 -1.6128 -0.0404 -2.1461
  514MOL0     H70889   3.889   2.688   5.567 -1.9856 -1.3220 -0.1718
  514MOL0     H70890   4.180   2.837   5.280  1.8381 -2.1571  0.9015
  514MOL0     H70891   4.456   3.014   5.363  4.1253 -1.3348 -0.3990
  514MOL0     H70892   4.424   2.866   5.268 -0.7250 -3.3029  1.9631
  514MOL0     H70893   4.522   2.858   5.412  1.0402  1.8323  1.3085
  514MOL0     H70894   4.600   3.256   5.765 -0.6849 -0.0552 -0.8706
  514MOL0     H70895   4.852   3.272   5.842  1.0213 -2.6678  2.5561
  514MOL0     H70896   5.059   3.157   5.908  0.2306  3.8664  0.1774
  514MOL0     H70897   5.098   3.013   5.807  1.8261  1.0614 -3.5272
  514MOL0     H70898   5.281   3.149   5.694 -0.7925 -2.6075  0.3080
  514MOL0     H70899   5.270   3.266   5.828 -1.6078  0.3333  1.3318
  514MOL0     H70900   5.321   2.976   5.884  1.6636  0.1761  0.3816
  514MOL0     H70901   5.340   3.105   5.993  0.9768 -6.2877  1.1729
  514MOL0     H70902   5.505   3.206   5.826 -1.6596  0.2584 -0.7108
  514MOL0     H70903   5.507   3.073   5.725 -0.0232  0.5123  0.1811
  514MOL0     H70904   5.595   3.064   6.012 -1.8477  1.0394 -0.8736
  514MOL0     H70905   5.566   2.914   5.917  5.6987 -1.9420 -1.1146
  514MOL0     H70906   5.753   3.127   5.812 -1.0230  0.1939  1.2391
  514MOL0     H70907   5.725   2.959   5.764 -0.2763 -0.6415  0.1604
  514MOL0     H70908   5.861   3.067   6.015 -0.8395 -1.2323  2.6308
  514MOL0     H70909   5.931   2.971   5.880 -1.4307 -2.3068 -1.5460
  514MOL0     H70910   5.739   2.860   6.094  0.8261  1.4201  0.7379
  514MOL0     H70911   5.926   2.846   6.065  3.0375  1.6622 -5.1138
  514MOL0     H70912   4.950   2.984   5.553 -1.2783 -1.7350 -0.8322
  514MOL0     H70913   4.717   2.921   5.522  1.9087  0.4451 -1.2484
  514MOL0     H70914   4.204   2.923   5.757  1.6970  0.1031  0.5002
  514MOL0     H70915   3.987   2.863   5.659  0.0860 -1.3873 -0.2773
  514MOL0     H70916   5.099   1.984   5.594 -1.6401 -1.1685 -0.4364
  514MOL0     H70917   5.302   1.990   5.700 -1.1036 -1.5187 -2.6389
  514MOL0     H70918   5.491   1.777   6.133 -0.3356 -0.4241  1.3710
  514MOL0     H70919   5.702   1.765   6.262 -0.6624  0.3088  0.8620
  514MOL0     H70920   5.887   1.619   6.265 -1.5944  0.4648 -2.8390
  514MOL0     H70921   5.978   1.587   6.124 -3.0739 -1.6317  1.3063
  514MOL0     H70922   6.134   1.543   6.328 -0.1819 -0.5584 -2.3374
  514MOL0     H70923   6.078   1.685   6.414  3.0677 -0.5703  1.0930
  514MOL0     H70924   6.255   1.674   6.165  0.3354 -3.8197  2.1060
  514MOL0     H70925   6.201   1.828   6.233 -2.0665  0.1737 -0.4567
  514MOL0     H70926   6.371   1.623   6.380 -1.8063 -0.1873 -0.2484
  514MOL0     H70927   6.283   1.755   6.457 -1.9494  1.5251 -1.0627
  514MOL0     H70928   6.574   1.953   6.230  0.2939  1.2563  2.3475
  514MOL0     H70929   5.948   1.844   5.927  0.0830  3.0023  2.2767
  514MOL0     H70930   5.856   1.809   5.700  0.4406  0.7400  1.4684
  514MOL0     H70931   5.710   1.742   5.668  2.6893  0.5877 -1.1132
  514MOL0     H70932   5.721   1.924   5.688  0.2352  0.9699  1.3788
  515MOL0     O70933   2.160   0.470   4.714 -0.3030  0.4206 -0.7814
  515MOL0     C70934   2.219   0.413   4.805 -1.4370  0.1578 -0.1277
  515MOL0     O70935   2.163   0.355   4.921  0.5657  0.2695 -0.2041
  515MOL0     C70936   2.032   0.352   4.951 -0.3752  0.7482  0.1823
  515MOL0     C70937   1.927   0.364   4.855 -0.1436  0.1323 -0.2155
  515MOL0     C70938   1.795   0.337   4.885  0.2735 -0.0972 -0.9625
  515MOL0     C70939   1.750   0.314   5.022  0.4076  0.1047 -0.6084
  515MOL0     O70940   1.626   0.287   5.074  0.2051  0.9771 -0.0298
  515MOL0     C70941   1.522   0.274   4.976  0.9708 -0.0081 -1.0001
  515MOL0     C70942   1.395   0.232   5.058 -0.4686  0.0693  0.4017
  515MOL0     C70943   1.279   0.239   4.957 -0.0540  1.1311 -0.0231
  515MOL0     C70944   1.254   0.105   4.886  0.3413  0.6154 -0.4107
  515MOL0     C70945   1.298   0.106   4.735 -0.3711  0.0241  0.3716
  515MOL0     C70946   1.273  -0.027   4.669 -0.0104  0.2018  0.0703
  515MOL0     C70947   1.339  -0.039   4.527 -0.7634 -0.1944 -0.2252
  515MOL0     C70948   1.476  -0.100   4.514 -0.4897 -0.7815  0.0416
  515MOL0     N70949   1.605  -0.021   4.530 -0.2551 -0.9636 -0.6029
  515MOL0     C70950   1.706  -0.029   4.624 -0.8191 -0.5736  0.7065
  515MOL0     C70951   1.807   0.040   4.575 -0.1701 -0.8227  0.0653
  515MOL0     C70952   1.925   0.063   4.657 -1.2243 -0.8503 -0.7019
  515MOL0     C70953   2.032  -0.044   4.630  1.1986  0.2179 -0.5632
  515MOL0     C70954   2.170   0.013   4.657  0.0064  0.5885  0.1158
  515MOL0     C70955   2.281  -0.101   4.663 -0.2604  0.0065 -0.4941
  515MOL0     O70956   2.402  -0.059   4.721  0.3194 -0.0763 -0.0016
  515MOL0     C70957   2.482  -0.143   4.791 -0.2642  0.1414  0.8737
  515MOL0     C70958   2.617  -0.133   4.760 -0.5703  0.5151 -0.2136
  515MOL0     C70959   2.717  -0.214   4.820  0.2686 -0.3981 -0.9956
  515MOL0     C70960   2.861  -0.180   4.780 -0.3627  0.6359  0.9612
  515MOL0     C70961   2.672  -0.306   4.919 -0.7086 -0.3915  0.4111
  515MOL0     C70962   2.759  -0.395   5.002  0.5331 -0.2469  0.7207
  515MOL0     O70963   2.845  -0.478   4.932 -0.5217 -0.3297  0.7368
  515MOL0     C70964   2.922  -0.564   5.007 -0.2833  0.6022 -0.6628
  515MOL0     C70965   2.889  -0.704   5.012  0.0288  0.8511  0.1734
  515MOL0     C70966   2.974  -0.794   5.079 -1.3195  0.2286  0.4576
  515MOL0     C70967   3.100  -0.750   5.127 -0.1271 -0.0291  0.3293
  515MOL0     O70968   3.182  -0.847   5.182  0.2349  0.2137  0.2591
  515MOL0     C70969   3.273  -0.815   5.282 -0.3617  0.7940 -0.1460
  515MOL0     C70970   3.322  -0.954   5.341 -0.7334  0.4770  0.0751
  515MOL0     C70971   3.219  -1.026   5.432 -0.5664  0.1737  0.0163
  515MOL0     C70972   3.272  -1.153   5.495 -0.3553  0.2491 -0.3347
  515MOL0     C70973   3.162  -1.223   5.573 -0.1478  0.1357 -0.3215
  515MOL0     C70974   3.163  -1.165   5.712  0.6292 -0.7723  0.0238
  515MOL0     C70975   3.058  -1.232   5.800 -0.2787  0.1546  0.1494
  515MOL0     C70976   3.088  -1.211   5.947  0.0891  0.2526  0.2393
  515MOL0    Cl70977   3.205  -1.347   5.989 -0.0380  0.1074  0.2473
  515MOL0     C70978   3.131  -0.610   5.107 -0.0613  0.0060 -0.6621
  515MOL0     C70979   3.047  -0.521   5.053 -0.2790  0.3101 -0.4939
  515MOL0     O70980   2.746  -0.387   5.123 -0.0166 -0.3509 -0.6626
  515MOL0     C70981   2.533  -0.310   4.950  0.0950 -0.3525  0.7525
  515MOL0     C70982   2.439  -0.232   4.885  0.0088 -0.2403 -0.2074
  515MOL0     N70983   1.777   0.088   4.456  0.6484 -0.5777  0.2614
  515MOL0     N70984   1.659   0.054   4.433  0.9286 -0.0336 -0.0014
  515MOL0     C70985   1.854   0.304   5.111  0.4167  0.1490  0.3999
  515MOL0     C70986   1.986   0.320   5.077  0.4978  0.0299 -0.1655
  515MOL0     C70987   2.368   0.403   4.795 -0.2086  0.3376  0.0315
  515MOL0     C70988   2.429   0.490   4.705  0.5031 -0.6186  0.4324
  515MOL0     C70989   2.563   0.486   4.677 -0.2126 -0.0512  0.0948
  515MOL0     C70990   2.645   0.407   4.736 -0.0776 -0.6650 -0.3453
  515MOL0     O70991   2.777   0.407   4.698 -0.0531 -0.2284  0.8045
  515MOL0     C70992   2.888   0.366   4.775  0.6963  0.3200 -0.5032
  515MOL0     C70993   3.030   0.413   4.719  0.3956 -0.7778  0.2577
  515MOL0     C70994   3.026   0.570   4.690 -1.0485 -0.3827  0.9166
  515MOL0     C70995   3.133   0.613   4.583  0.1193  0.3559  0.0517
  515MOL0     C70996   3.270   0.615   4.639  0.5471  0.0996  0.0087
  515MOL0     C70997   3.371   0.588   4.697 -0.1971 -0.3619 -0.1398
  515MOL0     C70998   2.596   0.331   4.844  0.2802 -0.6640  0.0538
  515MOL0     C70999   2.457   0.322   4.869 -0.7630 -0.3036  0.0310
  515MOL0     C71000   2.414   0.242   4.989 -0.3992  0.1837  0.3226
  515MOL0     H71001   1.946   0.374   4.749 -1.7387  0.5284 -0.4959
  515MOL0     H71002   1.728   0.335   4.799 -0.5471 -0.0739 -0.3436
  515MOL0     H71003   1.551   0.188   4.916  1.3725  0.2374 -1.1552
  515MOL0     H71004   1.519   0.364   4.914  3.7199 -0.4523 -1.8813
  515MOL0     H71005   1.418   0.131   5.092  1.1494  0.6645  1.1701
  515MOL0     H71006   1.376   0.297   5.144  1.7843  2.9634 -1.1127
  515MOL0     H71007   1.196   0.268   5.021  1.4922  0.9469  2.1954
  515MOL0     H71008   1.278   0.318   4.881  1.4665  0.4462 -0.8054
  515MOL0     H71009   1.331   0.042   4.932  0.7698  1.8279  0.5885
  515MOL0     H71010   1.158   0.056   4.905  1.9034 -2.7266 -0.4854
  515MOL0     H71011   1.405   0.130   4.727 -0.7930  2.3865  1.0776
  515MOL0     H71012   1.247   0.191   4.689 -1.5908 -1.9524 -2.1492
  515MOL0     H71013   1.294  -0.112   4.735  0.1927  0.6270  0.5624
  515MOL0     H71014   1.164  -0.025   4.659  0.0260  0.0580 -0.3612
  515MOL0     H71015   1.328   0.060   4.481 -0.2172 -0.3470 -0.6964
  515MOL0     H71016   1.283  -0.114   4.470 -0.9086 -0.5783  0.4161
  515MOL0     H71017   1.482  -0.179   4.590 -1.5057 -1.5959 -0.6936
  515MOL0     H71018   1.476  -0.140   4.412 -1.7603  0.6969 -0.5772
  515MOL0     H71019   1.695  -0.072   4.723  0.5722 -0.7886  0.7835
  515MOL0     H71020   1.901   0.077   4.763 -2.7979  2.2042 -1.3593
  515MOL0     H71021   1.963   0.159   4.620  2.3952 -3.0152 -3.2666
  515MOL0     H71022   2.014  -0.130   4.695  2.5661  1.3741  1.4482
  515MOL0     H71023   2.022  -0.075   4.525 -0.7440  2.0343 -0.9755
  515MOL0     H71024   2.203   0.092   4.589 -0.3203  3.2376  2.8312
  515MOL0     H71025   2.163   0.051   4.759  2.2419 -1.7178  1.2253
  515MOL0     H71026   2.237  -0.181   4.723  0.4565  0.5982  0.8701
  515MOL0     H71027   2.296  -0.144   4.563 -0.1285 -0.4268 -0.2880
  515MOL0     H71028   2.645  -0.068   4.678  2.2311 -2.6904 -2.0727
  515MOL0     H71029   2.878  -0.073   4.763  0.6779  0.2747 -0.3771
  515MOL0     H71030   2.889  -0.241   4.694  0.8330  2.5148 -0.0401
  515MOL0     H71031   2.931  -0.208   4.859 -1.3422  0.3302  1.7356
  515MOL0     H71032   2.795  -0.729   4.964 -0.0560  0.4233  0.5574
  515MOL0     H71033   2.960  -0.901   5.080 -0.9469  0.1707  1.8620
  515MOL0     H71034   3.353  -0.756   5.237  0.0719  0.0752 -0.3385
  515MOL0     H71035   3.230  -0.759   5.365  2.5093 -0.6651  2.5721
  515MOL0     H71036   3.345  -1.022   5.258 -1.9550 -1.6452  1.3837
  515MOL0     H71037   3.406  -0.931   5.406 -0.3709  1.2576 -0.6531
  515MOL0     H71038   3.128  -1.051   5.377  1.0939 -0.2491 -2.6965
  515MOL0     H71039   3.197  -0.963   5.519  2.3247 -2.5924  3.0763
  515MOL0     H71040   3.360  -1.135   5.558  0.8664  2.4155 -2.4559
  515MOL0     H71041   3.310  -1.218   5.416 -0.2626  0.5592 -0.5509
  515MOL0     H71042   3.061  -1.208   5.532 -0.2288  0.2161 -0.0939
  515MOL0     H71043   3.190  -1.329   5.570  1.7569  0.4931  2.0015
  515MOL0     H71044   3.148  -1.058   5.693  2.8901 -0.8886 -3.3551
  515MOL0     H71045   3.263  -1.190   5.748  1.3306 -3.3540 -3.2365
  515MOL0     H71046   3.061  -1.340   5.782  1.8645  0.2098 -0.1336
  515MOL0     H71047   2.954  -1.201   5.788 -0.9791 -1.9051  0.4473
  515MOL0     H71048   2.995  -1.208   6.004 -1.0970  3.6706 -1.5913
  515MOL0     H71049   3.142  -1.118   5.970  3.6177 -0.8865 -2.5108
  515MOL0     H71050   3.230  -0.579   5.140 -0.0174  0.3212 -1.0831
  515MOL0     H71051   3.075  -0.417   5.037  1.2349 -0.0377 -0.2979
  515MOL0     H71052   2.500  -0.363   5.039 -0.6560  1.1380  1.4035
  515MOL0     H71053   2.335  -0.239   4.913  0.2116 -0.8732  0.4035
  515MOL0     H71054   1.834   0.278   5.214  1.1084  0.4955  0.6232
  515MOL0     H71055   2.059   0.318   5.157 -1.6310 -0.6195  1.8409
  515MOL0     H71056   2.365   0.561   4.654 -2.1020 -0.5637  3.4157
  515MOL0     H71057   2.618   0.556   4.615  1.1225 -1.9112 -0.9414
  515MOL0     H71058   2.875   0.402   4.877 -3.7703  1.1792 -1.1833
  515MOL0     H71059   2.896   0.257   4.774  1.3622  0.3651 -0.3956
  515MOL0     H71060   3.049   0.359   4.625  2.4387 -1.7840  1.1845
  515MOL0     H71061   3.113   0.382   4.783 -1.3898  0.2868  3.2892
  515MOL0     H71062   2.935   0.600   4.637 -0.6893  1.6466  1.3357
  515MOL0     H71063   3.027   0.627   4.784 -0.6927 -0.2967  0.8627
  515MOL0     H71064   3.112   0.709   4.533 -0.6464 -1.2677 -3.0262
  515MOL0     H71065   3.121   0.539   4.504  0.9314 -1.2137  1.3611
  515MOL0     H71066   3.454   0.593   4.763 -0.2484 -0.3225 -0.0778
  515MOL0     H71067   2.680   0.291   4.899  1.5195  0.6410 -0.7833
  515MOL0     H71068   2.341   0.300   5.046 -0.8956 -0.0707 -0.0461
  515MOL0     H71069   2.362   0.151   4.958 -1.1695  0.6008  0.3627
  515MOL0     H71070   2.500   0.205   5.047 -1.8092 -2.6906  0.7807
  516MOL0     O71071   3.569   1.747   2.603  0.1189 -0.2924  0.1554
  516MOL0     C71072   3.470   1.720   2.541 -0.1117 -0.4188 -0.6638
  516MOL0     O71073   3.415   1.596   2.535 -1.2982 -0.1197 -0.9095
  516MOL0     C71074   3.460   1.475   2.572 -0.3182 -0.2347 -0.7470
  516MOL0     C71075   3.585   1.459   2.633 -0.5598  0.1913  0.0978
  516MOL0     C71076   3.641   1.326   2.661 -0.7311  0.1917 -0.4122
  516MOL0     C71077   3.555   1.215   2.654  0.4886 -0.4061 -0.1551
  516MOL0     O71078   3.608   1.098   2.685  0.2409 -0.4221  0.0594
  516MOL0     C71079   3.515   0.993   2.714 -0.4294 -1.1508 -0.5299
  516MOL0     C71080   3.598   0.880   2.786  0.0069  1.3231  0.0204
  516MOL0     C71081   3.633   0.928   2.928 -0.1649 -0.7220 -0.7523
  516MOL0     C71082   3.718   0.821   2.995  0.8102  1.3514 -0.7931
  516MOL0     C71083   3.710   0.814   3.146 -0.4681 -0.3174 -0.6770
  516MOL0     C71084   3.738   0.952   3.197 -0.3273 -0.1346 -0.6791
  516MOL0     C71085   3.709   0.951   3.352  0.4290  0.5584  0.3583
  516MOL0     C71086   3.728   1.089   3.417 -0.2576  0.0331 -0.3897
  516MOL0     N71087   3.698   1.082   3.561  0.1257 -0.4007  0.4407
  516MOL0     C71088   3.569   1.090   3.626 -0.4836 -1.3289  0.2600
  516MOL0     C71089   3.598   1.079   3.757 -0.7732 -0.6881 -0.8769
  516MOL0     C71090   3.504   1.127   3.858  0.7205 -0.1717 -0.3754
  516MOL0     C71091   3.448   1.026   3.952 -0.0701 -0.0017 -0.4556
  516MOL0     C71092   3.549   0.938   4.043  0.0419  0.0259  0.0090
  516MOL0     C71093   3.624   1.023   4.140 -0.3480  0.0137  0.5944
  516MOL0     O71094   3.715   0.943   4.216 -0.5275  0.1566 -0.4649
  516MOL0     C71095   3.853   0.969   4.213  0.0110 -0.8894  0.7315
  516MOL0     C71096   3.914   0.977   4.086 -0.0085  0.1783  0.3496
  516MOL0     C71097   4.051   1.016   4.074  0.1790  0.2831  0.7645
  516MOL0     C71098   4.108   1.039   3.929 -0.0956 -0.1783 -0.1123
  516MOL0     C71099   4.120   1.050   4.195 -0.4679 -0.4271  0.6681
  516MOL0     C71100   4.257   1.094   4.189 -0.1322  0.4747  0.1763
  516MOL0     O71101   4.308   1.157   4.075 -0.8086 -0.2478 -0.5862
  516MOL0     C71102   4.448   1.158   4.057 -0.4611 -0.1363 -0.4370
  516MOL0     C71103   4.486   1.272   3.991 -0.1044 -0.6233  0.1810
  516MOL0     C71104   4.619   1.296   3.955 -0.5375 -0.2671  0.2008
  516MOL0     C71105   4.713   1.188   3.986  0.0967  0.0980  0.4016
  516MOL0     O71106   4.844   1.200   3.946 -0.7387 -0.0121  0.2302
  516MOL0     C71107   4.920   1.284   4.035  0.1204 -1.0310  0.2364
  516MOL0     C71108   5.069   1.268   4.031  0.3350 -0.2538 -0.2534
  516MOL0     C71109   5.121   1.122   4.051 -0.2035 -0.6387  0.2436
  516MOL0     C71110   5.115   1.037   3.924 -0.1060 -0.1296 -0.3867
  516MOL0     C71111   5.082   0.891   3.972  0.1026  0.3997  0.9911
  516MOL0     C71112   5.088   0.779   3.868  1.2630 -1.1786 -0.2952
  516MOL0     C71113   4.984   0.808   3.747  0.6875  0.0609  0.0382
  516MOL0     C71114   4.997   0.694   3.646 -1.0708  0.0235 -0.2563
  516MOL0    Cl71115   4.838   0.646   3.585 -0.1241 -0.2080 -0.0922
  516MOL0     C71116   4.678   1.077   4.060 -0.4015  0.1406 -0.0161
  516MOL0     C71117   4.544   1.070   4.105  0.3590 -0.0086  0.0991
  516MOL0     O71118   4.325   1.068   4.289 -0.5012  0.4972  0.1233
  516MOL0     C71119   4.055   1.026   4.317  0.8354 -0.2577 -0.2680
  516MOL0     C71120   3.925   0.989   4.326  0.1844  0.1452 -0.2771
  516MOL0     N71121   3.729   1.054   3.772  0.0160  0.0178 -0.2290
  516MOL0     N71122   3.794   1.056   3.657  0.5742 -0.3916 -0.1187
  516MOL0     C71123   3.423   1.233   2.601 -0.3930 -1.1000 -0.9475
  516MOL0     C71124   3.384   1.360   2.556  0.5646  0.9460 -0.2460
  516MOL0     C71125   3.400   1.833   2.493  0.7262  0.1963  0.4103
  516MOL0     C71126   3.386   1.947   2.569 -0.1902  0.6017 -0.5265
  516MOL0     C71127   3.294   2.043   2.534 -0.0097  0.1145 -0.3204
  516MOL0     C71128   3.221   2.035   2.409 -0.0807  0.0168 -0.3809
  516MOL0     O71129   3.135   2.136   2.372  0.3770  0.3445  0.4912
  516MOL0     C71130   3.032   2.159   2.472  0.4290  1.0947 -0.4510
  516MOL0     C71131   3.022   2.312   2.482 -1.1263 -0.1946  1.4142
  516MOL0     C71132   2.918   2.355   2.581 -0.1844 -0.9208 -0.1648
  516MOL0     C71133   2.769   2.337   2.537  0.0688 -0.0894  0.2045
  516MOL0     C71134   2.740   2.415   2.414 -0.6181  0.4519 -0.6827
  516MOL0     C71135   2.709   2.485   2.323  0.3512 -0.0793 -1.1024
  516MOL0     C71136   3.250   1.932   2.324  0.3279 -0.0034 -0.2418
  516MOL0     C71137   3.332   1.827   2.369 -1.1357 -0.1165  0.1663
  516MOL0     C71138   3.353   1.713   2.273 -0.0656 -0.5868 -0.9988
  516MOL0     H71139   3.660   1.538   2.638  0.7230 -0.9265 -0.9490
  516MOL0     H71140   3.743   1.314   2.696 -0.5752  3.3776  0.5505
  516MOL0     H71141   3.489   0.953   2.616 -1.3858  2.2187 -1.7887
  516MOL0     H71142   3.443   1.037   2.784  2.3037 -0.3736  1.9898
  516MOL0     H71143   3.543   0.785   2.782  2.0251  0.0884 -3.8682
  516MOL0     H71144   3.698   0.857   2.747  0.6654 -1.9860  3.1554
  516MOL0     H71145   3.692   1.020   2.920  0.7100 -0.9873  1.6844
  516MOL0     H71146   3.540   0.941   2.984 -0.7586 -2.2451 -1.3252
  516MOL0     H71147   3.676   0.727   2.958  1.3439  0.9433 -0.3887
  516MOL0     H71148   3.823   0.823   2.962  0.1503 -2.0803 -3.7582
  516MOL0     H71149   3.782   0.743   3.187 -1.7930 -0.6347  1.2658
  516MOL0     H71150   3.610   0.788   3.184 -0.3608  2.0734  1.5449
  516MOL0     H71151   3.842   0.964   3.166 -0.6623 -1.7354 -2.6711
  516MOL0     H71152   3.679   1.034   3.155 -1.1729  1.0652  2.5924
  516MOL0     H71153   3.771   0.887   3.415  1.3668  1.3021  0.2203
  516MOL0     H71154   3.609   0.912   3.368  1.0599 -0.6755  1.4493
  516MOL0     H71155   3.832   1.120   3.404  1.0915 -3.0247  1.9491
  516MOL0     H71156   3.663   1.151   3.354  0.2531  1.4773  0.4589
  516MOL0     H71157   3.473   1.125   3.591 -0.8506  0.0897  2.4596
  516MOL0     H71158   3.425   1.179   3.803  1.3916  2.4020  0.9393
  516MOL0     H71159   3.545   1.212   3.914  0.4715  0.8135 -1.6357
  516MOL0     H71160   3.395   1.089   4.025  2.5938  2.5705 -0.5636
  516MOL0     H71161   3.377   0.957   3.905 -1.8725 -0.0961  2.1614
  516MOL0     H71162   3.493   0.862   4.099 -0.1972  1.6623  2.0985
  516MOL0     H71163   3.626   0.889   3.983  0.2402  0.5243 -0.1414
  516MOL0     H71164   3.688   1.095   4.088  2.3671 -1.6535  1.4143
  516MOL0     H71165   3.549   1.074   4.200 -1.6804 -2.9199  1.6130
  516MOL0     H71166   3.853   0.956   3.998 -1.8333 -0.6526  1.7230
  516MOL0     H71167   4.038   0.993   3.859 -0.2987 -0.8043  0.4918
  516MOL0     H71168   4.210   1.001   3.924  0.2639  0.8043 -0.5418
  516MOL0     H71169   4.114   1.147   3.912  1.6892 -0.3759 -0.9516
  516MOL0     H71170   4.417   1.351   3.964  2.6819  1.4860 -1.2333
  516MOL0     H71171   4.648   1.394   3.917  1.4282  0.2864  2.8736
  516MOL0     H71172   4.893   1.390   4.024 -2.0447 -1.4652  0.7705
  516MOL0     H71173   4.875   1.272   4.134 -1.6702 -0.2915 -0.4329
  516MOL0     H71174   5.108   1.314   3.939 -0.3209  2.1936  0.6057
  516MOL0     H71175   5.116   1.335   4.104  1.4891 -0.1078 -1.0886
  516MOL0     H71176   5.067   1.083   4.138 -2.1782  1.7875  0.2582
  516MOL0     H71177   5.228   1.129   4.073  0.2376  1.4561 -2.1143
  516MOL0     H71178   5.205   1.062   3.867 -0.7388  1.6874 -0.6816
  516MOL0     H71179   5.033   1.076   3.862  0.2500  0.6342 -0.3833
  516MOL0     H71180   5.155   0.855   4.046 -2.0232 -0.6113  2.7134
  516MOL0     H71181   4.978   0.890   4.006 -1.6804  0.1642 -3.7169
  516MOL0     H71182   5.066   0.681   3.911  0.0593 -1.1497 -0.7834
  516MOL0     H71183   5.192   0.773   3.836  2.7675 -0.9998  3.9377
  516MOL0     H71184   5.014   0.903   3.702 -1.2920  0.1154 -1.2881
  516MOL0     H71185   4.887   0.819   3.798  1.2001 -0.6938  1.2207
  516MOL0     H71186   5.031   0.608   3.703  0.0114  1.9970  2.2952
  516MOL0     H71187   5.073   0.711   3.569 -1.1070 -1.7553 -0.7213
  516MOL0     H71188   4.735   0.989   4.086 -2.2537 -0.8501  0.8909
  516MOL0     H71189   4.504   0.981   4.153  1.5271 -0.6525 -0.0970
  516MOL0     H71190   4.099   1.063   4.409 -0.1357  1.9255 -0.6301
  516MOL0     H71191   3.879   0.977   4.423 -0.5468 -1.2207 -0.7693
  516MOL0     H71192   3.349   1.154   2.612 -0.4037 -0.7530  2.5497
  516MOL0     H71193   3.281   1.379   2.528  0.5022  3.7808  1.4788
  516MOL0     H71194   3.427   1.940   2.669  1.3420 -2.3714 -1.2547
  516MOL0     H71195   3.264   2.127   2.596  0.0420  2.0793 -2.8246
  516MOL0     H71196   2.936   2.108   2.455  0.6328  0.2617  0.7399
  516MOL0     H71197   3.056   2.114   2.569 -0.2176 -1.4314 -1.3979
  516MOL0     H71198   3.009   2.364   2.386  1.5706  2.0799  2.1350
  516MOL0     H71199   3.122   2.348   2.508  0.3501 -1.0083 -2.3862
  516MOL0     H71200   2.935   2.287   2.665 -0.4628 -2.7539 -1.5105
  516MOL0     H71201   2.933   2.458   2.615 -0.3198 -1.1545  0.6256
  516MOL0     H71202   2.706   2.387   2.612 -0.8345  1.6823 -1.6257
  516MOL0     H71203   2.751   2.230   2.530 -1.5320  0.2313 -1.3042
  516MOL0     H71204   2.681   2.547   2.240  1.3318  1.7866 -0.1133
  516MOL0     H71205   3.186   1.931   2.237 -1.0622  3.0125  0.6310
  516MOL0     H71206   3.370   1.751   2.172 -0.4486 -0.7101 -1.1122
  516MOL0     H71207   3.444   1.657   2.296 -0.3393  0.0479  2.0811
  516MOL0     H71208   3.270   1.642   2.280 -0.9709  0.5468  0.2750
  517MOL0     O71209   3.578   3.534   6.938  0.9793 -0.0604  0.4896
  517MOL0     C71210   3.472   3.495   6.991 -0.1884 -0.0182 -0.1998
  517MOL0     O71211   3.465   3.434   7.118 -0.0941 -0.7401  0.3897
  517MOL0     C71212   3.579   3.434   7.198 -0.4352  0.5223 -0.0742
  517MOL0     C71213   3.624   3.304   7.247  0.2148 -0.4076  0.7553
  517MOL0     C71214   3.733   3.304   7.330 -0.6681 -0.2150  0.7195
  517MOL0     C71215   3.804   3.420   7.363  0.3410 -0.3726  0.3687
  517MOL0     O71216   3.918   3.410   7.427 -0.2181 -0.8945  0.5369
  517MOL0     C71217   4.018   3.516   7.403 -0.0585 -0.0952 -0.2423
  517MOL0     C71218   4.150   3.477   7.453  0.6548  0.3291  0.1601
  517MOL0     C71219   4.194   3.336   7.405 -0.4764  0.4453  0.2477
  517MOL0     C71220   4.310   3.289   7.495 -0.5263 -0.1226 -0.4103
  517MOL0     C71221   4.253   3.221   7.629  0.1965 -0.7608 -0.5158
  517MOL0     C71222   4.370   3.231   7.728 -0.0679  0.4921 -1.0035
  517MOL0     C71223   4.484   3.131   7.688  0.1827 -0.4031  0.6883
  517MOL0     C71224   4.434   2.988   7.666  0.0837 -0.0680  0.3289
  517MOL0     N71225   4.373   2.933   7.786 -1.3768  0.2141  0.0346
  517MOL0     C71226   4.452   2.859   7.872 -0.2961  0.5303  0.8422
  517MOL0     C71227   4.358   2.808   7.958  0.4809  0.5963  0.3873
  517MOL0     C71228   4.398   2.730   8.079 -1.0633  0.1387  0.1561
  517MOL0     C71229   4.442   2.818   8.191  0.3624  0.3234 -0.5909
  517MOL0     C71230   4.504   2.735   8.303  0.1540 -0.0557  0.6955
  517MOL0     C71231   4.515   2.810   8.429 -0.3168 -0.5087  0.9527
  517MOL0     O71232   4.602   2.919   8.400  0.5084  0.3465 -0.5930
  517MOL0     C71233   4.693   2.968   8.492 -0.7135 -0.5254  0.1447
  517MOL0     C71234   4.720   2.911   8.618 -0.9661  0.4074  0.4578
  517MOL0     C71235   4.825   2.958   8.706  0.7082  0.4577  1.5221
  517MOL0     C71236   4.839   2.899   8.836 -0.0553 -0.9310 -0.2547
  517MOL0     C71237   4.907   3.072   8.661  0.5106  0.5598  0.6206
  517MOL0     C71238   5.015   3.134   8.729  0.1908  0.8512  1.0771
  517MOL0     O71239   5.108   3.204   8.651 -0.3043  0.4790  0.1075
  517MOL0     C71240   5.215   3.250   8.722  0.0441 -0.3714  0.7504
  517MOL0     C71241   5.199   3.350   8.810  0.3205 -1.0468 -0.3735
  517MOL0     C71242   5.306   3.394   8.888 -0.3128 -0.5589  0.5204
  517MOL0     C71243   5.434   3.344   8.858  0.1390 -0.0367 -0.3459
  517MOL0     O71244   5.533   3.393   8.933  0.8672  0.2584  0.0238
  517MOL0     C71245   5.623   3.473   8.858 -0.3771  0.7103 -0.4277
  517MOL0     C71246   5.733   3.529   8.949  0.2201  0.9075  0.5280
  517MOL0     C71247   5.829   3.615   8.870  0.2340  0.6060  0.3060
  517MOL0     C71248   5.908   3.681   8.977 -0.6470 -0.0598  0.0840
  517MOL0     C71249   6.051   3.722   8.920  0.7118  0.9726 -0.8537
  517MOL0     C71250   6.148   3.749   9.041  0.8310 -1.1331  0.1951
  517MOL0     C71251   6.282   3.800   8.983  0.4472 -0.5538 -0.9090
  517MOL0     C71252   6.391   3.759   9.076 -0.1072  0.0825 -0.2920
  517MOL0    Cl71253   6.552   3.781   9.013  0.4684 -0.0551  0.3339
  517MOL0     C71254   5.447   3.237   8.767 -0.3380 -0.3975 -0.7375
  517MOL0     C71255   5.336   3.188   8.702 -0.4251 -0.4462 -0.0655
  517MOL0     O71256   5.012   3.128   8.851 -0.5372 -0.0779 -0.5608
  517MOL0     C71257   4.885   3.112   8.524  0.4113 -0.1689  0.6482
  517MOL0     C71258   4.784   3.055   8.444  0.7250 -0.6936 -0.2050
  517MOL0     N71259   4.233   2.859   7.920  0.8282  0.8547 -0.3844
  517MOL0     N71260   4.243   2.936   7.826 -0.4079 -1.5308 -0.1748
  517MOL0     C71261   3.743   3.542   7.333  0.2637 -0.9064 -0.3868
  517MOL0     C71262   3.625   3.548   7.251  0.2398 -0.2848  0.1912
  517MOL0     C71263   3.341   3.516   6.918  0.2019 -0.3500 -0.1552
  517MOL0     C71264   3.250   3.408   6.917 -0.0024 -0.1930 -0.1297
  517MOL0     C71265   3.126   3.419   6.850 -0.0358  0.1178  0.3930
  517MOL0     C71266   3.088   3.536   6.789 -0.4085 -0.4649  0.7435
  517MOL0     O71267   2.963   3.550   6.728 -0.3895 -0.2719  0.2381
  517MOL0     C71268   2.897   3.678   6.744 -0.0496 -1.1942  0.2393
  517MOL0     C71269   2.917   3.762   6.606 -0.3107  0.7468  0.3983
  517MOL0     C71270   2.865   3.907   6.623  0.2659 -0.1382 -0.7282
  517MOL0     C71271   2.711   3.933   6.600 -0.4725  0.3133 -0.2101
  517MOL0     C71272   2.635   3.873   6.705  0.4763  0.1717 -0.0196
  517MOL0     C71273   2.570   3.816   6.793  0.2134 -0.1230  0.0239
  517MOL0     C71274   3.184   3.647   6.790 -0.2269  0.5149  0.7113
  517MOL0     C71275   3.306   3.632   6.849 -0.0452 -0.6759 -0.3987
  517MOL0     C71276   3.401   3.742   6.831 -0.3087  0.6631 -0.1952
  517MOL0     H71277   3.577   3.220   7.197 -0.7738 -1.2665  2.9591
  517MOL0     H71278   3.777   3.210   7.363 -1.9687 -1.1382 -0.0480
  517MOL0     H71279   3.984   3.606   7.456  2.3396  0.8055 -0.0793
  517MOL0     H71280   4.034   3.551   7.301 -1.2752 -0.0924 -0.4418
  517MOL0     H71281   4.222   3.549   7.413 -0.4229  0.9258 -0.7635
  517MOL0     H71282   4.147   3.481   7.563 -1.4330 -2.2788  0.3055
  517MOL0     H71283   4.117   3.258   7.410 -1.4676  1.4240  0.8022
  517MOL0     H71284   4.216   3.334   7.298 -0.6654 -1.5703  0.1986
  517MOL0     H71285   4.373   3.219   7.439  1.8567 -0.4294  2.4003
  517MOL0     H71286   4.377   3.372   7.522  0.8207 -1.4308  0.4595
  517MOL0     H71287   4.200   3.127   7.613 -3.4038  0.6630  1.7196
  517MOL0     H71288   4.173   3.280   7.676 -0.8505 -3.3867  1.1970
  517MOL0     H71289   4.408   3.333   7.739  1.2239  0.0921 -1.5300
  517MOL0     H71290   4.326   3.196   7.822  0.5827 -3.3987 -1.9729
  517MOL0     H71291   4.560   3.132   7.767  1.7288  0.0231 -0.7473
  517MOL0     H71292   4.531   3.165   7.595  1.5003 -1.7882  0.8111
  517MOL0     H71293   4.369   2.985   7.578 -0.0036 -0.4803  0.4069
  517MOL0     H71294   4.516   2.922   7.636  0.6966  0.7743  0.0893
  517MOL0     H71295   4.555   2.828   7.874 -0.1442  0.2506 -3.1490
  517MOL0     H71296   4.483   2.669   8.048 -2.0591 -0.1097 -2.2642
  517MOL0     H71297   4.319   2.664   8.116 -0.4149 -0.1060  1.1402
  517MOL0     H71298   4.510   2.892   8.149  1.2777 -0.3802 -0.3746
  517MOL0     H71299   4.354   2.874   8.226  0.5673  0.3054 -0.0326
  517MOL0     H71300   4.454   2.638   8.317  0.1075 -0.6246 -2.6123
  517MOL0     H71301   4.604   2.706   8.270  0.9892  1.2813  1.9242
  517MOL0     H71302   4.420   2.840   8.474 -0.3851  0.0378  0.4533
  517MOL0     H71303   4.549   2.742   8.509 -0.6085 -1.9952 -0.1442
  517MOL0     H71304   4.654   2.835   8.659 -0.1344 -0.8094 -0.4034
  517MOL0     H71305   4.770   2.958   8.897  0.8799 -0.6324  0.5405
  517MOL0     H71306   4.944   2.893   8.868 -0.5156 -3.5737  0.9745
  517MOL0     H71307   4.802   2.797   8.834 -2.7082 -0.0375 -0.7225
  517MOL0     H71308   5.098   3.386   8.830 -0.7648 -3.0363 -1.8577
  517MOL0     H71309   5.302   3.479   8.954 -3.3836  1.8616 -2.4340
  517MOL0     H71310   5.677   3.417   8.782 -3.8334 -1.0461 -1.8568
  517MOL0     H71311   5.574   3.553   8.802  0.6880  1.4805 -0.2937
  517MOL0     H71312   5.682   3.579   9.032 -0.1007  0.0920  0.8384
  517MOL0     H71313   5.779   3.437   8.987 -2.0802 -0.6809 -0.2907
  517MOL0     H71314   5.777   3.693   8.813 -2.2170  0.5989  2.3619
  517MOL0     H71315   5.889   3.557   8.799 -3.1096 -0.1584 -2.1660
  517MOL0     H71316   5.933   3.611   9.056  0.4801  1.4279  1.1014
  517MOL0     H71317   5.862   3.775   9.011 -1.6955  0.3667 -2.3172
  517MOL0     H71318   6.100   3.636   8.872  0.9764 -0.4678  1.7894
  517MOL0     H71319   6.040   3.797   8.842 -0.8615 -0.2501 -1.8638
  517MOL0     H71320   6.171   3.654   9.090  3.7967 -0.1055  0.9950
  517MOL0     H71321   6.106   3.821   9.111 -0.8329 -0.6713 -1.2023
  517MOL0     H71322   6.276   3.908   8.965 -4.0371 -0.7925 -2.0870
  517MOL0     H71323   6.304   3.771   8.880  0.5867  2.1792 -1.7268
  517MOL0     H71324   6.385   3.651   9.095 -3.1495 -0.0369 -1.4138
  517MOL0     H71325   6.391   3.804   9.176  0.1017 -2.2129  0.8238
  517MOL0     H71326   5.543   3.192   8.743 -2.2732 -3.8370 -2.8139
  517MOL0     H71327   5.364   3.122   8.621  1.3993  1.5122 -1.1263
  517MOL0     H71328   4.955   3.183   8.480  1.6295 -1.5450  0.2611
  517MOL0     H71329   4.775   3.068   8.337 -0.4705  1.1796  0.0783
  517MOL0     H71330   3.768   3.641   7.369 -0.3414 -0.0932 -2.1081
  517MOL0     H71331   3.573   3.635   7.212  2.1883 -0.4218 -3.1714
  517MOL0     H71332   3.270   3.311   6.961  0.1067 -0.3552 -0.5383
  517MOL0     H71333   3.061   3.334   6.862  1.3688 -0.8122  1.8401
  517MOL0     H71334   2.796   3.646   6.773  1.6435 -5.1661  2.5873
  517MOL0     H71335   2.940   3.740   6.822 -1.4722 -0.0616  0.1545
  517MOL0     H71336   2.857   3.710   6.530 -4.0816  0.7798  3.0878
  517MOL0     H71337   3.024   3.763   6.583 -0.6359  2.1802 -1.3086
  517MOL0     H71338   2.906   3.948   6.716  0.4106 -0.4429 -0.6575
  517MOL0     H71339   2.910   3.970   6.545  0.1356  3.3269  1.7740
  517MOL0     H71340   2.681   3.884   6.507 -2.9809 -2.1214  1.7246
  517MOL0     H71341   2.686   4.040   6.595  2.2436  0.9863 -1.6131
  517MOL0     H71342   2.510   3.761   6.863 -0.1753 -1.1477 -1.0749
  517MOL0     H71343   3.153   3.738   6.741 -2.6448 -0.4218  0.3561
  517MOL0     H71344   3.343   3.834   6.826 -0.0957  1.0634  2.9088
  517MOL0     H71345   3.468   3.755   6.916  0.7426  0.0935 -0.9021
  517MOL0     H71346   3.459   3.728   6.739 -0.1276 -1.6114  0.2096
  518MOL0     O71347   5.187   5.628   2.491  0.9845 -0.1703  0.6452
  518MOL0     C71348   5.165   5.591   2.609 -1.2494  0.6492  0.7406
  518MOL0     O71349   5.234   5.646   2.723 -0.1394 -0.3455  0.4308
  518MOL0     C71350   5.334   5.743   2.717 -0.6003 -0.0347 -0.3270
  518MOL0     C71351   5.405   5.761   2.841 -0.1958 -0.3499  0.0227
  518MOL0     C71352   5.517   5.849   2.836 -0.6430 -0.7735 -0.3158
  518MOL0     C71353   5.554   5.928   2.730 -0.3127  0.2186 -0.6652
  518MOL0     O71354   5.667   6.012   2.722  0.4451  0.2435 -0.5467
  518MOL0     C71355   5.751   6.022   2.839 -0.2951 -0.9021  0.6296
  518MOL0     C71356   5.883   6.094   2.787 -0.1619  1.2987 -0.7041
  518MOL0     C71357   5.950   6.050   2.654 -0.6720  0.3271  0.2320
  518MOL0     C71358   5.971   6.165   2.553  0.7113  0.2818  0.0802
  518MOL0     C71359   5.879   6.142   2.439  0.2958  0.5027 -0.0125
  518MOL0     C71360   5.877   6.235   2.328  0.0171 -0.1023 -0.9440
  518MOL0     C71361   6.002   6.264   2.264 -0.2442  0.4782  0.5229
  518MOL0     C71362   6.049   6.157   2.165  0.2905  0.1785 -0.6748
  518MOL0     N71363   6.152   6.204   2.080 -0.0836  0.5614  0.3867
  518MOL0     C71364   6.136   6.242   1.946  0.7934  0.1887  0.1269
  518MOL0     C71365   6.262   6.244   1.891  0.0246 -0.3034 -0.7290
  518MOL0     C71366   6.289   6.314   1.762 -0.4561 -0.1651 -0.6419
  518MOL0     C71367   6.322   6.463   1.798  0.4001 -0.3947  0.8843
  518MOL0     C71368   6.368   6.542   1.671 -0.5010 -0.3274 -0.3048
  518MOL0     C71369   6.398   6.695   1.684 -0.2738 -0.1740  0.0340
  518MOL0     O71370   6.468   6.718   1.815 -0.1512 -0.4844 -0.0871
  518MOL0     C71371   6.605   6.704   1.823 -0.3463  0.3182 -0.2570
  518MOL0     C71372   6.660   6.727   1.949  0.2484  0.1069  0.0735
  518MOL0     C71373   6.796   6.721   1.980  0.2639 -0.2002 -0.1245
  518MOL0     C71374   6.837   6.777   2.117  1.0234 -0.5419 -0.3762
  518MOL0     C71375   6.896   6.687   1.882 -0.0227 -0.3739 -0.5717
  518MOL0     C71376   7.043   6.682   1.904  0.2294  0.8662  1.4484
  518MOL0     O71377   7.120   6.670   1.784  0.9337  0.3062  0.4860
  518MOL0     C71378   7.260   6.654   1.793 -0.6781 -0.3796 -0.0799
  518MOL0     C71379   7.307   6.547   1.864 -0.1261  0.0382 -0.2311
  518MOL0     C71380   7.436   6.505   1.836  0.2055  0.6321 -0.2891
  518MOL0     C71381   7.530   6.572   1.767 -0.0995 -0.0916  0.8906
  518MOL0     O71382   7.657   6.524   1.772  0.0252 -0.4209  0.4329
  518MOL0     C71383   7.747   6.611   1.699  0.5257 -0.2155 -0.2551
  518MOL0     C71384   7.879   6.537   1.710  0.1058  0.5309  0.3138
  518MOL0     C71385   7.926   6.566   1.846 -0.4093 -0.4440  0.7275
  518MOL0     C71386   8.044   6.477   1.891  0.2798  0.3045  0.4856
  518MOL0     C71387   8.066   6.469   2.049  0.9953 -0.7369  0.1460
  518MOL0     C71388   8.145   6.349   2.082 -0.5329  1.2519 -0.8151
  518MOL0     C71389   8.181   6.346   2.230 -1.2426 -0.0642 -0.5440
  518MOL0     C71390   8.283   6.234   2.254  0.0758 -0.0566  0.4372
  518MOL0    Cl71391   8.332   6.235   2.420 -0.0810 -0.1798 -0.5564
  518MOL0     C71392   7.484   6.693   1.706 -0.3340 -0.0343 -0.3825
  518MOL0     C71393   7.350   6.731   1.709  0.3176  0.0735  0.1549
  518MOL0     O71394   7.093   6.689   2.019  1.1815 -0.4330 -0.3756
  518MOL0     C71395   6.846   6.662   1.755 -0.1172 -0.6331  0.6058
  518MOL0     C71396   6.702   6.679   1.728  0.0842 -0.4838  0.2456
  518MOL0     N71397   6.349   6.207   1.991  0.2262 -0.0053  0.7644
  518MOL0     N71398   6.284   6.180   2.099 -0.1062  0.0117 -0.0874
  518MOL0     C71399   5.484   5.898   2.613  0.0379 -0.7037  0.1591
  518MOL0     C71400   5.373   5.814   2.606 -0.3477 -0.7823  0.8859
  518MOL0     C71401   5.052   5.499   2.635  0.7098 -0.0398 -0.3326
  518MOL0     C71402   5.016   5.470   2.768 -0.4862 -0.1097 -0.2484
  518MOL0     C71403   4.915   5.385   2.809  0.2921 -0.2225 -0.1749
  518MOL0     C71404   4.834   5.330   2.708 -0.2891  1.0884 -0.7560
  518MOL0     O71405   4.732   5.241   2.734  0.0840  0.0269 -0.0901
  518MOL0     C71406   4.604   5.307   2.743  0.2943  0.6639 -0.3705
  518MOL0     C71407   4.574   5.374   2.876 -0.0187  0.2738 -0.3558
  518MOL0     C71408   4.518   5.269   2.979 -0.4529  0.2065  0.6827
  518MOL0     C71409   4.378   5.217   2.948 -0.1933  0.5493 -0.2876
  518MOL0     C71410   4.304   5.196   3.073  0.9103 -0.6183  0.2416
  518MOL0     C71411   4.232   5.179   3.169 -0.4187 -0.2164 -0.2412
  518MOL0     C71412   4.861   5.350   2.581  0.7922 -0.7921  0.5624
  518MOL0     C71413   4.961   5.442   2.539  0.5577 -1.0324  0.2939
  518MOL0     C71414   4.969   5.444   2.383  0.0310  0.0207  0.0724
  518MOL0     H71415   5.385   5.703   2.931 -2.5093  1.7732  0.9949
  518MOL0     H71416   5.588   5.861   2.918 -0.4014 -1.9959 -0.3279
  518MOL0     H71417   5.778   5.925   2.882  1.8526 -1.5212 -1.8402
  518MOL0     H71418   5.696   6.078   2.915 -0.3273 -1.2885  0.8875
  518MOL0     H71419   5.845   6.196   2.800 -1.3165  0.5357  3.1652
  518MOL0     H71420   5.966   6.074   2.854 -0.6490 -1.1971 -0.7278
  518MOL0     H71421   6.054   6.019   2.668  1.4326  4.6156 -3.1842
  518MOL0     H71422   5.902   5.966   2.604  0.6390 -0.1892 -0.2141
  518MOL0     H71423   5.952   6.267   2.585 -0.1295 -0.5274  2.3696
  518MOL0     H71424   6.072   6.164   2.511  0.0437  1.0840 -1.6385
  518MOL0     H71425   5.778   6.144   2.481  0.0001  5.4913 -0.3688
  518MOL0     H71426   5.893   6.040   2.403 -2.3096 -0.4236  1.3010
  518MOL0     H71427   5.805   6.210   2.250 -1.0582  1.1041 -0.3669
  518MOL0     H71428   5.837   6.325   2.374 -0.8754  0.4677 -2.7776
  518MOL0     H71429   6.092   6.280   2.323  1.1138 -1.3732 -0.9087
  518MOL0     H71430   5.990   6.359   2.212 -1.4639 -0.0996 -0.3158
  518MOL0     H71431   6.076   6.064   2.216 -0.9366  1.6552  3.0336
  518MOL0     H71432   5.963   6.121   2.108  0.5518 -2.3037  0.3468
  518MOL0     H71433   6.045   6.266   1.891 -0.0293 -0.1580  1.2925
  518MOL0     H71434   6.205   6.300   1.694 -0.3158 -0.6166 -0.7255
  518MOL0     H71435   6.377   6.267   1.717 -2.3275 -1.8471 -2.7939
  518MOL0     H71436   6.230   6.501   1.842 -0.9766  0.2019 -2.2199
  518MOL0     H71437   6.401   6.466   1.873 -0.3004  1.6357  1.5996
  518MOL0     H71438   6.462   6.506   1.628  0.8539 -0.7301  2.7196
  518MOL0     H71439   6.283   6.529   1.604 -1.4539  0.5174  0.7159
  518MOL0     H71440   6.456   6.723   1.596 -0.1499 -1.1452 -0.2012
  518MOL0     H71441   6.300   6.744   1.674  0.7280  1.8431 -0.3181
  518MOL0     H71442   6.591   6.740   2.032 -2.8354 -0.8950 -2.1330
  518MOL0     H71443   6.745   6.808   2.166  0.3277  0.0750 -2.0103
  518MOL0     H71444   6.908   6.859   2.101 -0.4222  0.2500 -3.6258
  518MOL0     H71445   6.874   6.692   2.176 -1.1109 -0.6614  0.8463
  518MOL0     H71446   7.237   6.494   1.928  0.3344  2.6268  2.6144
  518MOL0     H71447   7.470   6.417   1.891 -0.5187 -0.4831 -1.5668
  518MOL0     H71448   7.715   6.627   1.596  1.3947  0.0205 -0.4954
  518MOL0     H71449   7.746   6.711   1.744 -2.1381 -0.6510  0.8752
  518MOL0     H71450   7.869   6.429   1.691 -0.8130  0.5786  0.4679
  518MOL0     H71451   7.936   6.586   1.631 -1.3367 -1.6932 -2.2921
  518MOL0     H71452   7.853   6.554   1.927  0.3444  0.6377  1.5871
  518MOL0     H71453   7.955   6.671   1.849  0.3028 -0.5594 -0.9099
  518MOL0     H71454   8.127   6.517   1.832 -1.8304  0.0364 -2.9660
  518MOL0     H71455   8.020   6.375   1.860  3.9197 -1.1558  1.8908
  518MOL0     H71456   8.098   6.569   2.081 -0.4598  0.5770 -2.1633
  518MOL0     H71457   7.961   6.463   2.079  0.8044  2.1266  0.3571
  518MOL0     H71458   8.240   6.361   2.030 -0.8487  0.9762 -1.4566
  518MOL0     H71459   8.094   6.258   2.049  0.2841  0.2172  0.6404
  518MOL0     H71460   8.096   6.340   2.298 -1.3097  1.3519 -0.4776
  518MOL0     H71461   8.244   6.433   2.251  0.2129 -1.6314  2.1082
  518MOL0     H71462   8.372   6.250   2.193 -0.3834 -2.2412 -0.9002
  518MOL0     H71463   8.231   6.139   2.239 -0.2262  0.5951 -3.7611
  518MOL0     H71464   7.558   6.763   1.667 -0.7225  1.1722  0.9839
  518MOL0     H71465   7.312   6.828   1.680  1.5287  0.6437  0.4225
  518MOL0     H71466   6.908   6.621   1.677  1.0231  0.2968  1.0044
  518MOL0     H71467   6.664   6.652   1.630 -1.4909  4.8910 -0.9258
  518MOL0     H71468   5.526   5.951   2.528  0.8304  0.2179  1.0874
  518MOL0     H71469   5.314   5.821   2.515 -2.8595  1.7113  2.5509
  518MOL0     H71470   5.074   5.522   2.844  1.3898  1.9185 -2.8551
  518MOL0     H71471   4.902   5.376   2.917  3.3078  1.3001  0.4336
  518MOL0     H71472   4.590   5.367   2.653  2.9037  0.2675 -1.1318
  518MOL0     H71473   4.526   5.231   2.735  0.7004  0.2633 -0.5972
  518MOL0     H71474   4.499   5.452   2.859 -1.1677 -0.8226 -0.5508
  518MOL0     H71475   4.664   5.421   2.915 -0.4553 -1.3370  2.9181
  518MOL0     H71476   4.590   5.187   2.971 -0.3562  0.4345 -0.9286
  518MOL0     H71477   4.524   5.314   3.079  0.4989  1.4674  0.0924
  518MOL0     H71478   4.390   5.127   2.888  0.9291 -2.7390  4.3127
  518MOL0     H71479   4.329   5.291   2.884  1.0828 -0.1752 -2.1725
  518MOL0     H71480   4.170   5.170   3.256 -4.0814  1.9513 -2.3500
  518MOL0     H71481   4.793   5.303   2.510 -4.0957 -0.5857  4.5453
  518MOL0     H71482   4.887   5.504   2.342 -0.3838 -1.3386 -1.1404
  518MOL0     H71483   5.063   5.486   2.347  1.1323 -2.2407  0.1474
  518MOL0     H71484   4.965   5.342   2.345 -0.0287 -0.6258  1.7277
  519MOL0     O71485   7.027   9.964   6.459 -0.2675 -0.0025  0.3422
  519MOL0     C71486   7.125   9.888   6.468 -0.1868  0.4991 -0.2098
  519MOL0     O71487   7.131   9.781   6.550 -0.4535 -0.1557  0.5504
  519MOL0     C71488   7.024   9.743   6.629  0.1968  0.2747  0.5856
  519MOL0     C71489   6.967   9.817   6.737 -0.1212 -0.6410 -0.5122
  519MOL0     C71490   6.866   9.762   6.818 -0.0959  0.6691  0.7043
  519MOL0     C71491   6.799   9.642   6.767 -0.3425  0.0122 -0.2943
  519MOL0     O71492   6.697   9.594   6.847  0.1748 -0.5358 -0.7205
  519MOL0     C71493   6.596   9.499   6.800  0.9086 -0.9129 -0.8925
  519MOL0     C71494   6.518   9.458   6.918 -0.4984 -0.0249  0.4903
  519MOL0     C71495   6.390   9.396   6.879  0.5766  0.6610 -0.1244
  519MOL0     C71496   6.422   9.264   6.800 -0.0230 -0.3528  0.4096
  519MOL0     C71497   6.297   9.167   6.813  0.0767 -0.8167  0.6663
  519MOL0     C71498   6.313   9.057   6.711  0.6687  0.1788  0.3145
  519MOL0     C71499   6.201   8.961   6.736 -0.4555  0.1993  0.6862
  519MOL0     C71500   6.200   8.840   6.640 -0.1976 -0.5241  0.5624
  519MOL0     N71501   6.071   8.781   6.636  0.1514 -0.0638  0.1858
  519MOL0     C71502   6.017   8.696   6.731 -0.2586  0.4359  0.4025
  519MOL0     C71503   5.889   8.679   6.692 -0.1713  0.1052  0.7874
  519MOL0     C71504   5.773   8.594   6.742 -0.4244 -0.0592  0.2751
  519MOL0     C71505   5.768   8.462   6.669  0.4394  0.0912  0.4748
  519MOL0     C71506   5.630   8.442   6.605 -0.8642 -0.2709 -0.7123
  519MOL0     C71507   5.618   8.526   6.477 -0.1218 -0.3847 -0.4765
  519MOL0     O71508   5.492   8.499   6.414 -0.8854 -0.0572 -0.4287
  519MOL0     C71509   5.472   8.552   6.283 -0.0227 -0.0207 -0.2254
  519MOL0     C71510   5.334   8.550   6.236  0.1656  0.1202  0.1178
  519MOL0     C71511   5.298   8.604   6.110  0.8512 -0.4128 -0.7582
  519MOL0     C71512   5.147   8.607   6.079  0.4439 -0.2917  1.5046
  519MOL0     C71513   5.399   8.653   6.024  1.7031  0.0275 -0.3681
  519MOL0     C71514   5.375   8.701   5.881 -0.2262  0.2425 -0.3292
  519MOL0     O71515   5.471   8.777   5.825 -0.3941 -0.4134  0.2190
  519MOL0     C71516   5.462   8.810   5.687  0.5359  0.4037  0.1718
  519MOL0     C71517   5.559   8.752   5.606  0.0791  0.0035  1.0076
  519MOL0     C71518   5.546   8.757   5.464  0.2933 -0.3647  0.6502
  519MOL0     C71519   5.446   8.823   5.396  0.7905 -0.1678  0.0641
  519MOL0     O71520   5.417   8.840   5.262  0.0291 -0.2779 -0.1900
  519MOL0     C71521   5.524   8.892   5.185 -0.3045 -0.6111  0.0854
  519MOL0     C71522   5.480   9.000   5.093  1.3411 -0.0629  0.3161
  519MOL0     C71523   5.449   9.129   5.174  0.7200  0.5493 -0.2982
  519MOL0     C71524   5.405   9.242   5.085 -0.0424 -0.0843  0.1591
  519MOL0     C71525   5.405   9.383   5.150 -0.8537 -0.1475 -0.7524
  519MOL0     C71526   5.321   9.388   5.290 -0.8297  0.2137 -0.2345
  519MOL0     C71527   5.319   9.532   5.324 -0.5759  0.8927  0.2786
  519MOL0     C71528   5.211   9.603   5.265  0.5330 -0.4037 -0.0788
  519MOL0    Cl71529   5.057   9.540   5.324 -0.0309  0.2544 -0.0132
  519MOL0     C71530   5.344   8.881   5.482 -0.5995  0.0491 -0.7598
  519MOL0     C71531   5.357   8.875   5.619  0.1167  0.1061 -0.4950
  519MOL0     O71532   5.283   8.647   5.821 -0.6631 -0.7682  0.7719
  519MOL0     C71533   5.531   8.646   6.071  0.1041 -0.3441 -1.2010
  519MOL0     C71534   5.566   8.596   6.197  0.7424  0.1306  0.0919
  519MOL0     N71535   5.868   8.753   6.574 -0.2258  0.4039  0.9591
  519MOL0     N71536   5.984   8.797   6.534  0.3939  0.7175 -0.4097
  519MOL0     C71537   6.845   9.577   6.653  0.0032 -0.1573  0.3910
  519MOL0     C71538   6.970   9.621   6.590 -0.2326 -0.4528 -0.7108
  519MOL0     C71539   7.245   9.916   6.396  0.2891  0.4167  0.8673
  519MOL0     C71540   7.296   9.823   6.309  0.9303  0.2697  0.1954
  519MOL0     C71541   7.401   9.850   6.228  0.0490 -0.0020 -0.6043
  519MOL0     C71542   7.481   9.970   6.245  0.4366 -0.3952  0.6248
  519MOL0     O71543   7.592   9.998   6.163  0.2291 -0.1089 -0.4809
  519MOL0     C71544   7.640   9.909   6.056  1.0534 -0.5923  0.3589
  519MOL0     C71545   7.772   9.954   6.009  0.3611 -0.4933 -0.6533
  519MOL0     C71546   7.771  10.073   5.914 -0.3766  0.5770  0.2124
  519MOL0     C71547   7.906  10.125   5.871  0.2807 -0.3905 -0.0122
  519MOL0     C71548   7.987  10.025   5.810 -0.1191  0.1227 -0.0777
  519MOL0     C71549   8.047   9.941   5.748 -0.1811  0.9936 -0.1731
  519MOL0     C71550   7.434  10.062   6.339 -0.1791  0.0453 -0.3384
  519MOL0     C71551   7.311  10.040   6.402 -0.4718 -0.2710  0.0236
  519MOL0     C71552   7.259  10.153   6.485  0.1352 -1.3278 -0.4493
  519MOL0     H71553   6.995   9.916   6.771 -3.8760  0.7320 -0.8973
  519MOL0     H71554   6.836   9.819   6.905  1.2167  5.1692 -1.5035
  519MOL0     H71555   6.640   9.406   6.765  0.1382 -1.9300  0.7575
  519MOL0     H71556   6.533   9.551   6.727 -2.5403 -2.2632  0.8885
  519MOL0     H71557   6.568   9.385   6.982  1.2001  2.4881  2.2124
  519MOL0     H71558   6.500   9.542   6.986  3.8962  0.1882  1.6964
  519MOL0     H71559   6.332   9.375   6.969  2.5034 -0.0000  1.0438
  519MOL0     H71560   6.331   9.458   6.812  0.8022  0.5563 -0.4234
  519MOL0     H71561   6.450   9.280   6.696  0.4227 -1.1701  0.3971
  519MOL0     H71562   6.513   9.209   6.827  0.4832 -0.7897 -1.9758
  519MOL0     H71563   6.199   9.213   6.793 -0.4864 -1.6094  1.4863
  519MOL0     H71564   6.312   9.135   6.917  3.4528  0.7302  0.7833
  519MOL0     H71565   6.304   9.102   6.612 -1.5534 -0.9330 -0.0442
  519MOL0     H71566   6.414   9.014   6.719  0.8453 -0.2763 -2.9599
  519MOL0     H71567   6.102   9.006   6.723 -0.2449  0.5957  0.4315
  519MOL0     H71568   6.206   8.923   6.839 -0.4608 -0.5598  0.4085
  519MOL0     H71569   6.235   8.869   6.541 -1.2222  2.3090  0.9234
  519MOL0     H71570   6.281   8.779   6.682  0.8594  1.1580  1.0788
  519MOL0     H71571   6.063   8.644   6.814  0.5467  1.1060  0.3938
  519MOL0     H71572   5.678   8.647   6.732 -0.1583  0.1440 -1.4725
  519MOL0     H71573   5.799   8.583   6.848  3.3784 -0.4513 -0.5664
  519MOL0     H71574   5.843   8.453   6.590 -1.2489 -1.5239 -1.0183
  519MOL0     H71575   5.774   8.383   6.743 -1.7543 -0.0737  0.5211
  519MOL0     H71576   5.622   8.336   6.582  1.9940 -0.1379 -2.9231
  519MOL0     H71577   5.547   8.473   6.669 -0.3128 -1.4105  0.6006
  519MOL0     H71578   5.648   8.630   6.494  0.8396 -0.8122  0.5405
  519MOL0     H71579   5.694   8.493   6.406 -1.2082 -2.2387 -0.8552
  519MOL0     H71580   5.252   8.512   6.296 -0.9505  1.7176 -0.3333
  519MOL0     H71581   5.118   8.688   6.012 -0.7562 -1.5141  0.4673
  519MOL0     H71582   5.085   8.610   6.169  0.0566 -3.0289  1.4294
  519MOL0     H71583   5.110   8.521   6.021 -0.4196  2.2633 -2.1187
  519MOL0     H71584   5.641   8.697   5.651 -0.8679 -0.4555  2.2336
  519MOL0     H71585   5.617   8.703   5.401  0.8806 -1.6009  2.3018
  519MOL0     H71586   5.608   8.934   5.242 -0.9384  1.6628 -0.5716
  519MOL0     H71587   5.566   8.815   5.119  2.9605 -0.3062  1.5665
  519MOL0     H71588   5.553   9.018   5.014  0.8919 -2.5586 -0.7724
  519MOL0     H71589   5.391   8.964   5.041  0.4021  3.2198 -0.5359
  519MOL0     H71590   5.537   9.167   5.226  1.7667 -0.8877 -0.9437
  519MOL0     H71591   5.367   9.111   5.244  0.8820  1.9899  0.2895
  519MOL0     H71592   5.305   9.210   5.055 -0.7361  1.3785  0.8091
  519MOL0     H71593   5.467   9.251   4.995  0.0704  1.0344  0.3316
  519MOL0     H71594   5.512   9.399   5.169 -1.0602 -0.4302  0.7318
  519MOL0     H71595   5.368   9.450   5.072 -1.8632  1.6888  1.2016
  519MOL0     H71596   5.364   9.335   5.375 -1.8971  0.7357  0.6501
  519MOL0     H71597   5.218   9.354   5.275 -1.4479  1.0427  1.8373
  519MOL0     H71598   5.416   9.574   5.298 -1.1772  2.0585 -0.1266
  519MOL0     H71599   5.321   9.545   5.433  0.5009 -1.0137  0.5294
  519MOL0     H71600   5.207   9.609   5.156  0.9789 -1.5533 -0.1799
  519MOL0     H71601   5.227   9.707   5.292  2.1724 -0.5884 -0.2241
  519MOL0     H71602   5.263   8.932   5.432 -2.0830 -1.5747 -0.1432
  519MOL0     H71603   5.285   8.908   5.693  0.4872  1.5625 -0.7544
  519MOL0     H71604   5.602   8.695   6.005  1.0351  0.9596  0.6923
  519MOL0     H71605   5.669   8.604   6.228  1.0063 -1.0585 -0.4343
  519MOL0     H71606   6.787   9.494   6.612  1.6110 -1.0793 -0.1096
  519MOL0     H71607   7.004   9.571   6.500  2.9965 -0.9494  0.6558
  519MOL0     H71608   7.238   9.737   6.277 -0.0142  1.6703 -2.1054
  519MOL0     H71609   7.431   9.783   6.148 -0.6684  0.2691 -1.1086
  519MOL0     H71610   7.650   9.807   6.095  0.8818 -0.9882 -0.6169
  519MOL0     H71611   7.578   9.917   5.966  1.7621  0.8155 -0.0265
  519MOL0     H71612   7.808   9.871   5.947  2.7582  0.2110 -0.2997
  519MOL0     H71613   7.851   9.966   6.084  0.3578 -0.7204 -0.6109
  519MOL0     H71614   7.712  10.047   5.826  2.3044 -3.6846 -0.6247
  519MOL0     H71615   7.728  10.161   5.964  1.6050  0.8237  1.6204
  519MOL0     H71616   7.959  10.176   5.953  2.4958 -0.9632 -0.9956
  519MOL0     H71617   7.894  10.202   5.795 -0.9348 -1.5246 -1.0200
  519MOL0     H71618   8.107   9.858   5.716  0.0538  0.6621  1.0535
  519MOL0     H71619   7.482  10.159   6.343 -0.6060  0.2400  0.2003
  519MOL0     H71620   7.329  10.235   6.506 -0.6295 -0.9917  0.8794
  519MOL0     H71621   7.179  10.191   6.421  1.5997 -0.2531 -1.7015
  519MOL0     H71622   7.206  10.117   6.573 -0.6008 -3.0025 -1.5200
  520MOL0     O71623   9.991   7.952   5.662  0.1381  0.0146  0.3874
  520MOL0     C71624  10.005   7.972   5.780  0.0599 -0.2483 -0.5040
  520MOL0     O71625   9.921   7.925   5.879  0.1385  0.2340 -0.3775
  520MOL0     C71626   9.790   7.905   5.868  0.3157  0.2551  0.5724
  520MOL0     C71627   9.732   7.811   5.779 -0.4251  0.2821  0.9035
  520MOL0     C71628   9.599   7.778   5.783  0.5568  0.0617 -0.0921
  520MOL0     C71629   9.513   7.841   5.879 -0.1007  0.6654  0.2693
  520MOL0     O71630   9.380   7.811   5.891 -0.1031 -0.3155 -0.2819
  520MOL0     C71631   9.328   7.759   6.017 -0.0658  0.4251 -0.4383
  520MOL0     C71632   9.191   7.699   5.979 -0.8133  0.5549  0.0271
  520MOL0     C71633   9.078   7.795   5.926 -0.7911 -0.0830  0.7959
  520MOL0     C71634   9.039   7.906   6.036  0.0434 -0.3481 -0.3809
  520MOL0     C71635   8.934   8.003   5.980  0.5082  1.4674  0.1240
  520MOL0     C71636   8.859   8.058   6.098  0.8777 -1.0852 -0.3515
  520MOL0     C71637   8.730   8.130   6.062 -0.4642 -0.8675  0.2793
  520MOL0     C71638   8.686   8.237   6.164  0.0114 -0.0537 -0.7847
  520MOL0     N71639   8.681   8.193   6.299  0.5370 -0.2979 -0.5289
  520MOL0     C71640   8.570   8.126   6.344 -0.7396 -0.2839 -0.5511
  520MOL0     C71641   8.609   8.099   6.473  0.6919  0.0811 -0.0419
  520MOL0     C71642   8.527   8.005   6.549 -0.2765 -0.2377  0.0302
  520MOL0     C71643   8.377   8.044   6.561  1.1438  0.5428  0.1806
  520MOL0     C71644   8.283   7.950   6.488  0.8111 -0.2365  0.4804
  520MOL0     C71645   8.126   7.978   6.518 -0.4132  0.3543 -0.0334
  520MOL0     O71646   8.074   8.060   6.415 -0.6959  0.0065 -0.5651
  520MOL0     C71647   7.943   8.065   6.389 -0.4323  1.0869  0.8382
  520MOL0     C71648   7.894   8.112   6.262  0.2430  0.0067  0.1984
  520MOL0     C71649   7.766   8.080   6.223 -0.7380  0.9763 -0.3344
  520MOL0     C71650   7.736   8.094   6.076 -0.7513 -0.2328 -1.2919
  520MOL0     C71651   7.677   8.018   6.317  0.5133  0.3542  0.7337
  520MOL0     C71652   7.533   7.981   6.296 -0.1295 -0.2947  0.2387
  520MOL0     O71653   7.455   8.050   6.209 -0.0606 -0.7033  0.6164
  520MOL0     C71654   7.325   8.059   6.228 -0.3564 -1.0031 -0.5954
  520MOL0     C71655   7.235   8.068   6.120 -0.2540  0.5219  0.0574
  520MOL0     C71656   7.093   8.061   6.144  0.4010 -0.2339  0.1945
  520MOL0     C71657   7.054   8.080   6.280  0.3518 -0.2143  0.0755
  520MOL0     O71658   6.923   8.095   6.311  0.1764 -0.2242 -0.4848
  520MOL0     C71659   6.858   7.975   6.351 -0.2429 -0.1209  0.5776
  520MOL0     C71660   6.715   8.020   6.378 -0.0051  1.0255  0.3618
  520MOL0     C71661   6.634   7.890   6.390  0.0401 -0.6567  0.3564
  520MOL0     C71662   6.487   7.912   6.397  0.7458 -0.0732  0.9860
  520MOL0     C71663   6.412   7.792   6.346 -0.7817 -0.2244 -0.0800
  520MOL0     C71664   6.257   7.811   6.379  0.6814  0.3041 -0.6264
  520MOL0     C71665   6.183   7.694   6.313 -0.1473  0.1325  0.2337
  520MOL0     C71666   6.061   7.635   6.387  0.0646  0.1177 -0.0292
  520MOL0    Cl71667   5.943   7.765   6.403 -0.1127  0.1825  0.3781
  520MOL0     C71668   7.136   8.086   6.384 -0.5526 -1.3125  0.6162
  520MOL0     C71669   7.274   8.070   6.364  0.9161 -0.1311 -0.2503
  520MOL0     O71670   7.489   7.879   6.356  0.2329 -0.1989 -0.2894
  520MOL0     C71671   7.719   7.992   6.443 -0.7406  0.6316 -0.1845
  520MOL0     C71672   7.854   8.013   6.484  0.7065 -0.2655 -0.5526
  520MOL0     N71673   8.727   8.164   6.507  0.1931 -0.3815  0.9481
  520MOL0     N71674   8.781   8.219   6.399  0.8258 -0.2357 -0.3296
  520MOL0     C71675   9.574   7.933   5.963 -0.0699 -0.2086  1.0297
  520MOL0     C71676   9.708   7.972   5.952 -0.6064  0.2022  0.1680
  520MOL0     C71677  10.144   8.028   5.821  0.7555 -0.7040 -0.6139
  520MOL0     C71678  10.241   8.056   5.720  0.4235  0.9564 -0.0723
  520MOL0     C71679  10.371   8.103   5.758 -0.2495 -0.1177 -0.2825
  520MOL0     C71680  10.401   8.141   5.890  0.5385 -0.4263 -0.1134
  520MOL0     O71681  10.509   8.206   5.954 -0.0810 -0.2175  0.1228
  520MOL0     C71682  10.621   8.238   5.872  1.0804  0.6269 -0.1873
  520MOL0     C71683  10.734   8.291   5.971  1.0860  0.3220  0.2095
  520MOL0     C71684  10.763   8.198   6.080 -0.8957  0.6217 -0.0523
  520MOL0     C71685  10.870   8.252   6.184  0.1459  0.0571 -0.0856
  520MOL0     C71686  11.005   8.220   6.134  0.5855  0.6622 -0.4223
  520MOL0     C71687  11.116   8.217   6.090 -0.8589  1.1569  0.1390
  520MOL0     C71688  10.300   8.129   5.984  0.0271  0.4312 -0.3461
  520MOL0     C71689  10.174   8.068   5.956 -0.4407 -0.2914 -0.7173
  520MOL0     C71690  10.075   8.050   6.074 -0.4189 -1.2973  0.0615
  520MOL0     H71691   9.796   7.754   5.713 -2.5060 -1.4613  0.2676
  520MOL0     H71692   9.555   7.704   5.717 -0.2655 -3.6205  4.0793
  520MOL0     H71693   9.308   7.843   6.084 -1.2987 -2.7382  3.6181
  520MOL0     H71694   9.393   7.686   6.066  1.8199  2.2650 -0.0720
  520MOL0     H71695   9.222   7.634   5.896 -0.2371  1.5574 -0.5570
  520MOL0     H71696   9.156   7.634   6.059 -1.0245 -2.2530 -2.1843
  520MOL0     H71697   9.119   7.839   5.834  0.7656 -2.5270  0.2222
  520MOL0     H71698   8.989   7.744   5.887 -0.9933  2.1844 -2.0401
  520MOL0     H71699   9.002   7.861   6.128 -3.7888  2.1104 -0.4928
  520MOL0     H71700   9.124   7.972   6.058 -0.2783 -0.0740  0.0606
  520MOL0     H71701   8.874   7.932   5.923  0.6910 -0.4644  2.1884
  520MOL0     H71702   8.974   8.083   5.918 -1.4319  1.6238 -1.0047
  520MOL0     H71703   8.836   7.975   6.166  2.2404 -2.1252 -1.1053
  520MOL0     H71704   8.930   8.128   6.144  1.1985 -2.2622  1.0229
  520MOL0     H71705   8.648   8.057   6.063 -1.1698 -0.1887 -1.7913
  520MOL0     H71706   8.741   8.164   5.959 -0.3872 -0.8920  0.2790
  520MOL0     H71707   8.751   8.324   6.154 -0.0352  0.3391  1.7539
  520MOL0     H71708   8.587   8.269   6.130  0.6898  0.5603 -2.2444
  520MOL0     H71709   8.488   8.079   6.290 -0.1731 -2.3229  0.2834
  520MOL0     H71710   8.579   7.992   6.645 -3.2206  1.7358  2.0781
  520MOL0     H71711   8.537   7.916   6.486  0.2360  0.4472 -0.8800
  520MOL0     H71712   8.357   8.036   6.668  2.2643 -0.2837  0.3568
  520MOL0     H71713   8.361   8.146   6.528 -0.7523  0.4070  0.5931
  520MOL0     H71714   8.294   7.975   6.382 -2.4177  0.8343  0.2940
  520MOL0     H71715   8.308   7.847   6.515 -3.9722 -1.7581 -0.0255
  520MOL0     H71716   8.066   7.888   6.537 -2.5760  1.4890 -1.1033
  520MOL0     H71717   8.115   8.038   6.609  1.6636  0.3860  0.2259
  520MOL0     H71718   7.978   8.138   6.199 -0.7336  2.6894 -0.1174
  520MOL0     H71719   7.777   8.190   6.041  2.7306  0.0967  2.7749
  520MOL0     H71720   7.631   8.094   6.046 -0.3944 -1.0767 -2.6311
  520MOL0     H71721   7.795   8.015   6.029 -0.2113 -0.7617  0.2307
  520MOL0     H71722   7.278   8.050   6.022 -0.0763  1.7824 -0.1124
  520MOL0     H71723   7.025   8.048   6.060  1.8628 -0.3660 -1.0092
  520MOL0     H71724   6.862   7.899   6.273  0.0272  0.7444 -0.2775
  520MOL0     H71725   6.896   7.933   6.444  0.0093 -0.5853  0.2659
  520MOL0     H71726   6.716   8.086   6.465 -0.1054  2.2188 -0.5309
  520MOL0     H71727   6.684   8.076   6.290  0.7683 -0.0125 -0.5949
  520MOL0     H71728   6.661   7.834   6.480 -0.4852  0.0799  0.9784
  520MOL0     H71729   6.650   7.828   6.301 -2.2175 -0.7896 -0.0355
  520MOL0     H71730   6.457   8.004   6.347 -1.5618 -0.0242  2.2980
  520MOL0     H71731   6.460   7.924   6.502  1.0917 -3.0791  1.5224
  520MOL0     H71732   6.426   7.787   6.238  0.6089  1.4466 -0.0218
  520MOL0     H71733   6.447   7.699   6.391 -1.1355  1.2554  3.6098
  520MOL0     H71734   6.207   7.902   6.345 -2.7103 -0.8625  0.8262
  520MOL0     H71735   6.251   7.803   6.488  0.6133 -0.0073 -0.6540
  520MOL0     H71736   6.259   7.617   6.298  0.4470  0.2880  2.1226
  520MOL0     H71737   6.148   7.722   6.214  1.9042 -0.0051 -0.5872
  520MOL0     H71738   6.086   7.596   6.486 -0.2492  0.1395  0.0595
  520MOL0     H71739   6.017   7.557   6.325  0.1182 -1.7297  2.1389
  520MOL0     H71740   7.104   8.108   6.485 -0.4406  2.0214  0.0193
  520MOL0     H71741   7.328   8.071   6.458  0.3787  0.7844  0.0627
  520MOL0     H71742   7.649   7.960   6.520  0.0857  1.3916  0.9158
  520MOL0     H71743   7.869   7.981   6.587 -1.7240 -2.2678 -0.7407
  520MOL0     H71744   9.518   7.994   6.033 -0.3460  0.1481  0.5059
  520MOL0     H71745   9.751   8.044   6.022  2.3469 -0.7350 -0.5730
  520MOL0     H71746  10.221   8.036   5.615 -0.7557  0.2421  0.2708
  520MOL0     H71747  10.451   8.126   5.688  0.7445 -2.9227 -0.2285
  520MOL0     H71748  10.660   8.145   5.828 -0.2552 -0.1248  0.1733
  520MOL0     H71749  10.605   8.301   5.784 -2.6457 -2.1373 -1.7682
  520MOL0     H71750  10.695   8.380   6.022  0.8302  1.2750 -1.5487
  520MOL0     H71751  10.827   8.327   5.926 -0.5252  1.8205 -2.1711
  520MOL0     H71752  10.675   8.171   6.139  0.7199 -1.0761  1.7142
  520MOL0     H71753  10.794   8.099   6.047 -0.6193  0.1553  1.5172
  520MOL0     H71754  10.856   8.200   6.279 -2.6472 -0.1944 -0.5535
  520MOL0     H71755  10.858   8.359   6.201  0.1509  0.0794 -0.2236
  520MOL0     H71756  11.214   8.219   6.047 -1.9434  1.6783 -2.5011
  520MOL0     H71757  10.319   8.168   6.083 -2.1806  1.3558 -0.2143
  520MOL0     H71758  10.002   8.132   6.066  0.6963 -0.2582  0.2346
  520MOL0     H71759  10.023   7.954   6.074 -1.4851 -0.7539 -0.8468
  520MOL0     H71760  10.125   8.061   6.170 -2.1912  2.0514  0.7913
  521MOL0     O71761  10.793   9.226   9.264  0.9061  0.2630 -0.6103
  521MOL0     C71762  10.705   9.146   9.288 -0.1048 -0.1160 -0.7122
  521MOL0     O71763  10.677   9.038   9.216 -1.1948 -0.8363  0.2161
  521MOL0     C71764  10.765   8.967   9.134  0.3722  1.1176 -0.5554
  521MOL0     C71765  10.906   8.980   9.136 -0.2958 -0.6486  0.0680
  521MOL0     C71766  10.991   8.888   9.076 -0.2187 -0.5116 -0.2045
  521MOL0     C71767  10.945   8.770   9.007 -0.0266 -0.3335  0.0088
  521MOL0     O71768  11.025   8.674   8.949 -0.7430 -0.0011 -0.1143
  521MOL0     C71769  11.045   8.694   8.814  0.3712 -0.7751  0.2031
  521MOL0     C71770  11.108   8.576   8.740 -0.1243  0.2269 -0.3789
  521MOL0     C71771  11.107   8.604   8.588  0.3414  0.3679 -0.1572
  521MOL0     C71772  11.186   8.501   8.514  0.0530  0.3125 -0.7612
  521MOL0     C71773  11.194   8.542   8.365  0.3521  0.0282 -0.1580
  521MOL0     C71774  11.289   8.448   8.277  0.7559 -0.2179  0.1544
  521MOL0     C71775  11.225   8.311   8.247 -0.2476  1.1092 -0.1214
  521MOL0     C71776  11.121   8.314   8.129 -0.6097  0.3200 -0.2715
  521MOL0     N71777  11.059   8.185   8.120  0.0780  0.4036  0.3992
  521MOL0     C71778  10.951   8.152   8.199 -0.1287 -0.0835  0.4147
  521MOL0     C71779  10.933   8.022   8.173  0.4140  0.3733 -0.7591
  521MOL0     C71780  10.824   7.925   8.217  0.2225 -0.7726 -0.7167
  521MOL0     C71781  10.677   7.966   8.169 -0.4769 -0.1191  0.0333
  521MOL0     C71782  10.618   8.070   8.264  0.7979  0.1700 -0.2877
  521MOL0     C71783  10.462   8.082   8.245 -0.6439  0.2326 -0.2984
  521MOL0     O71784  10.395   7.989   8.329 -0.0173 -0.0289 -0.1384
  521MOL0     C71785  10.268   8.006   8.376  0.5423  0.8785  1.0263
  521MOL0     C71786  10.224   7.898   8.459  0.4400 -0.3129 -0.0208
  521MOL0     C71787  10.091   7.898   8.505  1.5582 -0.0513  0.4367
  521MOL0     C71788  10.050   7.786   8.592  0.2502  0.9827 -0.0478
  521MOL0     C71789  10.000   8.000   8.471  0.5368 -0.1766 -0.5513
  521MOL0     C71790   9.866   8.018   8.520 -0.1524  0.9805 -0.0213
  521MOL0     O71791   9.790   7.903   8.514 -0.2017 -0.2404 -0.1208
  521MOL0     C71792   9.655   7.925   8.510  0.5430  0.3365  0.1831
  521MOL0     C71793   9.580   7.874   8.619 -0.6776 -1.2118 -0.3311
  521MOL0     C71794   9.439   7.899   8.625  0.0980  0.1706  0.5716
  521MOL0     C71795   9.374   7.961   8.521 -0.2644 -0.6545  0.0332
  521MOL0     O71796   9.234   7.949   8.526 -0.1955  0.3842  0.3601
  521MOL0     C71797   9.162   8.022   8.428  0.1650  0.1067  0.0761
  521MOL0     C71798   9.134   7.921   8.314  0.2560 -0.1231 -0.5127
  521MOL0     C71799   8.983   7.858   8.318 -0.4414 -0.1140 -0.4707
  521MOL0     C71800   8.954   7.818   8.169  0.3281  0.1633  0.4943
  521MOL0     C71801   8.823   7.742   8.151  0.1089  0.3511  0.2630
  521MOL0     C71802   8.803   7.631   8.256 -0.2118 -0.2314 -0.3107
  521MOL0     C71803   8.690   7.525   8.219 -0.2090  0.6056 -0.2816
  521MOL0     C71804   8.725   7.392   8.277  0.2198  0.2420  0.0987
  521MOL0    Cl71805   8.727   7.390   8.450 -0.0197  0.1297 -0.2021
  521MOL0     C71806   9.452   8.013   8.411 -0.1504  0.7906  0.4531
  521MOL0     C71807   9.591   7.990   8.400 -0.2236 -0.5856 -0.2423
  521MOL0     O71808   9.830   8.133   8.541 -0.2465  0.2497  0.0528
  521MOL0     C71809  10.038   8.101   8.385 -0.7497  0.3270  0.1816
  521MOL0     C71810  10.173   8.103   8.336 -0.0138  1.0400 -0.6687
  521MOL0     N71811  11.024   7.982   8.078 -0.4534 -1.1261 -0.1514
  521MOL0     N71812  11.102   8.077   8.047 -0.0296 -0.2237 -0.1946
  521MOL0     C71813  10.811   8.749   9.017  0.6867 -0.2001  0.4565
  521MOL0     C71814  10.727   8.839   9.081 -0.1502 -0.3438  0.2371
  521MOL0     C71815  10.603   9.177   9.392 -0.6551 -0.1286  0.7222
  521MOL0     C71816  10.467   9.133   9.357  0.3922 -0.0327 -0.2038
  521MOL0     C71817  10.355   9.181   9.430  0.4401 -0.3955 -0.9380
  521MOL0     C71818  10.374   9.279   9.534 -0.3681  0.0057 -1.0619
  521MOL0     O71819  10.277   9.346   9.604 -0.0380  0.5167  0.0114
  521MOL0     C71820  10.165   9.262   9.646 -1.0125 -0.3437 -0.1417
  521MOL0     C71821  10.063   9.351   9.720  0.3923  0.3325  0.6104
  521MOL0     C71822   9.920   9.295   9.704 -0.6292  0.4745 -0.0232
  521MOL0     C71823   9.830   9.374   9.798 -0.2133  0.7580 -0.5450
  521MOL0     C71824   9.705   9.312   9.799 -0.8024  0.1691 -0.2396
  521MOL0     C71825   9.601   9.246   9.803 -0.1266 -0.3399 -0.2052
  521MOL0     C71826  10.503   9.315   9.567 -0.1153  0.4091 -0.1658
  521MOL0     C71827  10.618   9.263   9.502 -0.9310  0.1921  0.2641
  521MOL0     C71828  10.754   9.297   9.553 -0.6229 -0.8921 -0.0034
  521MOL0     H71829  10.956   9.071   9.170 -0.2352 -0.0171 -1.6112
  521MOL0     H71830  11.095   8.919   9.073 -0.7562  1.6321  1.0154
  521MOL0     H71831  11.126   8.768   8.819 -1.1774  1.0221  0.0146
  521MOL0     H71832  10.957   8.730   8.760  2.2435  2.6531 -0.8944
  521MOL0     H71833  11.213   8.564   8.769 -0.4886 -2.1622  0.1549
  521MOL0     H71834  11.054   8.484   8.763  0.9925 -0.0893  1.0668
  521MOL0     H71835  11.005   8.606   8.549  0.5580  1.8955 -0.7254
  521MOL0     H71836  11.149   8.702   8.563 -0.4712  0.9596  0.7725
  521MOL0     H71837  11.285   8.493   8.559 -0.7622  0.0959  1.1244
  521MOL0     H71838  11.142   8.401   8.524  0.2149  0.3108  0.0263
  521MOL0     H71839  11.238   8.642   8.362  2.2010 -0.6290  2.1049
  521MOL0     H71840  11.096   8.544   8.316  0.4081 -0.4822 -0.2926
  521MOL0     H71841  11.322   8.501   8.187  1.2525 -1.7165 -0.5764
  521MOL0     H71842  11.386   8.428   8.324  1.7210 -0.2135 -1.7265
  521MOL0     H71843  11.189   8.282   8.347  0.1636  1.4717  0.1363
  521MOL0     H71844  11.304   8.242   8.216  0.5681  1.5103  0.9688
  521MOL0     H71845  11.053   8.399   8.135  1.3947  2.3018 -3.0045
  521MOL0     H71846  11.178   8.335   8.038 -1.6558  1.1879 -0.7498
  521MOL0     H71847  10.874   8.210   8.250 -0.9027 -0.1665 -0.6217
  521MOL0     H71848  10.823   7.922   8.326  0.8957  0.1248 -0.6692
  521MOL0     H71849  10.857   7.824   8.190  2.2652 -1.1891  2.7470
  521MOL0     H71850  10.683   8.012   8.070  2.0328  0.0211  0.1997
  521MOL0     H71851  10.605   7.883   8.167 -1.3427  0.6260 -1.2007
  521MOL0     H71852  10.633   8.038   8.368 -2.2800 -1.4183 -0.1933
  521MOL0     H71853  10.674   8.162   8.249  2.0264 -0.5038  0.0898
  521MOL0     H71854  10.436   8.185   8.273  2.9046  1.4256 -0.9598
  521MOL0     H71855  10.438   8.076   8.139  0.7207 -0.5010 -0.5868
  521MOL0     H71856  10.291   7.824   8.502  0.8274  0.9954  1.7604
  521MOL0     H71857   9.971   7.730   8.540  0.9763  0.6500 -0.8143
  521MOL0     H71858  10.001   7.823   8.682 -3.3168 -1.7241 -0.6307
  521MOL0     H71859  10.131   7.716   8.613 -0.0706  0.7358  0.3808
  521MOL0     H71860   9.642   7.821   8.690  2.2570 -1.0608 -2.6025
  521MOL0     H71861   9.392   7.862   8.716  1.2675  0.4612  1.3215
  521MOL0     H71862   9.066   8.042   8.477  0.2204  0.0244  0.2174
  521MOL0     H71863   9.211   8.111   8.388  1.5488  0.1452  1.7220
  521MOL0     H71864   9.158   7.977   8.224 -1.7084  3.5405  1.0276
  521MOL0     H71865   9.205   7.838   8.315  1.3442  0.7704 -1.5687
  521MOL0     H71866   8.913   7.934   8.355  0.8670  0.9805 -0.1806
  521MOL0     H71867   8.989   7.778   8.392  0.3531 -0.2348 -0.6644
  521MOL0     H71868   9.022   7.737   8.139  1.0120  1.1247 -0.6123
  521MOL0     H71869   8.955   7.908   8.108  0.4187 -0.7045 -0.8290
  521MOL0     H71870   8.743   7.816   8.159 -1.0071 -0.9570  1.9093
  521MOL0     H71871   8.836   7.704   8.049  1.9066 -0.0020  0.5900
  521MOL0     H71872   8.773   7.682   8.347 -0.6908 -1.2079  0.0868
  521MOL0     H71873   8.899   7.579   8.269  0.2540  0.9575  1.2498
  521MOL0     H71874   8.675   7.513   8.111 -3.4536 -3.6898  0.3871
  521MOL0     H71875   8.592   7.547   8.263 -0.0851 -2.1547  1.5919
  521MOL0     H71876   8.819   7.350   8.240 -0.2206 -1.3580  0.7359
  521MOL0     H71877   8.655   7.315   8.242 -0.2500  0.1751  1.1460
  521MOL0     H71878   9.403   8.070   8.333  1.4577 -0.0890 -1.3000
  521MOL0     H71879   9.651   8.039   8.324 -1.4411  0.6504 -0.4348
  521MOL0     H71880   9.973   8.177   8.343  1.6189  1.4285 -1.7030
  521MOL0     H71881  10.193   8.174   8.256  1.2988  2.7643  1.0861
  521MOL0     H71882  10.773   8.660   8.967  5.2779 -0.3109 -3.4857
  521MOL0     H71883  10.621   8.817   9.091  0.0128 -1.0120  0.6104
  521MOL0     H71884  10.447   9.065   9.275  0.3278 -1.6099  1.0809
  521MOL0     H71885  10.257   9.147   9.398 -1.0955  2.1271  0.7894
  521MOL0     H71886  10.126   9.202   9.563  1.0008  1.1705 -2.3208
  521MOL0     H71887  10.207   9.191   9.718 -1.4393  0.2512  0.7113
  521MOL0     H71888  10.063   9.456   9.691 -1.3522 -0.2569 -1.8165
  521MOL0     H71889  10.080   9.335   9.827  1.3160 -4.9401 -0.0043
  521MOL0     H71890   9.882   9.301   9.602  0.3215  1.0340 -0.3506
  521MOL0     H71891   9.925   9.192   9.740  2.6791  0.2506 -0.8172
  521MOL0     H71892   9.827   9.477   9.761  2.8387  0.3344 -2.3125
  521MOL0     H71893   9.861   9.380   9.903  0.0235  1.2951 -0.6372
  521MOL0     H71894   9.513   9.185   9.802 -0.5295  0.2245 -0.1966
  521MOL0     H71895  10.517   9.388   9.645  2.2668 -0.3080  0.1602
  521MOL0     H71896  10.819   9.209   9.561  0.4099 -0.2117 -0.6648
  521MOL0     H71897  10.799   9.367   9.481 -1.1149 -2.4905 -1.9564
  521MOL0     H71898  10.748   9.341   9.653 -0.0229  2.8937 -1.4472
  522MOL0     O71899   4.690   3.425   3.758 -0.6466 -0.0429 -0.7833
  522MOL0     C71900   4.753   3.536   3.756 -0.7295 -0.1439  0.0170
  522MOL0     O71901   4.888   3.545   3.786  0.2678 -0.3131  0.0370
  522MOL0     C71902   4.950   3.440   3.855 -0.6297  0.3267 -0.1831
  522MOL0     C71903   5.085   3.417   3.835  0.1221  0.5812 -1.0468
  522MOL0     C71904   5.158   3.322   3.905  0.4237 -0.2289 -0.2955
  522MOL0     C71905   5.102   3.233   3.993 -0.8294  0.0885 -0.5943
  522MOL0     O71906   5.173   3.145   4.072 -0.2883 -0.3359  0.2470
  522MOL0     C71907   5.299   3.195   4.124  0.6348  0.2641  0.1767
  522MOL0     C71908   5.338   3.172   4.275  0.0866  0.5066  0.3394
  522MOL0     C71909   5.214   3.196   4.361  0.1607 -0.0116 -0.1117
  522MOL0     C71910   5.245   3.175   4.501 -0.0033 -0.3036 -0.1779
  522MOL0     C71911   5.127   3.194   4.587  0.4498 -0.9651  0.2231
  522MOL0     C71912   5.164   3.198   4.734 -0.0491 -0.2566 -0.4159
  522MOL0     C71913   5.073   3.283   4.833  0.0302  1.0357  0.2614
  522MOL0     C71914   5.062   3.437   4.789 -0.2574 -0.7123 -0.4190
  522MOL0     N71915   5.193   3.510   4.786 -0.1013  0.3558 -0.3630
  522MOL0     C71916   5.262   3.531   4.901 -1.1035 -0.1640 -0.7197
  522MOL0     C71917   5.375   3.589   4.862 -0.0914  0.2322  0.1948
  522MOL0     C71918   5.453   3.649   4.960 -0.4157 -0.4169 -0.4537
  522MOL0     C71919   5.597   3.697   4.920  2.3577  0.9354  0.2348
  522MOL0     C71920   5.675   3.748   5.042 -0.4589 -0.3870 -0.1042
  522MOL0     C71921   5.625   3.888   5.089 -0.4426  0.8243 -0.0156
  522MOL0     O71922   5.713   3.987   5.052 -0.4694 -0.3289  0.4493
  522MOL0     C71923   5.845   3.989   5.101 -0.4012 -0.5209  0.3955
  522MOL0     C71924   5.923   4.086   5.044 -0.1180 -0.1467 -0.1820
  522MOL0     C71925   6.060   4.102   5.081  0.0536  0.1660  0.5541
  522MOL0     C71926   6.127   4.222   5.015  0.2791 -0.1991 -0.5115
  522MOL0     C71927   6.119   4.009   5.175 -0.1157  0.3296 -0.2533
  522MOL0     C71928   6.264   4.025   5.222 -0.4217 -0.5507  0.4469
  522MOL0     O71929   6.302   3.928   5.310 -0.6718 -0.8572  0.2336
  522MOL0     C71930   6.427   3.922   5.352 -0.5594 -0.0201  0.1903
  522MOL0     C71931   6.463   4.016   5.451 -0.1048  0.1540 -1.2826
  522MOL0     C71932   6.591   4.003   5.510  0.7940 -0.1206 -0.7435
  522MOL0     C71933   6.679   3.906   5.467 -0.4352  0.9713  0.3921
  522MOL0     O71934   6.802   3.909   5.533 -0.5319  0.0590 -0.0349
  522MOL0     C71935   6.903   3.812   5.506  0.6433 -0.1608  0.2610
  522MOL0     C71936   6.979   3.861   5.380  0.4545 -0.0027  0.5778
  522MOL0     C71937   7.075   3.747   5.325  0.4976  0.0759 -0.7621
  522MOL0     C71938   7.155   3.790   5.203  0.2034  0.2237 -0.3938
  522MOL0     C71939   7.299   3.821   5.239 -0.5501 -0.1959  0.1824
  522MOL0     C71940   7.370   3.890   5.123  0.1224 -0.7523 -0.7417
  522MOL0     C71941   7.524   3.905   5.128  0.2704 -0.4547  0.0333
  522MOL0     C71942   7.577   4.027   5.051  0.1083 -0.4117 -0.1427
  522MOL0    Cl71943   7.601   3.978   4.885 -0.3410  0.0180 -0.2889
  522MOL0     C71944   6.645   3.815   5.362  0.3537 -0.5453 -0.2989
  522MOL0     C71945   6.518   3.830   5.313 -0.4107 -0.9886  0.6976
  522MOL0     O71946   6.342   4.115   5.180  0.1060  0.6504  0.0754
  522MOL0     C71947   6.034   3.916   5.242 -0.9782 -0.7070 -0.8958
  522MOL0     C71948   5.901   3.908   5.204  0.0040 -0.2399  0.7532
  522MOL0     N71949   5.389   3.581   4.721  0.0306 -0.7971  0.3288
  522MOL0     N71950   5.271   3.536   4.679 -0.4905  0.6503 -0.1499
  522MOL0     C71951   4.968   3.250   4.019  0.2780 -1.2665  0.4521
  522MOL0     C71952   4.887   3.359   3.959 -0.0262 -0.3899  0.2486
  522MOL0     C71953   4.678   3.666   3.730  0.8232  1.4549  0.0572
  522MOL0     C71954   4.556   3.651   3.663  0.3343 -0.2562 -0.6554
  522MOL0     C71955   4.462   3.752   3.655  0.0189 -0.8809  0.0378
  522MOL0     C71956   4.499   3.876   3.710  0.2764 -0.0128 -0.1129
  522MOL0     O71957   4.400   3.975   3.700  0.3006  0.8782 -0.4603
  522MOL0     C71958   4.437   4.111   3.744  0.0216 -1.8529  0.4498
  522MOL0     C71959   4.314   4.211   3.714  0.3572  0.4576  0.3623
  522MOL0     C71960   4.310   4.243   3.564  0.4520  1.2950 -0.0713
  522MOL0     C71961   4.397   4.368   3.536 -0.4900  0.5146  0.1701
  522MOL0     C71962   4.393   4.398   3.391 -0.0119 -0.1463  0.5218
  522MOL0     C71963   4.388   4.411   3.270 -0.2159 -0.0134  0.5691
  522MOL0     C71964   4.615   3.889   3.792  0.3845 -0.0747  0.4383
  522MOL0     C71965   4.704   3.783   3.796  0.9245 -0.3111 -0.7928
  522MOL0     C71966   4.829   3.804   3.881  0.2965  0.0716 -0.5259
  522MOL0     H71967   5.144   3.484   3.774  0.8855  0.9047  0.0137
  522MOL0     H71968   5.264   3.306   3.887  0.8541  1.2018  0.8358
  522MOL0     H71969   5.293   3.304   4.128 -0.4975  0.2348 -0.3701
  522MOL0     H71970   5.382   3.168   4.059  0.3779  1.6881 -0.7983
  522MOL0     H71971   5.385   3.074   4.288  3.2791  1.9462  0.4877
  522MOL0     H71972   5.413   3.244   4.308 -0.5364  0.1626  2.6288
  522MOL0     H71973   5.177   3.298   4.344 -1.3933 -0.4079  0.7722
  522MOL0     H71974   5.127   3.140   4.326 -0.0331  1.3117 -1.9384
  522MOL0     H71975   5.282   3.074   4.522 -0.5577 -0.1143  1.9408
  522MOL0     H71976   5.323   3.248   4.524  0.4242 -0.3031 -1.5545
  522MOL0     H71977   5.054   3.115   4.573 -1.6706  0.6016  1.7615
  522MOL0     H71978   5.078   3.290   4.566  0.6649 -0.3520  2.2706
  522MOL0     H71979   5.181   3.092   4.757  0.1146 -0.3962 -1.1537
  522MOL0     H71980   5.261   3.248   4.738 -0.6439  0.9936 -1.0291
  522MOL0     H71981   5.114   3.276   4.934 -1.6785 -0.7095  0.8868
  522MOL0     H71982   4.972   3.243   4.842  0.7453 -0.6017  1.5506
  522MOL0     H71983   5.009   3.458   4.696 -1.3966  2.7096  0.8436
  522MOL0     H71984   5.002   3.485   4.867  0.1759 -0.2334 -0.3798
  522MOL0     H71985   5.219   3.530   5.001 -0.4629  1.5633 -0.4053
  522MOL0     H71986   5.482   3.580   5.040  2.1351  2.4158  1.2619
  522MOL0     H71987   5.391   3.727   5.005  1.5138  2.0074 -1.7363
  522MOL0     H71988   5.638   3.608   4.873 -1.9535 -0.5183 -1.2501
  522MOL0     H71989   5.585   3.771   4.840 -1.5623  1.2003  0.8493
  522MOL0     H71990   5.676   3.673   5.122  2.2277  1.1457  1.4684
  522MOL0     H71991   5.778   3.747   5.005 -1.0066  0.9445 -1.7653
  522MOL0     H71992   5.532   3.913   5.037  0.6922 -0.8566 -3.1874
  522MOL0     H71993   5.623   3.884   5.198  1.0979  1.9158  0.0909
  522MOL0     H71994   5.878   4.154   4.972 -1.8995  1.0389  1.9200
  522MOL0     H71995   6.052   4.264   4.948 -1.5546 -1.7705  0.4953
  522MOL0     H71996   6.221   4.201   4.962  0.6655  0.0087  0.0790
  522MOL0     H71997   6.148   4.299   5.090  2.8528 -1.8168  0.5685
  522MOL0     H71998   6.386   4.080   5.493 -1.1256 -1.4734 -0.5971
  522MOL0     H71999   6.619   4.070   5.591 -0.6462 -0.8042  0.3671
  522MOL0     H72000   6.973   3.796   5.588  0.3577 -0.2614  0.4899
  522MOL0     H72001   6.856   3.715   5.489  3.0884 -1.1548 -1.1697
  522MOL0     H72002   6.918   3.890   5.294  0.1211  1.4034  1.2692
  522MOL0     H72003   7.033   3.950   5.414  4.8713 -1.3299 -2.0525
  522MOL0     H72004   7.014   3.659   5.303  0.0939 -0.5288  2.2725
  522MOL0     H72005   7.153   3.718   5.397 -0.3417 -0.8079 -0.1865
  522MOL0     H72006   7.109   3.881   5.162 -0.5718 -0.9025 -2.1459
  522MOL0     H72007   7.156   3.708   5.131  0.5686 -0.6314  0.5647
  522MOL0     H72008   7.295   3.884   5.328 -0.7128 -1.2941  0.9737
  522MOL0     H72009   7.352   3.736   5.284 -1.3810  0.1610  1.8956
  522MOL0     H72010   7.333   3.993   5.120 -4.9959 -2.1272  2.5669
  522MOL0     H72011   7.337   3.849   5.027 -0.5595 -1.4107 -0.2379
  522MOL0     H72012   7.566   3.814   5.085 -1.0772 -1.2969  0.4472
  522MOL0     H72013   7.561   3.902   5.231  1.1085  0.6225 -0.2104
  522MOL0     H72014   7.673   4.058   5.092  0.8698 -1.3099 -1.1941
  522MOL0     H72015   7.512   4.115   5.048 -0.6931 -0.9930 -2.3305
  522MOL0     H72016   6.708   3.735   5.326  1.6433  0.3924 -0.1751
  522MOL0     H72017   6.484   3.770   5.230 -0.7291 -1.5694  1.2413
  522MOL0     H72018   6.072   3.854   5.323 -1.9524 -0.9695 -0.6267
  522MOL0     H72019   5.830   3.844   5.255 -1.5649 -0.4732 -1.5799
  522MOL0     H72020   4.916   3.182   4.085 -1.5721 -1.0814 -0.7080
  522MOL0     H72021   4.782   3.363   3.988 -0.9142  0.5527 -2.7510
  522MOL0     H72022   4.530   3.554   3.623  0.2210 -0.1379 -0.8736
  522MOL0     H72023   4.362   3.730   3.619 -0.8139 -1.8854  2.7681
  522MOL0     H72024   4.457   4.106   3.852  2.6646 -0.6436  0.0942
  522MOL0     H72025   4.517   4.158   3.687 -0.7742  0.6415  1.2370
  522MOL0     H72026   4.333   4.306   3.766 -1.4959  1.9954 -1.5926
  522MOL0     H72027   4.222   4.164   3.749  1.7064 -2.4930  0.2964
  522MOL0     H72028   4.344   4.157   3.506  0.8647  1.3626  0.0645
  522MOL0     H72029   4.205   4.272   3.550 -0.4385 -1.6283 -0.1809
  522MOL0     H72030   4.502   4.350   3.558 -0.6896  1.9618  2.6061
  522MOL0     H72031   4.365   4.454   3.596 -1.6031  1.2537 -1.4098
  522MOL0     H72032   4.376   4.411   3.163  0.7428  1.2406  0.4518
  522MOL0     H72033   4.631   3.983   3.843  0.6861 -0.1887  0.5578
  522MOL0     H72034   4.921   3.785   3.823  1.0341 -2.9888  1.3818
  522MOL0     H72035   4.833   3.908   3.913 -0.4218  0.4374 -1.5523
  522MOL0     H72036   4.822   3.747   3.974  2.6493 -1.1003 -0.9757
  523MOL0     O72037   6.943   7.918   7.419 -0.9824  0.7401 -0.7230
  523MOL0     C72038   6.872   7.919   7.322  0.4144  0.7113  0.8363
  523MOL0     O72039   6.874   8.027   7.238 -0.5872  0.4834 -0.5457
  523MOL0     C72040   6.979   8.111   7.245  0.2097  0.2043  0.6439
  523MOL0     C72041   6.944   8.244   7.238 -0.1230  0.2925 -0.6384
  523MOL0     C72042   7.041   8.340   7.237 -0.2806  0.1063  0.5148
  523MOL0     C72043   7.171   8.305   7.249  0.3187  0.1763 -0.4083
  523MOL0     O72044   7.266   8.409   7.260 -0.0943  0.1630  0.0801
  523MOL0     C72045   7.386   8.384   7.344 -1.1342  0.2567 -0.1400
  523MOL0     C72046   7.452   8.520   7.376  0.5627  0.2989  0.1491
  523MOL0     C72047   7.514   8.578   7.255 -0.0736 -0.1755 -0.7601
  523MOL0     C72048   7.624   8.672   7.296 -0.1847 -0.8675 -0.3703
  523MOL0     C72049   7.581   8.782   7.394  0.3011  0.2293  0.2663
  523MOL0     C72050   7.659   8.916   7.407 -0.0924 -0.2838  0.4095
  523MOL0     C72051   7.578   9.033   7.480  0.4702  0.8413  0.1269
  523MOL0     C72052   7.662   9.165   7.470  0.4065 -0.2989 -0.3873
  523MOL0     N72053   7.587   9.283   7.500 -0.2305 -0.0849 -0.5080
  523MOL0     C72054   7.586   9.402   7.439 -0.3725 -0.6119  0.5478
  523MOL0     C72055   7.476   9.474   7.481  0.1291 -0.2361  0.0832
  523MOL0     C72056   7.444   9.624   7.445 -0.3939  0.1714  0.0130
  523MOL0     C72057   7.579   9.705   7.450  0.2355  0.2162 -0.1854
  523MOL0     C72058   7.593   9.808   7.563 -0.5126  0.7628 -0.8347
  523MOL0     C72059   7.698   9.769   7.675  1.4306  0.6072 -0.4448
  523MOL0     O72060   7.686   9.633   7.733 -0.8750 -0.4234 -0.6643
  523MOL0     C72061   7.800   9.582   7.807 -0.1259  1.0111  0.7652
  523MOL0     C72062   7.799   9.449   7.835  0.1373  0.3219 -0.4905
  523MOL0     C72063   7.903   9.385   7.899 -0.3629  0.4060  0.5420
  523MOL0     C72064   7.883   9.244   7.928  0.3445 -0.4790  0.2047
  523MOL0     C72065   8.016   9.457   7.943 -0.3889 -0.7374  0.6169
  523MOL0     C72066   8.142   9.402   8.002  0.2007 -0.1619 -0.2968
  523MOL0     O72067   8.250   9.487   8.007 -0.3547  0.0560 -0.1647
  523MOL0     C72068   8.357   9.482   8.090  0.1378 -0.3351 -0.6731
  523MOL0     C72069   8.459   9.578   8.068 -0.3842 -0.4946  0.3748
  523MOL0     C72070   8.577   9.568   8.139  1.1374  0.4288 -0.2148
  523MOL0     C72071   8.589   9.485   8.254 -0.4262  0.2746 -0.1282
  523MOL0     O72072   8.716   9.477   8.313  0.1247 -0.1263 -0.1789
  523MOL0     C72073   8.750   9.384   8.412  0.1309 -0.6901 -0.2102
  523MOL0     C72074   8.877   9.396   8.502 -0.2678 -0.5057 -0.4625
  523MOL0     C72075   9.011   9.436   8.440  0.3988 -0.7860  0.2515
  523MOL0     C72076   9.098   9.497   8.540 -0.3670 -0.6572  0.2937
  523MOL0     C72077   9.205   9.386   8.591  0.1190 -0.2372  0.2152
  523MOL0     C72078   9.324   9.360   8.485 -0.5256  0.3780  0.0684
  523MOL0     C72079   9.396   9.217   8.513  0.5967 -0.5500 -0.2222
  523MOL0     C72080   9.511   9.189   8.409  0.6646 -0.5116 -0.0008
  523MOL0    Cl72081   9.628   9.328   8.414 -0.2333 -0.1837  0.3146
  523MOL0     C72082   8.493   9.398   8.284  0.0157 -0.6412  0.1221
  523MOL0     C72083   8.374   9.397   8.202  0.9852 -0.6090  0.2324
  523MOL0     O72084   8.139   9.287   8.037  0.1353  0.0853  0.0392
  523MOL0     C72085   8.018   9.600   7.909  0.2488  0.2453 -1.1088
  523MOL0     C72086   7.903   9.658   7.852 -0.4806 -0.1155 -0.0713
  523MOL0     N72087   7.412   9.397   7.568  0.2984 -0.8347 -0.2806
  523MOL0     N72088   7.481   9.292   7.585 -0.2538  0.1128 -0.0011
  523MOL0     C72089   7.209   8.167   7.246  0.0885  0.5633 -0.1122
  523MOL0     C72090   7.112   8.069   7.246  1.0676  0.7648 -0.6584
  523MOL0     C72091   6.748   7.832   7.304 -0.1170 -0.3157 -0.8152
  523MOL0     C72092   6.698   7.813   7.172  0.6605 -0.2452  0.1015
  523MOL0     C72093   6.581   7.735   7.138  0.2688  0.1553  0.9808
  523MOL0     C72094   6.527   7.663   7.245 -0.1849 -0.1027  0.1403
  523MOL0     O72095   6.435   7.570   7.231 -0.5009  0.3814  0.1782
  523MOL0     C72096   6.304   7.612   7.190 -0.1593  0.3654 -0.0399
  523MOL0     C72097   6.230   7.661   7.320  0.5930  0.8984 -0.0156
  523MOL0     C72098   6.087   7.711   7.304 -0.1064 -0.3011 -0.1115
  523MOL0     C72099   5.995   7.618   7.219 -0.0851  0.7406 -0.2312
  523MOL0     C72100   5.861   7.693   7.214  0.8382 -0.4788 -0.3645
  523MOL0     C72101   5.768   7.768   7.192 -0.7780  0.0094 -0.4715
  523MOL0     C72102   6.573   7.684   7.373 -0.4836 -0.3537  0.5556
  523MOL0     C72103   6.686   7.761   7.404  0.1668  0.3409 -0.5156
  523MOL0     C72104   6.729   7.757   7.546 -0.4126  0.5181 -0.3521
  523MOL0     H72105   6.839   8.270   7.227 -0.4096 -1.1152 -1.5747
  523MOL0     H72106   7.000   8.438   7.214  0.0498  0.2127  0.3726
  523MOL0     H72107   7.452   8.313   7.294 -0.1209  1.4407 -0.5541
  523MOL0     H72108   7.358   8.341   7.440  0.5632  1.3047  0.8767
  523MOL0     H72109   7.372   8.588   7.407 -0.3236  0.6551 -2.6377
  523MOL0     H72110   7.520   8.515   7.461 -0.9701 -0.0941  1.3947
  523MOL0     H72111   7.550   8.508   7.179  1.6017  0.0084 -0.1882
  523MOL0     H72112   7.437   8.635   7.204 -1.2531 -0.6617  0.4093
  523MOL0     H72113   7.715   8.622   7.331  0.2094 -0.1217 -0.3221
  523MOL0     H72114   7.650   8.728   7.206 -0.0612 -0.2243  0.0606
  523MOL0     H72115   7.570   8.738   7.494 -1.6983  0.8093  0.3485
  523MOL0     H72116   7.482   8.805   7.353  0.8771 -2.8866 -3.5026
  523MOL0     H72117   7.754   8.898   7.459  0.3725 -2.1830 -0.9968
  523MOL0     H72118   7.699   8.932   7.307  1.8276 -1.8781  0.8476
  523MOL0     H72119   7.573   9.011   7.587 -0.7276 -2.3708 -0.4663
  523MOL0     H72120   7.477   9.046   7.438  0.2724 -1.6953 -0.3117
  523MOL0     H72121   7.752   9.168   7.532 -0.4588  1.1955  0.8623
  523MOL0     H72122   7.683   9.170   7.363  2.8246  2.7322  0.0924
  523MOL0     H72123   7.654   9.432   7.360 -1.0301 -2.5083 -0.7938
  523MOL0     H72124   7.373   9.649   7.524  1.0457  2.1538  0.7572
  523MOL0     H72125   7.397   9.640   7.348  0.3355 -0.3881 -0.4485
  523MOL0     H72126   7.665   9.638   7.457  0.1659  0.1098 -0.3453
  523MOL0     H72127   7.592   9.760   7.357  1.3362  0.2065 -0.0431
  523MOL0     H72128   7.627   9.902   7.517 -0.8725  1.7129  0.7504
  523MOL0     H72129   7.496   9.827   7.611 -0.5814 -0.5695 -0.4133
  523MOL0     H72130   7.800   9.785   7.641  1.4256  0.5432 -0.4895
  523MOL0     H72131   7.684   9.840   7.757 -3.0292 -0.7790  0.2471
  523MOL0     H72132   7.704   9.401   7.812 -0.7819  1.2913  1.0723
  523MOL0     H72133   7.961   9.184   7.880 -1.3063 -2.7314  0.1775
  523MOL0     H72134   7.788   9.205   7.892  1.1451 -1.4790 -0.9360
  523MOL0     H72135   7.878   9.228   8.036 -0.9679  4.1847  1.0238
  523MOL0     H72136   8.458   9.652   7.988  1.3169  0.3095  1.0460
  523MOL0     H72137   8.670   9.618   8.115  1.2124 -0.1165 -1.1158
  523MOL0     H72138   8.668   9.376   8.484  0.8352  0.6765  0.7894
  523MOL0     H72139   8.755   9.291   8.355  1.0766 -0.5890 -0.3087
  523MOL0     H72140   8.842   9.474   8.571  0.5756 -1.8838  1.6432
  523MOL0     H72141   8.878   9.300   8.555  0.2110 -1.2438 -1.7598
  523MOL0     H72142   8.994   9.521   8.373  2.6676  0.4690  1.1815
  523MOL0     H72143   9.049   9.352   8.381  4.6119  1.0940 -0.0612
  523MOL0     H72144   9.040   9.532   8.626 -0.7921 -1.8822  0.5238
  523MOL0     H72145   9.162   9.578   8.502 -0.4660 -0.5026  0.4574
  523MOL0     H72146   9.249   9.431   8.680 -1.2632  0.9543  0.3279
  523MOL0     H72147   9.167   9.291   8.628 -1.1369  0.8179  1.7692
  523MOL0     H72148   9.396   9.443   8.488  0.2453 -0.2721  0.0017
  523MOL0     H72149   9.290   9.341   8.383  0.2307 -1.6687  0.1651
  523MOL0     H72150   9.327   9.134   8.531 -2.4955  1.7218 -0.7915
  523MOL0     H72151   9.435   9.228   8.615 -0.4060 -1.9055  0.3376
  523MOL0     H72152   9.464   9.178   8.311 -1.5720 -0.5068  1.0046
  523MOL0     H72153   9.563   9.096   8.436 -1.8643 -1.8908  0.4196
  523MOL0     H72154   8.495   9.333   8.371 -0.4015  1.1214  1.5030
  523MOL0     H72155   8.296   9.326   8.230  0.0141 -0.2191 -1.4059
  523MOL0     H72156   8.103   9.659   7.940 -0.2467 -0.3113  1.5691
  523MOL0     H72157   7.901   9.766   7.845 -0.5712 -0.1386 -0.4517
  523MOL0     H72158   7.312   8.134   7.237 -0.0524  0.0454  0.1388
  523MOL0     H72159   7.143   7.966   7.237 -0.7732  0.0565  0.6061
  523MOL0     H72160   6.744   7.866   7.089 -1.0804 -1.4312 -1.7369
  523MOL0     H72161   6.558   7.722   7.032  1.8365  1.8803  0.3736
  523MOL0     H72162   6.314   7.694   7.118 -1.4112 -1.8967 -3.0203
  523MOL0     H72163   6.250   7.525   7.151  1.0111 -0.2365 -0.3946
  523MOL0     H72164   6.291   7.737   7.371  1.2679  0.7259 -0.5452
  523MOL0     H72165   6.214   7.581   7.393  5.7706  0.3896  0.9774
  523MOL0     H72166   6.036   7.722   7.400  0.4820 -1.7300  0.3803
  523MOL0     H72167   6.099   7.808   7.255 -2.4106 -0.0227 -0.2460
  523MOL0     H72168   5.999   7.519   7.264 -0.3239  1.3125  1.1058
  523MOL0     H72169   6.045   7.612   7.122  0.4317  0.9216  0.0188
  523MOL0     H72170   5.679   7.824   7.174 -0.7543  0.5642  1.0021
  523MOL0     H72171   6.517   7.638   7.454 -2.6428  0.0321 -0.6516
  523MOL0     H72172   6.813   7.690   7.561 -0.8717  0.1824  0.7954
  523MOL0     H72173   6.756   7.850   7.597  0.6831 -0.0693  0.1476
  523MOL0     H72174   6.650   7.724   7.614  0.8546  1.3459  1.6082
  524MOL0     O72175   0.981   9.776   7.789 -0.5721  0.3818 -0.0977
  524MOL0     C72176   1.099   9.786   7.760  1.2875  0.0986 -1.1711
  524MOL0     O72177   1.194   9.734   7.830  0.0119 -0.7674  0.7294
  524MOL0     C72178   1.159   9.684   7.951  0.0471  0.6871 -0.0510
  524MOL0     C72179   1.170   9.761   8.065  0.4620 -0.2100 -0.0690
  524MOL0     C72180   1.147   9.703   8.189  0.3876 -0.7829  0.3154
  524MOL0     C72181   1.100   9.568   8.194 -0.0518 -0.0454 -0.2756
  524MOL0     O72182   1.066   9.514   8.316 -0.8617 -0.3767  0.0446
  524MOL0     C72183   0.984   9.592   8.401  0.7415 -0.1441  0.3863
  524MOL0     C72184   0.846   9.576   8.345 -0.6519  0.1250  0.4770
  524MOL0     C72185   0.803   9.663   8.236  0.3809 -0.6603  0.1272
  524MOL0     C72186   0.655   9.684   8.212 -0.1678 -0.0292 -0.3530
  524MOL0     C72187   0.619   9.784   8.099 -0.8717 -0.2146 -0.9115
  524MOL0     C72188   0.686   9.749   7.966 -0.5172  0.5501 -1.3633
  524MOL0     C72189   0.602   9.803   7.842  0.0824 -0.4076  0.2210
  524MOL0     C72190   0.605   9.960   7.833 -0.1387  0.5684 -0.1490
  524MOL0     N72191   0.490   9.998   7.749  0.0717  0.0099  0.6217
  524MOL0     C72192   0.501   9.981   7.615  0.0674 -0.4127  0.1321
  524MOL0     C72193   0.429  10.082   7.556  0.4429  0.4371  0.0187
  524MOL0     C72194   0.413  10.116   7.403 -0.9653 -0.7812 -0.0798
  524MOL0     C72195   0.523  10.204   7.342  0.0270  0.0503 -0.4964
  524MOL0     C72196   0.645  10.124   7.301 -0.3168  0.4007  0.1310
  524MOL0     C72197   0.779  10.201   7.320  0.0962 -0.3891  0.2367
  524MOL0     O72198   0.774  10.332   7.275  0.3734 -0.4304 -1.0137
  524MOL0     C72199   0.898  10.393   7.260 -0.8674  0.5773 -0.4546
  524MOL0     C72200   0.973  10.375   7.144 -0.1784 -0.3113  0.1759
  524MOL0     C72201   1.080  10.465   7.115 -0.4907  0.5049  0.4635
  524MOL0     C72202   1.145  10.456   6.976 -0.4501 -0.4417  0.4562
  524MOL0     C72203   1.135  10.555   7.207  0.5362 -0.4533 -0.8067
  524MOL0     C72204   1.272  10.628   7.201 -0.2788 -0.3006 -0.7371
  524MOL0     O72205   1.294  10.716   7.305 -1.1708  0.1977 -0.2123
  524MOL0     C72206   1.391  10.821   7.285  0.0660  0.4672 -0.4317
  524MOL0     C72207   1.470  10.868   7.387  0.0767 -0.0458 -0.4961
  524MOL0     C72208   1.561  10.981   7.372  0.2210 -0.0114  0.5274
  524MOL0     C72209   1.577  11.041   7.244 -0.4905 -0.1660  0.0121
  524MOL0     O72210   1.655  11.150   7.225 -0.0524 -0.1976  0.1991
  524MOL0     C72211   1.754  11.189   7.319 -0.6714  0.3517  0.1091
  524MOL0     C72212   1.868  11.268   7.250 -1.0123  0.1094  0.4457
  524MOL0     C72213   1.964  11.349   7.348  0.6119  0.5593 -0.1445
  524MOL0     C72214   2.089  11.393   7.270  0.3890 -0.3422  0.2535
  524MOL0     C72215   2.193  11.462   7.358  0.5834 -0.2968  0.4884
  524MOL0     C72216   2.317  11.507   7.284 -0.2896  0.0645  0.3266
  524MOL0     C72217   2.307  11.624   7.188 -1.1832  0.0618  0.2978
  524MOL0     C72218   2.305  11.767   7.253  0.2143 -0.8222  0.3120
  524MOL0    Cl72219   2.459  11.820   7.306  0.2619  0.3613  0.3530
  524MOL0     C72220   1.499  10.991   7.138 -0.3642  1.0006  0.0923
  524MOL0     C72221   1.417  10.881   7.159  0.3698  0.0193 -0.3609
  524MOL0     O72222   1.344  10.600   7.099  0.5047 -0.0155  0.4440
  524MOL0     C72223   1.057  10.563   7.322 -0.2636 -0.1770  0.4134
  524MOL0     C72224   0.939  10.498   7.344 -0.1120  0.6275 -0.7717
  524MOL0     N72225   0.370  10.154   7.661 -0.3215 -0.3342 -0.0612
  524MOL0     N72226   0.407  10.104   7.772  0.4171 -0.3322 -0.2136
  524MOL0     C72227   1.088   9.487   8.079 -0.4357 -0.4240  0.2064
  524MOL0     C72228   1.129   9.545   7.960 -1.0535  0.5886 -0.6687
  524MOL0     C72229   1.149   9.854   7.638 -0.6493  0.2877 -0.2629
  524MOL0     C72230   1.285   9.865   7.616  0.0218 -0.2182 -0.9532
  524MOL0     C72231   1.343   9.933   7.519  0.1050 -0.1801  0.1143
  524MOL0     C72232   1.267   9.985   7.418 -0.7844  0.7061 -0.0272
  524MOL0     O72233   1.348  10.047   7.317  0.1491  0.9049  0.4140
  524MOL0     C72234   1.278  10.120   7.223  0.2901 -0.7998  0.6090
  524MOL0     C72235   1.378  10.170   7.118 -0.4831  0.1615  0.6240
  524MOL0     C72236   1.492  10.250   7.171 -0.1447 -0.1452 -0.3093
  524MOL0     C72237   1.567  10.329   7.056  0.1822 -0.2645 -0.8072
  524MOL0     C72238   1.592  10.272   6.923  0.0428 -0.2027 -0.2759
  524MOL0     C72239   1.607  10.230   6.811  0.7814 -0.0501 -0.0243
  524MOL0     C72240   1.129   9.975   7.430 -0.0421  0.6212  0.2360
  524MOL0     C72241   1.069   9.910   7.539  0.7514  0.5820  0.7867
  524MOL0     C72242   0.908   9.898   7.537  0.0062  0.3426  0.7265
  524MOL0     H72243   1.200   9.865   8.056  4.8615 -0.8258  3.8368
  524MOL0     H72244   1.167   9.764   8.276  0.8738 -1.8276  0.9425
  524MOL0     H72245   1.026   9.693   8.401  2.1976 -0.7223  0.8045
  524MOL0     H72246   0.991   9.551   8.502  1.1588 -2.6231 -0.5887
  524MOL0     H72247   0.836   9.470   8.320  0.6893 -0.3610  1.8551
  524MOL0     H72248   0.770   9.588   8.423 -0.3175 -2.9581  1.4404
  524MOL0     H72249   0.837   9.762   8.268 -0.5997 -0.8405  1.8720
  524MOL0     H72250   0.858   9.631   8.147  0.0325  0.2058 -0.4048
  524MOL0     H72251   0.616   9.585   8.186 -2.4571  0.4649  0.8626
  524MOL0     H72252   0.604   9.716   8.304 -0.6880  3.6650 -1.7623
  524MOL0     H72253   0.666   9.876   8.134  0.5649 -1.5442  0.8334
  524MOL0     H72254   0.511   9.800   8.086 -1.0541 -1.8970 -1.8693
  524MOL0     H72255   0.790   9.783   7.968  1.4716 -4.3230  3.2367
  524MOL0     H72256   0.688   9.640   7.962 -4.0915  0.2594  0.6844
  524MOL0     H72257   0.499   9.767   7.848  0.2200 -0.6975  0.9393
  524MOL0     H72258   0.643   9.773   7.745 -0.7638 -0.9716  0.0286
  524MOL0     H72259   0.574  10.001   7.929  0.9552  0.5804  0.2190
  524MOL0     H72260   0.701   9.996   7.794 -0.2890  0.3210 -0.7673
  524MOL0     H72261   0.561   9.911   7.558  2.5336  1.7161 -0.0481
  524MOL0     H72262   0.319  10.168   7.384  0.6300  1.5672 -2.1821
  524MOL0     H72263   0.414  10.027   7.340 -1.3843 -1.1658  0.4477
  524MOL0     H72264   0.485  10.259   7.255  0.2517 -2.5935 -2.3802
  524MOL0     H72265   0.541  10.285   7.414 -4.8558  1.2020 -0.2402
  524MOL0     H72266   0.646  10.036   7.366 -0.7465 -0.5180 -1.0621
  524MOL0     H72267   0.631  10.096   7.196  0.7640  1.6303 -0.3669
  524MOL0     H72268   0.801  10.207   7.427 -3.6691 -0.7493  1.1956
  524MOL0     H72269   0.864  10.148   7.276  1.5644  1.4922  0.6468
  524MOL0     H72270   0.940  10.309   7.064  5.2783 -1.6755 -1.3810
  524MOL0     H72271   1.069  10.412   6.911 -0.2814 -0.6454  0.3947
  524MOL0     H72272   1.238  10.398   6.972 -0.3544 -0.2870  0.4035
  524MOL0     H72273   1.175  10.552   6.933  2.0891 -0.3891  2.0992
  524MOL0     H72274   1.461  10.829   7.488  0.4748  1.2120  0.0490
  524MOL0     H72275   1.604  11.029   7.459  0.0411 -0.4539  0.8604
  524MOL0     H72276   1.709  11.264   7.385  1.4716 -0.7777  3.0322
  524MOL0     H72277   1.796  11.109   7.380 -1.8084 -1.3962 -1.3153
  524MOL0     H72278   1.936  11.198   7.199 -2.5717  0.2259 -1.9770
  524MOL0     H72279   1.826  11.332   7.172  0.4278  0.6136  0.0500
  524MOL0     H72280   1.982  11.290   7.438  0.5884  0.2853 -0.3184
  524MOL0     H72281   1.907  11.434   7.385 -0.3460  0.0839 -0.4967
  524MOL0     H72282   2.058  11.470   7.199 -0.3944 -1.3767 -0.5633
  524MOL0     H72283   2.139  11.315   7.213  2.3623 -0.6664  2.3232
  524MOL0     H72284   2.152  11.549   7.409  0.3724  1.2301 -2.1225
  524MOL0     H72285   2.221  11.389   7.435 -0.4058 -1.4508 -0.2040
  524MOL0     H72286   2.376  11.431   7.233  0.5438  0.8004  0.1761
  524MOL0     H72287   2.374  11.541   7.372 -1.1876  0.2577  0.8525
  524MOL0     H72288   2.209  11.611   7.143  0.2207 -0.6480 -2.8617
  524MOL0     H72289   2.392  11.613   7.119 -1.1462 -4.5705  0.7716
  524MOL0     H72290   2.236  11.777   7.337 -2.0736  1.9013 -1.6549
  524MOL0     H72291   2.272  11.838   7.176  1.9420  0.8040  0.9958
  524MOL0     H72292   1.508  11.045   7.045  1.9483  1.3990  0.4752
  524MOL0     H72293   1.351  10.844   7.081  0.2269  0.9047 -0.6735
  524MOL0     H72294   1.099  10.623   7.403  1.2198  1.5085 -1.5075
  524MOL0     H72295   0.879  10.514   7.433 -1.0670 -0.8752 -1.1074
  524MOL0     H72296   1.059   9.383   8.085 -1.0299 -0.3147 -0.7287
  524MOL0     H72297   1.132   9.486   7.869 -1.8789  0.4764 -0.6257
  524MOL0     H72298   1.352   9.808   7.679 -3.2018 -2.7928  0.4625
  524MOL0     H72299   1.451   9.938   7.507  0.1754 -2.2446 -0.4155
  524MOL0     H72300   1.200  10.067   7.168 -0.9010 -0.2343  1.6824
  524MOL0     H72301   1.230  10.199   7.282  0.7803 -0.6438  0.8101
  524MOL0     H72302   1.322  10.226   7.044  0.1454 -0.8643 -0.6712
  524MOL0     H72303   1.423  10.084   7.067  1.1378  1.2018  0.2183
  524MOL0     H72304   1.454  10.323   7.243  3.3047 -1.8060  3.5603
  524MOL0     H72305   1.563  10.183   7.220 -1.8039  0.8740  3.9014
  524MOL0     H72306   1.662  10.372   7.089  1.2220 -1.4121 -2.1887
  524MOL0     H72307   1.499  10.414   7.049  0.0108 -0.0115  2.3241
  524MOL0     H72308   1.618  10.204   6.708  0.6890 -3.8162  0.7461
  524MOL0     H72309   1.072  10.023   7.351  2.6713  2.0265 -1.0261
  524MOL0     H72310   0.860   9.801   7.526 -0.5571  0.6207  0.6875
  524MOL0     H72311   0.863   9.947   7.624 -1.0180  1.9021 -0.6104
  524MOL0     H72312   0.875   9.955   7.449 -0.7721  1.5821  1.7850
  525MOL0     O72313  11.446   2.750   4.128  0.8016  0.5276  0.2995
  525MOL0     C72314  11.355   2.820   4.078  0.6392  0.3412  0.1525
  525MOL0     O72315  11.360   2.953   4.056 -0.3675  0.7524  0.3241
  525MOL0     C72316  11.488   3.012   4.084  0.2111 -0.7610  0.0678
  525MOL0     C72317  11.516   3.045   4.216  0.5390  0.6897  0.0266
  525MOL0     C72318  11.636   3.103   4.255 -0.7716  0.1759 -0.1273
  525MOL0     C72319  11.730   3.153   4.163 -0.1439 -0.8044 -0.1925
  525MOL0     O72320  11.843   3.217   4.209 -0.5544 -0.0112  0.0881
  525MOL0     C72321  11.827   3.361   4.206 -0.0703 -0.8920  0.0939
  525MOL0     C72322  11.880   3.418   4.334 -0.6312  0.2605 -0.1233
  525MOL0     C72323  11.797   3.364   4.447  0.2633  0.1624 -0.8944
  525MOL0     C72324  11.835   3.427   4.584 -0.3721 -0.4800  0.2899
  525MOL0     C72325  11.779   3.346   4.701  0.8091  0.4645  0.2720
  525MOL0     C72326  11.631   3.341   4.695  0.2116 -0.4766  0.1830
  525MOL0     C72327  11.566   3.269   4.807 -0.1129 -0.4337  0.0773
  525MOL0     C72328  11.416   3.289   4.823 -0.4934 -0.2406  0.8863
  525MOL0     N72329  11.336   3.284   4.702  0.3165  0.6671  0.4917
  525MOL0     C72330  11.308   3.171   4.632  0.5518  0.0384  0.6849
  525MOL0     C72331  11.237   3.221   4.524  0.8110 -0.1367  0.0318
  525MOL0     C72332  11.170   3.148   4.405 -1.6471  0.5745  0.2352
  525MOL0     C72333  11.038   3.060   4.449 -0.1911 -0.3579  0.3074
  525MOL0     C72334  10.958   2.993   4.334  0.2486 -0.1353 -0.8998
  525MOL0     C72335  10.813   2.980   4.375  0.0755  0.1527 -0.1439
  525MOL0     O72336  10.799   2.906   4.497 -0.1899 -0.8883 -0.0346
  525MOL0     C72337  10.682   2.918   4.569  0.6093  1.1093 -0.6677
  525MOL0     C72338  10.668   2.835   4.684 -0.1466 -0.3695 -0.1477
  525MOL0     C72339  10.544   2.819   4.751 -0.8724  0.3122  0.5611
  525MOL0     C72340  10.547   2.708   4.847 -0.5884  0.0122  0.6539
  525MOL0     C72341  10.427   2.898   4.713  0.4798  0.6506 -0.0263
  525MOL0     C72342  10.294   2.882   4.762  0.2386 -0.1623  0.9500
  525MOL0     O72343  10.188   2.942   4.692  0.2894 -0.1471  0.1078
  525MOL0     C72344  10.053   2.922   4.710  0.8173  0.2717 -0.6633
  525MOL0     C72345   9.961   2.946   4.609  0.5919  0.6124 -0.8892
  525MOL0     C72346   9.823   2.940   4.624  0.6155  0.0511 -0.6700
  525MOL0     C72347   9.763   2.900   4.740 -0.2108  0.8778  0.6885
  525MOL0     O72348   9.629   2.886   4.740  0.4981 -0.0569 -0.1636
  525MOL0     C72349   9.562   2.919   4.865  0.4151  0.1515  0.1188
  525MOL0     C72350   9.414   2.894   4.840 -0.8377  0.0059  0.7581
  525MOL0     C72351   9.378   2.745   4.869 -0.0337  0.3386  0.1857
  525MOL0     C72352   9.225   2.743   4.846  0.1697 -0.9682 -0.0565
  525MOL0     C72353   9.148   2.613   4.893  0.2806 -0.5009  0.1276
  525MOL0     C72354   8.991   2.642   4.884  0.2839 -0.0768 -0.2681
  525MOL0     C72355   8.915   2.518   4.937  0.4699  0.5859  0.2385
  525MOL0     C72356   8.765   2.543   4.934  0.4050  0.4713  0.6460
  525MOL0    Cl72357   8.697   2.392   4.991 -0.1567  0.1231  0.0296
  525MOL0     C72358   9.852   2.877   4.849  0.3602 -0.6901 -0.5073
  525MOL0     C72359   9.992   2.883   4.833 -0.4150 -0.0800 -0.2177
  525MOL0     O72360  10.280   2.811   4.859 -0.3678  0.4006 -0.1480
  525MOL0     C72361  10.441   2.990   4.607 -0.3055  0.4071 -0.1439
  525MOL0     C72362  10.571   3.002   4.531 -0.2470 -0.1593 -1.2622
  525MOL0     N72363  11.228   3.354   4.535  0.7752 -0.0419  0.5247
  525MOL0     N72364  11.274   3.389   4.648 -0.6203 -0.1092  0.0270
  525MOL0     C72365  11.697   3.136   4.035  0.6670  0.1493 -0.0646
  525MOL0     C72366  11.576   3.070   3.997 -1.2572  0.4124  0.4042
  525MOL0     C72367  11.215   2.760   4.063 -0.2912 -0.2968  0.3999
  525MOL0     C72368  11.111   2.852   4.045  0.4340  0.3355  0.1129
  525MOL0     C72369  10.981   2.806   4.047  0.2259  0.3702 -0.3462
  525MOL0     C72370  10.948   2.669   4.055  0.1316  0.2629 -0.0506
  525MOL0     O72371  10.826   2.622   4.032 -0.1331  0.0387  0.3293
  525MOL0     C72372  10.743   2.622   4.150 -0.0547 -0.3892 -0.1281
  525MOL0     C72373  10.603   2.675   4.109  0.8969 -0.2034 -1.2702
  525MOL0     C72374  10.495   2.632   4.211  0.4570 -0.6680 -0.6342
  525MOL0     C72375  10.364   2.717   4.207 -0.1799 -0.0861  0.4888
  525MOL0     C72376  10.321   2.746   4.070 -0.7529  0.6172  0.8679
  525MOL0     C72377  10.272   2.775   3.955 -0.2977  0.0300 -0.1341
  525MOL0     C72378  11.046   2.585   4.095 -0.0865 -0.3169 -0.5750
  525MOL0     C72379  11.183   2.622   4.087  0.7411 -0.1591 -0.1883
  525MOL0     C72380  11.282   2.512   4.115  0.1577 -0.3244 -0.8192
  525MOL0     H72381  11.447   3.003   4.289  0.4350  0.1247 -0.3880
  525MOL0     H72382  11.651   3.109   4.363  0.6432  0.2076 -0.3031
  525MOL0     H72383  11.721   3.390   4.211  0.4486  0.8247  2.7339
  525MOL0     H72384  11.874   3.395   4.113  2.4438  1.8334  2.1927
  525MOL0     H72385  11.980   3.374   4.339 -2.0150 -3.0498  2.4771
  525MOL0     H72386  11.869   3.527   4.325 -0.8194  0.1122 -2.2918
  525MOL0     H72387  11.692   3.392   4.435  0.0063  0.6853  1.8189
  525MOL0     H72388  11.809   3.255   4.450  1.5105  0.2945 -0.3957
  525MOL0     H72389  11.943   3.429   4.599 -0.3871  1.5640  0.4900
  525MOL0     H72390  11.792   3.528   4.579 -0.6075 -0.6180 -0.7074
  525MOL0     H72391  11.798   3.406   4.790 -1.9070  2.0071 -0.0632
  525MOL0     H72392  11.818   3.245   4.716  0.2571  0.3671  1.1357
  525MOL0     H72393  11.610   3.447   4.712  2.3467  0.1424 -0.7292
  525MOL0     H72394  11.581   3.300   4.607 -2.0389 -3.7767  2.7554
  525MOL0     H72395  11.607   3.292   4.906 -0.5048  0.1668  0.0996
  525MOL0     H72396  11.590   3.164   4.784  0.0007 -0.2336 -0.7421
  525MOL0     H72397  11.379   3.207   4.886 -2.9344  0.6557  0.7293
  525MOL0     H72398  11.392   3.377   4.883 -1.3719  0.1707 -0.0464
  525MOL0     H72399  11.331   3.066   4.650  1.6540 -0.3764 -2.4925
  525MOL0     H72400  11.248   3.085   4.362  0.6161  3.1524  0.2850
  525MOL0     H72401  11.143   3.223   4.330  1.1517  1.3627 -0.1093
  525MOL0     H72402  11.071   2.980   4.516 -0.1042  0.1000  0.8137
  525MOL0     H72403  10.964   3.126   4.495 -1.8427  0.2369 -2.8857
  525MOL0     H72404  10.958   3.063   4.250 -1.0048  3.8922  2.1216
  525MOL0     H72405  11.003   2.894   4.325  0.2233 -0.4325  1.4842
  525MOL0     H72406  10.771   3.081   4.378  0.0266  0.1861  3.8495
  525MOL0     H72407  10.758   2.918   4.304  1.8800 -2.2182  0.3828
  525MOL0     H72408  10.757   2.783   4.718 -0.6383 -2.5705 -1.9333
  525MOL0     H72409  10.618   2.631   4.818 -1.6095 -2.2607  3.6394
  525MOL0     H72410  10.455   2.650   4.861  0.4874 -1.5511  1.6282
  525MOL0     H72411  10.590   2.736   4.944 -1.0979  2.5080  0.2389
  525MOL0     H72412  10.002   2.990   4.519  1.9361  0.8690 -0.1727
  525MOL0     H72413   9.755   2.959   4.542 -0.2457  2.2788  0.4687
  525MOL0     H72414   9.595   2.861   4.951  0.1856 -0.1044  0.0360
  525MOL0     H72415   9.590   3.022   4.890  0.4980  0.7968 -2.3867
  525MOL0     H72416   9.374   2.965   4.913 -1.1676  0.5183  0.0939
  525MOL0     H72417   9.388   2.923   4.737  0.1097  0.4145  0.6207
  525MOL0     H72418   9.397   2.714   4.973 -3.0998 -0.5889  0.5658
  525MOL0     H72419   9.427   2.669   4.808  2.1654  0.5651  1.5343
  525MOL0     H72420   9.192   2.766   4.745  0.4923  0.5569  0.1645
  525MOL0     H72421   9.187   2.821   4.913 -1.3366 -1.3228 -0.4417
  525MOL0     H72422   9.182   2.534   4.826  2.1061  1.6404 -1.6123
  525MOL0     H72423   9.188   2.584   4.990  1.4681  0.0297 -0.1854
  525MOL0     H72424   8.966   2.665   4.780  2.3311 -0.2319 -0.8517
  525MOL0     H72425   8.977   2.730   4.947  2.9463 -1.2864  2.2421
  525MOL0     H72426   8.956   2.488   5.034  0.4671 -1.7974 -0.4385
  525MOL0     H72427   8.941   2.437   4.869 -2.6362  1.0139 -1.6424
  525MOL0     H72428   8.733   2.569   4.833  1.1037 -2.7728 -0.5040
  525MOL0     H72429   8.738   2.629   4.997  1.8107 -0.3504  2.4558
  525MOL0     H72430   9.814   2.853   4.947  2.7090  1.0514  0.9255
  525MOL0     H72431  10.056   2.864   4.919  0.3471  0.8000 -0.5671
  525MOL0     H72432  10.358   3.048   4.567 -1.4260 -1.8052 -1.1904
  525MOL0     H72433  10.588   3.073   4.451 -1.1029  1.5656  0.0125
  525MOL0     H72434  11.766   3.174   3.960  0.5927  2.1284  0.8090
  525MOL0     H72435  11.556   3.046   3.893  1.5942  0.4156 -0.2111
  525MOL0     H72436  11.132   2.957   4.026  3.6030 -0.6320 -2.7221
  525MOL0     H72437  10.903   2.879   4.029 -0.3036 -0.3855 -1.1787
  525MOL0     H72438  10.738   2.520   4.190  0.8860 -1.5049 -2.5833
  525MOL0     H72439  10.781   2.678   4.235  1.8711 -1.3853 -0.2601
  525MOL0     H72440  10.582   2.622   4.015 -0.9000  0.0827 -1.0722
  525MOL0     H72441  10.594   2.780   4.079 -1.2314 -0.2433 -0.9744
  525MOL0     H72442  10.477   2.525   4.219 -0.3231 -0.4803  0.2135
  525MOL0     H72443  10.545   2.658   4.304 -1.4421  0.6683  0.0620
  525MOL0     H72444  10.376   2.814   4.256  2.9428  1.2250 -2.4747
  525MOL0     H72445  10.283   2.665   4.259  0.5866 -1.9728 -0.1171
  525MOL0     H72446  10.252   2.800   3.853  0.0741 -2.9528 -1.0312
  525MOL0     H72447  11.034   2.478   4.111 -2.2279  0.0511  0.6284
  525MOL0     H72448  11.301   2.456   4.023  0.6790  0.0461 -0.9455
  525MOL0     H72449  11.377   2.544   4.161 -1.8735  5.2128  0.3333
  525MOL0     H72450  11.229   2.442   4.179  1.6331 -1.6667 -1.0136
  526MOL0     O72451   5.838   6.773   1.102 -0.2801 -0.2010  0.2853
  526MOL0     C72452   5.783   6.811   1.000 -0.2584  0.8094  0.2481
  526MOL0     O72453   5.838   6.881   0.897 -0.2385  0.9800  0.3246
  526MOL0     C72454   5.956   6.844   0.842  0.8890  0.0242 -0.3746
  526MOL0     C72455   5.981   6.894   0.717 -0.2954 -0.1519 -1.6620
  526MOL0     C72456   6.099   6.864   0.640 -0.3753  0.2607 -0.5688
  526MOL0     C72457   6.186   6.768   0.695 -0.7506  0.2146  0.1844
  526MOL0     O72458   6.288   6.707   0.629  0.1546  0.1656 -0.2065
  526MOL0     C72459   6.358   6.794   0.541  0.4769 -0.0780 -1.0430
  526MOL0     C72460   6.508   6.748   0.525 -0.9094  0.3867  0.5681
  526MOL0     C72461   6.527   6.616   0.457 -0.3109  0.2831 -0.0399
  526MOL0     C72462   6.473   6.618   0.311  0.0189  0.7916 -0.1659
  526MOL0     C72463   6.463   6.475   0.259 -0.1883  0.4912  0.0245
  526MOL0     C72464   6.323   6.445   0.200  0.0392  0.7287 -0.2837
  526MOL0     C72465   6.304   6.305   0.143  0.4987 -0.0975  0.5187
  526MOL0     C72466   6.430   6.249   0.081 -0.5242  0.0886 -0.4145
  526MOL0     N72467   6.400   6.127  -0.000 -0.4036 -0.5034 -0.0272
  526MOL0     C72468   6.322   6.016   0.042  0.2797 -0.5381 -0.4820
  526MOL0     C72469   6.297   5.959  -0.076 -0.4873  0.4588 -0.5168
  526MOL0     C72470   6.229   5.820  -0.081  1.3961 -0.2075 -0.1969
  526MOL0     C72471   6.079   5.827  -0.044  0.0987  0.2819  0.0553
  526MOL0     C72472   6.013   5.691  -0.005  0.2250 -0.0595 -0.3225
  526MOL0     C72473   5.876   5.715   0.052  0.4277  0.6975  0.7041
  526MOL0     O72474   5.884   5.746   0.195  0.2144  0.4150 -0.5612
  526MOL0     C72475   5.800   5.664   0.275 -0.7958  0.7544  0.2408
  526MOL0     C72476   5.838   5.609   0.396 -0.2142  0.0273  0.7264
  526MOL0     C72477   5.747   5.527   0.468  0.9621 -0.3424 -0.3702
  526MOL0     C72478   5.797   5.450   0.588 -0.9127  0.7632 -0.6268
  526MOL0     C72479   5.608   5.517   0.431 -0.0092 -0.1156  0.5538
  526MOL0     C72480   5.503   5.449   0.500 -0.0677 -0.0110 -0.2294
  526MOL0     O72481   5.496   5.466   0.635  0.3750 -0.0590  0.3349
  526MOL0     C72482   5.388   5.412   0.703  0.1011 -0.6365 -0.3023
  526MOL0     C72483   5.402   5.291   0.770 -0.4648  0.4876  0.7887
  526MOL0     C72484   5.291   5.244   0.842  0.0504  0.1636  0.7214
  526MOL0     C72485   5.156   5.297   0.834 -0.7712 -0.0533 -1.3438
  526MOL0     O72486   5.051   5.236   0.908 -0.7094 -0.4062  0.1027
  526MOL0     C72487   4.973   5.340   0.966 -0.1693 -0.2607 -1.0521
  526MOL0     C72488   4.864   5.273   1.055 -0.3157 -0.1670 -1.1380
  526MOL0     C72489   4.930   5.179   1.166  0.4091 -0.3891 -0.6666
  526MOL0     C72490   4.967   5.258   1.291  0.3581 -0.2439  0.2577
  526MOL0     C72491   4.996   5.156   1.396 -0.1442  0.6314  0.6441
  526MOL0     C72492   5.020   5.211   1.542  0.4281 -0.2165  0.3459
  526MOL0     C72493   5.046   5.090   1.641 -0.6964 -0.6175  0.1657
  526MOL0     C72494   5.037   5.105   1.797  0.8396  1.2600  0.3877
  526MOL0    Cl72495   5.049   4.930   1.862 -0.1934 -0.7260  0.0315
  526MOL0     C72496   5.145   5.407   0.752  0.9385  0.1710  0.3761
  526MOL0     C72497   5.259   5.463   0.695  0.5454  0.1300 -0.3333
  526MOL0     O72498   5.440   5.364   0.441  0.0894  0.0209  0.1760
  526MOL0     C72499   5.574   5.585   0.316  0.3850 -0.4474 -0.0156
  526MOL0     C72500   5.671   5.654   0.240  0.2112 -0.5472  1.0418
  526MOL0     N72501   6.344   6.025  -0.181  0.0315  0.3548 -0.1106
  526MOL0     N72502   6.413   6.122  -0.137 -0.8638 -0.1580  0.3084
  526MOL0     C72503   6.158   6.722   0.825 -0.4894  0.1641 -0.9555
  526MOL0     C72504   6.044   6.752   0.896  0.3260  0.1604  0.4061
  526MOL0     C72505   5.635   6.822   0.995 -0.0872 -0.4161  0.4457
  526MOL0     C72506   5.578   6.916   0.902  0.2807  0.8683  0.2356
  526MOL0     C72507   5.443   6.919   0.877  0.4191 -0.2790 -0.3893
  526MOL0     C72508   5.354   6.850   0.952 -0.1258 -0.1241 -0.3428
  526MOL0     O72509   5.219   6.885   0.927 -0.6037 -0.6912 -1.3528
  526MOL0     C72510   5.119   6.802   0.994  0.2863 -0.4891  0.1352
  526MOL0     C72511   4.997   6.762   0.902 -0.7639  1.0967  0.5651
  526MOL0     C72512   4.926   6.877   0.835 -0.5498 -0.0835 -0.2960
  526MOL0     C72513   4.809   6.821   0.750  0.5403  0.6995 -0.2235
  526MOL0     C72514   4.746   6.920   0.665  0.0089 -0.7962  0.2206
  526MOL0     C72515   4.689   6.991   0.580  0.2517  0.2492 -0.3423
  526MOL0     C72516   5.407   6.759   1.048  0.2819  0.1923  0.5639
  526MOL0     C72517   5.547   6.740   1.067 -0.5014 -0.4240  0.0165
  526MOL0     C72518   5.595   6.641   1.168 -0.0452  0.0039  0.5750
  526MOL0     H72519   5.925   6.981   0.685 -0.3323 -0.5319 -2.6615
  526MOL0     H72520   6.108   6.901   0.538  0.2549  0.2908 -0.5059
  526MOL0     H72521   6.369   6.897   0.577 -0.0100 -0.4436  0.1906
  526MOL0     H72522   6.300   6.802   0.449  4.5425  2.3500 -3.7181
  526MOL0     H72523   6.559   6.827   0.469 -1.4892  0.5995  0.3263
  526MOL0     H72524   6.558   6.755   0.622 -0.0145  0.3011  0.1154
  526MOL0     H72525   6.633   6.589   0.459 -0.6483 -1.0882 -0.0318
  526MOL0     H72526   6.478   6.532   0.507 -0.3697 -0.2663 -0.9898
  526MOL0     H72527   6.375   6.666   0.316 -0.4296 -0.2401  2.8193
  526MOL0     H72528   6.539   6.676   0.245  1.3125  0.7930  1.0728
  526MOL0     H72529   6.482   6.400   0.336 -1.0161 -1.3051 -1.4364
  526MOL0     H72530   6.547   6.456   0.192 -0.0361  1.4206 -0.0584
  526MOL0     H72531   6.248   6.474   0.273  0.1969 -2.2758  1.2442
  526MOL0     H72532   6.302   6.514   0.117 -1.6200 -1.7344 -2.0873
  526MOL0     H72533   6.221   6.310   0.072 -1.7824  0.3577  3.0722
  526MOL0     H72534   6.291   6.238   0.229 -0.5276  0.0211  0.4598
  526MOL0     H72535   6.463   6.315   0.001 -2.3751  0.2722 -1.0716
  526MOL0     H72536   6.517   6.232   0.146  0.0629 -2.1352 -1.6899
  526MOL0     H72537   6.306   5.971   0.140 -5.9538  3.6110  0.9867
  526MOL0     H72538   6.279   5.745  -0.020 -0.2471 -0.5583  0.7978
  526MOL0     H72539   6.239   5.777  -0.181  0.5799 -0.7215 -0.0663
  526MOL0     H72540   6.071   5.876   0.053 -1.0277  0.3726 -0.0763
  526MOL0     H72541   6.025   5.890  -0.115  0.8038  1.3529  0.4427
  526MOL0     H72542   6.002   5.630  -0.095 -1.1329 -1.3444  0.6478
  526MOL0     H72543   6.071   5.629   0.065  1.2050  1.2678  0.0867
  526MOL0     H72544   5.833   5.802   0.002 -1.6509  0.4711  2.0023
  526MOL0     H72545   5.805   5.638   0.023  0.3411  1.0090  0.0767
  526MOL0     H72546   5.937   5.619   0.439  1.2119 -0.1261 -2.2452
  526MOL0     H72547   5.749   5.351   0.588 -1.9329  1.2209  0.5855
  526MOL0     H72548   5.753   5.506   0.672 -0.1515 -0.8953  0.9472
  526MOL0     H72549   5.905   5.453   0.601 -1.1654 -1.0618  3.3839
  526MOL0     H72550   5.496   5.236   0.774 -1.0144 -0.4121  1.8362
  526MOL0     H72551   5.301   5.159   0.908  2.0587 -0.3479 -0.1546
  526MOL0     H72552   5.040   5.400   1.027  0.3783 -1.1554 -0.7497
  526MOL0     H72553   4.926   5.398   0.886  3.2612 -0.6152 -3.5469
  526MOL0     H72554   4.804   5.350   1.105  2.1911  2.0912 -1.4486
  526MOL0     H72555   4.801   5.206   0.994  2.6276 -4.3741 -0.0344
  526MOL0     H72556   5.025   5.138   1.133  1.5791  1.4673  0.2162
  526MOL0     H72557   4.860   5.101   1.197  1.2735 -1.1857 -0.6920
  526MOL0     H72558   4.880   5.316   1.324 -1.0715 -2.8945  1.4666
  526MOL0     H72559   5.057   5.320   1.281 -1.9863  3.0302 -3.1792
  526MOL0     H72560   4.916   5.082   1.393 -0.8761  1.4153  0.1365
  526MOL0     H72561   5.083   5.105   1.353 -0.5467  1.1760 -0.9009
  526MOL0     H72562   4.942   5.281   1.574 -1.6680 -2.4589  0.4900
  526MOL0     H72563   5.110   5.272   1.535  0.3932  0.0323  1.7938
  526MOL0     H72564   5.150   5.058   1.625 -0.3395  0.9306 -0.7687
  526MOL0     H72565   4.980   5.003   1.634 -0.3541 -1.2143  2.9529
  526MOL0     H72566   4.948   5.157   1.833  1.1895 -0.4717  4.2688
  526MOL0     H72567   5.126   5.165   1.820  0.2484  2.7005 -0.9138
  526MOL0     H72568   5.050   5.457   0.739  1.4953  1.3722  0.7150
  526MOL0     H72569   5.252   5.540   0.618  3.7430 -2.5214 -3.6512
  526MOL0     H72570   5.471   5.582   0.282  0.3099  1.4435 -0.0499
  526MOL0     H72571   5.643   5.705   0.148  3.1751  0.5696  0.6407
  526MOL0     H72572   6.223   6.644   0.863  0.2017  1.8440  1.5138
  526MOL0     H72573   6.030   6.716   0.998  2.7641  0.8559  1.0456
  526MOL0     H72574   5.640   6.984   0.845 -0.8067 -1.0219 -3.5411
  526MOL0     H72575   5.410   6.990   0.802  0.0295  0.7938  0.7559
  526MOL0     H72576   5.148   6.713   1.050 -0.1117 -0.5644  0.2283
  526MOL0     H72577   5.067   6.859   1.072 -0.9371 -0.5718 -0.5938
  526MOL0     H72578   4.926   6.698   0.955 -2.6059  0.5732 -2.2714
  526MOL0     H72579   5.041   6.703   0.821  0.2725 -0.4323  2.1606
  526MOL0     H72580   4.904   6.957   0.907  2.7017  0.1625  0.5617
  526MOL0     H72581   4.993   6.921   0.760  0.1955  0.1262  0.4882
  526MOL0     H72582   4.732   6.784   0.819 -0.5441  2.7477 -0.2291
  526MOL0     H72583   4.838   6.737   0.687 -0.7666  3.7074 -5.4507
  526MOL0     H72584   4.631   7.049   0.512 -2.5155 -1.0680  0.7377
  526MOL0     H72585   5.333   6.709   1.110  0.2814 -0.9112 -0.2950
  526MOL0     H72586   5.658   6.695   1.238  2.0858 -0.5520 -0.8147
  526MOL0     H72587   5.520   6.582   1.222  0.2967  0.3791  1.4823
  526MOL0     H72588   5.646   6.564   1.110 -1.1225  1.0725 -1.9549
  527MOL0     O72589   0.268   5.004   9.672  0.1850  0.2468  0.6158
  527MOL0     C72590   0.330   4.978   9.773  0.5542 -0.2005  0.1042
  527MOL0     O72591   0.272   4.934   9.890 -0.8446  0.0183 -0.3308
  527MOL0     C72592   0.138   4.927   9.899  0.4307 -0.2947  1.6510
  527MOL0     C72593   0.046   5.029   9.847  0.0557  0.2953  0.8380
  527MOL0     C72594  -0.096   5.010   9.863  0.5418 -0.9371 -0.5744
  527MOL0     C72595  -0.148   4.897   9.930 -0.0116  0.0287  0.0866
  527MOL0     O72596  -0.281   4.865   9.934  0.3627 -0.3882  0.0770
  527MOL0     C72597  -0.365   4.976   9.975 -0.4108 -0.0980 -0.1997
  527MOL0     C72598  -0.504   4.921   9.994  1.1258 -0.2233 -0.5564
  527MOL0     C72599  -0.613   5.031  10.011 -0.6815  0.0920  0.6673
  527MOL0     C72600  -0.746   4.969  10.047  0.8081 -0.1629  0.1485
  527MOL0     C72601  -0.861   5.066  10.091 -0.0963  0.5148  1.2338
  527MOL0     C72602  -1.005   5.001  10.104 -0.1240 -0.4650 -1.0880
  527MOL0     C72603  -1.105   5.112  10.145  0.0525 -0.5644 -0.3419
  527MOL0     C72604  -1.235   5.056  10.174 -0.0607  0.1774  0.0651
  527MOL0     N72605  -1.306   5.013  10.062  0.1401 -0.7757  0.7742
  527MOL0     C72606  -1.333   4.882  10.015  0.0700  0.6059  0.2842
  527MOL0     C72607  -1.400   4.909   9.897 -0.2023  0.2905  0.2691
  527MOL0     C72608  -1.457   4.808   9.794  0.4935 -0.6396  0.1834
  527MOL0     C72609  -1.376   4.826   9.668  0.9116 -0.4288  0.5062
  527MOL0     C72610  -1.234   4.800   9.687 -0.9165 -0.5132 -0.2279
  527MOL0     C72611  -1.152   4.832   9.554 -0.7172 -0.6982 -0.9521
  527MOL0     O72612  -1.169   4.732   9.457 -0.5995 -0.6311 -0.3117
  527MOL0     C72613  -1.094   4.616   9.470 -0.0848  0.1011 -0.0836
  527MOL0     C72614  -0.956   4.610   9.492  0.5549  0.6083 -0.4085
  527MOL0     C72615  -0.890   4.487   9.502  0.3353  0.4412  0.1105
  527MOL0     C72616  -0.740   4.473   9.497  0.1222  0.0813 -0.0637
  527MOL0     C72617  -0.967   4.364   9.494 -0.1239  0.0309 -0.0976
  527MOL0     C72618  -0.916   4.226   9.516  0.8594 -0.4130  0.2302
  527MOL0     O72619  -0.788   4.208   9.527 -0.7092 -0.1344 -0.1324
  527MOL0     C72620  -0.729   4.092   9.582  0.0381 -0.0232  0.1527
  527MOL0     C72621  -0.599   4.107   9.617  0.2262  0.0537 -0.5196
  527MOL0     C72622  -0.528   4.009   9.683 -0.0399  0.6046 -0.7747
  527MOL0     C72623  -0.579   3.887   9.721  0.4913  0.3419  0.3955
  527MOL0     O72624  -0.505   3.793   9.799  0.2397 -0.6148  0.2159
  527MOL0     C72625  -0.366   3.802   9.793 -0.1485 -0.2027 -0.2946
  527MOL0     C72626  -0.319   3.696   9.896  0.7702 -0.2363 -0.6028
  527MOL0     C72627  -0.180   3.725   9.945  0.4139  0.1927 -0.5942
  527MOL0     C72628  -0.095   3.611  10.000  0.9600 -0.6914  0.2503
  527MOL0     C72629   0.048   3.661  10.028 -0.1768 -0.3510  0.3980
  527MOL0     C72630   0.132   3.568  10.112  0.1793 -0.0617  0.5057
  527MOL0     C72631   0.152   3.435  10.047  1.1713 -0.8080 -0.5282
  527MOL0     C72632   0.212   3.330  10.131 -0.2513 -0.6049 -0.1648
  527MOL0    Cl72633   0.257   3.201  10.015  0.3729 -0.2049  0.0556
  527MOL0     C72634  -0.716   3.873   9.694 -0.0714 -0.7035  0.0481
  527MOL0     C72635  -0.793   3.969   9.626 -0.4403  0.7621  0.4761
  527MOL0     O72636  -1.004   4.136   9.519  0.0315 -0.2047  0.6627
  527MOL0     C72637  -1.108   4.381   9.478 -0.3785  0.6016  0.3271
  527MOL0     C72638  -1.175   4.500   9.455  0.3263 -0.3987 -0.4907
  527MOL0     N72639  -1.427   5.041   9.885 -0.6663  0.2785 -0.4918
  527MOL0     N72640  -1.368   5.103   9.987  0.1993  0.0522  0.1725
  527MOL0     C72641  -0.063   4.798   9.973 -0.6796  1.0130 -0.9055
  527MOL0     C72642   0.080   4.813   9.958  0.3102 -1.1300 -0.3704
  527MOL0     C72643   0.475   4.981   9.758 -1.1801  0.5127 -0.1363
  527MOL0     C72644   0.549   4.866   9.806 -0.0799 -0.2454  0.5907
  527MOL0     C72645   0.686   4.874   9.814 -0.7811  0.9668  0.6663
  527MOL0     C72646   0.755   4.980   9.754  0.0447  0.0018  0.6706
  527MOL0     O72647   0.890   4.980   9.777  1.1458 -0.4066 -0.7978
  527MOL0     C72648   0.976   4.998   9.665  0.5649 -0.3668 -0.7725
  527MOL0     C72649   0.939   4.897   9.560  0.4422 -0.0846 -0.2623
  527MOL0     C72650   1.045   4.907   9.450 -0.0424  0.3047 -0.8676
  527MOL0     C72651   0.998   4.832   9.324 -0.1949 -0.0767 -0.6588
  527MOL0     C72652   1.108   4.788   9.234 -0.2302  0.4744  0.0335
  527MOL0     C72653   1.210   4.737   9.180 -0.1963 -0.8530 -0.3665
  527MOL0     C72654   0.691   5.089   9.699  0.3431 -0.3841 -0.1115
  527MOL0     C72655   0.546   5.096   9.702 -0.9601 -0.4835  0.1337
  527MOL0     C72656   0.478   5.213   9.634 -0.9476 -0.0745 -0.0889
  527MOL0     H72657   0.079   5.120   9.799  2.6095 -0.2936  1.3593
  527MOL0     H72658  -0.162   5.086   9.822 -0.8978 -1.1420  1.2158
  527MOL0     H72659  -0.360   5.061   9.907  3.4335 -0.6979 -0.8753
  527MOL0     H72660  -0.331   5.024  10.067  2.2490 -0.9287 -0.6848
  527MOL0     H72661  -0.519   4.858   9.906 -0.5305 -0.2115 -0.2972
  527MOL0     H72662  -0.509   4.859  10.084  0.6219 -2.3304 -1.9668
  527MOL0     H72663  -0.575   5.094  10.093  2.1140 -0.4675 -0.0887
  527MOL0     H72664  -0.626   5.097   9.925 -0.1795 -0.1558  0.4017
  527MOL0     H72665  -0.784   4.910   9.963 -5.7769  0.6425  2.0046
  527MOL0     H72666  -0.726   4.896  10.126 -1.5617 -2.3798 -1.1579
  527MOL0     H72667  -0.868   5.142  10.012 -0.4494  0.0286  0.7935
  527MOL0     H72668  -0.841   5.114  10.187 -0.7692 -1.1368  2.2342
  527MOL0     H72669  -1.041   4.954  10.012  0.8912  2.0891 -2.8942
  527MOL0     H72670  -1.007   4.932  10.189 -0.5765  0.5995 -0.1986
  527MOL0     H72671  -1.117   5.188  10.067 -1.1731 -0.6755 -0.2866
  527MOL0     H72672  -1.073   5.173  10.230 -0.7169 -0.0461 -0.4148
  527MOL0     H72673  -1.230   4.976  10.248  1.3383 -2.1732 -2.3832
  527MOL0     H72674  -1.290   5.141  10.217 -1.0163 -0.9211  1.0787
  527MOL0     H72675  -1.308   4.782  10.047 -1.0349 -0.4314 -1.8762
  527MOL0     H72676  -1.564   4.821   9.779  0.6654  0.2061 -0.3720
  527MOL0     H72677  -1.449   4.705   9.831  0.4082 -1.2940 -1.5030
  527MOL0     H72678  -1.425   4.771   9.587 -0.7911  1.1297  0.3859
  527MOL0     H72679  -1.384   4.929   9.631 -0.3386 -0.6578  0.0742
  527MOL0     H72680  -1.198   4.871   9.762  0.0466 -0.2810 -0.8874
  527MOL0     H72681  -1.225   4.697   9.722 -0.5320 -1.2383 -2.2781
  527MOL0     H72682  -1.179   4.930   9.514  2.2854  0.3740 -0.5584
  527MOL0     H72683  -1.046   4.837   9.580 -0.8724 -2.6695  0.2674
  527MOL0     H72684  -0.891   4.696   9.500  2.4437 -0.7118 -0.7399
  527MOL0     H72685  -0.690   4.569   9.479  0.0320 -0.2841 -2.5878
  527MOL0     H72686  -0.721   4.414   9.407 -1.9083  3.4237 -2.9423
  527MOL0     H72687  -0.704   4.431   9.591  1.4814  2.4771  0.5919
  527MOL0     H72688  -0.552   4.205   9.607 -2.6654  1.8636  2.0292
  527MOL0     H72689  -0.434   4.041   9.726 -0.4504  0.6094  0.1341
  527MOL0     H72690  -0.326   3.777   9.695  0.7089 -0.4199  0.0982
  527MOL0     H72691  -0.319   3.896   9.824  2.1462 -0.4178 -2.7713
  527MOL0     H72692  -0.390   3.689   9.979  0.7908 -0.6499 -0.6175
  527MOL0     H72693  -0.323   3.595   9.853  0.4947 -2.1944  3.5465
  527MOL0     H72694  -0.192   3.802  10.021 -1.9035 -0.1209 -0.5736
  527MOL0     H72695  -0.122   3.764   9.861  0.9053  0.5729 -0.0836
  527MOL0     H72696  -0.092   3.538   9.919 -0.2810 -0.4729 -0.0088
  527MOL0     H72697  -0.132   3.578  10.098  1.6579 -1.9137  0.1233
  527MOL0     H72698   0.096   3.678   9.931 -3.2992 -0.1347 -1.2316
  527MOL0     H72699   0.040   3.760  10.073  0.2173 -0.0558 -0.1712
  527MOL0     H72700   0.095   3.548  10.213 -1.1974  1.4505  0.3342
  527MOL0     H72701   0.232   3.605  10.136  0.2054 -1.8264  3.7709
  527MOL0     H72702   0.219   3.452   9.961  1.6062 -2.3684 -0.5365
  527MOL0     H72703   0.057   3.393  10.014  1.4031 -2.4678  0.7870
  527MOL0     H72704   0.143   3.299  10.211 -2.5795  2.6974 -0.6614
  527MOL0     H72705   0.303   3.373  10.174 -0.9579  0.6121  0.1704
  527MOL0     H72706  -0.770   3.782   9.715 -1.3556 -0.0521 -0.3280
  527MOL0     H72707  -0.899   3.955   9.604 -0.2733  2.9112 -2.3194
  527MOL0     H72708  -1.176   4.297   9.484  1.9629 -1.3605  1.8749
  527MOL0     H72709  -1.282   4.502   9.433 -0.5360 -0.9736  3.0065
  527MOL0     H72710  -0.099   4.710  10.024  1.2585  0.5073 -0.3167
  527MOL0     H72711   0.148   4.733   9.985  3.6365  1.7516  0.4973
  527MOL0     H72712   0.508   4.773   9.844 -1.6455  0.7901  1.5640
  527MOL0     H72713   0.730   4.789   9.864 -0.7502 -1.0018 -2.3887
  527MOL0     H72714   0.967   5.100   9.626  0.1002 -0.2399 -0.3531
  527MOL0     H72715   1.081   4.982   9.691  0.9874 -0.7061 -2.6106
  527MOL0     H72716   0.838   4.907   9.521  0.3513 -0.7052 -0.1921
  527MOL0     H72717   0.950   4.797   9.603  1.1063  0.3731  0.6747
  527MOL0     H72718   1.080   5.009   9.429  1.5018 -0.0099 -0.0265
  527MOL0     H72719   1.137   4.859   9.483  0.6255  2.1762  0.1449
  527MOL0     H72720   0.930   4.903   9.276  0.8013  0.3707 -1.4559
  527MOL0     H72721   0.947   4.738   9.348 -0.4567  0.5955  1.6308
  527MOL0     H72722   1.304   4.698   9.147 -0.5661 -3.5359  1.4242
  527MOL0     H72723   0.744   5.168   9.646 -0.9639 -1.1369 -2.7332
  527MOL0     H72724   0.384   5.247   9.679 -2.3442  1.1411 -3.6269
  527MOL0     H72725   0.536   5.306   9.637 -0.1849 -0.5130 -0.9851
  527MOL0     H72726   0.453   5.197   9.529  2.3733 -1.5031 -0.7996
  528MOL0     O72727   5.872  10.882  11.013  0.5772 -0.0236  0.4366
  528MOL0     C72728   5.880  10.797  10.924 -0.6296  0.1970 -0.5276
  528MOL0     O72729   5.992  10.730  10.887  0.2402  0.1923 -0.4470
  528MOL0     C72730   6.101  10.744  10.963  0.0857  0.4398 -0.3743
  528MOL0     C72731   6.217  10.774  10.900  0.6939 -0.9664 -0.2139
  528MOL0     C72732   6.338  10.785  10.970 -0.6877 -0.6821  0.1608
  528MOL0     C72733   6.337  10.759  11.105 -0.1729  0.1886 -0.1746
  528MOL0     O72734   6.451  10.800  11.169 -0.1267 -0.0145  0.2130
  528MOL0     C72735   6.472  10.826  11.310  0.6481  0.6262  0.2015
  528MOL0     C72736   6.605  10.887  11.336  0.1662 -0.3117 -0.1809
  528MOL0     C72737   6.720  10.782  11.353  0.8835 -0.7446 -0.5486
  528MOL0     C72738   6.835  10.851  11.442  0.1267  0.1460  0.2282
  528MOL0     C72739   6.953  10.752  11.456  0.5410  0.1314  0.0988
  528MOL0     C72740   7.075  10.792  11.535  0.7278  0.5015  0.3423
  528MOL0     C72741   7.179  10.871  11.450 -0.1120 -0.1000  0.1349
  528MOL0     C72742   7.138  11.005  11.396  0.3814 -0.1818  0.8112
  528MOL0     N72743   7.257  11.092  11.371 -0.3341  0.5837  0.2937
  528MOL0     C72744   7.298  11.195  11.451 -0.5691 -0.3027  0.1781
  528MOL0     C72745   7.421  11.232  11.414 -0.7915  0.3690  0.9557
  528MOL0     C72746   7.505  11.344  11.474  0.4403 -0.4698  0.0426
  528MOL0     C72747   7.596  11.300  11.591 -0.6313  0.8376  0.8247
  528MOL0     C72748   7.515  11.257  11.711 -0.5983 -0.5116  0.7608
  528MOL0     C72749   7.595  11.215  11.833 -0.3741  0.5553  0.0352
  528MOL0     O72750   7.691  11.112  11.787  0.1629  0.9836  0.7410
  528MOL0     C72751   7.793  11.076  11.871 -0.3752 -0.5220 -0.0297
  528MOL0     C72752   7.884  10.980  11.824  1.4670 -0.1430 -0.8729
  528MOL0     C72753   8.010  10.957  11.886  0.4664 -0.4819 -0.1222
  528MOL0     C72754   8.117  10.868  11.819 -0.0250  0.5220 -0.0080
  528MOL0     C72755   8.034  11.012  12.013  1.0835 -0.0110  0.1443
  528MOL0     C72756   8.146  10.977  12.098 -0.4543  0.0097 -1.2730
  528MOL0     O72757   8.172  11.063  12.204 -0.6077  0.7077 -0.0711
  528MOL0     C72758   8.297  11.101  12.253 -0.8482  1.2549 -0.5247
  528MOL0     C72759   8.300  11.196  12.357  1.3786  1.0899  0.4205
  528MOL0     C72760   8.411  11.248  12.412  0.5015 -0.3934  0.4389
  528MOL0     C72761   8.541  11.194  12.371 -1.1407  0.4361 -0.1481
  528MOL0     O72762   8.667  11.219  12.424  0.8179 -0.8523  0.1274
  528MOL0     C72763   8.685  11.324  12.520  0.5403  0.5477  0.9185
  528MOL0     C72764   8.809  11.295  12.606 -0.0980 -0.0379  0.2389
  528MOL0     C72765   8.935  11.347  12.525  1.7260  0.8190  0.0781
  528MOL0     C72766   8.965  11.268  12.386 -1.0008 -0.7171  0.0105
  528MOL0     C72767   8.958  11.115  12.392 -0.2266  0.7769  0.1420
  528MOL0     C72768   9.076  11.060  12.475 -0.3948  0.0659  0.1352
  528MOL0     C72769   9.085  10.916  12.479 -0.6828 -0.3493  0.0229
  528MOL0     C72770   8.973  10.856  12.551  0.8484 -0.3448  0.1411
  528MOL0    Cl72771   9.004  10.683  12.565  0.4421  0.2822  0.6318
  528MOL0     C72772   8.538  11.102  12.276  0.1526  0.0965 -0.0277
  528MOL0     C72773   8.424  11.060  12.213 -0.0638 -0.2736 -0.2561
  528MOL0     O72774   8.177  10.855  12.103 -0.2772 -0.5924 -0.1431
  528MOL0     C72775   7.936  11.094  12.067  0.4582 -0.1362 -1.1032
  528MOL0     C72776   7.823  11.133  11.995 -0.1369 -0.0410 -0.4706
  528MOL0     N72777   7.450  11.153  11.300 -0.1510 -0.1414  0.0386
  528MOL0     N72778   7.356  11.072  11.270  0.8770 -0.0230 -0.3823
  528MOL0     C72779   6.229  10.708  11.173 -0.1231  0.1009  0.4732
  528MOL0     C72780   6.110  10.708  11.095 -1.0631  0.8530  0.2465
  528MOL0     C72781   5.747  10.739  10.876  0.4356 -0.1188 -0.7544
  528MOL0     C72782   5.629  10.816  10.913 -0.3885 -0.0245 -0.0304
  528MOL0     C72783   5.500  10.766  10.903  0.0021  0.1619  0.0270
  528MOL0     C72784   5.487  10.653  10.822 -0.5526 -0.1491 -0.0477
  528MOL0     O72785   5.360  10.595  10.799 -1.0989  0.0860 -0.1467
  528MOL0     C72786   5.242  10.681  10.789  0.1787 -0.0200 -0.2464
  528MOL0     C72787   5.170  10.697  10.916 -0.4790 -0.4319 -0.5317
  528MOL0     C72788   5.084  10.570  10.961 -0.0076 -0.0417 -0.3513
  528MOL0     C72789   4.977  10.602  11.064 -0.3371  0.2923  0.1887
  528MOL0     C72790   4.889  10.711  11.026 -0.1985 -0.7030 -1.0132
  528MOL0     C72791   4.816  10.802  10.985 -0.0773  0.9040 -0.3649
  528MOL0     C72792   5.608  10.587  10.767  0.4981 -0.1158 -0.2252
  528MOL0     C72793   5.736  10.627  10.797  0.2930  0.2330 -0.8305
  528MOL0     C72794   5.850  10.524  10.771  1.5163  1.5486 -0.2406
  528MOL0     H72795   6.196  10.803  10.798  1.2281  1.3179  0.2603
  528MOL0     H72796   6.425  10.831  10.924 -0.9069  2.4988  2.5818
  528MOL0     H72797   6.466  10.726  11.353 -0.2544 -0.8141 -2.9386
  528MOL0     H72798   6.395  10.889  11.355  0.7717 -0.2102  1.6213
  528MOL0     H72799   6.632  10.954  11.254 -2.5459  0.3022 -0.6508
  528MOL0     H72800   6.591  10.953  11.422  3.8796 -0.1586  0.4900
  528MOL0     H72801   6.685  10.700  11.417  1.4096 -0.7438 -0.2533
  528MOL0     H72802   6.756  10.748  11.255  3.0891 -0.7384  0.1998
  528MOL0     H72803   6.862  10.945  11.393 -2.0304  0.2341 -0.9223
  528MOL0     H72804   6.805  10.874  11.544 -0.3786 -0.5534  0.2463
  528MOL0     H72805   6.974  10.721  11.353 -1.4417  3.8201 -1.5978
  528MOL0     H72806   6.925  10.667  11.519  3.2844  0.6800  2.2563
  528MOL0     H72807   7.048  10.829  11.634  1.0875 -2.9187  1.8657
  528MOL0     H72808   7.133  10.704  11.565 -2.4929 -0.4765  4.7281
  528MOL0     H72809   7.218  10.816  11.364 -1.0536  0.6433 -0.7935
  528MOL0     H72810   7.267  10.885  11.514 -0.1632 -0.2090  0.2299
  528MOL0     H72811   7.079  10.992  11.305  1.8023  1.6804 -0.4464
  528MOL0     H72812   7.072  11.059  11.464 -0.8330  0.6969 -0.9848
  528MOL0     H72813   7.234  11.230  11.531 -0.8349 -0.1696 -0.0910
  528MOL0     H72814   7.435  11.420  11.509 -0.0841  0.7038 -3.2573
  528MOL0     H72815   7.560  11.388  11.390 -1.3832  2.1199  0.0932
  528MOL0     H72816   7.661  11.225  11.547 -0.0296  1.1121  1.2260
  528MOL0     H72817   7.665  11.384  11.602 -0.9386  1.1171  0.6419
  528MOL0     H72818   7.453  11.344  11.735 -2.8039 -1.5744 -0.7074
  528MOL0     H72819   7.453  11.173  11.679 -0.7151 -0.7983  1.7189
  528MOL0     H72820   7.645  11.306  11.868  0.3977 -0.1194  0.7247
  528MOL0     H72821   7.536  11.182  11.919 -0.0769 -2.0815 -0.6736
  528MOL0     H72822   7.856  10.926  11.734 -1.2692 -1.8596  0.8618
  528MOL0     H72823   8.101  10.852  11.712 -0.8173 -3.6083  0.5873
  528MOL0     H72824   8.102  10.774  11.873 -2.2434  1.1599  0.5875
  528MOL0     H72825   8.216  10.915  11.821  1.0496 -1.0037 -4.6925
  528MOL0     H72826   8.206  11.232  12.397  1.8350  1.1034  1.5119
  528MOL0     H72827   8.400  11.327  12.485  0.4588  1.1490 -1.1736
  528MOL0     H72828   8.705  11.417  12.468  3.1433  0.4615  1.6518
  528MOL0     H72829   8.604  11.317  12.593  1.8638 -0.2253  2.3624
  528MOL0     H72830   8.801  11.341  12.705  0.2545 -0.9352  0.7038
  528MOL0     H72831   8.805  11.188  12.630  1.7654 -0.6307 -1.7765
  528MOL0     H72832   9.018  11.321  12.592 -0.0032 -2.1396  1.2585
  528MOL0     H72833   8.937  11.455  12.507  0.6409  1.0895  1.3761
  528MOL0     H72834   9.062  11.308  12.356 -0.6142 -1.1940  0.5954
  528MOL0     H72835   8.898  11.304  12.307  0.5114  0.0146 -0.9820
  528MOL0     H72836   8.865  11.074  12.432 -0.0386  0.4341  0.2345
  528MOL0     H72837   8.976  11.089  12.287 -0.4785  4.1119 -0.8514
  528MOL0     H72838   9.060  11.091  12.579  3.0094 -1.7557  1.3485
  528MOL0     H72839   9.170  11.092  12.429 -0.5713 -1.2953 -1.2683
  528MOL0     H72840   9.178  10.900  12.534  0.3356  0.6541 -1.3212
  528MOL0     H72841   9.091  10.865  12.382  0.4238 -0.8509  0.3390
  528MOL0     H72842   8.879  10.875  12.499 -0.5543  1.9631  3.1923
  528MOL0     H72843   8.961  10.900  12.650 -3.9876  1.6295 -1.0008
  528MOL0     H72844   8.631  11.056  12.244 -0.1735 -0.2850 -0.4394
  528MOL0     H72845   8.424  10.981  12.139 -2.9159 -1.3206  0.7147
  528MOL0     H72846   7.945  11.129  12.169  1.0553  1.0905 -1.5622
  528MOL0     H72847   7.743  11.195  12.035  0.8344  0.7563  0.3043
  528MOL0     H72848   6.233  10.688  11.279 -3.4304 -2.0772  0.3384
  528MOL0     H72849   6.013  10.675  11.133 -1.0011 -1.4515 -1.3641
  528MOL0     H72850   5.634  10.900  10.981  1.4075 -1.9752  2.4483
  528MOL0     H72851   5.419  10.822  10.947 -0.4049  1.1618 -1.9200
  528MOL0     H72852   5.264  10.779  10.746  1.4692 -0.2594 -0.1638
  528MOL0     H72853   5.175  10.638  10.714  1.4466  0.9256 -2.0154
  528MOL0     H72854   5.098  10.778  10.901  0.2365  0.4362  0.6014
  528MOL0     H72855   5.225  10.723  11.007 -0.3306  2.1290 -1.2602
  528MOL0     H72856   5.025  10.547  10.872 -0.2023  1.4259 -0.6272
  528MOL0     H72857   5.150  10.489  10.995 -0.7526  0.1635  1.7254
  528MOL0     H72858   5.021  10.621  11.163 -2.5893  0.1848  1.2812
  528MOL0     H72859   4.913  10.519  11.095 -1.8555  1.1115 -0.6382
  528MOL0     H72860   4.755  10.878  10.942 -3.4762 -0.5179  1.5202
  528MOL0     H72861   5.599  10.499  10.704  0.6159 -0.4894  0.2781
  528MOL0     H72862   5.921  10.558  10.695 -0.0505  1.1250 -1.9740
  528MOL0     H72863   5.915  10.507  10.858  1.4520  1.1837 -0.2600
  528MOL0     H72864   5.815  10.428  10.732  1.0929  0.7428  1.9757
  529MOL0     O72865  11.026  10.156   8.862  0.9458  0.2381 -0.5225
  529MOL0     C72866  11.012  10.266   8.914  0.2920  0.1499 -0.5755
  529MOL0     O72867  11.106  10.355   8.942  0.3090  0.6541 -0.4023
  529MOL0     C72868  11.236  10.321   8.951  0.5100  0.6533 -0.2223
  529MOL0     C72869  11.286  10.191   8.981 -0.9009 -0.3079 -0.3644
  529MOL0     C72870  11.424  10.175   8.988 -0.2658  0.3175  0.5168
  529MOL0     C72871  11.512  10.278   8.954  0.0118  0.5568 -0.5719
  529MOL0     O72872  11.649  10.244   8.947  0.5670 -0.1819 -0.1921
  529MOL0     C72873  11.752  10.341   8.909  0.2096 -0.2489  0.5328
  529MOL0     C72874  11.748  10.375   8.752  0.0520  0.0056  0.1776
  529MOL0     C72875  11.864  10.465   8.733 -0.3421  0.7310 -0.3510
  529MOL0     C72876  11.996  10.384   8.685  0.5370  0.1593 -0.2405
  529MOL0     C72877  12.107  10.487   8.639 -0.2842 -0.1531  1.2629
  529MOL0     C72878  12.239  10.416   8.615 -0.4667  0.5866  0.1350
  529MOL0     C72879  12.338  10.513   8.576 -0.0075 -0.3124 -0.1959
  529MOL0     C72880  12.463  10.447   8.507  0.2352 -0.2242 -0.2167
  529MOL0     N72881  12.580  10.533   8.499 -0.3394  0.8127  0.0833
  529MOL0     C72882  12.624  10.620   8.592 -0.5399 -0.2935 -0.1343
  529MOL0     C72883  12.725  10.679   8.531 -0.4298 -0.0766 -1.2461
  529MOL0     C72884  12.823  10.765   8.620 -1.3233  0.3363 -0.5424
  529MOL0     C72885  12.769  10.898   8.675 -0.0861 -0.2502  0.7846
  529MOL0     C72886  12.687  10.993   8.577 -0.6511 -0.0094 -0.0975
  529MOL0     C72887  12.766  11.025   8.445 -0.0496  0.6864 -0.3017
  529MOL0     O72888  12.891  11.093   8.465 -0.0708 -0.6038  0.5090
  529MOL0     C72889  12.888  11.234   8.508  0.0024 -0.6620  1.0784
  529MOL0     C72890  12.776  11.323   8.505  0.0263 -0.0574 -0.3168
  529MOL0     C72891  12.783  11.446   8.558 -0.1977 -0.0141  0.3723
  529MOL0     C72892  12.664  11.537   8.548  0.2575 -0.4186  0.1000
  529MOL0     C72893  12.905  11.490   8.611  0.0045  0.2645 -0.0782
  529MOL0     C72894  12.923  11.616   8.681 -0.3192 -0.2096  0.4310
  529MOL0     O72895  13.055  11.658   8.678 -0.4209 -0.5122  0.5483
  529MOL0     C72896  13.088  11.778   8.736  0.2825  0.5712  0.2900
  529MOL0     C72897  13.101  11.789   8.870  0.8270 -0.6771 -0.3870
  529MOL0     C72898  13.140  11.901   8.932  0.1027 -1.2589  0.0874
  529MOL0     C72899  13.149  12.020   8.862 -0.0689 -0.0036  0.9168
  529MOL0     O72900  13.180  12.139   8.913  0.4925 -0.1952 -0.1799
  529MOL0     C72901  13.091  12.198   8.999  0.3871 -0.8790 -0.0068
  529MOL0     C72902  13.154  12.323   9.054  0.8011 -0.7518 -0.1801
  529MOL0     C72903  13.062  12.389   9.162 -0.9951  0.1237  0.5330
  529MOL0     C72904  13.142  12.523   9.198 -0.7081  0.1158  0.5005
  529MOL0     C72905  13.055  12.631   9.273 -0.8524  0.6605  0.1160
  529MOL0     C72906  13.004  12.566   9.404 -0.5668 -0.1924 -0.0560
  529MOL0     C72907  12.932  12.675   9.485 -0.7398 -0.1523  0.1586
  529MOL0     C72908  12.879  12.633   9.622 -0.5611 -0.5771 -0.3837
  529MOL0    Cl72909  12.996  12.545   9.719  0.4017 -0.2941  0.1745
  529MOL0     C72910  13.138  12.012   8.724  0.4579 -0.4023  0.2686
  529MOL0     C72911  13.111  11.892   8.661  0.3378  0.4263  0.5124
  529MOL0     O72912  12.833  11.661   8.749 -0.6759 -0.0163 -0.4515
  529MOL0     C72913  13.017  11.404   8.602  0.2301 -0.0103  0.4637
  529MOL0     C72914  13.005  11.275   8.550 -0.7699 -0.0218  0.7141
  529MOL0     N72915  12.748  10.627   8.404 -1.3712  0.7260  0.7276
  529MOL0     N72916  12.651  10.547   8.383  0.2926 -0.2281 -1.1141
  529MOL0     C72917  11.466  10.409   8.944  0.5177  0.3355  0.9755
  529MOL0     C72918  11.326  10.426   8.943 -0.2855  0.0804 -0.2293
  529MOL0     C72919  10.880  10.329   8.928 -0.3540  1.0182  0.2379
  529MOL0     C72920  10.841  10.369   9.056 -0.5726 -0.1025 -0.2719
  529MOL0     C72921  10.722  10.437   9.084  0.0739  0.7169  1.0391
  529MOL0     C72922  10.628  10.433   8.977 -0.5971 -0.6176 -1.2880
  529MOL0     O72923  10.506  10.499   8.986 -0.4051  0.2707 -0.0094
  529MOL0     C72924  10.412  10.445   9.073 -0.4551 -0.1749 -0.3407
  529MOL0     C72925  10.408  10.541   9.196 -0.0950 -0.2389 -0.3311
  529MOL0     C72926  10.289  10.521   9.281 -0.4374  0.2794 -1.0437
  529MOL0     C72927  10.175  10.606   9.233 -0.8782  0.4771  0.3811
  529MOL0     C72928  10.052  10.570   9.298 -0.5777  0.0619 -0.1298
  529MOL0     C72929   9.954  10.536   9.351  0.3098  0.3121  0.5517
  529MOL0     C72930  10.672  10.402   8.850  0.0837  0.3394 -0.5716
  529MOL0     C72931  10.795  10.355   8.820  0.2764 -0.3944  0.7316
  529MOL0     C72932  10.816  10.313   8.676  1.2183  0.2215 -0.0760
  529MOL0     H72933  11.213  10.115   9.007 -1.4421  0.9791  2.3024
  529MOL0     H72934  11.449  10.071   9.008 -1.6847 -0.3694 -1.0629
  529MOL0     H72935  11.854  10.314   8.941  1.1029 -0.0458 -1.9672
  529MOL0     H72936  11.741  10.437   8.960 -0.1578  0.7232 -1.2897
  529MOL0     H72937  11.739  10.282   8.695 -2.2988 -0.0292  0.5396
  529MOL0     H72938  11.664  10.438   8.723 -0.5616 -2.3108 -3.7547
  529MOL0     H72939  11.833  10.535   8.655  0.5084  4.5972  2.4137
  529MOL0     H72940  11.893  10.524   8.821 -0.8841 -1.3281  1.2888
  529MOL0     H72941  12.034  10.309   8.754  1.5434  0.3625 -0.5631
  529MOL0     H72942  11.964  10.336   8.591 -1.2523  0.8358 -0.0257
  529MOL0     H72943  12.127  10.573   8.703 -2.6635 -1.2493  3.7237
  529MOL0     H72944  12.064  10.526   8.546 -4.0953 -0.0772  2.8493
  529MOL0     H72945  12.273  10.370   8.708 -0.3618  0.3782 -0.0051
  529MOL0     H72946  12.230  10.340   8.536 -1.5453  2.3615 -1.5501
  529MOL0     H72947  12.352  10.569   8.669 -0.0068 -1.0849  0.2861
  529MOL0     H72948  12.297  10.585   8.506 -2.7338 -0.5024  1.0621
  529MOL0     H72949  12.478  10.355   8.564  1.9783  1.3439  2.0662
  529MOL0     H72950  12.431  10.437   8.403  0.6114  1.5862 -0.5390
  529MOL0     H72951  12.582  10.621   8.692 -4.8516 -0.1792 -1.7402
  529MOL0     H72952  12.909  10.799   8.562 -1.9473  2.0181 -0.5437
  529MOL0     H72953  12.856  10.706   8.706  1.4390  2.6516  0.1631
  529MOL0     H72954  12.703  10.873   8.758 -1.9260  0.6920 -0.3330
  529MOL0     H72955  12.854  10.946   8.725 -1.3245 -0.8715  3.7031
  529MOL0     H72956  12.594  10.956   8.532 -1.1063  0.2832  0.5988
  529MOL0     H72957  12.670  11.085   8.633 -2.3999 -0.3204 -0.0567
  529MOL0     H72958  12.795  10.933   8.394  0.1930 -0.0906  1.1807
  529MOL0     H72959  12.696  11.085   8.385 -0.0018 -1.3572 -2.5377
  529MOL0     H72960  12.684  11.280   8.466  1.0652 -0.4619 -2.4841
  529MOL0     H72961  12.604  11.525   8.638 -3.0973 -2.1324 -2.1188
  529MOL0     H72962  12.608  11.508   8.458  1.0681 -0.1249 -0.5153
  529MOL0     H72963  12.693  11.642   8.536  0.8591 -0.7752 -2.0950
  529MOL0     H72964  13.089  11.699   8.929  1.6568  0.0596  0.9619
  529MOL0     H72965  13.152  11.904   9.039 -3.5146  1.6044  0.5689
  529MOL0     H72966  12.993  12.232   8.966 -0.4499 -0.5262  2.5902
  529MOL0     H72967  13.074  12.133   9.085  1.8772 -0.0617  0.9484
  529MOL0     H72968  13.251  12.292   9.094  1.1539 -2.3200 -2.1127
  529MOL0     H72969  13.164  12.398   8.975 -0.5265  2.5210  2.5221
  529MOL0     H72970  13.061  12.333   9.256  0.4436  0.9157  1.0552
  529MOL0     H72971  12.965  12.410   9.115 -0.4339  0.8941 -0.3163
  529MOL0     H72972  13.178  12.569   9.105 -2.3375 -1.4168 -0.9847
  529MOL0     H72973  13.232  12.502   9.256 -0.5962 -0.6337  0.0746
  529MOL0     H72974  13.119  12.716   9.298 -0.3045  1.0166 -2.2696
  529MOL0     H72975  12.972  12.670   9.213  0.6479  0.9642 -1.8750
  529MOL0     H72976  13.091  12.529   9.458  1.0991  1.0884 -1.7312
  529MOL0     H72977  12.935  12.483   9.386  0.3367 -0.7547 -0.9879
  529MOL0     H72978  12.846  12.714   9.430 -0.6225 -0.0656  0.0370
  529MOL0     H72979  13.009  12.751   9.504 -1.7686  1.4563 -1.6827
  529MOL0     H72980  12.791  12.570   9.604 -1.7361  1.0300 -0.4710
  529MOL0     H72981  12.841  12.725   9.668  0.7891 -0.2479  0.1246
  529MOL0     H72982  13.152  12.110   8.681 -0.0364  0.5357  2.1401
  529MOL0     H72983  13.111  11.879   8.553  0.2388  0.0304  0.5581
  529MOL0     H72984  13.112  11.430   8.648 -0.6278  1.4367  1.4950
  529MOL0     H72985  13.093  11.212   8.551 -1.6361 -1.4478 -2.2572
  529MOL0     H72986  11.533  10.493   8.954  3.2536 -1.9047  2.8860
  529MOL0     H72987  11.274  10.520   8.928  0.3737  0.3882 -0.6401
  529MOL0     H72988  10.904  10.349   9.142 -1.1907  1.1625  0.5062
  529MOL0     H72989  10.692  10.464   9.185  1.5623  1.0672  1.4192
  529MOL0     H72990  10.309  10.436   9.039 -1.9967  3.1051  2.7328
  529MOL0     H72991  10.453  10.350   9.110  2.5758  1.0440 -0.2645
  529MOL0     H72992  10.410  10.647   9.169 -2.1258  0.2567  1.2220
  529MOL0     H72993  10.500  10.519   9.252  0.6166 -0.3126 -1.5057
  529MOL0     H72994  10.247  10.420   9.287  0.1567  0.0657 -0.4438
  529MOL0     H72995  10.311  10.559   9.381 -1.4386  0.3701 -0.8485
  529MOL0     H72996  10.168  10.591   9.124  0.3417 -0.6571  0.4245
  529MOL0     H72997  10.191  10.713   9.245 -1.2825  0.9655 -2.6646
  529MOL0     H72998   9.861  10.509   9.397 -0.7401  2.0957 -0.4385
  529MOL0     H72999  10.596  10.400   8.773  1.4467  0.8253 -1.9969
  529MOL0     H73000  10.725  10.261   8.645  1.4110 -0.9387  1.1978
  529MOL0     H73001  10.840  10.405   8.623  0.6261  1.4672  1.7068
  529MOL0     H73002  10.889  10.233   8.662  0.1621 -0.7238 -0.3258
  530MOL0     O73003   3.754  10.430   1.823 -0.1859  0.2287  0.1163
  530MOL0     C73004   3.824  10.397   1.925  0.5992  1.2281 -0.1379
  530MOL0     O73005   3.816  10.276   1.990  0.5760  0.2054  0.3765
  530MOL0     C73006   3.749  10.175   1.935  0.0798 -0.0683 -0.3116
  530MOL0     C73007   3.613  10.139   1.967 -0.5987  0.0057 -0.3129
  530MOL0     C73008   3.554  10.028   1.912  0.4358  0.5428 -0.5020
  530MOL0     C73009   3.620   9.941   1.823 -0.7159  0.3673  0.5838
  530MOL0     O73010   3.561   9.833   1.760  0.2573  0.2492 -0.1997
  530MOL0     C73011   3.434   9.789   1.805  0.4156 -0.0734 -0.5022
  530MOL0     C73012   3.440   9.726   1.946  0.5119  0.7498 -0.4413
  530MOL0     C73013   3.500   9.582   1.926  0.0098  0.2711  0.4400
  530MOL0     C73014   3.552   9.533   2.058 -0.0687 -0.2342 -0.0498
  530MOL0     C73015   3.590   9.382   2.054 -0.3119 -0.9794 -0.2118
  530MOL0     C73016   3.635   9.340   2.203 -0.3309 -0.5534 -0.8395
  530MOL0     C73017   3.655   9.186   2.236  0.5991 -0.4943  0.0783
  530MOL0     C73018   3.768   9.103   2.180 -0.4276 -0.0629 -0.0420
  530MOL0     N73019   3.896   9.155   2.239 -0.1306 -0.7256  0.5361
  530MOL0     C73020   3.965   9.273   2.198 -0.3706  0.1114 -0.8974
  530MOL0     C73021   4.063   9.295   2.295  0.1580  1.0042 -0.5153
  530MOL0     C73022   4.164   9.395   2.292  0.2738 -0.0182 -0.0127
  530MOL0     C73023   4.262   9.367   2.174 -0.0720 -0.1185  1.0035
  530MOL0     C73024   4.374   9.469   2.182 -0.0800 -1.2189  0.1294
  530MOL0     C73025   4.487   9.470   2.076 -0.4923 -0.1712  0.5551
  530MOL0     O73026   4.529   9.332   2.060  0.3775 -0.5393  1.2612
  530MOL0     C73027   4.665   9.312   2.089 -0.0665  1.2537 -1.1058
  530MOL0     C73028   4.732   9.366   2.199 -0.4985 -0.6273  0.0607
  530MOL0     C73029   4.873   9.371   2.212 -0.5633  1.0473  0.6690
  530MOL0     C73030   4.936   9.457   2.309 -0.4583 -0.9385  0.3141
  530MOL0     C73031   4.944   9.285   2.123 -0.9010 -0.4156  0.0476
  530MOL0     C73032   5.091   9.269   2.120  0.0132  0.0676 -0.2786
  530MOL0     O73033   5.161   9.283   2.247  0.2445 -0.1581 -0.4867
  530MOL0     C73034   5.298   9.270   2.258 -0.0158 -0.0496 -0.4126
  530MOL0     C73035   5.397   9.314   2.165 -0.5541 -0.0572 -0.0398
  530MOL0     C73036   5.528   9.283   2.179 -0.3706  0.1131  0.1892
  530MOL0     C73037   5.568   9.221   2.293  0.0086  0.6559  0.7724
  530MOL0     O73038   5.696   9.177   2.324 -0.6780 -0.7624  0.4046
  530MOL0     C73039   5.800   9.225   2.240  0.1656 -0.2460 -0.6090
  530MOL0     C73040   5.808   9.123   2.131  0.3049  0.8503 -0.1597
  530MOL0     C73041   5.933   9.135   2.048 -0.9176 -0.2146 -0.5525
  530MOL0     C73042   5.929   9.019   1.939 -0.4085 -0.4751  0.0767
  530MOL0     C73043   6.012   9.063   1.816 -1.1347  0.7846  0.0079
  530MOL0     C73044   5.990   8.953   1.703  0.0038  0.4276  0.3460
  530MOL0     C73045   6.112   8.970   1.597  0.1641  0.3543  0.5825
  530MOL0     C73046   6.065   8.915   1.454  0.2135  0.0839 -0.6983
  530MOL0    Cl73047   5.921   8.986   1.398 -0.2763 -0.1005  0.4869
  530MOL0     C73048   5.478   9.185   2.395  0.4172  0.1004  0.4674
  530MOL0     C73049   5.340   9.216   2.384 -0.1519 -0.5252 -0.0664
  530MOL0     O73050   5.149   9.227   2.021 -1.1407  0.6918  0.3757
  530MOL0     C73051   4.875   9.223   2.017  0.1277 -0.1133  0.0268
  530MOL0     C73052   4.738   9.232   1.999  0.4424  0.5528 -0.1463
  530MOL0     N73053   4.052   9.187   2.386  0.4222 -0.8815 -0.2972
  530MOL0     N73054   3.951   9.108   2.354 -0.9910 -0.5339 -0.1018
  530MOL0     C73055   3.758   9.973   1.799 -0.3485  1.1767  0.3101
  530MOL0     C73056   3.819  10.088   1.842  0.0279 -0.1847  0.7291
  530MOL0     C73057   3.886  10.505   1.999 -0.0750  1.2342 -1.0600
  530MOL0     C73058   3.883  10.505   2.137 -0.4622 -0.5453  0.6817
  530MOL0     C73059   3.973  10.578   2.218 -0.4135 -0.5671  0.5118
  530MOL0     C73060   4.055  10.677   2.154  0.4040  1.6550  0.2573
  530MOL0     O73061   4.137  10.764   2.208 -0.0631 -0.8960  0.4473
  530MOL0     C73062   4.111  10.794   2.346 -0.3466 -0.0339 -0.2510
  530MOL0     C73063   4.189  10.918   2.387  0.1077 -0.9369  0.1219
  530MOL0     C73064   4.149  11.042   2.312 -0.9617 -0.1518  0.8344
  530MOL0     C73065   4.230  11.093   2.200  0.1577  1.3427 -0.5351
  530MOL0     C73066   4.182  11.217   2.145 -0.5041  0.0319  0.9682
  530MOL0     C73067   4.160  11.328   2.109  1.3000 -0.0224  0.1254
  530MOL0     C73068   4.061  10.675   2.014  0.1564  0.2556 -0.9735
  530MOL0     C73069   3.983  10.585   1.936 -0.2336  0.1378  0.2354
  530MOL0     C73070   4.003  10.594   1.785 -0.1203  0.1360 -0.6732
  530MOL0     H73071   3.548  10.215   2.007 -0.5319  0.2707 -0.6995
  530MOL0     H73072   3.462   9.997   1.961  0.5519  1.1128  0.0999
  530MOL0     H73073   3.396   9.723   1.726 -1.0578  0.4423 -0.2643
  530MOL0     H73074   3.366   9.875   1.808  1.4094  0.7859 -1.8256
  530MOL0     H73075   3.494   9.792   2.015 -1.4795  0.2232  1.7263
  530MOL0     H73076   3.340   9.706   1.986  1.0861  0.6668  0.9864
  530MOL0     H73077   3.424   9.511   1.893  0.6611 -0.5488  0.6781
  530MOL0     H73078   3.580   9.578   1.852 -0.4738 -2.4314 -0.0384
  530MOL0     H73079   3.638   9.591   2.095  2.5585 -2.6521 -1.9556
  530MOL0     H73080   3.465   9.544   2.123 -1.8091 -0.8972 -2.1712
  530MOL0     H73081   3.673   9.374   1.984 -0.2678 -0.8125 -0.1792
  530MOL0     H73082   3.501   9.341   2.006  0.4197 -0.1084 -2.4350
  530MOL0     H73083   3.723   9.385   2.251 -2.2283  0.3347  2.1028
  530MOL0     H73084   3.560   9.376   2.275  1.2697  0.1954  0.5183
  530MOL0     H73085   3.558   9.144   2.207  1.8773 -2.5368 -1.6304
  530MOL0     H73086   3.647   9.164   2.342  0.9332  2.0392  0.6799
  530MOL0     H73087   3.763   8.995   2.197  3.0364 -0.1445  1.2423
  530MOL0     H73088   3.765   9.113   2.071 -0.8769  2.0395  0.1171
  530MOL0     H73089   3.942   9.322   2.104 -1.8737 -2.9858 -2.2840
  530MOL0     H73090   4.212   9.396   2.390 -0.0886  0.7707  0.1648
  530MOL0     H73091   4.112   9.490   2.276 -0.7603 -0.3232  1.3158
  530MOL0     H73092   4.310   9.269   2.182 -0.4648 -0.4181 -0.1302
  530MOL0     H73093   4.209   9.373   2.079  0.1450  1.8976  0.9545
  530MOL0     H73094   4.325   9.566   2.170  1.9450  0.1181  1.7774
  530MOL0     H73095   4.419   9.470   2.282 -4.7296 -1.2962  2.5032
  530MOL0     H73096   4.457   9.495   1.974  2.0579 -2.6545 -0.9322
  530MOL0     H73097   4.566   9.542   2.099  0.0255 -0.3688 -0.5629
  530MOL0     H73098   4.672   9.412   2.277 -0.9586 -0.0495 -0.6222
  530MOL0     H73099   5.025   9.509   2.275 -0.5848 -0.9945 -0.1101
  530MOL0     H73100   4.956   9.392   2.395 -1.7539 -2.3135 -0.3810
  530MOL0     H73101   4.868   9.540   2.331 -0.1550 -0.2701 -1.1890
  530MOL0     H73102   5.367   9.370   2.077 -0.1973  1.0284  0.5046
  530MOL0     H73103   5.600   9.293   2.098  0.1640 -3.3997  0.0766
  530MOL0     H73104   5.776   9.327   2.207  0.7767  0.7592  1.8775
  530MOL0     H73105   5.897   9.227   2.290 -0.1505  1.0249  0.0033
  530MOL0     H73106   5.792   9.022   2.171  0.4083  0.5570 -0.8568
  530MOL0     H73107   5.727   9.125   2.057 -1.8532  0.4399  2.0400
  530MOL0     H73108   6.028   9.125   2.102 -0.0645  0.6784 -1.8421
  530MOL0     H73109   5.927   9.231   1.996  2.0443 -0.2218 -1.0361
  530MOL0     H73110   5.824   9.011   1.908 -0.7307 -0.3162  1.0961
  530MOL0     H73111   5.964   8.924   1.980 -0.5885 -0.1824  0.9274
  530MOL0     H73112   5.988   9.165   1.784 -0.8776  1.1813  1.0441
  530MOL0     H73113   6.114   9.053   1.855 -1.7719 -2.2237  1.1591
  530MOL0     H73114   5.893   8.964   1.656  0.8783  2.0482 -1.1917
  530MOL0     H73115   5.999   8.852   1.743  3.8493 -0.0814 -1.3533
  530MOL0     H73116   6.198   8.908   1.625 -2.5653 -5.0877 -1.4679
  530MOL0     H73117   6.137   9.076   1.596  0.5916  0.2766  1.7482
  530MOL0     H73118   6.055   8.806   1.461  0.0764  0.1621  0.5473
  530MOL0     H73119   6.139   8.937   1.376  0.5074  4.1570  0.5175
  530MOL0     H73120   5.524   9.139   2.481 -1.4362 -1.9821  0.4369
  530MOL0     H73121   5.271   9.182   2.460 -1.2996 -0.2490 -0.9513
  530MOL0     H73122   4.932   9.182   1.934  0.1793  3.0139 -1.6636
  530MOL0     H73123   4.691   9.184   1.914  1.7918 -1.7592  0.3213
  530MOL0     H73124   3.809   9.903   1.734 -0.8334  0.2166  0.9229
  530MOL0     H73125   3.924  10.098   1.817 -0.2558  0.5297 -0.2284
  530MOL0     H73126   3.833  10.423   2.186 -2.2252 -0.3751 -0.7374
  530MOL0     H73127   3.992  10.555   2.323  4.7971  1.0560  0.2040
  530MOL0     H73128   4.003  10.808   2.357  0.0207  1.1777  2.3325
  530MOL0     H73129   4.135  10.704   2.403  1.8918  1.0065  0.5460
  530MOL0     H73130   4.296  10.898   2.377  0.0724 -0.7527 -0.7037
  530MOL0     H73131   4.171  10.943   2.492  0.0825  1.3771 -0.3585
  530MOL0     H73132   4.052  11.021   2.266 -0.7530 -1.7352  1.0617
  530MOL0     H73133   4.144  11.127   2.381 -1.0365  0.9357 -0.4632
  530MOL0     H73134   4.238  11.009   2.130  0.0027 -0.9507  2.0645
  530MOL0     H73135   4.335  11.100   2.229  0.0818  2.4312 -0.4619
  530MOL0     H73136   4.130  11.422   2.067  2.2938 -0.0233 -0.6123
  530MOL0     H73137   4.124  10.752   1.971 -1.7112  1.4912 -1.6166
  530MOL0     H73138   3.915  10.593   1.720 -1.3204  0.5396  0.8844
  530MOL0     H73139   4.047  10.693   1.771  0.7597 -0.3814 -1.7129
  530MOL0     H73140   4.073  10.516   1.754  0.6907  0.2642  0.7528
  531MOL0     O73141   4.828   1.796   9.894 -0.1854  0.4707  0.1755
  531MOL0     C73142   4.761   1.849   9.802  0.2839  0.1194 -0.0128
  531MOL0     O73143   4.792   1.967   9.738 -0.6301  0.4639 -0.5105
  531MOL0     C73144   4.922   2.000   9.750  0.1397 -1.0617  0.7646
  531MOL0     C73145   4.988   2.032   9.867 -0.4715  0.8639 -0.7078
  531MOL0     C73146   5.121   2.066   9.872 -0.1054 -0.5201 -0.3665
  531MOL0     C73147   5.195   2.083   9.759 -0.1002 -0.1708  0.6504
  531MOL0     O73148   5.323   2.123   9.784  0.3533 -0.5623 -0.3357
  531MOL0     C73149   5.399   2.188   9.677 -0.1774 -0.4480 -0.5143
  531MOL0     C73150   5.524   2.256   9.726 -0.5493 -0.0878 -0.1842
  531MOL0     C73151   5.607   2.162   9.821 -0.0709  0.2142  0.0863
  531MOL0     C73152   5.743   2.234   9.830 -0.2187 -0.4510 -1.0757
  531MOL0     C73153   5.839   2.158   9.925 -0.3063 -0.0141  1.4265
  531MOL0     C73154   5.978   2.163   9.873 -0.6446  0.9625 -0.2957
  531MOL0     C73155   6.073   2.088   9.966 -0.4758 -0.0680 -0.1673
  531MOL0     C73156   6.061   1.934   9.949  0.1945  0.0929  0.5118
  531MOL0     N73157   6.194   1.878   9.942  0.6530  0.4182 -0.1722
  531MOL0     C73158   6.220   1.748   9.886 -0.6778  0.2030  1.1199
  531MOL0     C73159   6.342   1.724   9.947 -0.0095  0.7236 -0.4032
  531MOL0     C73160   6.416   1.595   9.907 -0.1979 -0.2481  0.0417
  531MOL0     C73161   6.577   1.623   9.895 -0.5989 -0.0209  0.6053
  531MOL0     C73162   6.663   1.497   9.872  0.2304 -0.1249  0.3229
  531MOL0     C73163   6.655   1.437   9.731  1.3074 -0.0830  0.7630
  531MOL0     O73164   6.711   1.524   9.630  0.6071 -0.0183 -0.2210
  531MOL0     C73165   6.849   1.554   9.630  0.1876 -0.5029  0.2297
  531MOL0     C73166   6.947   1.475   9.688 -0.2414 -0.8489 -0.4571
  531MOL0     C73167   7.084   1.505   9.678 -0.2088  0.0322 -0.1752
  531MOL0     C73168   7.175   1.415   9.759  0.3377  0.1232 -0.2332
  531MOL0     C73169   7.128   1.603   9.582 -0.3627 -0.0949 -0.4097
  531MOL0     C73170   7.270   1.644   9.555  0.0357  0.1238 -0.6527
  531MOL0     O73171   7.363   1.600   9.632 -0.1768  0.0920 -0.3349
  531MOL0     C73172   7.494   1.639   9.607  0.0349  1.0039  0.4928
  531MOL0     C73173   7.552   1.633   9.475  0.9974 -0.3120  0.0851
  531MOL0     C73174   7.689   1.665   9.459  0.3789 -0.2753 -0.7799
  531MOL0     C73175   7.764   1.695   9.568 -0.3646 -0.8942  0.2201
  531MOL0     O73176   7.889   1.729   9.543  0.1223 -0.7105  0.0042
  531MOL0     C73177   7.922   1.862   9.590  0.5957 -0.1850 -0.0853
  531MOL0     C73178   8.042   1.907   9.510  0.0700  0.2948 -0.2708
  531MOL0     C73179   8.021   1.938   9.363 -0.1497 -0.5557 -0.4218
  531MOL0     C73180   8.139   1.925   9.271  0.1273  0.2683 -0.3752
  531MOL0     C73181   8.158   2.063   9.202 -0.3615 -0.3861 -1.0199
  531MOL0     C73182   8.252   2.156   9.280 -0.2118 -0.3709  0.4436
  531MOL0     C73183   8.404   2.130   9.289  0.0493 -0.6778 -0.3947
  531MOL0     C73184   8.467   2.258   9.335 -0.0365 -0.4346  0.9618
  531MOL0    Cl73185   8.645   2.221   9.307 -0.2881  0.3590 -0.2362
  531MOL0     C73186   7.717   1.680   9.697  0.1485 -0.2720  0.6974
  531MOL0     C73187   7.581   1.650   9.713  0.4766 -0.2587 -0.2903
  531MOL0     O73188   7.285   1.717   9.452 -0.5431  0.2272 -0.0809
  531MOL0     C73189   7.029   1.685   9.526  0.6751 -0.3469  1.3138
  531MOL0     C73190   6.893   1.659   9.546 -0.6943  0.3617 -0.6690
  531MOL0     N73191   6.376   1.821  10.034  0.2705 -0.0358 -0.6335
  531MOL0     N73192   6.293   1.919  10.024 -0.3505 -0.6284  0.3149
  531MOL0     C73193   5.128   2.072   9.639 -0.4707 -0.7828 -0.3281
  531MOL0     C73194   4.996   2.020   9.629 -0.0606  0.5101 -0.3130
  531MOL0     C73195   4.619   1.811   9.768  0.5915 -0.0611 -0.6888
  531MOL0     C73196   4.562   1.881   9.658 -0.2804 -0.0489  0.3007
  531MOL0     C73197   4.433   1.859   9.625 -0.2049 -0.4059 -0.4091
  531MOL0     C73198   4.357   1.767   9.696  0.3693  0.0879 -0.6404
  531MOL0     O73199   4.225   1.764   9.664 -0.2729 -0.1138  0.1633
  531MOL0     C73200   4.137   1.699   9.756  0.0844  0.6139  0.5310
  531MOL0     C73201   3.992   1.706   9.688  0.0614  0.7799 -0.2153
  531MOL0     C73202   3.892   1.607   9.762 -0.5622 -0.0475  0.3781
  531MOL0     C73203   3.906   1.461   9.703 -0.4012 -1.3412 -0.4278
  531MOL0     C73204   3.791   1.371   9.720 -0.7905  0.2352 -0.8966
  531MOL0     C73205   3.701   1.291   9.743  0.1749 -1.0727  0.9686
  531MOL0     C73206   4.403   1.688   9.800 -0.9413  0.1427  0.5265
  531MOL0     C73207   4.535   1.713   9.842 -0.4034  0.4788  0.6894
  531MOL0     C73208   4.586   1.642   9.971 -0.0293  0.4708  0.6270
  531MOL0     H73209   4.934   2.048   9.959  1.6071 -1.8449  1.1362
  531MOL0     H73210   5.158   2.102   9.967  0.2772  1.5786 -1.2693
  531MOL0     H73211   5.338   2.256   9.617  1.5932  1.9968  0.2852
  531MOL0     H73212   5.427   2.105   9.612  2.9797 -1.0156  1.3625
  531MOL0     H73213   5.574   2.286   9.633 -0.0526  0.0641  0.1256
  531MOL0     H73214   5.489   2.342   9.784  1.0149  1.5282 -1.5245
  531MOL0     H73215   5.552   2.152   9.915 -0.7127  0.1692 -0.2922
  531MOL0     H73216   5.627   2.067   9.770 -0.7218  0.2008 -0.1483
  531MOL0     H73217   5.785   2.240   9.729  0.4469 -0.2587 -0.7972
  531MOL0     H73218   5.729   2.331   9.878  0.7700 -1.2494  0.9698
  531MOL0     H73219   5.815   2.052   9.928 -1.2766  0.1707  0.6095
  531MOL0     H73220   5.831   2.194  10.028 -0.3638  0.4613  1.2590
  531MOL0     H73221   5.985   2.108   9.779  0.7811 -1.5785  1.1808
  531MOL0     H73222   6.022   2.260   9.849 -2.5179  1.9843  0.1659
  531MOL0     H73223   6.050   2.101  10.072 -0.5019 -1.3425 -0.0022
  531MOL0     H73224   6.177   2.117   9.949 -1.2918  1.8377 -2.4509
  531MOL0     H73225   6.007   1.900  10.039  2.6166 -1.4431  1.4911
  531MOL0     H73226   6.019   1.897   9.855  1.4594 -2.1352  0.7418
  531MOL0     H73227   6.171   1.678   9.820  1.6370  0.7847 -1.3836
  531MOL0     H73228   6.381   1.579   9.804  3.2258  0.1052 -1.3116
  531MOL0     H73229   6.395   1.510   9.972  1.1280 -0.6194  0.0112
  531MOL0     H73230   6.596   1.683   9.805 -0.9557 -0.3563  0.3018
  531MOL0     H73231   6.608   1.662   9.992  0.7209 -2.2983  1.1741
  531MOL0     H73232   6.763   1.526   9.904  0.1787  0.6719 -0.2205
  531MOL0     H73233   6.616   1.424   9.939  1.6562 -2.4528 -1.0687
  531MOL0     H73234   6.698   1.337   9.718 -3.2604 -1.8797 -4.4316
  531MOL0     H73235   6.551   1.421   9.702  1.7761  1.3713 -2.0297
  531MOL0     H73236   6.909   1.397   9.753 -1.3048  0.7478  0.9121
  531MOL0     H73237   7.237   1.352   9.694 -0.8872 -1.1166 -0.2404
  531MOL0     H73238   7.124   1.355   9.835  0.8839 -0.7435 -0.5259
  531MOL0     H73239   7.240   1.479   9.819  0.1570 -0.6725  0.8271
  531MOL0     H73240   7.498   1.598   9.388  2.0961 -0.7083 -0.4587
  531MOL0     H73241   7.729   1.666   9.358  0.6102  2.6294 -0.7453
  531MOL0     H73242   7.839   1.929   9.566  1.6027  0.8852 -0.6672
  531MOL0     H73243   7.936   1.848   9.697  2.6917 -1.1742 -0.4446
  531MOL0     H73244   8.061   2.002   9.561 -2.6676  2.1628 -2.4585
  531MOL0     H73245   8.126   1.837   9.517  0.7275  1.0714 -0.2883
  531MOL0     H73246   7.978   2.038   9.355  0.4020 -0.0145  2.3691
  531MOL0     H73247   7.942   1.869   9.330 -2.5750  1.9159 -0.1539
  531MOL0     H73248   8.116   1.836   9.212  0.4317 -0.0692  0.0036
  531MOL0     H73249   8.233   1.894   9.317  1.1836  2.3587 -0.9944
  531MOL0     H73250   8.197   2.058   9.100 -0.0535 -0.2904 -0.9091
  531MOL0     H73251   8.060   2.111   9.190  0.3507  1.3722 -0.2841
  531MOL0     H73252   8.218   2.181   9.381  2.4503  0.3388  1.2339
  531MOL0     H73253   8.249   2.247   9.220  1.0127 -0.0186  0.8949
  531MOL0     H73254   8.434   2.083   9.195 -1.1017 -1.7125 -0.2626
  531MOL0     H73255   8.432   2.058   9.366 -0.8285 -4.3721 -3.2151
  531MOL0     H73256   8.441   2.264   9.441 -0.5054  2.2928  0.7617
  531MOL0     H73257   8.440   2.352   9.286  2.9400  0.4061  0.7246
  531MOL0     H73258   7.783   1.704   9.780  3.1083 -1.7891 -1.0362
  531MOL0     H73259   7.543   1.635   9.813 -1.0941 -5.3416 -1.3205
  531MOL0     H73260   7.044   1.768   9.458  1.0177 -1.3215  0.1494
  531MOL0     H73261   6.819   1.727   9.505 -1.2343  0.9257  1.1402
  531MOL0     H73262   5.180   2.107   9.551 -0.9015 -0.2299 -0.3676
  531MOL0     H73263   4.963   1.994   9.529  2.4545 -0.0238 -1.0970
  531MOL0     H73264   4.614   1.948   9.590 -1.8470  1.2348  0.2939
  531MOL0     H73265   4.382   1.907   9.542 -0.1935  0.0870 -0.1365
  531MOL0     H73266   4.168   1.596   9.775 -1.4610 -0.0944 -0.5530
  531MOL0     H73267   4.131   1.739   9.858  0.3686 -2.1458  1.7375
  531MOL0     H73268   3.986   1.674   9.584 -1.1219 -0.9099  0.3174
  531MOL0     H73269   3.952   1.804   9.714  1.7232  1.8601 -1.5306
  531MOL0     H73270   3.927   1.619   9.865  2.6104  0.8787 -0.6932
  531MOL0     H73271   3.790   1.644   9.746 -0.9596 -0.7015  1.2891
  531MOL0     H73272   3.995   1.418   9.750  1.5634 -1.0024 -3.5246
  531MOL0     H73273   3.929   1.469   9.596 -3.4899  0.5597 -1.0726
  531MOL0     H73274   3.626   1.215   9.753  0.1790 -1.4361 -1.2169
  531MOL0     H73275   4.347   1.603   9.837 -2.0482  0.0902 -1.1680
  531MOL0     H73276   4.631   1.719  10.035 -0.3891  0.5583  0.7726
  531MOL0     H73277   4.514   1.590  10.035  0.2729  0.8774  1.3040
  531MOL0     H73278   4.654   1.567   9.929 -1.2060  0.5469 -1.5610
  532MOL0     O73279   2.334   1.386   0.473  0.3524  0.2184 -0.3759
  532MOL0     C73280   2.372   1.367   0.588 -0.8427  0.2469  0.2829
  532MOL0     O73281   2.516   1.367   0.624  0.5277  0.0137 -0.1045
  532MOL0     C73282   2.623   1.391   0.534  0.4926 -0.4086  0.2076
  532MOL0     C73283   2.752   1.333   0.550  0.7834 -0.6671 -0.4539
  532MOL0     C73284   2.861   1.373   0.477  0.9903 -0.6404  0.0824
  532MOL0     C73285   2.846   1.473   0.381  0.2741  0.4759 -0.2902
  532MOL0     O73286   2.940   1.518   0.295 -0.1080  0.0527 -0.5228
  532MOL0     C73287   3.069   1.452   0.303  0.1920 -0.7747  0.4297
  532MOL0     C73288   3.157   1.537   0.211 -0.6291  0.3313  0.1203
  532MOL0     C73289   3.285   1.462   0.173  0.6976 -0.0170 -0.4798
  532MOL0     C73290   3.356   1.548   0.069 -0.1627 -1.0252  0.2123
  532MOL0     C73291   3.475   1.467   0.012  0.4125 -0.3716 -0.1919
  532MOL0     C73292   3.593   1.443   0.110  0.1349  0.3312  0.2728
  532MOL0     C73293   3.699   1.353   0.047  0.5251 -0.2561 -0.0317
  532MOL0     C73294   3.758   1.386  -0.093 -0.1245  0.0856  0.7022
  532MOL0     N73295   3.880   1.305  -0.115 -0.8502  0.1175  0.4442
  532MOL0     C73296   3.890   1.203  -0.195 -0.7160 -0.2956  0.3744
  532MOL0     C73297   4.024   1.182  -0.222 -0.4095  0.3642  0.0750
  532MOL0     C73298   4.078   1.073  -0.315  0.4643 -0.7530 -0.0343
  532MOL0     C73299   4.232   1.086  -0.345  0.1672 -0.1571 -0.4443
  532MOL0     C73300   4.268   1.196  -0.447 -0.1561 -0.4509  0.3906
  532MOL0     C73301   4.424   1.206  -0.461  0.6839 -1.3495  0.4727
  532MOL0     O73302   4.441   1.337  -0.517 -0.1244  0.3661  0.6033
  532MOL0     C73303   4.567   1.394  -0.518 -0.0918  0.3815 -0.5119
  532MOL0     C73304   4.573   1.522  -0.580 -0.4933  0.6101  0.1235
  532MOL0     C73305   4.689   1.587  -0.599 -0.1194 -0.3522  0.0402
  532MOL0     C73306   4.698   1.726  -0.651  0.2003  0.1616 -0.0017
  532MOL0     C73307   4.814   1.522  -0.559 -0.4087  0.0922 -0.2057
  532MOL0     C73308   4.948   1.576  -0.600 -0.1548 -0.0711 -1.1304
  532MOL0     O73309   5.048   1.574  -0.513 -0.4617 -0.0946 -0.3473
  532MOL0     C73310   5.188   1.584  -0.538  0.5379  0.3527  0.9475
  532MOL0     C73311   5.279   1.553  -0.430  0.7315 -0.5890  0.6525
  532MOL0     C73312   5.413   1.551  -0.456 -0.4093 -0.8919  0.5442
  532MOL0     C73313   5.470   1.586  -0.575  0.2952 -0.1236  0.3183
  532MOL0     O73314   5.597   1.578  -0.600 -0.3077  0.7444 -0.3828
  532MOL0     C73315   5.702   1.571  -0.499  0.3904 -0.1224 -0.5875
  532MOL0     C73316   5.794   1.451  -0.509 -0.1171  1.4394  0.2618
  532MOL0     C73317   5.878   1.437  -0.636  1.4331 -0.4052  0.1361
  532MOL0     C73318   5.980   1.331  -0.604 -0.4128 -0.8319 -0.6995
  532MOL0     C73319   6.074   1.318  -0.715  0.5723 -0.1154 -0.4789
  532MOL0     C73320   6.204   1.248  -0.681  0.9492  0.4583 -0.3795
  532MOL0     C73321   6.178   1.099  -0.638 -0.3108 -0.5916 -0.3331
  532MOL0     C73322   6.308   1.028  -0.613 -0.2663  0.7677 -0.3472
  532MOL0    Cl73323   6.370   0.942  -0.750 -0.4748 -0.0210  0.0396
  532MOL0     C73324   5.388   1.627  -0.682 -0.5405  0.2516 -0.5657
  532MOL0     C73325   5.249   1.614  -0.666 -0.4073  0.3395  0.2068
  532MOL0     O73326   4.957   1.629  -0.710 -0.3491 -0.0463 -0.4597
  532MOL0     C73327   4.812   1.391  -0.498 -0.5277  0.0637  0.4354
  532MOL0     C73328   4.686   1.323  -0.493  0.2272  0.4422 -0.0577
  532MOL0     N73329   4.101   1.271  -0.147  0.2550  0.1583  0.1111
  532MOL0     N73330   4.012   1.348  -0.089  0.4804  0.4273  1.1745
  532MOL0     C73331   2.716   1.530   0.364  0.0436  0.3803  0.4689
  532MOL0     C73332   2.615   1.496   0.442  0.0339 -0.7057  0.6236
  532MOL0     C73333   2.286   1.335   0.706 -0.1148 -0.7949 -0.3291
  532MOL0     C73334   2.328   1.287   0.825 -0.1033  0.5316 -0.3951
  532MOL0     C73335   2.242   1.247   0.926 -0.2715  0.4420  0.9518
  532MOL0     C73336   2.101   1.252   0.909 -0.3297 -0.0833 -0.4477
  532MOL0     O73337   2.011   1.193   1.000  0.0627 -0.7717  0.3605
  532MOL0     C73338   2.075   1.118   1.107  0.4793 -0.7495 -0.6537
  532MOL0     C73339   1.955   1.047   1.164  0.1721  0.2805 -0.2765
  532MOL0     C73340   2.001   0.956   1.280  0.2782 -0.7139  0.6741
  532MOL0     C73341   1.879   0.862   1.307 -0.1412  0.4027 -0.3724
  532MOL0     C73342   1.915   0.776   1.422 -0.4866 -0.1591 -0.1242
  532MOL0     C73343   1.943   0.698   1.510 -0.6928  0.5024  0.1269
  532MOL0     C73344   2.054   1.318   0.796 -1.3200  0.6327 -0.5408
  532MOL0     C73345   2.144   1.360   0.699 -0.8875  0.3110  0.4346
  532MOL0     C73346   2.086   1.449   0.591 -0.3916  0.2667 -1.0107
  532MOL0     H73347   2.767   1.262   0.631  1.7393 -0.5946 -0.5574
  532MOL0     H73348   2.957   1.328   0.497  0.0388 -2.7036  0.2505
  532MOL0     H73349   3.056   1.347   0.276 -0.0136 -0.7396  0.3941
  532MOL0     H73350   3.110   1.459   0.404  1.5959  0.7051 -0.2009
  532MOL0     H73351   3.104   1.550   0.116 -0.8177  0.6829  0.2722
  532MOL0     H73352   3.176   1.637   0.251  2.5625 -0.5164  1.0244
  532MOL0     H73353   3.348   1.449   0.261 -0.9883 -0.4803  0.7064
  532MOL0     H73354   3.257   1.364   0.132  1.9828 -1.2068  1.3287
  532MOL0     H73355   3.287   1.579  -0.011  0.2983 -0.9114 -0.1458
  532MOL0     H73356   3.392   1.636   0.122 -2.0405  0.2301 -0.5288
  532MOL0     H73357   3.533   1.526  -0.060  0.4226  4.8997  3.6106
  532MOL0     H73358   3.434   1.377  -0.036 -0.0314 -0.0075 -0.4975
  532MOL0     H73359   3.638   1.535   0.148 -0.4753  0.7092  0.1015
  532MOL0     H73360   3.555   1.395   0.201 -0.8929 -2.6388 -1.5480
  532MOL0     H73361   3.649   1.256   0.047 -2.5756  1.2121  1.8947
  532MOL0     H73362   3.786   1.350   0.113  1.7871  1.9737 -1.4604
  532MOL0     H73363   3.685   1.359  -0.170  1.7272 -2.4126 -0.3353
  532MOL0     H73364   3.776   1.493  -0.080 -4.5597  0.6315  4.9801
  532MOL0     H73365   3.811   1.158  -0.253  1.3146 -2.0413 -1.2067
  532MOL0     H73366   4.020   1.057  -0.406 -0.8740  1.0692  0.4291
  532MOL0     H73367   4.066   0.987  -0.248 -2.3641  0.5636  1.3045
  532MOL0     H73368   4.272   1.101  -0.245 -2.2148 -0.4277  0.6131
  532MOL0     H73369   4.278   0.996  -0.389 -0.2507 -0.7612  0.3246
  532MOL0     H73370   4.228   1.178  -0.547 -0.8744 -3.0387  1.0795
  532MOL0     H73371   4.226   1.292  -0.414 -0.0700  0.1326 -1.0901
  532MOL0     H73372   4.450   1.218  -0.355  2.2933  5.6686 -0.1856
  532MOL0     H73373   4.473   1.118  -0.503 -2.5602 -1.9947 -2.4239
  532MOL0     H73374   4.488   1.584  -0.607 -0.1563  0.8619 -0.3833
  532MOL0     H73375   4.787   1.785  -0.628  0.5907 -0.2344 -0.4793
  532MOL0     H73376   4.622   1.792  -0.608  0.3651  0.9525 -0.8940
  532MOL0     H73377   4.695   1.721  -0.761  0.0788  0.5761 -0.0176
  532MOL0     H73378   5.240   1.531  -0.331 -0.1146 -0.9384  0.2531
  532MOL0     H73379   5.475   1.523  -0.372 -1.6309  0.4064  1.9274
  532MOL0     H73380   5.771   1.655  -0.511  1.4663 -0.9930 -0.7034
  532MOL0     H73381   5.659   1.584  -0.399 -2.9497 -1.5732 -1.7117
  532MOL0     H73382   5.862   1.456  -0.423  0.4465  1.4785 -0.1750
  532MOL0     H73383   5.738   1.358  -0.507 -0.7164  1.8029  0.8251
  532MOL0     H73384   5.918   1.537  -0.656  0.2074  0.4611  1.7355
  532MOL0     H73385   5.809   1.401  -0.713 -0.3901  1.1756  0.9281
  532MOL0     H73386   5.918   1.241  -0.600 -1.6538  0.0248 -0.0744
  532MOL0     H73387   6.029   1.366  -0.513 -0.8726 -1.1933 -0.3090
  532MOL0     H73388   6.017   1.274  -0.797 -3.2883  1.5323  1.0957
  532MOL0     H73389   6.099   1.414  -0.761  0.5435  1.1155  1.9351
  532MOL0     H73390   6.245   1.309  -0.599  1.2968  0.3691 -0.4842
  532MOL0     H73391   6.273   1.258  -0.765  1.1107  2.7080 -0.0419
  532MOL0     H73392   6.142   1.046  -0.727 -1.2848  1.1957 -1.0476
  532MOL0     H73393   6.105   1.085  -0.557  0.3772 -2.4744  0.0158
  532MOL0     H73394   6.276   0.958  -0.535 -1.6863  0.3530 -1.2652
  532MOL0     H73395   6.385   1.094  -0.571  1.6339 -0.3767 -1.8546
  532MOL0     H73396   5.417   1.642  -0.786 -0.9529 -1.8077 -1.0355
  532MOL0     H73397   5.189   1.630  -0.756 -1.9819 -0.0271  1.1516
  532MOL0     H73398   4.902   1.343  -0.461 -1.3822  0.3857  3.1345
  532MOL0     H73399   4.685   1.221  -0.458 -2.4502  0.8373  1.3482
  532MOL0     H73400   2.702   1.614   0.296 -1.8980 -0.2848 -0.0170
  532MOL0     H73401   2.521   1.545   0.420 -0.2015 -0.7822  1.4471
  532MOL0     H73402   2.433   1.283   0.853 -0.7068  2.2454  2.5229
  532MOL0     H73403   2.290   1.212   1.016  0.3673 -1.6515 -0.1573
  532MOL0     H73404   2.156   1.049   1.079  0.4681 -2.4496  3.0028
  532MOL0     H73405   2.111   1.183   1.187 -2.1110 -1.0675  0.8588
  532MOL0     H73406   1.892   0.992   1.093 -2.8424  0.0565  2.3628
  532MOL0     H73407   1.892   1.124   1.208  2.8859  0.8856  2.9494
  532MOL0     H73408   2.094   0.903   1.255  1.6953  1.3387  1.3824
  532MOL0     H73409   2.012   1.015   1.371 -4.1430  0.4509  0.6781
  532MOL0     H73410   1.858   0.790   1.227  1.1784 -1.6284  1.0014
  532MOL0     H73411   1.792   0.922   1.335  1.3322  2.4724  0.0005
  532MOL0     H73412   1.971   0.618   1.576  0.8895  1.0946  0.2091
  532MOL0     H73413   1.946   1.325   0.783 -1.4789 -2.0311 -1.2058
  532MOL0     H73414   2.070   1.391   0.499 -3.3395  2.8203 -2.2669
  532MOL0     H73415   1.988   1.482   0.626 -0.1985 -0.8366  0.7023
  532MOL0     H73416   2.139   1.543   0.575  2.0850 -0.6843  0.9398
  533MOL0     O73417   2.552   0.319   2.858  1.0271  0.2036  0.1253
  533MOL0     C73418   2.514   0.294   2.754  0.6154  0.1551  0.8453
  533MOL0     O73419   2.510   0.387   2.654  0.2308  0.5557  0.3834
  533MOL0     C73420   2.506   0.517   2.681 -0.8676  0.6295  0.8171
  533MOL0     C73421   2.438   0.578   2.791  0.0382  0.5153  1.0306
  533MOL0     C73422   2.420   0.711   2.803 -0.2422  0.1091  0.5946
  533MOL0     C73423   2.469   0.797   2.702  0.3180  0.1326  0.0226
  533MOL0     O73424   2.444   0.933   2.710 -0.6995 -0.1458 -0.0154
  533MOL0     C73425   2.399   1.009   2.593  0.1212  0.0534 -0.3749
  533MOL0     C73426   2.270   1.076   2.612  0.0311 -0.3244 -0.3287
  533MOL0     C73427   2.160   0.975   2.583 -0.3917  0.7198 -0.8556
  533MOL0     C73428   2.032   1.048   2.629  0.0219 -0.4738  0.3014
  533MOL0     C73429   1.909   0.951   2.621  0.5825 -0.3238 -1.0618
  533MOL0     C73430   1.800   1.002   2.719 -0.6594 -0.3759 -0.4774
  533MOL0     C73431   1.677   0.911   2.740  0.2512  0.1125  0.1630
  533MOL0     C73432   1.601   0.949   2.868 -0.0190  0.5257 -1.4847
  533MOL0     N73433   1.530   1.073   2.842 -0.4076 -0.5681  0.3648
  533MOL0     C73434   1.398   1.063   2.819  0.6266 -0.7156 -0.5774
  533MOL0     C73435   1.345   1.191   2.844 -0.0650 -0.2966  0.2957
  533MOL0     C73436   1.207   1.246   2.809  0.1771 -0.3701 -0.4091
  533MOL0     C73437   1.093   1.170   2.875  0.7352  0.5866 -0.5523
  533MOL0     C73438   0.956   1.205   2.825 -0.2606  0.6876  0.1265
  533MOL0     C73439   0.850   1.144   2.913  0.1436  0.0811  0.2212
  533MOL0     O73440   0.723   1.179   2.855  0.0151  0.5197 -0.2827
  533MOL0     C73441   0.626   1.169   2.942  0.1190  0.0815 -0.0243
  533MOL0     C73442   0.583   1.051   2.997 -1.0917  0.6654 -0.2196
  533MOL0     C73443   0.485   1.042   3.094 -0.0088 -0.6319 -0.1264
  533MOL0     C73444   0.451   0.905   3.154 -0.6562 -0.3302  1.1936
  533MOL0     C73445   0.422   1.165   3.139  1.0679  0.6321 -0.0830
  533MOL0     C73446   0.328   1.178   3.242  0.0089  0.3769 -0.9490
  533MOL0     O73447   0.260   1.071   3.284  0.0096  0.2515 -0.1185
  533MOL0     C73448   0.161   1.091   3.365  0.1753 -0.5940 -1.2562
  533MOL0     C73449   0.030   1.066   3.315  0.2369 -0.4918  0.2614
  533MOL0     C73450  -0.087   1.093   3.388 -0.9375  0.0824 -0.3465
  533MOL0     C73451  -0.067   1.134   3.523  0.7066  0.7388 -0.9695
  533MOL0     O73452  -0.183   1.146   3.602 -0.3996 -0.9348  0.0032
  533MOL0     C73453  -0.183   1.243   3.700  0.4990 -0.9272 -0.0204
  533MOL0     C73454  -0.209   1.384   3.630 -0.7905  0.3090 -0.6041
  533MOL0     C73455  -0.359   1.392   3.609  1.6078 -0.1057 -0.2454
  533MOL0     C73456  -0.420   1.470   3.729 -0.1377  0.0119 -0.3128
  533MOL0     C73457  -0.553   1.524   3.697  0.7029 -0.3236 -0.2799
  533MOL0     C73458  -0.611   1.625   3.804 -1.2686  0.6885  0.8429
  533MOL0     C73459  -0.666   1.557   3.933 -0.2900 -0.3888  0.4781
  533MOL0     C73460  -0.687   1.663   4.040  0.5189 -0.3523 -0.8902
  533MOL0    Cl73461  -0.802   1.789   3.995  0.0056  0.4687  0.0475
  533MOL0     C73462   0.061   1.149   3.580 -0.8430 -0.2701 -0.9632
  533MOL0     C73463   0.174   1.123   3.504  0.2901  0.2937 -0.1335
  533MOL0     O73464   0.310   1.291   3.295 -0.3495  0.5824  0.2651
  533MOL0     C73465   0.458   1.280   3.078  0.8449 -0.0334  0.0439
  533MOL0     C73466   0.564   1.288   2.992  0.4315  0.6924  0.0969
  533MOL0     N73467   1.452   1.271   2.885 -0.3932 -0.0926  0.0206
  533MOL0     N73468   1.560   1.199   2.894 -0.3127  0.5863  0.0319
  533MOL0     C73469   2.539   0.740   2.590 -0.1092  0.0736  0.3541
  533MOL0     C73470   2.565   0.595   2.581  0.4659  0.6581  0.4182
  533MOL0     C73471   2.467   0.155   2.712  0.6759 -0.9591  0.4688
  533MOL0     C73472   2.429   0.143   2.575 -0.4130  0.1224  0.5594
  533MOL0     C73473   2.365   0.027   2.535 -0.4389  0.2966  0.3400
  533MOL0     C73474   2.337  -0.074   2.622  0.1632  0.2527  0.3244
  533MOL0     O73475   2.271  -0.198   2.580  0.2964 -0.1409 -0.9728
  533MOL0     C73476   2.257  -0.227   2.446 -0.2171 -0.4961 -0.7349
  533MOL0     C73477   2.141  -0.144   2.383 -0.5252  0.8745 -0.6413
  533MOL0     C73478   2.000  -0.188   2.430 -0.0667 -0.7959  0.0970
  533MOL0     C73479   1.905  -0.143   2.322  0.6801 -0.1869  0.8956
  533MOL0     C73480   1.765  -0.189   2.364  0.0852  0.3409 -0.4867
  533MOL0     C73481   1.648  -0.209   2.392  0.6113  0.3721 -0.7826
  533MOL0     C73482   2.380  -0.067   2.752  0.6136 -0.3743 -0.1145
  533MOL0     C73483   2.443   0.040   2.799  0.4108 -0.1147 -0.2382
  533MOL0     C73484   2.494   0.026   2.940  0.4102  0.0198 -0.1773
  533MOL0     H73485   2.384   0.506   2.851  0.6440 -2.0192 -1.2764
  533MOL0     H73486   2.365   0.758   2.883  0.6727  0.9397  0.7473
  533MOL0     H73487   2.387   0.950   2.502 -0.3531 -1.6456  0.7573
  533MOL0     H73488   2.467   1.088   2.560  1.6069 -1.7657 -1.8655
  533MOL0     H73489   2.256   1.125   2.709 -4.2994 -0.4115 -0.6893
  533MOL0     H73490   2.255   1.160   2.544  0.7102 -0.0123 -0.1030
  533MOL0     H73491   2.155   0.945   2.478  0.1182 -1.2280 -0.3741
  533MOL0     H73492   2.183   0.889   2.647  2.8530  0.6937 -1.8680
  533MOL0     H73493   2.032   1.088   2.731 -0.7979 -2.1163  0.9881
  533MOL0     H73494   2.021   1.129   2.556  1.0736  0.2125  0.8841
  533MOL0     H73495   1.938   0.848   2.640 -0.2944 -0.4895 -0.5575
  533MOL0     H73496   1.857   0.960   2.526 -1.8753  4.3615  0.3775
  533MOL0     H73497   1.845   1.019   2.817  0.1138 -0.5290 -0.8011
  533MOL0     H73498   1.764   1.096   2.676 -1.6950 -1.2363 -1.5936
  533MOL0     H73499   1.713   0.808   2.740 -0.5953 -0.2222 -1.7822
  533MOL0     H73500   1.621   0.912   2.646  1.9117 -1.0868 -0.9027
  533MOL0     H73501   1.537   0.864   2.892  0.6674  0.5279  0.5208
  533MOL0     H73502   1.667   0.973   2.952 -1.3818  1.0576 -0.5389
  533MOL0     H73503   1.346   0.975   2.782 -0.6925 -0.5241  0.7504
  533MOL0     H73504   1.193   1.246   2.700 -3.4178 -0.5265 -0.0621
  533MOL0     H73505   1.206   1.351   2.836  1.4962  0.2388 -2.4538
  533MOL0     H73506   1.108   1.062   2.869 -1.5268  0.2685 -1.5655
  533MOL0     H73507   1.098   1.192   2.982 -1.3893 -0.2241 -0.2358
  533MOL0     H73508   0.942   1.313   2.839 -1.9705  0.2750  2.0473
  533MOL0     H73509   0.944   1.179   2.719 -0.5839  0.9647  0.0936
  533MOL0     H73510   0.862   1.036   2.897  0.9368  0.0509  0.9571
  533MOL0     H73511   0.877   1.169   3.016  3.1400  0.0769 -0.4514
  533MOL0     H73512   0.642   0.961   2.980 -1.4134  0.4436 -0.1687
  533MOL0     H73513   0.455   0.914   3.263 -4.4215  2.4455  1.3234
  533MOL0     H73514   0.497   0.819   3.105 -2.8539 -2.0356  1.9486
  533MOL0     H73515   0.344   0.891   3.139 -0.4662 -0.2703 -0.3836
  533MOL0     H73516   0.018   1.041   3.210 -0.0223  0.8678 -0.0469
  533MOL0     H73517  -0.190   1.086   3.355 -1.3291  1.1488  0.5847
  533MOL0     H73518  -0.265   1.223   3.770 -2.2016  2.1705 -1.9609
  533MOL0     H73519  -0.087   1.258   3.749  1.1366 -2.5748 -0.6974
  533MOL0     H73520  -0.165   1.468   3.684 -1.0329  2.4759 -3.4961
  533MOL0     H73521  -0.164   1.403   3.532 -2.8355  3.0017 -1.1299
  533MOL0     H73522  -0.410   1.296   3.599 -0.7885  0.6090  3.3647
  533MOL0     H73523  -0.389   1.447   3.519 -1.2659 -0.6729  0.2769
  533MOL0     H73524  -0.363   1.555   3.768 -0.7955  0.6520 -0.7044
  533MOL0     H73525  -0.434   1.395   3.808  0.3079  2.4566  2.2493
  533MOL0     H73526  -0.549   1.588   3.608  0.6059  2.1310  1.4009
  533MOL0     H73527  -0.623   1.442   3.674 -0.3583  0.8661 -1.4327
  533MOL0     H73528  -0.699   1.669   3.755 -1.4291 -0.3282  0.1709
  533MOL0     H73529  -0.541   1.703   3.834 -1.8285  1.4760  0.1388
  533MOL0     H73530  -0.592   1.483   3.966  0.3380  0.2716  0.5889
  533MOL0     H73531  -0.754   1.498   3.906  0.7640 -1.2272 -1.3216
  533MOL0     H73532  -0.596   1.703   4.086 -0.9628  2.0109  0.1854
  533MOL0     H73533  -0.727   1.600   4.120  1.0695  2.7794  2.0308
  533MOL0     H73534   0.069   1.178   3.684 -0.6969  0.0276 -1.0558
  533MOL0     H73535   0.273   1.119   3.547  0.0651  2.5003  0.7599
  533MOL0     H73536   0.409   1.374   3.102 -2.3376 -2.0016  1.7696
  533MOL0     H73537   0.605   1.383   2.960  1.5930 -0.1760 -1.1177
  533MOL0     H73538   2.570   0.801   2.505  0.0618 -0.0620  0.3181
  533MOL0     H73539   2.622   0.558   2.497  0.3525  1.9850 -0.2667
  533MOL0     H73540   2.441   0.227   2.508  2.7626 -0.9588 -0.4453
  533MOL0     H73541   2.357   0.033   2.427  1.3641  0.4649  0.1739
  533MOL0     H73542   2.352  -0.214   2.392  0.6430  1.8995  1.2055
  533MOL0     H73543   2.228  -0.332   2.437  2.3103 -1.4301  0.9930
  533MOL0     H73544   2.156  -0.156   2.275  1.7544 -2.5397 -0.1212
  533MOL0     H73545   2.147  -0.036   2.398  1.9814  0.6975  0.1627
  533MOL0     H73546   2.002  -0.298   2.432  0.7081 -0.8771 -2.0682
  533MOL0     H73547   1.960  -0.139   2.518  2.9319  0.1680  1.0417
  533MOL0     H73548   1.930  -0.184   2.224  0.3508 -0.0263  0.7438
  533MOL0     H73549   1.916  -0.035   2.315  0.2974 -0.2517 -1.4655
  533MOL0     H73550   1.551  -0.228   2.432  0.7425 -0.0286 -0.6594
  533MOL0     H73551   2.359  -0.156   2.811 -1.4393  1.0417  1.4515
  533MOL0     H73552   2.462  -0.069   2.986 -0.7779  0.5970  0.2432
  533MOL0     H73553   2.602   0.017   2.932  0.2877 -1.1318 -0.6978
  533MOL0     H73554   2.479   0.108   3.011 -0.3395 -0.2025 -0.0698
  534MOL0     O73555  10.899   4.332   5.715  0.6134 -0.0135  0.5292
  534MOL0     C73556  10.836   4.252   5.777 -0.0753 -0.0855  0.1616
  534MOL0     O73557  10.879   4.191   5.893  0.4655 -0.7086 -0.3187
  534MOL0     C73558  10.989   4.226   5.965  0.8210 -0.6337  0.5224
  534MOL0     C73559  11.050   4.124   6.034 -0.7248 -0.2651 -0.2511
  534MOL0     C73560  11.151   4.147   6.127 -0.3010 -0.4705 -0.6160
  534MOL0     C73561  11.197   4.283   6.151  0.0791  0.1538 -1.4799
  534MOL0     O73562  11.303   4.314   6.229 -0.0555  0.2444 -1.1516
  534MOL0     C73563  11.317   4.243   6.352  1.5625  0.5193  0.0855
  534MOL0     C73564  11.410   4.322   6.435 -0.8113 -0.5748 -0.0455
  534MOL0     C73565  11.563   4.286   6.427  0.6878  0.0017  0.1447
  534MOL0     C73566  11.639   4.373   6.525  0.0452 -1.0371  0.4014
  534MOL0     C73567  11.785   4.327   6.530  0.4153 -0.0805  0.7270
  534MOL0     C73568  11.859   4.350   6.396 -0.4145  0.4759 -0.1036
  534MOL0     C73569  12.012   4.336   6.410  0.2072  0.0672 -0.2100
  534MOL0     C73570  12.053   4.196   6.465  0.3602 -0.4701 -0.0173
  534MOL0     N73571  12.176   4.138   6.425 -0.4247 -0.0793 -0.4036
  534MOL0     C73572  12.301   4.185   6.460 -0.7725  0.2743 -0.0176
  534MOL0     C73573  12.386   4.094   6.421 -0.5119 -0.9919  0.4960
  534MOL0     C73574  12.533   4.091   6.444 -0.0839  0.8395  0.1202
  534MOL0     C73575  12.617   4.011   6.339  0.0622  1.5528  0.2428
  534MOL0     C73576  12.757   3.982   6.393  0.3829  0.6250  0.2518
  534MOL0     C73577  12.853   3.936   6.285 -0.6354  0.3902  0.7943
  534MOL0     O73578  12.989   3.946   6.333 -0.8246  0.0209  0.6232
  534MOL0     C73579  13.087   3.870   6.261  0.3424  0.7518  0.1526
  534MOL0     C73580  13.221   3.860   6.304  0.8568 -0.0200 -0.3027
  534MOL0     C73581  13.323   3.788   6.248  0.5369 -0.2191 -0.3692
  534MOL0     C73582  13.454   3.794   6.320  0.2420  0.0471 -0.0293
  534MOL0     C73583  13.293   3.718   6.127  0.4612  1.6319  0.0152
  534MOL0     C73584  13.398   3.623   6.060  0.6495 -0.4298 -0.0282
  534MOL0     O73585  13.353   3.551   5.955  0.0577 -0.2558 -0.9226
  534MOL0     C73586  13.453   3.481   5.887  0.6443 -0.2458  0.1203
  534MOL0     C73587  13.498   3.535   5.766  0.3344  0.4339 -0.3282
  534MOL0     C73588  13.597   3.474   5.696  0.1624  0.3517  0.3486
  534MOL0     C73589  13.667   3.358   5.754 -0.2262 -0.3684  0.5977
  534MOL0     O73590  13.783   3.304   5.706 -0.0362  0.0596 -0.1734
  534MOL0     C73591  13.762   3.182   5.638  0.9194  0.4432 -0.2386
  534MOL0     C73592  13.895   3.144   5.570 -0.5782 -0.3845 -0.7429
  534MOL0     C73593  13.893   3.023   5.478  0.1713  0.2970  0.3807
  534MOL0     C73594  14.029   2.997   5.416  0.5006  0.4613 -0.0343
  534MOL0     C73595  14.017   2.880   5.315  0.0200  0.5995 -0.1452
  534MOL0     C73596  14.164   2.855   5.267 -0.1248  0.9325 -0.0070
  534MOL0     C73597  14.231   2.973   5.188 -0.5741  1.2658  0.5203
  534MOL0     C73598  14.367   2.927   5.117  0.0614  0.5547 -0.0341
  534MOL0    Cl73599  14.497   2.879   5.235  0.1468  0.0544 -0.2220
  534MOL0     C73600  13.617   3.303   5.870 -0.3572 -0.0395 -0.1413
  534MOL0     C73601  13.522   3.370   5.945 -0.9079  0.3293  0.4915
  534MOL0     O73602  13.503   3.606   6.117 -0.1738  0.6443  0.2829
  534MOL0     C73603  13.164   3.723   6.075  0.6438 -0.3019 -0.5124
  534MOL0     C73604  13.063   3.795   6.142 -0.1955 -0.9106 -0.2364
  534MOL0     N73605  12.313   3.999   6.347 -0.3049 -0.0299 -0.7915
  534MOL0     N73606  12.191   4.027   6.351  0.3431 -0.1965  0.2552
  534MOL0     C73607  11.136   4.388   6.082 -0.6250 -0.5870 -0.1879
  534MOL0     C73608  11.028   4.361   5.994 -0.6088  0.2585 -0.3273
  534MOL0     C73609  10.720   4.186   5.709  0.4855  0.8137  0.2821
  534MOL0     C73610  10.697   4.050   5.747  0.2174 -0.9468 -0.2377
  534MOL0     C73611  10.594   3.978   5.698 -0.1134  0.7628  0.6103
  534MOL0     C73612  10.509   4.034   5.601  0.0512  0.9251  0.1468
  534MOL0     O73613  10.384   3.961   5.561 -0.2682  0.5103  0.8710
  534MOL0     C73614  10.370   3.819   5.589  0.6352 -0.0425  0.0806
  534MOL0     C73615  10.235   3.761   5.551 -0.0901 -1.1968 -0.0905
  534MOL0     C73616  10.121   3.863   5.601 -0.8118 -0.1185 -0.2130
  534MOL0     C73617  10.111   3.883   5.757  0.1091  1.0556 -0.1308
  534MOL0     C73618  10.079   3.754   5.825 -0.3835  0.3276 -0.0216
  534MOL0     C73619  10.049   3.647   5.863  0.3517 -0.8571  0.4318
  534MOL0     C73620  10.531   4.167   5.570 -0.1376  0.4763  0.1495
  534MOL0     C73621  10.628   4.248   5.619 -1.1246 -0.2111 -0.1437
  534MOL0     C73622  10.642   4.392   5.578  0.2065  0.2737  0.5721
  534MOL0     H73623  11.003   4.027   6.023 -0.4472 -0.3598 -0.6038
  534MOL0     H73624  11.194   4.061   6.176  1.8743  1.4892  1.1466
  534MOL0     H73625  11.357   4.141   6.349  0.0889 -0.1020  0.7360
  534MOL0     H73626  11.216   4.234   6.392  1.0098  1.4522 -1.0339
  534MOL0     H73627  11.401   4.428   6.409  1.1319 -0.5506 -0.7399
  534MOL0     H73628  11.378   4.307   6.539  0.4706  2.6480  0.9476
  534MOL0     H73629  11.588   4.179   6.436  1.9368  0.2442 -0.2942
  534MOL0     H73630  11.590   4.302   6.322  5.1560  0.4107  1.1561
  534MOL0     H73631  11.647   4.478   6.496  2.9053 -1.9336 -2.6739
  534MOL0     H73632  11.597   4.368   6.626 -1.3494  3.4656  0.2550
  534MOL0     H73633  11.792   4.219   6.548 -2.3260 -0.3346  0.6516
  534MOL0     H73634  11.837   4.387   6.605 -0.7875  1.1991  0.5731
  534MOL0     H73635  11.821   4.282   6.319 -2.6962  0.6899  0.7458
  534MOL0     H73636  11.837   4.446   6.348 -0.6375 -0.3544 -1.7250
  534MOL0     H73637  12.041   4.416   6.478  0.7495 -0.6618  0.4344
  534MOL0     H73638  12.055   4.359   6.313 -1.6826 -1.1308 -1.4021
  534MOL0     H73639  12.053   4.194   6.575  1.5875 -1.7330 -0.0233
  534MOL0     H73640  11.976   4.120   6.448  0.9963 -1.0610 -0.3205
  534MOL0     H73641  12.327   4.278   6.510 -1.0851  0.1972  0.2998
  534MOL0     H73642  12.558   4.056   6.545 -1.5418  0.5470  0.3980
  534MOL0     H73643  12.561   4.196   6.434  1.1845  0.3998 -1.2302
  534MOL0     H73644  12.560   3.920   6.316  0.3901  1.3833  0.0899
  534MOL0     H73645  12.618   4.071   6.248  1.5077  0.6840 -0.3379
  534MOL0     H73646  12.790   4.074   6.443  0.2534  0.0255  1.4674
  534MOL0     H73647  12.767   3.898   6.462 -1.6508 -0.2371 -0.4488
  534MOL0     H73648  12.823   3.832   6.266 -0.0106  0.3874 -0.2727
  534MOL0     H73649  12.847   3.981   6.185 -0.6679 -0.9544  0.1583
  534MOL0     H73650  13.237   3.914   6.397  0.9470 -0.0647 -0.2931
  534MOL0     H73651  13.459   3.705   6.384  0.0434 -0.7766 -1.1388
  534MOL0     H73652  13.458   3.880   6.387  1.7888  2.0051 -2.4424
  534MOL0     H73653  13.541   3.808   6.255 -0.6070 -1.0809 -1.4485
  534MOL0     H73654  13.461   3.629   5.725  1.7676  2.3784  2.4799
  534MOL0     H73655  13.636   3.519   5.605  1.0489  0.5883  0.8253
  534MOL0     H73656  13.735   3.105   5.711  3.4862 -0.5093 -0.1874
  534MOL0     H73657  13.685   3.193   5.562  2.0736 -0.3776 -1.5863
  534MOL0     H73658  13.925   3.232   5.512 -3.3848  2.1966  1.3790
  534MOL0     H73659  13.975   3.142   5.645 -1.8371 -0.9146  0.6323
  534MOL0     H73660  13.815   3.026   5.402  0.4924 -1.4333 -0.0638
  534MOL0     H73661  13.870   2.936   5.541  1.8234 -1.1886 -0.9609
  534MOL0     H73662  14.104   2.978   5.494  0.8344  0.5975 -0.3227
  534MOL0     H73663  14.067   3.086   5.365  2.4833 -2.0591 -3.3285
  534MOL0     H73664  13.975   2.787   5.353 -2.0796  2.2383  1.8355
  534MOL0     H73665  13.955   2.892   5.226  0.9806 -0.2573 -0.9622
  534MOL0     H73666  14.167   2.777   5.191  3.2584  0.1409  0.7663
  534MOL0     H73667  14.229   2.825   5.349 -1.0801 -2.4638 -0.3489
  534MOL0     H73668  14.275   3.051   5.252  0.9724  1.5240 -0.7850
  534MOL0     H73669  14.155   3.021   5.127 -1.7902  1.0556  1.8222
  534MOL0     H73670  14.411   3.016   5.070  2.3266  1.1258  2.8757
  534MOL0     H73671  14.349   2.839   5.054 -1.2454 -0.5350  1.7617
  534MOL0     H73672  13.661   3.213   5.912 -1.6794 -0.8462 -0.4235
  534MOL0     H73673  13.511   3.340   6.049  0.6916  1.9188  1.1532
  534MOL0     H73674  13.130   3.674   5.984  2.6294 -0.7597 -1.0569
  534MOL0     H73675  12.962   3.785   6.103 -1.1680 -0.6768  2.0353
  534MOL0     H73676  11.160   4.492   6.099  1.0731 -1.1330  1.0354
  534MOL0     H73677  10.970   4.445   5.955 -0.9115 -0.9542 -2.6751
  534MOL0     H73678  10.763   4.002   5.818 -0.8237  2.9943  3.8132
  534MOL0     H73679  10.581   3.878   5.738 -0.5878  1.2147  1.6197
  534MOL0     H73680  10.449   3.754   5.550 -0.1939 -0.5894 -0.7430
  534MOL0     H73681  10.386   3.811   5.697  3.6561 -2.7401 -0.3875
  534MOL0     H73682  10.219   3.660   5.590  3.0847 -2.6356 -2.0827
  534MOL0     H73683  10.232   3.759   5.442 -0.5319 -1.0300 -0.0839
  534MOL0     H73684  10.127   3.957   5.546  0.6526 -1.1745 -1.9935
  534MOL0     H73685  10.025   3.817   5.574 -0.9485 -0.7723  1.2823
  534MOL0     H73686  10.040   3.958   5.791  1.5109  1.9346  0.9502
  534MOL0     H73687  10.212   3.909   5.790 -0.0617  2.0085 -0.3315
  534MOL0     H73688  10.019   3.548   5.889 -1.8146 -1.1353 -2.5918
  534MOL0     H73689  10.466   4.210   5.494  0.3975 -1.6690 -1.6333
  534MOL0     H73690  10.556   4.436   5.526  2.6718  2.2705 -2.2413
  534MOL0     H73691  10.668   4.470   5.650  1.1523 -0.0442  0.5864
  534MOL0     H73692  10.728   4.396   5.510  1.9750 -2.0786  2.4882
  535MOL0     O73693   1.577   8.994   1.054 -0.8725  0.5628  0.1298
  535MOL0     C73694   1.577   9.004   0.935  0.4407  0.9219  0.1399
  535MOL0     O73695   1.678   8.965   0.853  0.3605  1.2306  0.4678
  535MOL0     C73696   1.800   8.937   0.910 -0.0353 -0.3395 -0.6875
  535MOL0     C73697   1.869   9.038   0.980 -0.3351 -0.8580 -0.0638
  535MOL0     C73698   1.993   9.013   1.040  0.4442  0.3796  0.6664
  535MOL0     C73699   2.056   8.890   1.026  0.7849  0.1379  0.1804
  535MOL0     O73700   2.184   8.883   1.064 -0.3190  0.7341 -0.4026
  535MOL0     C73701   2.256   8.764   1.025 -0.0213  0.0905  0.7273
  535MOL0     C73702   2.397   8.765   1.074  0.6504  0.7987  1.0939
  535MOL0     C73703   2.508   8.869   1.041 -0.4764  0.4387  0.0556
  535MOL0     C73704   2.520   8.892   0.888 -0.0632  0.3433  0.4611
  535MOL0     C73705   2.647   8.972   0.857 -0.2105  0.6612  0.3643
  535MOL0     C73706   2.639   9.067   0.734  0.6974  0.2455 -0.1839
  535MOL0     C73707   2.763   9.144   0.702 -1.0428  0.5945  0.4023
  535MOL0     C73708   2.759   9.218   0.569 -0.5684 -0.5641 -0.4544
  535MOL0     N73709   2.894   9.287   0.558 -0.2221  0.6853  0.7681
  535MOL0     C73710   2.977   9.271   0.454 -0.0622 -0.1091  1.3379
  535MOL0     C73711   3.078   9.347   0.475 -0.0374 -0.3841  0.1289
  535MOL0     C73712   3.207   9.352   0.390  0.9525  0.6432  1.0000
  535MOL0     C73713   3.328   9.365   0.479  0.4037 -0.0703  0.3306
  535MOL0     C73714   3.450   9.400   0.396  0.3917  0.0987  0.0216
  535MOL0     C73715   3.576   9.381   0.477  0.0526  0.0162 -0.4442
  535MOL0     O73716   3.691   9.433   0.410 -0.0133  0.2831 -0.3153
  535MOL0     C73717   3.818   9.436   0.465 -0.1151 -0.0593 -0.6779
  535MOL0     C73718   3.849   9.389   0.584 -0.1632 -0.7074 -0.2878
  535MOL0     C73719   3.983   9.393   0.627  0.3577  0.2540 -0.6687
  535MOL0     C73720   4.020   9.306   0.748  0.8616  0.7086 -0.0427
  535MOL0     C73721   4.083   9.460   0.549  0.2569  0.3007 -0.0750
  535MOL0     C73722   4.216   9.490   0.596 -0.1959 -0.0479  0.5841
  535MOL0     O73723   4.309   9.528   0.498 -0.3660  0.2120  0.3665
  535MOL0     C73724   4.431   9.573   0.538  0.0465  0.6188  0.4756
  535MOL0     C73725   4.452   9.705   0.549  0.9823  0.2195  0.1453
  535MOL0     C73726   4.577   9.764   0.575 -0.4382  0.6076 -0.7176
  535MOL0     C73727   4.684   9.679   0.606  0.3246  0.3476  0.4333
  535MOL0     O73728   4.804   9.730   0.648  0.4529 -0.2059 -0.4757
  535MOL0     C73729   4.806   9.854   0.712  0.0629  0.1183 -0.4539
  535MOL0     C73730   4.948   9.878   0.772 -0.4778  0.4181 -0.3607
  535MOL0     C73731   4.959  10.032   0.785  0.2462  0.9257  0.3351
  535MOL0     C73732   5.100  10.068   0.820 -0.0376 -0.1023 -0.1330
  535MOL0     C73733   5.136  10.217   0.791  0.4397  0.5529 -0.3538
  535MOL0     C73734   5.151  10.250   0.647  0.4701  0.8619  0.1022
  535MOL0     C73735   5.170  10.403   0.614  0.2735  0.7734 -0.1136
  535MOL0     C73736   5.178  10.430   0.465  0.1093  0.0480 -0.0728
  535MOL0    Cl73737   5.342  10.368   0.427 -0.1889  0.0634 -0.2277
  535MOL0     C73738   4.674   9.544   0.577 -0.3228  0.3920 -0.3468
  535MOL0     C73739   4.548   9.489   0.540 -0.0364 -0.2848  0.1753
  535MOL0     O73740   4.256   9.478   0.714  0.5786  0.3145 -0.1268
  535MOL0     C73741   4.040   9.501   0.423 -0.4271 -0.0769 -0.3442
  535MOL0     C73742   3.914   9.486   0.385 -0.6362  0.3338  0.7017
  535MOL0     N73743   3.052   9.424   0.592  0.0695  0.1162 -0.4778
  535MOL0     N73744   2.947   9.379   0.653  0.5161  0.0198  0.4800
  535MOL0     C73745   1.987   8.788   0.952 -0.5597  0.1457  0.7375
  535MOL0     C73746   1.862   8.812   0.897 -0.5020 -0.1546 -1.2015
  535MOL0     C73747   1.451   9.060   0.874 -0.5513  0.9201 -1.0877
  535MOL0     C73748   1.428   9.046   0.736 -0.4081 -0.7203 -0.9062
  535MOL0     C73749   1.316   9.097   0.672  0.2187  0.1602 -0.2348
  535MOL0     C73750   1.221   9.174   0.741  0.3554  0.0227 -0.1620
  535MOL0     O73751   1.103   9.228   0.687 -0.1411 -0.7544  0.4619
  535MOL0     C73752   1.048   9.176   0.573  0.0515 -1.0077 -0.4248
  535MOL0     C73753   0.990   9.044   0.606  0.1580  0.1366 -0.7362
  535MOL0     C73754   0.899   8.995   0.487 -0.2405  0.0493  0.0128
  535MOL0     C73755   0.980   8.899   0.394  0.3643  0.3480 -0.5808
  535MOL0     C73756   0.893   8.812   0.315  0.1417  0.1076  0.0500
  535MOL0     C73757   0.813   8.757   0.238 -0.3510  0.1965  0.4790
  535MOL0     C73758   1.240   9.184   0.879  0.0650  0.0697 -0.1838
  535MOL0     C73759   1.347   9.123   0.948  0.0113  0.1196  0.9835
  535MOL0     C73760   1.340   9.138   1.098 -0.3556 -0.1510 -0.1842
  535MOL0     H73761   1.821   9.134   0.996 -2.8021 -1.7938 -1.3121
  535MOL0     H73762   2.052   9.094   1.082  0.5421 -0.2280  1.7489
  535MOL0     H73763   2.261   8.767   0.916  2.3660  0.6764  0.7908
  535MOL0     H73764   2.214   8.667   1.054  0.9240 -0.3457  0.6991
  535MOL0     H73765   2.380   8.755   1.181 -2.8407  0.1053  0.6072
  535MOL0     H73766   2.445   8.674   1.037  1.5263  0.4727  2.9341
  535MOL0     H73767   2.484   8.964   1.091  0.0874  0.0817  1.0154
  535MOL0     H73768   2.602   8.839   1.088  0.9332  1.7967 -1.7642
  535MOL0     H73769   2.520   8.800   0.829  3.0098  0.0193  0.8115
  535MOL0     H73770   2.428   8.939   0.854 -0.0970 -0.5860 -0.8055
  535MOL0     H73771   2.733   8.904   0.855  0.8468  1.8883  1.7228
  535MOL0     H73772   2.666   9.035   0.944 -0.3496  1.1434  0.0525
  535MOL0     H73773   2.619   9.005   0.645 -0.3694 -1.1463  0.9667
  535MOL0     H73774   2.556   9.136   0.748 -1.8321 -2.3770 -1.2897
  535MOL0     H73775   2.845   9.072   0.701 -1.2742  0.3301 -0.4200
  535MOL0     H73776   2.790   9.215   0.781 -2.5865  0.3331  1.2025
  535MOL0     H73777   2.733   9.155   0.484 -2.9717 -1.8607  1.1471
  535MOL0     H73778   2.683   9.296   0.572 -1.1449 -1.1380  0.5790
  535MOL0     H73779   2.958   9.203   0.371  1.6076 -1.9339  2.3569
  535MOL0     H73780   3.202   9.438   0.323  0.3587  0.9344  1.4055
  535MOL0     H73781   3.210   9.257   0.336 -2.4807  0.5207  0.7622
  535MOL0     H73782   3.314   9.454   0.541  0.9975  0.1923  0.0875
  535MOL0     H73783   3.339   9.278   0.544 -0.8188  0.8041  1.7899
  535MOL0     H73784   3.451   9.341   0.303 -1.2332 -0.9206  0.6064
  535MOL0     H73785   3.440   9.504   0.363 -3.3307 -0.8156 -2.4310
  535MOL0     H73786   3.563   9.429   0.574  1.3268  1.0678 -0.7678
  535MOL0     H73787   3.599   9.274   0.487 -1.2419 -0.1864  0.4841
  535MOL0     H73788   3.774   9.338   0.643 -2.3084  1.3546 -1.0800
  535MOL0     H73789   3.988   9.359   0.838 -0.6618  0.2342 -0.2650
  535MOL0     H73790   4.126   9.281   0.754  1.0633 -0.3847 -4.5208
  535MOL0     H73791   3.973   9.207   0.746  1.9692  0.1064  1.7963
  535MOL0     H73792   4.374   9.780   0.534 -1.5258 -1.6479  2.8265
  535MOL0     H73793   4.581   9.871   0.590 -1.2628  0.2999  2.5175
  535MOL0     H73794   4.775   9.931   0.641  1.9376  2.0765  0.6988
  535MOL0     H73795   4.735   9.865   0.795  1.5110  2.0481  0.6237
  535MOL0     H73796   4.934   9.827   0.867 -1.3831 -0.5150 -0.9772
  535MOL0     H73797   5.030   9.840   0.710  1.2580  0.8460  1.5450
  535MOL0     H73798   4.883  10.066   0.856 -0.1635  1.6491 -0.4300
  535MOL0     H73799   4.937  10.080   0.689  0.2828 -0.3300 -0.3163
  535MOL0     H73800   5.179  10.003   0.779  0.1056 -0.0520  0.0615
  535MOL0     H73801   5.122  10.067   0.927 -2.9107 -0.7702  0.5468
  535MOL0     H73802   5.053  10.277   0.830  0.5664  0.2540  0.3837
  535MOL0     H73803   5.215  10.252   0.857 -1.2839 -0.8235  2.6641
  535MOL0     H73804   5.057  10.224   0.597  0.7530  2.7234 -1.5003
  535MOL0     H73805   5.235  10.186   0.617 -0.0968 -0.6827  1.5942
  535MOL0     H73806   5.252  10.447   0.672  0.9667 -1.6733  0.8853
  535MOL0     H73807   5.079  10.456   0.643 -0.4364 -0.0696 -0.7629
  535MOL0     H73808   5.162  10.535   0.438 -1.2701 -0.9502 -3.7778
  535MOL0     H73809   5.103  10.384   0.400 -3.8516  0.3880  3.8503
  535MOL0     H73810   4.763   9.483   0.587 -0.9274 -1.0147 -2.6860
  535MOL0     H73811   4.527   9.383   0.532  0.1646 -0.4524  1.6384
  535MOL0     H73812   4.099   9.556   0.350 -1.8163  0.4179 -1.1459
  535MOL0     H73813   3.884   9.520   0.286  1.1423  2.2210  0.7644
  535MOL0     H73814   2.028   8.689   0.935  1.8959  1.2228  0.0080
  535MOL0     H73815   1.819   8.730   0.841  1.7428 -2.0078 -0.3990
  535MOL0     H73816   1.502   9.006   0.668  0.7048  4.7071 -3.4182
  535MOL0     H73817   1.316   9.105   0.563  2.3837  0.6844 -0.2326
  535MOL0     H73818   0.964   9.241   0.548  0.1228 -1.7282 -2.7609
  535MOL0     H73819   1.111   9.172   0.483 -0.1036 -0.6172 -0.5529
  535MOL0     H73820   0.926   9.037   0.695  2.4740 -5.2535  0.9525
  535MOL0     H73821   1.077   8.981   0.629 -0.1021  0.0967  0.1890
  535MOL0     H73822   0.812   8.943   0.530 -0.1616  0.8371  1.1679
  535MOL0     H73823   0.848   9.075   0.431  0.3970 -0.3454 -1.1702
  535MOL0     H73824   1.042   8.837   0.459 -1.1927  1.0888  1.7119
  535MOL0     H73825   1.055   8.951   0.333  1.0627 -0.0579 -0.0828
  535MOL0     H73826   0.755   8.711   0.160  2.3969 -0.7955 -1.1216
  535MOL0     H73827   1.156   9.235   0.924 -1.5550 -1.7954 -0.9686
  535MOL0     H73828   1.243   9.177   1.131  0.2506 -0.3204  1.9413
  535MOL0     H73829   1.360   9.040   1.142  0.2083 -0.9671 -2.1147
  535MOL0     H73830   1.414   9.208   1.138  0.1740 -1.3074  0.9215
  536MOL0     O73831   4.079   5.737   4.005 -0.7880 -0.4627  0.3748
  536MOL0     C73832   4.025   5.649   4.076 -0.1049 -0.6632 -0.0159
  536MOL0     O73833   4.096   5.559   4.155  0.3719  0.4401  0.5942
  536MOL0     C73834   4.230   5.584   4.157 -0.7412 -0.6171 -0.2919
  536MOL0     C73835   4.322   5.494   4.091 -0.2027 -0.6894 -0.1075
  536MOL0     C73836   4.455   5.534   4.086 -0.3482  0.2555  0.7515
  536MOL0     C73837   4.507   5.644   4.153 -0.2175 -0.7588 -0.0493
  536MOL0     O73838   4.638   5.688   4.155  0.2929 -0.3580  0.4101
  536MOL0     C73839   4.741   5.597   4.136  0.6087 -0.0690 -0.1479
  536MOL0     C73840   4.740   5.475   4.227 -0.1550  0.5781 -0.0566
  536MOL0     C73841   4.851   5.388   4.159  0.0954 -0.3110  0.6654
  536MOL0     C73842   4.862   5.266   4.251  1.1059  0.2037 -0.0707
  536MOL0     C73843   4.925   5.145   4.189  0.3539 -0.1067  0.3204
  536MOL0     C73844   5.069   5.171   4.159 -0.6843 -0.0263  0.5960
  536MOL0     C73845   5.145   5.043   4.129  0.1639 -0.3208 -0.8668
  536MOL0     C73846   5.087   4.965   4.006  0.8179 -0.0117 -1.1516
  536MOL0     N73847   5.186   4.881   3.943 -0.4239  0.7148  0.0455
  536MOL0     C73848   5.313   4.922   3.898 -0.3465 -0.4496  0.0325
  536MOL0     C73849   5.384   4.803   3.885  0.0253  0.1589  0.5433
  536MOL0     C73850   5.519   4.792   3.816 -0.0418 -0.8553  0.8073
  536MOL0     C73851   5.613   4.863   3.913 -0.3520  0.2497  0.2806
  536MOL0     C73852   5.762   4.839   3.857  0.1507  0.3785 -0.7847
  536MOL0     C73853   5.873   4.907   3.941 -0.1780  0.1242 -0.1447
  536MOL0     O73854   5.999   4.833   3.935 -0.7108 -0.3483 -0.5292
  536MOL0     C73855   6.112   4.877   3.998  0.6944 -0.4389 -0.7455
  536MOL0     C73856   6.123   4.979   4.092 -0.0119  0.3754 -0.2506
  536MOL0     C73857   6.241   5.008   4.157 -0.3995 -0.1748 -0.3040
  536MOL0     C73858   6.237   5.124   4.250  0.7480 -0.8839 -0.1413
  536MOL0     C73859   6.358   4.929   4.132 -0.6107 -0.4720  0.5477
  536MOL0     C73860   6.496   4.969   4.192 -0.4040 -0.3348  0.2370
  536MOL0     O73861   6.602   4.927   4.118 -0.2424 -0.1386 -0.1954
  536MOL0     C73862   6.728   4.956   4.157  0.2990  0.1728  0.9583
  536MOL0     C73863   6.769   5.087   4.129 -0.0527  0.3678  0.2656
  536MOL0     C73864   6.894   5.129   4.166  0.5486  2.2329  0.1263
  536MOL0     C73865   6.982   5.045   4.239 -0.2394 -0.1528 -0.6546
  536MOL0     O73866   7.095   5.105   4.276 -0.3831  0.7798 -0.0070
  536MOL0     C73867   7.201   5.038   4.340 -0.1476  0.4631  0.0030
  536MOL0     C73868   7.314   5.146   4.362 -0.2718 -0.0457  1.1102
  536MOL0     C73869   7.431   5.106   4.446 -0.6459  0.8958 -0.2183
  536MOL0     C73870   7.555   5.189   4.423 -0.4058  0.0871  0.1253
  536MOL0     C73871   7.654   5.171   4.534  0.5719  0.8875  0.2251
  536MOL0     C73872   7.777   5.244   4.500 -0.3483  0.0130  0.3577
  536MOL0     C73873   7.895   5.208   4.603  0.3011 -0.0422 -0.0138
  536MOL0     C73874   8.019   5.278   4.585  0.0679 -0.2640 -0.3262
  536MOL0    Cl73875   8.126   5.239   4.723  0.2874 -0.1170  0.3750
  536MOL0     C73876   6.943   4.912   4.267 -0.8020  0.4459  0.0330
  536MOL0     C73877   6.810   4.869   4.231  0.4176 -0.1829 -1.0301
  536MOL0     O73878   6.497   4.995   4.316 -0.3000 -0.0716 -0.6308
  536MOL0     C73879   6.354   4.832   4.026  0.3725  0.0786  0.1604
  536MOL0     C73880   6.229   4.799   3.964 -0.0148 -0.8027  0.6872
  536MOL0     N73881   5.297   4.697   3.920 -0.1028  0.5709  0.5273
  536MOL0     N73882   5.187   4.746   3.963  0.3488  0.4113  0.2334
  536MOL0     C73883   4.409   5.726   4.206  0.2285  1.2114 -0.6704
  536MOL0     C73884   4.279   5.700   4.220  0.2898 -0.8764  0.5045
  536MOL0     C73885   3.878   5.673   4.076 -0.2389 -0.2208  0.0548
  536MOL0     C73886   3.806   5.621   4.189 -1.6145  0.0600 -0.3692
  536MOL0     C73887   3.670   5.631   4.208 -0.8301  0.1494 -0.2839
  536MOL0     C73888   3.591   5.685   4.110 -1.2193 -0.1896  0.6195
  536MOL0     O73889   3.461   5.694   4.100 -0.4720 -0.2690  0.0903
  536MOL0     C73890   3.395   5.641   4.210  0.5044  0.2108  0.2696
  536MOL0     C73891   3.240   5.672   4.196 -0.4727 -1.4615  0.4014
  536MOL0     C73892   3.172   5.592   4.083  0.1074  0.8205 -0.3204
  536MOL0     C73893   3.021   5.540   4.105  0.1062 -0.6824 -0.1541
  536MOL0     C73894   2.937   5.662   4.140  1.1048  0.9096  0.1606
  536MOL0     C73895   2.866   5.757   4.169 -0.9881 -0.8092 -0.0763
  536MOL0     C73896   3.651   5.750   4.003  0.3135 -0.1898  0.0143
  536MOL0     C73897   3.793   5.735   3.976 -0.6816  0.3179 -0.3491
  536MOL0     C73898   3.841   5.788   3.847  0.3559 -0.4463 -0.6697
  536MOL0     H73899   4.292   5.406   4.035 -0.0281 -1.2972  0.7196
  536MOL0     H73900   4.536   5.493   4.027 -0.6037 -0.5198  0.9361
  536MOL0     H73901   4.838   5.645   4.155  0.1011  0.2279  2.0192
  536MOL0     H73902   4.749   5.556   4.035  1.3024 -0.7634  0.1803
  536MOL0     H73903   4.770   5.497   4.330  0.3910 -0.1831 -0.0360
  536MOL0     H73904   4.650   5.413   4.227  0.6096 -0.6436  1.8039
  536MOL0     H73905   4.828   5.346   4.061 -2.3409 -2.8773  2.1827
  536MOL0     H73906   4.946   5.442   4.152  0.3951 -0.8418  0.6065
  536MOL0     H73907   4.921   5.307   4.334 -0.9681  0.8265  1.1550
  536MOL0     H73908   4.767   5.228   4.288  1.1197 -0.7969 -1.0187
  536MOL0     H73909   4.875   5.117   4.096  0.6377 -1.3232  0.5167
  536MOL0     H73910   4.927   5.065   4.263 -1.1531  0.6449  1.2171
  536MOL0     H73911   5.085   5.235   4.072 -1.0166 -1.7877 -0.8324
  536MOL0     H73912   5.125   5.222   4.238 -1.2622 -1.0838  1.7128
  536MOL0     H73913   5.134   4.969   4.208  0.6841  1.8649  1.3999
  536MOL0     H73914   5.251   5.065   4.115  0.1428  0.1952 -0.2905
  536MOL0     H73915   5.002   4.902   4.031  2.7356 -2.2278  0.1888
  536MOL0     H73916   5.055   5.033   3.927  1.1091 -0.3409 -1.5603
  536MOL0     H73917   5.355   5.020   3.876 -0.6740 -0.5697 -1.2136
  536MOL0     H73918   5.508   4.829   3.713 -2.1543 -0.7527  1.0267
  536MOL0     H73919   5.541   4.686   3.805 -2.2663 -1.3139  0.4117
  536MOL0     H73920   5.607   4.972   3.921  2.7130  0.3716  2.6037
  536MOL0     H73921   5.604   4.819   4.013  1.2091 -0.4508  0.1561
  536MOL0     H73922   5.783   4.732   3.847 -0.4563  0.1454  0.2909
  536MOL0     H73923   5.767   4.870   3.752 -0.6539  0.7433 -0.7193
  536MOL0     H73924   5.893   5.009   3.906  1.1946 -0.0104  0.1660
  536MOL0     H73925   5.851   4.922   4.047  2.1263 -1.2174  0.5893
  536MOL0     H73926   6.030   5.025   4.125 -0.4912 -1.4955  1.1936
  536MOL0     H73927   6.276   5.085   4.344  1.0244 -3.4506 -1.2403
  536MOL0     H73928   6.134   5.160   4.258  0.9597  0.2879 -2.0790
  536MOL0     H73929   6.296   5.207   4.209 -0.1440 -1.1349 -2.0578
  536MOL0     H73930   6.694   5.150   4.082  0.2036 -0.5342 -1.4404
  536MOL0     H73931   6.924   5.232   4.154 -1.5229  2.7324 -1.3469
  536MOL0     H73932   7.175   4.996   4.438 -0.5496  1.6593  0.4270
  536MOL0     H73933   7.243   4.962   4.273 -1.4839  0.8703 -1.3494
  536MOL0     H73934   7.363   5.165   4.267  1.3512  0.6945  2.0521
  536MOL0     H73935   7.270   5.240   4.396 -0.7278 -0.2776  1.1671
  536MOL0     H73936   7.447   4.998   4.437 -2.5887  0.0834  4.0523
  536MOL0     H73937   7.404   5.128   4.549 -1.4533 -0.2651 -0.1657
  536MOL0     H73938   7.517   5.292   4.415 -0.7968 -0.1403 -1.1685
  536MOL0     H73939   7.606   5.171   4.328 -1.1156  0.2007 -0.2833
  536MOL0     H73940   7.619   5.228   4.621  0.4657  1.8656 -0.4402
  536MOL0     H73941   7.674   5.064   4.548 -0.3520  0.4355 -1.6185
  536MOL0     H73942   7.764   5.351   4.480  1.8598  0.1627 -0.5857
  536MOL0     H73943   7.813   5.217   4.401  0.1333 -0.3495  0.6304
  536MOL0     H73944   7.908   5.100   4.591 -0.0104  0.0692 -1.7190
  536MOL0     H73945   7.862   5.218   4.707  1.5183 -2.6565  0.7107
  536MOL0     H73946   8.009   5.385   4.567  0.3128 -0.1748  0.0512
  536MOL0     H73947   8.069   5.229   4.501  0.6485 -1.0635  0.4539
  536MOL0     H73948   7.000   4.848   4.333  2.3226  1.1140 -1.8010
  536MOL0     H73949   6.765   4.773   4.252 -0.5944  0.1488 -1.6196
  536MOL0     H73950   6.449   4.789   3.995  0.2729 -0.5727  0.7350
  536MOL0     H73951   6.226   4.714   3.898 -0.0878  1.1617 -2.0036
  536MOL0     H73952   4.432   5.818   4.260  2.6059 -0.7220  1.8537
  536MOL0     H73953   4.218   5.776   4.268  1.1778  1.1936 -1.4143
  536MOL0     H73954   3.864   5.572   4.266 -0.1879 -1.1110 -2.1124
  536MOL0     H73955   3.646   5.582   4.302 -0.6736 -0.0526 -0.3459
  536MOL0     H73956   3.410   5.533   4.218  2.0776  0.4327  0.5199
  536MOL0     H73957   3.431   5.700   4.294 -1.9092  3.5029 -0.8062
  536MOL0     H73958   3.225   5.779   4.178 -0.6036 -1.8202 -1.9536
  536MOL0     H73959   3.188   5.648   4.288 -1.1522 -0.8471  0.1801
  536MOL0     H73960   3.174   5.649   3.990  0.6296 -0.4396 -1.1055
  536MOL0     H73961   3.235   5.503   4.077  0.0802  0.6836  1.1886
  536MOL0     H73962   3.021   5.468   4.187 -1.9747 -1.2222 -0.5787
  536MOL0     H73963   2.973   5.495   4.018 -0.5393 -0.7720  0.2445
  536MOL0     H73964   2.799   5.840   4.181  0.2108  0.7122 -2.9701
  536MOL0     H73965   3.578   5.799   3.939 -1.4930 -2.1100  0.4870
  536MOL0     H73966   3.759   5.785   3.774 -0.5815  2.6720  0.0749
  536MOL0     H73967   3.863   5.894   3.866  2.3416 -1.0776  0.9380
  536MOL0     H73968   3.935   5.740   3.820  1.3492 -0.9299  3.0936
  537MOL0     O73969   3.966   6.229  11.176  0.3910  0.5248 -0.1553
  537MOL0     C73970   4.020   6.165  11.262  0.3570 -0.2038 -0.9678
  537MOL0     O73971   3.966   6.070  11.345 -0.1530 -0.6591 -0.1493
  537MOL0     C73972   3.833   6.051  11.364  0.0532  0.5697  0.2955
  537MOL0     C73973   3.781   6.017  11.489 -0.9314 -0.0381  0.8010
  537MOL0     C73974   3.642   5.990  11.512  0.4873 -0.0534 -0.3578
  537MOL0     C73975   3.550   5.997  11.412  0.2930 -1.6543  0.5226
  537MOL0     O73976   3.420   5.981  11.435  0.1907 -0.8534 -0.1413
  537MOL0     C73977   3.397   5.845  11.476 -0.3132 -0.0662 -0.2109
  537MOL0     C73978   3.247   5.843  11.528 -0.9672  0.9141  0.1061
  537MOL0     C73979   3.231   5.890  11.670  1.0363  0.3226  0.0497
  537MOL0     C73980   3.082   5.855  11.721 -1.1810  0.3328  0.2028
  537MOL0     C73981   3.062   5.918  11.856 -0.9665 -0.1562  0.3397
  537MOL0     C73982   2.918   5.888  11.901  0.8275  0.3639  0.5265
  537MOL0     C73983   2.872   5.986  12.006  0.0224 -0.1306  0.5400
  537MOL0     C73984   2.837   6.119  11.946  0.1078  0.3748  0.5770
  537MOL0     N73985   2.826   6.233  12.048  0.3700  0.0838 -0.8928
  537MOL0     C73986   2.715   6.299  12.078  0.7563 -0.3711  0.5708
  537MOL0     C73987   2.759   6.379  12.180  0.9843 -0.5900  0.1839
  537MOL0     C73988   2.679   6.484  12.252 -0.7845  0.6734 -0.3696
  537MOL0     C73989   2.566   6.553  12.174  0.5165  0.3716  1.2119
  537MOL0     C73990   2.454   6.610  12.263 -0.0846  0.1213 -0.5505
  537MOL0     C73991   2.499   6.716  12.357 -0.0951  0.4805 -0.5100
  537MOL0     O73992   2.532   6.841  12.293  0.4058  0.4563  0.1681
  537MOL0     C73993   2.658   6.860  12.253 -0.1892  0.1217 -0.6064
  537MOL0     C73994   2.682   6.933  12.135 -0.1508 -0.1154  0.3450
  537MOL0     C73995   2.805   6.966  12.088 -0.9269 -0.1296  0.5180
  537MOL0     C73996   2.821   7.046  11.956 -0.0096  0.0095  0.9760
  537MOL0     C73997   2.920   6.926  12.161  0.4833 -0.1876 -0.0951
  537MOL0     C73998   3.061   6.953  12.117  0.1014 -0.1824  0.3319
  537MOL0     O73999   3.153   6.893  12.198  0.3442  0.2203 -0.0246
  537MOL0     C74000   3.285   6.921  12.168 -0.3295  0.8825 -0.4520
  537MOL0     C74001   3.337   6.875  12.046  0.1379 -0.0375  0.5033
  537MOL0     C74002   3.475   6.902  12.001  0.2794  0.1788 -0.2779
  537MOL0     C74003   3.557   6.977  12.090  0.0959 -0.3501  0.0644
  537MOL0     O74004   3.682   7.026  12.054 -0.3288 -0.0689  0.4592
  537MOL0     C74005   3.747   6.957  11.949 -0.2167 -0.0694  0.7845
  537MOL0     C74006   3.885   7.018  11.952 -0.0311 -0.1127  0.3514
  537MOL0     C74007   3.951   6.985  11.821  0.2578  0.3703  0.5437
  537MOL0     C74008   4.088   7.035  11.798  0.0121  0.2217 -0.2610
  537MOL0     C74009   4.147   6.968  11.680  0.1162  0.6250  0.2065
  537MOL0     C74010   4.300   6.981  11.668  1.1161 -0.3885  1.0235
  537MOL0     C74011   4.381   6.904  11.762  0.4739 -0.1102 -0.4854
  537MOL0     C74012   4.527   6.917  11.719  0.0280 -0.3291  0.8357
  537MOL0    Cl74013   4.588   7.086  11.719  0.3953 -0.1719  0.1035
  537MOL0     C74014   3.508   7.019  12.212 -0.4717  0.4173 -0.5534
  537MOL0     C74015   3.374   6.991  12.252  0.5631 -0.3482  0.7863
  537MOL0     O74016   3.089   7.018  12.014  0.8890 -0.4170  0.4780
  537MOL0     C74017   2.899   6.860  12.285  0.5245 -0.2307 -0.1504
  537MOL0     C74018   2.772   6.826  12.329  0.3002  0.0555 -0.5072
  537MOL0     N74019   2.891   6.355  12.210 -0.0764  0.4731  0.2401
  537MOL0     N74020   2.928   6.260  12.136 -0.3892 -0.0309  0.4897
  537MOL0     C74021   3.608   6.019  11.281  0.8097 -0.4823 -0.0169
  537MOL0     C74022   3.742   6.037  11.258  0.3822  0.3598 -0.0029
  537MOL0     C74023   4.160   6.210  11.284  0.3203 -0.2629 -0.4556
  537MOL0     C74024   4.234   6.129  11.369 -0.1102 -0.4109 -0.1112
  537MOL0     C74025   4.373   6.145  11.377  0.9941 -0.7975 -0.9751
  537MOL0     C74026   4.440   6.247  11.318  0.3207 -0.0143  0.2560
  537MOL0     O74027   4.577   6.270  11.353  0.5230 -0.7943  0.0777
  537MOL0     C74028   4.650   6.195  11.446 -0.3878  0.4755 -0.8255
  537MOL0     C74029   4.798   6.210  11.425  0.4380 -0.2637  0.5411
  537MOL0     C74030   4.812   6.362  11.435 -0.3902 -0.3027  0.5135
  537MOL0     C74031   4.959   6.399  11.456  0.1005 -0.3111 -0.4501
  537MOL0     C74032   5.055   6.316  11.380 -0.9962 -0.1584 -1.0218
  537MOL0     C74033   5.129   6.252  11.304  0.5141  0.5374  0.1146
  537MOL0     C74034   4.361   6.341  11.254 -0.9179 -0.4389  0.8088
  537MOL0     C74035   4.226   6.331  11.233  0.8504 -0.2305  0.9092
  537MOL0     C74036   4.152   6.449  11.176 -0.3223 -0.4271  0.3359
  537MOL0     H74037   3.855   6.023  11.568  1.4447 -2.8976 -0.9915
  537MOL0     H74038   3.601   5.977  11.611 -3.4116  4.7875 -0.9510
  537MOL0     H74039   3.461   5.826  11.562 -1.0349  0.1299  0.3847
  537MOL0     H74040   3.410   5.779  11.390  1.2116  1.3140 -1.0811
  537MOL0     H74041   3.188   5.906  11.460 -0.4291  1.3572  0.0458
  537MOL0     H74042   3.220   5.737  11.532  2.2862  0.0175  1.4288
  537MOL0     H74043   3.302   5.850  11.743  2.3415 -2.1422 -2.3753
  537MOL0     H74044   3.249   5.997  11.655  1.6958  0.5559  2.1389
  537MOL0     H74045   3.000   5.889  11.657 -1.2697 -1.6984 -0.8532
  537MOL0     H74046   3.073   5.746  11.728  2.0217 -0.1926 -1.8994
  537MOL0     H74047   3.084   6.025  11.843  0.4745 -0.3846  0.7595
  537MOL0     H74048   3.142   5.878  11.919  0.5418  1.5284 -0.3947
  537MOL0     H74049   2.855   5.902  11.813  2.5185 -1.9899 -1.1600
  537MOL0     H74050   2.901   5.786  11.936  0.7865 -0.4462 -1.7112
  537MOL0     H74051   2.946   6.002  12.085  0.5751  0.2223 -0.0375
  537MOL0     H74052   2.791   5.947  12.068 -0.1918  0.3628  0.5731
  537MOL0     H74053   2.920   6.157  11.886  0.5413  1.3385  1.7496
  537MOL0     H74054   2.746   6.105  11.886 -2.0343  1.4791  3.3034
  537MOL0     H74055   2.625   6.316  12.020  1.8785 -1.0729 -1.4713
  537MOL0     H74056   2.745   6.564  12.287  1.0040 -0.2465 -1.4751
  537MOL0     H74057   2.639   6.429  12.338 -2.5265 -1.5881 -2.5073
  537MOL0     H74058   2.606   6.638  12.117 -2.3359  0.3377 -1.1003
  537MOL0     H74059   2.517   6.479  12.109  1.0580 -0.1804  1.4295
  537MOL0     H74060   2.381   6.663  12.201  0.0846  0.8703 -0.1168
  537MOL0     H74061   2.403   6.540  12.329 -0.1763  1.0114  0.3395
  537MOL0     H74062   2.417   6.733  12.428 -0.2955 -1.4581 -0.2358
  537MOL0     H74063   2.580   6.681  12.421 -1.0310  1.3834  1.2336
  537MOL0     H74064   2.594   6.961  12.077 -1.4184 -0.9925  1.7747
  537MOL0     H74065   2.878   7.139  11.967  0.8152 -0.2274 -0.9227
  537MOL0     H74066   2.718   7.068  11.925 -0.7159 -0.7983  2.6042
  537MOL0     H74067   2.870   6.982  11.883  1.9880  1.0670  1.3296
  537MOL0     H74068   3.273   6.817  11.980 -0.3175  0.5673  0.4038
  537MOL0     H74069   3.489   6.887  11.894 -2.0776 -0.0730 -0.6041
  537MOL0     H74070   3.744   6.849  11.966 -0.2946  0.0104  1.2822
  537MOL0     H74071   3.699   6.975  11.852 -0.8377 -1.0838  0.8915
  537MOL0     H74072   3.881   7.127  11.952 -1.8215 -0.0814 -2.6628
  537MOL0     H74073   3.939   6.981  12.040 -1.2744  0.6269  1.4625
  537MOL0     H74074   3.879   7.006  11.741  1.1632  0.4673 -0.2671
  537MOL0     H74075   3.955   6.876  11.814  0.2621  0.4504 -1.3105
  537MOL0     H74076   4.145   7.009  11.887 -2.2700  0.8696  1.4952
  537MOL0     H74077   4.091   7.143  11.782 -1.6864  0.4346  0.6369
  537MOL0     H74078   4.122   6.862  11.670  0.5912  0.7065 -3.3301
  537MOL0     H74079   4.103   7.024  11.597 -0.3095  1.6050  1.0666
  537MOL0     H74080   4.332   7.086  11.663  3.4044 -1.0303 -3.2525
  537MOL0     H74081   4.315   6.954  11.563  1.7696 -0.2075  1.0643
  537MOL0     H74082   4.350   6.799  11.772 -1.6395  0.6488  2.1662
  537MOL0     H74083   4.364   6.940  11.864  1.6194  2.0193 -0.9877
  537MOL0     H74084   4.551   6.875  11.621 -3.0550  1.7182 -0.9394
  537MOL0     H74085   4.593   6.864  11.788  0.6241  0.1672  0.6569
  537MOL0     H74086   3.573   7.077  12.277 -1.0347 -0.3467  0.7245
  537MOL0     H74087   3.333   7.019  12.348  1.6990  0.3520  1.0881
  537MOL0     H74088   2.983   6.829  12.346  1.5991  0.0409 -1.4556
  537MOL0     H74089   2.770   6.778  12.427  1.7546  1.5298  0.2871
  537MOL0     H74090   3.532   6.014  11.204  1.4583  0.6318 -0.7641
  537MOL0     H74091   3.774   6.052  11.155 -2.9260  1.8846 -0.9423
  537MOL0     H74092   4.181   6.044  11.411 -1.1494 -1.0021 -2.4650
  537MOL0     H74093   4.415   6.064  11.435  0.8578 -0.9000 -1.0192
  537MOL0     H74094   4.607   6.205  11.546  0.5542 -3.0321  0.0818
  537MOL0     H74095   4.624   6.091  11.422 -1.5313  0.5476  0.0395
  537MOL0     H74096   4.815   6.178  11.322 -0.5583  0.6516  0.0711
  537MOL0     H74097   4.848   6.151  11.502 -0.6360 -2.9713 -0.7175
  537MOL0     H74098   4.782   6.395  11.335  0.0172 -1.9758 -0.1790
  537MOL0     H74099   4.745   6.398  11.514 -2.8802 -0.4912 -1.3862
  537MOL0     H74100   4.969   6.395  11.565 -1.4950  0.5032 -0.2400
  537MOL0     H74101   4.961   6.506  11.433 -2.9523  0.3844  1.8439
  537MOL0     H74102   5.204   6.211  11.239  0.1402 -0.1429  0.1041
  537MOL0     H74103   4.417   6.427  11.217  1.4884 -2.6346 -0.9532
  537MOL0     H74104   4.213   6.539  11.187 -1.8449  0.7096 -0.1566
  537MOL0     H74105   4.137   6.442  11.068  1.6241  0.6522 -0.0467
  537MOL0     H74106   4.052   6.462  11.217 -1.7614 -0.7767 -2.7647
  538MOL0     O74107   1.416   4.826   3.971 -0.3481 -0.7875 -0.0648
  538MOL0     C74108   1.314   4.882   4.014  0.2997  0.8086  0.5810
  538MOL0     O74109   1.254   4.992   3.952 -0.5455  0.6824 -0.6742
  538MOL0     C74110   1.322   5.066   3.858  0.0270  0.4489 -0.1274
  538MOL0     C74111   1.287   5.069   3.726  0.6696 -0.2949 -0.4744
  538MOL0     C74112   1.360   5.143   3.638 -0.9093 -1.3602  0.3534
  538MOL0     C74113   1.456   5.236   3.690  0.8801  0.3095  0.8103
  538MOL0     O74114   1.534   5.323   3.624  0.3254  0.0024  0.2995
  538MOL0     C74115   1.615   5.274   3.514  0.8237  0.0398  0.0237
  538MOL0     C74116   1.734   5.179   3.556  0.7964  0.0366  0.2162
  538MOL0     C74117   1.798   5.197   3.697  0.0363 -0.3312 -0.1937
  538MOL0     C74118   1.869   5.337   3.700  0.2153  1.0468 -1.2618
  538MOL0     C74119   1.946   5.359   3.827 -0.3028 -0.0624  0.3083
  538MOL0     C74120   2.101   5.379   3.801 -0.3056 -0.1256 -0.0494
  538MOL0     C74121   2.196   5.414   3.926  1.4528  1.0698  0.5795
  538MOL0     C74122   2.351   5.414   3.885  0.0888 -0.1681 -0.0303
  538MOL0     N74123   2.433   5.459   3.995  0.3605 -0.5303 -0.0205
  538MOL0     C74124   2.490   5.377   4.087 -0.0721  0.2694 -0.0959
  538MOL0     C74125   2.581   5.451   4.149 -0.0999  0.0734  0.2682
  538MOL0     C74126   2.679   5.422   4.260 -0.8117  0.2506 -1.3465
  538MOL0     C74127   2.624   5.319   4.372  0.2042 -1.1628  1.2638
  538MOL0     C74128   2.700   5.333   4.502  0.7363 -0.0626 -0.2671
  538MOL0     C74129   2.844   5.287   4.478 -0.6133  0.8692 -0.5197
  538MOL0     O74130   2.923   5.407   4.470 -0.1690  0.3212  0.0542
  538MOL0     C74131   3.057   5.405   4.511  0.5281 -0.2591  0.6945
  538MOL0     C74132   3.132   5.288   4.548 -0.6550  0.8151 -0.0119
  538MOL0     C74133   3.271   5.293   4.571  0.1448  0.6315  0.3559
  538MOL0     C74134   3.346   5.164   4.606 -0.4213 -0.0193 -0.1691
  538MOL0     C74135   3.338   5.415   4.566  1.0407  0.0387 -0.5200
  538MOL0     C74136   3.479   5.433   4.596  0.8093  0.4044  0.4269
  538MOL0     O74137   3.558   5.437   4.487 -0.3437 -0.3642 -0.4852
  538MOL0     C74138   3.692   5.441   4.522 -0.9539  0.6169 -0.2973
  538MOL0     C74139   3.763   5.557   4.556 -0.2327  0.4590  0.3576
  538MOL0     C74140   3.903   5.550   4.557  0.8604 -0.4596 -0.6336
  538MOL0     C74141   3.972   5.429   4.559  0.6687 -0.3202 -0.0576
  538MOL0     O74142   4.100   5.421   4.587 -0.7350  0.0264  0.8361
  538MOL0     C74143   4.185   5.470   4.477  0.2587 -0.6019  1.1705
  538MOL0     C74144   4.336   5.458   4.510 -0.1146 -1.1806 -1.4137
  538MOL0     C74145   4.380   5.312   4.538  0.7538 -0.4865  0.1349
  538MOL0     C74146   4.523   5.316   4.594 -0.9797  0.5357  0.0048
  538MOL0     C74147   4.596   5.182   4.557  0.6747 -0.3147 -0.6486
  538MOL0     C74148   4.739   5.191   4.587 -0.9017  0.0480  0.0634
  538MOL0     C74149   4.775   5.183   4.731  0.4218  0.1939 -0.5873
  538MOL0     C74150   4.923   5.174   4.759  0.5066 -1.0268 -0.4331
  538MOL0    Cl74151   4.989   5.022   4.710 -0.3380  0.1939  0.0139
  538MOL0     C74152   3.899   5.313   4.532  0.5335 -0.1502 -0.3818
  538MOL0     C74153   3.761   5.317   4.509 -0.3637 -0.4217 -0.5853
  538MOL0     O74154   3.506   5.459   4.711 -0.2959  0.1789  0.5840
  538MOL0     C74155   3.258   5.533   4.550  0.0567 -1.1616 -0.8592
  538MOL0     C74156   3.123   5.531   4.516  0.4861  0.9888 -0.6349
  538MOL0     N74157   2.585   5.569   4.085 -0.6949 -0.2727  0.1805
  538MOL0     N74158   2.511   5.572   3.988  0.6094  0.5507  0.7003
  538MOL0     C74159   1.478   5.237   3.824  0.1774  0.0032 -0.3998
  538MOL0     C74160   1.418   5.150   3.905  0.2043  0.9622  0.6985
  538MOL0     C74161   1.240   4.813   4.124  0.3201  0.3330 -0.7218
  538MOL0     C74162   1.101   4.801   4.119  0.7159 -0.3061 -0.6585
  538MOL0     C74163   1.019   4.744   4.214  0.7376  0.3345  0.2078
  538MOL0     C74164   1.076   4.686   4.326  0.8741  0.5904 -0.3668
  538MOL0     O74165   1.018   4.623   4.433  0.5485 -0.7455 -0.1558
  538MOL0     C74166   0.875   4.641   4.456  0.2984 -0.0849 -0.0064
  538MOL0     C74167   0.851   4.629   4.611 -0.4863  0.6530 -0.2727
  538MOL0     C74168   0.813   4.491   4.661 -0.0573 -0.4162 -0.4337
  538MOL0     C74169   0.913   4.385   4.653  0.0544  0.1798  0.1615
  538MOL0     C74170   1.046   4.428   4.706  0.7186  0.1252 -0.9129
  538MOL0     C74171   1.150   4.475   4.737  0.0697 -0.2083 -0.5980
  538MOL0     C74172   1.211   4.709   4.344  0.5814 -0.2875 -0.1305
  538MOL0     C74173   1.289   4.763   4.243  0.4801 -0.2179 -0.8961
  538MOL0     C74174   1.441   4.758   4.268 -0.2235 -0.7324  0.0105
  538MOL0     H74175   1.226   4.988   3.687  0.7262 -0.2228 -0.7149
  538MOL0     H74176   1.332   5.134   3.534  0.0732  2.8513 -0.4488
  538MOL0     H74177   1.653   5.363   3.464  1.2322  2.0666  3.6148
  538MOL0     H74178   1.551   5.211   3.451  0.1699 -1.4470  2.0539
  538MOL0     H74179   1.697   5.076   3.553  0.8631 -0.0507 -4.0733
  538MOL0     H74180   1.811   5.177   3.477 -0.4049 -1.5119 -0.9758
  538MOL0     H74181   1.728   5.181   3.779 -0.3286  1.9843  0.0240
  538MOL0     H74182   1.883   5.130   3.707  1.5456  1.5658  0.3674
  538MOL0     H74183   1.930   5.334   3.609  1.8146 -1.2331 -0.2150
  538MOL0     H74184   1.794   5.416   3.688  2.0661  3.2574  0.6005
  538MOL0     H74185   1.955   5.273   3.895 -0.0689  2.2142  3.3891
  538MOL0     H74186   1.908   5.448   3.878 -0.7896 -0.5289  0.7701
  538MOL0     H74187   2.144   5.293   3.750 -5.3508 -0.7580 -4.1484
  538MOL0     H74188   2.103   5.466   3.735  3.5981  0.9132  1.2107
  538MOL0     H74189   2.182   5.336   4.002 -0.3874 -0.1424 -0.8967
  538MOL0     H74190   2.173   5.511   3.972 -0.8999  1.9714 -2.2048
  538MOL0     H74191   2.379   5.314   3.853  3.7579  1.0531 -1.2224
  538MOL0     H74192   2.367   5.478   3.797  0.4661  3.1903  2.2763
  538MOL0     H74193   2.460   5.276   4.115  1.2356  0.2129  1.2410
  538MOL0     H74194   2.691   5.518   4.309 -0.0789 -0.7300  0.4907
  538MOL0     H74195   2.778   5.388   4.228  0.0006 -0.1623  1.3760
  538MOL0     H74196   2.530   5.367   4.400  1.1910  1.6516  0.0612
  538MOL0     H74197   2.616   5.214   4.341  0.3289 -0.9989  0.6589
  538MOL0     H74198   2.696   5.433   4.546 -0.8582 -0.1239 -0.2012
  538MOL0     H74199   2.654   5.268   4.578  3.7043 -1.3954  0.5534
  538MOL0     H74200   2.875   5.213   4.552 -2.5676  1.6082  1.1311
  538MOL0     H74201   2.851   5.238   4.380 -0.9966  2.8596 -1.6039
  538MOL0     H74202   3.086   5.190   4.535 -0.8827  0.9590 -0.2887
  538MOL0     H74203   3.291   5.074   4.578  0.3965 -0.3171 -0.8583
  538MOL0     H74204   3.356   5.169   4.715 -2.0976 -0.6687  0.0385
  538MOL0     H74205   3.451   5.158   4.575 -0.3079 -0.9520  0.3518
  538MOL0     H74206   3.714   5.652   4.570  0.9297  0.8704  2.0784
  538MOL0     H74207   3.970   5.632   4.580  1.3663 -0.6098 -1.5368
  538MOL0     H74208   4.172   5.408   4.388  2.1746 -0.6136  0.8608
  538MOL0     H74209   4.160   5.574   4.457  0.4697 -0.3084  2.3339
  538MOL0     H74210   4.389   5.504   4.425  1.9073 -2.9800 -1.2169
  538MOL0     H74211   4.367   5.524   4.592 -0.8345 -0.2430 -1.8674
  538MOL0     H74212   4.373   5.261   4.442  0.9053  4.1998 -2.6572
  538MOL0     H74213   4.314   5.261   4.609  0.4057  0.2511  0.3536
  538MOL0     H74214   4.524   5.338   4.701  0.3071 -0.5617  0.2449
  538MOL0     H74215   4.580   5.394   4.543  0.6302  0.0907  1.0453
  538MOL0     H74216   4.555   5.097   4.613 -1.1415 -2.4088 -4.7674
  538MOL0     H74217   4.569   5.165   4.453 -2.6004  1.7364 -0.2779
  538MOL0     H74218   4.784   5.276   4.535  1.0399  0.1884  1.8325
  538MOL0     H74219   4.767   5.098   4.538 -1.1978 -1.3034  2.3255
  538MOL0     H74220   4.725   5.100   4.780  1.1328  0.1755  0.1259
  538MOL0     H74221   4.733   5.268   4.786 -2.7919 -1.1685 -0.7440
  538MOL0     H74222   4.949   5.189   4.864  0.8571  0.5574 -0.7087
  538MOL0     H74223   4.975   5.260   4.715 -2.0982  0.9449  0.0832
  538MOL0     H74224   3.957   5.222   4.538  3.7466  1.8389  2.6946
  538MOL0     H74225   3.709   5.224   4.484  0.8177 -1.2829  0.0602
  538MOL0     H74226   3.309   5.628   4.561  1.1974 -1.8989  0.6097
  538MOL0     H74227   3.064   5.618   4.489 -1.5126 -0.4693 -1.2481
  538MOL0     H74228   1.558   5.296   3.867  2.0585 -1.9528 -1.0128
  538MOL0     H74229   1.441   5.141   4.011 -2.7496 -1.2848  1.2904
  538MOL0     H74230   1.051   4.843   4.033 -0.0486  1.7687  0.7252
  538MOL0     H74231   0.911   4.745   4.202  0.7095  2.2090  0.2688
  538MOL0     H74232   0.835   4.734   4.416 -1.3587 -1.4573 -1.7072
  538MOL0     H74233   0.819   4.559   4.411  0.2947 -0.5468  0.8193
  538MOL0     H74234   0.758   4.682   4.634 -0.6619  0.2012  0.0739
  538MOL0     H74235   0.924   4.695   4.657  0.1456  0.4083 -0.9105
  538MOL0     H74236   0.775   4.498   4.764  0.5606 -0.3154 -0.2115
  538MOL0     H74237   0.733   4.458   4.594  2.3413 -1.0087 -3.2004
  538MOL0     H74238   0.902   4.336   4.555 -0.8043 -0.9343  0.7964
  538MOL0     H74239   0.869   4.312   4.721  0.0205  1.0112  1.0592
  538MOL0     H74240   1.245   4.510   4.772  0.0397 -0.1522 -0.5726
  538MOL0     H74241   1.246   4.670   4.439 -0.6795 -1.6608 -0.2024
  538MOL0     H74242   1.471   4.659   4.234 -0.7025 -0.1000 -2.4701
  538MOL0     H74243   1.495   4.833   4.208 -2.8132  0.0472 -1.4812
  538MOL0     H74244   1.469   4.781   4.371 -1.5631  2.3351 -0.1979
  539MOL0     O74245   3.535   8.190  10.138  0.6056 -0.3887  0.4908
  539MOL0     C74246   3.500   8.081  10.091 -0.3363 -0.0040 -0.0990
  539MOL0     O74247   3.586   7.976  10.070  0.3153  0.3495  0.1286
  539MOL0     C74248   3.716   8.015  10.031 -0.2192  0.9133 -0.7333
  539MOL0     C74249   3.817   7.919  10.071 -0.2106 -0.3004  0.2106
  539MOL0     C74250   3.953   7.938  10.060 -1.1239 -0.2912  0.1591
  539MOL0     C74251   4.002   8.069  10.008  0.3328  0.0063  0.3786
  539MOL0     O74252   4.131   8.100   9.965  1.2413 -0.0188 -0.1629
  539MOL0     C74253   4.195   7.994   9.887 -0.3466  0.0712 -0.3790
  539MOL0     C74254   4.287   8.064   9.795 -0.2250  0.2461  0.2668
  539MOL0     C74255   4.350   7.965   9.695  0.2097 -0.2322 -0.4046
  539MOL0     C74256   4.444   7.855   9.764  0.3530  0.2309  0.1671
  539MOL0     C74257   4.540   7.784   9.651 -0.0204 -0.1326 -0.2199
  539MOL0     C74258   4.633   7.880   9.582 -0.5407  0.3104 -0.2467
  539MOL0     C74259   4.714   7.798   9.474  0.5962 -0.1771 -0.0522
  539MOL0     C74260   4.864   7.839   9.471 -0.1408  0.5335 -0.5231
  539MOL0     N74261   4.923   7.774   9.356 -0.7285  0.4827 -0.1169
  539MOL0     C74262   5.040   7.816   9.299 -0.2912 -0.2696  0.4861
  539MOL0     C74263   5.056   7.751   9.185 -0.2341  0.6080  0.1102
  539MOL0     C74264   5.164   7.742   9.082 -0.1550 -0.2282 -0.2527
  539MOL0     C74265   5.256   7.625   9.113  0.9157 -0.3039 -0.6898
  539MOL0     C74266   5.343   7.592   8.996  0.6277  0.1553  0.0537
  539MOL0     C74267   5.379   7.452   9.028  0.2504  0.8824 -0.2354
  539MOL0     O74268   5.465   7.411   8.923  0.1034  0.7268 -0.3640
  539MOL0     C74269   5.420   7.356   8.805 -0.2740  0.5540 -0.0221
  539MOL0     C74270   5.488   7.255   8.734  0.3544  0.3261 -0.3114
  539MOL0     C74271   5.422   7.188   8.632  0.0847  0.2054 -0.2006
  539MOL0     C74272   5.504   7.088   8.556 -0.3834 -0.5297 -0.1037
  539MOL0     C74273   5.288   7.213   8.593  0.4185 -0.1692 -0.5179
  539MOL0     C74274   5.216   7.137   8.486 -0.4884  0.0106 -0.6673
  539MOL0     O74275   5.118   7.207   8.426 -0.1548  0.5852  0.0647
  539MOL0     C74276   5.024   7.148   8.339 -0.1613  0.4156  0.1793
  539MOL0     C74277   5.052   7.065   8.224  0.0508  0.6020 -0.5615
  539MOL0     C74278   4.946   7.001   8.163 -0.2479 -0.0953  0.9560
  539MOL0     C74279   4.812   7.026   8.191 -0.7406  0.5543 -0.1452
  539MOL0     O74280   4.703   6.957   8.127 -0.6646  0.4154 -0.4978
  539MOL0     C74281   4.721   6.885   8.007 -0.9402  0.3824 -0.4042
  539MOL0     C74282   4.591   6.842   7.948 -0.5325 -0.6770 -0.2181
  539MOL0     C74283   4.510   6.952   7.872 -0.3499  0.0500 -0.1542
  539MOL0     C74284   4.364   6.915   7.859 -1.3107  1.0782  0.0145
  539MOL0     C74285   4.287   7.041   7.832 -0.6621  0.3463  0.5595
  539MOL0     C74286   4.309   7.101   7.692 -0.2626  0.5044  0.6500
  539MOL0     C74287   4.202   7.213   7.661  0.6905  0.4750  0.1707
  539MOL0     C74288   4.166   7.221   7.515  0.2245  0.7147  0.5389
  539MOL0    Cl74289   4.078   7.080   7.463 -0.0430  0.0913 -0.5019
  539MOL0     C74290   4.782   7.110   8.296 -0.7479 -0.0117 -0.6902
  539MOL0     C74291   4.891   7.168   8.369  0.2943 -0.6802 -0.2446
  539MOL0     O74292   5.232   7.017   8.476  0.1446 -0.1195 -0.5562
  539MOL0     C74293   5.223   7.313   8.668 -0.0541 -0.2282 -0.2911
  539MOL0     C74294   5.283   7.385   8.767  0.0665  0.7108 -0.1720
  539MOL0     N74295   4.947   7.665   9.172 -0.0995  0.4969 -0.3904
  539MOL0     N74296   4.871   7.680   9.271  0.6532 -0.4138 -0.9455
  539MOL0     C74297   3.902   8.160   9.967 -0.3207  0.3980  0.4575
  539MOL0     C74298   3.764   8.131   9.978  0.3680  0.8293 -0.1430
  539MOL0     C74299   3.356   8.042  10.099  0.3466 -0.6811 -1.0557
  539MOL0     C74300   3.332   7.901  10.135 -0.4075  0.0853  0.1495
  539MOL0     C74301   3.208   7.850  10.139  0.4239 -0.2113 -0.7022
  539MOL0     C74302   3.096   7.936  10.124 -0.4544 -0.7206 -0.4704
  539MOL0     O74303   2.969   7.902  10.146  0.6725  0.1157  0.3139
  539MOL0     C74304   2.933   7.774  10.197 -0.1682  1.0731 -1.0347
  539MOL0     C74305   2.787   7.760  10.167  0.3003  0.1527  0.4734
  539MOL0     C74306   2.742   7.618  10.204 -0.2738  0.5279  0.1877
  539MOL0     C74307   2.586   7.615  10.206 -0.1796 -0.3656  0.1828
  539MOL0     C74308   2.569   7.475  10.242  0.2463 -0.2512 -0.1855
  539MOL0     C74309   2.557   7.355  10.262  0.6254 -0.0321  0.4614
  539MOL0     C74310   3.111   8.067  10.086 -0.0603  0.1144  0.5901
  539MOL0     C74311   3.242   8.118  10.073 -0.1824  0.7441 -0.7243
  539MOL0     C74312   3.250   8.267  10.034  0.6324  0.4171  0.4603
  539MOL0     H74313   3.779   7.828  10.116  2.2790 -1.1460  0.7473
  539MOL0     H74314   4.030   7.873  10.101  0.9515  1.5059 -0.6685
  539MOL0     H74315   4.129   7.925   9.834 -1.7187 -1.0444  2.5693
  539MOL0     H74316   4.256   7.930   9.952 -0.4205  0.6570  0.2826
  539MOL0     H74317   4.241   8.156   9.757 -0.4914 -0.6932 -1.8240
  539MOL0     H74318   4.377   8.094   9.849 -1.1785  2.7858  0.5531
  539MOL0     H74319   4.274   7.906   9.644 -0.8386  0.0519  0.7628
  539MOL0     H74320   4.391   8.032   9.619 -0.8879  0.1094 -0.7218
  539MOL0     H74321   4.506   7.912   9.834 -0.2707  0.9142  0.1721
  539MOL0     H74322   4.393   7.772   9.814 -0.7707  0.3271 -0.7827
  539MOL0     H74323   4.478   7.744   9.570  0.4720 -3.5130  0.9086
  539MOL0     H74324   4.591   7.696   9.691  2.0630  0.9140 -0.4597
  539MOL0     H74325   4.597   7.968   9.526  4.1186  2.9319  0.3399
  539MOL0     H74326   4.690   7.918   9.668 -1.6337 -0.9460  1.0732
  539MOL0     H74327   4.687   7.833   9.374  3.9542  1.9700 -0.3595
  539MOL0     H74328   4.703   7.690   9.489  3.0617 -0.2693  1.7678
  539MOL0     H74329   4.869   7.948   9.457 -1.2652  0.8419  1.0745
  539MOL0     H74330   4.905   7.803   9.565 -0.2023 -0.5062 -0.8916
  539MOL0     H74331   5.111   7.877   9.355  0.9332 -3.0632  2.1474
  539MOL0     H74332   5.209   7.842   9.083 -0.4898 -0.0669 -0.8883
  539MOL0     H74333   5.118   7.719   8.986 -1.2355 -2.9579  0.7991
  539MOL0     H74334   5.309   7.657   9.203  0.2899  2.5642 -1.2500
  539MOL0     H74335   5.186   7.549   9.148 -0.9191  2.3814  1.9058
  539MOL0     H74336   5.302   7.617   8.898  0.6811 -0.2376 -0.0682
  539MOL0     H74337   5.437   7.648   8.994  0.3837  0.5766  0.1491
  539MOL0     H74338   5.443   7.437   9.115 -0.6188 -0.1376  0.2569
  539MOL0     H74339   5.288   7.391   9.037  2.0593 -1.8544  0.6990
  539MOL0     H74340   5.584   7.223   8.774 -0.2452 -0.1008  0.8187
  539MOL0     H74341   5.482   6.990   8.599 -0.5429 -0.0797  0.8862
  539MOL0     H74342   5.612   7.102   8.556 -0.4176 -0.0531 -2.0128
  539MOL0     H74343   5.473   7.099   8.452 -2.2454  1.3910  0.5726
  539MOL0     H74344   5.153   7.043   8.192 -0.1178  0.4990 -1.0291
  539MOL0     H74345   4.966   6.942   8.074  0.6414  1.9562 -0.2855
  539MOL0     H74346   4.771   6.951   7.936 -1.5221 -1.1605 -2.3544
  539MOL0     H74347   4.767   6.789   8.031 -2.0803 -0.3251 -0.9571
  539MOL0     H74348   4.616   6.762   7.877 -1.2553 -0.2964 -0.9193
  539MOL0     H74349   4.525   6.797   8.023 -0.8306 -2.3463 -1.4144
  539MOL0     H74350   4.544   6.962   7.768 -3.0548 -1.7193 -1.3166
  539MOL0     H74351   4.520   7.045   7.928 -0.6324 -2.2948  4.1541
  539MOL0     H74352   4.334   6.869   7.954 -2.3250 -0.3654 -0.9687
  539MOL0     H74353   4.357   6.851   7.771 -0.5795 -0.0453  0.7407
  539MOL0     H74354   4.181   7.015   7.840  0.0510 -2.7215  1.4359
  539MOL0     H74355   4.315   7.118   7.906 -1.5097  3.2663 -1.9597
  539MOL0     H74356   4.288   7.016   7.626  4.7410  0.3829 -1.1918
  539MOL0     H74357   4.412   7.132   7.673  0.3355 -1.5288  0.3244
  539MOL0     H74358   4.244   7.311   7.687  0.4965  0.5718  0.1213
  539MOL0     H74359   4.114   7.223   7.726 -2.2324 -1.0612 -3.2443
  539MOL0     H74360   4.256   7.212   7.453 -0.1523 -2.2561  0.2813
  539MOL0     H74361   4.113   7.314   7.492  2.2777  1.9525  0.5403
  539MOL0     H74362   4.677   7.118   8.324 -0.9815 -1.9132 -0.8790
  539MOL0     H74363   4.879   7.227   8.459 -0.0663  0.0440 -0.7528
  539MOL0     H74364   5.121   7.339   8.642  0.8805  0.5258 -3.7299
  539MOL0     H74365   5.221   7.456   8.822 -0.0674  2.1853 -2.1298
  539MOL0     H74366   3.939   8.248   9.916 -2.5464  0.7866 -0.6082
  539MOL0     H74367   3.700   8.215   9.953  0.9183  1.2270 -0.2366
  539MOL0     H74368   3.415   7.831  10.142  2.8056  2.9866 -3.5208
  539MOL0     H74369   3.197   7.742  10.151  2.9183 -0.4720 -0.2549
  539MOL0     H74370   2.981   7.692  10.143 -1.8437 -1.8165  1.5359
  539MOL0     H74371   2.967   7.767  10.300  0.7763  2.4343 -1.2196
  539MOL0     H74372   2.770   7.776  10.060  0.2328 -3.3311 -0.1479
  539MOL0     H74373   2.741   7.842  10.222  0.3635 -0.9426  2.2153
  539MOL0     H74374   2.776   7.552  10.123 -1.3427 -0.1790  0.2953
  539MOL0     H74375   2.786   7.583  10.298 -1.0284  0.7903  0.6412
  539MOL0     H74376   2.541   7.638  10.109  1.8364 -0.4385 -0.8163
  539MOL0     H74377   2.540   7.679  10.282  3.0004  2.3844  0.0102
  539MOL0     H74378   2.548   7.250  10.281 -1.3565  0.3398  2.0672
  539MOL0     H74379   3.027   8.128  10.050  0.1046  0.0936  0.1606
  539MOL0     H74380   3.310   8.322  10.108  3.0981 -3.6347  1.8038
  539MOL0     H74381   3.314   8.252   9.947  1.9855 -3.2085  1.8690
  539MOL0     H74382   3.156   8.321  10.021  0.2792 -0.5382 -1.2141
  540MOL0     O74383   8.236   1.442   7.958 -0.3731  0.1432  0.0754
  540MOL0     C74384   8.144   1.523   7.962 -0.5118 -0.5215  0.6652
  540MOL0     O74385   8.136   1.634   8.034  0.0854  1.0064  0.3780
  540MOL0     C74386   8.243   1.676   8.108  1.2682 -0.1911  0.6464
  540MOL0     C74387   8.353   1.735   8.048  0.5134 -0.4960 -0.0742
  540MOL0     C74388   8.465   1.786   8.126  0.4489  0.2392 -0.0471
  540MOL0     C74389   8.452   1.792   8.268  0.3442 -0.1572 -0.5887
  540MOL0     O74390   8.554   1.843   8.347  0.1555 -0.7303  0.2673
  540MOL0     C74391   8.688   1.850   8.303  0.3009 -0.2918 -0.6614
  540MOL0     C74392   8.776   1.889   8.419  0.4776 -0.4654 -0.1587
  540MOL0     C74393   8.926   1.876   8.384  0.7596 -0.2669  0.2675
  540MOL0     C74394   8.975   1.737   8.347 -0.0719  0.3469  0.6853
  540MOL0     C74395   9.132   1.721   8.331  0.9848 -1.1678 -0.7646
  540MOL0     C74396   9.191   1.823   8.235 -0.0493 -0.4652  0.3851
  540MOL0     C74397   9.346   1.834   8.243 -0.9010 -0.2253 -0.3796
  540MOL0     C74398   9.415   1.717   8.172 -0.2091  0.1355  0.4998
  540MOL0     N74399   9.412   1.723   8.030  0.5639  0.1278  0.1133
  540MOL0     C74400   9.432   1.836   7.948 -0.5018  0.0596 -0.5364
  540MOL0     C74401   9.384   1.798   7.831 -0.2214  0.6007 -0.2322
  540MOL0     C74402   9.400   1.871   7.710  0.3028 -0.0990 -0.8849
  540MOL0     C74403   9.469   1.790   7.597  0.3652  0.1826 -0.2414
  540MOL0     C74404   9.616   1.736   7.630  1.1872 -0.1942  0.2281
  540MOL0     C74405   9.706   1.855   7.664 -0.3077  0.8127  1.0795
  540MOL0     O74406   9.839   1.814   7.628 -0.2218 -0.6530 -0.1620
  540MOL0     C74407   9.922   1.742   7.709  0.2648  0.0867  1.3191
  540MOL0     C74408  10.031   1.682   7.652 -0.8265  0.8892  0.2412
  540MOL0     C74409  10.115   1.605   7.742 -0.4843  0.1943 -0.6623
  540MOL0     C74410  10.233   1.537   7.684 -0.0415  0.5599  0.6587
  540MOL0     C74411  10.090   1.597   7.885 -0.8437 -0.7216  0.9427
  540MOL0     C74412  10.176   1.513   7.979  0.2801 -0.3296  0.1514
  540MOL0     O74413  10.101   1.490   8.093 -0.3043  0.8838 -0.4161
  540MOL0     C74414  10.148   1.406   8.193 -0.4759 -0.5306  0.1319
  540MOL0     C74415  10.177   1.271   8.171  0.1388  1.3354 -0.1379
  540MOL0     C74416  10.214   1.180   8.278  0.0326 -0.2002  0.8469
  540MOL0     C74417  10.215   1.224   8.414  0.4386  0.5455  0.2682
  540MOL0     O74418  10.227   1.128   8.520 -0.0014  0.3677 -0.0280
  540MOL0     C74419  10.295   1.170   8.637  0.8242  0.2891  0.1514
  540MOL0     C74420  10.316   1.052   8.736 -0.4959  0.6183 -0.5051
  540MOL0     C74421  10.386   0.930   8.663  0.2600 -0.0959 -0.0592
  540MOL0     C74422  10.487   0.863   8.751  0.4682  0.0649  0.1361
  540MOL0     C74423  10.541   0.749   8.676  0.3016  1.4872  0.7233
  540MOL0     C74424  10.442   0.626   8.694 -0.0315 -0.5956 -0.5279
  540MOL0     C74425  10.484   0.499   8.623  0.7916 -1.2040  0.0702
  540MOL0     C74426  10.431   0.376   8.685  0.2404 -0.0725  0.0717
  540MOL0    Cl74427  10.250   0.385   8.742 -0.4948 -0.3527  0.0525
  540MOL0     C74428  10.187   1.356   8.433 -0.7366 -0.7553  0.4662
  540MOL0     C74429  10.156   1.445   8.331  0.7910 -0.6915 -0.2279
  540MOL0     O74430  10.298   1.499   7.965 -0.0855  0.0908  0.4125
  540MOL0     C74431   9.995   1.683   7.930 -0.5939 -0.4292 -0.7999
  540MOL0     C74432   9.907   1.750   7.849 -0.1264 -0.4236 -0.1473
  540MOL0     N74433   9.330   1.664   7.840  0.0604 -0.9015  0.4986
  540MOL0     N74434   9.347   1.624   7.962  0.0466  0.4241 -0.3916
  540MOL0     C74435   8.334   1.746   8.328 -1.0039  0.7084  0.4091
  540MOL0     C74436   8.236   1.680   8.244  0.3987 -0.3154 -0.3878
  540MOL0     C74437   8.026   1.476   7.878  0.0789  0.3815 -0.3548
  540MOL0     C74438   7.898   1.535   7.908  0.1446 -0.2860  0.1960
  540MOL0     C74439   7.782   1.497   7.836  0.5060 -1.2077  0.4914
  540MOL0     C74440   7.783   1.402   7.733  1.2246  0.1598 -0.3260
  540MOL0     O74441   7.654   1.374   7.686 -0.3504  0.1568  0.0364
  540MOL0     C74442   7.632   1.252   7.604  0.1229 -0.1937  0.1680
  540MOL0     C74443   7.486   1.240   7.543  0.3838 -0.2720 -0.5805
  540MOL0     C74444   7.450   1.101   7.490 -0.0672 -0.0418 -0.5490
  540MOL0     C74445   7.488   1.076   7.337  0.0683 -0.5120  0.0695
  540MOL0     C74446   7.425   1.168   7.246  0.1797  0.3497  0.3361
  540MOL0     C74447   7.375   1.232   7.158  0.7285 -0.2310 -0.5163
  540MOL0     C74448   7.907   1.341   7.700  0.9892  0.8658  0.1219
  540MOL0     C74449   8.029   1.373   7.773  0.3038 -0.1652  0.7565
  540MOL0     C74450   8.144   1.287   7.740 -0.2491 -0.0729  0.2931
  540MOL0     H74451   8.354   1.727   7.939 -0.3823 -2.1447  0.0072
  540MOL0     H74452   8.553   1.827   8.076  1.9534 -0.6756  1.7343
  540MOL0     H74453   8.701   1.918   8.218 -0.8005 -0.7163 -1.1908
  540MOL0     H74454   8.726   1.754   8.269 -2.6847 -1.1352 -1.9523
  540MOL0     H74455   8.755   1.996   8.428  0.7183 -0.3133 -1.2735
  540MOL0     H74456   8.751   1.832   8.508 -0.1508  1.2809  0.8264
  540MOL0     H74457   8.926   1.939   8.294 -2.6532  0.5913  0.7325
  540MOL0     H74458   8.987   1.915   8.466 -0.0216 -0.5996  1.0249
  540MOL0     H74459   8.945   1.668   8.426  1.8963 -0.1758  1.0398
  540MOL0     H74460   8.926   1.701   8.256 -1.6806  1.4547  1.0717
  540MOL0     H74461   9.141   1.617   8.301 -2.7057 -0.6825 -4.4459
  540MOL0     H74462   9.174   1.742   8.430 -1.8186  3.5682 -0.2532
  540MOL0     H74463   9.152   1.816   8.134 -3.7860  2.5592  1.3946
  540MOL0     H74464   9.156   1.924   8.260  2.3697  1.2254 -2.4533
  540MOL0     H74465   9.387   1.839   8.344 -0.0655  0.1231 -0.7262
  540MOL0     H74466   9.367   1.925   8.186 -1.0430 -0.1506 -0.3138
  540MOL0     H74467   9.522   1.706   8.193  0.1629  0.9373 -0.8627
  540MOL0     H74468   9.372   1.622   8.206 -1.2706 -0.5872 -2.5847
  540MOL0     H74469   9.468   1.931   7.985 -1.3076 -0.6731  2.4259
  540MOL0     H74470   9.460   1.959   7.736  0.3961 -0.7014  1.0906
  540MOL0     H74471   9.300   1.895   7.673  0.6166 -0.2141 -1.8357
  540MOL0     H74472   9.408   1.703   7.574 -2.6809  1.4814  2.2263
  540MOL0     H74473   9.465   1.862   7.514 -2.7386  1.3450  0.7594
  540MOL0     H74474   9.604   1.676   7.720 -0.2116 -1.3726 -0.6915
  540MOL0     H74475   9.647   1.677   7.543 -2.0516 -0.3726 -0.9350
  540MOL0     H74476   9.668   1.942   7.610  0.8521  2.7283  3.2042
  540MOL0     H74477   9.684   1.879   7.768 -1.5461  4.0639  0.2005
  540MOL0     H74478  10.055   1.672   7.547 -2.3702 -2.3936  0.0818
  540MOL0     H74479  10.237   1.559   7.577  0.2601 -0.7731  0.3845
  540MOL0     H74480  10.226   1.428   7.689  1.1157  0.3424 -1.5060
  540MOL0     H74481  10.330   1.568   7.725  0.9992  0.2259 -1.4328
  540MOL0     H74482  10.172   1.243   8.067 -2.3679 -0.0015  0.2644
  540MOL0     H74483  10.236   1.083   8.235  1.2471 -0.0443  1.0651
  540MOL0     H74484  10.391   1.215   8.608  1.3555 -0.8340  0.1376
  540MOL0     H74485  10.226   1.242   8.683  0.6799  1.9376 -2.4214
  540MOL0     H74486  10.379   1.076   8.822  1.3857  0.0186 -1.6465
  540MOL0     H74487  10.222   1.012   8.775 -0.0210  1.0943  1.1841
  540MOL0     H74488  10.430   0.962   8.568 -0.0025 -0.2104 -0.2234
  540MOL0     H74489  10.298   0.867   8.643 -0.6250  1.0865 -0.0155
  540MOL0     H74490  10.438   0.840   8.847  1.3427  1.3612  0.9303
  540MOL0     H74491  10.562   0.935   8.784  0.7341 -0.8539  1.6397
  540MOL0     H74492  10.561   0.767   8.570  2.5913  1.3864  1.0787
  540MOL0     H74493  10.639   0.720   8.714  1.0396 -2.2453 -3.2285
  540MOL0     H74494  10.337   0.642   8.672 -0.4009 -0.2281  1.3169
  540MOL0     H74495  10.438   0.613   8.803 -0.3015  4.9733  0.4319
  540MOL0     H74496  10.593   0.491   8.623  0.6556 -4.2241 -0.7383
  540MOL0     H74497  10.449   0.497   8.519 -0.9673  1.7757  0.4877
  540MOL0     H74498  10.490   0.346   8.772  0.8399 -0.0885 -0.3330
  540MOL0     H74499  10.421   0.294   8.614  0.7533  0.2066 -0.3231
  540MOL0     H74500  10.185   1.381   8.539  0.3754 -1.7428  0.7538
  540MOL0     H74501  10.130   1.544   8.368  1.1904 -1.3427  1.9649
  540MOL0     H74502   9.988   1.692   8.038 -0.2054  0.6035 -0.8459
  540MOL0     H74503   9.840   1.810   7.910  0.9764 -0.0270  0.7006
  540MOL0     H74504   8.309   1.762   8.432 -0.3591  1.9093  0.3897
  540MOL0     H74505   8.144   1.642   8.287  1.8167 -2.8980  0.5723
  540MOL0     H74506   7.876   1.598   7.993 -2.2257  1.8307 -1.8145
  540MOL0     H74507   7.692   1.548   7.871  0.2348 -1.5780  0.3442
  540MOL0     H74508   7.703   1.258   7.521  2.9586 -3.6311  2.0781
  540MOL0     H74509   7.658   1.157   7.652 -0.4009 -0.6908 -0.5083
  540MOL0     H74510   7.496   1.313   7.463  2.0870  1.2864  0.9550
  540MOL0     H74511   7.410   1.262   7.618  0.8695 -0.3900 -0.0424
  540MOL0     H74512   7.501   1.027   7.552  1.8119  2.4017  1.0426
  540MOL0     H74513   7.344   1.080   7.504  0.3319 -0.8057  1.8042
  540MOL0     H74514   7.475   0.974   7.298 -1.4816 -0.5732  0.6955
  540MOL0     H74515   7.595   1.100   7.330 -0.5106  2.1851 -0.6837
  540MOL0     H74516   7.316   1.287   7.086 -0.7259  0.1131  0.8822
  540MOL0     H74517   7.901   1.260   7.627 -1.2126  0.7839  0.3272
  540MOL0     H74518   8.131   1.224   7.651  3.5098  1.4585 -1.5551
  540MOL0     H74519   8.214   1.365   7.708 -0.3170  0.8171  2.2087
  540MOL0     H74520   8.177   1.221   7.821  3.1417 -3.0405 -3.0789
  541MOL0     O74521   4.685   2.795   4.198 -0.1322 -0.1440 -0.1671
  541MOL0     C74522   4.624   2.782   4.303  0.2015  0.5501 -1.2619
  541MOL0     O74523   4.597   2.666   4.372 -0.6597 -0.1439  0.7108
  541MOL0     C74524   4.642   2.545   4.321 -0.2557  0.7432 -0.9411
  541MOL0     C74525   4.756   2.519   4.240  0.1512 -0.4360 -0.9470
  541MOL0     C74526   4.781   2.396   4.189 -0.3513 -0.0245 -0.3008
  541MOL0     C74527   4.689   2.288   4.204  0.3764  0.5955 -0.4087
  541MOL0     O74528   4.705   2.163   4.144 -0.0003 -0.5109  0.4295
  541MOL0     C74529   4.833   2.136   4.080  0.5073 -0.1838  0.1723
  541MOL0     C74530   4.845   1.991   4.032  0.2929 -0.9631 -1.0914
  541MOL0     C74531   4.811   1.893   4.143  0.3749  0.2783 -0.0566
  541MOL0     C74532   4.889   1.765   4.118  0.2198 -0.0037  0.2295
  541MOL0     C74533   4.858   1.656   4.233  0.5854 -0.0790  0.0981
  541MOL0     C74534   4.904   1.698   4.368 -0.8710  0.2453 -0.4736
  541MOL0     C74535   4.921   1.584   4.458  0.1144 -0.2775 -1.0222
  541MOL0     C74536   4.972   1.631   4.594 -0.0156  0.4267  0.5468
  541MOL0     N74537   5.090   1.722   4.594 -0.3799  0.2142 -0.6680
  541MOL0     C74538   5.215   1.680   4.617 -0.0997  0.1415  0.6940
  541MOL0     C74539   5.292   1.795   4.625 -0.0573 -0.2596 -0.1162
  541MOL0     C74540   5.439   1.804   4.614  0.0894  0.1971  0.3695
  541MOL0     C74541   5.516   1.820   4.739  0.2906  0.1490 -0.4645
  541MOL0     C74542   5.666   1.783   4.717  0.1219  1.3068 -0.2088
  541MOL0     C74543   5.748   1.828   4.830 -0.0935  0.7082 -0.5471
  541MOL0     O74544   5.707   1.761   4.950  0.6031 -0.6710  0.1686
  541MOL0     C74545   5.804   1.761   5.055 -0.1806  0.0097  0.3250
  541MOL0     C74546   5.779   1.682   5.162  0.3372 -0.9560  0.2526
  541MOL0     C74547   5.863   1.676   5.277  0.0581 -0.6228 -0.3148
  541MOL0     C74548   5.808   1.586   5.384 -0.4537  0.9657  0.7542
  541MOL0     C74549   5.969   1.767   5.287  0.2585 -0.1765  0.6380
  541MOL0     C74550   6.053   1.793   5.406  1.3008 -0.5088 -0.4507
  541MOL0     O74551   6.101   1.918   5.419  0.2378 -0.2496  0.7422
  541MOL0     C74552   6.149   1.965   5.542  0.4765 -0.2463  0.1143
  541MOL0     C74553   6.233   2.086   5.541  0.3539 -1.5168  0.4610
  541MOL0     C74554   6.293   2.138   5.656  0.6939 -0.0045  0.8973
  541MOL0     C74555   6.281   2.061   5.772  0.2092 -0.5642  0.2659
  541MOL0     O74556   6.331   2.103   5.896 -0.6000 -0.2762  0.0902
  541MOL0     C74557   6.438   2.192   5.893 -0.3777  0.1408 -0.2965
  541MOL0     C74558   6.494   2.216   6.034  0.2452  0.0723  0.2853
  541MOL0     C74559   6.586   2.342   6.052  0.2554 -0.5545  0.3338
  541MOL0     C74560   6.717   2.336   5.970 -0.0601  0.7218  0.4225
  541MOL0     C74561   6.815   2.453   5.984 -0.0267  0.5975  0.4473
  541MOL0     C74562   6.926   2.449   5.897  0.2471  0.3370  0.5021
  541MOL0     C74563   7.031   2.556   5.911 -0.3719 -0.1222  0.1024
  541MOL0     C74564   7.158   2.519   5.834 -0.4931  0.8347  0.5601
  541MOL0    Cl74565   7.102   2.524   5.664  0.5095 -0.3098  0.0730
  541MOL0     C74566   6.198   1.952   5.780 -0.4068 -0.8160  0.1382
  541MOL0     C74567   6.135   1.904   5.663  0.3344  0.4711 -1.2588
  541MOL0     O74568   6.083   1.697   5.469 -0.0747  0.0905  0.0053
  541MOL0     C74569   5.994   1.844   5.169  0.2411 -0.8788 -0.0771
  541MOL0     C74570   5.917   1.834   5.053 -1.0144  0.2986  0.1148
  541MOL0     N74571   5.209   1.909   4.635 -0.0506  0.3727  0.0004
  541MOL0     N74572   5.082   1.856   4.623 -1.1898 -0.3498 -0.2253
  541MOL0     C74573   4.579   2.308   4.284  0.1187  0.4783  0.8199
  541MOL0     C74574   4.560   2.426   4.347  0.6824 -0.3778 -0.6439
  541MOL0     C74575   4.566   2.892   4.369  0.1394  0.2652 -0.3533
  541MOL0     C74576   4.454   2.870   4.450  1.2109  0.4001 -0.9226
  541MOL0     C74577   4.390   2.965   4.538 -0.1107  1.0692  0.2855
  541MOL0     C74578   4.440   3.093   4.528 -0.3888  0.4137  0.0912
  541MOL0     O74579   4.364   3.183   4.594  0.0127 -0.4838 -0.2461
  541MOL0     C74580   4.325   3.297   4.524  0.0928 -0.9789  0.4328
  541MOL0     C74581   4.257   3.385   4.631 -1.1521  0.3935  0.3552
  541MOL0     C74582   4.216   3.519   4.578  0.5576 -0.1667 -1.0388
  541MOL0     C74583   4.094   3.566   4.653  0.2486 -0.8392  0.0289
  541MOL0     C74584   4.130   3.640   4.777  0.0386 -0.4439  1.1261
  541MOL0     C74585   4.174   3.711   4.860  0.6190 -0.2696  0.0060
  541MOL0     C74586   4.554   3.127   4.450  0.0562  0.1730  0.6848
  541MOL0     C74587   4.616   3.024   4.365 -0.5360 -0.2094 -0.1487
  541MOL0     C74588   4.740   3.064   4.300 -0.2075  0.0636  0.4778
  541MOL0     H74589   4.835   2.594   4.235  0.2378 -0.1746  2.1313
  541MOL0     H74590   4.874   2.388   4.132 -0.6368  0.8867 -0.9198
  541MOL0     H74591   4.916   2.152   4.148 -0.8103 -0.1737  1.8526
  541MOL0     H74592   4.861   2.203   3.998  1.1425  1.5330  1.7170
  541MOL0     H74593   4.777   1.982   3.947  1.7282 -2.9066 -2.0956
  541MOL0     H74594   4.946   1.972   3.996  0.1872  0.4471 -2.2475
  541MOL0     H74595   4.843   1.934   4.240  0.8662  2.5359 -1.1108
  541MOL0     H74596   4.706   1.864   4.152 -0.0027  1.5903 -0.1589
  541MOL0     H74597   4.838   1.724   4.031 -4.2355  3.2674  0.9390
  541MOL0     H74598   4.996   1.776   4.097  0.0086 -0.3113 -1.1212
  541MOL0     H74599   4.904   1.560   4.205 -0.2273 -0.2272 -0.7792
  541MOL0     H74600   4.750   1.641   4.243  0.7647 -1.2339  0.5254
  541MOL0     H74601   4.996   1.752   4.348  0.9912 -2.7179 -0.5474
  541MOL0     H74602   4.837   1.770   4.417 -1.7433  0.6266 -2.1689
  541MOL0     H74603   5.003   1.522   4.419  1.5842  0.2062  1.1498
  541MOL0     H74604   4.834   1.519   4.467 -0.1468  0.2070 -0.0062
  541MOL0     H74605   4.894   1.677   4.656  0.3091  1.3008  0.3263
  541MOL0     H74606   4.991   1.533   4.638  0.2563 -0.3433 -1.2116
  541MOL0     H74607   5.262   1.582   4.613  2.6677  1.4288 -0.4727
  541MOL0     H74608   5.453   1.888   4.545 -1.8342  0.3472  0.1081
  541MOL0     H74609   5.477   1.712   4.567 -1.5349 -1.0211  1.3255
  541MOL0     H74610   5.515   1.926   4.769 -2.2291  0.8309 -2.6367
  541MOL0     H74611   5.459   1.765   4.814 -1.6187  0.3828 -1.6864
  541MOL0     H74612   5.674   1.675   4.701  2.5654  1.2015  1.2919
  541MOL0     H74613   5.711   1.820   4.624  4.1681  0.7842  1.3331
  541MOL0     H74614   5.852   1.799   4.814 -0.1700 -0.8414  1.3939
  541MOL0     H74615   5.732   1.934   4.853 -0.7505  0.8104 -1.3910
  541MOL0     H74616   5.692   1.618   5.150 -0.7709  0.4054  0.7835
  541MOL0     H74617   5.892   1.529   5.423 -1.3241 -1.6796 -0.9248
  541MOL0     H74618   5.741   1.512   5.339  1.4875 -0.1848 -0.3681
  541MOL0     H74619   5.752   1.634   5.465 -1.3726 -0.5100  1.0495
  541MOL0     H74620   6.247   2.135   5.445  1.8505 -2.7817 -0.0046
  541MOL0     H74621   6.356   2.226   5.647  0.2346  0.2361 -0.0197
  541MOL0     H74622   6.515   2.141   5.832  0.5561 -1.2433  1.9199
  541MOL0     H74623   6.417   2.286   5.841  0.4030  0.7417  0.4400
  541MOL0     H74624   6.415   2.227   6.109 -0.4928 -1.2812 -0.2726
  541MOL0     H74625   6.553   2.128   6.060 -2.5181 -2.5557 -1.7777
  541MOL0     H74626   6.611   2.350   6.158  1.6891  1.4709 -0.0921
  541MOL0     H74627   6.527   2.431   6.026  2.2595  0.6456 -0.3444
  541MOL0     H74628   6.689   2.335   5.865  1.6871 -2.8471 -0.1815
  541MOL0     H74629   6.760   2.238   5.996 -2.3843 -0.4366  0.2089
  541MOL0     H74630   6.763   2.546   5.959  1.9122  1.8051  0.7194
  541MOL0     H74631   6.852   2.461   6.086  0.7940 -1.4676  0.3734
  541MOL0     H74632   6.877   2.458   5.799 -0.9925 -0.5318  1.0131
  541MOL0     H74633   6.976   2.352   5.909  1.5909  0.2615 -3.9958
  541MOL0     H74634   7.065   2.561   6.015 -0.4329 -0.6522  0.1483
  541MOL0     H74635   6.987   2.648   5.872  0.2705 -0.0000 -0.3606
  541MOL0     H74636   7.183   2.414   5.849 -3.6567 -0.1745 -0.4431
  541MOL0     H74637   7.238   2.594   5.841  1.0221 -0.7549  0.8586
  541MOL0     H74638   6.188   1.905   5.877  0.7907  0.8295  1.1047
  541MOL0     H74639   6.078   1.812   5.669  1.1026  0.0458  0.1519
  541MOL0     H74640   6.075   1.915   5.179 -2.2331  2.1519 -0.0922
  541MOL0     H74641   5.948   1.888   4.965 -0.3555 -1.6773 -0.9285
  541MOL0     H74642   4.519   2.221   4.308  0.5001  0.2825  1.0819
  541MOL0     H74643   4.476   2.438   4.414  1.1581 -2.0740  0.3065
  541MOL0     H74644   4.409   2.771   4.452 -1.4717  1.5392 -0.7792
  541MOL0     H74645   4.305   2.942   4.602 -1.1139 -0.3911 -1.4672
  541MOL0     H74646   4.413   3.353   4.491 -0.7318 -1.6602 -3.3185
  541MOL0     H74647   4.272   3.280   4.431  4.9418  0.0584 -2.9316
  541MOL0     H74648   4.322   3.396   4.718  0.1198 -2.3725 -0.1481
  541MOL0     H74649   4.170   3.331   4.669  0.2438 -2.2477 -0.0226
  541MOL0     H74650   4.288   3.599   4.599 -0.7323  0.0143  4.0207
  541MOL0     H74651   4.200   3.514   4.470  1.3250 -1.2849 -1.1137
  541MOL0     H74652   4.027   3.482   4.671  1.0855 -1.0342  2.5241
  541MOL0     H74653   4.041   3.644   4.596  0.2076 -1.0109 -0.1722
  541MOL0     H74654   4.204   3.786   4.930  0.4291  0.6644 -0.8895
  541MOL0     H74655   4.590   3.230   4.447 -3.0271  1.3401  0.7645
  541MOL0     H74656   4.726   3.079   4.193  0.7329 -2.4720 -0.0805
  541MOL0     H74657   4.786   3.157   4.334  2.3971  0.2566 -3.0263
  541MOL0     H74658   4.817   2.986   4.304 -1.2172 -0.9185  1.5571
  542MOL0     O74659  10.279  11.027   8.241  0.2027 -0.2660  0.6002
  542MOL0     C74660  10.182  10.959   8.216  0.8127  0.2997 -0.4944
  542MOL0     O74661  10.156  10.874   8.108 -0.5777 -0.1187 -0.2633
  542MOL0     C74662  10.265  10.827   8.033  0.3174  0.3103 -0.0341
  542MOL0     C74663  10.285  10.875   7.909 -0.6488 -0.7153 -0.6166
  542MOL0     C74664  10.400  10.830   7.832  1.2458 -0.9398 -0.3034
  542MOL0     C74665  10.487  10.734   7.894 -0.7323 -0.6475  1.0696
  542MOL0     O74666  10.615  10.703   7.834  0.5534 -0.9062  0.1771
  542MOL0     C74667  10.679  10.799   7.750  0.3205  0.3714  0.0584
  542MOL0     C74668  10.813  10.732   7.690  0.2851  0.0067 -0.2933
  542MOL0     C74669  10.803  10.593   7.624  0.0480 -0.0583 -1.3328
  542MOL0     C74670  10.723  10.572   7.495  0.4160  0.0172  0.5048
  542MOL0     C74671  10.577  10.546   7.526  0.1109  0.2060 -0.2411
  542MOL0     C74672  10.502  10.521   7.387 -0.3893  0.5644 -0.1660
  542MOL0     C74673  10.352  10.499   7.413 -0.0235  0.2407 -0.6504
  542MOL0     C74674  10.345  10.358   7.472 -0.1105  0.0072 -0.4742
  542MOL0     N74675  10.212  10.308   7.490  0.0964 -0.0892 -0.0372
  542MOL0     C74676  10.096  10.334   7.421  0.3887 -0.5735  0.2285
  542MOL0     C74677   9.999  10.265   7.482  0.0202  0.0472  0.0132
  542MOL0     C74678   9.856  10.260   7.424 -0.7484 -0.1681 -0.4174
  542MOL0     C74679   9.824  10.114   7.398  0.3061  0.3202  0.2177
  542MOL0     C74680   9.878  10.048   7.263 -0.4248 -0.7440  0.6452
  542MOL0     C74681   9.932   9.902   7.281 -0.2910 -0.4721  0.1541
  542MOL0     O74682  10.033   9.881   7.184  0.2973 -0.3164 -0.0833
  542MOL0     C74683  10.168   9.906   7.205  0.4874 -0.3527 -0.5361
  542MOL0     C74684  10.260   9.867   7.113  0.4680 -0.3173 -0.7007
  542MOL0     C74685  10.401   9.882   7.125 -0.1327 -0.0171 -0.4074
  542MOL0     C74686  10.480   9.824   7.010 -0.7451 -0.8065 -0.2662
  542MOL0     C74687  10.443   9.959   7.234 -0.9015 -0.7849 -0.9431
  542MOL0     C74688  10.579  10.021   7.246  0.3402 -0.6622  0.8637
  542MOL0     O74689  10.612  10.072   7.359 -0.3038 -0.0937  0.6427
  542MOL0     C74690  10.745  10.095   7.387 -0.2920  0.5164 -0.4385
  542MOL0     C74691  10.772  10.201   7.484  0.3427 -0.1091  0.6038
  542MOL0     C74692  10.898  10.246   7.502 -0.2932 -0.2151  0.7118
  542MOL0     C74693  11.010  10.187   7.449 -0.0442  0.6356  0.6716
  542MOL0     O74694  11.139  10.230   7.474  0.1595  0.2058  0.3513
  542MOL0     C74695  11.162  10.364   7.428  0.4532 -0.9406 -0.1653
  542MOL0     C74696  11.198  10.442   7.550  0.3995 -0.4791  0.1408
  542MOL0     C74697  11.198  10.590   7.529 -0.6783 -1.0856 -0.1086
  542MOL0     C74698  11.247  10.669   7.658  0.2713  0.0324  0.5911
  542MOL0     C74699  11.219  10.814   7.646 -0.5158 -0.2636 -0.6118
  542MOL0     C74700  11.320  10.907   7.726 -0.1996  0.8665  0.6089
  542MOL0     C74701  11.310  10.900   7.885 -0.5674  0.5941 -0.1501
  542MOL0     C74702  11.179  10.898   7.954 -0.2241 -0.5820 -0.1891
  542MOL0    Cl74703  11.091  11.049   7.923  0.1439 -0.4642  0.0903
  542MOL0     C74704  10.989  10.072   7.375  0.2000 -0.7651 -0.4402
  542MOL0     C74705  10.861  10.023   7.338 -0.4465  0.0446 -0.2008
  542MOL0     O74706  10.645  10.021   7.143  0.3406  0.1497  0.0137
  542MOL0     C74707  10.347   9.997   7.329  0.2539  0.2069 -0.3794
  542MOL0     C74708  10.220   9.957   7.325  0.3514 -0.8341  0.0352
  542MOL0     N74709  10.056  10.207   7.596  0.4017  0.2851 -0.3700
  542MOL0     N74710  10.179  10.234   7.598 -0.0719 -0.3146  0.4851
  542MOL0     C74711  10.457  10.678   8.013  0.0477 -0.5747  0.5981
  542MOL0     C74712  10.341  10.727   8.085  0.3072 -0.6952  0.9569
  542MOL0     C74713  10.078  10.967   8.324 -1.0179  0.2195 -0.2829
  542MOL0     C74714   9.953  10.922   8.290 -0.3510 -0.0419  0.2455
  542MOL0     C74715   9.847  10.931   8.380 -0.8515 -1.2823 -1.2539
  542MOL0     C74716   9.866  10.977   8.508 -0.1021  0.0608 -0.6184
  542MOL0     O74717   9.752  10.949   8.587  0.1424  0.1374  0.9155
  542MOL0     C74718   9.756  10.963   8.726 -0.1050 -1.2437 -0.6494
  542MOL0     C74719   9.613  10.937   8.772 -0.1061 -0.2576 -0.1046
  542MOL0     C74720   9.581  10.789   8.773  0.0640  0.2704 -1.1001
  542MOL0     C74721   9.430  10.780   8.818 -0.3120  0.4812  0.4108
  542MOL0     C74722   9.368  10.665   8.761 -0.3338 -0.4425  0.4222
  542MOL0     C74723   9.312  10.560   8.733  0.6340 -0.4808  0.9141
  542MOL0     C74724   9.987  11.028   8.545 -0.2371  0.2374 -0.7232
  542MOL0     C74725  10.094  11.024   8.456  0.3921  0.0797  0.5496
  542MOL0     C74726  10.231  11.057   8.504 -0.2493  0.9969  0.1696
  542MOL0     H74727  10.232  10.959   7.865  3.6112  2.2141 -0.8143
  542MOL0     H74728  10.419  10.889   7.743 -0.8232 -1.5834 -1.2414
  542MOL0     H74729  10.712  10.891   7.800 -0.1773  0.3477  0.4386
  542MOL0     H74730  10.609  10.823   7.669  1.7150 -1.5080 -1.8026
  542MOL0     H74731  10.858  10.796   7.614  1.0595 -1.7153 -1.3721
  542MOL0     H74732  10.871  10.720   7.782 -0.5712 -0.6536  0.1865
  542MOL0     H74733  10.908  10.564   7.613 -0.9937 -4.4563 -1.7689
  542MOL0     H74734  10.756  10.532   7.702  2.1525 -1.0510 -0.7904
  542MOL0     H74735  10.731  10.666   7.438  0.3630 -0.6099 -0.5656
  542MOL0     H74736  10.781  10.499   7.437  0.5413 -2.2204  3.2374
  542MOL0     H74737  10.528  10.624   7.586  0.2329  0.3310 -0.3043
  542MOL0     H74738  10.570  10.459   7.592 -1.9123  0.4175 -0.1312
  542MOL0     H74739  10.510  10.605   7.316  2.0493 -0.9031 -1.8066
  542MOL0     H74740  10.549  10.436   7.337  2.0693  0.4839  2.0580
  542MOL0     H74741  10.293  10.515   7.323 -0.2281  0.6773 -0.4418
  542MOL0     H74742  10.322  10.572   7.489 -1.7459  1.3450 -2.3041
  542MOL0     H74743  10.398  10.288   7.407 -0.2922 -1.2688  0.7197
  542MOL0     H74744  10.399  10.364   7.567  2.2926  0.0903 -1.7785
  542MOL0     H74745  10.092  10.400   7.335  1.3198  0.4623  0.9547
  542MOL0     H74746   9.858  10.317   7.331 -0.0365 -1.2070 -1.0602
  542MOL0     H74747   9.783  10.295   7.498 -1.6767  2.5675 -2.4602
  542MOL0     H74748   9.861  10.061   7.487 -2.7384  2.0192  2.6774
  542MOL0     H74749   9.715  10.110   7.402  0.2652 -0.5091 -1.0135
  542MOL0     H74750   9.804  10.061   7.184  1.6012  1.0515 -1.1148
  542MOL0     H74751   9.964  10.109   7.233 -1.2888  0.6100  0.8351
  542MOL0     H74752   9.959   9.885   7.386 -3.2294 -2.6521  0.6829
  542MOL0     H74753   9.854   9.830   7.254  0.2949 -1.1541  0.2354
  542MOL0     H74754  10.223   9.805   7.032 -0.6295 -0.1572 -0.3384
  542MOL0     H74755  10.512   9.907   6.946 -1.7486 -0.3875 -0.2389
  542MOL0     H74756  10.423   9.754   6.948 -4.2689  1.6429 -0.0530
  542MOL0     H74757  10.564   9.774   7.059 -0.7027  0.8395  1.4547
  542MOL0     H74758  10.699  10.265   7.531  0.8427 -0.0322  1.3008
  542MOL0     H74759  10.910  10.333   7.565 -1.8929 -0.3889  1.2958
  542MOL0     H74760  11.236  10.377   7.349  0.5683  0.3044  0.1334
  542MOL0     H74761  11.065  10.402   7.393  0.8385 -0.4105 -0.6600
  542MOL0     H74762  11.122  10.422   7.626 -1.0194 -0.0811 -1.1159
  542MOL0     H74763  11.288  10.403   7.598 -0.2437 -1.4961  0.5688
  542MOL0     H74764  11.102  10.629   7.496  0.4131  0.9941 -1.0336
  542MOL0     H74765  11.269  10.613   7.448 -0.1932 -1.3445  0.2372
  542MOL0     H74766  11.352  10.659   7.685  0.6815  0.6122 -0.7263
  542MOL0     H74767  11.197  10.639   7.751  0.1757 -1.6086  0.0497
  542MOL0     H74768  11.218  10.850   7.542 -0.1513  0.1308 -0.4811
  542MOL0     H74769  11.120  10.828   7.690  0.6434  0.3278  1.9622
  542MOL0     H74770  11.288  11.008   7.698 -1.2441 -0.0339 -1.7123
  542MOL0     H74771  11.424  10.897   7.693 -0.4577 -0.3200  0.1002
  542MOL0     H74772  11.368  10.990   7.906 -0.5497  1.7245 -4.1156
  542MOL0     H74773  11.366  10.818   7.932 -3.3624 -0.2964  1.8993
  542MOL0     H74774  11.184  10.886   8.063  1.4928 -0.3256 -0.2110
  542MOL0     H74775  11.117  10.814   7.920 -0.7522 -0.8845  1.4071
  542MOL0     H74776  11.066  10.019   7.319 -0.2622 -1.9495 -0.0006
  542MOL0     H74777  10.858   9.936   7.273 -1.9258  0.0290 -0.1452
  542MOL0     H74778  10.384  10.055   7.412  0.2163  1.6805 -1.3547
  542MOL0     H74779  10.156   9.990   7.407 -0.9798 -5.1582  0.9576
  542MOL0     H74780  10.517  10.599   8.055 -1.9922 -0.1334  4.8155
  542MOL0     H74781  10.302  10.679   8.174 -0.5168  0.1647  1.0635
  542MOL0     H74782   9.930  10.887   8.190 -1.2564 -2.7068  1.3018
  542MOL0     H74783   9.745  10.901   8.356 -1.7838  0.4442  0.2772
  542MOL0     H74784   9.813  10.889   8.783  1.4389 -1.3337 -2.2577
  542MOL0     H74785   9.791  11.061   8.758  0.5236 -2.4818  2.9692
  542MOL0     H74786   9.549  11.001   8.711  2.9339  1.9467 -1.2185
  542MOL0     H74787   9.587  10.969   8.874 -2.3754 -0.8362 -0.4414
  542MOL0     H74788   9.599  10.754   8.671  1.2453 -1.0503 -0.4723
  542MOL0     H74789   9.642  10.739   8.849  0.0601  2.3864  0.3752
  542MOL0     H74790   9.367  10.864   8.786 -2.2482  0.3808  3.5397
  542MOL0     H74791   9.425  10.777   8.927 -2.0030 -1.3834  0.3403
  542MOL0     H74792   9.262  10.472   8.698  0.3394 -1.1294  2.8531
  542MOL0     H74793  10.006  11.059   8.647 -0.1969  1.4330 -1.0782
  542MOL0     H74794  10.262  11.150   8.456  1.6115  2.0278  3.1271
  542MOL0     H74795  10.223  11.079   8.611 -0.0860 -2.0777  0.8999
  542MOL0     H74796  10.306  10.978   8.501 -0.0610  1.0890  1.8269
  543MOL0     O74797   4.852  11.085   3.920 -0.1065 -0.3389 -0.4009
  543MOL0     C74798   4.786  11.101   3.816  0.8435  0.3149  0.3932
  543MOL0     O74799   4.837  11.136   3.693  1.0090 -0.2547 -0.0813
  543MOL0     C74800   4.967  11.132   3.672 -0.0557 -0.5714 -0.1217
  543MOL0     C74801   5.022  11.240   3.611  0.3521  0.3820  0.2999
  543MOL0     C74802   5.164  11.251   3.599  0.3771  0.3203  0.4158
  543MOL0     C74803   5.244  11.144   3.629 -0.6160 -0.2188 -0.7374
  543MOL0     O74804   5.378  11.138   3.611 -1.0197 -0.4567 -0.4225
  543MOL0     C74805   5.424  11.215   3.498  0.5722 -0.6838 -0.0877
  543MOL0     C74806   5.568  11.213   3.479  0.1512  0.1796  0.6476
  543MOL0     C74807   5.622  11.067   3.453  0.0253  0.2749  0.2617
  543MOL0     C74808   5.774  11.063   3.440  0.8448  0.5383 -1.2088
  543MOL0     C74809   5.812  10.984   3.315  0.2449  0.0889  0.4998
  543MOL0     C74810   5.960  10.957   3.304 -0.0105  0.6133  0.0720
  543MOL0     C74811   5.991  10.876   3.182  0.2589 -0.1559  0.2333
  543MOL0     C74812   6.005  10.731   3.222 -0.3774 -0.1304  0.1413
  543MOL0     N74813   6.149  10.710   3.235 -0.0050  0.2092 -0.4640
  543MOL0     C74814   6.214  10.711   3.361 -0.0392  0.1471 -0.3046
  543MOL0     C74815   6.341  10.667   3.331 -0.0543 -0.1806  0.1069
  543MOL0     C74816   6.452  10.695   3.431 -0.8840 -0.0845  0.8149
  543MOL0     C74817   6.556  10.584   3.417  0.1878  0.2430  0.2953
  543MOL0     C74818   6.663  10.583   3.531  0.1750 -0.4533  0.4066
  543MOL0     C74819   6.725  10.446   3.553  0.2958 -0.7042 -0.1769
  543MOL0     O74820   6.745  10.419   3.693 -0.0945 -0.6286 -0.1573
  543MOL0     C74821   6.854  10.457   3.769 -0.4454 -0.3393  0.6267
  543MOL0     C74822   6.830  10.450   3.900 -0.1875  0.2161 -1.1401
  543MOL0     C74823   6.929  10.469   4.001 -0.2592 -0.7317 -0.2743
  543MOL0     C74824   6.870  10.457   4.143  0.0807 -0.6122  1.1268
  543MOL0     C74825   7.064  10.493   3.967 -0.0491  0.1968 -0.0551
  543MOL0     C74826   7.183  10.509   4.049  0.0144  0.3686 -0.7596
  543MOL0     O74827   7.300  10.473   3.992  0.2493 -0.7072  0.9136
  543MOL0     C74828   7.424  10.476   4.056 -1.1173  0.7294 -0.0673
  543MOL0     C74829   7.475  10.362   4.114  0.2329 -0.2210  0.2296
  543MOL0     C74830   7.598  10.367   4.178 -0.0819 -0.2370 -0.7496
  543MOL0     C74831   7.678  10.486   4.179 -0.2334  0.5677 -0.4390
  543MOL0     O74832   7.789  10.488   4.248 -0.3949  0.4248 -0.4175
  543MOL0     C74833   7.906  10.572   4.224  0.4785  0.1966  0.1279
  543MOL0     C74834   7.908  10.678   4.333 -0.6229 -0.0546 -0.6693
  543MOL0     C74835   8.026  10.776   4.310  0.5062  0.4991 -0.2962
  543MOL0     C74836   8.139  10.750   4.406 -0.0950 -0.8603 -0.5386
  543MOL0     C74837   8.264  10.845   4.394  0.6527  0.6398  0.0419
  543MOL0     C74838   8.348  10.843   4.524  0.1221  0.8047  0.1949
  543MOL0     C74839   8.490  10.890   4.493 -0.1642 -0.5639  0.3601
  543MOL0     C74840   8.593  10.873   4.614 -0.0496  0.1240 -0.5012
  543MOL0    Cl74841   8.556  10.977   4.756 -0.1445 -0.2222 -0.0317
  543MOL0     C74842   7.618  10.605   4.126  0.2389  0.0450  0.1937
  543MOL0     C74843   7.500  10.594   4.060 -0.5987 -0.2067  0.9416
  543MOL0     O74844   7.177  10.561   4.159 -0.7606  1.0239 -0.5494
  543MOL0     C74845   7.087  10.497   3.824  0.2177  0.0780 -0.6653
  543MOL0     C74846   6.988  10.491   3.730  0.9077  0.1913  0.6936
  543MOL0     N74847   6.343  10.636   3.189 -0.3034 -0.1509 -0.7526
  543MOL0     N74848   6.234  10.660   3.141 -0.1381  0.8472 -0.5444
  543MOL0     C74849   5.189  11.029   3.684 -0.4347  0.3649 -0.6184
  543MOL0     C74850   5.050  11.026   3.709  0.1300 -0.0795 -0.2105
  543MOL0     C74851   4.640  11.099   3.818  0.3037  1.3251 -0.1461
  543MOL0     C74852   4.573  11.202   3.752 -0.0577  0.5278 -1.4566
  543MOL0     C74853   4.433  11.226   3.754 -0.5650  0.3830  0.0218
  543MOL0     C74854   4.354  11.127   3.826  0.2756 -0.1915 -0.8367
  543MOL0     O74855   4.219  11.141   3.817  0.2341  0.5779 -0.0914
  543MOL0     C74856   4.132  11.143   3.937  0.1811 -0.2532  0.3402
  543MOL0     C74857   4.155  11.262   4.042  1.0951  0.1127 -0.4331
  543MOL0     C74858   4.088  11.240   4.178 -0.8506 -0.2086 -0.3434
  543MOL0     C74859   4.085  11.099   4.234  0.6936 -0.5538 -0.8033
  543MOL0     C74860   4.228  11.054   4.240 -0.1499  1.6138  0.1119
  543MOL0     C74861   4.347  11.020   4.225  0.5111 -0.1218 -0.3719
  543MOL0     C74862   4.421  11.022   3.890 -0.1293  0.5421 -0.2951
  543MOL0     C74863   4.558  11.004   3.887  0.3188  0.1205 -0.5731
  543MOL0     C74864   4.617  10.881   3.956 -0.0137 -0.5137  0.2719
  543MOL0     H74865   4.961  11.327   3.591 -0.5070 -0.6510 -1.8884
  543MOL0     H74866   5.208  11.348   3.580  0.1489  0.7195  1.8420
  543MOL0     H74867   5.407  11.320   3.522  0.4889 -0.0301 -2.6959
  543MOL0     H74868   5.370  11.192   3.406  3.7808  1.4256 -2.6853
  543MOL0     H74869   5.593  11.276   3.393 -1.5670 -1.9791 -1.6033
  543MOL0     H74870   5.618  11.256   3.566  0.0850  0.0144  0.7694
  543MOL0     H74871   5.587  11.011   3.540  0.8128 -1.9491 -0.7627
  543MOL0     H74872   5.573  11.023   3.365  1.3278  1.5705 -1.1798
  543MOL0     H74873   5.818  11.163   3.436  0.5478  0.9501  2.5214
  543MOL0     H74874   5.798  11.011   3.532 -1.7188 -0.9821 -1.2933
  543MOL0     H74875   5.782  11.042   3.227 -0.1332 -1.1326 -0.2013
  543MOL0     H74876   5.763  10.887   3.306  0.9755 -0.4124  1.6759
  543MOL0     H74877   6.011  11.054   3.301  1.8195 -0.2890  0.9751
  543MOL0     H74878   5.986  10.908   3.398  0.0284 -0.6151 -0.5669
  543MOL0     H74879   6.079  10.918   3.134 -1.9519  2.2456 -1.9820
  543MOL0     H74880   5.906  10.868   3.114 -0.0133  1.3298  0.3686
  543MOL0     H74881   5.952  10.695   3.310  1.0921 -0.4985  0.9033
  543MOL0     H74882   5.969  10.661   3.146 -2.6330 -0.3682  1.3569
  543MOL0     H74883   6.193  10.738   3.464  0.8760 -0.2479 -0.0080
  543MOL0     H74884   6.401  10.691   3.527  1.1863  0.2893  2.0034
  543MOL0     H74885   6.488  10.798   3.414 -1.6052  0.4699  2.4176
  543MOL0     H74886   6.491  10.496   3.415 -1.1262  1.1746  0.3532
  543MOL0     H74887   6.596  10.584   3.315 -2.1386 -3.6161 -0.8079
  543MOL0     H74888   6.743  10.651   3.501  0.2785 -0.7202  0.0688
  543MOL0     H74889   6.623  10.635   3.619 -2.7725  0.0445 -1.1171
  543MOL0     H74890   6.645  10.375   3.529  1.1446 -1.7640  0.0155
  543MOL0     H74891   6.807  10.419   3.485  1.4652 -1.6424  1.5315
  543MOL0     H74892   6.731  10.422   3.932 -0.6449  3.2592  0.4736
  543MOL0     H74893   6.835  10.354   4.156 -2.2275  0.1481  1.2293
  543MOL0     H74894   6.781  10.519   4.137  0.1590 -0.5718 -4.2358
  543MOL0     H74895   6.944  10.485   4.219  2.0369 -2.2027 -0.0986
  543MOL0     H74896   7.413  10.273   4.108 -0.4350  0.3297 -1.9504
  543MOL0     H74897   7.637  10.282   4.232 -0.6216  1.2128  2.1663
  543MOL0     H74898   8.001  10.517   4.227  1.3553  1.6946  2.0537
  543MOL0     H74899   7.892  10.607   4.121 -2.0916  0.0380  0.3575
  543MOL0     H74900   7.816  10.736   4.329  0.0485  1.5124  2.7131
  543MOL0     H74901   7.923  10.635   4.432  0.8574  0.4201 -0.6670
  543MOL0     H74902   7.987  10.877   4.323 -3.2147 -0.6275 -1.2808
  543MOL0     H74903   8.063  10.766   4.208 -3.5355  0.3888 -1.9536
  543MOL0     H74904   8.172  10.646   4.399 -0.9177 -1.1728  0.1850
  543MOL0     H74905   8.112  10.758   4.512  5.0871 -2.7059  1.2395
  543MOL0     H74906   8.318  10.818   4.302  0.3443  1.0761 -0.2657
  543MOL0     H74907   8.214  10.942   4.399 -0.6480 -0.0772  2.2645
  543MOL0     H74908   8.336  10.748   4.577  1.6122 -0.3425 -1.4083
  543MOL0     H74909   8.297  10.919   4.585 -2.9736 -1.0460  0.0912
  543MOL0     H74910   8.487  10.995   4.463  0.2326 -0.8941 -0.8953
  543MOL0     H74911   8.523  10.829   4.408  0.6730  0.0736  0.2168
  543MOL0     H74912   8.696  10.891   4.583  0.3267 -0.7856  0.1668
  543MOL0     H74913   8.597  10.768   4.647  1.1064  0.7390  1.4628
  543MOL0     H74914   7.660  10.704   4.137 -4.3668  2.3272 -0.2556
  543MOL0     H74915   7.461  10.686   4.018  1.0877 -0.0809 -0.4647
  543MOL0     H74916   7.185  10.504   3.778  0.0877 -0.6381 -1.0589
  543MOL0     H74917   7.009  10.501   3.624  0.7297  1.5294  0.7733
  543MOL0     H74918   5.250  10.950   3.725  1.6733  2.6234  0.8767
  543MOL0     H74919   5.000  10.941   3.754 -2.0509  0.6598 -1.0684
  543MOL0     H74920   4.625  11.277   3.693 -1.7036  1.2241 -2.1037
  543MOL0     H74921   4.384  11.302   3.694 -1.2371  0.4331  0.6295
  543MOL0     H74922   4.034  11.143   3.888 -0.4337  0.1725  1.5387
  543MOL0     H74923   4.138  11.045   3.986 -1.3886 -0.0671  0.9647
  543MOL0     H74924   4.132  11.354   3.989  2.1399  0.9529  0.5210
  543MOL0     H74925   4.262  11.257   4.067  0.5701  0.5526  2.2232
  543MOL0     H74926   4.138  11.304   4.252  1.6518 -1.4243 -0.8587
  543MOL0     H74927   3.987  11.281   4.174 -0.5098  0.7324  0.3557
  543MOL0     H74928   4.024  11.033   4.172  0.6644 -1.2584 -0.0424
  543MOL0     H74929   4.043  11.085   4.334 -2.3716 -4.7111 -2.3931
  543MOL0     H74930   4.443  10.988   4.191  0.6200  0.5115 -0.6713
  543MOL0     H74931   4.358  10.950   3.941  0.0850  0.8759  0.4562
  543MOL0     H74932   4.698  10.848   3.890  2.0692 -1.2426  2.9955
  543MOL0     H74933   4.660  10.896   4.055  0.7196  0.4641 -0.1758
  543MOL0     H74934   4.530  10.815   3.964 -0.5786  0.1776 -0.0403
  544MOL0     O74935  11.253   3.747   7.951 -0.4958  0.3565 -0.0018
  544MOL0     C74936  11.229   3.641   7.893  1.8761 -1.0253 -0.3719
  544MOL0     O74937  11.313   3.539   7.882 -0.5564  0.2823  1.0320
  544MOL0     C74938  11.424   3.536   7.965 -0.3516  1.4447 -0.1244
  544MOL0     C74939  11.541   3.591   7.912 -0.0964  0.0527 -0.0106
  544MOL0     C74940  11.650   3.604   8.007 -0.4524  0.3998  1.1281
  544MOL0     C74941  11.633   3.578   8.140 -0.2759  0.3967 -0.2025
  544MOL0     O74942  11.752   3.595   8.217 -0.1239  0.1019 -0.4449
  544MOL0     C74943  11.745   3.591   8.358  0.0972  0.0152 -0.0361
  544MOL0     C74944  11.745   3.440   8.416 -0.3368  0.0047 -0.2436
  544MOL0     C74945  11.887   3.390   8.443 -0.4742 -0.3956 -0.2954
  544MOL0     C74946  11.931   3.398   8.592  0.3855 -0.3913  0.5928
  544MOL0     C74947  12.085   3.394   8.616  0.4443  0.2955 -0.5380
  544MOL0     C74948  12.121   3.389   8.761 -1.0324  0.4749  0.1791
  544MOL0     C74949  12.274   3.353   8.790 -0.3515  0.0406  0.2744
  544MOL0     C74950  12.369   3.459   8.753 -0.4056 -0.1347  0.2391
  544MOL0     N74951  12.511   3.417   8.744  0.2887 -0.0119 -0.1756
  544MOL0     C74952  12.577   3.371   8.631 -0.0554  0.7949 -0.2946
  544MOL0     C74953  12.700   3.348   8.677 -0.2756  0.4593  0.8215
  544MOL0     C74954  12.826   3.295   8.610 -0.1441  0.0750 -0.3688
  544MOL0     C74955  12.838   3.154   8.660 -0.2444 -0.7875  0.4253
  544MOL0     C74956  12.975   3.106   8.607  0.3643 -0.2161 -1.5884
  544MOL0     C74957  13.006   2.959   8.661 -0.3439 -1.0773 -0.7495
  544MOL0     O74958  13.047   2.979   8.797 -0.4544  0.0850 -0.5274
  544MOL0     C74959  13.028   2.877   8.889 -0.6702 -0.0844 -0.2797
  544MOL0     C74960  12.933   2.779   8.888 -0.4399 -0.2327 -0.2347
  544MOL0     C74961  12.910   2.683   8.991 -0.1668  0.9152  0.6686
  544MOL0     C74962  12.808   2.577   8.965  0.5762  0.2446  0.6627
  544MOL0     C74963  13.012   2.676   9.093  0.3952 -0.0499 -0.1323
  544MOL0     C74964  13.014   2.579   9.206 -0.2764  0.6376  0.9552
  544MOL0     O74965  13.120   2.582   9.289 -1.5431 -0.3212 -0.8886
  544MOL0     C74966  13.115   2.515   9.409 -0.2373 -0.0512  0.5091
  544MOL0     C74967  13.217   2.428   9.450  1.6351 -0.3878 -0.0850
  544MOL0     C74968  13.215   2.373   9.581 -0.4697  0.4202 -0.4896
  544MOL0     C74969  13.104   2.377   9.664  0.7132 -0.4910 -0.1295
  544MOL0     O74970  13.095   2.331   9.791  0.0207  0.1133 -0.0407
  544MOL0     C74971  13.215   2.282   9.850  0.6800  0.1874  0.0326
  544MOL0     C74972  13.205   2.228   9.991  0.1086 -0.0677  0.3121
  544MOL0     C74973  13.245   2.333  10.096  0.0618 -0.0825 -0.1066
  544MOL0     C74974  13.200   2.274  10.227  0.4955  0.3557 -0.6924
  544MOL0     C74975  13.232   2.381  10.332 -0.2805 -0.1593 -0.2117
  544MOL0     C74976  13.222   2.331  10.478  0.1308  0.1165  0.1683
  544MOL0     C74977  13.222   2.457  10.578  0.1062 -0.2284  0.3621
  544MOL0     C74978  13.210   2.410  10.726  0.1100  0.0215  0.0516
  544MOL0    Cl74979  13.039   2.406  10.775  0.1441  0.1429 -0.0364
  544MOL0     C74980  12.997   2.458   9.619  0.1681 -0.8058 -0.5990
  544MOL0     C74981  13.004   2.525   9.494 -0.1154  0.6339  0.0458
  544MOL0     O74982  12.924   2.489   9.209 -0.1324 -0.1534 -0.3759
  544MOL0     C74983  13.107   2.779   9.100 -0.4707 -0.5685  0.5979
  544MOL0     C74984  13.107   2.884   9.004  0.7280  0.1959 -1.0007
  544MOL0     N74985  12.708   3.381   8.804  0.0094  0.1816  0.0633
  544MOL0     N74986  12.595   3.424   8.850  0.2102  0.5548 -0.9860
  544MOL0     C74987  11.520   3.512   8.190  0.9675  0.6772 -0.3595
  544MOL0     C74988  11.417   3.494   8.098  0.7911 -0.2532  0.1692
  544MOL0     C74989  11.094   3.622   7.837  0.5565 -0.1004  0.3992
  544MOL0     C74990  11.043   3.498   7.806 -0.4892  0.0756 -0.3230
  544MOL0     C74991  10.923   3.472   7.744 -0.2555  0.3962 -0.1552
  544MOL0     C74992  10.849   3.582   7.691 -1.1345 -0.5796 -0.3253
  544MOL0     O74993  10.742   3.561   7.604 -0.9059  0.0737  0.0055
  544MOL0     C74994  10.623   3.564   7.682  0.7278 -0.4702 -0.1090
  544MOL0     C74995  10.568   3.704   7.704 -0.1588  0.0546  0.1739
  544MOL0     C74996  10.549   3.768   7.558  0.1982  0.0082  0.1282
  544MOL0     C74997  10.443   3.875   7.562 -0.1139 -0.2518  0.2001
  544MOL0     C74998  10.417   3.928   7.424 -0.7668  0.6472 -0.4317
  544MOL0     C74999  10.373   3.966   7.320 -0.5414 -0.7471  0.2118
  544MOL0     C75000  10.903   3.711   7.712 -0.3415  0.2809 -0.3306
  544MOL0     C75001  11.016   3.735   7.794 -1.0391 -0.2804 -0.6600
  544MOL0     C75002  11.061   3.880   7.785 -1.0187  1.0689 -0.7945
  544MOL0     H75003  11.540   3.617   7.807  1.8565  0.5737  0.0656
  544MOL0     H75004  11.743   3.647   7.972 -1.0460  1.2725  0.5860
  544MOL0     H75005  11.647   3.633   8.381 -0.0529 -0.2125 -0.2654
  544MOL0     H75006  11.827   3.652   8.398  0.0336 -0.1957  0.4212
  544MOL0     H75007  11.680   3.420   8.501 -0.4820 -0.0797 -0.3738
  544MOL0     H75008  11.704   3.368   8.345  1.1045 -0.2040 -0.9068
  544MOL0     H75009  11.890   3.287   8.407  2.5743 -1.0945  1.6077
  544MOL0     H75010  11.954   3.453   8.384  0.1492 -0.0183  0.7941
  544MOL0     H75011  11.894   3.492   8.632  0.3920  0.5437 -1.4972
  544MOL0     H75012  11.888   3.317   8.653  2.4811 -1.0866  1.2470
  544MOL0     H75013  12.139   3.480   8.576 -1.6183  2.2066  0.5718
  544MOL0     H75014  12.124   3.302   8.572  1.0889  0.2081  0.1848
  544MOL0     H75015  12.101   3.493   8.789  4.7165  2.6792 -2.2738
  544MOL0     H75016  12.065   3.313   8.817  1.1564 -1.2118  0.2267
  544MOL0     H75017  12.281   3.255   8.742 -2.7697 -0.8032  1.4656
  544MOL0     H75018  12.293   3.335   8.896  3.1486  1.9787  0.1138
  544MOL0     H75019  12.339   3.508   8.660  0.9714  0.0111 -0.1500
  544MOL0     H75020  12.357   3.530   8.835 -0.8714 -1.7712  1.6470
  544MOL0     H75021  12.534   3.348   8.534 -1.2835 -2.8721  0.9525
  544MOL0     H75022  12.907   3.356   8.651 -1.4061 -0.7668  3.9131
  544MOL0     H75023  12.839   3.304   8.502  2.2829  0.3073 -0.1228
  544MOL0     H75024  12.831   3.149   8.769  1.0866  1.8267  0.6929
  544MOL0     H75025  12.754   3.103   8.611 -1.3683  1.3771 -0.0148
  544MOL0     H75026  12.977   3.104   8.498 -0.1884  0.2011 -1.6072
  544MOL0     H75027  13.054   3.175   8.637  2.8988 -3.0349 -1.2006
  544MOL0     H75028  12.926   2.886   8.648  1.7679 -3.5099 -0.8425
  544MOL0     H75029  13.088   2.922   8.599 -1.0258 -4.0321 -0.0521
  544MOL0     H75030  12.852   2.777   8.815 -1.0026  0.8816  0.3306
  544MOL0     H75031  12.753   2.600   8.873  0.5876 -0.8613  0.3656
  544MOL0     H75032  12.744   2.564   9.054  0.3181  1.1767  0.6278
  544MOL0     H75033  12.872   2.493   8.937  0.2553 -0.1171  1.0023
  544MOL0     H75034  13.301   2.416   9.382  0.9625  3.0974 -1.6849
  544MOL0     H75035  13.304   2.314   9.599  0.6289  1.1403 -3.1621
  544MOL0     H75036  13.245   2.198   9.787 -2.2104  0.1343 -1.3973
  544MOL0     H75037  13.286   2.365   9.851 -0.2922  1.0332  0.6492
  544MOL0     H75038  13.097   2.209   9.989  0.2146 -0.6813 -0.0448
  544MOL0     H75039  13.251   2.129  10.001 -3.2835 -1.5933  2.7483
  544MOL0     H75040  13.181   2.420  10.077 -0.8158 -1.1563 -2.6009
  544MOL0     H75041  13.351   2.360  10.098 -0.5812  3.0190 -1.4434
  544MOL0     H75042  13.250   2.179  10.249  0.6862  0.0353 -2.3291
  544MOL0     H75043  13.091   2.264  10.229  0.5013  0.1658  1.7732
  544MOL0     H75044  13.330   2.420  10.300 -0.6030  1.7671  0.9748
  544MOL0     H75045  13.160   2.462  10.316  0.6521  0.4498 -1.5547
  544MOL0     H75046  13.304   2.260  10.496  0.3117  0.1655 -0.4498
  544MOL0     H75047  13.130   2.275  10.495  0.3828 -0.7548 -1.2062
  544MOL0     H75048  13.139   2.523  10.551  1.0767  0.4825 -1.0404
  544MOL0     H75049  13.315   2.513  10.563  0.2598  0.0939  2.2267
  544MOL0     H75050  13.270   2.476  10.789 -0.7198 -0.1262  1.0109
  544MOL0     H75051  13.262   2.314  10.727  1.8159  0.8520  3.0960
  544MOL0     H75052  12.907   2.459   9.679  0.9789 -1.9658  0.7193
  544MOL0     H75053  12.929   2.594   9.459  0.6530  1.4254 -0.0773
  544MOL0     H75054  13.180   2.789   9.179 -2.0618  1.2797  1.9661
  544MOL0     H75055  13.169   2.972   9.023  1.7472 -0.8975  1.0803
  544MOL0     H75056  11.513   3.474   8.292  0.9905  0.1488 -0.5507
  544MOL0     H75057  11.327   3.441   8.128  0.0842  0.0934 -1.2861
  544MOL0     H75058  11.096   3.409   7.838 -3.0244 -1.6405 -0.6331
  544MOL0     H75059  10.888   3.374   7.711  1.9702 -0.7401  0.6593
  544MOL0     H75060  10.543   3.500   7.644  0.6064 -1.9866  2.4701
  544MOL0     H75061  10.633   3.516   7.780 -0.3939 -1.0606 -0.2630
  544MOL0     H75062  10.641   3.764   7.760  0.8238 -1.5002  0.6310
  544MOL0     H75063  10.474   3.697   7.758  1.0207  0.2503  2.3889
  544MOL0     H75064  10.647   3.806   7.527  0.0000  2.9678  2.6228
  544MOL0     H75065  10.521   3.687   7.491 -0.0338  0.3188 -0.1566
  544MOL0     H75066  10.508   3.945   7.616  0.4472 -0.0874 -0.6585
  544MOL0     H75067  10.351   3.843   7.612  0.4691  0.1464  1.5839
  544MOL0     H75068  10.330   4.016   7.236 -0.5801 -0.4000  0.4372
  544MOL0     H75069  10.858   3.790   7.653 -2.1586 -1.7144 -1.7501
  544MOL0     H75070  11.062   3.928   7.884  1.8484  2.1759 -1.2550
  544MOL0     H75071  11.165   3.899   7.754 -1.1936  1.5175 -1.1121
  544MOL0     H75072  10.992   3.945   7.730 -1.7383  1.3326  0.3942
  545MOL0     O75073   0.480   1.932   2.837  0.2107  0.3256 -0.4958
  545MOL0     C75074   0.489   1.995   2.947 -0.3246 -0.1873  0.7531
  545MOL0     O75075   0.591   1.985   3.037 -0.5541  0.4512  0.5055
  545MOL0     C75076   0.697   1.908   2.989  0.1188  0.2469 -0.0782
  545MOL0     C75077   0.692   1.766   2.967  0.3135 -0.4111 -0.1942
  545MOL0     C75078   0.808   1.709   2.920  0.5088  0.0940  0.1572
  545MOL0     C75079   0.927   1.775   2.896 -0.2122 -0.8322 -0.1705
  545MOL0     O75080   1.043   1.703   2.883 -0.4689 -0.0372 -0.0661
  545MOL0     C75081   1.100   1.708   2.746 -0.1199  0.2535 -0.0387
  545MOL0     C75082   1.232   1.794   2.737  0.1475 -0.0765  0.9528
  545MOL0     C75083   1.271   1.817   2.585 -0.6074 -0.1672 -0.1163
  545MOL0     C75084   1.367   1.707   2.534  0.3286  0.2038 -0.6623
  545MOL0     C75085   1.508   1.724   2.588 -0.7482 -0.3315 -0.5509
  545MOL0     C75086   1.598   1.607   2.535 -0.5014  0.1885 -1.0242
  545MOL0     C75087   1.574   1.479   2.622 -0.9202 -0.2758  1.1139
  545MOL0     C75088   1.672   1.375   2.559  0.3498 -0.2780  1.0399
  545MOL0     N75089   1.807   1.401   2.598  0.3707 -0.9142 -0.2529
  545MOL0     C75090   1.855   1.387   2.726  1.0018  0.3185 -0.5101
  545MOL0     C75091   1.976   1.448   2.730 -1.1430  0.9118  0.8036
  545MOL0     C75092   2.050   1.491   2.857  0.1098 -0.2336 -0.2741
  545MOL0     C75093   2.060   1.371   2.957 -0.1097  0.0726 -0.4128
  545MOL0     C75094   2.148   1.400   3.081 -0.4750 -1.0952  0.6876
  545MOL0     C75095   2.297   1.410   3.061  0.4539 -0.3423  0.7556
  545MOL0     O75096   2.339   1.308   2.976  0.2071  0.4359 -0.2682
  545MOL0     C75097   2.468   1.270   2.984 -0.5701 -0.0788 -0.3585
  545MOL0     C75098   2.576   1.346   3.019 -0.9935 -0.0375 -0.1550
  545MOL0     C75099   2.705   1.293   3.019  0.1266  0.5414  0.1121
  545MOL0     C75100   2.813   1.387   3.070  0.7322  0.8492  0.4730
  545MOL0     C75101   2.743   1.163   2.973  0.1481  0.0435 -0.2289
  545MOL0     C75102   2.879   1.094   2.964  0.8032  0.7411  0.4796
  545MOL0     O75103   2.866   0.954   2.931 -0.5080 -0.1538  0.3792
  545MOL0     C75104   2.979   0.901   2.865  0.1375 -0.9365 -0.8950
  545MOL0     C75105   2.982   0.922   2.724 -0.5442 -0.9762 -0.4013
  545MOL0     C75106   3.093   0.878   2.654 -0.2933 -0.4748  0.3609
  545MOL0     C75107   3.195   0.810   2.719 -0.1173 -0.3580  0.3863
  545MOL0     O75108   3.301   0.765   2.638  0.0367  0.0218  0.6322
  545MOL0     C75109   3.335   0.624   2.644  0.1197 -0.2645 -0.1175
  545MOL0     C75110   3.218   0.526   2.631  0.7397 -0.0010 -0.1254
  545MOL0     C75111   3.160   0.517   2.490 -0.1250  0.0233  0.3801
  545MOL0     C75112   3.061   0.398   2.482  0.1457  0.6900 -0.1777
  545MOL0     C75113   2.990   0.387   2.346  0.0479  0.0455  0.6413
  545MOL0     C75114   2.904   0.266   2.350 -0.1577  1.3563 -1.3277
  545MOL0     C75115   2.842   0.258   2.208  0.5232 -0.2221 -0.0068
  545MOL0     C75116   2.776   0.118   2.181  0.2410 -0.9184  0.5987
  545MOL0    Cl75117   2.707   0.079   2.338  0.6899  0.3424 -0.3122
  545MOL0     C75118   3.191   0.790   2.860 -0.0863  1.0259  0.7801
  545MOL0     C75119   3.080   0.832   2.927  0.0555  0.1164  0.3332
  545MOL0     O75120   2.980   1.148   2.994 -0.4109 -0.4654 -0.6848
  545MOL0     C75121   2.628   1.093   2.916 -0.8443 -0.2885 -0.0710
  545MOL0     C75122   2.500   1.148   2.926  0.0994  0.3941  0.1956
  545MOL0     N75123   2.014   1.458   2.591 -0.3544 -0.3648  0.2309
  545MOL0     N75124   1.914   1.427   2.519  0.0226  0.4658 -0.2624
  545MOL0     C75125   0.925   1.912   2.917  0.1764 -1.0463 -0.5518
  545MOL0     C75126   0.816   1.985   2.967 -0.9519  0.7593  0.0243
  545MOL0     C75127   0.376   2.082   2.986  1.0253 -0.4748  0.0604
  545MOL0     C75128   0.388   2.161   3.095  0.4620 -0.8730 -0.3534
  545MOL0     C75129   0.283   2.234   3.163 -0.0133  0.3121 -0.2106
  545MOL0     C75130   0.160   2.239   3.104 -0.0036 -0.6170 -0.6228
  545MOL0     O75131   0.059   2.312   3.159 -0.1459  0.1369  1.0256
  545MOL0     C75132  -0.003   2.255   3.275 -0.3722 -0.6366 -0.2922
  545MOL0     C75133  -0.015   2.345   3.402  0.5750 -0.4518 -0.1750
  545MOL0     C75134   0.120   2.378   3.462 -0.6899 -0.6846  0.3392
  545MOL0     C75135   0.110   2.416   3.613 -0.4056  0.7655 -0.0857
  545MOL0     C75136   0.074   2.296   3.694  0.7955 -0.7796  0.2242
  545MOL0     C75137   0.045   2.192   3.753 -0.0017  0.2507  0.4207
  545MOL0     C75138   0.142   2.153   2.995 -0.0117 -0.4979  0.6528
  545MOL0     C75139   0.245   2.081   2.932  0.3043 -0.4734 -0.2135
  545MOL0     C75140   0.220   2.012   2.805  0.4649  0.2067 -0.1309
  545MOL0     H75141   0.606   1.709   3.001 -0.2117 -1.1103 -2.4981
  545MOL0     H75142   0.818   1.601   2.907  1.2209  0.2863 -1.0857
  545MOL0     H75143   1.026   1.758   2.683 -0.0982 -0.6643 -0.8188
  545MOL0     H75144   1.122   1.605   2.716  3.0543  0.7069  0.4378
  545MOL0     H75145   1.210   1.897   2.765 -3.7783  0.9258 -4.2321
  545MOL0     H75146   1.320   1.751   2.786  1.4932 -1.1042 -2.0964
  545MOL0     H75147   1.186   1.820   2.516  1.1663 -0.5860 -2.4498
  545MOL0     H75148   1.325   1.910   2.565  1.6177 -1.5240 -0.7864
  545MOL0     H75149   1.329   1.607   2.559 -0.2743  0.0002 -2.2154
  545MOL0     H75150   1.373   1.707   2.424 -0.3078 -2.0377 -0.7610
  545MOL0     H75151   1.513   1.720   2.697 -0.5658 -0.4834 -0.5641
  545MOL0     H75152   1.552   1.818   2.553  2.3955 -0.8849  1.4675
  545MOL0     H75153   1.580   1.597   2.427 -2.2304 -2.5619 -0.5867
  545MOL0     H75154   1.704   1.631   2.545 -0.6736 -0.0448  3.8365
  545MOL0     H75155   1.474   1.443   2.596 -0.6888  1.7028 -3.4502
  545MOL0     H75156   1.601   1.495   2.727 -1.9812  1.4080  1.1520
  545MOL0     H75157   1.645   1.272   2.581 -0.6740  0.1873  2.0820
  545MOL0     H75158   1.663   1.389   2.451 -0.6679  3.9659  1.4916
  545MOL0     H75159   1.794   1.369   2.814  3.5767 -0.1492  1.2732
  545MOL0     H75160   1.989   1.568   2.907  1.5389  0.9186 -0.2254
  545MOL0     H75161   2.148   1.531   2.830  0.7049 -1.7357 -0.4300
  545MOL0     H75162   1.958   1.339   2.982 -0.1313  2.2029  2.7826
  545MOL0     H75163   2.111   1.288   2.907 -1.1084 -0.1321 -1.1487
  545MOL0     H75164   2.108   1.487   3.133  2.1684 -0.8102  2.4525
  545MOL0     H75165   2.143   1.313   3.147  2.0886 -1.4673  0.5073
  545MOL0     H75166   2.318   1.506   3.013 -2.0105  0.5519  1.2993
  545MOL0     H75167   2.340   1.406   3.161  1.0273  0.8812  0.5826
  545MOL0     H75168   2.557   1.444   3.063 -2.6527 -1.2261  1.9688
  545MOL0     H75169   2.839   1.364   3.174  4.1823 -3.0138 -1.0015
  545MOL0     H75170   2.777   1.491   3.065 -0.2150  0.4761 -0.7713
  545MOL0     H75171   2.911   1.372   3.023  1.5440  1.1131  1.9889
  545MOL0     H75172   2.902   0.972   2.670  0.3273 -1.9298 -2.6859
  545MOL0     H75173   3.092   0.896   2.547 -1.7256  0.4931  0.5133
  545MOL0     H75174   3.417   0.598   2.576  0.6475 -2.4601  1.2213
  545MOL0     H75175   3.377   0.610   2.744  0.3671  1.4860  0.0479
  545MOL0     H75176   3.261   0.426   2.643  1.2490  0.1495 -0.6230
  545MOL0     H75177   3.143   0.545   2.708 -1.2519 -0.2668 -1.9253
  545MOL0     H75178   3.240   0.508   2.415  0.6392 -0.2543  1.2005
  545MOL0     H75179   3.112   0.611   2.462  0.9577  1.0547  1.8356
  545MOL0     H75180   2.985   0.431   2.553 -1.4875  0.8907 -1.9486
  545MOL0     H75181   3.101   0.300   2.509 -0.6780  0.2980 -0.3357
  545MOL0     H75182   2.936   0.481   2.335  0.6585  0.3457  0.0964
  545MOL0     H75183   3.060   0.385   2.262 -1.7130  0.1490 -0.9051
  545MOL0     H75184   2.841   0.285   2.438  1.2679  0.3437 -0.0341
  545MOL0     H75185   2.962   0.178   2.380  2.1805  3.7781  2.1261
  545MOL0     H75186   2.916   0.277   2.130 -1.0286 -0.3196 -1.5532
  545MOL0     H75187   2.776   0.343   2.191  3.7802  2.5976  0.3744
  545MOL0     H75188   2.854   0.046   2.157 -0.0363 -1.5410  1.5532
  545MOL0     H75189   2.699   0.129   2.104  1.6730 -0.4918 -0.8532
  545MOL0     H75190   3.276   0.741   2.907 -0.6515  0.5003  1.2866
  545MOL0     H75191   3.076   0.828   3.035 -0.7644 -1.5973  0.2830
  545MOL0     H75192   2.633   0.991   2.878  1.4911 -1.0202  1.9319
  545MOL0     H75193   2.419   1.077   2.913 -0.4792  0.9957  0.4115
  545MOL0     H75194   1.020   1.966   2.909 -0.0642  0.0513  2.4879
  545MOL0     H75195   0.820   2.091   2.989  0.5994  0.4235  1.5680
  545MOL0     H75196   0.482   2.183   3.144  0.0106  0.2428  0.0642
  545MOL0     H75197   0.307   2.284   3.257  2.6127  2.1915 -1.7061
  545MOL0     H75198  -0.106   2.238   3.243 -0.1280  0.0330 -1.5045
  545MOL0     H75199   0.042   2.158   3.299 -0.6270  0.0266  3.4990
  545MOL0     H75200  -0.088   2.306   3.474  0.4510  0.8270  0.4139
  545MOL0     H75201  -0.058   2.435   3.357 -1.0226 -2.0053 -1.9567
  545MOL0     H75202   0.198   2.301   3.454 -0.5412 -0.5194  0.1960
  545MOL0     H75203   0.157   2.470   3.416 -3.6097  1.0051  1.1241
  545MOL0     H75204   0.040   2.500   3.620  1.6141  2.4752  0.6318
  545MOL0     H75205   0.213   2.429   3.648  0.6447 -4.2134 -0.6443
  545MOL0     H75206   0.023   2.103   3.808 -0.6354 -0.9830 -1.6708
  545MOL0     H75207   0.046   2.148   2.946  1.2395 -3.1882 -1.8135
  545MOL0     H75208   0.220   1.903   2.815 -1.2216  0.1360 -0.6831
  545MOL0     H75209   0.121   2.036   2.765  0.8620 -0.8186 -1.7999
  545MOL0     H75210   0.292   2.047   2.731 -1.5587  1.1889 -1.7175
  546MOL0     O75211   4.404  11.021   9.048  0.4909  1.2668  0.1526
  546MOL0     C75212   4.340  11.120   9.091 -0.3009  0.4507 -0.5027
  546MOL0     O75213   4.391  11.222   9.149 -0.0961 -0.8395 -0.4088
  546MOL0     C75214   4.528  11.253   9.163  0.7134 -0.3323  0.2125
  546MOL0     C75215   4.621  11.167   9.212  0.5613 -0.0548  0.5538
  546MOL0     C75216   4.754  11.203   9.224  0.2107 -1.3944  0.0580
  546MOL0     C75217   4.794  11.341   9.184 -1.1418  0.9759  0.5106
  546MOL0     O75218   4.922  11.385   9.202 -0.5646  0.0860  0.8108
  546MOL0     C75219   4.943  11.518   9.242 -0.6159 -0.3157 -1.1748
  546MOL0     C75220   5.091  11.528   9.291  0.9639  0.1774 -0.2698
  546MOL0     C75221   5.185  11.463   9.184  0.2405  0.3471 -0.7590
  546MOL0     C75222   5.328  11.503   9.208  0.3046  0.2282  0.5873
  546MOL0     C75223   5.401  11.485   9.072 -0.9835 -0.7096 -0.5492
  546MOL0     C75224   5.558  11.502   9.079 -0.2529  0.4705  0.3066
  546MOL0     C75225   5.609  11.629   9.153 -0.7686 -0.4434  0.4062
  546MOL0     C75226   5.718  11.706   9.087  0.0375  0.5103  0.1351
  546MOL0     N75227   5.853  11.650   9.103 -0.2987 -0.0736 -0.0111
  546MOL0     C75228   5.957  11.659   9.019  0.0768  0.0605  0.0109
  546MOL0     C75229   6.055  11.583   9.068  0.6298 -0.2126 -0.7599
  546MOL0     C75230   6.199  11.588   9.016  0.2440 -0.7233 -0.5247
  546MOL0     C75231   6.292  11.680   9.095 -0.1497  0.0159 -0.3929
  546MOL0     C75232   6.340  11.598   9.215 -1.0072  0.2045 -0.4653
  546MOL0     C75233   6.445  11.683   9.287 -0.8772 -0.0034 -0.3864
  546MOL0     O75234   6.559  11.695   9.209  0.1934 -0.4309  0.3522
  546MOL0     C75235   6.666  11.758   9.271 -0.0219  0.9248 -0.8172
  546MOL0     C75236   6.783  11.691   9.312  0.1491  1.0086  0.1133
  546MOL0     C75237   6.894  11.752   9.385  0.4395 -1.5983  0.3837
  546MOL0     C75238   7.013  11.671   9.417 -0.8699  0.3069  0.2524
  546MOL0     C75239   6.869  11.883   9.436 -0.8058 -0.2275 -0.0930
  546MOL0     C75240   6.966  11.963   9.525  0.1070 -0.1171 -0.1400
  546MOL0     O75241   7.062  11.903   9.591 -0.1460 -0.1911  0.6759
  546MOL0     C75242   7.152  11.993   9.648 -0.0155  1.0567  0.1891
  546MOL0     C75243   7.252  12.051   9.571 -0.0026  0.6349 -0.2804
  546MOL0     C75244   7.357  12.132   9.627  0.6745  0.9633  0.9119
  546MOL0     C75245   7.361  12.150   9.764  0.0741  0.1771 -0.7893
  546MOL0     O75246   7.439  12.230   9.842  1.1986  0.8213  0.9246
  546MOL0     C75247   7.530  12.328   9.786  1.0537  0.3843 -0.1845
  546MOL0     C75248   7.683  12.294   9.780  0.0859  0.2239 -0.1007
  546MOL0     C75249   7.730  12.230   9.909 -0.3631 -0.6901 -1.1450
  546MOL0     C75250   7.692  12.312  10.044  0.6338 -0.6658 -0.3250
  546MOL0     C75251   7.773  12.276  10.164 -0.0297  0.3043 -0.1523
  546MOL0     C75252   7.757  12.368  10.290 -0.0601 -0.3377  0.3653
  546MOL0     C75253   7.631  12.343  10.371  0.6223 -0.7989 -0.5484
  546MOL0     C75254   7.670  12.381  10.521  0.7926 -0.4177 -0.7577
  546MOL0    Cl75255   7.739  12.544  10.537 -0.1508 -0.0441  0.0605
  546MOL0     C75256   7.267  12.089   9.848 -1.4347  0.6608 -0.1907
  546MOL0     C75257   7.172  12.008   9.785 -0.6148  0.5829  0.0747
  546MOL0     O75258   6.946  12.080   9.515 -0.2147 -0.7353 -0.1087
  546MOL0     C75259   6.754  11.948   9.378  1.0685 -0.0131 -0.3500
  546MOL0     C75260   6.653  11.895   9.305 -0.1383  0.7077  0.0212
  546MOL0     N75261   6.023  11.535   9.196  0.4178 -0.6519  0.2696
  546MOL0     N75262   5.894  11.563   9.196  0.0199  0.8092  0.2271
  546MOL0     C75263   4.698  11.426   9.136 -0.0794  0.8977 -0.5366
  546MOL0     C75264   4.569  11.384   9.117 -1.1148 -0.4776 -0.4635
  546MOL0     C75265   4.185  11.119   9.087 -0.4199 -0.2374 -0.7077
  546MOL0     C75266   4.115  11.229   9.129 -0.2089  0.3133  1.1914
  546MOL0     C75267   3.976  11.245   9.124  0.5881 -0.7358 -1.0306
  546MOL0     C75268   3.900  11.146   9.072  0.8473  0.1645  0.0644
  546MOL0     O75269   3.769  11.164   9.054  0.0656 -0.6448  0.6805
  546MOL0     C75270   3.684  11.056   9.051  0.3721  0.2946  0.7325
  546MOL0     C75271   3.546  11.112   9.035  0.7813  0.0127 -0.1564
  546MOL0     C75272   3.438  10.998   9.046 -0.3016 -0.6825 -0.0281
  546MOL0     C75273   3.427  10.965   9.195  0.3370  0.7111  0.0229
  546MOL0     C75274   3.297  10.910   9.227  0.4375  0.8424  0.4374
  546MOL0     C75275   3.181  10.862   9.240  0.3493 -0.1128  0.4064
  546MOL0     C75276   3.965  11.022   9.043  0.6051  0.7846  0.3747
  546MOL0     C75277   4.109  11.005   9.052 -1.0081 -0.3403  0.0886
  546MOL0     C75278   4.170  10.872   9.024 -1.0095 -0.6176 -0.6427
  546MOL0     H75279   4.588  11.066   9.234  1.2889 -0.4359 -0.0564
  546MOL0     H75280   4.819  11.126   9.264 -1.3364 -2.0031  1.5252
  546MOL0     H75281   4.878  11.542   9.327  0.9041  1.2041 -0.4013
  546MOL0     H75282   4.941  11.591   9.161  0.3448 -2.0743 -2.8764
  546MOL0     H75283   5.112  11.634   9.310 -2.5139  0.7929  0.6920
  546MOL0     H75284   5.092  11.469   9.383  1.4498 -2.0779 -1.6362
  546MOL0     H75285   5.180  11.356   9.162 -3.7863  0.7214 -2.7027
  546MOL0     H75286   5.146  11.496   9.087 -1.7662  0.4092  0.0190
  546MOL0     H75287   5.335  11.606   9.244  2.3540 -0.2372  1.6710
  546MOL0     H75288   5.359  11.431   9.284 -2.2657 -1.8488 -0.1512
  546MOL0     H75289   5.362  11.569   9.015  1.0210  0.4930 -0.2276
  546MOL0     H75290   5.389  11.387   9.024  2.2384 -0.7303 -1.5791
  546MOL0     H75291   5.590  11.415   9.137  1.6080  0.5459 -0.5493
  546MOL0     H75292   5.609  11.475   8.986  0.9038 -0.8151  1.2704
  546MOL0     H75293   5.643  11.583   9.246 -0.0131  0.2486  0.4863
  546MOL0     H75294   5.530  11.701   9.179  0.3510  1.6892 -1.7611
  546MOL0     H75295   5.700  11.721   8.980  0.5237 -1.2823 -0.2342
  546MOL0     H75296   5.726  11.802   9.138  1.3324 -0.4196  1.7831
  546MOL0     H75297   5.973  11.731   8.939  1.9027 -1.6165 -1.2245
  546MOL0     H75298   6.192  11.614   8.910  0.2206  1.1211 -0.1003
  546MOL0     H75299   6.248  11.490   9.027  2.0343  0.3181  1.7532
  546MOL0     H75300   6.378  11.705   9.032  0.7187 -0.6362  0.5000
  546MOL0     H75301   6.236  11.768   9.127 -0.8480 -0.4399 -0.3300
  546MOL0     H75302   6.255  11.574   9.280  0.5608 -1.5895  1.0698
  546MOL0     H75303   6.392  11.505   9.189 -1.9659 -0.2210 -0.9089
  546MOL0     H75304   6.401  11.780   9.309 -0.8855 -0.2857  0.9462
  546MOL0     H75305   6.457  11.643   9.388  2.2225  1.9215  0.1560
  546MOL0     H75306   6.799  11.592   9.271  1.0963  1.6411 -1.1163
  546MOL0     H75307   7.026  11.597   9.337 -0.9530 -0.5312  1.0029
  546MOL0     H75308   7.000  11.615   9.510 -2.1234 -0.0384 -0.1057
  546MOL0     H75309   7.100  11.735   9.431 -0.4682  0.2094 -1.4916
  546MOL0     H75310   7.250  12.034   9.464 -0.9950 -1.6269  0.0401
  546MOL0     H75311   7.433  12.166   9.558  1.6053  0.8935  1.8757
  546MOL0     H75312   7.492  12.348   9.685 -2.8418  1.9194  1.3804
  546MOL0     H75313   7.516  12.420   9.844  2.0819  0.3038  0.2128
  546MOL0     H75314   7.703  12.222   9.700 -2.5313 -3.6835  2.4208
  546MOL0     H75315   7.740  12.386   9.763  1.2566 -0.2966  0.8943
  546MOL0     H75316   7.839  12.226   9.903 -0.3084 -3.8089 -0.0546
  546MOL0     H75317   7.699  12.125   9.911  2.1973 -1.5223 -0.3542
  546MOL0     H75318   7.588  12.300  10.074  0.6026  3.0352  1.7145
  546MOL0     H75319   7.703  12.421  10.033  3.7149 -0.8764 -0.3627
  546MOL0     H75320   7.746  12.172  10.186 -1.9509  1.0406  1.3050
  546MOL0     H75321   7.876  12.279  10.129  0.4147 -1.4873  0.8533
  546MOL0     H75322   7.776  12.470  10.257  2.7643 -1.0849 -0.6102
  546MOL0     H75323   7.848  12.347  10.347  1.1233 -0.1214 -1.3721
  546MOL0     H75324   7.583  12.245  10.359 -1.5601  0.2561 -0.8713
  546MOL0     H75325   7.551  12.408  10.335  0.8504  1.6218  2.7656
  546MOL0     H75326   7.739  12.315  10.574 -0.2690 -1.0133 -0.0934
  546MOL0     H75327   7.578  12.379  10.580 -0.2630  0.0725 -2.3302
  546MOL0     H75328   7.272  12.085   9.956 -0.2317 -1.8625 -0.2656
  546MOL0     H75329   7.121  11.941   9.854  2.0837 -1.1577  0.5334
  546MOL0     H75330   6.743  12.051   9.410  0.7825 -0.4440  1.0042
  546MOL0     H75331   6.564  11.952   9.279  0.5070  0.7227 -2.4529
  546MOL0     H75332   4.726  11.525   9.101 -0.0264  0.3313 -2.1995
  546MOL0     H75333   4.490  11.453   9.089  1.6541  2.9084 -0.6493
  546MOL0     H75334   4.172  11.318   9.152  0.9476  0.4360 -1.7166
  546MOL0     H75335   3.924  11.320   9.183  1.9291 -2.1673  2.2295
  546MOL0     H75336   3.701  10.969   8.986  1.4791 -0.2722  1.7513
  546MOL0     H75337   3.692  11.012   9.151  2.5313  0.3558  0.6253
  546MOL0     H75338   3.541  11.154   8.934  1.6114  1.6386  0.4497
  546MOL0     H75339   3.532  11.188   9.112 -0.6462  1.4377 -1.7375
  546MOL0     H75340   3.341  11.034   9.010 -1.3395 -2.8156  0.4849
  546MOL0     H75341   3.470  10.912   8.986 -0.3987 -0.7472  0.0120
  546MOL0     H75342   3.438  11.053   9.258 -0.0909  0.5323  0.3529
  546MOL0     H75343   3.509  10.896   9.219 -1.0111 -0.1631  2.4456
  546MOL0     H75344   3.080  10.828   9.257 -0.2144  0.9158 -0.7574
  546MOL0     H75345   3.912  10.928   9.038  0.6266  0.7585  0.6488
  546MOL0     H75346   4.208  10.840   9.122  0.1607 -0.5560 -1.0749
  546MOL0     H75347   4.090  10.801   9.001 -0.9806 -0.7776 -0.2574
  546MOL0     H75348   4.240  10.872   8.940 -0.2896  4.6864 -0.3768
  547MOL0     O75349   7.025  10.634   8.138  0.0546  0.0731  0.4694
  547MOL0     C75350   7.051  10.755   8.118  0.1559 -1.0244 -0.3061
  547MOL0     O75351   7.165  10.816   8.154  0.5418 -0.7883  0.4249
  547MOL0     C75352   7.254  10.759   8.234 -0.4687  0.6332  0.8789
  547MOL0     C75353   7.389  10.795   8.207  0.3487 -0.3523  1.4210
  547MOL0     C75354   7.489  10.748   8.297 -0.4275  0.8205 -0.2079
  547MOL0     C75355   7.454  10.685   8.418 -0.0102 -0.0005  0.3552
  547MOL0     O75356   7.562  10.652   8.498  0.1283  0.1099 -0.1911
  547MOL0     C75357   7.537  10.542   8.591 -0.5788 -0.1149 -0.4968
  547MOL0     C75358   7.662  10.482   8.667  0.3931 -0.0780 -0.2978
  547MOL0     C75359   7.792  10.546   8.632 -0.2040 -0.2593 -0.2686
  547MOL0     C75360   7.908  10.483   8.699  0.0044 -0.1409  0.6971
  547MOL0     C75361   8.026  10.575   8.722 -0.4575  0.7464 -0.1910
  547MOL0     C75362   8.165  10.501   8.750  0.4751  0.2731  0.2258
  547MOL0     C75363   8.229  10.437   8.627 -0.4352 -0.4842  0.0576
  547MOL0     C75364   8.341  10.353   8.693 -0.2167  0.5998 -0.7352
  547MOL0     N75365   8.454  10.320   8.614 -0.1401  0.9122 -0.0952
  547MOL0     C75366   8.551  10.407   8.562  0.2335 -0.1074 -0.2251
  547MOL0     C75367   8.623  10.339   8.478 -0.1930 -0.2900 -0.7391
  547MOL0     C75368   8.733  10.376   8.378  0.2746  0.0114  0.2483
  547MOL0     C75369   8.863  10.340   8.432 -0.5825  0.4300 -0.3670
  547MOL0     C75370   8.960  10.306   8.321 -0.0015  0.2009  0.7460
  547MOL0     C75371   9.098  10.259   8.364 -0.8858 -0.1529 -0.6199
  547MOL0     O75372   9.182  10.366   8.399 -0.5725 -0.4572 -0.5664
  547MOL0     C75373   9.325  10.350   8.405  0.5599 -0.7244 -0.2129
  547MOL0     C75374   9.400  10.471   8.429  0.3327  0.5433  0.2374
  547MOL0     C75375   9.534  10.481   8.423 -0.2595 -0.5905 -0.7125
  547MOL0     C75376   9.600  10.620   8.431 -0.8496  0.0092 -0.3578
  547MOL0     C75377   9.615  10.365   8.399  0.7152  0.0049  0.0002
  547MOL0     C75378   9.767  10.361   8.413 -1.0620  0.6764  0.6365
  547MOL0     O75379   9.838  10.474   8.385 -0.6275  0.3735  0.8060
  547MOL0     C75380   9.973  10.488   8.404  0.3229  0.1174 -0.6566
  547MOL0     C75381  10.008  10.615   8.450  0.8567  0.2297 -0.6349
  547MOL0     C75382  10.137  10.639   8.492 -0.1611 -0.6563  0.6271
  547MOL0     C75383  10.235  10.535   8.488  0.0048  0.7321  0.6861
  547MOL0     O75384  10.359  10.552   8.539  0.0548  0.5182  0.6047
  547MOL0     C75385  10.452  10.590   8.435  0.3467  0.1296  0.1678
  547MOL0     C75386  10.596  10.534   8.455 -1.1942 -1.0826 -0.5475
  547MOL0     C75387  10.681  10.579   8.340  0.7789  0.6787  1.2242
  547MOL0     C75388  10.821  10.530   8.364  0.1669 -0.3983 -0.7340
  547MOL0     C75389  10.896  10.551   8.232 -0.1972 -0.0221 -0.1249
  547MOL0     C75390  11.048  10.548   8.263  0.3090  0.2373 -0.5969
  547MOL0     C75391  11.119  10.591   8.133 -0.0580 -0.5599  0.0347
  547MOL0     C75392  11.258  10.520   8.140 -0.5834 -0.8937 -0.4624
  547MOL0    Cl75393  11.354  10.609   8.277  0.3294  0.0566 -0.3056
  547MOL0     C75394  10.202  10.408   8.440 -0.9753  0.2035 -0.3831
  547MOL0     C75395  10.068  10.381   8.410 -0.4744  0.1372  1.1467
  547MOL0     O75396   9.814  10.252   8.440  0.6315 -0.7421 -0.3854
  547MOL0     C75397   9.549  10.245   8.381  0.4547  0.0643  0.5552
  547MOL0     C75398   9.402  10.242   8.373 -0.2416 -0.6898 -0.0243
  547MOL0     N75399   8.581  10.204   8.486  0.8382 -0.8384 -0.1090
  547MOL0     N75400   8.483  10.191   8.562  0.4567 -0.1651  0.0586
  547MOL0     C75401   7.322  10.661   8.444 -0.0236  0.3871  1.1007
  547MOL0     C75402   7.221  10.700   8.351  0.6193  0.3677 -0.0869
  547MOL0     C75403   6.942  10.838   8.050  1.0707  0.5481 -0.5987
  547MOL0     C75404   6.972  10.972   8.025  0.2908  0.0175  0.4591
  547MOL0     C75405   6.879  11.059   7.960 -0.4938  0.6010  0.6824
  547MOL0     C75406   6.755  11.007   7.918 -0.1734  0.3837 -0.3092
  547MOL0     O75407   6.656  11.076   7.853  0.0240 -0.6448 -0.4006
  547MOL0     C75408   6.666  11.213   7.831 -0.3206  1.1861 -0.1364
  547MOL0     C75409   6.547  11.252   7.747 -0.6209 -0.1817 -0.9764
  547MOL0     C75410   6.603  11.276   7.595  0.6760  0.6409  0.8248
  547MOL0     C75411   6.489  11.365   7.519 -0.7020 -0.2231 -0.1746
  547MOL0     C75412   6.374  11.271   7.513 -0.0346 -0.3877 -0.5256
  547MOL0     C75413   6.275  11.198   7.513 -0.4802  0.4432  0.1229
  547MOL0     C75414   6.729  10.872   7.930 -1.0394 -0.6009  0.1288
  547MOL0     C75415   6.821  10.784   7.992  0.0260 -0.4057 -0.3993
  547MOL0     C75416   6.773  10.644   8.023  0.0057 -0.3538  0.3682
  547MOL0     H75417   7.416  10.848   8.116 -1.0666  1.0252  1.7724
  547MOL0     H75418   7.596  10.754   8.285  0.0436 -2.0102  1.5951
  547MOL0     H75419   7.483  10.458   8.546  1.4086 -0.4200 -2.4699
  547MOL0     H75420   7.470  10.591   8.663  0.4628  2.2434 -1.0438
  547MOL0     H75421   7.640  10.508   8.771 -0.1478  2.7728 -1.0369
  547MOL0     H75422   7.662  10.373   8.654  3.3136 -0.3503  1.1890
  547MOL0     H75423   7.810  10.547   8.524  3.2422 -3.9568  0.0598
  547MOL0     H75424   7.779  10.652   8.655  2.1099 -0.1035  0.5957
  547MOL0     H75425   7.875  10.435   8.791  4.1125 -3.8641  0.5188
  547MOL0     H75426   7.940  10.404   8.631  0.6510  2.1573 -1.8568
  547MOL0     H75427   8.005  10.638   8.809 -1.8949  0.3004 -0.1919
  547MOL0     H75428   8.037  10.644   8.638  0.8176 -0.3119 -0.9371
  547MOL0     H75429   8.225  10.581   8.794  1.2407  0.4744 -1.1386
  547MOL0     H75430   8.152  10.432   8.834  1.5229  2.5614  2.3825
  547MOL0     H75431   8.271  10.515   8.563  2.4652  0.6601  3.0506
  547MOL0     H75432   8.163  10.358   8.590 -0.4437 -0.3401 -0.2387
  547MOL0     H75433   8.383  10.410   8.777  0.7935  0.9745 -1.4692
  547MOL0     H75434   8.301  10.258   8.728  1.8882  0.8754  2.8754
  547MOL0     H75435   8.548  10.512   8.590  0.7388 -0.5066  1.4288
  547MOL0     H75436   8.734  10.481   8.347  0.8707 -0.3382 -0.9551
  547MOL0     H75437   8.704  10.316   8.292 -2.6984 -0.4024  1.4136
  547MOL0     H75438   8.909  10.421   8.490 -2.2429  0.7205  0.6106
  547MOL0     H75439   8.860  10.255   8.501 -0.6032  1.4556  0.9416
  547MOL0     H75440   8.922  10.217   8.269  1.3566  0.8534 -1.4965
  547MOL0     H75441   8.962  10.389   8.250 -0.7416 -0.8500 -0.5692
  547MOL0     H75442   9.092  10.182   8.442 -0.9308  0.7370  0.2786
  547MOL0     H75443   9.150  10.202   8.286  4.0553  1.3962  1.1634
  547MOL0     H75444   9.336  10.550   8.466 -0.4377 -0.5142  1.2407
  547MOL0     H75445   9.526  10.700   8.442 -0.5169  0.6827 -2.5262
  547MOL0     H75446   9.648  10.637   8.334  1.1825 -0.4390  0.5104
  547MOL0     H75447   9.678  10.612   8.507 -0.7615  0.0648 -0.4445
  547MOL0     H75448   9.928  10.688   8.444  0.3845  0.0074  1.9435
  547MOL0     H75449  10.168  10.735   8.531  2.0567 -0.9537 -0.2163
  547MOL0     H75450  10.418  10.563   8.335 -2.4862 -0.8490  1.3004
  547MOL0     H75451  10.455  10.699   8.442  0.2650  0.2178 -1.0506
  547MOL0     H75452  10.650  10.584   8.536 -0.2980 -0.7422 -1.3425
  547MOL0     H75453  10.601  10.427   8.475  3.7792 -1.3611 -1.8618
  547MOL0     H75454  10.682  10.687   8.324 -2.5090  0.7411  0.7276
  547MOL0     H75455  10.645  10.539   8.245  2.2359  1.8534  0.1206
  547MOL0     H75456  10.819  10.421   8.373  1.4389 -0.8412 -4.1200
  547MOL0     H75457  10.872  10.594   8.437  0.6204  0.8375 -2.0697
  547MOL0     H75458  10.879  10.467   8.164 -1.5049 -0.9195  1.2610
  547MOL0     H75459  10.866  10.640   8.177 -1.9903 -0.7739 -0.4361
  547MOL0     H75460  11.068  10.451   8.308 -0.0695  1.6666  2.9443
  547MOL0     H75461  11.069  10.620   8.342 -2.4311  0.1587  0.3331
  547MOL0     H75462  11.136  10.699   8.129  0.9452 -0.5899  1.9297
  547MOL0     H75463  11.071  10.545   8.047  0.3662 -0.2813 -0.3549
  547MOL0     H75464  11.312  10.530   8.045  2.5961 -0.0821  1.2560
  547MOL0     H75465  11.243  10.414   8.160 -0.3713 -0.5069  2.1312
  547MOL0     H75466  10.271  10.325   8.448 -0.7084  0.5205  0.7390
  547MOL0     H75467  10.050  10.285   8.363 -2.5481  1.1185 -0.2060
  547MOL0     H75468   9.600  10.149   8.375 -1.8853 -1.2828  1.0202
  547MOL0     H75469   9.360  10.152   8.329  3.4130 -2.1769 -0.8573
  547MOL0     H75470   7.296  10.607   8.535  0.4187  2.0224  2.2411
  547MOL0     H75471   7.119  10.685   8.387  1.5122  3.2140  4.5667
  547MOL0     H75472   7.056  11.020   8.072 -0.4106 -0.0425  1.8150
  547MOL0     H75473   6.896  11.166   7.958  1.1044  0.4328  2.3420
  547MOL0     H75474   6.651  11.261   7.928 -1.1752  2.0275 -0.6685
  547MOL0     H75475   6.768  11.237   7.799 -0.9749  4.3568 -0.2595
  547MOL0     H75476   6.529  11.343   7.805  2.7068 -0.3461  0.5729
  547MOL0     H75477   6.480  11.167   7.757  1.9181 -2.1956  0.2399
  547MOL0     H75478   6.690  11.342   7.600  0.9276  0.3243  0.6682
  547MOL0     H75479   6.641  11.187   7.544 -0.3999  1.0226 -0.7353
  547MOL0     H75480   6.528  11.400   7.422 -0.8578 -0.0900 -0.1889
  547MOL0     H75481   6.444  11.453   7.564 -2.0019  1.0525 -3.5931
  547MOL0     H75482   6.185  11.142   7.527  0.9154 -1.4927  1.9327
  547MOL0     H75483   6.627  10.846   7.905 -1.4031 -0.5053  1.4463
  547MOL0     H75484   6.751  10.634   8.130 -0.9552  2.0866  0.4748
  547MOL0     H75485   6.682  10.619   7.967 -1.5398 -0.0509  2.5992
  547MOL0     H75486   6.852  10.572   7.998 -0.0615  0.2113 -1.6702
  548MOL0     O75487   7.399   1.533   5.121  1.2077 -0.0548  0.3210
  548MOL0     C75488   7.387   1.435   5.194 -0.2072  0.2050  0.2367
  548MOL0     O75489   7.475   1.396   5.292  0.9236 -0.4130  0.9582
  548MOL0     C75490   7.602   1.444   5.263 -0.2762 -0.1410  0.0824
  548MOL0     C75491   7.694   1.389   5.175  0.4315 -0.0799  0.5828
  548MOL0     C75492   7.815   1.464   5.147 -0.6037  0.1065 -0.6155
  548MOL0     C75493   7.843   1.576   5.213  1.1467 -1.0082  0.4851
  548MOL0     O75494   7.961   1.644   5.209  0.5023 -0.5862  0.4032
  548MOL0     C75495   8.064   1.601   5.124  0.6702 -0.3589 -0.2561
  548MOL0     C75496   8.190   1.691   5.136 -0.3048 -0.6146  0.4205
  548MOL0     C75497   8.245   1.684   5.279 -0.1946  0.0537 -0.4597
  548MOL0     C75498   8.387   1.744   5.274  0.0388 -0.7985 -0.1318
  548MOL0     C75499   8.443   1.777   5.411 -0.0110 -0.0263  0.2403
  548MOL0     C75500   8.465   1.657   5.496 -0.3352  0.1508 -0.4497
  548MOL0     C75501   8.556   1.694   5.615 -0.0970  0.1702  0.1252
  548MOL0     C75502   8.589   1.574   5.703  0.0077  0.7012  0.3158
  548MOL0     N75503   8.694   1.601   5.811 -0.6428  0.1127  0.1733
  548MOL0     C75504   8.785   1.700   5.815 -0.3458 -0.1209  0.6428
  548MOL0     C75505   8.851   1.678   5.935 -0.2164 -0.6398 -0.0489
  548MOL0     C75506   8.966   1.756   6.005 -0.5836 -0.6316 -0.9423
  548MOL0     C75507   9.076   1.806   5.910 -0.8681 -0.6936  0.2371
  548MOL0     C75508   9.173   1.692   5.877 -0.2695  0.2596 -0.0707
  548MOL0     C75509   9.282   1.724   5.778  0.3266  0.9126 -0.5478
  548MOL0     O75510   9.396   1.795   5.830 -0.6165 -0.4300 -0.1939
  548MOL0     C75511   9.500   1.733   5.901 -0.5742 -0.1702  0.2850
  548MOL0     C75512   9.499   1.601   5.948  0.2075  0.2581  0.9825
  548MOL0     C75513   9.601   1.538   6.022  0.1242 -0.6045  0.7671
  548MOL0     C75514   9.585   1.399   6.074 -0.7785  0.4508  0.1221
  548MOL0     C75515   9.721   1.615   6.026  0.0229  0.7404 -0.3050
  548MOL0     C75516   9.849   1.563   6.093 -0.2736 -0.4642 -0.0739
  548MOL0     O75517   9.918   1.659   6.157 -0.2727  0.0859 -0.2287
  548MOL0     C75518  10.052   1.634   6.195  0.1696 -0.4671 -0.1982
  548MOL0     C75519  10.133   1.745   6.189 -0.1691  0.1745  0.4741
  548MOL0     C75520  10.268   1.729   6.222 -0.0144  0.0124 -0.1266
  548MOL0     C75521  10.326   1.611   6.259  0.7159 -0.0879  0.1455
  548MOL0     O75522  10.464   1.607   6.282 -0.0016 -1.5002  0.5857
  548MOL0     C75523  10.538   1.480   6.287  0.4435  0.7322  0.5735
  548MOL0     C75524  10.685   1.514   6.272  0.5311 -0.6386  1.0882
  548MOL0     C75525  10.722   1.585   6.149 -0.1254  0.0611 -0.5934
  548MOL0     C75526  10.880   1.604   6.138  0.3139 -0.4207  0.1716
  548MOL0     C75527  10.924   1.682   5.999 -0.2928  0.3982 -0.5306
  548MOL0     C75528  11.072   1.675   5.978 -0.1053 -1.0723 -1.3651
  548MOL0     C75529  11.125   1.805   5.911  0.3890 -0.3854  0.1775
  548MOL0     C75530  11.275   1.815   5.937 -0.5980  0.0210 -0.8081
  548MOL0    Cl75531  11.364   1.672   5.885  0.2990  0.0178  0.3328
  548MOL0     C75532  10.243   1.493   6.265  0.9794  0.3807 -0.0897
  548MOL0     C75533  10.106   1.509   6.228 -0.8517 -0.8141  0.4247
  548MOL0     O75534   9.876   1.444   6.086  0.0375  0.8348 -0.7007
  548MOL0     C75535   9.728   1.747   5.982 -0.6035  0.3437 -0.2093
  548MOL0     C75536   9.614   1.809   5.937 -0.2603 -0.0317  1.0551
  548MOL0     N75537   8.792   1.577   6.006  0.0652 -0.2407  0.2265
  548MOL0     N75538   8.698   1.530   5.922  0.2946 -0.2454 -0.0668
  548MOL0     C75539   7.752   1.624   5.304 -0.9938 -0.1430 -0.3756
  548MOL0     C75540   7.629   1.567   5.324  0.6387  0.0788  0.1820
  548MOL0     C75541   7.266   1.351   5.176 -0.5349 -0.6484  0.7283
  548MOL0     C75542   7.201   1.306   5.286  0.8533  0.1308  0.8009
  548MOL0     C75543   7.087   1.217   5.266 -0.1079 -0.1123 -0.1713
  548MOL0     C75544   7.045   1.179   5.140 -0.1332  0.0374 -0.9848
  548MOL0     O75545   6.935   1.107   5.117  0.1460  1.1742  0.3499
  548MOL0     C75546   6.836   1.087   5.223 -0.0948  0.1159  0.6275
  548MOL0     C75547   6.872   0.962   5.301  0.8093 -0.2410 -1.0267
  548MOL0     C75548   6.746   0.877   5.337  0.1855 -0.5011  1.0449
  548MOL0     C75549   6.654   0.950   5.436 -0.1413 -0.6151  0.4833
  548MOL0     C75550   6.553   1.017   5.359 -0.0667 -0.4721  0.0659
  548MOL0     C75551   6.475   1.068   5.284  0.1455  0.2579 -0.9740
  548MOL0     C75552   7.112   1.229   5.033  0.6840 -0.1571 -0.5530
  548MOL0     C75553   7.216   1.321   5.040  0.2980 -0.1668 -0.5688
  548MOL0     C75554   7.265   1.394   4.916  0.0853 -0.2977  1.2006
  548MOL0     H75555   7.664   1.303   5.116  1.7845  1.3709 -2.4336
  548MOL0     H75556   7.884   1.427   5.072  0.5071  2.4439 -0.8608
  548MOL0     H75557   8.026   1.591   5.022  1.5978  0.7911 -0.7370
  548MOL0     H75558   8.097   1.504   5.162  1.8557  1.1734  3.0338
  548MOL0     H75559   8.267   1.658   5.065 -0.5811  2.6639 -1.6133
  548MOL0     H75560   8.148   1.788   5.110 -0.4128 -1.0685 -1.2698
  548MOL0     H75561   8.173   1.729   5.347  0.4279  0.5740 -0.1408
  548MOL0     H75562   8.265   1.578   5.298  1.1409  0.1202 -1.3425
  548MOL0     H75563   8.455   1.680   5.217  0.6352  0.2639 -0.6548
  548MOL0     H75564   8.395   1.840   5.222 -1.3701 -1.2034 -1.1632
  548MOL0     H75565   8.382   1.851   5.463  2.1529  0.5537  2.1287
  548MOL0     H75566   8.540   1.825   5.395  0.7820 -1.7971 -0.5953
  548MOL0     H75567   8.370   1.626   5.539  0.0734 -0.3951  0.0760
  548MOL0     H75568   8.500   1.576   5.430 -6.3198 -2.2086 -1.3865
  548MOL0     H75569   8.500   1.771   5.669 -2.2528 -0.7964 -0.6115
  548MOL0     H75570   8.652   1.733   5.582  1.5412 -2.8608  0.8949
  548MOL0     H75571   8.496   1.550   5.755  0.8766  0.4912  1.8302
  548MOL0     H75572   8.625   1.486   5.649 -0.4580  0.5311  0.2822
  548MOL0     H75573   8.797   1.776   5.739 -0.3496 -0.7095  0.0448
  548MOL0     H75574   9.012   1.704   6.090  1.4199  2.3797 -0.0412
  548MOL0     H75575   8.917   1.845   6.046 -1.8363 -0.3181 -2.9372
  548MOL0     H75576   9.035   1.829   5.810  0.3741 -1.3608 -0.4404
  548MOL0     H75577   9.121   1.894   5.957  0.8947 -1.9696  1.0241
  548MOL0     H75578   9.220   1.647   5.964 -1.5575  1.0018  1.0602
  548MOL0     H75579   9.111   1.616   5.829 -0.7153  1.0201 -0.7224
  548MOL0     H75580   9.309   1.629   5.731 -2.7683  0.4272 -1.5522
  548MOL0     H75581   9.229   1.772   5.696 -2.9561  0.0687  0.9152
  548MOL0     H75582   9.408   1.543   5.938 -0.8040  1.7661  1.1240
  548MOL0     H75583   9.657   1.327   6.035 -3.0580 -1.9509  0.0561
  548MOL0     H75584   9.492   1.367   6.027 -0.2364  1.4791 -1.7393
  548MOL0     H75585   9.572   1.394   6.183 -1.9608  2.9358  0.1588
  548MOL0     H75586  10.102   1.846   6.166 -0.8702  0.4958  2.5864
  548MOL0     H75587  10.334   1.815   6.209 -1.4248  1.2109  0.3328
  548MOL0     H75588  10.509   1.427   6.378 -1.2487 -1.6756 -1.2630
  548MOL0     H75589  10.511   1.403   6.215 -0.1578 -1.9603  3.4648
  548MOL0     H75590  10.714   1.574   6.359  0.0403 -0.5083  1.1655
  548MOL0     H75591  10.752   1.427   6.278 -0.9554 -1.8790  0.4236
  548MOL0     H75592  10.668   1.680   6.142 -0.8822 -0.4012 -1.1607
  548MOL0     H75593  10.690   1.518   6.069 -0.6362  0.7213 -0.9579
  548MOL0     H75594  10.939   1.513   6.149  1.5307  0.0411 -1.9357
  548MOL0     H75595  10.902   1.668   6.224  1.9965 -0.6564 -0.0540
  548MOL0     H75596  10.881   1.644   5.906  0.9517  2.0348 -1.8556
  548MOL0     H75597  10.898   1.788   6.003 -0.0880  0.4471 -0.4775
  548MOL0     H75598  11.090   1.587   5.915 -0.3546 -0.0847 -2.8570
  548MOL0     H75599  11.118   1.667   6.077 -0.1784 -1.4685 -1.3603
  548MOL0     H75600  11.070   1.891   5.952 -2.0451 -2.2089  0.9657
  548MOL0     H75601  11.114   1.802   5.803  2.1433  0.3224 -0.0457
  548MOL0     H75602  11.306   1.826   6.041  0.1475  0.4728 -1.0620
  548MOL0     H75603  11.323   1.908   5.905 -0.1080  0.0730  0.0452
  548MOL0     H75604  10.290   1.397   6.284  0.2267 -0.1974 -1.0654
  548MOL0     H75605  10.055   1.414   6.220  1.6682 -2.1253 -1.4510
  548MOL0     H75606   9.818   1.807   5.996 -1.6519  3.2491 -4.1034
  548MOL0     H75607   9.602   1.916   5.921  0.3176 -0.5342 -4.8423
  548MOL0     H75608   7.776   1.719   5.351 -2.1589  0.9999 -1.9823
  548MOL0     H75609   7.574   1.623   5.399 -0.9181 -1.8387  0.5538
  548MOL0     H75610   7.231   1.337   5.386  3.0864 -1.5486  0.7514
  548MOL0     H75611   7.040   1.199   5.362  2.7231 -0.4637  1.2398
  548MOL0     H75612   6.833   1.175   5.288 -0.3649  0.1146  0.6185
  548MOL0     H75613   6.738   1.077   5.175  1.1565 -0.9824 -1.8613
  548MOL0     H75614   6.905   0.995   5.400 -1.2144 -1.0263 -0.0248
  548MOL0     H75615   6.945   0.905   5.244  1.4349  0.6387 -1.1134
  548MOL0     H75616   6.702   0.855   5.239  1.6448  0.9008  0.0294
  548MOL0     H75617   6.776   0.779   5.376  1.5926 -0.3072  0.5110
  548MOL0     H75618   6.715   1.012   5.503  0.9084 -0.5084 -0.5435
  548MOL0     H75619   6.618   0.864   5.492 -0.9399 -2.5864 -2.8073
  548MOL0     H75620   6.398   1.106   5.219  0.3322 -2.1424 -2.7650
  548MOL0     H75621   7.079   1.203   4.933  0.8660 -0.6509 -0.4855
  548MOL0     H75622   7.252   1.327   4.830  1.0798  0.1263  0.7067
  548MOL0     H75623   7.222   1.493   4.904  0.8897  0.0207  0.8786
  548MOL0     H75624   7.374   1.401   4.922  0.1091  1.7527 -0.5716
  549MOL0     O75625   2.493  10.100   2.863 -0.2736 -0.9971  0.3617
  549MOL0     C75626   2.372  10.100   2.839  1.0549 -0.3488 -0.6482
  549MOL0     O75627   2.303  10.200   2.779  0.1976  0.4286 -0.9764
  549MOL0     C75628   2.349  10.326   2.803  0.1244 -0.0961 -0.6235
  549MOL0     C75629   2.394  10.407   2.694  0.2839  0.2890 -0.4979
  549MOL0     C75630   2.459  10.529   2.719  0.3073  0.3711  0.6242
  549MOL0     C75631   2.466  10.578   2.849 -0.2114  0.5658  0.5901
  549MOL0     O75632   2.533  10.691   2.884  0.2772  0.0449  0.7571
  549MOL0     C75633   2.661  10.713   2.816 -0.2192 -0.5023 -0.2206
  549MOL0     C75634   2.650  10.822   2.711 -0.2587  0.0214  0.2637
  549MOL0     C75635   2.629  10.969   2.765 -0.0238  1.5470 -0.1068
  549MOL0     C75636   2.743  11.014   2.860 -0.2321  0.3198  0.4947
  549MOL0     C75637   2.734  11.171   2.880  0.1378  0.2230 -0.7240
  549MOL0     C75638   2.792  11.253   2.754  0.0718  0.4990 -0.2413
  549MOL0     C75639   2.874  11.380   2.791  0.5025  0.3524 -1.1313
  549MOL0     C75640   2.887  11.476   2.683 -0.0867  0.1791  0.6391
  549MOL0     N75641   2.956  11.595   2.741 -0.1278  0.0552  0.4529
  549MOL0     C75642   2.879  11.704   2.770 -0.5568  0.0292 -0.4896
  549MOL0     C75643   2.961  11.780   2.855  0.4930  0.3901  0.3793
  549MOL0     C75644   2.931  11.921   2.889 -1.0725  0.6225 -0.1186
  549MOL0     C75645   2.848  11.931   3.012  0.2196  0.0985  0.2592
  549MOL0     C75646   2.822  12.069   3.056 -0.3117 -0.6740  0.1936
  549MOL0     C75647   2.714  12.141   2.961 -0.2523  0.6642  0.4146
  549MOL0     O75648   2.646  12.237   3.050  0.7678 -0.6687  0.5873
  549MOL0     C75649   2.537  12.203   3.119  0.7937  1.4374 -0.2283
  549MOL0     C75650   2.486  12.074   3.131 -0.4311  0.3219 -0.7994
  549MOL0     C75651   2.372  12.044   3.200 -0.3481 -0.7318  0.1937
  549MOL0     C75652   2.321  11.905   3.197 -0.7902 -0.5558 -0.7186
  549MOL0     C75653   2.307  12.141   3.273  0.3337  0.3593  0.2896
  549MOL0     C75654   2.198  12.120   3.368 -0.0900 -0.0507 -1.0032
  549MOL0     O75655   2.120  12.226   3.407 -0.0221 -0.0841  0.8765
  549MOL0     C75656   2.011  12.211   3.478  0.1569  0.3858  0.0926
  549MOL0     C75657   1.975  12.312   3.578  0.6737 -0.2452  0.7524
  549MOL0     C75658   1.861  12.292   3.663 -0.4247 -0.7066 -0.0252
  549MOL0     C75659   1.782  12.189   3.643  0.7655 -0.1758 -0.1767
  549MOL0     O75660   1.662  12.165   3.716 -0.3340  0.0191  0.3609
  549MOL0     C75661   1.645  12.213   3.851 -0.4013 -0.0297  0.9649
  549MOL0     C75662   1.501  12.189   3.900  0.6097  0.7481 -0.0057
  549MOL0     C75663   1.470  12.046   3.894 -0.3749  0.3305 -0.0156
  549MOL0     C75664   1.334  12.006   3.833 -0.7191 -0.0018  0.0404
  549MOL0     C75665   1.213  12.064   3.908  0.3839 -0.4975  0.1669
  549MOL0     C75666   1.101  12.072   3.810  0.1864  0.6310  0.9164
  549MOL0     C75667   0.980  12.134   3.885  0.3453 -0.0658  0.3017
  549MOL0     C75668   0.855  12.138   3.805  0.2599  1.1967 -0.8144
  549MOL0    Cl75669   0.880  12.211   3.639  0.1244 -0.0317 -0.2569
  549MOL0     C75670   1.812  12.096   3.549 -0.3607  0.9345  0.2800
  549MOL0     C75671   1.924  12.103   3.460 -0.1610  0.7890 -0.5236
  549MOL0     O75672   2.195  12.010   3.420  1.0513  0.4858 -0.2650
  549MOL0     C75673   2.353  12.272   3.263 -0.6959  0.3522 -0.4218
  549MOL0     C75674   2.468  12.302   3.191 -0.2134 -0.0029 -0.3889
  549MOL0     N75675   3.080  11.711   2.880 -1.0516  0.2945  0.6358
  549MOL0     N75676   3.079  11.606   2.800 -0.1219 -0.8067 -0.5558
  549MOL0     C75677   2.405  10.511   2.950 -0.4967  0.0905  0.6493
  549MOL0     C75678   2.336  10.386   2.933 -0.1185 -0.3997  0.2128
  549MOL0     C75679   2.299   9.971   2.860 -0.0005 -0.1050  0.4342
  549MOL0     C75680   2.170   9.949   2.818  0.6835  0.1130 -0.4596
  549MOL0     C75681   2.107   9.830   2.833  0.9813 -0.5833  0.3027
  549MOL0     C75682   2.162   9.727   2.900 -0.0940  0.6558  0.0191
  549MOL0     O75683   2.111   9.597   2.918  0.1164 -0.5356  0.0459
  549MOL0     C75684   1.969   9.573   2.885  0.4442  0.6273  0.7972
  549MOL0     C75685   1.958   9.537   2.735 -0.0930 -0.4772  0.2761
  549MOL0     C75686   2.020   9.396   2.713  0.3126  0.4141 -0.9807
  549MOL0     C75687   2.060   9.380   2.568 -0.5466 -0.0194  1.0408
  549MOL0     C75688   2.107   9.236   2.565 -0.3396 -0.7625 -0.1405
  549MOL0     C75689   2.124   9.121   2.547 -0.6550  0.2930 -0.0997
  549MOL0     C75690   2.287   9.745   2.950  0.6392 -0.2840 -0.1935
  549MOL0     C75691   2.357   9.863   2.938 -0.0709  0.1342  0.2955
  549MOL0     C75692   2.490   9.866   3.007  0.0793  0.1551 -0.2934
  549MOL0     H75693   2.379  10.359   2.598 -1.1785  1.9355 -1.1454
  549MOL0     H75694   2.499  10.583   2.633 -2.1069 -0.1520 -0.9186
  549MOL0     H75695   2.712  10.628   2.770  1.8075  0.1766  0.6472
  549MOL0     H75696   2.723  10.754   2.896 -1.0119 -2.3637  1.4440
  549MOL0     H75697   2.735  10.805   2.644 -1.9797 -4.1420 -1.2288
  549MOL0     H75698   2.574  10.801   2.635  2.8165  2.7195 -4.0383
  549MOL0     H75699   2.625  11.046   2.687  1.6456  1.8568  0.0791
  549MOL0     H75700   2.534  10.977   2.818  0.0631 -4.1680  1.5860
  549MOL0     H75701   2.729  10.962   2.955  1.1055 -1.8035 -0.3953
  549MOL0     H75702   2.841  10.990   2.819  0.8660  2.5388  1.6486
  549MOL0     H75703   2.802  11.196   2.962  1.4212  0.4875 -1.8334
  549MOL0     H75704   2.630  11.196   2.901 -0.0764 -0.3441 -1.0624
  549MOL0     H75705   2.870  11.197   2.701  1.3422 -1.6164  3.4698
  549MOL0     H75706   2.700  11.277   2.700 -2.1956 -0.1377  3.0398
  549MOL0     H75707   2.973  11.364   2.834  0.4169  1.5161 -0.4549
  549MOL0     H75708   2.833  11.433   2.877 -0.5822  0.5385 -1.7442
  549MOL0     H75709   2.957  11.444   2.605  0.2215  0.6400  0.7209
  549MOL0     H75710   2.789  11.503   2.644 -0.3534 -0.1571  1.0611
  549MOL0     H75711   2.783  11.739   2.735 -0.5746 -0.4732 -0.9492
  549MOL0     H75712   2.879  11.972   2.808  0.5967  3.0164  0.2222
  549MOL0     H75713   3.020  11.974   2.923 -0.1174  0.1644 -1.8113
  549MOL0     H75714   2.747  11.890   3.000 -0.0611  0.9671 -0.4435
  549MOL0     H75715   2.906  11.886   3.093 -0.0093 -1.2790 -0.3104
  549MOL0     H75716   2.782  12.061   3.158 -0.5443  1.0355  0.2699
  549MOL0     H75717   2.907  12.138   3.049 -2.3030  1.8880 -0.6873
  549MOL0     H75718   2.750  12.201   2.876 -3.3538  0.4109 -1.2287
  549MOL0     H75719   2.640  12.069   2.924 -1.3734  1.4883  0.9948
  549MOL0     H75720   2.528  11.987   3.081 -3.4046 -2.5892  1.2976
  549MOL0     H75721   2.215  11.916   3.175 -0.7166 -0.0166 -0.8159
  549MOL0     H75722   2.340  11.850   3.291  2.2104  3.3486  1.2471
  549MOL0     H75723   2.361  11.855   3.108 -1.8007 -1.3346 -0.7478
  549MOL0     H75724   2.049  12.392   3.588  1.1706 -0.8080  1.6792
  549MOL0     H75725   1.835  12.364   3.741  0.8633 -0.6752  0.4017
  549MOL0     H75726   1.717  12.157   3.913 -0.1016 -0.6207  0.1053
  549MOL0     H75727   1.670  12.319   3.847 -1.7593  0.2841  0.3836
  549MOL0     H75728   1.490  12.235   3.999 -1.4571 -0.0553  0.1961
  549MOL0     H75729   1.435  12.242   3.830 -0.8701 -0.0941  0.7028
  549MOL0     H75730   1.460  12.029   4.001  1.4478  1.3162  0.3585
  549MOL0     H75731   1.556  11.995   3.849  1.2249  2.6381  0.2360
  549MOL0     H75732   1.329  11.897   3.845 -2.7034  0.2010  1.6149
  549MOL0     H75733   1.343  12.027   3.726  3.3034 -2.2128 -0.2779
  549MOL0     H75734   1.189  12.001   3.994  2.0648 -0.8632  0.4070
  549MOL0     H75735   1.231  12.164   3.947  0.1125  0.7355 -2.6636
  549MOL0     H75736   1.058  11.975   3.782 -1.2618  0.3000  3.9036
  549MOL0     H75737   1.134  12.127   3.721 -1.7131 -0.5222 -0.5958
  549MOL0     H75738   1.008  12.238   3.904  0.4764  0.1196 -0.8321
  549MOL0     H75739   0.969  12.081   3.980  1.9704 -0.9221  0.0637
  549MOL0     H75740   0.785  12.194   3.868  0.2952 -1.0423  1.3961
  549MOL0     H75741   0.814  12.036   3.799  1.5418  0.4790  1.2506
  549MOL0     H75742   1.744  12.012   3.538 -1.3680  2.0095 -2.3222
  549MOL0     H75743   1.934  12.024   3.387  0.0000 -0.6706  1.0181
  549MOL0     H75744   2.298  12.356   3.306 -0.2031 -0.5970  2.2487
  549MOL0     H75745   2.513  12.401   3.187  0.5233 -0.3812 -3.8718
  549MOL0     H75746   2.411  10.565   3.044  0.8186  2.5089 -0.7182
  549MOL0     H75747   2.304  10.331   3.021 -1.3617  0.8522  0.5805
  549MOL0     H75748   2.113  10.025   2.765 -0.4475  1.6390  2.6949
  549MOL0     H75749   2.007   9.823   2.789 -0.4341 -0.6473  3.2704
  549MOL0     H75750   1.925   9.495   2.948 -1.0078  2.9229  2.7765
  549MOL0     H75751   1.909   9.663   2.903 -1.3449  0.1371 -2.1601
  549MOL0     H75752   2.013   9.601   2.666 -2.7236 -0.4363 -1.9771
  549MOL0     H75753   1.860   9.542   2.686 -1.5090  1.2390  2.9844
  549MOL0     H75754   2.103   9.373   2.782 -0.6503 -0.5692 -0.0982
  549MOL0     H75755   1.945   9.323   2.744  1.1890 -1.0093 -2.0308
  549MOL0     H75756   2.141   9.445   2.536 -2.0288  0.2951 -2.5010
  549MOL0     H75757   1.972   9.401   2.507 -1.3693 -0.2086  2.1221
  549MOL0     H75758   2.142   9.018   2.521  1.3955  0.1198  1.7373
  549MOL0     H75759   2.335   9.657   2.991  0.7094  0.2319  0.8691
  549MOL0     H75760   2.486   9.944   3.083  1.5110 -0.9479  0.9724
  549MOL0     H75761   2.531   9.781   3.061 -0.5211  0.1726  0.1892
  549MOL0     H75762   2.574   9.891   2.941  0.7722 -0.5908  0.2933
  550MOL0     O75763   3.049   9.849   6.342  0.1899  0.3829  0.1926
  550MOL0     C75764   3.020   9.832   6.459  0.7355 -0.3583  0.1277
  550MOL0     O75765   3.102   9.784   6.558  0.6700  0.0742  0.3289
  550MOL0     C75766   3.233   9.757   6.544  0.2910 -0.2887 -0.5033
  550MOL0     C75767   3.283   9.679   6.650 -0.0387 -0.1660  0.2509
  550MOL0     C75768   3.425   9.648   6.655  0.2004  0.0462 -0.4381
  550MOL0     C75769   3.508   9.680   6.544 -0.7271  0.1720  0.0698
  550MOL0     O75770   3.639   9.644   6.540 -0.0914 -0.4694 -0.1966
  550MOL0     C75771   3.676   9.507   6.512 -0.3138  0.2836  0.1657
  550MOL0     C75772   3.819   9.484   6.558 -0.4725  0.6677  0.3906
  550MOL0     C75773   3.921   9.509   6.439 -0.0349 -0.8787 -0.8259
  550MOL0     C75774   4.058   9.511   6.500  0.2199 -0.4305 -0.0455
  550MOL0     C75775   4.174   9.517   6.403  0.1903 -0.6645  0.0133
  550MOL0     C75776   4.297   9.510   6.490 -1.5786 -0.1911 -0.1756
  550MOL0     C75777   4.432   9.515   6.411  0.6695  0.5167  0.1986
  550MOL0     C75778   4.552   9.517   6.510  0.3947  0.0739 -0.7496
  550MOL0     N75779   4.682   9.549   6.443  0.1393  0.1282 -0.1582
  550MOL0     C75780   4.773   9.655   6.475  0.0008  0.6498 -0.7116
  550MOL0     C75781   4.874   9.629   6.388 -0.2748  0.2812 -0.0972
  550MOL0     C75782   4.984   9.721   6.370  0.5469 -0.2876 -0.5614
  550MOL0     C75783   5.121   9.651   6.378  0.0250  0.2701  0.3582
  550MOL0     C75784   5.226   9.757   6.341  0.3612 -0.1643  0.4068
  550MOL0     C75785   5.369   9.703   6.340 -0.8109  0.7291  0.2899
  550MOL0     O75786   5.458   9.807   6.307  0.4652 -0.4751  0.6712
  550MOL0     C75787   5.569   9.781   6.230  0.1377  0.2368  0.3980
  550MOL0     C75788   5.687   9.749   6.290  0.0551  0.4739 -0.0273
  550MOL0     C75789   5.797   9.730   6.214 -0.3444 -0.0386  0.2517
  550MOL0     C75790   5.921   9.692   6.289 -0.0143  1.0154 -0.1118
  550MOL0     C75791   5.782   9.735   6.067 -0.3434 -0.1410  0.3826
  550MOL0     C75792   5.902   9.720   5.966 -0.2629  0.4339 -0.0583
  550MOL0     O75793   6.025   9.685   6.016 -0.1411 -0.5270 -0.1122
  550MOL0     C75794   6.135   9.674   5.935 -0.0223  1.0910  0.3402
  550MOL0     C75795   6.265   9.699   5.990  0.4006 -0.9051  0.0552
  550MOL0     C75796   6.380   9.679   5.919  0.6256 -0.0804 -0.2372
  550MOL0     C75797   6.370   9.656   5.776 -0.4178  0.0916  0.3447
  550MOL0     O75798   6.472   9.666   5.686 -0.1426 -0.1147  0.1514
  550MOL0     C75799   6.606   9.638   5.724  0.5614  0.1668  0.0655
  550MOL0     C75800   6.611   9.495   5.665  0.7221  0.5480  0.6121
  550MOL0     C75801   6.747   9.445   5.668  0.1154 -0.2733 -0.0839
  550MOL0     C75802   6.842   9.492   5.552 -0.5747  0.2746 -0.3516
  550MOL0     C75803   6.948   9.391   5.536  0.7548  0.3814 -0.3532
  550MOL0     C75804   7.040   9.431   5.426 -0.1380 -0.0466 -0.1371
  550MOL0     C75805   7.167   9.353   5.422  0.2284 -0.6552 -0.4260
  550MOL0     C75806   7.266   9.415   5.323  0.3825 -0.0486 -0.0568
  550MOL0    Cl75807   7.359   9.560   5.381  0.2435 -0.0895  0.0717
  550MOL0     C75808   6.246   9.630   5.725  0.2713  1.0192 -0.5427
  550MOL0     C75809   6.134   9.624   5.808 -0.5743 -0.2090  1.2420
  550MOL0     O75810   5.878   9.738   5.847  0.5835  0.1251 -0.0054
  550MOL0     C75811   5.653   9.773   6.013 -0.0627  0.3085 -0.8534
  550MOL0     C75812   5.548   9.790   6.097 -0.0895  0.8534 -0.4578
  550MOL0     N75813   4.857   9.510   6.320 -0.0367  0.0752  0.3568
  550MOL0     N75814   4.754   9.451   6.372 -0.1312  0.1006 -0.5739
  550MOL0     C75815   3.450   9.744   6.445  0.2775  0.2235  0.7367
  550MOL0     C75816   3.319   9.793   6.443  0.1924  0.7399  0.3312
  550MOL0     C75817   2.869   9.852   6.494 -0.8591  0.8188 -0.8479
  550MOL0     C75818   2.820   9.804   6.620 -0.0823 -0.2429  0.1751
  550MOL0     C75819   2.699   9.824   6.665  0.1351  0.1109  0.2771
  550MOL0     C75820   2.610   9.895   6.586 -0.2847 -0.3620 -0.2210
  550MOL0     O75821   2.480   9.927   6.623 -0.1163 -0.3269 -0.1366
  550MOL0     C75822   2.438   9.898   6.757  0.4309 -0.6854  0.1775
  550MOL0     C75823   2.329  10.001   6.785 -0.0849 -0.3008 -0.3724
  550MOL0     C75824   2.191   9.978   6.719  0.1534 -0.2919 -0.1708
  550MOL0     C75825   2.120  10.113   6.695  0.4186 -0.3974 -0.3032
  550MOL0     C75826   2.070  10.180   6.818 -0.0047  0.0822  0.6402
  550MOL0     C75827   2.039  10.235   6.921  0.3575  0.0405  0.7409
  550MOL0     C75828   2.649   9.948   6.464  1.0533  0.3772 -0.0950
  550MOL0     C75829   2.780   9.919   6.415  0.6944 -0.1327 -0.4585
  550MOL0     C75830   2.805   9.972   6.281 -0.6023 -1.0647 -0.2601
  550MOL0     H75831   3.225   9.635   6.730  2.2411 -0.3769  1.8855
  550MOL0     H75832   3.466   9.582   6.730 -1.6833 -4.1731 -2.7977
  550MOL0     H75833   3.662   9.490   6.405 -1.0296  4.2380 -0.5165
  550MOL0     H75834   3.611   9.443   6.573  2.3133 -2.1198  0.6469
  550MOL0     H75835   3.834   9.544   6.648  2.1327  0.3839  0.2224
  550MOL0     H75836   3.824   9.381   6.596  1.4211  1.9046  3.9430
  550MOL0     H75837   3.924   9.428   6.365  2.9457 -1.5277 -0.1638
  550MOL0     H75838   3.895   9.600   6.384 -1.2799 -0.2954  0.6559
  550MOL0     H75839   4.067   9.584   6.581 -4.5497 -0.7838  1.0986
  550MOL0     H75840   4.074   9.407   6.530 -1.6741 -1.3084 -1.8098
  550MOL0     H75841   4.173   9.606   6.340 -1.0604 -0.7716 -0.1444
  550MOL0     H75842   4.165   9.430   6.338 -0.1383  1.1917 -2.5911
  550MOL0     H75843   4.289   9.587   6.567  2.6955 -1.6474  2.0639
  550MOL0     H75844   4.290   9.414   6.540  3.9003 -0.4149  0.7964
  550MOL0     H75845   4.436   9.597   6.338  3.0730 -1.3882 -2.0013
  550MOL0     H75846   4.431   9.425   6.349 -1.1139  1.3900 -1.1692
  550MOL0     H75847   4.548   9.597   6.584  2.1020 -0.1043 -0.4170
  550MOL0     H75848   4.552   9.418   6.556 -2.9553  0.6889  0.8602
  550MOL0     H75849   4.762   9.745   6.534  3.1417  1.0341 -0.5405
  550MOL0     H75850   4.975   9.801   6.444  1.4704 -0.5028 -0.2102
  550MOL0     H75851   4.970   9.763   6.269 -0.5321  2.1503  0.5170
  550MOL0     H75852   5.141   9.616   6.480 -0.3024  1.5026  0.8679
  550MOL0     H75853   5.119   9.564   6.312 -1.4693  0.5579 -0.0075
  550MOL0     H75854   5.207   9.802   6.243  1.3148 -0.1835  0.2003
  550MOL0     H75855   5.212   9.845   6.404 -2.5942 -0.2405 -0.0254
  550MOL0     H75856   5.403   9.657   6.433  5.5377 -1.6937 -2.6972
  550MOL0     H75857   5.386   9.620   6.271  2.5077 -0.3161  2.1165
  550MOL0     H75858   5.698   9.746   6.398  2.2251 -2.0103 -0.2196
  550MOL0     H75859   5.976   9.785   6.308  0.2869  1.0595 -1.1246
  550MOL0     H75860   5.974   9.622   6.224 -2.0051  1.3079 -2.1947
  550MOL0     H75861   5.899   9.637   6.381  0.5887  0.0524 -0.5331
  550MOL0     H75862   6.276   9.728   6.094 -0.6235  0.8506 -0.2786
  550MOL0     H75863   6.475   9.712   5.961 -0.8145  3.6726  0.4889
  550MOL0     H75864   6.668   9.711   5.672 -0.8244 -0.1498 -2.1752
  550MOL0     H75865   6.624   9.642   5.832 -3.0747 -0.8794  0.8554
  550MOL0     H75866   6.549   9.424   5.722  0.4690 -0.2185 -0.5876
  550MOL0     H75867   6.568   9.484   5.565  0.0031 -3.3607  1.1649
  550MOL0     H75868   6.741   9.336   5.666  0.9002 -0.3531  1.0914
  550MOL0     H75869   6.800   9.476   5.758  2.9287  0.9524 -2.0154
  550MOL0     H75870   6.888   9.584   5.588 -1.3197 -0.2973  2.2605
  550MOL0     H75871   6.793   9.497   5.453  0.8232 -2.2728 -1.2642
  550MOL0     H75872   7.012   9.373   5.623 -1.0651 -1.7980  0.6422
  550MOL0     H75873   6.896   9.295   5.531 -1.0028  1.2535  0.2851
  550MOL0     H75874   7.081   9.531   5.440 -0.5166  0.3545 -1.7005
  550MOL0     H75875   6.983   9.429   5.332  1.6610 -0.7421 -1.2674
  550MOL0     H75876   7.141   9.250   5.394 -0.3284 -0.7668  0.4480
  550MOL0     H75877   7.213   9.346   5.521  1.9677 -0.6547 -1.1866
  550MOL0     H75878   7.217   9.448   5.231  0.6686  0.1389 -0.1392
  550MOL0     H75879   7.332   9.331   5.301 -0.2851 -0.2966 -1.2159
  550MOL0     H75880   6.223   9.599   5.623  0.7969  1.5988 -0.8451
  550MOL0     H75881   6.043   9.584   5.763 -0.3091  1.1115 -0.5925
  550MOL0     H75882   5.639   9.779   5.906 -0.6970 -0.2532 -0.8068
  550MOL0     H75883   5.444   9.786   6.066 -1.1021 -0.1768  2.7176
  550MOL0     H75884   3.519   9.764   6.364  1.1423 -0.7379  1.2205
  550MOL0     H75885   3.279   9.835   6.352 -0.3272 -1.5389 -0.5637
  550MOL0     H75886   2.895   9.762   6.687  5.2938  3.8593 -2.4271
  550MOL0     H75887   2.675   9.785   6.764  0.3560 -0.5085  0.0936
  550MOL0     H75888   2.397   9.797   6.764 -0.1557 -0.3844  1.3033
  550MOL0     H75889   2.520   9.909   6.829  0.4075 -1.1427  0.2775
  550MOL0     H75890   2.375  10.096   6.756  1.4996 -0.6887  0.7196
  550MOL0     H75891   2.305  10.018   6.890  1.0366  0.7503 -0.2702
  550MOL0     H75892   2.201   9.926   6.623  3.0425 -0.1009 -0.0578
  550MOL0     H75893   2.132   9.900   6.767  2.3813 -3.4941 -2.1930
  550MOL0     H75894   2.035  10.104   6.627  0.1793  1.0617 -0.2300
  550MOL0     H75895   2.187  10.184   6.646  1.6518 -0.9591  0.5378
  550MOL0     H75896   1.994  10.265   7.014  0.1371 -3.1649  1.8144
  550MOL0     H75897   2.581  10.010   6.407  0.3503 -1.6993 -1.6334
  550MOL0     H75898   2.728  10.042   6.249 -0.1393  0.5687  1.9931
  550MOL0     H75899   2.895  10.031   6.302 -0.4189 -1.5218  0.2656
  550MOL0     H75900   2.826   9.892   6.209  2.8659  0.1987 -0.8764
  551MOL0     O75901   4.694   8.184   4.919  0.2520  0.4058  0.2791
  551MOL0     C75902   4.576   8.193   4.874 -0.5994  0.3615  0.2589
  551MOL0     O75903   4.519   8.301   4.816 -0.2716 -0.2486 -0.7396
  551MOL0     C75904   4.596   8.410   4.842  0.0972 -0.0100  0.7624
  551MOL0     C75905   4.691   8.460   4.747 -0.0303 -0.0900 -0.6909
  551MOL0     C75906   4.758   8.581   4.770 -0.3848  0.1816  0.8211
  551MOL0     C75907   4.734   8.652   4.883  0.4649 -0.6429 -0.0984
  551MOL0     O75908   4.799   8.776   4.896 -0.1261 -0.0650  0.4998
  551MOL0     C75909   4.799   8.860   5.022 -0.2220  0.3709  0.5197
  551MOL0     C75910   4.876   8.781   5.125  0.2892  0.0790  0.1475
  551MOL0     C75911   5.016   8.754   5.070 -0.3538  0.3306 -0.2198
  551MOL0     C75912   5.117   8.729   5.188  0.4173  0.3504 -1.0540
  551MOL0     C75913   5.072   8.603   5.277  0.5194 -0.4486  0.5080
  551MOL0     C75914   5.148   8.585   5.412 -0.1153 -0.5142  0.7380
  551MOL0     C75915   5.128   8.454   5.498  0.9739 -0.0104  1.0162
  551MOL0     C75916   4.984   8.413   5.507  0.3281  0.0710 -0.0974
  551MOL0     N75917   4.958   8.288   5.583 -0.2009 -0.0063  0.9593
  551MOL0     C75918   5.020   8.162   5.561  0.4039  0.8359 -0.2619
  551MOL0     C75919   4.925   8.071   5.621 -0.7191  0.4878 -0.2209
  551MOL0     C75920   4.933   7.918   5.626  0.3778 -1.0751 -0.6370
  551MOL0     C75921   4.817   7.865   5.555 -0.0469 -0.2292  0.1208
  551MOL0     C75922   4.797   7.707   5.547 -0.4368  0.0933  0.4430
  551MOL0     C75923   4.904   7.637   5.461  0.0794 -0.2040  0.4698
  551MOL0     O75924   5.033   7.624   5.518  0.0621 -0.0490 -0.5829
  551MOL0     C75925   5.138   7.568   5.448  0.3284 -0.5765  0.9214
  551MOL0     C75926   5.125   7.486   5.333 -0.7082  0.2193 -1.0471
  551MOL0     C75927   5.234   7.425   5.283  0.1389 -0.5424  0.3040
  551MOL0     C75928   5.211   7.340   5.157  0.0477  0.4446 -0.9064
  551MOL0     C75929   5.367   7.437   5.339 -0.3069 -0.6940 -0.6843
  551MOL0     C75930   5.494   7.369   5.305  0.6104 -0.4074 -0.0642
  551MOL0     O75931   5.615   7.427   5.329 -0.1634  0.4968  0.5817
  551MOL0     C75932   5.737   7.358   5.321 -0.0997  0.1323  0.0647
  551MOL0     C75933   5.761   7.223   5.342 -0.1315  0.6663 -0.4544
  551MOL0     C75934   5.887   7.169   5.333 -0.4896  0.3328 -0.6867
  551MOL0     C75935   5.995   7.246   5.304  0.4112  0.1591  0.2461
  551MOL0     O75936   6.115   7.181   5.300 -1.1582  0.3881  1.4569
  551MOL0     C75937   6.197   7.228   5.191 -0.0526 -0.1097  0.1269
  551MOL0     C75938   6.334   7.161   5.186  0.0267 -0.0728 -0.2219
  551MOL0     C75939   6.335   7.008   5.155 -0.0715  0.0210  0.6762
  551MOL0     C75940   6.477   6.960   5.125  0.2284 -0.1591 -0.6833
  551MOL0     C75941   6.490   6.815   5.082  0.3976  0.8091 -0.0774
  551MOL0     C75942   6.633   6.772   5.057 -0.0241  0.2709  1.0441
  551MOL0     C75943   6.742   6.806   5.158 -1.1671  0.0064  0.3281
  551MOL0     C75944   6.737   6.716   5.283  0.0813 -0.1984  1.5933
  551MOL0    Cl75945   6.875   6.760   5.382 -0.0866 -0.4104 -0.3206
  551MOL0     C75946   5.969   7.379   5.281  0.1347 -0.7529  0.6620
  551MOL0     C75947   5.848   7.440   5.291 -0.4856  0.9612  0.5707
  551MOL0     O75948   5.475   7.258   5.248 -0.4034 -0.4360 -1.0625
  551MOL0     C75949   5.380   7.521   5.457  0.5425 -0.0635  0.4614
  551MOL0     C75950   5.267   7.587   5.503 -0.0240  0.4816 -0.1234
  551MOL0     N75951   4.825   8.146   5.683 -0.0195  0.3155  0.1407
  551MOL0     N75952   4.846   8.266   5.662  0.4728 -0.6374 -0.5352
  551MOL0     C75953   4.635   8.607   4.974 -0.3494 -0.5278 -0.1233
  551MOL0     C75954   4.571   8.490   4.956 -0.9507  0.2260 -0.5254
  551MOL0     C75955   4.501   8.058   4.873  0.0557  0.7970 -0.1453
  551MOL0     C75956   4.578   7.941   4.856  0.0227  0.2750 -0.2559
  551MOL0     C75957   4.528   7.811   4.864 -0.2590 -0.4169  0.2886
  551MOL0     C75958   4.389   7.792   4.878 -0.9476 -0.5619  0.7922
  551MOL0     O75959   4.349   7.664   4.866 -0.1680  0.0913 -0.7834
  551MOL0     C75960   4.348   7.614   4.727 -0.6508  0.5343  0.1998
  551MOL0     C75961   4.229   7.519   4.693 -0.4043 -0.8985 -0.4942
  551MOL0     C75962   4.091   7.595   4.673 -0.2123 -0.5627  0.3939
  551MOL0     C75963   4.084   7.665   4.537 -0.7091  0.1631 -0.3507
  551MOL0     C75964   4.133   7.809   4.553 -0.0834  0.4981  0.6637
  551MOL0     C75965   4.171   7.926   4.573 -0.3897  0.1088  0.1898
  551MOL0     C75966   4.305   7.905   4.892 -0.3549  0.1909 -0.7320
  551MOL0     C75967   4.363   8.032   4.886 -0.0929 -0.0850 -0.4833
  551MOL0     C75968   4.264   8.148   4.894 -0.5917 -0.6782  0.0024
  551MOL0     H75969   4.710   8.406   4.655 -3.6874 -1.5320 -0.7971
  551MOL0     H75970   4.844   8.624   4.719 -0.5665  2.0600  2.0134
  551MOL0     H75971   4.700   8.884   5.061  0.1953  0.7345  1.3944
  551MOL0     H75972   4.854   8.952   4.998  0.3809 -0.2513 -0.5564
  551MOL0     H75973   4.879   8.850   5.210  2.6693  1.8214 -1.2160
  551MOL0     H75974   4.826   8.686   5.148  0.9905 -0.7879 -1.6374
  551MOL0     H75975   5.019   8.664   5.009  1.4324 -0.3352  0.7619
  551MOL0     H75976   5.052   8.833   5.004 -1.1169 -1.9757 -3.6078
  551MOL0     H75977   5.217   8.714   5.148  0.6182 -1.2671 -0.0282
  551MOL0     H75978   5.119   8.816   5.255 -1.2635 -1.8838  2.1419
  551MOL0     H75979   5.094   8.517   5.213 -0.1759 -0.1537 -0.1362
  551MOL0     H75980   4.964   8.611   5.293  0.4660  0.8743 -0.3503
  551MOL0     H75981   5.254   8.596   5.388  0.4964  0.2491  3.3883
  551MOL0     H75982   5.127   8.674   5.472  1.7576  0.3045  0.2365
  551MOL0     H75983   5.182   8.466   5.593  1.7714 -6.1618  1.7476
  551MOL0     H75984   5.190   8.377   5.451  3.8883  2.2267  0.8735
  551MOL0     H75985   4.919   8.493   5.543  1.7128  1.5357 -0.7432
  551MOL0     H75986   4.941   8.391   5.408  1.6271  0.9703 -0.9014
  551MOL0     H75987   5.113   8.138   5.510  0.0517 -0.6692 -0.2263
  551MOL0     H75988   4.932   7.892   5.733  0.1737  1.2479 -0.0275
  551MOL0     H75989   5.030   7.894   5.581  1.7161  0.2716  1.3339
  551MOL0     H75990   4.729   7.907   5.604 -0.0015 -0.0208  0.0207
  551MOL0     H75991   4.818   7.902   5.453  0.7438  0.5149  0.3861
  551MOL0     H75992   4.794   7.655   5.643  2.8856 -0.6887  0.2331
  551MOL0     H75993   4.704   7.692   5.492  0.1727 -0.8486 -0.3746
  551MOL0     H75994   4.880   7.531   5.444  2.2525 -0.7940  0.7997
  551MOL0     H75995   4.931   7.688   5.368  1.6367  0.0431  1.0339
  551MOL0     H75996   5.026   7.465   5.292 -0.8414 -0.2308 -0.5143
  551MOL0     H75997   5.215   7.233   5.178 -1.5553  0.2019 -1.7240
  551MOL0     H75998   5.296   7.350   5.087 -0.0233 -0.9696 -1.2246
  551MOL0     H75999   5.126   7.379   5.101  1.0240  2.6206 -0.9766
  551MOL0     H76000   5.681   7.154   5.366  2.1165 -1.2443  2.3258
  551MOL0     H76001   5.893   7.065   5.364 -2.4226  0.0158 -1.2160
  551MOL0     H76002   6.155   7.215   5.091  1.1470  0.6228 -0.4941
  551MOL0     H76003   6.222   7.332   5.213  1.2040 -0.7034  1.6570
  551MOL0     H76004   6.381   7.228   5.114 -1.8449  0.0116 -1.4282
  551MOL0     H76005   6.382   7.154   5.284  1.4122 -1.2559 -0.9404
  551MOL0     H76006   6.264   6.978   5.077 -0.4848  0.9230  0.6965
  551MOL0     H76007   6.306   6.950   5.243 -3.4375 -1.2443 -1.0856
  551MOL0     H76008   6.533   6.980   5.217 -2.8706 -0.2687  1.3993
  551MOL0     H76009   6.524   7.017   5.044  0.2603  1.2581  0.2964
  551MOL0     H76010   6.445   6.750   5.158 -1.2832  2.1459  0.1464
  551MOL0     H76011   6.426   6.805   4.994 -2.0857  1.0327  1.5876
  551MOL0     H76012   6.672   6.818   4.967 -2.1104 -0.1327 -0.1414
  551MOL0     H76013   6.623   6.665   5.037 -0.8594  0.4107  0.6897
  551MOL0     H76014   6.746   6.913   5.182  0.4416 -0.4865  2.5063
  551MOL0     H76015   6.840   6.793   5.111 -0.6342  2.6480  0.5356
  551MOL0     H76016   6.733   6.611   5.254 -0.6764  0.2187  0.1047
  551MOL0     H76017   6.639   6.745   5.320 -0.3344  0.1765  0.2556
  551MOL0     H76018   6.048   7.446   5.247 -2.6503  1.1938 -2.6520
  551MOL0     H76019   5.829   7.545   5.274  0.0627  0.7239 -1.7740
  551MOL0     H76020   5.479   7.528   5.501  1.5063 -0.9225 -1.4313
  551MOL0     H76021   5.286   7.657   5.583 -0.8950  0.5390  0.0412
  551MOL0     H76022   4.612   8.667   5.061 -0.0225  0.0741 -0.4430
  551MOL0     H76023   4.498   8.451   5.027 -0.2306  1.7566  1.1442
  551MOL0     H76024   4.686   7.951   4.857 -0.0989  1.6894  0.6936
  551MOL0     H76025   4.587   7.721   4.848  0.0541 -0.3876  1.2127
  551MOL0     H76026   4.343   7.695   4.653  3.5263  2.1150  1.3547
  551MOL0     H76027   4.445   7.565   4.716 -0.4580  0.2876  2.4833
  551MOL0     H76028   4.218   7.446   4.773 -1.3688 -0.5586 -0.2998
  551MOL0     H76029   4.250   7.470   4.598 -3.1965 -1.4221 -0.9157
  551MOL0     H76030   4.011   7.524   4.693  1.0913 -2.5119 -1.0427
  551MOL0     H76031   4.095   7.665   4.757 -0.6157 -0.7482  0.5707
  551MOL0     H76032   3.980   7.666   4.504 -0.3048 -1.4710 -1.8474
  551MOL0     H76033   4.143   7.615   4.459 -1.1702 -1.2128  0.1541
  551MOL0     H76034   4.209   8.024   4.596  0.0572 -0.0876  0.2930
  551MOL0     H76035   4.204   7.874   4.916 -0.4165 -0.3379 -1.6185
  551MOL0     H76036   4.264   8.196   4.796 -0.1720 -2.3102 -0.8255
  551MOL0     H76037   4.161   8.113   4.909 -1.4243  1.1659 -1.0364
  551MOL0     H76038   4.290   8.218   4.974  0.3930  0.1448 -0.9982
  552MOL0     O76039   4.562   4.786   6.979 -0.7726 -0.2168  0.0290
  552MOL0     C76040   4.511   4.880   6.920 -0.3389 -0.2711 -0.1242
  552MOL0     O76041   4.573   4.975   6.851 -0.0540  0.0665  0.3019
  552MOL0     C76042   4.709   4.974   6.817 -0.1872  0.7330 -0.1934
  552MOL0     C76043   4.787   4.861   6.799  0.6176 -0.5625  0.7343
  552MOL0     C76044   4.923   4.875   6.751  0.7134 -0.5570  0.5140
  552MOL0     C76045   4.984   5.001   6.744  0.0467 -0.2479 -0.1463
  552MOL0     O76046   5.113   5.023   6.715 -0.2167 -0.7485  0.4987
  552MOL0     C76047   5.202   5.067   6.825 -0.3521  0.0640  0.1929
  552MOL0     C76048   5.330   5.118   6.764  0.2606 -0.2895 -0.6382
  552MOL0     C76049   5.306   5.162   6.617  0.3389  1.0000 -0.1468
  552MOL0     C76050   5.439   5.228   6.580  0.8503  0.5236 -0.0846
  552MOL0     C76051   5.449   5.294   6.438  0.4039  0.1960 -0.2736
  552MOL0     C76052   5.423   5.183   6.331  0.3586  0.4211 -0.1322
  552MOL0     C76053   5.445   5.240   6.184 -0.0050 -0.1027 -0.4457
  552MOL0     C76054   5.359   5.158   6.089 -0.2508  0.7127  0.5287
  552MOL0     N76055   5.339   5.229   5.960  0.0513  1.0641 -0.1721
  552MOL0     C76056   5.424   5.232   5.852 -0.6119 -0.4855 -1.1623
  552MOL0     C76057   5.346   5.272   5.752  0.3513  0.5778  1.0941
  552MOL0     C76058   5.391   5.314   5.609  0.4947  0.3067  0.2981
  552MOL0     C76059   5.444   5.185   5.529  0.2050 -0.1471 -0.4908
  552MOL0     C76060   5.481   5.217   5.380 -0.1015  0.3739 -0.1822
  552MOL0     C76061   5.601   5.312   5.385  0.6211 -0.3688 -0.4925
  552MOL0     O76062   5.711   5.252   5.456 -0.6596 -0.0161 -0.5830
  552MOL0     C76063   5.839   5.296   5.441 -1.1393  0.0633 -0.1190
  552MOL0     C76064   5.882   5.416   5.373 -0.7410  0.7735  0.4284
  552MOL0     C76065   6.016   5.465   5.361 -0.0513 -0.5023  0.3983
  552MOL0     C76066   6.040   5.598   5.279  0.1433  0.0995 -0.1291
  552MOL0     C76067   6.117   5.393   5.435  0.2325  0.2532  0.0344
  552MOL0     C76068   6.261   5.428   5.435 -0.5518  0.0459  0.0867
  552MOL0     O76069   6.350   5.330   5.481  0.9709  0.0463  0.5323
  552MOL0     C76070   6.483   5.350   5.487 -0.0893 -0.9437 -0.1333
  552MOL0     C76071   6.546   5.456   5.550 -0.8567  0.0334 -0.2633
  552MOL0     C76072   6.687   5.462   5.566  0.8855  0.0948  0.6882
  552MOL0     C76073   6.760   5.353   5.527  0.4379  0.0696 -0.6767
  552MOL0     O76074   6.895   5.351   5.549 -0.3043 -0.5082  0.5843
  552MOL0     C76075   6.928   5.357   5.690 -0.3636  0.5457  0.3159
  552MOL0     C76076   7.017   5.233   5.717  0.0229  1.1150 -0.3039
  552MOL0     C76077   7.162   5.252   5.676  1.5519 -0.4824 -0.7411
  552MOL0     C76078   7.250   5.130   5.649  0.2382 -0.1578  0.5158
  552MOL0     C76079   7.396   5.177   5.606 -0.4733 -0.4151  0.1042
  552MOL0     C76080   7.485   5.230   5.725  0.4937  0.0721 -0.2787
  552MOL0     C76081   7.631   5.241   5.698  0.0364  0.3916  0.0034
  552MOL0     C76082   7.713   5.328   5.792 -0.3248  0.9426 -0.3017
  552MOL0    Cl76083   7.680   5.301   5.957 -0.1608 -0.7927 -0.3626
  552MOL0     C76084   6.704   5.253   5.454  0.5762 -0.5871  1.0610
  552MOL0     C76085   6.562   5.247   5.432 -1.2263  0.6172  0.1084
  552MOL0     O76086   6.306   5.538   5.399 -0.0115  0.0983 -0.3330
  552MOL0     C76087   6.075   5.277   5.509  0.0913  0.2530 -0.0123
  552MOL0     C76088   5.942   5.227   5.500  0.2341  0.0731  0.8031
  552MOL0     N76089   5.214   5.290   5.788 -0.5701  0.4315 -0.2275
  552MOL0     N76090   5.212   5.262   5.917 -0.5699  0.2518 -0.1803
  552MOL0     C76091   4.903   5.119   6.762 -0.0511 -0.2965  1.1003
  552MOL0     C76092   4.769   5.105   6.780  1.4199  0.4605 -0.0837
  552MOL0     C76093   4.361   4.878   6.917 -0.0625  0.9067  0.6002
  552MOL0     C76094   4.293   4.960   6.822 -0.2208 -0.5048 -0.2558
  552MOL0     C76095   4.156   4.962   6.802  0.9592  1.0361  0.5295
  552MOL0     C76096   4.079   4.884   6.881 -1.3138 -0.5064  0.0747
  552MOL0     O76097   3.948   4.874   6.870 -0.4088  0.4102  0.2163
  552MOL0     C76098   3.899   4.839   6.738  0.3593 -0.6360 -0.2678
  552MOL0     C76099   3.745   4.859   6.745 -1.0583 -0.3556 -0.3295
  552MOL0     C76100   3.683   4.814   6.618 -0.5763  0.1124 -0.2973
  552MOL0     C76101   3.535   4.828   6.610  0.9345 -0.7526  1.1666
  552MOL0     C76102   3.461   4.719   6.675  0.0881  0.6066 -0.0576
  552MOL0     C76103   3.408   4.618   6.720  0.1261 -0.5161  0.2308
  552MOL0     C76104   4.134   4.798   6.972  0.4982 -0.3919 -0.1044
  552MOL0     C76105   4.269   4.812   7.002 -0.5373  0.7107 -0.0448
  552MOL0     C76106   4.315   4.715   7.108  1.1186  0.0655 -0.3999
  552MOL0     H76107   4.740   4.765   6.817 -0.9162  0.2194  1.0363
  552MOL0     H76108   4.983   4.789   6.724  2.5495  0.4881  1.0845
  552MOL0     H76109   5.235   4.986   6.890 -0.0673 -0.0280 -0.0621
  552MOL0     H76110   5.162   5.152   6.881 -1.9199  1.4016 -2.7153
  552MOL0     H76111   5.356   5.204   6.827 -2.3471 -1.6567  2.5709
  552MOL0     H76112   5.408   5.042   6.767 -0.2219 -0.8075  3.3013
  552MOL0     H76113   5.290   5.079   6.549  0.5981  0.7846  0.0547
  552MOL0     H76114   5.219   5.228   6.609 -1.2629 -0.7055  1.8814
  552MOL0     H76115   5.431   5.316   6.646 -2.7832 -0.6755  1.3341
  552MOL0     H76116   5.523   5.160   6.598 -1.6886 -2.3108  2.0551
  552MOL0     H76117   5.555   5.316   6.426  0.8290 -1.5514  0.0612
  552MOL0     H76118   5.375   5.374   6.428 -0.5976 -0.5656  0.7331
  552MOL0     H76119   5.497   5.103   6.348 -1.3677 -1.5554 -1.4459
  552MOL0     H76120   5.323   5.138   6.335 -0.2265  1.6842 -0.2960
  552MOL0     H76121   5.548   5.240   6.147  0.8710  2.5514  1.6508
  552MOL0     H76122   5.410   5.344   6.180 -1.3640 -0.5606 -3.7001
  552MOL0     H76123   5.408   5.061   6.077 -0.3391  0.8905 -1.7428
  552MOL0     H76124   5.257   5.147   6.129 -1.9521 -0.0855 -3.5567
  552MOL0     H76125   5.528   5.204   5.863 -1.1569 -2.2696 -0.2217
  552MOL0     H76126   5.470   5.390   5.617 -0.1544  1.2008 -1.2199
  552MOL0     H76127   5.308   5.362   5.556 -0.6332 -0.4038  1.3975
  552MOL0     H76128   5.527   5.139   5.583  1.8694  2.9587 -0.1730
  552MOL0     H76129   5.367   5.107   5.528  0.5209 -0.4921  0.5299
  552MOL0     H76130   5.516   5.142   5.308  0.3430  3.0830 -3.0274
  552MOL0     H76131   5.395   5.266   5.333  0.4361  1.5057 -0.0218
  552MOL0     H76132   5.629   5.338   5.282  0.8518  1.5995  0.0079
  552MOL0     H76133   5.576   5.411   5.425  0.3704 -0.4025 -0.5641
  552MOL0     H76134   5.802   5.475   5.330  1.1667  2.1284 -1.4978
  552MOL0     H76135   6.108   5.666   5.330  3.3438 -1.7918 -1.5861
  552MOL0     H76136   5.950   5.648   5.241  1.1806  1.6540 -0.6228
  552MOL0     H76137   6.097   5.575   5.189 -1.9095  0.2885 -1.5507
  552MOL0     H76138   6.480   5.533   5.589 -0.4055 -0.5878  1.8601
  552MOL0     H76139   6.732   5.543   5.623  2.9629  0.2242 -1.0036
  552MOL0     H76140   6.984   5.445   5.724  1.8281 -0.7683  0.2575
  552MOL0     H76141   6.836   5.350   5.750 -1.8157 -2.1447 -2.0063
  552MOL0     H76142   7.008   5.219   5.825 -1.5177  1.2731 -0.3911
  552MOL0     H76143   6.967   5.152   5.663  0.1411  0.6008  0.3592
  552MOL0     H76144   7.200   5.311   5.760 -1.7042  1.2719 -0.2986
  552MOL0     H76145   7.158   5.308   5.581  0.6668  1.4559  0.3678
  552MOL0     H76146   7.204   5.074   5.568  1.8311 -3.5381  1.7306
  552MOL0     H76147   7.270   5.069   5.738  3.1929  0.5831  0.4948
  552MOL0     H76148   7.445   5.099   5.548 -0.4786  0.1111 -0.6318
  552MOL0     H76149   7.385   5.252   5.527  0.4103 -2.1409 -1.7513
  552MOL0     H76150   7.469   5.174   5.818 -0.7108  0.1238 -0.4397
  552MOL0     H76151   7.446   5.330   5.747  0.0452 -0.4873  1.6762
  552MOL0     H76152   7.646   5.285   5.599  0.2451  0.0474 -0.1216
  552MOL0     H76153   7.670   5.139   5.700 -0.5595  0.1778  1.1377
  552MOL0     H76154   7.703   5.437   5.781  1.2681  1.5028  2.7875
  552MOL0     H76155   7.816   5.307   5.760 -0.6505 -0.9309 -0.1988
  552MOL0     H76156   6.772   5.180   5.411 -2.2751 -2.1550 -1.1305
  552MOL0     H76157   6.517   5.166   5.376 -1.9875  1.2016 -0.1370
  552MOL0     H76158   6.143   5.228   5.579  3.6162  1.5235 -2.2502
  552MOL0     H76159   5.907   5.134   5.544 -2.0960 -0.2589 -1.5539
  552MOL0     H76160   4.954   5.214   6.747 -0.6596  0.2173  2.1932
  552MOL0     H76161   4.706   5.193   6.769  2.1199  0.9428 -0.3195
  552MOL0     H76162   4.360   5.024   6.765  3.6948 -2.1954  2.0155
  552MOL0     H76163   4.113   5.031   6.730  0.2554  2.2577  2.0654
  552MOL0     H76164   3.949   4.890   6.655 -0.3360 -1.2001 -1.0611
  552MOL0     H76165   3.915   4.731   6.726  2.8313 -0.4867  1.0924
  552MOL0     H76166   3.735   4.968   6.750  3.0843  0.3552 -2.6840
  552MOL0     H76167   3.696   4.812   6.831 -2.5265  1.4624 -0.0942
  552MOL0     H76168   3.725   4.870   6.534 -2.7831 -1.0653 -2.3061
  552MOL0     H76169   3.713   4.709   6.603  1.1953  0.5454 -0.0871
  552MOL0     H76170   3.500   4.820   6.507 -2.0232 -3.0428  2.1844
  552MOL0     H76171   3.506   4.927   6.645 -1.2338  0.3734 -3.1084
  552MOL0     H76172   3.359   4.529   6.753  0.7908 -1.2254 -0.6321
  552MOL0     H76173   4.076   4.722   7.023 -0.9072  0.2743 -0.6701
  552MOL0     H76174   4.236   4.691   7.180  0.7199 -1.1900 -1.2236
  552MOL0     H76175   4.337   4.621   7.057 -5.7670 -2.1608 -0.3240
  552MOL0     H76176   4.406   4.748   7.158  0.7462 -3.8781  3.4623
  553MOL0     O76177   3.769  10.967   3.486  0.0659  0.7863 -0.4346
  553MOL0     C76178   3.787  10.857   3.434  0.7965  0.0465 -0.3522
  553MOL0     O76179   3.830  10.748   3.509 -0.0551 -0.0256 -0.4505
  553MOL0     C76180   3.838  10.765   3.648  0.0222 -0.0436 -0.0352
  553MOL0     C76181   3.736  10.746   3.746  0.1092  0.2457 -0.4371
  553MOL0     C76182   3.760  10.776   3.878  0.2443 -0.2714 -0.6394
  553MOL0     C76183   3.888  10.819   3.911 -0.2862  0.2673 -0.4436
  553MOL0     O76184   3.905  10.838   4.047  0.1530 -0.3017  1.3497
  553MOL0     C76185   4.014  10.785   4.113 -0.0274 -0.4010 -0.5810
  553MOL0     C76186   4.010  10.635   4.116  0.3083 -0.2331  0.2804
  553MOL0     C76187   4.126  10.577   4.192 -0.6000 -1.0984 -0.2252
  553MOL0     C76188   4.263  10.599   4.112  0.2236 -0.4695  0.1111
  553MOL0     C76189   4.382  10.552   4.200 -0.5615  0.4130  0.3129
  553MOL0     C76190   4.502  10.512   4.103 -0.0308 -0.5758  0.0356
  553MOL0     C76191   4.600  10.416   4.175 -0.5339  0.0570  0.0805
  553MOL0     C76192   4.725  10.399   4.099  0.1757  0.5869  0.0855
  553MOL0     N76193   4.803  10.519   4.083 -0.5159 -0.2866  0.5457
  553MOL0     C76194   4.861  10.583   4.186  0.1432  0.4036 -0.3843
  553MOL0     C76195   4.924  10.694   4.127  0.0332 -0.1755 -0.9571
  553MOL0     C76196   4.977  10.815   4.213  0.5906  0.7355 -0.4371
  553MOL0     C76197   5.051  10.919   4.139  0.1131 -0.9315 -0.3873
  553MOL0     C76198   5.168  10.862   4.058  0.4600  0.5342 -0.1225
  553MOL0     C76199   5.282  10.945   4.013  0.2116  0.0065 -0.5923
  553MOL0     O76200   5.382  10.853   3.959  0.3044 -0.2909 -0.4437
  553MOL0     C76201   5.511  10.900   3.939  0.1700  1.1592 -0.2232
  553MOL0     C76202   5.616  10.843   4.006 -0.6457  0.2603 -0.7503
  553MOL0     C76203   5.743  10.893   3.985  0.4359  0.2326  0.4419
  553MOL0     C76204   5.849  10.804   4.050 -0.0961 -0.3844  0.0328
  553MOL0     C76205   5.773  11.005   3.899  1.0240  0.6976  0.2456
  553MOL0     C76206   5.916  11.043   3.879  0.7228 -0.1206  0.6745
  553MOL0     O76207   5.955  11.050   3.751  0.0523 -0.1801 -0.4212
  553MOL0     C76208   6.087  11.084   3.735  0.4277 -0.0451  1.0160
  553MOL0     C76209   6.181  11.003   3.781  0.1643 -0.1547 -1.0472
  553MOL0     C76210   6.319  11.025   3.759 -0.4474 -0.3629 -0.2784
  553MOL0     C76211   6.356  11.149   3.708 -0.1732  0.8424  0.2742
  553MOL0     O76212   6.475  11.184   3.646 -0.2260  0.1141 -0.1042
  553MOL0     C76213   6.594  11.169   3.727 -0.0478 -0.0713 -1.3055
  553MOL0     C76214   6.721  11.172   3.648 -0.0859  0.2404 -0.1402
  553MOL0     C76215   6.774  11.316   3.608 -0.5589  0.8644 -0.0140
  553MOL0     C76216   6.927  11.300   3.584 -0.9105 -0.0187  0.0485
  553MOL0     C76217   6.982  11.420   3.514 -0.8390  0.0650 -0.0795
  553MOL0     C76218   7.120  11.397   3.463 -0.0175 -0.0797 -1.1838
  553MOL0     C76219   7.220  11.405   3.582 -0.2590  0.2044  0.3273
  553MOL0     C76220   7.367  11.376   3.550 -0.3110  0.0378  0.4899
  553MOL0    Cl76221   7.390  11.204   3.507  0.0968  0.5888 -0.0368
  553MOL0     C76222   6.255  11.237   3.670 -1.0307  0.1372 -0.4619
  553MOL0     C76223   6.119  11.214   3.691 -0.2615  0.5865 -0.3461
  553MOL0     O76224   5.977  11.075   3.981 -0.0967 -0.0287 -1.4260
  553MOL0     C76225   5.657  11.075   3.846 -0.1994 -0.1768 -0.4791
  553MOL0     C76226   5.531  11.017   3.859 -0.1916 -0.1413  0.3969
  553MOL0     N76227   4.912  10.690   3.995  0.0990 -0.2456  1.4200
  553MOL0     N76228   4.838  10.582   3.960  0.3519 -0.0671 -0.4619
  553MOL0     C76229   3.988  10.841   3.817  0.1505 -0.1190 -0.7350
  553MOL0     C76230   3.958  10.813   3.690 -0.1356  0.7661 -0.2073
  553MOL0     C76231   3.738  10.838   3.294 -0.8447 -0.0164 -0.8075
  553MOL0     C76232   3.654  10.728   3.273 -0.2807 -0.6305  0.2661
  553MOL0     C76233   3.607  10.701   3.136 -0.0601 -0.0833  0.2472
  553MOL0     C76234   3.642  10.777   3.027 -0.8327 -0.3705 -0.5200
  553MOL0     O76235   3.600  10.759   2.905 -0.0717  0.9900  0.1504
  553MOL0     C76236   3.477  10.822   2.873 -0.4818  1.1808 -0.4593
  553MOL0     C76237   3.403  10.738   2.766  0.3045  1.1616  0.7113
  553MOL0     C76238   3.383  10.593   2.814 -0.0353  0.2791  0.0254
  553MOL0     C76239   3.280  10.569   2.926  0.0202 -0.4461 -0.2177
  553MOL0     C76240   3.148  10.607   2.879 -0.2755 -0.3016  0.0394
  553MOL0     C76241   3.040  10.649   2.843  0.2761  0.6761  0.4507
  553MOL0     C76242   3.736  10.881   3.050 -0.8646 -0.6800 -0.9219
  553MOL0     C76243   3.777  10.906   3.182 -0.0951  0.0255 -0.7896
  553MOL0     C76244   3.895  11.008   3.199 -0.1459 -0.5768  0.7321
  553MOL0     H76245   3.636  10.711   3.723  0.3239  0.7431 -2.3621
  553MOL0     H76246   3.690  10.759   3.959  1.3165 -0.6636  0.2209
  553MOL0     H76247   4.005  10.820   4.216  0.7296 -0.0623 -0.6185
  553MOL0     H76248   4.103  10.829   4.066  0.0082  3.0409  2.3160
  553MOL0     H76249   3.914  10.606   4.159 -0.7321 -0.8644 -2.2802
  553MOL0     H76250   4.020  10.597   4.013 -0.3316  0.0341  0.1146
  553MOL0     H76251   4.136  10.625   4.290 -0.2073 -0.3872 -0.6047
  553MOL0     H76252   4.114  10.468   4.193 -0.9970 -1.0529  0.5734
  553MOL0     H76253   4.260  10.551   4.014  3.7697  0.4434 -0.6023
  553MOL0     H76254   4.289  10.702   4.086 -1.3830 -0.3215 -1.0228
  553MOL0     H76255   4.351  10.462   4.254  0.4870 -1.7552 -2.4631
  553MOL0     H76256   4.402  10.631   4.273 -0.0242  0.5639  0.0044
  553MOL0     H76257   4.457  10.453   4.023 -3.4866  2.0597 -0.2322
  553MOL0     H76258   4.539  10.610   4.071  0.9054 -1.1408 -0.6344
  553MOL0     H76259   4.562  10.317   4.201 -0.0141 -0.1904 -0.0954
  553MOL0     H76260   4.624  10.478   4.262 -1.7140  0.8681 -0.1436
  553MOL0     H76261   4.785  10.339   4.168 -1.6355 -1.7755 -0.2766
  553MOL0     H76262   4.707  10.357   3.999  0.9235  1.3132 -0.3670
  553MOL0     H76263   4.865  10.564   4.293 -1.2658  1.0012 -0.2080
  553MOL0     H76264   5.046  10.779   4.290  0.3830  1.8347  0.2840
  553MOL0     H76265   4.892  10.858   4.267  0.4712  2.6411 -2.0447
  553MOL0     H76266   4.979  10.960   4.067 -2.1305  1.4004  2.8818
  553MOL0     H76267   5.074  11.009   4.196 -2.0880 -0.0772 -0.7558
  553MOL0     H76268   5.218  10.780   4.111  1.0928  0.3701 -0.9532
  553MOL0     H76269   5.133  10.811   3.968  0.2840 -2.8746  1.6882
  553MOL0     H76270   5.253  11.030   3.951  0.5316  0.9386  0.4995
  553MOL0     H76271   5.326  10.987   4.105  0.8592  0.0948 -0.9330
  553MOL0     H76272   5.603  10.754   4.068  1.1762  0.5893  0.1529
  553MOL0     H76273   5.900  10.757   3.965 -4.7459 -2.0669 -2.2080
  553MOL0     H76274   5.810  10.722   4.111  0.0805 -0.1254  0.5012
  553MOL0     H76275   5.911  10.867   4.114 -1.4763  0.7695  0.2691
  553MOL0     H76276   6.149  10.906   3.817  0.1668 -0.0598 -0.7863
  553MOL0     H76277   6.393  10.948   3.779  0.6303  0.6475 -0.3089
  553MOL0     H76278   6.602  11.244   3.805  1.9059 -0.4162 -1.1348
  553MOL0     H76279   6.575  11.078   3.784 -0.3082  0.7961  0.0301
  553MOL0     H76280   6.792  11.112   3.705  1.1117  1.3332 -0.4253
  553MOL0     H76281   6.714  11.114   3.555 -1.8198  2.1154 -1.2694
  553MOL0     H76282   6.744  11.396   3.677  1.5690  0.4050  1.5405
  553MOL0     H76283   6.731  11.342   3.511  1.5601  1.2694 -0.9075
  553MOL0     H76284   6.950  11.212   3.523  1.5233 -1.1404  2.3795
  553MOL0     H76285   6.987  11.288   3.675  1.5070  2.7814 -1.0064
  553MOL0     H76286   6.920  11.434   3.425 -1.5871  0.8743  0.5579
  553MOL0     H76287   6.971  11.504   3.583  3.1715 -1.0619  2.2662
  553MOL0     H76288   7.142  11.471   3.386  1.0805  1.6671  0.7257
  553MOL0     H76289   7.136  11.297   3.420  1.2581 -0.5223  0.2003
  553MOL0     H76290   7.192  11.332   3.659  1.5370 -0.3194  0.5335
  553MOL0     H76291   7.217  11.508   3.617  4.1129  0.0689  1.6653
  553MOL0     H76292   7.432  11.409   3.632  3.6111 -1.7103 -1.6398
  553MOL0     H76293   7.392  11.441   3.465  1.6841 -0.2184  0.8209
  553MOL0     H76294   6.280  11.333   3.625 -4.6990  0.7250 -1.6190
  553MOL0     H76295   6.046  11.286   3.656  0.3637  2.0629  1.2727
  553MOL0     H76296   5.675  11.170   3.797  1.0570  1.8679  3.5402
  553MOL0     H76297   5.441  11.060   3.817  0.9972  0.9061 -1.2009
  553MOL0     H76298   4.086  10.882   3.841 -0.3838  1.0145 -0.4317
  553MOL0     H76299   4.034  10.840   3.617  0.6412 -0.1841  0.2291
  553MOL0     H76300   3.621  10.664   3.355  0.3212  0.3580  1.3061
  553MOL0     H76301   3.535  10.620   3.144  3.0268 -3.0298  0.1600
  553MOL0     H76302   3.410  10.834   2.959  0.7795  0.0383  0.7457
  553MOL0     H76303   3.501  10.919   2.829 -0.2384  0.6684 -1.4715
  553MOL0     H76304   3.464  10.742   2.676 -0.9215 -1.7220 -0.3471
  553MOL0     H76305   3.311  10.784   2.728  0.6484  1.1862 -0.1237
  553MOL0     H76306   3.363  10.525   2.730 -1.4849  1.9067 -1.0446
  553MOL0     H76307   3.479  10.553   2.845  0.6025  0.3204 -1.7764
  553MOL0     H76308   3.305  10.631   3.013 -0.8536  0.4788 -0.5997
  553MOL0     H76309   3.282  10.462   2.950  2.8777 -0.4145  0.0535
  553MOL0     H76310   2.947  10.695   2.816  0.7600  1.2642 -0.2419
  553MOL0     H76311   3.781  10.927   2.964  0.3180 -4.4979 -2.5809
  553MOL0     H76312   3.986  10.959   3.235  2.3709  2.1746 -1.4608
  553MOL0     H76313   3.912  11.065   3.108 -0.0981  0.4624  1.3749
  553MOL0     H76314   3.865  11.082   3.274 -1.0738  0.2868 -0.4475
  554MOL0     O76315   0.712  11.370  11.431 -0.4934  1.0454  0.6342
  554MOL0     C76316   0.687  11.489  11.457 -0.7776  0.3869  0.3427
  554MOL0     O76317   0.567  11.537  11.495 -0.3164 -0.6709 -0.2101
  554MOL0     C76318   0.463  11.454  11.486 -0.3542  0.3678 -0.5056
  554MOL0     C76319   0.420  11.383  11.601 -1.0161  0.9377  0.3289
  554MOL0     C76320   0.295  11.318  11.614 -0.3860  0.2692 -0.0565
  554MOL0     C76321   0.210  11.320  11.500  0.5968 -0.6882 -0.2199
  554MOL0     O76322   0.083  11.264  11.505 -0.1173  0.8099  0.3464
  554MOL0     C76323   0.059  11.151  11.599 -0.1908  1.4622  0.3839
  554MOL0     C76324  -0.008  11.035  11.512  0.0381 -0.5989 -1.0756
  554MOL0     C76325  -0.081  10.927  11.593 -0.2734 -0.6297  0.8583
  554MOL0     C76326   0.006  10.839  11.682  0.8169 -0.9030 -0.0673
  554MOL0     C76327   0.132  10.775  11.619 -0.3536 -0.3904 -0.7320
  554MOL0     C76328   0.113  10.641  11.553 -0.3081 -0.4774  0.3519
  554MOL0     C76329   0.240  10.587  11.499 -0.1177  0.3035  0.7952
  554MOL0     C76330   0.288  10.670  11.378  0.3404 -1.3468 -0.1095
  554MOL0     N76331   0.406  10.604  11.316 -0.2047  0.5982  0.5326
  554MOL0     C76332   0.423  10.468  11.290 -0.4805  0.4793  0.3487
  554MOL0     C76333   0.554  10.454  11.256 -0.2612  0.1522  0.4603
  554MOL0     C76334   0.611  10.323  11.217 -1.3578 -1.3335 -0.4302
  554MOL0     C76335   0.517  10.267  11.107  0.4383  0.5768  0.3011
  554MOL0     C76336   0.576  10.166  11.017 -0.4052  0.9181  0.0268
  554MOL0     C76337   0.473  10.110  10.918 -0.0676  0.3528 -0.3929
  554MOL0     O76338   0.372  10.028  10.974  0.8866 -0.3769 -0.1307
  554MOL0     C76339   0.348   9.916  10.903 -0.1317  0.0103 -0.6348
  554MOL0     C76340   0.330   9.806  10.980 -0.5610 -0.8159 -0.5911
  554MOL0     C76341   0.310   9.682  10.919  0.5464 -0.6520 -0.1446
  554MOL0     C76342   0.318   9.572  11.030  1.3090  0.2672 -0.2877
  554MOL0     C76343   0.300   9.664  10.783  0.3472  0.3173  0.0593
  554MOL0     C76344   0.292   9.529  10.731  0.1268 -0.0416 -0.3433
  554MOL0     O76345   0.372   9.507  10.624 -0.5901 -0.4192  0.7147
  554MOL0     C76346   0.383   9.382  10.571  0.6772  0.8961 -0.2733
  554MOL0     C76347   0.352   9.351  10.436  0.1044 -0.2794 -0.0380
  554MOL0     C76348   0.361   9.216  10.390 -0.4770  0.9737  1.0904
  554MOL0     C76349   0.407   9.108  10.469 -0.1062  0.0731 -0.0107
  554MOL0     O76350   0.408   8.974  10.434 -0.4681 -0.7993 -0.2229
  554MOL0     C76351   0.350   8.937  10.305 -0.3979 -0.8080  0.2595
  554MOL0     C76352   0.383   8.785  10.276  0.5859 -0.3565  0.2833
  554MOL0     C76353   0.327   8.680  10.386 -0.7970 -0.0744 -1.3372
  554MOL0     C76354   0.174   8.696  10.427 -0.3919  0.4522  0.1380
  554MOL0     C76355   0.103   8.576  10.503  0.0864  0.1516  0.6444
  554MOL0     C76356   0.120   8.433  10.441 -0.6386  0.4984 -0.0670
  554MOL0     C76357   0.076   8.430  10.297  0.5970 -0.1799  0.1715
  554MOL0     C76358   0.045   8.286  10.248 -0.0410  0.7028  0.5771
  554MOL0    Cl76359   0.188   8.186  10.256 -0.0613 -0.4322  0.0476
  554MOL0     C76360   0.442   9.136  10.602  0.6050 -0.4784 -0.5626
  554MOL0     C76361   0.424   9.266  10.653 -0.6952  0.1877  0.2683
  554MOL0     O76362   0.216   9.450  10.792  0.0578 -0.1317  0.8777
  554MOL0     C76363   0.305   9.778  10.705 -0.1269 -0.1338  0.3059
  554MOL0     C76364   0.325   9.904  10.769  0.8907  0.1378 -0.0273
  554MOL0     N76365   0.606  10.577  11.247  0.0187 -0.3865  0.1548
  554MOL0     N76366   0.517  10.668  11.286 -0.6158 -0.5952  0.8800
  554MOL0     C76367   0.249  11.382  11.377 -0.1496  1.3018 -0.8051
  554MOL0     C76368   0.369  11.458  11.377  0.6985 -0.5096 -1.0143
  554MOL0     C76369   0.788  11.605  11.449 -0.5611  0.1900 -1.1291
  554MOL0     C76370   0.750  11.743  11.463  0.0898  0.9148  0.7162
  554MOL0     C76371   0.844  11.844  11.444 -0.1594 -0.2274 -0.4145
  554MOL0     C76372   0.973  11.823  11.415 -0.6693 -0.5311  0.2751
  554MOL0     O76373   1.042  11.941  11.412 -0.6750  0.6717  0.3505
  554MOL0     C76374   1.186  11.945  11.394 -0.0738  0.0667 -0.0412
  554MOL0     C76375   1.214  11.954  11.246 -0.5568 -0.5581  0.0422
  554MOL0     C76376   1.366  11.974  11.216 -0.6841 -0.9901 -0.1982
  554MOL0     C76377   1.391  12.052  11.079 -0.0783  0.4459  0.9516
  554MOL0     C76378   1.534  12.079  11.059  0.0424 -0.3391 -0.0171
  554MOL0     C76379   1.655  12.099  11.041 -0.5469 -0.0072 -0.4566
  554MOL0     C76380   1.021  11.695  11.405 -0.2333 -0.8590 -0.2876
  554MOL0     C76381   0.927  11.581  11.417 -0.7135 -0.1792 -1.1512
  554MOL0     C76382   0.985  11.439  11.410 -0.1550  0.1108  0.3953
  554MOL0     H76383   0.502  11.395  11.672  0.5557 -0.9484 -1.0515
  554MOL0     H76384   0.268  11.260  11.702  0.0228 -2.1829 -1.4809
  554MOL0     H76385  -0.002  11.195  11.678  0.0634  0.6279  1.0646
  554MOL0     H76386   0.149  11.101  11.636 -1.0477 -2.0713 -1.7827
  554MOL0     H76387  -0.082  11.076  11.443 -0.8849 -0.6584 -0.1473
  554MOL0     H76388   0.057  10.976  11.447  2.3592 -0.3992  0.9591
  554MOL0     H76389  -0.149  10.966  11.668  2.3961  0.9899  2.6192
  554MOL0     H76390  -0.140  10.855  11.535 -0.2382 -0.6856  0.8909
  554MOL0     H76391   0.046  10.904  11.761  3.9029  0.0856 -2.2516
  554MOL0     H76392  -0.056  10.764  11.730 -0.3568  0.9169  1.3925
  554MOL0     H76393   0.203  10.761  11.701 -2.1395 -3.1903  0.5023
  554MOL0     H76394   0.183  10.843  11.551  0.2095  1.2931  1.2812
  554MOL0     H76395   0.066  10.567  11.617 -2.1925  0.9017  0.6670
  554MOL0     H76396   0.029  10.653  11.483 -1.2373 -3.0477  0.9432
  554MOL0     H76397   0.215  10.490  11.455  0.4645  0.7389 -0.5484
  554MOL0     H76398   0.317  10.559  11.571  0.5522 -0.9953 -0.3864
  554MOL0     H76399   0.207  10.684  11.306  0.8605 -3.1761 -1.0945
  554MOL0     H76400   0.321  10.769  11.412 -0.9548 -1.0607  0.3626
  554MOL0     H76401   0.346  10.392  11.296  1.5540 -1.8446 -1.1004
  554MOL0     H76402   0.614  10.259  11.305 -0.9026  0.0061  0.5495
  554MOL0     H76403   0.712  10.338  11.177 -0.6753 -2.8523  0.6128
  554MOL0     H76404   0.427  10.227  11.155 -0.1030 -1.5506 -2.2289
  554MOL0     H76405   0.479  10.356  11.056  1.1161  1.7302  1.7330
  554MOL0     H76406   0.650  10.225  10.963 -1.1298  0.4012 -1.5804
  554MOL0     H76407   0.624  10.086  11.074  1.0072  1.5470 -0.2310
  554MOL0     H76408   0.424  10.192  10.864 -0.0217  1.8893  1.7606
  554MOL0     H76409   0.535  10.055  10.846  0.2303  2.7386 -2.0718
  554MOL0     H76410   0.328   9.834  11.085  1.0229 -0.4697 -0.6240
  554MOL0     H76411   0.218   9.545  11.063  1.3602  0.0014 -0.3506
  554MOL0     H76412   0.364   9.610  11.122  1.0919  0.3240 -0.2019
  554MOL0     H76413   0.374   9.481  11.006  0.3454 -1.3435  3.0105
  554MOL0     H76414   0.322   9.435  10.374  0.3292  2.0788  2.7844
  554MOL0     H76415   0.329   9.196  10.288  0.2149  1.7056  0.7251
  554MOL0     H76416   0.244   8.963  10.307 -0.2201 -0.0104 -0.2081
  554MOL0     H76417   0.395   8.986  10.218 -0.7784  0.6229  0.8336
  554MOL0     H76418   0.334   8.764  10.180  1.1089 -1.0241  0.1558
  554MOL0     H76419   0.492   8.776  10.275  0.5393 -1.1906  1.2566
  554MOL0     H76420   0.384   8.687  10.480 -1.1602  1.8846 -1.2214
  554MOL0     H76421   0.343   8.575  10.360 -5.3947 -2.8218  4.4411
  554MOL0     H76422   0.111   8.704  10.338  0.7616  1.3017 -0.6313
  554MOL0     H76423   0.156   8.787  10.485 -2.3747 -0.2244  0.6577
  554MOL0     H76424   0.127   8.578  10.609 -2.7557 -1.2080  1.4029
  554MOL0     H76425  -0.005   8.592  10.492  0.3947  1.0248 -1.6682
  554MOL0     H76426   0.064   8.369  10.510 -0.3845 -0.0126 -0.3296
  554MOL0     H76427   0.222   8.393  10.448 -1.7642 -2.5906  0.0949
  554MOL0     H76428   0.148   8.474  10.228  0.8672 -2.6384 -1.2429
  554MOL0     H76429  -0.007   8.500  10.285  0.3685  0.1302  2.7780
  554MOL0     H76430   0.008   8.279  10.145  1.3543  1.5315 -0.0185
  554MOL0     H76431  -0.033   8.239  10.309  0.0876 -4.4647 -2.6824
  554MOL0     H76432   0.472   9.050  10.662  3.0230 -0.7096 -1.9517
  554MOL0     H76433   0.435   9.287  10.759  0.5485 -1.5893  0.5314
  554MOL0     H76434   0.293   9.774  10.597  2.0853 -4.8643 -0.0116
  554MOL0     H76435   0.337   9.991  10.705 -2.8309 -1.1043 -2.7985
  554MOL0     H76436   0.190  11.375  11.286 -0.9498 -0.3275 -0.2107
  554MOL0     H76437   0.396  11.533  11.304  0.7754 -0.6006 -1.0804
  554MOL0     H76438   0.646  11.762  11.489 -0.4701 -2.0610  1.0611
  554MOL0     H76439   0.825  11.949  11.465  2.8545  0.3088 -0.0185
  554MOL0     H76440   1.214  12.030  11.456 -0.2561  0.0842  0.0199
  554MOL0     H76441   1.234  11.857  11.439 -1.4583 -1.9345 -2.2486
  554MOL0     H76442   1.150  12.039  11.221 -1.6167  0.3219  4.6674
  554MOL0     H76443   1.173  11.867  11.194  1.4253 -1.0502 -0.7639
  554MOL0     H76444   1.391  12.029  11.308 -4.6555 -1.4270  1.3326
  554MOL0     H76445   1.416  11.877  11.219 -1.0101 -1.1368  1.1174
  554MOL0     H76446   1.325  12.140  11.074 -1.1542 -0.2382  2.4539
  554MOL0     H76447   1.351  11.982  11.005  0.1642  0.6778  0.5975
  554MOL0     H76448   1.760  12.120  11.031  0.2453 -1.8066  2.5648
  554MOL0     H76449   1.121  11.659  11.381 -0.8448 -2.0024 -1.2147
  554MOL0     H76450   1.093  11.453  11.397  0.0837 -0.0859  1.9803
  554MOL0     H76451   0.974  11.394  11.509  3.0208 -0.1791  0.7496
  554MOL0     H76452   0.948  11.370  11.333 -1.1316  1.6745 -0.5789
  555MOL0     O76453   9.842   7.652   4.795 -0.3667  0.0589  0.4932
  555MOL0     C76454   9.849   7.584   4.894 -0.1024  0.1355  0.6184
  555MOL0     O76455   9.954   7.558   4.971 -0.1978 -0.3080 -0.6201
  555MOL0     C76456  10.077   7.628   4.950 -0.4550 -0.0797 -0.3204
  555MOL0     C76457  10.144   7.622   4.828  0.8305  0.8613  0.3404
  555MOL0     C76458  10.258   7.702   4.812  0.4750  0.0789 -1.3084
  555MOL0     C76459  10.320   7.769   4.914 -0.9555  0.2124 -0.2603
  555MOL0     O76460  10.438   7.842   4.883  0.3329 -0.8953 -0.5982
  555MOL0     C76461  10.509   7.903   4.991 -1.2025 -0.5564  1.0217
  555MOL0     C76462  10.610   7.994   4.918  0.0594  0.3834  0.4791
  555MOL0     C76463  10.745   7.929   4.857 -0.4914 -0.2055 -0.7919
  555MOL0     C76464  10.726   7.866   4.718 -0.6944  0.3272  0.5541
  555MOL0     C76465  10.849   7.775   4.684 -1.2014  1.1773 -0.0370
  555MOL0     C76466  10.831   7.633   4.740 -0.2652  0.7439 -0.8901
  555MOL0     C76467  10.933   7.529   4.671  0.4032  0.6972  0.0021
  555MOL0     C76468  11.080   7.559   4.684 -0.1024 -0.6545 -0.4600
  555MOL0     N76469  11.157   7.449   4.740 -0.2901 -1.2609 -0.4947
  555MOL0     C76470  11.225   7.458   4.863  0.4322  0.8588 -0.4707
  555MOL0     C76471  11.258   7.328   4.895  0.6432  0.9074 -0.2706
  555MOL0     C76472  11.349   7.280   5.008 -0.1623 -1.0259 -0.5840
  555MOL0     C76473  11.285   7.225   5.130  0.7139  0.5611 -0.3448
  555MOL0     C76474  11.246   7.071   5.115  0.9674 -0.1780 -0.4691
  555MOL0     C76475  11.121   7.036   5.030  0.4838  0.0709  0.3125
  555MOL0     O76476  11.008   7.067   5.117  0.2250  0.2284 -0.6836
  555MOL0     C76477  10.882   7.096   5.066 -0.1405 -0.1820  0.1842
  555MOL0     C76478  10.858   7.161   4.950  1.2515 -0.9288 -0.2738
  555MOL0     C76479  10.727   7.182   4.910 -0.7650  0.1969 -0.6263
  555MOL0     C76480  10.715   7.242   4.772  0.8842 -0.1065  0.0011
  555MOL0     C76481  10.623   7.135   4.986 -0.3635  0.1121 -0.5792
  555MOL0     C76482  10.476   7.132   4.951 -0.1062 -0.2129 -0.4477
  555MOL0     O76483  10.408   7.021   4.978 -0.0480 -0.0435 -0.2090
  555MOL0     C76484  10.273   7.021   4.954  0.3798 -0.4189 -0.0004
  555MOL0     C76485  10.177   7.061   5.049 -0.2994  0.0802 -0.0486
  555MOL0     C76486  10.050   7.078   5.004 -0.5712 -0.1454  0.5086
  555MOL0     C76487  10.015   7.082   4.863  0.3780  0.1429 -1.0549
  555MOL0     O76488   9.887   7.126   4.831 -0.0403 -0.2739 -0.5654
  555MOL0     C76489   9.852   7.151   4.689  0.2913  0.0146 -0.4216
  555MOL0     C76490   9.787   7.024   4.627  0.1838 -0.5453 -0.0805
  555MOL0     C76491   9.642   6.996   4.673 -0.1399 -0.8660 -0.0732
  555MOL0     C76492   9.553   7.097   4.598  0.5268 -0.0931 -0.3463
  555MOL0     C76493   9.407   7.049   4.612 -0.5449 -0.6376  0.2075
  555MOL0     C76494   9.329   7.114   4.725 -0.0505 -1.1156 -0.2440
  555MOL0     C76495   9.188   7.059   4.750  0.0964  0.5366  0.2035
  555MOL0     C76496   9.096   7.108   4.643  0.3006  0.2166 -0.0147
  555MOL0    Cl76497   8.938   7.017   4.664  0.0795  0.2355  0.4147
  555MOL0     C76498  10.118   7.027   4.776  0.0792  0.0722  0.2042
  555MOL0     C76499  10.246   6.997   4.824  0.3424  0.6083  0.0356
  555MOL0     O76500  10.428   7.227   4.887  0.0583 -0.7279 -0.1923
  555MOL0     C76501  10.648   7.067   5.107 -0.4046  0.6343 -0.0502
  555MOL0     C76502  10.776   7.050   5.151  0.1351 -0.6089 -0.2135
  555MOL0     N76503  11.224   7.254   4.781  0.3217  0.3919 -0.4925
  555MOL0     N76504  11.153   7.320   4.707  0.2519  0.7016  0.4878
  555MOL0     C76505  10.256   7.773   5.036 -0.4090 -0.2431 -0.1016
  555MOL0     C76506  10.137   7.709   5.051  0.2941 -0.0769 -0.3775
  555MOL0     C76507   9.717   7.514   4.923  0.1048  0.9259 -0.0997
  555MOL0     C76508   9.722   7.382   4.966  0.3179  0.3069  0.8166
  555MOL0     C76509   9.594   7.313   4.983 -0.0133 -0.5507 -0.8671
  555MOL0     C76510   9.475   7.378   4.967  1.0605  0.5916 -0.2097
  555MOL0     O76511   9.361   7.302   4.988  0.1279  0.3592  0.2139
  555MOL0     C76512   9.266   7.363   5.077  1.0357 -0.2510  0.1740
  555MOL0     C76513   9.124   7.342   5.036  0.7353  0.4989 -0.2644
  555MOL0     C76514   9.085   7.406   4.898  0.7491  0.4595  0.0106
  555MOL0     C76515   9.029   7.547   4.922 -0.1444 -0.2678  0.6973
  555MOL0     C76516   8.928   7.581   4.819 -0.3304  0.0587  1.0798
  555MOL0     C76517   8.849   7.609   4.733 -1.1929  0.0427  0.2566
  555MOL0     C76518   9.478   7.517   4.940  0.4121  0.6773  0.3643
  555MOL0     C76519   9.593   7.580   4.911  0.4710 -0.4374 -0.0873
  555MOL0     C76520   9.571   7.734   4.873  0.0384 -0.0281 -0.5723
  555MOL0     H76521  10.105   7.572   4.740 -0.8842 -0.9834  2.0450
  555MOL0     H76522  10.311   7.713   4.717 -0.7812 -3.4291 -2.5431
  555MOL0     H76523  10.547   7.836   5.068  0.8326 -2.3934 -1.3944
  555MOL0     H76524  10.441   7.981   5.025 -0.1429  2.1225 -2.3511
  555MOL0     H76525  10.559   8.054   4.843  2.7158  1.2173 -0.8047
  555MOL0     H76526  10.637   8.066   4.996 -0.1727  2.5179 -1.3039
  555MOL0     H76527  10.815   8.011   4.839  1.5876 -1.6834  0.1045
  555MOL0     H76528  10.793   7.872   4.937 -0.3979  2.7290  1.4024
  555MOL0     H76529  10.631   7.814   4.706 -0.6303  0.4291 -0.5453
  555MOL0     H76530  10.729   7.950   4.648 -0.6509 -0.5321 -0.4967
  555MOL0     H76531  10.947   7.817   4.706 -1.2440  0.8502  0.8274
  555MOL0     H76532  10.838   7.770   4.575  0.6784 -0.1894 -0.2115
  555MOL0     H76533  10.849   7.630   4.848 -1.1852 -1.8037 -0.7343
  555MOL0     H76534  10.725   7.607   4.729 -1.0035  2.2133  1.7563
  555MOL0     H76535  10.909   7.516   4.565  1.1949 -1.4836  0.0203
  555MOL0     H76536  10.917   7.430   4.715 -0.3030  1.1047  0.6623
  555MOL0     H76537  11.125   7.580   4.587  0.9414 -1.1556 -0.0979
  555MOL0     H76538  11.089   7.646   4.750  1.3880 -2.1463  1.4045
  555MOL0     H76539  11.256   7.544   4.922 -0.3650  0.3041  0.8137
  555MOL0     H76540  11.401   7.374   5.031 -1.2339 -0.2391 -1.2764
  555MOL0     H76541  11.418   7.204   4.969  3.1715  0.9464  0.9721
  555MOL0     H76542  11.357   7.234   5.212  1.8375 -1.1490 -1.0912
  555MOL0     H76543  11.191   7.276   5.153  0.7133  1.5656 -2.3308
  555MOL0     H76544  11.334   7.020   5.075  1.0778 -1.0380  0.8117
  555MOL0     H76545  11.219   7.029   5.212 -2.1809 -0.3326 -1.2884
  555MOL0     H76546  11.132   7.103   4.945 -0.9441  0.5347  0.4601
  555MOL0     H76547  11.103   6.936   4.989 -4.1784  0.2547  1.2962
  555MOL0     H76548  10.935   7.209   4.890 -1.6471  2.4848 -1.6393
  555MOL0     H76549  10.624   7.204   4.726  2.1127  0.0338 -2.7419
  555MOL0     H76550  10.797   7.205   4.710  0.6544  0.6874 -0.7964
  555MOL0     H76551  10.723   7.351   4.766  0.1703 -0.0369  0.2532
  555MOL0     H76552  10.205   7.091   5.150 -0.8267 -3.7516  1.4175
  555MOL0     H76553   9.973   7.098   5.078 -1.1848 -0.9952  0.1216
  555MOL0     H76554   9.773   7.226   4.683  1.5215  1.3876 -0.1714
  555MOL0     H76555   9.937   7.191   4.633  0.6445 -1.0668 -0.6907
  555MOL0     H76556   9.797   7.022   4.518  0.6092 -1.6785 -0.0376
  555MOL0     H76557   9.847   6.944   4.671  1.5026  0.6694  0.4003
  555MOL0     H76558   9.629   7.012   4.780  2.4123  3.1965 -0.1617
  555MOL0     H76559   9.614   6.895   4.644 -1.2117 -0.2654 -1.2754
  555MOL0     H76560   9.585   7.098   4.493 -1.6909  1.0231 -1.0810
  555MOL0     H76561   9.558   7.199   4.638  1.1592  1.4286 -3.9085
  555MOL0     H76562   9.355   7.081   4.522  2.4736  0.0360 -1.4530
  555MOL0     H76563   9.398   6.942   4.635  1.9821 -0.8283  0.6751
  555MOL0     H76564   9.314   7.220   4.703 -2.0100 -1.3436 -0.1906
  555MOL0     H76565   9.381   7.102   4.821  0.3606  2.2981  0.0935
  555MOL0     H76566   9.145   7.088   4.846  0.1146  0.5507  0.2074
  555MOL0     H76567   9.193   6.950   4.759 -0.3153  0.5248  0.2986
  555MOL0     H76568   9.137   7.077   4.546  1.0996 -1.2536  0.7511
  555MOL0     H76569   9.083   7.216   4.642  0.1477  0.2016 -1.3722
  555MOL0     H76570  10.099   7.023   4.669  1.3225  1.8978 -0.1393
  555MOL0     H76571  10.319   6.967   4.750 -1.3709 -0.0962 -1.4330
  555MOL0     H76572  10.575   7.035   5.180  0.6491 -0.1496  0.6901
  555MOL0     H76573  10.803   6.988   5.236  0.5624  0.3804  0.3843
  555MOL0     H76574  10.294   7.839   5.114  0.8402  3.2514 -3.3453
  555MOL0     H76575  10.084   7.728   5.144  4.9110  1.8612  2.2101
  555MOL0     H76576   9.816   7.328   4.970  2.1972  3.3527  1.1408
  555MOL0     H76577   9.595   7.205   4.992 -1.4886 -0.4815  1.0686
  555MOL0     H76578   9.272   7.321   5.178 -0.4476  1.3162  0.9690
  555MOL0     H76579   9.277   7.471   5.091 -1.9834 -0.1859  3.4185
  555MOL0     H76580   9.064   7.376   5.122  0.9934  1.6003 -0.5077
  555MOL0     H76581   9.119   7.233   5.026  2.5117  0.2074  1.4302
  555MOL0     H76582   9.166   7.392   4.825  2.4305  0.3716  1.7836
  555MOL0     H76583   9.003   7.342   4.864  1.2402  0.3168 -0.9387
  555MOL0     H76584   9.104   7.626   4.928 -1.7456  1.3424  0.2588
  555MOL0     H76585   8.970   7.560   5.013 -1.5066 -0.6440 -0.0995
  555MOL0     H76586   8.772   7.629   4.662 -1.6535  0.6743  0.9251
  555MOL0     H76587   9.384   7.563   4.913  1.3551  0.2251 -4.4617
  555MOL0     H76588   9.611   7.750   4.773 -2.5975 -0.9047 -1.8388
  555MOL0     H76589   9.464   7.756   4.874  0.4824  2.3948 -0.3794
  555MOL0     H76590   9.622   7.800   4.944 -0.4404 -0.7051  0.4307
  556MOL0     O76591  11.079  10.083   6.067 -0.5216  0.1394  0.3055
  556MOL0     C76592  11.028  10.046   6.171 -0.9629  1.0714  0.1296
  556MOL0     O76593  11.103  10.005   6.286 -0.4160 -1.1788  0.4707
  556MOL0     C76594  11.238  10.000   6.271  0.1689  0.1968 -0.5123
  556MOL0     C76595  11.318  10.113   6.251 -0.3940  1.0795 -0.1456
  556MOL0     C76596  11.456  10.107   6.240 -0.1230  0.3989  1.0086
  556MOL0     C76597  11.524   9.986   6.255 -0.1900  0.8031  1.0946
  556MOL0     O76598  11.661   9.970   6.251 -0.3725 -0.4365 -0.7056
  556MOL0     C76599  11.750  10.065   6.186 -0.5232 -0.5022 -0.2023
  556MOL0     C76600  11.892  10.019   6.204  0.3262  0.1820  0.8937
  556MOL0     C76601  11.925   9.966   6.344  0.8146 -0.3633 -0.5502
  556MOL0     C76602  12.059   9.897   6.365 -0.0626  0.0628 -0.4682
  556MOL0     C76603  12.162   9.996   6.325 -0.2016 -0.5390  0.1370
  556MOL0     C76604  12.307   9.948   6.343  0.5314 -0.8491  0.0186
  556MOL0     C76605  12.401  10.062   6.322 -0.1146 -0.2027 -0.0223
  556MOL0     C76606  12.538  10.002   6.296 -0.2047 -0.0352  0.4276
  556MOL0     N76607  12.608  10.111   6.227  0.1425  0.5217  0.0468
  556MOL0     C76608  12.593  10.153   6.096  0.8083 -0.2196 -0.6607
  556MOL0     C76609  12.702  10.226   6.066 -0.1112 -0.4256 -0.8048
  556MOL0     C76610  12.726  10.294   5.932 -0.0553  0.2247 -0.1512
  556MOL0     C76611  12.828  10.219   5.841  0.7161  0.0458 -0.0230
  556MOL0     C76612  12.972  10.243   5.861  0.8691 -0.4851 -0.6652
  556MOL0     C76613  13.051  10.145   5.781  1.2989  1.0167 -0.4415
  556MOL0     O76614  13.005  10.145   5.643 -0.2548 -0.7132 -0.0617
  556MOL0     C76615  13.073  10.212   5.547  0.4405  0.6043 -0.1389
  556MOL0     C76616  13.205  10.266   5.564  0.3750  0.0437 -0.4213
  556MOL0     C76617  13.267  10.330   5.456 -0.5203 -1.4044  0.2472
  556MOL0     C76618  13.416  10.365   5.455  0.4519  0.3158 -0.1274
  556MOL0     C76619  13.199  10.364   5.338 -0.1708  0.1313 -0.3162
  556MOL0     C76620  13.251  10.434   5.215  0.0363  1.3031 -0.3285
  556MOL0     O76621  13.368  10.394   5.164 -0.5605 -0.2353  0.4415
  556MOL0     C76622  13.421  10.427   5.045  0.1045 -0.3508 -0.0520
  556MOL0     C76623  13.373  10.525   4.953  0.4582  0.1239 -0.4507
  556MOL0     C76624  13.432  10.544   4.828  0.0234  0.5444 -0.1986
  556MOL0     C76625  13.556  10.483   4.805  0.2635 -0.6328 -0.2378
  556MOL0     O76626  13.619  10.515   4.686  0.0181 -0.4165  0.3175
  556MOL0     C76627  13.755  10.491   4.665 -0.8323  0.2324 -0.8206
  556MOL0     C76628  13.800  10.507   4.522 -0.6733  0.6637  0.5434
  556MOL0     C76629  13.788  10.643   4.464 -0.1354  0.1720 -0.2901
  556MOL0     C76630  13.787  10.661   4.308  0.0490  0.3587  0.7635
  556MOL0     C76631  13.922  10.615   4.251 -0.0361 -0.0435  0.0254
  556MOL0     C76632  13.927  10.619   4.102  0.2640  0.4151  0.0403
  556MOL0     C76633  13.841  10.515   4.023  0.9202  0.8418 -0.5458
  556MOL0     C76634  13.880  10.529   3.878  1.4301 -0.2045  0.6603
  556MOL0    Cl76635  13.865  10.699   3.821  0.1041 -0.0833 -0.0640
  556MOL0     C76636  13.618  10.413   4.905 -0.6818 -1.0260  0.2688
  556MOL0     C76637  13.547  10.383   5.019  0.6323 -0.0562 -0.9976
  556MOL0     O76638  13.176  10.522   5.176  0.3771 -0.7747 -0.1724
  556MOL0     C76639  13.062  10.330   5.337  1.4690  0.9000 -0.1160
  556MOL0     C76640  13.000  10.251   5.438  0.4387 -0.0498 -0.2270
  556MOL0     N76641  12.787  10.235   6.174  0.2685  0.1634 -0.5343
  556MOL0     N76642  12.728  10.167   6.269 -0.3768  0.4955 -0.5458
  556MOL0     C76643  11.445   9.877   6.289 -0.1682  0.1493 -0.0660
  556MOL0     C76644  11.304   9.884   6.297 -0.0677 -0.2082 -0.3091
  556MOL0     C76645  10.882  10.027   6.187  0.4469 -0.5183 -0.7870
  556MOL0     C76646  10.828   9.961   6.303 -0.1042 -0.2634  0.3985
  556MOL0     C76647  10.691   9.937   6.319 -0.4101  0.0214  0.1312
  556MOL0     C76648  10.603   9.973   6.220 -0.0781 -0.9671 -0.2160
  556MOL0     O76649  10.473   9.953   6.243  0.4660 -0.0581 -0.6226
  556MOL0     C76650  10.365   9.945   6.145 -0.3314  0.5754 -0.9667
  556MOL0     C76651  10.299  10.089   6.128 -0.3612  0.1947 -0.5907
  556MOL0     C76652  10.192  10.091   6.019  0.4691  0.4467 -0.1116
  556MOL0     C76653  10.225  10.038   5.888 -0.4036  0.3546  0.3297
  556MOL0     C76654  10.354  10.103   5.837  0.0345  0.0302  0.9027
  556MOL0     C76655  10.464  10.132   5.782  0.8959  0.0039  0.6891
  556MOL0     C76656  10.655  10.031   6.105  0.9507  0.5373 -0.2017
  556MOL0     C76657  10.787  10.063   6.084 -0.1967  1.0241  0.2374
  556MOL0     C76658  10.814  10.138   5.957 -0.2559  0.5955  0.0171
  556MOL0     H76659  11.270  10.210   6.256 -1.4905  0.5320  0.3169
  556MOL0     H76660  11.515  10.195   6.218 -0.6582  0.2140 -1.5179
  556MOL0     H76661  11.751  10.162   6.238  0.2459 -0.6245  0.0212
  556MOL0     H76662  11.726  10.079   6.080  1.2335  2.3973 -0.3331
  556MOL0     H76663  11.906   9.934   6.137  1.4508 -0.1796  1.5647
  556MOL0     H76664  11.959  10.100   6.176  2.7064 -0.2925  4.6068
  556MOL0     H76665  11.921  10.043   6.422  1.9497 -1.3115  0.4849
  556MOL0     H76666  11.853   9.892   6.379 -1.9908  3.4814  2.8697
  556MOL0     H76667  12.084   9.867   6.467 -1.1749 -0.9596 -0.4666
  556MOL0     H76668  12.060   9.809   6.300  1.0648 -0.6096  0.4321
  556MOL0     H76669  12.144  10.089   6.379  1.9932  0.2223 -0.3513
  556MOL0     H76670  12.158  10.015   6.217  3.1042 -1.6343 -0.2932
  556MOL0     H76671  12.310   9.906   6.444  2.8193 -1.6844 -0.3273
  556MOL0     H76672  12.330   9.864   6.276  0.0598 -0.0794 -1.1321
  556MOL0     H76673  12.400  10.134   6.404  3.0360 -2.1378  1.9461
  556MOL0     H76674  12.369  10.109   6.229 -2.5476 -0.6154  0.5493
  556MOL0     H76675  12.587   9.966   6.387 -1.0913 -0.4888  0.7418
  556MOL0     H76676  12.527   9.915   6.229  0.8181  0.8216 -0.9029
  556MOL0     H76677  12.523  10.109   6.026  0.7123  1.4721 -1.6694
  556MOL0     H76678  12.759  10.397   5.947 -1.1055  0.2254  2.6677
  556MOL0     H76679  12.627  10.309   5.888  1.0293  0.3816 -2.7121
  556MOL0     H76680  12.802  10.113   5.850  1.2779  0.0731  2.7959
  556MOL0     H76681  12.815  10.252   5.737  1.8438  1.4471  0.2470
  556MOL0     H76682  12.990  10.342   5.817 -3.6935  0.7689 -0.1688
  556MOL0     H76683  13.011  10.223   5.961  1.4936 -1.1318 -1.0226
  556MOL0     H76684  13.158  10.150   5.802  1.2875  1.2877 -0.4351
  556MOL0     H76685  13.022  10.047   5.819 -1.5380  1.6338 -0.7539
  556MOL0     H76686  13.250  10.255   5.662 -2.0239  0.6713  0.8339
  556MOL0     H76687  13.472  10.285   5.406  2.4008  1.8397 -0.5250
  556MOL0     H76688  13.446  10.387   5.558  2.2355  0.2478 -0.6049
  556MOL0     H76689  13.433  10.457   5.399 -1.3914  1.4151  1.0009
  556MOL0     H76690  13.279  10.575   4.974 -0.3039 -1.7046  0.7756
  556MOL0     H76691  13.372  10.594   4.753  0.8383 -1.2761 -2.1619
  556MOL0     H76692  13.807  10.566   4.725  2.1572 -1.2538 -1.3561
  556MOL0     H76693  13.766  10.392   4.709 -1.6953  2.2403  4.8256
  556MOL0     H76694  13.902  10.472   4.502  0.0147  1.4568  2.4361
  556MOL0     H76695  13.725  10.446   4.470  0.2897 -0.8641  0.8812
  556MOL0     H76696  13.865  10.709   4.506  0.6940 -0.1295 -1.3138
  556MOL0     H76697  13.690  10.676   4.500  0.0672  0.0647  0.3824
  556MOL0     H76698  13.763  10.764   4.280  0.8801  0.1400 -0.8731
  556MOL0     H76699  13.710  10.593   4.271  1.0242 -1.0325  1.2009
  556MOL0     H76700  14.001  10.683   4.286 -0.1596  0.3255 -0.3984
  556MOL0     H76701  13.942  10.512   4.282 -2.3576 -1.0221 -1.4794
  556MOL0     H76702  14.029  10.598   4.066  0.1794  2.2231 -1.3679
  556MOL0     H76703  13.912  10.723   4.073 -3.3734  0.1640  0.5204
  556MOL0     H76704  13.736  10.545   4.027  0.4581 -0.6085 -1.0323
  556MOL0     H76705  13.854  10.410   4.051 -0.5593 -0.5037 -4.2670
  556MOL0     H76706  13.816  10.462   3.820  1.1367  2.6592 -2.6945
  556MOL0     H76707  13.985  10.507   3.860  2.2774  2.4997  1.7275
  556MOL0     H76708  13.720  10.377   4.910 -1.1709 -2.2916  2.8620
  556MOL0     H76709  13.594  10.324   5.097 -1.5198  2.4081  2.4181
  556MOL0     H76710  12.995  10.361   5.258 -0.8039  0.9868  1.7333
  556MOL0     H76711  12.906  10.199   5.430  1.3260 -2.1894  1.9947
  556MOL0     H76712  11.498   9.786   6.316  1.5646  1.4668  1.1833
  556MOL0     H76713  11.253   9.794   6.330  4.6885 -3.6722 -1.3215
  556MOL0     H76714  10.895   9.912   6.372  2.0796  0.8994 -0.7544
  556MOL0     H76715  10.649   9.890   6.407 -0.2970  1.8173  1.2010
  556MOL0     H76716  10.397   9.890   6.056 -1.4313 -1.7659 -0.0177
  556MOL0     H76717  10.284   9.897   6.202  2.8797 -1.8860  1.9897
  556MOL0     H76718  10.381  10.152   6.093  0.4134  1.2783  2.7991
  556MOL0     H76719  10.250  10.131   6.216 -5.0519 -1.1566 -2.2562
  556MOL0     H76720  10.102  10.048   6.065 -0.6541  1.6710 -1.0915
  556MOL0     H76721  10.171  10.198   6.016 -3.2111 -0.0239  2.0767
  556MOL0     H76722  10.142  10.057   5.819 -0.3736 -2.3815 -0.5944
  556MOL0     H76723  10.235   9.929   5.893 -0.4211  0.2309 -1.5363
  556MOL0     H76724  10.554  10.145   5.725  0.3328 -1.4104 -0.6117
  556MOL0     H76725  10.589  10.063   6.025  2.9797  1.3401 -1.6386
  556MOL0     H76726  10.868  10.224   5.997  0.1570  0.2877  0.1330
  556MOL0     H76727  10.887  10.087   5.893  0.2278  2.0436 -0.6166
  556MOL0     H76728  10.727  10.177   5.904 -0.0500  0.5288 -0.3695
  557MOL0     O76729   4.478   8.806  10.618 -0.1788  0.0159 -0.3836
  557MOL0     C76730   4.513   8.705  10.678 -0.1767 -0.7500 -0.1925
  557MOL0     O76731   4.460   8.574  10.652  0.4842 -1.1679 -0.3860
  557MOL0     C76732   4.355   8.552  10.574  0.4286  0.0465  0.2246
  557MOL0     C76733   4.226   8.577  10.619 -1.0462 -0.0768  0.2456
  557MOL0     C76734   4.117   8.531  10.548 -0.3228 -0.2788  1.7094
  557MOL0     C76735   4.131   8.472  10.422 -0.1060  0.0133  0.9082
  557MOL0     O76736   4.020   8.449  10.345 -0.1301  0.3433 -0.3543
  557MOL0     C76737   3.998   8.307  10.326  0.2504 -0.0175  0.6879
  557MOL0     C76738   3.844   8.279  10.327 -0.6654  0.3633 -0.6848
  557MOL0     C76739   3.782   8.306  10.466  0.2087 -0.2355 -0.4442
  557MOL0     C76740   3.630   8.263  10.476  0.3699  0.3191  0.5621
  557MOL0     C76741   3.604   8.111  10.467 -1.1761 -0.2738  0.3583
  557MOL0     C76742   3.452   8.095  10.477 -0.8393 -0.4918  0.6194
  557MOL0     C76743   3.395   7.959  10.507  0.2106 -0.1727 -0.1587
  557MOL0     C76744   3.243   7.953  10.526 -0.9408  0.2171 -0.0518
  557MOL0     N76745   3.199   7.826  10.576 -0.2400  0.4626  0.3926
  557MOL0     C76746   3.217   7.774  10.700 -0.6192  0.7120 -0.2390
  557MOL0     C76747   3.157   7.655  10.695  0.3567  0.1469 -0.2340
  557MOL0     C76748   3.170   7.558  10.808  0.1548  0.2342 -0.4879
  557MOL0     C76749   3.127   7.611  10.947  1.3064 -1.0305  0.8278
  557MOL0     C76750   3.257   7.634  11.035  1.0344  0.1987 -0.5965
  557MOL0     C76751   3.215   7.644  11.182  0.4691 -1.0604 -0.6367
  557MOL0     O76752   3.313   7.601  11.280 -0.0299 -0.7644  0.2584
  557MOL0     C76753   3.412   7.695  11.322  0.6374 -0.3124  0.4448
  557MOL0     C76754   3.499   7.673  11.427 -0.4643  0.8899 -0.5390
  557MOL0     C76755   3.594   7.759  11.471 -0.0731 -1.2536 -0.5811
  557MOL0     C76756   3.675   7.711  11.592  0.3785 -0.0445 -1.2212
  557MOL0     C76757   3.613   7.887  11.408 -0.7919  0.4129  0.1649
  557MOL0     C76758   3.719   7.989  11.440  0.3165  0.3399  0.6607
  557MOL0     O76759   3.712   8.110  11.373  1.1743  0.1234 -0.0184
  557MOL0     C76760   3.792   8.207  11.418  0.0598  0.5140  0.7241
  557MOL0     C76761   3.780   8.287  11.532  0.6589  0.6036  0.6913
  557MOL0     C76762   3.878   8.378  11.559  0.7179 -0.5874 -1.1545
  557MOL0     C76763   3.998   8.382  11.490  0.2113  0.3654  1.1484
  557MOL0     O76764   4.104   8.465  11.531  0.1796 -0.2067  0.1278
  557MOL0     C76765   4.068   8.591  11.586  0.3498  0.4714 -0.2524
  557MOL0     C76766   4.206   8.653  11.618  0.0149  0.5358 -0.3744
  557MOL0     C76767   4.288   8.587  11.729  0.5083  0.8768  0.7545
  557MOL0     C76768   4.392   8.683  11.777  0.4754 -0.5581 -0.0576
  557MOL0     C76769   4.501   8.604  11.854  1.2630 -0.6278 -0.2617
  557MOL0     C76770   4.580   8.697  11.956  0.3393  1.2271 -0.3791
  557MOL0     C76771   4.663   8.613  12.053 -0.7446 -0.2180 -0.5276
  557MOL0     C76772   4.753   8.692  12.144 -0.1441 -0.2779 -0.3853
  557MOL0    Cl76773   4.657   8.731  12.284  0.1500 -0.3401 -0.7131
  557MOL0     C76774   4.008   8.300  11.379  0.5051 -0.1781 -0.1649
  557MOL0     C76775   3.910   8.217  11.349  0.5251  0.2070  0.2360
  557MOL0     O76776   3.818   7.960  11.521  1.1123 -0.5216  0.8567
  557MOL0     C76777   3.516   7.917  11.302  0.5740 -0.1887 -0.1172
  557MOL0     C76778   3.424   7.816  11.256  0.5530  0.1936 -0.1324
  557MOL0     N76779   3.099   7.630  10.571 -0.3443  0.5778  0.2272
  557MOL0     N76780   3.129   7.741  10.498  0.4715  0.8113 -0.0223
  557MOL0     C76781   4.258   8.447  10.369 -0.2304 -0.6091 -0.1845
  557MOL0     C76782   4.370   8.500  10.449 -0.3755 -1.0385  0.0133
  557MOL0     C76783   4.618   8.713  10.787 -0.3678 -0.0545 -1.1862
  557MOL0     C76784   4.639   8.606  10.879  0.2507 -0.9674  0.0904
  557MOL0     C76785   4.745   8.608  10.967 -0.4465  0.0425 -0.7643
  557MOL0     C76786   4.828   8.716  10.981  0.8313  0.0185  0.3110
  557MOL0     O76787   4.938   8.699  11.058 -1.0772  0.3232 -0.4950
  557MOL0     C76788   5.035   8.814  11.082  0.3448 -0.0527 -0.0311
  557MOL0     C76789   5.148   8.754  11.159  0.5441 -0.1112 -0.6479
  557MOL0     C76790   5.117   8.741  11.304  0.2461  0.0548 -0.2893
  557MOL0     C76791   5.247   8.732  11.387  0.9866  0.0500 -0.0946
  557MOL0     C76792   5.268   8.869  11.444 -0.2432 -0.7589  0.1215
  557MOL0     C76793   5.268   8.983  11.493 -0.6119  0.1719  0.8242
  557MOL0     C76794   4.800   8.821  10.895 -0.0759 -0.6143  0.4411
  557MOL0     C76795   4.702   8.822  10.804 -0.2829  0.4854  0.9909
  557MOL0     C76796   4.702   8.945  10.715 -0.2069  0.2329  0.4292
  557MOL0     H76797   4.215   8.619  10.718  2.7197 -0.7541  1.0899
  557MOL0     H76798   4.014   8.548  10.577 -0.1498  1.9871  1.1486
  557MOL0     H76799   4.029   8.236  10.403 -0.1989 -0.2497  0.6546
  557MOL0     H76800   4.040   8.271  10.231 -0.0018 -1.8961  1.2633
  557MOL0     H76801   3.797   8.351  10.259 -2.3282  3.7782  3.5616
  557MOL0     H76802   3.826   8.182  10.281 -0.1463 -0.5431  0.9731
  557MOL0     H76803   3.834   8.255  10.548  0.9980 -1.1475 -1.4863
  557MOL0     H76804   3.782   8.415  10.478 -3.1271 -0.1166 -0.6709
  557MOL0     H76805   3.591   8.312  10.566  0.6953  1.3469  0.1592
  557MOL0     H76806   3.588   8.315  10.390  3.1324  1.2631 -0.3078
  557MOL0     H76807   3.652   8.065  10.554  2.2936  1.1058 -0.6314
  557MOL0     H76808   3.645   8.061  10.379 -0.3248  1.5841 -0.3663
  557MOL0     H76809   3.412   8.160  10.556 -5.5231 -1.1875 -0.8733
  557MOL0     H76810   3.415   8.125  10.379  2.4803 -2.1737 -1.3168
  557MOL0     H76811   3.445   7.914  10.594  2.6293 -1.8688 -2.2908
  557MOL0     H76812   3.428   7.888  10.431  0.7985 -0.6738  0.5424
  557MOL0     H76813   3.213   8.027  10.601  0.3601 -0.9093  1.6460
  557MOL0     H76814   3.188   7.975  10.434  0.2209 -2.0333 -1.3976
  557MOL0     H76815   3.277   7.826  10.773 -0.1506 -0.0976 -0.0402
  557MOL0     H76816   3.270   7.514  10.807 -0.2962 -1.0032 -3.2726
  557MOL0     H76817   3.102   7.473  10.794 -1.5641  1.3589  0.6977
  557MOL0     H76818   3.063   7.700  10.943  1.6364 -0.7981  0.6115
  557MOL0     H76819   3.064   7.534  10.991 -0.1476  0.6433  1.8039
  557MOL0     H76820   3.338   7.562  11.022  0.4847 -0.7380  0.8514
  557MOL0     H76821   3.291   7.729  10.994  0.3043  0.1178 -1.4483
  557MOL0     H76822   3.181   7.746  11.200  4.8148  0.6524 -0.9635
  557MOL0     H76823   3.131   7.576  11.197  0.4504 -0.8146  0.4776
  557MOL0     H76824   3.491   7.584  11.489 -4.1667  0.0635 -1.9153
  557MOL0     H76825   3.601   7.672  11.662  1.4870 -0.3475 -0.1814
  557MOL0     H76826   3.727   7.794  11.641  1.6733 -0.4136 -1.9116
  557MOL0     H76827   3.743   7.632  11.560  0.6928  1.1199 -3.6816
  557MOL0     H76828   3.686   8.279  11.585 -1.0340  1.3811 -1.9821
  557MOL0     H76829   3.859   8.436  11.649  1.4216 -0.0433 -1.3434
  557MOL0     H76830   4.024   8.656  11.511  0.4844 -1.2752 -1.9162
  557MOL0     H76831   4.009   8.580  11.678  0.7576  0.0237 -0.0385
  557MOL0     H76832   4.257   8.668  11.522  0.6306  0.4828 -0.0561
  557MOL0     H76833   4.191   8.756  11.651 -1.0533  0.8086 -1.6130
  557MOL0     H76834   4.335   8.493  11.701  0.2894  0.9353  0.1639
  557MOL0     H76835   4.220   8.557  11.808  1.5115  1.1169  1.7347
  557MOL0     H76836   4.351   8.767  11.832 -0.3100 -0.8891 -0.1246
  557MOL0     H76837   4.439   8.737  11.694  0.3701  4.0850  2.5776
  557MOL0     H76838   4.448   8.535  11.919  2.6505 -0.4660  1.0710
  557MOL0     H76839   4.563   8.554  11.779 -1.8820 -1.6573 -2.3857
  557MOL0     H76840   4.508   8.759  12.011 -0.3931  0.0307  0.0451
  557MOL0     H76841   4.643   8.764  11.896  0.7398  0.0398 -1.3168
  557MOL0     H76842   4.722   8.537  12.002 -0.4443  0.2613 -0.9029
  557MOL0     H76843   4.596   8.555  12.118 -1.4659 -0.8520 -1.8090
  557MOL0     H76844   4.787   8.780  12.090 -1.5668  0.4903 -0.0908
  557MOL0     H76845   4.829   8.624  12.184  1.6631 -0.4441 -3.7302
  557MOL0     H76846   4.099   8.296  11.318  0.5439  1.3900 -0.2431
  557MOL0     H76847   3.936   8.148  11.269 -2.9675  3.4732 -4.1885
  557MOL0     H76848   3.524   8.014  11.256  0.6220  1.0794  2.3786
  557MOL0     H76849   3.368   7.848  11.169  2.5810  0.4305 -1.4296
  557MOL0     H76850   4.283   8.412  10.270  1.6330 -0.6367  0.2510
  557MOL0     H76851   4.470   8.487  10.408  0.0183 -0.6088  0.8195
  557MOL0     H76852   4.573   8.521  10.886 -0.3602 -0.4115  1.7266
  557MOL0     H76853   4.756   8.529  11.040 -1.5685 -0.0459 -0.6784
  557MOL0     H76854   5.077   8.854  10.989 -0.1087 -3.9085 -2.0960
  557MOL0     H76855   4.989   8.898  11.133  0.6786  0.8748 -1.2132
  557MOL0     H76856   5.225   8.831  11.154  0.5010  0.0000  0.2344
  557MOL0     H76857   5.181   8.659  11.115  0.0776 -0.7400  0.3249
  557MOL0     H76858   5.060   8.820  11.352 -0.0272  0.2262 -0.8870
  557MOL0     H76859   5.058   8.650  11.318  0.6909 -0.6927 -2.6881
  557MOL0     H76860   5.333   8.702  11.326 -1.0776 -1.5322 -2.4468
  557MOL0     H76861   5.225   8.665  11.470 -0.5629  2.1610  1.3127
  557MOL0     H76862   5.273   9.080  11.538  1.9490 -0.0602  1.2049
  557MOL0     H76863   4.870   8.903  10.892 -1.3302  0.4687 -2.5051
  557MOL0     H76864   4.772   9.020  10.752  3.2371 -2.5045 -0.0100
  557MOL0     H76865   4.738   8.926  10.613  0.4074  0.3026  0.6259
  557MOL0     H76866   4.607   8.999  10.715 -0.1089  0.4123 -0.2768
  558MOL0     O76867   6.928  10.893   2.790  0.3376  0.4962 -0.4529
  558MOL0     C76868   6.812  10.847   2.795 -0.5600  0.5633  0.3328
  558MOL0     O76869   6.765  10.743   2.721  0.6323 -0.7585 -0.4527
  558MOL0     C76870   6.843  10.685   2.625  0.9504 -0.5170  0.4129
  558MOL0     C76871   6.926  10.754   2.540 -0.6214 -0.4386  0.0232
  558MOL0     C76872   7.006  10.679   2.447 -0.2684  0.9647  0.4401
  558MOL0     C76873   6.979  10.543   2.421 -0.3737  0.1098  0.1063
  558MOL0     O76874   7.044  10.455   2.330 -0.4338  0.5358  0.0359
  558MOL0     C76875   7.154  10.505   2.256 -0.1008  0.8001 -0.1201
  558MOL0     C76876   7.282  10.496   2.348  0.1345 -0.0684  0.2650
  558MOL0     C76877   7.409  10.546   2.288  0.1106 -0.4472  0.1898
  558MOL0     C76878   7.466  10.654   2.386  1.2796  0.6253  0.1202
  558MOL0     C76879   7.605  10.684   2.350 -0.0823 -0.2368  0.0290
  558MOL0     C76880   7.631  10.748   2.211  0.1574 -0.2422  0.0211
  558MOL0     C76881   7.764  10.827   2.217  1.0860 -0.7512  0.1180
  558MOL0     C76882   7.752  10.972   2.185 -0.5421 -0.1886  0.1901
  558MOL0     N76883   7.634  11.051   2.245 -0.6854  0.6386  0.8569
  558MOL0     C76884   7.615  11.105   2.367 -0.6378  1.0905 -0.0175
  558MOL0     C76885   7.500  11.176   2.359 -0.1825 -0.3045  0.1251
  558MOL0     C76886   7.431  11.241   2.480 -0.1395  0.1786  0.2429
  558MOL0     C76887   7.402  11.140   2.597  1.2582 -0.2835  0.1559
  558MOL0     C76888   7.301  11.036   2.540  0.1625 -0.8314 -0.4469
  558MOL0     C76889   7.268  10.924   2.645  0.1499 -0.1075 -0.7735
  558MOL0     O76890   7.385  10.850   2.688 -0.0455 -0.0815  0.4593
  558MOL0     C76891   7.369  10.720   2.736 -0.0445 -0.2577 -0.0431
  558MOL0     C76892   7.244  10.662   2.764  0.0508  1.1330 -0.3839
  558MOL0     C76893   7.230  10.528   2.805  0.0177  0.4291 -0.0755
  558MOL0     C76894   7.092  10.491   2.870 -0.2857 -0.0443  0.4501
  558MOL0     C76895   7.344  10.450   2.818  0.2008  0.1395  0.3386
  558MOL0     C76896   7.347  10.307   2.866  0.5743  0.2673  0.2649
  558MOL0     O76897   7.242  10.246   2.920  0.2380 -0.1652 -0.4143
  558MOL0     C76898   7.240  10.127   2.988  0.1394  0.1277 -0.1947
  558MOL0     C76899   7.347  10.043   3.011 -0.1470 -0.1299 -0.2477
  558MOL0     C76900   7.325   9.917   3.068  0.3801  0.5877 -0.3313
  558MOL0     C76901   7.195   9.883   3.116 -0.4130 -0.5182  0.1348
  558MOL0     O76902   7.168   9.766   3.176 -0.8175 -0.2922  0.2345
  558MOL0     C76903   7.176   9.773   3.317 -0.1477 -0.1848  0.1362
  558MOL0     C76904   7.113   9.646   3.378 -0.9169 -0.8161 -0.0949
  558MOL0     C76905   6.962   9.636   3.373  1.1666  0.7874  0.5497
  558MOL0     C76906   6.916   9.495   3.420  0.6439 -0.6723  0.3811
  558MOL0     C76907   6.751   9.497   3.408  0.9971  0.4055 -0.1633
  558MOL0     C76908   6.702   9.380   3.483 -0.1393 -0.0842  0.0548
  558MOL0     C76909   6.558   9.339   3.452  0.7110 -0.3622 -0.2200
  558MOL0     C76910   6.501   9.249   3.561 -0.6187  0.1783 -0.1050
  558MOL0    Cl76911   6.468   9.362   3.712 -0.1847 -0.2270 -0.1228
  558MOL0     C76912   7.088   9.969   3.092  0.3550  0.8215 -1.0521
  558MOL0     C76913   7.109  10.089   3.031 -0.6168 -0.4891 -0.3031
  558MOL0     O76914   7.458  10.248   2.853 -0.5238 -0.6945 -0.0191
  558MOL0     C76915   7.468  10.511   2.804 -0.2264 -0.0715  0.9076
  558MOL0     C76916   7.491  10.643   2.757  0.9794  0.1543  0.3300
  558MOL0     N76917   7.455  11.181   2.228  0.0006 -0.9050 -0.1145
  558MOL0     N76918   7.539  11.108   2.165  0.4903 -0.6145  0.4224
  558MOL0     C76919   6.887  10.481   2.507 -0.2701 -0.5255  0.8244
  558MOL0     C76920   6.824  10.552   2.607 -0.5397  0.4281  0.5626
  558MOL0     C76921   6.715  10.905   2.890 -1.1095 -0.0841  0.2976
  558MOL0     C76922   6.746  11.027   2.939 -1.0494  0.2963  0.5190
  558MOL0     C76923   6.662  11.107   3.016  0.5861  0.2589  0.1670
  558MOL0     C76924   6.542  11.057   3.052  0.2968 -0.3591  0.4686
  558MOL0     O76925   6.470  11.138   3.139 -0.4544  0.5984 -0.7769
  558MOL0     C76926   6.361  11.071   3.209 -0.1246 -0.1247 -1.0121
  558MOL0     C76927   6.308  11.168   3.322  0.4478 -0.5682  0.0069
  558MOL0     C76928   6.253  11.302   3.265  0.1539  0.2447  0.1851
  558MOL0     C76929   6.224  11.417   3.362  0.0560 -0.6381 -0.0155
  558MOL0     C76930   6.175  11.532   3.281 -0.4586 -0.7155  0.3373
  558MOL0     C76931   6.134  11.623   3.215 -0.0636  0.8551 -0.5723
  558MOL0     C76932   6.501  10.935   2.998 -0.1436 -0.9247  0.8925
  558MOL0     C76933   6.585  10.859   2.917 -0.0005  0.0276 -0.1695
  558MOL0     C76934   6.546  10.723   2.879  0.2198  0.4305 -0.8955
  558MOL0     H76935   6.943  10.861   2.542  1.6994 -0.4671 -4.5076
  558MOL0     H76936   7.078  10.736   2.390 -1.1311  0.2429 -1.4491
  558MOL0     H76937   7.144  10.606   2.217  0.5741  0.6037 -0.8246
  558MOL0     H76938   7.177  10.448   2.166  0.8374  2.6037 -1.0755
  558MOL0     H76939   7.274  10.534   2.450  0.5473  0.1199  0.2284
  558MOL0     H76940   7.300  10.389   2.362 -0.1138  0.0270  1.4176
  558MOL0     H76941   7.484  10.471   2.263  2.5394  0.7203  3.1833
  558MOL0     H76942   7.377  10.600   2.199 -0.8324  0.6311  1.1434
  558MOL0     H76943   7.397  10.738   2.385  0.1070 -0.1976 -3.2908
  558MOL0     H76944   7.466  10.606   2.484 -0.4803  0.6018  0.1397
  558MOL0     H76945   7.665  10.595   2.370 -1.4079 -0.8711  1.3417
  558MOL0     H76946   7.639  10.760   2.420 -4.2063  0.1717  1.8526
  558MOL0     H76947   7.626  10.664   2.142  0.1894 -0.4709  0.2924
  558MOL0     H76948   7.548  10.816   2.192 -2.0286 -2.2016  1.8811
  558MOL0     H76949   7.839  10.777   2.156  0.0835 -0.5673 -1.3162
  558MOL0     H76950   7.819  10.823   2.311  2.2496  2.9902 -0.2321
  558MOL0     H76951   7.848  11.015   2.216  0.3265 -0.6873 -1.6939
  558MOL0     H76952   7.738  10.988   2.078  1.2637  0.4104  0.0194
  558MOL0     H76953   7.667  11.083   2.460  0.5666  1.1858 -0.6502
  558MOL0     H76954   7.342  11.301   2.457  0.2288  0.5716 -0.1870
  558MOL0     H76955   7.497  11.321   2.515  0.4359  0.7552 -2.0269
  558MOL0     H76956   7.494  11.084   2.616  3.5092  3.0411 -0.1007
  558MOL0     H76957   7.360  11.189   2.685  0.3377 -1.7676  0.5883
  558MOL0     H76958   7.212  11.093   2.514  0.8706  0.6098  0.1931
  558MOL0     H76959   7.353  10.994   2.453  2.7968 -0.6579  0.9555
  558MOL0     H76960   7.219  10.974   2.728  1.2167  1.9415 -1.3015
  558MOL0     H76961   7.201  10.849   2.601 -1.2400 -0.5591  1.8850
  558MOL0     H76962   7.155  10.721   2.745 -0.9842 -0.9797 -2.6389
  558MOL0     H76963   7.099  10.449   2.971 -1.5673  1.4072  1.1924
  558MOL0     H76964   7.036  10.425   2.803 -1.8331 -0.5584  2.1587
  558MOL0     H76965   7.041  10.586   2.890  0.8896  0.6102  0.4071
  558MOL0     H76966   7.445  10.068   2.972  0.0344 -0.9703 -0.3361
  558MOL0     H76967   7.402   9.844   3.090  0.8962  2.3639  5.4496
  558MOL0     H76968   7.281   9.768   3.347 -0.3679 -5.0721  0.8839
  558MOL0     H76969   7.137   9.866   3.360  0.0128 -0.4423  0.8649
  558MOL0     H76970   7.159   9.562   3.326 -0.1039 -1.5316  1.7214
  558MOL0     H76971   7.144   9.638   3.483  1.2892 -0.3300 -0.6459
  558MOL0     H76972   6.925   9.660   3.272 -1.2227 -2.6673  0.3819
  558MOL0     H76973   6.919   9.715   3.435  1.6059  2.6459 -1.4060
  558MOL0     H76974   6.944   9.479   3.525  4.2530  0.0970 -0.3605
  558MOL0     H76975   6.968   9.422   3.358  1.1967  1.3194 -1.6111
  558MOL0     H76976   6.707   9.593   3.434 -0.8018 -0.0684 -1.1978
  558MOL0     H76977   6.716   9.475   3.306 -1.5342  0.9034  0.5119
  558MOL0     H76978   6.716   9.395   3.590  0.0550  0.9351 -0.1034
  558MOL0     H76979   6.761   9.292   3.454  1.1800  0.4764  0.9796
  558MOL0     H76980   6.555   9.289   3.355  3.1774 -1.6504  0.2978
  558MOL0     H76981   6.491   9.425   3.452  1.9315  0.6201  0.1681
  558MOL0     H76982   6.570   9.166   3.576 -0.5256  0.4543  1.0876
  558MOL0     H76983   6.405   9.206   3.531  0.4319  0.6625 -5.0312
  558MOL0     H76984   6.987   9.944   3.122  0.4338  1.0357 -0.5873
  558MOL0     H76985   7.021  10.140   2.992 -1.2369 -0.4686  1.0427
  558MOL0     H76986   7.556  10.451   2.829  0.5469 -0.5890 -2.5592
  558MOL0     H76987   7.593  10.677   2.750  0.8113  1.1218  1.9520
  558MOL0     H76988   6.858  10.377   2.501  0.5714 -0.8067  1.3807
  558MOL0     H76989   6.759  10.494   2.672 -0.7289 -2.5041 -2.0029
  558MOL0     H76990   6.844  11.069   2.918  0.0347 -2.3858 -0.3052
  558MOL0     H76991   6.686  11.207   3.048 -7.7415  3.8760 -2.2943
  558MOL0     H76992   6.278  11.068   3.138 -2.2205  0.5153  1.2604
  558MOL0     H76993   6.386  10.972   3.248  0.4567 -0.3125 -1.8318
  558MOL0     H76994   6.385  11.198   3.394  1.0424 -2.8799  0.4090
  558MOL0     H76995   6.239  11.122   3.392 -0.1752 -2.5654 -1.8137
  558MOL0     H76996   6.313  11.340   3.182 -0.1409 -1.2564 -0.7496
  558MOL0     H76997   6.156  11.272   3.223 -0.0402  0.7756  0.2446
  558MOL0     H76998   6.318  11.434   3.416 -0.2586 -2.9481  1.4291
  558MOL0     H76999   6.146  11.382   3.430  3.3655 -2.8872  3.0249
  558MOL0     H77000   6.091  11.707   3.164 -2.5369 -0.2849 -0.4886
  558MOL0     H77001   6.403  10.892   3.015  0.6792 -3.0553  0.6283
  558MOL0     H77002   6.459  10.694   2.937  1.8881 -1.7817  0.6755
  558MOL0     H77003   6.517  10.715   2.773 -0.6583 -1.2508 -0.5621
  558MOL0     H77004   6.628  10.655   2.905 -0.9568 -0.6957 -0.0441
  559MOL0     O77005   1.277   0.269   0.997 -0.1996 -0.1314 -0.0469
  559MOL0     C77006   1.274   0.173   1.075  1.6446  1.0948 -0.1241
  559MOL0     O77007   1.335   0.054   1.050  0.1838  0.5618  0.0219
  559MOL0     C77008   1.422   0.055   0.947  0.4513  0.8501  0.0359
  559MOL0     C77009   1.383   0.004   0.823 -0.3343 -0.8566  0.4482
  559MOL0     C77010   1.461   0.028   0.707  0.1187 -0.0128 -0.1656
  559MOL0     C77011   1.588   0.085   0.727  0.4857  0.3725 -0.5393
  559MOL0     O77012   1.677   0.111   0.624  0.2533  0.6942  0.6840
  559MOL0     C77013   1.653   0.053   0.491  0.3238 -1.0119 -0.2150
  559MOL0     C77014   1.767   0.085   0.399  0.9908 -0.2807 -0.1271
  559MOL0     C77015   1.878  -0.012   0.423 -0.2964  0.6042 -0.8936
  559MOL0     C77016   2.006   0.002   0.341  0.0213 -0.4954 -0.2881
  559MOL0     C77017   2.101  -0.103   0.369  0.6502 -0.3766  0.0134
  559MOL0     C77018   2.222  -0.093   0.271 -0.4578 -0.6232 -0.3266
  559MOL0     C77019   2.319  -0.213   0.289  0.2219  1.4969  0.4664
  559MOL0     C77020   2.448  -0.198   0.201  0.2273 -0.0974 -0.5011
  559MOL0     N77021   2.416  -0.196   0.057 -0.3147 -0.4258  0.7516
  559MOL0     C77022   2.496  -0.277  -0.033 -0.1859 -0.1833  0.0222
  559MOL0     C77023   2.496  -0.213  -0.151  0.1951  0.3384 -1.2887
  559MOL0     C77024   2.526  -0.288  -0.282 -0.4775 -0.4414  0.6923
  559MOL0     C77025   2.674  -0.266  -0.317  0.3178 -0.2654 -0.9198
  559MOL0     C77026   2.720  -0.333  -0.442  0.1076 -0.1528 -0.0042
  559MOL0     C77027   2.652  -0.292  -0.573  0.4289 -0.4916 -0.7485
  559MOL0     O77028   2.726  -0.344  -0.679  0.5072 -0.3558  0.1718
  559MOL0     C77029   2.733  -0.292  -0.803  0.5839  0.1592 -0.0191
  559MOL0     C77030   2.835  -0.332  -0.891 -0.2814 -0.0271  0.5740
  559MOL0     C77031   2.854  -0.278  -1.019  0.4487 -0.0445 -0.7503
  559MOL0     C77032   2.969  -0.322  -1.094  0.2798 -0.6064 -0.2991
  559MOL0     C77033   2.767  -0.177  -1.070 -0.3845  0.0084  0.4312
  559MOL0     C77034   2.774  -0.098  -1.206 -0.0701 -0.5221 -0.5241
  559MOL0     O77035   2.703   0.025  -1.209  0.0521 -0.9355 -0.4606
  559MOL0     C77036   2.715   0.112  -1.323  1.2905 -0.7145 -0.4637
  559MOL0     C77037   2.817   0.118  -1.417 -0.3422 -0.7307  0.7458
  559MOL0     C77038   2.821   0.210  -1.522  0.8287  0.1117  0.5807
  559MOL0     C77039   2.720   0.299  -1.543  0.1106  0.4327  0.3297
  559MOL0     O77040   2.699   0.380  -1.652 -0.2284 -0.0291 -0.5884
  559MOL0     C77041   2.792   0.391  -1.751 -0.3299  0.0598  0.4294
  559MOL0     C77042   2.906   0.472  -1.716  0.0411 -0.8132 -0.9247
  559MOL0     C77043   2.875   0.622  -1.678 -0.2388 -0.0356  0.4753
  559MOL0     C77044   2.847   0.702  -1.816 -0.4426 -0.8120  0.6014
  559MOL0     C77045   2.818   0.847  -1.793  0.1454  0.0515  1.2040
  559MOL0     C77046   2.791   0.936  -1.924 -0.7917  0.0676 -0.5305
  559MOL0     C77047   2.759   1.074  -1.883 -0.4538  0.4537  0.1448
  559MOL0     C77048   2.663   1.131  -1.979 -0.3759 -0.5661 -0.2124
  559MOL0    Cl77049   2.618   1.294  -1.921  0.3472  0.0143 -0.0291
  559MOL0     C77050   2.619   0.296  -1.447 -0.5138  0.0896 -0.4018
  559MOL0     C77051   2.615   0.209  -1.343  0.4157 -0.0526  0.1011
  559MOL0     O77052   2.845  -0.130  -1.301  0.3472  0.3238  0.5628
  559MOL0     C77053   2.660  -0.144  -0.985 -0.0326 -0.4236  0.5381
  559MOL0     C77054   2.639  -0.206  -0.855 -0.0715 -0.7318  0.3820
  559MOL0     N77055   2.413  -0.102  -0.134 -0.8130 -0.0658 -0.2368
  559MOL0     N77056   2.369  -0.090  -0.016  0.2480 -0.5868 -0.3517
  559MOL0     C77057   1.638   0.116   0.856  0.6785  0.2453  0.4880
  559MOL0     C77058   1.548   0.103   0.967  0.6352  0.3190 -0.2773
  559MOL0     C77059   1.186   0.171   1.195 -0.4290  0.0694 -0.2170
  559MOL0     C77060   1.243   0.117   1.317 -0.4959 -0.0456  0.4589
  559MOL0     C77061   1.161   0.093   1.422 -0.9091  0.1300  0.8344
  559MOL0     C77062   1.025   0.122   1.422 -1.2107 -0.0907  0.1432
  559MOL0     O77063   0.946   0.101   1.528 -0.1024 -0.1933 -0.3843
  559MOL0     C77064   0.989   0.006   1.626  0.3520  0.1756 -0.2679
  559MOL0     C77065   0.882  -0.031   1.729  0.1660 -0.0918 -0.8247
  559MOL0     C77066   0.931  -0.152   1.809 -0.0229  0.2814  0.8934
  559MOL0     C77067   0.929  -0.290   1.744  0.2428 -0.1712 -0.1090
  559MOL0     C77068   0.806  -0.295   1.662  0.5049  0.2787 -0.5462
  559MOL0     C77069   0.693  -0.308   1.605 -0.7723 -0.2525  0.0285
  559MOL0     C77070   0.976   0.186   1.309  0.9102  0.4372  0.5583
  559MOL0     C77071   1.052   0.208   1.193 -0.6952  0.3371 -0.1350
  559MOL0     C77072   0.983   0.268   1.074 -0.2187 -0.2626  0.5159
  559MOL0     H77073   1.291  -0.051   0.804  0.1554 -0.7962 -2.5599
  559MOL0     H77074   1.432   0.006   0.605  3.8396  1.8734 -1.8251
  559MOL0     H77075   1.568   0.112   0.454 -0.8742 -0.2669  3.3686
  559MOL0     H77076   1.625  -0.053   0.493 -1.1958 -0.6517 -0.8098
  559MOL0     H77077   1.719   0.069   0.302  0.2870 -0.0279  0.1709
  559MOL0     H77078   1.813   0.182   0.419 -1.6445  0.8994  0.6713
  559MOL0     H77079   1.901  -0.009   0.530 -0.8193 -0.5936 -0.7304
  559MOL0     H77080   1.834  -0.111   0.409 -0.5652  0.5276  0.4004
  559MOL0     H77081   1.981  -0.011   0.235 -1.4585  0.1426 -0.0415
  559MOL0     H77082   2.053   0.100   0.356 -1.6029  0.1995  0.4000
  559MOL0     H77083   2.056  -0.200   0.346  1.8282 -0.7528 -0.7769
  559MOL0     H77084   2.124  -0.103   0.476 -1.0775 -0.5612  0.4214
  559MOL0     H77085   2.177  -0.097   0.172 -4.0448 -0.0223  1.1488
  559MOL0     H77086   2.283  -0.003   0.283  1.6511 -1.9896 -0.1121
  559MOL0     H77087   2.264  -0.301   0.255 -1.1815  2.5180  0.0147
  559MOL0     H77088   2.356  -0.228   0.391  1.9683 -3.0898 -0.6079
  559MOL0     H77089   2.490  -0.102   0.233 -0.7347 -0.0168  0.5733
  559MOL0     H77090   2.520  -0.272   0.235 -0.9754 -1.1171 -0.1252
  559MOL0     H77091   2.542  -0.375  -0.019  0.1251 -0.3684 -2.0034
  559MOL0     H77092   2.460  -0.230  -0.348 -2.1896  0.3401  2.9716
  559MOL0     H77093   2.501  -0.394  -0.287  0.6096 -0.6676 -2.2581
  559MOL0     H77094   2.695  -0.161  -0.339 -0.4192 -0.1216 -0.9782
  559MOL0     H77095   2.739  -0.290  -0.232 -0.9208  1.6533  0.6555
  559MOL0     H77096   2.828  -0.313  -0.450  0.0160 -0.3087 -2.2346
  559MOL0     H77097   2.715  -0.442  -0.434  3.0004 -0.3361  0.6534
  559MOL0     H77098   2.555  -0.341  -0.570 -0.0364  0.4251 -0.3766
  559MOL0     H77099   2.648  -0.182  -0.578 -1.2661 -0.1748  3.5186
  559MOL0     H77100   2.903  -0.409  -0.856  1.0382  0.7401 -0.2115
  559MOL0     H77101   3.029  -0.385  -1.028 -0.8914  0.2645  1.6800
  559MOL0     H77102   3.008  -0.226  -1.129  0.6440 -0.3571  0.7876
  559MOL0     H77103   2.940  -0.369  -1.189  2.2211 -0.6231 -0.9223
  559MOL0     H77104   2.910   0.061  -1.418  1.1387  1.3261 -3.2110
  559MOL0     H77105   2.904   0.203  -1.591  1.3802  1.9325  1.0179
  559MOL0     H77106   2.836   0.296  -1.781  1.6270  1.4505 -1.4623
  559MOL0     H77107   2.741   0.435  -1.838 -2.0583 -1.3585  0.6582
  559MOL0     H77108   2.973   0.427  -1.642 -2.0508 -0.7914  1.0875
  559MOL0     H77109   2.958   0.480  -1.812 -0.1325  0.1516 -0.9464
  559MOL0     H77110   2.968   0.660  -1.635  0.0158 -1.1587  0.9547
  559MOL0     H77111   2.796   0.632  -1.603 -0.6991 -4.0166  0.7599
  559MOL0     H77112   2.771   0.653  -1.878  1.2770 -1.0237 -1.4408
  559MOL0     H77113   2.938   0.703  -1.877 -2.8251 -0.4691 -3.3406
  559MOL0     H77114   2.727   0.852  -1.733  0.4474  0.8423  1.6089
  559MOL0     H77115   2.903   0.894  -1.743 -1.0772  1.8767  1.6615
  559MOL0     H77116   2.704   0.888  -1.970 -0.6693  1.0210 -1.8025
  559MOL0     H77117   2.874   0.933  -1.996 -1.7645 -2.7899 -1.6886
  559MOL0     H77118   2.849   1.134  -1.869 -1.1117  2.0535 -1.8547
  559MOL0     H77119   2.705   1.063  -1.789 -1.5429 -1.1613 -0.6097
  559MOL0     H77120   2.577   1.064  -1.987 -2.1952  1.4630  1.2313
  559MOL0     H77121   2.720   1.136  -2.072 -0.1711  1.2760 -0.0314
  559MOL0     H77122   2.540   0.368  -1.466 -0.3089  0.9233  1.6291
  559MOL0     H77123   2.539   0.223  -1.267  0.0744  1.6279 -0.5014
  559MOL0     H77124   2.588  -0.075  -1.029 -0.1256 -0.4287  0.6822
  559MOL0     H77125   2.551  -0.180  -0.798  0.3074 -1.0474  1.1320
  559MOL0     H77126   1.736   0.156   0.879  1.8113 -2.9736  1.8592
  559MOL0     H77127   1.582   0.130   1.067  2.1398  0.3258 -0.7654
  559MOL0     H77128   1.349   0.094   1.314 -0.7341 -1.6190  2.2138
  559MOL0     H77129   1.210   0.067   1.515  0.8479 -0.8786 -0.3225
  559MOL0     H77130   1.016  -0.084   1.570  0.9807  0.1663  0.0429
  559MOL0     H77131   1.081   0.033   1.679  0.3865 -0.4873  0.0097
  559MOL0     H77132   0.784  -0.055   1.687  1.4582 -4.1724 -2.0653
  559MOL0     H77133   0.879   0.054   1.798  1.2121  0.1742 -1.0820
  559MOL0     H77134   1.034  -0.128   1.837 -0.3744  3.0564  0.1397
  559MOL0     H77135   0.873  -0.156   1.902 -1.2019 -1.9174  0.1269
  559MOL0     H77136   0.926  -0.379   1.808  0.7182 -2.2998 -2.8475
  559MOL0     H77137   1.008  -0.299   1.669  0.8271  1.7120  0.2209
  559MOL0     H77138   0.603  -0.310   1.546 -1.0410 -1.0557  0.4500
  559MOL0     H77139   0.870   0.207   1.302  0.5370 -1.2253  0.7109
  559MOL0     H77140   0.880   0.294   1.099 -0.4893  2.4197 -2.6214
  559MOL0     H77141   1.033   0.365   1.058  0.5309 -0.7206  0.0305
  559MOL0     H77142   0.977   0.198   0.991  0.2115 -1.5018  1.5024
  560MOL0     O77143   6.920   4.230   7.701 -0.0374 -0.4747  0.1126
  560MOL0     C77144   6.920   4.356   7.708  0.1025  0.1084 -0.4515
  560MOL0     O77145   7.000   4.432   7.631 -0.6361 -0.4707  0.2276
  560MOL0     C77146   7.112   4.371   7.576  0.0880 -0.0944 -0.1020
  560MOL0     C77147   7.135   4.361   7.439  0.5046 -0.3134  0.2396
  560MOL0     C77148   7.247   4.292   7.390  0.2081 -0.1545  0.5580
  560MOL0     C77149   7.330   4.225   7.477 -0.0011 -0.1048  0.4026
  560MOL0     O77150   7.432   4.144   7.437  0.6703 -0.4949  0.3942
  560MOL0     C77151   7.439   4.093   7.300  0.2188  0.6578 -0.2609
  560MOL0     C77152   7.506   4.185   7.200 -0.7514  0.4620 -0.0441
  560MOL0     C77153   7.644   4.248   7.255  0.7428  0.3763  0.6521
  560MOL0     C77154   7.755   4.164   7.319 -0.6256  0.7872  0.7252
  560MOL0     C77155   7.801   4.045   7.232  0.4767  0.3565 -0.7424
  560MOL0     C77156   7.946   4.013   7.279 -0.3012  0.6682  0.8005
  560MOL0     C77157   7.974   3.861   7.242 -0.5940 -0.4358 -0.3783
  560MOL0     C77158   8.114   3.812   7.286  0.2572 -0.3263 -0.5998
  560MOL0     N77159   8.226   3.897   7.245  0.3679 -0.6677  0.2495
  560MOL0     C77160   8.267   4.013   7.313  0.1854 -0.7163  0.6074
  560MOL0     C77161   8.373   4.063   7.240 -0.7761 -0.7371  0.4064
  560MOL0     C77162   8.473   4.173   7.277  1.0314  0.1884 -0.4417
  560MOL0     C77163   8.551   4.118   7.397 -0.3556  0.2738  0.5279
  560MOL0     C77164   8.682   4.195   7.416  0.1969  0.5802  0.1191
  560MOL0     C77165   8.763   4.138   7.528 -0.6524 -0.1167 -0.5181
  560MOL0     O77166   8.893   4.207   7.533  0.9359 -0.5224 -0.3483
  560MOL0     C77167   8.982   4.177   7.634 -0.2450 -0.3964 -0.1007
  560MOL0     C77168   9.108   4.243   7.628  0.4712 -0.1072  0.3425
  560MOL0     C77169   9.212   4.238   7.720  0.0184 -0.0509 -0.5293
  560MOL0     C77170   9.324   4.331   7.714 -0.1125  0.5492  0.7933
  560MOL0     C77171   9.192   4.152   7.833 -0.3461  0.2464  0.6181
  560MOL0     C77172   9.290   4.108   7.938 -0.3621  1.0426 -0.6353
  560MOL0     O77173   9.404   4.173   7.945 -0.3320 -0.2470 -0.2290
  560MOL0     C77174   9.511   4.131   8.026  0.0900 -0.3547  0.1976
  560MOL0     C77175   9.531   3.995   8.076 -0.2557  0.0867 -0.1954
  560MOL0     C77176   9.656   3.965   8.142 -0.0827  0.1386 -1.0866
  560MOL0     C77177   9.744   4.066   8.175  0.0658  0.4919 -0.0034
  560MOL0     O77178   9.862   4.022   8.241 -0.2997 -1.1018 -0.4194
  560MOL0     C77179   9.921   4.130   8.320  1.1920  0.3924 -0.0061
  560MOL0     C77180  10.041   4.086   8.412 -0.0708  0.4300  0.5507
  560MOL0     C77181  10.174   4.067   8.337  0.7066 -0.3015  0.0249
  560MOL0     C77182  10.298   4.043   8.419  0.1695 -0.0728 -0.3566
  560MOL0     C77183  10.347   4.161   8.504  0.0762 -0.9071  0.2419
  560MOL0     C77184  10.485   4.139   8.574 -0.5892  0.3626 -0.4902
  560MOL0     C77185  10.465   4.072   8.711 -0.4035 -0.8364 -1.3943
  560MOL0     C77186  10.604   4.009   8.747  0.4276  0.5151 -1.2168
  560MOL0    Cl77187  10.738   4.136   8.734  0.0960  0.2624  0.3945
  560MOL0     C77188   9.725   4.190   8.123 -0.2655 -0.4658 -0.0161
  560MOL0     C77189   9.607   4.227   8.057  0.8719 -0.5862  0.4881
  560MOL0     O77190   9.260   4.012   8.006  0.6597 -0.5086  0.6101
  560MOL0     C77191   9.066   4.084   7.836  0.5714  0.0970 -0.0663
  560MOL0     C77192   8.960   4.098   7.742 -0.2862 -0.6480 -0.3242
  560MOL0     N77193   8.384   3.973   7.121 -0.1501 -0.3044  0.7854
  560MOL0     N77194   8.296   3.883   7.131 -0.2803  0.6428  0.2481
  560MOL0     C77195   7.312   4.232   7.621 -0.3569  0.0416  0.1546
  560MOL0     C77196   7.202   4.310   7.664 -0.5595  0.3173 -0.1980
  560MOL0     C77197   6.821   4.428   7.797  0.1226 -0.5280  0.5181
  560MOL0     C77198   6.704   4.362   7.832  0.3808 -0.3374 -0.1405
  560MOL0     C77199   6.610   4.442   7.897  0.3001  1.2485 -1.2562
  560MOL0     C77200   6.626   4.579   7.920 -0.1312  1.1172 -0.6647
  560MOL0     O77201   6.524   4.641   8.001  0.3393 -0.5541  0.7837
  560MOL0     C77202   6.544   4.782   8.037 -0.0423  0.0061  0.2474
  560MOL0     C77203   6.486   4.861   7.916 -0.4065 -0.4599 -0.3916
  560MOL0     C77204   6.424   4.998   7.947 -0.0066  0.2071  0.1097
  560MOL0     C77205   6.310   5.022   7.846 -0.8830 -0.0545  0.6708
  560MOL0     C77206   6.237   5.147   7.875  1.4372  0.0369 -0.5593
  560MOL0     C77207   6.169   5.248   7.890 -0.3889 -0.5395 -0.2477
  560MOL0     C77208   6.753   4.631   7.891  0.4901  0.0478 -0.3067
  560MOL0     C77209   6.854   4.559   7.839 -1.3390  0.5037 -0.8088
  560MOL0     C77210   6.992   4.608   7.850 -0.6031 -0.0511  0.6648
  560MOL0     H77211   7.063   4.418   7.381  1.3594  0.6288  0.0814
  560MOL0     H77212   7.260   4.280   7.283  0.7928 -1.2271  0.7400
  560MOL0     H77213   7.345   4.055   7.258  0.1302 -1.1101  1.3854
  560MOL0     H77214   7.503   4.006   7.320  1.5825  1.7410  0.2611
  560MOL0     H77215   7.538   4.116   7.121 -0.7672  0.0345  0.3183
  560MOL0     H77216   7.439   4.262   7.160 -2.0012 -1.3664 -1.6809
  560MOL0     H77217   7.699   4.296   7.174 -0.3203 -0.4306 -0.5940
  560MOL0     H77218   7.615   4.314   7.337 -1.5822 -2.0732  1.9669
  560MOL0     H77219   7.845   4.225   7.336 -1.0270  2.3782 -2.2990
  560MOL0     H77220   7.726   4.109   7.410  2.2394 -2.1267  0.0865
  560MOL0     H77221   7.792   4.073   7.127 -1.2838 -2.8521 -1.5600
  560MOL0     H77222   7.731   3.965   7.259 -0.0537  0.9847 -0.2000
  560MOL0     H77223   8.014   4.081   7.228  1.1161 -1.1758  0.1212
  560MOL0     H77224   7.958   4.015   7.388  3.6395 -1.8486  0.6127
  560MOL0     H77225   7.966   3.846   7.134 -0.0375  2.9790 -0.9991
  560MOL0     H77226   7.905   3.798   7.300 -1.6591  0.1928 -0.9207
  560MOL0     H77227   8.112   3.808   7.395  1.2859 -0.2123 -0.5687
  560MOL0     H77228   8.115   3.713   7.240 -1.1975 -1.0390  0.8328
  560MOL0     H77229   8.205   4.045   7.396 -1.9154  0.2066 -1.2272
  560MOL0     H77230   8.425   4.270   7.294  0.4915  0.3305 -2.4985
  560MOL0     H77231   8.527   4.204   7.187  0.7849  4.5389  0.6653
  560MOL0     H77232   8.490   4.117   7.488 -0.4125 -0.2590  0.4896
  560MOL0     H77233   8.571   4.018   7.358 -3.3846 -0.1160 -0.2503
  560MOL0     H77234   8.727   4.188   7.317  1.2321 -1.4562  0.7009
  560MOL0     H77235   8.654   4.300   7.434  1.1695  1.0187 -0.7904
  560MOL0     H77236   8.710   4.146   7.624  1.6241  0.7061  0.7409
  560MOL0     H77237   8.780   4.033   7.503 -1.7426 -0.0576 -1.5803
  560MOL0     H77238   9.136   4.303   7.543  3.5610 -2.0901 -0.2202
  560MOL0     H77239   9.349   4.356   7.818 -2.2866  2.1058  1.0117
  560MOL0     H77240   9.287   4.419   7.661 -0.2767 -0.7422 -1.3441
  560MOL0     H77241   9.406   4.287   7.657 -0.1469 -0.3504  1.4019
  560MOL0     H77242   9.458   3.917   8.059 -0.4558 -0.8983  4.0913
  560MOL0     H77243   9.692   3.870   8.182  2.7585  0.6519 -2.1526
  560MOL0     H77244   9.955   4.217   8.261  2.1560  0.4104  0.5643
  560MOL0     H77245   9.835   4.174   8.372  0.3094 -0.3547 -0.7887
  560MOL0     H77246  10.041   4.166   8.487  2.1808  0.7558  0.2778
  560MOL0     H77247  10.006   3.996   8.463 -1.7632  1.8978  2.1128
  560MOL0     H77248  10.179   4.153   8.270  2.4397  0.3341  0.9186
  560MOL0     H77249  10.162   3.975   8.278  1.1299 -0.3896  0.0758
  560MOL0     H77250  10.379   4.013   8.352  0.0124  1.2905 -1.1976
  560MOL0     H77251  10.272   3.965   8.491  1.3767 -0.8820 -0.7713
  560MOL0     H77252  10.364   4.237   8.427 -1.7008 -1.2621 -0.5741
  560MOL0     H77253  10.265   4.186   8.572  1.7127  1.0617  1.6029
  560MOL0     H77254  10.548   4.228   8.588 -2.6193  1.8457 -0.2964
  560MOL0     H77255  10.547   4.066   8.521  0.7454  0.4605  0.8555
  560MOL0     H77256  10.396   3.989   8.694 -0.6309 -0.5202 -2.0232
  560MOL0     H77257  10.423   4.149   8.777  0.8585  1.8809 -3.5743
  560MOL0     H77258  10.632   3.928   8.680  0.9917 -0.3961  0.0701
  560MOL0     H77259  10.604   3.965   8.847 -2.2246  1.4794 -0.7034
  560MOL0     H77260   9.804   4.264   8.125  0.0050 -0.7696  1.6685
  560MOL0     H77261   9.591   4.326   8.016  1.7464 -0.0412  1.4104
  560MOL0     H77262   9.040   4.014   7.915  0.2117  0.0187 -0.2522
  560MOL0     H77263   8.869   4.042   7.760 -1.3235  1.0175 -0.2284
  560MOL0     H77264   7.390   4.190   7.683  0.2515  2.8784  1.4893
  560MOL0     H77265   7.185   4.313   7.771 -0.6795 -1.0119 -0.1687
  560MOL0     H77266   6.698   4.257   7.807  2.7111 -0.4963 -0.3094
  560MOL0     H77267   6.517   4.409   7.943  1.2398 -0.2860 -0.3753
  560MOL0     H77268   6.483   4.799   8.126 -0.0376  1.1626  0.0456
  560MOL0     H77269   6.645   4.810   8.067 -0.7839  1.3165  1.6628
  560MOL0     H77270   6.398   4.802   7.889 -0.0281 -0.8637 -0.7651
  560MOL0     H77271   6.558   4.852   7.834 -1.2250  0.4953 -1.2459
  560MOL0     H77272   6.378   4.985   8.046 -0.5215 -0.0393 -0.1546
  560MOL0     H77273   6.497   5.078   7.940  1.5724 -1.2174 -6.6959
  560MOL0     H77274   6.249   4.933   7.829  0.5174 -1.5309  2.7736
  560MOL0     H77275   6.358   5.026   7.748 -1.6704  1.9011  0.3293
  560MOL0     H77276   6.115   5.341   7.894  0.4089 -0.0986  1.8486
  560MOL0     H77277   6.774   4.733   7.923 -1.7518  0.4294  0.1215
  560MOL0     H77278   7.070   4.533   7.864  1.9175  2.0934 -0.9155
  560MOL0     H77279   7.006   4.659   7.754  4.0453 -0.3243  0.9541
  560MOL0     H77280   7.002   4.682   7.929  0.6600 -1.8871  2.3190
  561MOL0     O77281   9.116   6.113   3.735  0.0305 -0.0333  0.1018
  561MOL0     C77282   9.033   6.164   3.799 -0.1165 -0.0317  0.1926
  561MOL0     O77283   9.036   6.282   3.868  0.2431  0.4546  0.1288
  561MOL0     C77284   9.149   6.351   3.868 -0.3136 -0.2434 -0.2527
  561MOL0     C77285   9.218   6.374   3.746 -0.6796  0.1194  0.5245
  561MOL0     C77286   9.343   6.431   3.739 -0.4955  0.0486 -1.0922
  561MOL0     C77287   9.398   6.472   3.859  0.3416  0.3537 -0.1493
  561MOL0     O77288   9.505   6.561   3.875  0.2414 -0.1359  0.0667
  561MOL0     C77289   9.618   6.530   3.793  0.1442 -0.2161 -1.2200
  561MOL0     C77290   9.719   6.637   3.799 -0.0508 -0.6429  0.2656
  561MOL0     C77291   9.857   6.593   3.733  0.5390 -0.5647 -0.3907
  561MOL0     C77292   9.856   6.482   3.624  0.5488 -0.1678 -0.9932
  561MOL0     C77293   9.991   6.478   3.548  0.1983  0.2618  0.3875
  561MOL0     C77294  10.104   6.413   3.620  0.4131  0.1797  0.2515
  561MOL0     C77295  10.238   6.445   3.548 -0.0301  0.3274 -0.2941
  561MOL0     C77296  10.360   6.392   3.619  0.1104 -0.3137  0.0183
  561MOL0     N77297  10.389   6.252   3.607 -0.8235 -0.5943  1.0173
  561MOL0     C77298  10.425   6.200   3.483 -0.3610  0.3633  0.1785
  561MOL0     C77299  10.422   6.063   3.505 -0.0350 -0.3259 -0.8623
  561MOL0     C77300  10.453   5.952   3.406 -0.6500  0.8172  0.0036
  561MOL0     C77301  10.569   5.859   3.458  0.4361  0.0554 -0.8272
  561MOL0     C77302  10.602   5.747   3.356 -0.4095  0.3931 -0.3033
  561MOL0     C77303  10.730   5.663   3.375  0.1357 -0.1033 -0.4436
  561MOL0     O77304  10.715   5.545   3.290 -0.3377 -0.6835  0.5079
  561MOL0     C77305  10.836   5.481   3.269 -1.0459 -0.3388  0.2498
  561MOL0     C77306  10.834   5.393   3.161 -0.5318  0.4838 -0.1649
  561MOL0     C77307  10.957   5.328   3.120 -0.8149 -0.3509  0.5486
  561MOL0     C77308  10.946   5.246   2.989  0.6019 -0.8282  0.8647
  561MOL0     C77309  11.072   5.337   3.201  0.0490  0.2324 -1.2848
  561MOL0     C77310  11.200   5.269   3.171 -0.5574 -0.3065 -0.0839
  561MOL0     O77311  11.275   5.241   3.284  0.4264  0.7928  0.0992
  561MOL0     C77312  11.389   5.166   3.269 -0.7543  0.0558  0.0940
  561MOL0     C77313  11.505   5.205   3.335  0.2087  0.6881  0.4325
  561MOL0     C77314  11.613   5.115   3.344  0.3239 -0.5588  0.8828
  561MOL0     C77315  11.610   4.987   3.288  0.2865  0.1605 -0.6716
  561MOL0     O77316  11.709   4.899   3.282 -0.3208  0.0298  0.3713
  561MOL0     C77317  11.824   4.948   3.215  0.1993  0.8195 -0.6905
  561MOL0     C77318  11.920   4.829   3.198 -0.0636  0.0584 -0.5437
  561MOL0     C77319  12.058   4.883   3.161  0.2947 -0.0676  0.2315
  561MOL0     C77320  12.158   4.769   3.135  0.4958 -0.1515  0.5393
  561MOL0     C77321  12.262   4.785   3.035  0.7983 -0.4179  1.3950
  561MOL0     C77322  12.375   4.864   3.100  0.1872 -0.3328 -0.8974
  561MOL0     C77323  12.512   4.872   3.029  0.4475  0.0740  0.0713
  561MOL0     C77324  12.571   4.737   2.985  0.4540 -0.1473  0.2199
  561MOL0    Cl77325  12.512   4.672   2.824 -0.1919  0.1153 -0.2890
  561MOL0     C77326  11.491   4.946   3.226  0.0947 -1.0872 -0.4133
  561MOL0     C77327  11.381   5.040   3.213 -1.2029  0.1978  0.2728
  561MOL0     O77328  11.240   5.258   3.052  0.1852 -0.2560  0.0084
  561MOL0     C77329  11.059   5.411   3.320  0.6432 -0.1833 -0.5304
  561MOL0     C77330  10.941   5.487   3.348 -0.5047 -0.2228 -0.1532
  561MOL0     N77331  10.385   6.036   3.640 -1.3814 -0.6871  0.2414
  561MOL0     N77332  10.361   6.152   3.696  0.8849  0.5747 -1.0038
  561MOL0     C77333   9.336   6.441   3.990  0.2130 -0.8469 -0.2957
  561MOL0     C77334   9.217   6.385   3.988  1.1291  1.2923  1.1724
  561MOL0     C77335   8.911   6.093   3.828 -0.5578 -0.0854 -0.8444
  561MOL0     C77336   8.796   6.173   3.847  0.2414 -0.1404  0.3830
  561MOL0     C77337   8.688   6.112   3.909 -0.2127 -0.5473  1.1063
  561MOL0     C77338   8.693   5.972   3.949  0.7636  0.0050  0.4182
  561MOL0     O77339   8.595   5.896   4.010  0.5737  0.3990 -0.5511
  561MOL0     C77340   8.511   5.972   4.101  0.3862  0.0303  0.3157
  561MOL0     C77341   8.434   5.864   4.185 -0.4471  0.3659 -0.2181
  561MOL0     C77342   8.535   5.796   4.272  0.9206  0.4123  0.5780
  561MOL0     C77343   8.576   5.868   4.400  1.0867  0.7017  0.0560
  561MOL0     C77344   8.651   5.774   4.482  0.6635 -0.4377  0.1829
  561MOL0     C77345   8.724   5.699   4.548  0.0757 -0.6060  0.1344
  561MOL0     C77346   8.805   5.896   3.913  0.8879  0.1719 -0.1170
  561MOL0     C77347   8.914   5.952   3.855 -0.0555  0.1960 -0.7764
  561MOL0     C77348   9.031   5.869   3.829  0.3499  0.1311  1.2497
  561MOL0     H77349   9.164   6.347   3.656 -1.2278 -1.2936  1.2451
  561MOL0     H77350   9.403   6.446   3.649  2.2939 -0.9987  0.4516
  561MOL0     H77351   9.592   6.521   3.687 -1.3597  1.5422 -1.0447
  561MOL0     H77352   9.655   6.434   3.830 -1.3983 -0.4106 -0.0967
  561MOL0     H77353   9.684   6.715   3.731  2.4860 -0.6625 -1.1854
  561MOL0     H77354   9.735   6.678   3.900  0.0910  0.4896 -0.2008
  561MOL0     H77355   9.909   6.685   3.704  0.0636  1.2973  3.8714
  561MOL0     H77356   9.934   6.575   3.809  1.5210  4.1175 -0.0091
  561MOL0     H77357   9.843   6.391   3.684  0.1802  0.3596 -0.2487
  561MOL0     H77358   9.776   6.499   3.552  1.3717  0.5970 -1.7454
  561MOL0     H77359  10.027   6.575   3.512  2.0830 -0.5454  0.0098
  561MOL0     H77360   9.981   6.410   3.463  0.4226 -0.2727  0.7828
  561MOL0     H77361  10.105   6.447   3.724 -3.9502  0.7049  0.3088
  561MOL0     H77362  10.086   6.305   3.617 -1.6689  0.5043 -1.5793
  561MOL0     H77363  10.247   6.553   3.535  2.8159  0.3339  1.0400
  561MOL0     H77364  10.228   6.396   3.450 -2.5182  0.1786 -0.0534
  561MOL0     H77365  10.436   6.454   3.571 -3.0178  2.8269 -1.3257
  561MOL0     H77366  10.358   6.415   3.726 -1.6471  0.3771 -0.1419
  561MOL0     H77367  10.442   6.244   3.386 -0.8765  0.4176  0.1098
  561MOL0     H77368  10.482   5.994   3.309  0.5332 -1.0926 -0.5146
  561MOL0     H77369  10.363   5.895   3.380  0.6194 -0.6483 -1.3938
  561MOL0     H77370  10.658   5.919   3.482 -0.6433  0.8209  1.5412
  561MOL0     H77371  10.544   5.812   3.553  1.2450 -1.7986 -1.4793
  561MOL0     H77372  10.518   5.678   3.362 -2.8313  3.0176 -1.7625
  561MOL0     H77373  10.593   5.796   3.258 -0.8023  2.4007  0.6688
  561MOL0     H77374  10.819   5.723   3.353  1.2006 -0.6679  2.0788
  561MOL0     H77375  10.723   5.632   3.479  0.4531  0.6083 -0.2055
  561MOL0     H77376  10.738   5.390   3.111 -0.5071  0.4629 -0.2116
  561MOL0     H77377  10.980   5.297   2.898  0.6257 -1.2019  0.6599
  561MOL0     H77378  10.842   5.218   2.970  0.5515  0.5864 -1.3746
  561MOL0     H77379  11.008   5.156   3.000  1.0853 -0.3879  1.8844
  561MOL0     H77380  11.498   5.299   3.389 -1.5243  0.7540  0.1444
  561MOL0     H77381  11.695   5.142   3.410 -1.1109  1.5257  1.9329
  561MOL0     H77382  11.792   4.991   3.120  1.1845  3.5069  0.1119
  561MOL0     H77383  11.869   5.026   3.277  1.1224 -0.1821 -0.0465
  561MOL0     H77384  11.927   4.778   3.295 -0.4141  2.6319  0.9347
  561MOL0     H77385  11.879   4.762   3.122 -1.1660  2.4544 -2.1787
  561MOL0     H77386  12.097   4.947   3.240 -0.1393  1.3410 -0.6550
  561MOL0     H77387  12.063   4.947   3.073  1.0476 -0.1207  0.2307
  561MOL0     H77388  12.108   4.677   3.105 -0.9289  1.0242 -0.8439
  561MOL0     H77389  12.203   4.730   3.227  0.9580  1.3042  0.9536
  561MOL0     H77390  12.288   4.684   3.003 -0.4725 -0.9667  2.0144
  561MOL0     H77391  12.215   4.837   2.951  0.6803  1.2942  2.4808
  561MOL0     H77392  12.394   4.821   3.199 -0.7924  2.5242  0.6337
  561MOL0     H77393  12.347   4.964   3.134  1.8682 -0.0205 -0.3194
  561MOL0     H77394  12.570   4.917   3.110 -0.5861 -1.6895  1.8702
  561MOL0     H77395  12.494   4.933   2.940  0.6063 -2.3442 -1.7124
  561MOL0     H77396  12.542   4.668   3.065 -0.5126  0.6887  0.6156
  561MOL0     H77397  12.680   4.742   2.985  0.3972  1.9373 -0.0198
  561MOL0     H77398  11.488   4.849   3.177  1.9080 -2.3062  1.7156
  561MOL0     H77399  11.286   5.009   3.171 -1.8807  0.5510  1.4818
  561MOL0     H77400  11.144   5.422   3.386  0.3353 -2.8375  0.4189
  561MOL0     H77401  10.948   5.551   3.436 -1.2240 -0.7102  0.2678
  561MOL0     H77402   9.382   6.481   4.080 -0.1563 -2.3374  0.5982
  561MOL0     H77403   9.158   6.368   4.078 -0.4217  0.4396  0.0396
  561MOL0     H77404   8.798   6.276   3.811 -2.4335 -0.1265  0.1308
  561MOL0     H77405   8.599   6.162   3.946  0.4595 -0.2291  2.3699
  561MOL0     H77406   8.578   6.043   4.151  0.9815  0.6467 -1.3009
  561MOL0     H77407   8.438   6.032   4.047 -0.0096  0.5055  1.3549
  561MOL0     H77408   8.394   5.784   4.122 -0.5034 -0.4821  0.8811
  561MOL0     H77409   8.348   5.910   4.235 -1.0140 -1.7409  0.8482
  561MOL0     H77410   8.500   5.697   4.301  1.5752 -0.0461 -0.1541
  561MOL0     H77411   8.626   5.768   4.217  0.7138  0.8332  0.0010
  561MOL0     H77412   8.486   5.902   4.452  1.5617 -0.3801  1.6849
  561MOL0     H77413   8.644   5.953   4.387 -0.2953  1.4718 -2.8920
  561MOL0     H77414   8.800   5.642   4.597  0.2235  2.0375  3.2877
  561MOL0     H77415   8.793   5.789   3.927 -0.9250  0.2747 -0.6962
  561MOL0     H77416   9.060   5.859   3.724 -1.1322  2.2433  0.5638
  561MOL0     H77417   9.113   5.903   3.892  0.9923  0.6901  0.1325
  561MOL0     H77418   8.996   5.769   3.857 -0.7101 -0.1729 -0.9115
  562MOL0     O77419   5.354   7.153   7.393 -0.0214 -0.4603 -0.3160
  562MOL0     C77420   5.341   7.275   7.387 -0.1196 -0.7868 -0.4547
  562MOL0     O77421   5.443   7.371   7.376 -0.4838  0.2061 -0.5566
  562MOL0     C77422   5.572   7.321   7.350  0.4081  0.3205  0.1367
  562MOL0     C77423   5.619   7.283   7.223  0.4314 -0.1258 -0.5908
  562MOL0     C77424   5.761   7.249   7.216  0.5784  0.5794  0.3710
  562MOL0     C77425   5.850   7.266   7.325  0.3711 -0.1390 -0.4876
  562MOL0     O77426   5.987   7.253   7.316 -0.1815  0.2630  0.3790
  562MOL0     C77427   6.047   7.230   7.186 -0.3515 -0.1627 -0.2122
  562MOL0     C77428   6.199   7.238   7.182  0.3448  0.1266 -0.0861
  562MOL0     C77429   6.253   7.163   7.059 -0.5385  0.0614  0.1461
  562MOL0     C77430   6.402   7.137   7.076 -0.6017 -0.2115  0.1640
  562MOL0     C77431   6.449   7.054   6.953  0.1784  0.0290 -0.3356
  562MOL0     C77432   6.597   7.030   6.960  0.3040  0.2022  0.0687
  562MOL0     C77433   6.661   6.945   6.845 -0.0460  0.2280  0.2493
  562MOL0     C77434   6.684   7.028   6.724 -0.6503  0.6126 -0.6331
  562MOL0     N77435   6.818   7.096   6.731  0.2984  0.1083 -0.4556
  562MOL0     C77436   6.933   7.041   6.774 -0.2091 -0.0350  0.5491
  562MOL0     C77437   7.036   7.135   6.744  0.0783 -0.0781 -0.3697
  562MOL0     C77438   7.186   7.138   6.780 -0.1086 -0.1110 -0.4683
  562MOL0     C77439   7.272   7.219   6.676 -0.6325  0.0058  0.1427
  562MOL0     C77440   7.292   7.368   6.721  0.6843 -0.0841  0.5480
  562MOL0     C77441   7.376   7.444   6.613  0.2829  0.1918  0.4953
  562MOL0     O77442   7.512   7.410   6.639 -0.6280 -0.2624  0.4960
  562MOL0     C77443   7.602   7.449   6.539 -0.1002  0.1052 -0.4689
  562MOL0     C77444   7.722   7.385   6.539  0.0129  0.1480  0.5333
  562MOL0     C77445   7.830   7.431   6.453 -1.0221  0.3133 -0.5379
  562MOL0     C77446   7.953   7.351   6.450  0.2734  0.1958 -0.0889
  562MOL0     C77447   7.814   7.547   6.369  0.2773  0.9301  0.3827
  562MOL0     C77448   7.919   7.593   6.269  0.0001  0.0587 -0.4472
  562MOL0     O77449   7.878   7.655   6.158 -0.2294 -0.1577  1.2278
  562MOL0     C77450   7.974   7.708   6.077 -0.1835 -0.1246 -0.3905
  562MOL0     C77451   8.027   7.631   5.974  0.1826  0.7455 -1.3860
  562MOL0     C77452   8.119   7.684   5.890 -1.3492  0.1127 -0.0301
  562MOL0     C77453   8.169   7.814   5.902  0.5703  0.4794  0.0214
  562MOL0     O77454   8.277   7.852   5.827  0.5265  0.2884 -0.2783
  562MOL0     C77455   8.237   7.918   5.713 -0.8422  0.1839  0.7199
  562MOL0     C77456   8.278   7.829   5.589  0.2614  0.3209 -0.1814
  562MOL0     C77457   8.293   7.914   5.459  0.0355  1.3767 -0.0212
  562MOL0     C77458   8.157   7.950   5.399 -0.1554 -0.3509  0.2944
  562MOL0     C77459   8.169   8.003   5.249  0.8304 -0.2723 -0.2141
  562MOL0     C77460   8.192   8.152   5.252 -0.8628 -0.5897  0.2619
  562MOL0     C77461   8.168   8.210   5.108  0.5286 -0.0879  0.1610
  562MOL0     C77462   8.064   8.319   5.111  0.0288 -0.5849  0.3962
  562MOL0    Cl77463   8.127   8.476   5.157 -0.1940  0.3257  0.1757
  562MOL0     C77464   8.115   7.895   6.002  1.4496 -0.2054 -0.2368
  562MOL0     C77465   8.014   7.841   6.088 -0.5840  0.3525  0.3875
  562MOL0     O77466   8.030   7.602   6.315 -0.9719 -0.1546  0.3506
  562MOL0     C77467   7.688   7.602   6.370  0.1539  0.0383  0.2476
  562MOL0     C77468   7.581   7.555   6.452 -0.9993  0.2994 -0.2232
  562MOL0     N77469   6.966   7.250   6.708 -0.2919 -0.2807 -0.1487
  562MOL0     N77470   6.839   7.221   6.683 -0.2599 -0.0213 -0.3758
  562MOL0     C77471   5.796   7.316   7.441  1.2230  0.7058 -0.0701
  562MOL0     C77472   5.655   7.339   7.451 -0.3872  0.4943 -0.5624
  562MOL0     C77473   5.203   7.325   7.390 -0.1301  0.3708  0.0691
  562MOL0     C77474   5.175   7.446   7.325 -0.3600 -0.0531  0.0395
  562MOL0     C77475   5.051   7.500   7.314 -0.4681  0.3125 -0.3294
  562MOL0     C77476   4.941   7.442   7.385  0.0548  0.3538  0.4355
  562MOL0     O77477   4.809   7.480   7.386 -0.5766  0.2388  0.7792
  562MOL0     C77478   4.776   7.613   7.358 -0.3019 -0.4815  0.1709
  562MOL0     C77479   4.735   7.627   7.214 -0.0086  0.7888  1.3170
  562MOL0     C77480   4.653   7.510   7.164  0.5121 -1.0990  0.4382
  562MOL0     C77481   4.594   7.539   7.027 -0.1890 -0.6858  0.6483
  562MOL0     C77482   4.663   7.471   6.921 -0.7187 -1.2118 -0.5379
  562MOL0     C77483   4.706   7.420   6.824 -0.2184 -0.0606  0.2331
  562MOL0     C77484   4.963   7.329   7.455 -0.6470  0.1350  0.1056
  562MOL0     C77485   5.094   7.264   7.461  0.0421 -1.2543 -0.6386
  562MOL0     C77486   5.106   7.142   7.552 -0.3934  1.5802 -0.5780
  562MOL0     H77487   5.538   7.278   7.151  0.1410 -0.7572 -0.2281
  562MOL0     H77488   5.812   7.220   7.125  1.1068  1.2045  0.4582
  562MOL0     H77489   6.008   7.307   7.118 -0.9864 -0.8497 -0.6471
  562MOL0     H77490   6.023   7.131   7.147  1.5422 -0.3773 -0.9420
  562MOL0     H77491   6.239   7.340   7.182 -2.1038  1.1617  0.5411
  562MOL0     H77492   6.231   7.181   7.271  2.2692  2.9230  1.1410
  562MOL0     H77493   6.212   7.062   7.060 -2.2822  0.7233 -0.0124
  562MOL0     H77494   6.231   7.209   6.962 -1.9009  0.6748  0.7030
  562MOL0     H77495   6.456   7.232   7.068  0.3375 -0.8692 -2.2794
  562MOL0     H77496   6.436   7.082   7.164  2.8967  1.9516  0.3859
  562MOL0     H77497   6.434   7.107   6.859  2.0910  0.6266 -0.3315
  562MOL0     H77498   6.389   6.962   6.948 -0.3753  0.3196  0.6095
  562MOL0     H77499   6.641   7.130   6.968 -0.0927  0.4257 -0.4599
  562MOL0     H77500   6.618   6.975   7.052  1.3383  0.8126  0.2169
  562MOL0     H77501   6.601   6.857   6.818  0.4889 -0.3753  0.9787
  562MOL0     H77502   6.750   6.897   6.886  1.3908  3.2732  0.9550
  562MOL0     H77503   6.691   6.963   6.636  1.0027  0.2619 -0.2785
  562MOL0     H77504   6.608   7.101   6.694 -0.6274  0.0971 -2.0167
  562MOL0     H77505   6.937   6.943   6.822  1.4782 -0.0704  0.4007
  562MOL0     H77506   7.235   7.041   6.793  1.1494  0.8173  2.9574
  562MOL0     H77507   7.195   7.183   6.880 -1.7289 -0.0485 -0.3159
  562MOL0     H77508   7.370   7.169   6.683  0.0776  0.8810 -2.4562
  562MOL0     H77509   7.236   7.204   6.574 -3.3811  2.8429  0.5622
  562MOL0     H77510   7.192   7.413   6.724  0.2446 -0.8389 -1.2912
  562MOL0     H77511   7.325   7.371   6.826 -1.2398 -0.6641  1.2201
  562MOL0     H77512   7.342   7.412   6.514  1.2902 -1.6380  0.7070
  562MOL0     H77513   7.359   7.551   6.629  0.2217 -0.0131  1.9380
  562MOL0     H77514   7.738   7.301   6.606 -2.0244 -0.4063  0.3756
  562MOL0     H77515   7.956   7.261   6.513 -1.3024 -0.0443 -0.3031
  562MOL0     H77516   8.043   7.403   6.484  0.1317  0.2127  0.2679
  562MOL0     H77517   7.974   7.334   6.344  1.5509  1.4123 -0.0497
  562MOL0     H77518   7.987   7.530   5.971  1.2567  0.2278  0.2472
  562MOL0     H77519   8.162   7.614   5.819  1.4891  2.4552 -0.8576
  562MOL0     H77520   8.130   7.940   5.709 -1.2063 -1.5689  0.1316
  562MOL0     H77521   8.296   8.010   5.701  1.5618 -1.2732  0.6313
  562MOL0     H77522   8.374   7.783   5.615 -0.2939 -1.1396 -0.5758
  562MOL0     H77523   8.206   7.748   5.573  0.7672 -0.9288  3.1103
  562MOL0     H77524   8.338   7.855   5.379  1.3201  1.0937  0.8845
  562MOL0     H77525   8.339   8.011   5.483 -0.3246  1.2822  1.1130
  562MOL0     H77526   8.107   8.016   5.470  0.8162 -0.9153  1.5339
  562MOL0     H77527   8.099   7.857   5.398 -0.9069  0.0832 -1.5412
  562MOL0     H77528   8.257   7.953   5.206  2.2911  2.4565 -0.6290
  562MOL0     H77529   8.081   7.975   5.190  1.2459 -0.5057 -0.7361
  562MOL0     H77530   8.295   8.171   5.283 -0.8653 -1.8828  1.1348
  562MOL0     H77531   8.129   8.195   5.331 -0.0336  2.1444 -0.4471
  562MOL0     H77532   8.133   8.137   5.034  1.4080 -0.6972  0.3142
  562MOL0     H77533   8.268   8.238   5.075  0.5702 -2.2289 -1.7875
  562MOL0     H77534   7.978   8.287   5.170  0.2477  2.8095  2.9058
  562MOL0     H77535   8.026   8.331   5.009 -2.5742  1.4276  1.4819
  562MOL0     H77536   8.150   7.992   6.035 -1.6243  1.2692 -0.9854
  562MOL0     H77537   7.978   7.897   6.174  2.2044  1.1862  1.1458
  562MOL0     H77538   7.666   7.686   6.304 -0.9785 -1.6453 -1.6516
  562MOL0     H77539   7.482   7.601   6.447 -1.2704 -0.3737 -2.0984
  562MOL0     H77540   5.850   7.335   7.534 -1.8871  2.5909  1.5245
  562MOL0     H77541   5.616   7.370   7.547  0.4327 -2.3320  0.8127
  562MOL0     H77542   5.255   7.492   7.268 -0.8785 -0.2731 -0.8854
  562MOL0     H77543   5.040   7.580   7.241  1.1376 -0.1023 -1.0829
  562MOL0     H77544   4.687   7.638   7.416 -1.8402 -0.4655 -2.0555
  562MOL0     H77545   4.857   7.684   7.379  0.5349 -0.4194 -2.8079
  562MOL0     H77546   4.825   7.636   7.151 -1.2923  1.1343 -0.5570
  562MOL0     H77547   4.674   7.717   7.210 -2.3931 -0.7622  0.5683
  562MOL0     H77548   4.704   7.413   7.167  3.0260  0.1613  1.5745
  562MOL0     H77549   4.563   7.504   7.227 -0.2621 -0.9781 -0.6220
  562MOL0     H77550   4.602   7.648   7.012 -3.9024 -0.5901 -1.8895
  562MOL0     H77551   4.485   7.532   7.022 -0.2862  0.2248  1.1538
  562MOL0     H77552   4.750   7.381   6.734  0.8357 -0.3968  0.8750
  562MOL0     H77553   4.880   7.279   7.505 -0.1974  0.9636  1.7519
  562MOL0     H77554   5.193   7.142   7.618 -1.2637 -0.8905  0.6909
  562MOL0     H77555   5.022   7.108   7.613  0.8645 -0.9987 -0.1571
  562MOL0     H77556   5.115   7.055   7.487 -1.4780  1.8739 -1.1503
  563MOL0     O77557  10.642   0.038   3.813 -0.1065  0.3542 -0.3928
  563MOL0     C77558  10.667   0.028   3.694  0.2093 -0.4476  0.6778
  563MOL0     O77559  10.792   0.055   3.636 -1.4044 -0.3706  0.2256
  563MOL0     C77560  10.906   0.059   3.704 -0.3888 -0.3562 -0.8310
  563MOL0     C77561  10.924  -0.019   3.824  0.2973 -0.5349 -0.3960
  563MOL0     C77562  11.050  -0.023   3.889  0.1192 -0.3923 -0.8912
  563MOL0     C77563  11.157   0.054   3.840  0.5609 -0.1873  0.7358
  563MOL0     O77564  11.285   0.044   3.890  0.4233  0.9049 -0.3342
  563MOL0     C77565  11.322  -0.075   3.970 -0.5782 -0.7200 -0.6870
  563MOL0     C77566  11.465  -0.087   3.981 -0.1044 -0.3873  0.2086
  563MOL0     C77567  11.509  -0.222   4.036 -0.1972 -0.1442  0.0780
  563MOL0     C77568  11.652  -0.260   4.003 -0.3904 -0.3758 -0.0872
  563MOL0     C77569  11.752  -0.138   4.011 -0.2366 -0.0194  0.1370
  563MOL0     C77570  11.897  -0.192   3.973 -0.5961  0.3004 -0.7293
  563MOL0     C77571  11.951  -0.260   4.098 -0.2249 -0.7906 -0.5522
  563MOL0     C77572  11.948  -0.411   4.083  0.0133  0.4491  0.7409
  563MOL0     N77573  12.025  -0.464   3.964 -0.0575  0.9534 -0.3828
  563MOL0     C77574  12.159  -0.472   3.947 -0.4314 -0.3313  0.1745
  563MOL0     C77575  12.184  -0.531   3.831  0.1231  0.0537  0.9884
  563MOL0     C77576  12.335  -0.558   3.786 -0.1567  0.4477 -0.2716
  563MOL0     C77577  12.391  -0.672   3.853  0.1738  0.0998  0.1212
  563MOL0     C77578  12.540  -0.682   3.830 -0.0904 -0.7192 -0.8707
  563MOL0     C77579  12.589  -0.820   3.873 -0.0297  0.1302 -0.7167
  563MOL0     O77580  12.733  -0.832   3.839  0.3761  0.2312 -0.3102
  563MOL0     C77581  12.784  -0.962   3.856  0.6186 -0.9054 -0.2611
  563MOL0     C77582  12.927  -0.963   3.882  0.7140  0.3642 -0.0496
  563MOL0     C77583  13.002  -1.084   3.900  0.5423 -0.7078  0.1496
  563MOL0     C77584  13.149  -1.077   3.941 -0.3874  1.0090 -0.3719
  563MOL0     C77585  12.932  -1.207   3.886 -0.2659  0.2156  0.0428
  563MOL0     C77586  12.997  -1.337   3.914  0.4288  1.9237  0.4865
  563MOL0     O77587  13.129  -1.361   3.861  0.4211 -0.6087 -0.1711
  563MOL0     C77588  13.195  -1.474   3.887 -0.3137 -1.0958  0.1995
  563MOL0     C77589  13.149  -1.603   3.900  0.5952 -0.4034 -0.3307
  563MOL0     C77590  13.219  -1.694   3.962 -0.5402 -0.2106  0.0061
  563MOL0     C77591  13.354  -1.674   4.005  0.8906 -0.3515 -0.1720
  563MOL0     O77592  13.413  -1.777   4.063 -0.3468  0.6137  1.1343
  563MOL0     C77593  13.551  -1.766   4.099 -0.0521  1.2771 -0.1517
  563MOL0     C77594  13.588  -1.895   4.171 -0.1926 -0.0129  0.1793
  563MOL0     C77595  13.584  -2.004   4.062 -0.4314  0.2980 -0.0285
  563MOL0     C77596  13.655  -2.128   4.111 -0.9671  0.8124 -0.8961
  563MOL0     C77597  13.670  -2.235   4.000 -0.1455  0.8026  0.6835
  563MOL0     C77598  13.784  -2.330   4.026  0.0171  0.1504 -0.0422
  563MOL0     C77599  13.769  -2.464   3.963 -0.3926 -0.4723  0.4860
  563MOL0     C77600  13.793  -2.451   3.814 -0.1946  0.1288 -1.1079
  563MOL0    Cl77601  13.967  -2.436   3.759  0.0066 -0.0093  0.3041
  563MOL0     C77602  13.406  -1.549   3.984 -0.4264  0.3212 -0.6187
  563MOL0     C77603  13.327  -1.453   3.931 -0.2270 -0.6499 -0.3600
  563MOL0     O77604  12.924  -1.423   3.969 -0.3331 -0.5055  0.5263
  563MOL0     C77605  12.793  -1.204   3.863  0.6554  0.2582 -1.4103
  563MOL0     C77606  12.717  -1.086   3.834  0.5386 -0.2300  0.4934
  563MOL0     N77607  12.070  -0.547   3.766 -0.1318 -0.4548 -0.0871
  563MOL0     N77608  11.970  -0.507   3.841 -0.9875 -0.4279  0.3553
  563MOL0     C77609  11.138   0.127   3.724  0.0139 -0.1195 -0.0159
  563MOL0     C77610  11.021   0.130   3.659  0.2781 -0.2475 -0.1315
  563MOL0     C77611  10.542   0.002   3.609  1.3891 -0.1215 -0.4112
  563MOL0     C77612  10.415   0.020   3.670  0.6282 -1.2405 -0.4866
  563MOL0     C77613  10.297   0.000   3.601  0.4360 -0.6164  0.9867
  563MOL0     C77614  10.298  -0.048   3.471  0.0660 -0.5017 -0.3526
  563MOL0     O77615  10.182  -0.063   3.410 -0.1799  0.1849  0.0292
  563MOL0     C77616  10.180  -0.115   3.277  0.7202  0.3093  1.2280
  563MOL0     C77617  10.038  -0.092   3.220 -0.8416  0.0768 -0.7089
  563MOL0     C77618   9.927  -0.066   3.321  0.4333  0.0965 -0.3185
  563MOL0     C77619   9.804  -0.015   3.242 -0.5502 -0.0589  0.2098
  563MOL0     C77620   9.694   0.029   3.327 -0.6838 -0.8218 -0.0951
  563MOL0     C77621   9.605   0.069   3.395 -0.0059  0.0575 -0.3437
  563MOL0     C77622  10.422  -0.081   3.415 -0.0877  0.5994 -0.0556
  563MOL0     C77623  10.543  -0.067   3.484 -0.0717  0.2237  0.6500
  563MOL0     C77624  10.670  -0.106   3.421  0.2636  0.0665 -0.2121
  563MOL0     H77625  10.847  -0.077   3.874  2.3376  1.0692  5.4092
  563MOL0     H77626  11.061  -0.069   3.987  3.0513  0.6519 -0.6402
  563MOL0     H77627  11.288  -0.169   3.925 -1.5751 -1.4924  1.5589
  563MOL0     H77628  11.273  -0.073   4.068 -0.0682 -0.8823 -0.4280
  563MOL0     H77629  11.508  -0.079   3.881  1.1518 -4.0215  0.3250
  563MOL0     H77630  11.511  -0.018   4.052 -3.7998  0.9153  1.5713
  563MOL0     H77631  11.508  -0.215   4.145  1.0069  1.0385  0.0434
  563MOL0     H77632  11.443  -0.301   3.999 -0.1665 -0.2519  0.2536
  563MOL0     H77633  11.682  -0.335   4.077 -0.3813  0.2477  0.5405
  563MOL0     H77634  11.654  -0.317   3.909  3.2986 -1.8266  0.7221
  563MOL0     H77635  11.748  -0.090   4.109  1.6777 -1.3093  0.9017
  563MOL0     H77636  11.733  -0.065   3.931  1.2117  1.7349  1.3263
  563MOL0     H77637  11.893  -0.251   3.880 -0.5095  0.7364 -1.0127
  563MOL0     H77638  11.958  -0.108   3.939 -1.4917  0.0388 -3.2822
  563MOL0     H77639  11.916  -0.214   4.192 -0.3143 -0.1211 -0.9026
  563MOL0     H77640  12.057  -0.234   4.103 -1.0559  3.0119  0.7790
  563MOL0     H77641  12.006  -0.455   4.165  0.1977  2.0241  1.4947
  563MOL0     H77642  11.848  -0.454   4.080 -1.4121  3.5357 -2.5818
  563MOL0     H77643  12.236  -0.438   4.015  0.4212 -0.5468 -0.6764
  563MOL0     H77644  12.397  -0.468   3.793  2.0176 -1.0175  0.2315
  563MOL0     H77645  12.348  -0.583   3.680 -0.1224 -2.3584  0.3186
  563MOL0     H77646  12.365  -0.675   3.959 -2.6739 -0.4744 -0.5169
  563MOL0     H77647  12.349  -0.759   3.800 -2.7765  1.1438  0.5594
  563MOL0     H77648  12.558  -0.674   3.723  1.3744 -1.3264 -0.6885
  563MOL0     H77649  12.585  -0.597   3.882 -1.7418  1.6176 -3.0182
  563MOL0     H77650  12.566  -0.845   3.977  2.0164  0.9437 -0.0148
  563MOL0     H77651  12.528  -0.895   3.822 -0.3230 -0.6852  0.7739
  563MOL0     H77652  12.981  -0.870   3.900  2.5101 -0.5542 -0.4519
  563MOL0     H77653  13.223  -1.118   3.871  0.6852 -0.5281  1.5607
  563MOL0     H77654  13.154  -1.129   4.037 -2.7621  1.4723  0.0510
  563MOL0     H77655  13.175  -0.973   3.966 -2.9358  0.8678  3.6370
  563MOL0     H77656  13.050  -1.630   3.867 -0.0324 -1.4950  2.1881
  563MOL0     H77657  13.176  -1.791   3.982  0.5457 -0.8570 -0.6926
  563MOL0     H77658  13.612  -1.753   4.009  0.8032  0.4190  0.2863
  563MOL0     H77659  13.572  -1.686   4.171 -0.6287  2.4416 -1.2370
  563MOL0     H77660  13.687  -1.881   4.216  0.7151  0.4657 -1.8346
  563MOL0     H77661  13.520  -1.918   4.253  0.2268  2.9841  1.5181
  563MOL0     H77662  13.635  -1.965   3.974 -0.3686  2.2156  0.8163
  563MOL0     H77663  13.483  -2.034   4.034 -1.7464  2.6145  1.9163
  563MOL0     H77664  13.604  -2.172   4.197  0.3247 -2.6305 -1.7272
  563MOL0     H77665  13.757  -2.105   4.145 -0.6730 -1.4659 -0.0277
  563MOL0     H77666  13.577  -2.292   3.989 -0.3801  1.0254  1.4473
  563MOL0     H77667  13.685  -2.189   3.902  2.3044 -1.7584 -0.2910
  563MOL0     H77668  13.798  -2.360   4.130  2.2085 -1.0269 -0.6013
  563MOL0     H77669  13.880  -2.288   3.994  1.6651 -2.9808  0.3119
  563MOL0     H77670  13.672  -2.506   3.990  0.3177 -1.9709  0.8322
  563MOL0     H77671  13.850  -2.520   4.011  1.2897  1.4938  0.0430
  563MOL0     H77672  13.751  -2.368   3.757  2.8586  1.2900 -1.8551
  563MOL0     H77673  13.743  -2.540   3.774 -0.1428  0.6922 -2.4698
  563MOL0     H77674  13.505  -1.525   4.021 -1.7432  1.8337  2.2110
  563MOL0     H77675  13.366  -1.352   3.920 -5.1091  1.6197  0.1773
  563MOL0     H77676  12.734  -1.296   3.871 -0.5760  1.1105 -0.3192
  563MOL0     H77677  12.611  -1.091   3.812  0.8951  2.0843 -2.4668
  563MOL0     H77678  11.229   0.177   3.693  0.2809 -0.8471 -0.4323
  563MOL0     H77679  11.011   0.191   3.570  0.2291  0.3909  0.3068
  563MOL0     H77680  10.412   0.081   3.760  1.9810  3.3048 -3.2078
  563MOL0     H77681  10.202   0.022   3.648 -2.0401 -2.0329 -2.8894
  563MOL0     H77682  10.253  -0.067   3.211  0.6310  0.3198  1.1376
  563MOL0     H77683  10.194  -0.223   3.276 -3.1178 -0.3241  0.5249
  563MOL0     H77684  10.007  -0.186   3.175  4.1844 -1.5125 -1.4482
  563MOL0     H77685  10.034  -0.011   3.147 -0.9589 -0.4018 -1.2367
  563MOL0     H77686   9.922  -0.160   3.378  0.2567  0.2042 -0.1545
  563MOL0     H77687   9.954   0.013   3.392  0.6119 -0.2614  0.0135
  563MOL0     H77688   9.766  -0.069   3.154 -0.0857  1.6330 -1.0769
  563MOL0     H77689   9.834   0.083   3.204 -3.3088  0.2782 -1.3728
  563MOL0     H77690   9.518   0.094   3.452 -1.3628 -0.6844 -2.0418
  563MOL0     H77691  10.430  -0.125   3.316 -0.9297 -1.1796  0.6139
  563MOL0     H77692  10.731  -0.165   3.490 -1.0169  1.9207  2.6667
  563MOL0     H77693  10.658  -0.170   3.333  0.1970  3.0594 -2.5501
  563MOL0     H77694  10.721  -0.014   3.390 -0.0662 -0.2668 -1.8551
  564MOL0     O77695  10.419   0.452   4.303  0.2412  0.0779  0.0980
  564MOL0     C77696  10.383   0.340   4.298 -0.6198 -0.3821 -0.2652
  564MOL0     O77697  10.476   0.240   4.279 -0.4190 -0.8144 -0.1845
  564MOL0     C77698  10.608   0.273   4.268 -0.2179  1.0657  0.2581
  564MOL0     C77699  10.683   0.226   4.159  1.2440  0.6920  0.5051
  564MOL0     C77700  10.824   0.231   4.150  0.7746 -0.5403  0.0041
  564MOL0     C77701  10.886   0.292   4.252 -0.1900 -1.1048  0.3881
  564MOL0     O77702  11.024   0.294   4.250  0.2893 -0.0509  0.9246
  564MOL0     C77703  11.103   0.405   4.304 -0.6505  0.9252  0.0524
  564MOL0     C77704  11.178   0.465   4.181 -0.7675  0.4360 -0.9441
  564MOL0     C77705  11.297   0.553   4.217 -0.3312  0.8007  0.0794
  564MOL0     C77706  11.433   0.472   4.227  0.4487  0.3352 -1.3177
  564MOL0     C77707  11.553   0.576   4.238  0.3664 -0.0796 -0.4808
  564MOL0     C77708  11.689   0.512   4.271 -0.3187  0.2272 -0.3631
  564MOL0     C77709  11.792   0.628   4.258 -0.2308 -0.0268 -0.6741
  564MOL0     C77710  11.937   0.593   4.271  0.2124 -0.0046 -0.8224
  564MOL0     N77711  12.028   0.703   4.249  0.8622 -0.2880 -0.8635
  564MOL0     C77712  12.005   0.837   4.264 -0.0968  0.7647  0.0263
  564MOL0     C77713  12.106   0.889   4.205 -0.5489 -0.5823  0.6655
  564MOL0     C77714  12.134   1.043   4.183  0.1200  0.2231 -0.4406
  564MOL0     C77715  12.186   1.075   4.044  0.3348  0.5333 -0.8224
  564MOL0     C77716  12.175   1.221   4.002 -0.0218 -0.4849 -0.6694
  564MOL0     C77717  12.241   1.304   4.109 -0.3979 -0.6550  0.1575
  564MOL0     O77718  12.230   1.445   4.069  1.2109  0.4295 -0.4972
  564MOL0     C77719  12.344   1.485   4.005 -0.1678 -0.0897  1.0108
  564MOL0     C77720  12.443   1.557   4.069 -0.0048 -0.5294 -0.3782
  564MOL0     C77721  12.560   1.606   4.010  0.0763  0.1345  0.6661
  564MOL0     C77722  12.653   1.693   4.088 -0.1569 -0.5999 -0.0819
  564MOL0     C77723  12.584   1.581   3.874 -0.3612 -0.1509  0.1462
  564MOL0     C77724  12.694   1.634   3.793  0.0995 -0.6420 -0.1760
  564MOL0     O77725  12.746   1.548   3.700 -0.1264  0.3268  0.1603
  564MOL0     C77726  12.871   1.578   3.662 -0.5101 -0.3322  0.7523
  564MOL0     C77727  12.893   1.598   3.525  0.7219 -0.5013 -0.3377
  564MOL0     C77728  13.014   1.618   3.473 -1.6799 -0.1169  0.2146
  564MOL0     C77729  13.124   1.638   3.558 -0.0788  0.0197 -0.7546
  564MOL0     O77730  13.253   1.665   3.525 -0.1090  0.1236  0.1611
  564MOL0     C77731  13.325   1.554   3.472  0.1948 -0.3232  0.1247
  564MOL0     C77732  13.438   1.507   3.563  0.1848  0.1396  0.9158
  564MOL0     C77733  13.503   1.384   3.496  0.2629  0.1572 -0.4752
  564MOL0     C77734  13.593   1.305   3.596 -0.6417 -0.2252 -0.6560
  564MOL0     C77735  13.690   1.205   3.530 -0.0740 -0.1044  0.0379
  564MOL0     C77736  13.819   1.269   3.471  0.2964  0.1834 -0.0991
  564MOL0     C77737  13.917   1.185   3.385  0.1925  0.0134  0.6305
  564MOL0     C77738  14.065   1.244   3.383  0.1203  0.1122 -0.7432
  564MOL0    Cl77739  14.173   1.144   3.293 -0.0595 -0.3102  0.5431
  564MOL0     C77740  13.105   1.630   3.699 -0.6131 -1.1649  0.5136
  564MOL0     C77741  12.976   1.601   3.750  0.5310 -0.5499  0.2744
  564MOL0     O77742  12.714   1.756   3.807  0.0861 -0.5473  0.3004
  564MOL0     C77743  12.488   1.501   3.804  0.2548 -0.0455  0.3944
  564MOL0     C77744  12.361   1.469   3.868 -0.6928 -0.3407 -0.2476
  564MOL0     N77745  12.199   0.796   4.158  0.7297  1.0023 -0.2966
  564MOL0     N77746  12.150   0.686   4.193 -0.0172 -0.0993 -0.9093
  564MOL0     C77747  10.815   0.333   4.363 -1.4257  0.3571 -0.7362
  564MOL0     C77748  10.678   0.324   4.371 -0.0263  0.8698  0.0654
  564MOL0     C77749  10.235   0.296   4.303  0.1683  0.2510  0.0167
  564MOL0     C77750  10.201   0.170   4.243 -0.2708 -0.3242 -0.6282
  564MOL0     C77751  10.071   0.118   4.260  0.2435 -0.0578 -0.0941
  564MOL0     C77752   9.973   0.194   4.325  0.1403 -0.1171  0.8137
  564MOL0     O77753   9.844   0.152   4.357 -0.1585 -0.3146 -0.7391
  564MOL0     C77754   9.801   0.017   4.326 -1.5821 -1.1579 -0.2806
  564MOL0     C77755   9.860  -0.097   4.406 -0.0167 -0.1811 -0.2103
  564MOL0     C77756   9.747  -0.204   4.418 -0.2344  0.5722  0.2126
  564MOL0     C77757   9.753  -0.286   4.545 -1.1807  0.4017 -0.2814
  564MOL0     C77758   9.623  -0.321   4.601 -0.3362  1.0102  0.2993
  564MOL0     C77759   9.517  -0.346   4.655 -0.2485  0.0640 -0.2374
  564MOL0     C77760  10.006   0.322   4.373  0.4191  0.5466  0.2811
  564MOL0     C77761  10.142   0.375   4.369  0.9472 -0.2854  0.2356
  564MOL0     C77762  10.172   0.511   4.436  0.1585 -0.3872 -0.1908
  564MOL0     H77763  10.632   0.180   4.075  0.7955  0.9135  0.6529
  564MOL0     H77764  10.886   0.210   4.063  0.8154  0.2350 -0.1600
  564MOL0     H77765  11.178   0.358   4.368  2.2844  1.7876 -2.5132
  564MOL0     H77766  11.040   0.475   4.360 -1.7713 -2.4092  3.4062
  564MOL0     H77767  11.215   0.379   4.124 -0.8131  0.4980 -1.0673
  564MOL0     H77768  11.107   0.519   4.119 -1.5198 -0.6151 -1.0268
  564MOL0     H77769  11.305   0.624   4.134  0.2002 -0.2387 -0.7912
  564MOL0     H77770  11.271   0.610   4.307  0.2840  0.9974  0.1414
  564MOL0     H77771  11.433   0.410   4.317 -0.6248  2.6109  0.3487
  564MOL0     H77772  11.440   0.408   4.138 -1.9983 -4.1381  1.3150
  564MOL0     H77773  11.525   0.654   4.310  1.1550 -0.3132  0.0866
  564MOL0     H77774  11.556   0.624   4.139 -0.3519  0.6495 -0.1659
  564MOL0     H77775  11.700   0.469   4.370 -0.9681 -0.8193 -0.7303
  564MOL0     H77776  11.704   0.437   4.193 -2.3210  1.2517 -1.8363
  564MOL0     H77777  11.772   0.687   4.348  1.5161 -1.5745  0.8461
  564MOL0     H77778  11.779   0.678   4.162  0.9426  1.2229 -0.2294
  564MOL0     H77779  11.952   0.552   4.372  1.0464  0.7405 -0.6273
  564MOL0     H77780  11.970   0.510   4.207  2.8213 -0.4208  0.9187
  564MOL0     H77781  11.921   0.894   4.302 -0.8678 -0.1164 -0.3048
  564MOL0     H77782  12.220   1.070   4.246 -2.0553  4.3966  1.1723
  564MOL0     H77783  12.055   1.112   4.215 -0.0025 -0.6334  1.2368
  564MOL0     H77784  12.288   1.035   4.033  0.1845 -0.2823  0.4834
  564MOL0     H77785  12.140   1.020   3.962 -0.2622 -1.3541  0.7012
  564MOL0     H77786  12.219   1.225   3.902  0.6430 -1.7686 -0.4427
  564MOL0     H77787  12.069   1.250   4.003  0.5053  1.6420  1.4337
  564MOL0     H77788  12.193   1.284   4.206 -1.6873  0.2527 -0.2745
  564MOL0     H77789  12.348   1.280   4.114  0.0747  1.2325 -0.0964
  564MOL0     H77790  12.447   1.553   4.178  0.9788  2.1698 -0.2528
  564MOL0     H77791  12.631   1.658   4.189 -0.7981 -2.9342 -0.9598
  564MOL0     H77792  12.641   1.800   4.074 -1.8463 -0.8587 -0.8312
  564MOL0     H77793  12.754   1.654   4.072  0.6031 -0.3395  3.3684
  564MOL0     H77794  12.820   1.574   3.448  1.8877 -1.6292 -1.1446
  564MOL0     H77795  13.028   1.617   3.366  1.8773 -1.3272  0.5824
  564MOL0     H77796  13.253   1.479   3.438 -1.3006  0.8720  0.5498
  564MOL0     H77797  13.384   1.593   3.389  0.5954 -0.7947  0.1811
  564MOL0     H77798  13.516   1.579   3.590  0.1636 -0.1465  1.7530
  564MOL0     H77799  13.397   1.462   3.654  1.8902 -1.6171  0.8773
  564MOL0     H77800  13.571   1.412   3.415  0.7908  0.3786  0.0331
  564MOL0     H77801  13.425   1.317   3.460 -1.9385  2.1461  0.3130
  564MOL0     H77802  13.521   1.255   3.662 -2.2333  0.7509 -1.5942
  564MOL0     H77803  13.650   1.372   3.661  1.0554  0.5371 -2.7980
  564MOL0     H77804  13.728   1.141   3.610 -0.0276  2.7100  2.4464
  564MOL0     H77805  13.643   1.142   3.454 -1.2934 -2.3243  2.4799
  564MOL0     H77806  13.867   1.306   3.562  0.5785 -4.0306  1.6711
  564MOL0     H77807  13.793   1.354   3.407  0.2169  0.7826  0.7075
  564MOL0     H77808  13.884   1.185   3.280 -0.6337 -1.3456  0.8681
  564MOL0     H77809  13.917   1.077   3.405 -2.8046 -0.4765 -1.3854
  564MOL0     H77810  14.109   1.255   3.482 -2.1615 -0.1768  0.3747
  564MOL0     H77811  14.067   1.345   3.343  4.0892 -0.1566 -1.6588
  564MOL0     H77812  13.195   1.652   3.756  0.5897 -0.8401 -1.4489
  564MOL0     H77813  12.960   1.597   3.857  1.3725 -1.8231  0.3759
  564MOL0     H77814  12.498   1.473   3.700 -0.3147  0.8645  0.0817
  564MOL0     H77815  12.282   1.415   3.818 -0.8057  0.5956 -1.1199
  564MOL0     H77816  10.864   0.369   4.453 -0.5965 -0.4539 -0.8507
  564MOL0     H77817  10.618   0.356   4.456  1.6459 -0.0967  1.6950
  564MOL0     H77818  10.281   0.117   4.192  1.0230  0.8423  0.1160
  564MOL0     H77819  10.042   0.017   4.230 -2.2527 -0.0261  1.8923
  564MOL0     H77820   9.692   0.030   4.334 -1.1579  1.9989  3.6914
  564MOL0     H77821   9.810  -0.002   4.219 -4.0005  1.0692 -1.0115
  564MOL0     H77822   9.885  -0.055   4.504 -2.1501 -1.4666  0.9432
  564MOL0     H77823   9.948  -0.141   4.358  1.3580  0.5410  1.5024
  564MOL0     H77824   9.647  -0.160   4.418 -0.9981 -0.9071  2.8667
  564MOL0     H77825   9.744  -0.275   4.335  0.7207  0.9365 -0.1511
  564MOL0     H77826   9.797  -0.229   4.628 -0.5697 -1.3676  0.6599
  564MOL0     H77827   9.809  -0.376   4.520  1.1393  1.0810  1.9989
  564MOL0     H77828   9.419  -0.370   4.690  0.0670 -0.4735  0.2851
  564MOL0     H77829   9.932   0.393   4.408  1.5384  0.3192  3.3605
  564MOL0     H77830  10.100   0.554   4.506  2.3276  2.0124  0.7482
  564MOL0     H77831  10.257   0.500   4.504  0.5410 -3.7153 -1.0399
  564MOL0     H77832  10.187   0.584   4.356 -2.6528 -0.4311 -0.8473
  565MOL0     O77833   4.018   6.018   6.387  0.8192 -0.3741  0.2250
  565MOL0     C77834   3.973   5.930   6.311 -1.2372 -0.6090  0.1147
  565MOL0     O77835   4.050   5.830   6.255  0.2570  0.7441  0.1939
  565MOL0     C77836   4.184   5.832   6.274 -0.1789  0.6925 -0.0961
  565MOL0     C77837   4.261   5.944   6.238  0.2544  0.3237  0.6437
  565MOL0     C77838   4.400   5.940   6.260  0.9636 -0.6089 -0.6441
  565MOL0     C77839   4.465   5.840   6.335  0.3245  0.0970 -0.0813
  565MOL0     O77840   4.593   5.846   6.369 -0.4635 -0.7977 -0.0261
  565MOL0     C77841   4.665   5.724   6.369 -0.5287 -0.2739  0.5468
  565MOL0     C77842   4.815   5.747   6.348 -0.2668 -0.5128  0.0707
  565MOL0     C77843   4.854   5.861   6.247  0.6627  0.2291  0.0687
  565MOL0     C77844   5.003   5.874   6.230  1.2934 -0.1476  0.4195
  565MOL0     C77845   5.044   5.980   6.134  0.0826  0.2500  0.3828
  565MOL0     C77846   5.195   5.978   6.096 -0.5364 -0.5908 -0.8500
  565MOL0     C77847   5.222   6.073   5.981  0.3135 -0.1953  0.4236
  565MOL0     C77848   5.359   6.060   5.943 -0.3385  0.5681  0.1752
  565MOL0     N77849   5.383   5.930   5.868 -0.1623 -0.3798  0.5113
  565MOL0     C77850   5.462   5.828   5.902  1.0064  0.6392  0.0223
  565MOL0     C77851   5.467   5.729   5.801 -0.3113  0.4588 -0.6219
  565MOL0     C77852   5.558   5.605   5.807  0.1360 -0.2116  0.6978
  565MOL0     C77853   5.661   5.601   5.692  1.1147 -0.4728 -0.8467
  565MOL0     C77854   5.775   5.709   5.717  0.4026  0.1828 -0.1678
  565MOL0     C77855   5.885   5.677   5.619 -0.6830  0.0925 -0.0954
  565MOL0     O77856   5.958   5.573   5.692 -0.7963  0.0833 -0.4137
  565MOL0     C77857   6.075   5.604   5.766  0.4977  0.1081 -0.6304
  565MOL0     C77858   6.163   5.703   5.747 -0.0043  0.2808  0.4516
  565MOL0     C77859   6.287   5.705   5.819  0.0360 -0.2314  0.6556
  565MOL0     C77860   6.388   5.798   5.764  0.1855 -0.3134 -0.3397
  565MOL0     C77861   6.315   5.598   5.911  0.0676  0.2897 -0.0643
  565MOL0     C77862   6.454   5.600   5.974  0.7429  0.2428 -0.1433
  565MOL0     O77863   6.560   5.608   5.889 -0.7773 -0.4080 -0.2414
  565MOL0     C77864   6.683   5.594   5.944 -0.6186  1.0149  0.2075
  565MOL0     C77865   6.729   5.474   6.008  0.0571  0.1680 -0.1251
  565MOL0     C77866   6.853   5.442   6.048 -0.2017 -0.2121 -0.5202
  565MOL0     C77867   6.956   5.537   6.018 -1.0946 -0.2607  0.0242
  565MOL0     O77868   7.088   5.511   6.043  0.1151 -0.1688 -0.9704
  565MOL0     C77869   7.140   5.378   6.065 -0.3350  0.2539 -0.2783
  565MOL0     C77870   7.285   5.387   6.112  0.1022 -0.0954  0.3557
  565MOL0     C77871   7.302   5.455   6.250  0.1672 -0.5586 -0.3098
  565MOL0     C77872   7.450   5.463   6.298  0.1030  0.5370 -0.3993
  565MOL0     C77873   7.466   5.498   6.445  0.6049 -0.5345 -0.1074
  565MOL0     C77874   7.606   5.560   6.467  0.3133 -0.0668  0.5217
  565MOL0     C77875   7.613   5.647   6.588  0.1015 -1.1687  0.1473
  565MOL0     C77876   7.678   5.590   6.713 -0.4266 -0.3020 -0.1277
  565MOL0    Cl77877   7.684   5.727   6.839  0.4210  0.4791  0.1834
  565MOL0     C77878   6.918   5.646   5.948 -0.1732 -0.1051  0.9132
  565MOL0     C77879   6.784   5.674   5.912 -0.0769  0.3437 -0.0528
  565MOL0     O77880   6.453   5.586   6.096 -0.2575 -0.4674 -1.0878
  565MOL0     C77881   6.219   5.502   5.934  0.4786 -0.4117 -1.5323
  565MOL0     C77882   6.095   5.510   5.869 -0.4758 -0.0138  0.6754
  565MOL0     N77883   5.377   5.778   5.708  0.5661 -0.5818 -1.1363
  565MOL0     N77884   5.325   5.889   5.749 -0.1937  0.8728 -0.9016
  565MOL0     C77885   4.382   5.729   6.359 -0.4638 -0.5002 -0.4305
  565MOL0     C77886   4.251   5.720   6.320  0.1442  0.0634 -0.4672
  565MOL0     C77887   3.829   5.934   6.297  1.0883 -0.3241  0.4649
  565MOL0     C77888   3.774   5.811   6.275 -0.0326 -0.2096 -0.0364
  565MOL0     C77889   3.636   5.793   6.274  0.0049 -0.4858  0.2331
  565MOL0     C77890   3.550   5.895   6.276  0.0156  0.1771  0.0556
  565MOL0     O77891   3.421   5.870   6.237 -0.4422 -0.6272 -0.4712
  565MOL0     C77892   3.330   5.894   6.352  0.2684 -0.0611  0.5840
  565MOL0     C77893   3.193   5.952   6.293 -1.5109 -0.2041  0.3578
  565MOL0     C77894   3.236   6.088   6.214  0.2049  0.3516 -0.0527
  565MOL0     C77895   3.110   6.169   6.171 -0.7249  0.7060  0.8954
  565MOL0     C77896   3.140   6.257   6.054 -0.2350  0.5100 -0.5449
  565MOL0     C77897   3.190   6.338   5.978 -0.7893  0.7276 -0.5737
  565MOL0     C77898   3.596   6.021   6.307 -0.5382 -0.4452 -0.1232
  565MOL0     C77899   3.739   6.044   6.318 -0.3646  0.5865 -0.5888
  565MOL0     C77900   3.790   6.179   6.338 -1.0936 -0.0595 -0.3177
  565MOL0     H77901   4.215   6.025   6.182  0.7181 -0.3156 -0.7313
  565MOL0     H77902   4.464   6.024   6.238 -0.1581  0.8126  1.1513
  565MOL0     H77903   4.629   5.667   6.282  1.3584  0.0669 -0.4963
  565MOL0     H77904   4.666   5.685   6.471  1.1223  2.2854  1.6154
  565MOL0     H77905   4.872   5.763   6.440  0.0867 -1.3774  0.0108
  565MOL0     H77906   4.852   5.651   6.310 -1.4648  0.0609 -2.8238
  565MOL0     H77907   4.821   5.840   6.145  2.2317 -1.0953 -0.2090
  565MOL0     H77908   4.814   5.958   6.278  0.6071  0.1897  0.1212
  565MOL0     H77909   5.046   5.904   6.326  0.9728 -2.2680  1.2891
  565MOL0     H77910   5.044   5.774   6.215  0.8905 -0.3833  0.8347
  565MOL0     H77911   5.019   6.080   6.171  1.1476  1.2772 -1.5027
  565MOL0     H77912   4.987   5.962   6.042 -2.4395 -1.8560  2.2041
  565MOL0     H77913   5.258   6.002   6.182 -0.6068  2.2596 -1.4752
  565MOL0     H77914   5.228   5.877   6.071  1.8228  0.4143 -2.1058
  565MOL0     H77915   5.192   6.176   6.004  1.3012 -0.2022  1.8772
  565MOL0     H77916   5.164   6.040   5.894  0.8450  0.5816 -0.2350
  565MOL0     H77917   5.386   6.145   5.880  3.0370 -0.1405  0.4559
  565MOL0     H77918   5.431   6.051   6.025  2.2134 -0.8253 -2.0563
  565MOL0     H77919   5.518   5.827   5.995  2.0714  2.7364 -0.5119
  565MOL0     H77920   5.498   5.514   5.797  0.7694 -0.7525  1.7128
  565MOL0     H77921   5.612   5.618   5.901  0.3253  0.8740  0.4433
  565MOL0     H77922   5.708   5.502   5.687 -0.0027 -1.1886  1.4275
  565MOL0     H77923   5.608   5.622   5.598  0.1248  0.8123 -0.0487
  565MOL0     H77924   5.746   5.814   5.708  2.5169  1.0568  2.0601
  565MOL0     H77925   5.809   5.708   5.821 -0.8797  1.9746  0.3015
  565MOL0     H77926   5.856   5.636   5.522 -0.0224  2.7354 -1.4959
  565MOL0     H77927   5.945   5.767   5.599  1.7628 -1.3054  0.4941
  565MOL0     H77928   6.145   5.770   5.664 -0.1916  2.3171  2.0541
  565MOL0     H77929   6.447   5.848   5.841 -2.6207  1.8383  0.6085
  565MOL0     H77930   6.337   5.876   5.707 -3.0390 -1.4183  0.7710
  565MOL0     H77931   6.448   5.743   5.691  0.3492  1.1643 -1.3544
  565MOL0     H77932   6.655   5.402   6.044  1.7951 -1.1016  1.1014
  565MOL0     H77933   6.872   5.344   6.090  0.1701 -0.6123 -1.5990
  565MOL0     H77934   7.087   5.335   6.151  1.3452 -1.8842 -0.2093
  565MOL0     H77935   7.127   5.308   5.982  2.6355 -1.8744  0.8337
  565MOL0     H77936   7.316   5.283   6.125  1.8379  0.4966  1.1858
  565MOL0     H77937   7.341   5.442   6.037 -0.7185  0.6987  0.3140
  565MOL0     H77938   7.245   5.401   6.326 -1.0067 -1.3105 -1.6539
  565MOL0     H77939   7.260   5.555   6.245 -0.4921 -0.6154  2.5474
  565MOL0     H77940   7.490   5.540   6.232 -2.5393  1.5730 -0.9199
  565MOL0     H77941   7.504   5.368   6.285  2.4926  1.8280 -0.3531
  565MOL0     H77942   7.392   5.577   6.461  2.1395  1.1091 -0.7574
  565MOL0     H77943   7.447   5.419   6.519 -2.6768  0.4452  0.2378
  565MOL0     H77944   7.626   5.628   6.384  0.1586 -1.7107 -0.9147
  565MOL0     H77945   7.676   5.476   6.458 -1.0203 -1.2543  0.8935
  565MOL0     H77946   7.513   5.686   6.610  0.6661  1.1469 -1.0161
  565MOL0     H77947   7.673   5.734   6.562 -0.8976 -0.8397 -1.1882
  565MOL0     H77948   7.781   5.552   6.705  0.4073  1.2392  2.0216
  565MOL0     H77949   7.621   5.501   6.742  0.5386 -0.8305  0.2263
  565MOL0     H77950   6.989   5.721   5.915 -2.3178  1.1667 -1.0978
  565MOL0     H77951   6.775   5.755   5.841  1.0885 -0.7805 -1.5404
  565MOL0     H77952   6.229   5.424   6.009  0.8691  2.0529  1.1651
  565MOL0     H77953   6.018   5.435   5.887  2.7182 -3.2786  1.9500
  565MOL0     H77954   4.431   5.649   6.414 -0.8117 -0.9435 -0.7707
  565MOL0     H77955   4.190   5.633   6.341  0.3352 -0.0280 -0.2878
  565MOL0     H77956   3.834   5.721   6.266 -0.5724 -0.7710  1.6531
  565MOL0     H77957   3.599   5.692   6.257 -0.9855  0.0744 -1.0724
  565MOL0     H77958   3.317   5.795   6.397  2.4703 -0.1731  1.0832
  565MOL0     H77959   3.367   5.969   6.422  1.5729  0.0229 -0.1729
  565MOL0     H77960   3.134   5.980   6.380  1.6033 -0.6032  2.7767
  565MOL0     H77961   3.145   5.880   6.227 -1.4581 -0.4911  0.6332
  565MOL0     H77962   3.287   6.159   6.280  2.8571  0.0759 -1.6527
  565MOL0     H77963   3.303   6.074   6.128 -0.9528  4.5471 -1.9219
  565MOL0     H77964   3.064   6.227   6.252  0.3324  0.5326  1.6346
  565MOL0     H77965   3.035   6.096   6.139  0.2480 -1.2988  2.9856
  565MOL0     H77966   3.234   6.401   5.903 -0.2368  0.5915 -0.3664
  565MOL0     H77967   3.538   6.113   6.304  2.5479  1.6570 -0.7487
  565MOL0     H77968   3.710   6.254   6.327 -2.5061 -1.8319 -3.8013
  565MOL0     H77969   3.837   6.186   6.436 -2.8126 -0.9257  0.6251
  565MOL0     H77970   3.859   6.204   6.257 -2.7787  0.5295 -1.6482
  566MOL0     O77971   6.170   7.805   0.296  0.2726  0.0754 -0.0155
  566MOL0     C77972   6.205   7.696   0.248  0.8264 -0.4962 -0.5714
  566MOL0     O77973   6.138   7.632   0.145  0.1019  0.1170 -0.4621
  566MOL0     C77974   6.030   7.693   0.076 -0.1952 -0.0466 -0.4559
  566MOL0     C77975   6.016   7.833   0.051  0.2006 -0.2425  0.3004
  566MOL0     C77976   5.891   7.878  -0.003 -0.0338 -0.1003  0.0576
  566MOL0     C77977   5.786   7.792  -0.036  0.5123  0.2896 -0.1736
  566MOL0     O77978   5.672   7.855  -0.080 -0.1439  0.1391 -0.3395
  566MOL0     C77979   5.572   7.779  -0.140  0.8209  0.3893 -0.2656
  566MOL0     C77980   5.464   7.874  -0.190  1.1357  0.2032 -0.1901
  566MOL0     C77981   5.318   7.815  -0.209  0.0045 -0.3767  0.3919
  566MOL0     C77982   5.238   7.797  -0.078  0.1709  0.1999  0.7259
  566MOL0     C77983   5.214   7.923   0.004  0.7217  0.0756  0.6607
  566MOL0     C77984   5.111   8.028  -0.047 -0.2516 -0.1272 -0.5303
  566MOL0     C77985   4.969   8.010  -0.002 -0.2015 -0.1197 -1.0338
  566MOL0     C77986   4.885   8.132  -0.050 -0.4473  0.3315  0.8583
  566MOL0     N77987   4.918   8.263  -0.001  0.0113  0.9362 -0.0929
  566MOL0     C77988   4.927   8.294   0.129 -0.5064  0.6489  0.0763
  566MOL0     C77989   4.950   8.429   0.128  0.5219  0.7604 -0.7269
  566MOL0     C77990   4.964   8.512   0.248  0.1481  0.2109 -0.7208
  566MOL0     C77991   4.904   8.648   0.223  0.4741  0.7091 -0.8344
  566MOL0     C77992   4.933   8.756   0.317 -0.2517 -0.2693 -0.8067
  566MOL0     C77993   5.075   8.810   0.308  0.8738  0.0727 -0.4222
  566MOL0     O77994   5.101   8.889   0.434  0.7155 -0.3828 -0.4478
  566MOL0     C77995   5.225   8.944   0.459 -0.0436 -0.0589  0.5168
  566MOL0     C77996   5.340   8.917   0.383 -0.8396 -0.4357 -0.2055
  566MOL0     C77997   5.462   8.982   0.416  0.1034  0.0422 -0.1746
  566MOL0     C77998   5.594   8.958   0.343 -0.1064 -0.0545 -0.6648
  566MOL0     C77999   5.470   9.067   0.528 -1.0408  0.6289 -0.4714
  566MOL0     C78000   5.596   9.128   0.590 -0.0524 -0.7048 -1.1131
  566MOL0     O78001   5.585   9.172   0.724 -0.1838  0.3640 -0.1913
  566MOL0     C78002   5.687   9.247   0.778  1.1712  0.4402  0.3535
  566MOL0     C78003   5.753   9.346   0.704 -0.6533 -0.0166 -0.6939
  566MOL0     C78004   5.845   9.428   0.767 -0.1015 -0.4756 -0.4275
  566MOL0     C78005   5.869   9.425   0.900  0.1333  0.2947  0.4647
  566MOL0     O78006   5.972   9.501   0.944  0.3275 -0.5586 -0.3658
  566MOL0     C78007   6.002   9.513   1.086  0.0530 -0.6553 -0.1926
  566MOL0     C78008   6.123   9.602   1.085  0.9420  0.0585  0.3829
  566MOL0     C78009   6.085   9.743   1.124  0.5509  0.2876  0.6795
  566MOL0     C78010   6.207   9.831   1.156 -0.1066 -0.3866  0.2044
  566MOL0     C78011   6.188   9.991   1.142 -0.3773  0.4572  0.5921
  566MOL0     C78012   6.094  10.061   1.244  0.7691  0.5777 -0.1299
  566MOL0     C78013   6.134  10.207   1.235  0.7192 -0.5202 -0.1460
  566MOL0     C78014   6.010  10.271   1.304 -0.5158  0.1984  0.1854
  566MOL0    Cl78015   5.894  10.300   1.181 -0.4790 -0.0073  0.3180
  566MOL0     C78016   5.806   9.327   0.971  0.2921  0.0657  0.0041
  566MOL0     C78017   5.709   9.238   0.919  0.6903 -0.0496  0.8506
  566MOL0     O78018   5.692   9.146   0.519  0.5475 -0.0827  0.5385
  566MOL0     C78019   5.349   9.102   0.592  0.9652 -0.4526 -0.5309
  566MOL0     C78020   5.227   9.045   0.556  0.7586 -0.3252  0.1066
  566MOL0     N78021   4.941   8.465  -0.002 -0.8764  0.3393 -0.2593
  566MOL0     N78022   4.921   8.370  -0.076 -0.1225  0.3213 -0.0403
  566MOL0     C78023   5.809   7.648  -0.033 -0.8310 -0.3184  0.2504
  566MOL0     C78024   5.935   7.612   0.023  0.0684  0.8198 -0.4283
  566MOL0     C78025   6.334   7.644   0.274 -0.3936 -0.0711  0.1642
  566MOL0     C78026   6.358   7.505   0.251 -0.2762  0.6566  0.8559
  566MOL0     C78027   6.473   7.440   0.283 -0.1836 -0.0977 -0.7696
  566MOL0     C78028   6.581   7.514   0.331  0.4079  0.4680 -0.8127
  566MOL0     O78029   6.695   7.452   0.382  0.2127 -0.0277  1.1906
  566MOL0     C78030   6.822   7.527   0.370  0.2934  0.1876  0.1883
  566MOL0     C78031   6.939   7.434   0.362  0.5692 -0.1486 -0.8484
  566MOL0     C78032   6.912   7.300   0.292  0.0462  0.0500 -0.1903
  566MOL0     C78033   7.034   7.216   0.301  0.0219  0.1678  0.5491
  566MOL0     C78034   7.036   7.095   0.218  0.5164 -0.5206 -0.4760
  566MOL0     C78035   7.025   6.987   0.154 -0.0153 -0.4855  0.2887
  566MOL0     C78036   6.566   7.651   0.353  0.5865  0.2860 -0.3472
  566MOL0     C78037   6.447   7.719   0.319  0.0809  0.0264  0.8309
  566MOL0     C78038   6.440   7.867   0.331  1.0395  0.5662  0.3082
  566MOL0     H78039   6.088   7.907   0.086  1.3264 -1.5241  0.7817
  566MOL0     H78040   5.887   7.984  -0.027 -2.8355 -0.1780 -0.1299
  566MOL0     H78041   5.518   7.723  -0.063  1.2579 -3.2761 -2.3689
  566MOL0     H78042   5.616   7.712  -0.214  0.9546  0.8145 -0.5740
  566MOL0     H78043   5.463   7.961  -0.123 -3.3850 -0.7944  1.3660
  566MOL0     H78044   5.496   7.918  -0.285  1.1891 -2.8601 -1.7109
  566MOL0     H78045   5.255   7.884  -0.265  1.4468 -0.4280 -1.3928
  566MOL0     H78046   5.322   7.724  -0.269 -0.2743 -0.4890  0.5418
  566MOL0     H78047   5.140   7.759  -0.108 -0.2992  2.4703 -0.8481
  566MOL0     H78048   5.288   7.719  -0.021 -1.5888 -2.0059 -0.5741
  566MOL0     H78049   5.306   7.983   0.006 -1.0369  3.0094 -0.0562
  566MOL0     H78050   5.175   7.896   0.102 -1.0444 -0.4493 -0.1518
  566MOL0     H78051   5.147   8.122  -0.005  2.9188 -1.3518 -0.2192
  566MOL0     H78052   5.119   8.051  -0.154 -0.3376  1.2814 -0.2473
  566MOL0     H78053   4.960   8.008   0.107 -0.4736 -0.7061 -1.0618
  566MOL0     H78054   4.923   7.916  -0.034 -4.2304  1.6065 -0.8826
  566MOL0     H78055   4.891   8.143  -0.159 -0.1805  0.9258  0.9275
  566MOL0     H78056   4.781   8.111  -0.022 -0.0889  1.5122  3.3396
  566MOL0     H78057   4.924   8.230   0.217  1.1864 -0.4590 -0.6141
  566MOL0     H78058   5.067   8.528   0.282  0.2521  1.7264 -1.6423
  566MOL0     H78059   4.906   8.475   0.333  0.9945  2.5471  0.9626
  566MOL0     H78060   4.932   8.685   0.124  1.5726 -1.5128 -1.4147
  566MOL0     H78061   4.795   8.637   0.214  0.5834 -0.4164 -0.9223
  566MOL0     H78062   4.858   8.828   0.285 -2.5450 -2.4130 -0.5428
  566MOL0     H78063   4.910   8.722   0.419 -1.0992  2.7424  0.1115
  566MOL0     H78064   5.148   8.729   0.296 -2.0022 -2.9559  0.9576
  566MOL0     H78065   5.078   8.878   0.222  0.0748  1.4698  0.6209
  566MOL0     H78066   5.343   8.847   0.300  0.6624 -1.6820  0.8555
  566MOL0     H78067   5.650   9.048   0.318  0.4019 -0.0487  0.4494
  566MOL0     H78068   5.561   8.909   0.251  0.0712  0.2215 -0.8774
  566MOL0     H78069   5.659   8.895   0.404 -1.5040  0.5397  1.5519
  566MOL0     H78070   5.736   9.369   0.599 -0.4229  0.4222 -0.6362
  566MOL0     H78071   5.891   9.499   0.698 -1.2787 -0.0508 -0.8000
  566MOL0     H78072   5.925   9.562   1.147  1.3216 -1.6626  2.3543
  566MOL0     H78073   6.019   9.411   1.120 -3.3441 -1.4183 -0.4313
  566MOL0     H78074   6.194   9.559   1.156  0.2865 -1.3231  0.2439
  566MOL0     H78075   6.174   9.613   0.989  0.6802  0.2439  0.2643
  566MOL0     H78076   6.017   9.749   1.209  0.7453  0.2196  0.8407
  566MOL0     H78077   6.037   9.780   1.033  0.6415 -2.7169 -0.7046
  566MOL0     H78078   6.293   9.802   1.095 -0.7159 -3.9113  0.8469
  566MOL0     H78079   6.230   9.813   1.262  2.7462 -3.0524 -0.7087
  566MOL0     H78080   6.285  10.041   1.149 -0.6905  0.9430  1.6983
  566MOL0     H78081   6.154  10.023   1.043 -0.0979  4.4607  1.6185
  566MOL0     H78082   6.108  10.019   1.344 -0.0204 -2.6820 -1.2702
  566MOL0     H78083   5.992  10.042   1.210  1.9259 -3.6810 -1.8623
  566MOL0     H78084   6.139  10.229   1.128  2.8969 -0.9915 -0.1995
  566MOL0     H78085   6.230  10.227   1.285  0.6010  1.2474 -0.5574
  566MOL0     H78086   6.046  10.363   1.352  0.1212 -0.3153  0.7040
  566MOL0     H78087   5.978  10.215   1.392  1.8892  0.0260  1.0152
  566MOL0     H78088   5.830   9.313   1.076  1.1518  0.6213 -0.1095
  566MOL0     H78089   5.656   9.173   0.988  2.5534 -0.9796  1.4611
  566MOL0     H78090   5.333   9.163   0.680  2.6646  0.1179 -0.5751
  566MOL0     H78091   5.140   9.046   0.622  1.5695 -3.7842  1.4623
  566MOL0     H78092   5.733   7.579  -0.068 -0.5962 -0.1480 -0.6254
  566MOL0     H78093   5.949   7.505   0.030  3.9575  1.2461  0.8361
  566MOL0     H78094   6.275   7.449   0.210 -1.2853  2.1143  0.8499
  566MOL0     H78095   6.476   7.334   0.259 -0.1536 -0.4140  0.5768
  566MOL0     H78096   6.812   7.587   0.279 -1.1866  0.5445  0.5650
  566MOL0     H78097   6.821   7.595   0.455  0.1218  0.1690  0.2009
  566MOL0     H78098   6.967   7.401   0.462 -0.3207 -2.0136 -1.1648
  566MOL0     H78099   7.020   7.487   0.312  0.5802  0.4790 -0.1766
  566MOL0     H78100   6.827   7.244   0.330  0.1758 -3.0316 -3.8766
  566MOL0     H78101   6.884   7.322   0.189 -0.8401  1.2878  0.2930
  566MOL0     H78102   7.052   7.185   0.404  1.3534 -0.6776  0.0995
  566MOL0     H78103   7.119   7.281   0.276  0.0911 -0.2560 -0.3708
  566MOL0     H78104   7.018   6.892   0.106  0.3097 -0.0375 -0.6602
  566MOL0     H78105   6.643   7.708   0.403  1.9273 -0.4699 -1.5077
  566MOL0     H78106   6.405   7.910   0.237  0.0031  0.6369  0.7171
  566MOL0     H78107   6.376   7.904   0.411 -1.6970  0.2361 -1.5894
  566MOL0     H78108   6.539   7.910   0.348  1.1081  0.4117  0.3083
  567MOL0     O78109   9.441   8.352   8.271 -0.5079  0.4204  0.2345
  567MOL0     C78110   9.501   8.376   8.374 -0.3198 -0.6176  0.5516
  567MOL0     O78111   9.640   8.375   8.385  0.3173  0.1186 -0.1118
  567MOL0     C78112   9.722   8.353   8.281  0.3819  0.2924 -0.1985
  567MOL0     C78113   9.835   8.430   8.267  0.2791 -0.3900  0.5739
  567MOL0     C78114   9.927   8.411   8.166 -0.6953  0.3039 -0.3924
  567MOL0     C78115   9.909   8.310   8.074 -0.3204  0.5372  0.8543
  567MOL0     O78116   9.983   8.283   7.965 -0.1003 -0.5053  0.2672
  567MOL0     C78117  10.004   8.388   7.864 -0.3166  0.6062 -0.2343
  567MOL0     C78118  10.095   8.328   7.747 -0.3168  0.2167 -0.7699
  567MOL0     C78119  10.014   8.250   7.644  0.1106 -0.2542 -0.1036
  567MOL0     C78120  10.107   8.196   7.531  0.8566 -0.1870  0.2216
  567MOL0     C78121  10.031   8.149   7.405  0.0902  0.5776  0.1941
  567MOL0     C78122  10.110   8.148   7.276  0.5102 -0.0296 -0.3347
  567MOL0     C78123  10.254   8.096   7.292  0.2125  0.1346  0.3534
  567MOL0     C78124  10.307   8.068   7.145  0.0369  0.5948 -0.0835
  567MOL0     N78125  10.295   8.183   7.049  0.1028  1.2020 -0.4300
  567MOL0     C78126  10.365   8.301   7.067 -0.1336 -0.9699  1.1857
  567MOL0     C78127  10.336   8.363   6.954 -0.3154 -0.2133  0.8152
  567MOL0     C78128  10.397   8.500   6.930 -0.5871  0.9165  0.3343
  567MOL0     C78129  10.284   8.592   6.890  0.6881  0.3258  0.0312
  567MOL0     C78130  10.224   8.563   6.744 -0.2618 -0.5848 -0.6784
  567MOL0     C78131  10.128   8.675   6.695 -0.8090 -0.2060 -0.5062
  567MOL0     O78132  10.050   8.614   6.593  0.2064  0.4869 -0.0766
  567MOL0     C78133   9.937   8.682   6.546 -0.7980 -0.1910 -0.3801
  567MOL0     C78134   9.827   8.604   6.516 -0.3922 -0.0336 -0.3497
  567MOL0     C78135   9.712   8.676   6.465 -0.2649  0.2318 -0.0251
  567MOL0     C78136   9.591   8.592   6.437  0.3707 -0.0605  1.1072
  567MOL0     C78137   9.699   8.813   6.451  0.4995 -0.3520  0.1062
  567MOL0     C78138   9.595   8.886   6.372 -0.5778  0.1201 -0.5527
  567MOL0     O78139   9.469   8.831   6.367  0.4149  0.6678 -0.1048
  567MOL0     C78140   9.387   8.894   6.276  0.5051  0.0645 -0.2324
  567MOL0     C78141   9.407   8.896   6.141  0.6668 -0.4856 -0.1822
  567MOL0     C78142   9.299   8.945   6.058  0.9843  0.4501  0.2240
  567MOL0     C78143   9.175   8.988   6.117  0.4592  0.0628 -0.3506
  567MOL0     O78144   9.061   9.028   6.049  0.5551  0.7361  0.1488
  567MOL0     C78145   9.045   8.987   5.907 -0.9923 -0.2299 -0.5005
  567MOL0     C78146   9.119   9.085   5.808  0.5756 -0.8173  0.0417
  567MOL0     C78147   9.079   9.233   5.830 -0.7747 -0.1156 -0.3573
  567MOL0     C78148   9.165   9.322   5.739 -0.2788 -0.1818 -0.3195
  567MOL0     C78149   9.285   9.402   5.787 -0.1744 -0.0462 -0.0970
  567MOL0     C78150   9.411   9.314   5.790  0.0184 -0.2074 -0.1974
  567MOL0     C78151   9.439   9.249   5.924 -0.1799 -0.9529  0.3625
  567MOL0     C78152   9.569   9.169   5.926 -0.4193 -0.1979  0.2461
  567MOL0    Cl78153   9.545   9.018   5.843 -0.1408  0.0839 -0.0509
  567MOL0     C78154   9.159   8.975   6.254 -0.0040 -0.0196  0.2458
  567MOL0     C78155   9.263   8.929   6.335  0.3008  0.1608  0.5260
  567MOL0     O78156   9.627   8.985   6.311  0.2794 -0.0299 -0.7030
  567MOL0     C78157   9.807   8.885   6.507 -0.3068  0.7114  0.7726
  567MOL0     C78158   9.923   8.823   6.553 -0.0467 -0.6214 -0.2189
  567MOL0     N78159  10.263   8.282   6.866 -0.5562  0.2070  0.1909
  567MOL0     N78160  10.234   8.175   6.932 -0.0123 -0.6470  0.4858
  567MOL0     C78161   9.802   8.229   8.088 -0.6267  0.9517 -0.7787
  567MOL0     C78162   9.704   8.250   8.189 -0.8809  0.5589 -0.5161
  567MOL0     C78163   9.417   8.376   8.497  0.5583  0.6067 -0.3424
  567MOL0     C78164   9.478   8.337   8.613 -0.1382  0.3213 -0.2565
  567MOL0     C78165   9.411   8.335   8.728  0.9407  1.0120 -0.4669
  567MOL0     C78166   9.269   8.352   8.735  0.4528 -0.0220  0.5110
  567MOL0     O78167   9.214   8.337   8.864  0.2678  0.3829 -0.6927
  567MOL0     C78168   9.074   8.382   8.886 -0.0031  0.7057  1.1449
  567MOL0     C78169   9.066   8.533   8.882  0.2631  0.7758  0.0091
  567MOL0     C78170   9.089   8.597   9.021  0.8741  0.2829  1.1474
  567MOL0     C78171   9.033   8.733   8.999 -0.1152 -0.0117 -0.3505
  567MOL0     C78172   9.021   8.798   9.135 -0.0135 -0.2656  0.0661
  567MOL0     C78173   9.014   8.852   9.242  0.1522  0.7621  0.1054
  567MOL0     C78174   9.204   8.398   8.623  0.4040  0.1720 -1.0953
  567MOL0     C78175   9.273   8.415   8.507  0.5090  0.5354  0.3565
  567MOL0     C78176   9.189   8.457   8.389 -0.0595 -0.6602  0.9581
  567MOL0     H78177   9.856   8.501   8.346 -1.9618 -0.1960  1.0645
  567MOL0     H78178  10.009   8.480   8.153 -0.8740  0.5292 -0.3300
  567MOL0     H78179  10.062   8.475   7.896  0.9467  0.1685 -1.2425
  567MOL0     H78180   9.914   8.429   7.818  1.3996  4.0976 -0.8217
  567MOL0     H78181  10.155   8.405   7.697  1.2836 -0.2536  0.3185
  567MOL0     H78182  10.167   8.265   7.801  1.6608  2.5890 -0.4299
  567MOL0     H78183   9.956   8.176   7.701  1.3024 -1.7326 -0.7252
  567MOL0     H78184   9.948   8.327   7.603 -0.8459 -1.4678 -0.9283
  567MOL0     H78185  10.172   8.277   7.496 -2.6219  2.2205 -1.2975
  567MOL0     H78186  10.169   8.110   7.557 -0.1184 -0.8838  0.2848
  567MOL0     H78187   9.955   8.226   7.391  1.4904  1.9163 -0.3459
  567MOL0     H78188   9.984   8.051   7.415  1.6152 -0.3945 -1.5049
  567MOL0     H78189  10.057   8.086   7.203 -0.6658 -0.6396  0.9910
  567MOL0     H78190  10.110   8.251   7.242  1.4102 -0.5438 -2.0244
  567MOL0     H78191  10.249   7.999   7.342  1.0825 -1.2483 -2.0802
  567MOL0     H78192  10.332   8.162   7.333  1.0056 -1.2839  1.2193
  567MOL0     H78193  10.411   8.037   7.157  0.2264  1.2121 -0.0905
  567MOL0     H78194  10.245   7.982   7.118  0.2804  0.3440  0.1536
  567MOL0     H78195  10.419   8.312   7.161  0.2003  0.5254  0.8529
  567MOL0     H78196  10.471   8.506   6.849 -2.3989  2.3851 -1.3346
  567MOL0     H78197  10.440   8.540   7.022 -0.5612  0.8009  0.3724
  567MOL0     H78198  10.207   8.598   6.968 -0.1441  0.7089 -0.7999
  567MOL0     H78199  10.335   8.688   6.902  2.3006 -0.5761  0.6343
  567MOL0     H78200  10.311   8.557   6.678  3.7003  0.3705  3.8437
  567MOL0     H78201  10.164   8.472   6.733 -0.8618 -0.0086 -2.4395
  567MOL0     H78202  10.068   8.708   6.781 -0.9680 -0.9708 -0.3135
  567MOL0     H78203  10.186   8.759   6.658 -0.8533 -0.4440 -1.1380
  567MOL0     H78204   9.837   8.498   6.535 -0.9712  0.2479  1.8435
  567MOL0     H78205   9.609   8.484   6.443  0.4507 -0.3617 -2.3991
  567MOL0     H78206   9.556   8.608   6.334  2.5444 -2.8715 -0.2124
  567MOL0     H78207   9.521   8.629   6.512  0.4833  1.6251  0.4112
  567MOL0     H78208   9.510   8.869   6.119  0.6149  0.5874 -1.9162
  567MOL0     H78209   9.318   8.946   5.952  0.1111  0.5122  0.0550
  567MOL0     H78210   9.092   8.889   5.895  0.1244  0.3864 -1.3027
  567MOL0     H78211   8.940   8.988   5.876 -0.4560  1.9390 -2.5281
  567MOL0     H78212   9.227   9.067   5.812  0.7632  0.3379  2.8993
  567MOL0     H78213   9.080   9.049   5.713 -1.4740 -3.7274  1.8275
  567MOL0     H78214   9.114   9.261   5.930  3.7400  2.0210 -2.2757
  567MOL0     H78215   8.972   9.257   5.825 -1.2213 -1.6876  0.7617
  567MOL0     H78216   9.097   9.406   5.724  0.4894  0.8424  1.5611
  567MOL0     H78217   9.185   9.276   5.642  0.4045 -0.0867 -0.2273
  567MOL0     H78218   9.303   9.477   5.710  5.2586 -0.1567  0.6663
  567MOL0     H78219   9.271   9.456   5.881 -1.5116 -0.7176  0.1190
  567MOL0     H78220   9.500   9.375   5.768  1.2723 -1.9329 -0.1160
  567MOL0     H78221   9.420   9.237   5.713  3.0392 -0.6210  0.4104
  567MOL0     H78222   9.349   9.199   5.963 -0.0425 -0.6633  1.0711
  567MOL0     H78223   9.438   9.325   6.003 -3.6555  0.6112 -0.9632
  567MOL0     H78224   9.597   9.146   6.029 -1.6717 -2.2240  0.1962
  567MOL0     H78225   9.651   9.226   5.881 -0.5549  0.3549  0.6832
  567MOL0     H78226   9.062   8.990   6.300 -0.1750 -0.0585 -0.0956
  567MOL0     H78227   9.241   8.910   6.440 -1.1464 -0.3187  0.1650
  567MOL0     H78228   9.802   8.994   6.507  1.5725  0.8561 -0.9868
  567MOL0     H78229  10.004   8.891   6.577 -2.4260  1.9394  1.2362
  567MOL0     H78230   9.775   8.150   8.019 -1.6772 -1.6795  2.3928
  567MOL0     H78231   9.623   8.177   8.190  0.1774 -0.6839 -1.3494
  567MOL0     H78232   9.586   8.321   8.609 -0.5004 -2.2238 -1.9203
  567MOL0     H78233   9.451   8.287   8.816 -3.4842 -0.4416  1.0105
  567MOL0     H78234   9.006   8.335   8.814 -0.8443 -0.2140  2.4990
  567MOL0     H78235   9.040   8.341   8.981  1.3060  0.7306  1.6360
  567MOL0     H78236   8.964   8.557   8.850  0.3764  1.2387 -0.0114
  567MOL0     H78237   9.135   8.576   8.809  0.9994 -2.3425 -1.3207
  567MOL0     H78238   9.033   8.542   9.097  0.0305  2.2742  2.0633
  567MOL0     H78239   9.191   8.610   9.058  1.1970 -0.4198  0.5348
  567MOL0     H78240   8.934   8.736   8.953 -0.4989 -2.2543  0.2019
  567MOL0     H78241   9.101   8.792   8.937 -0.5948 -0.7534 -1.6172
  567MOL0     H78242   9.000   8.889   9.342 -0.3140 -1.4118  0.8964
  567MOL0     H78243   9.101   8.433   8.634  0.6330  0.8466 -1.0325
  567MOL0     H78244   9.148   8.374   8.329  1.5932 -0.4911 -0.4911
  567MOL0     H78245   9.108   8.525   8.416 -0.2086 -0.2737 -0.3653
  567MOL0     H78246   9.260   8.508   8.324  0.1400 -1.7170  0.3093
  568MOL0     O78247   3.259   7.579   9.166  0.5164  0.0867  0.6489
  568MOL0     C78248   3.276   7.567   9.043 -0.5310 -0.4351 -0.9513
  568MOL0     O78249   3.351   7.653   8.973 -0.7840 -0.4620  0.1075
  568MOL0     C78250   3.427   7.738   9.049  0.1369  0.0267  0.3903
  568MOL0     C78251   3.558   7.700   9.093  0.6556  0.3200  0.7787
  568MOL0     C78252   3.643   7.786   9.160  0.4861  0.6263 -0.4160
  568MOL0     C78253   3.591   7.912   9.209 -0.0066 -0.3918  0.3597
  568MOL0     O78254   3.652   8.000   9.286 -0.0417 -0.9810 -0.3784
  568MOL0     C78255   3.735   7.943   9.388  0.4530 -0.0202  0.1874
  568MOL0     C78256   3.825   8.049   9.455  0.1883 -0.4456 -0.0315
  568MOL0     C78257   3.962   8.080   9.386 -0.3971  0.3031 -0.5591
  568MOL0     C78258   4.065   7.971   9.421  0.5871 -0.2623  0.1267
  568MOL0     C78259   4.207   8.029   9.376 -0.5581 -0.8788  0.1504
  568MOL0     C78260   4.228   8.047   9.226 -0.2699  0.4836  0.4418
  568MOL0     C78261   4.246   7.919   9.147 -0.6050 -0.6158  0.6348
  568MOL0     C78262   4.378   7.855   9.183  0.6465  0.1459  0.9403
  568MOL0     N78263   4.502   7.922   9.131  0.7609 -0.3318  0.0548
  568MOL0     C78264   4.578   7.881   9.027 -0.2092  0.8943 -0.0324
  568MOL0     C78265   4.683   7.966   9.026 -0.0861 -1.2990  0.0174
  568MOL0     C78266   4.799   7.941   8.942 -0.6845  0.5063 -0.5870
  568MOL0     C78267   4.807   8.060   8.839 -0.3990 -0.4190 -0.6268
  568MOL0     C78268   4.899   8.015   8.724  0.3722  0.4122  0.2804
  568MOL0     C78269   4.997   8.113   8.658 -0.3998  0.1521  0.2799
  568MOL0     O78270   5.094   8.156   8.755  0.2302 -0.7804  0.1751
  568MOL0     C78271   5.209   8.080   8.783  0.1596  0.4649 -0.2700
  568MOL0     C78272   5.306   8.139   8.857  0.6158 -0.1236  0.5714
  568MOL0     C78273   5.427   8.079   8.881 -0.4605  0.1148  0.0745
  568MOL0     C78274   5.529   8.159   8.955  0.5837  0.1187 -0.2789
  568MOL0     C78275   5.453   7.951   8.825 -0.8301  0.0439  0.8183
  568MOL0     C78276   5.582   7.884   8.819 -0.1036  0.3332 -0.5044
  568MOL0     O78277   5.596   7.764   8.755  0.7564  0.0296 -0.0133
  568MOL0     C78278   5.713   7.701   8.737  0.0621 -0.9369  0.3156
  568MOL0     C78279   5.722   7.556   8.745  0.2351 -0.3382  0.5204
  568MOL0     C78280   5.841   7.484   8.720  1.5520 -1.1154  0.5756
  568MOL0     C78281   5.957   7.549   8.675  0.6511  0.7276  0.4327
  568MOL0     O78282   6.071   7.484   8.642 -0.9014  0.4514  0.3112
  568MOL0     C78283   6.071   7.339   8.621  0.6634 -0.2525  0.9485
  568MOL0     C78284   6.211   7.295   8.567  0.0927 -0.4109  0.8932
  568MOL0     C78285   6.223   7.382   8.437  0.3460 -0.1235 -0.1269
  568MOL0     C78286   6.360   7.361   8.362  0.5933 -0.8232 -0.7515
  568MOL0     C78287   6.393   7.458   8.256 -0.2222  0.1917 -0.5124
  568MOL0     C78288   6.535   7.436   8.215 -0.2543 -0.2878 -0.3105
  568MOL0     C78289   6.551   7.511   8.077 -0.5540  0.0135 -1.3971
  568MOL0     C78290   6.694   7.489   8.018 -0.5575  0.2163 -0.2475
  568MOL0    Cl78291   6.747   7.325   7.974 -0.0119  0.1341  0.1543
  568MOL0     C78292   5.953   7.682   8.676  0.3842  1.1740  0.7079
  568MOL0     C78293   5.838   7.761   8.705 -1.0060  0.3749 -1.2724
  568MOL0     O78294   5.672   7.940   8.882  0.3250 -0.4793  0.7585
  568MOL0     C78295   5.355   7.882   8.754  0.4250 -0.0751 -0.5829
  568MOL0     C78296   5.236   7.947   8.733  0.2380 -0.1813  1.2401
  568MOL0     N78297   4.666   8.063   9.116  0.0949 -0.5957 -0.7161
  568MOL0     N78298   4.565   8.024   9.188  0.3195  0.0207 -0.1586
  568MOL0     C78299   3.462   7.946   9.169 -0.1518  0.1101 -0.3507
  568MOL0     C78300   3.382   7.866   9.093  0.1070 -0.3591 -0.4766
  568MOL0     C78301   3.209   7.459   8.959  0.3483  0.9236  0.4178
  568MOL0     C78302   3.245   7.450   8.817  0.3643 -0.6528 -0.5509
  568MOL0     C78303   3.188   7.348   8.743  0.3584 -0.0353  0.1832
  568MOL0     C78304   3.094   7.257   8.802  0.1502 -1.0155 -0.6004
  568MOL0     O78305   3.063   7.138   8.751 -0.7009  0.5277 -0.2455
  568MOL0     C78306   3.057   7.114   8.605  0.5014 -0.0243 -0.3189
  568MOL0     C78307   2.928   7.053   8.572  0.1737  0.6279 -0.1169
  568MOL0     C78308   2.839   7.146   8.495 -0.4152 -0.4688 -0.3485
  568MOL0     C78309   2.882   7.162   8.344 -0.9276 -0.3601  0.1622
  568MOL0     C78310   2.856   7.032   8.272 -0.5589 -0.1440 -0.6101
  568MOL0     C78311   2.839   6.927   8.206 -0.0264  0.7305  0.0805
  568MOL0     C78312   3.043   7.284   8.930 -0.0154 -0.0564  0.1328
  568MOL0     C78313   3.101   7.377   9.009 -0.7413  0.5158  0.4573
  568MOL0     C78314   3.042   7.372   9.153 -0.8075 -0.4152  0.2278
  568MOL0     H78315   3.599   7.606   9.057  0.7920 -0.2624  2.3523
  568MOL0     H78316   3.743   7.745   9.172  0.2557 -0.3039 -1.5103
  568MOL0     H78317   3.806   7.880   9.334  2.5429  0.5209  2.1165
  568MOL0     H78318   3.670   7.891   9.459 -0.5175 -1.1296 -1.4748
  568MOL0     H78319   3.774   8.146   9.454  0.7619 -0.0639  2.2158
  568MOL0     H78320   3.837   8.033   9.563  0.4727  0.2404  0.0431
  568MOL0     H78321   3.948   8.090   9.278 -2.7828  1.9153 -0.1862
  568MOL0     H78322   3.990   8.177   9.428 -3.9854  1.2076  0.1114
  568MOL0     H78323   4.077   7.957   9.529  0.1051  1.3935  0.4259
  568MOL0     H78324   4.039   7.877   9.372  1.5335  0.9198 -2.8853
  568MOL0     H78325   4.278   7.961   9.423 -0.1693 -0.3644  0.3119
  568MOL0     H78326   4.228   8.129   9.414 -0.8326 -0.8253  0.1680
  568MOL0     H78327   4.137   8.088   9.180 -1.5230 -2.9330 -0.4906
  568MOL0     H78328   4.315   8.113   9.217  0.2274 -0.0729  1.1125
  568MOL0     H78329   4.244   7.939   9.039 -4.7757 -2.9931  0.0876
  568MOL0     H78330   4.168   7.843   9.152 -0.7606 -0.4699  0.4162
  568MOL0     H78331   4.384   7.863   9.292 -0.0991  1.3181  0.9034
  568MOL0     H78332   4.372   7.747   9.164  2.2822  0.0146  0.9641
  568MOL0     H78333   4.563   7.803   8.954  0.5433  0.9561 -0.2643
  568MOL0     H78334   4.797   7.842   8.894 -1.1955  1.4075 -2.5311
  568MOL0     H78335   4.891   7.933   9.000 -0.1940 -1.9339 -1.5450
  568MOL0     H78336   4.706   8.080   8.800 -2.0917 -1.8301  2.6234
  568MOL0     H78337   4.851   8.148   8.887  1.8048 -0.9409 -1.5616
  568MOL0     H78338   4.947   7.922   8.755 -1.0085 -0.6127 -0.5588
  568MOL0     H78339   4.833   7.987   8.642  0.5283 -0.8156  0.5471
  568MOL0     H78340   5.045   8.064   8.573  0.7123  0.7147  0.5688
  568MOL0     H78341   4.951   8.203   8.617 -0.3335  0.0559 -0.0040
  568MOL0     H78342   5.279   8.237   8.895 -1.6995 -0.5518  0.2248
  568MOL0     H78343   5.607   8.196   8.888  0.2871 -0.7723 -1.1375
  568MOL0     H78344   5.573   8.095   9.032 -0.4342 -0.6761 -0.3378
  568MOL0     H78345   5.479   8.239   9.011 -1.1671 -2.2395  1.7673
  568MOL0     H78346   5.635   7.498   8.772  2.0290 -3.3511  0.1999
  568MOL0     H78347   5.828   7.376   8.724 -1.4474 -0.8390  0.3102
  568MOL0     H78348   6.065   7.288   8.717 -1.5481  1.8634  2.0417
  568MOL0     H78349   5.987   7.304   8.560 -1.3033 -1.4637  4.1434
  568MOL0     H78350   6.291   7.329   8.633  0.5762  1.8759 -0.7569
  568MOL0     H78351   6.226   7.189   8.546  2.8080 -0.3400  2.1235
  568MOL0     H78352   6.231   7.486   8.471 -0.9816 -0.2000  0.4992
  568MOL0     H78353   6.140   7.373   8.366 -0.0171 -0.8244  0.3854
  568MOL0     H78354   6.366   7.261   8.317  2.8253 -0.0415 -2.3275
  568MOL0     H78355   6.436   7.349   8.440 -1.5940  1.0488  1.8957
  568MOL0     H78356   6.327   7.435   8.172  1.4134  0.1797 -1.8492
  568MOL0     H78357   6.393   7.563   8.289  1.5930 -0.1658  0.8195
  568MOL0     H78358   6.551   7.329   8.198 -2.7565 -0.7563 -0.0377
  568MOL0     H78359   6.610   7.462   8.290  3.0123  2.0251 -3.9678
  568MOL0     H78360   6.538   7.620   8.080 -1.9347 -0.1379  0.7409
  568MOL0     H78361   6.482   7.471   8.002 -0.2295 -0.7812 -1.2846
  568MOL0     H78362   6.763   7.520   8.097 -1.7853  0.3583  0.8189
  568MOL0     H78363   6.711   7.554   7.932  0.9311 -0.5859 -0.5817
  568MOL0     H78364   6.043   7.736   8.650 -1.3943  3.0570 -2.1857
  568MOL0     H78365   5.845   7.868   8.690  0.7244  0.1300 -2.5041
  568MOL0     H78366   5.355   7.780   8.719 -2.1992 -0.7851  1.1970
  568MOL0     H78367   5.165   7.895   8.670  3.3818 -2.4366 -0.7931
  568MOL0     H78368   3.429   8.041   9.210 -1.3424 -0.9564  1.2764
  568MOL0     H78369   3.277   7.887   9.074 -0.9316 -2.5067  2.0519
  568MOL0     H78370   3.316   7.518   8.770  0.7374 -0.9312 -0.3977
  568MOL0     H78371   3.212   7.332   8.639 -1.2394 -0.3091 -0.1628
  568MOL0     H78372   3.069   7.202   8.542 -2.2106  0.8393  0.2671
  568MOL0     H78373   3.138   7.041   8.591 -0.3690 -1.0077 -0.3721
  568MOL0     H78374   2.886   7.017   8.667  1.1654 -1.2623 -0.3547
  568MOL0     H78375   2.948   6.965   8.511 -1.3152  0.8310 -0.9508
  568MOL0     H78376   2.737   7.108   8.487  0.5961 -3.5151 -0.1354
  568MOL0     H78377   2.825   7.241   8.546 -1.6849  1.2367 -3.5684
  568MOL0     H78378   2.988   7.184   8.332 -0.6552  1.5426  4.2784
  568MOL0     H78379   2.826   7.243   8.295 -0.7516 -0.5456 -0.3522
  568MOL0     H78380   2.824   6.825   8.176  0.6951  1.2199 -2.1130
  568MOL0     H78381   2.959   7.227   8.968 -1.6598 -0.4049 -3.6253
  568MOL0     H78382   3.128   7.388   9.219  1.1131  4.9674 -2.9194
  568MOL0     H78383   2.977   7.456   9.176 -1.2312 -0.6215 -0.2040
  568MOL0     H78384   2.989   7.279   9.177 -1.0645 -1.2641 -3.1708
  569MOL0     O78385   4.733   3.131   6.719 -0.4496  0.2755 -0.0966
  569MOL0     C78386   4.763   3.250   6.714  0.0892  0.3748 -0.8082
  569MOL0     O78387   4.687   3.351   6.658  0.1929  0.1042 -0.6350
  569MOL0     C78388   4.561   3.324   6.620 -0.1270  0.6481  0.2495
  569MOL0     C78389   4.448   3.306   6.707 -0.2472  0.8249  0.0935
  569MOL0     C78390   4.320   3.296   6.642 -0.5350  0.6976  0.0229
  569MOL0     C78391   4.311   3.308   6.499  0.7553 -0.4980 -0.5394
  569MOL0     O78392   4.188   3.316   6.444  0.4238  0.2702  0.0957
  569MOL0     C78393   4.182   3.235   6.325  0.2097  0.5815 -0.3874
  569MOL0     C78394   4.033   3.221   6.288 -0.5563 -0.2774  0.1774
  569MOL0     C78395   3.968   3.101   6.363  0.7865  0.0154  0.3287
  569MOL0     C78396   3.827   3.094   6.303 -0.2061  0.9347  0.2834
  569MOL0     C78397   3.726   3.006   6.374  0.3154  0.1613 -0.3487
  569MOL0     C78398   3.635   2.916   6.294  0.3707  0.3569 -0.8192
  569MOL0     C78399   3.550   2.977   6.181  0.0038 -0.5053  0.3840
  569MOL0     C78400   3.429   3.058   6.213  0.8853  0.4146 -0.7004
  569MOL0     N78401   3.333   2.973   6.289 -0.1553 -0.2712  0.6937
  569MOL0     C78402   3.256   2.877   6.230 -0.0086  1.1195 -0.3069
  569MOL0     C78403   3.185   2.830   6.336  0.9613 -0.0083 -0.6077
  569MOL0     C78404   3.081   2.727   6.310  0.4947  0.2926  0.1981
  569MOL0     C78405   3.038   2.670   6.445 -0.6482  0.2319 -0.3366
  569MOL0     C78406   3.138   2.600   6.537 -0.0656  0.1697  0.7880
  569MOL0     C78407   3.214   2.491   6.456 -0.0290 -0.3121 -0.1182
  569MOL0     O78408   3.307   2.409   6.531 -0.8603  0.3148  0.8197
  569MOL0     C78409   3.423   2.458   6.593 -0.6294  0.5115 -0.0696
  569MOL0     C78410   3.494   2.379   6.683 -0.2263 -0.0453  0.2388
  569MOL0     C78411   3.601   2.441   6.759 -0.2602  1.0022  0.0649
  569MOL0     C78412   3.665   2.345   6.859  0.2385  0.4049 -0.3055
  569MOL0     C78413   3.636   2.578   6.736 -1.0264 -0.0908  0.5123
  569MOL0     C78414   3.762   2.642   6.800  0.4817 -0.1427  0.8134
  569MOL0     O78415   3.794   2.761   6.742  0.2134 -0.2357  0.2320
  569MOL0     C78416   3.906   2.836   6.778  0.3489 -0.1666  0.5257
  569MOL0     C78417   3.944   2.865   6.910 -0.8058  0.0536  0.2736
  569MOL0     C78418   4.060   2.927   6.941  0.3319 -0.1127  0.9758
  569MOL0     C78419   4.149   2.982   6.839  0.5795  0.3152 -0.1124
  569MOL0     O78420   4.259   3.056   6.877 -0.1621 -0.1069 -0.0203
  569MOL0     C78421   4.337   3.022   6.991  0.1099 -0.9103  0.2978
  569MOL0     C78422   4.481   3.099   6.995  0.2511 -0.6055 -0.1788
  569MOL0     C78423   4.554   3.027   7.102  0.7313 -0.7082  0.6506
  569MOL0     C78424   4.691   3.102   7.117  0.4484  0.4407  0.0898
  569MOL0     C78425   4.720   3.056   7.258 -0.0952  0.0370  0.3584
  569MOL0     C78426   4.869   3.079   7.279 -0.7505  0.3682  0.1333
  569MOL0     C78427   4.961   2.973   7.216  0.3474  0.5299  0.3913
  569MOL0     C78428   5.093   3.024   7.145  0.3270  0.3446  0.0903
  569MOL0    Cl78429   5.172   2.891   7.058  0.1881  0.0174 -0.1982
  569MOL0     C78430   4.108   2.963   6.710  0.7002  0.2279  0.6227
  569MOL0     C78431   3.984   2.896   6.673 -0.1704  0.6440 -0.1053
  569MOL0     O78432   3.813   2.596   6.901 -0.5707 -0.6498  0.1578
  569MOL0     C78433   3.573   2.647   6.632 -0.0033 -0.4291 -0.5552
  569MOL0     C78434   3.477   2.586   6.558  0.4062  0.2117  0.9235
  569MOL0     N78435   3.234   2.889   6.456 -0.2479 -0.1094  0.3795
  569MOL0     N78436   3.319   2.975   6.424  0.7429  0.1421 -0.3881
  569MOL0     C78437   4.428   3.313   6.419 -0.5010 -0.3485 -0.1617
  569MOL0     C78438   4.549   3.314   6.482 -0.0238 -0.4634 -0.0329
  569MOL0     C78439   4.887   3.282   6.783  0.1926 -0.2496  0.4762
  569MOL0     C78440   4.892   3.340   6.907 -0.8845  0.0700  0.0030
  569MOL0     C78441   5.008   3.374   6.960 -0.0142 -0.4925  0.0100
  569MOL0     C78442   5.128   3.357   6.893 -0.5705  0.4653 -1.4306
  569MOL0     O78443   5.245   3.377   6.968 -0.2623 -0.5049  0.6153
  569MOL0     C78444   5.372   3.376   6.906 -0.3770  0.4290  0.4729
  569MOL0     C78445   5.485   3.416   7.004 -0.7646 -0.2796  0.6895
  569MOL0     C78446   5.539   3.297   7.087 -0.4613 -0.3229  0.6072
  569MOL0     C78447   5.448   3.230   7.185  0.6531  0.5360 -0.3397
  569MOL0     C78448   5.379   3.327   7.274 -0.2147  0.0583 -0.8351
  569MOL0     C78449   5.340   3.406   7.354 -0.4087 -0.0993  0.0153
  569MOL0     C78450   5.124   3.299   6.773  0.3524  0.4736  0.5772
  569MOL0     C78451   5.000   3.256   6.717  0.2123 -0.2981 -0.0796
  569MOL0     C78452   5.011   3.179   6.587  0.3709  0.3830 -0.0909
  569MOL0     H78453   4.457   3.311   6.815  0.6780  0.5233  0.0365
  569MOL0     H78454   4.229   3.275   6.698 -0.1658 -0.7747  0.1273
  569MOL0     H78455   4.220   3.134   6.343 -0.5709  0.6912  2.3873
  569MOL0     H78456   4.231   3.288   6.243  0.4326  3.7573  1.5993
  569MOL0     H78457   3.978   3.312   6.312 -2.0899 -0.9196 -0.7222
  569MOL0     H78458   4.021   3.209   6.180  0.8234  0.2882 -0.0491
  569MOL0     H78459   4.022   3.006   6.356  0.5414 -0.3332  2.5006
  569MOL0     H78460   3.964   3.119   6.471  2.4609 -2.6505  0.9270
  569MOL0     H78461   3.775   3.190   6.293 -2.4378 -0.2219  0.0804
  569MOL0     H78462   3.829   3.063   6.198 -2.1008  2.4618 -0.2602
  569MOL0     H78463   3.665   3.074   6.434  1.8229  1.6521 -0.4340
  569MOL0     H78464   3.783   2.940   6.441  2.2648  0.7974 -1.2825
  569MOL0     H78465   3.690   2.842   6.235 -1.4041 -1.2179 -0.5676
  569MOL0     H78466   3.567   2.855   6.353 -0.8191  1.2864 -1.1821
  569MOL0     H78467   3.530   2.899   6.107  1.7659 -0.4257 -0.2361
  569MOL0     H78468   3.613   3.050   6.128  2.2041 -1.4002  1.6676
  569MOL0     H78469   3.462   3.135   6.283 -2.0942 -0.6908  2.2509
  569MOL0     H78470   3.388   3.114   6.128  2.6750  3.9307  0.5438
  569MOL0     H78471   3.256   2.842   6.127  0.4976  1.0867 -0.3002
  569MOL0     H78472   3.119   2.645   6.249 -0.1258 -0.5583  0.9399
  569MOL0     H78473   2.998   2.778   6.260 -0.0785 -2.0834 -1.4124
  569MOL0     H78474   2.996   2.752   6.504  0.7725  0.2917  0.6380
  569MOL0     H78475   2.956   2.599   6.430 -1.3642  1.3367 -2.0617
  569MOL0     H78476   3.201   2.681   6.574 -3.3109  5.2010 -3.2439
  569MOL0     H78477   3.085   2.539   6.611  1.3943 -0.2958  1.4779
  569MOL0     H78478   3.137   2.428   6.410 -1.7587  1.7712 -0.2805
  569MOL0     H78479   3.272   2.549   6.385  0.1993  0.8488  0.9775
  569MOL0     H78480   3.469   2.274   6.695 -1.7686  0.1233 -1.1551
  569MOL0     H78481   3.644   2.241   6.832  0.5692  0.7471 -2.0275
  569MOL0     H78482   3.630   2.367   6.960  0.1856 -0.0726 -0.2190
  569MOL0     H78483   3.774   2.350   6.860  0.3846 -1.4765 -1.8893
  569MOL0     H78484   3.872   2.830   6.983  0.9011  0.1413  2.0744
  569MOL0     H78485   4.094   2.935   7.044 -1.0001 -0.2357  1.4413
  569MOL0     H78486   4.286   3.048   7.084  0.2873 -1.7264  0.6342
  569MOL0     H78487   4.358   2.916   6.976  1.8466 -0.5082 -0.3024
  569MOL0     H78488   4.535   3.112   6.900  1.9023 -1.8680  0.5452
  569MOL0     H78489   4.471   3.202   7.032 -0.0587 -0.1821 -1.3716
  569MOL0     H78490   4.577   2.923   7.077  1.6922  0.3799 -3.7175
  569MOL0     H78491   4.492   3.026   7.193  2.9818  0.0264  2.2842
  569MOL0     H78492   4.695   3.211   7.105 -1.4531  0.8027  2.1064
  569MOL0     H78493   4.749   3.061   7.034 -2.0919  0.1922 -1.6857
  569MOL0     H78494   4.657   3.121   7.320 -2.0851 -1.5260  0.0716
  569MOL0     H78495   4.694   2.954   7.286 -0.4480 -0.0805 -0.3711
  569MOL0     H78496   4.892   3.073   7.386  0.2882 -2.9800 -0.1595
  569MOL0     H78497   4.910   3.169   7.234  3.0023 -1.7200 -1.1334
  569MOL0     H78498   4.908   2.916   7.139 -0.1264  0.3577  0.8455
  569MOL0     H78499   4.995   2.908   7.297  1.0435  1.0091  0.4946
  569MOL0     H78500   5.155   3.075   7.220  0.6720  0.1235 -0.0442
  569MOL0     H78501   5.065   3.093   7.065 -0.0040 -0.4918 -0.5293
  569MOL0     H78502   4.171   3.006   6.632  0.9954 -1.6457 -0.2180
  569MOL0     H78503   3.951   2.883   6.570 -1.3244 -0.0151  0.3283
  569MOL0     H78504   3.582   2.755   6.629  0.1378 -0.4661 -2.7470
  569MOL0     H78505   3.413   2.643   6.491  1.5980 -1.3444 -1.6543
  569MOL0     H78506   4.430   3.320   6.311  2.6084 -3.5978 -0.4657
  569MOL0     H78507   4.639   3.316   6.420 -1.2248  1.2844 -1.8564
  569MOL0     H78508   4.802   3.348   6.967 -0.6582 -0.9544  0.4912
  569MOL0     H78509   5.002   3.424   7.056 -0.0704 -0.9201  0.2305
  569MOL0     H78510   5.389   3.277   6.862 -3.6132 -0.0362 -0.0192
  569MOL0     H78511   5.382   3.454   6.830 -0.2431 -0.1651 -0.1294
  569MOL0     H78512   5.440   3.488   7.073 -0.3652  0.1225  0.5402
  569MOL0     H78513   5.559   3.470   6.944 -3.8793  3.4781 -0.2090
  569MOL0     H78514   5.572   3.221   7.015  1.6425  0.8280  0.2640
  569MOL0     H78515   5.634   3.325   7.133  1.4229 -2.2764 -1.7816
  569MOL0     H78516   5.516   3.164   7.239  2.8853  2.8109 -0.1761
  569MOL0     H78517   5.367   3.187   7.124  1.1095  1.7735 -1.8907
  569MOL0     H78518   5.280   3.475   7.411  0.8629 -0.0038  1.3012
  569MOL0     H78519   5.213   3.282   6.714  0.6848  0.9589  0.9374
  569MOL0     H78520   5.117   3.164   6.563 -0.1546 -1.6735 -1.3617
  569MOL0     H78521   4.966   3.079   6.591 -1.8401  1.0131 -3.9808
  569MOL0     H78522   4.955   3.234   6.510 -1.5791 -1.2536  0.0600
  570MOL0     O78523   2.924   9.096   1.323 -0.0651 -0.2125 -0.0118
  570MOL0     C78524   2.825   9.116   1.257  0.5988  0.4327  0.4880
  570MOL0     O78525   2.826   9.187   1.136 -0.0755  0.7087  0.2253
  570MOL0     C78526   2.939   9.260   1.112 -0.8043  0.1208 -0.0655
  570MOL0     C78527   3.000   9.249   0.982 -0.9952  0.5588 -0.4870
  570MOL0     C78528   3.101   9.336   0.941  0.3956  0.6307 -0.4220
  570MOL0     C78529   3.152   9.428   1.034 -0.4644 -0.0665 -0.0343
  570MOL0     O78530   3.256   9.512   1.006  0.1765 -0.3867  0.4383
  570MOL0     C78531   3.309   9.521   0.873  0.3657  0.1961  0.8579
  570MOL0     C78532   3.438   9.595   0.840  0.2076 -0.7260 -0.5629
  570MOL0     C78533   3.563   9.546   0.907  1.1376  0.0509  0.7225
  570MOL0     C78534   3.671   9.656   0.905  0.2492  0.1162  0.3461
  570MOL0     C78535   3.799   9.600   0.959  0.0907 -0.5486 -0.5185
  570MOL0     C78536   3.923   9.662   0.885 -0.6077  1.0282  0.2401
  570MOL0     C78537   4.050   9.628   0.959  0.1997 -0.2581 -0.7265
  570MOL0     C78538   4.154   9.744   0.944  0.7193  0.2296  0.4147
  570MOL0     N78539   4.101   9.864   1.004  0.2261 -0.7601  0.2819
  570MOL0     C78540   4.037   9.877   1.118  0.8575  0.7953  0.7396
  570MOL0     C78541   4.010  10.007   1.120  0.8211 -0.3546  0.4843
  570MOL0     C78542   3.950  10.083   1.232 -0.1370 -0.4697  0.6632
  570MOL0     C78543   3.993  10.041   1.373  0.8373  0.6462 -0.6870
  570MOL0     C78544   4.148  10.064   1.393  0.3247  0.3016  0.4112
  570MOL0     C78545   4.206  10.216   1.395  0.6657  1.0241  0.0666
  570MOL0     O78546   4.349  10.216   1.439  0.4794 -0.4361  0.3387
  570MOL0     C78547   4.397  10.226   1.571  0.0324 -1.1649 -1.1983
  570MOL0     C78548   4.316  10.218   1.682 -0.8240 -0.0345  0.2771
  570MOL0     C78549   4.375  10.236   1.809  0.3389 -0.3364 -0.5792
  570MOL0     C78550   4.286  10.215   1.925  0.0438  0.0700 -0.3441
  570MOL0     C78551   4.514  10.267   1.826  0.3869  0.8120  0.0674
  570MOL0     C78552   4.590  10.276   1.960 -0.1944 -0.2096 -0.1317
  570MOL0     O78553   4.518  10.310   2.074  0.3805  0.7970  0.7882
  570MOL0     C78554   4.582  10.322   2.197 -0.4468 -0.1248  0.1030
  570MOL0     C78555   4.588  10.445   2.254  0.4216 -0.1110 -0.8292
  570MOL0     C78556   4.645  10.457   2.372 -0.2740 -0.3121  0.2145
  570MOL0     C78557   4.702  10.352   2.441  0.5879 -0.3045  0.9508
  570MOL0     O78558   4.753  10.372   2.568 -0.0038 -0.1591  0.3517
  570MOL0     C78559   4.664  10.321   2.669 -0.1700  0.0929 -0.3728
  570MOL0     C78560   4.746  10.301   2.798 -0.4432  0.2075 -0.7166
  570MOL0     C78561   4.863  10.194   2.774 -0.4407 -0.0358  0.4004
  570MOL0     C78562   4.965  10.214   2.884  0.7998 -0.1040  0.1476
  570MOL0     C78563   5.067  10.101   2.882 -0.3607  0.5118  0.3106
  570MOL0     C78564   5.172  10.111   2.988  0.3224  0.4224 -0.3682
  570MOL0     C78565   5.279  10.207   2.935  0.1146  0.1137  0.4256
  570MOL0     C78566   5.373  10.238   3.040 -0.4212 -0.3385 -0.0881
  570MOL0    Cl78567   5.286  10.318   3.188 -0.2534  0.2751 -0.0486
  570MOL0     C78568   4.702  10.221   2.386  0.2892 -0.0867  0.2509
  570MOL0     C78569   4.638  10.213   2.258 -0.1412 -0.0610 -0.2198
  570MOL0     O78570   4.713  10.285   1.947 -0.1266  0.7060  0.4462
  570MOL0     C78571   4.591  10.264   1.710 -0.6107 -0.5576  0.2589
  570MOL0     C78572   4.535  10.261   1.589 -0.0249 -0.1456  1.2060
  570MOL0     N78573   4.062  10.073   1.010 -0.4850 -0.3882  0.0262
  570MOL0     N78574   4.118   9.981   0.941 -0.2529  0.2464  0.2832
  570MOL0     C78575   3.102   9.429   1.166 -0.7398 -0.5503 -0.1427
  570MOL0     C78576   3.003   9.341   1.206  0.3758 -0.1978 -0.1284
  570MOL0     C78577   2.691   9.070   1.302  0.5297 -0.1664 -0.1780
  570MOL0     C78578   2.594   9.168   1.291  0.2242  0.3763  0.3438
  570MOL0     C78579   2.466   9.151   1.349  0.1707  0.2298 -0.4544
  570MOL0     C78580   2.433   9.034   1.428 -0.0723 -0.2508  0.5203
  570MOL0     O78581   2.317   9.002   1.488 -0.3863  0.6516 -0.4471
  570MOL0     C78582   2.218   8.994   1.386 -0.1558  0.0769 -0.6327
  570MOL0     C78583   2.080   8.984   1.457  0.3791 -0.0188  0.9926
  570MOL0     C78584   2.030   9.104   1.543  0.0239  1.5093 -1.0772
  570MOL0     C78585   1.981   9.228   1.473  0.1047  0.5030 -1.1170
  570MOL0     C78586   1.851   9.201   1.394 -0.4810 -0.7275  0.4143
  570MOL0     C78587   1.752   9.182   1.324  0.3564 -0.4122  0.1392
  570MOL0     C78588   2.531   8.934   1.426  0.9189 -0.0176 -1.0180
  570MOL0     C78589   2.664   8.953   1.375  0.3608  0.6370 -0.1981
  570MOL0     C78590   2.768   8.849   1.394  0.6173  0.2568  0.0008
  570MOL0     H78591   2.964   9.170   0.915 -1.7095  0.6333 -0.2021
  570MOL0     H78592   3.139   9.338   0.839  1.2443 -0.4132 -0.1348
  570MOL0     H78593   3.229   9.547   0.803  0.6543 -1.8594 -0.3026
  570MOL0     H78594   3.346   9.423   0.844 -0.8355  0.5427 -2.2277
  570MOL0     H78595   3.447   9.590   0.731  0.9962 -0.6861 -0.5035
  570MOL0     H78596   3.415   9.698   0.870 -0.5958 -0.3529 -2.3263
  570MOL0     H78597   3.536   9.523   1.010 -0.2455 -0.2123  0.3263
  570MOL0     H78598   3.596   9.455   0.857  0.0246 -0.3746  0.7194
  570MOL0     H78599   3.669   9.710   0.810 -2.5530  0.8819  0.7629
  570MOL0     H78600   3.636   9.734   0.973 -0.0513 -1.2786  1.8799
  570MOL0     H78601   3.795   9.491   0.961 -4.6229 -0.6193 -2.1947
  570MOL0     H78602   3.807   9.640   1.060  0.6916 -0.9966 -0.3831
  570MOL0     H78603   3.921   9.617   0.785 -3.1565 -1.6887  1.3739
  570MOL0     H78604   3.896   9.767   0.873  0.5706  1.1940 -1.3271
  570MOL0     H78605   4.097   9.535   0.926  0.5205 -0.2641 -0.2549
  570MOL0     H78606   4.037   9.629   1.068  2.0470  1.3673 -0.4693
  570MOL0     H78607   4.245   9.707   0.991 -0.0172 -1.8445  0.2878
  570MOL0     H78608   4.176   9.765   0.839  1.4011  0.5056  0.6064
  570MOL0     H78609   4.005   9.801   1.188 -0.3875 -0.3766 -1.0075
  570MOL0     H78610   3.841  10.082   1.228 -0.2108  0.6417  1.7365
  570MOL0     H78611   3.977  10.187   1.211 -1.0593 -0.0486  1.5078
  570MOL0     H78612   3.950  10.098   1.456  0.2373 -0.4003 -0.2574
  570MOL0     H78613   3.969   9.936   1.395  2.9602  0.8374  3.5553
  570MOL0     H78614   4.167  10.027   1.495 -0.2234  0.9430  0.7568
  570MOL0     H78615   4.196  10.013   1.309  0.1097 -0.3213  0.6561
  570MOL0     H78616   4.200  10.263   1.296  1.8686  0.8827 -0.0832
  570MOL0     H78617   4.149  10.271   1.471 -0.4370  0.9143 -0.6580
  570MOL0     H78618   4.212  10.192   1.669 -0.2506 -1.8570 -1.1487
  570MOL0     H78619   4.306  10.126   1.986 -2.3275  0.0067  0.4455
  570MOL0     H78620   4.183  10.208   1.888  0.3418  3.3822 -2.1222
  570MOL0     H78621   4.287  10.305   1.987  0.1157  0.3022 -0.6818
  570MOL0     H78622   4.548  10.531   2.200  0.4772  0.2755 -0.2608
  570MOL0     H78623   4.656  10.547   2.431  1.8318 -1.7378  2.1229
  570MOL0     H78624   4.584  10.392   2.694  1.6773  1.7429  1.2129
  570MOL0     H78625   4.619  10.228   2.634 -0.0251  0.2818 -1.0713
  570MOL0     H78626   4.783  10.392   2.845  1.4738 -0.8593 -0.0576
  570MOL0     H78627   4.673  10.260   2.868  0.9058  1.0187  1.2298
  570MOL0     H78628   4.916  10.208   2.679 -1.5928 -3.1226 -0.8446
  570MOL0     H78629   4.844  10.086   2.768  0.5460 -0.2862  1.3820
  570MOL0     H78630   4.906  10.216   2.976  2.5675  2.2153  1.3490
  570MOL0     H78631   5.013  10.312   2.874  2.8964 -1.0398  0.6071
  570MOL0     H78632   5.010  10.008   2.894 -3.2117  1.8494 -1.6952
  570MOL0     H78633   5.111  10.112   2.782 -2.7790  2.5351 -0.6337
  570MOL0     H78634   5.213  10.013   3.014 -0.6773 -0.2191 -1.1271
  570MOL0     H78635   5.120  10.141   3.080 -1.3963 -3.5313  0.1539
  570MOL0     H78636   5.242  10.305   2.901  0.5209  0.0731 -0.1523
  570MOL0     H78637   5.336  10.148   2.863  0.0404 -1.1052  1.3544
  570MOL0     H78638   5.449  10.296   2.986 -1.7813 -0.4955 -2.2934
  570MOL0     H78639   5.419  10.149   3.084  1.5793 -0.5911 -2.4450
  570MOL0     H78640   4.748  10.142   2.444  3.0907 -0.2287 -1.9297
  570MOL0     H78641   4.632  10.120   2.203 -3.5752  0.9561 -1.8705
  570MOL0     H78642   4.698  10.275   1.713 -0.7361  1.3631 -0.7942
  570MOL0     H78643   4.607  10.278   1.510 -2.2491  0.3386 -0.8492
  570MOL0     H78644   3.143   9.495   1.241  3.6205 -0.9505 -1.8755
  570MOL0     H78645   2.963   9.352   1.307 -0.1686  2.2995 -0.5582
  570MOL0     H78646   2.603   9.267   1.249 -1.5437  0.7341  0.7579
  570MOL0     H78647   2.393   9.231   1.343  0.2293  0.5171  1.7309
  570MOL0     H78648   2.213   9.083   1.322  0.6217  0.1830 -0.5608
  570MOL0     H78649   2.240   8.904   1.328  1.1578  0.2942 -0.5080
  570MOL0     H78650   2.086   8.894   1.518 -2.0706 -0.2266  1.0296
  570MOL0     H78651   2.006   8.976   1.376  1.6536 -0.7692 -0.1364
  570MOL0     H78652   1.945   9.067   1.602  0.0811  1.0804 -1.2583
  570MOL0     H78653   2.111   9.122   1.614 -0.5198  0.9834 -0.3030
  570MOL0     H78654   2.059   9.273   1.411  1.4012  0.4568  0.4065
  570MOL0     H78655   1.961   9.299   1.554 -2.7768 -2.5296  1.1076
  570MOL0     H78656   1.656   9.188   1.277 -0.0025  2.2391  1.0734
  570MOL0     H78657   2.493   8.852   1.486 -0.2733  1.5429  0.4477
  570MOL0     H78658   2.852   8.891   1.450 -0.0931  1.2893  0.3352
  570MOL0     H78659   2.721   8.758   1.432 -0.1079  0.5868 -0.0733
  570MOL0     H78660   2.810   8.817   1.299 -1.3015  0.8629 -1.1025
  571MOL0     O78661  10.881   7.640   4.200 -0.0896 -0.0259 -0.3791
  571MOL0     C78662  10.863   7.580   4.098  0.8854 -0.0710  0.5932
  571MOL0     O78663  10.942   7.484   4.038  0.1824  0.1394 -0.2213
  571MOL0     C78664  11.044   7.427   4.115 -0.1959  0.7383 -0.4172
  571MOL0     C78665  11.153   7.368   4.050 -0.1922 -0.4369 -0.5138
  571MOL0     C78666  11.258   7.321   4.132 -0.1029 -0.7730  0.5501
  571MOL0     C78667  11.246   7.294   4.269 -0.4734 -0.9618  0.4992
  571MOL0     O78668  11.361   7.244   4.329  0.5239  0.4057  0.3307
  571MOL0     C78669  11.353   7.244   4.468 -0.4071 -0.2430  0.1480
  571MOL0     C78670  11.479   7.202   4.532 -0.3649 -0.5791 -0.3162
  571MOL0     C78671  11.598   7.299   4.501 -0.4645  0.4601  0.3424
  571MOL0     C78672  11.698   7.273   4.619  0.8636  0.5666  0.5023
  571MOL0     C78673  11.836   7.337   4.611 -0.3138  0.5085  0.6217
  571MOL0     C78674  11.918   7.324   4.741  0.0420  0.1225 -0.8775
  571MOL0     C78675  12.035   7.421   4.726  0.4055  0.9142  0.7284
  571MOL0     C78676  12.143   7.373   4.643 -0.6598  0.5483 -0.6085
  571MOL0     N78677  12.282   7.370   4.711  0.3973  0.5608  0.5057
  571MOL0     C78678  12.315   7.329   4.835 -0.1940 -0.8827  0.2909
  571MOL0     C78679  12.446   7.330   4.838 -0.2889 -0.5662 -0.3989
  571MOL0     C78680  12.534   7.308   4.968  0.0220  0.1922  0.1740
  571MOL0     C78681  12.474   7.180   5.027 -0.1926 -0.3460 -0.5414
  571MOL0     C78682  12.569   7.134   5.147  0.9706 -0.9768  0.7477
  571MOL0     C78683  12.566   6.984   5.185 -0.2423  0.2612  0.0671
  571MOL0     O78684  12.580   6.891   5.079 -0.0011 -0.0034 -0.3029
  571MOL0     C78685  12.696   6.824   5.048 -0.9350  0.1653  0.2487
  571MOL0     C78686  12.814   6.827   5.123 -0.2644 -0.2609  0.8856
  571MOL0     C78687  12.935   6.773   5.072 -0.4383  0.4151  0.5644
  571MOL0     C78688  13.065   6.826   5.130  0.0084 -0.1000 -0.8984
  571MOL0     C78689  12.937   6.698   4.948 -0.7618 -0.2467  0.9163
  571MOL0     C78690  13.062   6.642   4.878  0.3450  0.5707 -0.1110
  571MOL0     O78691  13.183   6.648   4.947  0.1171 -0.4900 -0.0620
  571MOL0     C78692  13.297   6.594   4.896 -0.7251  0.0300  0.1385
  571MOL0     C78693  13.362   6.501   4.976  0.8677  0.1569  0.5320
  571MOL0     C78694  13.491   6.458   4.940  0.2055  0.0663  0.5720
  571MOL0     C78695  13.555   6.493   4.824 -0.1781 -0.7138 -0.4886
  571MOL0     O78696  13.680   6.452   4.777  0.6237  0.1079 -0.5709
  571MOL0     C78697  13.763   6.358   4.853 -0.2565 -0.9436 -0.0564
  571MOL0     C78698  13.881   6.299   4.789 -0.7195 -0.2064  0.7426
  571MOL0     C78699  13.995   6.396   4.766  0.3157  0.3981  0.1026
  571MOL0     C78700  14.121   6.336   4.686  1.0735  0.2754 -0.1565
  571MOL0     C78701  14.229   6.431   4.653  0.6566 -0.1077 -0.3984
  571MOL0     C78702  14.351   6.377   4.576  0.2568  1.0432 -0.5437
  571MOL0     C78703  14.475   6.469   4.596  0.3371 -0.2035 -0.1194
  571MOL0     C78704  14.580   6.455   4.493 -0.4411 -0.0306  0.8610
  571MOL0    Cl78705  14.696   6.322   4.527  0.1449 -0.2878 -0.1356
  571MOL0     C78706  13.490   6.587   4.740 -0.0728  0.6854  0.0772
  571MOL0     C78707  13.367   6.640   4.778  0.5656  0.2544  0.7975
  571MOL0     O78708  13.060   6.604   4.760  0.0880 -0.0601 -0.0239
  571MOL0     C78709  12.818   6.689   4.886 -0.2419  0.9333  0.8198
  571MOL0     C78710  12.699   6.744   4.938  0.3760 -0.8307 -0.0464
  571MOL0     N78711  12.506   7.376   4.719 -0.0150 -1.2845  0.3361
  571MOL0     N78712  12.404   7.399   4.641  0.2801 -0.5712  0.3176
  571MOL0     C78713  11.127   7.341   4.329  0.1453  0.1192  0.7593
  571MOL0     C78714  11.031   7.410   4.259  0.1064 -0.2824  0.6048
  571MOL0     C78715  10.751   7.630   4.016 -0.2773  0.4798 -0.8257
  571MOL0     C78716  10.752   7.595   3.878 -0.3468  0.8472  0.5542
  571MOL0     C78717  10.648   7.633   3.794 -0.2132  0.3496 -0.1365
  571MOL0     C78718  10.532   7.694   3.843  1.1104  0.1255  0.1974
  571MOL0     O78719  10.418   7.726   3.765 -0.5371  0.1194  0.2190
  571MOL0     C78720  10.449   7.791   3.640 -0.3795 -0.6053  0.1217
  571MOL0     C78721  10.351   7.917   3.627  0.8014 -0.2770 -0.0021
  571MOL0     C78722  10.390   8.032   3.712 -0.2337 -0.2065 -0.2133
  571MOL0     C78723  10.298   8.162   3.691  0.1855  0.0547 -0.6714
  571MOL0     C78724  10.329   8.236   3.569 -0.6485 -1.0516 -0.0206
  571MOL0     C78725  10.330   8.304   3.466  0.6595  0.5943 -0.2443
  571MOL0     C78726  10.538   7.735   3.976  0.0992 -0.9436 -0.3522
  571MOL0     C78727  10.641   7.702   4.070  0.5528  0.2634  0.5476
  571MOL0     C78728  10.619   7.752   4.212 -0.2334 -0.4848  0.5581
  571MOL0     H78729  11.168   7.385   3.944  0.0763  3.9312  0.0516
  571MOL0     H78730  11.346   7.290   4.077 -0.9390 -0.7857 -0.8030
  571MOL0     H78731  11.276   7.183   4.516 -3.2771  3.0330  0.0881
  571MOL0     H78732  11.332   7.343   4.511  2.0319 -0.2270  1.5159
  571MOL0     H78733  11.465   7.193   4.640  2.2210 -0.2473  0.1068
  571MOL0     H78734  11.501   7.102   4.495 -2.7739 -1.2168 -0.2345
  571MOL0     H78735  11.635   7.278   4.400 -0.5511 -1.9602  0.7734
  571MOL0     H78736  11.570   7.405   4.497  2.7605  1.4497  0.9399
  571MOL0     H78737  11.651   7.290   4.716  0.8572 -1.7373  0.9584
  571MOL0     H78738  11.712   7.165   4.608  2.2057  0.3590  3.3442
  571MOL0     H78739  11.830   7.444   4.589  2.1358  0.5160 -0.2890
  571MOL0     H78740  11.884   7.296   4.522  0.9883  4.2142 -0.5549
  571MOL0     H78741  11.856   7.356   4.825  0.5097 -0.0132 -0.4788
  571MOL0     H78742  11.946   7.222   4.767  0.3224  0.3887 -0.1093
  571MOL0     H78743  12.080   7.443   4.824  2.1421  1.6271 -0.1713
  571MOL0     H78744  12.006   7.518   4.684 -1.6317 -0.0317 -0.1623
  571MOL0     H78745  12.131   7.266   4.623  2.4082  0.1855 -1.0206
  571MOL0     H78746  12.152   7.425   4.547 -1.3348  1.6810 -0.0831
  571MOL0     H78747  12.243   7.306   4.913 -1.8659 -1.0612 -1.2415
  571MOL0     H78748  12.517   7.386   5.043  1.0681 -1.7853  2.6125
  571MOL0     H78749  12.637   7.308   4.933  0.2061  0.4991  0.7089
  571MOL0     H78750  12.373   7.191   5.066 -0.3371  0.8910 -1.2203
  571MOL0     H78751  12.487   7.103   4.950  1.7673 -0.5681 -0.0588
  571MOL0     H78752  12.670   7.163   5.116  0.0056  2.9797  0.7217
  571MOL0     H78753  12.551   7.200   5.232  0.1030 -0.7079  0.3750
  571MOL0     H78754  12.650   6.964   5.253  0.6035 -1.2094 -1.3315
  571MOL0     H78755  12.473   6.964   5.238  0.7672 -1.4878  1.2715
  571MOL0     H78756  12.823   6.880   5.218  3.7505 -0.3674  0.7281
  571MOL0     H78757  13.125   6.867   5.048  0.7355 -0.5950 -0.6260
  571MOL0     H78758  13.125   6.745   5.173  2.1068  0.9276 -1.7579
  571MOL0     H78759  13.042   6.908   5.199  1.1275  0.5448 -1.2621
  571MOL0     H78760  13.304   6.460   5.057 -1.8780  4.5318  1.0851
  571MOL0     H78761  13.541   6.385   5.003  0.3980 -1.2101 -1.0064
  571MOL0     H78762  13.791   6.417   4.942 -0.7203 -0.7847 -0.0128
  571MOL0     H78763  13.704   6.274   4.890 -1.1511  0.4779  1.9604
  571MOL0     H78764  13.916   6.212   4.846  0.9514  0.2236  0.4170
  571MOL0     H78765  13.852   6.258   4.692 -1.0148  2.2724 -0.3008
  571MOL0     H78766  14.034   6.447   4.855  1.9548  1.4020 -1.1501
  571MOL0     H78767  13.967   6.474   4.695  0.2874  2.2059  1.9988
  571MOL0     H78768  14.088   6.292   4.592  0.0780  1.0825 -0.2062
  571MOL0     H78769  14.175   6.252   4.730  1.7202 -0.0721 -1.5738
  571MOL0     H78770  14.188   6.508   4.588  0.6722 -1.4444 -2.0698
  571MOL0     H78771  14.277   6.476   4.741 -0.3597  1.3164 -0.5339
  571MOL0     H78772  14.329   6.370   4.469 -0.8646  2.7917 -0.4639
  571MOL0     H78773  14.371   6.283   4.628 -6.1226  1.6986  4.2710
  571MOL0     H78774  14.509   6.486   4.699 -1.2503  2.4299  0.0745
  571MOL0     H78775  14.433   6.569   4.581 -0.5189 -0.5267  0.1028
  571MOL0     H78776  14.637   6.548   4.485 -0.4843 -0.0387  0.4565
  571MOL0     H78777  14.525   6.432   4.401  0.5482 -2.4260  0.7923
  571MOL0     H78778  13.534   6.615   4.645 -3.5264 -0.7263 -2.1022
  571MOL0     H78779  13.324   6.705   4.703 -1.9744 -1.5464  0.5618
  571MOL0     H78780  12.812   6.632   4.794 -0.4529 -2.5947  2.8280
  571MOL0     H78781  12.601   6.729   4.894 -0.3342 -0.2400  1.2793
  571MOL0     H78782  11.103   7.317   4.432 -0.7635  1.2470  0.8282
  571MOL0     H78783  10.943   7.437   4.317  0.1308 -0.6433  0.8100
  571MOL0     H78784  10.834   7.544   3.829 -2.3819 -1.4256 -0.6916
  571MOL0     H78785  10.646   7.602   3.690 -2.6465  1.0673 -0.3534
  571MOL0     H78786  10.552   7.825   3.652  0.1811 -2.6253  1.5652
  571MOL0     H78787  10.437   7.733   3.548 -2.4119 -1.0041  0.5864
  571MOL0     H78788  10.250   7.878   3.640  1.4858 -1.7480  1.1205
  571MOL0     H78789  10.369   7.943   3.522  3.1579 -2.5651 -0.2730
  571MOL0     H78790  10.377   7.998   3.815 -0.5618 -0.9054 -0.4762
  571MOL0     H78791  10.493   8.058   3.686 -0.3552  3.1212  1.9695
  571MOL0     H78792  10.317   8.229   3.775  2.7088 -0.1220 -1.0167
  571MOL0     H78793  10.198   8.120   3.697  0.0898  0.4436  0.5203
  571MOL0     H78794  10.327   8.369   3.381  1.9657  0.6269 -0.2784
  571MOL0     H78795  10.454   7.790   4.018  0.8563  0.2097 -0.2941
  571MOL0     H78796  10.665   7.673   4.273  2.4197  1.0851  0.7379
  571MOL0     H78797  10.655   7.855   4.219 -1.3551  0.1080 -1.6245
  571MOL0     H78798  10.510   7.757   4.224 -0.4212  0.1257 -1.2330
  572MOL0     O78799   1.762   5.126   4.368  0.8364 -0.3481 -0.3523
  572MOL0     C78800   1.801   5.213   4.290  0.2896  0.3438 -0.4032
  572MOL0     O78801   1.937   5.245   4.267  0.1578 -0.4782 -0.3178
  572MOL0     C78802   2.037   5.182   4.335 -0.8129 -0.2506  0.1855
  572MOL0     C78803   2.033   5.039   4.347  0.5485 -0.3095 -0.0868
  572MOL0     C78804   2.138   4.977   4.419  0.3561  0.2512  0.4694
  572MOL0     C78805   2.248   5.046   4.462  0.4960  0.8151  0.1377
  572MOL0     O78806   2.365   4.995   4.531  0.7408 -0.3307 -0.0788
  572MOL0     C78807   2.390   4.851   4.506  0.2955 -0.5475  0.2826
  572MOL0     C78808   2.494   4.802   4.603 -0.4891 -0.4230  0.1923
  572MOL0     C78809   2.614   4.902   4.623  1.0193  0.4125  0.5662
  572MOL0     C78810   2.750   4.842   4.656  0.5890  0.4621  0.1997
  572MOL0     C78811   2.850   4.951   4.675 -0.4847  0.1179 -0.1849
  572MOL0     C78812   2.991   4.893   4.706  0.5528  0.4205  0.5990
  572MOL0     C78813   2.996   4.813   4.841  0.1513 -0.3363  0.3061
  572MOL0     C78814   3.134   4.805   4.902 -0.2024 -0.5517 -0.4259
  572MOL0     N78815   3.192   4.938   4.940  0.1448 -0.0001 -0.4432
  572MOL0     C78816   3.128   5.037   5.016 -0.1065  0.1763 -0.4701
  572MOL0     C78817   3.215   5.140   5.030 -0.3184  0.8742 -0.2547
  572MOL0     C78818   3.205   5.275   5.086 -0.2270  0.1161 -0.9494
  572MOL0     C78819   3.295   5.296   5.212 -0.2278  0.4442  0.0983
  572MOL0     C78820   3.458   5.284   5.205  0.9452 -0.0145  1.0167
  572MOL0     C78821   3.522   5.270   5.346  0.9266  0.4050 -0.0332
  572MOL0     O78822   3.667   5.269   5.342  0.0920 -0.1782  0.0697
  572MOL0     C78823   3.742   5.222   5.447 -0.0688 -0.7911 -0.0694
  572MOL0     C78824   3.701   5.205   5.584  0.7352  0.5085  1.1010
  572MOL0     C78825   3.790   5.172   5.690 -0.4337 -0.3902 -0.2257
  572MOL0     C78826   3.737   5.157   5.829  0.1786  0.4795  0.2431
  572MOL0     C78827   3.926   5.152   5.658 -0.7205  0.0293 -0.0376
  572MOL0     C78828   4.036   5.112   5.751 -0.0663  0.1578 -0.5487
  572MOL0     O78829   4.166   5.159   5.723  0.3523 -0.5747 -0.3000
  572MOL0     C78830   4.273   5.117   5.805 -0.1687  0.3429  0.4786
  572MOL0     C78831   4.286   4.982   5.839  0.5432 -0.2548 -0.1690
  572MOL0     C78832   4.393   4.950   5.921  0.7191  0.8096 -0.2736
  572MOL0     C78833   4.488   5.045   5.966  0.7481 -0.2997 -0.6576
  572MOL0     O78834   4.601   5.007   6.038  0.5630 -0.2242  0.0374
  572MOL0     C78835   4.687   4.913   5.969 -0.4702 -0.5314  0.2579
  572MOL0     C78836   4.825   4.975   5.956 -0.2924 -0.4049 -0.2269
  572MOL0     C78837   4.814   5.096   5.863 -0.2174 -0.2552 -0.1333
  572MOL0     C78838   4.844   5.045   5.720 -0.0373 -0.2114 -0.1941
  572MOL0     C78839   4.825   5.168   5.628 -0.2890 -0.0105  0.6016
  572MOL0     C78840   4.883   5.134   5.497  0.0133  0.2924  0.1388
  572MOL0     C78841   4.883   5.254   5.396 -0.0047  0.0410 -0.3115
  572MOL0     C78842   4.901   5.209   5.255  0.6633 -0.4096  0.0501
  572MOL0    Cl78843   4.864   5.328   5.130  0.2701 -0.0943  0.1020
  572MOL0     C78844   4.473   5.181   5.928 -0.7081  0.6970 -0.3269
  572MOL0     C78845   4.363   5.214   5.853 -0.8377  0.2643  0.2261
  572MOL0     O78846   4.009   5.027   5.841  0.2234 -0.2897  0.2524
  572MOL0     C78847   3.964   5.171   5.524  1.0885  0.1369 -0.5909
  572MOL0     C78848   3.876   5.204   5.420  0.6934  0.1172 -0.1989
  572MOL0     N78849   3.327   5.106   4.956 -0.2960 -0.7323 -0.3681
  572MOL0     N78850   3.325   4.988   4.921  1.0688 -0.3097  0.3462
  572MOL0     C78851   2.252   5.179   4.448 -0.4689  0.5345 -0.6619
  572MOL0     C78852   2.151   5.250   4.385  0.1653 -0.2464 -0.3317
  572MOL0     C78853   1.701   5.301   4.221 -0.0020  0.2586  0.7754
  572MOL0     C78854   1.755   5.394   4.131 -1.3783 -0.1433 -0.0868
  572MOL0     C78855   1.680   5.490   4.064 -0.8481  0.2414  0.2689
  572MOL0     C78856   1.543   5.492   4.069  0.0346  0.4480 -0.7780
  572MOL0     O78857   1.476   5.584   3.996  0.6863  0.4112  0.0147
  572MOL0     C78858   1.357   5.550   3.919  0.8563  0.1100  0.3617
  572MOL0     C78859   1.358   5.636   3.795  0.3840  0.0175  0.1135
  572MOL0     C78860   1.222   5.625   3.720 -0.7952 -0.7179 -1.0089
  572MOL0     C78861   1.210   5.492   3.653  0.2125  0.6265 -0.3114
  572MOL0     C78862   1.082   5.467   3.588 -0.4955  0.2167 -0.3130
  572MOL0     C78863   0.975   5.450   3.536  0.7742 -0.5493  1.0180
  572MOL0     C78864   1.484   5.399   4.163 -0.1101  0.0176 -0.0071
  572MOL0     C78865   1.558   5.308   4.235  0.0080 -0.3561 -0.1692
  572MOL0     C78866   1.493   5.222   4.342 -0.6662 -0.2338  0.6498
  572MOL0     H78867   1.956   4.980   4.299 -1.0139  2.2263 -0.8861
  572MOL0     H78868   2.118   4.870   4.425 -1.5999  0.6466  2.1374
  572MOL0     H78869   2.412   4.830   4.401  2.4765 -1.9559  0.9511
  572MOL0     H78870   2.301   4.791   4.527  1.3803 -1.4278  2.8619
  572MOL0     H78871   2.437   4.800   4.697 -1.5798 -0.8859 -0.4580
  572MOL0     H78872   2.543   4.706   4.585 -0.2138  0.0587 -1.8791
  572MOL0     H78873   2.619   4.955   4.527 -0.9525 -1.5384 -0.7011
  572MOL0     H78874   2.584   4.965   4.707  0.6917 -0.5615  1.1829
  572MOL0     H78875   2.745   4.787   4.750  1.3502  0.7321  0.4081
  572MOL0     H78876   2.778   4.782   4.570  2.2115 -1.0198  1.6782
  572MOL0     H78877   2.813   5.019   4.751  2.0756  0.7980  0.5649
  572MOL0     H78878   2.856   5.011   4.583 -4.2179  0.2602 -0.4859
  572MOL0     H78879   3.017   4.829   4.622 -1.2656  1.1736 -0.6058
  572MOL0     H78880   3.069   4.970   4.703  2.1895 -1.2163 -0.6224
  572MOL0     H78881   2.952   4.713   4.843  0.0614 -0.2873  2.1609
  572MOL0     H78882   2.939   4.867   4.917  0.0588  0.5892 -0.4040
  572MOL0     H78883   3.115   4.745   4.991  1.2255  2.1025  1.8059
  572MOL0     H78884   3.205   4.744   4.844  2.2273  1.1451  0.5773
  572MOL0     H78885   3.028   5.047   5.057 -0.7738 -0.4650 -1.8649
  572MOL0     H78886   3.103   5.305   5.110  1.0760  4.3933  0.1733
  572MOL0     H78887   3.234   5.350   5.012  1.0126  1.2079  0.5704
  572MOL0     H78888   3.286   5.390   5.268  3.9272 -0.2542  2.3213
  572MOL0     H78889   3.261   5.214   5.278 -2.1595 -0.5049 -1.9346
  572MOL0     H78890   3.486   5.197   5.144  3.3166  0.8053  0.8622
  572MOL0     H78891   3.506   5.373   5.163 -0.2654 -0.6256 -1.9669
  572MOL0     H78892   3.477   5.349   5.408 -1.8408 -0.4795 -0.7873
  572MOL0     H78893   3.484   5.177   5.389 -0.7268  1.3453  0.6682
  572MOL0     H78894   3.598   5.214   5.617  0.9077  3.4333  1.0757
  572MOL0     H78895   3.664   5.236   5.852 -0.4427  0.1297 -0.4973
  572MOL0     H78896   3.810   5.160   5.910 -1.7515  1.1980  2.0480
  572MOL0     H78897   3.677   5.067   5.844  0.6958  0.1148  0.1273
  572MOL0     H78898   4.217   4.907   5.802 -0.5153  0.4063  0.4203
  572MOL0     H78899   4.410   4.846   5.946 -2.5255  0.2111 -0.0853
  572MOL0     H78900   4.678   4.822   6.028 -0.8979 -0.0209  1.0053
  572MOL0     H78901   4.656   4.899   5.865  1.9021 -0.5383 -0.5116
  572MOL0     H78902   4.853   5.006   6.057 -1.2083 -2.2330  0.6401
  572MOL0     H78903   4.897   4.902   5.918 -0.9119  0.2352 -2.7742
  572MOL0     H78904   4.894   5.166   5.891  3.3429 -4.0607  0.2207
  572MOL0     H78905   4.717   5.146   5.865 -0.5336 -0.8001 -1.0879
  572MOL0     H78906   4.788   4.959   5.684  1.3745 -0.4332 -1.9779
  572MOL0     H78907   4.946   5.006   5.714 -0.5514 -1.4621 -1.1028
  572MOL0     H78908   4.717   5.186   5.630 -0.7314 -2.2769  0.9305
  572MOL0     H78909   4.874   5.260   5.662  1.0259 -0.0342 -1.1372
  572MOL0     H78910   4.830   5.054   5.444  0.6909  0.1681 -0.3756
  572MOL0     H78911   4.986   5.099   5.490 -0.0261  0.3542 -0.9160
  572MOL0     H78912   4.975   5.308   5.419 -0.6493  0.2297  2.0013
  572MOL0     H78913   4.793   5.316   5.398 -0.7367 -0.7276 -3.3661
  572MOL0     H78914   4.829   5.127   5.245  1.6062 -1.5793  2.1391
  572MOL0     H78915   5.000   5.164   5.246  1.2316  0.8444 -0.0463
  572MOL0     H78916   4.544   5.255   5.963 -1.4749  1.2241  0.1492
  572MOL0     H78917   4.346   5.315   5.817 -2.4631 -0.0381  0.0447
  572MOL0     H78918   4.067   5.157   5.492  1.0599  1.9897 -1.6648
  572MOL0     H78919   3.904   5.242   5.322 -3.3816  0.4970 -1.4309
  572MOL0     H78920   2.329   5.242   4.494  1.1234 -1.3722 -0.5549
  572MOL0     H78921   2.156   5.358   4.382 -0.0249 -0.1827  0.9651
  572MOL0     H78922   1.861   5.392   4.106 -1.3951  0.2328 -0.1860
  572MOL0     H78923   1.728   5.565   4.003  0.1706  0.1116  0.8892
  572MOL0     H78924   1.342   5.443   3.904  1.4633  0.3463 -2.5058
  572MOL0     H78925   1.278   5.575   3.991  2.1872 -1.2793  2.4033
  572MOL0     H78926   1.443   5.606   3.734  0.2217  0.4806 -0.3486
  572MOL0     H78927   1.367   5.741   3.823  3.3695 -0.4320  1.1918
  572MOL0     H78928   1.142   5.643   3.792 -0.3101 -2.1255 -0.0839
  572MOL0     H78929   1.227   5.704   3.644 -1.4192 -0.4904 -0.8188
  572MOL0     H78930   1.226   5.418   3.731 -1.4561  2.5887  2.0347
  572MOL0     H78931   1.285   5.493   3.572 -0.9276  0.5193 -1.3955
  572MOL0     H78932   0.889   5.454   3.473  0.6469  0.9200  1.2385
  572MOL0     H78933   1.378   5.412   4.182  0.1217 -0.6238  1.9383
  572MOL0     H78934   1.523   5.117   4.335 -1.4062 -0.4942  1.3080
  572MOL0     H78935   1.514   5.257   4.443 -0.1486  3.5130 -0.5952
  572MOL0     H78936   1.386   5.224   4.322 -0.3806 -0.3041 -1.0442
  573MOL0     O78937   4.695   5.313   9.919 -1.0118  0.3178 -0.2337
  573MOL0     C78938   4.617   5.372   9.845 -0.4950 -0.8175  0.7589
  573MOL0     O78939   4.633   5.498   9.793  0.2195  0.4756 -0.0758
  573MOL0     C78940   4.725   5.580   9.850 -0.4339 -0.7762 -0.5123
  573MOL0     C78941   4.796   5.675   9.769 -0.5885 -0.1685 -0.4505
  573MOL0     C78942   4.890   5.768   9.829  0.4514 -0.4071 -0.4677
  573MOL0     C78943   4.898   5.770   9.970  0.6517  1.0454  0.6097
  573MOL0     O78944   4.984   5.859  10.020  0.0375 -0.4546  0.4446
  573MOL0     C78945   5.123   5.818  10.039 -0.5121  0.1341  0.0772
  573MOL0     C78946   5.223   5.917   9.998 -0.4376 -0.8964 -0.2177
  573MOL0     C78947   5.182   6.063  10.031  0.0955 -0.1722  0.4559
  573MOL0     C78948   5.238   6.161   9.933 -0.4646 -0.8448 -0.4676
  573MOL0     C78949   5.159   6.178   9.797 -0.1844 -0.4046 -0.2631
  573MOL0     C78950   5.199   6.306   9.716 -0.5907  0.1672 -0.2565
  573MOL0     C78951   5.090   6.342   9.615  0.3899  0.7590  0.2574
  573MOL0     C78952   5.055   6.254   9.496  1.1202 -0.8478  0.1121
  573MOL0     N78953   4.986   6.327   9.392  0.6138  0.3827 -0.5022
  573MOL0     C78954   4.854   6.352   9.398  0.8506  0.1905  0.5837
  573MOL0     C78955   4.833   6.424   9.291  0.3732 -0.0880  0.5212
  573MOL0     C78956   4.699   6.482   9.259  1.0420 -0.1949 -0.4415
  573MOL0     C78957   4.621   6.540   9.379  0.1362 -0.3255  0.3068
  573MOL0     C78958   4.500   6.632   9.351  0.1433 -0.2029  1.0045
  573MOL0     C78959   4.371   6.558   9.349  0.1713 -0.0382 -0.4203
  573MOL0     O78960   4.340   6.538   9.489 -0.6083  0.5009  0.1112
  573MOL0     C78961   4.240   6.440   9.507 -0.5275 -0.7423 -0.3529
  573MOL0     C78962   4.231   6.406   9.641 -0.2390  0.3801  0.4199
  573MOL0     C78963   4.135   6.312   9.682 -0.2872 -0.6437 -0.6091
  573MOL0     C78964   4.137   6.270   9.825  0.3686 -0.2673 -0.2338
  573MOL0     C78965   4.035   6.266   9.596  0.6873 -0.3881  1.0405
  573MOL0     C78966   3.934   6.164   9.631  0.4343  0.0052  0.1455
  573MOL0     O78967   3.904   6.072   9.537 -0.0567  0.0525  0.2426
  573MOL0     C78968   3.834   5.961   9.583 -0.6089  0.1321  0.9035
  573MOL0     C78969   3.727   5.901   9.515  1.2238  0.1054 -0.6894
  573MOL0     C78970   3.674   5.784   9.567 -0.1664 -0.0809 -1.1914
  573MOL0     C78971   3.728   5.723   9.679 -0.4726  0.0277  0.3268
  573MOL0     O78972   3.675   5.611   9.731 -0.1941  1.6710 -0.1794
  573MOL0     C78973   3.621   5.617   9.865 -0.4455 -0.1579 -0.9646
  573MOL0     C78974   3.714   5.548   9.975 -0.3797  0.3236 -0.1296
  573MOL0     C78975   3.662   5.577  10.124  0.3307 -0.3647 -0.0256
  573MOL0     C78976   3.550   5.482  10.165 -0.1830  0.4136 -1.0915
  573MOL0     C78977   3.512   5.508  10.315 -0.3462  0.6954  0.0066
  573MOL0     C78978   3.373   5.444  10.330 -0.0471  0.6719 -0.0935
  573MOL0     C78979   3.332   5.464  10.468  0.8223 -0.8904 -0.4582
  573MOL0     C78980   3.211   5.387  10.516  0.7053 -0.3904  0.5649
  573MOL0    Cl78981   3.071   5.407  10.407  0.0665 -0.0093  0.0415
  573MOL0     C78982   3.832   5.771   9.743 -0.1571 -0.3810 -0.3492
  573MOL0     C78983   3.888   5.898   9.696  0.5980 -0.3816  0.4923
  573MOL0     O78984   3.862   6.194   9.727  0.4128  0.6736 -0.0241
  573MOL0     C78985   4.048   6.304   9.460  0.2085  0.8733  0.3709
  573MOL0     C78986   4.156   6.382   9.413  0.4181 -0.4499 -0.2941
  573MOL0     N78987   4.955   6.453   9.230  0.1364  0.7725 -1.0757
  573MOL0     N78988   5.046   6.388   9.292 -0.8315 -0.1525  0.0591
  573MOL0     C78989   4.830   5.680  10.055  0.2316  0.0841  0.2847
  573MOL0     C78990   4.754   5.584   9.994 -0.6664  1.1832  0.1293
  573MOL0     C78991   4.511   5.290   9.784  0.2473 -0.0272  0.3712
  573MOL0     C78992   4.440   5.345   9.678  0.0453  0.1916  0.0701
  573MOL0     C78993   4.334   5.271   9.620  0.6413 -0.4998 -0.3154
  573MOL0     C78994   4.302   5.145   9.669 -0.2316 -1.0052 -0.1267
  573MOL0     O78995   4.206   5.077   9.598  0.6777 -0.6285 -0.2257
  573MOL0     C78996   4.176   4.943   9.636  0.6480  0.6302  0.6005
  573MOL0     C78997   4.072   4.887   9.529  0.2303 -0.9732  0.3730
  573MOL0     C78998   4.032   4.736   9.546  0.5506 -0.9330 -0.3619
  573MOL0     C78999   3.880   4.703   9.510  0.1245  0.7057  0.1689
  573MOL0     C79000   3.872   4.621   9.392 -1.3999  0.0634 -0.3996
  573MOL0     C79001   3.855   4.553   9.294  0.0284  0.3132 -0.2444
  573MOL0     C79002   4.375   5.094   9.780  0.0283  0.1504 -0.6544
  573MOL0     C79003   4.484   5.158   9.833 -0.2078 -0.0672 -0.1663
  573MOL0     C79004   4.557   5.083   9.941 -0.3270  0.6830  0.3844
  573MOL0     H79005   4.783   5.668   9.662 -2.4805 -0.2190 -0.2627
  573MOL0     H79006   4.944   5.838   9.765  1.8112  0.1856  1.2378
  573MOL0     H79007   5.140   5.720   9.993 -0.7711 -0.7419  1.7702
  573MOL0     H79008   5.134   5.807  10.147 -1.2570  2.0754  0.3897
  573MOL0     H79009   5.320   5.893  10.043 -1.4474 -1.6909  1.6661
  573MOL0     H79010   5.233   5.903   9.890  0.2208 -0.8394 -0.1664
  573MOL0     H79011   5.074   6.073  10.026 -0.0798 -0.5975  2.4294
  573MOL0     H79012   5.223   6.086  10.131 -3.1553  3.7007  1.1482
  573MOL0     H79013   5.242   6.259   9.982  1.1139 -1.3474  0.4902
  573MOL0     H79014   5.344   6.143   9.911 -0.1448  0.4485 -0.0734
  573MOL0     H79015   5.054   6.203   9.817 -0.4584 -0.1027 -1.9496
  573MOL0     H79016   5.170   6.090   9.733 -0.6380 -0.2280 -0.5847
  573MOL0     H79017   5.212   6.390   9.785 -1.5653  0.5798 -0.5586
  573MOL0     H79018   5.288   6.291   9.655 -1.2057 -0.2140 -1.0828
  573MOL0     H79019   5.123   6.436   9.569 -0.2656  2.5837  3.2588
  573MOL0     H79020   4.996   6.366   9.665  0.5181  0.3004  0.7214
  573MOL0     H79021   5.154   6.222   9.461  1.3045 -0.3955  0.2155
  573MOL0     H79022   4.992   6.170   9.526  0.0767 -0.3308 -0.5552
  573MOL0     H79023   4.774   6.322   9.464 -2.5860  2.8380 -2.0114
  573MOL0     H79024   4.643   6.401   9.210 -2.3937  2.0387 -0.5095
  573MOL0     H79025   4.724   6.555   9.182  0.0329  0.7751  0.1316
  573MOL0     H79026   4.595   6.455   9.443  1.9824 -1.1834 -0.0311
  573MOL0     H79027   4.690   6.600   9.438  1.1977 -0.9988 -0.2249
  573MOL0     H79028   4.495   6.721   9.413 -1.6417  1.7846 -1.8028
  573MOL0     H79029   4.516   6.676   9.252  0.3419  2.4817  2.1712
  573MOL0     H79030   4.302   6.621   9.292  0.8588  0.0771 -1.1472
  573MOL0     H79031   4.379   6.463   9.297 -0.7495 -0.2102 -0.2625
  573MOL0     H79032   4.298   6.460   9.707 -0.3899  1.3983 -0.2394
  573MOL0     H79033   4.100   6.347   9.894  1.8321 -2.7391  3.6446
  573MOL0     H79034   4.242   6.246   9.841  0.7235  0.6076 -1.1024
  573MOL0     H79035   4.079   6.178   9.837  1.0720 -0.5810  0.9186
  573MOL0     H79036   3.687   5.955   9.430 -0.2446  1.1215  0.5910
  573MOL0     H79037   3.579   5.742   9.534 -0.6301 -0.9298  1.0599
  573MOL0     H79038   3.606   5.722   9.892 -0.2123 -0.4852  0.5177
  573MOL0     H79039   3.526   5.565   9.878 -0.2696 -0.2476  0.0243
  573MOL0     H79040   3.721   5.440   9.960  2.3625  0.5783 -1.3225
  573MOL0     H79041   3.817   5.585   9.967  0.2615 -1.2081  0.6352
  573MOL0     H79042   3.629   5.681  10.134  0.4477 -0.1182 -1.8600
  573MOL0     H79043   3.749   5.579  10.190 -0.9453 -0.7524  1.7320
  573MOL0     H79044   3.584   5.378  10.164  0.9248  0.7479 -0.2484
  573MOL0     H79045   3.468   5.492  10.094  0.2712 -0.4238 -1.7586
  573MOL0     H79046   3.587   5.474  10.386 -1.1984 -1.3044  0.0239
  573MOL0     H79047   3.504   5.615  10.334 -0.4766  0.6247  0.3538
  573MOL0     H79048   3.384   5.336  10.318 -0.0092  0.4075  2.0310
  573MOL0     H79049   3.309   5.486  10.251 -0.2756 -1.8447 -1.3375
  573MOL0     H79050   3.317   5.571  10.483  2.1228 -0.9471  1.6714
  573MOL0     H79051   3.411   5.426  10.533  1.3463  0.0805 -0.5119
  573MOL0     H79052   3.181   5.424  10.614 -0.1385  1.9286 -0.4898
  573MOL0     H79053   3.220   5.278  10.518  2.1139 -0.2876  0.4526
  573MOL0     H79054   3.886   5.719   9.822  0.7559  1.4425  0.2964
  573MOL0     H79055   3.983   5.928   9.740  1.0175  2.8288 -2.2008
  573MOL0     H79056   3.965   6.279   9.395  0.2712  1.1108  0.1978
  573MOL0     H79057   4.160   6.420   9.311  3.8240  1.6104  0.4321
  573MOL0     H79058   4.835   5.684  10.164 -0.2147  1.5642  0.2841
  573MOL0     H79059   4.704   5.507  10.052  0.0461 -0.0797 -0.8651
  573MOL0     H79060   4.458   5.450   9.656  0.5809  0.4497  1.6337
  573MOL0     H79061   4.272   5.302   9.537  0.2460  2.8393  1.0650
  573MOL0     H79062   4.270   4.888   9.647  0.0783 -0.8058 -1.1453
  573MOL0     H79063   4.124   4.950   9.732 -0.1310  0.6391  0.1871
  573MOL0     H79064   4.129   4.901   9.437  3.4555  0.9464  2.4456
  573MOL0     H79065   3.991   4.959   9.522  1.9721  1.5313  3.3021
  573MOL0     H79066   4.104   4.673   9.493 -0.1161 -1.5208 -0.5924
  573MOL0     H79067   4.044   4.717   9.653  0.7122  1.7022  0.1474
  573MOL0     H79068   3.824   4.796   9.511 -1.7685 -0.3043  3.0132
  573MOL0     H79069   3.829   4.649   9.591  2.3977  0.9196  1.8409
  573MOL0     H79070   3.862   4.482   9.214 -1.6876  2.3992 -2.3889
  573MOL0     H79071   4.355   4.990   9.805  0.3305  0.1141 -0.5658
  573MOL0     H79072   4.516   4.982   9.944 -0.9900  0.7663 -2.9050
  573MOL0     H79073   4.663   5.072   9.915  0.1597  2.6233  1.3158
  573MOL0     H79074   4.541   5.137  10.035 -0.6790 -1.5198  1.6654
  574MOL0     O79075   5.950   9.879  11.354 -1.1368 -0.1903  0.2570
  574MOL0     C79076   5.949   9.800  11.259 -0.3563  0.7745 -0.5687
  574MOL0     O79077   6.057   9.754  11.190  0.2096  0.0640 -0.4425
  574MOL0     C79078   6.180   9.818  11.205 -0.1077  0.5182  0.0328
  574MOL0     C79079   6.232   9.875  11.093  0.3904  0.0552  0.1875
  574MOL0     C79080   6.355   9.949  11.106  0.7117  0.5069  0.1704
  574MOL0     C79081   6.433   9.947  11.222 -0.7577 -0.0623 -0.0810
  574MOL0     O79082   6.559  10.012  11.222  0.2794  0.6323  0.2208
  574MOL0     C79083   6.645   9.962  11.326 -0.6154 -0.8483  0.6522
  574MOL0     C79084   6.651  10.036  11.456 -0.3038 -0.6170  0.2776
  574MOL0     C79085   6.711  10.176  11.439  0.1796  0.3870  0.6135
  574MOL0     C79086   6.727  10.247  11.573  0.3020 -0.0185 -0.0153
  574MOL0     C79087   6.824  10.364  11.560  0.4918  0.6388 -1.2791
  574MOL0     C79088   6.833  10.449  11.692 -0.0244  0.9255 -0.2900
  574MOL0     C79089   6.705  10.521  11.730  0.3317  0.3044 -0.3501
  574MOL0     C79090   6.602  10.464  11.829  0.1812  0.0884 -0.7004
  574MOL0     N79091   6.670  10.393  11.945  0.1224  0.0897  0.4177
  574MOL0     C79092   6.737  10.451  12.045 -1.0109 -0.3205  0.1241
  574MOL0     C79093   6.784  10.355  12.125  0.3910  0.1335 -0.4781
  574MOL0     C79094   6.869  10.368  12.258  0.5684  0.0182  0.1279
  574MOL0     C79095   6.764  10.356  12.372 -0.5160  0.2412  0.8260
  574MOL0     C79096   6.708  10.494  12.406  0.1551  0.2957  0.0777
  574MOL0     C79097   6.589  10.478  12.497  0.0090 -0.1691  0.3725
  574MOL0     O79098   6.628  10.410  12.624  0.3903 -0.4471 -0.3430
  574MOL0     C79099   6.548  10.412  12.736  0.5660 -0.6984  0.4425
  574MOL0     C79100   6.588  10.332  12.837 -0.4412  0.4442  0.1448
  574MOL0     C79101   6.506  10.308  12.948  0.6441 -0.0932  0.5327
  574MOL0     C79102   6.550  10.203  13.042 -0.5521  0.1288 -0.4755
  574MOL0     C79103   6.376  10.370  12.957 -0.1617 -0.2469  0.4864
  574MOL0     C79104   6.268  10.338  13.056  0.1278 -0.1396  0.3414
  574MOL0     O79105   6.146  10.404  13.043 -0.3462  1.1389  0.7457
  574MOL0     C79106   6.037  10.369  13.128 -0.3290  0.0072 -0.0914
  574MOL0     C79107   5.960  10.469  13.176 -0.2104  0.0466  0.1308
  574MOL0     C79108   5.862  10.450  13.276  0.2947 -0.6127  0.3761
  574MOL0     C79109   5.820  10.321  13.314  0.2979  0.3780 -0.2451
  574MOL0     O79110   5.728  10.284  13.409 -0.2447 -0.0742 -0.0018
  574MOL0     C79111   5.623  10.379  13.415  0.4771 -0.3109  0.4740
  574MOL0     C79112   5.508  10.305  13.478 -0.6947  1.1813  0.2755
  574MOL0     C79113   5.440  10.210  13.375 -0.6289  0.2410 -0.3693
  574MOL0     C79114   5.286  10.230  13.353 -0.3434  0.1542  0.7836
  574MOL0     C79115   5.186  10.166  13.449  0.4583  0.2294 -0.1256
  574MOL0     C79116   5.041  10.213  13.403  0.6363 -0.4555  0.7973
  574MOL0     C79117   5.000  10.189  13.248 -0.3938 -0.4467 -0.5576
  574MOL0     C79118   4.992  10.045  13.205 -0.1528  0.2181  0.2559
  574MOL0    Cl79119   4.876  10.022  13.062 -0.0059 -0.0556  0.5284
  574MOL0     C79120   5.889  10.216  13.253 -1.4845  0.2297  0.4087
  574MOL0     C79121   5.993  10.233  13.162  0.3914  0.2599 -0.0353
  574MOL0     O79122   6.300  10.261  13.147  0.5606 -0.2267 -0.8654
  574MOL0     C79123   6.349  10.475  12.866 -0.4675  0.6129  0.0503
  574MOL0     C79124   6.429  10.479  12.747  0.3929 -0.2209 -0.0509
  574MOL0     N79125   6.741  10.232  12.065  0.2969  0.9336  0.1987
  574MOL0     N79126   6.680  10.253  11.954 -0.2865 -0.0931  0.7912
  574MOL0     C79127   6.375   9.887  11.335  0.9874  0.4319 -0.6209
  574MOL0     C79128   6.253   9.828  11.331  0.9619 -0.5371 -0.2121
  574MOL0     C79129   5.821   9.739  11.226 -0.0787 -0.3940  0.0765
  574MOL0     C79130   5.747   9.685  11.331 -0.7374  0.1557  0.5317
  574MOL0     C79131   5.623   9.640  11.309  0.2187 -0.2450 -0.8175
  574MOL0     C79132   5.563   9.651  11.190 -0.2869  0.4638 -0.0723
  574MOL0     O79133   5.442   9.592  11.172 -0.0727 -0.3156  0.1622
  574MOL0     C79134   5.450   9.452  11.168 -0.8684  0.2270  0.1414
  574MOL0     C79135   5.314   9.399  11.124  0.4704 -0.5721 -0.7858
  574MOL0     C79136   5.312   9.250  11.151 -0.1321  0.2244  0.9248
  574MOL0     C79137   5.180   9.187  11.146 -0.5463  0.5555  0.8485
  574MOL0     C79138   5.164   9.127  11.006  0.1465  0.4320  0.7970
  574MOL0     C79139   5.152   9.066  10.896 -0.2730 -0.5668 -0.0739
  574MOL0     C79140   5.629   9.713  11.084  0.2142  0.0568 -0.4526
  574MOL0     C79141   5.759   9.756  11.104 -1.2601 -0.1676  0.3694
  574MOL0     C79142   5.836   9.827  10.992  0.2896  0.0461  0.3364
  574MOL0     H79143   6.173   9.860  11.003 -1.2095  0.0628  1.2052
  574MOL0     H79144   6.386   9.981  11.007  2.0017 -2.3044 -0.4506
  574MOL0     H79145   6.742   9.953  11.276 -0.1720  2.4166  0.7643
  574MOL0     H79146   6.622   9.858  11.352  1.3099 -1.4082  0.2932
  574MOL0     H79147   6.555  10.044  11.508 -0.1584  2.5912  0.2620
  574MOL0     H79148   6.716   9.977  11.521 -1.7412 -0.8018  1.5942
  574MOL0     H79149   6.809  10.172  11.391 -0.1334  0.9098 -0.0858
  574MOL0     H79150   6.654  10.249  11.380 -0.3077  1.5809  2.5000
  574MOL0     H79151   6.635  10.300  11.600  0.9670  1.1103  0.0918
  574MOL0     H79152   6.750  10.178  11.655 -1.1240  2.4350  2.6516
  574MOL0     H79153   6.782  10.436  11.489 -0.3685  2.9278  1.3656
  574MOL0     H79154   6.927  10.336  11.535  1.3486  1.1801  1.2869
  574MOL0     H79155   6.856  10.378  11.772 -1.7575 -0.5706 -1.0573
  574MOL0     H79156   6.926  10.506  11.686  1.7588 -1.3332  2.6871
  574MOL0     H79157   6.652  10.557  11.642 -0.8709 -0.6048 -0.0160
  574MOL0     H79158   6.744  10.611  11.780 -0.6915  1.2521 -1.2053
  574MOL0     H79159   6.539  10.537  11.879  0.0782 -2.1335  2.8221
  574MOL0     H79160   6.532  10.404  11.770 -1.8882 -0.2225  1.9057
  574MOL0     H79161   6.763  10.555  12.060  1.0880 -0.9752  1.5289
  574MOL0     H79162   6.919  10.463  12.279  1.2541 -0.6284  1.4868
  574MOL0     H79163   6.939  10.285  12.270  1.0146  0.4309  0.3776
  574MOL0     H79164   6.684  10.290  12.337 -1.4264  1.5086  0.4502
  574MOL0     H79165   6.819  10.318  12.459  1.6889 -1.4955 -1.1637
  574MOL0     H79166   6.785  10.552  12.458  0.5272  0.3528 -0.5254
  574MOL0     H79167   6.675  10.542  12.313 -0.3695  2.5349  1.3247
  574MOL0     H79168   6.563  10.583  12.517 -2.7491 -0.4243 -1.2595
  574MOL0     H79169   6.496  10.448  12.447  1.0789 -1.3344 -0.9702
  574MOL0     H79170   6.674  10.266  12.831 -0.4255  0.4486  0.3251
  574MOL0     H79171   6.538  10.243  13.143  0.4884 -0.3441 -0.1549
  574MOL0     H79172   6.652  10.174  13.014 -0.9125 -1.5520 -0.1209
  574MOL0     H79173   6.488  10.114  13.035 -0.7426 -0.0190  2.1317
  574MOL0     H79174   5.979  10.565  13.130  2.5287 -1.2359 -1.7071
  574MOL0     H79175   5.815  10.540  13.314 -2.1965 -2.6278  2.4087
  574MOL0     H79176   5.645  10.467  13.476 -1.1344  1.1685 -0.9737
  574MOL0     H79177   5.594  10.425  13.320  0.2665  0.6108  0.9666
  574MOL0     H79178   5.543  10.252  13.567  0.2657 -0.4570 -1.0191
  574MOL0     H79179   5.440  10.380  13.520  2.2406  2.5137  3.0638
  574MOL0     H79180   5.466  10.107  13.401  0.9486  0.6127 -0.3724
  574MOL0     H79181   5.494  10.223  13.280 -4.4797 -0.3340 -2.8950
  574MOL0     H79182   5.265  10.180  13.259  0.0018 -1.5143  1.5499
  574MOL0     H79183   5.265  10.336  13.333 -0.1344  0.0729  0.1300
  574MOL0     H79184   5.184  10.057  13.437 -1.1923  0.3101 -0.9353
  574MOL0     H79185   5.208  10.174  13.556  1.2397  1.1672 -0.3532
  574MOL0     H79186   5.045  10.320  13.428  1.3122 -0.2455 -0.1624
  574MOL0     H79187   4.974  10.161  13.471 -2.5659  1.1756 -0.8518
  574MOL0     H79188   5.073  10.236  13.181  1.0546 -0.0899  1.2111
  574MOL0     H79189   4.906  10.241  13.225 -1.0305 -1.5888 -0.6223
  574MOL0     H79190   4.962   9.988  13.293  1.0156 -1.9558 -0.6723
  574MOL0     H79191   5.090   9.999  13.190  0.3615 -0.2654  4.0833
  574MOL0     H79192   5.858  10.120  13.293 -1.2113 -0.8191 -1.7146
  574MOL0     H79193   6.060  10.151  13.135 -3.1949 -2.3603 -1.8071
  574MOL0     H79194   6.259  10.536  12.876 -0.9133 -0.0922  0.3861
  574MOL0     H79195   6.391  10.534  12.662 -2.1190  1.6011  2.0678
  574MOL0     H79196   6.419   9.872  11.433 -1.4079  0.2029  0.4865
  574MOL0     H79197   6.209   9.778  11.417  3.5633 -1.4946  0.6641
  574MOL0     H79198   5.782   9.693  11.433 -1.8050  0.7050  0.8647
  574MOL0     H79199   5.563   9.592  11.386  0.7898  2.1549  1.2758
  574MOL0     H79200   5.539   9.427  11.109 -0.0486  0.6447  1.1585
  574MOL0     H79201   5.459   9.418  11.272 -1.7315  0.0786  0.1724
  574MOL0     H79202   5.291   9.414  11.019 -1.4272  2.2829 -0.0829
  574MOL0     H79203   5.255   9.459  11.195  1.5237 -0.2054 -0.1796
  574MOL0     H79204   5.384   9.197  11.088 -0.3216 -1.6142  2.1636
  574MOL0     H79205   5.351   9.245  11.253  1.1650 -0.9265  0.4125
  574MOL0     H79206   5.115   9.270  11.172 -1.4920  0.8265 -2.0238
  574MOL0     H79207   5.181   9.110  11.224 -1.7820 -4.1872 -3.2882
  574MOL0     H79208   5.148   9.021  10.799  1.8046  1.4124 -1.1548
  574MOL0     H79209   5.586   9.700  10.985 -2.0594 -3.9885  0.8078
  574MOL0     H79210   5.769   9.830  10.906 -0.4374 -0.9617  0.8449
  574MOL0     H79211   5.858   9.931  11.017 -2.1430  0.6997  0.0051
  574MOL0     H79212   5.926   9.768  10.972 -0.2642 -0.5889 -0.3147
  575MOL0     O79213  10.794   2.019   5.974 -0.0051 -0.0257  0.1946
  575MOL0     C79214  10.754   2.040   5.860 -0.8910 -0.6144  0.1121
  575MOL0     O79215  10.833   2.088   5.759 -0.0782 -0.0024 -0.1828
  575MOL0     C79216  10.972   2.100   5.778  0.0584 -0.1637 -1.2557
  575MOL0     C79217  11.055   2.046   5.675 -1.0956  0.0087  0.6267
  575MOL0     C79218  11.192   2.063   5.687  0.4439 -0.9754  0.3102
  575MOL0     C79219  11.250   2.146   5.780 -0.5150 -0.1816  0.2749
  575MOL0     O79220  11.387   2.174   5.792 -0.3546 -0.2723 -0.0112
  575MOL0     C79221  11.477   2.112   5.707  0.0628  0.9325 -0.1927
  575MOL0     C79222  11.614   2.123   5.756  0.3762 -0.5728 -0.8560
  575MOL0     C79223  11.724   2.018   5.718  0.9877  0.2390 -0.0051
  575MOL0     C79224  11.837   2.030   5.819 -0.5201 -0.7086  0.0441
  575MOL0     C79225  11.970   1.964   5.768  0.4783 -0.0124 -0.3308
  575MOL0     C79226  12.070   1.992   5.883 -0.8242  0.0107  0.1431
  575MOL0     C79227  12.209   1.941   5.847  0.8108 -0.4554  1.6297
  575MOL0     C79228  12.316   1.922   5.950  0.5225  0.1576  0.1438
  575MOL0     N79229  12.441   1.895   5.881  0.2408 -0.5293  0.1284
  575MOL0     C79230  12.509   1.994   5.810  0.6746  0.7016 -0.0122
  575MOL0     C79231  12.628   1.938   5.784  0.2696  0.0173 -0.9117
  575MOL0     C79232  12.729   2.007   5.695  0.1922 -0.1627 -0.5402
  575MOL0     C79233  12.771   1.897   5.595  0.4121  0.3214 -0.3320
  575MOL0     C79234  12.887   1.934   5.507 -0.7075 -0.7121 -0.6519
  575MOL0     C79235  12.843   2.039   5.398 -0.2880  0.3009 -0.4586
  575MOL0     O79236  12.964   2.067   5.328 -0.3745 -0.1867  0.1486
  575MOL0     C79237  12.961   2.145   5.210  0.5988 -0.0571  0.4444
  575MOL0     C79238  12.849   2.181   5.138 -0.1522 -0.3364  0.0953
  575MOL0     C79239  12.855   2.248   5.013 -0.3925 -0.4949 -0.5835
  575MOL0     C79240  12.731   2.297   4.958  0.3075 -0.2014 -0.0684
  575MOL0     C79241  12.985   2.272   4.951 -0.2293  1.1217 -0.0796
  575MOL0     C79242  13.004   2.314   4.811  0.1341 -0.4820 -0.0190
  575MOL0     O79243  13.121   2.366   4.779  0.2103  0.5677 -0.2244
  575MOL0     C79244  13.170   2.375   4.660 -0.1249  0.6171  0.3282
  575MOL0     C79245  13.099   2.394   4.539 -0.9555 -0.8073 -0.8167
  575MOL0     C79246  13.171   2.406   4.415 -0.1421 -0.3288 -0.6229
  575MOL0     C79247  13.314   2.403   4.419  0.2053  0.5159  0.0680
  575MOL0     O79248  13.387   2.419   4.308 -0.6039 -0.3281  0.7290
  575MOL0     C79249  13.492   2.511   4.324 -0.2184  0.4723 -0.2388
  575MOL0     C79250  13.550   2.553   4.200 -0.4105  0.4850  0.1428
  575MOL0     C79251  13.698   2.616   4.205  0.4819  0.0900  0.5147
  575MOL0     C79252  13.812   2.515   4.197  0.3732  0.3201 -0.6485
  575MOL0     C79253  13.949   2.596   4.199 -0.0515  0.6213 -0.3803
  575MOL0     C79254  13.990   2.628   4.051 -0.4888  0.4620 -0.6704
  575MOL0     C79255  14.124   2.709   4.053  0.1840 -1.0784 -0.1087
  575MOL0     C79256  14.103   2.861   4.066  0.3821  0.4487 -0.7234
  575MOL0    Cl79257  14.260   2.942   4.105  0.0499 -0.4190  0.2648
  575MOL0     C79258  13.376   2.367   4.537 -0.1882 -0.1069 -0.4213
  575MOL0     C79259  13.305   2.366   4.657  0.1570  0.5769  0.4495
  575MOL0     O79260  12.922   2.270   4.734 -0.3002 -0.2186  0.0843
  575MOL0     C79261  13.103   2.224   5.024  0.4622 -0.0115  0.5829
  575MOL0     C79262  13.083   2.154   5.145 -0.9803 -0.3608  0.3352
  575MOL0     N79263  12.641   1.810   5.849 -0.4929  0.5355  0.3627
  575MOL0     N79264  12.525   1.787   5.899  0.2060 -0.2787 -0.4150
  575MOL0     C79265  11.166   2.201   5.876 -0.4067 -0.4208  0.1016
  575MOL0     C79266  11.030   2.165   5.880 -0.6758  0.3230  0.4499
  575MOL0     C79267  10.609   2.045   5.823  0.4998  0.6038 -0.4973
  575MOL0     C79268  10.550   2.135   5.742  0.2584  0.2640  0.4326
  575MOL0     C79269  10.422   2.131   5.698 -0.4738 -0.2113 -0.2544
  575MOL0     C79270  10.341   2.030   5.742  0.7867 -0.9960 -0.0060
  575MOL0     O79271  10.215   2.023   5.687  0.0304  0.7690 -0.3611
  575MOL0     C79272  10.140   1.898   5.687 -0.9335  0.4230 -0.1073
  575MOL0     C79273  10.011   1.929   5.615  0.4633 -0.2740  0.5562
  575MOL0     C79274   9.916   2.005   5.700 -0.0989 -0.3714 -0.0100
  575MOL0     C79275   9.782   2.007   5.629  0.1379  0.4264 -0.1125
  575MOL0     C79276   9.682   2.089   5.704 -0.5591 -0.1312 -0.1744
  575MOL0     C79277   9.605   2.171   5.754 -0.3307 -0.1489  0.1044
  575MOL0     C79278  10.385   1.934   5.837 -0.5173  0.3769  0.6728
  575MOL0     C79279  10.520   1.945   5.871  0.2410  0.7597 -0.2050
  575MOL0     C79280  10.581   1.838   5.967 -0.0154  0.1707 -0.0493
  575MOL0     H79281  11.021   1.989   5.590  1.1189 -1.1306  0.4385
  575MOL0     H79282  11.252   2.020   5.608  1.0613 -1.0352  0.8059
  575MOL0     H79283  11.463   2.133   5.601 -1.3307 -2.1971 -0.7569
  575MOL0     H79284  11.460   2.004   5.714 -0.1835  0.7462 -2.8260
  575MOL0     H79285  11.654   2.218   5.721 -0.5779 -0.6877 -2.3213
  575MOL0     H79286  11.614   2.134   5.865  1.2225  2.0630 -1.0583
  575MOL0     H79287  11.675   1.921   5.724 -1.1222  1.2504  0.0305
  575MOL0     H79288  11.751   2.039   5.614 -3.7801  0.9410 -1.3482
  575MOL0     H79289  11.861   2.136   5.829 -1.3595 -0.3213 -1.6476
  575MOL0     H79290  11.804   1.997   5.918  0.1851 -1.0718  0.1706
  575MOL0     H79291  11.999   1.998   5.668 -3.0425  0.8920 -1.1823
  575MOL0     H79292  11.971   1.855   5.755 -0.9656  0.2045 -2.9248
  575MOL0     H79293  12.070   2.100   5.904  1.1346  0.3908 -1.5098
  575MOL0     H79294  12.037   1.937   5.972  0.8816  2.4708  2.4742
  575MOL0     H79295  12.243   1.990   5.755 -0.9791  0.8682  1.6142
  575MOL0     H79296  12.194   1.838   5.811 -0.5792  0.3279 -0.2371
  575MOL0     H79297  12.326   2.007   6.019  1.0688 -1.1212  1.6985
  575MOL0     H79298  12.284   1.840   6.015  2.4934  0.9078  2.1859
  575MOL0     H79299  12.463   2.082   5.767  2.5555  1.0304 -1.4989
  575MOL0     H79300  12.813   2.038   5.758 -0.6667 -2.3459  1.8905
  575MOL0     H79301  12.680   2.091   5.644 -4.0150 -0.2992  2.7122
  575MOL0     H79302  12.802   1.806   5.647 -0.8156  0.1797  0.1815
  575MOL0     H79303  12.681   1.877   5.536 -0.1788 -3.2148  1.4704
  575MOL0     H79304  12.963   1.991   5.560  0.3000  0.7861 -3.5046
  575MOL0     H79305  12.938   1.844   5.472  0.2973 -0.2902 -0.2879
  575MOL0     H79306  12.764   2.000   5.334 -0.0035 -1.9189  0.4421
  575MOL0     H79307  12.794   2.126   5.442 -2.2616 -1.0219  0.1048
  575MOL0     H79308  12.751   2.168   5.182  0.9749 -0.8589  2.6706
  575MOL0     H79309  12.691   2.229   4.882 -0.6946 -0.7120  0.8906
  575MOL0     H79310  12.751   2.390   4.904 -0.4596  1.1169  1.8109
  575MOL0     H79311  12.649   2.319   5.026 -0.1485 -1.1265 -0.3086
  575MOL0     H79312  12.992   2.376   4.544 -0.3705 -4.8645  3.3198
  575MOL0     H79313  13.128   2.405   4.315  0.9204  0.8616 -1.1127
  575MOL0     H79314  13.462   2.599   4.383 -1.4118  0.1403 -0.3202
  575MOL0     H79315  13.572   2.458   4.376 -0.5518  0.6457  0.4615
  575MOL0     H79316  13.553   2.470   4.129 -3.1514  2.0904 -2.0926
  575MOL0     H79317  13.482   2.626   4.154  1.3421 -0.0388 -3.7343
  575MOL0     H79318  13.717   2.669   4.299 -1.3383  1.1176  0.3572
  575MOL0     H79319  13.699   2.693   4.128 -4.5613 -1.8295 -1.9102
  575MOL0     H79320  13.801   2.454   4.107 -0.5803 -1.0944  0.3753
  575MOL0     H79321  13.805   2.441   4.277  0.3375 -1.6356 -2.3929
  575MOL0     H79322  13.939   2.695   4.244  2.8528  0.2014  1.4471
  575MOL0     H79323  14.029   2.541   4.249  0.2296 -1.0500 -2.5133
  575MOL0     H79324  13.922   2.683   3.984 -0.3897 -0.5436 -1.6256
  575MOL0     H79325  14.012   2.537   3.994  0.4718 -0.2383  0.7628
  575MOL0     H79326  14.174   2.701   3.956 -0.1711  0.2632 -0.4114
  575MOL0     H79327  14.191   2.677   4.134 -1.0040 -1.9214  0.5584
  575MOL0     H79328  14.024   2.885   4.137  0.5349 -0.2708 -0.2990
  575MOL0     H79329  14.057   2.898   3.974 -3.0344  1.0860  1.0607
  575MOL0     H79330  13.484   2.356   4.530 -0.4187 -1.5455 -3.4731
  575MOL0     H79331  13.360   2.360   4.750  2.0509  2.7407 -0.4502
  575MOL0     H79332  13.202   2.244   4.986  0.1995  3.4063  1.3441
  575MOL0     H79333  13.174   2.121   5.194 -0.2753 -0.7543 -1.1576
  575MOL0     H79334  11.205   2.260   5.958 -2.3400  1.5562 -0.3317
  575MOL0     H79335  10.963   2.190   5.961  1.2822 -0.2259  2.3498
  575MOL0     H79336  10.623   2.205   5.705  2.5861 -0.7526  2.8222
  575MOL0     H79337  10.387   2.206   5.626 -0.0538 -0.9400 -1.2408
  575MOL0     H79338  10.201   1.825   5.633 -2.7668  0.4760 -2.4343
  575MOL0     H79339  10.125   1.850   5.784 -0.3087 -3.3230 -1.6794
  575MOL0     H79340   9.975   1.829   5.590  0.6896  0.0254 -1.1231
  575MOL0     H79341  10.023   1.980   5.519  2.1763 -1.1243  0.2805
  575MOL0     H79342   9.910   1.959   5.799 -2.5050  0.3768  0.2471
  575MOL0     H79343   9.956   2.106   5.712 -1.1603  0.3823 -2.3039
  575MOL0     H79344   9.741   1.907   5.613  1.8112 -0.4759  0.9712
  575MOL0     H79345   9.793   2.042   5.526  0.6065 -0.1299 -0.2618
  575MOL0     H79346   9.545   2.251   5.793  0.8201  2.4509 -3.0032
  575MOL0     H79347  10.338   1.844   5.875  0.8009 -0.3905  0.5729
  575MOL0     H79348  10.595   1.882   6.066  4.1491 -2.6207  0.8406
  575MOL0     H79349  10.509   1.759   5.991  0.9552 -0.2729  1.5243
  575MOL0     H79350  10.671   1.794   5.923 -1.6232 -0.3254 -3.1507
  576MOL0     O79351   7.200  10.238   3.582  0.1669 -0.4988 -1.2776
  576MOL0     C79352   7.157  10.131   3.621 -0.1928  1.0353  0.5850
  576MOL0     O79353   7.237  10.026   3.663 -0.4711 -1.0659  0.1187
  576MOL0     C79354   7.365  10.054   3.687 -0.4277 -0.2371 -0.3897
  576MOL0     C79355   7.393  10.154   3.781 -1.1016  0.3199 -0.4077
  576MOL0     C79356   7.530  10.201   3.792  0.4589  0.7483  0.5955
  576MOL0     C79357   7.630  10.141   3.724 -0.3052 -0.1759  0.4619
  576MOL0     O79358   7.766  10.165   3.729 -0.6083  0.5758  0.4823
  576MOL0     C79359   7.809  10.259   3.628 -0.1973 -0.1733  0.1616
  576MOL0     C79360   7.961  10.254   3.651 -1.0092  0.0844 -0.6293
  576MOL0     C79361   8.024  10.341   3.539 -0.6052 -0.0876  0.7673
  576MOL0     C79362   8.173  10.351   3.548  0.3309  0.4242 -1.1835
  576MOL0     C79363   8.230  10.434   3.431  0.2827  0.4946 -1.0048
  576MOL0     C79364   8.390  10.427   3.447 -0.7590  0.0094  0.2084
  576MOL0     C79365   8.446  10.506   3.327  0.3081 -0.6282  0.2007
  576MOL0     C79366   8.440  10.418   3.201  0.8747 -0.6039 -0.6931
  576MOL0     N79367   8.521  10.476   3.096 -0.7472  0.8343 -0.0868
  576MOL0     C79368   8.476  10.567   3.000 -0.0235  0.6063 -0.2594
  576MOL0     C79369   8.577  10.573   2.908 -0.2838 -1.0255 -0.2937
  576MOL0     C79370   8.591  10.665   2.796 -0.5055  0.4086 -0.0314
  576MOL0     C79371   8.515  10.615   2.669 -0.0077 -0.3011 -0.3985
  576MOL0     C79372   8.459  10.716   2.568 -0.2017  0.3328  0.8174
  576MOL0     C79373   8.387  10.652   2.452 -0.2663 -0.6378  0.0105
  576MOL0     O79374   8.318  10.748   2.369  0.0330  0.7323 -0.5097
  576MOL0     C79375   8.396  10.850   2.318  0.2766 -0.0283 -1.0389
  576MOL0     C79376   8.390  10.977   2.380 -0.6650 -0.2965  0.0939
  576MOL0     C79377   8.477  11.073   2.332 -0.1151 -0.6846  0.1426
  576MOL0     C79378   8.449  11.210   2.380 -0.2057  0.3701  0.8785
  576MOL0     C79379   8.575  11.051   2.226  0.2664  0.4432 -0.6316
  576MOL0     C79380   8.678  11.134   2.176  0.1397 -0.0412  0.1032
  576MOL0     O79381   8.743  11.084   2.066  0.3438 -0.0320 -0.1180
  576MOL0     C79382   8.850  11.156   2.020  0.1666  0.2432  0.1796
  576MOL0     C79383   8.967  11.187   2.098  0.4402  0.1642  0.2196
  576MOL0     C79384   9.066  11.254   2.047 -0.1566 -0.2847 -0.7917
  576MOL0     C79385   9.062  11.301   1.914  0.5670  0.0798 -0.7646
  576MOL0     O79386   9.159  11.394   1.876 -0.3207 -0.2925 -0.2961
  576MOL0     C79387   9.180  11.418   1.741 -0.9453  0.2304  0.2976
  576MOL0     C79388   9.305  11.502   1.730 -0.5592  0.3487 -1.0199
  576MOL0     C79389   9.294  11.635   1.805  0.0681  0.1748  0.6939
  576MOL0     C79390   9.432  11.697   1.814  0.3279 -0.2579 -1.1079
  576MOL0     C79391   9.516  11.708   1.687  0.0585  0.7842 -0.4087
  576MOL0     C79392   9.623  11.813   1.703 -0.2267  1.0865 -0.3505
  576MOL0     C79393   9.737  11.771   1.800 -0.2163 -0.5575  0.3196
  576MOL0     C79394   9.874  11.780   1.739 -0.1342  0.7544  0.1807
  576MOL0    Cl79395   9.923  11.943   1.698 -0.1088  0.2567  0.5380
  576MOL0     C79396   8.951  11.279   1.836  0.0864  0.1141 -0.3788
  576MOL0     C79397   8.843  11.199   1.882  0.9855  0.0847 -0.3249
  576MOL0     O79398   8.693  11.250   2.223 -0.1527  0.3990  0.0226
  576MOL0     C79399   8.566  10.919   2.164 -0.0726  0.3851  1.1776
  576MOL0     C79400   8.475  10.823   2.208 -0.8451  0.4295  0.2700
  576MOL0     N79401   8.679  10.491   2.946  0.1752  0.1735 -0.1373
  576MOL0     N79402   8.635  10.424   3.054 -0.0146  0.0441  0.3846
  576MOL0     C79403   7.594  10.038   3.635 -0.8222 -0.4186  0.4052
  576MOL0     C79404   7.463   9.998   3.613 -1.1856 -0.1467  0.3068
  576MOL0     C79405   7.017  10.092   3.590 -0.5341 -0.3300 -0.1812
  576MOL0     C79406   6.978  10.098   3.452  0.5581 -0.1536 -0.0476
  576MOL0     C79407   6.849  10.068   3.416 -0.2557  0.5349 -0.4454
  576MOL0     C79408   6.761  10.018   3.523 -0.5396 -0.6448  0.1201
  576MOL0     O79409   6.631   9.987   3.483 -0.3063  0.2476 -0.3810
  576MOL0     C79410   6.542   9.937   3.579  0.7149 -0.2375 -1.0224
  576MOL0     C79411   6.414   9.939   3.504  0.3901  0.1189 -0.0112
  576MOL0     C79412   6.364  10.070   3.461 -0.6425 -0.1168  0.6913
  576MOL0     C79413   6.229  10.066   3.384 -0.4429  0.2422  0.3485
  576MOL0     C79414   6.218  10.203   3.324  1.0721  0.3343 -0.0655
  576MOL0     C79415   6.231  10.318   3.282  0.6427 -0.1613 -0.9756
  576MOL0     C79416   6.808   9.998   3.654 -0.6409 -0.1161 -0.1250
  576MOL0     C79417   6.933  10.051   3.691 -0.2711  0.3255  1.4035
  576MOL0     C79418   6.971  10.045   3.837 -0.0129 -0.1122  0.4517
  576MOL0     H79419   7.312  10.212   3.824  1.1398  2.6887  0.9051
  576MOL0     H79420   7.549  10.283   3.861 -0.2538  0.5206  1.0709
  576MOL0     H79421   7.764  10.358   3.630  0.0833 -0.0567  1.7588
  576MOL0     H79422   7.791  10.233   3.523  0.3520  2.1199 -0.5518
  576MOL0     H79423   7.966  10.312   3.743  1.3624  1.6756 -1.6661
  576MOL0     H79424   8.002  10.153   3.655  0.8261  0.7605 -1.1840
  576MOL0     H79425   7.997  10.282   3.451 -1.2793  1.4665 -0.1092
  576MOL0     H79426   7.980  10.441   3.542 -0.2600  0.0704  3.5739
  576MOL0     H79427   8.203  10.402   3.640  2.0672  0.2366 -1.6074
  576MOL0     H79428   8.211  10.249   3.552 -1.4386 -0.2573 -0.9427
  576MOL0     H79429   8.202  10.540   3.428  0.6789  0.5979 -1.2862
  576MOL0     H79430   8.210  10.380   3.338  1.7257 -0.0471 -1.0314
  576MOL0     H79431   8.421  10.476   3.540 -0.0446  3.1947 -1.5742
  576MOL0     H79432   8.423  10.323   3.444 -0.2643  0.1645  0.2209
  576MOL0     H79433   8.551  10.535   3.332  0.6106 -0.9823 -2.5147
  576MOL0     H79434   8.393  10.601   3.313  2.3011  0.6054  0.6126
  576MOL0     H79435   8.480  10.318   3.223  0.5267 -0.6244 -0.1486
  576MOL0     H79436   8.335  10.402   3.174  0.2945  0.1107  1.0161
  576MOL0     H79437   8.378  10.612   3.002 -1.0438 -1.2920 -2.3581
  576MOL0     H79438   8.696  10.684   2.770 -0.3366  0.1141  0.4347
  576MOL0     H79439   8.544  10.761   2.819 -1.7084 -0.0594 -0.4806
  576MOL0     H79440   8.585  10.551   2.615 -0.2317 -0.1177 -0.9154
  576MOL0     H79441   8.429  10.554   2.697  0.0538 -0.0309  0.4046
  576MOL0     H79442   8.389  10.783   2.619 -0.2816  1.0316 -0.1822
  576MOL0     H79443   8.537  10.785   2.536 -0.9344  0.6245 -0.4081
  576MOL0     H79444   8.463  10.609   2.386 -1.4553  0.5089 -2.2106
  576MOL0     H79445   8.328  10.566   2.485 -0.6285 -1.0318 -1.5952
  576MOL0     H79446   8.311  11.009   2.447 -3.8462 -0.6647 -3.1715
  576MOL0     H79447   8.411  11.263   2.292 -1.3874 -0.1257  1.0703
  576MOL0     H79448   8.531  11.264   2.429  1.4979 -1.7732  0.5331
  576MOL0     H79449   8.371  11.198   2.456 -0.5598 -0.7350  0.3610
  576MOL0     H79450   8.943  11.164   2.202 -0.6307  0.4962  0.0619
  576MOL0     H79451   9.150  11.283   2.109 -2.7200 -1.1577  3.5273
  576MOL0     H79452   9.197  11.321   1.693 -1.2734 -0.9097  2.3772
  576MOL0     H79453   9.104  11.482   1.696  0.3980 -0.2102 -2.9067
  576MOL0     H79454   9.389  11.445   1.771 -1.3789  1.5039  2.5874
  576MOL0     H79455   9.312  11.528   1.623 -0.8997  2.9584 -0.4806
  576MOL0     H79456   9.251  11.628   1.905 -0.1378 -1.4688  0.5279
  576MOL0     H79457   9.235  11.700   1.741 -0.5809 -1.4937 -0.4955
  576MOL0     H79458   9.481  11.631   1.886 -0.5679 -2.5711 -2.5125
  576MOL0     H79459   9.432  11.799   1.852  1.5737 -0.7899  0.4304
  576MOL0     H79460   9.563  11.611   1.670  2.2356  1.6283  0.4508
  576MOL0     H79461   9.453  11.742   1.604  0.2903 -0.0903 -0.9554
  576MOL0     H79462   9.575  11.906   1.735 -0.5525  1.2328 -1.2249
  576MOL0     H79463   9.668  11.826   1.604  1.1224  0.7168  0.1933
  576MOL0     H79464   9.716  11.673   1.843 -1.2402 -0.3094  0.4157
  576MOL0     H79465   9.742  11.834   1.889  2.0612 -1.2140  0.7130
  576MOL0     H79466   9.870  11.728   1.643 -0.3910  2.8739 -1.0230
  576MOL0     H79467   9.946  11.743   1.813 -0.4559  0.3608  0.2942
  576MOL0     H79468   8.940  11.327   1.739  0.9808  2.5866  0.6622
  576MOL0     H79469   8.756  11.176   1.822  0.4409 -0.3797  0.6279
  576MOL0     H79470   8.631  10.890   2.083 -0.6332 -1.3775  1.3045
  576MOL0     H79471   8.482  10.724   2.164 -0.3945  0.5445  0.0734
  576MOL0     H79472   7.678  10.006   3.575  0.0730 -0.1920  1.5061
  576MOL0     H79473   7.444   9.929   3.531 -4.0726  0.9013 -0.0165
  576MOL0     H79474   7.053  10.133   3.382  1.9802 -0.9632  1.0109
  576MOL0     H79475   6.820  10.084   3.313  3.3389 -1.5794 -1.9562
  576MOL0     H79476   6.566   9.837   3.615 -1.3055 -1.2270 -2.2831
  576MOL0     H79477   6.524  10.005   3.663 -1.3567 -1.0763 -0.7398
  576MOL0     H79478   6.334   9.895   3.564 -3.0364  2.7569 -2.2839
  576MOL0     H79479   6.421   9.878   3.413 -5.2172  0.7754 -1.2543
  576MOL0     H79480   6.355  10.133   3.550  1.3217 -1.0854  1.6315
  576MOL0     H79481   6.427  10.120   3.387 -2.8070  2.3258  0.3490
  576MOL0     H79482   6.154  10.062   3.463  0.1484 -0.9430  0.8733
  576MOL0     H79483   6.219   9.983   3.313 -2.3775 -0.8266  1.7824
  576MOL0     H79484   6.224  10.418   3.243  1.0741 -0.6016 -2.2249
  576MOL0     H79485   6.754   9.963   3.741 -0.4126  2.5957  1.2197
  576MOL0     H79486   7.071  10.001   3.840  0.5927  0.9472 -1.7145
  576MOL0     H79487   6.968  10.147   3.878 -1.9263  0.5912 -1.2862
  576MOL0     H79488   6.902   9.979   3.889 -0.4171  0.6738  0.9230
  577MOL0     O79489   8.731   4.522   9.279 -0.4337  0.6205  0.8656
  577MOL0     C79490   8.718   4.490   9.160  0.5880 -0.2876  0.2910
  577MOL0     O79491   8.817   4.462   9.079  0.1120  0.4943 -0.2993
  577MOL0     C79492   8.933   4.509   9.123  0.1081  0.9519  0.0688
  577MOL0     C79493   9.031   4.416   9.161  0.9603  0.2589 -0.6341
  577MOL0     C79494   9.160   4.468   9.210  0.5881  0.2468 -1.5745
  577MOL0     C79495   9.188   4.607   9.223 -0.0953 -0.6607 -0.4005
  577MOL0     O79496   9.305   4.647   9.284  1.2669 -0.1103 -0.0190
  577MOL0     C79497   9.308   4.783   9.326 -0.2714 -0.7326 -0.4783
  577MOL0     C79498   9.450   4.823   9.377  0.4520  0.2734 -0.2104
  577MOL0     C79499   9.479   4.971   9.361  0.7252  0.2067  0.0158
  577MOL0     C79500   9.574   5.022   9.468  0.3053 -0.2501 -0.0985
  577MOL0     C79501   9.715   4.958   9.459 -0.4988 -0.7628  0.5764
  577MOL0     C79502   9.804   5.022   9.344  0.5954  0.3841  0.2936
  577MOL0     C79503   9.952   4.974   9.352 -0.2517  0.6182  0.5567
  577MOL0     C79504  10.027   5.063   9.252  0.7073 -0.1845 -0.1290
  577MOL0     N79505  10.169   5.044   9.258 -0.5721  0.0596 -0.4740
  577MOL0     C79506  10.254   5.119   9.339  0.1109  0.2692  1.2246
  577MOL0     C79507  10.375   5.087   9.292  1.0612 -0.7483 -0.5294
  577MOL0     C79508  10.506   5.141   9.342  0.1962  0.6942 -0.5636
  577MOL0     C79509  10.619   5.133   9.233 -0.2980  0.5899  0.2950
  577MOL0     C79510  10.739   5.209   9.289  0.4316 -0.6015 -0.4838
  577MOL0     C79511  10.850   5.215   9.193 -0.3539  0.0195  0.6340
  577MOL0     O79512  10.919   5.087   9.190  0.3513  0.0461  0.5338
  577MOL0     C79513  11.047   5.075   9.134 -0.2630 -0.2307 -0.0636
  577MOL0     C79514  11.135   5.182   9.100 -0.2591  0.4333 -0.8607
  577MOL0     C79515  11.260   5.166   9.038  0.1146 -0.3479  0.4033
  577MOL0     C79516  11.346   5.283   9.012  0.2016 -0.1558 -0.4594
  577MOL0     C79517  11.293   5.036   8.998 -0.4330 -0.1499 -0.1360
  577MOL0     C79518  11.404   4.993   8.911  0.8651 -0.1637  0.9295
  577MOL0     O79519  11.451   4.859   8.909  0.0814  0.0856  0.6556
  577MOL0     C79520  11.571   4.819   8.869  0.0170 -0.0080  0.3067
  577MOL0     C79521  11.662   4.781   8.960  0.9369  0.2116 -0.1888
  577MOL0     C79522  11.800   4.739   8.926  1.0963  0.1662 -0.4914
  577MOL0     C79523  11.831   4.742   8.790  0.5912  0.1867  0.1147
  577MOL0     O79524  11.953   4.698   8.745 -0.5269 -0.5289 -0.1623
  577MOL0     C79525  12.068   4.764   8.788  0.0668 -0.6225 -0.3556
  577MOL0     C79526  12.078   4.905   8.733  0.6397  0.2046 -0.1390
  577MOL0     C79527  12.141   4.904   8.591 -0.9090 -0.6646  0.8344
  577MOL0     C79528  12.121   5.037   8.515  0.3432  0.2328  0.2669
  577MOL0     C79529  12.233   5.061   8.413  0.2079  0.2372  1.4788
  577MOL0     C79530  12.227   5.205   8.356  0.2856  0.4065 -0.1985
  577MOL0     C79531  12.353   5.256   8.281  0.5209 -0.2159 -0.5212
  577MOL0     C79532  12.405   5.180   8.165 -0.5782 -0.0623 -0.5443
  577MOL0    Cl79533  12.485   5.046   8.240  0.0406  0.6527 -0.0823
  577MOL0     C79534  11.735   4.778   8.700 -0.2027  0.1802  0.6170
  577MOL0     C79535  11.603   4.806   8.732  0.6630 -0.1192  0.1876
  577MOL0     O79536  11.421   5.077   8.827  0.5192  0.3651 -0.4865
  577MOL0     C79537  11.220   4.928   9.051 -0.6871 -0.1843  0.5839
  577MOL0     C79538  11.095   4.949   9.111  0.1008 -0.1165 -0.5737
  577MOL0     N79539  10.349   4.978   9.210 -0.6011  0.4473 -0.5170
  577MOL0     N79540  10.227   4.946   9.184  0.2925 -0.1405  0.2575
  577MOL0     C79541   9.084   4.688   9.177 -0.2155 -0.7454  0.1040
  577MOL0     C79542   8.956   4.647   9.138 -0.1988 -0.0790  0.5765
  577MOL0     C79543   8.583   4.474   9.108 -0.3702  0.9696  0.4355
  577MOL0     C79544   8.566   4.513   8.970  0.2953 -1.2561 -0.2417
  577MOL0     C79545   8.441   4.507   8.910  0.5210 -0.8617  0.2523
  577MOL0     C79546   8.326   4.478   8.987  0.6483  0.4481  0.3213
  577MOL0     O79547   8.209   4.479   8.917  1.1796  0.2124 -0.4943
  577MOL0     C79548   8.084   4.427   8.965 -0.7466  0.4791  0.1466
  577MOL0     C79549   7.988   4.536   9.005 -0.2896  0.1213  0.4610
  577MOL0     C79550   7.881   4.481   9.113  0.5973  0.7868  0.0337
  577MOL0     C79551   7.750   4.555   9.085 -0.0438 -0.3970 -0.3732
  577MOL0     C79552   7.763   4.697   9.122 -1.2686  0.4963  0.2465
  577MOL0     C79553   7.789   4.812   9.138  0.3300 -0.4331 -0.5131
  577MOL0     C79554   8.344   4.446   9.121  0.2546 -0.7181 -1.0521
  577MOL0     C79555   8.470   4.450   9.188  0.5018 -0.0574  0.4744
  577MOL0     C79556   8.462   4.430   9.338 -0.1380 -0.0096  0.5382
  577MOL0     H79557   9.009   4.310   9.156  0.5051  0.1519  2.2838
  577MOL0     H79558   9.232   4.393   9.240  0.4806  0.0934 -1.7029
  577MOL0     H79559   9.236   4.807   9.405  0.2291 -1.6978  0.2973
  577MOL0     H79560   9.283   4.842   9.237  0.6632 -1.8269 -1.5070
  577MOL0     H79561   9.440   4.794   9.482 -2.9790  1.0808 -0.1920
  577MOL0     H79562   9.528   4.764   9.329 -0.7380 -0.7879 -0.8911
  577MOL0     H79563   9.521   4.987   9.261  1.9752 -3.7946 -0.2712
  577MOL0     H79564   9.380   5.016   9.369 -0.2250 -1.7932  0.0333
  577MOL0     H79565   9.581   5.128   9.446 -1.1153  0.5823  2.9211
  577MOL0     H79566   9.524   5.001   9.563  0.0978 -0.4373 -0.2460
  577MOL0     H79567   9.710   4.850   9.437  1.7240 -0.6529 -0.8391
  577MOL0     H79568   9.767   4.968   9.554 -0.6991  0.1137  0.5985
  577MOL0     H79569   9.761   4.996   9.247  1.3450 -1.5433  0.4348
  577MOL0     H79570   9.809   5.131   9.351  0.1135  0.7295 -3.0348
  577MOL0     H79571   9.966   4.867   9.334  0.4257  0.9967 -1.4091
  577MOL0     H79572   9.991   4.998   9.451 -0.5189  2.0439  0.3401
  577MOL0     H79573   9.995   5.036   9.151 -1.5501 -1.1841  0.7697
  577MOL0     H79574  10.016   5.170   9.268  1.9206  0.3973 -2.7950
  577MOL0     H79575  10.229   5.200   9.408 -2.0273  0.6227  0.1198
  577MOL0     H79576  10.540   5.072   9.419  1.3577  0.6689 -1.0755
  577MOL0     H79577  10.498   5.244   9.379  2.4127  0.7944 -0.1895
  577MOL0     H79578  10.649   5.029   9.217  0.3302  0.4637  2.0381
  577MOL0     H79579  10.581   5.169   9.137  0.7754 -5.2969 -2.8264
  577MOL0     H79580  10.717   5.315   9.304  0.9505 -0.3388 -1.4458
  577MOL0     H79581  10.775   5.173   9.385  0.9333  1.5575  0.2042
  577MOL0     H79582  10.817   5.240   9.092  2.2475  2.3402  0.2237
  577MOL0     H79583  10.919   5.294   9.228  0.2126  0.1614 -0.7447
  577MOL0     H79584  11.110   5.280   9.138  3.3516  0.4298  2.2392
  577MOL0     H79585  11.291   5.378   9.013  2.1952  1.0539  0.5027
  577MOL0     H79586  11.389   5.277   8.912  0.2399  0.0274 -0.4545
  577MOL0     H79587  11.431   5.291   9.081 -0.6919  1.1861  0.5455
  577MOL0     H79588  11.632   4.753   9.061 -2.8332  1.7529 -0.7063
  577MOL0     H79589  11.871   4.702   8.999  0.2940 -0.8857 -0.2162
  577MOL0     H79590  12.068   4.773   8.897 -0.3979  0.3117 -0.4171
  577MOL0     H79591  12.147   4.700   8.746 -1.1010 -1.3779 -1.4573
  577MOL0     H79592  11.976   4.944   8.729  0.6464  0.1556 -1.8045
  577MOL0     H79593  12.146   4.965   8.793  0.7538 -0.4173  0.3566
  577MOL0     H79594  12.092   4.825   8.533  2.0406 -1.4651 -0.7208
  577MOL0     H79595  12.249   4.888   8.595 -0.7186  0.3395  0.1271
  577MOL0     H79596  12.129   5.117   8.589  2.2680  0.7308 -0.4110
  577MOL0     H79597  12.026   5.056   8.465  0.8364 -1.0725 -1.2661
  577MOL0     H79598  12.335   5.047   8.451  1.1205  0.9327 -0.5614
  577MOL0     H79599  12.223   4.980   8.339  0.2850  0.5090  1.1683
  577MOL0     H79600  12.215   5.281   8.434 -0.3444  1.8573 -1.6469
  577MOL0     H79601  12.140   5.212   8.290 -1.4876  0.1682  1.9731
  577MOL0     H79602  12.439   5.266   8.347 -0.7502 -0.7383  1.2848
  577MOL0     H79603  12.331   5.358   8.248 -1.3180 -1.3066 -3.0132
  577MOL0     H79604  12.478   5.234   8.105  1.2137 -1.7380  0.0324
  577MOL0     H79605  12.331   5.136   8.096 -0.0299 -0.7723 -0.6902
  577MOL0     H79606  11.766   4.775   8.596  1.2173 -0.0759  1.0343
  577MOL0     H79607  11.530   4.818   8.652  2.7831  4.9755 -1.4240
  577MOL0     H79608  11.262   4.830   9.030  3.5360  1.7136 -0.9478
  577MOL0     H79609  11.022   4.873   9.139 -2.7566  2.4332 -0.5149
  577MOL0     H79610   9.096   4.795   9.192 -0.7323 -0.4428 -1.4481
  577MOL0     H79611   8.879   4.721   9.120 -1.5720 -1.3552  1.1109
  577MOL0     H79612   8.657   4.531   8.914  1.1300 -0.0668  1.3992
  577MOL0     H79613   8.426   4.514   8.803  1.6877 -0.4543  0.1011
  577MOL0     H79614   8.049   4.355   8.891  2.6971 -1.7540  0.4743
  577MOL0     H79615   8.098   4.361   9.051 -4.0011 -1.4985 -0.6843
  577MOL0     H79616   7.933   4.578   8.920 -2.4865 -0.2831  1.6001
  577MOL0     H79617   8.032   4.624   9.053 -0.8955 -1.0221  3.3337
  577MOL0     H79618   7.868   4.373   9.104 -1.1076  0.5516  3.6056
  577MOL0     H79619   7.915   4.508   9.214 -0.0725  0.6033  0.3149
  577MOL0     H79620   7.665   4.509   9.135  0.3702  0.3622  1.0830
  577MOL0     H79621   7.719   4.538   8.981 -3.1659 -1.4136  0.6208
  577MOL0     H79622   7.821   4.914   9.143 -0.4295 -0.2701  2.1774
  577MOL0     H79623   8.255   4.439   9.183  1.1837  1.1244  0.5928
  577MOL0     H79624   8.467   4.532   9.378  1.1509  1.3496 -2.7477
  577MOL0     H79625   8.367   4.382   9.363 -0.5302 -0.2827 -1.3860
  577MOL0     H79626   8.542   4.360   9.364 -0.3123 -0.4542 -0.1125
  578MOL0     O79627   7.099   7.419   9.463 -0.0287 -0.0751  0.5015
  578MOL0     C79628   7.134   7.427   9.581 -0.1370  0.0517  0.3327
  578MOL0     O79629   7.067   7.383   9.693 -0.6683 -0.3927 -0.5310
  578MOL0     C79630   6.957   7.297   9.692  0.2366  0.2179  0.2363
  578MOL0     C79631   6.868   7.307   9.800 -0.2913  0.0634  0.0795
  578MOL0     C79632   6.748   7.237   9.815  0.1616  0.1083 -0.7499
  578MOL0     C79633   6.718   7.144   9.708  0.6669  0.4403 -0.3058
  578MOL0     O79634   6.597   7.076   9.720  0.8812  0.2955  0.3381
  578MOL0     C79635   6.595   6.937   9.686 -0.0932  0.8103 -0.3140
  578MOL0     C79636   6.456   6.898   9.634  0.0783 -0.9088  0.2931
  578MOL0     C79637   6.348   6.920   9.737 -0.0443 -0.3001 -0.2309
  578MOL0     C79638   6.209   6.932   9.683  0.1887 -0.0158  0.4315
  578MOL0     C79639   6.176   7.069   9.612  1.0357 -0.3041  0.5424
  578MOL0     C79640   6.036   7.053   9.541  0.2480 -0.0307  0.0618
  578MOL0     C79641   6.029   7.127   9.404 -1.0588  0.1158  0.3626
  578MOL0     C79642   6.019   7.280   9.412 -0.0834  0.1255  0.2110
  578MOL0     N79643   6.123   7.361   9.479 -0.4426  0.4015 -0.5429
  578MOL0     C79644   6.229   7.411   9.418  0.4914 -0.4439 -0.1149
  578MOL0     C79645   6.281   7.510   9.497  0.5977 -0.8114  0.3318
  578MOL0     C79646   6.397   7.605   9.468  0.4336 -0.9501  0.6415
  578MOL0     C79647   6.366   7.727   9.383  0.6874 -0.8203 -0.3262
  578MOL0     C79648   6.474   7.835   9.387  0.6453 -1.2414  0.3802
  578MOL0     C79649   6.606   7.786   9.336  0.1958 -0.8865 -0.6929
  578MOL0     O79650   6.595   7.765   9.196 -0.7936  0.3121 -0.0374
  578MOL0     C79651   6.706   7.695   9.143  1.5949 -0.0721 -0.3789
  578MOL0     C79652   6.714   7.681   9.007 -0.1394 -0.6541  0.2148
  578MOL0     C79653   6.821   7.610   8.938 -0.1429  0.0799  0.1525
  578MOL0     C79654   6.819   7.595   8.786 -0.5783 -0.6477 -0.7981
  578MOL0     C79655   6.919   7.547   9.015 -0.0155 -0.6066 -0.1814
  578MOL0     C79656   7.016   7.445   8.956 -0.3108  0.2550  0.0231
  578MOL0     O79657   7.134   7.438   9.016 -0.0509  0.1322 -0.8706
  578MOL0     C79658   7.247   7.392   8.957  0.2901 -0.2461  0.0334
  578MOL0     C79659   7.253   7.275   8.884  0.2773 -0.3254 -0.5286
  578MOL0     C79660   7.370   7.225   8.828  0.1196 -0.6532  0.1649
  578MOL0     C79661   7.489   7.288   8.838 -0.9356 -0.2408  0.4019
  578MOL0     O79662   7.592   7.227   8.772  0.5157  0.1771 -0.0819
  578MOL0     C79663   7.719   7.264   8.803  0.0834 -0.2464 -0.0356
  578MOL0     C79664   7.765   7.379   8.722 -1.1624  0.7310 -0.3943
  578MOL0     C79665   7.872   7.334   8.611  0.7074 -0.0100  0.5314
  578MOL0     C79666   8.010   7.308   8.676 -0.3013 -0.2371 -0.2325
  578MOL0     C79667   8.084   7.200   8.598 -0.3539 -0.1513  0.0820
  578MOL0     C79668   8.232   7.193   8.641 -0.7755  0.3126 -0.2471
  578MOL0     C79669   8.327   7.084   8.588 -0.4231  0.6137 -0.1248
  578MOL0     C79670   8.350   7.090   8.440 -0.4081 -0.0401  0.9179
  578MOL0    Cl79671   8.404   7.250   8.405  0.1060  0.1921  0.4888
  578MOL0     C79672   7.491   7.402   8.922 -1.0430 -0.5000  0.4672
  578MOL0     C79673   7.369   7.448   8.979 -0.4286  0.2868  0.4859
  578MOL0     O79674   6.987   7.380   8.857  0.1920  0.1009  1.1085
  578MOL0     C79675   6.915   7.563   9.156  0.7560 -0.3252 -0.2732
  578MOL0     C79676   6.808   7.639   9.216  0.1348  0.4574 -0.9628
  578MOL0     N79677   6.202   7.512   9.611 -0.1611  0.6893  0.4766
  578MOL0     N79678   6.106   7.431   9.596  0.4702 -0.4238  0.0509
  578MOL0     C79679   6.804   7.135   9.596  0.0190 -0.0963 -0.2092
  578MOL0     C79680   6.928   7.206   9.597  0.0583  1.6573 -0.1164
  578MOL0     C79681   7.254   7.517   9.627 -0.7498  0.2599  0.5731
  578MOL0     C79682   7.267   7.554   9.767  0.4011 -0.3668  0.9600
  578MOL0     C79683   7.366   7.634   9.815 -0.0079 -0.5019  0.8789
  578MOL0     C79684   7.464   7.689   9.730  0.2556 -0.5950 -0.4721
  578MOL0     O79685   7.564   7.776   9.767 -0.2565 -0.0236 -0.5119
  578MOL0     C79686   7.587   7.791   9.902  0.0509  0.3565  0.2833
  578MOL0     C79687   7.513   7.900   9.968 -0.1016 -0.2689 -0.1165
  578MOL0     C79688   7.526   8.036   9.896  0.4075  0.6588 -0.9007
  578MOL0     C79689   7.456   8.066   9.763 -0.4345  0.2646  0.0564
  578MOL0     C79690   7.456   8.207   9.733  0.5854  0.3315 -0.6809
  578MOL0     C79691   7.447   8.320   9.694  0.0774  0.9168 -0.2019
  578MOL0     C79692   7.460   7.649   9.601  0.7822  0.8689 -0.2272
  578MOL0     C79693   7.359   7.559   9.545 -0.3305 -0.9134  0.3183
  578MOL0     C79694   7.366   7.525   9.397  0.5228  0.3181  0.2047
  578MOL0     H79695   6.904   7.381   9.871  2.5242 -0.8195 -0.3106
  578MOL0     H79696   6.681   7.262   9.897  0.6631  1.2992 -0.6880
  578MOL0     H79697   6.610   6.882   9.780  0.7685 -0.8361 -1.3732
  578MOL0     H79698   6.671   6.904   9.614 -0.3715 -1.7165  0.4457
  578MOL0     H79699   6.441   6.966   9.550 -1.6482 -1.5812  0.0056
  578MOL0     H79700   6.456   6.796   9.595  4.5415 -0.6679 -0.8825
  578MOL0     H79701   6.354   6.836   9.807  0.5856 -0.6781 -0.7266
  578MOL0     H79702   6.371   7.014   9.789  1.0301 -1.3012  1.1845
  578MOL0     H79703   6.193   6.849   9.613  1.3526  0.1166 -0.0204
  578MOL0     H79704   6.135   6.917   9.762 -2.2383  1.2605 -1.4307
  578MOL0     H79705   6.245   7.104   9.535  0.5627  0.8140  0.6034
  578MOL0     H79706   6.173   7.150   9.687  0.7300  0.5942 -0.4174
  578MOL0     H79707   6.006   6.948   9.533 -0.5839 -0.0421  2.4547
  578MOL0     H79708   5.955   7.100   9.597 -3.8438 -3.9588 -1.8622
  578MOL0     H79709   5.937   7.085   9.361  1.3454 -5.0293 -0.4772
  578MOL0     H79710   6.114   7.104   9.340  2.3184  2.0691  3.7746
  578MOL0     H79711   6.029   7.304   9.306  2.1573 -3.3139 -0.5077
  578MOL0     H79712   5.918   7.313   9.436 -0.2321  1.1208 -1.6420
  578MOL0     H79713   6.272   7.398   9.319  1.3327  0.6124  0.0871
  578MOL0     H79714   6.472   7.547   9.412 -0.4997  0.4271 -2.2426
  578MOL0     H79715   6.436   7.622   9.568  0.6960  1.5490  0.1671
  578MOL0     H79716   6.340   7.695   9.281 -0.9558 -1.2360  0.1890
  578MOL0     H79717   6.272   7.771   9.418  0.0915 -1.3759 -1.1896
  578MOL0     H79718   6.440   7.918   9.323 -0.7019 -1.2794  1.0063
  578MOL0     H79719   6.469   7.882   9.486 -1.4911  1.7546 -0.9883
  578MOL0     H79720   6.680   7.863   9.360 -0.4678 -0.2757 -0.5494
  578MOL0     H79721   6.638   7.699   9.394 -0.1085 -0.4468  0.1635
  578MOL0     H79722   6.641   7.729   8.942  1.3001  0.7042 -0.4557
  578MOL0     H79723   6.780   7.495   8.765 -1.5433 -0.1308 -1.5239
  578MOL0     H79724   6.919   7.619   8.749 -0.0016  1.5625  1.8633
  578MOL0     H79725   6.755   7.671   8.740 -1.0773 -0.6117 -0.0770
  578MOL0     H79726   7.168   7.216   8.853  1.9057 -1.4276 -3.2669
  578MOL0     H79727   7.372   7.136   8.765 -2.0126  1.2751 -2.9333
  578MOL0     H79728   7.742   7.272   8.910  0.4456  2.1074 -0.2511
  578MOL0     H79729   7.778   7.179   8.766 -0.9988 -0.4256 -1.4119
  578MOL0     H79730   7.688   7.442   8.677  0.5742  4.5123  1.4657
  578MOL0     H79731   7.816   7.444   8.793 -1.2240  2.5341 -1.9440
  578MOL0     H79732   7.872   7.405   8.528 -2.3693 -0.6627 -0.1614
  578MOL0     H79733   7.838   7.243   8.560  1.1766 -1.4490  2.6543
  578MOL0     H79734   7.989   7.283   8.780 -0.1282  0.7430  0.0520
  578MOL0     H79735   8.069   7.400   8.676 -3.6350  2.0634 -0.1236
  578MOL0     H79736   8.026   7.109   8.618 -2.2260  0.2627 -2.9093
  578MOL0     H79737   8.081   7.204   8.489  0.7161 -0.7686  0.0139
  578MOL0     H79738   8.247   7.175   8.748  1.2277 -3.3705 -0.9714
  578MOL0     H79739   8.285   7.287   8.617  2.2673 -1.5485 -1.4276
  578MOL0     H79740   8.288   6.987   8.622  0.0272  0.6886  0.6311
  578MOL0     H79741   8.428   7.092   8.628 -0.5643 -0.4964  0.5002
  578MOL0     H79742   8.261   7.060   8.383 -1.1463  0.7510  1.6250
  578MOL0     H79743   8.434   7.023   8.417  0.9542  1.9319 -0.0441
  578MOL0     H79744   7.588   7.447   8.939 -0.6849  0.2256 -2.7737
  578MOL0     H79745   7.375   7.523   9.057  2.7770  2.8630 -1.9834
  578MOL0     H79746   6.993   7.522   9.219  0.8956 -0.5999 -0.6206
  578MOL0     H79747   6.816   7.650   9.324  1.8748 -1.8872 -0.7730
  578MOL0     H79748   6.787   7.063   9.516 -0.0764  0.6175 -0.8486
  578MOL0     H79749   6.986   7.200   9.506 -1.1264  0.4115 -0.8306
  578MOL0     H79750   7.193   7.523   9.840 -2.2950  3.0412 -0.0192
  578MOL0     H79751   7.348   7.680   9.912  0.1959  4.0590 -0.9687
  578MOL0     H79752   7.567   7.692   9.944 -1.7868  0.8076  0.5568
  578MOL0     H79753   7.695   7.799   9.918 -0.0901  2.2628  0.4676
  578MOL0     H79754   7.542   7.916  10.072 -3.9492 -0.8912  1.2079
  578MOL0     H79755   7.407   7.873   9.977 -1.1046  2.2846 -2.6368
  578MOL0     H79756   7.491   8.108   9.971 -0.4338  1.2849 -1.8737
  578MOL0     H79757   7.634   8.049   9.885  0.6711  1.1202  1.5296
  578MOL0     H79758   7.357   8.019   9.763 -0.0031 -0.8962 -3.3453
  578MOL0     H79759   7.516   8.014   9.687 -0.6663  2.2152 -1.5328
  578MOL0     H79760   7.430   8.423   9.667  2.0112  1.4294  0.3781
  578MOL0     H79761   7.537   7.676   9.530  0.0287  0.8231 -1.0813
  578MOL0     H79762   7.282   7.562   9.338  1.1969 -1.8593 -2.3415
  578MOL0     H79763   7.465   7.562   9.368  2.5094 -0.8507  4.6093
  578MOL0     H79764   7.364   7.419   9.371 -5.0749 -0.0783  1.1143
  579MOL0     O79765   0.948   4.904   5.652  0.8544  0.5329  0.4455
  579MOL0     C79766   0.902   4.982   5.734 -0.0993  0.5376  0.1655
  579MOL0     O79767   0.972   5.087   5.785 -0.0546  0.0791 -0.1801
  579MOL0     C79768   1.109   5.076   5.773 -0.1929  0.3509 -0.1439
  579MOL0     C79769   1.177   5.180   5.705  0.3829 -0.1474 -0.2291
  579MOL0     C79770   1.317   5.160   5.689  0.3781  0.0655  0.5543
  579MOL0     C79771   1.389   5.055   5.741 -1.0261  0.0181 -0.4925
  579MOL0     O79772   1.525   5.044   5.731  0.3802 -0.2952 -0.2284
  579MOL0     C79773   1.589   4.919   5.712 -0.4742 -0.0720  0.4102
  579MOL0     C79774   1.740   4.935   5.697 -0.9899  0.6385  0.7444
  579MOL0     C79775   1.810   4.968   5.837 -0.0997 -0.0231  0.7205
  579MOL0     C79776   1.964   4.956   5.801 -0.0193 -0.5461 -0.8556
  579MOL0     C79777   2.036   5.013   5.926 -0.1733 -0.6476 -0.2849
  579MOL0     C79778   2.194   5.009   5.899  0.3164 -0.0496  0.7285
  579MOL0     C79779   2.280   5.069   6.008  1.0225 -0.0388  0.4758
  579MOL0     C79780   2.429   5.067   5.987 -0.4056  0.6196  0.5364
  579MOL0     N79781   2.509   5.098   6.107 -0.6713  0.0129 -0.9879
  579MOL0     C79782   2.560   5.008   6.191  0.2762 -0.0209  0.6863
  579MOL0     C79783   2.636   5.076   6.276 -0.9247 -0.0607  0.3878
  579MOL0     C79784   2.726   5.022   6.386  0.8397 -0.4210  0.2242
  579MOL0     C79785   2.858   4.987   6.342  0.1869 -0.1432 -0.5957
  579MOL0     C79786   2.947   4.951   6.461  0.1244  0.5079  0.4880
  579MOL0     C79787   3.099   4.950   6.424  0.6463  0.3692  1.2858
  579MOL0     O79788   3.116   4.852   6.318 -0.4278  0.5981  0.3433
  579MOL0     C79789   3.163   4.723   6.356 -0.2745 -0.3721 -0.9141
  579MOL0     C79790   3.221   4.653   6.245 -0.8898 -0.3029  0.0896
  579MOL0     C79791   3.272   4.525   6.264 -0.3547  0.2177 -0.2703
  579MOL0     C79792   3.303   4.454   6.133 -0.6898 -0.2488 -0.3525
  579MOL0     C79793   3.273   4.464   6.392  0.3160  0.1435 -0.0663
  579MOL0     C79794   3.331   4.328   6.421 -1.5878 -0.2745  0.1893
  579MOL0     O79795   3.353   4.236   6.322 -0.4387  0.0664  0.5347
  579MOL0     C79796   3.401   4.115   6.365  0.0121 -0.0668  0.4064
  579MOL0     C79797   3.321   3.998   6.368  0.5605 -0.7731  0.5773
  579MOL0     C79798   3.363   3.879   6.424 -0.2699  0.2056  0.9480
  579MOL0     C79799   3.500   3.864   6.444  0.8148 -0.1191  0.0086
  579MOL0     O79800   3.560   3.747   6.487 -0.3856 -0.5950 -0.0629
  579MOL0     C79801   3.516   3.626   6.426  0.1348 -0.5031  0.0327
  579MOL0     C79802   3.631   3.527   6.413  0.4362 -0.0581 -0.1364
  579MOL0     C79803   3.699   3.502   6.551 -1.4609  1.1118 -0.3877
  579MOL0     C79804   3.838   3.421   6.520 -0.2164 -0.0314  0.2951
  579MOL0     C79805   3.933   3.430   6.646  0.0838 -0.0614 -0.1426
  579MOL0     C79806   3.856   3.387   6.777  0.4743 -0.4861 -0.2392
  579MOL0     C79807   3.959   3.353   6.884  0.3871 -0.1541  0.4843
  579MOL0     C79808   3.900   3.300   7.007  0.2954 -0.3972  0.1719
  579MOL0    Cl79809   4.018   3.200   7.104 -0.0559  0.2879  0.1224
  579MOL0     C79810   3.587   3.979   6.442  0.1411  0.0494  0.3296
  579MOL0     C79811   3.537   4.106   6.397 -0.3624 -0.1336  0.8804
  579MOL0     O79812   3.336   4.294   6.532  0.0569  0.0945 -0.6998
  579MOL0     C79813   3.203   4.533   6.500  0.2657  0.3802 -0.2714
  579MOL0     C79814   3.159   4.659   6.483 -0.0722  0.0180  0.4997
  579MOL0     N79815   2.625   5.209   6.245 -0.9836 -0.1551 -0.5767
  579MOL0     N79816   2.553   5.219   6.143 -0.7494 -0.9089  0.0116
  579MOL0     C79817   1.319   4.963   5.819 -0.1945 -0.3312 -0.2480
  579MOL0     C79818   1.183   4.972   5.835  0.2837  0.1568  0.3089
  579MOL0     C79819   0.758   4.970   5.755  0.2914 -0.2263  0.0396
  579MOL0     C79820   0.694   4.856   5.817  0.0298 -0.2129 -0.4789
  579MOL0     C79821   0.559   4.851   5.832 -0.1648  0.2507 -0.0781
  579MOL0     C79822   0.485   4.969   5.808  0.4451  0.4290 -0.3838
  579MOL0     O79823   0.355   4.962   5.851  0.6601  0.5106 -0.1960
  579MOL0     C79824   0.282   5.082   5.883 -0.0502 -0.2375 -0.4500
  579MOL0     C79825   0.132   5.044   5.860  0.8317 -0.8020 -0.1506
  579MOL0     C79826   0.082   4.921   5.944 -0.6824 -0.3902  0.5913
  579MOL0     C79827   0.080   4.805   5.846  0.4787 -0.1470  0.7764
  579MOL0     C79828   0.038   4.683   5.919 -0.3533  0.0650 -0.1538
  579MOL0     C79829   0.010   4.575   5.958 -1.3056 -0.2181  0.6769
  579MOL0     C79830   0.538   5.078   5.740  0.1168 -0.3796  0.6207
  579MOL0     C79831   0.678   5.074   5.710  0.0779 -1.4873  1.1319
  579MOL0     C79832   0.742   5.193   5.630  0.4041 -0.1070 -0.2016
  579MOL0     H79833   1.143   5.273   5.660  1.2837  0.1945 -0.2363
  579MOL0     H79834   1.366   5.231   5.624  1.2494 -0.8807  0.1538
  579MOL0     H79835   1.545   4.869   5.625  0.9991 -0.6064 -0.0453
  579MOL0     H79836   1.576   4.853   5.798 -0.2342 -1.1097 -0.3338
  579MOL0     H79837   1.778   4.842   5.654  2.2867  1.3170  1.8649
  579MOL0     H79838   1.779   5.010   5.627  1.8626 -1.6413 -0.2999
  579MOL0     H79839   1.783   5.070   5.863 -2.1585 -0.3971  0.2655
  579MOL0     H79840   1.794   4.906   5.926  2.0118  2.1293  2.7220
  579MOL0     H79841   1.996   4.853   5.784 -0.4375 -0.8461  0.1079
  579MOL0     H79842   1.988   5.014   5.711  1.3277 -0.8445 -0.7155
  579MOL0     H79843   2.016   4.957   6.018 -1.3585 -0.2704 -0.3032
  579MOL0     H79844   2.018   5.121   5.937  1.9027 -0.4255  1.8677
  579MOL0     H79845   2.233   4.908   5.884 -1.0318 -0.3326 -1.2267
  579MOL0     H79846   2.219   5.055   5.803 -0.0746 -1.1087  0.1049
  579MOL0     H79847   2.264   5.005   6.096 -1.6049 -0.0354  0.0894
  579MOL0     H79848   2.248   5.171   6.033  0.9917  0.3452 -1.0386
  579MOL0     H79849   2.460   4.967   5.954 -1.1393  1.0022 -1.4468
  579MOL0     H79850   2.456   5.123   5.897 -0.1973 -2.0913 -1.2295
  579MOL0     H79851   2.548   4.903   6.169  1.3840  0.0721 -0.4511
  579MOL0     H79852   2.671   4.944   6.439 -1.5356 -0.4345 -2.0569
  579MOL0     H79853   2.738   5.098   6.465 -0.6685 -1.2824  1.3358
  579MOL0     H79854   2.857   4.913   6.260 -0.6334 -1.4960  0.5876
  579MOL0     H79855   2.889   5.076   6.287 -0.9448 -0.8923 -2.6041
  579MOL0     H79856   2.928   5.017   6.546 -1.0081  0.9399 -0.0726
  579MOL0     H79857   2.924   4.847   6.486  2.3724 -0.8579 -2.5186
  579MOL0     H79858   3.137   5.048   6.392 -0.6964  0.1282 -1.3088
  579MOL0     H79859   3.157   4.920   6.512  3.2031  0.0675 -0.3869
  579MOL0     H79860   3.234   4.700   6.148 -0.0514 -3.3392 -1.4007
  579MOL0     H79861   3.258   4.354   6.134  1.3703 -1.3015 -3.0524
  579MOL0     H79862   3.410   4.431   6.137 -1.2328 -3.1707 -0.1573
  579MOL0     H79863   3.283   4.501   6.037  0.1770 -0.2619 -0.5417
  579MOL0     H79864   3.217   4.005   6.340  0.6711 -1.0729  0.0623
  579MOL0     H79865   3.294   3.795   6.431 -0.8013  0.7242  2.0608
  579MOL0     H79866   3.433   3.586   6.486  0.8469  0.4348  1.6753
  579MOL0     H79867   3.477   3.642   6.325 -1.9308  0.2430  0.8941
  579MOL0     H79868   3.597   3.429   6.379 -1.2321  1.0835 -2.0384
  579MOL0     H79869   3.700   3.568   6.339 -0.7381  2.7089  0.1662
  579MOL0     H79870   3.628   3.440   6.607  0.5599 -0.9495  0.0047
  579MOL0     H79871   3.717   3.597   6.602 -1.5480  0.7155  0.3972
  579MOL0     H79872   3.887   3.472   6.437  0.9634  0.3624  1.2207
  579MOL0     H79873   3.820   3.317   6.493  1.5751 -0.1986 -0.3253
  579MOL0     H79874   4.031   3.381   6.638 -0.0448 -0.4177  0.3805
  579MOL0     H79875   3.962   3.534   6.660  0.2034 -0.2857  1.5008
  579MOL0     H79876   3.796   3.297   6.763  0.0659 -0.0853 -1.1671
  579MOL0     H79877   3.795   3.474   6.803  4.3103  2.3554  0.1387
  579MOL0     H79878   4.024   3.439   6.900 -0.0755  0.4624 -0.8498
  579MOL0     H79879   4.011   3.267   6.840 -1.8599 -1.0132 -0.6716
  579MOL0     H79880   3.811   3.241   6.986  0.5942 -0.3928 -1.2046
  579MOL0     H79881   3.863   3.383   7.067 -3.4070 -2.1097  0.5283
  579MOL0     H79882   3.688   3.962   6.479  0.6022  1.1258 -0.3694
  579MOL0     H79883   3.610   4.183   6.373 -1.2441  0.8472  1.2252
  579MOL0     H79884   3.198   4.487   6.598  1.7763  0.6990 -0.0176
  579MOL0     H79885   3.122   4.701   6.576  2.4875  0.8268  1.2411
  579MOL0     H79886   1.369   4.884   5.875 -0.7583 -0.8173 -0.4156
  579MOL0     H79887   1.131   4.901   5.899 -3.9435  0.2992 -2.5664
  579MOL0     H79888   0.762   4.773   5.830  1.9692  1.2936 -0.5601
  579MOL0     H79889   0.503   4.769   5.876  1.1397 -1.0546 -0.7958
  579MOL0     H79890   0.300   5.113   5.987  0.5112 -0.9827 -0.3088
  579MOL0     H79891   0.308   5.166   5.819 -0.4433  0.3785  0.1846
  579MOL0     H79892   0.088   5.049   5.760  1.5185  3.0353 -0.4154
  579MOL0     H79893   0.074   5.131   5.893 -2.8501 -1.8310 -3.2138
  579MOL0     H79894   0.150   4.893   6.024  1.0393  1.7773 -0.0088
  579MOL0     H79895  -0.013   4.953   5.989  0.2105 -0.2328  2.4633
  579MOL0     H79896   0.177   4.783   5.799  2.2209  2.1193  3.0338
  579MOL0     H79897   0.016   4.835   5.763  1.8528  2.6131  0.6018
  579MOL0     H79898  -0.020   4.479   5.995 -3.1924  0.5740  1.3153
  579MOL0     H79899   0.471   5.157   5.708  0.2650  1.3285  4.0004
  579MOL0     H79900   0.711   5.166   5.529 -0.6150 -0.3905  0.1740
  579MOL0     H79901   0.687   5.284   5.654 -1.2047 -1.2087  0.5077
  579MOL0     H79902   0.849   5.217   5.628 -0.0748  2.5052 -4.1644
  580MOL0     O79903   9.690   6.621   5.697  0.5523  0.0339 -0.2613
  580MOL0     C79904   9.704   6.565   5.810  0.3604 -1.2702  0.0391
  580MOL0     O79905   9.815   6.518   5.865 -0.2273 -0.0210 -0.2449
  580MOL0     C79906   9.936   6.528   5.803  0.0973 -0.6294 -0.9550
  580MOL0     C79907   9.966   6.487   5.674 -0.1362 -0.5306  0.6241
  580MOL0     C79908  10.091   6.504   5.619 -0.0446  0.5222  0.0635
  580MOL0     C79909  10.193   6.555   5.699 -0.3206  0.5470 -0.9060
  580MOL0     O79910  10.313   6.571   5.642 -0.1238  0.2624  0.3895
  580MOL0     C79911  10.430   6.568   5.718 -0.6878 -0.3511 -0.2136
  580MOL0     C79912  10.535   6.536   5.615  0.0536  0.2013  0.0300
  580MOL0     C79913  10.679   6.581   5.660  0.8772  0.7491  0.2091
  580MOL0     C79914  10.785   6.592   5.545 -0.2483  1.0239 -0.3868
  580MOL0     C79915  10.801   6.731   5.478  0.5536 -0.2053  0.8597
  580MOL0     C79916  10.940   6.768   5.419  0.3067 -0.6489 -0.1493
  580MOL0     C79917  10.991   6.673   5.321  0.8951  0.6217 -0.2043
  580MOL0     C79918  10.908   6.649   5.196 -0.3815  0.2830 -0.4037
  580MOL0     N79919  10.970   6.567   5.094  0.4395  0.6272 -0.5713
  580MOL0     C79920  10.931   6.569   4.961  0.1678  0.0116 -0.2561
  580MOL0     C79921  11.021   6.492   4.896 -0.2973 -0.5977  0.4577
  580MOL0     C79922  11.031   6.464   4.751 -0.5538 -0.4290  0.7704
  580MOL0     C79923  10.898   6.422   4.679  0.3690  0.2040 -1.1220
  580MOL0     C79924  10.824   6.537   4.607  0.8663 -0.7267  0.1086
  580MOL0     C79925  10.677   6.508   4.593  0.1821  0.0115  0.3700
  580MOL0     O79926  10.616   6.521   4.722  0.3771  0.8400 -0.0522
  580MOL0     C79927  10.480   6.526   4.714  0.5292 -0.3022  0.2948
  580MOL0     C79928  10.398   6.467   4.614 -0.7690 -0.8543  0.2031
  580MOL0     C79929  10.258   6.477   4.613  0.4019  0.1458 -0.4302
  580MOL0     C79930  10.191   6.399   4.509  0.5795 -0.1118  0.5953
  580MOL0     C79931  10.192   6.550   4.716 -0.2490 -0.5558  0.1693
  580MOL0     C79932  10.046   6.579   4.719 -0.6625  0.1266  0.4610
  580MOL0     O79933  10.007   6.612   4.842 -0.1323 -0.0574  0.4031
  580MOL0     C79934   9.875   6.642   4.881 -0.0873  0.1842 -0.2349
  580MOL0     C79935   9.872   6.742   4.978  0.2928 -0.4408  0.0451
  580MOL0     C79936   9.751   6.807   5.003  0.3805  0.4084  0.0625
  580MOL0     C79937   9.633   6.773   4.938  0.3150 -0.6408 -0.5497
  580MOL0     O79938   9.519   6.839   4.972  0.0094 -0.3364 -0.4245
  580MOL0     C79939   9.443   6.773   5.079  0.1532  0.2835  0.0009
  580MOL0     C79940   9.311   6.851   5.097  0.8023 -1.2258  0.2577
  580MOL0     C79941   9.216   6.764   5.190 -0.2271  0.5080  0.1704
  580MOL0     C79942   9.074   6.818   5.192 -0.1008 -0.9456  0.1767
  580MOL0     C79943   8.998   6.754   5.307  0.6386  0.0787  0.2020
  580MOL0     C79944   8.860   6.830   5.317  0.5972  0.0964 -0.2058
  580MOL0     C79945   8.760   6.741   5.394 -0.1303  1.0072 -0.8019
  580MOL0     C79946   8.773   6.712   5.540 -0.0299  0.3223 -0.6061
  580MOL0    Cl79947   8.637   6.598   5.588  0.1712  0.0691 -0.2052
  580MOL0     C79948   9.638   6.675   4.838  0.3656 -0.3289 -0.5370
  580MOL0     C79949   9.756   6.608   4.808 -0.1025 -0.0917 -0.0848
  580MOL0     O79950   9.974   6.574   4.623 -0.2275 -0.1527 -0.3151
  580MOL0     C79951  10.269   6.616   4.819 -0.1182 -0.3094  0.3660
  580MOL0     C79952  10.410   6.610   4.805 -0.2927  0.6863 -0.4230
  580MOL0     N79953  11.121   6.456   4.984 -0.0819  0.2444 -1.1671
  580MOL0     N79954  11.086   6.494   5.105 -0.4721 -0.4631  0.7505
  580MOL0     C79955  10.169   6.592   5.832  0.6432  0.1986  0.0519
  580MOL0     C79956  10.038   6.584   5.884 -0.0593  0.0404  0.0324
  580MOL0     C79957   9.580   6.555   5.890  0.2252  0.3290 -0.1129
  580MOL0     C79958   9.585   6.502   6.022 -0.3975  0.0435  0.3602
  580MOL0     C79959   9.467   6.474   6.102 -0.8416  0.1308  1.1105
  580MOL0     C79960   9.342   6.503   6.055 -0.1245  0.0938  0.1385
  580MOL0     O79961   9.225   6.494   6.126  0.2921  0.4225  0.3813
  580MOL0     C79962   9.207   6.448   6.265 -0.8410 -0.4669  0.8521
  580MOL0     C79963   9.131   6.312   6.264 -0.1406  0.5626  0.1536
  580MOL0     C79964   8.988   6.326   6.217 -0.3930 -0.4275 -0.0288
  580MOL0     C79965   8.928   6.194   6.185 -0.1691  0.4836 -0.2470
  580MOL0     C79966   8.929   6.105   6.298  0.6000 -0.3208 -0.1169
  580MOL0     C79967   8.906   6.037   6.396 -0.9773  0.3190 -0.1536
  580MOL0     C79968   9.337   6.562   5.929 -0.6545  0.7266  0.8058
  580MOL0     C79969   9.449   6.583   5.845  0.1371  0.3233  0.7149
  580MOL0     C79970   9.418   6.627   5.709  0.6657  0.4551  0.6751
  580MOL0     H79971   9.888   6.435   5.620  0.2089  1.1230 -1.5818
  580MOL0     H79972  10.120   6.473   5.520 -0.3295 -0.0027  0.1407
  580MOL0     H79973  10.420   6.483   5.787 -2.7563 -1.2566 -1.5292
  580MOL0     H79974  10.456   6.656   5.777 -0.9090 -1.1555  1.1426
  580MOL0     H79975  10.547   6.428   5.602  2.6996  0.3871  0.4177
  580MOL0     H79976  10.509   6.576   5.517  1.3208 -1.3039 -0.9850
  580MOL0     H79977  10.660   6.677   5.709 -2.2175 -0.5199  1.7886
  580MOL0     H79978  10.712   6.510   5.737 -0.3463 -0.7602 -0.5936
  580MOL0     H79979  10.880   6.563   5.591 -1.7159 -0.0342  2.1989
  580MOL0     H79980  10.768   6.532   5.456  0.0965  1.0753 -0.4910
  580MOL0     H79981  10.783   6.802   5.560  0.0141 -0.9491  1.3956
  580MOL0     H79982  10.718   6.742   5.408  0.9444 -0.2078  0.3952
  580MOL0     H79983  10.945   6.872   5.387  0.4099  0.1275  2.2059
  580MOL0     H79984  11.004   6.761   5.507 -1.4706  2.1846  1.5062
  580MOL0     H79985  11.008   6.579   5.374 -2.9799  0.4789  1.0780
  580MOL0     H79986  11.093   6.697   5.287  1.4071 -2.1671 -0.8826
  580MOL0     H79987  10.809   6.610   5.223  0.0285  1.4571  3.2561
  580MOL0     H79988  10.895   6.745   5.145 -0.5154  1.0803  1.0978
  580MOL0     H79989  10.846   6.619   4.914  0.1665 -1.6527 -2.1805
  580MOL0     H79990  11.095   6.376   4.739 -2.7320 -2.0246  0.3200
  580MOL0     H79991  11.063   6.558   4.703 -1.0905 -0.2635  0.7367
  580MOL0     H79992  10.928   6.345   4.607  1.2248  0.1627 -0.7301
  580MOL0     H79993  10.842   6.374   4.759  3.3665 -0.3414  0.7990
  580MOL0     H79994  10.837   6.629   4.664  0.8862  0.4632 -1.7491
  580MOL0     H79995  10.858   6.564   4.506  1.9403 -1.9426  0.1093
  580MOL0     H79996  10.632   6.576   4.519  2.4784 -0.0154 -1.1609
  580MOL0     H79997  10.665   6.406   4.557 -1.5875  0.5871 -0.8552
  580MOL0     H79998  10.449   6.400   4.545 -2.1457 -1.2428 -0.4778
  580MOL0     H79999  10.131   6.470   4.452 -1.5746 -2.1701  0.1382
  580MOL0     H80000  10.128   6.318   4.548  0.9077 -0.2135  0.9166
  580MOL0     H80001  10.261   6.349   4.442 -2.0565 -1.8057 -1.1163
  580MOL0     H80002   9.964   6.780   5.023 -1.5570  1.9262  2.0949
  580MOL0     H80003   9.748   6.893   5.070  1.5548  0.7459 -0.3091
  580MOL0     H80004   9.414   6.673   5.046  2.0703  0.0596 -1.1393
  580MOL0     H80005   9.491   6.757   5.176 -3.9385  0.5586  2.3308
  580MOL0     H80006   9.328   6.947   5.146  0.2482 -1.3531  0.7180
  580MOL0     H80007   9.270   6.878   4.999  0.4731 -1.9211  0.1970
  580MOL0     H80008   9.255   6.768   5.292 -2.4245  1.3986  1.0512
  580MOL0     H80009   9.208   6.666   5.142 -2.1886  2.4805 -4.1989
  580MOL0     H80010   9.024   6.797   5.097  3.2131 -2.4893 -1.4333
  580MOL0     H80011   9.074   6.926   5.209  1.4694 -0.7028 -1.1098
  580MOL0     H80012   8.979   6.649   5.283 -2.8453  0.8955 -1.2225
  580MOL0     H80013   9.054   6.756   5.401  0.3588 -0.1576  0.3773
  580MOL0     H80014   8.826   6.848   5.215  1.6232 -2.1036 -0.9960
  580MOL0     H80015   8.877   6.916   5.384 -0.2832 -0.8491  1.2894
  580MOL0     H80016   8.763   6.643   5.344  1.3260  1.0334 -0.7908
  580MOL0     H80017   8.666   6.790   5.364  0.6254  1.6799 -2.1596
  580MOL0     H80018   8.751   6.808   5.588 -1.6749 -0.2746 -0.1125
  580MOL0     H80019   8.873   6.676   5.568 -0.2057  1.0617  1.0754
  580MOL0     H80020   9.543   6.634   4.803  0.1379 -1.5594  1.3642
  580MOL0     H80021   9.763   6.533   4.729 -0.7250  3.2254 -3.5720
  580MOL0     H80022  10.228   6.679   4.898 -2.1895 -0.2203 -0.7075
  580MOL0     H80023  10.480   6.662   4.869 -0.9867  1.4339 -0.2558
  580MOL0     H80024  10.247   6.644   5.887  1.8540 -0.6103 -0.8506
  580MOL0     H80025  10.027   6.607   5.989 -0.2825 -0.6804  0.1746
  580MOL0     H80026   9.679   6.463   6.061  0.0258  2.0345  1.4284
  580MOL0     H80027   9.488   6.418   6.193  2.8134  1.2531  1.1146
  580MOL0     H80028   9.306   6.436   6.310  0.0836  0.5229 -0.8259
  580MOL0     H80029   9.149   6.530   6.309 -0.1688  1.6451 -1.9364
  580MOL0     H80030   9.132   6.265   6.363 -2.3630 -0.2467 -0.1449
  580MOL0     H80031   9.181   6.233   6.208 -3.0719 -0.0304 -1.8845
  580MOL0     H80032   8.940   6.364   6.308  1.3310  0.8645  0.4105
  580MOL0     H80033   8.977   6.394   6.132 -1.1894 -0.8015 -0.2264
  580MOL0     H80034   8.948   6.139   6.093 -0.6200  1.8813 -1.2021
  580MOL0     H80035   8.830   6.239   6.166  1.2927  4.9350  1.4606
  580MOL0     H80036   8.884   5.958   6.465 -0.6663 -1.1687 -1.7135
  580MOL0     H80037   9.245   6.602   5.888  0.0537  0.4345 -1.1872
  580MOL0     H80038   9.458   6.569   5.626 -3.8144 -0.9951 -0.7303
  580MOL0     H80039   9.313   6.647   5.687  1.4484  4.4319 -0.1867
  580MOL0     H80040   9.464   6.726   5.700 -0.1897  0.7561 -0.5452
  581MOL0     O80041   1.317   6.924   6.917 -0.3204 -0.6884 -0.0748
  581MOL0     C80042   1.314   6.897   7.038  0.3278 -0.2074  0.3515
  581MOL0     O80043   1.407   6.814   7.100  0.3347  0.2961  0.0124
  581MOL0     C80044   1.516   6.779   7.030 -1.0545  0.2291  0.9666
  581MOL0     C80045   1.533   6.667   6.951  0.6356  0.0900  0.3312
  581MOL0     C80046   1.651   6.628   6.884  0.8569  0.4458 -0.3386
  581MOL0     C80047   1.771   6.700   6.917 -0.4141 -0.3276  0.3322
  581MOL0     O80048   1.888   6.645   6.873 -0.0959 -1.3834  0.7152
  581MOL0     C80049   1.888   6.665   6.725  0.9606 -0.3476 -0.1836
  581MOL0     C80050   2.021   6.711   6.659  0.2938 -0.1416  0.4807
  581MOL0     C80051   2.139   6.610   6.663 -0.6412  0.5845 -0.4082
  581MOL0     C80052   2.275   6.656   6.611 -0.0578 -0.5640 -0.4188
  581MOL0     C80053   2.284   6.646   6.461  0.9780  0.1736  0.2720
  581MOL0     C80054   2.400   6.724   6.402  0.2807 -0.3119 -0.4557
  581MOL0     C80055   2.413   6.710   6.245 -0.1444 -0.4302  0.0889
  581MOL0     C80056   2.293   6.754   6.162 -0.2107 -0.2101  0.0975
  581MOL0     N80057   2.248   6.890   6.185  0.3753 -1.2148 -0.0804
  581MOL0     C80058   2.136   6.924   6.259  0.9569  0.7763 -0.1896
  581MOL0     C80059   2.138   7.056   6.252 -0.8352  1.0090  0.3830
  581MOL0     C80060   2.013   7.124   6.297 -1.1419 -0.4208 -0.5593
  581MOL0     C80061   1.931   7.175   6.175  0.7756 -0.2522  0.5148
  581MOL0     C80062   1.848   7.063   6.117 -0.6407  0.4084  0.7574
  581MOL0     C80063   1.731   7.019   6.200 -0.0027  0.1358  0.2316
  581MOL0     O80064   1.629   7.119   6.233 -0.4700  0.0135  0.2302
  581MOL0     C80065   1.540   7.081   6.327 -0.2119 -0.0183  0.9831
  581MOL0     C80066   1.522   6.955   6.378 -0.0621  0.2269 -0.2788
  581MOL0     C80067   1.418   6.911   6.459  0.3831  0.0457  0.6903
  581MOL0     C80068   1.406   6.768   6.515  0.5409 -0.4143 -0.0250
  581MOL0     C80069   1.330   7.008   6.505  0.6813 -0.7242 -0.9962
  581MOL0     C80070   1.211   6.978   6.588 -0.1466  0.0039  0.0533
  581MOL0     O80071   1.150   7.089   6.655 -0.4087 -0.1942  0.6014
  581MOL0     C80072   1.021   7.073   6.693 -0.9330  0.2468 -0.3499
  581MOL0     C80073   0.922   7.118   6.610  0.4060 -1.0125  0.1468
  581MOL0     C80074   0.788   7.107   6.661 -0.4937  0.1879 -0.6299
  581MOL0     C80075   0.764   7.048   6.789  0.4006 -0.0355  1.1203
  581MOL0     O80076   0.647   7.027   6.860 -0.1913  0.1161  0.0073
  581MOL0     C80077   0.521   7.072   6.801  0.2472  0.0137  0.1886
  581MOL0     C80078   0.423   6.986   6.894 -0.5462  1.5148  0.4026
  581MOL0     C80079   0.282   7.037   6.900  0.4507 -1.0369 -0.2991
  581MOL0     C80080   0.262   7.124   7.023  0.9274 -0.0152 -0.4309
  581MOL0     C80081   0.127   7.199   7.016  0.3090 -0.0270 -0.3334
  581MOL0     C80082   0.042   7.230   7.144 -0.4249  0.0578 -0.3520
  581MOL0     C80083   0.108   7.339   7.239 -0.5203  1.0211  0.2693
  581MOL0     C80084   0.117   7.484   7.183  0.5025  0.6058 -0.4604
  581MOL0    Cl80085  -0.026   7.571   7.128  0.3647 -0.2025 -0.0080
  581MOL0     C80086   0.873   6.999   6.857 -0.2270  0.3258 -0.3224
  581MOL0     C80087   1.000   7.014   6.820  0.2968 -0.3529  0.4969
  581MOL0     O80088   1.158   6.863   6.584  0.5724  0.0814  0.2199
  581MOL0     C80089   1.358   7.144   6.470 -0.9917  0.2773  0.0525
  581MOL0     C80090   1.455   7.182   6.378 -0.2065  0.0197  0.5859
  581MOL0     N80091   2.251   7.107   6.189  0.3549  0.2740  0.5668
  581MOL0     N80092   2.308   7.008   6.141  0.0280  0.1787 -0.7560
  581MOL0     C80093   1.760   6.818   6.991 -0.0061 -0.1285  0.0590
  581MOL0     C80094   1.637   6.852   7.054 -0.3153 -0.0628  0.3827
  581MOL0     C80095   1.210   6.960   7.116 -0.3865 -0.1331  0.8224
  581MOL0     C80096   1.135   6.881   7.197 -0.3147  0.7687 -0.4964
  581MOL0     C80097   1.031   6.950   7.268 -0.5657  0.4039  0.6961
  581MOL0     C80098   1.000   7.088   7.253 -0.6096 -0.3122  0.0816
  581MOL0     O80099   0.897   7.153   7.322 -0.2765 -0.2375  0.6050
  581MOL0     C80100   0.800   7.085   7.400  0.1633  0.5212  0.5963
  581MOL0     C80101   0.685   7.025   7.306  0.7519  0.4385 -0.5383
  581MOL0     C80102   0.577   7.140   7.256  0.0405  0.2311 -0.5957
  581MOL0     C80103   0.494   7.191   7.371 -0.5426 -0.1806 -0.1073
  581MOL0     C80104   0.408   7.078   7.410  0.7344 -0.4291 -0.4972
  581MOL0     C80105   0.342   6.981   7.442  1.1768 -0.4756  0.1667
  581MOL0     C80106   1.079   7.159   7.173 -0.2604  0.5029  0.4237
  581MOL0     C80107   1.181   7.103   7.101 -0.1860  0.6878  0.2125
  581MOL0     C80108   1.253   7.203   7.013 -0.7157  0.8861 -0.0878
  581MOL0     H80109   1.438   6.617   6.939  0.0318  1.4430 -0.8071
  581MOL0     H80110   1.630   6.544   6.818  0.4170  0.4576 -0.2213
  581MOL0     H80111   1.814   6.738   6.689  0.2255 -0.5751  0.8400
  581MOL0     H80112   1.853   6.572   6.679 -1.4050  0.4940 -0.2449
  581MOL0     H80113   1.992   6.741   6.558 -2.8321  0.1658  1.3747
  581MOL0     H80114   2.043   6.804   6.712 -1.2543  0.1614  0.6091
  581MOL0     H80115   2.136   6.582   6.769  2.5415 -0.6322 -0.5400
  581MOL0     H80116   2.120   6.516   6.609 -1.9192  1.2042 -1.0867
  581MOL0     H80117   2.272   6.762   6.637 -1.8412 -1.3418  3.0711
  581MOL0     H80118   2.362   6.599   6.646  2.9718  2.6246 -2.0835
  581MOL0     H80119   2.192   6.680   6.413  1.5289  2.8243  0.9383
  581MOL0     H80120   2.302   6.541   6.437 -0.7969 -0.9372  3.2654
  581MOL0     H80121   2.377   6.828   6.424  1.7433 -0.3173  1.2835
  581MOL0     H80122   2.491   6.684   6.446  0.7142  0.5694 -0.5326
  581MOL0     H80123   2.447   6.611   6.214 -0.1108 -0.4182  0.0870
  581MOL0     H80124   2.494   6.779   6.219  1.5319 -2.6710 -0.9116
  581MOL0     H80125   2.316   6.753   6.055  1.7099 -1.4673  0.4652
  581MOL0     H80126   2.213   6.685   6.190 -0.6749  0.5857  0.7384
  581MOL0     H80127   2.060   6.858   6.299  1.4062  0.3771  0.0238
  581MOL0     H80128   2.049   7.202   6.365 -0.3884 -0.9224 -0.3640
  581MOL0     H80129   1.954   7.065   6.368  0.2018 -1.3784 -0.1876
  581MOL0     H80130   1.863   7.249   6.217 -0.7341 -2.3451  1.9450
  581MOL0     H80131   1.994   7.224   6.100 -0.1626  1.7191  0.9561
  581MOL0     H80132   1.802   7.096   6.024  0.8565  1.0384  0.2065
  581MOL0     H80133   1.914   6.978   6.099 -0.0863  0.1009  3.7207
  581MOL0     H80134   1.674   6.939   6.151 -0.3159  0.5389 -0.0735
  581MOL0     H80135   1.775   6.977   6.290  0.4581 -1.1581 -0.5704
  581MOL0     H80136   1.595   6.878   6.356  0.7702  1.1030 -0.6379
  581MOL0     H80137   1.388   6.772   6.623 -2.8968  2.5437 -0.5331
  581MOL0     H80138   1.496   6.712   6.488  0.2288 -0.9276 -0.0257
  581MOL0     H80139   1.325   6.708   6.471  0.8903 -0.6111 -0.4028
  581MOL0     H80140   0.922   7.166   6.513 -0.2793 -0.4671  0.4033
  581MOL0     H80141   0.717   7.137   6.584  0.7087 -1.7465 -2.6235
  581MOL0     H80142   0.513   7.181   6.808 -0.2771  0.0419 -0.6956
  581MOL0     H80143   0.514   7.042   6.696  2.1258  1.6556 -0.4610
  581MOL0     H80144   0.418   6.885   6.853 -0.3643  0.4220  2.9133
  581MOL0     H80145   0.468   6.952   6.988  0.2367 -0.2370 -0.5463
  581MOL0     H80146   0.199   6.968   6.883 -1.3823  1.4548 -2.0954
  581MOL0     H80147   0.269   7.095   6.808 -3.0602 -1.2641 -0.0902
  581MOL0     H80148   0.343   7.193   7.046  2.6530 -1.8035 -0.8236
  581MOL0     H80149   0.239   7.061   7.110  1.8094  2.2879  1.5726
  581MOL0     H80150   0.141   7.293   6.963  0.2728  0.4296  0.4481
  581MOL0     H80151   0.061   7.137   6.955 -2.4940  0.4934  1.9465
  581MOL0     H80152   0.014   7.135   7.190  1.6413  0.1627  1.2935
  581MOL0     H80153  -0.053   7.273   7.112 -1.9088 -1.8962  1.1546
  581MOL0     H80154   0.208   7.301   7.259 -1.5271 -2.1370 -0.2172
  581MOL0     H80155   0.041   7.350   7.325 -0.9588  1.2815 -0.0984
  581MOL0     H80156   0.186   7.485   7.098  0.6642 -0.3052 -0.3549
  581MOL0     H80157   0.177   7.543   7.253  0.1937 -0.1542  0.4784
  581MOL0     H80158   0.864   6.945   6.951  2.0637  0.8197  0.2504
  581MOL0     H80159   1.084   6.965   6.868 -0.7938 -1.5523  1.2706
  581MOL0     H80160   1.292   7.227   6.496 -0.1556  0.9421  0.0946
  581MOL0     H80161   1.454   7.283   6.337  3.7704  0.4569  1.1140
  581MOL0     H80162   1.839   6.887   7.021 -0.6334 -0.4525  2.6805
  581MOL0     H80163   1.638   6.936   7.122 -0.2373  1.1692 -1.0815
  581MOL0     H80164   1.162   6.778   7.213  0.3328  1.0454  0.2510
  581MOL0     H80165   0.973   6.895   7.341 -1.6637 -1.1445 -1.2630
  581MOL0     H80166   0.840   7.013   7.471 -0.7144  0.4761  1.0620
  581MOL0     H80167   0.755   7.160   7.467 -0.1382 -2.3333  3.8788
  581MOL0     H80168   0.638   6.936   7.349 -0.5401  2.0423  1.6162
  581MOL0     H80169   0.742   6.997   7.218  2.1438 -1.0569  0.7865
  581MOL0     H80170   0.631   7.231   7.228  1.6917  0.3096  2.3986
  581MOL0     H80171   0.514   7.101   7.175  0.1344 -3.9272  1.0962
  581MOL0     H80172   0.423   7.266   7.335  0.3030 -0.2848 -2.1221
  581MOL0     H80173   0.556   7.213   7.459  0.4165 -2.1124 -0.2268
  581MOL0     H80174   0.283   6.895   7.468  3.8014 -2.9625 -1.4906
  581MOL0     H80175   1.074   7.267   7.165 -4.5397  0.3677 -1.7504
  581MOL0     H80176   1.194   7.221   6.922 -2.3370  0.2177  0.7819
  581MOL0     H80177   1.253   7.298   7.067  0.9428  0.7545  0.1990
  581MOL0     H80178   1.359   7.182   7.000 -0.1497  1.8925  2.3342
  582MOL0     O80179   1.954   1.275   1.456  0.2385 -0.0859 -0.1168
  582MOL0     C80180   1.892   1.376   1.497  0.0205  0.4319 -0.1326
  582MOL0     O80181   1.928   1.499   1.468  0.2105  0.1814  0.3654
  582MOL0     C80182   2.007   1.526   1.367 -1.1000 -0.6539  1.1591
  582MOL0     C80183   1.980   1.480   1.238 -0.6585 -0.4144 -0.2553
  582MOL0     C80184   2.065   1.519   1.132  0.2899  0.3824 -0.4988
  582MOL0     C80185   2.173   1.603   1.158 -0.8183  0.1055  0.5849
  582MOL0     O80186   2.257   1.639   1.055 -1.1001 -0.6936  0.5993
  582MOL0     C80187   2.228   1.629   0.917  0.5078  0.1911  0.2191
  582MOL0     C80188   2.114   1.729   0.889  0.2706  0.0298  0.6193
  582MOL0     C80189   2.133   1.806   0.761 -0.3276 -0.2573 -0.0113
  582MOL0     C80190   1.997   1.864   0.719  0.3739 -0.0634 -0.2088
  582MOL0     C80191   2.005   1.943   0.583  0.5531 -0.0592 -0.1790
  582MOL0     C80192   1.875   1.974   0.513 -0.0827  0.3595  0.7780
  582MOL0     C80193   1.918   2.041   0.378 -0.4101  0.5224  0.1177
  582MOL0     C80194   1.804   2.102   0.304 -0.0491  0.2342  0.1964
  582MOL0     N80195   1.833   2.120   0.162 -0.3665  0.5790  0.6103
  582MOL0     C80196   1.824   2.028   0.058 -0.2763  0.2496 -0.2161
  582MOL0     C80197   1.859   2.104  -0.052 -0.2003  0.0757  0.2663
  582MOL0     C80198   1.887   2.029  -0.183  0.5470 -0.6962 -0.4526
  582MOL0     C80199   2.002   1.927  -0.176  0.7174 -0.3074 -0.4366
  582MOL0     C80200   2.081   1.941  -0.305 -0.1547 -0.1473  0.2028
  582MOL0     C80201   2.206   1.851  -0.301 -0.1428 -0.3730  0.0864
  582MOL0     O80202   2.286   1.903  -0.192  0.3688 -0.4023 -0.0974
  582MOL0     C80203   2.412   1.945  -0.218  0.3052  0.3385 -0.1259
  582MOL0     C80204   2.497   1.897  -0.320 -0.3711 -1.2846  0.1958
  582MOL0     C80205   2.631   1.949  -0.346  0.7724  0.4396 -0.2226
  582MOL0     C80206   2.698   1.895  -0.467 -1.1541  0.0547 -0.1640
  582MOL0     C80207   2.681   2.044  -0.254 -0.4250 -0.1649  0.5857
  582MOL0     C80208   2.817   2.105  -0.262  0.4746  0.1138 -0.5654
  582MOL0     O80209   2.913   2.032  -0.327 -0.2268  0.5926 -0.3952
  582MOL0     C80210   3.039   2.083  -0.354 -1.0077  0.0335 -0.2513
  582MOL0     C80211   3.109   2.191  -0.293  0.0878 -0.2262  0.4567
  582MOL0     C80212   3.235   2.236  -0.327 -0.7863  0.4543 -0.0814
  582MOL0     C80213   3.306   2.174  -0.431  0.2224  0.2619  0.4319
  582MOL0     O80214   3.425   2.223  -0.471 -0.5216  0.2962 -0.0925
  582MOL0     C80215   3.507   2.330  -0.415 -0.2308 -0.6282  0.7701
  582MOL0     C80216   3.594   2.283  -0.302 -0.3746 -0.0829 -0.2167
  582MOL0     C80217   3.742   2.255  -0.340  0.5535 -0.2054 -0.2881
  582MOL0     C80218   3.818   2.198  -0.223  0.1277  0.1501 -0.2016
  582MOL0     C80219   3.965   2.165  -0.246  0.0504  0.2712  0.0971
  582MOL0     C80220   4.037   2.279  -0.327 -0.5490 -1.4323 -0.3102
  582MOL0     C80221   4.187   2.251  -0.346  0.5960 -0.4162  0.5106
  582MOL0     C80222   4.237   2.339  -0.456  0.0302 -0.3915 -0.6397
  582MOL0    Cl80223   4.182   2.264  -0.611  0.4106  0.2405  0.1695
  582MOL0     C80224   3.239   2.072  -0.505  0.3630 -0.3656 -0.4580
  582MOL0     C80225   3.108   2.027  -0.468 -0.2460 -0.3093 -0.2357
  582MOL0     O80226   2.829   2.214  -0.223  0.0480 -0.4896  0.3203
  582MOL0     C80227   2.595   2.072  -0.141 -0.0912  0.4772 -0.6258
  582MOL0     C80228   2.469   2.027  -0.122  0.9479 -0.4101  0.0175
  582MOL0     N80229   1.866   2.238  -0.020 -0.2361 -0.0034 -0.0849
  582MOL0     N80230   1.857   2.250   0.114  0.1871  1.5451  0.3795
  582MOL0     C80231   2.205   1.637   1.287  0.4651  0.3409  0.0026
  582MOL0     C80232   2.118   1.600   1.394  0.1175 -0.3561 -0.1260
  582MOL0     C80233   1.771   1.375   1.588 -0.3225 -0.3668  0.3048
  582MOL0     C80234   1.719   1.504   1.634  0.0288  0.7561 -0.2147
  582MOL0     C80235   1.605   1.511   1.714 -0.0192  0.0261 -0.3880
  582MOL0     C80236   1.537   1.392   1.753  0.0205  0.3316 -0.4722
  582MOL0     O80237   1.423   1.394   1.815  0.2700  0.9091 -0.9819
  582MOL0     C80238   1.340   1.282   1.833 -1.1475  0.1009 -0.3139
  582MOL0     C80239   1.221   1.309   1.918 -0.4065  0.4649  0.1619
  582MOL0     C80240   1.135   1.434   1.882 -0.6395 -0.7078 -0.0592
  582MOL0     C80241   1.079   1.423   1.743  0.3067  0.1362 -0.4997
  582MOL0     C80242   0.988   1.532   1.714  0.0368 -0.4132 -0.8368
  582MOL0     C80243   0.918   1.629   1.701  0.4309 -0.0881  0.1721
  582MOL0     C80244   1.596   1.272   1.717 -0.7696  0.5777 -0.5377
  582MOL0     C80245   1.714   1.257   1.634 -0.4180 -0.6718 -0.9316
  582MOL0     C80246   1.757   1.116   1.608 -0.6762 -0.9343  0.6154
  582MOL0     H80247   1.897   1.412   1.219 -0.2135 -0.7976 -0.8432
  582MOL0     H80248   2.053   1.473   1.035  0.4580  2.4869 -1.5798
  582MOL0     H80249   2.192   1.527   0.897  0.5359  0.3689 -0.7873
  582MOL0     H80250   2.318   1.646   0.857 -0.2312 -2.7468 -1.9628
  582MOL0     H80251   2.021   1.673   0.889  0.9199 -1.0902 -0.3242
  582MOL0     H80252   2.110   1.801   0.971 -0.8098  0.2851  0.3600
  582MOL0     H80253   2.203   1.886   0.782 -1.5101  1.6212 -2.5881
  582MOL0     H80254   2.170   1.724   0.698  0.9292 -0.5784  1.1119
  582MOL0     H80255   1.928   1.779   0.710 -0.9764  0.9657  0.0572
  582MOL0     H80256   1.961   1.924   0.803 -0.2451 -0.7699  0.0355
  582MOL0     H80257   2.078   1.901   0.514  1.0223 -0.2207  0.4028
  582MOL0     H80258   2.047   2.038   0.616 -0.0333 -0.1029  0.7535
  582MOL0     H80259   1.814   1.884   0.501  1.7895 -1.2069  2.1464
  582MOL0     H80260   1.811   2.047   0.562 -4.1217 -2.3375 -0.0367
  582MOL0     H80261   1.959   1.968   0.307  0.4325  1.7558 -0.7186
  582MOL0     H80262   1.990   2.123   0.389 -2.7162  2.9887 -1.7943
  582MOL0     H80263   1.709   2.053   0.324 -0.9037  0.8592 -2.0148
  582MOL0     H80264   1.781   2.196   0.356 -0.8525 -1.2329  2.6290
  582MOL0     H80265   1.812   1.920   0.055  1.7550 -0.0044 -0.2308
  582MOL0     H80266   1.893   2.103  -0.263 -1.7091 -0.7407 -0.7318
  582MOL0     H80267   1.791   1.978  -0.194 -0.4397  0.4065  2.1427
  582MOL0     H80268   2.065   1.945  -0.089  1.4747  0.5494 -1.1439
  582MOL0     H80269   1.959   1.827  -0.188 -1.9304  0.8671 -1.4502
  582MOL0     H80270   2.015   1.925  -0.390 -1.8627  1.6253  1.1041
  582MOL0     H80271   2.120   2.043  -0.316  0.0540 -0.4175 -1.9900
  582MOL0     H80272   2.168   1.750  -0.285  2.0261 -0.8219  3.2210
  582MOL0     H80273   2.258   1.851  -0.397  0.3919  0.6347  0.3690
  582MOL0     H80274   2.461   1.815  -0.382 -1.0014 -0.4629 -0.5436
  582MOL0     H80275   2.633   1.830  -0.525 -1.7153 -2.7654  3.3007
  582MOL0     H80276   2.788   1.838  -0.445 -1.8990 -1.5971 -1.1946
  582MOL0     H80277   2.716   1.978  -0.537 -2.9552  0.6948  0.0700
  582MOL0     H80278   3.062   2.239  -0.207 -0.3923 -0.8425  0.5374
  582MOL0     H80279   3.272   2.315  -0.263  0.6044 -1.4617  1.6044
  582MOL0     H80280   3.575   2.376  -0.487 -0.0169  1.3338  2.1448
  582MOL0     H80281   3.444   2.410  -0.375  0.3720 -1.2018  3.0094
  582MOL0     H80282   3.594   2.367  -0.232 -1.4833 -0.4756  0.2604
  582MOL0     H80283   3.544   2.205  -0.244  0.8803 -0.7724 -0.0256
  582MOL0     H80284   3.786   2.349  -0.376 -1.9153  0.5728 -1.4958
  582MOL0     H80285   3.741   2.174  -0.413  2.2670 -2.1073  1.6491
  582MOL0     H80286   3.780   2.103  -0.184 -0.9516  1.1779  1.4302
  582MOL0     H80287   3.805   2.271  -0.142 -0.0997 -1.1917  1.0049
  582MOL0     H80288   4.018   2.143  -0.153  1.6658 -0.5245 -0.9858
  582MOL0     H80289   3.975   2.071  -0.300 -2.6030  0.8806 -1.6653
  582MOL0     H80290   4.041   2.362  -0.257  5.1097  0.0853 -1.9215
  582MOL0     H80291   3.981   2.301  -0.418 -3.3651  0.9235  1.8001
  582MOL0     H80292   4.203   2.144  -0.366  0.4040 -0.2357 -0.6764
  582MOL0     H80293   4.232   2.260  -0.247 -0.3908 -2.9207  1.2589
  582MOL0     H80294   4.347   2.342  -0.454  0.0748 -1.2060 -1.3579
  582MOL0     H80295   4.191   2.438  -0.451  0.7700 -0.1086  1.2509
  582MOL0     H80296   3.288   2.031  -0.593 -0.9449  0.3083 -1.5360
  582MOL0     H80297   3.064   1.940  -0.516 -1.1768 -0.8999  1.5915
  582MOL0     H80298   2.633   2.138  -0.064  1.4605 -1.3269  0.2415
  582MOL0     H80299   2.399   2.062  -0.046  0.7023  0.8026 -0.7364
  582MOL0     H80300   2.295   1.694   1.309  0.6003 -0.1759  0.8305
  582MOL0     H80301   2.144   1.641   1.492 -1.5981 -0.8633  0.5768
  582MOL0     H80302   1.768   1.599   1.613  0.7005  0.5955  0.6227
  582MOL0     H80303   1.563   1.601   1.758 -0.1403 -0.7924  1.2731
  582MOL0     H80304   1.299   1.250   1.737 -1.1319 -0.3964 -0.1595
  582MOL0     H80305   1.398   1.200   1.876  2.1686  2.2884 -0.2342
  582MOL0     H80306   1.254   1.351   2.014 -1.2823  2.3175 -0.3039
  582MOL0     H80307   1.151   1.229   1.944 -0.9542  0.5656 -0.9588
  582MOL0     H80308   1.069   1.457   1.966  1.6655 -0.4901  1.7932
  582MOL0     H80309   1.202   1.520   1.878 -2.4311  0.7019 -2.4006
  582MOL0     H80310   1.020   1.332   1.731 -1.4324  1.2203 -0.4079
  582MOL0     H80311   1.158   1.421   1.667  0.2484  1.8455 -0.6268
  582MOL0     H80312   0.844   1.701   1.675 -0.5475 -0.5512  1.5704
  582MOL0     H80313   1.573   1.176   1.761  3.8021  0.7339  2.9576
  582MOL0     H80314   1.704   1.040   1.667 -0.0647 -2.4488 -0.7247
  582MOL0     H80315   1.736   1.106   1.501 -3.3357  3.5760  0.4674
  582MOL0     H80316   1.860   1.099   1.640 -0.0834 -1.8257 -1.6084
  583MOL0     O80317  10.528   8.133   5.462 -0.2430  0.3188 -0.4597
  583MOL0     C80318  10.451   8.131   5.365  0.0853 -0.6207 -0.0141
  583MOL0     O80319  10.459   8.230   5.270 -0.1818  0.0274  0.2484
  583MOL0     C80320  10.581   8.276   5.250  0.0602 -1.0223 -0.3292
  583MOL0     C80321  10.692   8.203   5.206 -1.1837  0.0556 -0.2768
  583MOL0     C80322  10.822   8.258   5.169 -0.5747 -0.0354 -1.0630
  583MOL0     C80323  10.843   8.394   5.176  0.0012 -0.5425 -0.0191
  583MOL0     O80324  10.974   8.440   5.156  0.4675 -0.2100  0.1355
  583MOL0     C80325  11.020   8.545   5.239  0.7390 -0.3790  0.9010
  583MOL0     C80326  11.157   8.565   5.202 -1.0191 -0.3388 -0.7561
  583MOL0     C80327  11.225   8.677   5.274 -0.1968  0.2881 -0.3030
  583MOL0     C80328  11.209   8.696   5.425 -1.0857  0.1057  0.8588
  583MOL0     C80329  11.256   8.840   5.473 -0.5737  0.1557  0.4456
  583MOL0     C80330  11.401   8.867   5.435  0.2571 -0.2733  0.1801
  583MOL0     C80331  11.462   8.981   5.504  1.2416 -0.7919 -0.4510
  583MOL0     C80332  11.598   9.012   5.442 -0.6915  0.1577 -0.4609
  583MOL0     N80333  11.710   8.943   5.517 -0.0847 -0.1637  0.3169
  583MOL0     C80334  11.841   8.935   5.476 -0.3872  0.3015  0.1083
  583MOL0     C80335  11.904   8.861   5.576 -0.8499  0.4427 -0.2279
  583MOL0     C80336  12.050   8.816   5.578  0.0232 -0.0438 -0.8788
  583MOL0     C80337  12.080   8.683   5.516 -0.1316  0.3772 -0.4350
  583MOL0     C80338  12.233   8.633   5.532  0.3321 -1.2658  0.4374
  583MOL0     C80339  12.342   8.713   5.463  0.4307  0.3763 -0.5386
  583MOL0     O80340  12.342   8.670   5.325 -0.2106 -0.0751  0.2854
  583MOL0     C80341  12.459   8.700   5.249  1.0553 -0.8486 -0.2965
  583MOL0     C80342  12.565   8.763   5.302 -0.3927 -1.3518 -0.6002
  583MOL0     C80343  12.672   8.814   5.220  0.4388 -0.3687 -0.1157
  583MOL0     C80344  12.777   8.907   5.278  0.3615 -0.2212  0.1858
  583MOL0     C80345  12.672   8.776   5.079  0.6053 -0.5120  0.1795
  583MOL0     C80346  12.789   8.792   4.982  0.6015  0.5785 -0.3808
  583MOL0     O80347  12.790   8.738   4.864  0.2879  0.1893  1.1059
  583MOL0     C80348  12.894   8.752   4.774 -0.2176  1.1010  0.4113
  583MOL0     C80349  12.902   8.634   4.703 -1.8915 -0.6824  0.6660
  583MOL0     C80350  13.003   8.615   4.606  0.1631 -0.1109 -0.3856
  583MOL0     C80351  13.098   8.709   4.575  0.5330  0.2913  0.1407
  583MOL0     O80352  13.202   8.662   4.489  0.2062  0.3168  0.3568
  583MOL0     C80353  13.308   8.751   4.437  0.2692 -0.5823 -0.5552
  583MOL0     C80354  13.433   8.732   4.524  0.7329  0.4092 -0.0145
  583MOL0     C80355  13.552   8.821   4.473 -0.9098  0.6816  0.1548
  583MOL0     C80356  13.686   8.782   4.536  0.2160  1.1281 -0.4255
  583MOL0     C80357  13.809   8.833   4.459  0.3558  0.3303  0.8152
  583MOL0     C80358  13.941   8.771   4.503 -0.4240  0.7443 -0.5466
  583MOL0     C80359  13.953   8.761   4.663 -0.3250  0.1382  0.9631
  583MOL0     C80360  13.973   8.891   4.730 -0.3359 -0.3308  0.9379
  583MOL0    Cl80361  14.098   9.021   4.664  0.6899 -0.1366  0.2391
  583MOL0     C80362  13.089   8.828   4.652 -0.2077 -0.5369  0.3851
  583MOL0     C80363  12.996   8.848   4.761 -0.1986  0.4250 -0.1032
  583MOL0     O80364  12.876   8.864   5.025  0.0588 -0.0462  0.3618
  583MOL0     C80365  12.564   8.701   5.032  0.2774  0.7263  0.0032
  583MOL0     C80366  12.462   8.659   5.117 -0.5680  0.4443  0.2587
  583MOL0     N80367  11.806   8.828   5.669 -0.3709 -0.0328 -0.4731
  583MOL0     N80368  11.695   8.883   5.636  0.1458  0.3158  0.3931
  583MOL0     C80369  10.731   8.470   5.216  0.7035 -0.1671  0.5600
  583MOL0     C80370  10.607   8.409   5.255  1.0630 -0.3462 -0.7277
  583MOL0     C80371  10.349   8.026   5.363  0.3380 -0.7138  0.4005
  583MOL0     C80372  10.225   8.058   5.318  0.5889 -0.8513  0.2768
  583MOL0     C80373  10.110   7.977   5.321 -0.2720  0.5749  0.7309
  583MOL0     C80374  10.119   7.847   5.379  0.1700  1.0063 -0.8136
  583MOL0     O80375  10.003   7.768   5.391 -0.5277 -0.3940 -0.3139
  583MOL0     C80376   9.877   7.823   5.352  0.1007 -0.8542 -0.3093
  583MOL0     C80377   9.785   7.704   5.342 -0.1511  0.4738  0.3744
  583MOL0     C80378   9.658   7.753   5.261  0.1557 -0.5175 -0.0881
  583MOL0     C80379   9.536   7.650   5.259 -0.0994 -0.3366 -0.0603
  583MOL0     C80380   9.403   7.705   5.212 -0.0179 -0.0977  0.4398
  583MOL0     C80381   9.287   7.726   5.185 -0.2196 -0.2065 -0.1954
  583MOL0     C80382  10.249   7.806   5.427 -0.2312  0.7297 -0.1617
  583MOL0     C80383  10.365   7.894   5.417  0.3275 -0.1215  0.4935
  583MOL0     C80384  10.501   7.842   5.479  0.2887  1.1062  0.0005
  583MOL0     H80385  10.686   8.095   5.201  3.8714 -0.3893 -2.7918
  583MOL0     H80386  10.893   8.178   5.150 -1.1403 -1.3450  1.6893
  583MOL0     H80387  11.024   8.502   5.340 -0.5001  0.7251  1.4537
  583MOL0     H80388  10.953   8.631   5.245  1.6629  0.2533  3.6012
  583MOL0     H80389  11.211   8.474   5.230  0.7050 -0.4346 -3.9672
  583MOL0     H80390  11.159   8.578   5.094 -0.8621 -1.4954 -0.9006
  583MOL0     H80391  11.332   8.678   5.249 -0.9214 -2.8952 -4.9250
  583MOL0     H80392  11.198   8.771   5.226  1.1169  1.5269  1.2639
  583MOL0     H80393  11.107   8.684   5.463  0.1961 -2.5734  3.9072
  583MOL0     H80394  11.264   8.616   5.476 -0.0608 -0.1475 -0.5861
  583MOL0     H80395  11.251   8.857   5.581  3.1349  1.7653  0.4914
  583MOL0     H80396  11.199   8.917   5.421 -3.3401 -3.1365 -1.8014
  583MOL0     H80397  11.451   8.780   5.478  3.0285 -0.4073 -2.8999
  583MOL0     H80398  11.412   8.862   5.327 -0.3819 -1.8208  0.1615
  583MOL0     H80399  11.476   8.965   5.611 -2.3308 -4.2151 -0.2444
  583MOL0     H80400  11.407   9.075   5.492  1.2267 -0.5176  1.4783
  583MOL0     H80401  11.596   8.990   5.335  0.3016 -1.5716 -0.1722
  583MOL0     H80402  11.622   9.117   5.460 -2.2398  0.6956 -1.3112
  583MOL0     H80403  11.878   8.962   5.378  1.9330  0.1016  0.8471
  583MOL0     H80404  12.085   8.812   5.682  0.5041 -3.1458 -1.0652
  583MOL0     H80405  12.109   8.892   5.527  0.7394 -0.4473 -0.6713
  583MOL0     H80406  12.013   8.609   5.559 -0.7862  0.2879 -1.5517
  583MOL0     H80407  12.067   8.696   5.408  1.7518  1.7939 -0.5430
  583MOL0     H80408  12.253   8.630   5.640  0.2446  1.4549  0.6131
  583MOL0     H80409  12.237   8.531   5.495  3.6700 -1.6359  1.4662
  583MOL0     H80410  12.315   8.819   5.471  2.1306  0.7367  1.2966
  583MOL0     H80411  12.431   8.679   5.517  0.4427  0.3324 -0.5864
  583MOL0     H80412  12.577   8.786   5.407  0.3344 -4.2799  0.0566
  583MOL0     H80413  12.870   8.850   5.293  0.4581  0.1663  1.1339
  583MOL0     H80414  12.745   8.950   5.373 -1.8539 -0.8485 -0.2354
  583MOL0     H80415  12.796   8.990   5.210  0.3124  1.2111  1.8594
  583MOL0     H80416  12.828   8.556   4.718 -1.7849 -0.8962  0.0907
  583MOL0     H80417  13.015   8.515   4.565  0.0363 -0.7672  1.1330
  583MOL0     H80418  13.337   8.728   4.333  2.0354 -1.6924  0.1176
  583MOL0     H80419  13.265   8.851   4.442  0.1226 -0.6937  3.1369
  583MOL0     H80420  13.404   8.751   4.627  2.8814  2.0312  0.3480
  583MOL0     H80421  13.457   8.625   4.525 -0.9417 -0.0590 -2.1426
  583MOL0     H80422  13.526   8.922   4.504 -1.3911  0.4444  0.5274
  583MOL0     H80423  13.558   8.815   4.364 -0.6341 -2.3728  0.2405
  583MOL0     H80424  13.685   8.672   4.530 -1.4738  0.9833  1.4265
  583MOL0     H80425  13.684   8.814   4.640 -1.4850 -3.2718  1.1345
  583MOL0     H80426  13.793   8.822   4.352 -1.8282 -0.0590  1.1390
  583MOL0     H80427  13.800   8.940   4.479 -0.4861  0.4086  0.0443
  583MOL0     H80428  14.025   8.832   4.468  0.0783 -0.3141 -1.2270
  583MOL0     H80429  13.957   8.676   4.452  4.9976  2.8910 -3.6356
  583MOL0     H80430  14.046   8.708   4.686 -1.6902 -1.9804  1.9295
  583MOL0     H80431  13.883   8.699   4.720  1.0077 -0.1716  2.3363
  583MOL0     H80432  13.992   8.871   4.836  1.8731 -1.4158  0.3930
  583MOL0     H80433  13.876   8.941   4.728  1.1041  2.7621  2.3226
  583MOL0     H80434  13.159   8.904   4.619  3.5431 -3.7427  0.1460
  583MOL0     H80435  12.996   8.944   4.811  1.1245  0.0730  0.6017
  583MOL0     H80436  12.553   8.661   4.931 -1.1688 -1.7498  1.0509
  583MOL0     H80437  12.376   8.604   5.081  0.1393 -2.1492  2.2193
  583MOL0     H80438  10.745   8.576   5.234  4.3036 -0.6194  1.0474
  583MOL0     H80439  10.523   8.471   5.284  1.2929  0.5677 -1.9368
  583MOL0     H80440  10.203   8.156   5.276 -1.2522 -2.4532 -2.8172
  583MOL0     H80441  10.021   8.021   5.277 -1.1322  1.3230  3.0981
  583MOL0     H80442   9.846   7.888   5.434 -2.7252 -1.3238 -0.9100
  583MOL0     H80443   9.884   7.867   5.252  4.4037 -1.1586 -0.3603
  583MOL0     H80444   9.771   7.665   5.443  1.2524 -0.4488  0.2327
  583MOL0     H80445   9.835   7.627   5.283 -1.0459 -1.6596  2.2984
  583MOL0     H80446   9.627   7.848   5.306 -0.2369 -0.9015  0.4728
  583MOL0     H80447   9.679   7.770   5.155 -0.6364  1.1629 -0.0080
  583MOL0     H80448   9.528   7.598   5.355  3.3254 -0.2930  0.3724
  583MOL0     H80449   9.559   7.567   5.190  1.2250  0.2081 -0.2982
  583MOL0     H80450   9.181   7.742   5.172  0.0130  0.5086 -1.3239
  583MOL0     H80451  10.265   7.709   5.474 -0.7304  1.5998  1.8986
  583MOL0     H80452  10.587   7.860   5.414 -2.3333  2.5066 -3.4174
  583MOL0     H80453  10.511   7.898   5.573 -0.7540  0.3974  0.5490
  583MOL0     H80454  10.505   7.736   5.502  0.3919  1.2197  0.5246
  584MOL0     O80455   8.518   3.142   7.553 -0.4102  0.2699  0.3630
  584MOL0     C80456   8.570   3.107   7.661  0.5151 -0.5057  0.9474
  584MOL0     O80457   8.706   3.108   7.681 -0.3697  0.4553 -0.2781
  584MOL0     C80458   8.787   3.158   7.580 -0.4087  0.2984  0.4371
  584MOL0     C80459   8.799   3.094   7.452 -0.7864 -0.7800 -0.6821
  584MOL0     C80460   8.886   3.156   7.357  0.4840 -0.3656  0.2452
  584MOL0     C80461   8.953   3.271   7.379  0.0907 -0.3340 -0.2758
  584MOL0     O80462   9.027   3.315   7.265 -0.5518 -0.4694 -0.9328
  584MOL0     C80463   9.167   3.355   7.292  0.3670 -0.0335 -0.2477
  584MOL0     C80464   9.263   3.251   7.243  0.5162  0.6024 -0.0089
  584MOL0     C80465   9.409   3.288   7.282 -0.4400  0.1497  0.0180
  584MOL0     C80466   9.490   3.346   7.165  0.2410 -0.3122  0.6604
  584MOL0     C80467   9.644   3.336   7.204  1.1950  0.2765  0.5622
  584MOL0     C80468   9.712   3.367   7.071 -0.1490 -0.9258  0.0585
  584MOL0     C80469   9.863   3.385   7.095  0.6184 -0.4159  0.2166
  584MOL0     C80470   9.948   3.295   7.000  1.2639  0.0251  0.3844
  584MOL0     N80471  10.095   3.312   6.994  0.4542  0.0531 -0.0009
  584MOL0     C80472  10.154   3.417   6.932 -1.0671  1.1821  0.2941
  584MOL0     C80473  10.284   3.382   6.916 -0.4894 -0.3579  0.2480
  584MOL0     C80474  10.389   3.459   6.845 -0.2010 -0.2454 -0.1062
  584MOL0     C80475  10.433   3.591   6.913  0.4312 -0.3835  0.6963
  584MOL0     C80476  10.492   3.563   7.051  0.0009 -0.6486  0.3036
  584MOL0     C80477  10.581   3.674   7.104 -0.0881  0.2357  0.1303
  584MOL0     O80478  10.691   3.697   7.013 -0.0541  0.5122 -0.4075
  584MOL0     C80479  10.821   3.715   7.052  0.1538 -0.9798  0.6964
  584MOL0     C80480  10.858   3.739   7.183 -0.1412 -0.0843 -0.1892
  584MOL0     C80481  10.995   3.735   7.224  0.1853 -0.0274  0.2981
  584MOL0     C80482  11.026   3.781   7.372  0.4725 -0.3980  0.2040
  584MOL0     C80483  11.092   3.710   7.121 -0.1833 -0.3075  0.4410
  584MOL0     C80484  11.234   3.720   7.153  0.3202 -0.3372 -0.8181
  584MOL0     O80485  11.280   3.707   7.280 -0.3143 -0.5615 -0.3027
  584MOL0     C80486  11.411   3.696   7.293 -0.9109  0.7051 -0.9676
  584MOL0     C80487  11.470   3.568   7.289  0.0280 -0.1481  0.3669
  584MOL0     C80488  11.608   3.554   7.314 -0.0518 -0.6457  0.8871
  584MOL0     C80489  11.683   3.671   7.356 -0.0196  0.2404  0.8848
  584MOL0     O80490  11.812   3.646   7.383  0.5283  0.7825 -0.6628
  584MOL0     C80491  11.894   3.753   7.425  0.0036  0.6187  0.5834
  584MOL0     C80492  11.896   3.768   7.578  0.5775 -0.3235  0.0229
  584MOL0     C80493  11.957   3.901   7.618  0.7259  1.4056 -0.0207
  584MOL0     C80494  11.852   4.011   7.612 -0.0973 -0.0457  0.0564
  584MOL0     C80495  11.888   4.132   7.701 -0.2839 -0.6349  0.0655
  584MOL0     C80496  12.044   4.183   7.672  0.3452 -0.1072  0.2501
  584MOL0     C80497  12.081   4.223   7.530  0.3969  0.1747 -0.4497
  584MOL0     C80498  11.985   4.338   7.480 -0.5304  0.0702 -0.3044
  584MOL0    Cl80499  12.063   4.418   7.336 -0.4078  0.8008 -0.1735
  584MOL0     C80500  11.614   3.796   7.368  0.0469 -0.1155 -1.3651
  584MOL0     C80501  11.484   3.808   7.323  1.2540 -0.6685 -0.2727
  584MOL0     O80502  11.307   3.746   7.066 -0.2942  0.0649  0.5335
  584MOL0     C80503  11.051   3.682   6.991  0.4437  0.1709 -1.1952
  584MOL0     C80504  10.917   3.690   6.959  0.1462 -0.6719  0.6086
  584MOL0     N80505  10.295   3.255   6.971  0.1930 -0.2213 -0.1659
  584MOL0     N80506  10.185   3.217   7.031  0.5088 -0.3340  0.2621
  584MOL0     C80507   8.933   3.343   7.500 -0.1597 -0.8320  0.2350
  584MOL0     C80508   8.851   3.277   7.598  0.1469 -0.0769  0.7310
  584MOL0     C80509   8.486   3.029   7.754  0.6236  0.3934 -0.7341
  584MOL0     C80510   8.556   2.945   7.846  0.2251 -0.4299 -0.1312
  584MOL0     C80511   8.486   2.843   7.914 -1.6888  0.1434  0.4194
  584MOL0     C80512   8.352   2.840   7.926 -0.3427  0.4939 -0.0483
  584MOL0     O80513   8.297   2.746   8.007 -0.6689  0.1387  0.4287
  584MOL0     C80514   8.295   2.608   7.965  0.6524  0.5923  0.0955
  584MOL0     C80515   8.199   2.586   7.843 -0.1040  0.3650 -0.5115
  584MOL0     C80516   8.056   2.631   7.870  0.4176  0.6386  1.1229
  584MOL0     C80517   7.971   2.607   7.748 -0.2210  0.6326  0.4428
  584MOL0     C80518   7.959   2.727   7.656  0.0477 -1.3063 -0.6241
  584MOL0     C80519   7.947   2.825   7.572  0.3158  0.3897 -0.1329
  584MOL0     C80520   8.279   2.924   7.840 -0.6757  0.8241  0.2430
  584MOL0     C80521   8.340   3.015   7.752 -0.2357 -0.0128  0.2063
  584MOL0     C80522   8.241   3.103   7.665 -0.8081 -0.0160 -0.6820
  584MOL0     H80523   8.758   2.994   7.447  1.8352 -2.1489  2.0241
  584MOL0     H80524   8.894   3.113   7.258  0.2482  0.4013 -0.1098
  584MOL0     H80525   9.169   3.362   7.401 -2.3268  0.4913 -0.1594
  584MOL0     H80526   9.185   3.454   7.250  0.3123 -0.4461 -1.2680
  584MOL0     H80527   9.255   3.159   7.301  3.3935 -0.2944 -0.8426
  584MOL0     H80528   9.244   3.214   7.142 -2.3432 -2.9386  1.6143
  584MOL0     H80529   9.404   3.357   7.367 -0.8269 -0.1621  0.2522
  584MOL0     H80530   9.456   3.196   7.317 -2.6061 -0.8838  0.3662
  584MOL0     H80531   9.473   3.285   7.076  1.6678  0.5702 -0.2489
  584MOL0     H80532   9.458   3.444   7.129 -1.7207 -1.9777 -2.6235
  584MOL0     H80533   9.676   3.235   7.232  0.2088 -0.1201  0.3040
  584MOL0     H80534   9.688   3.402   7.279  0.2251  0.9579  0.5449
  584MOL0     H80535   9.678   3.294   6.996 -3.6441  0.8936 -0.3688
  584MOL0     H80536   9.669   3.462   7.038 -1.6559 -0.7779  2.2136
  584MOL0     H80537   9.888   3.364   7.200  1.1287 -2.0826 -0.2040
  584MOL0     H80538   9.882   3.490   7.071 -0.7813 -0.1521  0.2283
  584MOL0     H80539   9.911   3.195   7.026 -2.3238  1.4412  1.3338
  584MOL0     H80540   9.924   3.321   6.897  1.6075 -0.3719  0.2000
  584MOL0     H80541  10.117   3.512   6.894  4.1700  3.4485 -0.0419
  584MOL0     H80542  10.359   3.494   6.746  1.0115  1.6549  0.1558
  584MOL0     H80543  10.482   3.403   6.833  0.0123 -0.0497  0.6549
  584MOL0     H80544  10.503   3.653   6.856 -0.5327  0.6323  0.5812
  584MOL0     H80545  10.338   3.644   6.921 -0.1940 -1.0985 -1.5393
  584MOL0     H80546  10.403   3.559   7.116 -2.0671  2.8525 -1.9998
  584MOL0     H80547  10.557   3.475   7.050  0.7116 -0.1228 -0.1032
  584MOL0     H80548  10.520   3.764   7.107 -0.4636  0.0332 -0.8259
  584MOL0     H80549  10.620   3.645   7.202 -1.8981  0.9862  1.1119
  584MOL0     H80550  10.785   3.746   7.263 -1.3863 -2.3971 -1.0450
  584MOL0     H80551  11.057   3.689   7.422 -3.9459 -2.2594 -0.0446
  584MOL0     H80552  10.943   3.818   7.433  2.1435  0.9960  1.7114
  584MOL0     H80553  11.107   3.854   7.377 -1.0625  1.6179 -1.8665
  584MOL0     H80554  11.420   3.477   7.259  2.5841 -1.6243  0.2253
  584MOL0     H80555  11.642   3.451   7.309 -0.9968 -0.8905 -1.1291
  584MOL0     H80556  11.995   3.740   7.386  0.0053 -1.1597  1.0965
  584MOL0     H80557  11.849   3.847   7.391 -4.0802 -0.5462  2.1333
  584MOL0     H80558  11.797   3.747   7.620  1.1010 -2.8758  0.1600
  584MOL0     H80559  11.951   3.681   7.616 -1.1113 -1.0557  0.9160
  584MOL0     H80560  12.041   3.921   7.549  1.4534  0.5006  0.5796
  584MOL0     H80561  12.003   3.888   7.716  1.3659 -1.0312 -0.5807
  584MOL0     H80562  11.755   3.981   7.653 -0.4678  0.2901 -0.5560
  584MOL0     H80563  11.831   4.039   7.508  2.8123  0.9249 -0.3715
  584MOL0     H80564  11.819   4.215   7.687 -0.3113 -0.5294  0.8020
  584MOL0     H80565  11.874   4.117   7.808 -3.0425  1.1525  0.0723
  584MOL0     H80566  12.110   4.101   7.702 -2.4749 -1.9432  1.9601
  584MOL0     H80567  12.075   4.262   7.741  0.4569  0.7754 -0.7966
  584MOL0     H80568  12.075   4.134   7.466  0.4199  0.8963 -1.4786
  584MOL0     H80569  12.187   4.249   7.521  0.6598 -0.0576  1.5112
  584MOL0     H80570  11.953   4.410   7.555 -0.2063 -1.5479  1.4694
  584MOL0     H80571  11.898   4.287   7.438  1.2690 -1.8460 -1.9241
  584MOL0     H80572  11.653   3.890   7.405 -2.9120  0.2230  1.3595
  584MOL0     H80573  11.439   3.906   7.321  0.4316 -1.0231  0.3453
  584MOL0     H80574  11.124   3.648   6.918  4.0688 -0.7693  2.4896
  584MOL0     H80575  10.883   3.664   6.859  0.6319 -2.5747  0.8977
  584MOL0     H80576   8.984   3.437   7.519 -0.6372 -0.3762 -0.6612
  584MOL0     H80577   8.848   3.338   7.688  4.0476  1.9359 -0.2950
  584MOL0     H80578   8.664   2.938   7.843  0.2694 -0.3956  0.9000
  584MOL0     H80579   8.545   2.767   7.963  0.7985  1.8332  0.2252
  584MOL0     H80580   8.393   2.566   7.941 -1.1599 -3.5705 -0.8690
  584MOL0     H80581   8.256   2.544   8.044  0.0322 -0.0508 -0.7117
  584MOL0     H80582   8.205   2.479   7.822 -0.1916  0.3589 -0.5084
  584MOL0     H80583   8.246   2.639   7.760  2.3137  0.9422  1.1382
  584MOL0     H80584   8.012   2.570   7.950 -0.8780  1.7385  1.2876
  584MOL0     H80585   8.038   2.735   7.898 -4.4608  0.3009  0.2309
  584MOL0     H80586   7.868   2.589   7.777 -0.7951  1.5445 -0.9142
  584MOL0     H80587   7.999   2.518   7.690 -1.6532  0.9651 -0.8179
  584MOL0     H80588   7.946   2.909   7.505  0.2607 -0.5643 -1.3547
  584MOL0     H80589   8.171   2.928   7.832 -0.5490  0.5116 -2.3008
  584MOL0     H80590   8.277   3.206   7.663 -2.6105  0.6559 -0.7888
  584MOL0     H80591   8.218   3.074   7.562  0.9170  0.8577 -1.3572
  584MOL0     H80592   8.140   3.106   7.707 -0.1055 -1.0538  1.1548
  585MOL0     O80593   0.345   9.715   5.317 -0.3805  0.0246  0.4035
  585MOL0     C80594   0.267   9.631   5.287  0.2282  0.3911  0.3165
  585MOL0     O80595   0.133   9.645   5.271  0.1193 -0.6671  0.1277
  585MOL0     C80596   0.061   9.757   5.306 -1.7134 -0.2197  0.1376
  585MOL0     C80597   0.072   9.808   5.437 -0.7961 -0.5028  0.3719
  585MOL0     C80598  -0.015   9.909   5.474  0.4666  0.2416  0.5153
  585MOL0     C80599  -0.119   9.954   5.393  0.0345  0.0615  0.2576
  585MOL0     O80600  -0.224  10.031   5.435  0.0347  0.0200  0.1951
  585MOL0     C80601  -0.225  10.068   5.575 -0.1130 -0.3956 -0.7843
  585MOL0     C80602  -0.352  10.150   5.613  0.4417  0.9258 -0.0045
  585MOL0     C80603  -0.374  10.262   5.511 -0.4066 -0.5436  0.6173
  585MOL0     C80604  -0.469  10.368   5.571 -0.1632  0.6329 -0.1638
  585MOL0     C80605  -0.498  10.485   5.477  0.4047  0.1311 -0.3754
  585MOL0     C80606  -0.557  10.593   5.552 -0.6028  0.1326 -0.1016
  585MOL0     C80607  -0.621  10.700   5.455  0.5130 -0.7808 -0.9773
  585MOL0     C80608  -0.666  10.821   5.549 -0.3037 -0.8383  0.0375
  585MOL0     N80609  -0.788  10.819   5.640 -0.0068  0.1862  0.4894
  585MOL0     C80610  -0.914  10.767   5.603 -0.0834 -0.7053 -0.8998
  585MOL0     C80611  -0.973  10.781   5.725  0.7795 -0.1371 -1.0997
  585MOL0     C80612  -1.118  10.751   5.762 -0.6445 -0.3714  0.1847
  585MOL0     C80613  -1.150  10.605   5.791 -0.5304 -0.2388  0.2557
  585MOL0     C80614  -1.105  10.582   5.936  0.2272  0.1923  1.5598
  585MOL0     C80615  -1.101  10.431   5.950 -0.6728 -0.6418 -0.7887
  585MOL0     O80616  -1.029  10.406   6.083 -0.3669  0.3420 -0.0472
  585MOL0     C80617  -0.896  10.420   6.103 -0.3166  0.5383 -1.2287
  585MOL0     C80618  -0.805  10.470   6.012  0.3023  0.0409 -0.0694
  585MOL0     C80619  -0.667  10.485   6.043 -0.1986  0.0522  0.1743
  585MOL0     C80620  -0.583  10.550   5.939  0.2798  0.6525  0.7523
  585MOL0     C80621  -0.618  10.425   6.159 -0.1609  1.0860 -0.5672
  585MOL0     C80622  -0.480  10.440   6.203 -0.5574 -0.0831 -0.7207
  585MOL0     O80623  -0.435  10.567   6.193 -0.1975 -0.7401 -0.3529
  585MOL0     C80624  -0.293  10.582   6.194  0.3019  0.5227 -0.2362
  585MOL0     C80625  -0.203  10.481   6.141  0.3533  0.4213  0.5224
  585MOL0     C80626  -0.067  10.499   6.147  0.2886 -0.2285 -0.1680
  585MOL0     C80627  -0.012  10.612   6.212 -0.3879 -0.0786  0.3729
  585MOL0     O80628   0.128  10.610   6.209 -0.3544 -0.8054 -0.4583
  585MOL0     C80629   0.191  10.747   6.216  0.3969 -0.3310  0.8158
  585MOL0     C80630   0.340  10.736   6.192 -0.1575 -0.1778 -0.7188
  585MOL0     C80631   0.371  10.735   6.041 -0.4021 -0.0215  0.3983
  585MOL0     C80632   0.522  10.735   6.017 -0.1278 -0.5372  0.0156
  585MOL0     C80633   0.553  10.735   5.864  0.6671 -0.6412 -0.3851
  585MOL0     C80634   0.535  10.883   5.813  0.0835 -0.2975 -0.1083
  585MOL0     C80635   0.610  10.896   5.685 -0.5665  0.1567 -0.3013
  585MOL0     C80636   0.572  11.024   5.614 -0.5680  0.7159 -1.1807
  585MOL0    Cl80637   0.618  11.174   5.705  0.0411 -0.1087 -0.4402
  585MOL0     C80638  -0.098  10.714   6.257  0.3857 -0.6200  0.0198
  585MOL0     C80639  -0.237  10.690   6.258 -0.5701  0.3385  0.8074
  585MOL0     O80640  -0.428  10.356   6.277  0.0473  0.4980 -0.1585
  585MOL0     C80641  -0.711  10.360   6.240 -0.1071  0.6549  0.1847
  585MOL0     C80642  -0.845  10.366   6.221 -0.2077 -1.3018  0.2002
  585MOL0     N80643  -0.884  10.823   5.825 -0.1604  0.9934  0.0085
  585MOL0     N80644  -0.773  10.849   5.769  0.3697 -0.3248 -0.1450
  585MOL0     C80645  -0.117   9.915   5.256  0.1002  0.3819 -0.4960
  585MOL0     C80646  -0.030   9.810   5.216 -0.3567  0.2733 -0.1510
  585MOL0     C80647   0.322   9.498   5.259 -0.6606 -0.6003 -0.5949
  585MOL0     C80648   0.266   9.422   5.165  0.1602  0.2377  0.3347
  585MOL0     C80649   0.318   9.294   5.138 -0.4546  0.4869  0.3087
  585MOL0     C80650   0.431   9.244   5.202  0.0525 -0.9115 -0.3523
  585MOL0     O80651   0.480   9.121   5.171 -0.6230 -0.3492  0.0043
  585MOL0     C80652   0.624   9.114   5.145  0.6708  0.1662 -0.3840
  585MOL0     C80653   0.703   9.019   5.228 -0.8287  0.1358 -0.6836
  585MOL0     C80654   0.851   9.049   5.212 -0.1572  0.2289 -0.5865
  585MOL0     C80655   0.899   9.150   5.313  0.3779 -0.4186 -0.2817
  585MOL0     C80656   1.043   9.185   5.290  0.0131  0.3822 -1.2940
  585MOL0     C80657   1.153   9.225   5.271 -0.4119 -0.0560 -1.1533
  585MOL0     C80658   0.484   9.322   5.310 -0.6205 -0.5121 -0.6084
  585MOL0     C80659   0.426   9.445   5.337 -1.2553 -0.0075  0.2664
  585MOL0     C80660   0.500   9.520   5.453  0.7184  0.2820  0.5921
  585MOL0     H80661   0.154   9.773   5.499  0.8100  2.5680  0.1675
  585MOL0     H80662  -0.011   9.925   5.581 -0.4129 -2.3921  0.9950
  585MOL0     H80663  -0.142  10.139   5.581 -0.3400 -0.0854 -1.3254
  585MOL0     H80664  -0.216   9.977   5.635  0.5175 -0.2410 -0.6366
  585MOL0     H80665  -0.438  10.086   5.630  1.0633  0.0690 -0.0020
  585MOL0     H80666  -0.316  10.194   5.707  0.7737 -1.5246  1.0744
  585MOL0     H80667  -0.277  10.302   5.479  0.2049 -3.5156 -1.7542
  585MOL0     H80668  -0.423  10.222   5.422  1.3154  0.8604 -1.0655
  585MOL0     H80669  -0.566  10.325   5.599  0.8665 -0.8646  1.2880
  585MOL0     H80670  -0.414  10.406   5.658  1.3328  0.7941 -1.1473
  585MOL0     H80671  -0.559  10.457   5.391  2.1158  0.5780 -1.8113
  585MOL0     H80672  -0.402  10.523   5.440 -1.2201  3.4508 -1.6819
  585MOL0     H80673  -0.621  10.556   5.633  0.0070 -1.6456 -0.3887
  585MOL0     H80674  -0.474  10.642   5.604  1.5943 -0.2604 -2.9924
  585MOL0     H80675  -0.710  10.662   5.404  0.3060 -1.4467 -0.1463
  585MOL0     H80676  -0.548  10.734   5.381 -1.5476  2.4467 -1.7478
  585MOL0     H80677  -0.587  10.861   5.614 -0.2976  2.1433 -1.5765
  585MOL0     H80678  -0.684  10.913   5.492  0.6918  0.7584  2.1474
  585MOL0     H80679  -0.953  10.734   5.507  0.4854 -0.7589 -1.1109
  585MOL0     H80680  -1.170  10.790   5.674  0.2846 -1.3979 -0.8678
  585MOL0     H80681  -1.155  10.818   5.840 -0.2759 -1.4517  1.3113
  585MOL0     H80682  -1.258  10.591   5.788 -0.9118 -0.3352  5.4660
  585MOL0     H80683  -1.099  10.540   5.718 -1.8051 -1.3463  0.3217
  585MOL0     H80684  -1.012  10.633   5.962 -0.7687  0.9504  3.9067
  585MOL0     H80685  -1.180  10.624   6.004  0.9864  2.1942  1.2317
  585MOL0     H80686  -1.198  10.381   5.954 -0.7176 -0.4417  1.3754
  585MOL0     H80687  -1.047  10.385   5.866 -2.3844 -2.0297 -1.2069
  585MOL0     H80688  -0.847  10.511   5.920 -0.9032  1.5936  1.1123
  585MOL0     H80689  -0.631  10.519   5.845 -0.8234 -1.0834  1.8080
  585MOL0     H80690  -0.486  10.501   5.938  1.2379  2.4112  2.3229
  585MOL0     H80691  -0.575  10.658   5.944 -1.8980  1.0138 -1.2325
  585MOL0     H80692  -0.237  10.390   6.092  2.6021 -1.4908  2.3059
  585MOL0     H80693  -0.002  10.417   6.115  2.5071  0.8208  1.3946
  585MOL0     H80694   0.159  10.802   6.127  1.7975  1.0621  1.1434
  585MOL0     H80695   0.156  10.794   6.308 -3.2988 -3.1304  1.1007
  585MOL0     H80696   0.387  10.820   6.245 -0.9589 -0.3254  0.2419
  585MOL0     H80697   0.376  10.645   6.240  1.2875 -0.7404 -2.6975
  585MOL0     H80698   0.330  10.820   5.986 -1.7072 -1.8998 -1.7116
  585MOL0     H80699   0.334  10.648   5.986  0.4366  0.5769 -1.1855
  585MOL0     H80700   0.566  10.650   6.069 -0.0695 -0.5125  0.0066
  585MOL0     H80701   0.562  10.826   6.063  2.8535 -0.3573 -2.5921
  585MOL0     H80702   0.660  10.712   5.856  1.7251  2.7231  1.8477
  585MOL0     H80703   0.506  10.661   5.799 -0.7227  0.4406 -0.6716
  585MOL0     H80704   0.574  10.963   5.876  1.1384 -0.0337 -1.0728
  585MOL0     H80705   0.429  10.905   5.796  0.6973  0.4353 -4.1369
  585MOL0     H80706   0.590  10.810   5.621 -0.3325 -1.2101  1.3909
  585MOL0     H80707   0.718  10.896   5.700 -0.5291 -2.9680 -0.0446
  585MOL0     H80708   0.467  11.021   5.586 -1.9467  0.3719  3.3182
  585MOL0     H80709   0.641  11.028   5.529  0.8923  0.9620 -0.0325
  585MOL0     H80710  -0.065  10.795   6.321  0.0307 -0.9226  0.5878
  585MOL0     H80711  -0.299  10.767   6.302 -0.3796 -0.5771  2.7825
  585MOL0     H80712  -0.685  10.316   6.335 -2.1958  1.1319  1.0229
  585MOL0     H80713  -0.927  10.330   6.281 -1.8422 -0.4590 -1.4138
  585MOL0     H80714  -0.192   9.958   5.190 -0.0927  1.0521  0.1373
  585MOL0     H80715  -0.036   9.770   5.115  1.0095 -0.1029 -0.1014
  585MOL0     H80716   0.178   9.457   5.111 -0.3542 -1.7242 -0.1767
  585MOL0     H80717   0.283   9.237   5.053 -1.1712 -1.0507  1.5791
  585MOL0     H80718   0.630   9.085   5.040  0.0141 -0.1711 -0.3328
  585MOL0     H80719   0.668   9.214   5.155  0.9849 -0.0365  0.3044
  585MOL0     H80720   0.686   8.915   5.198 -0.1655 -0.0885 -0.3033
  585MOL0     H80721   0.684   9.024   5.336  1.3387 -1.2944 -0.1538
  585MOL0     H80722   0.909   8.958   5.231 -3.7638 -2.6434 -2.1253
  585MOL0     H80723   0.867   9.078   5.107 -1.3251 -1.9289 -1.4317
  585MOL0     H80724   0.881   9.102   5.409 -5.1833  0.7744 -0.3466
  585MOL0     H80725   0.845   9.245   5.319  0.1755 -0.6204  1.4105
  585MOL0     H80726   1.256   9.255   5.270  0.2773 -1.8752  1.6368
  585MOL0     H80727   0.571   9.287   5.364  1.2306  2.3559 -1.5336
  585MOL0     H80728   0.437   9.590   5.507 -1.6926  0.4707 -2.1877
  585MOL0     H80729   0.556   9.455   5.521  2.3745  0.2429 -0.7326
  585MOL0     H80730   0.577   9.585   5.411  2.1707 -1.4152  0.4898
  586MOL0     O80731   8.021   6.127   8.263  1.5373  0.6182  0.0921
  586MOL0     C80732   7.921   6.052   8.248  0.1442  0.2083  0.8194
  586MOL0     O80733   7.914   5.923   8.265  0.2702 -0.0949 -0.0972
  586MOL0     C80734   8.024   5.854   8.323 -0.2741 -0.0572  0.0079
  586MOL0     C80735   8.051   5.851   8.455  0.0737 -0.2299 -0.7495
  586MOL0     C80736   8.160   5.776   8.514 -0.8207  0.1423  0.2423
  586MOL0     C80737   8.239   5.701   8.423 -0.5708  0.4551 -0.1016
  586MOL0     O80738   8.358   5.642   8.456  0.0959  0.0992 -0.5543
  586MOL0     C80739   8.456   5.734   8.505 -0.9852  0.5628  0.6555
  586MOL0     C80740   8.581   5.652   8.540  0.6058  0.2539 -0.1746
  586MOL0     C80741   8.713   5.700   8.474 -0.2840 -0.5439 -0.2178
  586MOL0     C80742   8.747   5.843   8.511  0.5367  0.7059 -0.3781
  586MOL0     C80743   8.868   5.903   8.434  0.4795 -0.2283 -0.0495
  586MOL0     C80744   9.001   5.860   8.482  0.9447 -0.3025 -0.3313
  586MOL0     C80745   9.124   5.936   8.424  0.2865 -0.1564  1.3246
  586MOL0     C80746   9.150   5.890   8.274  1.2671  0.3293  0.2158
  586MOL0     N80747   9.265   5.948   8.205  0.4796  1.0555  0.0779
  586MOL0     C80748   9.365   6.023   8.264  0.8407  0.3353 -0.0628
  586MOL0     C80749   9.450   6.041   8.155 -0.3348 -0.8264  0.6139
  586MOL0     C80750   9.588   6.109   8.153  0.4475  0.4934  0.1573
  586MOL0     C80751   9.631   6.160   8.010  0.4613 -0.7288  0.0912
  586MOL0     C80752   9.556   6.277   7.951 -0.1702 -0.4185 -0.5062
  586MOL0     C80753   9.603   6.309   7.810  0.0213  0.4227 -0.1355
  586MOL0     O80754   9.748   6.310   7.798  0.8939 -0.1452  0.2628
  586MOL0     C80755   9.798   6.320   7.672 -0.0791  0.3018 -0.7102
  586MOL0     C80756   9.733   6.380   7.568 -0.2083  0.9101  0.0927
  586MOL0     C80757   9.798   6.408   7.446  0.6028  0.1891 -0.6351
  586MOL0     C80758   9.711   6.453   7.329 -0.4179  0.6048  0.0829
  586MOL0     C80759   9.938   6.381   7.436 -0.6831  0.6098  0.7281
  586MOL0     C80760  10.030   6.408   7.322  0.7455  0.7854  0.9723
  586MOL0     O80761   9.972   6.453   7.203 -0.3231 -0.0030 -0.1034
  586MOL0     C80762  10.049   6.452   7.091 -0.4946 -0.4518  0.7053
  586MOL0     C80763  10.137   6.560   7.068 -0.5261  0.2538 -0.3917
  586MOL0     C80764  10.221   6.560   6.954  0.8710  0.2988 -0.3310
  586MOL0     C80765  10.196   6.462   6.854 -0.4086  0.2115 -0.7316
  586MOL0     O80766  10.253   6.494   6.733  0.7824  0.7585 -0.7758
  586MOL0     C80767  10.393   6.452   6.731  0.8701 -0.9261 -0.5017
  586MOL0     C80768  10.464   6.570   6.682 -0.0162  0.2635  0.2425
  586MOL0     C80769  10.610   6.536   6.646 -0.1645 -0.2358 -0.3364
  586MOL0     C80770  10.708   6.651   6.678  0.5179  0.5108  0.1399
  586MOL0     C80771  10.855   6.598   6.674  0.5951  0.2563 -0.9559
  586MOL0     C80772  10.896   6.539   6.541  0.2577  0.6852  0.0048
  586MOL0     C80773  11.028   6.457   6.553  1.1775 -0.6498 -0.2205
  586MOL0     C80774  11.043   6.335   6.459 -0.0812  0.2725  0.7707
  586MOL0    Cl80775  11.114   6.377   6.292 -0.0469 -0.1740 -0.1111
  586MOL0     C80776  10.113   6.354   6.871  0.3442 -0.3291 -0.3557
  586MOL0     C80777  10.032   6.350   6.999  0.6320  0.1098  0.5640
  586MOL0     O80778  10.144   6.374   7.331  0.2364  0.3556 -0.3220
  586MOL0     C80779  10.001   6.322   7.550 -0.3300 -0.2130 -0.9865
  586MOL0     C80780   9.939   6.302   7.670  0.0439 -0.2893  0.6420
  586MOL0     N80781   9.390   5.985   8.040 -0.4342 -0.4603  0.7700
  586MOL0     N80782   9.277   5.932   8.069 -0.4863  0.6107  0.8162
  586MOL0     C80783   8.200   5.703   8.289  0.6147  0.2920  1.1387
  586MOL0     C80784   8.091   5.775   8.237  0.3581 -0.3246  0.6664
  586MOL0     C80785   7.807   6.116   8.178 -0.2589 -0.5283  0.3759
  586MOL0     C80786   7.833   6.154   8.042  0.9677 -0.1007 -0.3201
  586MOL0     C80787   7.742   6.223   7.962  0.6159  0.8082 -1.3213
  586MOL0     C80788   7.617   6.259   8.013  0.1855 -0.1553 -0.4221
  586MOL0     O80789   7.542   6.330   7.929 -1.3123  0.3242  0.6283
  586MOL0     C80790   7.430   6.385   7.976  0.7696 -0.7678  0.1962
  586MOL0     C80791   7.345   6.454   7.860 -0.1536  0.3207 -0.6461
  586MOL0     C80792   7.248   6.558   7.898  0.0226 -1.0729  0.5883
  586MOL0     C80793   7.118   6.497   7.943 -0.0800 -0.6256  0.4565
  586MOL0     C80794   7.015   6.603   7.957 -0.2908  0.2450  0.0142
  586MOL0     C80795   6.935   6.696   7.946 -0.6433 -0.3679 -0.1091
  586MOL0     C80796   7.593   6.235   8.152 -0.0413  1.0117 -0.2308
  586MOL0     C80797   7.683   6.164   8.239  0.1167 -0.4213  0.0236
  586MOL0     C80798   7.649   6.147   8.381  0.1344  1.1353  0.2762
  586MOL0     H80799   7.984   5.907   8.520  0.5307  2.7170 -2.6354
  586MOL0     H80800   8.174   5.771   8.622  0.4814  0.5809  0.1155
  586MOL0     H80801   8.413   5.784   8.592 -0.4491 -1.5236  2.2090
  586MOL0     H80802   8.482   5.798   8.420  4.5258 -1.5325  0.3065
  586MOL0     H80803   8.585   5.634   8.648  0.8842 -1.5428 -0.4530
  586MOL0     H80804   8.557   5.554   8.498  2.0003 -0.0148 -0.4027
  586MOL0     H80805   8.794   5.627   8.490  2.0874  1.8117 -0.7767
  586MOL0     H80806   8.696   5.695   8.366  2.5122  1.8355 -0.8957
  586MOL0     H80807   8.664   5.904   8.475 -0.5786 -1.7538 -2.3021
  586MOL0     H80808   8.757   5.846   8.620 -4.7932 -2.2005  0.4955
  586MOL0     H80809   8.866   6.012   8.442 -1.0224 -0.2238 -0.1487
  586MOL0     H80810   8.855   5.874   8.329 -2.2326 -0.6369  0.3427
  586MOL0     H80811   9.000   5.867   8.591 -1.4936  2.5569 -0.4159
  586MOL0     H80812   9.013   5.754   8.455 -0.1612 -0.6895  0.6464
  586MOL0     H80813   9.213   5.918   8.484  0.2268 -0.6152  1.2788
  586MOL0     H80814   9.105   6.043   8.433 -2.4031 -0.5586  1.2880
  586MOL0     H80815   9.180   5.785   8.285 -0.8191 -0.5417 -1.7264
  586MOL0     H80816   9.062   5.878   8.212  1.0438  2.1204  0.1629
  586MOL0     H80817   9.385   6.043   8.368 -2.0634  3.3168  0.0817
  586MOL0     H80818   9.667   6.038   8.178  0.0313 -0.7521 -1.7921
  586MOL0     H80819   9.576   6.186   8.230  0.6197 -0.7812  1.4937
  586MOL0     H80820   9.738   6.182   8.008  0.1510  0.8237 -0.1465
  586MOL0     H80821   9.611   6.072   7.948  1.2675  0.4528 -1.9141
  586MOL0     H80822   9.448   6.261   7.947  0.0716 -3.2298  1.2864
  586MOL0     H80823   9.575   6.368   8.009  1.0346 -0.6240 -0.5545
  586MOL0     H80824   9.555   6.242   7.738  0.5668  0.8178 -0.8917
  586MOL0     H80825   9.565   6.407   7.778 -0.3901 -0.1892 -1.6073
  586MOL0     H80826   9.628   6.406   7.576 -0.5682 -0.5606  0.3736
  586MOL0     H80827   9.606   6.462   7.359 -0.0161  1.1622  1.4012
  586MOL0     H80828   9.703   6.367   7.262  2.5361 -0.6736  1.1888
  586MOL0     H80829   9.746   6.543   7.278  2.3611 -1.2670 -1.5803
  586MOL0     H80830  10.150   6.635   7.146 -0.9610  0.4333 -0.4908
  586MOL0     H80831  10.290   6.642   6.934  1.8897 -0.8471 -1.8087
  586MOL0     H80832  10.435   6.417   6.825  2.2261 -0.7487 -1.0197
  586MOL0     H80833  10.397   6.363   6.667 -0.2067 -0.2561 -1.5677
  586MOL0     H80834  10.425   6.628   6.597  3.1977  4.2756  1.1680
  586MOL0     H80835  10.470   6.640   6.766 -3.0018  2.7476 -1.3475
  586MOL0     H80836  10.615   6.518   6.539 -1.3248  3.6053 -1.1903
  586MOL0     H80837  10.636   6.437   6.684 -2.4357 -1.8448 -2.6487
  586MOL0     H80838  10.689   6.695   6.776  1.2956  0.6622  0.2230
  586MOL0     H80839  10.694   6.731   6.606 -1.3239  0.0884 -0.0367
  586MOL0     H80840  10.930   6.676   6.688 -0.4975  1.4707 -1.6578
  586MOL0     H80841  10.868   6.522   6.752  2.1758 -2.2865 -3.5375
  586MOL0     H80842  10.908   6.613   6.462  2.4050 -0.6721 -1.0371
  586MOL0     H80843  10.826   6.463   6.503  0.5202  1.2122 -1.5758
  586MOL0     H80844  11.048   6.428   6.657 -1.1671 -1.4942  0.0492
  586MOL0     H80845  11.114   6.522   6.531  2.4980 -1.4974  2.0745
  586MOL0     H80846  10.955   6.272   6.444  0.6593 -0.0254 -3.3229
  586MOL0     H80847  11.116   6.272   6.510  1.0215  1.1678  0.3574
  586MOL0     H80848  10.101   6.268   6.807  0.0227 -1.3207  0.9825
  586MOL0     H80849   9.969   6.265   7.018  0.8963 -0.1726  0.2047
  586MOL0     H80850  10.109   6.319   7.563 -0.2874  1.8188 -0.6348
  586MOL0     H80851   9.988   6.271   7.762  1.8784  0.2300 -0.1275
  586MOL0     H80852   8.259   5.657   8.210  1.3426  0.3739  1.6268
  586MOL0     H80853   8.071   5.764   8.131 -4.0284 -1.6925  1.4028
  586MOL0     H80854   7.923   6.123   7.989  0.6087 -4.1290  1.0264
  586MOL0     H80855   7.765   6.260   7.862  1.9152 -0.1137 -1.3806
  586MOL0     H80856   7.356   6.323   8.028 -0.8393  0.5063 -0.4513
  586MOL0     H80857   7.453   6.472   8.038 -2.6218  0.4240  0.0078
  586MOL0     H80858   7.281   6.384   7.805 -0.5211 -0.2586  0.4711
  586MOL0     H80859   7.409   6.490   7.780 -0.2519 -1.2222 -1.4583
  586MOL0     H80860   7.291   6.606   7.987  3.0637 -0.2122 -1.1996
  586MOL0     H80861   7.231   6.636   7.822  0.2077 -1.0824  0.5383
  586MOL0     H80862   7.126   6.426   8.025 -2.1955 -0.3200  0.9862
  586MOL0     H80863   7.089   6.437   7.856 -5.0908 -2.1252  2.7804
  586MOL0     H80864   6.875   6.785   7.943  0.3699  0.3271 -3.0376
  586MOL0     H80865   7.497   6.272   8.188 -2.0224 -0.3831 -3.6124
  586MOL0     H80866   7.674   6.045   8.412  1.7123  0.5495 -2.5280
  586MOL0     H80867   7.715   6.224   8.424  2.7523 -0.4908 -0.5592
  586MOL0     H80868   7.546   6.176   8.402 -0.2096  0.2261 -0.1119
  587MOL0     O80869   4.105   9.666   4.618  0.6371 -0.4911  0.0884
  587MOL0     C80870   4.146   9.553   4.665  0.2120  0.1856  0.0981
  587MOL0     O80871   4.241   9.533   4.761  0.2951  0.5751 -1.1253
  587MOL0     C80872   4.305   9.648   4.796 -0.3645 -0.5453  0.2507
  587MOL0     C80873   4.263   9.714   4.916  0.1059 -0.3636  0.0249
  587MOL0     C80874   4.338   9.825   4.959  0.2268 -0.1327 -0.1688
  587MOL0     C80875   4.451   9.875   4.885  0.2777 -0.4423  0.1745
  587MOL0     O80876   4.526   9.985   4.916  0.0807 -0.3786 -0.4080
  587MOL0     C80877   4.475  10.070   5.017 -0.0118 -0.2224 -0.5930
  587MOL0     C80878   4.557  10.207   5.015  0.7194 -0.1838  0.5974
  587MOL0     C80879   4.556  10.262   4.867  0.4569 -1.1623 -0.2495
  587MOL0     C80880   4.477  10.397   4.856  0.3508  0.3112 -0.7685
  587MOL0     C80881   4.467  10.453   4.717 -0.0277 -0.2063 -0.2870
  587MOL0     C80882   4.405  10.586   4.721  0.1147 -0.0064 -0.3663
  587MOL0     C80883   4.380  10.647   4.582  0.5005  0.1227  0.8912
  587MOL0     C80884   4.404  10.798   4.554 -0.1423 -0.6995  0.2632
  587MOL0     N80885   4.549  10.810   4.543 -0.3124 -0.2602  0.1879
  587MOL0     C80886   4.650  10.836   4.629  0.3982  0.3242  0.1037
  587MOL0     C80887   4.771  10.802   4.576 -0.0998 -0.5391 -0.3598
  587MOL0     C80888   4.901  10.822   4.654 -0.3464 -0.5949  0.1038
  587MOL0     C80889   4.945  10.974   4.663  0.0271 -0.3630 -0.0009
  587MOL0     C80890   4.973  11.022   4.519  0.6025  0.3595 -0.6759
  587MOL0     C80891   4.857  11.114   4.463  0.1269 -0.6675 -0.2544
  587MOL0     O80892   4.850  11.237   4.536  0.4185  0.2747 -0.6385
  587MOL0     C80893   4.890  11.353   4.475 -0.6647  0.4964 -0.8900
  587MOL0     C80894   4.825  11.474   4.478  1.1679 -0.2652  0.1264
  587MOL0     C80895   4.865  11.592   4.416 -0.0515 -1.6439 -0.5636
  587MOL0     C80896   4.780  11.715   4.412  0.4638 -0.5693 -0.4236
  587MOL0     C80897   4.996  11.598   4.362 -0.1109  0.0624 -0.2992
  587MOL0     C80898   5.063  11.715   4.311  0.1963 -0.7136  0.4532
  587MOL0     O80899   5.168  11.681   4.227  0.5867  1.4096  0.0125
  587MOL0     C80900   5.233  11.771   4.141  0.3715  0.7853  0.4632
  587MOL0     C80901   5.223  11.909   4.144  0.2691 -0.5960  0.3206
  587MOL0     C80902   5.276  11.983   4.043  0.1748 -0.1550 -0.8828
  587MOL0     C80903   5.351  11.922   3.943 -0.1224  0.0242  0.5426
  587MOL0     O80904   5.404  12.009   3.856 -0.3316 -0.1592 -0.4279
  587MOL0     C80905   5.507  11.955   3.774  0.3582  0.0126  0.5677
  587MOL0     C80906   5.531  12.059   3.659 -0.4777  0.6554 -0.0067
  587MOL0     C80907   5.642  12.012   3.557  0.0874  0.9561  0.4222
  587MOL0     C80908   5.648  12.111   3.435  0.4423 -0.2909 -0.4015
  587MOL0     C80909   5.748  12.043   3.341 -0.6722 -0.1885  0.9384
  587MOL0     C80910   5.894  12.084   3.364 -0.4188 -0.3481 -0.2324
  587MOL0     C80911   5.983  12.017   3.260 -0.1657  0.5968 -0.8000
  587MOL0     C80912   6.126  12.065   3.254 -1.0201  0.3096  0.1047
  587MOL0    Cl80913   6.249  11.951   3.196  0.5110 -0.1255 -0.1903
  587MOL0     C80914   5.358  11.783   3.937 -0.0225  0.2910  0.0447
  587MOL0     C80915   5.297  11.705   4.036  0.6679 -0.3043 -0.9415
  587MOL0     O80916   5.013  11.829   4.317 -0.0742  0.0159  0.0583
  587MOL0     C80917   5.068  11.473   4.362  0.3176 -0.9603  0.2515
  587MOL0     C80918   5.016  11.349   4.414  0.5207 -0.4511  0.2021
  587MOL0     N80919   4.742  10.778   4.450  0.3234  0.3762  0.7499
  587MOL0     N80920   4.613  10.776   4.426  0.0327  0.2829  0.8010
  587MOL0     C80921   4.498   9.800   4.773  0.7471  0.8079 -1.3281
  587MOL0     C80922   4.424   9.693   4.732 -0.5512  0.5477 -0.6612
  587MOL0     C80923   4.081   9.437   4.608 -0.0651  0.2438 -0.2500
  587MOL0     C80924   3.944   9.424   4.635  0.4587  0.5371  0.3883
  587MOL0     C80925   3.870   9.319   4.583  0.0127 -0.2429 -0.0408
  587MOL0     C80926   3.933   9.210   4.527  0.5370  0.2259  0.7365
  587MOL0     O80927   3.870   9.103   4.502  0.6189  0.4798  0.0049
  587MOL0     C80928   3.727   9.095   4.474 -0.0955  0.4269  0.5954
  587MOL0     C80929   3.688   8.974   4.385  0.2828 -0.6709  0.1923
  587MOL0     C80930   3.536   8.964   4.363  1.0770  0.6953  0.2806
  587MOL0     C80931   3.489   8.850   4.269  0.1378  0.2480 -0.4453
  587MOL0     C80932   3.519   8.717   4.317  1.1525  0.8090  0.1563
  587MOL0     C80933   3.568   8.606   4.336 -0.1215 -0.5982  0.6494
  587MOL0     C80934   4.065   9.222   4.497  0.4445  0.1677 -1.0986
  587MOL0     C80935   4.144   9.330   4.533  0.2415  0.3405  0.6513
  587MOL0     C80936   4.293   9.322   4.503 -0.1277  0.4301  0.5261
  587MOL0     H80937   4.170   9.689   4.965 -1.0929 -1.6748 -2.7388
  587MOL0     H80938   4.302   9.872   5.050  0.1926 -1.9053  0.7752
  587MOL0     H80939   4.490  10.021   5.114 -1.2262  3.5631  1.7498
  587MOL0     H80940   4.368  10.093   5.006 -0.2096  1.3609  3.0544
  587MOL0     H80941   4.508  10.277   5.082 -2.7258 -2.5087  0.7601
  587MOL0     H80942   4.664  10.187   5.030  1.6325  1.3214 -2.8953
  587MOL0     H80943   4.654  10.286   4.825 -0.7120  1.0044 -1.9165
  587MOL0     H80944   4.506  10.190   4.802  0.1386 -0.6200 -0.6115
  587MOL0     H80945   4.379  10.393   4.903 -0.0940  0.2711 -1.6814
  587MOL0     H80946   4.538  10.466   4.914 -1.7469  0.0605  1.9284
  587MOL0     H80947   4.407  10.392   4.648  2.5607 -2.0847 -1.0290
  587MOL0     H80948   4.569  10.468   4.682 -1.1618  2.9416 -2.6827
  587MOL0     H80949   4.309  10.587   4.773  0.6416 -2.0281  0.7619
  587MOL0     H80950   4.475  10.650   4.777 -0.9358  1.0243 -0.2136
  587MOL0     H80951   4.271  10.640   4.581  0.5052  0.0956  0.6201
  587MOL0     H80952   4.407  10.579   4.501 -0.6767 -0.4018  0.9256
  587MOL0     H80953   4.360  10.835   4.461  1.9377  2.1700  0.2946
  587MOL0     H80954   4.368  10.859   4.637 -0.4019  0.2694 -0.5411
  587MOL0     H80955   4.631  10.874   4.729 -0.7959 -1.4674  0.6055
  587MOL0     H80956   4.982  10.775   4.597  0.1129 -0.9174  0.9977
  587MOL0     H80957   4.896  10.780   4.755 -2.9529  0.1517  0.3636
  587MOL0     H80958   4.872  11.039   4.713  1.5484  2.1414 -0.8310
  587MOL0     H80959   5.039  10.976   4.718  2.0366  1.5574 -3.2005
  587MOL0     H80960   5.065  11.081   4.519 -0.2530  1.8210  1.2476
  587MOL0     H80961   4.982  10.937   4.451 -3.7591  0.4175 -1.6320
  587MOL0     H80962   4.873  11.142   4.358  0.8092 -0.4012 -0.0854
  587MOL0     H80963   4.764  11.057   4.467 -1.3134  1.6454  1.5206
  587MOL0     H80964   4.731  11.478   4.533  3.0797  2.8346  3.6571
  587MOL0     H80965   4.684  11.684   4.454  0.0097  1.2199 -0.0558
  587MOL0     H80966   4.765  11.739   4.306 -2.0803 -2.6214 -0.6420
  587MOL0     H80967   4.824  11.796   4.470  1.6866 -0.3829 -1.5667
  587MOL0     H80968   5.167  11.970   4.214  0.2115  1.3451 -1.3198
  587MOL0     H80969   5.257  12.088   4.059 -2.7767 -1.0145  2.6156
  587MOL0     H80970   5.598  11.921   3.826  0.6454 -1.8860 -1.0316
  587MOL0     H80971   5.475  11.868   3.716  0.4726  0.3747 -0.0426
  587MOL0     H80972   5.437  12.069   3.605  0.5613 -0.1886 -2.0500
  587MOL0     H80973   5.556  12.159   3.696 -0.6820  0.9726 -0.7192
  587MOL0     H80974   5.628  11.907   3.532  1.2793  1.2419 -1.7668
  587MOL0     H80975   5.734  12.022   3.616 -0.5228 -1.2862  1.8449
  587MOL0     H80976   5.673  12.213   3.463  0.3409 -0.2237 -0.5539
  587MOL0     H80977   5.545  12.122   3.400  0.2062  0.8832  0.6040
  587MOL0     H80978   5.734  11.935   3.350 -1.1786 -0.0989  1.2647
  587MOL0     H80979   5.722  12.067   3.238  0.4105 -0.6170  0.5494
  587MOL0     H80980   5.935  12.043   3.457  0.1858 -0.9247 -0.7395
  587MOL0     H80981   5.918  12.190   3.369  3.3534 -0.9745 -1.6228
  587MOL0     H80982   5.941  12.043   3.163 -0.8987  0.7469 -0.4505
  587MOL0     H80983   5.978  11.908   3.272 -1.6257  0.2274 -3.8573
  587MOL0     H80984   6.160  12.111   3.347 -2.2068  1.7372 -0.1383
  587MOL0     H80985   6.129  12.147   3.182  0.7741  0.8299  0.7205
  587MOL0     H80986   5.411  11.729   3.859 -0.0363  0.3984 -0.0390
  587MOL0     H80987   5.297  11.597   4.019  0.7852  0.0393 -3.5909
  587MOL0     H80988   5.167  11.454   4.322 -0.1572 -0.4975 -1.2403
  587MOL0     H80989   5.075  11.259   4.423  0.6994 -0.3708 -0.1717
  587MOL0     H80990   4.591   9.827   4.725  2.0038 -0.7850  0.1126
  587MOL0     H80991   4.468   9.622   4.663  2.6198  0.3857  1.3133
  587MOL0     H80992   3.897   9.508   4.685 -2.9048  0.0673 -1.6337
  587MOL0     H80993   3.764   9.317   4.606  0.2210  1.0879  1.2451
  587MOL0     H80994   3.679   9.079   4.571  0.4857 -2.7976  0.4639
  587MOL0     H80995   3.690   9.187   4.428 -1.8101 -0.6275 -0.2724
  587MOL0     H80996   3.730   8.884   4.431  0.2152 -0.6244  0.3466
  587MOL0     H80997   3.726   8.991   4.284 -0.7033  3.1369  0.2964
  587MOL0     H80998   3.495   8.944   4.462  0.8530  1.0458  0.2609
  587MOL0     H80999   3.491   9.055   4.324  1.2819 -0.3071 -2.5156
  587MOL0     H81000   3.546   8.861   4.176  0.6249  2.0602  0.0335
  587MOL0     H81001   3.382   8.869   4.257  0.4118  0.2767 -3.5028
  587MOL0     H81002   3.612   8.512   4.363 -0.5180 -0.5402  1.5391
  587MOL0     H81003   4.107   9.138   4.442  0.8085 -0.2828 -0.1462
  587MOL0     H81004   4.305   9.333   4.395 -2.0747 -0.9881  0.1166
  587MOL0     H81005   4.354   9.400   4.549  0.0072  0.6977 -0.1007
  587MOL0     H81006   4.327   9.224   4.539  0.5095  0.6557  0.5560
  588MOL0     O81007   9.309   4.649   2.756 -0.7613  0.0057 -0.2987
  588MOL0     C81008   9.251   4.751   2.774 -0.1747 -0.5627 -0.4329
  588MOL0     O81009   9.181   4.819   2.683 -0.3889 -0.0191  0.1628
  588MOL0     C81010   9.158   4.753   2.566  0.2625 -0.0522  0.1166
  588MOL0     C81011   9.262   4.722   2.484  0.5493  0.1905 -0.1015
  588MOL0     C81012   9.235   4.676   2.358  0.3973  0.0288 -0.2915
  588MOL0     C81013   9.104   4.644   2.316 -1.3150 -1.0208  0.6021
  588MOL0     O81014   9.072   4.604   2.195 -0.5695  0.8241 -0.2005
  588MOL0     C81015   9.145   4.489   2.150  0.3969  0.1611  0.0262
  588MOL0     C81016   9.074   4.457   2.023  0.7148 -0.0264 -0.2331
  588MOL0     C81017   8.941   4.382   2.053  0.6152  0.7903  0.4722
  588MOL0     C81018   8.953   4.261   2.141  0.2062 -0.7822  0.8793
  588MOL0     C81019   8.847   4.150   2.115  0.2007  0.0692 -0.2476
  588MOL0     C81020   8.844   4.042   2.212 -0.6127  0.9092 -0.2745
  588MOL0     C81021   8.748   3.916   2.202 -0.2547  0.6464 -0.8917
  588MOL0     C81022   8.790   3.808   2.296  0.6982 -0.2322 -0.3612
  588MOL0     N81023   8.916   3.744   2.258 -0.5070 -0.2236 -0.4743
  588MOL0     C81024   8.930   3.640   2.167  0.6776  0.0516  0.6703
  588MOL0     C81025   9.060   3.609   2.165  0.1437  0.4339 -0.4515
  588MOL0     C81026   9.122   3.501   2.090 -1.2634  0.2494  0.1190
  588MOL0     C81027   9.080   3.358   2.135 -0.5899  0.3392 -0.0191
  588MOL0     C81028   9.184   3.256   2.102  0.8178 -1.1395  0.4989
  588MOL0     C81029   9.305   3.269   2.197 -0.0822  0.9407  0.5820
  588MOL0     O81030   9.378   3.154   2.163 -0.5199  0.2706  0.3840
  588MOL0     C81031   9.486   3.116   2.238  0.2208 -0.8644  0.6352
  588MOL0     C81032   9.544   3.199   2.338  1.0099 -0.6503 -0.1291
  588MOL0     C81033   9.662   3.168   2.394 -0.7449  0.2904 -0.1678
  588MOL0     C81034   9.723   3.259   2.496  1.6136  0.2035  0.6572
  588MOL0     C81035   9.736   3.064   2.342 -0.7050  0.4966  0.5335
  588MOL0     C81036   9.869   3.023   2.383  0.8951  0.1880 -0.0879
  588MOL0     O81037   9.912   2.901   2.340  0.4323  0.6451 -0.0395
  588MOL0     C81038  10.035   2.856   2.384  0.3619 -1.2436 -0.0641
  588MOL0     C81039  10.143   2.941   2.377 -0.1626 -0.9323 -0.1291
  588MOL0     C81040  10.273   2.898   2.423 -0.5359 -0.6551  0.7593
  588MOL0     C81041  10.290   2.772   2.471 -0.8550  0.3551 -0.0913
  588MOL0     O81042  10.411   2.725   2.514  0.4004  0.3890 -0.3497
  588MOL0     C81043  10.472   2.801   2.617 -0.4405 -0.3822  0.0385
  588MOL0     C81044  10.624   2.826   2.608 -0.6586  0.0473 -0.6331
  588MOL0     C81045  10.701   2.694   2.624  0.2869  0.2156 -0.1599
  588MOL0     C81046  10.841   2.713   2.577  0.6104 -0.1051  0.5611
  588MOL0     C81047  10.948   2.643   2.664  0.0410 -0.2338 -0.7571
  588MOL0     C81048  10.932   2.497   2.700 -0.8251 -0.7085  0.4359
  588MOL0     C81049  10.922   2.413   2.571 -0.4514 -0.7674 -0.4054
  588MOL0     C81050  11.056   2.394   2.512  0.3252 -0.0604  0.1515
  588MOL0    Cl81051  11.150   2.273   2.617  0.0936 -0.7256 -0.1963
  588MOL0     C81052  10.188   2.683   2.466  0.4332  0.1739 -0.3765
  588MOL0     C81053  10.058   2.725   2.431  1.0424 -0.1824 -0.6627
  588MOL0     O81054   9.919   3.091   2.477  0.1316  0.5082 -0.4946
  588MOL0     C81055   9.684   2.984   2.241  0.1504 -0.5945  0.2950
  588MOL0     C81056   9.556   3.004   2.202 -0.7328  0.0938  0.4786
  588MOL0     N81057   9.123   3.679   2.263 -0.3078 -0.2092 -1.1733
  588MOL0     N81058   9.038   3.762   2.318  0.0197  0.3635  0.0362
  588MOL0     C81059   9.002   4.690   2.387  0.2109  0.1078 -0.6467
  588MOL0     C81060   9.028   4.744   2.514 -0.3911 -0.4809  0.4004
  588MOL0     C81061   9.261   4.823   2.908  0.1297  0.4898  0.3844
  588MOL0     C81062   9.210   4.952   2.933  0.9626 -0.0027 -0.2689
  588MOL0     C81063   9.214   5.025   3.049  0.5488  0.0862  0.7272
  588MOL0     C81064   9.279   4.975   3.155 -1.2241 -0.2044 -0.2247
  588MOL0     O81065   9.275   5.022   3.289 -0.2373  0.3262 -0.0847
  588MOL0     C81066   9.208   5.145   3.318  0.7158 -0.6055 -0.0350
  588MOL0     C81067   9.213   5.175   3.471 -0.1885 -0.3802  0.3811
  588MOL0     C81068   9.350   5.135   3.524 -1.1301 -0.4574 -0.3297
  588MOL0     C81069   9.364   5.195   3.665 -0.6908  0.7019  0.2958
  588MOL0     C81070   9.503   5.192   3.722  1.2593  0.4669 -0.1623
  588MOL0     C81071   9.614   5.222   3.765 -0.3784  0.6740  0.1760
  588MOL0     C81072   9.329   4.847   3.137 -0.1592  0.3691  0.8525
  588MOL0     C81073   9.324   4.769   3.019  0.0683 -0.0306 -0.8967
  588MOL0     C81074   9.367   4.628   3.035  0.2040 -1.2560 -0.1393
  588MOL0     H81075   9.366   4.740   2.510  2.3377  0.5527 -6.0908
  588MOL0     H81076   9.314   4.659   2.285  0.9773 -0.9652  0.5310
  588MOL0     H81077   9.148   4.409   2.223  0.2245  0.2471  0.1295
  588MOL0     H81078   9.251   4.498   2.125  0.2651 -0.8587 -0.9969
  588MOL0     H81079   9.052   4.548   1.966  0.5299  1.6434  2.3487
  588MOL0     H81080   9.134   4.386   1.966  0.9688  0.7587 -0.9713
  588MOL0     H81081   8.873   4.452   2.102 -1.9580 -2.1670  1.5258
  588MOL0     H81082   8.895   4.354   1.958 -0.7969 -0.5054  1.4647
  588MOL0     H81083   9.056   4.226   2.131  0.6322  0.8286 -1.0326
  588MOL0     H81084   8.936   4.307   2.239  1.3423 -0.4349  0.9346
  588MOL0     H81085   8.864   4.107   2.016  1.4578  1.0537 -0.4799
  588MOL0     H81086   8.748   4.197   2.116 -0.5745 -1.5023 -0.1925
  588MOL0     H81087   8.942   3.996   2.224 -1.1418 -0.0074  0.6766
  588MOL0     H81088   8.832   4.076   2.315  4.2425 -1.2780  1.3017
  588MOL0     H81089   8.738   3.902   2.094  0.5644 -0.5331 -0.8336
  588MOL0     H81090   8.646   3.947   2.226  0.5245  1.0629  2.3252
  588MOL0     H81091   8.793   3.855   2.394 -0.8330 -0.1232 -0.3405
  588MOL0     H81092   8.714   3.729   2.298  0.9514 -0.5910 -2.4568
  588MOL0     H81093   8.850   3.606   2.103  1.4301 -0.6752  0.1010
  588MOL0     H81094   9.231   3.510   2.091 -1.3704  1.7497  1.4246
  588MOL0     H81095   9.079   3.521   1.992  1.9190  1.6617 -1.1307
  588MOL0     H81096   9.066   3.349   2.243  0.1362  2.0483  0.2422
  588MOL0     H81097   8.983   3.332   2.092 -1.1763  1.1055  0.8244
  588MOL0     H81098   9.136   3.158   2.110  0.7570 -1.0952  0.6756
  588MOL0     H81099   9.220   3.268   1.999  0.3423  0.1344  0.4591
  588MOL0     H81100   9.354   3.367   2.191 -1.0265  1.3297 -1.9845
  588MOL0     H81101   9.271   3.253   2.300  2.4022  0.3186  1.3714
  588MOL0     H81102   9.487   3.290   2.357 -0.7755 -1.7263 -0.1455
  588MOL0     H81103   9.805   3.319   2.454 -0.1400  2.8855  0.7992
  588MOL0     H81104   9.743   3.215   2.594 -2.8823 -0.6073  1.4296
  588MOL0     H81105   9.662   3.347   2.521  2.6560  1.3390 -0.6041
  588MOL0     H81106  10.136   3.043   2.341  2.9951 -0.6788 -0.2992
  588MOL0     H81107  10.351   2.974   2.423 -0.8512 -0.3239  1.3413
  588MOL0     H81108  10.430   2.900   2.636  1.0073  0.2038  0.2761
  588MOL0     H81109  10.458   2.753   2.714  1.1311  0.2623  0.6177
  588MOL0     H81110  10.646   2.852   2.504  0.8193  1.4189 -0.0121
  588MOL0     H81111  10.663   2.896   2.682 -1.1976  0.2017 -0.4896
  588MOL0     H81112  10.659   2.623   2.553  0.2821  2.5328 -2.6521
  588MOL0     H81113  10.681   2.649   2.721 -0.5171 -0.8799 -0.8147
  588MOL0     H81114  10.858   2.820   2.592  2.3144 -0.4187  1.0855
  588MOL0     H81115  10.854   2.695   2.470  1.8017 -1.6393  0.9206
  588MOL0     H81116  11.045   2.666   2.620 -0.0139  1.5372 -0.0069
  588MOL0     H81117  10.946   2.699   2.758 -2.3398 -0.1403 -0.8022
  588MOL0     H81118  10.845   2.490   2.766 -1.0406 -0.3751  0.1941
  588MOL0     H81119  11.022   2.457   2.747 -1.4345 -3.2583 -0.4019
  588MOL0     H81120  10.857   2.472   2.506  1.1791  1.3020 -0.2466
  588MOL0     H81121  10.884   2.313   2.597  0.8960 -2.0552 -2.9307
  588MOL0     H81122  11.111   2.488   2.497  2.3075 -1.3131 -0.9914
  588MOL0     H81123  11.050   2.352   2.411  0.4049  0.2674  0.0110
  588MOL0     H81124  10.203   2.577   2.482  0.1267  0.2636  0.6086
  588MOL0     H81125   9.969   2.665   2.412  0.6747  0.5683 -1.3622
  588MOL0     H81126   9.737   2.897   2.201 -1.6917 -0.3124 -3.2100
  588MOL0     H81127   9.507   2.933   2.136 -1.8320 -0.0946  1.4617
  588MOL0     H81128   8.906   4.672   2.341 -0.7310  2.2188  0.3706
  588MOL0     H81129   8.941   4.773   2.571 -0.9053 -1.1893 -0.0102
  588MOL0     H81130   9.148   5.004   2.861  2.3622  2.1827  0.0136
  588MOL0     H81131   9.159   5.118   3.056 -0.1958 -0.1252 -1.5770
  588MOL0     H81132   9.250   5.225   3.258 -0.4100 -0.3962 -0.5592
  588MOL0     H81133   9.100   5.140   3.304  0.5644  2.8464 -0.9573
  588MOL0     H81134   9.134   5.121   3.524 -0.6601  0.0602  0.1443
  588MOL0     H81135   9.187   5.280   3.489 -1.8064 -1.0684  2.4746
  588MOL0     H81136   9.370   5.029   3.539  1.4326  0.1493  1.2797
  588MOL0     H81137   9.433   5.170   3.461  1.2116 -2.8474  1.2220
  588MOL0     H81138   9.301   5.139   3.735 -1.1213 -2.9390 -2.6848
  588MOL0     H81139   9.345   5.303   3.666  0.0387  0.8958  3.3031
  588MOL0     H81140   9.715   5.257   3.771 -0.0586 -0.3216  0.8579
  588MOL0     H81141   9.376   4.814   3.230 -1.3856  0.4580  1.5235
  588MOL0     H81142   9.305   4.560   2.977 -2.2235  0.9155 -0.2801
  588MOL0     H81143   9.469   4.636   2.997  0.6638  0.3480  1.3310
  588MOL0     H81144   9.364   4.595   3.140 -1.6046  1.1450  0.6591
  589MOL0     O81145   4.245   2.357   2.020  0.8175 -0.5514  0.2427
  589MOL0     C81146   4.141   2.402   1.961  0.6802 -0.9239 -0.1637
  589MOL0     O81147   4.148   2.497   1.859  0.4099 -0.6937  0.4690
  589MOL0     C81148   4.265   2.509   1.782  0.4885 -0.4164 -0.6722
  589MOL0     C81149   4.335   2.403   1.724  0.6267 -0.1139 -0.1808
  589MOL0     C81150   4.427   2.417   1.622  0.0771  0.3234 -0.5830
  589MOL0     C81151   4.446   2.542   1.565  0.1288  0.1576 -0.5504
  589MOL0     O81152   4.547   2.562   1.483 -0.1234 -0.3820 -0.7252
  589MOL0     C81153   4.672   2.486   1.518 -0.4683 -0.0465 -0.1502
  589MOL0     C81154   4.779   2.545   1.428  0.6378 -0.2662  0.2606
  589MOL0     C81155   4.922   2.533   1.475  0.4108  0.8441 -0.2317
  589MOL0     C81156   5.005   2.584   1.353  1.1124  0.9562  0.5821
  589MOL0     C81157   5.149   2.627   1.383  0.9044 -0.4551 -0.2947
  589MOL0     C81158   5.249   2.545   1.305  0.1774 -0.4669 -0.1360
  589MOL0     C81159   5.399   2.596   1.333 -0.2279 -0.2047 -0.3385
  589MOL0     C81160   5.501   2.482   1.297 -0.8391  0.3777 -0.1786
  589MOL0     N81161   5.644   2.519   1.298  0.4102  0.1180 -0.2490
  589MOL0     C81162   5.703   2.586   1.392 -0.0414 -0.7613  0.8955
  589MOL0     C81163   5.835   2.560   1.380 -0.5917 -1.0086  0.8420
  589MOL0     C81164   5.933   2.617   1.472  0.3852 -0.8449 -0.1696
  589MOL0     C81165   6.017   2.720   1.387  0.1274  0.1242  0.4482
  589MOL0     C81166   5.939   2.841   1.334 -0.0679 -0.0830 -0.0966
  589MOL0     C81167   6.019   2.946   1.254 -0.3262  0.0412  0.1320
  589MOL0     O81168   5.943   3.071   1.232 -0.6068  0.6915 -0.3758
  589MOL0     C81169   5.942   3.176   1.324 -0.2171  0.7066 -0.6931
  589MOL0     C81170   6.029   3.216   1.431 -1.2735  0.1410 -1.1964
  589MOL0     C81171   6.003   3.317   1.521  0.3544 -0.5263 -0.4251
  589MOL0     C81172   6.115   3.363   1.601  0.5218  0.3214  0.1540
  589MOL0     C81173   5.877   3.382   1.523  0.1368  0.3855 -0.8975
  589MOL0     C81174   5.834   3.506   1.612 -0.3990  0.6587 -0.4393
  589MOL0     O81175   5.736   3.587   1.570 -0.1145 -0.6282  0.2924
  589MOL0     C81176   5.744   3.725   1.582 -0.7014  0.2772 -0.5722
  589MOL0     C81177   5.862   3.795   1.629  0.3245 -0.0692 -0.0244
  589MOL0     C81178   5.866   3.932   1.643 -0.5926  0.1422 -0.1140
  589MOL0     C81179   5.757   4.005   1.606 -0.2893 -0.2066 -0.1454
  589MOL0     O81180   5.772   4.141   1.604  0.2048  0.5485 -0.6584
  589MOL0     C81181   5.681   4.223   1.530 -0.3649  0.6662  0.2708
  589MOL0     C81182   5.558   4.259   1.614 -0.4204 -0.5713 -0.1217
  589MOL0     C81183   5.469   4.355   1.532  0.9925  0.0108 -0.1369
  589MOL0     C81184   5.381   4.433   1.632  0.2199  0.1633 -0.4489
  589MOL0     C81185   5.312   4.548   1.572 -0.5440 -0.3722  0.2590
  589MOL0     C81186   5.159   4.516   1.554 -0.6612 -0.5815  0.8684
  589MOL0     C81187   5.085   4.630   1.486  0.1112 -0.7299  0.4493
  589MOL0     C81188   5.106   4.637   1.329  0.4529 -1.2002  0.1908
  589MOL0    Cl81189   5.026   4.797   1.273  0.4040  0.1272 -0.4364
  589MOL0     C81190   5.643   3.933   1.559 -0.1243  0.8811  0.1566
  589MOL0     C81191   5.642   3.791   1.533 -0.7180 -0.5800 -0.6630
  589MOL0     O81192   5.899   3.524   1.719  0.4682  0.3031 -0.2197
  589MOL0     C81193   5.783   3.352   1.410  0.5455  0.9619 -0.2682
  589MOL0     C81194   5.820   3.247   1.328  0.8314  0.7566 -0.1135
  589MOL0     N81195   5.859   2.483   1.266  0.7199  0.2161 -0.5537
  589MOL0     N81196   5.735   2.450   1.226 -0.5504  0.4320 -0.9245
  589MOL0     C81197   4.382   2.658   1.612  0.8495 -0.2136 -0.4158
  589MOL0     C81198   4.294   2.630   1.719  1.0596 -0.1616 -0.0975
  589MOL0     C81199   4.004   2.384   2.023  0.4900  0.2155 -0.3859
  589MOL0     C81200   3.889   2.417   1.948  0.2468  0.8392  0.7234
  589MOL0     C81201   3.759   2.403   2.000  0.4890  0.1468  0.3621
  589MOL0     C81202   3.733   2.341   2.120  0.1431 -0.0790 -0.6061
  589MOL0     O81203   3.606   2.336   2.167  0.3761  0.3417  0.4671
  589MOL0     C81204   3.571   2.289   2.297  0.5462  0.4308 -0.2281
  589MOL0     C81205   3.431   2.338   2.327  1.6452  0.8162  0.9273
  589MOL0     C81206   3.435   2.491   2.364  0.4635  0.3405 -0.0775
  589MOL0     C81207   3.296   2.559   2.368  0.1851 -0.3661  0.0273
  589MOL0     C81208   3.297   2.708   2.364  0.3434  0.1530 -0.1609
  589MOL0     C81209   3.317   2.825   2.358 -0.5445  0.2274  0.9180
  589MOL0     C81210   3.848   2.306   2.196 -0.2874 -0.7306  0.7768
  589MOL0     C81211   3.977   2.332   2.149  0.0182 -0.3243  0.3597
  589MOL0     C81212   4.088   2.295   2.247  0.4538  1.6007 -0.1802
  589MOL0     H81213   4.312   2.298   1.741 -3.2686  0.8443  1.8483
  589MOL0     H81214   4.470   2.324   1.588 -1.3716 -0.2052 -1.0350
  589MOL0     H81215   4.669   2.379   1.495 -4.4911 -0.2984  0.6743
  589MOL0     H81216   4.703   2.491   1.623  2.3516  2.1989 -0.9894
  589MOL0     H81217   4.761   2.493   1.333 -3.8995 -0.4410  0.9983
  589MOL0     H81218   4.749   2.650   1.420  1.4106  0.0889  1.6931
  589MOL0     H81219   4.947   2.588   1.567  1.2504  0.7301 -0.3789
  589MOL0     H81220   4.947   2.427   1.487 -0.2658  0.6182 -0.8117
  589MOL0     H81221   4.996   2.509   1.274 -1.9130  0.9012  0.8447
  589MOL0     H81222   4.956   2.667   1.302 -0.4333 -0.1228  0.2494
  589MOL0     H81223   5.174   2.618   1.489 -1.4314 -1.7668  0.1925
  589MOL0     H81224   5.156   2.730   1.346 -0.2166 -0.7395 -1.3784
  589MOL0     H81225   5.241   2.438   1.323 -2.4590 -0.6889 -2.0741
  589MOL0     H81226   5.228   2.558   1.198  0.4021  0.8235 -0.0383
  589MOL0     H81227   5.423   2.617   1.438 -2.9610 -4.3924  1.3800
  589MOL0     H81228   5.405   2.684   1.268 -0.3517 -0.9681 -1.4161
  589MOL0     H81229   5.485   2.397   1.365  0.0078  1.0876  0.9529
  589MOL0     H81230   5.492   2.450   1.193  0.4171 -1.1720  0.1515
  589MOL0     H81231   5.664   2.661   1.460 -0.6835  1.1396 -1.4411
  589MOL0     H81232   5.999   2.545   1.521 -0.7357 -0.9917  1.1926
  589MOL0     H81233   5.891   2.683   1.548  1.8877 -2.5471  2.2989
  589MOL0     H81234   6.110   2.748   1.437 -0.0348  0.9270  0.3109
  589MOL0     H81235   6.046   2.670   1.294  0.4261  0.3217  0.4362
  589MOL0     H81236   5.847   2.807   1.286 -1.0109  1.3720  0.6037
  589MOL0     H81237   5.902   2.896   1.421 -2.0933  1.1262 -1.6128
  589MOL0     H81238   6.119   2.952   1.297 -0.8596 -2.0144  1.8641
  589MOL0     H81239   6.046   2.906   1.156 -3.5066 -1.0375 -0.4292
  589MOL0     H81240   6.119   3.155   1.442 -2.1303 -0.6579  2.7961
  589MOL0     H81241   6.095   3.347   1.707  0.9488  0.0422  0.1969
  589MOL0     H81242   6.142   3.467   1.581 -0.6192  1.6817  4.5781
  589MOL0     H81243   6.208   3.311   1.577  0.3131 -0.2494  0.5527
  589MOL0     H81244   5.940   3.738   1.679  0.9846  1.1529  0.3825
  589MOL0     H81245   5.958   3.979   1.677  0.4959 -2.0961  0.2511
  589MOL0     H81246   5.734   4.315   1.503 -2.9834  1.7825 -1.5338
  589MOL0     H81247   5.636   4.185   1.438  0.9406  2.6520 -1.2538
  589MOL0     H81248   5.505   4.167   1.639 -3.3205  0.8090 -0.7869
  589MOL0     H81249   5.591   4.307   1.707 -0.6342 -2.7361  1.1529
  589MOL0     H81250   5.399   4.300   1.469 -0.2073 -1.6727  2.4981
  589MOL0     H81251   5.530   4.424   1.472 -1.3386  2.3891  0.0526
  589MOL0     H81252   5.445   4.482   1.705 -1.2614 -0.4204  1.3040
  589MOL0     H81253   5.310   4.369   1.685 -1.4701  2.5728  0.3286
  589MOL0     H81254   5.324   4.622   1.651  3.3693 -1.7131  1.1905
  589MOL0     H81255   5.367   4.584   1.484 -1.5798  0.6690  0.0237
  589MOL0     H81256   5.123   4.501   1.656  2.1181  3.3449  2.6948
  589MOL0     H81257   5.155   4.425   1.493 -1.0041 -0.4610  0.7103
  589MOL0     H81258   5.110   4.729   1.524 -1.8363 -0.5577  1.3762
  589MOL0     H81259   4.977   4.617   1.500 -0.0717 -0.3133 -0.4804
  589MOL0     H81260   5.054   4.548   1.292  2.7127 -3.4618  2.0604
  589MOL0     H81261   5.210   4.631   1.296  0.7562 -0.1755  0.9071
  589MOL0     H81262   5.552   3.977   1.520 -1.2507  1.0189  2.7239
  589MOL0     H81263   5.568   3.745   1.468 -0.4720 -2.1761  0.1487
  589MOL0     H81264   5.690   3.406   1.396  1.6794  3.6327  1.5663
  589MOL0     H81265   5.746   3.217   1.255  1.3482  0.7145 -0.6303
  589MOL0     H81266   4.401   2.763   1.591 -2.2925  0.5167 -0.1589
  589MOL0     H81267   4.231   2.714   1.749  2.2523  0.2671  1.3003
  589MOL0     H81268   3.882   2.442   1.843 -2.1195 -1.0309  0.3336
  589MOL0     H81269   3.681   2.441   1.935  0.2962 -1.0855 -0.1636
  589MOL0     H81270   3.568   2.180   2.306 -2.3166  0.6075  2.5176
  589MOL0     H81271   3.650   2.327   2.361  1.3729 -0.7717 -0.4972
  589MOL0     H81272   3.395   2.284   2.414 -1.8836  0.6449 -0.4686
  589MOL0     H81273   3.368   2.294   2.249 -0.0722  0.9066  2.1916
  589MOL0     H81274   3.473   2.499   2.466  0.9592  0.7985 -0.2912
  589MOL0     H81275   3.499   2.539   2.290  2.3556 -1.3261  0.4028
  589MOL0     H81276   3.232   2.532   2.453 -0.6660 -3.0103 -1.3639
  589MOL0     H81277   3.242   2.518   2.283 -0.7918  0.8784  0.0263
  589MOL0     H81278   3.323   2.931   2.349 -2.4605  0.2770 -0.3655
  589MOL0     H81279   3.833   2.261   2.294  1.9205 -0.8434  1.1025
  589MOL0     H81280   4.135   2.386   2.286  1.8407  0.6491  0.4707
  589MOL0     H81281   4.070   2.224   2.329  0.4557  0.0803 -1.4420
  589MOL0     H81282   4.155   2.228   2.192  0.6640 -0.9890  2.9331
  590MOL0     O81283   2.550   8.178   9.281 -0.1290  0.0727  0.6743
  590MOL0     C81284   2.467   8.190   9.193  0.1812 -0.3236 -0.7906
  590MOL0     O81285   2.332   8.192   9.226 -0.0970  0.2044 -0.2482
  590MOL0     C81286   2.274   8.163   9.348 -0.1451  0.7481  0.5744
  590MOL0     C81287   2.332   8.118   9.469  0.3604  0.1590  0.3237
  590MOL0     C81288   2.259   8.099   9.583  0.3870 -1.5994 -0.0250
  590MOL0     C81289   2.121   8.124   9.586  0.1661 -0.2866 -0.0157
  590MOL0     O81290   2.061   8.116   9.708 -0.3766 -0.2749  0.1355
  590MOL0     C81291   1.955   8.199   9.731  0.5335 -0.1053  0.1511
  590MOL0     C81292   1.875   8.136   9.846 -0.4841  0.4245  0.3042
  590MOL0     C81293   1.745   8.199   9.883  0.1537 -0.0617 -0.0880
  590MOL0     C81294   1.661   8.108   9.974  0.0863  0.1554 -0.2988
  590MOL0     C81295   1.542   8.183  10.037 -0.9137  0.3737 -1.2354
  590MOL0     C81296   1.435   8.221   9.933  0.1710  1.3101 -0.3334
  590MOL0     C81297   1.287   8.201   9.977 -0.7346 -0.5191 -1.0340
  590MOL0     C81298   1.193   8.143   9.867 -0.3708  0.5292 -0.0386
  590MOL0     N81299   1.056   8.168   9.900 -0.0679 -0.2346 -0.2959
  590MOL0     C81300   0.956   8.075   9.916  0.3234  0.4195 -0.3404
  590MOL0     C81301   0.845   8.142   9.944 -0.0474  0.0758 -0.2519
  590MOL0     C81302   0.707   8.083   9.947  0.0719 -0.5863 -0.6681
  590MOL0     C81303   0.672   8.074  10.093 -0.1266  0.0907 -0.6943
  590MOL0     C81304   0.539   7.987  10.112 -0.1141  0.1904 -1.2536
  590MOL0     C81305   0.479   8.033  10.250 -0.3227  0.9630 -0.4953
  590MOL0     O81306   0.574   8.022  10.356  0.3652  0.1509 -0.3802
  590MOL0     C81307   0.558   8.097  10.480 -0.3583  0.3669  0.6151
  590MOL0     C81308   0.434   8.127  10.528  0.0073  1.4835  1.5212
  590MOL0     C81309   0.414   8.190  10.648 -0.5538 -0.4285  0.9818
  590MOL0     C81310   0.269   8.221  10.689 -0.6753 -0.0064  0.2955
  590MOL0     C81311   0.521   8.236  10.737 -0.6081  0.9538  0.3764
  590MOL0     C81312   0.505   8.305  10.872 -0.4290  0.0055 -0.1055
  590MOL0     O81313   0.618   8.301  10.950 -0.3433 -0.7128 -0.5909
  590MOL0     C81314   0.613   8.372  11.069 -0.3984 -0.3480 -0.3368
  590MOL0     C81315   0.607   8.302  11.190 -0.3147 -0.1169 -0.6822
  590MOL0     C81316   0.597   8.368  11.317 -0.2001 -0.1491 -0.4018
  590MOL0     C81317   0.585   8.504  11.315  0.2966 -0.8407  0.3634
  590MOL0     O81318   0.566   8.582  11.431 -0.2273 -0.6435  0.6155
  590MOL0     C81319   0.485   8.515  11.529 -0.1500 -0.5828  0.0475
  590MOL0     C81320   0.501   8.580  11.669 -0.2465 -0.6967  1.0732
  590MOL0     C81321   0.405   8.506  11.757 -0.2574  0.2179  0.2556
  590MOL0     C81322   0.426   8.521  11.912  0.1970  0.5299  0.1366
  590MOL0     C81323   0.357   8.414  11.984  0.3860  0.7439 -0.4181
  590MOL0     C81324   0.381   8.454  12.135  0.7629  0.0086 -0.0720
  590MOL0     C81325   0.328   8.332  12.218 -0.1248 -1.1800  0.3269
  590MOL0     C81326   0.339   8.355  12.371 -0.4258 -0.3388  0.4917
  590MOL0    Cl81327   0.514   8.404  12.403  0.3750  0.1070 -0.0992
  590MOL0     C81328   0.608   8.570  11.194  0.5745 -0.2054 -0.5955
  590MOL0     C81329   0.622   8.505  11.072  0.2750  0.1602 -0.8348
  590MOL0     O81330   0.399   8.364  10.899  0.0532  0.3061 -0.5947
  590MOL0     C81331   0.650   8.193  10.688  0.6157  0.3341 -0.5365
  590MOL0     C81332   0.666   8.126  10.565  0.4034 -0.2375 -0.0806
  590MOL0     N81333   0.876   8.283   9.926  0.1499 -0.3230 -0.1191
  590MOL0     N81334   1.003   8.291   9.897 -0.0685  0.6502  0.0086
  590MOL0     C81335   2.060   8.169   9.468 -0.1142 -0.1447  0.2949
  590MOL0     C81336   2.131   8.178   9.345 -0.2818  0.6395 -0.0762
  590MOL0     C81337   2.503   8.220   9.050 -0.2230 -0.3655 -0.7097
  590MOL0     C81338   2.396   8.263   8.967 -0.0239 -0.2216  0.2388
  590MOL0     C81339   2.423   8.296   8.834 -0.0654 -0.0717  0.1481
  590MOL0     C81340   2.547   8.299   8.774  0.8524 -0.0106  0.0282
  590MOL0     O81341   2.563   8.346   8.646  0.0085 -0.4964  0.0905
  590MOL0     C81342   2.692   8.360   8.584 -0.2564 -0.0963  0.0413
  590MOL0     C81343   2.672   8.429   8.454 -0.3446 -0.2547 -0.2321
  590MOL0     C81344   2.810   8.436   8.387 -0.0607 -1.0716  1.2925
  590MOL0     C81345   2.813   8.534   8.267  0.1025 -0.2841 -0.0402
  590MOL0     C81346   2.736   8.477   8.155 -0.4250  0.5235 -0.7006
  590MOL0     C81347   2.677   8.446   8.055 -0.3875  1.0296 -0.7458
  590MOL0     C81348   2.656   8.269   8.858  0.8480 -0.3230 -0.6730
  590MOL0     C81349   2.632   8.229   8.996 -0.4516  0.1038  1.8680
  590MOL0     C81350   2.752   8.202   9.074  0.2426  0.3749  0.2178
  590MOL0     H81351   2.439   8.099   9.469  0.6413  1.2097 -2.6335
  590MOL0     H81352   2.303   8.061   9.675  0.6781 -0.5262  0.2982
  590MOL0     H81353   1.883   8.206   9.649  0.7032  0.4677  0.0451
  590MOL0     H81354   1.978   8.300   9.768  1.2693  0.6296 -2.1611
  590MOL0     H81355   1.855   8.033   9.817  3.1718 -0.5323  0.8149
  590MOL0     H81356   1.945   8.126   9.930 -2.0936 -0.9458  1.5565
  590MOL0     H81357   1.768   8.294   9.933  0.2644 -0.9540  1.6099
  590MOL0     H81358   1.686   8.226   9.795 -0.3056  0.9003  0.4979
  590MOL0     H81359   1.624   8.020   9.920 -0.2721  0.7533 -1.0433
  590MOL0     H81360   1.733   8.087  10.053 -1.2865  2.5354  1.7360
  590MOL0     H81361   1.583   8.272  10.085 -1.6408  0.4595 -0.7643
  590MOL0     H81362   1.501   8.113  10.110 -0.0819 -1.1735 -2.1942
  590MOL0     H81363   1.459   8.324   9.905 -0.1030  1.7323  0.9181
  590MOL0     H81364   1.472   8.170   9.844  3.6799  0.9409  1.1565
  590MOL0     H81365   1.257   8.302  10.007  0.6694 -0.6956  1.1850
  590MOL0     H81366   1.277   8.134  10.063 -0.1995 -0.0213 -0.5803
  590MOL0     H81367   1.216   8.186   9.769  0.9135  0.2280  0.1092
  590MOL0     H81368   1.213   8.035   9.862  0.2618  0.6266 -5.4877
  590MOL0     H81369   0.964   7.967   9.917  1.2194  0.4835  0.6664
  590MOL0     H81370   0.720   7.991   9.888  2.9086 -0.3029 -0.6406
  590MOL0     H81371   0.628   8.142   9.900  0.3303 -1.1917 -1.9305
  590MOL0     H81372   0.762   8.036  10.143 -0.6089  0.4870  0.5193
  590MOL0     H81373   0.667   8.175  10.134  2.6780 -0.2330  0.6547
  590MOL0     H81374   0.462   8.000  10.036 -1.0638 -0.9012 -0.5077
  590MOL0     H81375   0.565   7.881  10.119  1.4818  0.5502 -1.3069
  590MOL0     H81376   0.457   8.140  10.246  0.9658  1.2455 -0.5136
  590MOL0     H81377   0.391   7.974  10.279  0.0953 -0.9767 -2.8984
  590MOL0     H81378   0.349   8.112  10.463  0.9709  2.7306 -0.1052
  590MOL0     H81379   0.207   8.202  10.600 -0.9527  1.4860  0.1341
  590MOL0     H81380   0.252   8.322  10.727  0.1911 -0.5958  2.3523
  590MOL0     H81381   0.243   8.157  10.773  1.3997  1.1231  1.8831
  590MOL0     H81382   0.601   8.195  11.201 -1.5324  0.0465  0.5729
  590MOL0     H81383   0.589   8.301  11.402  2.3763 -0.2432 -0.1409
  590MOL0     H81384   0.378   8.515  11.504  0.4697  0.6871 -2.9627
  590MOL0     H81385   0.523   8.413  11.542 -1.6758 -1.7111 -3.3267
  590MOL0     H81386   0.601   8.557  11.708 -0.4999 -2.6771  0.6638
  590MOL0     H81387   0.472   8.685  11.674 -0.5706 -0.6865 -0.6275
  590MOL0     H81388   0.391   8.399  11.740 -3.6402  0.7101 -0.8167
  590MOL0     H81389   0.301   8.533  11.734 -0.5143 -1.3639 -0.5466
  590MOL0     H81390   0.392   8.619  11.948 -1.4560 -0.8790  2.7445
  590MOL0     H81391   0.532   8.518  11.938  0.7731  2.1133 -1.7355
  590MOL0     H81392   0.250   8.412  11.958 -0.3000  0.4299  2.1695
  590MOL0     H81393   0.393   8.315  11.956  2.1075  1.6323 -1.4745
  590MOL0     H81394   0.330   8.546  12.166 -0.0729 -0.0802 -1.1504
  590MOL0     H81395   0.489   8.464  12.151  0.5682 -0.5423  1.8507
  590MOL0     H81396   0.381   8.240  12.192  1.7487 -0.6576  2.0194
  590MOL0     H81397   0.225   8.312  12.189  0.5432 -0.8683 -2.6141
  590MOL0     H81398   0.312   8.274  12.440  0.9067  1.4641  3.2952
  590MOL0     H81399   0.273   8.438  12.394 -1.8915 -1.2134 -0.3786
  590MOL0     H81400   0.605   8.679  11.199  0.7200 -0.1848 -0.9357
  590MOL0     H81401   0.642   8.556  10.978  1.6657 -0.7076 -1.0377
  590MOL0     H81402   0.729   8.216  10.759  0.4251  1.7804 -0.7460
  590MOL0     H81403   0.768   8.101  10.537  1.6042  0.7583  2.9560
  590MOL0     H81404   1.953   8.187   9.464 -0.3900 -1.5068  1.0122
  590MOL0     H81405   2.074   8.204   9.256  0.4429  1.7828 -0.2165
  590MOL0     H81406   2.294   8.270   9.003  0.2184 -0.7439  1.0559
  590MOL0     H81407   2.337   8.319   8.772 -1.9857  2.2555  3.3749
  590MOL0     H81408   2.751   8.428   8.647 -0.4317 -1.8919  2.2997
  590MOL0     H81409   2.748   8.268   8.568 -1.1004 -0.4883 -0.7726
  590MOL0     H81410   2.638   8.532   8.469  0.8791  0.1331  0.0147
  590MOL0     H81411   2.597   8.376   8.396  1.5966 -1.5865 -1.6633
  590MOL0     H81412   2.891   8.459   8.457  1.5010 -2.4377  0.0409
  590MOL0     H81413   2.845   8.337   8.355  0.2304 -1.2072  2.0108
  590MOL0     H81414   2.915   8.560   8.239 -0.9753  1.4076 -2.7754
  590MOL0     H81415   2.777   8.632   8.298  1.3599  1.4912 -3.5944
  590MOL0     H81416   2.616   8.403   7.979  1.8021  0.8201 -2.4915
  590MOL0     H81417   2.761   8.277   8.830  1.6541 -0.8223  1.9233
  590MOL0     H81418   2.723   8.134   9.154 -1.9737  2.1141  1.0070
  590MOL0     H81419   2.834   8.157   9.017 -0.0249  0.2759 -0.0921
  590MOL0     H81420   2.794   8.289   9.125  5.2130 -0.7183 -1.4907
  591MOL0     O81421   4.306   8.206   3.231 -0.4332  0.0181 -0.1364
  591MOL0     C81422   4.285   8.229   3.108 -0.6601 -0.3726 -0.8889
  591MOL0     O81423   4.380   8.201   3.013  0.1805  0.1336 -0.0227
  591MOL0     C81424   4.505   8.166   3.061  0.0865 -0.2877  0.0879
  591MOL0     C81425   4.605   8.264   3.071 -1.0468 -0.7937 -0.1226
  591MOL0     C81426   4.729   8.233   3.136 -0.1817  0.2443 -0.5259
  591MOL0     C81427   4.745   8.106   3.189  0.0338 -0.2995 -0.8355
  591MOL0     O81428   4.848   8.071   3.267  0.0977  0.7748  0.0423
  591MOL0     C81429   4.958   8.173   3.282 -0.0635  0.4591  0.9373
  591MOL0     C81430   5.083   8.114   3.352  0.6394 -0.3252 -0.3270
  591MOL0     C81431   5.077   8.068   3.497  0.2854 -0.1727 -0.2401
  591MOL0     C81432   4.980   8.150   3.584  0.0685 -0.9494  0.6859
  591MOL0     C81433   4.980   8.083   3.724  0.1867 -0.7947 -0.0348
  591MOL0     C81434   4.873   8.142   3.813  0.5350 -0.4997 -0.1484
  591MOL0     C81435   4.737   8.086   3.773 -0.2132 -1.0302  0.3508
  591MOL0     C81436   4.631   8.143   3.867  1.2381 -0.2285  0.4279
  591MOL0     N81437   4.610   8.274   3.834 -0.3914 -0.8062  0.4267
  591MOL0     C81438   4.566   8.331   3.715 -0.6862 -0.9866 -0.6324
  591MOL0     C81439   4.584   8.462   3.731 -0.0611  0.0704  0.1618
  591MOL0     C81440   4.549   8.584   3.651 -0.4116  0.5685 -0.1359
  591MOL0     C81441   4.446   8.558   3.539  0.5555 -0.2953 -1.1652
  591MOL0     C81442   4.498   8.505   3.411  0.4094  0.3817  0.2238
  591MOL0     C81443   4.570   8.612   3.329 -0.0047 -0.9085  0.9954
  591MOL0     O81444   4.660   8.559   3.228 -0.3691 -0.6462  0.2901
  591MOL0     C81445   4.795   8.552   3.259  0.0064 -0.8148 -0.6238
  591MOL0     C81446   4.893   8.564   3.156  0.0727  0.7354  0.0052
  591MOL0     C81447   5.033   8.545   3.176 -0.0056  0.0724  0.2971
  591MOL0     C81448   5.122   8.543   3.058 -0.4843 -0.0676  0.2503
  591MOL0     C81449   5.079   8.536   3.309  0.0450  0.3016  0.9861
  591MOL0     C81450   5.220   8.502   3.345 -0.2039  0.2606  0.0572
  591MOL0     O81451   5.235   8.412   3.458 -0.1911  0.2901  0.2049
  591MOL0     C81452   5.354   8.400   3.522 -0.2165  0.4374 -0.2476
  591MOL0     C81453   5.401   8.276   3.543 -0.8051  0.0136  0.2911
  591MOL0     C81454   5.523   8.251   3.608  0.5611 -0.0525  0.2292
  591MOL0     C81455   5.584   8.359   3.679 -0.3893  0.8942 -0.7830
  591MOL0     O81456   5.694   8.346   3.763 -0.3368  0.8876 -0.4748
  591MOL0     C81457   5.738   8.213   3.788  0.6469  0.1372 -0.3150
  591MOL0     C81458   5.776   8.195   3.926 -0.4538  0.0877 -1.3207
  591MOL0     C81459   5.737   8.055   3.985  0.5691  0.0885  0.5973
  591MOL0     C81460   5.843   7.952   3.959 -0.0202 -0.2043 -0.5826
  591MOL0     C81461   5.795   7.820   4.025  0.1985  0.6221 -0.4603
  591MOL0     C81462   5.654   7.767   3.977 -0.3847 -0.6932 -0.2788
  591MOL0     C81463   5.641   7.613   3.983 -0.2589 -0.2652  0.0563
  591MOL0     C81464   5.506   7.553   3.992 -0.0888  0.1617  0.3505
  591MOL0    Cl81465   5.500   7.378   3.991 -0.1569  0.6383  0.6854
  591MOL0     C81466   5.531   8.486   3.656 -0.1600  0.4654  0.3654
  591MOL0     C81467   5.424   8.510   3.580  0.3462 -0.3362 -0.0707
  591MOL0     O81468   5.316   8.542   3.280 -0.9925  0.0193 -0.4988
  591MOL0     C81469   4.982   8.537   3.413 -0.3398 -0.9584 -0.0067
  591MOL0     C81470   4.847   8.542   3.388 -0.0996 -0.0241 -0.5097
  591MOL0     N81471   4.642   8.483   3.854  0.1266  0.3922 -0.5715
  591MOL0     N81472   4.654   8.376   3.916 -0.0305 -0.5415 -0.4710
  591MOL0     C81473   4.651   8.007   3.174  0.4935  0.3661 -0.5317
  591MOL0     C81474   4.528   8.037   3.106  0.2870 -0.1760 -0.1862
  591MOL0     C81475   4.161   8.304   3.073 -0.5193 -0.6946  0.1163
  591MOL0     C81476   4.040   8.285   3.142 -0.5400 -0.4879 -0.2535
  591MOL0     C81477   3.930   8.359   3.117 -0.1030 -0.0689 -0.6809
  591MOL0     C81478   3.933   8.460   3.027 -0.4964 -1.1271  0.2772
  591MOL0     O81479   3.816   8.516   2.998 -0.2598  0.5873 -0.0155
  591MOL0     C81480   3.786   8.652   2.963 -0.3873 -0.3615  0.5766
  591MOL0     C81481   3.843   8.753   3.062 -0.1515 -0.1279  0.3085
  591MOL0     C81482   3.763   8.769   3.189 -0.3957  0.5263 -0.5207
  591MOL0     C81483   3.752   8.917   3.230 -0.4969  0.1849 -0.2322
  591MOL0     C81484   3.880   8.968   3.281 -0.3275  0.9273 -0.5196
  591MOL0     C81485   3.982   9.015   3.315  0.4815  0.5373  0.5974
  591MOL0     C81486   4.056   8.489   2.958  0.5757 -0.5139 -0.3124
  591MOL0     C81487   4.160   8.409   2.972  0.1026 -0.0012  0.8240
  591MOL0     C81488   4.276   8.441   2.884  0.6650  0.2702  0.0200
  591MOL0     H81489   4.586   8.366   3.040  0.3125  0.0183  1.5229
  591MOL0     H81490   4.801   8.314   3.125  1.1339 -0.9375 -0.8810
  591MOL0     H81491   4.906   8.255   3.332 -1.0338  0.7984 -0.5484
  591MOL0     H81492   4.993   8.206   3.183 -2.3583 -1.0646 -0.4887
  591MOL0     H81493   5.112   8.027   3.293  2.1733 -0.8796  1.1969
  591MOL0     H81494   5.162   8.189   3.341  0.3069  0.1043  0.1253
  591MOL0     H81495   5.022   7.974   3.496 -1.3255  0.6978  1.4909
  591MOL0     H81496   5.180   8.058   3.533  0.5076  0.1379 -0.7739
  591MOL0     H81497   5.003   8.256   3.571 -0.8585 -0.9760 -1.6797
  591MOL0     H81498   4.878   8.144   3.544 -0.8918  5.6242  1.0888
  591MOL0     H81499   5.072   8.100   3.781 -0.8812 -0.3604  1.6507
  591MOL0     H81500   4.956   7.979   3.701 -1.0721 -0.1547 -1.8030
  591MOL0     H81501   4.893   8.129   3.920 -0.4548  1.8322  0.3923
  591MOL0     H81502   4.869   8.251   3.797 -0.9729 -0.6314 -0.8046
  591MOL0     H81503   4.728   7.978   3.787 -4.0040 -0.7611  1.0211
  591MOL0     H81504   4.712   8.119   3.672  1.5457 -0.1894  0.1509
  591MOL0     H81505   4.536   8.090   3.853 -0.5655  3.1615 -1.6225
  591MOL0     H81506   4.659   8.120   3.970  2.3766  1.2174  0.4784
  591MOL0     H81507   4.515   8.277   3.635 -1.9919 -1.0226  0.1819
  591MOL0     H81508   4.640   8.618   3.600  1.0355 -1.8852  0.6247
  591MOL0     H81509   4.510   8.657   3.723 -3.7757 -0.6697 -0.5634
  591MOL0     H81510   4.359   8.506   3.579  0.6834  2.5112  3.4622
  591MOL0     H81511   4.411   8.660   3.520  0.1694  0.4757  2.8232
  591MOL0     H81512   4.560   8.417   3.432 -0.9241 -0.7731 -0.4837
  591MOL0     H81513   4.411   8.475   3.352  1.0530 -1.3063  0.0811
  591MOL0     H81514   4.490   8.663   3.275  0.6863  0.2488  1.0457
  591MOL0     H81515   4.619   8.691   3.387 -2.9234  2.0066 -0.2011
  591MOL0     H81516   4.858   8.577   3.054 -1.7925 -2.4160  0.0964
  591MOL0     H81517   5.176   8.636   3.038  0.5599 -0.8422 -0.6356
  591MOL0     H81518   5.069   8.528   2.964  1.9396  4.3656 -2.1312
  591MOL0     H81519   5.201   8.467   3.067 -0.1751 -0.0615 -1.9584
  591MOL0     H81520   5.350   8.198   3.488 -1.3904  0.7172 -0.1706
  591MOL0     H81521   5.560   8.149   3.611  3.3344  0.7829 -1.5629
  591MOL0     H81522   5.663   8.135   3.776 -2.8455  2.6992  2.8578
  591MOL0     H81523   5.829   8.201   3.727  2.0449  1.6179  1.3569
  591MOL0     H81524   5.879   8.226   3.949 -0.3396 -0.4044 -1.1569
  591MOL0     H81525   5.714   8.265   3.983 -0.5266  1.5527 -3.1061
  591MOL0     H81526   5.647   8.026   3.931  1.2616  1.1255 -1.2128
  591MOL0     H81527   5.709   8.065   4.090 -0.3108  2.1668  0.2285
  591MOL0     H81528   5.931   7.988   4.011 -2.2813  2.9538  1.4310
  591MOL0     H81529   5.859   7.941   3.852 -0.5350 -0.0606 -0.6785
  591MOL0     H81530   5.869   7.742   4.003  0.7213  0.5043  1.5231
  591MOL0     H81531   5.794   7.838   4.133  0.2327  0.5146 -0.4425
  591MOL0     H81532   5.629   7.793   3.873  2.5175  2.1719 -0.4299
  591MOL0     H81533   5.584   7.814   4.046 -0.0152  0.6119 -0.7545
  591MOL0     H81534   5.699   7.590   4.073  0.3597 -0.2353 -0.3313
  591MOL0     H81535   5.693   7.574   3.895  2.9658  0.8471  1.3225
  591MOL0     H81536   5.453   7.594   3.906  2.7214 -0.9398 -2.0890
  591MOL0     H81537   5.444   7.589   4.074  0.2829  0.5113  0.4849
  591MOL0     H81538   5.583   8.576   3.689  0.3995  0.5110 -0.5973
  591MOL0     H81539   5.378   8.606   3.561  0.2255  0.5455  3.7798
  591MOL0     H81540   5.001   8.510   3.517  0.7700  0.1634  0.1028
  591MOL0     H81541   4.789   8.544   3.480 -1.0164 -0.7281 -1.0563
  591MOL0     H81542   4.661   7.914   3.228  1.1190  0.5370 -0.3459
  591MOL0     H81543   4.462   7.953   3.089 -0.5227  0.7845 -2.0362
  591MOL0     H81544   4.040   8.218   3.227 -2.4815 -2.3449 -1.6234
  591MOL0     H81545   3.846   8.335   3.181  0.4049  1.7606  0.7779
  591MOL0     H81546   3.822   8.670   2.861  1.3266 -4.1913  0.3407
  591MOL0     H81547   3.678   8.666   2.958 -0.3203 -0.1707 -0.4733
  591MOL0     H81548   3.835   8.852   3.017 -2.0827  0.1140  1.0640
  591MOL0     H81549   3.945   8.728   3.090 -0.8417 -0.5724  2.6560
  591MOL0     H81550   3.660   8.737   3.171 -0.0476 -1.4421  0.6756
  591MOL0     H81551   3.809   8.715   3.272  1.3469  1.0955 -1.0734
  591MOL0     H81552   3.678   8.926   3.310  0.7151 -0.1827  0.9746
  591MOL0     H81553   3.706   8.977   3.151 -0.6598  2.2601  1.3482
  591MOL0     H81554   4.076   9.052   3.350  1.7840 -2.7348  0.9070
  591MOL0     H81555   4.059   8.571   2.887  1.2839 -0.3722 -0.1285
  591MOL0     H81556   4.371   8.456   2.936  1.8132  0.1345 -1.9433
  591MOL0     H81557   4.293   8.358   2.815  0.6105  0.9532 -0.8320
  591MOL0     H81558   4.255   8.521   2.812  3.0772  0.5144 -0.4964
  592MOL0     O81559   4.429   6.147   9.489  0.2114  0.8997 -0.2025
  592MOL0     C81560   4.444   6.043   9.555  0.2979 -0.2099 -0.9166
  592MOL0     O81561   4.516   6.038   9.668 -0.4982 -0.8517  0.6554
  592MOL0     C81562   4.588   6.137   9.722 -1.3311 -0.0118  0.6732
  592MOL0     C81563   4.692   6.095   9.803  0.6263  1.0693 -0.8084
  592MOL0     C81564   4.770   6.199   9.867  0.0281  0.5453 -0.4566
  592MOL0     C81565   4.737   6.332   9.856  0.4116  0.1557  0.0521
  592MOL0     O81566   4.798   6.430   9.928  0.3267 -0.0893  0.2319
  592MOL0     C81567   4.915   6.405  10.008  0.0708  0.0386 -0.3377
  592MOL0     C81568   4.980   6.535  10.054 -0.2311 -0.9352 -0.0173
  592MOL0     C81569   5.049   6.602   9.928  0.1920  0.0133  0.4308
  592MOL0     C81570   5.087   6.758   9.943 -0.2762  0.4739  0.3326
  592MOL0     C81571   5.130   6.811   9.803  0.6731  0.6961  0.3967
  592MOL0     C81572   5.177   6.956   9.801  0.5450 -0.2007  0.2724
  592MOL0     C81573   5.304   6.983   9.885  0.0344  0.3247 -0.4677
  592MOL0     C81574   5.362   7.111   9.831  0.4870  0.9436  0.9073
  592MOL0     N81575   5.479   7.148   9.922  0.0662  0.4359  1.0903
  592MOL0     C81576   5.599   7.080   9.923  0.0259  0.0302  0.3185
  592MOL0     C81577   5.684   7.152   9.995  0.0383  0.8365  0.1787
  592MOL0     C81578   5.824   7.098  10.035 -0.0222 -0.1975 -1.2681
  592MOL0     C81579   5.943   7.193   9.987  0.9542 -0.0029 -0.2164
  592MOL0     C81580   5.973   7.295  10.099  0.3806  0.5352  0.2899
  592MOL0     C81581   6.077   7.403  10.074 -0.7489  0.0706  0.0002
  592MOL0     O81582   6.179   7.363   9.982 -0.1387 -0.0209  0.0333
  592MOL0     C81583   6.269   7.462   9.947 -0.1485  0.1786 -0.4603
  592MOL0     C81584   6.298   7.580  10.020 -0.1462  0.0557  0.1585
  592MOL0     C81585   6.393   7.672   9.978 -0.1901 -0.2883 -0.0478
  592MOL0     C81586   6.416   7.799  10.059 -0.0037 -0.2547  0.2189
  592MOL0     C81587   6.480   7.634   9.869 -0.8965  0.2181  1.1524
  592MOL0     C81588   6.604   7.700   9.826  0.1351 -0.8823  0.1997
  592MOL0     O81589   6.650   7.676   9.702 -0.0316 -0.0196 -0.4823
  592MOL0     C81590   6.748   7.766   9.650  0.4548  0.6911  0.2429
  592MOL0     C81591   6.719   7.896   9.619 -0.2565  0.1744  0.2243
  592MOL0     C81592   6.820   7.972   9.554 -0.0056 -0.8928  0.2607
  592MOL0     C81593   6.949   7.917   9.531  0.1905 -0.8171 -0.1008
  592MOL0     O81594   7.040   8.013   9.480 -0.3981  0.3669 -0.1762
  592MOL0     C81595   7.179   7.972   9.486 -0.2173  0.4499  0.3682
  592MOL0     C81596   7.262   8.097   9.435 -0.8984  0.2356  0.0241
  592MOL0     C81597   7.412   8.073   9.416  0.2949  0.2391 -0.2012
  592MOL0     C81598   7.448   8.011   9.277 -0.1882  0.7188 -0.0611
  592MOL0     C81599   7.596   7.998   9.255  0.7142  0.8038  0.6740
  592MOL0     C81600   7.611   7.910   9.125 -0.4097 -0.1635 -0.0003
  592MOL0     C81601   7.760   7.869   9.113  0.0086  0.4447  0.6794
  592MOL0     C81602   7.788   7.761   9.007 -0.3754  0.5837 -0.5228
  592MOL0    Cl81603   7.855   7.817   8.846 -0.4181  0.1590 -0.0955
  592MOL0     C81604   6.965   7.785   9.558 -0.2578 -0.2867 -0.3416
  592MOL0     C81605   6.870   7.712   9.623 -0.0409 -0.2467  0.2989
  592MOL0     O81606   6.656   7.770   9.905 -0.0585  0.3844  0.0086
  592MOL0     C81607   6.464   7.511   9.803 -0.2650  0.0877 -0.6589
  592MOL0     C81608   6.349   7.432   9.840  0.2495 -0.2591  0.1212
  592MOL0     N81609   5.623   7.277  10.024 -0.3386  0.9505 -0.0958
  592MOL0     N81610   5.499   7.265   9.985  0.3608 -0.5631 -0.3484
  592MOL0     C81611   4.633   6.367   9.772 -0.0458 -0.0991  0.3041
  592MOL0     C81612   4.558   6.270   9.715 -0.2274  0.5589  0.0903
  592MOL0     C81613   4.361   5.931   9.523  0.6673  0.2072 -0.8353
  592MOL0     C81614   4.234   5.956   9.462  1.2695 -0.1482  0.2638
  592MOL0     C81615   4.150   5.851   9.430 -0.0344  0.2529 -0.6086
  592MOL0     C81616   4.184   5.716   9.459 -0.0502 -0.5728  0.7890
  592MOL0     O81617   4.098   5.608   9.436 -0.0375 -0.1798  0.0909
  592MOL0     C81618   3.957   5.637   9.414  0.0175  0.3142 -0.8456
  592MOL0     C81619   3.878   5.508   9.437 -0.4029  0.4624 -0.4797
  592MOL0     C81620   3.922   5.424   9.567  0.2425 -0.9998 -0.0826
  592MOL0     C81621   3.824   5.329   9.617  0.0839 -0.5004  0.1719
  592MOL0     C81622   3.779   5.233   9.516  0.5526  0.0374  0.3161
  592MOL0     C81623   3.742   5.170   9.417 -0.6520  0.6404  0.2263
  592MOL0     C81624   4.312   5.693   9.510 -1.1555  0.9022  0.0045
  592MOL0     C81625   4.405   5.798   9.534  0.0537 -0.2202 -0.8439
  592MOL0     C81626   4.543   5.768   9.573  0.1699  0.3600 -0.1704
  592MOL0     H81627   4.719   5.993   9.829  3.4035  1.9977  0.2534
  592MOL0     H81628   4.856   6.170   9.926  0.1795  2.6337  0.4258
  592MOL0     H81629   4.992   6.352   9.950 -0.4319 -3.4818  1.9420
  592MOL0     H81630   4.897   6.352  10.102 -1.3381  0.8867 -0.1002
  592MOL0     H81631   4.902   6.600  10.091  1.9197  1.7931  0.0309
  592MOL0     H81632   5.048   6.514  10.138  0.8596  0.1947 -0.5812
  592MOL0     H81633   5.141   6.548   9.901  0.5669 -0.4413  2.4181
  592MOL0     H81634   4.977   6.608   9.847  2.4218 -0.8480 -1.7591
  592MOL0     H81635   5.008   6.824   9.979 -3.1410 -1.3978 -2.0491
  592MOL0     H81636   5.178   6.770  10.002  0.5439  3.9099 -1.3497
  592MOL0     H81637   5.040   6.797   9.743  1.2316 -0.8366 -0.1338
  592MOL0     H81638   5.205   6.747   9.755  0.2101 -0.5577  1.3018
  592MOL0     H81639   5.199   6.971   9.695 -0.4565 -1.6097 -0.1724
  592MOL0     H81640   5.098   7.019   9.842 -0.3333 -1.9907  1.4508
  592MOL0     H81641   5.373   6.899   9.872  1.4009  1.4105 -0.3747
  592MOL0     H81642   5.291   6.987   9.993  2.8178  0.7351 -0.0839
  592MOL0     H81643   5.402   7.100   9.730 -0.9415 -0.9013  0.5011
  592MOL0     H81644   5.292   7.195   9.824 -0.9892 -0.0922  2.4672
  592MOL0     H81645   5.622   6.986   9.875  0.9281  0.0556  0.6853
  592MOL0     H81646   5.841   7.000   9.990  0.2657 -1.1699  0.8427
  592MOL0     H81647   5.823   7.080  10.143 -2.0653  1.1022 -1.0127
  592MOL0     H81648   6.030   7.130   9.966 -0.0730 -1.4995 -0.1409
  592MOL0     H81649   5.917   7.238   9.891  0.4516  0.4071  0.1088
  592MOL0     H81650   5.880   7.345  10.127  0.0533  0.5076 -0.6835
  592MOL0     H81651   6.004   7.238  10.186  1.2069  1.5868  0.7093
  592MOL0     H81652   6.020   7.480  10.021  1.3457 -0.4024 -3.1872
  592MOL0     H81653   6.119   7.442  10.167 -1.3813  1.9510 -0.4697
  592MOL0     H81654   6.230   7.609  10.100 -0.1747  0.9751 -0.1922
  592MOL0     H81655   6.490   7.783  10.139 -0.6482 -3.6589  0.3002
  592MOL0     H81656   6.320   7.833  10.096  0.0567  1.6212 -1.2241
  592MOL0     H81657   6.459   7.876   9.994 -3.7478  0.5156 -1.5935
  592MOL0     H81658   6.619   7.935   9.638  0.0632  1.4285 -0.5504
  592MOL0     H81659   6.791   8.073   9.529 -3.6394 -1.0553  3.0544
  592MOL0     H81660   7.198   7.947   9.591  2.9083  1.2963  0.1124
  592MOL0     H81661   7.210   7.890   9.421 -1.9887  0.7496 -0.9300
  592MOL0     H81662   7.219   8.120   9.337 -0.3597 -0.0061 -0.2722
  592MOL0     H81663   7.243   8.184   9.500 -0.9712 -0.4870  0.9976
  592MOL0     H81664   7.434   7.998   9.492 -1.2353 -0.0848 -0.0532
  592MOL0     H81665   7.459   8.168   9.444 -0.8478  0.7497  0.0408
  592MOL0     H81666   7.411   8.076   9.197 -2.8840 -1.5903 -0.8977
  592MOL0     H81667   7.401   7.914   9.258  3.1272 -0.7881 -1.3748
  592MOL0     H81668   7.646   8.094   9.240  1.1335  0.1709 -2.7960
  592MOL0     H81669   7.647   7.949   9.339 -1.6835 -2.5424  0.3643
  592MOL0     H81670   7.594   7.972   9.036  1.2669 -1.8487 -1.5847
  592MOL0     H81671   7.543   7.825   9.124  0.1789 -0.6488 -1.0421
  592MOL0     H81672   7.807   7.837   9.206  1.3748 -0.2385 -0.2053
  592MOL0     H81673   7.825   7.950   9.079  1.3944 -0.3020  1.4723
  592MOL0     H81674   7.698   7.704   8.982  0.7884 -0.8483 -1.5733
  592MOL0     H81675   7.850   7.684   9.051 -2.1466  0.1148  1.3072
  592MOL0     H81676   7.059   7.735   9.539 -0.1892 -1.0088  1.6326
  592MOL0     H81677   6.882   7.607   9.649 -3.4901 -0.6980  0.5014
  592MOL0     H81678   6.533   7.476   9.726  2.8020  0.9926  1.5046
  592MOL0     H81679   6.327   7.338   9.790 -1.0548 -1.1848  2.3171
  592MOL0     H81680   4.596   6.469   9.773  2.6003  1.0843 -3.1219
  592MOL0     H81681   4.460   6.291   9.675 -1.9077 -2.6554  2.1016
  592MOL0     H81682   4.198   6.056   9.443  3.8170  0.6891 -0.6045
  592MOL0     H81683   4.055   5.884   9.389  0.2017 -0.3143 -1.6346
  592MOL0     H81684   3.920   5.725   9.468 -2.9972 -1.0084 -0.5738
  592MOL0     H81685   3.951   5.669   9.309  1.5804  1.0638 -0.7432
  592MOL0     H81686   3.886   5.449   9.345 -3.3435 -0.7779 -0.0774
  592MOL0     H81687   3.774   5.537   9.455 -0.1940  1.2409 -0.4988
  592MOL0     H81688   4.017   5.373   9.551  1.7892  2.1719 -2.1644
  592MOL0     H81689   3.929   5.487   9.656  0.7905  0.3244 -1.0276
  592MOL0     H81690   3.728   5.371   9.651 -0.7742 -1.2091 -1.2781
  592MOL0     H81691   3.866   5.274   9.702 -1.8482  2.3120  3.2121
  592MOL0     H81692   3.702   5.120   9.331  0.3911 -2.9854  1.6471
  592MOL0     H81693   4.341   5.588   9.515 -0.3565  0.8796 -2.9517
  592MOL0     H81694   4.553   5.792   9.679  0.6079 -2.1790  0.4305
  592MOL0     H81695   4.550   5.659   9.566 -1.8136  0.2509 -1.2599
  592MOL0     H81696   4.614   5.826   9.514 -0.3405  1.8318  0.6316
  593MOL0     O81697  10.819   9.019  11.318  0.7342 -0.0614 -0.7201
  593MOL0     C81698  10.778   8.994  11.431 -0.3535 -0.2771  0.3180
  593MOL0     O81699  10.805   9.057  11.539 -0.3316  0.4281 -0.0366
  593MOL0     C81700  10.887   9.167  11.542  0.1394 -0.0290 -0.4329
  593MOL0     C81701  11.024   9.160  11.523  0.7133  0.1688 -0.2904
  593MOL0     C81702  11.097   9.274  11.523 -0.6532  0.1857 -0.1524
  593MOL0     C81703  11.046   9.396  11.545 -0.1613  0.5802 -0.2167
  593MOL0     O81704  11.128   9.502  11.553 -0.3469 -0.1611  0.4484
  593MOL0     C81705  11.099   9.613  11.469 -0.7587 -0.0636  1.0252
  593MOL0     C81706  11.207   9.726  11.471  0.1190  1.0145  0.4364
  593MOL0     C81707  11.341   9.665  11.416  0.3839  0.4100 -0.1811
  593MOL0     C81708  11.474   9.725  11.459 -0.1142  0.4518  0.4507
  593MOL0     C81709  11.483   9.764  11.606 -0.5795  1.1503  0.2344
  593MOL0     C81710  11.610   9.845  11.643 -0.4830  0.5060 -0.7884
  593MOL0     C81711  11.730   9.791  11.578  0.3987  0.1188  0.6769
  593MOL0     C81712  11.862   9.848  11.637 -0.1664 -0.0998  0.4671
  593MOL0     N81713  11.977   9.817  11.555 -0.1293 -0.1077  0.2813
  593MOL0     C81714  11.989   9.706  11.464 -0.1260  0.0771 -0.3516
  593MOL0     C81715  12.105   9.736  11.400 -0.2089 -0.1469 -0.1007
  593MOL0     C81716  12.153   9.666  11.267  0.1025  0.1815  0.9803
  593MOL0     C81717  12.168   9.764  11.156 -0.3970  0.1492 -0.1988
  593MOL0     C81718  12.213   9.713  11.023  0.1896  0.0220 -0.5773
  593MOL0     C81719  12.215   9.804  10.905  0.0170  0.1738 -0.0448
  593MOL0     O81720  12.268   9.940  10.929 -0.4370 -0.3643  0.0077
  593MOL0     C81721  12.404   9.951  10.940  0.6605  0.2433  0.7146
  593MOL0     C81722  12.505   9.866  10.900  0.4717 -0.6597 -0.8068
  593MOL0     C81723  12.635   9.900  10.932 -0.2857  0.3083 -0.0194
  593MOL0     C81724  12.736   9.802  10.890 -0.2985 -0.1935 -0.7800
  593MOL0     C81725  12.659  10.021  11.005 -0.2660  0.5502 -0.0822
  593MOL0     C81726  12.797  10.064  11.040  0.4878  0.2074 -0.0572
  593MOL0     O81727  12.809  10.150  11.143 -0.2711  0.0944  0.0705
  593MOL0     C81728  12.929  10.213  11.143  0.4038 -0.4811 -0.3949
  593MOL0     C81729  13.014  10.200  11.249  0.4791 -0.2350 -0.5621
  593MOL0     C81730  13.130  10.278  11.250 -1.2594  0.3173 -0.1727
  593MOL0     C81731  13.165  10.371  11.155  0.3746  0.7982  0.4067
  593MOL0     O81732  13.282  10.443  11.169 -0.4001 -0.2226  0.1221
  593MOL0     C81733  13.311  10.535  11.062 -0.7524  0.5411 -0.6221
  593MOL0     C81734  13.453  10.583  11.084  0.0207 -0.6420 -0.2658
  593MOL0     C81735  13.493  10.634  11.227  0.3134  0.7604 -0.5545
  593MOL0     C81736  13.645  10.672  11.245  0.9486  0.5048 -0.2166
  593MOL0     C81737  13.686  10.696  11.390 -0.2998  0.3667  0.5392
  593MOL0     C81738  13.827  10.762  11.395  0.0518  0.8262  0.3040
  593MOL0     C81739  13.876  10.780  11.540  0.0451  0.8301 -0.1003
  593MOL0     C81740  13.807  10.895  11.597  0.1548 -0.4297 -0.3233
  593MOL0    Cl81741  13.884  10.936  11.757  0.3702  0.0687 -0.1105
  593MOL0     C81742  13.079  10.381  11.037  0.0272 -0.7545  0.4781
  593MOL0     C81743  12.961  10.310  11.035  0.0909  0.3281  0.2223
  593MOL0     O81744  12.895  10.020  10.974  0.2012  0.3199  0.5601
  593MOL0     C81745  12.554  10.102  11.045 -0.2686 -0.9550  1.0113
  593MOL0     C81746  12.425  10.064  11.015  0.6284 -0.6360 -0.6230
  593MOL0     N81747  12.154   9.859  11.446  0.3249  0.0833 -0.1400
  593MOL0     N81748  12.078   9.908  11.540 -0.0422  0.2326  0.2426
  593MOL0     C81749  10.910   9.409  11.559  0.6926 -0.3009  0.1069
  593MOL0     C81750  10.830   9.292  11.560  0.1168 -0.9696 -0.7825
  593MOL0     C81751  10.702   8.865  11.432 -0.7897  0.3618 -0.2531
  593MOL0     C81752  10.750   8.750  11.500  0.7082  1.1839  0.2628
  593MOL0     C81753  10.680   8.628  11.500 -0.0574 -0.3466  0.2360
  593MOL0     C81754  10.571   8.616  11.406  0.4259  0.2259 -0.2136
  593MOL0     O81755  10.502   8.501  11.393 -0.5406 -0.0827 -0.1045
  593MOL0     C81756  10.558   8.371  11.410  0.2199 -0.0206  0.3887
  593MOL0     C81757  10.481   8.264  11.337  0.3798  0.2880  0.2035
  593MOL0     C81758  10.537   8.130  11.339 -1.2301  0.8701  0.0662
  593MOL0     C81759  10.520   8.052  11.478  0.0098 -0.1956  0.2190
  593MOL0     C81760  10.622   8.083  11.579  0.6770 -0.1424  0.5728
  593MOL0     C81761  10.716   8.115  11.649 -0.1274 -0.2190 -0.4946
  593MOL0     C81762  10.521   8.731  11.340  1.0471  0.4038  0.6538
  593MOL0     C81763  10.584   8.853  11.355 -0.3358 -0.2980 -0.5741
  593MOL0     C81764  10.524   8.982  11.298 -0.1001 -0.4538 -0.3631
  593MOL0     H81765  11.065   9.061  11.511  0.5793 -0.1783  1.6911
  593MOL0     H81766  11.205   9.265  11.522 -0.7172 -0.6401 -0.3190
  593MOL0     H81767  11.011   9.664  11.509 -2.2637  1.0467 -3.1194
  593MOL0     H81768  11.091   9.587  11.363  1.9876  0.4592  0.6146
  593MOL0     H81769  11.181   9.812  11.410  2.7362  0.3280 -1.8172
  593MOL0     H81770  11.210   9.759  11.575  1.3790  1.7246  0.1890
  593MOL0     H81771  11.353   9.563  11.452 -0.0831 -0.1774 -1.5964
  593MOL0     H81772  11.333   9.658  11.307 -1.7912  1.5137 -0.1498
  593MOL0     H81773  11.553   9.651  11.444 -0.7639  0.1998 -2.1673
  593MOL0     H81774  11.499   9.818  11.406 -1.0840  0.1447 -0.5939
  593MOL0     H81775  11.499   9.670  11.661  3.2558  0.9894 -0.8712
  593MOL0     H81776  11.398   9.815  11.651 -3.0490 -1.2159 -1.4603
  593MOL0     H81777  11.589   9.949  11.617 -1.7167  0.4004 -0.2568
  593MOL0     H81778  11.623   9.846  11.752 -1.1231 -2.0865 -0.6229
  593MOL0     H81779  11.726   9.808  11.470  0.3557  0.7914  0.7824
  593MOL0     H81780  11.728   9.685  11.605 -0.5157  0.0652  0.4569
  593MOL0     H81781  11.859   9.957  11.652  2.3793 -0.1515  2.1616
  593MOL0     H81782  11.877   9.799  11.734  4.0294  1.2171  0.6983
  593MOL0     H81783  11.920   9.626  11.440  1.1337 -0.7918 -1.2205
  593MOL0     H81784  12.088   9.594  11.216 -0.6565  1.0739  0.6713
  593MOL0     H81785  12.242   9.606  11.289 -0.1563 -0.5766  0.0302
  593MOL0     H81786  12.064   9.797  11.143 -1.1292 -1.4798  1.1039
  593MOL0     H81787  12.232   9.843  11.197  2.4136 -1.7383 -0.6556
  593MOL0     H81788  12.319   9.687  11.031 -0.1866 -1.0131  3.3780
  593MOL0     H81789  12.159   9.622  10.996 -0.9368  0.9493 -1.5246
  593MOL0     H81790  12.279   9.751  10.833 -1.3266 -3.2654  1.1017
  593MOL0     H81791  12.124   9.826  10.848  1.2398 -0.9123 -2.6084
  593MOL0     H81792  12.487   9.773  10.847 -0.3615  0.1147 -1.9241
  593MOL0     H81793  12.821   9.800  10.959  0.2034 -0.3052 -1.3827
  593MOL0     H81794  12.775   9.834  10.793  0.3023  0.2908 -0.3886
  593MOL0     H81795  12.692   9.702  10.883  0.3701 -0.6338  0.8423
  593MOL0     H81796  12.984  10.143  11.336  1.0755 -0.7135 -0.6649
  593MOL0     H81797  13.212  10.268  11.321  0.6990 -0.4796 -2.4048
  593MOL0     H81798  13.307  10.475  10.970 -2.3071 -0.4509  0.0500
  593MOL0     H81799  13.235  10.612  11.048 -1.7108  0.2139  2.2246
  593MOL0     H81800  13.525  10.509  11.047  1.2504  0.4183 -0.0908
  593MOL0     H81801  13.472  10.674  11.026  1.1608 -0.9523 -0.4102
  593MOL0     H81802  13.483  10.552  11.298  2.7608 -0.6945 -1.7736
  593MOL0     H81803  13.442  10.724  11.263 -0.0216  0.3490  0.0233
  593MOL0     H81804  13.664  10.767  11.194  0.8952  0.8764  0.4392
  593MOL0     H81805  13.706  10.595  11.197 -0.7151  0.5236 -2.4925
  593MOL0     H81806  13.610  10.752  11.445  0.7131  2.8388 -0.4252
  593MOL0     H81807  13.687  10.598  11.437  1.2357 -0.4628 -1.1198
  593MOL0     H81808  13.817  10.857  11.341  4.4646  0.8652 -0.8068
  593MOL0     H81809  13.910  10.719  11.338 -0.0899  0.5080  0.3373
  593MOL0     H81810  13.984  10.790  11.549  0.1737 -0.1783 -0.3838
  593MOL0     H81811  13.838  10.691  11.591  2.3980 -2.0193 -2.9004
  593MOL0     H81812  13.699  10.889  11.617  0.6933 -0.9324  3.0056
  593MOL0     H81813  13.812  10.980  11.529 -2.7312 -1.0623 -1.4967
  593MOL0     H81814  13.086  10.453  10.956  0.7071  0.1632  1.3387
  593MOL0     H81815  12.895  10.331  10.952 -0.6021  1.5938  1.0546
  593MOL0     H81816  12.568  10.195  11.098  1.6062 -0.5792 -0.0643
  593MOL0     H81817  12.350  10.140  11.034  1.4892 -0.7878  5.6457
  593MOL0     H81818  10.857   9.503  11.571  2.4834  0.5465  1.8900
  593MOL0     H81819  10.726   9.312  11.582  0.4794 -1.6082  1.8359
  593MOL0     H81820  10.848   8.737  11.544  0.1524 -0.0924  1.1880
  593MOL0     H81821  10.715   8.538  11.550  1.2141 -0.1186 -0.2226
  593MOL0     H81822  10.660   8.365  11.370  0.3935 -1.2096  0.9623
  593MOL0     H81823  10.569   8.355  11.518  2.3798 -1.4890  0.0178
  593MOL0     H81824  10.471   8.301  11.234  1.6554  0.3053  0.0671
  593MOL0     H81825  10.388   8.268  11.394 -0.9184  2.8103 -1.8683
  593MOL0     H81826  10.489   8.062  11.268  1.1957 -0.4740 -0.3676
  593MOL0     H81827  10.642   8.122  11.311 -0.7906  0.4668  1.7602
  593MOL0     H81828  10.524   7.946  11.449  1.4741  0.9951 -5.2180
  593MOL0     H81829  10.427   8.079  11.527 -1.1247  1.5575 -2.6722
  593MOL0     H81830  10.799   8.131  11.715 -0.9080 -2.0850  1.0432
  593MOL0     H81831  10.433   8.719  11.277 -0.1475  0.3602  2.2796
  593MOL0     H81832  10.598   9.039  11.242  0.8675 -0.9373  0.3869
  593MOL0     H81833  10.438   8.959  11.235  1.1367 -1.8035 -1.6357
  593MOL0     H81834  10.500   9.055  11.376 -0.4129 -1.4628  0.5180
  594MOL0     O81835   4.923   3.833   1.191  0.3406 -0.1277 -0.0573
  594MOL0     C81836   4.832   3.796   1.111 -0.0159 -0.7131 -0.5496
  594MOL0     O81837   4.862   3.747   0.988 -0.4214 -1.3493 -0.0484
  594MOL0     C81838   4.956   3.794   0.901  0.5377 -0.2944 -0.2439
  594MOL0     C81839   4.967   3.737   0.774  0.3831  0.1375  0.8656
  594MOL0     C81840   5.054   3.787   0.680 -0.4576 -0.4520 -0.3538
  594MOL0     C81841   5.145   3.895   0.711 -0.7003  0.0086  0.4220
  594MOL0     O81842   5.256   3.936   0.638  0.3452 -0.4085 -0.5013
  594MOL0     C81843   5.297   3.858   0.524 -0.2135  0.3792  0.4768
  594MOL0     C81844   5.429   3.899   0.477  0.0269 -0.1948 -0.9132
  594MOL0     C81845   5.536   3.888   0.588  0.0337  0.1252 -0.8238
  594MOL0     C81846   5.558   3.991   0.705 -0.3815 -0.4829  0.1728
  594MOL0     C81847   5.680   3.942   0.793  0.6750 -0.4577  0.9678
  594MOL0     C81848   5.802   4.016   0.742 -0.0734  0.0580  0.2623
  594MOL0     C81849   5.932   3.983   0.821  0.4087  0.6647 -0.0513
  594MOL0     C81850   6.055   4.051   0.752 -0.8092 -0.1789  0.0762
  594MOL0     N81851   6.176   4.024   0.826  0.1176 -0.9442  0.4781
  594MOL0     C81852   6.200   4.074   0.954  0.1373  0.5838 -0.3596
  594MOL0     C81853   6.332   4.040   0.985  0.2777 -0.6997 -0.1701
  594MOL0     C81854   6.411   4.079   1.111 -0.1349  0.8039  0.7682
  594MOL0     C81855   6.547   4.152   1.073  0.7168  0.1955 -0.0585
  594MOL0     C81856   6.605   4.199   1.209  0.2016 -1.3528  0.7533
  594MOL0     C81857   6.704   4.311   1.187  0.3152  0.0199  0.2548
  594MOL0     O81858   6.810   4.291   1.096  0.2688 -0.1834 -0.3217
  594MOL0     C81859   6.921   4.213   1.129  0.5644  0.6516  0.5112
  594MOL0     C81860   7.020   4.179   1.031 -0.1132  0.1636  0.0057
  594MOL0     C81861   7.129   4.100   1.054 -0.5057  0.0583 -0.0944
  594MOL0     C81862   7.219   4.074   0.941  0.4934 -1.1591  0.2704
  594MOL0     C81863   7.150   4.043   1.184 -0.5332 -0.7344  0.4750
  594MOL0     C81864   7.249   3.943   1.210 -0.3180  0.1379 -0.0743
  594MOL0     O81865   7.229   3.883   1.332  0.2392 -0.4667 -0.3170
  594MOL0     C81866   7.318   3.789   1.376  1.1986 -0.4668 -0.5389
  594MOL0     C81867   7.449   3.821   1.397 -0.5646  0.0350  0.6668
  594MOL0     C81868   7.549   3.720   1.448  0.4104 -0.8079 -0.3387
  594MOL0     C81869   7.506   3.597   1.491  0.1100 -0.4815  0.9834
  594MOL0     O81870   7.576   3.496   1.550  1.2089 -0.2242 -0.0612
  594MOL0     C81871   7.720   3.508   1.568  0.6454 -0.0407 -0.7871
  594MOL0     C81872   7.772   3.371   1.521 -0.0772 -0.9169 -0.4235
  594MOL0     C81873   7.768   3.357   1.374  0.7604 -0.0098  0.3668
  594MOL0     C81874   7.848   3.240   1.320 -0.3176 -0.1383  0.2007
  594MOL0     C81875   7.851   3.227   1.170  0.2944 -0.5063 -0.3751
  594MOL0     C81876   7.972   3.146   1.115  0.4843  0.3532  0.0571
  594MOL0     C81877   7.985   3.003   1.170  0.8108  0.6010  0.1608
  594MOL0     C81878   8.095   2.908   1.112  0.1581 -0.0980  0.1047
  594MOL0    Cl81879   8.090   2.876   0.933 -0.3863 -0.3075  0.0807
  594MOL0     C81880   7.373   3.568   1.477  1.0273  0.0025  0.5473
  594MOL0     C81881   7.278   3.661   1.410  0.8526  0.2698 -0.1117
  594MOL0     O81882   7.338   3.915   1.133 -0.1061 -0.6829 -0.2205
  594MOL0     C81883   7.057   4.084   1.281  0.6125  0.4138  0.0966
  594MOL0     C81884   6.944   4.160   1.259 -0.0716  0.4164  1.2356
  594MOL0     N81885   6.383   3.968   0.877  0.5151 -0.1987  0.0979
  594MOL0     N81886   6.287   3.956   0.787  0.0905  0.2058  0.3932
  594MOL0     C81887   5.140   3.951   0.837  0.4693  0.1662 -0.2069
  594MOL0     C81888   5.041   3.897   0.921  0.7578 -0.3461 -0.4469
  594MOL0     C81889   4.688   3.808   1.150  0.9144  0.2490  0.6020
  594MOL0     C81890   4.594   3.736   1.071  0.4333  0.8167  0.4403
  594MOL0     C81891   4.453   3.750   1.085 -0.3705  0.4085  0.0214
  594MOL0     C81892   4.403   3.853   1.166 -1.1195  0.1858 -0.3277
  594MOL0     O81893   4.264   3.869   1.176 -0.2806  0.3208  0.1804
  594MOL0     C81894   4.211   3.986   1.236 -0.1915 -0.4922 -0.0123
  594MOL0     C81895   4.063   3.952   1.277 -0.1754 -1.2409 -0.2171
  594MOL0     C81896   3.963   3.933   1.158 -0.1118  0.2605 -0.2375
  594MOL0     C81897   3.935   4.053   1.072  0.6217 -0.2031 -0.0328
  594MOL0     C81898   3.880   4.166   1.151 -0.1418 -0.3545  0.7070
  594MOL0     C81899   3.842   4.262   1.214 -0.0847 -0.6738  0.2581
  594MOL0     C81900   4.491   3.914   1.259 -0.7571  0.9251  0.5329
  594MOL0     C81901   4.628   3.886   1.257  0.5831 -0.1399 -0.1458
  594MOL0     C81902   4.717   3.978   1.345 -0.4049 -0.2717 -0.1906
  594MOL0     H81903   4.902   3.655   0.744  0.5309  0.9845 -2.0736
  594MOL0     H81904   5.078   3.752   0.580  0.6232 -0.8331  0.0180
  594MOL0     H81905   5.231   3.887   0.442 -0.3877  0.6536  0.7085
  594MOL0     H81906   5.290   3.751   0.545 -1.6488 -0.3236 -2.9425
  594MOL0     H81907   5.445   3.846   0.383 -0.6184  0.5730 -1.4698
  594MOL0     H81908   5.423   4.002   0.442  1.4871  0.0261 -0.6040
  594MOL0     H81909   5.511   3.793   0.637  2.9281  0.3475  1.2925
  594MOL0     H81910   5.633   3.873   0.539 -0.4752 -0.8683 -1.5748
  594MOL0     H81911   5.569   4.090   0.661 -2.1533  0.0373  0.7984
  594MOL0     H81912   5.470   3.984   0.771 -1.6207 -0.4802 -1.4324
  594MOL0     H81913   5.686   3.835   0.775 -2.4233 -0.3418 -1.7705
  594MOL0     H81914   5.665   3.960   0.900 -1.0758  3.1166  0.2817
  594MOL0     H81915   5.815   3.996   0.636 -0.6080  4.0928 -0.7288
  594MOL0     H81916   5.782   4.123   0.732 -4.5186 -0.6015  0.2080
  594MOL0     H81917   5.947   3.875   0.831 -0.2682  0.2648 -2.6485
  594MOL0     H81918   5.925   4.013   0.926 -1.0751  0.5172 -0.0877
  594MOL0     H81919   6.065   4.001   0.655 -1.8727 -0.8914  0.3137
  594MOL0     H81920   6.042   4.159   0.745  0.4839 -0.1089 -1.8752
  594MOL0     H81921   6.136   4.134   1.018  0.3279 -1.5948  2.0507
  594MOL0     H81922   6.446   3.988   1.161 -0.1486 -0.7237 -1.8358
  594MOL0     H81923   6.364   4.152   1.178  3.2839  3.6188  0.3922
  594MOL0     H81924   6.619   4.092   1.017  3.6769  1.3145  2.2352
  594MOL0     H81925   6.520   4.236   1.009  2.8691  0.9123 -0.0994
  594MOL0     H81926   6.532   4.247   1.275  0.7694 -2.8478  2.5682
  594MOL0     H81927   6.666   4.122   1.258 -0.1395 -2.0506  0.0969
  594MOL0     H81928   6.632   4.383   1.147 -0.3632 -0.6069  0.3288
  594MOL0     H81929   6.745   4.355   1.278 -3.4247  0.1337  2.0516
  594MOL0     H81930   7.008   4.228   0.935 -0.4377  0.5380  0.2355
  594MOL0     H81931   7.321   4.107   0.964  0.3755  0.8195 -1.6833
  594MOL0     H81932   7.192   4.133   0.853 -0.9118 -2.2968 -0.0882
  594MOL0     H81933   7.215   3.966   0.926 -0.2956 -1.1882  0.6574
  594MOL0     H81934   7.492   3.916   1.365  2.1300 -2.0293 -2.5789
  594MOL0     H81935   7.650   3.760   1.450  0.5266 -1.0289 -1.3069
  594MOL0     H81936   7.770   3.586   1.510 -1.0956  0.5565 -1.5393
  594MOL0     H81937   7.734   3.521   1.676 -1.6526  0.0727 -0.4569
  594MOL0     H81938   7.872   3.362   1.564 -0.1525  0.9962  0.2129
  594MOL0     H81939   7.704   3.302   1.572  2.2459 -1.0280  2.8763
  594MOL0     H81940   7.798   3.451   1.325  2.6072  1.4390  3.8685
  594MOL0     H81941   7.663   3.345   1.346 -0.7094  3.1232  3.7249
  594MOL0     H81942   7.816   3.141   1.354  0.8895  0.1487  2.2989
  594MOL0     H81943   7.947   3.262   1.360 -1.7051  2.9099  2.3559
  594MOL0     H81944   7.760   3.173   1.141 -0.1586 -0.0594  0.1903
  594MOL0     H81945   7.839   3.321   1.115  0.0071 -0.6525 -0.5657
  594MOL0     H81946   8.069   3.193   1.132  1.2614 -1.1886  0.0589
  594MOL0     H81947   7.968   3.138   1.006  1.7134  0.2154  0.0054
  594MOL0     H81948   7.895   2.941   1.161  1.5068 -0.3089 -0.7459
  594MOL0     H81949   8.010   3.006   1.277  1.2725 -2.3342  0.2319
  594MOL0     H81950   8.072   2.810   1.155 -0.8736 -0.2922 -0.8495
  594MOL0     H81951   8.194   2.951   1.132  0.3162 -0.4544  0.0979
  594MOL0     H81952   7.325   3.475   1.507 -1.1376  0.7953 -0.2188
  594MOL0     H81953   7.174   3.632   1.400  0.6943  0.7111  0.2601
  594MOL0     H81954   7.060   4.041   1.380 -0.3523 -1.4448 -0.6232
  594MOL0     H81955   6.889   4.187   1.349  0.0066  3.7987  0.4039
  594MOL0     H81956   5.204   4.029   0.877 -1.8283  0.7802  2.5880
  594MOL0     H81957   5.026   3.948   1.015 -1.0500 -0.3713 -0.6916
  594MOL0     H81958   4.620   3.670   0.989 -2.2700  0.5787 -0.3333
  594MOL0     H81959   4.383   3.688   1.030  1.2341 -1.7916  0.3195
  594MOL0     H81960   4.266   4.007   1.328  0.1760 -4.0110  0.7363
  594MOL0     H81961   4.202   4.066   1.163 -0.8052  1.2090  1.8422
  594MOL0     H81962   4.022   4.034   1.338 -1.3261  0.7764 -3.4656
  594MOL0     H81963   4.057   3.861   1.338 -3.0966 -2.3067 -1.9319
  594MOL0     H81964   4.005   3.859   1.089  1.5500  0.0901  0.9032
  594MOL0     H81965   3.872   3.879   1.185 -0.2651  1.5310  1.9419
  594MOL0     H81966   3.859   4.036   0.995 -3.3149  3.3368  2.6363
  594MOL0     H81967   4.020   4.087   1.012 -0.0803  0.6244 -0.5855
  594MOL0     H81968   3.816   4.354   1.263  1.5119  1.4198 -2.5740
  594MOL0     H81969   4.458   3.986   1.334 -1.4648 -0.3995  1.5260
  594MOL0     H81970   4.783   3.926   1.416  0.1700  1.0554  0.2896
  594MOL0     H81971   4.776   4.032   1.271  0.9095 -1.0291  0.2501
  594MOL0     H81972   4.663   4.048   1.409  1.6351  0.2354  1.0881
  595MOL0     O81973   7.869   0.903   1.645 -0.1120 -0.7535  0.0372
  595MOL0     C81974   7.884   1.014   1.594 -0.8058  0.7933  0.0645
  595MOL0     O81975   7.786   1.111   1.565 -0.7537  0.0119 -0.2492
  595MOL0     C81976   7.659   1.071   1.585 -0.4387  0.1334 -0.5931
  595MOL0     C81977   7.602   1.130   1.694 -0.1073  0.4032  0.2346
  595MOL0     C81978   7.470   1.091   1.728 -0.2777 -0.0469 -0.5520
  595MOL0     C81979   7.396   0.998   1.656  0.0398 -0.5232 -0.4065
  595MOL0     O81980   7.279   0.949   1.686  0.3611  0.7564 -0.0946
  595MOL0     C81981   7.196   1.030   1.768 -0.1173  0.5574 -0.9573
  595MOL0     C81982   7.064   0.949   1.793 -0.7357 -0.4023 -0.0392
  595MOL0     C81983   6.962   0.949   1.673  0.2367  0.9280  0.1138
  595MOL0     C81984   7.015   0.911   1.535  0.6627 -0.2850 -0.1644
  595MOL0     C81985   6.917   0.908   1.418  0.0910 -0.3983  0.1485
  595MOL0     C81986   6.872   1.040   1.368 -0.3220  0.1781 -0.1539
  595MOL0     C81987   6.775   1.036   1.248 -0.0262  0.0872 -0.3942
  595MOL0     C81988   6.692   1.161   1.222 -0.1570 -0.1531  0.4098
  595MOL0     N81989   6.765   1.284   1.198  0.2811 -0.1617  0.0866
  595MOL0     C81990   6.880   1.294   1.124 -0.8001 -0.4635 -0.0977
  595MOL0     C81991   6.933   1.419   1.148 -0.6205  0.9607  0.3956
  595MOL0     C81992   7.062   1.465   1.079  0.1845 -0.4422 -0.8561
  595MOL0     C81993   7.139   1.570   1.168  0.3022  0.4136 -0.3856
  595MOL0     C81994   7.280   1.582   1.119  0.8593  0.1358 -0.4117
  595MOL0     C81995   7.348   1.708   1.167 -0.4358  0.2735 -0.7262
  595MOL0     O81996   7.494   1.709   1.145 -0.4062  0.1518  0.6029
  595MOL0     C81997   7.585   1.668   1.240  0.8621  0.1805  0.9466
  595MOL0     C81998   7.556   1.589   1.352  0.5291 -0.1562 -0.3065
  595MOL0     C81999   7.662   1.552   1.440 -0.5062  0.5035 -0.2383
  595MOL0     C82000   7.627   1.456   1.554 -0.2155  0.2170 -0.2124
  595MOL0     C82001   7.793   1.603   1.419 -0.2981  0.9738 -0.2125
  595MOL0     C82002   7.898   1.584   1.503 -0.2402  0.3362  0.6944
  595MOL0     O82003   8.021   1.604   1.438 -0.0276  0.1473  0.1827
  595MOL0     C82004   8.142   1.597   1.499 -0.3316  0.4766 -0.0900
  595MOL0     C82005   8.258   1.584   1.423  1.2567 -0.4709  0.3291
  595MOL0     C82006   8.387   1.584   1.466 -0.2406 -0.2455 -1.1912
  595MOL0     C82007   8.416   1.603   1.601  0.5788  0.3008 -0.4310
  595MOL0     O82008   8.548   1.617   1.641 -0.2195  0.1719  0.2980
  595MOL0     C82009   8.629   1.714   1.572 -0.0038 -0.1767 -0.6723
  595MOL0     C82010   8.768   1.695   1.628  0.1621 -0.2539 -1.5170
  595MOL0     C82011   8.828   1.558   1.617 -0.1773  1.1684  0.2870
  595MOL0     C82012   8.971   1.556   1.696  1.3081 -0.9734 -0.4426
  595MOL0     C82013   9.038   1.426   1.706 -0.2272  0.5338 -0.1648
  595MOL0     C82014   9.154   1.422   1.801  0.1455 -0.4241  0.1040
  595MOL0     C82015   9.240   1.290   1.792  0.0877 -0.2272  0.9750
  595MOL0     C82016   9.173   1.169   1.853 -0.0201 -0.1233  0.8520
  595MOL0    Cl82017   9.083   1.096   1.719 -0.1708  0.1640  0.1802
  595MOL0     C82018   8.298   1.610   1.684  0.0099 -0.8128  0.3157
  595MOL0     C82019   8.166   1.607   1.635  0.0763 -0.3091  0.3914
  595MOL0     O82020   7.884   1.559   1.621 -0.2641  0.1337  0.7912
  595MOL0     C82021   7.818   1.687   1.305 -0.4619 -0.6237 -0.2691
  595MOL0     C82022   7.714   1.716   1.214  1.2394  0.0657 -0.2492
  595MOL0     N82023   6.848   1.484   1.240  0.2688 -0.1822  0.7718
  595MOL0     N82024   6.746   1.407   1.263 -0.4008 -0.1723  0.3096
  595MOL0     C82025   7.466   0.923   1.556  0.1677 -0.1160  0.1352
  595MOL0     C82026   7.600   0.959   1.525  0.1226  0.8173  0.5101
  595MOL0     C82027   8.024   1.044   1.544  0.2107  0.0794 -0.0426
  595MOL0     C82028   8.095   0.940   1.474 -0.0643  0.2833  0.2032
  595MOL0     C82029   8.226   0.971   1.439  0.0488 -0.4887  0.6540
  595MOL0     C82030   8.279   1.100   1.456 -0.8584  0.1702 -0.7788
  595MOL0     O82031   8.412   1.129   1.416 -0.0345 -0.0530 -0.1062
  595MOL0     C82032   8.470   1.259   1.436  0.4772  0.4322  0.3229
  595MOL0     C82033   8.618   1.244   1.452 -0.6977 -0.2948 -0.5133
  595MOL0     C82034   8.693   1.171   1.346 -0.8426  0.1044  0.4841
  595MOL0     C82035   8.840   1.177   1.373 -1.0680 -0.6479 -0.5009
  595MOL0     C82036   8.924   1.076   1.308 -0.3344 -0.1503 -0.6329
  595MOL0     C82037   8.987   0.987   1.253  0.2260  0.4775 -0.4192
  595MOL0     C82038   8.208   1.192   1.526  0.8759 -0.3575 -0.8856
  595MOL0     C82039   8.082   1.166   1.577 -0.2439  0.6958  0.3510
  595MOL0     C82040   8.004   1.265   1.667 -0.3182 -0.0732 -0.0834
  595MOL0     H82041   7.651   1.213   1.743  2.9160 -1.4843  0.6538
  595MOL0     H82042   7.437   1.155   1.809  1.9131  1.3496 -0.6630
  595MOL0     H82043   7.178   1.123   1.714  0.5923 -0.5789 -3.2921
  595MOL0     H82044   7.234   1.048   1.869 -1.0904  2.6015 -0.9057
  595MOL0     H82045   7.113   0.855   1.821  1.7517  1.3090  1.8963
  595MOL0     H82046   7.010   0.981   1.882 -1.3832 -1.5905  0.0182
  595MOL0     H82047   6.881   0.883   1.706 -1.1225  3.9205  3.4582
  595MOL0     H82048   6.907   1.044   1.670  0.7225  1.5409  4.4453
  595MOL0     H82049   7.094   0.982   1.509  0.9788  0.3012  2.1602
  595MOL0     H82050   7.070   0.816   1.531  1.3108  0.1006 -0.5170
  595MOL0     H82051   6.835   0.845   1.455  0.1118  0.5838  1.9608
  595MOL0     H82052   6.959   0.860   1.329 -0.7186 -2.0168  0.6046
  595MOL0     H82053   6.823   1.099   1.445  1.1433  1.4216 -0.1276
  595MOL0     H82054   6.965   1.093   1.344  2.0946 -3.0947  1.1132
  595MOL0     H82055   6.702   0.956   1.265  0.2790  0.0854  1.0692
  595MOL0     H82056   6.835   1.012   1.160 -0.6301 -3.5743  0.0053
  595MOL0     H82057   6.629   1.130   1.137 -0.3308  2.6793 -0.5969
  595MOL0     H82058   6.621   1.175   1.304 -0.1618  0.2835  0.3305
  595MOL0     H82059   6.910   1.220   1.049  0.1259 -0.6997  0.4927
  595MOL0     H82060   7.044   1.506   0.979  2.5453  3.0015 -0.0496
  595MOL0     H82061   7.126   1.377   1.064 -1.1787 -1.4376 -1.0610
  595MOL0     H82062   7.089   1.667   1.163  3.1642  2.0804  0.9478
  595MOL0     H82063   7.151   1.542   1.273  4.3911 -4.0541 -1.6623
  595MOL0     H82064   7.342   1.496   1.146  1.8885  0.9843  0.0033
  595MOL0     H82065   7.280   1.594   1.010 -0.6725  0.4482 -0.4102
  595MOL0     H82066   7.310   1.794   1.110  0.6876  0.7060 -0.8560
  595MOL0     H82067   7.319   1.734   1.270  3.1857  1.4373  0.1475
  595MOL0     H82068   7.453   1.562   1.373 -0.1806  0.2339 -2.9214
  595MOL0     H82069   7.710   1.384   1.549 -0.6446 -0.2099 -1.7698
  595MOL0     H82070   7.540   1.397   1.526  0.3932 -0.5544 -0.5255
  595MOL0     H82071   7.597   1.490   1.653 -2.6147  1.0982 -1.1849
  595MOL0     H82072   8.255   1.584   1.314  0.8221 -1.8753  0.3193
  595MOL0     H82073   8.464   1.576   1.390  3.6066  1.4659  2.1738
  595MOL0     H82074   8.636   1.714   1.463 -2.1551  3.4765 -0.9888
  595MOL0     H82075   8.587   1.815   1.574  0.2117  0.0453 -3.1483
  595MOL0     H82076   8.835   1.770   1.586  2.4102 -0.4889  1.3151
  595MOL0     H82077   8.758   1.724   1.734  0.4975  1.3996 -1.9035
  595MOL0     H82078   8.852   1.539   1.512 -1.0269 -1.3108  0.4737
  595MOL0     H82079   8.758   1.476   1.637 -1.6037  1.7507 -1.9233
  595MOL0     H82080   8.954   1.581   1.801  1.5651 -0.7060 -0.4640
  595MOL0     H82081   9.036   1.629   1.646  1.3053 -0.3270  0.4691
  595MOL0     H82082   8.956   1.361   1.736  0.7621 -1.0743 -0.8538
  595MOL0     H82083   9.075   1.402   1.606 -0.8148 -2.0571  0.1758
  595MOL0     H82084   9.109   1.421   1.901  0.9621 -1.2003  0.4772
  595MOL0     H82085   9.209   1.514   1.779  0.0549  0.2565  2.4389
  595MOL0     H82086   9.327   1.299   1.859  1.4618 -3.4432 -0.1823
  595MOL0     H82087   9.275   1.267   1.691 -0.9868 -0.4275  0.6427
  595MOL0     H82088   9.106   1.192   1.936  2.0399 -1.4477  3.0263
  595MOL0     H82089   9.249   1.103   1.896 -1.0959 -1.1546  1.2230
  595MOL0     H82090   8.331   1.632   1.785  3.1852 -1.6451 -0.4101
  595MOL0     H82091   8.089   1.643   1.703  2.2849 -0.4585  3.1553
  595MOL0     H82092   7.916   1.727   1.282  0.1410 -2.1198 -0.3831
  595MOL0     H82093   7.735   1.776   1.126  0.4328 -0.8359 -1.0681
  595MOL0     H82094   7.413   0.845   1.502 -0.2189  1.0081 -1.1617
  595MOL0     H82095   7.654   0.904   1.449  2.2519 -0.8903  3.1120
  595MOL0     H82096   8.064   0.837   1.459 -0.1821  0.5387 -1.4955
  595MOL0     H82097   8.287   0.897   1.389 -0.7983  1.5449 -3.8415
  595MOL0     H82098   8.432   1.320   1.353 -3.5421 -0.4426  1.3226
  595MOL0     H82099   8.449   1.308   1.531  1.5724 -0.3670  0.9970
  595MOL0     H82100   8.638   1.203   1.552  0.9138 -1.3166 -1.2112
  595MOL0     H82101   8.656   1.346   1.438 -1.3836 -0.1406 -1.2778
  595MOL0     H82102   8.665   1.067   1.329 -0.7612  0.0897  0.4350
  595MOL0     H82103   8.651   1.211   1.253 -3.2237 -1.5495  0.7633
  595MOL0     H82104   8.862   1.163   1.480  0.3211  2.0160 -0.3527
  595MOL0     H82105   8.889   1.271   1.348  0.8231 -1.5145 -0.2372
  595MOL0     H82106   9.033   0.902   1.208 -0.5732 -0.5741  0.7055
  595MOL0     H82107   8.249   1.290   1.547 -0.9597  1.0358 -3.2351
  595MOL0     H82108   7.929   1.326   1.616  0.1558  1.3080  0.8096
  595MOL0     H82109   7.952   1.214   1.750  3.4598  1.2164  3.4197
  595MOL0     H82110   8.075   1.337   1.707 -2.6641  1.1736  2.1838
  596MOL0     O82111   0.475   7.458   7.715 -0.5064 -0.5872  0.4086
  596MOL0     C82112   0.400   7.556   7.722 -0.4016 -0.3377  0.5042
  596MOL0     O82113   0.431   7.674   7.784  0.1514 -0.1387 -1.1201
  596MOL0     C82114   0.555   7.692   7.851  0.4435 -0.7790  1.3013
  596MOL0     C82115   0.644   7.788   7.805  0.1241 -0.4580 -0.3266
  596MOL0     C82116   0.776   7.792   7.864 -0.2238  0.1090 -0.2149
  596MOL0     C82117   0.795   7.729   7.989  1.0832  0.2770  0.9972
  596MOL0     O82118   0.913   7.743   8.051 -0.0760  0.5318 -0.8321
  596MOL0     C82119   0.957   7.873   8.105 -0.3912  0.3415 -1.1334
  596MOL0     C82120   0.862   7.945   8.195 -0.1824 -0.4396  0.0537
  596MOL0     C82121   0.832   7.873   8.330  0.3658 -0.2672 -0.4895
  596MOL0     C82122   0.753   7.964   8.426 -0.0926 -0.7936  0.2716
  596MOL0     C82123   0.687   7.887   8.539 -0.7514  0.0666 -0.3163
  596MOL0     C82124   0.694   7.995   8.657  0.4849  1.0445 -0.5322
  596MOL0     C82125   0.608   7.946   8.775  0.3960  0.2523 -0.1455
  596MOL0     C82126   0.611   8.038   8.894 -0.6244 -0.2149 -0.4007
  596MOL0     N82127   0.541   7.992   9.017 -0.2325  0.1192 -0.2050
  596MOL0     C82128   0.423   7.920   9.009 -0.5262 -0.2019 -0.4571
  596MOL0     C82129   0.396   7.886   9.140 -1.3898 -0.8183  0.1368
  596MOL0     C82130   0.295   7.791   9.195  1.0704 -0.1451  0.0862
  596MOL0     C82131   0.226   7.856   9.314  0.0135  0.0982 -0.3586
  596MOL0     C82132   0.299   7.851   9.440 -0.0859 -0.1690 -0.3356
  596MOL0     C82133   0.199   7.866   9.556 -0.9954  0.4877 -0.9487
  596MOL0     O82134   0.252   7.951   9.662  0.7725  1.1054  1.3458
  596MOL0     C82135   0.247   8.086   9.653  0.4709  0.0911  0.5759
  596MOL0     C82136   0.278   8.151   9.774  1.6387  0.1388 -0.5663
  596MOL0     C82137   0.276   8.295   9.792  0.2096 -0.1142 -0.1998
  596MOL0     C82138   0.325   8.342   9.933  0.1079 -0.3782 -0.1889
  596MOL0     C82139   0.227   8.373   9.686 -0.1250 -0.3859  0.1621
  596MOL0     C82140   0.215   8.523   9.690 -0.1844 -0.0994 -0.0924
  596MOL0     O82141   0.206   8.591   9.572 -0.1857 -0.4203 -0.5601
  596MOL0     C82142   0.208   8.728   9.556 -0.1446  0.5781 -0.5744
  596MOL0     C82143   0.135   8.818   9.637 -0.5880  0.1733 -0.4002
  596MOL0     C82144   0.132   8.955   9.614  0.1914 -0.9101 -0.5728
  596MOL0     C82145   0.210   9.006   9.507 -0.3363  0.6899  0.6015
  596MOL0     O82146   0.202   9.141   9.496 -0.7437  0.0789 -0.3940
  596MOL0     C82147   0.271   9.215   9.390 -1.0158  0.6058 -0.2435
  596MOL0     C82148   0.263   9.373   9.408  0.3469  0.5959  0.6389
  596MOL0     C82149   0.360   9.432   9.500  0.0144  0.1670 -0.9195
  596MOL0     C82150   0.326   9.582   9.503 -0.1741  0.2486  0.7300
  596MOL0     C82151   0.451   9.667   9.531 -1.1062 -0.3548 -0.2367
  596MOL0     C82152   0.517   9.713   9.403 -0.1228  0.7272  0.1482
  596MOL0     C82153   0.657   9.757   9.435  0.0715 -0.6568  0.2584
  596MOL0     C82154   0.758   9.682   9.342 -0.1261 -0.2995 -0.1118
  596MOL0    Cl82155   0.784   9.521   9.408  0.1880 -0.4236  0.4373
  596MOL0     C82156   0.266   8.916   9.422 -0.4959  0.4640  0.5197
  596MOL0     C82157   0.271   8.777   9.449  0.1722 -0.2755  0.0531
  596MOL0     O82158   0.201   8.579   9.800 -0.3022 -0.2927  0.1363
  596MOL0     C82159   0.203   8.307   9.565 -1.4504  0.9024 -0.5096
  596MOL0     C82160   0.216   8.164   9.552 -0.4388 -1.2700  0.1052
  596MOL0     N82161   0.489   7.956   9.222 -0.2427 -0.0506  0.8006
  596MOL0     N82162   0.565   8.020   9.144  0.2456 -0.0464 -0.5875
  596MOL0     C82163   0.701   7.646   8.045  0.5454  0.5811  0.7512
  596MOL0     C82164   0.587   7.618   7.964 -0.8394  0.6376  0.1518
  596MOL0     C82165   0.281   7.556   7.642 -0.4885 -0.3463 -0.7239
  596MOL0     C82166   0.215   7.682   7.618  0.1450 -0.4404  0.4079
  596MOL0     C82167   0.086   7.704   7.569 -0.3541  0.1603 -0.2464
  596MOL0     C82168   0.015   7.589   7.543  0.3345  0.0513 -0.2216
  596MOL0     O82169  -0.114   7.594   7.489 -0.3662 -0.5086  0.1982
  596MOL0     C82170  -0.173   7.723   7.451 -0.0405  0.4535  0.2283
  596MOL0     C82171  -0.228   7.793   7.579  0.3135  0.0513 -1.1152
  596MOL0     C82172  -0.362   7.731   7.627 -0.4277 -0.1214 -0.5725
  596MOL0     C82173  -0.419   7.803   7.745 -0.6481 -0.9086 -0.5417
  596MOL0     C82174  -0.542   7.741   7.793  0.3421  0.5461  0.0298
  596MOL0     C82175  -0.649   7.708   7.828  0.3764  0.1683 -1.2814
  596MOL0     C82176   0.073   7.463   7.568 -0.0031 -0.1991  0.2437
  596MOL0     C82177   0.204   7.442   7.616  0.2265  0.4413  0.3291
  596MOL0     C82178   0.257   7.296   7.632  0.3066  0.1031  1.2381
  596MOL0     H82179   0.614   7.841   7.715 -0.5125  1.2683  0.8311
  596MOL0     H82180   0.860   7.853   7.830  1.6320 -3.0437 -1.7881
  596MOL0     H82181   0.989   7.936   8.021  2.9844  1.3429  0.7551
  596MOL0     H82182   1.048   7.850   8.161 -0.8825 -0.6934 -0.7304
  596MOL0     H82183   0.909   8.043   8.207  0.4939 -0.5916 -1.1952
  596MOL0     H82184   0.770   7.965   8.139  1.7178 -0.4792 -3.3289
  596MOL0     H82185   0.772   7.783   8.316 -3.1722  1.8040 -0.1387
  596MOL0     H82186   0.924   7.830   8.370  0.8067  1.1595  0.0968
  596MOL0     H82187   0.807   8.052   8.461 -1.5279 -0.2786  1.2867
  596MOL0     H82188   0.669   8.011   8.373 -1.9719 -1.0071  2.8646
  596MOL0     H82189   0.746   7.797   8.560  1.4563  1.3293 -0.7997
  596MOL0     H82190   0.579   7.867   8.531 -1.2810  1.9722  1.1779
  596MOL0     H82191   0.793   8.019   8.698 -0.8980  4.6720  1.1026
  596MOL0     H82192   0.647   8.087   8.622 -0.8271 -0.2652 -2.4188
  596MOL0     H82193   0.649   7.850   8.808 -1.7697 -0.2565  1.2207
  596MOL0     H82194   0.506   7.926   8.743  0.6586 -1.9352  0.2414
  596MOL0     H82195   0.706   8.060   8.943 -2.4706  5.3000  1.3508
  596MOL0     H82196   0.588   8.140   8.864  0.5577  1.1602  2.9559
  596MOL0     H82197   0.369   7.880   8.924  1.0430 -2.5199 -0.4297
  596MOL0     H82198   0.331   7.690   9.216 -1.0930 -1.0758 -0.4138
  596MOL0     H82199   0.218   7.787   9.118  0.0894 -0.6150  1.0711
  596MOL0     H82200   0.196   7.960   9.297  0.9935  0.3243 -0.7266
  596MOL0     H82201   0.141   7.788   9.327  1.4646 -1.4359  1.9506
  596MOL0     H82202   0.360   7.761   9.447  1.0185  0.6735  2.4214
  596MOL0     H82203   0.374   7.930   9.442 -1.9352  1.7472  3.1765
  596MOL0     H82204   0.101   7.907   9.532 -0.6914  2.1218  0.3837
  596MOL0     H82205   0.187   7.769   9.606 -2.3187  0.2780 -1.6402
  596MOL0     H82206   0.303   8.086   9.858  1.0152 -2.5803 -2.3577
  596MOL0     H82207   0.393   8.426   9.919  0.0972 -0.4279 -0.5520
  596MOL0     H82208   0.387   8.263   9.976  0.5441  0.4406  0.7002
  596MOL0     H82209   0.236   8.365   9.992 -0.1766 -0.5268 -0.5523
  596MOL0     H82210   0.079   8.782   9.723 -0.0007 -0.8090 -0.4115
  596MOL0     H82211   0.082   9.017   9.687  0.7509  0.1132 -1.0456
  596MOL0     H82212   0.377   9.190   9.383 -1.0875  0.5646 -1.3587
  596MOL0     H82213   0.220   9.165   9.307  0.7955 -0.2189 -0.9101
  596MOL0     H82214   0.281   9.408   9.306 -2.7788  2.2754  0.5302
  596MOL0     H82215   0.160   9.398   9.435  0.4418 -0.5444  2.1695
  596MOL0     H82216   0.460   9.406   9.463  0.6817  0.8339  0.3349
  596MOL0     H82217   0.349   9.372   9.591  0.5740 -1.2442 -1.7605
  596MOL0     H82218   0.253   9.592   9.584 -0.7045 -1.5000  0.5164
  596MOL0     H82219   0.282   9.616   9.410  0.8583 -1.8526 -0.6123
  596MOL0     H82220   0.437   9.760   9.585 -3.8393  2.4181 -5.0067
  596MOL0     H82221   0.514   9.605   9.595  0.4086  1.3321 -0.0276
  596MOL0     H82222   0.459   9.792   9.356 -0.1543  1.6521  1.6773
  596MOL0     H82223   0.521   9.636   9.325  2.3695  1.4644 -0.5572
  596MOL0     H82224   0.697   9.730   9.533  3.5617  0.3850 -0.7152
  596MOL0     H82225   0.655   9.867   9.437 -2.3950 -0.6557  0.3010
  596MOL0     H82226   0.858   9.725   9.348 -0.6175  1.1853 -1.8173
  596MOL0     H82227   0.732   9.685   9.236  0.4725 -2.1150 -0.3472
  596MOL0     H82228   0.306   8.948   9.326 -1.6582  1.1323  0.2432
  596MOL0     H82229   0.326   8.718   9.376  0.8312 -0.0760  0.3798
  596MOL0     H82230   0.172   8.371   9.483 -1.9864  1.0698 -0.1770
  596MOL0     H82231   0.175   8.128   9.458  0.1602  0.2039 -0.7554
  596MOL0     H82232   0.705   7.595   8.141  2.7505 -2.5137 -0.8135
  596MOL0     H82233   0.517   7.540   7.993 -1.7580  1.4683  0.2010
  596MOL0     H82234   0.273   7.770   7.645  0.5680 -0.1554 -1.3475
  596MOL0     H82235   0.050   7.805   7.554 -0.2560 -0.0140 -1.8037
  596MOL0     H82236  -0.103   7.789   7.399 -0.0741 -0.8102 -1.5024
  596MOL0     H82237  -0.257   7.723   7.381 -1.5733 -0.0243  1.9673
  596MOL0     H82238  -0.251   7.899   7.562 -0.6620  0.2520  1.2139
  596MOL0     H82239  -0.155   7.792   7.660 -1.4910 -3.0509  0.6443
  596MOL0     H82240  -0.436   7.736   7.547 -1.1761  2.2956  0.1771
  596MOL0     H82241  -0.348   7.626   7.653  1.1437  0.5989  1.8106
  596MOL0     H82242  -0.445   7.903   7.710  2.8151  0.7925  1.2684
  596MOL0     H82243  -0.343   7.825   7.820 -0.2386 -2.2738 -0.5397
  596MOL0     H82244  -0.738   7.663   7.868  1.8392 -2.4278 -0.7623
  596MOL0     H82245   0.015   7.376   7.541 -0.6062 -0.1049  1.2134
  596MOL0     H82246   0.259   7.265   7.737  0.2264  1.4954  1.6593
  596MOL0     H82247   0.192   7.222   7.582  0.2496 -0.2494  1.8268
  596MOL0     H82248   0.353   7.300   7.580 -0.7626 -0.8216 -0.9615
  597MOL0     O82249   8.213   2.581   4.180 -0.0501  0.2792  0.0273
  597MOL0     C82250   8.153   2.688   4.177  0.2434  0.4053  0.4288
  597MOL0     O82251   8.209   2.807   4.218 -0.0873  0.0505  0.0749
  597MOL0     C82252   8.344   2.812   4.237  0.5304 -0.4596 -0.4370
  597MOL0     C82253   8.410   2.713   4.308 -0.0212 -0.4502  0.2402
  597MOL0     C82254   8.545   2.707   4.307  0.4177  0.1642 -0.3685
  597MOL0     C82255   8.625   2.811   4.257 -0.1183  0.1400 -0.0455
  597MOL0     O82256   8.764   2.821   4.264 -0.0459  0.0808  0.1618
  597MOL0     C82257   8.849   2.710   4.301  0.8057  0.9658  0.1498
  597MOL0     C82258   9.002   2.740   4.280 -0.0291  0.0647 -0.0560
  597MOL0     C82259   9.047   2.853   4.373 -0.5181 -0.1176 -0.1234
  597MOL0     C82260   9.189   2.836   4.423  0.4361 -0.4659 -0.2301
  597MOL0     C82261   9.288   2.856   4.307  0.5403 -0.0549  0.4056
  597MOL0     C82262   9.431   2.813   4.347  0.1738  0.2849  0.1557
  597MOL0     C82263   9.533   2.881   4.266 -1.4733 -0.2053 -0.3839
  597MOL0     C82264   9.533   2.853   4.118 -0.3432  0.4285  0.5895
  597MOL0     N82265   9.664   2.872   4.056 -0.0169  0.3457  0.0211
  597MOL0     C82266   9.722   2.995   4.036  0.5233 -0.0097 -0.7726
  597MOL0     C82267   9.830   2.982   3.956  0.4316 -0.6697  0.1252
  597MOL0     C82268   9.908   3.093   3.886  0.8779 -0.0748  0.1562
  597MOL0     C82269  10.016   3.130   3.974 -0.6414  0.2162  0.0230
  597MOL0     C82270   9.991   3.184   4.118 -0.5193 -0.0096  0.3402
  597MOL0     C82271  10.113   3.261   4.179  0.7034 -0.3508  0.9420
  597MOL0     O82272  10.215   3.162   4.200  0.2040 -0.0478 -0.8135
  597MOL0     C82273  10.345   3.208   4.181 -0.4171  0.4194 -0.4029
  597MOL0     C82274  10.445   3.134   4.115  0.6495  1.1469 -0.4858
  597MOL0     C82275  10.576   3.184   4.102  0.5013  0.1060 -0.6689
  597MOL0     C82276  10.665   3.086   4.030 -0.1344  0.3858 -0.0725
  597MOL0     C82277  10.614   3.305   4.163 -0.7877  0.0830 -0.4332
  597MOL0     C82278  10.755   3.353   4.172 -1.0533  0.3436 -0.6793
  597MOL0     O82279  10.779   3.474   4.215  0.3603 -0.7458 -0.6783
  597MOL0     C82280  10.896   3.538   4.182  0.5667 -0.4974 -0.5555
  597MOL0     C82281  10.986   3.567   4.285  0.6177  0.1588  0.4355
  597MOL0     C82282  11.099   3.643   4.250 -0.3573  0.5110 -0.3889
  597MOL0     C82283  11.109   3.698   4.122  0.0723  0.1053  0.5408
  597MOL0     O82284  11.212   3.786   4.104 -0.6576  0.1410 -0.1672
  597MOL0     C82285  11.258   3.815   3.970  0.4378  0.3686  0.9345
  597MOL0     C82286  11.393   3.891   3.994 -0.2021  0.2875 -0.2426
  597MOL0     C82287  11.458   3.938   3.867  0.3492  0.9899 -0.7669
  597MOL0     C82288  11.500   3.818   3.788 -0.1463 -0.4861 -0.4665
  597MOL0     C82289  11.614   3.856   3.696 -0.6083 -0.5116 -0.1382
  597MOL0     C82290  11.661   3.721   3.642 -0.3377 -0.3064 -0.4572
  597MOL0     C82291  11.778   3.736   3.538 -0.5990  0.5164 -0.1643
  597MOL0     C82292  11.751   3.795   3.403  0.2569  0.5471  0.5789
  597MOL0    Cl82293  11.631   3.688   3.330 -0.1490  0.3438 -0.4748
  597MOL0     C82294  11.020   3.661   4.020  0.2798  0.1434  0.1964
  597MOL0     C82295  10.916   3.581   4.054  0.4035  0.8443  0.2274
  597MOL0     O82296  10.840   3.280   4.127 -0.7563 -0.0466  0.1905
  597MOL0     C82297  10.516   3.375   4.239  0.1528  0.3104 -0.1614
  597MOL0     C82298  10.384   3.328   4.237  0.2786  0.3718 -0.0369
  597MOL0     N82299   9.858   2.847   3.971  0.2813 -0.6030  0.4751
  597MOL0     N82300   9.760   2.782   4.023  0.3830  0.9500 -0.3762
  597MOL0     C82301   8.559   2.907   4.183 -0.0200 -0.6334 -0.0536
  597MOL0     C82302   8.418   2.898   4.162  0.3171  0.0095  0.0647
  597MOL0     C82303   8.003   2.681   4.153  0.9578  0.0906 -0.1361
  597MOL0     C82304   7.934   2.803   4.132  0.1111  0.8228 -0.3801
  597MOL0     C82305   7.801   2.791   4.092  0.7869  0.2867 -0.8300
  597MOL0     C82306   7.733   2.674   4.086 -0.3872  0.7043 -0.5523
  597MOL0     O82307   7.599   2.677   4.068 -0.4527  0.2150 -1.1701
  597MOL0     C82308   7.526   2.593   4.159 -0.2824 -0.0461  0.5657
  597MOL0     C82309   7.391   2.648   4.200  0.2731  0.1999  0.2920
  597MOL0     C82310   7.294   2.646   4.084 -0.4909 -0.1147 -0.0440
  597MOL0     C82311   7.151   2.676   4.124  0.3619  0.2648 -0.3187
  597MOL0     C82312   7.121   2.822   4.129 -0.5396 -0.0036  0.3661
  597MOL0     C82313   7.111   2.943   4.117 -0.4127 -0.0816 -0.1210
  597MOL0     C82314   7.801   2.554   4.105  0.7681  0.3772  0.2608
  597MOL0     C82315   7.930   2.556   4.142 -0.6460 -0.3517 -0.5211
  597MOL0     C82316   7.999   2.419   4.149 -0.1181  0.6576 -0.2087
  597MOL0     H82317   8.365   2.623   4.348  1.9186 -1.3955  0.4212
  597MOL0     H82318   8.610   2.625   4.335  2.2103  1.7731  0.4554
  597MOL0     H82319   8.821   2.630   4.232 -0.5787  2.9576 -1.7464
  597MOL0     H82320   8.818   2.692   4.404 -0.8189  0.2688 -0.4164
  597MOL0     H82321   9.061   2.649   4.297  3.1100  2.1071  0.6951
  597MOL0     H82322   9.015   2.765   4.175  1.0366  1.6481  0.4317
  597MOL0     H82323   9.034   2.944   4.313  1.7630 -1.4796 -2.9676
  597MOL0     H82324   8.977   2.851   4.457 -2.6799 -0.0910 -1.8228
  597MOL0     H82325   9.216   2.907   4.502 -2.7184  0.2527  0.3762
  597MOL0     H82326   9.186   2.737   4.469 -2.4916 -0.8684 -1.0892
  597MOL0     H82327   9.293   2.965   4.297  0.7766 -0.0559  0.5105
  597MOL0     H82328   9.260   2.804   4.215  1.1915  0.1920  0.0644
  597MOL0     H82329   9.443   2.853   4.449 -1.6321  1.6012 -0.0888
  597MOL0     H82330   9.438   2.704   4.344  1.6814  0.3823 -2.6552
  597MOL0     H82331   9.632   2.849   4.300 -0.8106  0.7867 -1.3426
  597MOL0     H82332   9.535   2.988   4.289 -0.6194 -0.1404 -0.7278
  597MOL0     H82333   9.510   2.747   4.103 -2.0039  0.8350  0.1171
  597MOL0     H82334   9.450   2.904   4.069 -0.9985  0.4993  1.7318
  597MOL0     H82335   9.687   3.092   4.069  0.0698 -0.0344 -1.1626
  597MOL0     H82336   9.853   3.179   3.847 -0.8934 -1.9674 -1.8205
  597MOL0     H82337   9.965   3.058   3.800  0.3388 -0.5883  0.0050
  597MOL0     H82338  10.074   3.038   3.987  0.4578  1.0594  1.3826
  597MOL0     H82339  10.077   3.199   3.914 -0.7793 -1.1218 -1.7188
  597MOL0     H82340   9.909   3.252   4.095 -0.3934 -0.6815 -2.4360
  597MOL0     H82341   9.954   3.106   4.185 -0.7376  1.3531  1.8685
  597MOL0     H82342  10.139   3.341   4.110  0.2009  0.1855  1.3563
  597MOL0     H82343  10.090   3.312   4.273 -0.6869  0.4131  0.2195
  597MOL0     H82344  10.411   3.038   4.077  1.8911  0.9127 -1.0371
  597MOL0     H82345  10.609   3.024   3.959  1.9880 -0.4779 -1.0837
  597MOL0     H82346  10.726   3.019   4.092  1.6196  2.2245  0.3080
  597MOL0     H82347  10.743   3.134   3.971 -0.3715 -1.1169 -1.6665
  597MOL0     H82348  10.960   3.540   4.387 -1.8005  0.2310 -0.0983
  597MOL0     H82349  11.172   3.674   4.324  2.1072 -0.8099 -2.1233
  597MOL0     H82350  11.280   3.726   3.909 -2.5569  0.9557 -1.2037
  597MOL0     H82351  11.190   3.887   3.924 -0.5085  1.1156  3.3776
  597MOL0     H82352  11.376   3.975   4.061  0.3001  1.8180 -1.9491
  597MOL0     H82353  11.463   3.834   4.056 -0.2528  1.8200  1.2994
  597MOL0     H82354  11.550   3.996   3.883 -0.3550  2.3837 -1.5231
  597MOL0     H82355  11.396   4.007   3.809  0.4686  2.1162  0.3815
  597MOL0     H82356  11.420   3.778   3.725  0.7338 -1.2262 -1.1542
  597MOL0     H82357  11.529   3.733   3.850  1.5274  1.0584  1.0105
  597MOL0     H82358  11.587   3.914   3.608 -0.4324 -3.1281 -2.0410
  597MOL0     H82359  11.686   3.902   3.765 -3.6641 -0.3645  3.2667
  597MOL0     H82360  11.577   3.668   3.598 -0.1639 -1.7665  0.9031
  597MOL0     H82361  11.699   3.653   3.719  1.9136  1.2558 -0.0890
  597MOL0     H82362  11.830   3.641   3.521 -0.9998  0.3777 -0.6955
  597MOL0     H82363  11.856   3.800   3.578  1.1639 -1.8916  0.4654
  597MOL0     H82364  11.838   3.813   3.338 -0.9341  2.3781 -0.6116
  597MOL0     H82365  11.707   3.893   3.422 -0.3345  0.5525 -0.6932
  597MOL0     H82366  11.028   3.681   3.913 -3.5961 -1.0117 -0.4539
  597MOL0     H82367  10.840   3.556   3.981  0.0865  0.4232  0.7001
  597MOL0     H82368  10.528   3.464   4.300 -1.0439 -0.7471  1.7134
  597MOL0     H82369  10.322   3.396   4.294  0.9788  0.8166  0.2053
  597MOL0     H82370   8.617   2.987   4.138 -1.1317  0.3070  0.1186
  597MOL0     H82371   8.371   2.964   4.089  1.2929 -0.5754 -1.1480
  597MOL0     H82372   7.993   2.894   4.137 -0.7856  1.3643  0.4785
  597MOL0     H82373   7.751   2.884   4.065  0.2826  0.3522  0.2901
  597MOL0     H82374   7.527   2.494   4.112  3.0933  0.3825 -0.4958
  597MOL0     H82375   7.590   2.580   4.246 -0.2561 -2.8913  0.2024
  597MOL0     H82376   7.393   2.747   4.248  4.6063  0.0720  0.7445
  597MOL0     H82377   7.360   2.581   4.281  2.4157  1.0413  1.8891
  597MOL0     H82378   7.337   2.708   4.004 -0.9440 -0.0081 -0.2041
  597MOL0     H82379   7.300   2.542   4.050 -1.0296  0.0129 -0.5452
  597MOL0     H82380   7.134   2.621   4.217 -1.0136 -0.0826 -0.7488
  597MOL0     H82381   7.085   2.631   4.050 -0.1363 -0.6721  0.6485
  597MOL0     H82382   7.086   3.046   4.102  0.1826  0.1016  0.1152
  597MOL0     H82383   7.753   2.458   4.090 -0.2604  0.9790 -0.5146
  597MOL0     H82384   8.080   2.399   4.079 -0.7498 -0.3162 -0.6831
  597MOL0     H82385   8.038   2.410   4.251  2.5504 -0.9391 -1.2821
  597MOL0     H82386   7.928   2.336   4.137 -0.7828  1.0262  0.9075
  598MOL0     O82387   3.355   1.265  10.109 -0.0992  0.0608  0.6039
  598MOL0     C82388   3.429   1.354  10.086 -1.0110  0.1638 -0.0628
  598MOL0     O82389   3.567   1.335  10.090 -0.4333 -1.4231  0.9549
  598MOL0     C82390   3.603   1.221  10.150  0.1164  0.8327  0.2235
  598MOL0     C82391   3.615   1.228  10.293  0.1856  0.5588 -0.0054
  598MOL0     C82392   3.668   1.112  10.370 -0.0947  0.8922  0.6724
  598MOL0     C82393   3.704   0.991  10.307  0.6856 -0.8387  0.0382
  598MOL0     O82394   3.747   0.894  10.390  1.3078  0.6914  0.0056
  598MOL0     C82395   3.737   0.752  10.353  0.2809  0.3126  1.0118
  598MOL0     C82396   3.705   0.666  10.477  0.3477 -0.5210  0.1628
  598MOL0     C82397   3.560   0.650  10.484 -0.3179  1.3119  0.3759
  598MOL0     C82398   3.511   0.571  10.601 -0.8715  0.4319  0.4361
  598MOL0     C82399   3.357   0.549  10.594  1.3501  0.3008  0.2247
  598MOL0     C82400   3.276   0.681  10.589 -0.1153  0.3341 -0.4266
  598MOL0     C82401   3.134   0.676  10.645  0.0840  0.6808 -0.1926
  598MOL0     C82402   3.130   0.642  10.795  0.1498  0.6224  0.3521
  598MOL0     N82403   2.982   0.625  10.824 -0.0679 -0.0759 -0.0179
  598MOL0     C82404   2.909   0.688  10.921  0.1863 -0.4565  0.3742
  598MOL0     C82405   2.786   0.644  10.911 -0.2268 -0.1427 -0.4695
  598MOL0     C82406   2.667   0.700  10.992 -0.1368 -0.4327  0.2907
  598MOL0     C82407   2.578   0.590  11.045 -0.7791  0.9214  0.1471
  598MOL0     C82408   2.468   0.644  11.133 -0.4794  0.4199  0.0741
  598MOL0     C82409   2.394   0.532  11.200 -0.0562 -0.1073 -1.4067
  598MOL0     O82410   2.283   0.583  11.285 -0.4915  0.2673 -0.0299
  598MOL0     C82411   2.171   0.501  11.302  0.2364 -0.4527 -0.5423
  598MOL0     C82412   2.179   0.367  11.317 -0.0876  0.1842 -0.0214
  598MOL0     C82413   2.072   0.287  11.348  0.6662 -0.2051 -0.0654
  598MOL0     C82414   2.098   0.147  11.381 -0.1527  0.7392  0.4205
  598MOL0     C82415   1.949   0.345  11.356  0.2527 -0.7297 -1.0391
  598MOL0     C82416   1.826   0.274  11.392  0.0093  0.7968 -0.7669
  598MOL0     O82417   1.705   0.339  11.360 -0.1811  0.2501 -0.2161
  598MOL0     C82418   1.598   0.309  11.443 -0.5042  0.6482  0.4662
  598MOL0     C82419   1.523   0.190  11.426 -0.4799 -0.6567  0.0629
  598MOL0     C82420   1.424   0.152  11.522 -0.0940  0.7757 -0.4640
  598MOL0     C82421   1.406   0.230  11.640  0.4172  0.2186 -0.2034
  598MOL0     O82422   1.309   0.206  11.738 -1.0183 -0.4831 -0.3840
  598MOL0     C82423   1.231   0.085  11.739  0.5931 -0.7403 -0.8740
  598MOL0     C82424   1.320  -0.037  11.776  1.3460  0.1696 -0.9949
  598MOL0     C82425   1.228  -0.156  11.824  0.1420 -0.0168 -0.2255
  598MOL0     C82426   1.187  -0.254  11.718 -0.3805  0.4907  0.4043
  598MOL0     C82427   1.056  -0.322  11.748  1.4075  0.2025 -0.0383
  598MOL0     C82428   1.014  -0.417  11.642 -0.0892  0.8246 -0.6150
  598MOL0     C82429   1.002  -0.377  11.487 -0.1537 -0.4133 -0.3111
  598MOL0     C82430   0.966  -0.491  11.395 -0.3319  0.2479 -1.1716
  598MOL0    Cl82431   1.100  -0.622  11.423 -0.3392 -0.0329  0.3270
  598MOL0     C82432   1.486   0.345  11.661  0.7119 -0.0692 -0.1012
  598MOL0     C82433   1.586   0.378  11.563 -0.2394 -0.3267 -0.2588
  598MOL0     O82434   1.829   0.172  11.459  0.1046 -0.7349  0.0839
  598MOL0     C82435   1.937   0.488  11.341 -0.2370  0.5987 -0.9492
  598MOL0     C82436   2.051   0.565  11.314  1.1186 -0.2046  0.5360
  598MOL0     N82437   2.784   0.541  10.819 -0.2774 -0.4502 -0.1395
  598MOL0     N82438   2.904   0.535  10.763 -0.5142  0.6347  0.2515
  598MOL0     C82439   3.677   0.983  10.167 -0.3332  0.0633 -0.3227
  598MOL0     C82440   3.632   1.091  10.088 -0.6212 -0.1376  0.4140
  598MOL0     C82441   3.376   1.487  10.043 -0.7612  0.0614 -0.4480
  598MOL0     C82442   3.470   1.574   9.989 -0.6572 -0.1458  0.5863
  598MOL0     C82443   3.433   1.707   9.946 -1.5781  1.0521 -0.0867
  598MOL0     C82444   3.304   1.751   9.967  0.2847  0.7504 -0.0809
  598MOL0     O82445   3.254   1.855   9.901 -0.1187 -0.5760 -0.2098
  598MOL0     C82446   3.229   1.827   9.757 -0.1340  0.2284  0.8891
  598MOL0     C82447   3.219   1.960   9.683 -0.4171 -0.7784 -0.2860
  598MOL0     C82448   3.134   2.081   9.748 -0.4118 -0.1796  0.3244
  598MOL0     C82449   2.999   2.047   9.806  0.0603 -0.3144  0.9208
  598MOL0     C82450   2.920   1.991   9.698  0.5316 -0.2545  0.3309
  598MOL0     C82451   2.853   1.952   9.608  1.0024  0.1206 -0.5235
  598MOL0     C82452   3.213   1.669  10.039 -0.7718  0.6804  0.8917
  598MOL0     C82453   3.243   1.535  10.072  0.4363  1.3498  0.6545
  598MOL0     C82454   3.137   1.451  10.134 -0.1986  0.5556  0.4155
  598MOL0     H82455   3.588   1.321  10.342 -1.2769 -0.2376  0.7635
  598MOL0     H82456   3.673   1.115  10.478 -4.4756  1.3295  1.0386
  598MOL0     H82457   3.822   0.708  10.301  1.0926  0.9325  1.7687
  598MOL0     H82458   3.651   0.740  10.288  1.8020  0.2491 -1.0755
  598MOL0     H82459   3.752   0.571  10.449  2.5463  1.4723 -3.8216
  598MOL0     H82460   3.747   0.704  10.570 -0.7592 -0.4460  0.6449
  598MOL0     H82461   3.515   0.749  10.477  1.5435  2.1136 -1.3833
  598MOL0     H82462   3.529   0.591  10.397  0.9646 -0.5249  1.0983
  598MOL0     H82463   3.570   0.480  10.606 -2.4098 -0.5924  0.6079
  598MOL0     H82464   3.535   0.631  10.690  1.4256  0.8930 -0.4463
  598MOL0     H82465   3.321   0.502  10.685  1.6412  0.9175  0.6680
  598MOL0     H82466   3.324   0.497  10.503  1.1917 -1.0797  1.0522
  598MOL0     H82467   3.324   0.757  10.650 -1.3466 -1.3857  2.9173
  598MOL0     H82468   3.278   0.717  10.486  1.3388  1.8822  0.1129
  598MOL0     H82469   3.073   0.613  10.580  0.9122 -4.2564  3.2609
  598MOL0     H82470   3.085   0.774  10.644 -2.5275 -0.5195  0.8221
  598MOL0     H82471   3.180   0.549  10.823 -2.7189 -1.2763 -0.4361
  598MOL0     H82472   3.157   0.724  10.862  1.6990  0.2763  0.2036
  598MOL0     H82473   2.943   0.756  10.998 -0.9926 -2.4078  2.7617
  598MOL0     H82474   2.619   0.776  10.930  0.7854  1.5580  1.9209
  598MOL0     H82475   2.712   0.761  11.071 -0.5090 -0.5541  0.5988
  598MOL0     H82476   2.531   0.547  10.956 -0.8139  0.5813  0.3273
  598MOL0     H82477   2.633   0.513  11.101 -0.4231 -0.8029 -2.3882
  598MOL0     H82478   2.502   0.710  11.213 -0.0501 -0.9689  1.0765
  598MOL0     H82479   2.405   0.692  11.058 -0.1652 -1.0437 -1.1809
  598MOL0     H82480   2.353   0.465  11.124 -1.5546 -0.4299 -0.3645
  598MOL0     H82481   2.465   0.492  11.273 -2.8972 -0.7776  1.2332
  598MOL0     H82482   2.280   0.326  11.314 -0.2795 -0.2224 -1.2120
  598MOL0     H82483   2.083   0.149  11.490  0.4476 -1.3759  0.5775
  598MOL0     H82484   2.201   0.126  11.353 -0.4721  2.8134 -2.9130
  598MOL0     H82485   2.043   0.069  11.328 -1.2989  1.6919  0.1574
  598MOL0     H82486   1.529   0.137  11.331  0.4572  0.4386 -0.5014
  598MOL0     H82487   1.358   0.068  11.508  1.8335 -0.6934 -1.2785
  598MOL0     H82488   1.149   0.091  11.812  0.6139  3.8143 -0.9564
  598MOL0     H82489   1.170   0.070  11.649 -3.3802 -0.8442  1.5711
  598MOL0     H82490   1.391  -0.061  11.697  0.3199 -0.0232 -1.8766
  598MOL0     H82491   1.372  -0.010  11.868 -0.5689 -1.4491  0.6628
  598MOL0     H82492   1.139  -0.127  11.881 -0.7019 -1.4651 -0.7511
  598MOL0     H82493   1.301  -0.196  11.895  0.4410  0.1565 -0.4343
  598MOL0     H82494   1.267  -0.323  11.690 -2.4239 -0.8696 -2.6491
  598MOL0     H82495   1.173  -0.192  11.629  0.1128 -3.7953 -2.9475
  598MOL0     H82496   1.053  -0.364  11.848 -2.0444  0.2681  0.0280
  598MOL0     H82497   0.972  -0.251  11.753  1.0878 -0.0586 -1.3157
  598MOL0     H82498   0.917  -0.456  11.675  1.3188 -1.8299  0.6891
  598MOL0     H82499   1.080  -0.504  11.643 -1.6459 -0.7172 -5.1230
  598MOL0     H82500   1.106  -0.353  11.466  0.1425 -0.3526  1.1530
  598MOL0     H82501   0.940  -0.287  11.477 -1.7565 -0.7732  4.2770
  598MOL0     H82502   0.953  -0.463  11.290  3.4614  2.7695 -1.1538
  598MOL0     H82503   0.874  -0.540  11.430  1.2728 -0.3761  2.5547
  598MOL0     H82504   1.465   0.403  11.750 -2.0417 -1.8953  0.5761
  598MOL0     H82505   1.649   0.465  11.574  0.7220 -0.9542 -0.6287
  598MOL0     H82506   1.844   0.543  11.344 -0.4147  0.2834 -0.6149
  598MOL0     H82507   2.047   0.673  11.307  0.1593 -0.1376  1.8528
  598MOL0     H82508   3.697   0.894  10.108 -1.5422  0.5273 -1.4955
  598MOL0     H82509   3.626   1.069   9.982 -0.3216  1.4588  0.0430
  598MOL0     H82510   3.573   1.548   9.965 -1.2703 -1.4581 -0.7711
  598MOL0     H82511   3.505   1.764   9.888  0.5969 -1.5231 -0.0907
  598MOL0     H82512   3.319   1.780   9.716  1.8731  2.5815  2.2921
  598MOL0     H82513   3.144   1.760   9.744  0.9801 -0.9858 -0.5990
  598MOL0     H82514   3.180   1.945   9.581 -0.6768  2.4549 -0.7623
  598MOL0     H82515   3.322   1.990   9.665  0.2928 -0.5320  3.4995
  598MOL0     H82516   3.187   2.137   9.824  0.4534  2.4385 -2.0381
  598MOL0     H82517   3.122   2.152   9.666 -2.0559 -0.4043  0.3318
  598MOL0     H82518   2.951   2.135   9.848 -1.1208  1.0598 -2.9321
  598MOL0     H82519   3.009   1.969   9.882  2.9326  0.1379  1.1185
  598MOL0     H82520   2.787   1.918   9.531  2.8870 -6.1792  0.0232
  598MOL0     H82521   3.112   1.707  10.050  0.1889  3.5432  0.6097
  598MOL0     H82522   3.174   1.422  10.233  1.2261 -1.8707 -0.7555
  598MOL0     H82523   3.040   1.500  10.149 -0.6599  0.2035 -1.1747
  598MOL0     H82524   3.106   1.369  10.068  1.4941 -1.2238  1.7221
  599MOL0     O82525   5.215   7.276   6.527  0.1899  0.0377 -0.2606
  599MOL0     C82526   5.142   7.183   6.522 -0.3808  0.3159 -0.4778
  599MOL0     O82527   5.005   7.181   6.511  0.0833 -0.2233  0.5549
  599MOL0     C82528   4.924   7.287   6.497 -0.2636 -0.6177  0.0744
  599MOL0     C82529   4.968   7.420   6.457 -0.4416  1.1602  0.5257
  599MOL0     C82530   4.873   7.511   6.418 -0.3084  0.9688  0.8918
  599MOL0     C82531   4.732   7.488   6.430 -0.7797 -1.0109  0.3982
  599MOL0     O82532   4.637   7.570   6.374 -0.1614 -0.0387  0.5145
  599MOL0     C82533   4.680   7.694   6.317  0.2097 -0.8462  0.1724
  599MOL0     C82534   4.558   7.776   6.272 -0.5633 -0.9033  0.1486
  599MOL0     C82535   4.613   7.887   6.181 -0.0322 -0.4681  0.5427
  599MOL0     C82536   4.508   7.995   6.163 -0.6943  0.7296  1.0291
  599MOL0     C82537   4.546   8.108   6.067  0.2943  0.3142  0.4107
  599MOL0     C82538   4.672   8.190   6.120  0.9016  0.3300  0.3939
  599MOL0     C82539   4.691   8.289   6.007 -0.3899  0.0749  0.4053
  599MOL0     C82540   4.804   8.387   6.047 -1.1009  1.2146 -0.8692
  599MOL0     N82541   4.929   8.314   6.081  0.9191 -0.4152 -0.0363
  599MOL0     C82542   5.001   8.236   5.995 -0.0772  0.0648  0.6164
  599MOL0     C82543   5.099   8.183   6.065  0.2970  0.2599 -0.7971
  599MOL0     C82544   5.204   8.091   6.015 -0.0302 -0.0911 -0.4004
  599MOL0     C82545   5.333   8.164   5.971  0.1233  0.2885  0.2981
  599MOL0     C82546   5.306   8.258   5.851  0.2069 -0.2784  0.2155
  599MOL0     C82547   5.428   8.329   5.810  0.4347  0.8578 -0.2003
  599MOL0     O82548   5.534   8.232   5.781  0.3605 -0.5242 -0.5929
  599MOL0     C82549   5.667   8.267   5.789  0.6063  0.8894 -0.1367
  599MOL0     C82550   5.764   8.162   5.789  0.2784 -0.9560 -0.0742
  599MOL0     C82551   5.897   8.180   5.796  0.3039 -0.0190  0.1280
  599MOL0     C82552   5.997   8.063   5.785 -0.5052  0.2434 -0.1837
  599MOL0     C82553   5.947   8.312   5.808 -0.0168 -0.7360  0.0023
  599MOL0     C82554   6.084   8.355   5.833 -0.2610  0.6622  0.7014
  599MOL0     O82555   6.170   8.258   5.886 -0.4772  0.2074  0.4556
  599MOL0     C82556   6.302   8.291   5.912  0.2538 -0.4593  0.1117
  599MOL0     C82557   6.356   8.250   6.029 -0.1752  0.5528  0.5318
  599MOL0     C82558   6.492   8.274   6.059  0.2567  1.2026  0.9527
  599MOL0     C82559   6.574   8.314   5.959 -0.1819 -1.1453 -0.6940
  599MOL0     O82560   6.704   8.312   5.989  0.3929  0.9740 -0.1583
  599MOL0     C82561   6.796   8.385   5.906  0.2571  0.2884  1.5340
  599MOL0     C82562   6.946   8.371   5.947 -0.7603 -0.2093 -0.6195
  599MOL0     C82563   6.978   8.435   6.084 -0.1540 -0.6388  0.7451
  599MOL0     C82564   6.950   8.592   6.082 -0.2077 -0.1705  0.4278
  599MOL0     C82565   7.028   8.668   5.974 -0.3564  0.0313 -0.1873
  599MOL0     C82566   6.998   8.821   5.975  0.0931  0.4343 -0.1997
  599MOL0     C82567   7.079   8.881   5.861 -0.7977 -0.3260  0.3360
  599MOL0     C82568   7.043   9.032   5.852 -0.2805  0.3489 -0.3310
  599MOL0    Cl82569   7.151   9.121   5.739  0.0862  0.0971  0.1113
  599MOL0     C82570   6.522   8.373   5.840  1.0294  0.6432 -0.5801
  599MOL0     C82571   6.386   8.345   5.810 -1.8294 -0.6938 -0.8643
  599MOL0     O82572   6.115   8.467   5.794  0.5314 -0.1940  0.6766
  599MOL0     C82573   5.853   8.421   5.786 -0.3459 -0.3420 -0.0783
  599MOL0     C82574   5.717   8.395   5.783 -0.4771  0.1809 -0.4767
  599MOL0     N82575   5.092   8.229   6.197  0.0014 -0.5260 -0.2402
  599MOL0     N82576   4.987   8.297   6.211  0.3949  0.4623 -0.4839
  599MOL0     C82577   4.686   7.368   6.485  0.4759  0.2066  0.4116
  599MOL0     C82578   4.781   7.263   6.512 -0.9628 -0.7527  0.9330
  599MOL0     C82579   5.215   7.057   6.531  0.1183 -1.1482 -0.6452
  599MOL0     C82580   5.356   7.051   6.500  0.3278 -0.9004 -0.0010
  599MOL0     C82581   5.428   6.936   6.515 -0.0451 -0.3013 -0.6626
  599MOL0     C82582   5.367   6.818   6.561  0.0965  1.0346 -0.0936
  599MOL0     O82583   5.432   6.699   6.587  0.1759 -0.0709  0.0430
  599MOL0     C82584   5.578   6.680   6.563  0.0681  0.2299  0.8555
  599MOL0     C82585   5.622   6.568   6.658 -0.5559 -0.4458  0.3143
  599MOL0     C82586   5.586   6.431   6.593  1.2518  1.0080 -1.0206
  599MOL0     C82587   5.614   6.306   6.685 -0.4977 -0.5352  0.9497
  599MOL0     C82588   5.762   6.278   6.697 -0.8528 -0.0037  0.2636
  599MOL0     C82589   5.863   6.211   6.708 -0.6766 -0.7316 -0.0935
  599MOL0     C82590   5.234   6.817   6.594  0.4651 -1.2342 -0.3275
  599MOL0     C82591   5.151   6.934   6.580 -0.7893 -0.6409 -0.0844
  599MOL0     C82592   5.003   6.920   6.623  0.3924 -0.3375 -0.5388
  599MOL0     H82593   5.072   7.446   6.449 -0.3379  1.4671  2.3274
  599MOL0     H82594   4.914   7.601   6.373  2.6489 -1.3585 -1.4875
  599MOL0     H82595   4.741   7.683   6.226  0.6832  5.0432 -0.6295
  599MOL0     H82596   4.741   7.747   6.391 -0.7324  0.1928  0.2260
  599MOL0     H82597   4.491   7.712   6.214 -1.4086 -0.5693  0.7439
  599MOL0     H82598   4.497   7.809   6.356  0.0019 -0.4578  0.3861
  599MOL0     H82599   4.705   7.933   6.218 -0.0890 -1.0809  1.4826
  599MOL0     H82600   4.631   7.835   6.086  1.8486 -0.2835  0.7533
  599MOL0     H82601   4.421   7.944   6.122  0.5154 -0.7531  0.2022
  599MOL0     H82602   4.503   8.042   6.262  1.4634 -1.4204  2.2819
  599MOL0     H82603   4.460   8.171   6.044 -1.0976 -2.1082 -1.5679
  599MOL0     H82604   4.587   8.059   5.978  0.5498  0.7043  0.3110
  599MOL0     H82605   4.648   8.235   6.217  0.6353 -1.1896  1.0675
  599MOL0     H82606   4.759   8.125   6.129  1.3372  0.7111 -0.8359
  599MOL0     H82607   4.597   8.344   5.993  1.4560  3.3980 -0.0032
  599MOL0     H82608   4.714   8.239   5.912 -0.8347  0.0369  0.3121
  599MOL0     H82609   4.825   8.440   5.953  0.7307 -1.4377 -2.0502
  599MOL0     H82610   4.773   8.465   6.117 -0.2485  0.4772  0.3522
  599MOL0     H82611   4.993   8.212   5.889 -1.5868  2.4557  0.1208
  599MOL0     H82612   5.150   8.038   5.936 -0.0524 -2.6673  1.2258
  599MOL0     H82613   5.223   8.021   6.097 -0.2054  1.2654  0.8476
  599MOL0     H82614   5.376   8.211   6.060 -0.3005  0.3157  0.4912
  599MOL0     H82615   5.405   8.087   5.941 -0.4000  1.1194 -3.5949
  599MOL0     H82616   5.262   8.206   5.765 -1.6458 -1.0341  1.5456
  599MOL0     H82617   5.237   8.340   5.874  0.7051  0.3316 -0.4290
  599MOL0     H82618   5.410   8.386   5.718 -2.9082 -0.7512 -0.6673
  599MOL0     H82619   5.450   8.404   5.886  0.5244  1.7175 -1.0391
  599MOL0     H82620   5.732   8.059   5.791  3.6254 -2.2647  4.5182
  599MOL0     H82621   5.941   7.981   5.739 -2.4491  0.4385  1.6697
  599MOL0     H82622   6.015   8.032   5.888 -0.1111  1.5399  0.1538
  599MOL0     H82623   6.089   8.096   5.737  0.0451  2.9320  2.4170
  599MOL0     H82624   6.298   8.190   6.099 -0.7490 -1.2900 -1.4284
  599MOL0     H82625   6.536   8.249   6.156  0.8250 -1.6616  0.0560
  599MOL0     H82626   6.786   8.352   5.802  2.7212  1.6310  0.7733
  599MOL0     H82627   6.772   8.491   5.894 -1.9890 -0.2743  0.4180
  599MOL0     H82628   6.965   8.264   5.958  4.0222  0.2568 -2.0640
  599MOL0     H82629   7.000   8.412   5.861 -1.1816  3.2893  0.6339
  599MOL0     H82630   7.085   8.421   6.103  0.6580  0.9733 -1.9682
  599MOL0     H82631   6.912   8.389   6.157 -0.3494 -2.0776 -0.2878
  599MOL0     H82632   6.974   8.623   6.184  0.1892 -1.5791  0.7872
  599MOL0     H82633   6.844   8.612   6.067 -0.4303 -0.9239  0.9782
  599MOL0     H82634   7.136   8.651   5.980 -0.5303 -1.0653  0.0531
  599MOL0     H82635   7.013   8.620   5.877  2.5446 -0.3797 -0.5266
  599MOL0     H82636   7.032   8.861   6.071  2.6284 -0.0274 -0.8291
  599MOL0     H82637   6.891   8.823   5.953  0.0391 -0.6426 -0.1087
  599MOL0     H82638   7.054   8.837   5.764  1.5863  1.8192 -1.3910
  599MOL0     H82639   7.184   8.856   5.881 -0.3874 -0.1140 -1.4075
  599MOL0     H82640   7.056   9.079   5.950  1.0995  1.8042 -1.1503
  599MOL0     H82641   6.935   9.036   5.838 -0.6922 -4.0470  0.4319
  599MOL0     H82642   6.581   8.435   5.774  0.7112  1.1366 -0.4064
  599MOL0     H82643   6.354   8.385   5.715 -2.4460 -0.9433 -0.7691
  599MOL0     H82644   5.897   8.520   5.790 -0.8904  0.0802 -2.6294
  599MOL0     H82645   5.645   8.476   5.778 -3.0318 -1.8324  1.1115
  599MOL0     H82646   4.579   7.356   6.493  0.2883  2.3833  2.1306
  599MOL0     H82647   4.730   7.172   6.541 -1.4879 -1.5297 -2.1292
  599MOL0     H82648   5.407   7.142   6.469  0.5323  0.1366  3.0279
  599MOL0     H82649   5.532   6.935   6.487 -0.0144 -0.7011 -0.5292
  599MOL0     H82650   5.599   6.652   6.460  2.4394  1.8114  0.8370
  599MOL0     H82651   5.621   6.779   6.580 -1.9781  1.0480  1.6621
  599MOL0     H82652   5.583   6.579   6.760  0.3416  0.7766  0.5627
  599MOL0     H82653   5.731   6.577   6.668 -0.7788  0.9609  2.0997
  599MOL0     H82654   5.481   6.429   6.565  1.2702 -1.3214 -1.1264
  599MOL0     H82655   5.631   6.417   6.494  1.4743 -0.4078 -0.7528
  599MOL0     H82656   5.563   6.218   6.645 -1.9043  0.8733 -0.5045
  599MOL0     H82657   5.585   6.328   6.788  0.1123  0.7483  0.8708
  599MOL0     H82658   5.957   6.160   6.714 -0.2373  0.0713  0.0293
  599MOL0     H82659   5.189   6.730   6.641 -2.8927  1.2212  1.4663
  599MOL0     H82660   4.993   6.834   6.691 -0.2044  1.5099  1.8471
  599MOL0     H82661   4.992   7.008   6.688  4.7569 -0.0389  0.1585
  599MOL0     H82662   4.929   6.920   6.543  0.2075 -2.0728 -0.4124
  600MOL0     O82663   6.341   2.868   8.078  1.0960  0.3331  0.6075
  600MOL0     C82664   6.351   2.873   8.202  0.1454 -0.1979  0.7616
  600MOL0     O82665   6.461   2.901   8.268  0.6098  0.3252  0.6542
  600MOL0     C82666   6.575   2.929   8.192 -0.4265 -0.3736 -0.4658
  600MOL0     C82667   6.684   2.867   8.245  0.4114  1.0190 -0.8242
  600MOL0     C82668   6.810   2.872   8.179  1.3325  0.6854 -0.1854
  600MOL0     C82669   6.828   2.939   8.057  0.3784  0.5288 -0.1665
  600MOL0     O82670   6.938   2.944   7.975 -0.1644  0.0641 -0.3424
  600MOL0     C82671   6.972   2.808   7.925 -0.5440 -0.5156  1.0449
  600MOL0     C82672   7.049   2.823   7.788 -0.5222 -0.6619  1.0275
  600MOL0     C82673   7.199   2.832   7.820  0.1250  0.0195  0.3752
  600MOL0     C82674   7.274   2.901   7.703 -0.3897 -0.4190  0.3039
  600MOL0     C82675   7.424   2.890   7.696 -0.7782 -1.4407  0.3237
  600MOL0     C82676   7.474   2.972   7.577 -0.4582 -0.4320 -0.0614
  600MOL0     C82677   7.628   2.947   7.564  0.5642  0.1490 -1.0374
  600MOL0     C82678   7.689   3.014   7.436 -0.0543  0.3206  0.5541
  600MOL0     N82679   7.747   3.140   7.475  0.9191  0.6834 -0.0815
  600MOL0     C82680   7.676   3.259   7.477  0.5470 -0.3230 -0.2996
  600MOL0     C82681   7.759   3.336   7.550  0.9562 -0.7551 -0.8184
  600MOL0     C82682   7.728   3.477   7.588  0.0394  0.1615 -0.6606
  600MOL0     C82683   7.621   3.484   7.691  0.8252  0.0953  0.6512
  600MOL0     C82684   7.677   3.426   7.828 -0.2931  0.0222  0.4388
  600MOL0     C82685   7.577   3.425   7.940 -0.5057  0.3838 -0.7514
  600MOL0     O82686   7.472   3.332   7.915  0.2285 -0.4897  0.5379
  600MOL0     C82687   7.390   3.283   8.007  0.1907  0.0423 -0.3715
  600MOL0     C82688   7.379   3.336   8.138  0.2993  0.1030  0.3123
  600MOL0     C82689   7.284   3.281   8.232 -0.5185 -0.2025  0.5298
  600MOL0     C82690   7.271   3.350   8.368 -0.4661  0.5261 -0.1454
  600MOL0     C82691   7.201   3.174   8.189  0.6010  0.8376  0.7046
  600MOL0     C82692   7.099   3.113   8.277  0.6765 -1.0834 -1.0000
  600MOL0     O82693   7.021   3.210   8.344  0.3438 -0.1230 -0.1441
  600MOL0     C82694   6.934   3.150   8.435  0.3267  0.0831 -0.2019
  600MOL0     C82695   6.974   3.114   8.563 -0.5809 -0.0475 -0.1232
  600MOL0     C82696   6.886   3.064   8.659  0.6493  0.0799  0.7420
  600MOL0     C82697   6.743   3.075   8.636  0.1400 -0.5372 -0.0356
  600MOL0     O82698   6.657   3.043   8.735  0.0675 -0.0882 -0.0323
  600MOL0     C82699   6.561   2.934   8.703 -0.1603  0.3776 -0.2881
  600MOL0     C82700   6.513   2.857   8.825 -0.2324 -0.1805  0.5801
  600MOL0     C82701   6.625   2.746   8.873  0.4128  0.5730  0.6630
  600MOL0     C82702   6.763   2.790   8.912 -0.7883 -0.5298 -0.5137
  600MOL0     C82703   6.857   2.670   8.945 -0.3891  0.0565 -0.2298
  600MOL0     C82704   7.003   2.720   8.983 -0.6735  0.1351 -0.1513
  600MOL0     C82705   7.096   2.591   8.990  0.1302 -0.2600 -0.2885
  600MOL0     C82706   7.250   2.626   8.990  0.0629 -0.0317 -0.4137
  600MOL0    Cl82707   7.283   2.737   9.124  0.2104  0.0170 -0.0039
  600MOL0     C82708   6.700   3.115   8.510  0.2936 -0.0446 -0.8601
  600MOL0     C82709   6.794   3.148   8.404  1.2536  0.7049 -0.6945
  600MOL0     O82710   7.092   2.990   8.285  0.2256 -0.6475 -0.1640
  600MOL0     C82711   7.204   3.138   8.059 -0.2818 -0.6766  0.2944
  600MOL0     C82712   7.303   3.188   7.975 -0.1282 -0.2645 -0.4027
  600MOL0     N82713   7.870   3.272   7.589  0.1702 -0.6444  0.2256
  600MOL0     N82714   7.862   3.149   7.551 -0.5226  0.2944 -0.4900
  600MOL0     C82715   6.725   3.018   8.013 -0.8898  1.2393 -0.1974
  600MOL0     C82716   6.600   3.023   8.080  0.6225 -0.7342  0.4486
  600MOL0     C82717   6.224   2.847   8.273 -0.3491 -0.0293  0.2628
  600MOL0     C82718   6.107   2.856   8.193 -0.4502 -0.6155 -0.6872
  600MOL0     C82719   5.985   2.824   8.248  0.7116 -0.5556 -0.6757
  600MOL0     C82720   5.975   2.785   8.380 -0.0711  0.2734  0.5496
  600MOL0     O82721   5.862   2.761   8.445 -0.9528  0.0982 -0.5660
  600MOL0     C82722   5.805   2.632   8.418 -0.3943 -0.3647 -0.0435
  600MOL0     C82723   5.679   2.625   8.507 -0.6027 -0.3044  0.4659
  600MOL0     C82724   5.603   2.493   8.485  0.4592 -0.3541 -0.3171
  600MOL0     C82725   5.565   2.454   8.342 -0.6216 -0.4939  0.6492
  600MOL0     C82726   5.471   2.336   8.346 -0.8365 -0.4523 -0.7303
  600MOL0     C82727   5.393   2.244   8.340 -0.2079 -0.1844 -0.8588
  600MOL0     C82728   6.088   2.773   8.462  0.2538  0.2311  0.2010
  600MOL0     C82729   6.216   2.799   8.409 -0.6862 -0.6210 -0.3995
  600MOL0     C82730   6.332   2.771   8.507  0.0328  0.5428 -0.7655
  600MOL0     H82731   6.668   2.814   8.338 -0.4996 -1.9141 -2.4871
  600MOL0     H82732   6.885   2.806   8.220  0.8736  0.8704  1.0068
  600MOL0     H82733   6.881   2.753   7.901 -0.2406  0.1248 -2.0477
  600MOL0     H82734   7.015   2.745   8.002 -0.1498 -2.9615 -1.0478
  600MOL0     H82735   7.034   2.742   7.716  3.3168  0.5389 -1.4015
  600MOL0     H82736   7.016   2.913   7.735 -0.6701 -1.0394  0.4706
  600MOL0     H82737   7.218   2.901   7.902 -0.6798  3.1348 -1.8678
  600MOL0     H82738   7.245   2.733   7.832  2.2392  0.6052 -2.0494
  600MOL0     H82739   7.230   2.855   7.614 -0.0978 -0.9226  0.4191
  600MOL0     H82740   7.258   3.010   7.701  1.4745 -0.0653  1.6907
  600MOL0     H82741   7.466   2.789   7.698  0.7478 -0.8364  0.6330
  600MOL0     H82742   7.464   2.938   7.786 -2.1265  0.2173  0.0941
  600MOL0     H82743   7.433   2.924   7.487 -0.3489 -1.9113  0.6477
  600MOL0     H82744   7.447   3.078   7.580  0.2300 -0.2693  0.9747
  600MOL0     H82745   7.644   2.839   7.561  1.4188  0.2814 -1.5964
  600MOL0     H82746   7.671   2.987   7.656 -2.1131 -1.4006  0.9943
  600MOL0     H82747   7.773   2.951   7.403 -1.7144 -0.2072 -3.1788
  600MOL0     H82748   7.620   3.014   7.351  1.5603 -2.8344 -0.9339
  600MOL0     H82749   7.585   3.297   7.432  0.4291  0.2222  0.3935
  600MOL0     H82750   7.683   3.529   7.502 -0.0090  1.3633  0.0661
  600MOL0     H82751   7.816   3.538   7.610  0.6108 -0.1462 -1.9688
  600MOL0     H82752   7.583   3.586   7.705 -0.1557 -0.3572  1.4442
  600MOL0     H82753   7.534   3.432   7.650  0.2833  1.1193  0.4695
  600MOL0     H82754   7.716   3.326   7.811  0.2547  0.6830 -3.0725
  600MOL0     H82755   7.764   3.482   7.864 -0.8153  0.5385  0.9287
  600MOL0     H82756   7.627   3.392   8.031  0.5854  2.4032 -0.5651
  600MOL0     H82757   7.533   3.523   7.964  0.0625 -0.3832  4.6417
  600MOL0     H82758   7.444   3.417   8.168  0.4325 -0.6364  2.1927
  600MOL0     H82759   7.258   3.278   8.449  0.4819  0.3677 -0.1324
  600MOL0     H82760   7.193   3.427   8.373  0.2714  1.2766  0.1194
  600MOL0     H82761   7.363   3.409   8.376 -1.1641  1.6350 -0.0228
  600MOL0     H82762   7.081   3.117   8.583 -0.6485  0.3215  0.2050
  600MOL0     H82763   6.919   3.032   8.758  1.0045  1.3023  1.0412
  600MOL0     H82764   6.472   2.983   8.662  0.6929 -1.3856 -4.7858
  600MOL0     H82765   6.597   2.866   8.626  2.6748  2.0996 -0.6168
  600MOL0     H82766   6.495   2.919   8.914 -1.1159 -2.9225  2.4640
  600MOL0     H82767   6.417   2.805   8.817 -0.7165  0.7523  0.2420
  600MOL0     H82768   6.627   2.663   8.802 -4.3618 -0.9458  1.9654
  600MOL0     H82769   6.578   2.708   8.964 -0.1351  1.0925  0.6044
  600MOL0     H82770   6.764   2.858   8.998 -1.2200 -0.9575 -0.1658
  600MOL0     H82771   6.812   2.843   8.830 -3.1941  0.5427 -1.3401
  600MOL0     H82772   6.806   2.624   9.030 -2.2415 -0.0903 -1.3602
  600MOL0     H82773   6.848   2.598   8.862  1.5896  1.7769 -2.0348
  600MOL0     H82774   7.003   2.767   9.081  1.4191 -0.8685  0.3738
  600MOL0     H82775   7.052   2.790   8.914  0.2216  1.0796  1.3811
  600MOL0     H82776   7.068   2.544   8.896 -0.7603 -0.7773  0.2285
  600MOL0     H82777   7.073   2.521   9.070 -0.6510  0.1208 -0.1662
  600MOL0     H82778   7.292   2.676   8.903  4.7726  1.3032  2.2391
  600MOL0     H82779   7.313   2.540   9.018  0.9770  1.0462  1.0211
  600MOL0     H82780   6.597   3.131   8.480 -0.4168 -0.6277  1.0992
  600MOL0     H82781   6.750   3.172   8.309 -1.9587 -1.2086  0.1650
  600MOL0     H82782   7.126   3.075   8.018 -1.5318  0.6231  0.5806
  600MOL0     H82783   7.309   3.149   7.874  0.9516  0.7389 -0.7501
  600MOL0     H82784   6.736   3.071   7.919 -0.6920  1.8552  0.1631
  600MOL0     H82785   6.516   3.074   8.033  0.8840 -1.0278 -0.3379
  600MOL0     H82786   6.119   2.879   8.087 -0.6471 -0.1949 -0.6189
  600MOL0     H82787   5.897   2.841   8.186 -2.6522 -1.1448  3.5052
  600MOL0     H82788   5.795   2.622   8.309  4.8972 -2.2552 -0.6457
  600MOL0     H82789   5.878   2.557   8.449 -0.7755 -0.3776  0.8515
  600MOL0     H82790   5.618   2.715   8.491  2.6151  2.6552  3.1294
  600MOL0     H82791   5.718   2.625   8.609  0.8378  2.0155 -0.0090
  600MOL0     H82792   5.668   2.412   8.522 -1.4936 -1.7013  0.3062
  600MOL0     H82793   5.514   2.496   8.549  0.6302 -1.3384 -0.0141
  600MOL0     H82794   5.651   2.421   8.284 -0.6937 -0.6787  0.6466
  600MOL0     H82795   5.523   2.541   8.291 -1.3337 -0.4488  1.2980
  600MOL0     H82796   5.322   2.164   8.343 -0.5570  0.1096 -1.1643
  600MOL0     H82797   6.073   2.739   8.564  3.7372 -2.6732 -0.0278
  600MOL0     H82798   6.383   2.864   8.535  0.6089  0.7704 -2.4400
  600MOL0     H82799   6.295   2.729   8.601  0.2816  0.6115 -0.6373
  600MOL0     H82800   6.409   2.705   8.467  1.7128  1.6796  0.4596
  601MOL0     O82801  10.730   3.477   6.088 -0.5615 -0.1860 -0.5966
  601MOL0     C82802  10.818   3.556   6.050 -0.0819 -0.3893 -0.3318
  601MOL0     O82803  10.797   3.696   6.055  0.1118 -0.0629  0.0790
  601MOL0     C82804  10.675   3.753   6.056 -0.5682  0.1125  0.0524
  601MOL0     C82805  10.584   3.717   5.955 -0.7170 -0.3662 -0.0796
  601MOL0     C82806  10.455   3.765   5.962 -0.0437 -0.5960  0.0797
  601MOL0     C82807  10.433   3.858   6.065  0.2206 -0.3090 -0.9460
  601MOL0     O82808  10.307   3.908   6.087  0.3109 -0.3555 -0.1933
  601MOL0     C82809  10.274   3.997   6.194 -0.1170 -0.2919 -0.3201
  601MOL0     C82810  10.125   3.997   6.218  0.6350  0.1839 -0.7869
  601MOL0     C82811  10.056   4.070   6.105  0.3815 -0.3069 -0.0761
  601MOL0     C82812   9.901   4.081   6.122  0.0112  0.7392  0.1534
  601MOL0     C82813   9.828   4.119   5.991 -0.9271 -0.5614 -1.0880
  601MOL0     C82814   9.867   4.260   5.951  0.0624  0.1804 -0.4686
  601MOL0     C82815   9.770   4.300   5.846 -0.8094  0.1547 -0.2634
  601MOL0     C82816   9.826   4.419   5.763  0.2431 -0.3054 -0.5054
  601MOL0     N82817   9.956   4.368   5.714 -0.6771  0.2323 -0.5713
  601MOL0     C82818  10.071   4.426   5.739 -1.0530 -0.1642 -0.4235
  601MOL0     C82819  10.156   4.376   5.656 -0.9040 -0.8404 -0.2307
  601MOL0     C82820  10.299   4.408   5.662  0.1798 -0.4298  0.8349
  601MOL0     C82821  10.364   4.380   5.801  0.2579 -0.4448 -0.2335
  601MOL0     C82822  10.352   4.244   5.864  0.1702  0.5022 -0.0154
  601MOL0     C82823  10.470   4.225   5.960 -0.3850  0.2614 -0.1224
  601MOL0     O82824  10.460   4.322   6.068  0.9258 -0.8634  0.3700
  601MOL0     C82825  10.517   4.309   6.187  0.3833 -1.2024  1.1240
  601MOL0     C82826  10.626   4.224   6.206  0.1331 -0.0219 -0.5174
  601MOL0     C82827  10.696   4.221   6.331  0.1522  0.5757 -0.6137
  601MOL0     C82828  10.829   4.150   6.333 -0.1054  0.5286  0.1510
  601MOL0     C82829  10.651   4.300   6.436 -0.1430 -0.0559 -0.5880
  601MOL0     C82830  10.696   4.289   6.575 -0.4107 -0.3076 -0.0456
  601MOL0     O82831  10.770   4.171   6.606  0.2127  0.7062  0.1078
  601MOL0     C82832  10.789   4.163   6.738  0.2491  0.1164 -1.2428
  601MOL0     C82833  10.679   4.149   6.821  1.2550 -0.5399  0.3372
  601MOL0     C82834  10.693   4.153   6.956  0.0263 -0.2886  0.7744
  601MOL0     C82835  10.819   4.164   7.018 -0.1090 -0.1497  0.2087
  601MOL0     O82836  10.830   4.156   7.158 -0.2789  0.3365  0.8680
  601MOL0     C82837  10.722   4.100   7.234  0.0396 -0.2146 -0.3803
  601MOL0     C82838  10.770   4.058   7.374 -0.0532 -0.1146 -0.1755
  601MOL0     C82839  10.807   4.182   7.467 -0.1842  0.7876 -0.7456
  601MOL0     C82840  10.880   4.131   7.591 -0.4464 -1.1960  0.3643
  601MOL0     C82841  10.912   4.259   7.679 -0.2427  0.6050  0.5181
  601MOL0     C82842  10.967   4.207   7.816 -0.9188 -0.1723  0.7066
  601MOL0     C82843  10.991   4.315   7.929 -0.1815 -0.7960  0.0248
  601MOL0     C82844  10.995   4.246   8.065  0.2056  0.3729  0.7499
  601MOL0    Cl82845  11.163   4.193   8.097  0.3481  0.5624  0.2315
  601MOL0     C82846  10.928   4.183   6.937 -0.4410  0.2283  0.3230
  601MOL0     C82847  10.915   4.183   6.799  0.2026 -0.6097  0.6933
  601MOL0     O82848  10.672   4.380   6.658  0.5754 -0.5955  0.2977
  601MOL0     C82849  10.537   4.388   6.409  0.2743  0.1242 -0.4820
  601MOL0     C82850  10.473   4.392   6.288  0.3050 -0.2711  0.5600
  601MOL0     N82851  10.092   4.287   5.574 -0.4633  0.0826  0.1197
  601MOL0     N82852   9.968   4.275   5.614  0.4322 -0.6753  0.0043
  601MOL0     C82853  10.530   3.893   6.159  0.1055 -0.1218 -0.6289
  601MOL0     C82854  10.650   3.838   6.159 -0.0858  0.1085 -0.2983
  601MOL0     C82855  10.945   3.504   5.995  0.0631  0.2865 -0.9581
  601MOL0     C82856  10.963   3.361   5.972 -0.6741  0.3322 -0.3681
  601MOL0     C82857  11.075   3.303   5.924 -0.0546 -0.5102  0.3035
  601MOL0     C82858  11.178   3.384   5.886  0.3721  0.6025 -0.0866
  601MOL0     O82859  11.293   3.331   5.837  0.2256 -0.2628 -0.6049
  601MOL0     C82860  11.281   3.269   5.712 -1.3124  0.0253  0.4190
  601MOL0     C82861  11.362   3.345   5.611 -0.1763  0.6146  0.3663
  601MOL0     C82862  11.515   3.319   5.632  0.6818  1.1300  0.3594
  601MOL0     C82863  11.576   3.377   5.762  1.0748  0.1746  0.4156
  601MOL0     C82864  11.719   3.393   5.732  0.0210  0.7687 -0.8436
  601MOL0     C82865  11.838   3.387   5.702  0.0695  0.5859  0.6575
  601MOL0     C82866  11.178   3.513   5.916  0.9336 -0.8854 -1.0940
  601MOL0     C82867  11.068   3.578   5.979  0.3264 -0.2241 -0.4151
  601MOL0     C82868  11.087   3.716   6.013 -0.5217 -1.1197 -0.2776
  601MOL0     H82869  10.620   3.656   5.873  0.7758 -0.8587  0.9030
  601MOL0     H82870  10.379   3.745   5.887  0.6706 -0.4889 -0.6892
  601MOL0     H82871  10.304   4.100   6.171  0.5347 -0.1675  0.9845
  601MOL0     H82872  10.308   3.967   6.293 -1.4692 -0.5187  0.1015
  601MOL0     H82873  10.091   3.893   6.217 -3.0035  1.2451 -0.2513
  601MOL0     H82874  10.105   4.037   6.317 -1.8443 -0.2719 -1.0534
  601MOL0     H82875  10.088   4.174   6.092 -1.5776  0.2514 -0.7877
  601MOL0     H82876  10.073   4.016   6.011 -2.8566 -0.7000 -0.5467
  601MOL0     H82877   9.855   3.989   6.159  0.1399  0.1289 -1.1801
  601MOL0     H82878   9.886   4.160   6.197 -0.5255 -1.8175  2.9559
  601MOL0     H82879   9.721   4.119   6.011 -0.9325  0.7793 -1.0450
  601MOL0     H82880   9.843   4.045   5.912 -2.6222 -1.4748 -0.6096
  601MOL0     H82881   9.872   4.323   6.040  0.4235  0.6706 -0.8314
  601MOL0     H82882   9.973   4.249   5.925  0.2279 -0.5567  0.4636
  601MOL0     H82883   9.678   4.325   5.900 -0.5868 -2.2729  1.3586
  601MOL0     H82884   9.743   4.220   5.777 -2.1654 -0.1370  0.5799
  601MOL0     H82885   9.762   4.437   5.676  1.2955 -2.1175 -1.7250
  601MOL0     H82886   9.844   4.509   5.822 -1.2052 -1.1906  1.4004
  601MOL0     H82887  10.090   4.494   5.822  1.4349 -1.0107 -0.2328
  601MOL0     H82888  10.318   4.510   5.627  0.4188 -0.8230 -0.2299
  601MOL0     H82889  10.358   4.349   5.591 -0.6587  1.5325 -1.6573
  601MOL0     H82890  10.471   4.399   5.785 -0.0297  0.5434 -1.0717
  601MOL0     H82891  10.344   4.454   5.878  0.8532  1.8514 -2.1742
  601MOL0     H82892  10.253   4.239   5.912 -0.5743 -0.1548 -1.5537
  601MOL0     H82893  10.360   4.168   5.787  2.5620  0.6701  0.0204
  601MOL0     H82894  10.453   4.126   6.003  2.0134 -0.0480  0.2530
  601MOL0     H82895  10.574   4.234   5.929  0.3248 -0.3079  1.9422
  601MOL0     H82896  10.676   4.172   6.125  1.1774  0.3564 -0.1305
  601MOL0     H82897  10.827   4.055   6.387 -4.2879  0.1965 -0.2728
  601MOL0     H82898  10.900   4.203   6.397 -0.2616 -2.4053  3.0415
  601MOL0     H82899  10.870   4.135   6.233 -3.8383 -0.0052 -1.4859
  601MOL0     H82900  10.576   4.144   6.786  0.8028 -0.8119  1.6418
  601MOL0     H82901  10.603   4.150   7.016 -0.7874 -0.0517 -0.3918
  601MOL0     H82902  10.646   4.177   7.247  1.0519  1.2951 -2.6514
  601MOL0     H82903  10.684   4.016   7.175 -0.1732 -0.1663 -0.3099
  601MOL0     H82904  10.713   3.979   7.423  0.6911 -1.0914 -0.8399
  601MOL0     H82905  10.864   4.012   7.341 -0.4768 -0.4327 -0.9542
  601MOL0     H82906  10.711   4.228   7.491 -0.4219  0.2941 -0.7225
  601MOL0     H82907  10.874   4.251   7.416 -0.2261  1.4189  0.0304
  601MOL0     H82908  10.981   4.100   7.564  0.7470  2.2890  0.3372
  601MOL0     H82909  10.817   4.065   7.651 -2.8474  1.4183  0.9460
  601MOL0     H82910  10.981   4.327   7.628 -0.7457 -0.7315 -2.1416
  601MOL0     H82911  10.823   4.322   7.689 -1.7802 -1.1482 -1.2075
  601MOL0     H82912  11.064   4.158   7.805 -1.2418 -0.3060 -2.3452
  601MOL0     H82913  10.898   4.129   7.849 -0.1827 -1.8524 -1.5154
  601MOL0     H82914  10.914   4.392   7.920  2.2920  1.9436  0.9076
  601MOL0     H82915  11.084   4.369   7.909 -0.8490  0.3358 -0.0815
  601MOL0     H82916  10.923   4.164   8.076 -0.9389  1.0928 -0.9456
  601MOL0     H82917  10.986   4.323   8.142 -0.0852 -0.9349  2.0621
  601MOL0     H82918  11.023   4.199   6.986 -0.9974  0.9542  1.1756
  601MOL0     H82919  11.010   4.206   6.750  1.0248 -0.8197  2.1460
  601MOL0     H82920  10.501   4.462   6.480  0.5170  0.3099 -0.5504
  601MOL0     H82921  10.396   4.465   6.263 -2.4407 -1.5183  4.4905
  601MOL0     H82922  10.509   3.966   6.237 -1.0752 -2.1304  1.0356
  601MOL0     H82923  10.723   3.853   6.238 -1.7179 -1.1456  1.5411
  601MOL0     H82924  10.879   3.294   5.984 -1.5867  1.0161 -2.3577
  601MOL0     H82925  11.065   3.196   5.910 -0.9854 -0.2278 -1.4099
  601MOL0     H82926  11.322   3.169   5.727  0.9032  0.8241  0.0715
  601MOL0     H82927  11.178   3.257   5.678 -0.9558  3.1191 -2.2811
  601MOL0     H82928  11.340   3.452   5.620 -2.1345  0.2019  0.8808
  601MOL0     H82929  11.330   3.319   5.510  0.8366  0.2428  0.1305
  601MOL0     H82930  11.543   3.213   5.625 -3.1140  0.0771 -2.8685
  601MOL0     H82931  11.562   3.368   5.547 -0.1931  1.5672  0.1123
  601MOL0     H82932  11.568   3.309   5.848 -1.3926 -1.6293 -1.0881
  601MOL0     H82933  11.529   3.469   5.796 -1.7007 -0.5301 -1.1892
  601MOL0     H82934  11.936   3.348   5.680 -0.2605  0.0663  0.0533
  601MOL0     H82935  11.275   3.558   5.898  0.3469  1.7690  1.5365
  601MOL0     H82936  11.051   3.732   6.115 -4.2989 -1.7817 -1.3726
  601MOL0     H82937  11.192   3.747   6.020 -1.1616  1.5332 -1.4022
  601MOL0     H82938  11.039   3.775   5.935  2.9413 -1.4818 -2.9643
  602MOL0     O82939   9.751   6.023   0.980  0.0668 -0.6202  0.6831
  602MOL0     C82940   9.852   6.024   0.910  0.4672  0.0657  1.0804
  602MOL0     O82941   9.862   6.055   0.774  0.3612  0.1381 -0.1171
  602MOL0     C82942   9.746   6.060   0.703  0.8712 -0.0988  0.2708
  602MOL0     C82943   9.745   6.137   0.583 -0.2902 -0.2554 -0.2064
  602MOL0     C82944   9.622   6.164   0.519  0.9150 -0.0519  0.4110
  602MOL0     C82945   9.510   6.103   0.560 -0.4098  0.1992 -0.7448
  602MOL0     O82946   9.396   6.139   0.500 -0.6877  0.3680 -0.6022
  602MOL0     C82947   9.308   6.037   0.471  0.2941  0.1494  0.4298
  602MOL0     C82948   9.202   6.103   0.376  0.3338 -0.3636 -0.7380
  602MOL0     C82949   9.096   6.001   0.337  0.6684 -0.3787 -0.2171
  602MOL0     C82950   8.962   6.055   0.278 -0.2196 -0.0069  0.0552
  602MOL0     C82951   8.848   5.936   0.271 -0.4089  0.2249 -0.0820
  602MOL0     C82952   8.891   5.840   0.159 -0.1811 -0.3422  0.1538
  602MOL0     C82953   8.915   5.909   0.021  0.3220  0.6127 -0.2030
  602MOL0     C82954   8.900   5.824  -0.097 -0.4268 -0.4463 -0.2573
  602MOL0     N82955   8.762   5.786  -0.131  0.1232 -0.0027 -0.2811
  602MOL0     C82956   8.659   5.871  -0.177 -0.1857  1.2699  0.0095
  602MOL0     C82957   8.563   5.789  -0.215 -0.4580 -0.4832  0.3632
  602MOL0     C82958   8.424   5.830  -0.261 -0.8327  0.1586  0.7577
  602MOL0     C82959   8.333   5.902  -0.157 -0.3502  0.6144  0.2376
  602MOL0     C82960   8.336   6.052  -0.182 -0.1894  0.6519 -1.1178
  602MOL0     C82961   8.306   6.132  -0.051 -0.8742  1.3100  0.2556
  602MOL0     O82962   8.403   6.100   0.049  0.6313  0.0269 -0.6754
  602MOL0     C82963   8.500   6.186   0.095  0.3688  0.1552 -0.5711
  602MOL0     C82964   8.506   6.221   0.232  0.3668  0.4304  0.6743
  602MOL0     C82965   8.608   6.313   0.274  1.0378 -0.3325 -0.0075
  602MOL0     C82966   8.586   6.382   0.412 -0.8565 -0.7900 -0.5870
  602MOL0     C82967   8.712   6.365   0.192  0.1495 -0.1684  0.1167
  602MOL0     C82968   8.821   6.459   0.239 -0.0256 -0.1393  0.9725
  602MOL0     O82969   8.851   6.479   0.367  0.2931  1.1618 -0.3847
  602MOL0     C82970   8.966   6.534   0.407  0.3798  0.1196  0.7777
  602MOL0     C82971   9.006   6.663   0.365 -0.2817  0.0908  0.0798
  602MOL0     C82972   9.121   6.714   0.422  0.1753 -0.3539  0.1617
  602MOL0     C82973   9.208   6.639   0.499 -0.4406  0.2224  0.5486
  602MOL0     O82974   9.322   6.703   0.548 -0.5911  0.6871  0.2847
  602MOL0     C82975   9.443   6.619   0.543  0.5210  0.2588  0.5752
  602MOL0     C82976   9.568   6.714   0.539  0.6824 -0.6030 -0.9189
  602MOL0     C82977   9.702   6.649   0.533 -0.5382  0.6465  0.4665
  602MOL0     C82978   9.727   6.551   0.652 -0.5867 -0.3489  0.5835
  602MOL0     C82979   9.872   6.501   0.659 -0.3519 -0.1731  0.6408
  602MOL0     C82980   9.894   6.418   0.789  0.5075  0.2715  0.4970
  602MOL0     C82981  10.042   6.370   0.796 -0.7606 -0.3428  0.2546
  602MOL0     C82982  10.078   6.316   0.929 -0.7806 -0.7992 -0.5199
  602MOL0    Cl82983  10.082   6.448   1.050 -0.0793  0.0195 -0.1493
  602MOL0     C82984   9.177   6.508   0.529  0.1954  0.2536  0.0522
  602MOL0     C82985   9.059   6.452   0.475 -0.2185 -0.3109  0.6564
  602MOL0     O82986   8.875   6.514   0.143 -0.8320  0.3944  0.7439
  602MOL0     C82987   8.706   6.313   0.056 -0.1406 -0.3661  0.1836
  602MOL0     C82988   8.601   6.225   0.015  0.0385 -0.2284  0.5323
  602MOL0     N82989   8.597   5.665  -0.172 -1.0717  0.2176  0.4609
  602MOL0     N82990   8.715   5.663  -0.124 -0.3413 -0.1304 -0.1328
  602MOL0     C82991   9.516   6.019   0.670 -0.4918  0.3776  0.0893
  602MOL0     C82992   9.629   5.987   0.741  0.2433  0.7756 -0.3541
  602MOL0     C82993   9.987   5.979   0.958  0.2096  0.1000  0.6879
  602MOL0     C82994  10.105   6.005   0.878  0.0226  0.3733 -0.1141
  602MOL0     C82995  10.234   5.953   0.925  0.1702 -0.4374 -0.6639
  602MOL0     C82996  10.237   5.887   1.044 -1.0417  0.1919 -0.0434
  602MOL0     O82997  10.362   5.847   1.089 -0.2196  0.2263  0.0001
  602MOL0     C82998  10.368   5.725   1.165  0.3776 -0.0215 -0.9489
  602MOL0     C82999  10.507   5.661   1.158  0.2924  0.4118  0.2390
  602MOL0     C83000  10.543   5.577   1.276  0.5783 -1.1206 -0.8972
  602MOL0     C83001  10.695   5.521   1.271 -0.0063 -0.5231  0.3058
  602MOL0     C83002  10.716   5.441   1.146  0.3751  0.2654 -0.2331
  602MOL0     C83003  10.734   5.366   1.050 -0.1708  1.0499 -0.6985
  602MOL0     C83004  10.126   5.876   1.125 -0.9021 -0.2062  0.3287
  602MOL0     C83005  10.004   5.918   1.081 -0.9880 -0.0623  0.4503
  602MOL0     C83006   9.890   5.894   1.178  0.3118  0.9609 -1.1059
  602MOL0     H83007   9.837   6.186   0.553 -1.5806  3.2313  1.0009
  602MOL0     H83008   9.621   6.223   0.428  1.4860 -1.7603 -0.7695
  602MOL0     H83009   9.266   5.994   0.563  1.0352 -3.4608 -0.7440
  602MOL0     H83010   9.363   5.956   0.422 -1.3037  0.1216 -1.3977
  602MOL0     H83011   9.146   6.178   0.433  0.1613 -2.0258  1.4000
  602MOL0     H83012   9.258   6.151   0.295  2.0811  1.7899  1.6019
  602MOL0     H83013   9.142   5.932   0.265  0.2116 -1.2950  0.3561
  602MOL0     H83014   9.065   5.940   0.422  0.0747  4.6271  3.6249
  602MOL0     H83015   8.929   6.135   0.344  1.2768 -0.3831  1.3174
  602MOL0     H83016   8.980   6.102   0.180 -1.6243 -1.2190 -0.8233
  602MOL0     H83017   8.750   5.981   0.251 -1.2009 -0.6596  1.6615
  602MOL0     H83018   8.850   5.879   0.363  2.1949 -1.7500 -1.2327
  602MOL0     H83019   8.983   5.787   0.186 -0.4606 -0.2571  1.3467
  602MOL0     H83020   8.810   5.766   0.160  1.0375 -1.7330  1.0307
  602MOL0     H83021   9.009   5.963   0.011  0.0207  0.9861 -1.1418
  602MOL0     H83022   8.835   5.984   0.015 -0.9260 -0.6505  0.2083
  602MOL0     H83023   8.954   5.867  -0.182  2.5912  0.8888  2.1299
  602MOL0     H83024   8.950   5.730  -0.073  1.5108  0.7340  0.5573
  602MOL0     H83025   8.660   5.979  -0.166 -2.4726  1.1378  2.5496
  602MOL0     H83026   8.376   5.736  -0.288  3.7325 -2.9217  2.1548
  602MOL0     H83027   8.436   5.896  -0.348 -3.6178  0.5463  0.5935
  602MOL0     H83028   8.236   5.855  -0.172 -0.6623  0.9051  1.2793
  602MOL0     H83029   8.361   5.879  -0.053 -0.1746 -0.5374 -0.0521
  602MOL0     H83030   8.426   6.082  -0.237  0.6074 -1.0369 -0.8265
  602MOL0     H83031   8.256   6.068  -0.255 -1.0955 -4.7574 -1.7663
  602MOL0     H83032   8.290   6.240  -0.059 -0.6662  1.5345  2.4114
  602MOL0     H83033   8.215   6.082  -0.016  0.3096  0.4140  2.1908
  602MOL0     H83034   8.425   6.183   0.293  2.0652 -3.0338  1.0520
  602MOL0     H83035   8.491   6.350   0.455 -0.6729  1.6295  1.9828
  602MOL0     H83036   8.577   6.489   0.392 -1.2301 -0.4039  1.4591
  602MOL0     H83037   8.670   6.358   0.478  0.3437  0.7979 -1.4730
  602MOL0     H83038   8.949   6.718   0.290  1.6557  1.7364 -0.2727
  602MOL0     H83039   9.150   6.816   0.400  4.1808 -1.1707  0.9304
  602MOL0     H83040   9.448   6.542   0.620 -2.8556 -2.7380 -1.8742
  602MOL0     H83041   9.438   6.563   0.449 -3.1797  0.3864  0.5379
  602MOL0     H83042   9.553   6.771   0.447  2.2642  0.9655 -0.2567
  602MOL0     H83043   9.568   6.772   0.632 -0.4241 -1.4221 -0.3826
  602MOL0     H83044   9.767   6.738   0.538 -4.1287  3.5250  0.0506
  602MOL0     H83045   9.715   6.597   0.437 -2.1781 -1.6781  1.4100
  602MOL0     H83046   9.675   6.457   0.633  1.9847 -1.5500 -1.0177
  602MOL0     H83047   9.695   6.602   0.743  0.9862  0.1117  0.8944
  602MOL0     H83048   9.885   6.440   0.569  0.0004  0.7421  0.0588
  602MOL0     H83049   9.943   6.584   0.653 -0.4031 -0.2126 -0.9855
  602MOL0     H83050   9.834   6.328   0.801  1.4025 -0.4411 -0.2299
  602MOL0     H83051   9.865   6.488   0.868 -2.0736  0.3604 -0.4306
  602MOL0     H83052  10.107   6.456   0.772 -1.4890  0.7815  2.0750
  602MOL0     H83053  10.060   6.292   0.722 -0.7382 -0.0520 -0.0500
  602MOL0     H83054  10.178   6.274   0.913 -0.0656  0.8606 -0.6416
  602MOL0     H83055  10.002   6.239   0.943 -0.5361 -1.4865 -2.6280
  602MOL0     H83056   9.251   6.448   0.581  3.1970  2.9699 -0.7892
  602MOL0     H83057   9.027   6.351   0.499  0.5151 -0.1295  2.5155
  602MOL0     H83058   8.775   6.341  -0.024  0.1188 -3.0515 -0.6308
  602MOL0     H83059   8.602   6.189  -0.087  2.2116 -0.0283  0.4278
  602MOL0     H83060   9.427   5.975   0.715  0.1161 -0.4419  0.5185
  602MOL0     H83061   9.615   5.909   0.814 -2.3204 -1.7850 -3.2592
  602MOL0     H83062  10.108   6.053   0.781  4.4765 -0.5240 -0.6130
  602MOL0     H83063  10.317   5.970   0.856 -0.9698 -0.4467 -2.0723
  602MOL0     H83064  10.344   5.763   1.265  0.0299  1.3570 -1.5280
  602MOL0     H83065  10.300   5.653   1.120 -2.1885  2.5035 -1.3435
  602MOL0     H83066  10.584   5.739   1.148  0.3967  0.0920 -2.0647
  602MOL0     H83067  10.499   5.590   1.075  0.5209 -0.6937  1.1314
  602MOL0     H83068  10.522   5.630   1.369 -1.6024 -1.9305 -0.8886
  602MOL0     H83069  10.474   5.493   1.270 -1.3275  0.4492 -2.6442
  602MOL0     H83070  10.709   5.460   1.360  0.0691 -2.5309 -1.0051
  602MOL0     H83071  10.761   5.607   1.272 -1.7505  0.8921  2.2163
  602MOL0     H83072  10.741   5.301   0.965 -0.0821 -1.0248  0.8395
  602MOL0     H83073  10.138   5.822   1.219  3.0571 -4.5945 -2.2618
  602MOL0     H83074   9.938   5.876   1.274  1.4456 -3.9773 -2.3481
  602MOL0     H83075   9.831   5.985   1.193  1.4322  1.5358  0.0872
  602MOL0     H83076   9.840   5.802   1.147 -0.2165  1.7520 -2.6953
  603MOL0     O83077   2.891   6.593   4.979  0.0793 -0.3427  0.0689
  603MOL0     C83078   2.862   6.711   4.960  0.5080 -0.4649  0.0360
  603MOL0     O83079   2.961   6.808   4.956 -0.7416  0.1618  0.3736
  603MOL0     C83080   3.083   6.776   5.020  0.2469 -0.7610 -0.0824
  603MOL0     C83081   3.199   6.833   4.953  1.0858 -0.1963 -0.3733
  603MOL0     C83082   3.320   6.822   5.015 -0.1802 -0.4891 -0.0052
  603MOL0     C83083   3.337   6.755   5.131 -0.9281  0.3998 -0.1699
  603MOL0     O83084   3.462   6.724   5.183 -0.1082 -0.4715  0.5800
  603MOL0     C83085   3.580   6.716   5.092  0.2290  0.0433 -1.0003
  603MOL0     C83086   3.697   6.809   5.124 -0.6259 -0.2368  0.2989
  603MOL0     C83087   3.758   6.792   5.259  0.8825 -0.1136 -0.7950
  603MOL0     C83088   3.855   6.907   5.287  0.0393  0.2161 -1.0043
  603MOL0     C83089   3.907   6.902   5.431 -0.1305  0.5803  0.9495
  603MOL0     C83090   4.029   6.994   5.449 -0.3429 -0.0466  0.5750
  603MOL0     C83091   4.064   6.999   5.606 -0.1586  1.0018  0.0974
  603MOL0     C83092   4.196   7.074   5.628 -1.0457 -0.9222  0.4873
  603MOL0     N83093   4.309   6.984   5.607 -0.5211  0.4426  0.3774
  603MOL0     C83094   4.382   6.915   5.703 -0.3822 -0.1542 -0.2467
  603MOL0     C83095   4.457   6.827   5.640 -0.5939 -1.1515  0.0531
  603MOL0     C83096   4.559   6.726   5.694  0.0354  0.3622 -0.0118
  603MOL0     C83097   4.701   6.771   5.662 -0.2759 -0.2694  0.3018
  603MOL0     C83098   4.761   6.838   5.784  0.3191 -0.2042  0.2139
  603MOL0     C83099   4.917   6.852   5.771  0.4815  0.6830 -0.4440
  603MOL0     O83100   4.968   6.848   5.899 -0.2110  0.7618 -0.2488
  603MOL0     C83101   5.101   6.845   5.911  0.0379 -0.0385 -0.8073
  603MOL0     C83102   5.135   6.844   6.043 -0.7615  0.3243 -0.0407
  603MOL0     C83103   5.271   6.856   6.072 -0.3663 -0.0771 -0.4949
  603MOL0     C83104   5.303   6.906   6.207  1.1408 -0.0977 -0.6209
  603MOL0     C83105   5.373   6.849   5.968 -0.3382  0.4801  0.2485
  603MOL0     C83106   5.520   6.831   5.995  0.0345  0.1690  0.7323
  603MOL0     O83107   5.598   6.811   5.886  0.9091 -0.1025 -0.8302
  603MOL0     C83108   5.728   6.793   5.913 -0.8324 -0.1411 -0.0172
  603MOL0     C83109   5.817   6.906   5.940  0.1563 -0.3559 -0.7129
  603MOL0     C83110   5.955   6.870   5.946  0.2313 -1.0691  0.2451
  603MOL0     C83111   6.002   6.743   5.926 -0.1570 -0.2009  0.6487
  603MOL0     O83112   6.143   6.738   5.941  0.3796 -0.5637  0.0285
  603MOL0     C83113   6.213   6.630   5.889 -0.7738  0.4663 -0.4462
  603MOL0     C83114   6.354   6.665   5.905  0.9471 -0.3847  0.4431
  603MOL0     C83115   6.450   6.550   5.860  0.0669  0.4241 -0.3812
  603MOL0     C83116   6.579   6.600   5.793  0.5265 -0.6325 -0.8149
  603MOL0     C83117   6.672   6.498   5.731  0.1328 -0.2017 -0.1918
  603MOL0     C83118   6.805   6.577   5.685 -0.1411 -0.4158 -0.3392
  603MOL0     C83119   6.910   6.495   5.611 -0.8982  0.4937  0.1068
  603MOL0     C83120   6.868   6.399   5.498 -0.5281  0.7830  0.6997
  603MOL0    Cl83121   7.000   6.333   5.393 -0.7571 -0.3179 -0.3895
  603MOL0     C83122   5.914   6.640   5.894 -0.1958 -0.4671  0.3468
  603MOL0     C83123   5.779   6.670   5.877  0.0633 -0.6161 -0.1166
  603MOL0     O83124   5.561   6.855   6.109 -0.2475  0.4441 -0.4170
  603MOL0     C83125   5.329   6.834   5.840  0.1263  0.1572 -0.2463
  603MOL0     C83126   5.195   6.843   5.808  0.1626  0.3590 -0.2868
  603MOL0     N83127   4.414   6.821   5.508  0.5917 -0.6148 -0.0875
  603MOL0     N83128   4.332   6.918   5.488  0.2183  1.2890 -0.1933
  603MOL0     C83129   3.226   6.708   5.200  0.8475  0.6358  0.2695
  603MOL0     C83130   3.096   6.722   5.144 -0.7173 -0.2404  0.3153
  603MOL0     C83131   2.732   6.750   4.908 -0.6563 -0.6094  0.2739
  603MOL0     C83132   2.723   6.800   4.773 -0.3037 -0.2073  0.3945
  603MOL0     C83133   2.598   6.819   4.705 -0.1767 -0.0028  0.7471
  603MOL0     C83134   2.482   6.802   4.779 -0.2082  0.2042  0.5965
  603MOL0     O83135   2.356   6.812   4.727 -0.0357 -0.4205  0.1492
  603MOL0     C83136   2.335   6.886   4.601 -0.2678 -0.3091  0.1760
  603MOL0     C83137   2.377   7.044   4.597 -0.1072  0.6797 -1.0385
  603MOL0     C83138   2.344   7.112   4.730 -0.0289 -0.4878  0.0518
  603MOL0     C83139   2.327   7.259   4.704 -0.1575  0.5663 -0.4305
  603MOL0     C83140   2.185   7.275   4.650 -0.2466  1.0532 -0.7320
  603MOL0     C83141   2.068   7.281   4.617 -0.7605 -0.1959  0.1513
  603MOL0     C83142   2.489   6.755   4.915  0.1851  0.3041 -0.0140
  603MOL0     C83143   2.609   6.721   4.975  0.1964  0.2272  0.3402
  603MOL0     C83144   2.602   6.671   5.116  0.7136 -0.5980  0.1558
  603MOL0     H83145   3.180   6.891   4.862 -2.4113 -0.6603 -0.0532
  603MOL0     H83146   3.405   6.866   4.963  0.3524 -2.3838 -0.8316
  603MOL0     H83147   3.537   6.732   4.993  0.3004 -0.3876 -1.1016
  603MOL0     H83148   3.622   6.615   5.090  0.2017  0.0455 -2.6153
  603MOL0     H83149   3.778   6.797   5.052  0.8486 -2.7566  2.2021
  603MOL0     H83150   3.668   6.914   5.119  0.8846  0.2466  0.9887
  603MOL0     H83151   3.675   6.780   5.329  0.9643  0.9741 -0.4893
  603MOL0     H83152   3.817   6.700   5.260  1.3859  0.2024 -1.0496
  603MOL0     H83153   3.934   6.882   5.216 -0.0378 -1.4156 -0.5557
  603MOL0     H83154   3.802   7.000   5.265 -1.2782 -0.1441  0.4566
  603MOL0     H83155   3.944   6.800   5.444 -1.6880 -0.2515 -0.6735
  603MOL0     H83156   3.820   6.918   5.496 -1.5272  3.4625 -1.4041
  603MOL0     H83157   4.109   6.956   5.385 -1.5292 -1.8875  0.0970
  603MOL0     H83158   4.000   7.093   5.413  1.7209  1.4039  2.6133
  603MOL0     H83159   4.079   6.894   5.634  1.9571  0.8798 -1.2575
  603MOL0     H83160   3.985   7.052   5.661  1.6113  1.3543  2.4757
  603MOL0     H83161   4.199   7.151   5.550 -3.8697 -0.2083  0.9641
  603MOL0     H83162   4.196   7.108   5.732  0.4429 -1.4570  0.6819
  603MOL0     H83163   4.391   6.919   5.811  2.3023  1.1397 -0.4311
  603MOL0     H83164   4.547   6.629   5.645 -2.5616  1.2867 -1.3402
  603MOL0     H83165   4.538   6.716   5.801 -2.3133 -0.5159 -0.5128
  603MOL0     H83166   4.759   6.680   5.644 -0.7087 -0.2311 -1.4411
  603MOL0     H83167   4.713   6.836   5.574 -0.1708 -0.3619  0.2470
  603MOL0     H83168   4.725   6.941   5.772  0.3871 -0.2581 -0.4601
  603MOL0     H83169   4.728   6.787   5.875 -1.4652  3.4765  1.8356
  603MOL0     H83170   4.957   6.765   5.718 -0.0538  1.0874 -1.5567
  603MOL0     H83171   4.956   6.941   5.721 -0.3628  4.5780  4.9114
  603MOL0     H83172   5.052   6.844   6.112 -1.3504 -1.5071 -0.7048
  603MOL0     H83173   5.350   6.829   6.269  0.2725 -2.0813 -2.2886
  603MOL0     H83174   5.212   6.934   6.261  0.0152  2.2581 -3.4784
  603MOL0     H83175   5.355   7.001   6.195 -0.9785  0.8772 -2.9921
  603MOL0     H83176   5.782   7.005   5.970  0.0403 -1.3058  2.6198
  603MOL0     H83177   6.024   6.950   5.973  1.6030 -1.9897 -0.4276
  603MOL0     H83178   6.182   6.539   5.943 -0.9815  0.6119 -0.3183
  603MOL0     H83179   6.206   6.606   5.783 -2.5266  0.4973 -0.3675
  603MOL0     H83180   6.384   6.745   5.837 -0.1750 -0.3182  0.0091
  603MOL0     H83181   6.369   6.705   6.006 -0.1546 -1.8218  1.2110
  603MOL0     H83182   6.397   6.476   5.799 -0.6274  1.1523 -0.6863
  603MOL0     H83183   6.481   6.499   5.951 -2.4705 -0.6517 -0.0130
  603MOL0     H83184   6.633   6.655   5.870  1.1375 -1.8871 -0.3036
  603MOL0     H83185   6.545   6.668   5.715 -0.2393  1.7874  1.5047
  603MOL0     H83186   6.713   6.426   5.802 -0.6888 -1.6434 -1.1412
  603MOL0     H83187   6.631   6.453   5.640 -1.4056  1.9810 -0.6610
  603MOL0     H83188   6.856   6.595   5.780 -0.0109 -2.6228  0.0630
  603MOL0     H83189   6.771   6.670   5.637 -1.7934 -0.5366  0.5193
  603MOL0     H83190   6.962   6.443   5.692 -0.5366 -1.4598 -1.2891
  603MOL0     H83191   6.993   6.559   5.580 -0.4386  0.9776  2.1924
  603MOL0     H83192   6.793   6.456   5.443 -1.1724  0.1629  0.9181
  603MOL0     H83193   6.826   6.309   5.543  0.4715  1.0217  2.1896
  603MOL0     H83194   5.947   6.540   5.869 -0.4678 -0.2036 -1.1804
  603MOL0     H83195   5.722   6.579   5.863  0.9103 -1.3050  0.7205
  603MOL0     H83196   5.398   6.814   5.759 -0.1983 -0.3329 -0.4086
  603MOL0     H83197   5.176   6.829   5.702  1.1876  1.4865 -0.6399
  603MOL0     H83198   3.251   6.649   5.287  0.2208 -1.4111 -0.8907
  603MOL0     H83199   3.017   6.666   5.193 -2.4313 -0.3992 -2.4608
  603MOL0     H83200   2.817   6.805   4.717  1.1915  0.2767  2.8009
  603MOL0     H83201   2.603   6.850   4.601  0.3287  0.1497  0.8110
  603MOL0     H83202   2.376   6.824   4.521  1.7457  1.8849 -0.5992
  603MOL0     H83203   2.226   6.883   4.598 -0.4211 -1.2010  3.0347
  603MOL0     H83204   2.308   7.065   4.515 -0.4602  0.9020 -0.6849
  603MOL0     H83205   2.484   7.051   4.575  0.7810  0.3015  2.5371
  603MOL0     H83206   2.253   7.063   4.765  0.4972 -0.3354  1.7028
  603MOL0     H83207   2.429   7.107   4.798 -0.0835  0.8461  0.2519
  603MOL0     H83208   2.405   7.301   4.639 -1.7106  2.5143 -1.1385
  603MOL0     H83209   2.346   7.303   4.802  1.3285 -1.5676  0.2943
  603MOL0     H83210   1.970   7.272   4.576 -1.4859 -4.7098  2.1953
  603MOL0     H83211   2.394   6.737   4.965 -0.2916  2.7171  0.0920
  603MOL0     H83212   2.636   6.567   5.116 -0.0737 -0.8867  1.7990
  603MOL0     H83213   2.674   6.729   5.175  2.1649  0.2433 -2.2850
  603MOL0     H83214   2.507   6.686   5.167  0.2616  0.8792 -1.0607
  604MOL0     O83215   5.649  11.287   6.421 -0.5029 -0.5615  0.2009
  604MOL0     C83216   5.553  11.339   6.363  1.0131 -0.3485 -0.1173
  604MOL0     O83217   5.563  11.441   6.269 -0.1219 -0.3195 -0.1658
  604MOL0     C83218   5.692  11.497   6.264  0.4449 -0.4217 -0.0753
  604MOL0     C83219   5.718  11.618   6.338 -0.2530  0.1116  0.2475
  604MOL0     C83220   5.841  11.680   6.323 -0.7301  0.7809  0.2545
  604MOL0     C83221   5.934  11.630   6.231 -0.1829  0.4228  0.3133
  604MOL0     O83222   6.055  11.682   6.220 -0.6859 -0.4992  0.4862
  604MOL0     C83223   6.036  11.808   6.144  1.1699  0.1524 -0.5360
  604MOL0     C83224   6.174  11.871   6.164 -0.1856  0.5012 -0.4760
  604MOL0     C83225   6.227  11.957   6.054 -0.5509 -0.1430  0.5546
  604MOL0     C83226   6.141  12.080   6.036  0.1759  0.0585 -0.0417
  604MOL0     C83227   6.201  12.184   5.935 -1.0543 -0.4658 -0.1315
  604MOL0     C83228   6.351  12.223   5.959 -0.1703 -0.2458  0.2031
  604MOL0     C83229   6.384  12.277   6.102 -0.3248  0.6771  0.4867
  604MOL0     C83230   6.526  12.236   6.137  0.3132  0.4167 -0.0991
  604MOL0     N83231   6.627  12.335   6.098  0.4194  0.0648 -0.5697
  604MOL0     C83232   6.647  12.458   6.160  0.7458  0.1527  1.7415
  604MOL0     C83233   6.751  12.515   6.086 -0.4007  0.7694  0.4131
  604MOL0     C83234   6.815  12.650   6.104 -0.9189 -0.7317 -0.1026
  604MOL0     C83235   6.964  12.662   6.129 -0.6518 -0.1141 -0.1907
  604MOL0     C83236   7.039  12.649   5.996  0.7785  0.0298  0.7443
  604MOL0     C83237   7.194  12.662   6.012  0.2224 -0.1880 -0.3470
  604MOL0     O83238   7.253  12.656   5.878 -0.3265  0.7237 -1.0797
  604MOL0     C83239   7.382  12.694   5.865  0.8680  0.4282  0.1537
  604MOL0     C83240   7.477  12.718   5.965 -0.2700  0.3832 -0.2918
  604MOL0     C83241   7.605  12.771   5.932 -0.1985  0.0365  0.0574
  604MOL0     C83242   7.708  12.786   6.046 -0.3079  0.5311  0.8522
  604MOL0     C83243   7.635  12.792   5.798  0.4645  0.7088 -0.6146
  604MOL0     C83244   7.769  12.836   5.766 -0.1322 -0.5488  0.6328
  604MOL0     O83245   7.851  12.751   5.703  0.1660  0.3636  0.3442
  604MOL0     C83246   7.982  12.786   5.672 -0.6994 -0.5145  0.7223
  604MOL0     C83247   8.012  12.838   5.545 -0.0076  0.3460 -0.2691
  604MOL0     C83248   8.140  12.817   5.493 -0.8246  0.0831 -0.3854
  604MOL0     C83249   8.246  12.764   5.576 -0.1219 -0.2060 -0.0477
  604MOL0     O83250   8.369  12.737   5.513 -0.9496 -0.5891 -0.1293
  604MOL0     C83251   8.457  12.641   5.584 -0.3222 -0.2821  0.6186
  604MOL0     C83252   8.567  12.595   5.493  0.1629 -0.1067  0.7388
  604MOL0     C83253   8.675  12.705   5.466  0.2677 -0.7065  0.4732
  604MOL0     C83254   8.794  12.701   5.565 -0.2101 -0.0906  0.3827
  604MOL0     C83255   8.887  12.815   5.533  1.1417 -0.0007 -1.0407
  604MOL0     C83256   8.982  12.853   5.655  0.3449 -0.1224  0.1977
  604MOL0     C83257   9.088  12.747   5.696  0.3797  0.1992  0.5449
  604MOL0     C83258   9.186  12.800   5.799  0.2158 -0.2966 -0.1706
  604MOL0    Cl83259   9.293  12.664   5.842  0.1931 -0.2637  0.0402
  604MOL0     C83260   8.214  12.720   5.702  0.5277  0.3751  0.0485
  604MOL0     C83261   8.081  12.722   5.744 -0.3818  0.1894 -0.5096
  604MOL0     O83262   7.797  12.955   5.795  1.0324  0.6471  0.1911
  604MOL0     C83263   7.544  12.762   5.705 -0.1677 -0.1865  0.3982
  604MOL0     C83264   7.419  12.724   5.734 -0.0302  0.0342 -0.8361
  604MOL0     N83265   6.783  12.434   5.981  0.4832 -0.0773 -0.8017
  604MOL0     N83266   6.701  12.333   5.983  0.5743  0.8262 -0.0503
  604MOL0     C83267   5.906  11.507   6.156  0.2129  0.3393  0.7243
  604MOL0     C83268   5.791  11.440   6.177 -0.4330  0.8711 -0.1841
  604MOL0     C83269   5.412  11.289   6.380 -0.1603  0.7780 -0.1609
  604MOL0     C83270   5.313  11.329   6.297  0.3511  0.1540 -0.7483
  604MOL0     C83271   5.185  11.270   6.303  0.4296 -0.3083 -0.4389
  604MOL0     C83272   5.145  11.190   6.410 -0.2965  0.3896 -0.5796
  604MOL0     O83273   5.009  11.155   6.441 -0.3309 -1.0076  0.4935
  604MOL0     C83274   4.927  11.170   6.325  0.6061 -1.2223 -0.2968
  604MOL0     C83275   4.793  11.110   6.353 -0.3787  0.4366 -0.7939
  604MOL0     C83276   4.692  11.120   6.239 -0.1668 -0.1052  0.5757
  604MOL0     C83277   4.545  11.125   6.284 -0.1384 -0.5140 -0.2776
  604MOL0     C83278   4.455  11.108   6.173 -0.2657 -0.1044  0.3628
  604MOL0     C83279   4.370  11.093   6.088  0.2214 -0.1333  0.2816
  604MOL0     C83280   5.242  11.164   6.503  0.0133  0.0277 -0.6715
  604MOL0     C83281   5.374  11.203   6.490 -0.3709  0.0279  0.4321
  604MOL0     C83282   5.465  11.158   6.602  0.1964  0.4182 -0.2687
  604MOL0     H83283   5.643  11.658   6.406 -1.6753 -1.8108 -0.1190
  604MOL0     H83284   5.863  11.775   6.371  3.4904 -0.5550  1.4397
  604MOL0     H83285   5.957  11.868   6.189  0.1182 -2.1210  0.8498
  604MOL0     H83286   6.001  11.776   6.045 -0.1427 -0.1434  0.0057
  604MOL0     H83287   6.195  11.917   6.261  0.7079  0.4673 -0.6452
  604MOL0     H83288   6.249  11.791   6.163  1.4761  1.8746  2.1408
  604MOL0     H83289   6.335  11.968   6.072 -0.3422 -0.8897 -0.1722
  604MOL0     H83290   6.226  11.912   5.955  0.2469  0.5801  0.2050
  604MOL0     H83291   6.045  12.040   6.001  1.3695 -3.7607  0.6448
  604MOL0     H83292   6.132  12.123   6.136  1.8049 -0.8703  0.5396
  604MOL0     H83293   6.138  12.273   5.928  0.0146  0.1760 -3.2627
  604MOL0     H83294   6.204  12.134   5.838 -0.3953  0.7115 -0.7334
  604MOL0     H83295   6.406  12.130   5.940  1.4337  0.8632 -0.7875
  604MOL0     H83296   6.390  12.293   5.886  1.0437 -1.7497 -0.6491
  604MOL0     H83297   6.316  12.236   6.178 -0.0924  3.9894  2.7007
  604MOL0     H83298   6.379  12.386   6.109  2.8504  0.8573  1.3966
  604MOL0     H83299   6.523  12.229   6.246 -4.5319  1.0827  0.0518
  604MOL0     H83300   6.548  12.136   6.100  0.0342  0.3688 -0.1370
  604MOL0     H83301   6.597  12.496   6.248  0.5178  0.6662  1.3932
  604MOL0     H83302   6.770  12.694   6.193  0.9340  1.2500 -0.0455
  604MOL0     H83303   6.794  12.710   6.014  1.1923  0.3648  0.0486
  604MOL0     H83304   6.989  12.763   6.162 -1.0292 -0.2136  0.4092
  604MOL0     H83305   7.004  12.598   6.208 -0.1215 -0.9980 -1.1486
  604MOL0     H83306   7.019  12.549   5.955 -2.4462  1.3119 -1.2041
  604MOL0     H83307   6.999  12.726   5.929  1.8608 -0.3912 -0.4277
  604MOL0     H83308   7.224  12.744   6.078  0.9029 -0.9759  0.3479
  604MOL0     H83309   7.235  12.580   6.071  2.7945  2.1329  1.3079
  604MOL0     H83310   7.458  12.689   6.067  0.2261  1.5059  0.1331
  604MOL0     H83311   7.745  12.886   6.071  0.2887  0.0422  1.9694
  604MOL0     H83312   7.791  12.722   6.013 -0.8289 -0.5905  1.6639
  604MOL0     H83313   7.671  12.739   6.137 -2.5640 -3.0222 -1.6421
  604MOL0     H83314   7.933  12.890   5.491  0.9696  1.4794 -0.6310
  604MOL0     H83315   8.165  12.837   5.389 -0.4649 -1.5883 -0.6567
  604MOL0     H83316   8.501  12.684   5.674  2.1851 -0.4562 -0.4441
  604MOL0     H83317   8.399  12.551   5.604  1.4184 -1.4849  0.4032
  604MOL0     H83318   8.619  12.508   5.534  1.7741 -1.0908 -2.9465
  604MOL0     H83319   8.533  12.564   5.394 -0.5862  1.3126  0.5182
  604MOL0     H83320   8.636  12.807   5.460  1.0594 -0.4558 -0.6963
  604MOL0     H83321   8.719  12.686   5.368  1.2197 -2.9706  1.2741
  604MOL0     H83322   8.841  12.602   5.560 -1.5317 -0.7066 -0.3434
  604MOL0     H83323   8.752  12.716   5.665  3.9757 -1.0607  2.5297
  604MOL0     H83324   8.942  12.775   5.447  0.6851  0.1492 -1.4057
  604MOL0     H83325   8.837  12.908   5.506  0.1757  0.1826  1.1734
  604MOL0     H83326   8.919  12.858   5.744 -0.3320 -1.9356 -0.1391
  604MOL0     H83327   9.027  12.951   5.638 -1.8209  0.6691 -1.5700
  604MOL0     H83328   9.141  12.716   5.605  3.9593  1.5189  1.9746
  604MOL0     H83329   9.047  12.656   5.739  0.5918 -0.5655 -0.7966
  604MOL0     H83330   9.138  12.839   5.889 -0.1325 -2.2610  0.5403
  604MOL0     H83331   9.242  12.880   5.749 -1.4462  0.2336 -1.2743
  604MOL0     H83332   8.275  12.664   5.772  0.0306  1.0830  1.0779
  604MOL0     H83333   8.062  12.673   5.839  2.3984 -3.2694 -1.5191
  604MOL0     H83334   7.576  12.774   5.602 -0.9737  1.4985  0.3141
  604MOL0     H83335   7.343  12.708   5.658 -0.4637 -1.3748 -0.1319
  604MOL0     H83336   5.975  11.466   6.083  0.9245  1.3941  0.7784
  604MOL0     H83337   5.761  11.344   6.137  0.8527 -0.0373  0.8993
  604MOL0     H83338   5.308  11.410   6.224 -3.2492  2.0854  1.3710
  604MOL0     H83339   5.117  11.306   6.226  1.6341  2.2167 -0.4264
  604MOL0     H83340   4.919  11.272   6.287  2.0225 -2.1398 -3.2957
  604MOL0     H83341   4.977  11.117   6.244  2.7444  1.5063 -0.9091
  604MOL0     H83342   4.758  11.159   6.444 -2.3673 -3.1399  0.5666
  604MOL0     H83343   4.811  11.006   6.382  1.0873  1.3477  1.8697
  604MOL0     H83344   4.709  11.209   6.179  2.1328 -1.0569 -0.2885
  604MOL0     H83345   4.701  11.047   6.159 -0.6438  2.3494 -1.8658
  604MOL0     H83346   4.521  11.220   6.334  1.8463 -0.1985  0.1749
  604MOL0     H83347   4.518  11.040   6.347  1.7401 -0.6620  0.4021
  604MOL0     H83348   4.301  11.060   6.013  2.0088 -0.8305 -1.1096
  604MOL0     H83349   5.214  11.103   6.589  0.7790  1.6960  0.8437
  604MOL0     H83350   5.503  11.249   6.651  2.3172 -0.5195 -0.0418
  604MOL0     H83351   5.411  11.100   6.676 -2.4655  6.4499  3.2628
  604MOL0     H83352   5.550  11.102   6.560 -0.5375  1.1869 -2.9988
  605MOL0     O83353   7.687  10.288   9.124 -0.4210 -0.1359  0.0408
  605MOL0     C83354   7.575  10.324   9.175 -0.4975 -0.3832  0.0303
  605MOL0     O83355   7.543  10.458   9.200  0.6854  0.5839 -0.1978
  605MOL0     C83356   7.623  10.550   9.135  0.7242  0.0703 -0.6746
  605MOL0     C83357   7.745  10.587   9.191 -0.1377 -0.0815 -0.2616
  605MOL0     C83358   7.802  10.701   9.140  0.0421  0.0861  1.3467
  605MOL0     C83359   7.755  10.770   9.022  0.5719  0.1494 -0.5212
  605MOL0     O83360   7.815  10.894   8.984  0.4110 -0.3159 -0.5192
  605MOL0     C83361   7.745  10.975   8.880 -0.0289 -0.0787 -0.1805
  605MOL0     C83362   7.791  11.118   8.902 -0.5682 -0.1867 -0.0247
  605MOL0     C83363   7.913  11.168   8.819 -0.4403 -1.2716  0.3823
  605MOL0     C83364   7.886  11.201   8.671  0.3631  0.8837 -0.3966
  605MOL0     C83365   7.982  11.294   8.595 -0.2598 -0.3695 -0.4584
  605MOL0     C83366   8.124  11.262   8.616 -0.3678 -0.2612 -0.2583
  605MOL0     C83367   8.206  11.388   8.594  0.0245  1.2475  0.6028
  605MOL0     C83368   8.197  11.476   8.712  0.3034 -0.5043 -0.3068
  605MOL0     N83369   8.258  11.611   8.709  0.5694 -0.9661 -0.9378
  605MOL0     C83370   8.276  11.692   8.598 -0.3446 -0.4872 -0.6307
  605MOL0     C83371   8.323  11.808   8.659 -0.1973 -0.5833  0.2988
  605MOL0     C83372   8.347  11.945   8.596 -0.3680 -0.7630  0.1567
  605MOL0     C83373   8.455  11.952   8.494  0.2878 -0.3514 -0.1618
  605MOL0     C83374   8.415  11.909   8.357 -1.4489  0.6819 -1.1757
  605MOL0     C83375   8.530  11.933   8.253  0.4287  0.2627  0.5345
  605MOL0     O83376   8.543  12.076   8.232 -0.5365 -0.1519 -0.2644
  605MOL0     C83377   8.648  12.117   8.154  0.6951 -0.3733 -0.3734
  605MOL0     C83378   8.650  12.255   8.122 -0.5614 -0.1163 -0.2816
  605MOL0     C83379   8.751  12.314   8.035  0.5094  0.8823 -0.5514
  605MOL0     C83380   8.748  12.465   8.010 -0.0988  0.0374 -0.0276
  605MOL0     C83381   8.841  12.224   7.969 -0.7982  0.3833  0.9313
  605MOL0     C83382   8.948  12.264   7.882 -0.9029  0.5621  0.3512
  605MOL0     O83383   8.933  12.366   7.787  0.4103  1.0899  0.5634
  605MOL0     C83384   9.049  12.428   7.756  0.2525  1.0576 -0.4358
  605MOL0     C83385   9.126  12.488   7.854  0.6949 -0.4476 -0.7467
  605MOL0     C83386   9.246  12.556   7.818 -0.2130  1.2624 -0.1741
  605MOL0     C83387   9.278  12.578   7.684  0.9555  0.2960  0.3636
  605MOL0     O83388   9.381  12.665   7.645 -0.2615  0.4732  0.1219
  605MOL0     C83389   9.500  12.669   7.726 -0.0346  0.7813 -0.0660
  605MOL0     C83390   9.495  12.802   7.813 -1.0955  0.3235 -1.0976
  605MOL0     C83391   9.627  12.822   7.891 -0.4399  0.5848 -0.3334
  605MOL0     C83392   9.624  12.930   7.994  0.8275  0.0917 -0.5053
  605MOL0     C83393   9.746  12.946   8.084 -0.0467 -0.2562  0.1435
  605MOL0     C83394   9.707  12.884   8.217  0.4355  0.3087 -0.0913
  605MOL0     C83395   9.792  12.944   8.329  0.9007  0.1365 -0.0298
  605MOL0     C83396   9.774  12.873   8.462  0.3058  0.5451 -0.2674
  605MOL0    Cl83397   9.889  12.962   8.570  0.3964  0.6380  0.3736
  605MOL0     C83398   9.198  12.519   7.588 -0.1945 -0.1359  0.2149
  605MOL0     C83399   9.096  12.434   7.625  0.5522 -0.2470 -0.7747
  605MOL0     O83400   9.056  12.209   7.916  0.3273 -0.7286  0.3458
  605MOL0     C83401   8.833  12.083   7.999 -0.4882 -0.9370  0.3223
  605MOL0     C83402   8.729  12.031   8.075  0.3511 -0.8101  0.2298
  605MOL0     N83403   8.343  11.791   8.797 -0.6271  0.4802  0.0043
  605MOL0     N83404   8.305  11.676   8.820  0.7012  1.1859 -0.7928
  605MOL0     C83405   7.635  10.721   8.958 -0.0245 -0.1244 -1.0720
  605MOL0     C83406   7.567  10.612   9.022  0.1713 -0.8992 -0.7647
  605MOL0     C83407   7.488  10.225   9.239 -0.1084  0.5039 -0.0057
  605MOL0     C83408   7.417  10.269   9.356  0.6569 -0.4936 -0.2936
  605MOL0     C83409   7.338  10.181   9.427  0.4172 -0.6915  0.0238
  605MOL0     C83410   7.324  10.052   9.384  0.0840 -0.1520  0.0316
  605MOL0     O83411   7.239   9.971   9.460 -0.0913 -0.1663 -0.3647
  605MOL0     C83412   7.212   9.836   9.415  0.3032  0.0058 -0.5312
  605MOL0     C83413   7.099   9.773   9.501 -0.6189  0.0880 -0.7965
  605MOL0     C83414   7.045   9.651   9.427 -0.1793  1.0202  0.1043
  605MOL0     C83415   6.922   9.592   9.493 -0.4468 -0.4352 -0.7100
  605MOL0     C83416   6.954   9.530   9.624 -0.1028 -0.3213  0.0089
  605MOL0     C83417   6.989   9.470   9.723 -0.3660 -0.4883 -0.3970
  605MOL0     C83418   7.394  10.007   9.267 -0.2883 -1.0689  0.6320
  605MOL0     C83419   7.476  10.094   9.195  0.0279  0.1701  0.2113
  605MOL0     C83420   7.547  10.043   9.072 -0.5692 -0.5062  0.2127
  605MOL0     H83421   7.781  10.541   9.283 -1.6720 -1.4764 -0.3027
  605MOL0     H83422   7.886  10.754   9.184 -0.1522  2.1779 -0.6570
  605MOL0     H83423   7.640  10.982   8.909  0.3022  1.8686  0.7465
  605MOL0     H83424   7.765  10.941   8.778 -0.3469  2.7264 -1.2850
  605MOL0     H83425   7.702  11.182   8.889  0.0601  0.1855 -3.5322
  605MOL0     H83426   7.810  11.135   9.008 -0.1599  1.7556 -0.3662
  605MOL0     H83427   7.943  11.265   8.860 -0.6347 -0.8035 -0.5391
  605MOL0     H83428   7.998  11.100   8.825 -0.0150 -0.7858 -0.0831
  605MOL0     H83429   7.869  11.106   8.621  2.5828 -0.7178  1.6597
  605MOL0     H83430   7.786  11.247   8.675 -1.7457 -3.2412 -0.7263
  605MOL0     H83431   7.963  11.398   8.620 -0.1419 -0.0533 -1.5997
  605MOL0     H83432   7.946  11.294   8.491 -2.8563  2.2997  0.3316
  605MOL0     H83433   8.141  11.238   8.721  1.1669  1.5509 -0.0335
  605MOL0     H83434   8.158  11.175   8.561  3.2983 -0.5411  2.1363
  605MOL0     H83435   8.190  11.441   8.500 -0.2548  2.3689  1.2625
  605MOL0     H83436   8.303  11.339   8.588 -1.3554 -1.7350  0.4545
  605MOL0     H83437   8.092  11.491   8.741  0.9518  0.7304  1.5593
  605MOL0     H83438   8.246  11.420   8.792  0.8233 -0.8823 -0.8808
  605MOL0     H83439   8.251  11.670   8.495  0.7874 -1.5555 -0.6942
  605MOL0     H83440   8.368  12.023   8.670 -2.1117 -1.1001  1.0816
  605MOL0     H83441   8.253  11.982   8.553 -0.1440 -1.4611 -0.9685
  605MOL0     H83442   8.477  12.059   8.483 -2.0352  0.4747  2.1983
  605MOL0     H83443   8.543  11.894   8.525  0.5383 -0.5593 -1.2210
  605MOL0     H83444   8.398  11.801   8.362 -1.2404  0.6932  2.0493
  605MOL0     H83445   8.330  11.965   8.318 -1.4924  0.1798 -1.8014
  605MOL0     H83446   8.624  11.901   8.299  1.8225 -0.2450 -2.4060
  605MOL0     H83447   8.519  11.882   8.156  1.5798 -1.3941  1.2411
  605MOL0     H83448   8.572  12.313   8.169  0.6461  0.2787  1.3030
  605MOL0     H83449   8.701  12.478   7.912 -0.7991 -0.8104  0.1828
  605MOL0     H83450   8.845  12.515   8.014 -0.3023  0.6988 -2.1173
  605MOL0     H83451   8.684  12.520   8.080 -1.7088 -0.5835 -0.9407
  605MOL0     H83452   9.097  12.495   7.958  0.8784  1.0298 -0.7700
  605MOL0     H83453   9.286  12.619   7.896  3.5621  0.6394 -1.3561
  605MOL0     H83454   9.516  12.579   7.786  1.4549  0.0312 -1.4942
  605MOL0     H83455   9.577  12.689   7.651  1.0901 -0.0009  0.8513
  605MOL0     H83456   9.488  12.879   7.736  0.8371  0.0797 -1.5565
  605MOL0     H83457   9.411  12.803   7.883 -0.6137  3.8429 -0.4166
  605MOL0     H83458   9.713  12.836   7.825 -1.2303  3.0308 -0.9429
  605MOL0     H83459   9.645  12.725   7.938  0.6689  0.1178 -1.6575
  605MOL0     H83460   9.532  12.912   8.050  0.2153  2.0411 -0.8186
  605MOL0     H83461   9.600  13.023   7.942 -4.1651  0.9598  2.6920
  605MOL0     H83462   9.837  12.900   8.045  0.2540 -0.8629  1.5031
  605MOL0     H83463   9.775  13.051   8.093 -1.3336  0.3483 -1.9629
  605MOL0     H83464   9.700  12.775   8.214 -2.4659  0.3368  1.6109
  605MOL0     H83465   9.604  12.909   8.244 -0.9632 -4.0307 -0.6717
  605MOL0     H83466   9.766  13.050   8.340  4.0169  0.9762  0.3931
  605MOL0     H83467   9.896  12.956   8.297  0.7255  1.9977 -0.0017
  605MOL0     H83468   9.792  12.765   8.453  0.3178  0.4192  1.0774
  605MOL0     H83469   9.669  12.884   8.489 -0.3272 -0.8922 -1.9254
  605MOL0     H83470   9.223  12.520   7.482  0.7236  1.3761  0.4200
  605MOL0     H83471   9.034  12.367   7.567  0.3079 -2.2121  1.5690
  605MOL0     H83472   8.909  12.017   7.957  0.5307  0.4147 -0.0468
  605MOL0     H83473   8.703  11.926   8.069  1.8132 -1.4099  2.7599
  605MOL0     H83474   7.596  10.773   8.871  1.7879  2.5372 -0.4398
  605MOL0     H83475   7.479  10.567   8.977  0.8798 -1.7190 -1.3585
  605MOL0     H83476   7.428  10.373   9.387 -0.7432 -0.4661  0.1673
  605MOL0     H83477   7.291  10.221   9.516 -0.0048  1.1165 -0.9685
  605MOL0     H83478   7.180   9.837   9.310 -0.2184 -1.6904 -0.4239
  605MOL0     H83479   7.305   9.779   9.408  0.1053 -0.3409 -0.3836
  605MOL0     H83480   7.015   9.839   9.520 -0.4518  0.5137 -1.4947
  605MOL0     H83481   7.146   9.733   9.592 -1.7292  1.7245  0.5304
  605MOL0     H83482   7.011   9.688   9.330  1.2179  0.1588 -0.7576
  605MOL0     H83483   7.111   9.571   9.393  1.7132  2.8958 -0.8777
  605MOL0     H83484   6.885   9.512   9.429  1.4216 -0.8446 -1.3473
  605MOL0     H83485   6.852   9.676   9.490  0.0582 -0.0303 -1.2614
  605MOL0     H83486   7.035   9.437   9.815 -1.4325  2.9652  1.5426
  605MOL0     H83487   7.393   9.904   9.234 -0.4516 -1.0782  0.6632
  605MOL0     H83488   7.551   9.934   9.064  3.1127 -0.6356  1.7366
  605MOL0     H83489   7.516  10.090   8.979 -0.7277  2.0934  1.4843
  605MOL0     H83490   7.653  10.061   9.095 -0.0058 -4.7862  1.7967
  606MOL0     O83491   8.727   9.962   3.193  0.2453 -0.0383 -0.3204
  606MOL0     C83492   8.646  10.017   3.113  0.6667 -0.1272 -0.0681
  606MOL0     O83493   8.684  10.057   2.987  0.1189 -0.4356 -0.7863
  606MOL0     C83494   8.810  10.042   2.944  0.1865 -0.3573 -0.4367
  606MOL0     C83495   8.837   9.940   2.845 -0.0285  0.0260 -0.9439
  606MOL0     C83496   8.966   9.915   2.798 -0.5187 -0.2100  0.4840
  606MOL0     C83497   9.072  10.005   2.834  0.0881  0.5662  0.1051
  606MOL0     O83498   9.210   9.987   2.801  0.1375  0.4124 -0.0505
  606MOL0     C83499   9.255   9.849   2.780  1.2738 -0.0359 -0.3853
  606MOL0     C83500   9.256   9.762   2.908 -0.2614  0.0456 -0.7558
  606MOL0     C83501   9.300   9.612   2.894 -0.7896  0.0498 -0.3008
  606MOL0     C83502   9.402   9.582   2.776  0.0935 -0.2693  0.0324
  606MOL0     C83503   9.434   9.433   2.772 -0.0167  0.4350  0.5735
  606MOL0     C83504   9.526   9.402   2.888  0.3099 -0.1269 -0.2858
  606MOL0     C83505   9.582   9.257   2.889  0.1420  0.2127 -0.6394
  606MOL0     C83506   9.652   9.231   3.025  0.0129 -0.6492  0.1032
  606MOL0     N83507   9.714   9.098   3.023  0.7293 -0.4934  0.0705
  606MOL0     C83508   9.845   9.069   2.993 -0.0449  0.3489  0.1982
  606MOL0     C83509   9.853   8.934   2.999 -0.7005 -0.5644  0.1589
  606MOL0     C83510   9.977   8.851   2.978 -0.2726  0.3178  0.2590
  606MOL0     C83511  10.005   8.841   2.828 -0.1317 -0.6453  1.3759
  606MOL0     C83512   9.898   8.755   2.752  0.1343 -0.4110  0.3492
  606MOL0     C83513   9.915   8.747   2.600 -0.6408 -0.0569 -0.5913
  606MOL0     O83514  10.043   8.683   2.577  0.0260 -0.1661  0.4407
  606MOL0     C83515  10.067   8.642   2.447  0.4056  0.0237  0.0643
  606MOL0     C83516   9.986   8.671   2.331 -0.1936  1.1649 -0.6498
  606MOL0     C83517  10.012   8.636   2.199 -0.5074  0.2726  0.5732
  606MOL0     C83518   9.905   8.668   2.088  1.1750  0.2715 -0.1441
  606MOL0     C83519  10.140   8.570   2.180 -0.1324 -0.3991  0.5273
  606MOL0     C83520  10.168   8.509   2.047 -0.2063  0.2673  0.2157
  606MOL0     O83521  10.206   8.371   2.063 -0.0679 -0.3904 -1.3059
  606MOL0     C83522  10.247   8.296   1.959 -0.2332  0.2776 -0.1957
  606MOL0     C83523  10.317   8.342   1.848  0.2433  0.5109 -0.3828
  606MOL0     C83524  10.357   8.252   1.750  0.0554  0.6932 -0.3349
  606MOL0     C83525  10.337   8.116   1.762  0.5436 -0.5572  0.9849
  606MOL0     O83526  10.397   8.020   1.679 -0.5484 -0.7946  0.2688
  606MOL0     C83527  10.545   8.023   1.685  0.3388 -0.0829  0.3525
  606MOL0     C83528  10.604   8.084   1.561 -1.5226 -0.3888 -0.4506
  606MOL0     C83529  10.757   8.042   1.553 -1.0709 -0.4312  0.6779
  606MOL0     C83530  10.856   8.127   1.643  0.1779  0.4563  0.4648
  606MOL0     C83531  11.010   8.078   1.633 -0.8042 -0.2416  0.2856
  606MOL0     C83532  11.089   8.154   1.536  0.1013  0.5551 -0.3054
  606MOL0     C83533  11.129   8.291   1.598  0.4677 -0.0036 -1.0429
  606MOL0     C83534  11.165   8.388   1.492 -0.2045 -0.4662  0.5088
  606MOL0    Cl83535  11.019   8.434   1.410 -0.5318 -0.3534  0.2416
  606MOL0     C83536  10.275   8.070   1.877 -0.1081  0.2566  0.6656
  606MOL0     C83537  10.234   8.165   1.983  0.5609 -0.0820 -0.9953
  606MOL0     O83538  10.140   8.571   1.941 -0.4721  0.0072  0.0642
  606MOL0     C83539  10.212   8.523   2.290  0.3180 -0.3755  0.0111
  606MOL0     C83540  10.175   8.556   2.418  0.3419  0.7590 -0.6923
  606MOL0     N83541   9.727   8.883   3.033  0.7231 -0.5151  0.1379
  606MOL0     N83542   9.646   8.987   3.052  0.1461 -0.6735  0.4495
  606MOL0     C83543   9.039  10.108   2.928 -0.9301  0.3890  0.2055
  606MOL0     C83544   8.912  10.128   2.981  0.0449 -1.0129  0.8351
  606MOL0     C83545   8.510  10.052   3.154 -0.0058  0.6602 -0.0260
  606MOL0     C83546   8.416  10.083   3.057  0.1889 -0.7444 -0.1529
  606MOL0     C83547   8.283  10.106   3.075  0.4218  0.1950  0.0341
  606MOL0     C83548   8.231  10.095   3.211  0.4348 -0.7254  0.8477
  606MOL0     O83549   8.101  10.122   3.260 -0.1815  0.1586  0.3572
  606MOL0     C83550   8.002  10.177   3.164  0.2202 -1.3766  0.0337
  606MOL0     C83551   7.951  10.063   3.076  0.0517 -0.3673  0.9168
  606MOL0     C83552   7.883   9.961   3.162 -0.1165 -0.1645  0.2916
  606MOL0     C83553   7.752  10.007   3.227 -0.8979  0.6575  0.6982
  606MOL0     C83554   7.676   9.895   3.265  0.0693  0.4202  0.7212
  606MOL0     C83555   7.608   9.800   3.303 -0.1326 -0.0816 -0.6614
  606MOL0     C83556   8.319  10.067   3.311 -0.7028 -0.5696  0.0089
  606MOL0     C83557   8.453  10.038   3.285 -0.8775 -0.3991  1.3166
  606MOL0     C83558   8.527   9.973   3.396  0.2312 -0.1106  0.3008
  606MOL0     H83559   8.749   9.879   2.829 -1.0110  0.5784  1.8577
  606MOL0     H83560   8.981   9.828   2.735 -1.1451  1.2922 -1.8660
  606MOL0     H83561   9.356   9.838   2.737  1.6692 -3.0580  1.1185
  606MOL0     H83562   9.191   9.806   2.703 -0.4452  0.3577  0.7783
  606MOL0     H83563   9.325   9.801   2.984 -0.5913  0.9857 -0.9194
  606MOL0     H83564   9.162   9.758   2.963  1.4626 -3.8966  2.3659
  606MOL0     H83565   9.360   9.601   2.985  1.8831  3.1810 -1.4560
  606MOL0     H83566   9.216   9.543   2.903 -0.9404 -0.1007 -2.3017
  606MOL0     H83567   9.341   9.614   2.691 -2.2207  2.3932  2.4850
  606MOL0     H83568   9.494   9.637   2.797 -0.1572  0.0994  0.1652
  606MOL0     H83569   9.504   9.416   2.689 -1.1041 -1.1633 -0.0644
  606MOL0     H83570   9.353   9.361   2.755  0.6471  0.4852 -4.5495
  606MOL0     H83571   9.610   9.471   2.883 -0.7049  1.1229 -0.3723
  606MOL0     H83572   9.474   9.422   2.982  0.5205  2.8936 -0.7266
  606MOL0     H83573   9.657   9.235   2.812  1.9840 -0.6090  1.2978
  606MOL0     H83574   9.502   9.183   2.882  2.5056 -2.6522  0.6272
  606MOL0     H83575   9.727   9.311   3.031  0.0894  0.0142 -5.0977
  606MOL0     H83576   9.581   9.227   3.108 -0.0253  0.8955  0.1864
  606MOL0     H83577   9.925   9.139   2.972 -1.0310  1.6153  0.5041
  606MOL0     H83578   9.967   8.748   3.012  3.1084 -0.7750 -1.6061
  606MOL0     H83579  10.060   8.896   3.035 -0.0193  3.3133 -2.2101
  606MOL0     H83580  10.017   8.937   2.777 -0.2913 -1.0517  0.5459
  606MOL0     H83581  10.101   8.789   2.819 -1.4997 -3.1909  0.3573
  606MOL0     H83582   9.894   8.652   2.787  0.4063 -1.7725 -3.2564
  606MOL0     H83583   9.801   8.803   2.765 -0.8818 -2.4489  0.6408
  606MOL0     H83584   9.829   8.702   2.550 -1.9732  0.3306  1.2621
  606MOL0     H83585   9.921   8.847   2.557  0.8053  0.0652 -0.1595
  606MOL0     H83586   9.897   8.730   2.350  1.3473  2.6047  2.9456
  606MOL0     H83587   9.899   8.588   2.014  2.7996  1.6563 -1.8674
  606MOL0     H83588   9.940   8.763   2.046  0.4790  0.3018 -0.6597
  606MOL0     H83589   9.802   8.671   2.125  1.3958 -0.8715  0.6266
  606MOL0     H83590  10.317   8.450   1.835 -0.4091  0.9059  2.2941
  606MOL0     H83591  10.405   8.282   1.657 -1.1341  2.0607 -0.5538
  606MOL0     H83592  10.585   8.070   1.776  1.4250  1.1306 -0.7240
  606MOL0     H83593  10.581   7.920   1.687  1.0160  0.1440  2.0728
  606MOL0     H83594  10.541   8.045   1.481 -0.4285  0.0629 -1.5482
  606MOL0     H83595  10.599   8.193   1.555 -0.5242 -0.3338 -0.4246
  606MOL0     H83596  10.785   8.072   1.452 -0.9573  0.8405  1.0561
  606MOL0     H83597  10.775   7.935   1.562  1.1677 -0.0340  1.3641
  606MOL0     H83598  10.824   8.105   1.745 -2.0925 -0.6144 -0.4224
  606MOL0     H83599  10.840   8.232   1.618  1.8033  0.8148  0.7809
  606MOL0     H83600  11.047   8.090   1.736 -1.1533  1.8509  0.2146
  606MOL0     H83601  11.017   7.975   1.599  1.0674 -1.0958  2.9127
  606MOL0     H83602  11.032   8.154   1.442 -0.9625 -0.3627  0.3075
  606MOL0     H83603  11.183   8.101   1.519 -0.4345  0.2232 -2.7233
  606MOL0     H83604  11.220   8.274   1.656 -1.0774 -3.9502  0.5806
  606MOL0     H83605  11.054   8.328   1.669 -0.5692 -0.6948 -1.7493
  606MOL0     H83606  11.243   8.351   1.425  3.0799  2.6617  2.2227
  606MOL0     H83607  11.214   8.476   1.536  0.4139 -1.3736  1.7035
  606MOL0     H83608  10.264   7.969   1.917 -0.9322  0.3204  0.6118
  606MOL0     H83609  10.193   8.123   2.074  2.7876 -0.1705  0.0104
  606MOL0     H83610  10.298   8.460   2.274 -0.7403 -1.4335 -1.7519
  606MOL0     H83611  10.244   8.518   2.494  1.4166 -0.0074 -2.0079
  606MOL0     H83612   9.123  10.163   2.970  0.6331 -1.8979  0.2089
  606MOL0     H83613   8.877  10.199   3.054 -1.6758 -0.2437 -0.6510
  606MOL0     H83614   8.452  10.088   2.955  3.3955 -0.3672  0.8738
  606MOL0     H83615   8.229  10.120   2.982 -0.4609  2.5046  0.8258
  606MOL0     H83616   7.923  10.230   3.218  0.7536 -1.3037  0.7506
  606MOL0     H83617   8.050  10.244   3.092 -2.5146 -0.5240 -1.1133
  606MOL0     H83618   8.022  10.024   3.002  1.1543  2.2044  0.4999
  606MOL0     H83619   7.872  10.106   3.013  0.7352 -0.0787  0.2434
  606MOL0     H83620   7.864   9.864   3.114  4.0426 -2.3674  2.4482
  606MOL0     H83621   7.961   9.939   3.236  0.5842  2.4041  0.3854
  606MOL0     H83622   7.692  10.067   3.159 -1.8206 -0.8692  0.1344
  606MOL0     H83623   7.780  10.066   3.315  0.1445  1.5082 -0.1706
  606MOL0     H83624   7.547   9.720   3.339 -1.5126  1.4402  0.5163
  606MOL0     H83625   8.287  10.057   3.415  3.2097  2.6533  1.8036
  606MOL0     H83626   8.576   9.884   3.357  1.4548  0.4195  0.5702
  606MOL0     H83627   8.601  10.039   3.442  0.8160  0.4098 -1.3011
  606MOL0     H83628   8.460   9.944   3.477 -0.9552  1.0029 -0.2381
  607MOL0     O83629   0.278  10.979   0.497 -0.3106 -0.1247  0.1841
  607MOL0     C83630   0.398  10.968   0.502 -0.0607 -0.4160 -0.6277
  607MOL0     O83631   0.467  10.967   0.616 -0.5984  0.2303  0.5001
  607MOL0     C83632   0.410  10.968   0.731  0.2671 -0.6922 -0.2694
  607MOL0     C83633   0.374  10.854   0.800  1.3676  0.3698  0.7883
  607MOL0     C83634   0.303  10.861   0.922  0.3882  0.3907 -0.2336
  607MOL0     C83635   0.273  10.993   0.974  0.3181 -0.0709 -0.2182
  607MOL0     O83636   0.216  11.010   1.096  0.1636 -0.2457 -0.0026
  607MOL0     C83637   0.286  10.944   1.202 -0.3413 -0.5682  0.3539
  607MOL0     C83638   0.258  11.034   1.320 -0.2183 -0.5464 -0.1639
  607MOL0     C83639   0.331  10.984   1.441  0.5187 -0.4619 -0.0701
  607MOL0     C83640   0.313  11.076   1.566  0.8737  0.5405 -0.1224
  607MOL0     C83641   0.367  11.008   1.692 -0.1248 -0.6942 -0.1603
  607MOL0     C83642   0.326  10.861   1.714  0.1089  0.3912 -0.3091
  607MOL0     C83643   0.394  10.813   1.848 -1.3970  0.4513  0.1895
  607MOL0     C83644   0.329  10.676   1.893 -0.3871  0.3837 -0.4064
  607MOL0     N83645   0.399  10.553   1.856  0.1775  0.5750 -0.0519
  607MOL0     C83646   0.418  10.497   1.736  0.5356  0.6305 -0.9593
  607MOL0     C83647   0.470  10.373   1.756 -0.4168  0.1950  0.6213
  607MOL0     C83648   0.520  10.284   1.644  0.9704 -0.4546 -0.6096
  607MOL0     C83649   0.639  10.349   1.567 -0.1568  0.4297  0.1566
  607MOL0     C83650   0.661  10.280   1.429  0.0338  0.8626  0.1147
  607MOL0     C83651   0.799  10.294   1.367  0.2894 -0.5352 -0.0220
  607MOL0     O83652   0.820  10.421   1.311  0.1950 -0.0787 -0.1944
  607MOL0     C83653   0.949  10.456   1.265  0.3820  0.6278 -0.0880
  607MOL0     C83654   0.952  10.574   1.208  0.1685 -0.4365  0.2233
  607MOL0     C83655   1.062  10.613   1.137  0.4960 -0.7331  0.4525
  607MOL0     C83656   1.064  10.756   1.081 -0.1573 -0.0365 -0.2087
  607MOL0     C83657   1.173  10.524   1.113  0.3237 -0.2164 -0.2013
  607MOL0     C83658   1.301  10.541   1.034  0.4116 -0.5190 -0.1712
  607MOL0     O83659   1.396  10.443   1.041  0.0910 -0.0976  0.5605
  607MOL0     C83660   1.521  10.486   0.994 -0.0987 -0.2349 -0.4581
  607MOL0     C83661   1.545  10.516   0.857 -0.2624 -0.9189  0.6560
  607MOL0     C83662   1.677  10.539   0.804 -0.0233  0.6901  0.0006
  607MOL0     C83663   1.782  10.533   0.893 -0.4280  0.0898 -0.0897
  607MOL0     O83664   1.915  10.577   0.869 -0.0218  0.1520 -0.3138
  607MOL0     C83665   2.022  10.481   0.871 -0.3378 -0.1574 -0.3236
  607MOL0     C83666   2.145  10.540   0.945 -0.1226  0.1021 -0.2852
  607MOL0     C83667   2.262  10.438   0.971  0.2979  0.0892 -0.3317
  607MOL0     C83668   2.393  10.518   0.991 -0.2052 -0.6945 -0.1250
  607MOL0     C83669   2.527  10.438   1.022  0.5389 -0.2549 -0.4536
  607MOL0     C83670   2.591  10.387   0.889  0.3696 -0.2845  0.2754
  607MOL0     C83671   2.598  10.476   0.774  0.2977  0.3914  0.3949
  607MOL0     C83672   2.679  10.410   0.657 -0.6093 -0.1964  0.2310
  607MOL0    Cl83673   2.588  10.277   0.583 -0.6522  0.1078 -0.0017
  607MOL0     C83674   1.763  10.487   1.017  0.0823 -0.3321 -0.9455
  607MOL0     C83675   1.633  10.454   1.067  0.2799  0.9534 -0.0770
  607MOL0     O83676   1.300  10.643   0.959 -0.1816  0.0328 -0.4630
  607MOL0     C83677   1.176  10.404   1.183 -0.9867 -0.3444  0.5265
  607MOL0     C83678   1.061  10.371   1.259  0.3330  0.5183 -0.0929
  607MOL0     N83679   0.499  10.355   1.887  0.3898 -0.7279 -0.6628
  607MOL0     N83680   0.462  10.466   1.946 -0.0125  0.3260  0.1895
  607MOL0     C83681   0.303  11.107   0.899 -1.0324  0.2240 -0.2913
  607MOL0     C83682   0.373  11.095   0.780  0.5711 -0.8049 -1.1738
  607MOL0     C83683   0.477  10.957   0.384 -0.1236 -0.3250  0.4191
  607MOL0     C83684   0.512  11.072   0.308 -0.9088 -0.2674 -0.5760
  607MOL0     C83685   0.573  11.064   0.184  0.0716 -0.1738  0.1795
  607MOL0     C83686   0.603  10.943   0.120  0.4155 -1.3119  0.0097
  607MOL0     O83687   0.647  10.926  -0.011  0.2972 -0.3028  0.2183
  607MOL0     C83688   0.617  11.035  -0.106  0.1401  0.3560 -0.2541
  607MOL0     C83689   0.470  11.042  -0.158 -0.0390  0.0235 -0.6677
  607MOL0     C83690   0.442  11.147  -0.266 -0.2627  0.0050  0.3167
  607MOL0     C83691   0.308  11.113  -0.344 -0.6766  0.0227  0.4527
  607MOL0     C83692   0.311  10.979  -0.401 -0.0065  0.2798 -0.3952
  607MOL0     C83693   0.319  10.861  -0.440 -1.1546  0.0664 -0.8089
  607MOL0     C83694   0.573  10.830   0.204 -0.6504 -0.4905 -0.1138
  607MOL0     C83695   0.515  10.831   0.333 -0.4875  0.0056 -0.6361
  607MOL0     C83696   0.489  10.696   0.402  0.7050  0.0314  0.2724
  607MOL0     H83697   0.384  10.750   0.769 -4.3573 -0.9852  2.1882
  607MOL0     H83698   0.282  10.765   0.968 -1.6522  0.3346 -1.1697
  607MOL0     H83699   0.392  10.924   1.185 -0.6551 -0.1656 -2.6868
  607MOL0     H83700   0.243  10.843   1.211 -3.1227  0.5167  0.2144
  607MOL0     H83701   0.300  11.134   1.304 -0.9809 -0.1917  0.0223
  607MOL0     H83702   0.150  11.037   1.335 -0.3097 -0.5858 -0.7785
  607MOL0     H83703   0.269  10.896   1.461 -1.3555  0.6668 -0.6686
  607MOL0     H83704   0.439  10.977   1.424  0.8601  0.4558  1.5210
  607MOL0     H83705   0.347  11.178   1.547 -0.4803  0.9123 -0.6089
  607MOL0     H83706   0.205  11.084   1.581  0.1489 -3.4428 -1.9292
  607MOL0     H83707   0.332  11.063   1.779  2.1757  0.2199  0.2496
  607MOL0     H83708   0.476  11.013   1.692 -0.0759 -0.8401 -2.4268
  607MOL0     H83709   0.217  10.848   1.711 -0.0490 -1.1121  4.1881
  607MOL0     H83710   0.362  10.799   1.631 -2.8793 -1.2648 -0.4969
  607MOL0     H83711   0.378  10.888   1.927  0.2565 -0.5698  1.5670
  607MOL0     H83712   0.501  10.802   1.828 -0.9442  2.2265  1.3898
  607MOL0     H83713   0.314  10.691   2.000  2.3149  3.5093 -0.3057
  607MOL0     H83714   0.229  10.666   1.848  0.0019 -6.6397 -0.8758
  607MOL0     H83715   0.385  10.548   1.646 -1.0730  4.0575  1.3565
  607MOL0     H83716   0.433  10.282   1.578 -0.7365  1.9162  1.3707
  607MOL0     H83717   0.556  10.187   1.678 -1.5848 -1.0598  0.5570
  607MOL0     H83718   0.617  10.456   1.562 -1.4681  0.1524 -0.7516
  607MOL0     H83719   0.735  10.349   1.618 -0.2405  3.0086  0.4794
  607MOL0     H83720   0.639  10.173   1.440  1.0011  0.4521 -1.5796
  607MOL0     H83721   0.580  10.316   1.365  0.2370  0.2303 -0.5121
  607MOL0     H83722   0.861  10.288   1.456  0.1972 -0.0940  0.0753
  607MOL0     H83723   0.818  10.219   1.290 -0.3131  1.8746 -2.6892
  607MOL0     H83724   0.869  10.639   1.231  0.0527  0.8791 -3.2763
  607MOL0     H83725   1.087  10.759   0.975  0.7560 -2.5391 -0.1575
  607MOL0     H83726   1.141  10.810   1.137  2.6323 -3.1864 -0.6414
  607MOL0     H83727   0.972  10.813   1.092 -1.1823 -0.5549 -4.5661
  607MOL0     H83728   1.464  10.516   0.785  2.7757 -3.2678 -3.1115
  607MOL0     H83729   1.677  10.554   0.697 -5.5213  1.6913 -0.1642
  607MOL0     H83730   1.997  10.390   0.926  0.9128 -0.7560 -0.7041
  607MOL0     H83731   2.046  10.447   0.770 -0.0006 -2.2021  0.3852
  607MOL0     H83732   2.181  10.620   0.879 -0.0189 -1.8018 -2.6445
  607MOL0     H83733   2.118  10.577   1.045 -0.9171  0.7194 -0.7119
  607MOL0     H83734   2.269  10.366   0.889  1.3250 -1.4861  1.0849
  607MOL0     H83735   2.229  10.381   1.058  0.5341 -2.5436 -1.8680
  607MOL0     H83736   2.393  10.580   1.081  0.9784 -2.2898  1.0469
  607MOL0     H83737   2.412  10.584   0.906  1.4059 -0.4831  0.3518
  607MOL0     H83738   2.597  10.507   1.069 -0.3218  0.2554  0.0927
  607MOL0     H83739   2.516  10.357   1.095  0.0950  1.4097  1.3787
  607MOL0     H83740   2.523  10.309   0.855 -2.7114  1.2056  2.5287
  607MOL0     H83741   2.691  10.349   0.914 -0.0795 -1.7367 -0.0471
  607MOL0     H83742   2.639  10.570   0.812  2.3931 -0.3826  0.1687
  607MOL0     H83743   2.499  10.504   0.736  1.3394  1.6581 -1.5161
  607MOL0     H83744   2.773  10.376   0.702 -1.2109  0.9153  2.4437
  607MOL0     H83745   2.714  10.481   0.581 -2.1163 -1.1216 -1.4067
  607MOL0     H83746   1.840  10.476   1.092 -2.0031  0.4351  1.4728
  607MOL0     H83747   1.626  10.422   1.170  2.1413  0.7579  0.0142
  607MOL0     H83748   1.253  10.328   1.174 -0.2230  0.4616  0.0707
  607MOL0     H83749   1.060  10.270   1.298  1.5605  0.0683 -1.1744
  607MOL0     H83750   0.290  11.204   0.945  0.4328 -0.4432  1.6929
  607MOL0     H83751   0.408  11.187   0.736 -2.5000  0.6863 -0.8114
  607MOL0     H83752   0.496  11.176   0.334  2.5224  0.8397 -2.1854
  607MOL0     H83753   0.597  11.156   0.132  1.1331  0.0027  0.9275
  607MOL0     H83754   0.649  11.135  -0.075  1.4983  0.8533 -2.9049
  607MOL0     H83755   0.685  11.012  -0.189  0.0908 -1.7789  0.2318
  607MOL0     H83756   0.404  11.056  -0.071  2.1268  0.8348  0.9407
  607MOL0     H83757   0.448  10.941  -0.192  0.4125 -1.5113  3.1182
  607MOL0     H83758   0.445  11.250  -0.229  0.7951 -0.3060  1.1686
  607MOL0     H83759   0.527  11.136  -0.334  0.9370 -0.6324  1.8494
  607MOL0     H83760   0.291  11.181  -0.428 -0.0833  0.3900  0.6275
  607MOL0     H83761   0.227  11.124  -0.271  0.5890  1.0324  1.7531
  607MOL0     H83762   0.332  10.757  -0.463 -1.3367 -0.1285 -0.0625
  607MOL0     H83763   0.587  10.730   0.163 -0.5780 -0.4938 -0.0810
  607MOL0     H83764   0.512  10.614   0.333  1.8443  0.7649 -0.2464
  607MOL0     H83765   0.551  10.690   0.492  2.0614 -1.4097 -0.6961
  607MOL0     H83766   0.383  10.679   0.423  1.2005 -2.5254  1.1510
  608MOL0     O83767   2.958   4.767   5.191 -0.7725  0.8791  0.0585
  608MOL0     C83768   2.850   4.755   5.252 -0.0137 -0.1501  0.5011
  608MOL0     O83769   2.822   4.828   5.366 -0.3755 -0.5180  0.2538
  608MOL0     C83770   2.921   4.913   5.416  0.3703  0.7346 -0.5514
  608MOL0     C83771   3.050   4.872   5.441 -0.0249  0.4206  0.5015
  608MOL0     C83772   3.143   4.967   5.496  0.0449  0.4602  0.4210
  608MOL0     C83773   3.109   5.105   5.502 -0.4119  0.3701 -0.0025
  608MOL0     O83774   3.203   5.194   5.556 -0.4676  0.1166  0.5607
  608MOL0     C83775   3.162   5.326   5.598  0.2628 -0.3652 -0.2670
  608MOL0     C83776   3.276   5.399   5.674  0.6958  0.0536  0.1578
  608MOL0     C83777   3.243   5.399   5.824 -0.4825  0.1279  0.3508
  608MOL0     C83778   3.354   5.440   5.909  0.4779  0.3978 -0.0777
  608MOL0     C83779   3.309   5.472   6.050 -0.4129  0.7938 -0.1748
  608MOL0     C83780   3.424   5.490   6.153 -0.6340 -0.0372  0.3508
  608MOL0     C83781   3.493   5.358   6.193  0.2400  0.1054 -0.3079
  608MOL0     C83782   3.633   5.378   6.270  0.0385 -1.0675  0.5304
  608MOL0     N83783   3.713   5.257   6.279  0.9011  0.1893  0.4701
  608MOL0     C83784   3.803   5.217   6.186 -1.0895  0.5687  1.0792
  608MOL0     C83785   3.850   5.093   6.223 -0.4026  0.5558  0.1735
  608MOL0     C83786   3.953   5.012   6.155  1.2328  0.7234  0.6445
  608MOL0     C83787   4.042   4.954   6.254  0.2629  0.1134 -0.0931
  608MOL0     C83788   4.133   4.854   6.176  0.7559  0.5999 -0.5947
  608MOL0     C83789   4.235   4.777   6.258 -0.4185 -0.0494  0.5481
  608MOL0     O83790   4.162   4.668   6.310  0.4213 -0.1709 -0.2854
  608MOL0     C83791   4.225   4.590   6.406 -0.1183  0.0660  0.2358
  608MOL0     C83792   4.195   4.599   6.539 -0.4968 -0.1347  0.3031
  608MOL0     C83793   4.265   4.526   6.634 -0.0905 -0.2064 -0.1964
  608MOL0     C83794   4.214   4.532   6.776  0.6094  0.3884  0.2566
  608MOL0     C83795   4.377   4.447   6.594  0.2637  0.5104  0.1099
  608MOL0     C83796   4.468   4.383   6.683 -0.4534 -0.6418 -0.7459
  608MOL0     O83797   4.477   4.250   6.687  0.1897  0.4434 -0.3959
  608MOL0     C83798   4.524   4.190   6.797 -0.1891  0.6028 -0.3237
  608MOL0     C83799   4.575   4.060   6.779 -0.1447 -0.2930  0.0746
  608MOL0     C83800   4.595   3.975   6.885  0.6866  1.0198 -0.6177
  608MOL0     C83801   4.582   4.014   7.020 -0.2517 -0.4085 -0.3141
  608MOL0     O83802   4.609   3.925   7.121 -0.3168  0.1370 -0.7220
  608MOL0     C83803   4.699   3.962   7.225  0.2203 -0.3402  0.0553
  608MOL0     C83804   4.840   4.001   7.178 -1.2784 -0.5129 -0.3674
  608MOL0     C83805   4.917   4.060   7.293 -0.0813 -0.2346 -0.5087
  608MOL0     C83806   5.066   4.086   7.265  0.1468  0.5189  0.3373
  608MOL0     C83807   5.131   4.172   7.365  0.1979 -0.2138 -0.7360
  608MOL0     C83808   5.286   4.157   7.383 -0.1293 -0.3755  0.0118
  608MOL0     C83809   5.371   4.194   7.257 -0.9093  0.0718 -0.3794
  608MOL0     C83810   5.511   4.271   7.288  0.7416 -0.0970 -0.3414
  608MOL0    Cl83811   5.474   4.411   7.386  0.1333  0.6285  0.2813
  608MOL0     C83812   4.547   4.148   7.041 -0.2719 -0.3777  0.9128
  608MOL0     C83813   4.520   4.235   6.933  0.3645  0.0238  0.1334
  608MOL0     O83814   4.559   4.452   6.727 -0.0059  0.5048  0.3673
  608MOL0     C83815   4.399   4.431   6.459  0.6454 -0.3100  1.0758
  608MOL0     C83816   4.323   4.500   6.365  0.2090  0.0049 -0.6289
  608MOL0     N83817   3.771   5.063   6.337  0.4460 -0.1580 -0.1425
  608MOL0     N83818   3.687   5.156   6.369  0.4955  0.0678  0.0281
  608MOL0     C83819   2.973   5.135   5.475 -0.7832 -0.8006 -0.4692
  608MOL0     C83820   2.880   5.042   5.429 -0.2799 -0.6665 -1.1722
  608MOL0     C83821   2.740   4.688   5.176 -0.4684 -0.4688  0.6216
  608MOL0     C83822   2.767   4.622   5.050  0.9154 -0.0293  0.0037
  608MOL0     C83823   2.661   4.572   4.968 -0.6266 -0.8947  0.0865
  608MOL0     C83824   2.527   4.601   5.003  0.4003  0.6781  0.5764
  608MOL0     O83825   2.441   4.573   4.896 -0.6940  0.3083  0.0360
  608MOL0     C83826   2.303   4.627   4.909 -0.8817 -0.0965 -0.2133
  608MOL0     C83827   2.245   4.576   4.780 -0.2471  0.0450 -0.6208
  608MOL0     C83828   2.123   4.655   4.751 -0.0829  0.1906 -0.1178
  608MOL0     C83829   2.049   4.593   4.639 -0.1287 -0.5244  0.0152
  608MOL0     C83830   1.937   4.684   4.594 -0.3066 -0.9355  0.3914
  608MOL0     C83831   1.834   4.752   4.574  0.3385 -0.8250 -0.6824
  608MOL0     C83832   2.502   4.656   5.131  0.6131 -0.4276 -1.1774
  608MOL0     C83833   2.602   4.698   5.218 -0.4369 -0.4696 -0.0097
  608MOL0     C83834   2.555   4.727   5.358  0.4204  0.7030  1.3799
  608MOL0     H83835   3.081   4.770   5.420 -1.0181 -0.0171  1.0831
  608MOL0     H83836   3.241   4.928   5.520  1.0207  2.4989  0.0005
  608MOL0     H83837   3.080   5.323   5.671 -0.3971  0.0691 -0.9703
  608MOL0     H83838   3.127   5.379   5.509  0.0726  2.2586  1.2939
  608MOL0     H83839   3.372   5.346   5.662 -0.0421 -0.8872 -2.0817
  608MOL0     H83840   3.278   5.502   5.637 -1.2660 -0.3281 -1.1421
  608MOL0     H83841   3.167   5.478   5.837  1.6728  2.3792  0.0705
  608MOL0     H83842   3.202   5.300   5.845 -1.7012 -0.2137 -2.9915
  608MOL0     H83843   3.430   5.361   5.901  1.6288  1.3053  1.2774
  608MOL0     H83844   3.404   5.527   5.865  2.6637 -1.3103 -1.1336
  608MOL0     H83845   3.246   5.389   6.082 -2.6363  1.9789 -1.2604
  608MOL0     H83846   3.238   5.554   6.049  0.1700  1.3137 -1.2131
  608MOL0     H83847   3.490   5.568   6.114  2.1190 -3.4798 -2.5454
  608MOL0     H83848   3.378   5.524   6.246 -0.8444 -1.9058  0.9835
  608MOL0     H83849   3.499   5.286   6.110 -0.8179 -1.0183  0.5583
  608MOL0     H83850   3.434   5.309   6.271 -1.1820  0.9556 -0.8300
  608MOL0     H83851   3.693   5.450   6.213 -1.9924  0.1647 -0.1396
  608MOL0     H83852   3.626   5.412   6.373  3.0779  0.6417  0.3198
  608MOL0     H83853   3.843   5.254   6.091 -2.1120 -1.7952 -0.3686
  608MOL0     H83854   4.016   5.074   6.091  0.5388 -1.3297 -2.2789
  608MOL0     H83855   3.907   4.928   6.101  0.5749  0.5192  1.4887
  608MOL0     H83856   4.093   5.034   6.308 -0.9739  0.7096  0.2385
  608MOL0     H83857   3.984   4.900   6.330 -1.5227  1.2868 -0.5630
  608MOL0     H83858   4.064   4.785   6.128 -1.3121  2.7505 -0.8973
  608MOL0     H83859   4.186   4.915   6.102  0.8624 -0.8128 -1.7426
  608MOL0     H83860   4.315   4.746   6.191 -0.4835  0.4618  0.2263
  608MOL0     H83861   4.278   4.838   6.338  0.6267  0.7310 -0.5777
  608MOL0     H83862   4.108   4.659   6.564 -0.6753  0.3511 -1.3931
  608MOL0     H83863   4.283   4.583   6.844  2.4736 -2.9006  1.0858
  608MOL0     H83864   4.204   4.430   6.816 -0.3637 -0.2086 -1.4019
  608MOL0     H83865   4.120   4.586   6.783  0.3917 -0.1879  4.0857
  608MOL0     H83866   4.569   4.013   6.681 -3.0892  1.6650 -0.8178
  608MOL0     H83867   4.629   3.874   6.864 -2.1034  0.1721 -1.4785
  608MOL0     H83868   4.654   4.045   7.279 -0.8377 -1.1406  0.4354
  608MOL0     H83869   4.694   3.879   7.296 -1.4380  0.0236  0.3946
  608MOL0     H83870   4.894   3.924   7.122 -1.4928 -0.1629 -1.0768
  608MOL0     H83871   4.832   4.084   7.106 -0.9139  1.2866  1.5498
  608MOL0     H83872   4.913   4.003   7.386 -0.6409 -1.7683 -1.4389
  608MOL0     H83873   4.870   4.158   7.307  1.2794  0.5362 -1.1097
  608MOL0     H83874   5.063   4.146   7.173  0.2374  0.8512  0.5504
  608MOL0     H83875   5.120   3.992   7.247 -0.2997  0.3262 -0.0254
  608MOL0     H83876   5.126   4.274   7.325 -2.6824 -0.0543 -0.1826
  608MOL0     H83877   5.073   4.175   7.457  0.0181  1.7252 -0.8584
  608MOL0     H83878   5.318   4.055   7.406 -1.0528 -0.0603  3.2793
  608MOL0     H83879   5.306   4.225   7.467 -1.3693  0.1079 -0.0679
  608MOL0     H83880   5.315   4.251   7.182  1.2796 -1.3758 -3.3223
  608MOL0     H83881   5.409   4.105   7.206  2.4126  1.1376 -0.0071
  608MOL0     H83882   5.554   4.307   7.193  0.7601  1.6497  0.2893
  608MOL0     H83883   5.583   4.207   7.340  2.4324  1.4131 -0.7206
  608MOL0     H83884   4.551   4.191   7.140 -1.9928 -2.2977  1.8865
  608MOL0     H83885   4.490   4.337   6.956 -1.4994  0.0077 -1.8561
  608MOL0     H83886   4.482   4.366   6.434  0.7448 -0.9403  2.8921
  608MOL0     H83887   4.320   4.508   6.257 -0.8869  0.7212 -0.5627
  608MOL0     H83888   2.943   5.232   5.513  0.7919 -0.8859  1.0700
  608MOL0     H83889   2.777   5.075   5.421 -1.2934 -3.4471 -0.4775
  608MOL0     H83890   2.870   4.600   5.025 -0.3314 -3.7025 -2.6836
  608MOL0     H83891   2.677   4.544   4.864 -2.4781  4.5743 -2.0726
  608MOL0     H83892   2.253   4.586   4.997 -0.9694  1.9464  0.7427
  608MOL0     H83893   2.282   4.732   4.930 -2.7145 -0.5343  0.3378
  608MOL0     H83894   2.223   4.471   4.802 -0.8019  0.2407 -0.2264
  608MOL0     H83895   2.316   4.601   4.700  0.0326  1.1891 -0.0442
  608MOL0     H83896   2.061   4.663   4.841  3.6623  1.7159  2.6371
  608MOL0     H83897   2.153   4.753   4.715 -2.3955  1.0262  0.0512
  608MOL0     H83898   2.000   4.498   4.662 -1.0805 -1.0712 -3.5629
  608MOL0     H83899   2.116   4.581   4.553 -0.4311  1.0397 -0.4649
  608MOL0     H83900   1.752   4.820   4.562  0.0439 -0.9613  0.4499
  608MOL0     H83901   2.399   4.657   5.165 -0.1078  0.8597 -3.1836
  608MOL0     H83902   2.447   4.715   5.371  0.5005 -3.6243 -0.3168
  608MOL0     H83903   2.600   4.649   5.419 -2.3944 -1.9594  0.3258
  608MOL0     H83904   2.593   4.819   5.402  3.3676 -1.7043  4.3011
  609MOL0     O83905  10.492  11.197   3.079 -0.3860 -0.3029  0.2652
  609MOL0     C83906  10.438  11.142   2.979  1.5506 -0.0078 -1.4106
  609MOL0     O83907  10.497  11.080   2.872  0.5412 -0.6577 -0.4596
  609MOL0     C83908  10.630  11.067   2.861  0.2222 -0.5343 -0.2024
  609MOL0     C83909  10.675  11.141   2.754 -0.4553  0.4990 -0.9877
  609MOL0     C83910  10.814  11.144   2.734 -1.0976 -0.1325 -0.0501
  609MOL0     C83911  10.906  11.086   2.819  0.0042  0.5990  0.1834
  609MOL0     O83912  11.045  11.111   2.805 -0.1830  0.1479 -0.1672
  609MOL0     C83913  11.142  11.067   2.901 -0.0310  0.2756 -0.0607
  609MOL0     C83914  11.230  10.971   2.818 -0.1600  0.2237  0.5081
  609MOL0     C83915  11.287  11.039   2.693 -1.0283 -0.1365 -0.3364
  609MOL0     C83916  11.426  10.989   2.650 -1.0528 -0.1415 -0.0399
  609MOL0     C83917  11.487  11.084   2.545 -0.4346  0.0374  0.4180
  609MOL0     C83918  11.606  11.165   2.595 -0.7616  1.2011 -0.3605
  609MOL0     C83919  11.635  11.287   2.502 -0.3304  0.4112  0.4246
  609MOL0     C83920  11.522  11.396   2.483  0.0476 -0.3085 -0.1909
  609MOL0     N83921  11.590  11.517   2.444 -0.1207 -0.3356 -0.0628
  609MOL0     C83922  11.649  11.547   2.321  0.4697 -0.4700  0.6724
  609MOL0     C83923  11.711  11.665   2.350  0.3828 -0.3846  0.6399
  609MOL0     C83924  11.783  11.744   2.256 -1.4463  0.0419 -0.0257
  609MOL0     C83925  11.932  11.724   2.284 -0.3338 -0.7982  0.3176
  609MOL0     C83926  12.006  11.837   2.212 -0.2187  0.7610  0.9152
  609MOL0     C83927  12.164  11.852   2.231  0.4804 -0.5283  0.1145
  609MOL0     O83928  12.240  11.746   2.172  0.3340 -0.3106  0.4762
  609MOL0     C83929  12.376  11.755   2.193 -0.1742  0.1902  0.9793
  609MOL0     C83930  12.441  11.834   2.293  0.1366 -0.7065  0.0427
  609MOL0     C83931  12.579  11.834   2.311 -0.7156  0.4052 -0.3177
  609MOL0     C83932  12.623  11.922   2.427  0.0705  0.9329 -0.0564
  609MOL0     C83933  12.664  11.754   2.222  0.6938  0.4521 -0.8212
  609MOL0     C83934  12.806  11.724   2.253 -0.0904 -0.2238  1.0564
  609MOL0     O83935  12.861  11.612   2.207  0.3189 -0.7124  0.1365
  609MOL0     C83936  12.992  11.612   2.165  1.0228  0.2242 -0.3153
  609MOL0     C83937  13.097  11.630   2.252 -0.2582  0.6727 -0.4675
  609MOL0     C83938  13.225  11.629   2.197 -0.5520 -0.6293 -0.1099
  609MOL0     C83939  13.248  11.593   2.063 -0.3699 -0.0793 -0.4224
  609MOL0     O83940  13.374  11.585   2.006  0.3501 -0.7883 -0.2093
  609MOL0     C83941  13.496  11.608   2.080 -0.8515  0.1761  1.0411
  609MOL0     C83942  13.618  11.550   2.014 -0.1123  0.1843  0.4118
  609MOL0     C83943  13.589  11.406   1.994  0.2138  0.4052  0.5280
  609MOL0     C83944  13.721  11.329   1.975  0.0793  0.6170  0.2782
  609MOL0     C83945  13.707  11.187   1.941  0.2207  0.3566 -1.1911
  609MOL0     C83946  13.624  11.108   2.034 -0.3496 -0.6159  0.4861
  609MOL0     C83947  13.624  10.964   2.005  0.3659  0.9288  1.1115
  609MOL0     C83948  13.513  10.914   2.097  0.3185  0.8081  0.7375
  609MOL0    Cl83949  13.554  10.915   2.259  0.4411 -0.0011 -0.5555
  609MOL0     C83950  13.143  11.580   1.982 -0.5078  0.0560 -0.1957
  609MOL0     C83951  13.014  11.590   2.028 -0.2642  0.6303  0.1928
  609MOL0     O83952  12.874  11.813   2.293  0.0282 -0.1555  0.3169
  609MOL0     C83953  12.602  11.685   2.113 -0.0136 -0.3011 -0.8145
  609MOL0     C83954  12.457  11.689   2.101  1.0428 -1.1064 -0.3260
  609MOL0     N83955  11.697  11.694   2.487  0.1964 -0.1914 -0.7875
  609MOL0     N83956  11.615  11.611   2.540 -0.3122  0.5101 -0.2187
  609MOL0     C83957  10.846  11.017   2.926 -0.6438  0.5364 -1.1080
  609MOL0     C83958  10.710  11.012   2.949  0.1072  0.3080 -0.9478
  609MOL0     C83959  10.283  11.143   2.981  0.0940  0.7741 -0.2605
  609MOL0     C83960  10.220  11.049   3.062 -0.4723 -0.6237  0.6482
  609MOL0     C83961  10.077  11.037   3.062  0.1142 -0.5966 -0.4770
  609MOL0     C83962   9.996  11.124   2.984 -0.1581  0.4934  0.1949
  609MOL0     O83963   9.859  11.124   2.986 -0.2735 -0.1578  0.4034
  609MOL0     C83964   9.788  11.023   3.062 -0.3305  0.2076 -0.2503
  609MOL0     C83965   9.639  11.050   3.042 -0.2858  0.0122 -1.5945
  609MOL0     C83966   9.559  10.973   3.139  0.5513  0.5924 -0.0765
  609MOL0     C83967   9.421  10.935   3.100  0.4799  0.1488  0.6562
  609MOL0     C83968   9.332  11.051   3.111 -0.6780  0.5847  0.3536
  609MOL0     C83969   9.262  11.138   3.112  0.1841 -0.7937 -0.3362
  609MOL0     C83970  10.063  11.218   2.909  0.4759 -0.2705 -0.2268
  609MOL0     C83971  10.205  11.232   2.908  0.8635  0.6453  0.0203
  609MOL0     C83972  10.272  11.342   2.819  0.5300 -1.1512 -0.0161
  609MOL0     H83973  10.603  11.184   2.685 -0.9361  3.4851  1.1587
  609MOL0     H83974  10.854  11.194   2.645  2.3063 -1.4172  0.6095
  609MOL0     H83975  11.114  11.027   2.999  3.6245 -1.6640  0.3703
  609MOL0     H83976  11.201  11.158   2.910 -0.3268  0.3769  0.9096
  609MOL0     H83977  11.316  10.938   2.877  1.9572  2.6107 -1.0331
  609MOL0     H83978  11.173  10.882   2.789 -3.3802  1.4288  2.5112
  609MOL0     H83979  11.215  11.028   2.611 -3.0348  1.3979  1.1456
  609MOL0     H83980  11.283  11.147   2.709  1.7906  0.1445 -0.9916
  609MOL0     H83981  11.498  10.972   2.731  0.5754 -4.1552 -2.0541
  609MOL0     H83982  11.420  10.889   2.605 -1.1756 -1.2635  2.3102
  609MOL0     H83983  11.410  11.157   2.522 -0.6465 -0.5875 -0.9762
  609MOL0     H83984  11.518  11.022   2.460  1.2388 -1.5714  2.0924
  609MOL0     H83985  11.584  11.200   2.696  0.6624  0.2818  0.2854
  609MOL0     H83986  11.691  11.099   2.615 -0.2658  2.2157  1.0661
  609MOL0     H83987  11.671  11.258   2.403  1.7535  3.2666  0.2362
  609MOL0     H83988  11.723  11.335   2.546  1.9659 -1.0597 -2.2551
  609MOL0     H83989  11.449  11.372   2.405 -0.1245 -0.7791  0.1055
  609MOL0     H83990  11.474  11.416   2.580  1.1994  2.1038 -0.0493
  609MOL0     H83991  11.664  11.502   2.223 -0.8490 -0.6000  0.5165
  609MOL0     H83992  11.763  11.851   2.245  0.4366  0.4902  0.6390
  609MOL0     H83993  11.761  11.707   2.156 -3.5480 -0.5337  0.5985
  609MOL0     H83994  11.952  11.740   2.391 -1.8642  1.7743  0.3134
  609MOL0     H83995  11.960  11.625   2.249  1.5315  0.5133 -2.1520
  609MOL0     H83996  11.999  11.821   2.104  2.9525 -2.3782  0.9875
  609MOL0     H83997  11.956  11.931   2.236  2.1852  1.8513  1.9625
  609MOL0     H83998  12.214  11.945   2.202 -0.7362 -0.5435 -2.2845
  609MOL0     H83999  12.180  11.833   2.337 -1.5747  1.3275  0.8103
  609MOL0     H84000  12.381  11.889   2.365  0.4610 -0.5015  0.1569
  609MOL0     H84001  12.537  11.953   2.487 -0.8991 -1.3468 -0.1705
  609MOL0     H84002  12.678  12.009   2.389 -0.5555  2.0403  1.4747
  609MOL0     H84003  12.697  11.872   2.490 -0.7698 -2.1881 -1.3395
  609MOL0     H84004  13.072  11.643   2.357  0.1979 -1.3491 -0.0600
  609MOL0     H84005  13.312  11.657   2.256  0.5342 -3.6809 -0.1014
  609MOL0     H84006  13.511  11.717   2.080 -1.3393  0.3236 -1.6317
  609MOL0     H84007  13.480  11.570   2.181  1.2528  0.1501  1.4091
  609MOL0     H84008  13.632  11.589   1.912  2.3729 -2.8659 -0.5876
  609MOL0     H84009  13.710  11.565   2.070  1.3424 -0.1291 -1.7628
  609MOL0     H84010  13.525  11.398   1.906  1.0985  2.1163 -0.3269
  609MOL0     H84011  13.536  11.363   2.080  1.0191  0.6781  1.1780
  609MOL0     H84012  13.787  11.340   2.061 -0.8355 -2.4527  1.5082
  609MOL0     H84013  13.772  11.376   1.890 -0.2909  1.7433  0.6616
  609MOL0     H84014  13.683  11.176   1.834 -0.6412  1.1746 -1.0989
  609MOL0     H84015  13.806  11.143   1.958 -0.2316 -0.1592  0.1955
  609MOL0     H84016  13.520  11.141   2.019 -0.3648 -1.9069 -3.3325
  609MOL0     H84017  13.655  11.120   2.138 -0.6150  3.2725  0.2749
  609MOL0     H84018  13.721  10.915   2.021  0.2739  0.2826 -0.1242
  609MOL0     H84019  13.597  10.929   1.905 -0.0072 -0.4849  1.6895
  609MOL0     H84020  13.501  10.807   2.080 -0.3881  0.9860  0.0601
  609MOL0     H84021  13.415  10.959   2.076 -0.9918 -2.6135 -1.4203
  609MOL0     H84022  13.147  11.567   1.874 -0.3614 -0.2311 -0.1565
  609MOL0     H84023  12.932  11.574   1.959 -0.6748 -0.9654  1.0174
  609MOL0     H84024  12.653  11.624   2.039 -2.4874 -1.3312 -1.7788
  609MOL0     H84025  12.417  11.639   2.013  1.2632 -1.9214  0.0240
  609MOL0     H84026  10.907  10.954   2.990 -0.5415  2.4491  0.7852
  609MOL0     H84027  10.672  10.949   3.029  0.7212  1.3642  0.2088
  609MOL0     H84028  10.282  10.975   3.112  2.4793  0.7704 -0.7183
  609MOL0     H84029  10.041  10.962   3.132  3.3808 -0.5239  1.5181
  609MOL0     H84030   9.812  10.922   3.029 -0.7241 -0.0466  0.2369
  609MOL0     H84031   9.816  11.037   3.167  0.6550  0.6918 -0.5610
  609MOL0     H84032   9.608  11.034   2.938  1.4653  0.8593 -2.2851
  609MOL0     H84033   9.617  11.157   3.054 -0.9266  0.1602 -3.6382
  609MOL0     H84034   9.605  10.879   3.171 -0.3787  0.5550  1.2349
  609MOL0     H84035   9.550  11.033   3.230 -1.3283  0.5154 -0.1839
  609MOL0     H84036   9.377  10.870   3.175 -0.0670 -0.5611 -0.2568
  609MOL0     H84037   9.424  10.894   2.998  1.0770  1.1388  0.2534
  609MOL0     H84038   9.192  11.220   3.115  1.4019  0.4126 -2.2672
  609MOL0     H84039  10.007  11.285   2.844 -0.6187  0.0736  1.0368
  609MOL0     H84040  10.381  11.344   2.817  0.6018 -2.1301  1.5757
  609MOL0     H84041  10.237  11.331   2.716  2.3924  1.6634 -1.0665
  609MOL0     H84042  10.243  11.444   2.848 -1.3379 -1.0535 -1.9206
  610MOL0     O84043   8.068   6.046   0.855  0.2734 -0.6157  0.0655
  610MOL0     C84044   8.075   6.066   0.978  0.5123 -0.0275 -0.6421
  610MOL0     O84045   8.176   6.129   1.047  0.2125  0.4555 -0.5288
  610MOL0     C84046   8.269   6.205   0.989 -0.0937  0.4158 -0.7583
  610MOL0     C84047   8.366   6.257   1.073 -0.6958 -0.0469 -0.3625
  610MOL0     C84048   8.467   6.343   1.025 -0.7618 -0.1925 -0.8882
  610MOL0     C84049   8.475   6.379   0.889  0.7270  1.5048 -0.4228
  610MOL0     O84050   8.572   6.448   0.823 -0.4062 -0.3835  0.7316
  610MOL0     C84051   8.668   6.524   0.903  0.4993 -0.3628  0.0877
  610MOL0     C84052   8.761   6.596   0.813  0.7513  0.0361  0.2111
  610MOL0     C84053   8.694   6.706   0.735 -0.5610  0.3603 -0.2743
  610MOL0     C84054   8.775   6.765   0.618 -0.5882  0.3708 -0.2225
  610MOL0     C84055   8.795   6.913   0.629  0.6321 -0.6662  0.2284
  610MOL0     C84056   8.848   6.978   0.499 -0.8065 -0.1567  0.3947
  610MOL0     C84057   8.863   7.123   0.526 -0.3709 -0.4180  0.0092
  610MOL0     C84058   8.913   7.186   0.395  0.7164 -0.0635 -0.3511
  610MOL0     N84059   9.047   7.149   0.374 -0.2295 -0.1824  0.0677
  610MOL0     C84060   9.153   7.168   0.461  0.1039 -0.2396  0.5935
  610MOL0     C84061   9.258   7.107   0.400  0.3842  0.7721 -0.0929
  610MOL0     C84062   9.391   7.070   0.463  0.3437  0.9238  0.6857
  610MOL0     C84063   9.494   7.162   0.402  0.1078 -0.0170 -0.3586
  610MOL0     C84064   9.626   7.142   0.476 -0.4828  0.4200  0.1955
  610MOL0     C84065   9.719   7.254   0.422  0.3002 -0.2118  0.0769
  610MOL0     O84066   9.755   7.222   0.285  0.1009 -0.3809  0.2080
  610MOL0     C84067   9.851   7.292   0.223 -0.2506  1.0019  0.6118
  610MOL0     C84068   9.878   7.243   0.097 -0.4069 -0.3483  0.8432
  610MOL0     C84069   9.986   7.300   0.018  0.7045 -0.3281 -0.2416
  610MOL0     C84070   9.999   7.231  -0.113  0.0157 -0.4022 -0.8318
  610MOL0     C84071  10.055   7.410   0.070 -1.3171  0.2481  0.6433
  610MOL0     C84072  10.175   7.482   0.004  0.2090 -0.3765 -0.0101
  610MOL0     O84073  10.248   7.567   0.082  0.1413 -0.4910  0.2024
  610MOL0     C84074  10.379   7.580   0.050  0.8862 -0.8375  0.0414
  610MOL0     C84075  10.407   7.660  -0.056  0.3248 -0.3506  0.1441
  610MOL0     C84076  10.537   7.683  -0.105  0.3447 -0.3769 -0.7589
  610MOL0     C84077  10.636   7.614  -0.048 -0.0932 -0.3815 -0.3968
  610MOL0     O84078  10.766   7.627  -0.084  0.1115 -0.4973  0.0374
  610MOL0     C84079  10.814   7.731  -0.172 -0.1455  0.2902 -0.4512
  610MOL0     C84080  10.965   7.736  -0.162  0.1408  0.5265  0.8884
  610MOL0     C84081  11.032   7.869  -0.199  0.2197 -0.6314  0.9063
  610MOL0     C84082  11.009   7.981  -0.096 -0.5993 -0.4514  1.1718
  610MOL0     C84083  11.085   8.114  -0.117  0.5616 -0.2989 -0.5868
  610MOL0     C84084  11.039   8.219  -0.013 -0.0716  0.0021  0.1880
  610MOL0     C84085  11.120   8.349  -0.032  0.0136 -0.1881  0.1299
  610MOL0     C84086  11.052   8.476   0.023  0.3524  0.4728 -1.2273
  610MOL0    Cl84087  11.007   8.455   0.194 -0.1914 -0.2007  0.2579
  610MOL0     C84088  10.610   7.526   0.061  0.4257  0.3229  0.3047
  610MOL0     C84089  10.478   7.514   0.114 -0.6532  0.3008  0.5518
  610MOL0     O84090  10.198   7.457  -0.112  0.6315  0.1873  0.4254
  610MOL0     C84091  10.030   7.457   0.198 -0.8444  0.5478 -0.0105
  610MOL0     C84092   9.933   7.400   0.269  0.1526  0.5507 -0.7253
  610MOL0     N84093   9.218   7.038   0.293 -0.1755  0.3156  0.7577
  610MOL0     N84094   9.101   7.074   0.267 -0.1605  0.1699  0.9201
  610MOL0     C84095   8.379   6.323   0.801 -0.0848  0.5629  0.1915
  610MOL0     C84096   8.273   6.242   0.853  0.2480  0.0237  0.0127
  610MOL0     C84097   7.960   6.016   1.062 -0.0447  0.0921  0.8099
  610MOL0     C84098   7.842   5.979   0.998 -0.3189 -0.1525  0.0247
  610MOL0     C84099   7.729   5.928   1.055  0.0213 -0.4516  1.3818
  610MOL0     C84100   7.726   5.906   1.187  0.6925  0.3032  0.5302
  610MOL0     O84101   7.601   5.880   1.236 -0.4374  1.1685  0.1617
  610MOL0     C84102   7.585   5.822   1.373  0.6340  0.5360 -1.2810
  610MOL0     C84103   7.471   5.714   1.371 -0.2285 -0.3988  0.4582
  610MOL0     C84104   7.346   5.766   1.299  0.2998 -0.1519  0.5436
  610MOL0     C84105   7.264   5.861   1.386 -0.3169 -0.2480 -0.9195
  610MOL0     C84106   7.131   5.903   1.342 -0.4347 -0.4070  0.3324
  610MOL0     C84107   7.019   5.943   1.324 -0.4029 -0.1297  0.7302
  610MOL0     C84108   7.838   5.944   1.262  0.0688  0.1557 -0.0195
  610MOL0     C84109   7.953   6.002   1.208  0.9054 -0.1218  1.1407
  610MOL0     C84110   8.065   6.059   1.300 -0.6944 -0.5467 -0.0574
  610MOL0     H84111   8.359   6.241   1.181  2.4633  1.4227  0.1783
  610MOL0     H84112   8.529   6.393   1.098  0.4092  0.2462 -2.1299
  610MOL0     H84113   8.721   6.450   0.964 -2.8803 -1.4004  2.0438
  610MOL0     H84114   8.613   6.583   0.976 -4.1386 -1.2425 -2.3525
  610MOL0     H84115   8.836   6.640   0.879  1.5083 -0.7213 -0.1386
  610MOL0     H84116   8.809   6.531   0.739  0.3656 -1.8010  1.4967
  610MOL0     H84117   8.600   6.679   0.687  1.1289 -1.3789 -2.9095
  610MOL0     H84118   8.685   6.781   0.814  2.6420 -2.5610  3.2721
  610MOL0     H84119   8.876   6.730   0.596  0.7575  3.4609  0.4822
  610MOL0     H84120   8.713   6.763   0.528 -2.5402  2.6673  0.9438
  610MOL0     H84121   8.860   6.922   0.716 -1.1891 -1.2090  1.7316
  610MOL0     H84122   8.699   6.960   0.652  1.8012  1.2849  1.3614
  610MOL0     H84123   8.947   6.943   0.469 -1.9323 -1.8482 -1.6459
  610MOL0     H84124   8.781   6.969   0.413 -0.4261 -1.0513  0.1818
  610MOL0     H84125   8.942   7.131   0.601 -1.4038  1.8037  0.9555
  610MOL0     H84126   8.769   7.166   0.562 -0.5347  0.8548 -1.8186
  610MOL0     H84127   8.854   7.150   0.310  1.9188 -0.5063 -1.0238
  610MOL0     H84128   8.884   7.290   0.412 -1.8245 -1.0993  2.6774
  610MOL0     H84129   9.138   7.215   0.558 -4.2331 -0.1463  0.0871
  610MOL0     H84130   9.422   6.966   0.448  2.7154  1.5896  0.6385
  610MOL0     H84131   9.384   7.094   0.569 -1.1034 -0.6597  0.9885
  610MOL0     H84132   9.510   7.148   0.295  1.7719 -2.6731  0.1422
  610MOL0     H84133   9.455   7.264   0.413 -0.1830  0.0283 -1.6654
  610MOL0     H84134   9.619   7.157   0.584  2.7167  0.0723  0.5414
  610MOL0     H84135   9.666   7.041   0.461 -0.1518  0.4994  0.5571
  610MOL0     H84136   9.676   7.355   0.431 -0.5850 -0.4461 -1.2029
  610MOL0     H84137   9.807   7.253   0.486  0.3848 -3.1275  0.0512
  610MOL0     H84138   9.829   7.153   0.063 -0.2964 -0.0387 -0.1706
  610MOL0     H84139  10.026   7.308  -0.185  1.0992 -0.7933 -0.8589
  610MOL0     H84140   9.908   7.184  -0.152  1.2257 -0.0542 -4.4500
  610MOL0     H84141  10.072   7.149  -0.102 -2.2273 -2.1441  4.1104
  610MOL0     H84142  10.332   7.703  -0.121  2.8078 -0.7853 -3.3522
  610MOL0     H84143  10.552   7.757  -0.183 -0.7356 -0.1552 -0.7680
  610MOL0     H84144  10.775   7.713  -0.273 -1.3932  1.3816 -0.1998
  610MOL0     H84145  10.784   7.829  -0.132  1.4994  0.1346  1.2641
  610MOL0     H84146  10.993   7.717  -0.058  0.7280  0.6399  0.7561
  610MOL0     H84147  11.003   7.649  -0.217 -1.1281 -0.6851  1.8632
  610MOL0     H84148  10.998   7.889  -0.301  1.1846  0.3306  0.7494
  610MOL0     H84149  11.138   7.844  -0.215 -0.3179 -1.8107 -1.2947
  610MOL0     H84150  11.017   7.943   0.006 -1.6763 -0.6386  1.1968
  610MOL0     H84151  10.907   8.019  -0.103 -0.6294  0.4098  4.4642
  610MOL0     H84152  11.192   8.096  -0.103  0.8134  0.5338 -1.3759
  610MOL0     H84153  11.075   8.154  -0.218  3.4899  0.2886 -0.7495
  610MOL0     H84154  11.053   8.182   0.089  0.9374  0.8326  0.3684
  610MOL0     H84155  10.933   8.241  -0.031 -0.0750 -0.6340 -0.6085
  610MOL0     H84156  11.128   8.359  -0.141 -0.3183  0.3699  0.1547
  610MOL0     H84157  11.221   8.339   0.008  0.1604  0.4160 -0.0934
  610MOL0     H84158  10.958   8.495  -0.030 -1.3243 -0.4877  1.1984
  610MOL0     H84159  11.122   8.560   0.019 -1.1025  1.6619 -3.0582
  610MOL0     H84160  10.691   7.465   0.098  2.0979  0.4404 -2.8465
  610MOL0     H84161  10.449   7.458   0.203 -0.9633  3.0293  2.2786
  610MOL0     H84162  10.067   7.547   0.244  1.8774  1.3569 -3.3351
  610MOL0     H84163   9.919   7.430   0.373  0.0835 -1.1766 -0.2098
  610MOL0     H84164   8.392   6.335   0.694  0.7011 -4.0024 -0.4184
  610MOL0     H84165   8.200   6.204   0.782  0.5069  1.0491 -0.8089
  610MOL0     H84166   7.822   6.010   0.895 -2.1699  2.4459  1.0592
  610MOL0     H84167   7.639   5.917   0.995 -1.4655  2.2437  2.8928
  610MOL0     H84168   7.676   5.783   1.420  0.4119  1.5958  0.0705
  610MOL0     H84169   7.557   5.911   1.430  3.2341  0.4874  0.2021
  610MOL0     H84170   7.442   5.674   1.469 -2.0506 -2.8673 -0.9539
  610MOL0     H84171   7.505   5.627   1.314 -1.3434 -1.6078  1.5631
  610MOL0     H84172   7.359   5.803   1.196  0.4669 -0.8248  0.3148
  610MOL0     H84173   7.288   5.673   1.298  1.4400 -0.9484  3.0318
  610MOL0     H84174   7.318   5.956   1.392  1.2819 -1.1752  0.0773
  610MOL0     H84175   7.259   5.826   1.489  1.6230 -1.1254 -1.0815
  610MOL0     H84176   6.912   5.952   1.330 -0.5196 -2.0921  2.7951
  610MOL0     H84177   7.828   5.932   1.370  2.3474  1.2129  0.3610
  610MOL0     H84178   8.062   6.168   1.293  2.7184 -0.4505 -2.0801
  610MOL0     H84179   8.032   6.023   1.398 -1.4293 -0.7165 -0.3615
  610MOL0     H84180   8.161   6.020   1.264 -2.0482 -0.8318 -3.7801
  611MOL0     O84181   7.934   4.544   1.563 -0.3887 -0.1242  0.2429
  611MOL0     C84182   7.883   4.654   1.539  0.3317  0.1447 -0.2845
  611MOL0     O84183   7.940   4.754   1.456  0.3607  0.2492  0.4024
  611MOL0     C84184   8.042   4.718   1.368 -0.0333  0.0315  0.0521
  611MOL0     C84185   8.026   4.610   1.284  0.2250  1.2757  0.2320
  611MOL0     C84186   8.130   4.580   1.201 -0.5553 -0.1089 -0.5010
  611MOL0     C84187   8.248   4.643   1.197 -0.5305 -0.3952 -0.0493
  611MOL0     O84188   8.358   4.595   1.122 -0.4128 -0.6827  0.4233
  611MOL0     C84189   8.339   4.522   0.996 -0.7498 -1.0168  0.6804
  611MOL0     C84190   8.475   4.486   0.934  0.1826  0.7775  0.8572
  611MOL0     C84191   8.560   4.610   0.923 -0.5175  0.4777 -0.2802
  611MOL0     C84192   8.672   4.598   0.823 -0.6136  0.2982 -0.2158
  611MOL0     C84193   8.768   4.714   0.812  0.1293  0.3711 -1.0238
  611MOL0     C84194   8.886   4.678   0.719  0.8580  0.3973  0.9021
  611MOL0     C84195   8.985   4.789   0.714  0.4927  0.1534  0.8477
  611MOL0     C84196   9.101   4.775   0.820  0.8804  0.2891  0.2757
  611MOL0     N84197   9.189   4.660   0.785 -0.1032  0.0587 -0.1946
  611MOL0     C84198   9.272   4.651   0.677 -0.4749 -0.5062  0.3019
  611MOL0     C84199   9.343   4.544   0.680  0.3049  0.5642  0.7917
  611MOL0     C84200   9.442   4.500   0.588 -0.4953 -0.4544  0.1858
  611MOL0     C84201   9.576   4.463   0.664 -0.6257  0.1395  0.1446
  611MOL0     C84202   9.688   4.403   0.569  0.0235  0.3459  1.1911
  611MOL0     C84203   9.827   4.422   0.635 -0.1919  0.4887  0.4651
  611MOL0     O84204   9.864   4.557   0.629 -0.9937 -0.3746  0.2204
  611MOL0     C84205   9.993   4.598   0.671  0.0042  0.5617 -0.1356
  611MOL0     C84206  10.029   4.736   0.654 -0.6098  0.9530 -0.1757
  611MOL0     C84207  10.146   4.781   0.717 -0.1849 -1.1123  0.6047
  611MOL0     C84208  10.154   4.932   0.709 -0.3544 -0.1059 -0.1988
  611MOL0     C84209  10.240   4.683   0.772 -0.3451 -1.2391  0.2968
  611MOL0     C84210  10.366   4.724   0.835  0.0699  0.8931  0.5291
  611MOL0     O84211  10.418   4.624   0.909  0.3972 -0.3588  0.2811
  611MOL0     C84212  10.532   4.663   0.986 -0.7498 -0.1153 -0.5427
  611MOL0     C84213  10.658   4.608   0.962  0.8126 -0.1469 -0.4997
  611MOL0     C84214  10.757   4.608   1.053 -0.3289  0.7949 -0.0743
  611MOL0     C84215  10.734   4.673   1.177 -0.2863  0.9955 -0.2827
  611MOL0     O84216  10.836   4.664   1.270 -0.4286 -0.2960  1.0857
  611MOL0     C84217  10.809   4.696   1.408 -0.0952  0.2246  1.0698
  611MOL0     C84218  10.940   4.673   1.486 -1.0200  1.2313  0.2657
  611MOL0     C84219  11.041   4.785   1.441 -0.2967  0.9039  0.3708
  611MOL0     C84220  11.175   4.789   1.519  0.0533 -0.2141  0.6211
  611MOL0     C84221  11.256   4.659   1.510 -0.3953 -0.4365 -0.2054
  611MOL0     C84222  11.394   4.688   1.582  0.0614 -0.2079  0.2339
  611MOL0     C84223  11.494   4.576   1.580  0.6397 -0.4419  0.2813
  611MOL0     C84224  11.610   4.618   1.667 -0.3557 -0.2985 -0.2674
  611MOL0    Cl84225  11.579   4.630   1.839  0.6821 -0.7561  0.3240
  611MOL0     C84226  10.608   4.736   1.201 -0.6734  0.3333 -0.8155
  611MOL0     C84227  10.509   4.734   1.106  1.3636 -0.3881 -0.1903
  611MOL0     O84228  10.418   4.830   0.812 -0.1447 -0.6823 -0.7262
  611MOL0     C84229  10.197   4.548   0.787 -0.1542  0.2227  0.0797
  611MOL0     C84230  10.075   4.508   0.735 -0.4528  0.6771  0.6365
  611MOL0     N84231   9.310   4.478   0.795 -0.2070 -0.0742 -0.3780
  611MOL0     N84232   9.216   4.550   0.860 -0.5634  0.8246  0.6569
  611MOL0     C84233   8.260   4.765   1.275  0.7490 -0.8204 -0.8105
  611MOL0     C84234   8.164   4.794   1.362  0.9316  0.1847  0.3490
  611MOL0     C84235   7.748   4.677   1.609 -0.3451  0.2056  0.6072
  611MOL0     C84236   7.702   4.806   1.615 -0.4985  0.4296 -0.3884
  611MOL0     C84237   7.587   4.842   1.680  0.3176  0.0014  0.4087
  611MOL0     C84238   7.498   4.738   1.723 -0.3804 -0.2367 -0.4967
  611MOL0     O84239   7.383   4.778   1.792 -0.6144 -0.5634  0.4201
  611MOL0     C84240   7.268   4.771   1.700  0.1003 -0.3735  0.6288
  611MOL0     C84241   7.255   4.910   1.639  0.5670  0.0499 -0.2642
  611MOL0     C84242   7.114   4.911   1.574 -0.9730  0.1363 -0.1033
  611MOL0     C84243   7.001   4.920   1.674  0.4962 -0.9421 -0.2754
  611MOL0     C84244   6.882   4.993   1.622  0.6552  0.7095  0.5227
  611MOL0     C84245   6.768   5.043   1.595 -1.4812 -0.7815  0.0271
  611MOL0     C84246   7.530   4.604   1.705 -0.1160 -0.3474  0.9030
  611MOL0     C84247   7.658   4.568   1.649  0.3322  0.0454 -0.2542
  611MOL0     C84248   7.702   4.423   1.645  0.7569  0.8121 -0.6763
  611MOL0     H84249   7.934   4.552   1.280  1.5672 -1.1019  1.1870
  611MOL0     H84250   8.116   4.489   1.144  1.5866  0.1702 -1.5892
  611MOL0     H84251   8.287   4.578   0.918 -1.2158 -0.8445  1.1105
  611MOL0     H84252   8.285   4.427   1.007  1.2772 -2.5744 -1.6713
  611MOL0     H84253   8.523   4.400   0.982  0.7781  0.4613 -0.2786
  611MOL0     H84254   8.450   4.440   0.838 -0.9558  0.5673  1.2290
  611MOL0     H84255   8.492   4.689   0.890 -0.2493  0.9192  0.1975
  611MOL0     H84256   8.599   4.640   1.021  0.5452  1.7971 -1.0635
  611MOL0     H84257   8.727   4.512   0.863 -2.3860 -0.4118  0.8161
  611MOL0     H84258   8.639   4.578   0.721 -2.0112  2.7714 -0.3185
  611MOL0     H84259   8.799   4.734   0.916 -2.9829 -2.3104  0.5924
  611MOL0     H84260   8.713   4.798   0.768 -1.6327 -1.5789 -2.7328
  611MOL0     H84261   8.944   4.587   0.740 -2.3921 -2.3510 -0.9145
  611MOL0     H84262   8.848   4.667   0.617  1.8494  3.1454  0.1630
  611MOL0     H84263   8.940   4.888   0.725 -0.2129 -0.1742  0.9884
  611MOL0     H84264   9.034   4.779   0.617 -0.8564 -1.4743  0.2928
  611MOL0     H84265   9.165   4.863   0.804 -1.1018  1.5151 -1.5218
  611MOL0     H84266   9.051   4.777   0.917  1.3442 -0.9736  0.5580
  611MOL0     H84267   9.298   4.725   0.603 -1.8628 -0.7749 -0.4977
  611MOL0     H84268   9.453   4.575   0.509  0.3632 -0.3928  0.3573
  611MOL0     H84269   9.411   4.414   0.527 -0.8564  0.9529 -1.7022
  611MOL0     H84270   9.617   4.553   0.712  0.3727 -0.0632 -0.2897
  611MOL0     H84271   9.558   4.413   0.759  0.7542  2.3761  1.6982
  611MOL0     H84272   9.667   4.296   0.563  3.9229 -0.4838 -0.6097
  611MOL0     H84273   9.693   4.442   0.468  1.4528 -3.2193 -0.2934
  611MOL0     H84274   9.821   4.383   0.737  3.1171 -0.5837  0.3604
  611MOL0     H84275   9.904   4.366   0.582  1.5075  0.9916  2.2869
  611MOL0     H84276   9.960   4.805   0.607 -0.3353  1.6461  0.4100
  611MOL0     H84277  10.135   4.962   0.606  0.1607 -2.9164 -1.2035
  611MOL0     H84278  10.252   4.974   0.737  0.1962 -3.4953  4.1956
  611MOL0     H84279  10.073   4.978   0.767  0.5711 -1.7055  2.5835
  611MOL0     H84280  10.673   4.543   0.876 -1.1234 -0.6728 -0.4790
  611MOL0     H84281  10.848   4.549   1.039 -1.6195 -1.3801  0.1741
  611MOL0     H84282  10.780   4.801   1.414 -1.6959  0.2077 -2.9945
  611MOL0     H84283  10.727   4.633   1.444 -0.5536  1.1157  1.6133
  611MOL0     H84284  10.925   4.671   1.595 -5.3425  2.1520 -0.1198
  611MOL0     H84285  10.977   4.573   1.462 -1.6675  0.5999  1.7449
  611MOL0     H84286  10.983   4.877   1.455 -0.3714  0.8935  0.1359
  611MOL0     H84287  11.072   4.769   1.337 -2.0393 -1.4335  0.1278
  611MOL0     H84288  11.163   4.802   1.627 -0.3869  0.3412  0.5081
  611MOL0     H84289  11.241   4.867   1.480 -1.9170  0.9609 -0.5080
  611MOL0     H84290  11.198   4.571   1.540 -2.3275 -0.1509 -2.7563
  611MOL0     H84291  11.283   4.646   1.404 -2.2548 -2.2539 -0.5154
  611MOL0     H84292  11.376   4.701   1.689 -0.4449  1.3012 -0.0178
  611MOL0     H84293  11.433   4.784   1.547 -1.8662  0.2912 -0.6854
  611MOL0     H84294  11.528   4.552   1.478 -0.9890 -1.1806 -0.1180
  611MOL0     H84295  11.447   4.486   1.619 -2.4155  0.3240 -1.3273
  611MOL0     H84296  11.641   4.715   1.628 -1.3317 -0.7336 -2.2805
  611MOL0     H84297  11.701   4.563   1.642  1.3926  3.0831 -2.0622
  611MOL0     H84298  10.589   4.778   1.300 -0.2918  1.0929 -1.0488
  611MOL0     H84299  10.415   4.785   1.125  1.9969  0.5023  0.6354
  611MOL0     H84300  10.253   4.463   0.823  0.4597  1.1739  1.4589
  611MOL0     H84301  10.047   4.403   0.740  0.1600  0.5122  0.6035
  611MOL0     H84302   8.348   4.828   1.271  1.3282 -1.6793 -1.8966
  611MOL0     H84303   8.174   4.873   1.436 -2.8496 -0.2684  1.5881
  611MOL0     H84304   7.757   4.895   1.588 -1.1452  0.5011 -1.5392
  611MOL0     H84305   7.566   4.945   1.707  0.1159  0.1505 -0.2988
  611MOL0     H84306   7.264   4.698   1.619 -5.1318 -1.5706  1.5734
  611MOL0     H84307   7.179   4.738   1.755 -1.1687 -0.6790 -1.4925
  611MOL0     H84308   7.336   4.928   1.568  1.7149 -0.1446  0.9653
  611MOL0     H84309   7.262   4.974   1.727 -0.0198 -2.7868  1.9722
  611MOL0     H84310   7.106   4.983   1.492 -1.3027 -3.2498 -3.3336
  611MOL0     H84311   7.104   4.814   1.525  1.9100 -0.3827  0.1949
  611MOL0     H84312   7.047   4.975   1.757  0.0111  0.8262 -1.1472
  611MOL0     H84313   6.965   4.822   1.708 -0.1496  0.1232  2.3958
  611MOL0     H84314   6.669   5.083   1.579 -0.3500  1.7931 -1.1353
  611MOL0     H84315   7.467   4.523   1.742  2.4528 -3.1647 -0.3939
  611MOL0     H84316   7.785   4.408   1.714  1.3863  0.7358 -1.4278
  611MOL0     H84317   7.628   4.349   1.675  1.2605  0.6792  0.2722
  611MOL0     H84318   7.748   4.386   1.552  2.9141 -1.8175  1.2659
  612MOL0     O84319   0.971   5.387   3.096 -0.1775  0.1242  0.3047
  612MOL0     C84320   0.965   5.285   3.030 -0.0971  0.0432 -0.4054
  612MOL0     O84321   1.068   5.211   2.988  0.4325  0.6934 -0.0189
  612MOL0     C84322   1.188   5.242   3.036  0.2159  0.5176 -0.0994
  612MOL0     C84323   1.273   5.331   2.966  0.2713  0.1465  0.4530
  612MOL0     C84324   1.405   5.363   3.025 -0.1173  0.0073  0.7916
  612MOL0     C84325   1.453   5.293   3.135 -0.3271  0.4650 -0.6040
  612MOL0     O84326   1.580   5.305   3.196  0.0852 -0.1459 -0.2602
  612MOL0     C84327   1.686   5.380   3.133  0.0833  0.7819  0.1466
  612MOL0     C84328   1.784   5.297   3.053  0.4195  0.2016 -0.6294
  612MOL0     C84329   1.854   5.199   3.144 -0.4076 -0.0837  0.5558
  612MOL0     C84330   1.977   5.258   3.221  0.1535  0.6474 -0.6061
  612MOL0     C84331   2.047   5.143   3.309  0.7268 -0.1687  0.8108
  612MOL0     C84332   2.192   5.148   3.302  0.0693 -0.3133 -0.3610
  612MOL0     C84333   2.254   5.288   3.336  0.8855  0.2913  0.5443
  612MOL0     C84334   2.411   5.294   3.323 -0.1775  0.0599  0.3926
  612MOL0     N84335   2.462   5.226   3.442  0.0236  0.5637  0.4881
  612MOL0     C84336   2.508   5.094   3.451 -0.6038  0.5026 -0.2745
  612MOL0     C84337   2.531   5.076   3.583  1.1926 -0.7538  0.2600
  612MOL0     C84338   2.569   4.955   3.656 -0.2996 -0.6768 -0.3007
  612MOL0     C84339   2.725   4.967   3.676  0.6588 -0.3947  0.1927
  612MOL0     C84340   2.791   4.859   3.749 -0.9420  0.8447  0.2607
  612MOL0     C84341   2.942   4.872   3.744  0.7882  0.0737 -1.2040
  612MOL0     O84342   3.007   4.757   3.807  0.0536 -0.0236 -0.1021
  612MOL0     C84343   3.144   4.770   3.805  0.2403 -0.2341 -0.7922
  612MOL0     C84344   3.229   4.870   3.751  0.2137  0.6436 -0.2183
  612MOL0     C84345   3.371   4.862   3.751 -0.5610 -0.1567 -0.4182
  612MOL0     C84346   3.456   4.980   3.690 -0.1825 -0.4530 -1.4280
  612MOL0     C84347   3.427   4.759   3.828 -0.0967 -0.0747  0.3076
  612MOL0     C84348   3.572   4.733   3.845 -0.8233  0.1681  0.1379
  612MOL0     O84349   3.616   4.699   3.975 -0.5190 -0.1318 -0.4952
  612MOL0     C84350   3.734   4.635   4.003 -0.6221  0.6425  0.4217
  612MOL0     C84351   3.768   4.618   4.139 -0.5196  0.6472 -0.1715
  612MOL0     C84352   3.879   4.540   4.176  0.2062  0.0503 -0.1849
  612MOL0     C84353   3.949   4.454   4.095 -0.1097 -0.5263  0.2621
  612MOL0     O84354   4.041   4.376   4.162 -0.3350 -0.0343 -0.1695
  612MOL0     C84355   4.064   4.248   4.092 -0.6293  0.0302 -1.0256
  612MOL0     C84356   4.197   4.191   4.152 -0.6615  0.5297 -0.0757
  612MOL0     C84357   4.251   4.080   4.065  0.1311 -0.7053  0.3381
  612MOL0     C84358   4.167   3.952   4.087 -0.7406 -0.1644 -0.3718
  612MOL0     C84359   4.255   3.830   4.052 -0.1337  0.0081 -0.5731
  612MOL0     C84360   4.176   3.706   4.107 -0.7288  0.9781 -0.0942
  612MOL0     C84361   4.255   3.570   4.086  0.0010 -0.9096 -0.6438
  612MOL0     C84362   4.179   3.483   3.978  0.4916 -0.0716  0.6566
  612MOL0    Cl84363   4.148   3.569   3.820  0.2594 -0.0281  0.1804
  612MOL0     C84364   3.910   4.464   3.957 -0.2039 -0.6454  0.2156
  612MOL0     C84365   3.807   4.556   3.912  0.7544  0.0747  0.4002
  612MOL0     O84366   3.651   4.748   3.750  0.3503  0.2182 -0.1816
  612MOL0     C84367   3.349   4.660   3.884  0.3178 -0.4522  0.2153
  612MOL0     C84368   3.212   4.664   3.872 -0.4480  0.4096  0.2783
  612MOL0     N84369   2.506   5.190   3.651 -0.0931 -0.0723  0.7207
  612MOL0     N84370   2.470   5.274   3.566 -0.5624 -0.3677 -0.9713
  612MOL0     C84371   1.370   5.201   3.200  0.4731 -0.2858  0.6015
  612MOL0     C84372   1.242   5.172   3.149 -0.3594  0.5435 -0.5621
  612MOL0     C84373   0.822   5.252   2.990 -0.1099 -0.3402  0.1787
  612MOL0     C84374   0.721   5.291   3.078 -0.8224  0.7051  0.0511
  612MOL0     C84375   0.589   5.265   3.053  0.3955 -0.1474  0.4611
  612MOL0     C84376   0.546   5.203   2.933 -0.9407 -0.5469  0.3614
  612MOL0     O84377   0.418   5.177   2.891 -0.2284  0.7495 -0.4762
  612MOL0     C84378   0.315   5.242   2.962  0.0809 -0.7280  0.6601
  612MOL0     C84379   0.177   5.199   2.899  0.3276  0.9494 -0.5074
  612MOL0     C84380   0.145   5.283   2.773 -0.2447  0.0406 -0.3951
  612MOL0     C84381   0.015   5.239   2.701 -0.1968 -0.2072 -1.7537
  612MOL0     C84382   0.034   5.121   2.613  0.6541  0.3921  0.3887
  612MOL0     C84383   0.064   5.035   2.537  0.3751 -0.5644 -0.9498
  612MOL0     C84384   0.649   5.167   2.839 -0.6248  0.2054 -0.4675
  612MOL0     C84385   0.789   5.189   2.868  0.3561 -0.2302  0.4575
  612MOL0     C84386   0.887   5.134   2.768  0.2625 -0.2557  0.4547
  612MOL0     H84387   1.240   5.370   2.870 -0.8233 -2.0638 -0.1377
  612MOL0     H84388   1.466   5.435   2.971 -2.5705  0.3295 -1.8090
  612MOL0     H84389   1.753   5.420   3.209 -0.0304 -0.0993  0.7207
  612MOL0     H84390   1.648   5.465   3.075 -1.3141 -0.4149 -0.7632
  612MOL0     H84391   1.746   5.246   2.964  0.4141  2.0281 -1.7160
  612MOL0     H84392   1.860   5.370   3.022  0.6982 -0.0143 -0.4676
  612MOL0     H84393   1.781   5.156   3.214 -0.7346  1.8726  1.4773
  612MOL0     H84394   1.872   5.118   3.073 -3.2650 -0.0913 -0.2968
  612MOL0     H84395   2.038   5.301   3.141  2.7794 -3.2414 -0.9812
  612MOL0     H84396   1.934   5.332   3.288 -2.3295  0.1988 -1.6027
  612MOL0     H84397   2.009   5.045   3.276  1.8490 -0.8864  1.5707
  612MOL0     H84398   2.013   5.161   3.411  1.4947 -2.5915  1.5856
  612MOL0     H84399   2.230   5.068   3.368 -1.5350 -0.8992 -0.1138
  612MOL0     H84400   2.227   5.119   3.202  0.1085 -1.9161  0.0798
  612MOL0     H84401   2.222   5.310   3.439  1.4208 -0.3159  0.8478
  612MOL0     H84402   2.215   5.360   3.263 -0.6622  2.2145  3.0833
  612MOL0     H84403   2.442   5.240   3.233 -0.9104  2.6928 -1.5494
  612MOL0     H84404   2.446   5.397   3.323 -3.3516  1.2531  0.7678
  612MOL0     H84405   2.519   5.021   3.371 -1.5766  1.7242 -1.5646
  612MOL0     H84406   2.553   4.871   3.589 -0.2370 -0.7401 -0.2360
  612MOL0     H84407   2.511   4.952   3.748  0.1292 -1.4052 -0.0480
  612MOL0     H84408   2.766   4.967   3.575  0.6106 -1.1395  0.1685
  612MOL0     H84409   2.758   5.057   3.730  0.9312 -1.6008  2.1116
  612MOL0     H84410   2.753   4.862   3.851  3.9322  2.2178  2.3381
  612MOL0     H84411   2.767   4.762   3.707  0.6821  1.3814 -2.1437
  612MOL0     H84412   2.982   4.869   3.642  1.2578 -1.3914 -1.0021
  612MOL0     H84413   2.975   4.962   3.798  2.5645 -1.9660  1.3755
  612MOL0     H84414   3.188   4.958   3.701 -0.0905 -0.4294 -1.9281
  612MOL0     H84415   3.396   5.068   3.664 -0.9415 -0.1475  1.0715
  612MOL0     H84416   3.503   4.946   3.597  0.9864  0.6710 -1.2792
  612MOL0     H84417   3.536   5.013   3.757  0.1261 -1.2808 -1.3809
  612MOL0     H84418   3.708   4.668   4.215 -0.8481  0.7288 -0.4839
  612MOL0     H84419   3.899   4.541   4.283 -2.9100  0.5707  0.5145
  612MOL0     H84420   3.991   4.167   4.104  1.8453 -1.9941  2.1601
  612MOL0     H84421   4.080   4.259   3.985  0.1385 -1.2420 -1.0614
  612MOL0     H84422   4.276   4.267   4.151 -0.5383  0.4292  1.0793
  612MOL0     H84423   4.200   4.149   4.253  0.6125 -0.0989 -0.3515
  612MOL0     H84424   4.358   4.068   4.084 -0.0924  0.6169  2.9917
  612MOL0     H84425   4.239   4.092   3.957  0.0395  1.0449  0.5126
  612MOL0     H84426   4.071   3.958   4.035 -1.4596 -0.3941  0.8900
  612MOL0     H84427   4.137   3.953   4.192  1.1341  1.3167  0.2075
  612MOL0     H84428   4.260   3.822   3.943 -1.9370 -1.8324 -0.5827
  612MOL0     H84429   4.353   3.831   4.100  0.8628 -2.4844 -2.3719
  612MOL0     H84430   4.077   3.707   4.061 -1.3310  3.8403  1.0470
  612MOL0     H84431   4.166   3.716   4.216 -1.7264 -1.0302  0.0332
  612MOL0     H84432   4.276   3.513   4.178  1.4151 -0.9272 -0.9507
  612MOL0     H84433   4.355   3.590   4.045  0.5617  1.9979  1.7982
  612MOL0     H84434   4.080   3.467   4.021 -0.3847  2.7958 -0.0418
  612MOL0     H84435   4.233   3.390   3.959  1.5701  0.1559  2.3302
  612MOL0     H84436   3.963   4.403   3.885 -1.0524  1.2828 -2.2227
  612MOL0     H84437   3.778   4.558   3.807 -1.7623 -1.0966  0.9835
  612MOL0     H84438   3.393   4.588   3.952  0.2859 -0.6628  0.0129
  612MOL0     H84439   3.163   4.584   3.926  0.9396 -2.0388 -1.8889
  612MOL0     H84440   1.404   5.138   3.282  0.5509 -0.5125  0.3942
  612MOL0     H84441   1.191   5.094   3.205  2.2105  0.8436  2.4943
  612MOL0     H84442   0.734   5.338   3.176 -0.2181  1.1840 -0.2483
  612MOL0     H84443   0.506   5.292   3.117  1.5111 -0.7609  2.2501
  612MOL0     H84444   0.301   5.206   3.064 -0.5172 -0.0204  0.8368
  612MOL0     H84445   0.326   5.351   2.957 -1.1084 -0.5226  1.8137
  612MOL0     H84446   0.109   5.234   2.977  2.4272  0.7254  1.5158
  612MOL0     H84447   0.173   5.093   2.872 -0.7324  1.8657 -4.7797
  612MOL0     H84448   0.142   5.389   2.799  0.6641 -0.4517  1.9748
  612MOL0     H84449   0.230   5.263   2.707 -1.3034 -3.5859 -0.8914
  612MOL0     H84450  -0.022   5.330   2.653  1.4320  1.4512 -0.0491
  612MOL0     H84451  -0.059   5.204   2.774 -0.9198  1.6013 -1.5761
  612MOL0     H84452   0.094   4.954   2.473  0.7076 -1.2106  0.0015
  612MOL0     H84453   0.597   5.130   2.751 -0.2283  0.1023 -0.6601
  612MOL0     H84454   0.936   5.208   2.703 -1.1068  0.1758 -0.1204
  612MOL0     H84455   0.966   5.084   2.824  2.4248  0.0310 -2.1105
  612MOL0     H84456   0.835   5.069   2.697 -2.3343  1.3039  0.8049
  613MOL0     O84457   1.901  11.400   6.426 -0.5533 -0.0516  0.3197
  613MOL0     C84458   1.922  11.466   6.523  0.2501  1.1961 -0.8022
  613MOL0     O84459   1.954  11.414   6.656  1.1973  0.3201  0.6760
  613MOL0     C84460   1.936  11.288   6.707  0.1703  0.2374 -0.0866
  613MOL0     C84461   1.867  11.184   6.646  0.6520 -0.5477  0.2440
  613MOL0     C84462   1.866  11.058   6.706 -0.1405  0.9312  0.1987
  613MOL0     C84463   1.942  11.031   6.826 -0.6235  1.0128  0.2291
  613MOL0     O84464   1.958  10.910   6.892  0.0743  0.5451  0.3674
  613MOL0     C84465   1.864  10.801   6.872 -0.1138  0.5894 -0.1012
  613MOL0     C84466   1.929  10.677   6.796  1.0414  0.3413 -0.1342
  613MOL0     C84467   1.828  10.628   6.693 -0.0078  0.2855 -0.9968
  613MOL0     C84468   1.864  10.493   6.629 -0.0129  0.3264 -0.7713
  613MOL0     C84469   1.750  10.467   6.524  0.1678  0.1455 -0.2570
  613MOL0     C84470   1.786  10.349   6.427 -0.1622  0.4389  0.0631
  613MOL0     C84471   1.682  10.323   6.321 -0.1124 -0.5291 -0.0294
  613MOL0     C84472   1.692  10.426   6.207 -0.8196  0.4443  0.0568
  613MOL0     N84473   1.816  10.428   6.118 -0.8407 -0.7744  0.4830
  613MOL0     C84474   1.921  10.519   6.119 -0.0852  0.2734 -0.1754
  613MOL0     C84475   2.018  10.466   6.041  0.0703  0.1198  0.9340
  613MOL0     C84476   2.145  10.535   6.006 -0.8103  0.2763  0.1439
  613MOL0     C84477   2.239  10.471   5.898  0.5378 -0.0444  0.0884
  613MOL0     C84478   2.205  10.513   5.756 -0.3714 -0.7093 -0.1834
  613MOL0     C84479   2.309  10.470   5.657 -0.6865 -0.3641 -1.2273
  613MOL0     O84480   2.263  10.516   5.530  0.3878  0.3226  0.0381
  613MOL0     C84481   2.359  10.485   5.431  0.1703 -0.6175  0.4188
  613MOL0     C84482   2.483  10.419   5.441 -0.0215  0.0077  0.1925
  613MOL0     C84483   2.569  10.414   5.336 -0.8208 -0.5280  0.5858
  613MOL0     C84484   2.707  10.354   5.364  0.2060 -0.1505  0.7529
  613MOL0     C84485   2.535  10.462   5.208 -0.8449 -0.4873  0.4866
  613MOL0     C84486   2.621  10.450   5.084  0.4961 -0.3566 -0.1570
  613MOL0     O84487   2.560  10.517   4.980 -0.3546  0.3557 -0.1126
  613MOL0     C84488   2.612  10.511   4.853  0.7831  0.1549  0.4776
  613MOL0     C84489   2.643  10.386   4.785  0.3069  0.5947 -0.0159
  613MOL0     C84490   2.677  10.388   4.650 -0.4259  0.3520  0.2289
  613MOL0     C84491   2.691  10.509   4.580 -0.4894  0.4261 -0.9605
  613MOL0     O84492   2.765  10.494   4.465  0.0211 -0.1596  0.7016
  613MOL0     C84493   2.848  10.604   4.422 -0.6447  1.1777  0.2953
  613MOL0     C84494   2.950  10.556   4.310 -0.3778 -0.6874 -0.8757
  613MOL0     C84495   3.039  10.676   4.274  0.4439  1.0301  0.7500
  613MOL0     C84496   3.121  10.657   4.145  0.4021  0.2828 -0.1781
  613MOL0     C84497   3.041  10.677   4.020 -0.2964 -0.1513  1.0079
  613MOL0     C84498   2.972  10.816   3.998 -0.6839 -0.1490  0.6002
  613MOL0     C84499   3.081  10.927   4.008  0.5426  0.5299 -0.4648
  613MOL0     C84500   3.024  11.053   4.075 -0.4025 -0.0629 -0.8586
  613MOL0    Cl84501   3.170  11.162   4.086  0.1123  0.1777 -0.1188
  613MOL0     C84502   2.656  10.633   4.645 -0.0989  0.4362 -0.9324
  613MOL0     C84503   2.622  10.628   4.776 -0.9060 -0.1603 -0.7290
  613MOL0     O84504   2.729  10.393   5.084 -0.1990 -0.0916 -0.2212
  613MOL0     C84505   2.404  10.513   5.193  0.2468 -0.2841 -0.0368
  613MOL0     C84506   2.317  10.522   5.302 -0.5967  0.3311 -0.1091
  613MOL0     N84507   1.965  10.353   5.985 -0.3683 -0.1012 -0.2797
  613MOL0     N84508   1.850  10.329   6.023  0.0425 -0.3078 -0.2532
  613MOL0     C84509   2.005  11.136   6.887 -0.9155 -0.5051  0.5516
  613MOL0     C84510   2.016  11.262   6.826  0.7961  0.6650 -0.0849
  613MOL0     C84511   1.921  11.613   6.521  0.0934  0.3564 -0.0335
  613MOL0     C84512   1.852  11.695   6.618  0.8975 -0.7518  0.3340
  613MOL0     C84513   1.857  11.839   6.611  0.4354 -0.0466 -0.1927
  613MOL0     C84514   1.918  11.900   6.500 -0.2411  0.4974 -0.7246
  613MOL0     O84515   1.905  12.039   6.483  0.0817 -0.7054  0.1230
  613MOL0     C84516   1.926  12.133   6.602 -0.3495 -0.4463  0.4810
  613MOL0     C84517   1.796  12.200   6.626  0.1039  0.2864  0.1495
  613MOL0     C84518   1.797  12.284   6.751  0.2937  0.2125 -0.6324
  613MOL0     C84519   1.896  12.399   6.771  0.4123  0.4274 -0.4614
  613MOL0     C84520   1.872  12.458   6.902 -0.4124  0.5439 -0.2484
  613MOL0     C84521   1.825  12.514   6.997  0.2675 -1.0340  0.1867
  613MOL0     C84522   1.972  11.821   6.406 -0.3802  0.2677 -0.1256
  613MOL0     C84523   1.981  11.686   6.414 -0.2408 -0.4757 -0.6457
  613MOL0     C84524   2.067  11.620   6.315  0.2359 -0.1570  0.3160
  613MOL0     H84525   1.802  11.202   6.561  0.1774 -1.3067  0.4346
  613MOL0     H84526   1.811  10.976   6.660  2.9168 -0.4046 -1.3391
  613MOL0     H84527   1.779  10.831   6.811 -1.1145 -0.5243  0.6896
  613MOL0     H84528   1.830  10.777   6.973  1.5110 -2.1071 -0.0803
  613MOL0     H84529   2.030  10.703   6.763  0.9189  0.9387 -0.0407
  613MOL0     H84530   1.944  10.592   6.864  0.1901  0.7544  0.5778
  613MOL0     H84531   1.730  10.605   6.737 -0.7780 -1.0946 -3.2067
  613MOL0     H84532   1.825  10.709   6.619  2.1800  1.3119 -0.0336
  613MOL0     H84533   1.959  10.513   6.577  0.1811 -0.6220 -0.8117
  613MOL0     H84534   1.871  10.412   6.702  2.1565  0.6953 -0.4880
  613MOL0     H84535   1.749  10.558   6.464 -0.4797  0.0253 -0.4423
  613MOL0     H84536   1.661  10.438   6.581  1.1787 -1.6700  0.4915
  613MOL0     H84537   1.879  10.378   6.378 -0.2214  2.2347  0.9480
  613MOL0     H84538   1.794  10.257   6.486  0.2953 -0.2405 -1.0253
  613MOL0     H84539   1.576  10.311   6.348 -0.3484  0.6236 -0.3634
  613MOL0     H84540   1.721  10.230   6.280 -1.5561 -0.3735 -1.8917
  613MOL0     H84541   1.601  10.415   6.147 -0.6099  0.3758 -0.2493
  613MOL0     H84542   1.682  10.524   6.254  0.7581  1.4743 -1.5973
  613MOL0     H84543   1.929  10.610   6.177 -1.4027  0.6500 -0.5671
  613MOL0     H84544   2.201  10.551   6.099 -0.6382  0.4636  0.0105
  613MOL0     H84545   2.126  10.640   5.986  0.4816  0.6137  0.5494
  613MOL0     H84546   2.341  10.503   5.922  1.0360 -2.1948  1.1402
  613MOL0     H84547   2.236  10.362   5.908  1.1708 -0.1330 -0.5997
  613MOL0     H84548   2.102  10.476   5.743 -0.5713 -0.4950  0.7239
  613MOL0     H84549   2.195  10.621   5.748  2.8890 -0.2953  0.2118
  613MOL0     H84550   2.406  10.510   5.687 -2.3235  1.7784  1.7879
  613MOL0     H84551   2.308  10.361   5.650 -1.3322 -0.7056  2.1123
  613MOL0     H84552   2.511  10.370   5.533 -3.8640 -1.4655  0.7494
  613MOL0     H84553   2.739  10.272   5.300  1.2633 -0.6342  1.8513
  613MOL0     H84554   2.717  10.329   5.470 -1.2631 -1.2039  0.6756
  613MOL0     H84555   2.776  10.436   5.342  1.7002 -1.2962  1.0303
  613MOL0     H84556   2.647  10.291   4.837 -3.2556 -0.0620 -0.6846
  613MOL0     H84557   2.702  10.299   4.593  0.9589  1.4371 -0.9270
  613MOL0     H84558   2.784  10.681   4.378 -0.7709  1.6349  1.2608
  613MOL0     H84559   2.901  10.654   4.504  1.5114  0.9178 -0.8681
  613MOL0     H84560   3.024  10.488   4.353 -1.1781 -0.6005  0.7159
  613MOL0     H84561   2.901  10.498   4.231 -2.4197 -2.1932  1.3806
  613MOL0     H84562   3.108  10.684   4.358  1.8312  2.5666 -0.4711
  613MOL0     H84563   2.986  10.772   4.269 -0.8588  0.2812 -0.9722
  613MOL0     H84564   3.167  10.559   4.157  2.0341  1.0303 -0.0642
  613MOL0     H84565   3.207  10.723   4.139  0.5796 -0.0869 -3.1469
  613MOL0     H84566   3.121  10.667   3.946 -0.1489  2.2515  0.7640
  613MOL0     H84567   2.958  10.606   4.009 -2.9531  2.9838 -0.9694
  613MOL0     H84568   2.899  10.830   4.078 -1.8791  1.6465 -0.7324
  613MOL0     H84569   2.936  10.808   3.896  0.9879  0.6051 -0.0954
  613MOL0     H84570   3.124  10.952   3.911  0.6492  1.1020 -0.2759
  613MOL0     H84571   3.157  10.896   4.080  0.9128 -2.8888 -2.1483
  613MOL0     H84572   2.976  11.033   4.171 -2.3752  0.0243 -1.7717
  613MOL0     H84573   2.943  11.094   4.014 -2.0116 -0.9067  0.6213
  613MOL0     H84574   2.655  10.726   4.590 -3.6080  0.3792 -1.2013
  613MOL0     H84575   2.586  10.723   4.815 -2.3783 -0.9932  0.0402
  613MOL0     H84576   2.358  10.544   5.099  3.5490 -0.0503 -1.7349
  613MOL0     H84577   2.215  10.557   5.286 -1.2641  0.0864  3.0395
  613MOL0     H84578   2.067  11.093   6.966  1.0023 -0.0896 -0.6546
  613MOL0     H84579   2.077  11.344   6.863  1.6704  1.7027 -3.4461
  613MOL0     H84580   1.793  11.649   6.696 -2.5716  2.2882 -0.2524
  613MOL0     H84581   1.797  11.897   6.680  0.1383 -1.5386  0.8538
  613MOL0     H84582   1.964  12.076   6.686  1.1221 -1.0752 -0.5639
  613MOL0     H84583   2.008  12.202   6.578 -0.8912 -1.3844 -6.1209
  613MOL0     H84584   1.714  12.131   6.646  0.8168 -1.0952 -1.4358
  613MOL0     H84585   1.777  12.260   6.536  0.6783  2.1772  1.2157
  613MOL0     H84586   1.700  12.331   6.766  0.9377  1.0868  1.0058
  613MOL0     H84587   1.818  12.219   6.837  2.1419 -0.8307 -1.7836
  613MOL0     H84588   1.893  12.475   6.693 -0.8334  2.0163  1.0398
  613MOL0     H84589   1.992  12.347   6.773 -0.3071 -0.9514  1.7594
  613MOL0     H84590   1.782  12.546   7.089  2.6026  0.7453  0.7597
  613MOL0     H84591   2.017  11.866   6.318 -1.6351 -1.1873 -1.5701
  613MOL0     H84592   2.131  11.544   6.360  0.7227 -0.0222 -0.1494
  613MOL0     H84593   2.011  11.568   6.237  2.0279 -2.1705  0.2821
  613MOL0     H84594   2.132  11.697   6.272  0.5033 -1.7631 -2.3542
  614MOL0     O84595   7.839   7.341   1.161  0.1946  0.0056  0.3642
  614MOL0     C84596   7.828   7.297   1.048 -0.6937  1.0948 -0.5134
  614MOL0     O84597   7.843   7.166   1.013 -0.8161  0.8146 -0.4379
  614MOL0     C84598   7.891   7.078   1.110  1.1392 -0.3062  0.4133
  614MOL0     C84599   8.019   7.072   1.135  0.1131 -1.1901 -0.7117
  614MOL0     C84600   8.066   7.012   1.256  0.2261  0.4733  0.4371
  614MOL0     C84601   7.981   6.933   1.340 -0.2251  0.5122  0.1705
  614MOL0     O84602   8.014   6.865   1.455  0.2061 -0.7265  0.1406
  614MOL0     C84603   8.137   6.901   1.518  0.8551 -0.5947 -0.0521
  614MOL0     C84604   8.128   6.843   1.659 -0.3138 -0.6863 -0.3501
  614MOL0     C84605   8.231   6.914   1.758 -0.6989  0.3255 -0.0650
  614MOL0     C84606   8.219   6.855   1.895  0.3250  0.5953 -0.4833
  614MOL0     C84607   8.339   6.865   1.984  1.1912 -0.5811 -0.2418
  614MOL0     C84608   8.442   6.759   1.939 -0.4528  0.2300 -0.8724
  614MOL0     C84609   8.392   6.612   1.963 -0.1725 -0.4887 -0.0958
  614MOL0     C84610   8.417   6.534   1.832  0.2863  0.9013 -0.8215
  614MOL0     N84611   8.443   6.393   1.862 -0.0358 -1.3822  0.0398
  614MOL0     C84612   8.561   6.348   1.904  0.1268 -0.0417 -0.5156
  614MOL0     C84613   8.544   6.213   1.885  0.8604 -0.0208 -0.9656
  614MOL0     C84614   8.646   6.107   1.927 -0.4816  1.0790  0.4403
  614MOL0     C84615   8.607   5.972   1.979  0.7555  0.3141 -0.3346
  614MOL0     C84616   8.552   5.974   2.125 -0.8063  0.1735 -0.0982
  614MOL0     C84617   8.528   5.828   2.175 -0.4540 -0.8557 -0.6073
  614MOL0     O84618   8.520   5.836   2.315 -0.4152  0.1989 -0.6239
  614MOL0     C84619   8.633   5.860   2.398  0.2146 -0.2679 -0.2462
  614MOL0     C84620   8.609   5.908   2.525 -0.0471  0.1821 -0.0644
  614MOL0     C84621   8.708   5.937   2.615  0.6321  0.0555 -0.6463
  614MOL0     C84622   8.664   5.992   2.748 -0.4648  0.1744 -0.7999
  614MOL0     C84623   8.839   5.912   2.579  0.3450 -0.1406  0.2986
  614MOL0     C84624   8.948   5.932   2.674  0.9127 -0.5655  0.2829
  614MOL0     O84625   9.062   5.881   2.613  0.8480 -0.3578 -0.8454
  614MOL0     C84626   9.183   5.883   2.677  0.2347  1.1811  0.0134
  614MOL0     C84627   9.288   5.821   2.596  0.8630 -0.0572 -0.5240
  614MOL0     C84628   9.426   5.809   2.637  0.2289  0.1598  0.4409
  614MOL0     C84629   9.462   5.866   2.754 -0.1042 -0.1897 -0.3722
  614MOL0     O84630   9.593   5.882   2.791 -0.0723 -0.4425 -0.0860
  614MOL0     C84631   9.632   5.889   2.929  0.2672 -0.3865  0.0208
  614MOL0     C84632   9.606   5.754   3.002 -0.0167  0.6511  0.1148
  614MOL0     C84633   9.689   5.751   3.132 -0.2854 -0.3366  0.5032
  614MOL0     C84634   9.651   5.859   3.235 -0.0102  0.4116  0.5360
  614MOL0     C84635   9.752   5.886   3.344 -0.4514  0.4775  0.1155
  614MOL0     C84636   9.880   5.950   3.307  0.2093  0.3743 -0.3630
  614MOL0     C84637   9.950   5.976   3.437 -0.8702  0.0123 -0.4554
  614MOL0     C84638  10.091   6.038   3.429 -0.0637  0.1043  0.0939
  614MOL0    Cl84639  10.104   6.160   3.313 -0.2103 -0.3510 -0.2189
  614MOL0     C84640   9.360   5.917   2.837 -0.7985  1.1312 -0.3606
  614MOL0     C84641   9.227   5.930   2.798 -0.0311 -0.5415 -0.6512
  614MOL0     O84642   8.939   5.987   2.784  0.1841 -1.0174  0.1131
  614MOL0     C84643   8.865   5.863   2.444  0.3890  0.2972  0.5165
  614MOL0     C84644   8.763   5.849   2.352  0.2032 -0.0455 -0.1604
  614MOL0     N84645   8.419   6.180   1.836  0.8690 -0.1461  0.4639
  614MOL0     N84646   8.358   6.293   1.820 -0.0776 -0.2438 -0.5701
  614MOL0     C84647   7.850   6.923   1.300  0.5712  0.1298  0.4942
  614MOL0     C84648   7.804   6.991   1.186 -0.6464  0.7447  0.7481
  614MOL0     C84649   7.824   7.376   0.919  0.7465 -0.1251 -0.1560
  614MOL0     C84650   7.869   7.309   0.805  0.4890  0.5774 -0.6623
  614MOL0     C84651   7.850   7.363   0.685 -0.6224  0.4358  0.2604
  614MOL0     C84652   7.818   7.495   0.670  0.2702  0.9103 -0.5469
  614MOL0     O84653   7.816   7.570   0.556  0.0794  0.2636 -0.4249
  614MOL0     C84654   7.819   7.495   0.428  0.3183  0.7057  0.1856
  614MOL0     C84655   7.687   7.424   0.396  0.0269  0.7652  0.0844
  614MOL0     C84656   7.590   7.532   0.348 -0.1203  0.0985 -0.3966
  614MOL0     C84657   7.463   7.456   0.322  1.0169  0.7054  0.9299
  614MOL0     C84658   7.358   7.556   0.306 -0.3597 -0.0147  0.1693
  614MOL0     C84659   7.278   7.645   0.294  0.8523  0.1563  0.9309
  614MOL0     C84660   7.790   7.571   0.787  0.1359  0.5783  0.1635
  614MOL0     C84661   7.777   7.511   0.911 -0.4048 -0.4817  0.3606
  614MOL0     C84662   7.705   7.590   1.024  0.5303 -0.4677 -0.1398
  614MOL0     H84663   8.077   7.143   1.076 -2.3187  0.3188 -1.4299
  614MOL0     H84664   8.173   7.010   1.278  0.5276 -0.1220 -0.9802
  614MOL0     H84665   8.147   7.009   1.533 -0.5748 -0.1449 -1.9776
  614MOL0     H84666   8.223   6.862   1.462  0.6446 -1.6097  0.3144
  614MOL0     H84667   8.026   6.865   1.692  0.4949  2.4810  0.3811
  614MOL0     H84668   8.155   6.737   1.669 -1.0040 -0.6372  3.8589
  614MOL0     H84669   8.327   6.881   1.717 -0.3529  1.1912  0.0360
  614MOL0     H84670   8.219   7.023   1.761  1.5558  0.6642 -1.3511
  614MOL0     H84671   8.131   6.902   1.941 -1.2644 -1.7736 -0.8752
  614MOL0     H84672   8.186   6.751   1.888  0.6082  0.5455 -1.2131
  614MOL0     H84673   8.307   6.835   2.085  1.9559 -0.7554 -0.0430
  614MOL0     H84674   8.380   6.966   1.989  1.9736 -0.9460  1.4218
  614MOL0     H84675   8.476   6.771   1.836  0.2318 -2.2668 -1.0106
  614MOL0     H84676   8.542   6.763   1.983  0.1488 -0.6572 -2.1076
  614MOL0     H84677   8.288   6.598   1.996  0.2891 -2.2771  0.7202
  614MOL0     H84678   8.450   6.566   2.044 -0.9121  0.2866  0.9090
  614MOL0     H84679   8.328   6.545   1.770  0.1635  0.9894 -0.6312
  614MOL0     H84680   8.498   6.576   1.772  1.1188  0.2506 -0.1893
  614MOL0     H84681   8.647   6.401   1.943  2.1294 -1.9321 -2.0757
  614MOL0     H84682   8.719   6.150   1.996 -0.2248 -0.6266  1.2892
  614MOL0     H84683   8.691   6.078   1.832 -1.6822 -3.9670  1.1496
  614MOL0     H84684   8.527   5.924   1.920 -0.6535  0.4573  1.3540
  614MOL0     H84685   8.698   5.912   1.982  0.0907 -0.8128 -1.5099
  614MOL0     H84686   8.631   6.026   2.180  0.8966 -0.2922 -1.9992
  614MOL0     H84687   8.454   6.021   2.129 -0.2096  1.6249 -1.6440
  614MOL0     H84688   8.434   5.790   2.135  0.2018 -1.3013 -1.7686
  614MOL0     H84689   8.610   5.761   2.147 -0.4291 -0.0469 -2.5994
  614MOL0     H84690   8.505   5.922   2.554 -1.0183 -0.0205 -3.1261
  614MOL0     H84691   8.699   5.928   2.829  0.8372  2.4404  0.5089
  614MOL0     H84692   8.555   6.001   2.746 -0.7315 -2.3357 -1.2244
  614MOL0     H84693   8.698   6.095   2.762  1.4000 -0.4989 -0.0822
  614MOL0     H84694   9.252   5.784   2.501  0.9774 -0.3742 -0.4472
  614MOL0     H84695   9.511   5.770   2.582  0.0990 -3.1215  2.2540
  614MOL0     H84696   9.739   5.911   2.936  0.7729 -3.0452  2.1043
  614MOL0     H84697   9.584   5.973   2.980  0.8880 -0.4498  0.7189
  614MOL0     H84698   9.503   5.726   3.028  0.3668  0.5996  1.6809
  614MOL0     H84699   9.656   5.672   2.949  1.5485  0.9695  1.0567
  614MOL0     H84700   9.786   5.780   3.090 -0.7988  0.9729  0.1678
  614MOL0     H84701   9.680   5.649   3.171 -2.2453 -0.2507  0.3798
  614MOL0     H84702   9.558   5.831   3.286 -0.8514  1.0690 -0.5709
  614MOL0     H84703   9.627   5.953   3.183  0.9417  0.8626  0.8937
  614MOL0     H84704   9.693   5.953   3.407 -0.9338  1.1229 -0.9936
  614MOL0     H84705   9.771   5.789   3.392 -1.0385  0.6647  0.7376
  614MOL0     H84706   9.862   6.043   3.254  1.7974  2.0582  1.8347
  614MOL0     H84707   9.939   5.877   3.251 -2.0522 -0.5233 -1.6845
  614MOL0     H84708   9.964   5.882   3.492  0.3164 -0.9057 -2.2237
  614MOL0     H84709   9.897   6.051   3.497  2.3458  0.0988  2.6198
  614MOL0     H84710  10.168   5.965   3.403  2.3663  1.7055  2.2722
  614MOL0     H84711  10.127   6.073   3.527  2.0375 -0.7307 -0.3409
  614MOL0     H84712   9.384   5.943   2.940 -1.3275  1.4215 -0.3037
  614MOL0     H84713   9.150   5.960   2.868 -2.5100 -1.8213 -2.6515
  614MOL0     H84714   8.960   5.839   2.398 -0.9698  0.3675 -2.6127
  614MOL0     H84715   8.785   5.819   2.250 -1.1385  0.7668 -0.7198
  614MOL0     H84716   7.795   6.856   1.364 -2.0948  0.9932 -0.7747
  614MOL0     H84717   7.700   6.985   1.157  0.0846  1.0532 -2.2763
  614MOL0     H84718   7.922   7.215   0.817 -0.6445  0.2434  2.6697
  614MOL0     H84719   7.882   7.308   0.597 -3.3014 -1.1375  0.1721
  614MOL0     H84720   7.836   7.572   0.353 -2.8772  1.1084 -0.2931
  614MOL0     H84721   7.902   7.425   0.419 -0.2300  0.2626 -2.2848
  614MOL0     H84722   7.656   7.374   0.488  3.6284  1.4011  1.8326
  614MOL0     H84723   7.711   7.353   0.316 -0.6875  1.4315 -0.7465
  614MOL0     H84724   7.582   7.605   0.430  1.8290  0.1794 -0.2219
  614MOL0     H84725   7.617   7.581   0.254 -0.4492  0.3169 -0.3804
  614MOL0     H84726   7.441   7.387   0.404 -1.3196  2.7520  2.1469
  614MOL0     H84727   7.485   7.399   0.231  0.3239 -0.8807  1.7273
  614MOL0     H84728   7.227   7.734   0.263  0.7323 -0.9755 -2.5000
  614MOL0     H84729   7.767   7.677   0.779 -1.1172  0.3297  0.2415
  614MOL0     H84730   7.761   7.678   1.057  0.4080  0.1205 -1.4601
  614MOL0     H84731   7.604   7.616   0.990  0.2586 -0.8564  0.3521
  614MOL0     H84732   7.692   7.527   1.113 -2.4800 -0.2559 -0.3325
  615MOL0     O84733   6.869   2.020   2.843 -0.9835  0.0966  0.3360
  615MOL0     C84734   6.910   1.981   2.737 -0.0485  0.6359  0.0147
  615MOL0     O84735   7.027   1.912   2.719  0.4696  0.3400  0.1754
  615MOL0     C84736   7.111   1.886   2.828  0.3632 -0.5295 -0.5060
  615MOL0     C84737   7.250   1.883   2.811  0.4737  0.0987  0.7934
  615MOL0     C84738   7.342   1.850   2.911 -0.2061  0.3051  0.3967
  615MOL0     C84739   7.296   1.811   3.032  0.0098 -0.3236 -0.9923
  615MOL0     O84740   7.400   1.787   3.125  0.2596 -0.0375  0.2408
  615MOL0     C84741   7.355   1.707   3.240  0.6173 -0.0227 -0.0667
  615MOL0     C84742   7.469   1.725   3.343 -0.7883 -0.5856 -0.2402
  615MOL0     C84743   7.606   1.658   3.313  0.7053 -1.5316 -0.4526
  615MOL0     C84744   7.728   1.748   3.339 -0.8677  0.8701 -0.2146
  615MOL0     C84745   7.871   1.690   3.370  0.3464 -0.3724  0.3986
  615MOL0     C84746   7.878   1.626   3.503 -0.0162  0.2032 -0.2626
  615MOL0     C84747   8.023   1.610   3.535 -0.2229  0.1548 -0.0380
  615MOL0     C84748   8.042   1.520   3.650 -0.6260 -0.0390 -0.1261
  615MOL0     N84749   7.993   1.576   3.776  0.4654 -0.0541  0.8079
  615MOL0     C84750   7.999   1.699   3.834 -0.3222 -0.7388  0.3941
  615MOL0     C84751   7.959   1.696   3.959  0.2843  0.4656 -0.3992
  615MOL0     C84752   7.981   1.798   4.064  0.1391  0.5299  0.3924
  615MOL0     C84753   8.116   1.793   4.134  0.1823 -0.2583 -0.4932
  615MOL0     C84754   8.132   1.903   4.232 -0.0582 -0.3192 -1.1600
  615MOL0     C84755   8.127   2.048   4.171 -0.4000 -0.1970  0.1106
  615MOL0     O84756   8.209   2.070   4.061  0.0310  0.4840  0.4217
  615MOL0     C84757   8.341   2.090   4.087  0.5845  0.5180 -0.2689
  615MOL0     C84758   8.437   1.984   4.078  0.4928 -0.3529 -0.3049
  615MOL0     C84759   8.560   2.003   4.124  0.1342  0.9361 -0.5401
  615MOL0     C84760   8.655   1.890   4.112  0.6163  0.4841 -0.2769
  615MOL0     C84761   8.596   2.132   4.171 -0.0199 -0.4678 -0.3433
  615MOL0     C84762   8.735   2.158   4.222 -0.2695 -0.4516  0.1693
  615MOL0     O84763   8.758   2.296   4.247  0.2766 -0.3097  0.8811
  615MOL0     C84764   8.875   2.333   4.296  0.0247  0.1882 -0.0950
  615MOL0     C84765   8.999   2.301   4.246  0.5481 -0.0681  0.3905
  615MOL0     C84766   9.117   2.343   4.294  0.2970 -1.0853 -0.2684
  615MOL0     C84767   9.116   2.409   4.422  0.0736 -0.4396  0.1822
  615MOL0     O84768   9.231   2.437   4.495  0.0257 -0.1246 -0.0401
  615MOL0     C84769   9.304   2.320   4.521  0.0385  0.6515 -0.4162
  615MOL0     C84770   9.348   2.333   4.671  1.1245 -0.3210  0.6364
  615MOL0     C84771   9.457   2.225   4.696  0.3838  0.9160 -0.2701
  615MOL0     C84772   9.589   2.275   4.642 -0.0645 -0.1589  0.3744
  615MOL0     C84773   9.710   2.203   4.699 -0.1600 -0.6968 -0.8280
  615MOL0     C84774   9.836   2.268   4.645  0.9121 -0.4661  1.0322
  615MOL0     C84775   9.950   2.208   4.721 -0.1220 -0.4065  0.5289
  615MOL0     C84776  10.083   2.266   4.666  0.3062 -0.8279 -0.5940
  615MOL0    Cl84777  10.203   2.164   4.734  0.1597  0.2229 -0.1976
  615MOL0     C84778   8.993   2.439   4.482  0.1309  0.3214 -0.4891
  615MOL0     C84779   8.875   2.404   4.421  0.5462  1.1226 -0.0396
  615MOL0     O84780   8.824   2.070   4.247  0.3056 -0.3503  0.7891
  615MOL0     C84781   8.510   2.241   4.164  0.0640 -1.2398 -0.2623
  615MOL0     C84782   8.382   2.217   4.113 -0.1992  0.4665  0.4218
  615MOL0     N84783   7.905   1.568   3.970  0.2979 -0.1757  0.2783
  615MOL0     N84784   7.914   1.507   3.856 -0.2562 -0.1091 -0.0782
  615MOL0     C84785   7.158   1.808   3.053 -0.1977 -0.1145  0.1535
  615MOL0     C84786   7.066   1.839   2.948  0.6955 -0.2202 -0.0227
  615MOL0     C84787   6.816   1.989   2.623 -0.7928 -0.4402 -0.1686
  615MOL0     C84788   6.844   1.899   2.512  0.4908  0.4857 -0.1281
  615MOL0     C84789   6.761   1.888   2.400  0.1520 -0.2957 -0.6189
  615MOL0     C84790   6.659   1.981   2.383 -0.0519  0.0816 -0.1828
  615MOL0     O84791   6.583   1.999   2.266  0.8013  0.2842  0.0491
  615MOL0     C84792   6.608   1.907   2.163 -0.1482  0.1974 -0.3036
  615MOL0     C84793   6.511   1.911   2.043  0.3092 -0.2960 -0.0777
  615MOL0     C84794   6.353   1.920   2.077 -1.4120  0.1452 -0.1278
  615MOL0     C84795   6.316   1.789   2.139  0.3733 -0.3770  0.0530
  615MOL0     C84796   6.175   1.785   2.163  0.4099  0.0215 -0.6615
  615MOL0     C84797   6.058   1.769   2.179  0.8040  0.0990 -0.2064
  615MOL0     C84798   6.634   2.077   2.482 -0.2543 -1.1162  0.3285
  615MOL0     C84799   6.707   2.081   2.600 -0.2644  0.1720  0.0427
  615MOL0     C84800   6.690   2.192   2.707  0.7110 -0.6096  0.8551
  615MOL0     H84801   7.295   1.901   2.713  1.2917 -0.4316  1.0667
  615MOL0     H84802   7.448   1.869   2.894 -0.7247  1.6929 -1.6929
  615MOL0     H84803   7.323   1.605   3.218 -1.3242  0.7451 -0.9827
  615MOL0     H84804   7.270   1.757   3.287  1.6739  1.8994 -0.1092
  615MOL0     H84805   7.482   1.832   3.359 -1.5221 -0.1564 -2.1968
  615MOL0     H84806   7.435   1.680   3.437  1.8097  0.2263  1.1807
  615MOL0     H84807   7.618   1.565   3.369  0.9279 -0.6321  1.0506
  615MOL0     H84808   7.618   1.634   3.206 -0.2968 -3.2802 -0.2027
  615MOL0     H84809   7.731   1.809   3.248  0.0128 -0.7484 -1.3245
  615MOL0     H84810   7.701   1.807   3.427 -0.5730  0.8488 -0.1069
  615MOL0     H84811   7.946   1.768   3.365  1.5945 -1.4890  0.9655
  615MOL0     H84812   7.891   1.622   3.286  0.3388  0.8580 -0.6257
  615MOL0     H84813   7.828   1.691   3.576  2.8147  2.9980 -0.6417
  615MOL0     H84814   7.833   1.526   3.496 -1.1286  0.5854  0.8790
  615MOL0     H84815   8.065   1.710   3.551 -1.3944  1.1597 -2.6177
  615MOL0     H84816   8.088   1.575   3.454  3.7692 -0.0666  2.9589
  615MOL0     H84817   7.997   1.423   3.628 -2.5332  0.4836  1.1791
  615MOL0     H84818   8.149   1.506   3.665 -0.1704  3.5942  1.0159
  615MOL0     H84819   8.034   1.789   3.784  0.9175 -2.3606 -1.8322
  615MOL0     H84820   7.907   1.786   4.144  1.4826  2.1624  1.9712
  615MOL0     H84821   7.966   1.896   4.018 -0.3251  1.0741  1.6437
  615MOL0     H84822   8.116   1.704   4.198  0.8482  0.3057  0.3069
  615MOL0     H84823   8.201   1.782   4.067  1.2713  1.7398  0.4653
  615MOL0     H84824   8.067   1.910   4.319 -0.2626  0.6259 -1.3784
  615MOL0     H84825   8.233   1.883   4.271 -1.0053 -0.2561  1.4977
  615MOL0     H84826   8.022   2.059   4.143 -0.3597 -1.9732 -0.8881
  615MOL0     H84827   8.150   2.121   4.250 -4.2720  1.1088  0.2441
  615MOL0     H84828   8.410   1.889   4.033 -2.4678 -0.9158  2.2888
  615MOL0     H84829   8.749   1.914   4.062  1.0248 -0.9106 -0.2314
  615MOL0     H84830   8.607   1.810   4.055 -1.4757  0.2109  1.7326
  615MOL0     H84831   8.683   1.862   4.214 -0.3826  2.8007  0.6940
  615MOL0     H84832   9.006   2.250   4.150  2.4236  1.0411 -0.1046
  615MOL0     H84833   9.215   2.318   4.253  1.2504 -2.0754  2.3463
  615MOL0     H84834   9.247   2.230   4.497 -0.5718  1.5182 -2.3864
  615MOL0     H84835   9.393   2.309   4.460 -0.3269 -0.8100 -0.7236
  615MOL0     H84836   9.388   2.432   4.696 -1.1113  0.5515  0.9773
  615MOL0     H84837   9.261   2.322   4.736 -0.8869 -0.2819 -1.8710
  615MOL0     H84838   9.426   2.136   4.640  1.4713 -1.1584  2.2674
  615MOL0     H84839   9.467   2.189   4.798  0.8814  0.4906 -0.4650
  615MOL0     H84840   9.602   2.380   4.671 -1.1317  0.7850 -2.2390
  615MOL0     H84841   9.585   2.294   4.534  1.2733 -0.0104  0.3258
  615MOL0     H84842   9.706   2.212   4.808 -2.5304  1.1799 -0.9958
  615MOL0     H84843   9.717   2.099   4.667  0.9996 -1.5271  1.8358
  615MOL0     H84844   9.833   2.377   4.658 -0.5016 -0.0989 -1.5970
  615MOL0     H84845   9.846   2.250   4.538 -1.8289 -0.5319  0.7003
  615MOL0     H84846   9.939   2.100   4.708  0.3051 -0.4586  0.5959
  615MOL0     H84847   9.933   2.235   4.826 -5.2080 -0.0868 -0.1373
  615MOL0     H84848  10.093   2.371   4.693 -1.0356 -0.5347 -1.1673
  615MOL0     H84849  10.085   2.256   4.557 -1.3419 -1.2456 -0.6210
  615MOL0     H84850   8.988   2.472   4.585 -1.4580 -1.7619  0.1696
  615MOL0     H84851   8.786   2.431   4.478  0.0418  0.5159 -0.5164
  615MOL0     H84852   8.535   2.343   4.192 -1.4295 -0.2767 -2.2539
  615MOL0     H84853   8.309   2.297   4.120  1.0724  1.5695  1.3556
  615MOL0     H84854   7.118   1.766   3.145 -1.3574 -0.7748 -0.6235
  615MOL0     H84855   6.959   1.835   2.964  0.6886 -1.9333 -0.3208
  615MOL0     H84856   6.927   1.829   2.515  0.2211  0.1765  0.1589
  615MOL0     H84857   6.798   1.819   2.326  1.2980  0.9486 -1.2519
  615MOL0     H84858   6.709   1.918   2.123 -0.1166  3.9741  0.4689
  615MOL0     H84859   6.592   1.807   2.206  0.9984 -0.1308 -0.6190
  615MOL0     H84860   6.516   1.826   1.974 -2.0669 -1.0643  0.5683
  615MOL0     H84861   6.542   1.999   1.986 -1.1813 -0.0787 -0.6078
  615MOL0     H84862   6.332   2.000   2.149  0.4658  0.7903 -0.2219
  615MOL0     H84863   6.295   1.940   1.986  1.3503  3.4559 -1.4034
  615MOL0     H84864   6.354   1.785   2.242 -0.1262  0.8827  0.3011
  615MOL0     H84865   6.324   1.703   2.072 -1.2670  0.2324 -0.9973
  615MOL0     H84866   5.959   1.734   2.198  0.2051  1.4070 -0.8028
  615MOL0     H84867   6.568   2.160   2.458  3.4627  1.9404 -0.3823
  615MOL0     H84868   6.671   2.156   2.808 -2.2011  2.6021  1.6503
  615MOL0     H84869   6.772   2.264   2.698 -1.4481  2.0075  0.9202
  615MOL0     H84870   6.599   2.244   2.675  0.2228 -1.1639  1.3280
  616MOL0     O84871   8.365   4.688   6.270  0.0898  0.2252  0.0833
  616MOL0     C84872   8.293   4.629   6.190 -0.5490 -0.8991  0.7243
  616MOL0     O84873   8.336   4.542   6.096 -0.2177  0.4294  0.2767
  616MOL0     C84874   8.467   4.515   6.081  0.2332  0.0153 -0.2772
  616MOL0     C84875   8.504   4.375   6.080 -0.3183 -0.2634 -0.7104
  616MOL0     C84876   8.639   4.338   6.051 -0.2219  0.9359  0.5226
  616MOL0     C84877   8.743   4.426   6.035  1.0573 -0.2066 -0.8142
  616MOL0     O84878   8.875   4.396   6.009  0.4568 -0.3069  0.6712
  616MOL0     C84879   8.920   4.260   5.984 -0.3127  0.1972  0.6329
  616MOL0     C84880   9.079   4.267   5.982  0.7527 -0.4811  0.3345
  616MOL0     C84881   9.140   4.137   5.934  0.3689  0.7112 -0.8588
  616MOL0     C84882   9.295   4.172   5.914 -0.5141 -0.2005  0.1227
  616MOL0     C84883   9.357   4.047   5.865 -0.2346 -0.1134 -0.5119
  616MOL0     C84884   9.503   4.052   5.822 -0.0886  0.3050  0.5362
  616MOL0     C84885   9.579   3.920   5.810 -0.0635  0.0575 -0.2812
  616MOL0     C84886   9.523   3.805   5.724  0.0917  0.4895 -0.2351
  616MOL0     N84887   9.614   3.699   5.710  0.1606 -0.5552 -0.3911
  616MOL0     C84888   9.725   3.689   5.627  0.1908 -0.1073  0.2908
  616MOL0     C84889   9.771   3.565   5.652  0.2784  1.0631  1.0507
  616MOL0     C84890   9.890   3.507   5.579 -0.0474  0.6126 -0.3791
  616MOL0     C84891   9.871   3.466   5.434 -0.1042 -0.0874  0.4188
  616MOL0     C84892  10.005   3.433   5.362 -0.4734 -0.7484 -0.2187
  616MOL0     C84893  10.048   3.289   5.406 -0.7984 -0.0197  0.0161
  616MOL0     O84894  10.176   3.261   5.347  0.0815 -0.0812 -0.0667
  616MOL0     C84895  10.292   3.314   5.398 -0.1839  0.1934 -0.0720
  616MOL0     C84896  10.394   3.311   5.313 -0.2028  0.5357  0.4842
  616MOL0     C84897  10.517   3.376   5.340  0.9382 -0.1609  0.4406
  616MOL0     C84898  10.598   3.388   5.216 -0.1729 -0.1109  0.1814
  616MOL0     C84899  10.536   3.437   5.465 -0.4574 -1.0877 -0.5112
  616MOL0     C84900  10.654   3.510   5.505 -0.4386  0.1216  0.0648
  616MOL0     O84901  10.752   3.527   5.405  0.5928 -0.0201  0.0442
  616MOL0     C84902  10.867   3.587   5.437  0.1274  0.1209  0.3114
  616MOL0     C84903  10.907   3.700   5.367 -0.5066  0.5829 -0.2035
  616MOL0     C84904  11.017   3.767   5.412  0.0653  0.3020  0.3317
  616MOL0     C84905  11.103   3.724   5.515 -0.4484  0.6182  0.0935
  616MOL0     O84906  11.221   3.786   5.549  0.2237 -0.0579  0.6536
  616MOL0     C84907  11.328   3.744   5.467 -0.3658  0.0861 -0.0635
  616MOL0     C84908  11.447   3.838   5.473  0.3506  0.5034 -0.0918
  616MOL0     C84909  11.573   3.799   5.395  0.6594  0.3215  0.2235
  616MOL0     C84910  11.585   3.650   5.364  0.0452 -0.2830 -0.5370
  616MOL0     C84911  11.725   3.622   5.304 -0.5973 -0.7393 -0.0860
  616MOL0     C84912  11.771   3.479   5.309  0.1178  0.1976 -0.2696
  616MOL0     C84913  11.922   3.465   5.272  0.1621 -1.1568  0.2887
  616MOL0     C84914  11.979   3.344   5.340 -0.3232  0.7371 -0.0422
  616MOL0    Cl84915  12.141   3.310   5.275 -0.1324 -0.0809  0.4444
  616MOL0     C84916  11.068   3.611   5.590 -0.8051  0.6283  0.2914
  616MOL0     C84917  10.949   3.545   5.550 -0.3851  0.0488  0.0287
  616MOL0     O84918  10.662   3.547   5.623  0.1592 -0.3673  0.2627
  616MOL0     C84919  10.423   3.441   5.552 -0.3026 -0.4218 -0.3878
  616MOL0     C84920  10.302   3.375   5.522  0.5659 -0.2674  0.7183
  616MOL0     N84921   9.691   3.509   5.750  0.0413  0.3789 -0.0683
  616MOL0     N84922   9.596   3.586   5.784  0.2584  0.0812  0.1193
  616MOL0     C84923   8.707   4.559   6.043 -0.3850 -0.1480 -0.0946
  616MOL0     C84924   8.578   4.607   6.076  0.2019 -0.5421 -0.3502
  616MOL0     C84925   8.144   4.643   6.225  0.1577  0.2735 -1.4909
  616MOL0     C84926   8.106   4.731   6.334  0.0912 -0.1440  0.1601
  616MOL0     C84927   7.973   4.744   6.365  1.2677  0.3169 -0.2502
  616MOL0     C84928   7.878   4.665   6.299 -0.5104  0.3257 -0.2722
  616MOL0     O84929   7.745   4.683   6.334 -0.2602  0.4175  0.2239
  616MOL0     C84930   7.645   4.589   6.296 -0.1141 -0.2600  0.6285
  616MOL0     C84931   7.510   4.630   6.349 -0.3817  0.3191  1.0403
  616MOL0     C84932   7.505   4.645   6.494 -0.0603 -1.0275 -0.7104
  616MOL0     C84933   7.371   4.690   6.545  0.1634 -0.1244  0.1796
  616MOL0     C84934   7.270   4.595   6.529  0.5788 -0.0030  0.5384
  616MOL0     C84935   7.185   4.509   6.523 -0.8237  0.4183 -0.0761
  616MOL0     C84936   7.918   4.576   6.204  0.5082  0.1104 -0.4536
  616MOL0     C84937   8.052   4.555   6.170 -0.3687  0.5799 -0.8008
  616MOL0     C84938   8.085   4.448   6.062 -0.0878 -0.7339  0.2692
  616MOL0     H84939   8.436   4.292   6.088  0.2670 -0.8221 -1.3069
  616MOL0     H84940   8.664   4.234   6.034 -3.1315  0.3136 -0.5213
  616MOL0     H84941   8.891   4.230   5.883  1.7079  2.6940 -0.8313
  616MOL0     H84942   8.884   4.190   6.060 -1.0099  0.0372  0.1630
  616MOL0     H84943   9.120   4.350   5.925  0.7330  0.4724  1.6562
  616MOL0     H84944   9.114   4.286   6.084 -1.5460  1.2362  0.8952
  616MOL0     H84945   9.127   4.065   6.016  1.9680  0.8972 -0.4111
  616MOL0     H84946   9.093   4.093   5.846  2.0754 -0.1309 -1.3853
  616MOL0     H84947   9.303   4.254   5.842 -1.0356 -0.2738 -0.0273
  616MOL0     H84948   9.343   4.191   6.010  1.7181 -3.1951 -0.2714
  616MOL0     H84949   9.298   4.022   5.776 -0.1097  0.0803 -0.6494
  616MOL0     H84950   9.344   3.979   5.950 -0.7463  1.1361  0.4380
  616MOL0     H84951   9.526   4.099   5.726  1.0130 -0.6936  0.2880
  616MOL0     H84952   9.549   4.116   5.897  0.2113 -0.9850  1.4817
  616MOL0     H84953   9.601   3.873   5.906  1.3943 -1.1904 -1.1996
  616MOL0     H84954   9.679   3.946   5.776  1.6279 -1.4454  3.0984
  616MOL0     H84955   9.425   3.767   5.756 -1.0698  1.2258 -2.7199
  616MOL0     H84956   9.505   3.845   5.624  0.9324 -0.3242 -0.7272
  616MOL0     H84957   9.773   3.768   5.569  0.2919 -0.3634  0.0238
  616MOL0     H84958   9.917   3.415   5.632  0.8712  0.3627 -1.2487
  616MOL0     H84959   9.974   3.576   5.587  2.5796 -2.4933  1.5671
  616MOL0     H84960   9.817   3.371   5.436  2.7474 -1.8198  1.2491
  616MOL0     H84961   9.810   3.533   5.372  0.9804 -1.4630 -2.3067
  616MOL0     H84962   9.977   3.435   5.256  1.0228  1.9230 -0.6701
  616MOL0     H84963  10.082   3.510   5.378 -0.0405 -1.2575  0.1870
  616MOL0     H84964  10.047   3.295   5.515  2.0859  0.6028  0.0907
  616MOL0     H84965   9.974   3.215   5.374 -0.8236 -1.0967  2.3557
  616MOL0     H84966  10.381   3.253   5.222 -0.7842  0.0717  0.8556
  616MOL0     H84967  10.578   3.312   5.140  1.5525 -0.4337  0.0075
  616MOL0     H84968  10.705   3.379   5.240 -0.0360  0.9699  0.0291
  616MOL0     H84969  10.591   3.485   5.165 -0.7890 -0.0878  0.3081
  616MOL0     H84970  10.865   3.741   5.276  2.5136  2.0381 -1.0659
  616MOL0     H84971  11.045   3.858   5.360  2.7140  0.9363  2.5944
  616MOL0     H84972  11.353   3.643   5.501  0.6612  1.1682  2.7234
  616MOL0     H84973  11.286   3.734   5.366  0.0179 -2.4970 -0.0487
  616MOL0     H84974  11.411   3.932   5.429  3.4774  1.3428 -1.1385
  616MOL0     H84975  11.462   3.856   5.580  4.8826  2.1187 -0.7970
  616MOL0     H84976  11.658   3.819   5.460  1.0112 -0.6652  0.0731
  616MOL0     H84977  11.578   3.870   5.311  1.2394  1.0021  0.8184
  616MOL0     H84978  11.502   3.618   5.301 -1.1250  0.4074  0.6020
  616MOL0     H84979  11.574   3.610   5.465  0.4933  1.4850  0.2579
  616MOL0     H84980  11.731   3.647   5.197  3.4619 -0.8645 -0.0356
  616MOL0     H84981  11.800   3.684   5.354  0.5431 -0.8067 -1.6330
  616MOL0     H84982  11.703   3.423   5.244 -1.1167  1.3662 -0.0429
  616MOL0     H84983  11.758   3.457   5.415  1.1910 -2.2187 -0.5657
  616MOL0     H84984  11.975   3.553   5.310 -1.4796 -0.6075  1.3888
  616MOL0     H84985  11.935   3.456   5.163 -2.0325  1.0023 -0.2472
  616MOL0     H84986  11.931   3.250   5.313 -0.1053  0.6873 -0.2623
  616MOL0     H84987  11.986   3.335   5.449  1.8444  0.0902 -0.1840
  616MOL0     H84988  11.132   3.593   5.676  1.2706  0.4831 -1.2294
  616MOL0     H84989  10.919   3.467   5.620  2.5847  0.6583  2.1715
  616MOL0     H84990  10.425   3.477   5.654  3.1190 -2.3346  0.3699
  616MOL0     H84991  10.215   3.381   5.587 -0.8797  0.4381 -1.2091
  616MOL0     H84992   8.783   4.636   6.033  0.2386 -0.9243 -1.8508
  616MOL0     H84993   8.556   4.713   6.080  1.1356 -0.3248 -0.6650
  616MOL0     H84994   8.181   4.793   6.383  1.1310 -1.8921  0.8517
  616MOL0     H84995   7.927   4.813   6.435 -0.5112 -2.0086  1.0226
  616MOL0     H84996   7.648   4.586   6.187 -2.5434 -0.4624  0.4967
  616MOL0     H84997   7.651   4.483   6.322  1.3532 -0.5270 -0.6395
  616MOL0     H84998   7.436   4.556   6.317 -2.1275  1.4153  2.3490
  616MOL0     H84999   7.484   4.725   6.302 -0.5687  0.9437  2.3662
  616MOL0     H85000   7.541   4.556   6.547  2.5328  1.2480  1.6891
  616MOL0     H85001   7.572   4.728   6.518 -1.5740  0.1583 -0.4553
  616MOL0     H85002   7.331   4.774   6.488  1.9182 -0.0251 -0.9911
  616MOL0     H85003   7.373   4.711   6.652 -1.3473 -1.6037  0.5541
  616MOL0     H85004   7.108   4.436   6.507  0.3646 -0.7385 -0.6938
  616MOL0     H85005   7.852   4.516   6.142 -0.0515 -1.5244  1.6065
  616MOL0     H85006   8.132   4.501   5.978 -0.7724  1.1519  1.0237
  616MOL0     H85007   8.162   4.379   6.098  0.3507 -0.3944  0.0126
  616MOL0     H85008   7.999   4.391   6.027  0.9364 -1.6012 -0.9623
  617MOL0     O85009   0.649  10.192   5.876  0.6502  0.5174  0.6044
  617MOL0     C85010   0.689  10.303   5.919  0.4647 -0.2692 -0.3447
  617MOL0     O85011   0.785  10.389   5.860  0.6843 -0.0000 -0.7620
  617MOL0     C85012   0.873  10.329   5.785 -0.3461  0.0637 -0.1827
  617MOL0     C85013   0.930  10.195   5.798 -0.5925 -1.5100 -1.3673
  617MOL0     C85014   1.026  10.147   5.710 -0.7477  0.4515  0.3400
  617MOL0     C85015   1.084  10.232   5.613  0.2622 -0.0773 -0.1327
  617MOL0     O85016   1.182  10.190   5.529 -0.1197 -0.0815  0.0800
  617MOL0     C85017   1.143  10.096   5.431 -0.6446  0.5368  0.2158
  617MOL0     C85018   1.103  10.171   5.303  0.5061 -0.0638  0.0877
  617MOL0     C85019   1.212  10.261   5.247  0.6586 -0.3387  0.2796
  617MOL0     C85020   1.195  10.314   5.099 -0.1016 -0.1597  0.6246
  617MOL0     C85021   1.316  10.378   5.041  0.5406  0.1070 -0.1125
  617MOL0     C85022   1.291  10.428   4.903  0.1087  0.1699  0.5768
  617MOL0     C85023   1.412  10.490   4.841 -0.3293  0.5820 -0.4644
  617MOL0     C85024   1.465  10.413   4.713  0.2603 -0.6175 -0.0466
  617MOL0     N85025   1.584  10.476   4.656 -0.1364 -0.4214 -0.4847
  617MOL0     C85026   1.705  10.415   4.633 -0.6527 -0.1616  0.5956
  617MOL0     C85027   1.772  10.489   4.538 -0.1104  0.4176 -0.2622
  617MOL0     C85028   1.910  10.455   4.482 -0.1501 -0.4640 -0.4133
  617MOL0     C85029   1.913  10.414   4.331  0.4040 -0.0900  0.1697
  617MOL0     C85030   1.958  10.264   4.304  0.0648  0.0568  0.3692
  617MOL0     C85031   1.999  10.233   4.164 -0.7071 -0.8390  0.4718
  617MOL0     O85032   2.125  10.290   4.118  0.2773  0.0197  0.5564
  617MOL0     C85033   2.126  10.309   3.982 -0.9600 -0.6545  0.3454
  617MOL0     C85034   2.069  10.429   3.921  1.1839  0.1726  1.8332
  617MOL0     C85035   2.059  10.441   3.782  0.6570  0.3107 -1.0551
  617MOL0     C85036   1.970  10.552   3.729  0.4922 -0.3355 -0.1073
  617MOL0     C85037   2.112  10.335   3.694  0.2089 -0.6875 -0.4051
  617MOL0     C85038   2.122  10.356   3.548  0.2824  0.3447  0.7576
  617MOL0     O85039   2.125  10.245   3.462 -0.8125 -0.5383 -0.7093
  617MOL0     C85040   2.062  10.245   3.336  0.8474 -1.0560  1.0545
  617MOL0     C85041   2.125  10.186   3.236 -0.1744 -0.1228  1.2817
  617MOL0     C85042   2.062  10.168   3.110  0.0008 -0.0354 -0.1676
  617MOL0     C85043   1.943  10.240   3.077 -0.1945  0.1616 -0.1716
  617MOL0     O85044   1.879  10.213   2.957  0.0599  0.3746 -0.2478
  617MOL0     C85045   1.839  10.330   2.881 -0.1299  0.4541 -0.1607
  617MOL0     C85046   1.857  10.289   2.727  0.6128  0.1679 -1.0202
  617MOL0     C85047   1.784  10.160   2.691 -0.9058 -0.5937  0.1843
  617MOL0     C85048   1.850  10.096   2.565 -0.0076  0.4808 -0.3297
  617MOL0     C85049   1.764   9.989   2.498 -0.1507  0.0642 -0.4774
  617MOL0     C85050   1.815   9.959   2.357  0.1720 -0.2645 -0.5674
  617MOL0     C85051   1.722   9.857   2.290 -0.3996  0.2980  0.5055
  617MOL0     C85052   1.793   9.730   2.233  0.7561 -0.3306 -0.1189
  617MOL0    Cl85053   1.861   9.641   2.374  0.4934 -0.0255  0.3284
  617MOL0     C85054   1.886  10.306   3.180  0.5470 -0.3125 -0.2360
  617MOL0     C85055   1.944  10.314   3.308  0.3871 -0.4449 -0.2882
  617MOL0     O85056   2.105  10.474   3.511  0.1076 -0.5711 -0.2031
  617MOL0     C85057   2.169  10.225   3.749 -0.2818  0.0933 -0.2278
  617MOL0     C85058   2.174  10.208   3.890 -0.7552  1.1522 -0.4630
  617MOL0     N85059   1.692  10.604   4.518 -0.2747 -1.4138 -0.1215
  617MOL0     N85060   1.578  10.590   4.586 -0.0826 -0.1779  0.5322
  617MOL0     C85061   1.039  10.362   5.602  1.1758  0.3774 -0.1306
  617MOL0     C85062   0.931  10.412   5.685  0.4412  0.1375 -0.1768
  617MOL0     C85063   0.621  10.340   6.041 -0.7654 -0.2718  0.0646
  617MOL0     C85064   0.709  10.352   6.157 -0.1965  0.0251  0.1571
  617MOL0     C85065   0.656  10.386   6.283  0.1695 -0.7391  0.2047
  617MOL0     C85066   0.520  10.394   6.296  0.4637 -1.1786 -0.5591
  617MOL0     O85067   0.481  10.406   6.426  0.4108  0.0748  0.0995
  617MOL0     C85068   0.339  10.390   6.465 -0.4605  0.3390 -0.5426
  617MOL0     C85069   0.313  10.477   6.591  1.0034 -0.1443 -0.3499
  617MOL0     C85070   0.210  10.592   6.566  0.3096  0.4197  0.1496
  617MOL0     C85071   0.135  10.646   6.697  0.1308 -0.1426 -0.1068
  617MOL0     C85072   0.025  10.743   6.674  0.2205 -0.4309  0.6786
  617MOL0     C85073  -0.058  10.824   6.659 -0.2062 -0.0380  0.5082
  617MOL0     C85074   0.439  10.388   6.183  0.0173  0.0949 -0.4936
  617MOL0     C85075   0.488  10.355   6.057 -0.3283  0.4424  0.0599
  617MOL0     C85076   0.390  10.364   5.937 -0.1178 -0.3576  0.1961
  617MOL0     H85077   0.888  10.130   5.874 -0.8414 -1.2875 -1.3163
  617MOL0     H85078   1.062  10.050   5.743 -0.4046  0.5888  0.3733
  617MOL0     H85079   1.056  10.039   5.466 -1.2555 -0.5514 -2.7745
  617MOL0     H85080   1.220  10.020   5.414 -1.1871  0.0615 -0.1949
  617MOL0     H85081   1.080  10.106   5.219  2.1928 -0.7415  0.1010
  617MOL0     H85082   1.010  10.226   5.318  0.3957 -0.1313 -0.3548
  617MOL0     H85083   1.213  10.352   5.308 -0.7100  0.4331 -0.7975
  617MOL0     H85084   1.306  10.206   5.256  0.7434 -0.3435 -0.5313
  617MOL0     H85085   1.168  10.230   5.034  2.4985 -0.5974 -0.0139
  617MOL0     H85086   1.117  10.391   5.099  1.7473  1.8323  0.7510
  617MOL0     H85087   1.389  10.296   5.039  1.8789  1.2318  0.6618
  617MOL0     H85088   1.347  10.451   5.116  0.5142 -1.0831  1.0929
  617MOL0     H85089   1.262  10.344   4.839  3.3074  1.5020 -3.0426
  617MOL0     H85090   1.204  10.494   4.902  0.8528  1.1858 -0.7180
  617MOL0     H85091   1.499  10.508   4.904 -0.2330 -0.5782 -0.2492
  617MOL0     H85092   1.377  10.591   4.817  0.8337  1.3698  0.9867
  617MOL0     H85093   1.502  10.316   4.746  4.0178  0.6814  0.0532
  617MOL0     H85094   1.392  10.407   4.632  1.4286 -0.2861 -1.1520
  617MOL0     H85095   1.747  10.328   4.683 -0.0839 -0.5012 -0.4460
  617MOL0     H85096   1.966  10.386   4.546 -0.8960 -1.8334 -1.1882
  617MOL0     H85097   1.971  10.546   4.491  0.3661 -0.9195  0.9463
  617MOL0     H85098   1.810  10.428   4.295  0.9845  0.4293 -1.3887
  617MOL0     H85099   1.972  10.487   4.275 -1.0505  0.5431 -0.6113
  617MOL0     H85100   2.047  10.234   4.361 -0.9680 -1.1667  1.3985
  617MOL0     H85101   1.888  10.185   4.332 -0.1112 -0.3234 -1.0450
  617MOL0     H85102   1.996  10.126   4.146 -0.0239 -0.3782 -3.3069
  617MOL0     H85103   1.934  10.288   4.096  1.4638  1.4301  0.0438
  617MOL0     H85104   2.017  10.501   3.983 -0.9835  1.8547 -1.6326
  617MOL0     H85105   1.911  10.595   3.811  0.5455  1.5349 -1.0184
  617MOL0     H85106   1.897  10.508   3.661  1.4103 -2.0594 -0.0472
  617MOL0     H85107   2.041  10.628   3.696  1.0186  0.9266  3.4568
  617MOL0     H85108   2.224  10.145   3.256  1.2115  2.3100 -0.0093
  617MOL0     H85109   2.107  10.111   3.030  1.2089 -0.2007  0.6044
  617MOL0     H85110   1.736  10.363   2.901  0.2273  2.2728 -1.1067
  617MOL0     H85111   1.899  10.419   2.902  0.1381  0.3401 -0.4291
  617MOL0     H85112   1.819  10.366   2.659  1.3940  2.1104  0.6590
  617MOL0     H85113   1.966  10.280   2.712  0.4617  0.3001 -2.3484
  617MOL0     H85114   1.677  10.181   2.676 -1.2329  2.9746  5.1943
  617MOL0     H85115   1.786  10.087   2.772 -0.3272 -0.6174  0.1558
  617MOL0     H85116   1.951  10.061   2.589 -1.3238 -1.5767  2.9114
  617MOL0     H85117   1.868  10.167   2.483  1.4654 -2.4049 -2.6707
  617MOL0     H85118   1.770   9.896   2.555 -1.2487 -0.5498 -1.3218
  617MOL0     H85119   1.658  10.008   2.482  0.0794  0.6759 -1.3666
  617MOL0     H85120   1.919   9.923   2.360  1.5482  3.3483 -0.4117
  617MOL0     H85121   1.822  10.055   2.306 -0.6815  1.6025  2.5536
  617MOL0     H85122   1.665   9.914   2.216 -1.5323  0.4019  1.4290
  617MOL0     H85123   1.651   9.809   2.358 -1.3502 -2.2227 -2.0478
  617MOL0     H85124   1.866   9.763   2.159  0.9135  7.9196  2.6614
  617MOL0     H85125   1.715   9.664   2.196 -1.2581  1.7549  0.1715
  617MOL0     H85126   1.794  10.360   3.158 -0.0941 -1.6109 -0.8505
  617MOL0     H85127   1.909  10.383   3.383  3.6161  0.2713  0.7312
  617MOL0     H85128   2.191  10.133   3.695 -1.2890  0.9988 -2.2968
  617MOL0     H85129   2.201  10.116   3.940 -2.0577  0.1432 -1.5487
  617MOL0     H85130   1.094  10.424   5.533  3.9336  0.5668  2.0673
  617MOL0     H85131   0.893  10.512   5.667  1.0361 -0.0643 -2.9893
  617MOL0     H85132   0.817  10.354   6.165 -0.0121  2.7308 -1.8739
  617MOL0     H85133   0.714  10.389   6.375  1.5453 -1.0726 -0.6234
  617MOL0     H85134   0.275  10.432   6.386  2.6998  0.9738 -2.9687
  617MOL0     H85135   0.323  10.283   6.482 -0.3032  0.8181  3.5569
  617MOL0     H85136   0.402  10.518   6.639 -0.5596 -0.6118  3.2742
  617MOL0     H85137   0.275  10.412   6.670  1.1197 -0.6972 -0.7411
  617MOL0     H85138   0.261  10.678   6.522  0.6365 -0.4465 -1.2352
  617MOL0     H85139   0.127  10.560   6.503 -1.1466  3.0223  0.6106
  617MOL0     H85140   0.210  10.702   6.754  0.5220 -3.0789  2.5574
  617MOL0     H85141   0.105  10.562   6.761  0.6369  0.5130  1.0410
  617MOL0     H85142  -0.134  10.887   6.618 -2.5551 -2.7736  0.3646
  617MOL0     H85143   0.330  10.387   6.190  0.0606  1.4348  0.8834
  617MOL0     H85144   0.295  10.401   5.977 -0.5051 -3.4007  2.4661
  617MOL0     H85145   0.426  10.425   5.854  1.4934 -0.7454  0.5697
  617MOL0     H85146   0.375  10.263   5.898 -1.1863 -1.8340  3.9703
  618MOL0     O85147   8.194   5.356   5.910 -0.3653  0.5465 -0.6637
  618MOL0     C85148   8.236   5.440   5.830 -0.2219  0.9532 -0.3252
  618MOL0     O85149   8.341   5.521   5.851  0.1963  0.5304 -0.2197
  618MOL0     C85150   8.398   5.516   5.976  1.2800 -0.2109  0.9940
  618MOL0     C85151   8.410   5.643   6.046  0.6484  0.2335 -0.4834
  618MOL0     C85152   8.484   5.663   6.166  0.5098  0.5147 -0.6255
  618MOL0     C85153   8.537   5.543   6.221 -0.0793 -0.1367  0.4700
  618MOL0     O85154   8.613   5.544   6.334 -0.2356 -0.2252  0.0711
  618MOL0     C85155   8.678   5.671   6.366 -0.0037 -0.0001 -0.0455
  618MOL0     C85156   8.764   5.643   6.490  0.0100  0.4014  0.6018
  618MOL0     C85157   8.860   5.519   6.458  0.0697 -0.1078 -0.0339
  618MOL0     C85158   8.965   5.496   6.573 -0.2284 -0.5285  0.3173
  618MOL0     C85159   9.112   5.536   6.534 -1.4650 -0.3469  0.6195
  618MOL0     C85160   9.138   5.691   6.511  0.5576 -0.6707 -0.3719
  618MOL0     C85161   9.285   5.712   6.458  0.6115 -0.1978 -0.7785
  618MOL0     C85162   9.395   5.693   6.559 -0.3753  0.0584  0.0868
  618MOL0     N85163   9.523   5.687   6.488  0.1749  1.0969  0.0318
  618MOL0     C85164   9.585   5.575   6.431  0.4356 -0.5035 -0.7984
  618MOL0     C85165   9.687   5.631   6.371 -0.5764 -0.0332  1.0985
  618MOL0     C85166   9.788   5.565   6.273 -0.5431  0.3747 -0.1699
  618MOL0     C85167   9.866   5.449   6.346 -0.1234  0.1548 -0.4914
  618MOL0     C85168   9.968   5.375   6.263  0.4262 -0.2813  0.5482
  618MOL0     C85169  10.092   5.470   6.220  0.1529  0.8644  0.3256
  618MOL0     O85170  10.150   5.566   6.317  0.1902  0.3400  0.4085
  618MOL0     C85171  10.257   5.511   6.384 -0.4055  0.5698 -0.4394
  618MOL0     C85172  10.370   5.584   6.397 -0.2323 -0.3647  0.0262
  618MOL0     C85173  10.486   5.544   6.468 -0.9305 -0.1055 -0.4145
  618MOL0     C85174  10.608   5.638   6.460  0.7595  0.0141  0.3651
  618MOL0     C85175  10.484   5.416   6.531 -0.1210  0.3512  1.0399
  618MOL0     C85176  10.595   5.360   6.617 -0.2368 -0.5085 -0.4886
  618MOL0     O85177  10.569   5.245   6.691  0.4798 -0.2515  0.3677
  618MOL0     C85178  10.661   5.191   6.780  1.0599 -0.8937  0.6542
  618MOL0     C85179  10.733   5.075   6.739  0.3637 -1.0175 -0.8261
  618MOL0     C85180  10.844   5.028   6.817 -0.1280 -0.0596  0.1051
  618MOL0     C85181  10.888   5.089   6.935 -0.1759 -0.4279  0.2436
  618MOL0     O85182  11.002   5.064   7.016 -0.8812  0.5032  0.2552
  618MOL0     C85183  11.083   4.943   6.990 -0.0207 -0.1406 -0.4192
  618MOL0     C85184  11.182   4.920   7.099  0.4961  0.0463 -0.1873
  618MOL0     C85185  11.258   4.788   7.087  0.6950  0.0864 -0.5224
  618MOL0     C85186  11.184   4.682   7.168 -0.5559 -0.2607 -0.7010
  618MOL0     C85187  11.266   4.557   7.174  0.0435 -0.4299  0.8155
  618MOL0     C85188  11.178   4.451   7.250  0.8217 -0.0277  0.7159
  618MOL0     C85189  11.244   4.312   7.226  1.0552  0.1271  0.4189
  618MOL0     C85190  11.194   4.190   7.310  0.2818  0.1105 -0.1114
  618MOL0    Cl85191  11.273   4.203   7.469 -0.3915 -0.3177 -0.5861
  618MOL0     C85192  10.790   5.188   6.981 -0.4578  0.6614 -0.1723
  618MOL0     C85193  10.686   5.244   6.908 -0.6469  0.4113 -0.6659
  618MOL0     O85194  10.694   5.430   6.629  0.0906  0.3134  0.9599
  618MOL0     C85195  10.369   5.349   6.523  1.3956  0.4172 -0.3340
  618MOL0     C85196  10.254   5.399   6.452  0.8683  0.6057 -1.1875
  618MOL0     N85197   9.692   5.766   6.387 -0.5171  0.1747 -0.4680
  618MOL0     N85198   9.596   5.796   6.465 -0.3612 -0.2568  0.4002
  618MOL0     C85199   8.515   5.416   6.161 -0.1006 -0.4059  0.0851
  618MOL0     C85200   8.444   5.404   6.034  0.2751 -0.1206  0.7962
  618MOL0     C85201   8.161   5.451   5.707 -0.7240 -1.0150  0.1963
  618MOL0     C85202   8.024   5.472   5.713 -0.2283 -0.1812 -0.7352
  618MOL0     C85203   7.953   5.505   5.595  0.3184  0.2486  0.1817
  618MOL0     C85204   8.022   5.519   5.474  0.0870 -0.2302  0.5076
  618MOL0     O85205   7.948   5.526   5.359  0.3765 -0.4797  0.0451
  618MOL0     C85206   8.010   5.524   5.228 -0.0845 -0.6948  0.3052
  618MOL0     C85207   7.917   5.478   5.120  0.0628 -0.4664  0.2453
  618MOL0     C85208   7.804   5.584   5.103 -1.7695  0.7208 -0.3839
  618MOL0     C85209   7.676   5.532   5.051  0.3599  0.4169 -0.1283
  618MOL0     C85210   7.685   5.491   4.912 -0.1474 -0.0916 -0.6889
  618MOL0     C85211   7.674   5.449   4.800 -0.0959 -1.2701 -0.3234
  618MOL0     C85212   8.164   5.513   5.480 -0.0395 -0.0891  0.8204
  618MOL0     C85213   8.230   5.479   5.588  0.1419  0.1691  0.0196
  618MOL0     C85214   8.378   5.464   5.583  0.8456  0.0826  0.1760
  618MOL0     H85215   8.363   5.729   5.999  1.4624  1.5161  0.9561
  618MOL0     H85216   8.499   5.757   6.219  3.0793 -0.9244  1.4783
  618MOL0     H85217   8.606   5.747   6.395  1.6606  1.2042  1.1036
  618MOL0     H85218   8.733   5.708   6.279  0.0992 -1.9998 -0.8980
  618MOL0     H85219   8.822   5.733   6.512  1.1712  0.2295 -1.4988
  618MOL0     H85220   8.705   5.607   6.576  0.1361  0.1704  0.5943
  618MOL0     H85221   8.795   5.433   6.443  1.1869 -1.1556  0.9292
  618MOL0     H85222   8.908   5.528   6.360  1.0809 -0.1206  0.4477
  618MOL0     H85223   8.941   5.545   6.667  0.7988  0.8943 -0.1151
  618MOL0     H85224   8.970   5.388   6.586 -0.6143 -0.8939 -1.9977
  618MOL0     H85225   9.136   5.489   6.438 -1.1645  3.5873 -1.4342
  618MOL0     H85226   9.175   5.505   6.619  1.9802 -0.0749 -1.6183
  618MOL0     H85227   9.081   5.735   6.429  1.8159  2.1686  0.1740
  618MOL0     H85228   9.121   5.745   6.605  2.0944 -1.0790  0.1649
  618MOL0     H85229   9.288   5.815   6.420 -2.1870 -0.6490 -2.4488
  618MOL0     H85230   9.303   5.642   6.376 -0.0015  1.5571 -2.4894
  618MOL0     H85231   9.397   5.771   6.635  0.4769  0.6508 -0.5259
  618MOL0     H85232   9.375   5.598   6.611 -1.7087 -0.6111 -1.5421
  618MOL0     H85233   9.556   5.471   6.441 -0.5800 -0.0136  2.2298
  618MOL0     H85234   9.856   5.636   6.226 -1.0211  0.5457 -0.6115
  618MOL0     H85235   9.739   5.509   6.193 -0.3716  0.5779 -0.4171
  618MOL0     H85236   9.901   5.494   6.440  3.4404 -0.2040 -1.4929
  618MOL0     H85237   9.794   5.374   6.380  1.7986 -1.2359  0.6976
  618MOL0     H85238   9.996   5.281   6.311 -2.1255 -1.0671  0.6541
  618MOL0     H85239   9.920   5.334   6.173  1.5525 -3.3686  1.2485
  618MOL0     H85240  10.174   5.411   6.178  0.6398  1.3784  0.5436
  618MOL0     H85241  10.052   5.541   6.148 -2.2045  1.5166  2.1163
  618MOL0     H85242  10.372   5.675   6.338  0.1783 -0.4493 -0.0929
  618MOL0     H85243  10.705   5.601   6.425  2.2591  4.9760 -1.4957
  618MOL0     H85244  10.623   5.694   6.553  1.9245 -1.0212  0.8272
  618MOL0     H85245  10.587   5.715   6.386 -0.4522 -0.1875  0.4803
  618MOL0     H85246  10.719   5.027   6.643 -0.9907  2.4960 -2.5395
  618MOL0     H85247  10.901   4.946   6.775  0.4030  0.7600 -0.8239
  618MOL0     H85248  11.013   4.859   6.978 -1.3711  0.7789  0.7191
  618MOL0     H85249  11.137   4.945   6.895 -0.5775  0.2255 -0.7313
  618MOL0     H85250  11.256   5.000   7.091 -2.3013  2.9460  1.1898
  618MOL0     H85251  11.130   4.931   7.194 -2.3711 -0.5544 -1.5645
  618MOL0     H85252  11.358   4.801   7.127  0.3721 -0.0401  0.3446
  618MOL0     H85253  11.271   4.762   6.982  0.6861 -3.4573  0.2351
  618MOL0     H85254  11.087   4.658   7.124 -0.9290 -0.5828  0.2795
  618MOL0     H85255  11.161   4.713   7.270 -0.3548 -1.4509 -0.2831
  618MOL0     H85256  11.281   4.528   7.070 -0.7371  0.1169  0.5424
  618MOL0     H85257  11.357   4.584   7.229  0.7158  3.3671 -1.8016
  618MOL0     H85258  11.077   4.439   7.210 -0.5703  1.1631  3.5628
  618MOL0     H85259  11.157   4.484   7.353 -0.3461  2.1530 -0.1521
  618MOL0     H85260  11.347   4.324   7.258 -0.0413 -0.7377  5.0473
  618MOL0     H85261  11.232   4.285   7.121  1.7019 -1.3256  0.6955
  618MOL0     H85262  11.207   4.094   7.260  2.2053 -0.9990  2.3214
  618MOL0     H85263  11.087   4.209   7.327  0.2074 -0.9997  0.7709
  618MOL0     H85264  10.807   5.232   7.079 -0.4686 -2.3247  1.2751
  618MOL0     H85265  10.632   5.331   6.944  1.8862  1.1511  1.6200
  618MOL0     H85266  10.356   5.262   6.585  0.7550 -0.7355 -2.0221
  618MOL0     H85267  10.160   5.346   6.461  0.8184  0.6529 -1.4338
  618MOL0     H85268   8.559   5.323   6.195 -0.0248 -0.3913  0.0267
  618MOL0     H85269   8.443   5.307   5.986  0.7597 -0.0092  0.5590
  618MOL0     H85270   7.979   5.447   5.809  0.9873  1.3483  0.2783
  618MOL0     H85271   7.850   5.538   5.595 -0.5522 -2.2316 -0.9789
  618MOL0     H85272   8.050   5.625   5.213 -2.0434  0.0539 -0.2037
  618MOL0     H85273   8.087   5.447   5.220 -2.5140 -3.8887  3.9995
  618MOL0     H85274   7.874   5.380   5.144 -2.3850 -0.3124 -2.7639
  618MOL0     H85275   7.976   5.460   5.029 -2.7765 -1.7166 -1.5046
  618MOL0     H85276   7.785   5.640   5.194 -0.2402 -0.4860  0.7424
  618MOL0     H85277   7.830   5.660   5.029  1.3155  0.3801  0.2019
  618MOL0     H85278   7.591   5.600   5.064 -0.1075 -0.1137 -0.3517
  618MOL0     H85279   7.647   5.443   5.107 -0.8419  1.5262  1.0777
  618MOL0     H85280   7.673   5.411   4.700 -0.5049 -0.3907 -0.6524
  618MOL0     H85281   8.227   5.520   5.392  1.0679 -1.7245  1.4145
  618MOL0     H85282   8.410   5.444   5.480 -2.8771 -1.0962 -0.8777
  618MOL0     H85283   8.418   5.563   5.607 -2.6960  1.4094  1.2014
  618MOL0     H85284   8.410   5.389   5.656  0.2037  1.2493  1.6921
  619MOL0     O85285   7.612   9.281   0.920 -0.2709  0.2062  0.2960
  619MOL0     C85286   7.625   9.204   0.830  0.0438 -0.1855  0.0880
  619MOL0     O85287   7.688   9.080   0.844  0.8997 -0.1323 -0.5240
  619MOL0     C85288   7.759   9.056   0.957  1.1343  0.1496  0.0323
  619MOL0     C85289   7.885   9.110   0.962  0.0584 -0.0689 -0.3053
  619MOL0     C85290   7.970   9.091   1.074 -0.7243  0.4150 -0.0850
  619MOL0     C85291   7.926   9.001   1.183 -0.4678 -0.0988  0.8194
  619MOL0     O85292   8.011   8.973   1.287  0.0698  0.9586 -0.3591
  619MOL0     C85293   8.148   9.023   1.289  1.1079 -0.0485  0.3594
  619MOL0     C85294   8.216   8.973   1.419  0.4019  0.1159  0.3464
  619MOL0     C85295   8.161   9.050   1.542 -0.2381  0.0311 -0.2589
  619MOL0     C85296   8.064   8.977   1.629 -1.5419  0.1117  0.4700
  619MOL0     C85297   7.998   9.090   1.712 -0.5957  0.7875  0.9014
  619MOL0     C85298   8.080   9.145   1.832  0.4140  0.2918  0.4911
  619MOL0     C85299   8.004   9.269   1.897 -0.3432 -0.0234 -0.8490
  619MOL0     C85300   7.870   9.219   1.952  0.8989 -0.5321  0.3544
  619MOL0     N85301   7.816   9.317   2.055  0.6451  0.6616  0.6665
  619MOL0     C85302   7.772   9.445   2.044 -0.2049  0.5902  0.6891
  619MOL0     C85303   7.723   9.476   2.162 -0.1868  0.2989 -0.9689
  619MOL0     C85304   7.658   9.608   2.190 -0.2564 -0.1922 -0.0328
  619MOL0     C85305   7.763   9.718   2.198 -0.1489 -0.2989  0.4345
  619MOL0     C85306   7.881   9.684   2.284  0.0759  0.2630  0.1391
  619MOL0     C85307   7.967   9.807   2.299  0.1794 -0.1295  0.6865
  619MOL0     O85308   8.004   9.833   2.164  0.6625 -0.2389 -0.1042
  619MOL0     C85309   8.098   9.933   2.140  1.3756 -0.8698  0.1931
  619MOL0     C85310   8.177   9.910   2.025 -0.5017 -0.0446 -0.4042
  619MOL0     C85311   8.282   9.995   1.997  0.0986 -0.2965 -0.3885
  619MOL0     C85312   8.353   9.957   1.869 -0.0912 -0.2468 -0.0733
  619MOL0     C85313   8.318  10.110   2.074  0.1933  0.2125 -0.1260
  619MOL0     C85314   8.426  10.212   2.039  0.1501 -0.2344 -0.5610
  619MOL0     O85315   8.417  10.327   2.111 -0.3023  0.4701  0.3512
  619MOL0     C85316   8.515  10.423   2.074 -0.5044 -0.2740 -0.0602
  619MOL0     C85317   8.512  10.496   1.953  0.4020  0.0483  0.5314
  619MOL0     C85318   8.615  10.588   1.928  0.2963  0.2729 -0.3529
  619MOL0     C85319   8.713  10.613   2.026 -0.0368  0.2982 -0.0756
  619MOL0     O85320   8.815  10.691   1.985 -0.6077 -0.2687  0.9233
  619MOL0     C85321   8.897  10.743   2.092 -0.5045 -0.8704  0.2731
  619MOL0     C85322   8.992  10.855   2.044  0.0233 -1.1063  0.7706
  619MOL0     C85323   9.096  10.810   1.940  0.1629 -0.1983 -0.1562
  619MOL0     C85324   9.228  10.890   1.953  0.2896  0.5042  0.0755
  619MOL0     C85325   9.350  10.825   1.892  0.0378  0.4636 -0.0564
  619MOL0     C85326   9.464  10.928   1.886 -0.3632  0.2154  0.2379
  619MOL0     C85327   9.578  10.850   1.828 -0.7990 -0.1176 -0.3072
  619MOL0     C85328   9.645  10.736   1.905 -0.0232 -0.1641 -0.4439
  619MOL0    Cl85329   9.710  10.774   2.069 -0.2134 -0.0252 -0.4019
  619MOL0     C85330   8.708  10.546   2.140 -0.0078  0.5058  0.2690
  619MOL0     C85331   8.613  10.447   2.172  0.5054 -0.0742 -0.2089
  619MOL0     O85332   8.507  10.184   1.960  0.3580 -0.3632  0.8771
  619MOL0     C85333   8.241  10.121   2.195  0.6639  0.9505 -0.9419
  619MOL0     C85334   8.133  10.033   2.227 -0.2293  0.4748  0.2508
  619MOL0     N85335   7.749   9.378   2.259 -0.8471 -0.7066  0.1646
  619MOL0     N85336   7.811   9.286   2.193  0.3807  0.2964  1.9227
  619MOL0     C85337   7.793   8.956   1.179 -0.2551  0.1802 -0.7820
  619MOL0     C85338   7.712   8.990   1.071  0.2760  0.9585 -0.4966
  619MOL0     C85339   7.568   9.232   0.696  0.0661 -0.0773 -0.1533
  619MOL0     C85340   7.559   9.136   0.596  0.6774 -0.5484  0.5136
  619MOL0     C85341   7.510   9.160   0.466 -0.2696  0.6437 -0.8865
  619MOL0     C85342   7.467   9.286   0.420  0.4139  0.2068  0.3090
  619MOL0     O85343   7.443   9.326   0.293  0.0557 -0.9642  0.1376
  619MOL0     C85344   7.431   9.226   0.192  0.0967 -0.3499  0.1390
  619MOL0     C85345   7.343   9.282   0.087 -0.5664  0.4273 -0.5160
  619MOL0     C85346   7.190   9.248   0.108  0.3322  0.0428 -0.8439
  619MOL0     C85347   7.149   9.287   0.249  0.0199  0.0331 -0.5722
  619MOL0     C85348   7.004   9.298   0.245 -0.0740 -0.4487 -0.6530
  619MOL0     C85349   6.886   9.302   0.246  0.1256  0.0745  1.0312
  619MOL0     C85350   7.479   9.382   0.522 -0.3504 -0.3041  0.1740
  619MOL0     C85351   7.525   9.367   0.654 -0.3793 -0.7823  0.1975
  619MOL0     C85352   7.523   9.489   0.747 -0.2337 -0.2367 -0.7275
  619MOL0     H85353   7.920   9.172   0.880 -1.4049 -0.2328 -1.0773
  619MOL0     H85354   8.067   9.139   1.065 -1.9971  3.0419 -0.8989
  619MOL0     H85355   8.153   9.132   1.283 -0.1368 -0.0046 -0.1604
  619MOL0     H85356   8.197   8.977   1.202 -1.5416 -1.6621 -0.3951
  619MOL0     H85357   8.213   8.865   1.435 -1.5582  0.1643  0.5362
  619MOL0     H85358   8.321   8.998   1.403  0.6830  0.0249  1.9095
  619MOL0     H85359   8.248   9.073   1.604  0.4936 -0.7184 -0.9879
  619MOL0     H85360   8.125   9.145   1.500  1.3237  0.5791 -0.4150
  619MOL0     H85361   7.991   8.933   1.561  0.1649  2.3108 -3.0477
  619MOL0     H85362   8.110   8.909   1.701  1.4370  0.6736 -0.7708
  619MOL0     H85363   7.895   9.078   1.746 -0.1985  0.7341  2.1221
  619MOL0     H85364   7.981   9.172   1.642  3.2289 -1.2958 -2.9536
  619MOL0     H85365   8.103   9.071   1.909  0.1110 -1.8424 -1.3600
  619MOL0     H85366   8.172   9.186   1.791  0.1133  1.8352  1.2826
  619MOL0     H85367   7.992   9.350   1.824 -3.2269 -0.3690 -0.8689
  619MOL0     H85368   8.065   9.300   1.982 -0.1871  1.1156 -1.3477
  619MOL0     H85369   7.801   9.213   1.867  0.7092  1.4915  0.3032
  619MOL0     H85370   7.875   9.120   1.997 -1.8151 -0.3575  1.2606
  619MOL0     H85371   7.759   9.508   1.957 -0.6962  2.1577  1.8497
  619MOL0     H85372   7.588   9.602   2.273 -0.0307 -2.0499  0.0513
  619MOL0     H85373   7.594   9.628   2.103 -1.0046 -3.3695 -0.3065
  619MOL0     H85374   7.785   9.750   2.096 -1.2801 -0.1600  0.2201
  619MOL0     H85375   7.710   9.808   2.232  3.0088  1.6725  0.5915
  619MOL0     H85376   7.845   9.637   2.376 -1.6824 -0.1889 -0.7430
  619MOL0     H85377   7.946   9.609   2.237  0.1738  0.3037  0.2083
  619MOL0     H85378   7.896   9.883   2.334  0.0393  1.1393 -2.0494
  619MOL0     H85379   8.053   9.796   2.366  1.1423  2.3218 -0.0377
  619MOL0     H85380   8.138   9.829   1.965  2.0163 -0.2909 -1.8501
  619MOL0     H85381   8.460   9.946   1.883 -0.3772 -3.2417  0.3282
  619MOL0     H85382   8.327  10.021   1.784  0.2953 -0.0039 -0.0112
  619MOL0     H85383   8.332   9.852   1.848 -2.0683  0.0056  0.4257
  619MOL0     H85384   8.444  10.492   1.868  0.7564  0.2789  0.2351
  619MOL0     H85385   8.608  10.648   1.838 -2.0203  0.3896 -0.1541
  619MOL0     H85386   8.843  10.782   2.179 -1.4326 -1.4229 -0.0492
  619MOL0     H85387   8.969  10.664   2.118  0.9917  0.0389 -0.9272
  619MOL0     H85388   8.928  10.921   1.986 -1.0126 -1.3738  1.5768
  619MOL0     H85389   9.039  10.905   2.129  0.9615 -0.8046  0.0919
  619MOL0     H85390   9.046  10.822   1.843  1.0818  0.9846 -0.5196
  619MOL0     H85391   9.123  10.705   1.952 -0.3495 -0.3091  0.0605
  619MOL0     H85392   9.256  10.892   2.059  1.9125  0.3129 -0.3199
  619MOL0     H85393   9.215  10.994   1.920 -2.1777  0.8931  1.9553
  619MOL0     H85394   9.383  10.729   1.934 -0.0715  0.1543 -0.6626
  619MOL0     H85395   9.322  10.804   1.789  1.5113  0.2065 -0.4208
  619MOL0     H85396   9.491  10.966   1.985  1.2722  1.0626 -0.4892
  619MOL0     H85397   9.449  11.011   1.818  0.2128  0.8772  0.8985
  619MOL0     H85398   9.660  10.917   1.800 -0.0589 -0.1968  1.5693
  619MOL0     H85399   9.548  10.816   1.728 -1.0412  1.4143 -0.7908
  619MOL0     H85400   9.729  10.703   1.844  1.8621  0.5979  1.6288
  619MOL0     H85401   9.571  10.655   1.910  1.4432 -1.4754  1.3813
  619MOL0     H85402   8.779  10.558   2.221 -1.4863 -1.5908  2.0078
  619MOL0     H85403   8.599  10.403   2.270  1.1361  0.6512  0.2099
  619MOL0     H85404   8.269  10.195   2.269  0.3523  1.2189 -1.0889
  619MOL0     H85405   8.080  10.061   2.317  0.7182 -0.0513  0.9791
  619MOL0     H85406   7.748   8.904   1.263  0.9284  2.1209  1.1456
  619MOL0     H85407   7.607   8.965   1.083 -0.3939  3.0292 -1.6202
  619MOL0     H85408   7.586   9.032   0.607  0.0867 -0.8685 -0.8554
  619MOL0     H85409   7.526   9.081   0.393 -1.2827 -1.6095  1.2016
  619MOL0     H85410   7.533   9.205   0.158  0.4313  0.7134  0.4603
  619MOL0     H85411   7.387   9.138   0.240 -1.3384 -0.4635 -1.3127
  619MOL0     H85412   7.368   9.230  -0.006 -1.3124  0.2369 -0.6141
  619MOL0     H85413   7.361   9.388   0.070 -1.3023  1.0733  2.2760
  619MOL0     H85414   7.132   9.302   0.034  1.0375  1.4353 -0.4093
  619MOL0     H85415   7.175   9.140   0.092  0.7537 -0.2566  0.5683
  619MOL0     H85416   7.189   9.382   0.285  0.9026 -0.1539 -1.0218
  619MOL0     H85417   7.185   9.214   0.322  0.9630  1.1939  0.1507
  619MOL0     H85418   6.780   9.303   0.228  0.5043 -2.4259 -2.3750
  619MOL0     H85419   7.454   9.482   0.487 -0.2072 -0.7007 -1.1139
  619MOL0     H85420   7.626   9.513   0.777 -0.5486  0.8245 -0.4655
  619MOL0     H85421   7.477   9.567   0.686 -0.4765 -1.1333 -1.7084
  619MOL0     H85422   7.466   9.471   0.839 -0.8694  0.6594 -0.9370
  620MOL0     O85423   6.176   0.285  11.053 -0.0495 -0.3353 -0.0865
  620MOL0     C85424   6.154   0.167  11.032  0.3017 -0.4484 -0.1165
  620MOL0     O85425   6.243   0.085  10.955  0.1972 -0.9455  0.1278
  620MOL0     C85426   6.356   0.152  10.933 -0.3405  0.5306 -0.2485
  620MOL0     C85427   6.389   0.202  10.805 -0.2013 -0.5318 -0.2148
  620MOL0     C85428   6.517   0.253  10.793  0.4571  0.0520  0.6339
  620MOL0     C85429   6.613   0.248  10.895 -0.4765  0.6851 -0.1086
  620MOL0     O85430   6.739   0.291  10.892 -0.8248 -1.2044 -0.0090
  620MOL0     C85431   6.813   0.262  10.772  0.6076 -0.0834  0.0902
  620MOL0     C85432   6.851   0.114  10.756 -0.4463 -0.4398  0.2286
  620MOL0     C85433   6.935   0.075  10.633  0.0444 -0.0522 -0.4529
  620MOL0     C85434   7.011  -0.065  10.639 -0.8271  0.8243 -0.2870
  620MOL0     C85435   7.103  -0.098  10.518 -0.2061 -1.2273  0.3934
  620MOL0     C85436   7.206   0.020  10.510  0.4926  0.2274 -0.7139
  620MOL0     C85437   7.310  -0.002  10.412 -0.3240  0.1009  0.5081
  620MOL0     C85438   7.403   0.118  10.402  0.3914 -0.2704 -0.3713
  620MOL0     N85439   7.520   0.109  10.487  0.3305 -0.0262 -0.1713
  620MOL0     C85440   7.641   0.038  10.455  0.1535 -0.1699 -0.6809
  620MOL0     C85441   7.718   0.061  10.561 -0.4584 -0.2746 -0.2243
  620MOL0     C85442   7.861   0.009  10.589 -0.0241  0.4070 -0.2518
  620MOL0     C85443   7.943   0.000  10.470 -0.4756 -0.1366  0.1086
  620MOL0     C85444   8.076  -0.059  10.485 -0.2966  0.6161 -0.0158
  620MOL0     C85445   8.149  -0.062  10.351  0.1538  0.5294  0.7853
  620MOL0     O85446   8.076  -0.133  10.250 -0.0065 -0.8578 -0.7458
  620MOL0     C85447   8.130  -0.151  10.130  0.7409  0.2485  0.5792
  620MOL0     C85448   8.253  -0.094  10.094  0.8483  0.5524 -0.2142
  620MOL0     C85449   8.294  -0.098   9.963  0.9514 -0.5173  0.3140
  620MOL0     C85450   8.439  -0.056   9.951  0.1552 -0.0590  0.9845
  620MOL0     C85451   8.209  -0.134   9.857 -0.3348 -0.4640 -0.4258
  620MOL0     C85452   8.241  -0.103   9.716  0.6155 -0.1665 -0.4069
  620MOL0     O85453   8.342  -0.013   9.687 -0.0171  0.6875  0.3006
  620MOL0     C85454   8.386  -0.023   9.555 -0.0078 -0.1170  0.0661
  620MOL0     C85455   8.474  -0.123   9.524  0.8262  0.2285 -0.2573
  620MOL0     C85456   8.519  -0.125   9.393  0.2529  0.2056 -0.6855
  620MOL0     C85457   8.482  -0.036   9.298  0.1130 -0.4396  0.1852
  620MOL0     O85458   8.540  -0.049   9.169  0.2070  0.1251  0.2468
  620MOL0     C85459   8.519   0.056   9.073  0.6909  0.5583 -0.0618
  620MOL0     C85460   8.592   0.004   8.950 -0.2186  0.0498 -0.8101
  620MOL0     C85461   8.547  -0.138   8.898 -0.5273 -0.1881 -0.0341
  620MOL0     C85462   8.614  -0.164   8.763  0.2329  0.5156 -0.2628
  620MOL0     C85463   8.603  -0.309   8.712 -0.6504 -0.1716 -0.1668
  620MOL0     C85464   8.458  -0.353   8.671  0.1307 -0.2820 -0.3048
  620MOL0     C85465   8.449  -0.501   8.642  0.5277  0.9331 -0.3963
  620MOL0     C85466   8.310  -0.546   8.600 -0.6157  0.5609 -0.4862
  620MOL0    Cl85467   8.272  -0.499   8.429  0.4047 -0.1177  0.1493
  620MOL0     C85468   8.388   0.064   9.337  0.1335  0.2771  0.3565
  620MOL0     C85469   8.328   0.059   9.461 -0.4892  0.7764  0.7663
  620MOL0     O85470   8.176  -0.176   9.637  0.4122 -0.5979 -0.7563
  620MOL0     C85471   8.084  -0.192   9.895  0.2450  0.7446  0.6889
  620MOL0     C85472   8.047  -0.201  10.026  0.2153  1.0808  0.8295
  620MOL0     N85473   7.646   0.123  10.657  0.1088  0.7709 -0.1542
  620MOL0     N85474   7.531   0.154  10.612  0.5923 -0.0688  0.5163
  620MOL0     C85475   6.573   0.201  11.016 -1.1050  0.0158  1.1369
  620MOL0     C85476   6.445   0.156  11.039  0.2502  0.2025 -0.1204
  620MOL0     C85477   6.038   0.093  11.086 -0.3663  0.2212  0.3967
  620MOL0     C85478   5.999  -0.031  11.011  0.1537 -0.4781  0.1435
  620MOL0     C85479   5.894  -0.108  11.064 -0.1985  0.0289 -0.2041
  620MOL0     C85480   5.836  -0.076  11.185  0.1553 -0.9055  0.2247
  620MOL0     O85481   5.738  -0.160  11.224  0.6478  0.1028  0.3970
  620MOL0     C85482   5.610  -0.095  11.247 -0.0363  0.7859 -0.0403
  620MOL0     C85483   5.492  -0.187  11.223 -0.0508 -0.4893  0.3996
  620MOL0     C85484   5.497  -0.258  11.084  0.1659 -0.0388 -0.4273
  620MOL0     C85485   5.477  -0.163  10.974 -0.3666 -0.0521 -0.5144
  620MOL0     C85486   5.339  -0.116  10.961  0.2111 -0.1750  0.0402
  620MOL0     C85487   5.228  -0.069  10.961  0.4304 -0.1297  0.2438
  620MOL0     C85488   5.883   0.030  11.265 -0.1563 -0.2049 -0.0914
  620MOL0     C85489   5.972   0.125  11.208 -0.3033  0.2496  0.6629
  620MOL0     C85490   6.007   0.235  11.303 -0.3393  0.5710 -0.1145
  620MOL0     H85491   6.307   0.200  10.735  2.2972  1.5038 -3.4563
  620MOL0     H85492   6.534   0.298  10.696 -3.2115  0.2723 -0.0462
  620MOL0     H85493   6.902   0.324  10.786 -2.0954  3.8637  1.3797
  620MOL0     H85494   6.759   0.300  10.685 -1.7237 -3.0028  0.0811
  620MOL0     H85495   6.912   0.097  10.846  1.6136  0.6989 -0.8775
  620MOL0     H85496   6.764   0.048  10.750 -0.8253  0.0193  0.6119
  620MOL0     H85497   6.886   0.090  10.536  3.3893  2.1952 -1.9583
  620MOL0     H85498   7.019   0.145  10.636 -1.3142  1.6464  1.6469
  620MOL0     H85499   7.075  -0.070  10.728 -2.4456 -1.3799  0.8460
  620MOL0     H85500   6.944  -0.150  10.648 -1.4823  1.3401 -0.2717
  620MOL0     H85501   7.036  -0.093  10.432 -0.7220 -1.5511  0.7667
  620MOL0     H85502   7.142  -0.200  10.523  1.8029 -0.5940 -1.1174
  620MOL0     H85503   7.160   0.116  10.485  0.6785  0.3324 -0.6571
  620MOL0     H85504   7.267   0.018  10.601 -0.6561 -3.0481  0.1106
  620MOL0     H85505   7.264  -0.015  10.313  0.3366  2.3786 -0.1589
  620MOL0     H85506   7.370  -0.093  10.424 -0.5474 -1.1080 -4.8290
  620MOL0     H85507   7.434   0.135  10.298  0.5160  1.9748 -0.0237
  620MOL0     H85508   7.351   0.210  10.429  0.0626 -0.0835 -1.5699
  620MOL0     H85509   7.666  -0.010  10.361  0.5710 -1.1136 -0.1006
  620MOL0     H85510   7.856  -0.092  10.630 -0.6684 -0.3073 -1.9936
  620MOL0     H85511   7.914   0.067  10.665 -0.5004 -0.3440  0.6782
  620MOL0     H85512   7.888  -0.054  10.392 -0.2854  0.2755 -0.3186
  620MOL0     H85513   7.955   0.100  10.426 -2.3335 -1.5916 -4.3181
  620MOL0     H85514   8.140  -0.002  10.554  3.2010 -2.0288 -0.7533
  620MOL0     H85515   8.057  -0.160  10.524 -1.0774  1.0091  0.6389
  620MOL0     H85516   8.173   0.039  10.319 -0.1120  0.5366  0.6005
  620MOL0     H85517   8.234  -0.129  10.361 -1.0108 -1.0583  0.5308
  620MOL0     H85518   8.322  -0.079  10.176 -2.1583 -1.1494  2.9124
  620MOL0     H85519   8.500  -0.079  10.039  3.3995 -1.5648 -1.4630
  620MOL0     H85520   8.439   0.048   9.917 -3.8104 -0.5930 -1.1165
  620MOL0     H85521   8.494  -0.111   9.874  2.8395  1.1583  1.8896
  620MOL0     H85522   8.509  -0.207   9.585  0.6555  0.2596 -0.1147
  620MOL0     H85523   8.591  -0.201   9.362 -0.2176 -1.2235  1.4738
  620MOL0     H85524   8.415   0.065   9.038  0.9380  0.4039 -0.8640
  620MOL0     H85525   8.550   0.153   9.113 -0.9576  0.0967  2.5455
  620MOL0     H85526   8.603   0.081   8.873  0.0276  2.0659  1.1534
  620MOL0     H85527   8.693  -0.020   8.986 -0.4354  0.1194 -0.1464
  620MOL0     H85528   8.440  -0.149   8.880 -0.3332 -2.5110 -0.0892
  620MOL0     H85529   8.570  -0.210   8.977  0.8088  1.1360  0.8304
  620MOL0     H85530   8.721  -0.149   8.776  0.6033 -2.5552  1.0564
  620MOL0     H85531   8.563  -0.094   8.696  0.9201  1.0445 -0.2434
  620MOL0     H85532   8.665  -0.322   8.623  0.1865 -2.1075  0.6413
  620MOL0     H85533   8.641  -0.374   8.792 -1.7670 -0.2658  0.3078
  620MOL0     H85534   8.425  -0.299   8.582  0.2681 -0.3751 -0.4140
  620MOL0     H85535   8.394  -0.338   8.758  3.6143 -0.1832  2.4829
  620MOL0     H85536   8.474  -0.564   8.727  1.0697 -0.1214 -1.3101
  620MOL0     H85537   8.527  -0.523   8.568  0.4037 -0.7346 -0.0693
  620MOL0     H85538   8.234  -0.513   8.671 -3.3673 -3.1978 -1.3533
  620MOL0     H85539   8.302  -0.655   8.600 -0.4952  0.5470  0.5880
  620MOL0     H85540   8.353   0.138   9.266  1.0875 -1.2456 -1.8163
  620MOL0     H85541   8.256   0.130   9.500 -2.3486 -1.4851  1.6642
  620MOL0     H85542   8.015  -0.223   9.817  2.6865 -0.3086 -1.1692
  620MOL0     H85543   7.940  -0.199  10.044 -0.2943  1.3125 -1.8705
  620MOL0     H85544   6.645   0.177  11.093  0.8072  0.5377 -0.4170
  620MOL0     H85545   6.408   0.108  11.129 -0.0273 -1.7495 -1.2317
  620MOL0     H85546   6.043  -0.058  10.916 -0.3370 -1.6339  0.2265
  620MOL0     H85547   5.862  -0.198  11.012 -1.3329 -0.4618  1.2432
  620MOL0     H85548   5.598  -0.063  11.351  0.6240  2.3870 -0.4347
  620MOL0     H85549   5.602   0.000  11.195  2.5735  1.5002  0.6903
  620MOL0     H85550   5.397  -0.133  11.226  0.0889 -0.1764 -0.5361
  620MOL0     H85551   5.491  -0.251  11.312  3.0296  2.2559  2.6875
  620MOL0     H85552   5.592  -0.311  11.070  0.7069  0.8525 -0.1976
  620MOL0     H85553   5.415  -0.329  11.071  0.1529 -0.2003  0.4789
  620MOL0     H85554   5.495  -0.215  10.880 -3.5884 -0.7089 -0.8801
  620MOL0     H85555   5.543  -0.076  10.985  0.1005 -0.4194 -0.4076
  620MOL0     H85556   5.130  -0.024  10.960  0.7185  0.5187 -0.8227
  620MOL0     H85557   5.852   0.032  11.369 -1.9259 -1.8913 -0.5129
  620MOL0     H85558   6.109   0.232  11.342 -1.0819 -0.8378  1.8907
  620MOL0     H85559   5.988   0.326  11.246 -0.8190 -0.4396 -1.6357
  620MOL0     H85560   5.941   0.244  11.390 -2.6360 -1.4001 -1.5241
  621MOL0     O85561   2.544   5.114   9.403  0.3987 -0.0770 -0.2151
  621MOL0     C85562   2.449   5.039   9.431  0.1429 -0.2753  0.4814
  621MOL0     O85563   2.464   4.920   9.489  0.5464 -0.2752  0.4004
  621MOL0     C85564   2.577   4.875   9.552  0.3012 -0.3604  0.4971
  621MOL0     C85565   2.602   4.744   9.526  0.8630 -0.1520 -1.1011
  621MOL0     C85566   2.702   4.675   9.595  0.0711  0.7573  0.1897
  621MOL0     C85567   2.783   4.744   9.685  0.3085  0.8372 -0.8072
  621MOL0     O85568   2.872   4.666   9.748 -0.2282  0.2598  0.1826
  621MOL0     C85569   2.980   4.731   9.819  0.2218  0.4757 -1.1192
  621MOL0     C85570   3.116   4.671   9.768 -0.2978 -0.1407 -0.7454
  621MOL0     C85571   3.238   4.756   9.823 -0.3460 -0.4993 -0.4303
  621MOL0     C85572   3.304   4.708   9.962  0.0514  0.8393  0.5586
  621MOL0     C85573   3.452   4.766   9.978 -0.2669 -0.2123  0.9479
  621MOL0     C85574   3.522   4.716  10.108  0.5610 -0.3759 -0.7262
  621MOL0     C85575   3.561   4.576  10.078 -0.6155  1.1015 -0.3825
  621MOL0     C85576   3.604   4.504  10.207 -0.2437 -0.3692  0.1917
  621MOL0     N85577   3.491   4.472  10.300 -0.9707  0.1103  0.3836
  621MOL0     C85578   3.375   4.403  10.265 -0.6373 -0.0909  0.7064
  621MOL0     C85579   3.298   4.412  10.370  0.8235  0.3196  0.0285
  621MOL0     C85580   3.158   4.356  10.379  1.0411 -0.1587  0.6017
  621MOL0     C85581   3.167   4.225  10.461 -0.4496  0.1609 -0.0731
  621MOL0     C85582   3.224   4.101  10.384 -0.1622  0.3002 -0.1864
  621MOL0     C85583   3.156   4.077  10.240 -0.0725  0.5592  0.1778
  621MOL0     O85584   3.021   4.030  10.266  0.2356 -0.1062 -0.4653
  621MOL0     C85585   2.919   4.049  10.169  0.7388  0.1495 -0.0784
  621MOL0     C85586   2.922   4.121  10.051 -0.0213 -0.8939 -0.7580
  621MOL0     C85587   2.809   4.132   9.964 -0.4836  0.1517  0.5622
  621MOL0     C85588   2.827   4.224   9.841  0.1044  1.2421 -0.3637
  621MOL0     C85589   2.693   4.062   9.995  0.7197 -1.2284  0.2947
  621MOL0     C85590   2.564   4.072   9.916 -0.6285  0.1807  0.1186
  621MOL0     O85591   2.452   4.037   9.981  0.6551 -0.5845  0.0238
  621MOL0     C85592   2.324   4.049   9.915  0.1168 -0.1938 -0.7639
  621MOL0     C85593   2.225   3.955   9.936 -0.0340 -0.3405 -0.1156
  621MOL0     C85594   2.110   3.951   9.863  0.6128  0.3121  0.4706
  621MOL0     C85595   2.087   4.041   9.753 -0.6467 -0.4711 -0.5186
  621MOL0     O85596   1.991   4.022   9.654 -0.0736  0.2148  0.1907
  621MOL0     C85597   1.990   4.101   9.531 -0.2103  0.2271  0.0895
  621MOL0     C85598   1.853   4.084   9.459  1.5908  1.6557  0.3428
  621MOL0     C85599   1.839   4.205   9.369 -0.7899  0.2111  0.2096
  621MOL0     C85600   1.714   4.211   9.274 -0.5462 -0.8917 -0.2053
  621MOL0     C85601   1.711   4.344   9.177  0.5228 -0.1043  0.1351
  621MOL0     C85602   1.748   4.472   9.253  0.0453  0.5843 -0.2298
  621MOL0     C85603   1.738   4.599   9.170 -0.1255  0.2545  0.3673
  621MOL0     C85604   1.677   4.712   9.256  0.5206 -0.0664  1.0433
  621MOL0    Cl85605   1.518   4.659   9.318 -0.0652  0.1809  0.4723
  621MOL0     C85606   2.173   4.152   9.744 -0.0538 -0.0275 -0.7910
  621MOL0     C85607   2.292   4.156   9.824 -0.4698 -0.1731 -0.4923
  621MOL0     O85608   2.571   4.090   9.794 -0.0358 -0.1145 -0.4811
  621MOL0     C85609   2.695   3.976  10.107 -0.0637  0.5220 -0.0297
  621MOL0     C85610   2.807   3.972  10.191 -0.7146 -0.2145 -0.7112
  621MOL0     N85611   3.365   4.474  10.479  0.0667 -0.5094  0.0732
  621MOL0     N85612   3.484   4.503  10.435 -0.1482 -0.0204 -0.5015
  621MOL0     C85613   2.746   4.879   9.723  1.1901  0.5297 -0.0009
  621MOL0     C85614   2.642   4.944   9.653  0.3262  0.3235  0.5650
  621MOL0     C85615   2.310   5.088   9.395 -0.2404  0.5922 -0.0523
  621MOL0     C85616   2.200   5.002   9.413 -0.0368  0.8972 -0.2630
  621MOL0     C85617   2.062   5.051   9.408 -0.8919  0.8639 -0.0188
  621MOL0     C85618   2.032   5.175   9.352  0.1421  0.2506 -0.2739
  621MOL0     O85619   1.906   5.206   9.319 -0.0086 -0.7047 -0.4069
  621MOL0     C85620   1.795   5.126   9.372  0.6542  0.1925 -1.2083
  621MOL0     C85621   1.778   5.124   9.528  0.3876 -0.0033  0.2894
  621MOL0     C85622   1.644   5.066   9.566 -0.0930  0.3276 -0.0414
  621MOL0     C85623   1.611   5.091   9.714  0.4646  0.0258  0.3908
  621MOL0     C85624   1.563   5.227   9.742 -0.4025  0.2094  0.6718
  621MOL0     C85625   1.548   5.346   9.763 -0.4946  1.0777  0.5069
  621MOL0     C85626   2.138   5.252   9.317  0.6063  0.3661  0.2958
  621MOL0     C85627   2.269   5.216   9.344 -0.4267 -0.6341 -0.5321
  621MOL0     C85628   2.375   5.315   9.287 -0.2147  0.2106 -0.3974
  621MOL0     H85629   2.530   4.681   9.474 -1.7785  0.6051  1.3903
  621MOL0     H85630   2.715   4.571   9.568 -0.9604  0.1976  1.7445
  621MOL0     H85631   2.958   4.706   9.923 -0.3480  0.4767 -1.2408
  621MOL0     H85632   2.976   4.840   9.812 -1.9441  0.5031 -0.0339
  621MOL0     H85633   3.127   4.570   9.809 -1.4368  0.0762  0.1223
  621MOL0     H85634   3.117   4.657   9.660  1.4780 -3.1533 -0.4443
  621MOL0     H85635   3.318   4.737   9.751  1.8091 -1.4058  2.0463
  621MOL0     H85636   3.212   4.862   9.822  1.2089 -0.0276 -3.8842
  621MOL0     H85637   3.248   4.757  10.042  1.0401 -2.1253  3.2851
  621MOL0     H85638   3.290   4.601   9.975 -2.7128  1.1778  0.9778
  621MOL0     H85639   3.456   4.875   9.984  3.3956 -0.0897 -0.7620
  621MOL0     H85640   3.520   4.738   9.897 -0.6729 -2.9215  1.4543
  621MOL0     H85641   3.607   4.784  10.123 -0.3799  1.4160 -2.9677
  621MOL0     H85642   3.454   4.716  10.194  1.8959  0.4329  0.3819
  621MOL0     H85643   3.647   4.580  10.011 -0.1321 -2.3592 -0.1550
  621MOL0     H85644   3.485   4.511  10.035 -1.5013  3.1529 -2.0922
  621MOL0     H85645   3.660   4.414  10.182  1.1516  0.5823 -0.2615
  621MOL0     H85646   3.683   4.561  10.257  1.9708 -1.2164 -2.1099
  621MOL0     H85647   3.347   4.369  10.166  0.5599 -1.8297  0.9217
  621MOL0     H85648   3.120   4.352  10.276 -0.3089 -0.4250  1.0876
  621MOL0     H85649   3.097   4.428  10.434 -0.3321  0.7023 -1.8866
  621MOL0     H85650   3.220   4.245  10.554 -2.7962  1.3328  1.1164
  621MOL0     H85651   3.062   4.204  10.487 -0.7959  1.3211 -0.4449
  621MOL0     H85652   3.326   4.122  10.350  0.3575 -1.3313  0.2812
  621MOL0     H85653   3.223   4.002  10.431 -0.1808  0.4929  0.2141
  621MOL0     H85654   3.157   4.161  10.170  1.5650 -0.3637 -0.9695
  621MOL0     H85655   3.215   3.998  10.192 -0.0063 -0.5038  1.9348
  621MOL0     H85656   3.005   4.188  10.037 -3.0969  3.3448 -0.6570
  621MOL0     H85657   2.926   4.272   9.849 -0.2504  1.9111  0.1140
  621MOL0     H85658   2.749   4.301   9.841  0.7280  1.8890 -0.7222
  621MOL0     H85659   2.805   4.166   9.751 -1.4229  1.6389 -0.2600
  621MOL0     H85660   2.248   3.879  10.010  0.1972  2.7297  3.2030
  621MOL0     H85661   2.044   3.867   9.882  0.7259 -0.4918 -2.2625
  621MOL0     H85662   1.993   4.206   9.561 -2.2772  0.6112 -0.8721
  621MOL0     H85663   2.068   4.080   9.457  1.1258  2.1967  0.8572
  621MOL0     H85664   1.854   3.989   9.405 -1.6095  1.3049  0.7002
  621MOL0     H85665   1.771   4.087   9.531  2.2638  2.2866  1.1135
  621MOL0     H85666   1.929   4.220   9.309 -0.9308 -0.4558 -0.1796
  621MOL0     H85667   1.824   4.297   9.427 -1.9057  2.6984 -3.6174
  621MOL0     H85668   1.627   4.204   9.339  1.4922  0.0229  2.8689
  621MOL0     H85669   1.714   4.119   9.214 -0.7328 -0.8798 -0.2257
  621MOL0     H85670   1.784   4.329   9.098  2.2663  2.7407  1.0511
  621MOL0     H85671   1.607   4.345   9.142  0.9342  0.0826 -1.1120
  621MOL0     H85672   1.850   4.461   9.289 -0.1607  2.8463  1.2596
  621MOL0     H85673   1.690   4.469   9.346 -1.6862 -2.5827 -1.2602
  621MOL0     H85674   1.683   4.591   9.076 -4.1283 -2.4393  2.6328
  621MOL0     H85675   1.840   4.626   9.142 -0.5678  0.5445 -1.0232
  621MOL0     H85676   1.661   4.798   9.189  1.8445 -0.4608  0.1777
  621MOL0     H85677   1.741   4.736   9.342 -0.2183  2.5396  0.9504
  621MOL0     H85678   2.175   4.228   9.666 -1.8345  0.6391 -0.2279
  621MOL0     H85679   2.358   4.240   9.808 -2.2318  1.2840 -0.3621
  621MOL0     H85680   2.606   3.920  10.134 -0.5650  2.3901  2.5963
  621MOL0     H85681   2.808   3.911  10.281 -1.1312  2.0103  0.9004
  621MOL0     H85682   2.795   4.941   9.798  0.3423  1.0410  0.1556
  621MOL0     H85683   2.604   5.045   9.665 -1.7731 -0.1929 -1.2254
  621MOL0     H85684   2.221   4.899   9.437 -4.3584 -0.5280 -1.7120
  621MOL0     H85685   1.992   4.973   9.438  1.3629 -0.4715  2.1638
  621MOL0     H85686   1.696   5.157   9.337  0.2732  0.4096  0.0155
  621MOL0     H85687   1.812   5.023   9.338  1.0548 -0.0658 -0.2528
  621MOL0     H85688   1.791   5.225   9.568 -1.1565 -0.5855  2.4632
  621MOL0     H85689   1.852   5.064   9.582 -0.0298 -1.9461 -1.1972
  621MOL0     H85690   1.561   5.093   9.500 -0.5253 -0.3238  0.2179
  621MOL0     H85691   1.653   4.957   9.558  2.5000  0.5673 -1.0491
  621MOL0     H85692   1.700   5.076   9.776  0.8508 -0.5785 -0.2992
  621MOL0     H85693   1.542   5.011   9.741 -0.4783 -0.0043 -1.8873
  621MOL0     H85694   1.534   5.450   9.784 -0.4789  1.2061 -0.0990
  621MOL0     H85695   2.106   5.346   9.274  0.5359 -1.4155 -3.9776
  621MOL0     H85696   2.461   5.345   9.347 -1.3457  0.8126  0.9666
  621MOL0     H85697   2.398   5.272   9.188 -0.2214  1.8665 -1.1418
  621MOL0     H85698   2.322   5.409   9.270 -1.4781 -0.5646 -0.8905
  622MOL0     O85699   6.247   4.615   6.359  0.6221  0.4001 -0.0808
  622MOL0     C85700   6.279   4.599   6.245 -0.6048  0.6274  0.0710
  622MOL0     O85701   6.410   4.595   6.200  0.2428 -0.4781  0.7668
  622MOL0     C85702   6.515   4.627   6.276 -0.1226  0.0295 -0.4215
  622MOL0     C85703   6.568   4.756   6.270  0.2542 -0.7602 -0.3185
  622MOL0     C85704   6.687   4.787   6.344 -0.0047 -0.3654  0.3563
  622MOL0     C85705   6.741   4.701   6.437  0.0260 -0.0452  0.0566
  622MOL0     O85706   6.848   4.748   6.505 -0.2690  0.5581 -0.7978
  622MOL0     C85707   6.839   4.738   6.646 -0.1842 -0.8586 -0.0434
  622MOL0     C85708   6.964   4.770   6.738 -0.4055  0.2327  0.1950
  622MOL0     C85709   7.031   4.906   6.702 -0.1908  0.8347  0.0907
  622MOL0     C85710   7.146   4.945   6.796 -0.9314  0.2492  0.5185
  622MOL0     C85711   7.109   5.055   6.896  0.3248  0.2449  0.9696
  622MOL0     C85712   6.978   5.052   6.970 -0.1196  0.0936  1.3520
  622MOL0     C85713   6.949   5.142   7.094 -0.0385 -0.0490  0.1217
  622MOL0     C85714   6.944   5.294   7.062  0.5393  0.3514 -0.0060
  622MOL0     N85715   6.949   5.385   7.183  1.0753  0.6320 -0.1715
  622MOL0     C85716   6.968   5.519   7.177 -0.6266  0.5035  0.1268
  622MOL0     C85717   7.009   5.556   7.306 -0.2291  0.1287  0.3081
  622MOL0     C85718   7.027   5.700   7.347  0.1008 -0.6457  0.3447
  622MOL0     C85719   6.889   5.764   7.363  0.4085  0.0961 -0.1264
  622MOL0     C85720   6.798   5.699   7.469  0.1117 -0.3141  0.8665
  622MOL0     C85721   6.692   5.801   7.513 -0.0319  0.1831  0.5512
  622MOL0     O85722   6.584   5.813   7.417 -0.1040 -0.5925 -0.1595
  622MOL0     C85723   6.455   5.861   7.451 -0.3673  0.4399 -0.1141
  622MOL0     C85724   6.353   5.841   7.364 -0.3935  0.4664 -0.2539
  622MOL0     C85725   6.210   5.873   7.397  0.0299 -0.3003  1.1493
  622MOL0     C85726   6.118   5.842   7.289  0.9283  0.4902 -0.5723
  622MOL0     C85727   6.170   5.924   7.522  0.1262  0.2700  0.3468
  622MOL0     C85728   6.043   5.981   7.568  1.0389  0.0768  1.5666
  622MOL0     O85729   6.021   5.997   7.698  0.3048  0.1494  0.5572
  622MOL0     C85730   5.931   6.083   7.758 -0.3486  0.7042 -0.3304
  622MOL0     C85731   5.934   6.083   7.891 -0.3068  0.3902 -1.4518
  622MOL0     C85732   5.832   6.147   7.965  0.0642 -0.1230 -0.0852
  622MOL0     C85733   5.736   6.230   7.906 -0.1223 -0.7765  0.2206
  622MOL0     O85734   5.650   6.295   7.991 -0.2682  0.9436  0.0833
  622MOL0     C85735   5.527   6.350   7.940 -0.8685 -0.0026  0.8717
  622MOL0     C85736   5.405   6.309   8.030  0.4363  0.2186 -0.1854
  622MOL0     C85737   5.272   6.351   7.978 -0.7341 -0.6575 -0.0862
  622MOL0     C85738   5.162   6.316   8.081 -0.6462  0.4187 -0.0234
  622MOL0     C85739   5.162   6.395   8.219 -0.7363  0.2867 -0.2662
  622MOL0     C85740   5.047   6.342   8.318  0.4599 -0.7583  1.1127
  622MOL0     C85741   5.076   6.221   8.402 -0.0566  0.6669  0.6510
  622MOL0     C85742   5.176   6.257   8.509  0.2933  0.6587 -0.1645
  622MOL0    Cl85743   5.242   6.107   8.564  0.8733  0.1241  0.6281
  622MOL0     C85744   5.738   6.236   7.766 -0.4612  0.3928  0.5222
  622MOL0     C85745   5.832   6.159   7.688 -0.4172  0.4323  1.0317
  622MOL0     O85746   5.955   5.997   7.480  0.1928  0.4196 -0.0539
  622MOL0     C85747   6.279   5.932   7.610  0.0063  0.3501 -0.0321
  622MOL0     C85748   6.412   5.914   7.574 -0.7048  0.2813  0.8076
  622MOL0     N85749   7.009   5.445   7.387 -0.2776 -0.1903  1.3783
  622MOL0     N85750   6.980   5.348   7.307  0.2613 -0.2518  0.0562
  622MOL0     C85751   6.696   4.574   6.443 -0.5507 -0.4071 -0.5435
  622MOL0     C85752   6.580   4.541   6.364  0.2531  0.2544  0.3634
  622MOL0     C85753   6.169   4.558   6.153 -1.1306  0.2267  0.6632
  622MOL0     C85754   6.076   4.466   6.197  0.1989  0.1808  0.1612
  622MOL0     C85755   5.983   4.414   6.095 -0.2171 -0.8816  0.4322
  622MOL0     C85756   5.985   4.448   5.961  0.1878 -0.1055  0.1741
  622MOL0     O85757   5.873   4.408   5.887  0.3233 -0.0843 -0.1772
  622MOL0     C85758   5.817   4.497   5.792  0.1808 -0.6841  0.1105
  622MOL0     C85759   5.742   4.620   5.862 -0.3312 -0.2092 -0.4493
  622MOL0     C85760   5.615   4.567   5.935  0.4082 -0.4206 -1.4861
  622MOL0     C85761   5.580   4.651   6.065  0.2874  0.5967 -0.7179
  622MOL0     C85762   5.458   4.586   6.118 -0.2124  0.4704 -0.4763
  622MOL0     C85763   5.352   4.548   6.165  0.2958 -0.5508  0.0805
  622MOL0     C85764   6.087   4.535   5.921 -0.9373  0.2214 -0.1842
  622MOL0     C85765   6.176   4.590   6.014 -1.1413  0.7524 -0.2352
  622MOL0     C85766   6.268   4.696   5.964  0.6321 -0.4558 -0.6424
  622MOL0     H85767   6.526   4.827   6.199 -2.2529  0.1893  1.9753
  622MOL0     H85768   6.724   4.885   6.315 -0.7249  0.0028  0.6385
  622MOL0     H85769   6.806   4.640   6.683  2.9183 -0.6036  4.0445
  622MOL0     H85770   6.765   4.814   6.672 -0.7130 -1.4840  0.3319
  622MOL0     H85771   6.926   4.780   6.840  0.2367 -0.7420  0.5465
  622MOL0     H85772   7.032   4.684   6.740 -1.4986 -0.6404  0.6255
  622MOL0     H85773   7.071   4.899   6.601 -0.5626  0.7466 -0.0517
  622MOL0     H85774   6.953   4.982   6.692  0.2965  1.4205  0.6448
  622MOL0     H85775   7.180   4.859   6.855 -0.2087  1.4958  2.0094
  622MOL0     H85776   7.238   4.969   6.743  0.2078  0.1986  2.3818
  622MOL0     H85777   7.107   5.146   6.835  0.0566 -1.1675 -1.2619
  622MOL0     H85778   7.195   5.067   6.962  0.8499 -0.0957  0.3628
  622MOL0     H85779   6.895   5.066   6.901 -0.1379  1.9871  1.6827
  622MOL0     H85780   6.969   4.956   7.020  2.3228  0.8603  3.5181
  622MOL0     H85781   7.018   5.116   7.175  1.0347  2.9956  0.2948
  622MOL0     H85782   6.855   5.120   7.145  0.3205 -2.1671 -0.0306
  622MOL0     H85783   7.029   5.313   6.996 -0.7151 -1.4307 -2.2724
  622MOL0     H85784   6.852   5.300   7.003  1.6706  0.0011 -1.8652
  622MOL0     H85785   6.956   5.583   7.090  0.1745  0.6988  0.1470
  622MOL0     H85786   7.079   5.756   7.269 -3.3615 -0.7487 -2.2910
  622MOL0     H85787   7.082   5.698   7.442 -2.6587 -1.3967  2.0450
  622MOL0     H85788   6.906   5.869   7.387  2.2962 -0.3063  0.4469
  622MOL0     H85789   6.839   5.758   7.266  0.5635 -2.4777 -0.1347
  622MOL0     H85790   6.747   5.610   7.430  0.4787 -1.3149  2.5365
  622MOL0     H85791   6.858   5.670   7.555  0.2402  0.6708  1.1164
  622MOL0     H85792   6.657   5.777   7.614 -0.8646 -1.0538 -0.0032
  622MOL0     H85793   6.739   5.900   7.518 -1.5333  1.2572 -3.1051
  622MOL0     H85794   6.376   5.794   7.269  2.7400  0.6932  0.3115
  622MOL0     H85795   6.159   5.777   7.210 -1.6680  1.3244 -2.7357
  622MOL0     H85796   6.081   5.926   7.229  0.9420 -0.9757 -2.7626
  622MOL0     H85797   6.031   5.791   7.331 -1.0127  3.4814 -0.6851
  622MOL0     H85798   5.999   6.024   7.955 -1.3869  0.5678 -0.1584
  622MOL0     H85799   5.820   6.146   8.073 -0.4416  1.4667 -0.0969
  622MOL0     H85800   5.521   6.458   7.960  1.0082 -0.0182  1.6819
  622MOL0     H85801   5.506   6.327   7.836  2.0303  1.6725 -0.2155
  622MOL0     H85802   5.391   6.201   8.039  0.1122  0.2249 -0.5736
  622MOL0     H85803   5.413   6.347   8.132 -2.3751  1.1563 -0.2338
  622MOL0     H85804   5.252   6.302   7.883 -1.5740  1.3494 -0.9790
  622MOL0     H85805   5.273   6.459   7.964  1.2029 -0.6220  0.0560
  622MOL0     H85806   5.171   6.207   8.095  0.6763  0.5909  0.5495
  622MOL0     H85807   5.070   6.334   8.026 -0.1504 -2.1315 -1.8861
  622MOL0     H85808   5.256   6.384   8.275 -1.2151 -4.1524  0.0474
  622MOL0     H85809   5.140   6.498   8.190  0.3028  0.6998  0.3334
  622MOL0     H85810   4.958   6.325   8.258  1.0510 -3.9188  0.9474
  622MOL0     H85811   5.034   6.425   8.388  1.4071 -1.1975  1.8442
  622MOL0     H85812   5.109   6.140   8.336  0.6954  0.8000  0.8639
  622MOL0     H85813   4.982   6.184   8.446  0.4017  1.4350  2.3477
  622MOL0     H85814   5.132   6.321   8.587  3.1780  0.9088  1.4137
  622MOL0     H85815   5.255   6.314   8.460  0.0755  0.1207 -1.1642
  622MOL0     H85816   5.675   6.309   7.716  1.2248  1.3311 -0.3286
  622MOL0     H85817   5.817   6.168   7.581 -1.1353 -2.1116  0.8736
  622MOL0     H85818   6.258   5.956   7.714  1.1960  0.8617  0.1061
  622MOL0     H85819   6.487   5.922   7.653 -0.3116 -0.4608  0.5194
  622MOL0     H85820   6.751   4.507   6.509 -0.3996  2.4075  2.4918
  622MOL0     H85821   6.538   4.441   6.368  1.4640 -0.5470 -3.0515
  622MOL0     H85822   6.089   4.434   6.300  0.3857 -2.0925 -0.5154
  622MOL0     H85823   5.900   4.350   6.122 -0.8314  0.8780  3.1734
  622MOL0     H85824   5.889   4.527   5.715 -0.2671  0.9202  0.2703
  622MOL0     H85825   5.734   4.445   5.743  0.5662  0.1081 -1.4664
  622MOL0     H85826   5.711   4.700   5.794  0.2745 -0.1215 -0.6275
  622MOL0     H85827   5.816   4.661   5.932  0.1017 -2.5416  0.5504
  622MOL0     H85828   5.526   4.556   5.872 -0.7998 -1.9454  0.3932
  622MOL0     H85829   5.642   4.467   5.969  1.8253  0.2518 -0.5307
  622MOL0     H85830   5.561   4.758   6.055 -1.2943  1.0910  4.4259
  622MOL0     H85831   5.660   4.651   6.140 -2.0097  2.3733  1.9190
  622MOL0     H85832   5.265   4.510   6.216  0.2298  1.0195  1.2281
  622MOL0     H85833   6.085   4.568   5.818 -1.8859  2.9762  0.6138
  622MOL0     H85834   6.256   4.773   6.041 -1.6700 -1.5888  0.2285
  622MOL0     H85835   6.372   4.664   5.955  0.0211 -1.9701 -3.9343
  622MOL0     H85836   6.237   4.732   5.865 -1.0798  3.4479  1.0697
  623MOL0     O85837   4.196   9.781   9.637 -0.6989 -0.1412 -0.4092
  623MOL0     C85838   4.202   9.661   9.614  0.3149  0.7994  0.3748
  623MOL0     O85839   4.295   9.594   9.524  0.1578  0.1906  0.3164
  623MOL0     C85840   4.398   9.671   9.468 -1.1456  0.2182 -0.8419
  623MOL0     C85841   4.365   9.759   9.378 -0.5437  0.3969  0.2215
  623MOL0     C85842   4.478   9.827   9.315 -0.3761  0.4534  0.2318
  623MOL0     C85843   4.609   9.810   9.347 -0.9279  0.0233 -0.0521
  623MOL0     O85844   4.717   9.878   9.284 -0.4389  0.0045  0.3590
  623MOL0     C85845   4.704   9.931   9.152 -0.9906 -0.3399  0.5501
  623MOL0     C85846   4.852   9.977   9.118 -0.3453  0.4014  0.0292
  623MOL0     C85847   4.949   9.860   9.114  0.6804  0.0615 -0.1154
  623MOL0     C85848   4.907   9.759   9.006 -0.8235 -0.0375  0.0554
  623MOL0     C85849   4.939   9.610   9.042  0.3589 -0.3709  0.7745
  623MOL0     C85850   4.906   9.529   8.914  0.1164 -0.4960  0.2163
  623MOL0     C85851   4.962   9.395   8.908 -0.2648  0.1082 -0.3415
  623MOL0     C85852   4.946   9.316   8.782 -0.5299  0.4482 -0.7946
  623MOL0     N85853   4.810   9.272   8.755 -0.1030 -0.4958  0.5351
  623MOL0     C85854   4.772   9.141   8.760 -0.0750 -0.1093 -0.3054
  623MOL0     C85855   4.650   9.148   8.696  0.0995 -0.2538  0.4336
  623MOL0     C85856   4.580   9.020   8.657 -0.0294 -0.3368 -0.1065
  623MOL0     C85857   4.681   8.933   8.576 -0.4568 -0.8747  0.7212
  623MOL0     C85858   4.606   8.809   8.521 -0.3276 -0.4335  0.4387
  623MOL0     C85859   4.701   8.712   8.447 -0.0442  0.3145 -0.2394
  623MOL0     O85860   4.810   8.684   8.541 -0.2717 -0.0407 -0.1245
  623MOL0     C85861   4.926   8.608   8.511 -0.0875  0.5213 -0.3165
  623MOL0     C85862   4.974   8.592   8.388 -0.1963 -0.0553  0.1816
  623MOL0     C85863   5.063   8.506   8.344  0.3661  0.2518  0.6522
  623MOL0     C85864   5.099   8.501   8.200 -1.1236 -0.2342 -0.0175
  623MOL0     C85865   5.134   8.425   8.441 -0.2796  0.6262  0.4817
  623MOL0     C85866   5.243   8.329   8.409  0.3150  0.9751  0.1575
  623MOL0     O85867   5.332   8.294   8.506 -0.9571 -0.5839 -0.3999
  623MOL0     C85868   5.423   8.195   8.481  0.6280  0.0521 -0.1453
  623MOL0     C85869   5.389   8.076   8.419  0.2801 -0.6481 -1.0939
  623MOL0     C85870   5.483   7.969   8.402  0.9612  0.1947  0.7024
  623MOL0     C85871   5.609   7.983   8.445  0.9905 -0.2873 -0.3030
  623MOL0     O85872   5.707   7.891   8.430  1.0176 -0.0078 -0.6588
  623MOL0     C85873   5.697   7.793   8.323 -0.0930 -0.6927 -0.1262
  623MOL0     C85874   5.807   7.700   8.325  0.6111 -0.3340  1.0339
  623MOL0     C85875   5.928   7.778   8.287 -0.2215  0.1574 -1.1216
  623MOL0     C85876   6.042   7.675   8.257 -0.5864 -0.2453  0.3163
  623MOL0     C85877   6.176   7.752   8.219  0.6239  0.4168 -0.2451
  623MOL0     C85878   6.253   7.800   8.342  1.1575 -0.6513 -0.5466
  623MOL0     C85879   6.376   7.876   8.295  0.2113 -0.0230 -0.5199
  623MOL0     C85880   6.451   7.927   8.419 -0.2477 -0.4065  1.1647
  623MOL0    Cl85881   6.514   7.789   8.508  0.0861 -0.0370  0.3067
  623MOL0     C85882   5.651   8.098   8.510 -0.4484 -0.8084  0.1685
  623MOL0     C85883   5.556   8.203   8.525  0.5043 -0.0866 -0.5872
  623MOL0     O85884   5.245   8.278   8.297  1.0592 -0.2973  0.1666
  623MOL0     C85885   5.101   8.447   8.574  0.5314  0.3333 -0.4609
  623MOL0     C85886   4.998   8.542   8.615 -0.5838  0.4839  0.1403
  623MOL0     N85887   4.613   9.277   8.665 -0.3342  0.1439 -0.6302
  623MOL0     N85888   4.716   9.355   8.697 -0.1760  0.4329  0.4892
  623MOL0     C85889   4.640   9.715   9.440 -0.0939  0.3191  0.3505
  623MOL0     C85890   4.539   9.638   9.495  0.1950  0.6017 -0.4586
  623MOL0     C85891   4.085   9.594   9.678  0.9859  0.4299  0.5430
  623MOL0     C85892   4.025   9.659   9.788  0.3229  0.3579  0.5760
  623MOL0     C85893   3.924   9.596   9.866 -0.0950 -0.2364 -0.7406
  623MOL0     C85894   3.882   9.466   9.831 -0.0026  1.2286  0.0805
  623MOL0     O85895   3.767   9.414   9.894  0.4945 -0.3124 -0.4669
  623MOL0     C85896   3.684   9.311   9.842 -0.7022  0.2662 -0.4833
  623MOL0     C85897   3.739   9.173   9.885  0.5391  0.6496  0.3134
  623MOL0     C85898   3.658   9.068   9.816  0.2976  0.8702 -0.8361
  623MOL0     C85899   3.670   8.935   9.882  0.0173 -0.9217 -0.1414
  623MOL0     C85900   3.606   8.825   9.811 -0.0019 -0.9916 -0.0044
  623MOL0     C85901   3.546   8.739   9.762 -0.3776  0.2088 -0.2671
  623MOL0     C85902   3.938   9.402   9.714 -0.6024 -0.4722  0.1556
  623MOL0     C85903   4.035   9.468   9.642  0.5894  0.0540 -0.5669
  623MOL0     C85904   4.081   9.391   9.519  0.5719 -0.3989 -0.6251
  623MOL0     H85905   4.264   9.794   9.358 -0.2586  1.5130  0.6320
  623MOL0     H85906   4.442   9.896   9.240 -0.6127  2.9390  2.4753
  623MOL0     H85907   4.641  10.021   9.155 -1.2189 -0.4898  0.2374
  623MOL0     H85908   4.663   9.863   9.076  2.8388 -0.4078 -1.7475
  623MOL0     H85909   4.847  10.027   9.021  0.1264  0.1068 -0.1525
  623MOL0     H85910   4.890  10.045   9.195  3.6427 -1.2071 -0.2432
  623MOL0     H85911   5.049   9.896   9.088  0.7116  0.1882  0.1791
  623MOL0     H85912   4.960   9.807   9.208  0.6844 -1.6773 -1.0524
  623MOL0     H85913   4.806   9.759   8.963 -0.3677 -0.9706 -1.0499
  623MOL0     H85914   4.966   9.789   8.919 -0.1239 -2.3360 -0.3299
  623MOL0     H85915   4.869   9.575   9.118 -1.2547  1.4009  0.1797
  623MOL0     H85916   5.043   9.602   9.074 -0.3393  0.6413  3.5885
  623MOL0     H85917   4.798   9.544   8.910  0.4193  2.3535  0.7021
  623MOL0     H85918   4.948   9.583   8.828 -1.5980  1.9288  0.8178
  623MOL0     H85919   4.915   9.335   8.986 -2.0606  1.0409 -0.6642
  623MOL0     H85920   5.069   9.400   8.929 -0.5471  0.1872  1.2244
  623MOL0     H85921   4.961   9.393   8.707  0.1639  0.7141 -0.3923
  623MOL0     H85922   5.019   9.235   8.792  3.0478  3.6110  1.3295
  623MOL0     H85923   4.826   9.051   8.790  1.9096  1.4593  1.0780
  623MOL0     H85924   4.507   9.055   8.583  0.7850 -1.0476 -1.2643
  623MOL0     H85925   4.551   8.970   8.750  0.2261 -0.8811 -0.3214
  623MOL0     H85926   4.737   8.989   8.499 -2.2230 -0.6956 -0.4827
  623MOL0     H85927   4.759   8.899   8.645  0.1461  1.4276  1.2663
  623MOL0     H85928   4.550   8.763   8.603  1.1365 -2.1564  0.5649
  623MOL0     H85929   4.533   8.852   8.452 -2.6270 -2.6670  1.3098
  623MOL0     H85930   4.647   8.621   8.419 -0.7455  0.6825 -0.0859
  623MOL0     H85931   4.724   8.763   8.354 -5.2744  3.2960 -0.2576
  623MOL0     H85932   4.931   8.651   8.307  0.0741 -0.8795 -0.5765
  623MOL0     H85933   5.207   8.514   8.188 -1.2181  0.9550  0.3218
  623MOL0     H85934   5.052   8.584   8.146 -1.9683  1.1072  2.6399
  623MOL0     H85935   5.064   8.408   8.154  0.9678 -2.0199  1.7670
  623MOL0     H85936   5.290   8.045   8.387  1.3708 -2.3535 -3.0504
  623MOL0     H85937   5.444   7.869   8.383  1.5618 -0.2004  1.5311
  623MOL0     H85938   5.600   7.749   8.347 -2.4763  3.0014 -2.1667
  623MOL0     H85939   5.684   7.842   8.227 -0.5489 -3.8668 -1.8337
  623MOL0     H85940   5.828   7.659   8.424 -2.9319 -1.2159  1.5447
  623MOL0     H85941   5.778   7.614   8.264 -3.2390  1.8272 -0.5300
  623MOL0     H85942   5.956   7.838   8.374 -1.1432  0.6533 -1.1556
  623MOL0     H85943   5.918   7.851   8.206 -0.8896  1.1980 -0.1212
  623MOL0     H85944   6.012   7.621   8.167  1.2007 -0.5170 -0.1669
  623MOL0     H85945   6.045   7.603   8.339 -3.2593 -1.5906 -0.6429
  623MOL0     H85946   6.237   7.691   8.152 -1.3264 -0.9891 -0.8332
  623MOL0     H85947   6.143   7.844   8.169 -0.7872  0.2903  0.4155
  623MOL0     H85948   6.284   7.714   8.402  1.8179 -0.9710 -1.3314
  623MOL0     H85949   6.185   7.862   8.401  2.2422  0.8154 -0.7677
  623MOL0     H85950   6.360   7.951   8.217 -0.8306 -2.6035 -2.9528
  623MOL0     H85951   6.439   7.799   8.249  0.5680  1.1251 -2.0555
  623MOL0     H85952   6.395   8.002   8.475  1.1322  0.1661  1.8334
  623MOL0     H85953   6.532   7.985   8.374 -0.9887 -2.5116 -3.4029
  623MOL0     H85954   5.754   8.121   8.535 -0.4938  3.0709 -2.2349
  623MOL0     H85955   5.587   8.289   8.584  0.6233 -0.6832  0.2332
  623MOL0     H85956   5.147   8.396   8.658 -0.4267  1.6220  0.9163
  623MOL0     H85957   4.978   8.558   8.720  0.1920  1.0896  0.2019
  623MOL0     H85958   4.742   9.679   9.450 -0.7085 -2.4881 -2.0258
  623MOL0     H85959   4.557   9.556   9.565 -0.2395  0.9137  0.0226
  623MOL0     H85960   4.070   9.751   9.824  0.0012 -0.2063  2.5357
  623MOL0     H85961   3.884   9.645   9.953  3.2824 -0.8554  1.3527
  623MOL0     H85962   3.585   9.326   9.887 -1.1578 -1.3403 -0.8938
  623MOL0     H85963   3.667   9.317   9.734 -3.3725  2.1496 -0.0640
  623MOL0     H85964   3.726   9.163   9.994 -0.8172 -0.1878  0.0954
  623MOL0     H85965   3.847   9.158   9.872  0.5139  1.3030 -0.7020
  623MOL0     H85966   3.557   9.109   9.812  0.9920  2.6523 -1.1869
  623MOL0     H85967   3.708   9.062   9.719  1.2559  1.4341 -0.3988
  623MOL0     H85968   3.646   8.941   9.989 -1.3812 -0.1504 -0.4696
  623MOL0     H85969   3.776   8.910   9.888  0.0931 -0.4378  0.8772
  623MOL0     H85970   3.483   8.653   9.750 -1.0453  0.4637  1.1938
  623MOL0     H85971   3.905   9.305   9.679 -2.7144  0.7929 -1.6459
  623MOL0     H85972   4.089   9.460   9.435  0.0200  0.9136  0.3759
  623MOL0     H85973   4.181   9.352   9.539 -0.0433 -1.4595  0.4793
  623MOL0     H85974   4.020   9.304   9.493 -1.3857  1.0437 -1.0465
  624MOL0     O85975   1.013   3.336  10.560 -0.2085  0.2721  0.2366
  624MOL0     C85976   1.088   3.393  10.636 -0.3820  0.3293  0.9437
  624MOL0     O85977   1.214   3.361  10.657 -0.2150  0.2010 -0.2984
  624MOL0     C85978   1.255   3.237  10.633  0.2120 -0.3037 -0.3609
  624MOL0     C85979   1.291   3.210  10.502  0.3175 -0.3003 -0.5255
  624MOL0     C85980   1.322   3.073  10.480 -1.2340 -0.2392  0.5761
  624MOL0     C85981   1.339   2.974  10.580  0.0306 -0.2048  0.0904
  624MOL0     O85982   1.383   2.840  10.550  0.4254 -0.4247 -0.0242
  624MOL0     C85983   1.518   2.813  10.589 -0.1393  0.0076  0.2780
  624MOL0     C85984   1.615   2.900  10.509 -0.0238  0.1970 -0.6705
  624MOL0     C85985   1.630   2.852  10.363  0.1259 -0.1506 -0.1853
  624MOL0     C85986   1.749   2.921  10.301 -1.0708 -1.3404 -0.0184
  624MOL0     C85987   1.815   2.864  10.179 -0.1633  0.6140  0.4408
  624MOL0     C85988   1.731   2.810  10.058 -0.5031  0.3705 -0.2297
  624MOL0     C85989   1.830   2.729   9.967 -0.0504 -1.3019 -0.7048
  624MOL0     C85990   1.761   2.651   9.860  0.3890 -0.0342 -0.0445
  624MOL0     N85991   1.697   2.733   9.758 -1.2365  0.1943 -0.9656
  624MOL0     C85992   1.749   2.775   9.640  0.2526  0.3694 -0.4841
  624MOL0     C85993   1.665   2.861   9.584 -0.6114  0.3175 -0.5301
  624MOL0     C85994   1.706   2.944   9.467  0.0427 -0.4220 -0.2299
  624MOL0     C85995   1.655   3.085   9.466  0.1521 -0.6479 -0.6704
  624MOL0     C85996   1.714   3.196   9.551  0.1128 -0.0439  0.1926
  624MOL0     C85997   1.788   3.146   9.685 -0.2628  0.0829  1.0683
  624MOL0     O85998   1.805   3.256   9.772  0.8185  0.1642 -0.2119
  624MOL0     C85999   1.861   3.249   9.894 -0.2346  0.5119 -0.5851
  624MOL0     C86000   1.854   3.368   9.978  1.2919 -0.1336  0.0024
  624MOL0     C86001   1.913   3.377  10.105  0.1191 -0.9497 -0.7667
  624MOL0     C86002   1.909   3.514  10.167 -0.3334 -0.0060  0.0481
  624MOL0     C86003   1.987   3.266  10.155  0.1609 -0.2653 -0.8692
  624MOL0     C86004   2.042   3.263  10.289  0.1870  0.0949 -0.2615
  624MOL0     O86005   2.015   3.359  10.377 -0.5174  0.1583  0.1646
  624MOL0     C86006   2.095   3.371  10.490  0.2506 -0.9114 -0.5047
  624MOL0     C86007   2.219   3.430  10.470  0.8505 -0.1881  0.7413
  624MOL0     C86008   2.302   3.450  10.583 -0.4379 -0.0461 -0.0983
  624MOL0     C86009   2.256   3.434  10.713  0.0238  0.6487 -0.5928
  624MOL0     O86010   2.327   3.474  10.821 -0.1647 -0.2544 -1.5242
  624MOL0     C86011   2.468   3.448  10.837 -0.4166  0.5361 -0.4935
  624MOL0     C86012   2.480   3.312  10.897  0.1422 -0.3274  0.3570
  624MOL0     C86013   2.615   3.279  10.959 -0.2293  0.6436  0.0554
  624MOL0     C86014   2.640   3.329  11.095  0.6462 -0.2379 -0.4313
  624MOL0     C86015   2.741   3.255  11.178 -0.3849 -0.4713 -0.9107
  624MOL0     C86016   2.768   3.328  11.314  0.1623  1.2514 -0.0295
  624MOL0     C86017   2.874   3.442  11.300 -0.3685 -0.2588 -0.0115
  624MOL0     C86018   2.926   3.482  11.435 -0.8172 -0.2788  1.2422
  624MOL0    Cl86019   2.810   3.576  11.514  0.0476 -0.0831 -0.2772
  624MOL0     C86020   2.128   3.381  10.734 -0.2773 -0.1863  0.5469
  624MOL0     C86021   2.046   3.343  10.619  0.0061  0.5529  0.4087
  624MOL0     O86022   2.115   3.170  10.310  0.4989  0.6645  0.3447
  624MOL0     C86023   2.002   3.152  10.074 -0.8119  0.2733  0.6550
  624MOL0     C86024   1.937   3.144   9.945 -0.1328  0.2739 -0.6650
  624MOL0     N86025   1.555   2.867   9.667  0.3323 -0.3101  0.0323
  624MOL0     N86026   1.574   2.786   9.766  0.4140 -0.9533 -0.2547
  624MOL0     C86027   1.314   3.018  10.712  0.0997  0.4506 -0.0488
  624MOL0     C86028   1.273   3.146  10.735 -1.1441 -0.1867 -0.6371
  624MOL0     C86029   1.039   3.506  10.717  0.0125  0.3087  0.6378
  624MOL0     C86030   1.137   3.581  10.775 -0.5067  0.1181 -0.6646
  624MOL0     C86031   1.103   3.699  10.847 -0.3295  0.2715  0.4985
  624MOL0     C86032   0.974   3.733  10.867  0.0437  0.7105 -0.5265
  624MOL0     O86033   0.942   3.843  10.949  0.3958  0.1008  0.1588
  624MOL0     C86034   0.900   3.810  11.081  0.2867  0.7251  0.3290
  624MOL0     C86035   0.932   3.921  11.177  0.2381 -0.1789 -0.7887
  624MOL0     C86036   1.084   3.958  11.191 -0.4725 -0.0641 -0.3663
  624MOL0     C86037   1.123   4.029  11.319  0.3891 -0.3220  0.2818
  624MOL0     C86038   1.115   3.928  11.424  0.0364  0.9954  0.4287
  624MOL0     C86039   1.104   3.842  11.508 -0.8126  0.3203 -0.3652
  624MOL0     C86040   0.873   3.649  10.816 -0.2050 -0.4555 -0.3093
  624MOL0     C86041   0.903   3.540  10.739 -1.0958  0.3872 -0.1030
  624MOL0     C86042   0.783   3.446  10.719  0.3133  0.4229  0.1257
  624MOL0     H86043   1.267   3.280  10.423  0.9966  0.1430 -0.3478
  624MOL0     H86044   1.331   3.034  10.379  1.0595 -2.1040  1.4149
  624MOL0     H86045   1.534   2.706  10.576  1.4616  0.3621 -1.0293
  624MOL0     H86046   1.542   2.842  10.691 -1.2414  2.6314 -0.1158
  624MOL0     H86047   1.590   3.007  10.509  2.9698  1.0002 -0.4111
  624MOL0     H86048   1.718   2.896  10.546  1.2398 -2.3110 -3.9678
  624MOL0     H86049   1.641   2.743  10.365 -2.5776 -0.5337 -1.2848
  624MOL0     H86050   1.535   2.859  10.309  0.4873 -0.8879 -0.9517
  624MOL0     H86051   1.717   3.022  10.275 -1.0291 -0.6888  2.2701
  624MOL0     H86052   1.832   2.937  10.370 -0.8270 -2.2126 -0.0967
  624MOL0     H86053   1.864   2.775  10.217  0.8907 -0.4382 -3.0234
  624MOL0     H86054   1.902   2.923  10.150  0.3280 -1.3384 -2.4176
  624MOL0     H86055   1.653   2.745  10.097 -0.4080  1.8619  2.6956
  624MOL0     H86056   1.689   2.896  10.005 -0.7651  0.0768 -0.5003
  624MOL0     H86057   1.887   2.654  10.022  2.2809 -1.3929 -3.0494
  624MOL0     H86058   1.897   2.800   9.917 -1.1046 -0.1430 -0.5382
  624MOL0     H86059   1.824   2.585   9.800 -0.0274  0.6251 -1.2603
  624MOL0     H86060   1.687   2.585   9.906 -0.4652  1.0625  0.2187
  624MOL0     H86061   1.846   2.750   9.598 -0.3242  1.1379 -2.3860
  624MOL0     H86062   1.678   2.902   9.370 -0.0295  0.6377 -0.6779
  624MOL0     H86063   1.814   2.946   9.483  0.0331  2.2706 -0.0200
  624MOL0     H86064   1.671   3.118   9.363  0.4275  2.1561  0.2023
  624MOL0     H86065   1.547   3.075   9.478 -0.0146 -0.7564 -2.0606
  624MOL0     H86066   1.793   3.241   9.491 -1.9109  0.7100 -2.0392
  624MOL0     H86067   1.640   3.267   9.587  1.4638  0.1098  2.9271
  624MOL0     H86068   1.728   3.069   9.735 -2.5237  0.9708 -0.0885
  624MOL0     H86069   1.884   3.098   9.665 -1.4090 -1.6485 -0.7603
  624MOL0     H86070   1.811   3.461   9.942  0.6900 -1.3488 -2.6898
  624MOL0     H86071   1.849   3.508  10.259 -1.2817 -0.2883 -0.5751
  624MOL0     H86072   1.864   3.583  10.095 -1.0482 -0.8340 -0.3069
  624MOL0     H86073   2.011   3.540  10.197 -0.1926 -0.5582  0.0486
  624MOL0     H86074   2.254   3.455  10.371  0.3646  0.4159  0.7135
  624MOL0     H86075   2.401   3.493  10.571 -1.1527  1.2386 -1.7831
  624MOL0     H86076   2.530   3.461  10.748 -2.5653  0.1842 -2.1260
  624MOL0     H86077   2.507   3.524  10.904  0.5611 -0.6998  0.4044
  624MOL0     H86078   2.405   3.304  10.976  0.3429 -2.6875  0.3624
  624MOL0     H86079   2.453   3.250  10.811 -1.0759 -0.1433  0.5810
  624MOL0     H86080   2.697   3.314  10.897 -0.1752 -3.1295 -2.3602
  624MOL0     H86081   2.623   3.170  10.965  1.3280  0.5087 -2.8875
  624MOL0     H86082   2.548   3.309  11.150  0.8967 -2.8727 -0.8323
  624MOL0     H86083   2.652   3.437  11.095 -3.3791  0.3919  0.8794
  624MOL0     H86084   2.690   3.158  11.188 -1.6438  0.2794  0.3712
  624MOL0     H86085   2.840   3.240  11.136 -0.0544  3.2006 -1.7492
  624MOL0     H86086   2.804   3.254  11.385 -2.5208 -0.4551 -0.3099
  624MOL0     H86087   2.669   3.351  11.353 -0.9492  0.3466 -2.1107
  624MOL0     H86088   2.829   3.525  11.244  1.0935 -1.2263 -2.8154
  624MOL0     H86089   2.961   3.403  11.246  1.1324 -0.9336  2.6922
  624MOL0     H86090   3.011   3.547  11.415 -1.5997  0.5300  0.4308
  624MOL0     H86091   2.958   3.392  11.489  1.6643 -1.5806 -2.0773
  624MOL0     H86092   2.077   3.365  10.828 -1.5919 -0.1536 -0.1272
  624MOL0     H86093   1.946   3.303  10.626 -0.2463  0.9881 -0.6016
  624MOL0     H86094   2.055   3.068  10.117 -1.5666  0.9489  3.0247
  624MOL0     H86095   1.929   3.052   9.888 -3.1368 -0.5284  0.8469
  624MOL0     H86096   1.323   2.950  10.795 -1.7402  0.9525  0.6071
  624MOL0     H86097   1.257   3.177  10.837 -0.0723  2.6819 -1.2493
  624MOL0     H86098   1.244   3.572  10.760 -0.7284 -1.8893 -1.3761
  624MOL0     H86099   1.187   3.762  10.872 -0.2256  0.5416 -0.5068
  624MOL0     H86100   0.794   3.782  11.084  0.8387 -1.4696  0.6565
  624MOL0     H86101   0.966   3.729  11.113 -0.2744  0.9098  2.0914
  624MOL0     H86102   0.902   3.874  11.271 -1.8315  0.0731 -1.2561
  624MOL0     H86103   0.861   3.999  11.148 -1.9502 -2.5610 -2.3877
  624MOL0     H86104   1.150   3.873  11.176 -1.8294 -0.6314 -4.0849
  624MOL0     H86105   1.107   4.025  11.108 -2.4949  0.7277 -0.3414
  624MOL0     H86106   1.056   4.112  11.341  1.5249  0.4791  0.7746
  624MOL0     H86107   1.227   4.061  11.314 -0.1358  1.4746  0.2641
  624MOL0     H86108   1.090   3.769  11.585  2.1755 -1.6073 -1.4730
  624MOL0     H86109   0.772   3.683  10.833 -1.1494  1.4699 -6.9865
  624MOL0     H86110   0.764   3.423  10.613 -3.6457 -1.2772  1.0368
  624MOL0     H86111   0.794   3.351  10.771 -0.0453  0.0983 -0.3853
  624MOL0     H86112   0.692   3.498  10.751  0.6316  0.4705  0.9590
  625MOL0     O86113   5.726  10.085   9.789  0.1454  0.0001  0.6404
  625MOL0     C86114   5.671  10.018   9.872  1.2129  0.5013  0.0494
  625MOL0     O86115   5.733   9.921   9.957 -0.3230 -0.3228 -0.9018
  625MOL0     C86116   5.863   9.889   9.930 -1.2008 -0.5172  0.0521
  625MOL0     C86117   5.895   9.782   9.844  1.0307 -0.1683 -1.0060
  625MOL0     C86118   6.034   9.760   9.807 -0.7818 -1.4037 -0.3474
  625MOL0     C86119   6.137   9.842   9.862 -0.2995 -0.3463 -0.6375
  625MOL0     O86120   6.263   9.821   9.829  0.2952 -0.1436  0.0805
  625MOL0     C86121   6.320   9.701   9.877  0.8619  1.2281 -0.6619
  625MOL0     C86122   6.462   9.676   9.818  0.2983 -0.1476 -0.2176
  625MOL0     C86123   6.569   9.778   9.860  0.7102 -0.3610  0.2705
  625MOL0     C86124   6.703   9.713   9.885  0.7576  0.0487 -0.3141
  625MOL0     C86125   6.815   9.818   9.908  0.2111 -0.1359  0.1743
  625MOL0     C86126   6.851   9.910   9.786  0.2811 -0.0785  0.1509
  625MOL0     C86127   6.960  10.018   9.823  0.7153 -0.3151 -0.5238
  625MOL0     C86128   6.890  10.136   9.885  0.7773 -0.2850 -0.8068
  625MOL0     N86129   6.992  10.247   9.908 -0.6814  0.2777  0.4650
  625MOL0     C86130   7.026  10.341   9.821  1.4382  0.3748  0.0636
  625MOL0     C86131   7.130  10.406   9.870  0.9627 -0.3165  0.1217
  625MOL0     C86132   7.192  10.524   9.797  0.1259  0.1379  0.2562
  625MOL0     C86133   7.343  10.528   9.798  0.2430 -0.3038  0.0101
  625MOL0     C86134   7.404  10.438   9.689  0.4374 -0.2345 -0.2010
  625MOL0     C86135   7.550  10.417   9.714 -0.2497 -0.1099  0.7974
  625MOL0     O86136   7.606  10.393   9.582 -0.4400 -0.3771  0.2564
  625MOL0     C86137   7.732  10.343   9.575  0.6602 -0.6217 -0.2912
  625MOL0     C86138   7.811  10.302   9.690  0.4041 -0.2503  0.0707
  625MOL0     C86139   7.937  10.254   9.684  0.8466  0.5126  0.1584
  625MOL0     C86140   8.001  10.215   9.817 -0.0178 -0.3385 -0.0066
  625MOL0     C86141   7.985  10.231   9.554 -0.4815  0.9508 -0.3315
  625MOL0     C86142   8.121  10.167   9.525  0.4526 -0.1768 -0.0332
  625MOL0     O86143   8.126  10.093   9.415  0.7815 -0.0672 -0.7211
  625MOL0     C86144   8.249  10.034   9.391 -0.7236  0.8108  0.1369
  625MOL0     C86145   8.317  10.075   9.284  0.2856 -0.3170 -0.0586
  625MOL0     C86146   8.442  10.017   9.254 -0.7718 -0.6770  0.5448
  625MOL0     C86147   8.500   9.925   9.345 -0.3791  0.0848 -0.1362
  625MOL0     O86148   8.629   9.881   9.326  0.6776 -0.0103 -0.2234
  625MOL0     C86149   8.698   9.927   9.210  0.9163 -0.2599  0.4877
  625MOL0     C86150   8.847   9.903   9.227  0.7286 -0.3895  0.1673
  625MOL0     C86151   8.930   9.902   9.096 -0.1384 -0.0421  0.1711
  625MOL0     C86152   9.082   9.896   9.135  0.1160  0.5670 -0.7025
  625MOL0     C86153   9.182   9.867   9.018 -0.3787 -0.7268  0.1969
  625MOL0     C86154   9.193   9.716   8.977  0.4750 -0.5850 -0.0535
  625MOL0     C86155   9.278   9.712   8.856 -0.4186  0.9484  0.8924
  625MOL0     C86156   9.421   9.659   8.886 -1.0234  0.9876 -1.3333
  625MOL0    Cl86157   9.413   9.481   8.907 -0.1999 -0.0259  0.7481
  625MOL0     C86158   8.424   9.886   9.453  0.0841 -0.2034  0.5087
  625MOL0     C86159   8.293   9.929   9.468  0.0323 -0.3041  1.1040
  625MOL0     O86160   8.208  10.174   9.610 -0.2616 -0.1720 -0.1497
  625MOL0     C86161   7.910  10.274   9.443 -0.6860 -0.7230  0.2101
  625MOL0     C86162   7.781  10.319   9.450 -0.2022  0.2666  0.5338
  625MOL0     N86163   7.159  10.350   9.991 -0.5200  1.0179 -0.1410
  625MOL0     N86164   7.081  10.252  10.012 -0.1767  0.2619 -0.5245
  625MOL0     C86165   6.107   9.937   9.959 -0.7164 -1.0130  0.5294
  625MOL0     C86166   5.975   9.962   9.985 -0.0384 -0.1633 -0.7863
  625MOL0     C86167   5.527  10.036   9.890  0.2284 -0.8527 -0.0005
  625MOL0     C86168   5.471   9.985  10.012 -0.9745 -0.2616 -0.1768
  625MOL0     C86169   5.340  10.002  10.054  0.1357 -0.4592 -0.1612
  625MOL0     C86170   5.247  10.063   9.967 -1.1966 -0.6118  0.0393
  625MOL0     O86171   5.119  10.081  10.006 -0.2401  0.1966  0.7530
  625MOL0     C86172   5.015  10.143   9.927 -0.1806  0.0717 -0.5885
  625MOL0     C86173   4.895  10.162  10.010 -0.4751 -0.1258 -0.0608
  625MOL0     C86174   4.930  10.216  10.147 -0.5257  0.2263 -0.4103
  625MOL0     C86175   4.799  10.263  10.220 -0.1415 -0.6939 -0.0642
  625MOL0     C86176   4.745  10.389  10.165 -0.5974  0.3608 -0.4991
  625MOL0     C86177   4.679  10.484  10.127  0.0406  0.0394  0.2790
  625MOL0     C86178   5.292  10.110   9.843 -0.2726 -0.3145 -0.5594
  625MOL0     C86179   5.432  10.097   9.809 -1.2169 -0.1339  0.0824
  625MOL0     C86180   5.476  10.139   9.672 -0.0562  0.2216 -0.5019
  625MOL0     H86181   5.803   9.738   9.807  0.4259  1.8911 -2.1846
  625MOL0     H86182   6.066   9.685   9.736 -0.9698 -1.1995 -0.6494
  625MOL0     H86183   6.268   9.611   9.845  2.3817  0.1253 -0.1458
  625MOL0     H86184   6.313   9.699   9.986 -3.2717  2.9299 -0.7238
  625MOL0     H86185   6.488   9.572   9.842 -2.9723 -1.1209 -0.3700
  625MOL0     H86186   6.442   9.673   9.710  2.4201  0.7530 -0.6787
  625MOL0     H86187   6.579   9.857   9.786 -2.1045 -0.5202 -0.3868
  625MOL0     H86188   6.541   9.829   9.953  0.1833 -0.0575 -0.0556
  625MOL0     H86189   6.705   9.650   9.975  0.4631  1.3773  0.6549
  625MOL0     H86190   6.726   9.652   9.798 -0.0092 -0.6025 -0.0712
  625MOL0     H86191   6.907   9.769   9.941  1.8049  2.7008  0.2435
  625MOL0     H86192   6.781   9.869   9.999  1.6500 -4.9404  3.7801
  625MOL0     H86193   6.895   9.852   9.705  0.7891  1.1273 -0.4667
  625MOL0     H86194   6.762   9.962   9.748 -1.7782 -1.5379  2.6384
  625MOL0     H86195   7.015  10.043   9.732  0.9396 -1.1855 -0.6407
  625MOL0     H86196   7.030   9.979   9.897  0.3030  0.4446  0.2777
  625MOL0     H86197   6.814  10.189   9.827 -0.9883  2.6258  3.6039
  625MOL0     H86198   6.842  10.110   9.980  1.2426 -0.2958 -0.5713
  625MOL0     H86199   6.973  10.369   9.730  3.5877  1.6063 -0.8900
  625MOL0     H86200   7.146  10.604   9.856 -1.2565 -0.7502  0.4307
  625MOL0     H86201   7.162  10.544   9.693  1.5550  3.5083  0.3581
  625MOL0     H86202   7.378  10.629   9.773 -2.1323  0.0931 -2.0373
  625MOL0     H86203   7.379  10.508   9.900  0.1250  3.0290  0.8166
  625MOL0     H86204   7.353  10.342   9.681  0.1344 -0.0016 -1.0749
  625MOL0     H86205   7.392  10.492   9.595 -2.2983  1.9724  1.2696
  625MOL0     H86206   7.607  10.489   9.773 -1.8613  0.2925  1.9582
  625MOL0     H86207   7.551  10.324   9.772 -4.2918 -0.6120  0.3842
  625MOL0     H86208   7.757  10.314   9.784 -0.1973  2.8377 -0.5884
  625MOL0     H86209   8.109  10.232   9.823 -0.0796 -0.0150  0.2323
  625MOL0     H86210   7.994  10.107   9.829  1.4130 -0.2922  1.6493
  625MOL0     H86211   7.954  10.260   9.905 -1.0161 -0.9164 -0.2265
  625MOL0     H86212   8.276  10.150   9.216  3.4087  2.0573  0.4039
  625MOL0     H86213   8.498  10.060   9.171 -0.7257 -0.5796  0.6256
  625MOL0     H86214   8.652   9.878   9.124  0.1375 -0.2982  0.9167
  625MOL0     H86215   8.693  10.036   9.198 -0.4690 -0.3385  0.1723
  625MOL0     H86216   8.884   9.978   9.298 -1.9591  0.0771  1.1942
  625MOL0     H86217   8.845   9.802   9.270 -1.0272 -0.3578  0.1972
  625MOL0     H86218   8.903   9.996   9.047 -0.0757 -0.0147  0.1917
  625MOL0     H86219   8.904   9.812   9.039  1.9846 -1.6840  1.6683
  625MOL0     H86220   9.088   9.821   9.215 -2.0137  0.6738 -0.3732
  625MOL0     H86221   9.110   9.994   9.175  0.8953 -0.4612  1.4337
  625MOL0     H86222   9.149   9.939   8.942 -1.8895 -0.4659  1.0480
  625MOL0     H86223   9.282   9.903   9.043  0.4831 -2.7229 -0.2054
  625MOL0     H86224   9.093   9.677   8.957  0.4415 -0.6447  0.2215
  625MOL0     H86225   9.232   9.656   9.060 -1.1234 -0.0745  1.1215
  625MOL0     H86226   9.291   9.812   8.812 -0.0216 -0.0282 -1.3236
  625MOL0     H86227   9.238   9.641   8.783  1.0413  0.2174  0.7723
  625MOL0     H86228   9.463   9.702   8.977 -1.1307  3.3617 -2.3334
  625MOL0     H86229   9.496   9.673   8.807 -0.6622 -3.8134 -2.1592
  625MOL0     H86230   8.467   9.802   9.506  4.1535  0.6238 -1.0863
  625MOL0     H86231   8.231   9.896   9.551 -0.4897 -2.8092 -0.1726
  625MOL0     H86232   7.949  10.268   9.342  2.1667 -2.8748  1.2910
  625MOL0     H86233   7.727  10.356   9.364  0.1969 -1.4528 -0.4875
  625MOL0     H86234   6.195   9.982  10.006 -0.8026 -2.0422  1.7115
  625MOL0     H86235   5.956  10.035  10.063 -1.7833 -3.2509  1.9282
  625MOL0     H86236   5.542   9.938  10.079  0.3978 -1.6040 -2.4427
  625MOL0     H86237   5.298   9.960  10.145  0.8475 -0.6845  0.0688
  625MOL0     H86238   5.043  10.238   9.880 -1.0980 -0.7675 -3.0272
  625MOL0     H86239   4.992  10.080   9.840 -1.7441  2.4437 -2.0146
  625MOL0     H86240   4.834  10.072  10.013 -2.1254  0.9740  0.8840
  625MOL0     H86241   4.844  10.241   9.953 -0.6195 -0.9197 -1.0679
  625MOL0     H86242   4.978  10.131  10.196 -0.6933  0.2758 -0.1533
  625MOL0     H86243   4.997  10.302  10.140 -0.3378  0.1847  0.7437
  625MOL0     H86244   4.804  10.281  10.328  0.8840  4.9202 -0.7316
  625MOL0     H86245   4.721  10.187  10.209 -0.9134  0.4557 -4.3524
  625MOL0     H86246   4.617  10.559  10.081 -1.1252 -1.4148 -0.6014
  625MOL0     H86247   5.225  10.168   9.779 -2.8266 -2.3016  0.1594
  625MOL0     H86248   5.552  10.216   9.686 -0.4554  0.2294  2.1730
  625MOL0     H86249   5.523  10.059   9.613  2.9929  1.0774  0.5622
  625MOL0     H86250   5.388  10.177   9.619 -0.4048 -1.9463 -1.6108
  626MOL0     O86251   7.236   7.863  10.799  0.1687 -0.5306  0.6942
  626MOL0     C86252   7.279   7.865  10.685  1.3930 -0.0878  0.4142
  626MOL0     O86253   7.352   7.964  10.629 -0.7251 -0.5134  0.4900
  626MOL0     C86254   7.401   8.081  10.687 -0.3614  0.3088 -0.2639
  626MOL0     C86255   7.374   8.132  10.814 -0.5950  0.6220 -0.1177
  626MOL0     C86256   7.434   8.255  10.862  0.5570  0.5401  0.2483
  626MOL0     C86257   7.516   8.329  10.775 -0.0415  0.5119  0.0853
  626MOL0     O86258   7.592   8.441  10.808  0.1722  0.1322 -0.6403
  626MOL0     C86259   7.630   8.448  10.945  0.6189 -0.4412 -0.2117
  626MOL0     C86260   7.747   8.349  10.986  0.1017 -0.2274  0.3887
  626MOL0     C86261   7.765   8.308  11.130 -0.7389 -0.0461  0.1846
  626MOL0     C86262   7.878   8.202  11.134  0.1942  0.5752  0.2638
  626MOL0     C86263   7.908   8.176  11.288  0.0764  0.2964  0.1424
  626MOL0     C86264   8.002   8.056  11.312  0.1969  0.0834  0.2428
  626MOL0     C86265   8.040   8.056  11.457  0.8417  0.0621  0.6166
  626MOL0     C86266   8.148   8.159  11.485 -0.7960 -0.4299 -0.0020
  626MOL0     N86267   8.245   8.114  11.593 -0.0991 -0.1319  0.5273
  626MOL0     C86268   8.204   8.043  11.702 -0.3993 -0.3926 -0.1824
  626MOL0     C86269   8.317   8.011  11.762 -0.9271 -0.3784  0.4507
  626MOL0     C86270   8.335   7.926  11.888 -0.4464 -0.8615 -0.1586
  626MOL0     C86271   8.390   8.009  12.010  0.9127 -0.2599 -0.2286
  626MOL0     C86272   8.455   7.908  12.110  0.6749 -0.2159 -1.1191
  626MOL0     C86273   8.519   7.974  12.235 -0.0300  0.5810 -0.8720
  626MOL0     O86274   8.567   7.866  12.325  0.0106 -0.0190  0.8857
  626MOL0     C86275   8.609   7.897  12.453 -0.2398  0.1163 -0.6729
  626MOL0     C86276   8.612   7.792  12.541  0.6412  0.1378 -0.2291
  626MOL0     C86277   8.650   7.811  12.676  0.1511  1.1746 -0.3430
  626MOL0     C86278   8.649   7.681  12.764  0.0219  0.5412  1.0350
  626MOL0     C86279   8.695   7.940  12.734  0.1258 -0.2183  0.8703
  626MOL0     C86280   8.751   7.960  12.874 -0.2303  1.4817 -0.2005
  626MOL0     O86281   8.773   7.855  12.952  0.3340 -0.5091  0.6480
  626MOL0     C86282   8.818   7.858  13.078  0.3965  0.7264 -0.3699
  626MOL0     C86283   8.909   7.952  13.136 -0.2626 -0.0906 -0.6151
  626MOL0     C86284   8.948   7.961  13.276  0.7009  0.1999 -0.7305
  626MOL0     C86285   8.893   7.856  13.354 -0.4819 -0.5028  0.1752
  626MOL0     O86286   8.932   7.844  13.491  0.2363 -0.2589 -0.1903
  626MOL0     C86287   9.073   7.849  13.519 -0.4523 -0.0032  0.2961
  626MOL0     C86288   9.123   7.716  13.464  0.1150 -0.8347  0.5593
  626MOL0     C86289   9.267   7.692  13.528 -0.3309  0.2658 -0.3140
  626MOL0     C86290   9.311   7.543  13.499 -0.5056 -0.0689 -0.4347
  626MOL0     C86291   9.432   7.479  13.587  0.4073  0.3432  0.3908
  626MOL0     C86292   9.558   7.565  13.603  0.7399  0.5313 -0.0537
  626MOL0     C86293   9.664   7.503  13.690  0.1906  0.2716 -0.3171
  626MOL0     C86294   9.781   7.599  13.733  0.6550 -0.4341 -0.2109
  626MOL0    Cl86295   9.873   7.623  13.586  0.1539 -0.0289  0.1760
  626MOL0     C86296   8.797   7.770  13.300 -0.0078 -0.7284  0.1076
  626MOL0     C86297   8.765   7.763  13.163  0.3366  0.6173 -0.3680
  626MOL0     O86298   8.770   8.077  12.912 -0.7649 -0.3398  0.7205
  626MOL0     C86299   8.681   8.048  12.639  0.0310  0.0093 -0.8712
  626MOL0     C86300   8.637   8.029  12.505 -0.3952  0.8462  0.0710
  626MOL0     N86301   8.423   8.058  11.687 -0.7218 -1.1713  0.1897
  626MOL0     N86302   8.379   8.118  11.579 -0.9438 -0.3736  0.0576
  626MOL0     C86303   7.552   8.271  10.650 -0.4162 -0.2528 -0.2581
  626MOL0     C86304   7.501   8.146  10.611  0.8498 -0.1498  0.5511
  626MOL0     C86305   7.238   7.751  10.597  0.0329 -0.2202  1.0935
  626MOL0     C86306   7.161   7.648  10.653  0.5048  0.1432 -0.8403
  626MOL0     C86307   7.088   7.554  10.578 -0.4570 -0.0847  0.4054
  626MOL0     C86308   7.095   7.562  10.437  0.8522  0.6572 -0.0665
  626MOL0     O86309   7.011   7.496  10.355 -0.4335  0.3707 -0.2753
  626MOL0     C86310   7.056   7.364  10.318 -0.0364  0.3493 -0.0941
  626MOL0     C86311   6.966   7.304  10.220  0.9401 -0.0527 -0.9667
  626MOL0     C86312   6.834   7.258  10.285 -0.5120  0.2170 -0.5911
  626MOL0     C86313   6.746   7.374  10.315 -0.4235  0.3561  1.0543
  626MOL0     C86314   6.606   7.328  10.339  0.0035  0.4128  0.5750
  626MOL0     C86315   6.497   7.278  10.359  0.9098 -0.0554  0.0507
  626MOL0     C86316   7.167   7.669  10.378 -0.0154  0.2414 -0.3330
  626MOL0     C86317   7.247   7.760  10.451  0.1613 -0.1963  0.2955
  626MOL0     C86318   7.322   7.862  10.369 -0.0936  0.0027 -0.6264
  626MOL0     H86319   7.306   8.074  10.876 -1.0313 -1.1126 -2.1147
  626MOL0     H86320   7.415   8.271  10.967  0.8305  1.0899  0.2210
  626MOL0     H86321   7.541   8.427  11.005 -0.4146  2.5799 -0.5336
  626MOL0     H86322   7.664   8.549  10.969  2.2273 -0.3648 -2.4389
  626MOL0     H86323   7.748   8.262  10.921 -1.5779 -0.1228  0.1788
  626MOL0     H86324   7.838   8.397  10.949 -0.1841  0.8931  1.0602
  626MOL0     H86325   7.799   8.393  11.189  1.6783  0.1712 -1.4164
  626MOL0     H86326   7.669   8.266  11.164  0.0275 -1.3809  0.7763
  626MOL0     H86327   7.831   8.111  11.098  0.1470  0.3202  0.9529
  626MOL0     H86328   7.962   8.239  11.075  0.3029  1.5761  1.0243
  626MOL0     H86329   7.819   8.160  11.350  0.6946 -1.0887  0.7054
  626MOL0     H86330   7.953   8.270  11.322  0.6910  0.9477 -2.2847
  626MOL0     H86331   7.947   7.967  11.280  0.3844 -0.4087  1.2686
  626MOL0     H86332   8.091   8.065  11.248  1.1915 -2.0712  1.2242
  626MOL0     H86333   8.078   7.956  11.480 -0.5031 -0.8315 -0.8471
  626MOL0     H86334   7.944   8.070  11.507  1.7810  1.6618  2.0453
  626MOL0     H86335   8.203   8.178  11.392 -0.8103 -1.7811 -0.3127
  626MOL0     H86336   8.101   8.253  11.514 -1.9763  0.2329 -3.5402
  626MOL0     H86337   8.100   8.026  11.729 -0.5908  1.0673  0.0968
  626MOL0     H86338   8.411   7.853  11.859  0.1093 -0.8022  1.0794
  626MOL0     H86339   8.238   7.888  11.919 -2.7811  1.4706 -3.8223
  626MOL0     H86340   8.471   8.073  11.975  0.4057  0.8824  0.6280
  626MOL0     H86341   8.310   8.071  12.053 -0.9726  0.6204 -4.5099
  626MOL0     H86342   8.385   7.828  12.136 -0.4086  0.8542 -0.6473
  626MOL0     H86343   8.536   7.856  12.058  1.8499  0.0303  0.3859
  626MOL0     H86344   8.606   8.036  12.210  0.5740 -0.3327 -1.0898
  626MOL0     H86345   8.450   8.038  12.290  1.7825  1.4889  0.4669
  626MOL0     H86346   8.600   7.691  12.504  1.4526 -0.8190  1.9693
  626MOL0     H86347   8.586   7.692  12.853 -0.2039  0.6584  0.8612
  626MOL0     H86348   8.748   7.646  12.793 -0.2039 -0.7276  0.3358
  626MOL0     H86349   8.595   7.604  12.708 -0.8330  1.2861  0.8111
  626MOL0     H86350   8.955   8.031  13.078 -0.2233  2.1409  2.2067
  626MOL0     H86351   9.023   8.033  13.308  0.7366  0.5063 -1.4794
  626MOL0     H86352   9.128   7.929  13.467  0.8651 -0.1375  1.4264
  626MOL0     H86353   9.085   7.869  13.626 -1.9899  0.2165  0.4430
  626MOL0     H86354   9.052   7.634  13.478  0.2670 -0.6843  2.5872
  626MOL0     H86355   9.133   7.733  13.356 -1.2179 -0.0840  0.5375
  626MOL0     H86356   9.260   7.706  13.637 -3.0254 -0.6109 -0.3098
  626MOL0     H86357   9.323   7.771  13.477 -0.5745  1.8050  1.6389
  626MOL0     H86358   9.342   7.535  13.394  1.6103  1.0828  0.0375
  626MOL0     H86359   9.229   7.473  13.514  0.1717 -1.0957 -1.3178
  626MOL0     H86360   9.399   7.448  13.687 -1.1414  0.5973 -0.0187
  626MOL0     H86361   9.456   7.385  13.537 -1.9637  0.2471 -0.6922
  626MOL0     H86362   9.520   7.651  13.659 -0.7570  1.8872 -2.8936
  626MOL0     H86363   9.590   7.610  13.509  4.7075 -1.4590  0.1564
  626MOL0     H86364   9.703   7.411  13.646 -2.7789  0.4020 -3.7029
  626MOL0     H86365   9.616   7.475  13.784  0.1314  1.3931  0.0087
  626MOL0     H86366   9.842   7.556  13.814  3.3480  0.7611 -1.4823
  626MOL0     H86367   9.743   7.697  13.761  0.7142 -0.3773 -0.3283
  626MOL0     H86368   8.758   7.695  13.369 -2.9583  1.3409  0.9107
  626MOL0     H86369   8.695   7.691  13.122 -0.5339  0.7221  0.8785
  626MOL0     H86370   8.704   8.142  12.688  0.3487 -1.4007  1.8696
  626MOL0     H86371   8.648   8.103  12.427  0.7396 -0.3875 -0.9998
  626MOL0     H86372   7.623   8.322  10.585 -1.3625  0.1427 -0.9974
  626MOL0     H86373   7.540   8.107  10.517  1.6130 -1.7922  1.5109
  626MOL0     H86374   7.151   7.636  10.761 -1.5458  0.7070 -0.9232
  626MOL0     H86375   7.037   7.468  10.623  0.7264 -2.2502 -2.1186
  626MOL0     H86376   7.158   7.364  10.278 -0.0061  0.7814 -0.0202
  626MOL0     H86377   7.069   7.298  10.404 -0.5135 -0.9628 -1.0003
  626MOL0     H86378   7.004   7.217  10.167  2.5642  0.0413 -0.0121
  626MOL0     H86379   6.942   7.381  10.147 -0.9066  4.7635  3.9903
  626MOL0     H86380   6.793   7.178  10.223 -0.8156 -3.3814  3.7884
  626MOL0     H86381   6.850   7.213  10.383  0.3368  0.0958 -0.7800
  626MOL0     H86382   6.759   7.444  10.231 -0.0672 -2.8225 -1.7762
  626MOL0     H86383   6.774   7.413  10.413 -0.1113  0.6840  0.8403
  626MOL0     H86384   6.398   7.237  10.367  1.1080 -0.5956 -0.2093
  626MOL0     H86385   7.159   7.677  10.270 -0.8322  2.1790 -0.1807
  626MOL0     H86386   7.311   7.839  10.262 -2.6243 -1.8246 -0.0510
  626MOL0     H86387   7.279   7.961  10.384 -0.9742 -0.8271  3.3813
  626MOL0     H86388   7.429   7.859  10.394 -0.4619  0.8880  1.1536
  627MOL0     O86389   3.200   3.043   3.017  0.1374  0.4041 -0.1263
  627MOL0     C86390   3.160   2.930   3.052 -0.3142  0.1223  0.2104
  627MOL0     O86391   3.240   2.820   3.060  0.2472 -0.3854 -0.5995
  627MOL0     C86392   3.375   2.828   3.037 -0.2786 -0.2640 -1.1092
  627MOL0     C86393   3.439   2.912   2.941  0.1307  0.2618 -0.2151
  627MOL0     C86394   3.575   2.902   2.936  0.0801 -0.5391 -0.9084
  627MOL0     C86395   3.658   2.818   3.010 -0.1781 -0.8727  0.2826
  627MOL0     O86396   3.800   2.813   3.009 -0.1157 -0.2642  0.0877
  627MOL0     C86397   3.872   2.874   2.901  0.0210  0.0761 -0.3961
  627MOL0     C86398   3.869   2.794   2.773  0.5182  0.0275 -0.6156
  627MOL0     C86399   3.957   2.839   2.671 -0.6340 -1.1010  0.0146
  627MOL0     C86400   4.096   2.769   2.681  0.6513 -0.1721 -0.0268
  627MOL0     C86401   4.161   2.799   2.548 -0.1536  0.8548  0.7864
  627MOL0     C86402   4.306   2.738   2.541  0.9834 -0.0612 -0.8843
  627MOL0     C86403   4.394   2.764   2.664  0.4832 -0.3555  0.2511
  627MOL0     C86404   4.536   2.739   2.626 -0.3290 -0.4289 -0.2365
  627MOL0     N86405   4.615   2.767   2.746 -0.5355 -0.1810  0.3883
  627MOL0     C86406   4.623   2.693   2.863 -0.6293  0.0915 -0.0288
  627MOL0     C86407   4.725   2.738   2.932  0.2397 -0.3609 -0.0333
  627MOL0     C86408   4.782   2.672   3.055 -0.1232  0.8234 -0.3742
  627MOL0     C86409   4.878   2.740   3.148 -0.3930  0.5919  0.2787
  627MOL0     C86410   4.898   2.656   3.277 -0.3902  0.1349 -0.5503
  627MOL0     C86411   4.995   2.727   3.377 -0.1169 -0.2768 -0.1973
  627MOL0     O86412   5.112   2.772   3.306 -0.2510 -0.4518  0.3968
  627MOL0     C86413   5.205   2.853   3.367  0.4092  0.6561  0.6708
  627MOL0     C86414   5.188   2.893   3.496  0.1083 -0.4934  0.0909
  627MOL0     C86415   5.277   2.984   3.550  0.2887  0.2079 -0.1483
  627MOL0     C86416   5.253   3.003   3.700  1.1345  1.2654  0.6108
  627MOL0     C86417   5.368   3.059   3.471  0.0273  0.0675 -0.1548
  627MOL0     C86418   5.456   3.163   3.529  0.6651  0.5188  0.3113
  627MOL0     O86419   5.575   3.190   3.472 -0.5642  0.7002  0.3692
  627MOL0     C86420   5.640   3.303   3.506  0.6434  0.2497  0.3089
  627MOL0     C86421   5.712   3.379   3.410 -0.1714 -0.4330 -0.1172
  627MOL0     C86422   5.795   3.495   3.444  0.0951  0.5826  0.0823
  627MOL0     C86423   5.808   3.528   3.581 -0.0720  0.6575  0.8795
  627MOL0     O86424   5.867   3.655   3.600 -0.5840  0.1571 -0.2682
  627MOL0     C86425   5.892   3.699   3.730  0.1852 -0.2229  0.5460
  627MOL0     C86426   5.958   3.837   3.728 -0.1899 -0.1746 -0.9659
  627MOL0     C86427   6.097   3.842   3.651  0.9443  0.3746  0.2330
  627MOL0     C86428   6.160   3.968   3.685  0.0766  0.1719 -0.2102
  627MOL0     C86429   6.288   4.001   3.597 -0.3950 -0.1393 -0.4096
  627MOL0     C86430   6.403   3.903   3.633  0.5750  0.0622  0.4187
  627MOL0     C86431   6.520   3.933   3.547 -0.7320  0.2674  0.5362
  627MOL0     C86432   6.625   3.813   3.580  0.3878 -0.1752  0.7607
  627MOL0    Cl86433   6.764   3.837   3.471  0.3181  0.0672 -0.2885
  627MOL0     C86434   5.750   3.443   3.680 -0.1569 -0.5170  0.5201
  627MOL0     C86435   5.671   3.334   3.643 -0.2274 -0.2051 -0.2851
  627MOL0     O86436   5.406   3.224   3.625 -0.5606  0.2461 -0.0965
  627MOL0     C86437   5.388   3.010   3.337  0.3132 -0.5097  0.2401
  627MOL0     C86438   5.306   2.904   3.285 -0.0113  0.6760 -0.6216
  627MOL0     N86439   4.792   2.823   2.851 -0.0191 -0.3306  1.1661
  627MOL0     N86440   4.727   2.844   2.734 -1.3016  0.5930 -0.7206
  627MOL0     C86441   3.591   2.733   3.097  0.0522 -0.8501  0.1525
  627MOL0     C86442   3.449   2.741   3.105 -1.0318  0.4967 -0.1215
  627MOL0     C86443   3.016   2.921   3.088  0.0355 -0.1814 -0.5193
  627MOL0     C86444   2.931   3.035   3.071  0.7231  1.4919  0.0904
  627MOL0     C86445   2.794   3.037   3.110  0.0886 -0.2265  0.2329
  627MOL0     C86446   2.740   2.915   3.160 -0.1536  0.8418 -0.8211
  627MOL0     O86447   2.620   2.880   3.210 -0.1071  0.0128  0.6667
  627MOL0     C86448   2.533   2.981   3.208  0.7815  0.4485  0.3609
  627MOL0     C86449   2.403   2.958   3.279  0.0991 -0.2734  0.6105
  627MOL0     C86450   2.337   2.839   3.210  0.3109 -1.1017 -0.1536
  627MOL0     C86451   2.205   2.817   3.273 -0.3682 -0.5345  0.4949
  627MOL0     C86452   2.124   2.726   3.193  0.8771  0.2035 -0.0250
  627MOL0     C86453   2.051   2.655   3.127  1.1432 -0.7885 -0.7117
  627MOL0     C86454   2.823   2.802   3.166 -0.9422 -0.9976 -0.5216
  627MOL0     C86455   2.958   2.801   3.134 -0.3182  0.6545  0.9175
  627MOL0     C86456   3.035   2.674   3.169  0.0866 -0.4196 -0.4041
  627MOL0     H86457   3.381   2.977   2.877  0.0270 -1.7431 -2.2748
  627MOL0     H86458   3.620   2.971   2.865  1.5736 -0.1320  0.3703
  627MOL0     H86459   3.974   2.899   2.930 -0.5274  1.9592  0.0206
  627MOL0     H86460   3.839   2.976   2.882  3.3298  1.2914 -0.3140
  627MOL0     H86461   3.880   2.687   2.788 -0.3576  0.0504  0.2891
  627MOL0     H86462   3.770   2.813   2.729 -0.0116  1.1273  0.9349
  627MOL0     H86463   3.916   2.806   2.576 -0.0879 -0.4224 -0.4664
  627MOL0     H86464   3.954   2.948   2.663 -0.7510 -1.2696 -3.6431
  627MOL0     H86465   4.159   2.813   2.758  1.9309 -2.1959  0.1465
  627MOL0     H86466   4.085   2.661   2.695 -3.2322 -0.1189 -1.3293
  627MOL0     H86467   4.166   2.908   2.542 -0.9160  0.9130  1.0322
  627MOL0     H86468   4.110   2.768   2.456  1.6491  1.7968 -0.6009
  627MOL0     H86469   4.313   2.631   2.521  2.6384 -0.4832  1.4927
  627MOL0     H86470   4.359   2.800   2.468  1.3749  2.3230  1.2625
  627MOL0     H86471   4.370   2.705   2.752  1.2979  2.3225  2.4137
  627MOL0     H86472   4.386   2.870   2.692 -1.9643  0.6076 -3.2358
  627MOL0     H86473   4.561   2.639   2.589  2.2446  0.0135  0.0966
  627MOL0     H86474   4.577   2.803   2.547 -2.8683  2.0617  0.2731
  627MOL0     H86475   4.554   2.613   2.888  0.4707 -0.4074  1.5171
  627MOL0     H86476   4.819   2.578   3.013  1.7668  1.4657 -0.2496
  627MOL0     H86477   4.691   2.652   3.112 -0.3461  0.5028 -0.8400
  627MOL0     H86478   4.968   2.771   3.095  0.2031 -2.1740 -0.5012
  627MOL0     H86479   4.827   2.835   3.169 -2.8111  0.1836 -2.9728
  627MOL0     H86480   4.801   2.639   3.324 -0.2140 -0.8190 -0.5119
  627MOL0     H86481   4.947   2.560   3.255  0.3998  0.9271 -2.5425
  627MOL0     H86482   4.945   2.814   3.423 -0.8428 -0.2784 -0.9736
  627MOL0     H86483   5.030   2.664   3.460  3.2959  0.4996 -0.8667
  627MOL0     H86484   5.110   2.855   3.561 -1.4951  2.4243  0.0359
  627MOL0     H86485   5.179   3.083   3.716  2.7732  3.1216 -0.5595
  627MOL0     H86486   5.346   3.031   3.750  1.1894 -0.4837  1.5629
  627MOL0     H86487   5.217   2.910   3.744  2.2618  0.5987  0.1454
  627MOL0     H86488   5.697   3.358   3.305 -1.3003  0.1595 -0.0839
  627MOL0     H86489   5.832   3.568   3.372 -0.8383  1.5613  0.5510
  627MOL0     H86490   5.793   3.708   3.775 -0.6685  2.0974 -1.5904
  627MOL0     H86491   5.948   3.628   3.791 -1.8406 -0.6291  2.0500
  627MOL0     H86492   5.889   3.918   3.703  0.8685  1.4553  1.1762
  627MOL0     H86493   5.980   3.860   3.832 -1.0478 -3.1906 -0.0138
  627MOL0     H86494   6.079   3.836   3.543  1.1084 -1.1144  0.2662
  627MOL0     H86495   6.156   3.755   3.681 -1.4311 -1.8948 -1.1638
  627MOL0     H86496   6.175   3.965   3.793 -0.5926  4.0416  0.1165
  627MOL0     H86497   6.088   4.049   3.672  0.4258  0.0971 -3.7004
  627MOL0     H86498   6.270   3.997   3.489  0.5801  1.5681 -0.6578
  627MOL0     H86499   6.318   4.103   3.622  0.0756 -0.1950 -0.7236
  627MOL0     H86500   6.371   3.802   3.606  0.1916  0.6522 -1.5368
  627MOL0     H86501   6.414   3.906   3.742  0.4964 -2.5882  0.5582
  627MOL0     H86502   6.563   4.030   3.570  1.4421 -0.3864 -0.4900
  627MOL0     H86503   6.505   3.925   3.439  0.1032  0.4376  0.4019
  627MOL0     H86504   6.569   3.722   3.557 -3.3532  1.8182  1.2571
  627MOL0     H86505   6.659   3.818   3.683  1.0571 -2.3060  0.6952
  627MOL0     H86506   5.781   3.458   3.783  0.3807  4.2212 -0.1147
  627MOL0     H86507   5.642   3.261   3.718 -0.6467  1.1353  0.8802
  627MOL0     H86508   5.466   3.043   3.269  1.3127 -0.9295  1.1454
  627MOL0     H86509   5.308   2.860   3.186  0.2593  0.5918 -0.5809
  627MOL0     H86510   3.642   2.649   3.142 -0.0175  0.3803  2.6943
  627MOL0     H86511   3.397   2.683   3.180 -1.6269  0.5532 -0.4891
  627MOL0     H86512   2.981   3.124   3.034  2.1480 -0.3471 -2.7283
  627MOL0     H86513   2.734   3.126   3.094  1.0987  0.7701  1.7749
  627MOL0     H86514   2.584   3.067   3.252  2.7727  0.0407 -0.9829
  627MOL0     H86515   2.512   3.008   3.104  0.1551  0.0168  0.3743
  627MOL0     H86516   2.346   3.050   3.260  2.2706  0.9334 -0.4510
  627MOL0     H86517   2.417   2.943   3.386  0.4680  2.1622  0.9700
  627MOL0     H86518   2.323   2.862   3.104 -0.5611  0.3379  0.2440
  627MOL0     H86519   2.393   2.746   3.220 -0.3731 -1.3754  1.5332
  627MOL0     H86520   2.135   2.901   3.278 -0.8725 -0.4873 -4.0133
  627MOL0     H86521   2.220   2.779   3.375  1.2599  1.8758  1.2405
  627MOL0     H86522   1.999   2.599   3.052  0.9205 -0.7632 -0.5766
  627MOL0     H86523   2.784   2.713   3.214 -2.1729  0.3820  1.1687
  627MOL0     H86524   3.124   2.695   3.229 -0.8676 -1.2547  1.3883
  627MOL0     H86525   2.990   2.604   3.240  0.4587  1.1533  1.4733
  627MOL0     H86526   3.064   2.621   3.077  0.0701  1.6923 -1.6886
  628MOL0     O86527   3.369   3.393   2.587 -0.3382 -0.9745  0.2621
  628MOL0     C86528   3.328   3.278   2.601  0.6010  0.0034  0.0872
  628MOL0     O86529   3.406   3.170   2.633  0.1345 -0.3662 -0.0178
  628MOL0     C86530   3.550   3.185   2.620  0.4144 -0.4262 -0.3049
  628MOL0     C86531   3.620   3.094   2.542 -0.0298  0.3096 -0.0269
  628MOL0     C86532   3.761   3.095   2.541  0.3558 -0.4757  0.1695
  628MOL0     C86533   3.837   3.182   2.629  0.2954  0.0660  0.7575
  628MOL0     O86534   3.972   3.180   2.620  0.7567  0.4068 -0.2833
  628MOL0     C86535   4.053   3.269   2.694 -0.6958 -0.3669  0.8970
  628MOL0     C86536   4.102   3.221   2.831 -0.4771 -0.7496 -0.9435
  628MOL0     C86537   4.233   3.134   2.831  0.6683  0.5718  0.3775
  628MOL0     C86538   4.359   3.208   2.793 -0.4944  0.3739  0.6104
  628MOL0     C86539   4.488   3.158   2.878  0.0156  0.3481 -0.7613
  628MOL0     C86540   4.633   3.192   2.832 -0.8825 -0.4171 -0.6762
  628MOL0     C86541   4.735   3.133   2.945  0.1513  0.0980  0.5954
  628MOL0     C86542   4.874   3.128   2.878 -0.3168  0.4167  0.3503
  628MOL0     N86543   4.912   3.261   2.841 -1.1194 -0.7728 -0.0154
  628MOL0     C86544   4.929   3.366   2.923 -0.3565 -0.5326  0.8957
  628MOL0     C86545   4.961   3.471   2.842 -0.4869  0.5785 -0.1372
  628MOL0     C86546   4.970   3.609   2.896 -0.4892 -1.0318 -0.0093
  628MOL0     C86547   5.103   3.629   2.978 -0.4266 -0.0467 -0.5845
  628MOL0     C86548   5.219   3.588   2.896 -0.2549  0.0609 -0.5668
  628MOL0     C86549   5.341   3.679   2.896 -0.0213 -0.2908  0.5531
  628MOL0     O86550   5.311   3.811   2.830  0.3394  0.5142  0.8444
  628MOL0     C86551   5.396   3.911   2.859 -0.1274  0.3249  0.5894
  628MOL0     C86552   5.363   3.985   2.978  0.0940  0.2284  0.3344
  628MOL0     C86553   5.446   4.090   3.031 -0.3516 -0.2334  0.3539
  628MOL0     C86554   5.406   4.144   3.170  0.5483  0.4581 -0.3996
  628MOL0     C86555   5.547   4.136   2.936  0.2193  0.9770  0.2241
  628MOL0     C86556   5.630   4.250   2.971 -0.3886 -1.4977  0.0210
  628MOL0     O86557   5.756   4.259   2.925  0.9634 -0.1774  0.6172
  628MOL0     C86558   5.840   4.365   2.948 -0.1049  0.0354  0.3426
  628MOL0     C86559   5.809   4.493   2.906  0.5511 -0.4114 -0.7627
  628MOL0     C86560   5.907   4.589   2.895 -0.0005 -0.5911  0.0043
  628MOL0     C86561   6.036   4.563   2.928 -0.3953 -0.6322  0.0181
  628MOL0     O86562   6.137   4.659   2.941  0.2007 -0.3308 -0.7734
  628MOL0     C86563   6.098   4.797   2.988 -0.0143 -0.4669  0.0089
  628MOL0     C86564   6.223   4.886   3.009  0.8914  0.9552 -0.6623
  628MOL0     C86565   6.318   4.814   3.109  0.7052  0.2560 -0.5125
  628MOL0     C86566   6.461   4.873   3.121  0.1390  0.0979  0.3477
  628MOL0     C86567   6.559   4.823   3.015 -0.0873  0.8259  0.7601
  628MOL0     C86568   6.700   4.875   3.048  0.5715 -0.0263 -0.4606
  628MOL0     C86569   6.807   4.801   2.961 -0.2706 -0.0585  0.4362
  628MOL0     C86570   6.841   4.664   3.007 -0.5848  0.3571  0.0369
  628MOL0    Cl86571   6.913   4.663   3.170  0.3019 -0.1624 -0.1091
  628MOL0     C86572   6.068   4.438   2.974  0.5618  0.4498  0.4053
  628MOL0     C86573   5.970   4.342   2.981 -0.2265  0.1346  0.0272
  628MOL0     O86574   5.589   4.337   3.050 -0.0456  0.1917 -0.6822
  628MOL0     C86575   5.580   4.064   2.819 -0.2326 -0.8211 -0.9223
  628MOL0     C86576   5.502   3.954   2.785 -0.1417  1.1015  0.0059
  628MOL0     N86577   4.978   3.422   2.711 -0.2379  0.3882 -0.1720
  628MOL0     N86578   4.953   3.291   2.711  0.1987  0.7548 -0.2960
  628MOL0     C86579   3.758   3.255   2.713 -0.3635 -0.2609  0.3344
  628MOL0     C86580   3.615   3.266   2.708 -0.5465 -0.1057 -0.2715
  628MOL0     C86581   3.177   3.247   2.597  0.7105  0.3609 -0.3044
  628MOL0     C86582   3.127   3.121   2.642 -0.4746 -0.6565 -0.5364
  628MOL0     C86583   3.001   3.088   2.636  0.1629 -0.0672  0.5213
  628MOL0     C86584   2.901   3.169   2.573 -0.9749 -0.5252 -0.2233
  628MOL0     O86585   2.782   3.104   2.542 -0.0657  0.7532 -0.1814
  628MOL0     C86586   2.684   3.176   2.474 -0.3882 -0.2815 -0.1254
  628MOL0     C86587   2.543   3.115   2.495  1.0197 -0.5329  0.6029
  628MOL0     C86588   2.545   2.970   2.443  0.8805  0.8370 -0.1842
  628MOL0     C86589   2.408   2.899   2.434 -0.8172 -0.3387 -0.3637
  628MOL0     C86590   2.321   2.948   2.326  0.2832 -0.8749  0.2923
  628MOL0     C86591   2.232   2.984   2.253 -0.2284  0.3304 -0.7469
  628MOL0     C86592   2.942   3.293   2.532 -0.9501 -0.6046  0.5646
  628MOL0     C86593   3.080   3.335   2.539  0.9498 -1.6069  0.7479
  628MOL0     C86594   3.110   3.472   2.483 -0.6341  0.0381  0.8559
  628MOL0     H86595   3.560   3.029   2.480 -0.5055 -0.7521  1.4751
  628MOL0     H86596   3.812   3.028   2.473  1.7251 -1.6830  2.2599
  628MOL0     H86597   4.001   3.366   2.701 -0.9121 -0.5654  2.3467
  628MOL0     H86598   4.148   3.285   2.643 -1.1117 -1.8583 -0.4377
  628MOL0     H86599   4.135   3.310   2.886 -0.2314 -0.9672 -0.7394
  628MOL0     H86600   4.025   3.179   2.896  1.1589 -1.7940  0.4179
  628MOL0     H86601   4.241   3.088   2.930 -0.1804  0.5494  0.4482
  628MOL0     H86602   4.215   3.047   2.768  2.1259 -0.3705  1.2066
  628MOL0     H86603   4.377   3.172   2.691 -0.1339 -0.6256  1.0116
  628MOL0     H86604   4.360   3.317   2.794  2.6560  0.5927 -2.6832
  628MOL0     H86605   4.483   3.049   2.876  0.8754  0.2988 -0.4701
  628MOL0     H86606   4.476   3.178   2.985 -2.9310 -2.4392 -0.4196
  628MOL0     H86607   4.663   3.145   2.737  1.3163  2.0392 -1.3125
  628MOL0     H86608   4.641   3.301   2.825  1.5350 -0.1178  3.4556
  628MOL0     H86609   4.707   3.029   2.967  0.6774 -0.1364  0.1684
  628MOL0     H86610   4.731   3.192   3.037  0.6722  0.3965  0.4297
  628MOL0     H86611   4.954   3.096   2.945  1.2423  1.1218 -1.0890
  628MOL0     H86612   4.863   3.062   2.792 -1.3281  2.2055 -0.9652
  628MOL0     H86613   4.880   3.376   3.019  2.0753 -0.0053  2.1357
  628MOL0     H86614   4.874   3.636   2.942  0.0584  0.5765  0.2546
  628MOL0     H86615   4.978   3.680   2.814 -3.3849  0.4477  0.8698
  628MOL0     H86616   5.113   3.737   2.994 -1.0910  0.5525 -3.4921
  628MOL0     H86617   5.117   3.566   3.066  5.2076  1.2389 -0.2200
  628MOL0     H86618   5.246   3.488   2.931 -0.1158  0.3121  0.0466
  628MOL0     H86619   5.189   3.573   2.792 -1.5901 -2.9037  0.1329
  628MOL0     H86620   5.376   3.688   2.999  0.7317 -3.6141  0.7052
  628MOL0     H86621   5.426   3.644   2.836  1.5818  1.6489  1.5952
  628MOL0     H86622   5.276   3.952   3.035  0.0236  1.3220  0.8771
  628MOL0     H86623   5.386   4.251   3.166 -0.1111  0.4936  2.3532
  628MOL0     H86624   5.482   4.146   3.248 -0.2812  2.9827  0.4525
  628MOL0     H86625   5.313   4.092   3.194  0.4056  0.6577 -0.5213
  628MOL0     H86626   5.711   4.523   2.872  0.9499  1.2817 -0.5303
  628MOL0     H86627   5.885   4.692   2.869 -1.7935 -1.1556 -0.8230
  628MOL0     H86628   6.031   4.845   2.916  1.2101 -0.3473 -1.0895
  628MOL0     H86629   6.047   4.783   3.083 -0.5201  2.0866  0.1894
  628MOL0     H86630   6.270   4.896   2.910  1.0677  1.2890 -0.5444
  628MOL0     H86631   6.194   4.988   3.036 -1.1327  0.2820 -0.1358
  628MOL0     H86632   6.347   4.711   3.087 -0.6459 -0.5103  1.0532
  628MOL0     H86633   6.264   4.820   3.205 -1.1174  0.6810 -1.5230
  628MOL0     H86634   6.512   4.850   3.215  1.1854  1.5345  0.1543
  628MOL0     H86635   6.455   4.981   3.110  2.1482  0.5198  2.6154
  628MOL0     H86636   6.571   4.714   3.014  0.8138  0.8833 -1.5390
  628MOL0     H86637   6.522   4.853   2.917  1.0088  0.1792  0.1305
  628MOL0     H86638   6.726   4.865   3.154 -1.2550 -1.4494 -0.1037
  628MOL0     H86639   6.697   4.980   3.017  1.6205  0.1047 -0.1668
  628MOL0     H86640   6.900   4.859   2.954 -1.0326  1.0435 -5.3400
  628MOL0     H86641   6.762   4.801   2.862  1.8282  0.3001 -0.5676
  628MOL0     H86642   6.914   4.623   2.937  0.2828  1.5984  0.1949
  628MOL0     H86643   6.750   4.603   3.001  0.1499 -1.1129  2.3620
  628MOL0     H86644   6.166   4.417   3.017  0.4693  2.4759  1.7478
  628MOL0     H86645   5.996   4.243   3.017  2.8589 -0.0840 -2.3399
  628MOL0     H86646   5.665   4.092   2.758  1.3936  0.8324  1.9042
  628MOL0     H86647   5.538   3.901   2.698  0.0112  0.0797  0.6770
  628MOL0     H86648   3.793   3.322   2.790  0.9346 -1.6508  0.9978
  628MOL0     H86649   3.565   3.322   2.786  0.9723  2.0100 -0.7208
  628MOL0     H86650   3.191   3.047   2.688 -1.1136 -0.3751  0.8875
  628MOL0     H86651   2.974   2.990   2.673  2.8146 -1.0587  0.0517
  628MOL0     H86652   2.685   3.277   2.516  2.5192 -0.0225 -0.6071
  628MOL0     H86653   2.713   3.178   2.369 -0.7853 -0.1681 -0.2341
  628MOL0     H86654   2.469   3.174   2.441  1.5186  1.4774  1.9861
  628MOL0     H86655   2.497   3.105   2.594 -2.2860 -3.5034 -1.0220
  628MOL0     H86656   2.582   2.958   2.341  1.9416 -0.4472  0.3158
  628MOL0     H86657   2.613   2.915   2.508  2.0168  1.4830 -0.8031
  628MOL0     H86658   2.361   2.904   2.533 -0.0695  1.1683 -0.0540
  628MOL0     H86659   2.442   2.800   2.401 -0.5703 -0.3168 -0.1806
  628MOL0     H86660   2.158   3.005   2.178 -1.7574 -2.4450 -0.1735
  628MOL0     H86661   2.874   3.362   2.482  0.7787 -0.0997 -1.2430
  628MOL0     H86662   3.201   3.481   2.423  0.2633 -3.0208  1.5809
  628MOL0     H86663   3.031   3.512   2.419  0.6662  3.7398  1.3147
  628MOL0     H86664   3.106   3.544   2.566 -1.9062  2.1335 -0.9273
  629MOL0     O86665   6.442   3.691   6.296 -0.3136  0.2215  1.1068
  629MOL0     C86666   6.473   3.700   6.414 -0.7313  0.1482  0.7857
  629MOL0     O86667   6.604   3.667   6.457 -0.1916  0.3288  0.2757
  629MOL0     C86668   6.704   3.652   6.360 -0.6035  0.3763  0.2012
  629MOL0     C86669   6.742   3.533   6.307  0.1657 -0.8587 -0.4863
  629MOL0     C86670   6.847   3.509   6.223 -0.2453  0.5480 -0.2076
  629MOL0     C86671   6.922   3.611   6.179 -0.3804 -0.8236  0.4976
  629MOL0     O86672   7.027   3.600   6.084 -0.5905 -0.7057  0.3831
  629MOL0     C86673   7.076   3.716   6.013 -0.7070  0.4255 -0.3273
  629MOL0     C86674   7.169   3.668   5.900  0.1832 -0.2081  0.1688
  629MOL0     C86675   7.219   3.779   5.813 -0.0560  0.5586 -1.0604
  629MOL0     C86676   7.312   3.718   5.702 -0.3548 -0.0412 -0.7270
  629MOL0     C86677   7.369   3.824   5.605  0.7577  0.2401 -0.2865
  629MOL0     C86678   7.491   3.888   5.671  0.5109  0.2972  0.1021
  629MOL0     C86679   7.562   3.984   5.582 -0.5755 -0.1438 -0.8229
  629MOL0     C86680   7.469   4.097   5.544  0.3054  0.5592 -0.5247
  629MOL0     N86681   7.553   4.198   5.485  0.7175 -0.4006  0.9085
  629MOL0     C86682   7.611   4.210   5.364  0.6920 -0.3509  0.2475
  629MOL0     C86683   7.676   4.336   5.372  1.0863  0.3592  0.4875
  629MOL0     C86684   7.752   4.396   5.263  0.0244 -0.5456 -0.0397
  629MOL0     C86685   7.889   4.334   5.233 -0.1899  0.1617 -1.9542
  629MOL0     C86686   7.964   4.422   5.138 -0.4862 -0.5969  0.5183
  629MOL0     C86687   7.894   4.422   5.003 -0.1755  0.0826 -0.3843
  629MOL0     O86688   7.873   4.285   4.957  0.2736 -0.1873  0.4615
  629MOL0     C86689   7.952   4.235   4.856  0.6730 -0.8418 -1.3349
  629MOL0     C86690   7.908   4.134   4.766  0.3412 -0.5119  0.2977
  629MOL0     C86691   7.985   4.063   4.674  0.7907  0.1045  0.1176
  629MOL0     C86692   7.935   3.945   4.602 -0.4203 -0.5888  0.9295
  629MOL0     C86693   8.112   4.120   4.653 -0.6881 -0.4049 -0.0020
  629MOL0     C86694   8.215   4.078   4.549 -0.3961  0.6817 -0.5464
  629MOL0     O86695   8.346   4.099   4.580 -0.1044  0.1367 -0.3155
  629MOL0     C86696   8.446   4.063   4.488 -0.7764 -0.8090 -0.3655
  629MOL0     C86697   8.454   3.935   4.436  0.2727  0.3726  0.1924
  629MOL0     C86698   8.554   3.905   4.350 -0.0293 -0.0391  0.3508
  629MOL0     C86699   8.661   3.988   4.325 -0.6666 -1.1441 -0.9563
  629MOL0     O86700   8.767   3.965   4.237 -0.4048  0.6772 -0.2867
  629MOL0     C86701   8.765   3.837   4.170 -0.5129 -1.0101 -0.2538
  629MOL0     C86702   8.889   3.832   4.076 -0.0300  1.3478  1.0414
  629MOL0     C86703   8.939   3.680   4.072  0.3902 -0.8018 -0.0054
  629MOL0     C86704   9.069   3.651   3.997 -0.7304 -0.9374  0.7375
  629MOL0     C86705   9.189   3.708   4.073  0.7093  0.1146 -0.1035
  629MOL0     C86706   9.238   3.613   4.189 -0.4743  0.4711 -0.6077
  629MOL0     C86707   9.368   3.668   4.250  1.0789  0.7042 -0.1851
  629MOL0     C86708   9.436   3.565   4.339 -0.0309 -0.4216  0.6898
  629MOL0    Cl86709   9.328   3.559   4.475 -0.0590 -0.3601 -0.1039
  629MOL0     C86710   8.658   4.120   4.375 -0.1102 -0.5553 -1.2109
  629MOL0     C86711   8.545   4.157   4.459  0.4389  0.5443  0.4503
  629MOL0     O86712   8.169   4.036   4.441  0.2791 -0.4789 -0.3559
  629MOL0     C86713   8.153   4.225   4.732 -0.0040  0.0540 -0.0007
  629MOL0     C86714   8.078   4.283   4.833 -0.2032  0.6502  0.5977
  629MOL0     N86715   7.666   4.387   5.500  0.5798 -0.6903  0.5331
  629MOL0     N86716   7.588   4.310   5.564  0.6273 -0.1180  0.4336
  629MOL0     C86717   6.900   3.738   6.236 -0.3456 -0.0984 -0.3491
  629MOL0     C86718   6.795   3.752   6.328 -0.5134 -0.2049 -0.0123
  629MOL0     C86719   6.370   3.738   6.509  0.2767 -0.6603 -0.0087
  629MOL0     C86720   6.417   3.746   6.642  0.0105 -0.3922  0.3783
  629MOL0     C86721   6.330   3.786   6.748 -0.3480 -0.5582 -0.2505
  629MOL0     C86722   6.195   3.815   6.722  0.9171  1.5167 -0.4853
  629MOL0     O86723   6.125   3.860   6.826 -0.7458 -0.2182  0.7055
  629MOL0     C86724   5.987   3.854   6.819 -0.9189 -0.1560  0.5844
  629MOL0     C86725   5.928   3.868   6.965 -0.2126  0.9353  0.7876
  629MOL0     C86726   5.933   3.726   7.037  0.1852 -0.4051  0.0508
  629MOL0     C86727   5.835   3.726   7.158  0.3454 -0.9792 -0.2012
  629MOL0     C86728   5.821   3.593   7.218 -0.0050  0.5353  0.4098
  629MOL0     C86729   5.793   3.486   7.265  0.5585  0.6890 -0.0623
  629MOL0     C86730   6.153   3.802   6.589  0.2809 -1.1166  0.9294
  629MOL0     C86731   6.232   3.769   6.480 -1.1294 -0.3256  0.5368
  629MOL0     C86732   6.172   3.755   6.339 -0.2789 -0.6501  0.0924
  629MOL0     H86733   6.677   3.448   6.327  2.9064 -3.1933 -0.7197
  629MOL0     H86734   6.868   3.412   6.179  0.3546  1.8885 -3.1921
  629MOL0     H86735   7.131   3.780   6.083 -0.0810  0.1227 -0.5349
  629MOL0     H86736   6.994   3.775   5.970 -2.5000 -0.7521  1.3290
  629MOL0     H86737   7.261   3.625   5.941  2.1316  2.4694 -1.1215
  629MOL0     H86738   7.108   3.601   5.838  2.0859 -1.9547  0.0450
  629MOL0     H86739   7.131   3.826   5.767 -1.5728 -2.0982 -1.1013
  629MOL0     H86740   7.266   3.845   5.885 -1.1262 -0.7682  0.9451
  629MOL0     H86741   7.389   3.654   5.748 -1.1752 -0.3057  0.3156
  629MOL0     H86742   7.257   3.648   5.639 -0.8430  2.5813 -3.3786
  629MOL0     H86743   7.285   3.893   5.591 -0.0935 -0.6403  0.3642
  629MOL0     H86744   7.405   3.768   5.518  1.4127 -3.0563  1.8996
  629MOL0     H86745   7.463   3.932   5.767  0.6942  0.2848  0.1625
  629MOL0     H86746   7.567   3.811   5.691  0.9286 -0.2626 -3.1250
  629MOL0     H86747   7.610   3.946   5.491  0.1761 -2.6922  0.5333
  629MOL0     H86748   7.650   4.019   5.637 -0.4230 -1.1719 -0.3812
  629MOL0     H86749   7.394   4.060   5.473 -0.5323  1.1376  0.0445
  629MOL0     H86750   7.422   4.141   5.632  0.1387  1.4779 -1.0627
  629MOL0     H86751   7.586   4.143   5.283 -0.4439  1.5483 -1.0545
  629MOL0     H86752   7.771   4.499   5.295 -0.0794  0.1147 -1.9349
  629MOL0     H86753   7.686   4.388   5.176 -0.3512 -2.8630  0.3974
  629MOL0     H86754   7.946   4.332   5.326 -0.0494  0.5853 -2.0295
  629MOL0     H86755   7.888   4.231   5.196  4.1187 -0.3613 -1.1709
  629MOL0     H86756   7.972   4.525   5.173 -0.0909  0.8673 -3.4339
  629MOL0     H86757   8.065   4.386   5.120 -0.6801 -1.1613  0.5254
  629MOL0     H86758   7.796   4.469   5.010 -0.1453  0.4963 -2.2433
  629MOL0     H86759   7.951   4.484   4.934  2.2280 -1.3878  0.1434
  629MOL0     H86760   7.806   4.097   4.765 -0.9236  2.5951 -1.6558
  629MOL0     H86761   7.927   3.967   4.495  3.5240  1.6878  0.8949
  629MOL0     H86762   7.837   3.909   4.635 -2.1936  1.8600 -1.2778
  629MOL0     H86763   8.017   3.872   4.611  1.5340  1.5559  1.5349
  629MOL0     H86764   8.370   3.867   4.451  1.4337 -1.1961 -0.2094
  629MOL0     H86765   8.554   3.804   4.308  2.0897 -0.8461  2.0923
  629MOL0     H86766   8.765   3.762   4.249  0.8690 -1.1957 -0.4021
  629MOL0     H86767   8.676   3.833   4.106  1.1298 -2.4578 -2.6555
  629MOL0     H86768   8.857   3.868   3.978 -3.7682 -1.6918  0.9037
  629MOL0     H86769   8.972   3.888   4.120  1.1244  0.2440  0.2911
  629MOL0     H86770   8.859   3.630   4.015  1.5638 -0.4887 -2.0276
  629MOL0     H86771   8.940   3.637   4.172  0.8996  2.3552  1.4487
  629MOL0     H86772   9.070   3.714   3.908 -0.0282 -0.6874  0.9139
  629MOL0     H86773   9.072   3.551   3.952  0.5715  0.6448 -3.1132
  629MOL0     H86774   9.272   3.718   4.003  2.7563 -3.6218  1.4935
  629MOL0     H86775   9.168   3.810   4.105  0.3782 -0.1756  0.6321
  629MOL0     H86776   9.246   3.514   4.142  2.1599 -0.4523  1.5165
  629MOL0     H86777   9.163   3.606   4.268  0.4699  0.4694  0.3129
  629MOL0     H86778   9.354   3.760   4.308 -1.2091  0.9828 -1.0653
  629MOL0     H86779   9.428   3.685   4.161  0.1087 -1.6160 -1.3467
  629MOL0     H86780   9.535   3.600   4.368 -0.1027 -0.6560  1.2245
  629MOL0     H86781   9.438   3.471   4.283  4.2612  0.8871 -1.7728
  629MOL0     H86782   8.734   4.184   4.331  3.2383 -2.5245  1.1792
  629MOL0     H86783   8.527   4.258   4.495 -0.9491  0.1444  0.9542
  629MOL0     H86784   8.249   4.275   4.722  0.2508 -0.2609  0.7839
  629MOL0     H86785   8.126   4.354   4.900  2.1463 -0.6168  0.3434
  629MOL0     H86786   6.960   3.828   6.227 -2.4454  1.7858  2.5381
  629MOL0     H86787   6.780   3.855   6.358 -0.0792  0.0121 -0.5297
  629MOL0     H86788   6.519   3.724   6.672  0.4686  1.5363  0.3872
  629MOL0     H86789   6.367   3.792   6.849  0.0587  1.2815 -0.4646
  629MOL0     H86790   5.946   3.934   6.756 -0.8057  0.4442  1.2519
  629MOL0     H86791   5.954   3.759   6.777 -1.8770  1.4665 -2.6738
  629MOL0     H86792   5.823   3.899   6.958 -1.0531 -1.8120 -0.0853
  629MOL0     H86793   5.986   3.948   7.013  0.2172  0.6755  0.7085
  629MOL0     H86794   5.899   3.647   6.969 -1.1816 -1.2463  1.6504
  629MOL0     H86795   6.034   3.697   7.065 -0.7344 -3.4525  0.5782
  629MOL0     H86796   5.739   3.768   7.128  0.2521 -0.7009  0.4819
  629MOL0     H86797   5.886   3.797   7.225  1.5476 -0.3543 -1.7007
  629MOL0     H86798   5.757   3.405   7.326 -0.9093  2.2588  1.2419
  629MOL0     H86799   6.049   3.821   6.565  0.3476 -2.5623 -0.7170
  629MOL0     H86800   6.063   3.749   6.343 -0.5391  0.7544 -2.6061
  629MOL0     H86801   6.180   3.838   6.268  0.0577 -1.3325 -0.6905
  629MOL0     H86802   6.213   3.668   6.288 -1.5720 -1.5408  0.5188
  630MOL0     O86803  10.118   5.628  10.412  0.6503  0.3365  0.3249
  630MOL0     C86804  10.143   5.540  10.488 -0.3871  0.1587 -0.0743
  630MOL0     O86805  10.045   5.480  10.573  0.5927 -0.3773  0.4046
  630MOL0     C86806   9.913   5.504  10.546 -0.0162  1.0014 -0.2782
  630MOL0     C86807   9.816   5.485  10.647 -0.1569 -1.4222 -0.1778
  630MOL0     C86808   9.677   5.492  10.631 -0.1141 -0.4419 -0.3239
  630MOL0     C86809   9.631   5.517  10.502 -0.4905  0.3854 -0.2233
  630MOL0     O86810   9.504   5.547  10.479  0.4129 -0.5302  0.0523
  630MOL0     C86811   9.407   5.450  10.484  0.6700  0.1871 -0.1273
  630MOL0     C86812   9.284   5.485  10.385 -0.6241 -0.3210 -1.1962
  630MOL0     C86813   9.314   5.445  10.235 -0.0681 -0.1661 -0.2018
  630MOL0     C86814   9.191   5.474  10.152 -0.3163  0.7307  0.0969
  630MOL0     C86815   9.196   5.378  10.026  0.5283  0.3169 -1.0102
  630MOL0     C86816   9.159   5.235  10.059 -0.2926  0.5729 -0.9336
  630MOL0     C86817   9.010   5.214  10.079  0.6050 -0.3786 -0.1203
  630MOL0     C86818   8.958   5.072  10.092  0.8296 -0.0198  0.7194
  630MOL0     N86819   8.963   5.001   9.967 -0.7715  0.4763  0.2146
  630MOL0     C86820   9.075   4.945   9.905  0.1084 -0.4825 -0.0899
  630MOL0     C86821   9.022   4.886   9.796  0.0617 -0.5169  0.8723
  630MOL0     C86822   9.098   4.808   9.698  0.6700 -0.3038  0.0525
  630MOL0     C86823   9.166   4.687   9.751  0.3639  0.5306 -0.3553
  630MOL0     C86824   9.208   4.599   9.631 -0.3133  0.4759 -0.3466
  630MOL0     C86825   9.278   4.469   9.675 -0.2993  0.0814 -0.2321
  630MOL0     O86826   9.372   4.485   9.781 -0.0941 -0.3307 -0.2678
  630MOL0     C86827   9.507   4.483   9.756 -0.0448 -0.5352  0.7013
  630MOL0     C86828   9.583   4.521   9.638  0.1660 -0.6614 -0.8684
  630MOL0     C86829   9.724   4.519   9.625 -0.0444  1.3428  0.4909
  630MOL0     C86830   9.785   4.582   9.499 -0.5829  0.2862 -0.4193
  630MOL0     C86831   9.797   4.469   9.739 -0.1416 -0.3619  0.5869
  630MOL0     C86832   9.946   4.457   9.754  0.9036  0.5605  0.1276
  630MOL0     O86833  10.002   4.448   9.879  0.0834  0.2455  0.3824
  630MOL0     C86834  10.138   4.408   9.892 -0.6586  0.2349 -0.3991
  630MOL0     C86835  10.206   4.445  10.012 -0.3296 -0.2589 -0.2028
  630MOL0     C86836  10.340   4.399  10.042  0.8439 -1.4363 -0.0046
  630MOL0     C86837  10.418   4.326   9.952  0.8022 -0.8523  0.0444
  630MOL0     O86838  10.547   4.300   9.987 -0.2442  0.4433  0.7152
  630MOL0     C86839  10.620   4.201   9.917 -0.0044  0.7714 -0.1521
  630MOL0     C86840  10.745   4.151   9.989 -0.4118 -0.4976  0.4597
  630MOL0     C86841  10.717   4.062  10.108 -0.4859 -0.1033  0.0809
  630MOL0     C86842  10.821   3.950  10.127 -0.2081  0.4183 -0.0744
  630MOL0     C86843  10.953   4.004  10.193 -0.0362  0.4078  0.2458
  630MOL0     C86844  11.050   3.890  10.223  0.9985  1.1531  0.4518
  630MOL0     C86845  11.011   3.806  10.342 -1.1690  0.8689 -0.3923
  630MOL0     C86846  11.120   3.716  10.399  0.0773 -0.8554 -0.9100
  630MOL0    Cl86847  11.100   3.572  10.309 -0.2550 -0.1821 -0.0653
  630MOL0     C86848  10.352   4.281   9.841  0.4596  0.7496 -0.4364
  630MOL0     C86849  10.216   4.320   9.810  0.3150  0.6255  0.1261
  630MOL0     O86850  10.012   4.473   9.650  0.4075  0.2439  0.8403
  630MOL0     C86851   9.730   4.454   9.863 -0.5394 -0.7157  0.5699
  630MOL0     C86852   9.587   4.466   9.873  0.8994  1.5554 -0.4134
  630MOL0     N86853   8.891   4.911   9.796  0.6045  0.1868  0.8382
  630MOL0     N86854   8.849   4.969   9.897  0.8366  0.6336 -0.7986
  630MOL0     C86855   9.727   5.520  10.392 -0.4819 -0.7574 -0.4911
  630MOL0     C86856   9.857   5.518  10.420 -0.0610 -0.9730  0.4169
  630MOL0     C86857  10.280   5.489  10.495  0.0380 -0.7297 -0.1416
  630MOL0     C86858  10.332   5.448  10.619  1.3362 -0.9740  0.3089
  630MOL0     C86859  10.467   5.418  10.638 -0.1532  0.3241 -0.1238
  630MOL0     C86860  10.553   5.429  10.528  0.5652  0.4681 -0.2555
  630MOL0     O86861  10.688   5.390  10.535  0.6250 -0.2802 -0.2410
  630MOL0     C86862  10.734   5.352  10.663  0.1628 -0.1857  0.1086
  630MOL0     C86863  10.879   5.333  10.664 -0.0274  0.0699  0.3703
  630MOL0     C86864  10.925   5.211  10.581 -0.6123 -1.2569  0.0258
  630MOL0     C86865  11.063   5.222  10.521  0.3545 -0.1326  0.8575
  630MOL0     C86866  11.091   5.110  10.431 -0.1093  0.8654 -0.3421
  630MOL0     C86867  11.130   5.013  10.367  0.6282  0.5264 -0.8246
  630MOL0     C86868  10.508   5.466  10.405  0.3399  0.8513 -0.0114
  630MOL0     C86869  10.367   5.494  10.384  0.2779  0.4493  0.2312
  630MOL0     C86870  10.332   5.524  10.245 -0.1544  0.3823 -0.1984
  630MOL0     H86871   9.846   5.478  10.751 -0.5621 -2.0166 -0.0979
  630MOL0     H86872   9.617   5.498  10.722  1.7122 -0.4237  0.9358
  630MOL0     H86873   9.371   5.443  10.587  2.2045 -3.7057  0.3178
  630MOL0     H86874   9.446   5.352  10.453  1.2255  0.4629 -0.3018
  630MOL0     H86875   9.205   5.424  10.428  0.2391  1.2562  3.1263
  630MOL0     H86876   9.256   5.591  10.394 -1.1599 -0.4447 -1.3857
  630MOL0     H86877   9.394   5.504  10.187 -0.1556 -1.7707 -2.4645
  630MOL0     H86878   9.351   5.342  10.236  2.8287  0.7650  0.0816
  630MOL0     H86879   9.098   5.474  10.208  0.4469  0.7051  1.4085
  630MOL0     H86880   9.193   5.578  10.119 -0.5750  0.1695 -1.8031
  630MOL0     H86881   9.291   5.380   9.972 -0.6070  1.6485 -3.1062
  630MOL0     H86882   9.128   5.410   9.946  0.6527  1.4551 -0.6771
  630MOL0     H86883   9.191   5.166   9.981 -0.1453  0.4358 -0.7520
  630MOL0     H86884   9.215   5.205  10.148  0.0456 -1.3883 -1.7551
  630MOL0     H86885   8.971   5.257   9.986 -0.0400 -1.0539 -0.1728
  630MOL0     H86886   8.966   5.280  10.155 -0.0617  1.4489 -1.9812
  630MOL0     H86887   9.007   5.013  10.170 -1.5711 -0.7442  1.7749
  630MOL0     H86888   8.854   5.078  10.126  0.3978 -0.9476 -0.3379
  630MOL0     H86889   9.173   4.931   9.950  0.4891 -1.0495 -1.0457
  630MOL0     H86890   9.176   4.871   9.655  0.7042 -0.7064 -0.4943
  630MOL0     H86891   9.039   4.781   9.610 -0.7382 -2.0131  1.4307
  630MOL0     H86892   9.240   4.721   9.824  0.4709  0.1105 -0.2628
  630MOL0     H86893   9.087   4.629   9.800 -1.1775  3.0314  0.2654
  630MOL0     H86894   9.117   4.582   9.573 -0.6236  2.9139 -0.6964
  630MOL0     H86895   9.270   4.659   9.563 -1.9179  0.7043 -1.6688
  630MOL0     H86896   9.203   4.392   9.696  0.5276 -0.7130 -0.1395
  630MOL0     H86897   9.341   4.442   9.590  0.7622  1.2982  0.1271
  630MOL0     H86898   9.526   4.553   9.552 -2.2772 -0.5766  0.6966
  630MOL0     H86899   9.859   4.513   9.459  0.0316 -0.0301  1.1836
  630MOL0     H86900   9.839   4.672   9.532 -0.9841  1.4996 -2.8295
  630MOL0     H86901   9.717   4.602   9.415  0.2352 -1.5682 -1.5705
  630MOL0     H86902  10.144   4.507  10.077  0.6263  0.7697 -0.2389
  630MOL0     H86903  10.394   4.425  10.133  2.9089  1.0460 -1.7707
  630MOL0     H86904  10.558   4.115   9.891 -2.3701  2.9548 -2.2558
  630MOL0     H86905  10.670   4.242   9.829  0.3511 -1.4620 -1.0640
  630MOL0     H86906  10.794   4.094   9.909  0.1497 -0.9020  1.0876
  630MOL0     H86907  10.819   4.229  10.012 -0.9916  1.1680 -2.7269
  630MOL0     H86908  10.617   4.018  10.107  0.1477 -1.5697 -0.2997
  630MOL0     H86909  10.713   4.125  10.198  1.8394 -0.1473  0.2777
  630MOL0     H86910  10.841   3.890  10.038 -0.7400  1.3966 -0.8773
  630MOL0     H86911  10.789   3.881  10.205 -0.8990  0.9364  0.1083
  630MOL0     H86912  10.996   4.073  10.120 -0.6680 -2.1244 -2.7318
  630MOL0     H86913  10.936   4.064  10.283 -3.4078 -1.7340  1.2094
  630MOL0     H86914  11.147   3.937  10.247  3.5131 -3.9545  1.7823
  630MOL0     H86915  11.072   3.837  10.130  1.1201  0.5047  0.8490
  630MOL0     H86916  10.921   3.746  10.325 -1.1502  0.9780 -0.9063
  630MOL0     H86917  10.993   3.880  10.420 -3.9615  0.1843 -0.2526
  630MOL0     H86918  11.101   3.691  10.504  2.0688  0.5592 -0.1355
  630MOL0     H86919  11.221   3.758  10.393 -0.2189 -0.1648 -1.2111
  630MOL0     H86920  10.414   4.223   9.774 -0.8597 -1.1704 -0.0616
  630MOL0     H86921  10.177   4.282   9.716  2.3249  0.1751 -0.5683
  630MOL0     H86922   9.783   4.446   9.957  1.4296  2.5079 -0.1146
  630MOL0     H86923   9.525   4.466   9.962  1.5187 -0.8011  0.0931
  630MOL0     H86924   9.698   5.533  10.288  2.6080  4.7615 -1.0603
  630MOL0     H86925   9.923   5.534  10.335 -0.9995 -2.8446 -0.7456
  630MOL0     H86926  10.269   5.458  10.708  1.8624 -0.1246  0.5939
  630MOL0     H86927  10.503   5.380  10.733 -0.7937  0.7176  0.2816
  630MOL0     H86928  10.714   5.431  10.736 -0.3182 -1.8492  1.8710
  630MOL0     H86929  10.683   5.259  10.689 -0.4854 -0.0906 -0.8051
  630MOL0     H86930  10.912   5.319  10.768  0.4463  1.2973  0.3998
  630MOL0     H86931  10.924   5.427  10.633 -1.1747  0.6521  0.4365
  630MOL0     H86932  10.927   5.121  10.643  1.2573 -0.8603  0.6115
  630MOL0     H86933  10.856   5.201  10.497  0.1026 -2.0841 -0.4750
  630MOL0     H86934  11.140   5.224  10.600  0.6960 -3.0658  0.7234
  630MOL0     H86935  11.074   5.313  10.461 -0.7486  0.6768  1.8327
  630MOL0     H86936  11.172   4.938  10.302 -0.1039  1.0371 -1.9071
  630MOL0     H86937  10.571   5.470  10.316 -0.5814  0.9104 -0.6783
  630MOL0     H86938  10.226   5.505  10.224 -0.8131 -1.1460  3.5472
  630MOL0     H86939  10.358   5.628  10.225  0.9872  0.1987  0.2494
  630MOL0     H86940  10.386   5.459  10.176  2.3383  0.2621  1.7033
  631MOL0     O86941   2.595   3.076   7.263 -0.2270  0.0188  0.3062
  631MOL0     C86942   2.493   3.042   7.314  0.2835 -0.7962 -0.2978
  631MOL0     O86943   2.479   2.960   7.417  0.1976  0.0650 -0.3481
  631MOL0     C86944   2.586   2.899   7.466 -0.4725 -0.0447  0.3733
  631MOL0     C86945   2.620   2.918   7.603  0.3207 -0.5159 -0.0741
  631MOL0     C86946   2.731   2.853   7.660 -0.2667  0.2415 -0.3304
  631MOL0     C86947   2.799   2.758   7.582 -0.3854  0.6602 -0.3900
  631MOL0     O86948   2.919   2.695   7.615  0.3605 -0.5583 -0.2972
  631MOL0     C86949   3.019   2.782   7.662  0.3812 -0.2445  0.1212
  631MOL0     C86950   3.122   2.687   7.724  0.8117 -0.3385  0.2231
  631MOL0     C86951   3.252   2.771   7.759  0.6370  1.0148  0.1715
  631MOL0     C86952   3.326   2.704   7.874  0.3061  0.0593  0.1012
  631MOL0     C86953   3.453   2.788   7.907 -0.1672  0.3637  0.0378
  631MOL0     C86954   3.528   2.751   8.034 -0.7488  0.1496  0.6006
  631MOL0     C86955   3.627   2.632   8.012  0.6944  0.3156 -0.4753
  631MOL0     C86956   3.767   2.676   7.969  0.2480  0.2563  0.8792
  631MOL0     N86957   3.869   2.574   7.986  0.2944  0.4255 -0.0870
  631MOL0     C86958   3.995   2.589   7.944 -0.4136  0.1858  0.8048
  631MOL0     C86959   4.052   2.467   7.964  0.9689 -0.0434  0.2276
  631MOL0     C86960   4.191   2.442   7.924  0.3477 -0.1032 -1.4583
  631MOL0     C86961   4.275   2.356   8.027 -0.5591 -0.7869 -0.0164
  631MOL0     C86962   4.419   2.361   7.980  0.8477  0.7792 -0.9396
  631MOL0     C86963   4.530   2.314   8.076  0.1484  0.5097 -0.4752
  631MOL0     O86964   4.561   2.420   8.166 -0.0624  0.5853 -0.5423
  631MOL0     C86965   4.657   2.392   8.260 -0.3337 -0.1324 -0.5899
  631MOL0     C86966   4.777   2.335   8.228  0.1030 -0.0252 -0.2385
  631MOL0     C86967   4.882   2.311   8.321  0.0265  0.5239 -0.2865
  631MOL0     C86968   5.018   2.260   8.263  0.2498  0.1682  0.2847
  631MOL0     C86969   4.855   2.342   8.457 -0.8667 -0.4208  0.2725
  631MOL0     C86970   4.945   2.303   8.563  0.0514  0.4673  0.0899
  631MOL0     O86971   5.079   2.300   8.524  0.4384 -0.2966 -0.4985
  631MOL0     C86972   5.165   2.271   8.622 -0.1062 -1.0306  0.1408
  631MOL0     C86973   5.230   2.154   8.627 -0.2912  0.7553  0.9180
  631MOL0     C86974   5.337   2.134   8.721 -0.4898 -0.5943 -0.2585
  631MOL0     C86975   5.364   2.239   8.809 -0.0702  0.9959 -0.4437
  631MOL0     O86976   5.460   2.228   8.904  0.3139  0.3578 -0.3567
  631MOL0     C86977   5.560   2.117   8.901  0.2605  0.2434 -0.6215
  631MOL0     C86978   5.695   2.161   8.843 -0.9171  0.1004  0.4468
  631MOL0     C86979   5.754   2.252   8.940 -0.9854  0.1426  0.7156
  631MOL0     C86980   5.896   2.288   8.916  0.1213  0.5298  0.2755
  631MOL0     C86981   5.931   2.414   8.997  0.0473  0.8401 -0.0876
  631MOL0     C86982   6.076   2.454   8.996 -0.1028  0.1604 -0.6191
  631MOL0     C86983   6.102   2.589   9.060  0.7533 -0.3680 -0.1796
  631MOL0     C86984   6.087   2.712   8.963  0.3431  0.2855 -0.3687
  631MOL0    Cl86985   6.155   2.856   9.034  0.0468 -0.1620  0.3870
  631MOL0     C86986   5.287   2.349   8.810 -0.3659  0.6328 -0.1468
  631MOL0     C86987   5.184   2.374   8.721  0.1255 -0.4812  0.2112
  631MOL0     O86988   4.905   2.291   8.679 -0.2258 -0.1884 -0.0743
  631MOL0     C86989   4.739   2.410   8.485  0.4292 -0.1494 -0.2560
  631MOL0     C86990   4.636   2.432   8.392  0.0815 -0.1902 -1.0386
  631MOL0     N86991   3.966   2.382   8.029 -0.1938  0.7019 -0.7640
  631MOL0     N86992   3.857   2.451   8.038  0.4972 -0.3090 -0.1998
  631MOL0     C86993   2.739   2.721   7.459  0.1478  0.4473 -0.3086
  631MOL0     C86994   2.630   2.785   7.402 -0.4408 -0.1990 -0.5299
  631MOL0     C86995   2.371   3.118   7.272 -0.7113  0.7148 -0.3803
  631MOL0     C86996   2.287   3.153   7.376  0.0511  0.8986  0.5822
  631MOL0     C86997   2.178   3.240   7.346  0.9769 -0.0595 -0.0410
  631MOL0     C86998   2.144   3.281   7.220  0.3466  0.2212 -0.2638
  631MOL0     O86999   2.046   3.378   7.203  0.2713 -0.3436 -0.7736
  631MOL0     C87000   2.061   3.477   7.095 -0.1390  0.1134 -0.0354
  631MOL0     C87001   1.968   3.424   6.984  0.1698  0.2501 -0.6856
  631MOL0     C87002   1.988   3.489   6.845  0.4588  0.0886 -0.2147
  631MOL0     C87003   1.960   3.641   6.853 -0.3056  0.3235 -0.2373
  631MOL0     C87004   2.073   3.735   6.856  1.0060  0.3211  0.2363
  631MOL0     C87005   2.181   3.788   6.864 -0.6552  0.2683 -0.0192
  631MOL0     C87006   2.212   3.229   7.109 -0.9471  0.9503 -0.5371
  631MOL0     C87007   2.331   3.149   7.135  0.1507  0.0190 -0.7816
  631MOL0     C87008   2.407   3.097   7.011 -0.5831 -0.0538 -0.4432
  631MOL0     H87009   2.575   3.005   7.649 -0.0139  0.4393 -2.1001
  631MOL0     H87010   2.778   2.880   7.754  0.5578  2.3911 -1.2765
  631MOL0     H87011   2.979   2.836   7.749  1.3646 -1.2060  1.2099
  631MOL0     H87012   3.066   2.852   7.593  2.3464  0.9922  2.5178
  631MOL0     H87013   3.081   2.646   7.817  0.2236 -2.5633 -0.9493
  631MOL0     H87014   3.163   2.607   7.662  3.2471  1.1746 -0.2408
  631MOL0     H87015   3.303   2.775   7.662 -3.2568 -0.1131 -2.1509
  631MOL0     H87016   3.251   2.874   7.798 -0.8077  0.5631  1.4359
  631MOL0     H87017   3.256   2.711   7.957  1.1813 -0.7649  0.9348
  631MOL0     H87018   3.355   2.599   7.864 -2.0133 -0.8228  1.7466
  631MOL0     H87019   3.437   2.895   7.922  0.6075  0.2880  1.5477
  631MOL0     H87020   3.516   2.779   7.818 -1.7132 -2.3292 -0.8974
  631MOL0     H87021   3.577   2.836   8.083 -0.7499  0.5634 -0.0931
  631MOL0     H87022   3.460   2.726   8.115  0.5167  1.5223  2.1589
  631MOL0     H87023   3.582   2.561   7.942 -1.0725  1.7071 -0.8029
  631MOL0     H87024   3.631   2.578   8.107  0.1902 -0.2290 -0.7610
  631MOL0     H87025   3.769   2.712   7.865  0.3755  1.2456  1.2096
  631MOL0     H87026   3.794   2.751   8.044 -1.4890 -1.0970  2.9541
  631MOL0     H87027   4.039   2.679   7.902 -1.7477  0.0132 -1.1327
  631MOL0     H87028   4.232   2.543   7.917  2.1571 -0.7109 -0.1786
  631MOL0     H87029   4.200   2.405   7.821  2.5358 -0.1567 -1.2937
  631MOL0     H87030   4.275   2.400   8.127  2.1314  0.7657 -0.6031
  631MOL0     H87031   4.228   2.257   8.021  0.1644 -1.2158  1.0650
  631MOL0     H87032   4.424   2.290   7.897  2.5166  1.9853 -1.9394
  631MOL0     H87033   4.450   2.459   7.942  1.1606  0.4049 -1.6770
  631MOL0     H87034   4.485   2.228   8.128 -0.9580 -0.0965 -2.3356
  631MOL0     H87035   4.618   2.278   8.022  0.3414  0.0400  0.1331
  631MOL0     H87036   4.791   2.321   8.121  2.2925 -3.4323  0.3248
  631MOL0     H87037   4.998   2.229   8.160 -1.2786  0.4436  0.4664
  631MOL0     H87038   5.034   2.170   8.323 -0.1763  0.4791  0.8789
  631MOL0     H87039   5.098   2.333   8.272 -0.4696  0.8268  1.5255
  631MOL0     H87040   5.228   2.075   8.553 -0.3913  0.0187  1.6891
  631MOL0     H87041   5.395   2.043   8.717 -2.4984 -1.9202 -0.4929
  631MOL0     H87042   5.579   2.089   9.005 -0.0344 -1.3124 -0.9623
  631MOL0     H87043   5.527   2.020   8.861 -0.9417  1.2639 -2.2494
  631MOL0     H87044   5.767   2.080   8.833 -1.1532 -0.5638  3.2708
  631MOL0     H87045   5.681   2.209   8.746  0.7927 -0.7036 -0.2405
  631MOL0     H87046   5.751   2.219   9.044 -4.2332  0.0333  0.6950
  631MOL0     H87047   5.684   2.336   8.947 -3.1622 -1.3204 -1.7902
  631MOL0     H87048   5.911   2.310   8.810  0.0645 -0.0994  0.1279
  631MOL0     H87049   5.966   2.207   8.943  1.2761  1.9885  1.8964
  631MOL0     H87050   5.878   2.504   8.964  2.0421  2.9419  2.0401
  631MOL0     H87051   5.905   2.388   9.100 -1.6113  0.0173 -0.6676
  631MOL0     H87052   6.129   2.443   8.901  1.7971  0.5475  0.3458
  631MOL0     H87053   6.122   2.378   9.061  1.8855  1.3290 -0.6001
  631MOL0     H87054   6.208   2.596   9.086  0.5487 -0.3226  0.6586
  631MOL0     H87055   6.065   2.596   9.162  3.1085 -0.6817  0.7534
  631MOL0     H87056   5.978   2.715   8.949  0.3720  0.6081 -0.5213
  631MOL0     H87057   6.139   2.698   8.868  0.1843 -0.7358 -0.3181
  631MOL0     H87058   5.310   2.430   8.879 -0.8033  1.5557 -1.0542
  631MOL0     H87059   5.136   2.471   8.713  0.9514 -0.0129  0.8313
  631MOL0     H87060   4.731   2.441   8.589  3.6472 -6.9273  2.6521
  631MOL0     H87061   4.541   2.470   8.429  0.6736 -1.3885  2.0664
  631MOL0     H87062   2.795   2.647   7.402 -0.1985 -1.7027  1.9580
  631MOL0     H87063   2.584   2.759   7.307  0.6561 -0.5621 -0.9711
  631MOL0     H87064   2.307   3.139   7.482 -1.0961 -0.3974  0.6592
  631MOL0     H87065   2.122   3.280   7.430 -1.2387  0.4934 -1.6961
  631MOL0     H87066   2.018   3.572   7.126  1.6446  1.7290 -2.1401
  631MOL0     H87067   2.168   3.485   7.072 -0.0618  2.7161  0.9805
  631MOL0     H87068   1.867   3.449   7.017  0.4590  0.5704 -0.0142
  631MOL0     H87069   1.973   3.316   6.971 -0.9103  0.4075 -2.7460
  631MOL0     H87070   2.087   3.474   6.801  0.4571  2.4067 -1.1530
  631MOL0     H87071   1.908   3.444   6.785 -2.8767  1.6569  2.7036
  631MOL0     H87072   1.887   3.660   6.932 -0.6992 -0.0942 -0.4950
  631MOL0     H87073   1.910   3.661   6.758 -1.2490 -0.3502  0.1012
  631MOL0     H87074   2.279   3.828   6.852 -0.3617 -0.7834 -1.2739
  631MOL0     H87075   2.169   3.241   7.010 -2.1943 -0.3626 -0.1796
  631MOL0     H87076   2.460   3.005   7.041  0.0810  0.3441 -0.3839
  631MOL0     H87077   2.344   3.075   6.925  0.1751 -1.2620 -0.7237
  631MOL0     H87078   2.475   3.178   6.985  0.5739 -0.9061 -0.1910
  632MOL0     O87079   1.475   6.399  10.304 -0.5092 -0.0394  0.4811
  632MOL0     C87080   1.486   6.350  10.421 -0.3842 -0.3488 -0.1562
  632MOL0     O87081   1.606   6.310  10.479  0.1539  0.1571 -0.4020
  632MOL0     C87082   1.720   6.336  10.400  0.8645 -0.6232  0.9801
  632MOL0     C87083   1.792   6.228  10.337 -0.8097  0.2579 -0.0029
  632MOL0     C87084   1.911   6.248  10.267 -0.0315 -0.2307  1.1244
  632MOL0     C87085   1.953   6.378  10.258  0.1092 -0.5432  0.0335
  632MOL0     O87086   2.068   6.405  10.192  0.2879 -0.6012 -0.1953
  632MOL0     C87087   2.190   6.328  10.211  0.7210  0.7907 -0.4387
  632MOL0     C87088   2.319   6.415  10.209  0.2588  0.0819  0.1221
  632MOL0     C87089   2.452   6.327  10.199  0.4290  0.1195 -0.6098
  632MOL0     C87090   2.557   6.404  10.127 -0.4932  0.2487 -0.0700
  632MOL0     C87091   2.690   6.336  10.142 -0.2264 -0.0092 -0.5221
  632MOL0     C87092   2.715   6.202  10.064  0.9129 -1.2678  0.2751
  632MOL0     C87093   2.852   6.152  10.100 -0.6050  0.7584  0.6656
  632MOL0     C87094   2.857   6.004  10.077  0.3783  0.0186 -0.0789
  632MOL0     N87095   2.962   5.950  10.157  0.6646 -0.0568 -0.0775
  632MOL0     C87096   3.085   5.911  10.108 -0.9902  0.1836 -0.3183
  632MOL0     C87097   3.160   5.901  10.220 -0.5863 -0.2727  0.7040
  632MOL0     C87098   3.307   5.851  10.206 -0.2910 -0.6462  0.6548
  632MOL0     C87099   3.416   5.961  10.197  0.1728  0.2730 -0.7876
  632MOL0     C87100   3.403   6.048  10.068 -0.1142  0.7393  1.2816
  632MOL0     C87101   3.494   5.980   9.952  0.4490 -0.0934 -0.9118
  632MOL0     O87102   3.481   6.047   9.827 -0.3852  0.4419 -0.1430
  632MOL0     C87103   3.385   6.004   9.736 -0.1780  0.2326 -0.5438
  632MOL0     C87104   3.331   6.108   9.651 -0.6338 -0.7454  0.0930
  632MOL0     C87105   3.248   6.079   9.541 -0.6756  0.3167  0.2569
  632MOL0     C87106   3.243   6.188   9.436  0.0685 -0.0095  0.4724
  632MOL0     C87107   3.191   5.949   9.542 -0.0616 -0.4112 -0.0249
  632MOL0     C87108   3.085   5.907   9.438 -1.0658 -0.2573 -0.8274
  632MOL0     O87109   3.034   5.781   9.447  1.2012 -0.8393 -0.4238
  632MOL0     C87110   2.903   5.755   9.405 -0.0638 -0.2053 -0.4175
  632MOL0     C87111   2.803   5.844   9.441  0.5156 -0.0300 -0.8552
  632MOL0     C87112   2.681   5.825   9.395  1.1102 -0.4343  0.1891
  632MOL0     C87113   2.648   5.714   9.314 -0.7999 -0.3389  0.0272
  632MOL0     O87114   2.519   5.709   9.282 -0.7092  0.5020 -0.0464
  632MOL0     C87115   2.476   5.656   9.159 -1.0997 -1.3441 -0.4673
  632MOL0     C87116   2.529   5.763   9.050  0.3740 -0.3373 -0.2804
  632MOL0     C87117   2.488   5.708   8.915 -1.0527 -0.3146 -0.6329
  632MOL0     C87118   2.528   5.797   8.804 -0.4872  0.2919  0.1620
  632MOL0     C87119   2.475   5.762   8.664  0.2681  0.0230  0.6351
  632MOL0     C87120   2.489   5.614   8.637  0.3152 -0.2191  0.4597
  632MOL0     C87121   2.445   5.578   8.500 -0.9227  0.1636  0.1622
  632MOL0     C87122   2.576   5.508   8.434  0.9090 -0.5680 -0.3117
  632MOL0    Cl87123   2.545   5.449   8.268  0.2492 -0.3895  0.2257
  632MOL0     C87124   2.752   5.629   9.276 -0.0284  0.5084 -1.3966
  632MOL0     C87125   2.881   5.647   9.319  0.4493  0.4497  0.3960
  632MOL0     O87126   3.051   5.995   9.358 -0.0769 -0.2472  0.2539
  632MOL0     C87127   3.233   5.856   9.634 -0.5565 -0.4527  0.3671
  632MOL0     C87128   3.331   5.876   9.726 -0.7949 -0.0833  0.0523
  632MOL0     N87129   3.084   5.912  10.331 -0.7682  0.6895  0.1157
  632MOL0     N87130   2.961   5.939  10.289 -1.2542  0.0178  0.9715
  632MOL0     C87131   1.890   6.483  10.314 -0.6116 -0.1739  0.2097
  632MOL0     C87132   1.775   6.472  10.383  0.6125 -0.1892 -0.1754
  632MOL0     C87133   1.364   6.323  10.500 -0.5218 -0.4799 -0.4933
  632MOL0     C87134   1.390   6.265  10.632 -0.4145 -0.4944 -0.4502
  632MOL0     C87135   1.281   6.234  10.712 -0.4584  0.4805 -0.0394
  632MOL0     C87136   1.157   6.260  10.672  0.6938 -0.6774 -0.8403
  632MOL0     O87137   1.042   6.236  10.743 -0.6444  0.1246  0.3281
  632MOL0     C87138   1.041   6.137  10.846 -0.1232 -0.8337  0.2571
  632MOL0     C87139   0.891   6.085  10.850  0.5065 -0.1105 -0.8111
  632MOL0     C87140   0.855   6.028  10.989 -0.4926 -0.1089 -0.9336
  632MOL0     C87141   0.709   6.000  10.998  0.0519  0.4583 -0.2256
  632MOL0     C87142   0.664   5.911  10.899 -0.4769  0.0175  1.1084
  632MOL0     C87143   0.611   5.827  10.829 -0.4697  0.5081  0.5358
  632MOL0     C87144   1.126   6.311  10.545 -0.2586 -0.2343  0.0628
  632MOL0     C87145   1.232   6.340  10.454  0.1022 -0.3935 -0.0096
  632MOL0     C87146   1.185   6.384  10.313  0.3590  0.2877 -0.1893
  632MOL0     H87147   1.761   6.125  10.354 -0.4983 -0.5101 -3.3769
  632MOL0     H87148   1.951   6.166  10.208 -1.4486  0.6428 -1.1877
  632MOL0     H87149   2.195   6.254  10.130 -0.2038  0.3547 -0.1051
  632MOL0     H87150   2.187   6.291  10.313 -0.3680  2.3252  0.1253
  632MOL0     H87151   2.308   6.469  10.114  1.0078  0.2267  0.1157
  632MOL0     H87152   2.333   6.486  10.291  0.4706 -0.9294  0.9724
  632MOL0     H87153   2.487   6.314  10.301 -0.7458  0.4728 -0.1390
  632MOL0     H87154   2.434   6.230  10.153  0.4535 -0.5673  0.7870
  632MOL0     H87155   2.527   6.415  10.022 -0.0570 -0.9849 -0.3355
  632MOL0     H87156   2.560   6.499  10.181  1.0244  0.4409 -0.4307
  632MOL0     H87157   2.700   6.322  10.250  2.2675  1.2616 -0.5073
  632MOL0     H87158   2.768   6.405  10.111  1.2020 -0.8161  1.0785
  632MOL0     H87159   2.632   6.139  10.097 -0.0932 -1.2503 -2.0166
  632MOL0     H87160   2.715   6.218   9.955  1.2679 -0.5133  0.3755
  632MOL0     H87161   2.873   6.179  10.204 -0.4781  0.8539  0.6158
  632MOL0     H87162   2.921   6.201  10.030  0.1236  0.6495  1.2890
  632MOL0     H87163   2.764   5.957  10.112  1.6923 -2.6653  0.0493
  632MOL0     H87164   2.861   5.976   9.972 -1.4979  0.4774 -0.3111
  632MOL0     H87165   3.113   5.882  10.007 -0.1197 -0.8781  0.2147
  632MOL0     H87166   3.324   5.797  10.113  0.3507 -1.3648  1.1803
  632MOL0     H87167   3.326   5.794  10.297  1.8546 -1.5802 -0.3155
  632MOL0     H87168   3.405   6.027  10.284 -2.4129  0.1165 -0.8925
  632MOL0     H87169   3.517   5.920  10.194 -0.5366 -1.4953 -2.5945
  632MOL0     H87170   3.304   6.077  10.031 -1.4350 -1.9261  2.4173
  632MOL0     H87171   3.442   6.146  10.098 -2.6531  1.4474  2.5595
  632MOL0     H87172   3.601   5.980   9.977  0.1379  2.3453  0.7628
  632MOL0     H87173   3.454   5.879   9.949  0.4266 -0.5311  4.3819
  632MOL0     H87174   3.380   6.204   9.661 -0.8129 -0.2153 -3.2536
  632MOL0     H87175   3.313   6.270   9.449  0.1496 -0.0337  0.1973
  632MOL0     H87176   3.143   6.233   9.442 -0.0571 -0.1355 -0.4870
  632MOL0     H87177   3.269   6.154   9.335  5.0060  1.1998  1.0897
  632MOL0     H87178   2.830   5.922   9.512 -3.0806 -1.4472  2.4729
  632MOL0     H87179   2.607   5.893   9.436 -0.4773 -1.2189 -1.2620
  632MOL0     H87180   2.502   5.551   9.147  2.5257 -0.4360 -1.9332
  632MOL0     H87181   2.367   5.663   9.162 -0.9997  0.2138  1.0933
  632MOL0     H87182   2.490   5.863   9.066 -1.8945 -1.4407  1.6034
  632MOL0     H87183   2.639   5.763   9.054  0.4039  0.6387 -0.8501
  632MOL0     H87184   2.379   5.701   8.909 -1.2296 -1.0612  2.1597
  632MOL0     H87185   2.533   5.610   8.897 -2.9877 -1.7147  1.6144
  632MOL0     H87186   2.637   5.801   8.789 -0.3698 -1.3092  0.4731
  632MOL0     H87187   2.498   5.900   8.828 -1.5512 -0.5034  2.5435
  632MOL0     H87188   2.371   5.797   8.661  0.6810  1.2864 -1.0284
  632MOL0     H87189   2.516   5.817   8.578 -4.2737 -2.3018 -3.5169
  632MOL0     H87190   2.430   5.549   8.703 -2.7690  1.9363  0.0795
  632MOL0     H87191   2.594   5.596   8.659 -0.2306 -0.5745  3.1067
  632MOL0     H87192   2.415   5.665   8.441 -1.1651 -0.9042 -1.3647
  632MOL0     H87193   2.356   5.514   8.492 -1.3159  0.8457 -1.1872
  632MOL0     H87194   2.608   5.415   8.482  0.8262  0.9130  2.9052
  632MOL0     H87195   2.660   5.577   8.444 -3.4519  5.5053 -0.0192
  632MOL0     H87196   2.738   5.543   9.212  2.3573 -1.0988  0.1054
  632MOL0     H87197   2.956   5.575   9.286 -0.9206 -1.2827  0.9331
  632MOL0     H87198   3.181   5.761   9.633  1.5062 -1.6547  1.3487
  632MOL0     H87199   3.368   5.799   9.794  2.5403  0.6443 -0.7650
  632MOL0     H87200   1.936   6.578  10.291  0.7548  0.6720  5.2340
  632MOL0     H87201   1.722   6.550  10.436 -0.0778 -1.6239  1.3430
  632MOL0     H87202   1.490   6.241  10.665 -0.2981 -0.2420 -0.6152
  632MOL0     H87203   1.293   6.192  10.811 -4.3056 -1.5870 -0.2564
  632MOL0     H87204   1.110   6.055  10.826  1.9341  0.7674  0.5122
  632MOL0     H87205   1.057   6.180  10.945 -1.1142 -0.2096  0.1655
  632MOL0     H87206   0.885   6.012  10.769  0.1635  0.2658 -1.1289
  632MOL0     H87207   0.824   6.169  10.830 -0.4680 -1.0409 -1.6416
  632MOL0     H87208   0.915   5.937  11.002 -0.2433 -0.0396 -1.5589
  632MOL0     H87209   0.872   6.095  11.073  0.1733 -2.2146  0.7001
  632MOL0     H87210   0.660   6.098  10.991  0.3438  0.9394  2.8889
  632MOL0     H87211   0.686   5.954  11.094  2.8413 -0.5594  0.0574
  632MOL0     H87212   0.576   5.752  10.761  0.7547  1.6437 -1.4617
  632MOL0     H87213   1.027   6.330  10.505  0.5128 -1.3136 -2.6124
  632MOL0     H87214   1.233   6.480  10.294 -1.2900  1.6621  1.9787
  632MOL0     H87215   1.207   6.313  10.233 -0.4705  1.2655 -1.3208
  632MOL0     H87216   1.076   6.394  10.307  0.3868  0.1112 -1.0489
  633MOL0     O87217   7.469   0.272   2.267  0.7772 -0.8680 -0.6179
  633MOL0     C87218   7.348   0.241   2.298 -0.7281 -0.2656  0.8831
  633MOL0     O87219   7.271   0.289   2.397 -0.1984 -0.0249  0.0096
  633MOL0     C87220   7.322   0.362   2.502  0.2129 -1.1646 -0.1283
  633MOL0     C87221   7.414   0.463   2.493  0.5088 -0.4016  0.5326
  633MOL0     C87222   7.475   0.518   2.602 -0.4322  0.3343 -0.0768
  633MOL0     C87223   7.449   0.478   2.726  1.1446 -0.2341 -0.6857
  633MOL0     O87224   7.512   0.530   2.833  0.2932  0.3187  0.3192
  633MOL0     C87225   7.655   0.513   2.839 -0.9521 -0.8237 -0.5938
  633MOL0     C87226   7.703   0.610   2.939 -0.1083  0.1265 -0.1943
  633MOL0     C87227   7.841   0.596   2.983 -0.4440  0.8439  0.2286
  633MOL0     C87228   7.868   0.705   3.085 -0.8006  0.1575  0.6606
  633MOL0     C87229   8.016   0.681   3.151  0.2603 -0.1930  0.0141
  633MOL0     C87230   8.050   0.799   3.244  0.5223 -0.6046  0.2415
  633MOL0     C87231   8.176   0.780   3.324  0.3240 -0.5517 -0.0434
  633MOL0     C87232   8.216   0.907   3.404 -0.0947 -0.3910  0.1664
  633MOL0     N87233   8.330   0.876   3.490  0.0742  0.0785 -0.2060
  633MOL0     C87234   8.458   0.850   3.445  0.0090  0.4192 -0.3836
  633MOL0     C87235   8.518   0.772   3.542  0.3814 -0.3228 -0.3318
  633MOL0     C87236   8.646   0.701   3.527 -0.0314 -0.4382  0.0852
  633MOL0     C87237   8.744   0.726   3.643  0.1276  0.6509 -0.0972
  633MOL0     C87238   8.838   0.843   3.625 -0.3019 -0.9956 -0.8941
  633MOL0     C87239   8.876   0.912   3.755 -0.4185 -0.8936 -0.9375
  633MOL0     O87240   8.948   0.835   3.853 -0.1755 -0.8269  0.5831
  633MOL0     C87241   9.076   0.791   3.833 -0.7974  0.5619 -0.2346
  633MOL0     C87242   9.158   0.814   3.723 -0.1692 -0.7548 -0.5338
  633MOL0     C87243   9.287   0.759   3.720 -0.2628  0.3937 -0.3814
  633MOL0     C87244   9.374   0.782   3.597 -0.3485 -0.8856 -0.2354
  633MOL0     C87245   9.332   0.672   3.827 -0.0258 -0.3927  0.1115
  633MOL0     C87246   9.470   0.613   3.827 -0.9125 -0.2082 -0.7973
  633MOL0     O87247   9.475   0.482   3.839  0.1707  0.1630 -0.2338
  633MOL0     C87248   9.593   0.424   3.865 -0.6367  0.3376 -0.4254
  633MOL0     C87249   9.668   0.459   3.974 -0.2074  0.4972  0.1326
  633MOL0     C87250   9.797   0.406   3.990 -0.4940 -0.4884  0.7906
  633MOL0     C87251   9.860   0.326   3.893  1.1010 -0.0343  0.4598
  633MOL0     O87252   9.988   0.285   3.916 -0.2259 -0.0846  0.0100
  633MOL0     C87253  10.081   0.395   3.906  0.2537 -0.7247 -0.0387
  633MOL0     C87254  10.222   0.339   3.887 -0.0694 -0.2762  0.3399
  633MOL0     C87255  10.322   0.447   3.892  0.6862 -0.0011  0.4588
  633MOL0     C87256  10.460   0.387   3.925 -0.6548 -0.3772 -0.6129
  633MOL0     C87257  10.571   0.494   3.911 -0.5155  0.2534  0.8072
  633MOL0     C87258  10.699   0.419   3.870  0.5540 -0.6281  0.2095
  633MOL0     C87259  10.818   0.520   3.895  0.4910 -0.4015 -0.8320
  633MOL0     C87260  10.953   0.464   3.858  0.0990 -0.5151  0.5716
  633MOL0    Cl87261  10.980   0.490   3.675 -0.4170  0.0027  0.0470
  633MOL0     C87262   9.785   0.293   3.785  0.7149  1.0338  0.0451
  633MOL0     C87263   9.650   0.340   3.773  0.2201  0.2152  0.9028
  633MOL0     O87264   9.570   0.687   3.821  0.0712  0.8773  0.1418
  633MOL0     C87265   9.248   0.651   3.935  0.4810 -0.4953 -0.4062
  633MOL0     C87266   9.115   0.714   3.938 -0.4018  0.1226 -0.1242
  633MOL0     N87267   8.423   0.753   3.638  0.1311 -0.2481  0.2144
  633MOL0     N87268   8.321   0.831   3.618  0.1869  1.0134 -0.4429
  633MOL0     C87269   7.360   0.368   2.742  0.3117 -0.2329 -0.2511
  633MOL0     C87270   7.298   0.315   2.629  0.4677 -0.5550 -0.8848
  633MOL0     C87271   7.282   0.155   2.193 -0.2209 -0.3130  0.4278
  633MOL0     C87272   7.286   0.019   2.217 -0.5630 -0.1932  0.2587
  633MOL0     C87273   7.247  -0.068   2.114 -0.4357 -0.0474  0.5007
  633MOL0     C87274   7.206  -0.015   1.993  0.3138 -0.1838  0.3671
  633MOL0     O87275   7.157  -0.083   1.887 -0.3737  0.6636 -0.0618
  633MOL0     C87276   7.091  -0.210   1.913 -0.5321  0.5265  0.6499
  633MOL0     C87277   7.012  -0.257   1.783  0.2724 -0.1821 -0.3407
  633MOL0     C87278   7.096  -0.303   1.665  0.3890  0.0321  0.6424
  633MOL0     C87279   7.011  -0.392   1.570  0.3294 -0.6111  0.2088
  633MOL0     C87280   7.090  -0.456   1.475 -0.4873  0.0847  0.7224
  633MOL0     C87281   7.133  -0.535   1.390 -0.5624  0.5218  0.5047
  633MOL0     C87282   7.201   0.117   1.975 -0.2762 -0.0761  0.5847
  633MOL0     C87283   7.234   0.211   2.075 -0.2461 -0.2861 -0.2591
  633MOL0     C87284   7.213   0.353   2.057  0.3506 -0.9185 -0.3931
  633MOL0     H87285   7.435   0.501   2.394  3.0520 -2.2466  0.2680
  633MOL0     H87286   7.546   0.598   2.584  0.8874 -0.6646  0.4823
  633MOL0     H87287   7.708   0.532   2.745 -2.4751 -2.5450 -1.8880
  633MOL0     H87288   7.681   0.411   2.869  1.3519 -0.1676 -0.0981
  633MOL0     H87289   7.674   0.710   2.905  0.2369  0.2338 -0.1744
  633MOL0     H87290   7.636   0.586   3.022 -0.0543  0.5605 -0.0213
  633MOL0     H87291   7.851   0.496   3.027  0.2104  0.3680 -0.9606
  633MOL0     H87292   7.910   0.612   2.900 -0.0804 -2.0617 -0.1368
  633MOL0     H87293   7.870   0.797   3.025 -1.4743 -2.7712 -4.4729
  633MOL0     H87294   7.796   0.713   3.166 -0.6090  1.3870  0.7246
  633MOL0     H87295   8.090   0.672   3.072  0.2213 -1.5267  0.1027
  633MOL0     H87296   8.019   0.591   3.213 -4.1849 -0.2830  0.4381
  633MOL0     H87297   8.036   0.888   3.181  0.7877 -0.0226  0.9822
  633MOL0     H87298   7.967   0.810   3.315  0.7937 -1.6486  0.7407
  633MOL0     H87299   8.257   0.748   3.258 -0.6911 -0.4087 -1.4153
  633MOL0     H87300   8.150   0.696   3.389 -0.6065 -0.7812 -0.6885
  633MOL0     H87301   8.245   0.996   3.348  1.2218 -1.0808 -0.2924
  633MOL0     H87302   8.128   0.933   3.463 -1.0497 -0.1306 -1.3127
  633MOL0     H87303   8.498   0.853   3.344 -1.5255 -1.6356 -1.1146
  633MOL0     H87304   8.699   0.712   3.432  0.6416 -2.1044  0.2388
  633MOL0     H87305   8.610   0.597   3.524 -1.9774  0.1881 -0.2775
  633MOL0     H87306   8.686   0.730   3.737 -0.0351  1.9859 -0.2337
  633MOL0     H87307   8.817   0.647   3.664  0.1399  0.5607 -0.4801
  633MOL0     H87308   8.930   0.814   3.573  2.1888  1.7309  1.5771
  633MOL0     H87309   8.792   0.911   3.552 -0.2293  0.1658  0.0944
  633MOL0     H87310   8.934   1.001   3.728 -0.7687 -0.8895 -1.7124
  633MOL0     H87311   8.785   0.938   3.810 -0.7532  1.4588 -2.4362
  633MOL0     H87312   9.111   0.856   3.635  0.7811  2.5017  0.3816
  633MOL0     H87313   9.322   0.853   3.532 -1.7113 -2.9297 -1.5264
  633MOL0     H87314   9.391   0.691   3.538  1.6881 -1.1431  0.6760
  633MOL0     H87315   9.469   0.826   3.628 -1.1159 -1.2023  2.9381
  633MOL0     H87316   9.638   0.525   4.054  0.7539 -1.3821  2.1327
  633MOL0     H87317   9.847   0.437   4.081  0.3546  1.8813 -0.3996
  633MOL0     H87318  10.069   0.455   3.815  0.4600  1.2679  1.1962
  633MOL0     H87319  10.071   0.459   3.994  1.4166 -0.2156 -0.2640
  633MOL0     H87320  10.238   0.270   3.970 -2.2865 -1.7918 -0.4057
  633MOL0     H87321  10.233   0.278   3.796  0.7882  2.4817 -1.5266
  633MOL0     H87322  10.295   0.516   3.972  0.3294 -0.3376  0.6316
  633MOL0     H87323  10.332   0.491   3.792  1.1921 -1.3632 -0.1182
  633MOL0     H87324  10.480   0.302   3.858  0.4820 -0.9212  0.3763
  633MOL0     H87325  10.457   0.338   4.022 -1.1638  2.7009  1.0396
  633MOL0     H87326  10.538   0.570   3.839  1.7436  0.8449  0.3101
  633MOL0     H87327  10.590   0.552   4.002 -0.4126  0.5239  0.6161
  633MOL0     H87328  10.702   0.388   3.765  1.0616  1.1347 -0.3282
  633MOL0     H87329  10.712   0.327   3.928  1.7144 -2.7065 -3.0487
  633MOL0     H87330  10.827   0.559   3.997  0.6336 -0.2844 -0.8888
  633MOL0     H87331  10.793   0.608   3.834 -1.4434  2.3488  3.4226
  633MOL0     H87332  10.959   0.357   3.879 -2.4751 -1.0425 -0.9329
  633MOL0     H87333  11.027   0.514   3.922  1.4478  1.3401 -2.2588
  633MOL0     H87334   9.819   0.230   3.704 -0.7869  0.4600 -0.1616
  633MOL0     H87335   9.586   0.308   3.691 -0.6289  0.6631  1.3727
  633MOL0     H87336   9.285   0.608   4.028  2.3753  1.9233  0.0603
  633MOL0     H87337   9.042   0.704   4.017 -2.4217  1.2054 -1.7631
  633MOL0     H87338   7.337   0.334   2.842 -0.7932  0.2381 -0.3302
  633MOL0     H87339   7.244   0.222   2.632  0.1810 -0.5779 -3.8179
  633MOL0     H87340   7.333  -0.021   2.306  2.1323 -3.6687 -2.4036
  633MOL0     H87341   7.234  -0.173   2.135 -0.2584 -0.4854 -1.3468
  633MOL0     H87342   7.169  -0.285   1.930  0.2727  1.3154  0.4999
  633MOL0     H87343   7.029  -0.198   2.002  0.4231 -0.6635  1.5001
  633MOL0     H87344   6.939  -0.183   1.749  1.8437  0.7961 -1.7896
  633MOL0     H87345   6.962  -0.349   1.813  0.0856 -0.3339 -1.1004
  633MOL0     H87346   7.111  -0.209   1.611 -0.7632 -0.0752  0.1004
  633MOL0     H87347   7.192  -0.347   1.692  1.0761  0.8434 -0.3999
  633MOL0     H87348   6.934  -0.333   1.519 -0.0000 -0.3995  0.9311
  633MOL0     H87349   6.962  -0.468   1.631 -1.1568 -0.2340 -0.4723
  633MOL0     H87350   7.171  -0.606   1.319  0.8259  0.4573  1.2706
  633MOL0     H87351   7.177   0.155   1.876  1.5235  2.3295  0.9789
  633MOL0     H87352   7.304   0.405   2.087 -1.3862  0.3657  3.1288
  633MOL0     H87353   7.185   0.371   1.952 -1.0064 -1.4442 -0.1386
  633MOL0     H87354   7.131   0.391   2.119  0.6401 -1.4101  0.3021
  634MOL0     O87355   2.999   8.183   8.637 -0.1027 -0.2983  0.0940
  634MOL0     C87356   3.039   8.166   8.755  0.0784  0.4199 -0.1210
  634MOL0     O87357   3.034   8.059   8.832  0.9376 -0.6336  0.8212
  634MOL0     C87358   2.971   7.944   8.785  0.4421 -0.0650  0.2789
  634MOL0     C87359   3.026   7.816   8.817  0.3289  0.4701 -0.9772
  634MOL0     C87360   2.964   7.698   8.785 -0.1176 -0.0154  0.1999
  634MOL0     C87361   2.834   7.712   8.721  0.2189  0.0246 -0.8250
  634MOL0     O87362   2.763   7.599   8.697  0.5742  0.2452 -0.0465
  634MOL0     C87363   2.774   7.480   8.787  0.4818 -0.5333  0.1620
  634MOL0     C87364   2.639   7.422   8.781  0.8205  0.1283  0.5956
  634MOL0     C87365   2.654   7.272   8.818 -0.2211  0.0162  0.1723
  634MOL0     C87366   2.515   7.202   8.800 -0.5543  0.0644  0.5950
  634MOL0     C87367   2.521   7.051   8.814  0.6716  0.1320 -0.5262
  634MOL0     C87368   2.387   6.986   8.769  0.7184 -0.0153 -0.0375
  634MOL0     C87369   2.359   6.982   8.618  0.5465  0.0282  0.4481
  634MOL0     C87370   2.231   6.897   8.601  0.2355 -0.6147  0.5862
  634MOL0     N87371   2.190   6.899   8.458  0.0373  0.2040  0.1900
  634MOL0     C87372   2.250   6.833   8.359 -1.1675  0.0268  0.0534
  634MOL0     C87373   2.176   6.858   8.246 -0.4458  1.3241  0.2679
  634MOL0     C87374   2.202   6.815   8.105 -0.5429 -0.1490  0.3343
  634MOL0     C87375   2.310   6.907   8.045 -0.1809  0.1617 -0.0449
  634MOL0     C87376   2.264   6.994   7.928 -0.4960 -0.2903  0.1664
  634MOL0     C87377   2.377   7.085   7.884 -0.7060  0.1148  0.6741
  634MOL0     O87378   2.420   7.156   8.002  0.0026  0.0665 -0.1247
  634MOL0     C87379   2.546   7.222   7.997  0.6544 -0.3465  0.5096
  634MOL0     C87380   2.556   7.322   8.093 -0.5382 -0.8872  0.0472
  634MOL0     C87381   2.675   7.395   8.104 -0.2908  0.7005 -0.2667
  634MOL0     C87382   2.672   7.517   8.191 -0.1682 -0.6665  0.0965
  634MOL0     C87383   2.784   7.367   8.011  0.1124  0.3912 -0.1520
  634MOL0     C87384   2.911   7.439   8.033 -0.0825  0.7284  0.0241
  634MOL0     O87385   2.939   7.439   8.169 -0.6111  0.4825  0.1252
  634MOL0     C87386   3.048   7.505   8.232  0.6462  0.4299  0.0679
  634MOL0     C87387   3.018   7.526   8.364  0.3114  0.4851 -0.9694
  634MOL0     C87388   3.110   7.590   8.451 -0.7128 -0.5713 -0.4717
  634MOL0     C87389   3.236   7.623   8.396  0.5742  0.6416  0.5707
  634MOL0     O87390   3.329   7.685   8.477  1.0109 -0.2202 -0.1511
  634MOL0     C87391   3.335   7.828   8.462  0.7379 -0.0177 -0.8158
  634MOL0     C87392   3.371   7.909   8.593  0.5428  0.3345  0.5376
  634MOL0     C87393   3.386   8.050   8.551 -0.4557 -0.2845 -0.8498
  634MOL0     C87394   3.489   8.088   8.442  0.0194 -0.3635 -0.6821
  634MOL0     C87395   3.536   8.240   8.447  0.6032  0.3672  1.0930
  634MOL0     C87396   3.412   8.341   8.472 -0.2784 -0.5579  0.3848
  634MOL0     C87397   3.438   8.486   8.431 -0.3412 -0.8604 -0.0212
  634MOL0     C87398   3.350   8.590   8.497 -0.5977  0.1572 -0.4941
  634MOL0    Cl87399   3.178   8.589   8.457 -0.0897 -0.3361 -0.1242
  634MOL0     C87400   3.258   7.607   8.255  0.2271  0.7771 -0.0016
  634MOL0     C87401   3.166   7.540   8.176  0.1603  0.3256  0.2270
  634MOL0     O87402   2.978   7.478   7.946 -0.5608  0.3441  0.0803
  634MOL0     C87403   2.766   7.273   7.905 -0.2745 -0.4635  1.0232
  634MOL0     C87404   2.643   7.210   7.894 -0.2798  0.5382  0.9153
  634MOL0     N87405   2.072   6.935   8.279 -0.2165  0.4613  0.5983
  634MOL0     N87406   2.083   6.976   8.404  0.0658 -0.3284 -0.6120
  634MOL0     C87407   2.787   7.833   8.677 -0.3775 -0.0600  0.2158
  634MOL0     C87408   2.856   7.950   8.713  0.7229  0.1698 -0.3216
  634MOL0     C87409   3.126   8.279   8.803  0.8313  0.0675  0.3448
  634MOL0     C87410   3.096   8.407   8.751  0.0589  1.0126 -0.3512
  634MOL0     C87411   3.160   8.524   8.794 -1.0050  0.7922  1.2598
  634MOL0     C87412   3.268   8.515   8.885  0.2959  0.4939  1.1978
  634MOL0     O87413   3.349   8.619   8.918 -0.0828 -0.7136  0.2138
  634MOL0     C87414   3.293   8.750   8.904  0.4585 -0.0553 -0.1526
  634MOL0     C87415   3.388   8.857   8.974  0.2388  0.4763  0.3136
  634MOL0     C87416   3.526   8.868   8.918 -0.2415  0.3656  0.3418
  634MOL0     C87417   3.602   8.976   8.993 -0.6000 -0.3935  0.2763
  634MOL0     C87418   3.722   9.011   8.913 -0.3726 -0.1237  0.3652
  634MOL0     C87419   3.824   9.032   8.850  1.4577  0.1995  0.4247
  634MOL0     C87420   3.301   8.385   8.928  0.0228  0.2684 -0.0420
  634MOL0     C87421   3.222   8.266   8.901 -1.0397 -0.6177 -0.3291
  634MOL0     C87422   3.272   8.134   8.956 -0.4849  0.2880 -0.4955
  634MOL0     H87423   3.125   7.816   8.862  0.2639  1.3528 -0.8164
  634MOL0     H87424   3.005   7.599   8.800 -1.1419 -0.8379 -1.9703
  634MOL0     H87425   2.806   7.503   8.889 -0.5838  1.6478  0.0637
  634MOL0     H87426   2.837   7.409   8.732  0.1455 -0.3078 -0.5301
  634MOL0     H87427   2.573   7.454   8.861  1.3912 -0.3547  1.2771
  634MOL0     H87428   2.593   7.426   8.682 -2.1249 -4.7740  1.4431
  634MOL0     H87429   2.720   7.223   8.746 -3.4523 -4.0143 -0.4669
  634MOL0     H87430   2.687   7.258   8.921 -2.2718 -0.2596  0.8426
  634MOL0     H87431   2.450   7.250   8.875 -0.6120  0.3405  0.3704
  634MOL0     H87432   2.471   7.224   8.703  1.7394  2.9206  0.0397
  634MOL0     H87433   2.552   7.032   8.917 -0.9154  0.8556  0.1303
  634MOL0     H87434   2.603   7.007   8.756  1.3869 -0.3681  0.8342
  634MOL0     H87435   2.385   6.881   8.801 -3.5650  0.3103  1.4641
  634MOL0     H87436   2.298   7.038   8.806  0.5617  4.3199 -5.2606
  634MOL0     H87437   2.434   6.931   8.555 -0.5243 -0.2338 -0.6616
  634MOL0     H87438   2.348   7.086   8.586 -1.1572 -0.5544 -1.0357
  634MOL0     H87439   2.270   6.797   8.623  2.4135  0.1507  0.5197
  634MOL0     H87440   2.158   6.937   8.671  0.3020 -0.4149  0.5432
  634MOL0     H87441   2.344   6.777   8.358  1.3707  3.7854  2.2867
  634MOL0     H87442   2.107   6.807   8.051 -0.1895  0.4971 -0.4093
  634MOL0     H87443   2.246   6.715   8.110 -1.1425 -0.6355 -2.5335
  634MOL0     H87444   2.336   6.964   8.135  0.9986 -1.0818  0.4434
  634MOL0     H87445   2.395   6.842   8.024 -0.3604 -0.2708  0.5275
  634MOL0     H87446   2.207   6.937   7.854 -1.3064 -0.6593  1.0503
  634MOL0     H87447   2.194   7.071   7.962 -1.5099 -1.2874  0.4190
  634MOL0     H87448   2.459   7.024   7.847 -0.9115 -0.3954  1.0454
  634MOL0     H87449   2.335   7.148   7.805  1.7361 -0.1424 -0.9245
  634MOL0     H87450   2.468   7.347   8.152 -0.4573  0.0483 -0.2064
  634MOL0     H87451   2.691   7.491   8.296  0.3737  2.1995  0.7812
  634MOL0     H87452   2.576   7.569   8.192 -1.0925 -2.2908 -0.4824
  634MOL0     H87453   2.750   7.590   8.169 -1.7336  1.6513  1.7434
  634MOL0     H87454   2.917   7.506   8.396 -0.0445 -1.9473 -3.2231
  634MOL0     H87455   3.085   7.619   8.553 -0.4407  2.0728 -1.0861
  634MOL0     H87456   3.407   7.850   8.382  1.7475  0.7483  0.2644
  634MOL0     H87457   3.238   7.864   8.427  0.2456 -1.2600 -0.7806
  634MOL0     H87458   3.298   7.897   8.673 -1.9830  1.8262 -1.3959
  634MOL0     H87459   3.469   7.864   8.614  0.3543 -0.8595 -0.9262
  634MOL0     H87460   3.420   8.102   8.641  1.3626 -1.7964 -0.6082
  634MOL0     H87461   3.294   8.103   8.525  0.1712  0.8032 -0.9230
  634MOL0     H87462   3.443   8.072   8.344 -3.3066 -0.0086  0.6912
  634MOL0     H87463   3.580   8.027   8.450 -0.2774 -0.6841  0.4169
  634MOL0     H87464   3.602   8.253   8.533  2.4900 -0.0010 -0.2360
  634MOL0     H87465   3.587   8.251   8.351  0.6960  1.0460  1.2187
  634MOL0     H87466   3.388   8.333   8.578  1.1159 -0.2235  0.7434
  634MOL0     H87467   3.323   8.307   8.418 -0.4075 -0.6654  0.6655
  634MOL0     H87468   3.432   8.499   8.322 -0.7828  2.7150  0.2981
  634MOL0     H87469   3.541   8.508   8.461 -0.7423 -1.5975  2.0240
  634MOL0     H87470   3.384   8.687   8.460  0.4273 -0.3019 -0.7877
  634MOL0     H87471   3.372   8.582   8.604  2.7304  4.7122 -0.5378
  634MOL0     H87472   3.353   7.649   8.224  1.0433 -0.4814  0.6955
  634MOL0     H87473   3.189   7.514   8.074 -3.1295 -0.6191 -0.3981
  634MOL0     H87474   2.852   7.256   7.841  0.9272  1.6208  1.9746
  634MOL0     H87475   2.636   7.149   7.804  0.7308 -0.5448  1.5476
  634MOL0     H87476   2.688   7.862   8.640 -1.3019 -0.4006  2.2793
  634MOL0     H87477   2.801   8.043   8.701 -4.8539 -2.7785 -0.8978
  634MOL0     H87478   3.017   8.409   8.677 -2.0158 -1.3013  1.6123
  634MOL0     H87479   3.145   8.618   8.741 -0.1449  0.6276  0.7226
  634MOL0     H87480   3.291   8.785   8.801  2.7011  2.3634  0.5094
  634MOL0     H87481   3.200   8.751   8.962 -1.1736 -1.6392 -2.5721
  634MOL0     H87482   3.401   8.822   9.077 -0.0027 -0.8505 -0.0935
  634MOL0     H87483   3.337   8.951   8.952 -2.4159 -0.8844  0.3528
  634MOL0     H87484   3.582   8.775   8.913  1.1288  1.2000 -0.4725
  634MOL0     H87485   3.522   8.901   8.814 -0.0638 -1.4464 -0.2589
  634MOL0     H87486   3.641   8.926   9.082 -2.1527  0.3375  1.4073
  634MOL0     H87487   3.536   9.060   9.017  1.2858  1.7003 -1.4218
  634MOL0     H87488   3.918   9.069   8.815 -0.2284  3.5523 -1.0100
  634MOL0     H87489   3.385   8.373   8.996 -1.5798  1.2296  2.2021
  634MOL0     H87490   3.370   8.142   9.005 -0.7403 -0.6069  0.1866
  634MOL0     H87491   3.198   8.097   9.027 -1.1293 -2.1155 -2.2887
  634MOL0     H87492   3.301   8.062   8.879  2.0871  2.0663 -1.3201
  635MOL0     O87493   2.911   7.340   6.811  0.7140 -0.2679 -0.4867
  635MOL0     C87494   2.841   7.299   6.908 -0.0515  0.1396  0.1643
  635MOL0     O87495   2.886   7.210   7.007  0.7076  0.3442  0.2062
  635MOL0     C87496   3.013   7.175   7.010 -0.5165  0.5346  0.3140
  635MOL0     C87497   3.067   7.160   7.138 -0.6429 -0.4135 -0.2273
  635MOL0     C87498   3.199   7.104   7.153  0.8557  0.4275 -0.2208
  635MOL0     C87499   3.269   7.045   7.040 -0.4087 -0.9222 -0.8448
  635MOL0     O87500   3.390   6.982   7.056  0.3506 -0.7731  0.3213
  635MOL0     C87501   3.457   6.973   7.183  0.6382 -0.7230  0.4875
  635MOL0     C87502   3.603   6.932   7.171 -0.0813 -0.5132 -0.0200
  635MOL0     C87503   3.672   7.028   7.057  0.7674 -0.2651 -1.2550
  635MOL0     C87504   3.695   7.184   7.092 -0.4486  0.9061  0.4486
  635MOL0     C87505   3.797   7.248   7.001 -0.7063 -0.1856  0.0038
  635MOL0     C87506   3.770   7.228   6.850 -0.1097  0.4672 -1.2529
  635MOL0     C87507   3.884   7.283   6.758 -0.2837  0.3793 -0.0300
  635MOL0     C87508   4.018   7.212   6.775 -0.6790  0.6965 -0.9582
  635MOL0     N87509   4.122   7.295   6.728 -0.5442  0.1565  0.0000
  635MOL0     C87510   4.186   7.393   6.798  0.4520 -0.5012  0.1828
  635MOL0     C87511   4.257   7.463   6.701 -0.0741 -0.5389 -0.3287
  635MOL0     C87512   4.360   7.559   6.732 -0.2515 -0.9582  0.0271
  635MOL0     C87513   4.347   7.700   6.670 -0.7257 -0.2264 -0.1416
  635MOL0     C87514   4.431   7.809   6.736 -0.4510 -0.2702  0.2580
  635MOL0     C87515   4.585   7.810   6.716  0.3325 -0.1089  0.1258
  635MOL0     O87516   4.628   7.917   6.621 -0.5115  0.4440 -0.2552
  635MOL0     C87517   4.755   7.917   6.578  0.3846 -0.6385 -0.0219
  635MOL0     C87518   4.846   7.826   6.616 -0.7369  0.7065  0.5102
  635MOL0     C87519   4.977   7.832   6.557 -0.1981 -1.3537 -0.6218
  635MOL0     C87520   5.091   7.756   6.614 -0.3576 -0.2536 -0.3354
  635MOL0     C87521   5.000   7.921   6.459  0.4576  0.1196  0.6287
  635MOL0     C87522   5.136   7.919   6.400 -0.2865  0.1010  0.0222
  635MOL0     O87523   5.214   8.024   6.432 -0.6154  0.4725 -0.0806
  635MOL0     C87524   5.344   8.020   6.381  0.3088  0.6127  0.2305
  635MOL0     C87525   5.388   8.149   6.353  1.3230  0.1955  0.4863
  635MOL0     C87526   5.516   8.165   6.310  0.4201 -0.1221  0.8276
  635MOL0     C87527   5.610   8.066   6.309 -0.0393  0.3315 -0.7804
  635MOL0     O87528   5.742   8.078   6.280 -0.6690  0.7680  0.2014
  635MOL0     C87529   5.798   8.188   6.210 -0.2888  0.4373 -0.1948
  635MOL0     C87530   5.904   8.263   6.294 -0.2826 -0.3692  0.3373
  635MOL0     C87531   5.962   8.380   6.221  0.0051 -0.5884  0.3424
  635MOL0     C87532   6.057   8.462   6.311  0.4288  0.3281  0.1700
  635MOL0     C87533   6.105   8.590   6.255 -0.2528 -0.6048  0.3924
  635MOL0     C87534   6.218   8.652   6.339 -0.4955 -0.4501  0.3942
  635MOL0     C87535   6.358   8.607   6.282  0.6069  0.1942  0.3817
  635MOL0     C87536   6.461   8.699   6.343 -0.7235  0.0161  0.2789
  635MOL0    Cl87537   6.444   8.875   6.308  0.2795 -0.3026 -0.3639
  635MOL0     C87538   5.560   7.938   6.335  0.1536  0.3698 -0.0186
  635MOL0     C87539   5.428   7.914   6.376  0.3887  0.7492  0.2302
  635MOL0     O87540   5.164   7.837   6.311  0.0337  0.1654 -0.0931
  635MOL0     C87541   4.906   8.010   6.418 -0.1188 -0.3705  0.9156
  635MOL0     C87542   4.784   8.016   6.485 -0.6601  0.7804  0.5481
  635MOL0     N87543   4.216   7.422   6.581  0.8663 -0.5238  0.1930
  635MOL0     N87544   4.144   7.317   6.590  0.0442  0.0155  0.0780
  635MOL0     C87545   3.209   7.053   6.917 -0.7896 -0.7065  0.1465
  635MOL0     C87546   3.087   7.116   6.898 -0.3024  0.1613 -0.4400
  635MOL0     C87547   2.700   7.347   6.924  0.0183 -0.6696 -0.8247
  635MOL0     C87548   2.621   7.322   7.044 -0.1642 -0.6670 -0.9019
  635MOL0     C87549   2.487   7.367   7.049  0.9433 -0.4388  0.7780
  635MOL0     C87550   2.434   7.464   6.964 -0.3767 -0.3443 -0.8155
  635MOL0     O87551   2.308   7.512   6.967 -0.2716  0.0398 -0.1122
  635MOL0     C87552   2.212   7.479   7.069  0.0746  0.1703  0.3236
  635MOL0     C87553   2.081   7.559   7.041 -0.5094 -0.2423 -0.0402
  635MOL0     C87554   1.989   7.573   7.174  0.5962  0.3961  0.1025
  635MOL0     C87555   1.876   7.679   7.153 -0.3048  0.1563 -0.5065
  635MOL0     C87556   1.791   7.676   7.036 -0.4380  0.1434  1.0136
  635MOL0     C87557   1.732   7.673   6.931 -0.3891 -0.3340 -0.2764
  635MOL0     C87558   2.516   7.506   6.860  0.5363  0.0275  0.9073
  635MOL0     C87559   2.639   7.438   6.831 -0.1817 -0.4157 -0.7541
  635MOL0     C87560   2.694   7.476   6.696  0.1735 -0.1407  0.0673
  635MOL0     H87561   3.007   7.204   7.217 -1.7724 -3.6839  0.9137
  635MOL0     H87562   3.241   7.086   7.252 -1.6728  1.9344  1.2250
  635MOL0     H87563   3.411   6.887   7.233  0.5407 -1.3499 -0.6487
  635MOL0     H87564   3.449   7.068   7.236 -0.5773 -0.8022  0.4648
  635MOL0     H87565   3.663   6.926   7.263  0.4328 -0.4144 -0.3450
  635MOL0     H87566   3.598   6.830   7.132 -2.8887 -0.1834 -0.7004
  635MOL0     H87567   3.776   6.999   7.044  0.9020 -0.2235 -0.2800
  635MOL0     H87568   3.613   7.013   6.966 -1.2317  0.5914 -0.1624
  635MOL0     H87569   3.601   7.240   7.084  0.2781  1.9732 -0.9426
  635MOL0     H87570   3.722   7.192   7.197  2.1822  0.0806 -0.0931
  635MOL0     H87571   3.899   7.213   7.016 -0.8581 -0.6192  0.0191
  635MOL0     H87572   3.804   7.356   7.020 -2.1861  0.1094 -0.9662
  635MOL0     H87573   3.744   7.130   6.810  0.3985  1.7885 -5.3416
  635MOL0     H87574   3.685   7.292   6.823 -1.5103 -1.7866 -2.4860
  635MOL0     H87575   3.886   7.391   6.775 -0.4481  0.1666  1.5204
  635MOL0     H87576   3.851   7.268   6.655 -1.0681 -1.5693  0.4713
  635MOL0     H87577   4.037   7.186   6.879 -1.8387  2.3842 -0.2736
  635MOL0     H87578   4.017   7.115   6.725 -1.0501  0.1625  0.0482
  635MOL0     H87579   4.201   7.395   6.905 -2.3304  0.2444  0.6215
  635MOL0     H87580   4.462   7.522   6.716  0.3394  1.1610 -1.6354
  635MOL0     H87581   4.344   7.566   6.839 -2.7867  0.5291 -0.3889
  635MOL0     H87582   4.376   7.695   6.565  1.9947 -2.3344  0.6069
  635MOL0     H87583   4.245   7.734   6.692  0.2190  2.6992  0.1065
  635MOL0     H87584   4.400   7.905   6.693 -1.3847 -1.5335 -2.0448
  635MOL0     H87585   4.408   7.820   6.842  0.5571  0.6105  0.4015
  635MOL0     H87586   4.635   7.821   6.813  3.2957 -1.7160 -1.0540
  635MOL0     H87587   4.620   7.709   6.691 -0.8856 -0.4331 -0.3075
  635MOL0     H87588   4.826   7.749   6.690 -1.2938  0.3149 -0.0352
  635MOL0     H87589   5.067   7.652   6.639  2.7385 -0.4935  2.2983
  635MOL0     H87590   5.129   7.799   6.707  0.6193 -0.1697 -0.7677
  635MOL0     H87591   5.179   7.743   6.551 -1.5758 -3.8563 -1.5471
  635MOL0     H87592   5.319   8.233   6.356  0.2353 -0.6474 -0.1658
  635MOL0     H87593   5.551   8.262   6.276  0.4372  0.5405  2.6101
  635MOL0     H87594   5.851   8.136   6.129  2.7703 -0.0638  1.9209
  635MOL0     H87595   5.731   8.256   6.157 -1.2220 -0.0734  0.3154
  635MOL0     H87596   5.865   8.287   6.393  2.5673 -0.0934  1.4984
  635MOL0     H87597   5.985   8.191   6.310  1.7921  1.8166  0.1636
  635MOL0     H87598   5.889   8.454   6.185 -0.2838 -1.4769 -0.9944
  635MOL0     H87599   6.013   8.339   6.133  0.1759 -4.6565  2.1491
  635MOL0     H87600   6.138   8.391   6.332  0.9167  1.2232  1.4270
  635MOL0     H87601   6.005   8.489   6.404  0.8637  3.9835 -0.5306
  635MOL0     H87602   6.136   8.575   6.151 -1.9592  0.4021 -0.3020
  635MOL0     H87603   6.023   8.662   6.251  1.3196  1.2117 -0.9297
  635MOL0     H87604   6.208   8.621   6.444  1.3761 -0.0896  0.7132
  635MOL0     H87605   6.215   8.761   6.331 -0.3132 -0.4593  0.2019
  635MOL0     H87606   6.353   8.622   6.174 -0.1822  0.7749  0.4941
  635MOL0     H87607   6.373   8.500   6.302 -1.9821 -0.4248 -0.5077
  635MOL0     H87608   6.559   8.673   6.301 -0.8300 -0.1523  0.1372
  635MOL0     H87609   6.472   8.679   6.450 -1.8630 -1.9379  0.0725
  635MOL0     H87610   5.638   7.865   6.349  0.5200  0.3915 -1.7613
  635MOL0     H87611   5.389   7.818   6.408  1.1104  1.6866  4.5829
  635MOL0     H87612   4.937   8.077   6.338 -1.1237  1.1263  1.7351
  635MOL0     H87613   4.710   8.092   6.464  0.8050  2.6434  1.8115
  635MOL0     H87614   3.260   7.008   6.832 -3.7174 -4.1018 -0.0381
  635MOL0     H87615   3.052   7.134   6.797  2.3315  2.2036 -1.1028
  635MOL0     H87616   2.655   7.243   7.109 -2.0376  1.1981  2.6352
  635MOL0     H87617   2.426   7.336   7.134  0.8420 -3.1486 -0.1912
  635MOL0     H87618   2.181   7.375   7.078 -0.6821  0.4857  1.6292
  635MOL0     H87619   2.248   7.515   7.165  0.4896  2.8577 -0.7499
  635MOL0     H87620   2.030   7.525   6.951 -2.5731  2.2563  0.0926
  635MOL0     H87621   2.114   7.660   7.017  0.6850  0.2396  3.0587
  635MOL0     H87622   1.951   7.473   7.199  3.4959 -0.5839  1.0145
  635MOL0     H87623   2.046   7.606   7.262  0.2729  0.0236  0.4606
  635MOL0     H87624   1.922   7.779   7.154 -1.4549  0.7121 -0.7875
  635MOL0     H87625   1.810   7.681   7.240  1.7504  1.5106  1.1213
  635MOL0     H87626   1.690   7.690   6.833  1.0660  0.4942 -0.7788
  635MOL0     H87627   2.467   7.579   6.796 -0.6692 -1.8210 -0.3701
  635MOL0     H87628   2.624   7.530   6.633  1.0524  1.6627  0.5727
  635MOL0     H87629   2.786   7.535   6.702 -1.9855  3.5214  0.0626
  635MOL0     H87630   2.711   7.384   6.640  2.0456  1.0918 -1.5191
  636MOL0     O87631  10.225   0.454   6.857  0.8365 -0.2500  0.7823
  636MOL0     C87632  10.155   0.445   6.755  0.4062  0.1215 -0.5447
  636MOL0     O87633  10.186   0.500   6.637 -0.2525 -0.2753 -0.2128
  636MOL0     C87634  10.292   0.582   6.621  0.5942  0.0422  0.2852
  636MOL0     C87635  10.283   0.723   6.576 -0.2981 -0.1627 -1.0990
  636MOL0     C87636  10.397   0.809   6.573  1.3801  0.6335  0.4032
  636MOL0     C87637  10.520   0.764   6.605 -0.8071  0.2771 -0.2829
  636MOL0     O87638  10.639   0.845   6.598  0.0574 -0.0138 -0.5005
  636MOL0     C87639  10.700   0.861   6.721  0.0102  0.0321  0.0859
  636MOL0     C87640  10.856   0.865   6.724  0.1960 -0.5364  0.1256
  636MOL0     C87641  10.908   1.000   6.678  1.0044 -0.1705 -0.4677
  636MOL0     C87642  11.040   1.031   6.747  0.2354 -0.0588 -0.7260
  636MOL0     C87643  11.117   1.148   6.686  0.4357  0.2238  0.3713
  636MOL0     C87644  11.214   1.200   6.788 -0.3633  0.3219  0.1704
  636MOL0     C87645  11.288   1.322   6.729 -0.3025 -0.0754 -0.0860
  636MOL0     C87646  11.387   1.363   6.838  0.2475 -0.2654 -0.3589
  636MOL0     N87647  11.452   1.473   6.774  0.2787 -0.6621 -0.3954
  636MOL0     C87648  11.408   1.605   6.793  0.0467  0.3689  0.2200
  636MOL0     C87649  11.510   1.683   6.737  0.7857  0.4254 -0.7686
  636MOL0     C87650  11.535   1.838   6.746 -0.1116 -0.6713  0.6500
  636MOL0     C87651  11.519   1.901   6.609 -0.6077 -0.1368 -0.1396
  636MOL0     C87652  11.520   2.055   6.610  0.1980 -0.5458  0.2643
  636MOL0     C87653  11.652   2.114   6.664 -0.2580  0.1678  0.4957
  636MOL0     O87654  11.639   2.257   6.642 -0.1336 -0.5110 -0.2721
  636MOL0     C87655  11.741   2.337   6.702  0.0608 -0.5266 -0.2148
  636MOL0     C87656  11.708   2.470   6.718 -0.0072 -0.6373  0.3633
  636MOL0     C87657  11.788   2.570   6.767  0.2580  0.1816 -1.3430
  636MOL0     C87658  11.719   2.705   6.769 -0.4247 -0.1059 -0.3395
  636MOL0     C87659  11.916   2.525   6.821  0.0890  0.3828  0.9266
  636MOL0     C87660  12.018   2.619   6.858 -0.6656  0.0171 -1.1291
  636MOL0     O87661  12.120   2.564   6.931 -0.1147 -0.3447 -0.4213
  636MOL0     C87662  12.242   2.635   6.948 -0.2424  0.4999 -0.3525
  636MOL0     C87663  12.312   2.619   7.076  0.4318  0.3206 -0.0940
  636MOL0     C87664  12.431   2.677   7.101 -0.6142 -0.5980 -0.0282
  636MOL0     C87665  12.505   2.745   6.997 -0.6522  0.5976  0.3295
  636MOL0     O87666  12.628   2.806   7.005 -1.1297  0.3556 -0.1227
  636MOL0     C87667  12.732   2.755   7.090  0.0798  0.0372  0.4219
  636MOL0     C87668  12.861   2.746   7.003  0.8154  0.9771 -1.2240
  636MOL0     C87669  12.872   2.618   6.916  0.6358  0.1482 -0.1954
  636MOL0     C87670  12.784   2.615   6.796 -0.3875 -0.2020  0.3418
  636MOL0     C87671  12.816   2.499   6.691 -0.4150 -0.6332 -0.5463
  636MOL0     C87672  12.959   2.507   6.617  0.8586 -0.4771 -0.6383
  636MOL0     C87673  12.978   2.643   6.549 -0.2557  0.9878  0.2337
  636MOL0     C87674  13.093   2.633   6.455 -0.4506 -0.3103 -0.1650
  636MOL0    Cl87675  13.250   2.610   6.548 -0.1976 -0.2440  0.3699
  636MOL0     C87676  12.443   2.752   6.869  1.0303 -0.0414 -0.4930
  636MOL0     C87677  12.308   2.709   6.847 -0.5074  0.0709  0.1474
  636MOL0     O87678  12.007   2.743   6.830 -0.1341  0.8953  0.5388
  636MOL0     C87679  11.947   2.386   6.808 -0.1066 -1.1001 -0.0383
  636MOL0     C87680  11.863   2.301   6.743  0.4838  0.1606 -0.2808
  636MOL0     N87681  11.603   1.598   6.693 -0.7599  0.0666  0.3656
  636MOL0     N87682  11.563   1.481   6.701 -0.2933 -0.8048  0.1562
  636MOL0     C87683  10.534   0.627   6.635 -0.9891  1.0359 -1.0572
  636MOL0     C87684  10.423   0.543   6.641 -0.1136 -0.2471 -0.5837
  636MOL0     C87685  10.026   0.371   6.772  0.3007 -0.4441 -0.4390
  636MOL0     C87686   9.953   0.353   6.653 -0.3108 -0.3337 -0.2612
  636MOL0     C87687   9.836   0.279   6.657  0.0853  0.0764  0.9800
  636MOL0     C87688   9.788   0.220   6.771 -0.3522  0.6100  0.2882
  636MOL0     O87689   9.670   0.147   6.749 -0.1980 -0.6727  0.0916
  636MOL0     C87690   9.557   0.155   6.843  0.0213  0.2311 -0.2269
  636MOL0     C87691   9.426   0.112   6.774 -0.0122 -0.1740  0.2846
  636MOL0     C87692   9.385   0.187   6.647 -0.5605 -0.6712 -1.4261
  636MOL0     C87693   9.248   0.156   6.596  0.1792 -0.4698 -0.1261
  636MOL0     C87694   9.207   0.234   6.482  1.0774  0.6755  0.5561
  636MOL0     C87695   9.181   0.286   6.382  0.0642  0.1698 -0.7537
  636MOL0     C87696   9.860   0.230   6.892  0.1829  0.6339  0.4750
  636MOL0     C87697   9.983   0.306   6.892  0.5659  0.2665 -1.0300
  636MOL0     C87698  10.053   0.315   7.032  0.1108 -0.1620  1.3000
  636MOL0     H87699  10.191   0.777   6.556  0.5201  1.8539  0.3135
  636MOL0     H87700  10.393   0.914   6.546 -0.0199  1.1286  2.3530
  636MOL0     H87701  10.680   0.780   6.791  4.5988 -1.1877  0.3356
  636MOL0     H87702  10.662   0.954   6.763  2.2092 -0.2962  3.1073
  636MOL0     H87703  10.893   0.858   6.827 -1.3507  0.9715  0.8324
  636MOL0     H87704  10.901   0.790   6.658 -0.5256 -0.7373 -0.1409
  636MOL0     H87705  10.921   1.012   6.570 -0.1947  2.8666 -0.3683
  636MOL0     H87706  10.840   1.084   6.692  2.6696  1.6260 -2.5245
  636MOL0     H87707  11.030   1.054   6.854  1.1603 -0.2147 -0.5968
  636MOL0     H87708  11.105   0.944   6.739  0.2910  0.1068 -2.2835
  636MOL0     H87709  11.043   1.227   6.668 -0.6015  0.3043  4.0077
  636MOL0     H87710  11.168   1.115   6.596  0.2667  0.6460  0.1181
  636MOL0     H87711  11.175   1.227   6.886  0.0818  2.0065 -0.0842
  636MOL0     H87712  11.286   1.118   6.796  0.6911  1.0035 -1.6443
  636MOL0     H87713  11.224   1.407   6.704  0.7743  1.3847  1.9009
  636MOL0     H87714  11.345   1.272   6.649 -2.7445 -2.3612 -0.5376
  636MOL0     H87715  11.336   1.383   6.933  1.8798 -0.0860  0.5107
  636MOL0     H87716  11.463   1.285   6.847  0.1219 -0.3050  0.4515
  636MOL0     H87717  11.313   1.632   6.838 -0.3561 -0.4412 -0.1274
  636MOL0     H87718  11.638   1.854   6.778 -0.3982 -2.2164  2.5378
  636MOL0     H87719  11.482   1.887   6.828  2.6221  0.0555  2.1087
  636MOL0     H87720  11.597   1.861   6.544  0.1302 -0.3485  0.8565
  636MOL0     H87721  11.422   1.865   6.573 -0.9288  1.1268 -0.5855
  636MOL0     H87722  11.506   2.101   6.512 -0.7892  0.9003  1.0439
  636MOL0     H87723  11.443   2.088   6.680 -1.7755 -0.5872 -1.7592
  636MOL0     H87724  11.677   2.093   6.768  3.4811  4.5124  0.8033
  636MOL0     H87725  11.733   2.076   6.600  0.8031  2.4892  0.3649
  636MOL0     H87726  11.603   2.495   6.702  0.3959 -0.2485 -2.0396
  636MOL0     H87727  11.625   2.697   6.714  0.0550 -0.8767 -1.0806
  636MOL0     H87728  11.789   2.771   6.716 -0.1576  0.6274  0.8863
  636MOL0     H87729  11.703   2.731   6.874 -0.1798  0.0486 -0.3389
  636MOL0     H87730  12.275   2.555   7.155  1.2974 -3.0889 -2.2089
  636MOL0     H87731  12.483   2.655   7.194  0.7824  3.1521  0.2334
  636MOL0     H87732  12.752   2.826   7.171  0.7982  0.2947  0.0309
  636MOL0     H87733  12.715   2.662   7.145 -0.8958  0.4492  0.8485
  636MOL0     H87734  12.864   2.839   6.946 -0.7759  0.8534 -1.5681
  636MOL0     H87735  12.947   2.757   7.069 -0.1094  1.3661 -0.0515
  636MOL0     H87736  12.840   2.535   6.979 -1.1765 -0.0304 -1.2830
  636MOL0     H87737  12.976   2.606   6.886  0.6621 -2.1102  0.6230
  636MOL0     H87738  12.785   2.705   6.735 -1.4801 -0.3443  0.0834
  636MOL0     H87739  12.679   2.616   6.827 -1.2312  0.6985 -2.2740
  636MOL0     H87740  12.814   2.405   6.748 -0.3549 -0.2663  0.0718
  636MOL0     H87741  12.739   2.485   6.615  1.8378  0.5347 -3.1983
  636MOL0     H87742  12.966   2.432   6.538 -2.0878 -0.5587 -0.9541
  636MOL0     H87743  13.041   2.482   6.685 -1.2712 -1.2137  1.8466
  636MOL0     H87744  12.997   2.709   6.634  1.5138 -0.9569  1.4276
  636MOL0     H87745  12.888   2.679   6.498 -0.8616 -0.2418  0.3875
  636MOL0     H87746  13.100   2.732   6.409 -1.1713  0.7240  1.8083
  636MOL0     H87747  13.068   2.557   6.381 -3.0412 -1.4190  1.6709
  636MOL0     H87748  12.490   2.812   6.792 -0.9982  1.2791 -0.7524
  636MOL0     H87749  12.271   2.732   6.747  0.0668  1.4650  0.2416
  636MOL0     H87750  12.043   2.357   6.848 -0.3662  0.6677  2.0370
  636MOL0     H87751  11.910   2.203   6.744 -0.2722 -0.2097  1.0012
  636MOL0     H87752  10.635   0.589   6.650 -1.2409  0.6331 -0.2866
  636MOL0     H87753  10.432   0.441   6.675  1.0106 -0.2836 -0.9636
  636MOL0     H87754   9.979   0.411   6.565 -2.8640  2.4004  0.6475
  636MOL0     H87755   9.784   0.272   6.562  2.0084 -0.6301 -0.0817
  636MOL0     H87756   9.585   0.081   6.919  2.6486 -0.4284 -1.7260
  636MOL0     H87757   9.537   0.252   6.889  3.0582  0.7316  0.2637
  636MOL0     H87758   9.345   0.139   6.843 -0.8026  1.1313 -1.0781
  636MOL0     H87759   9.417   0.003   6.767 -1.0772 -0.0236 -1.4263
  636MOL0     H87760   9.392   0.294   6.669  3.9284 -0.8166 -1.1359
  636MOL0     H87761   9.459   0.171   6.568  1.2069  1.8083 -0.4059
  636MOL0     H87762   9.172   0.163   6.674  0.9957 -2.1293  0.8500
  636MOL0     H87763   9.243   0.052   6.564 -2.9543 -1.0287  1.8477
  636MOL0     H87764   9.161   0.338   6.291  0.0622  0.2854 -0.6873
  636MOL0     H87765   9.843   0.167   6.979 -2.3239  0.9813  0.3019
  636MOL0     H87766  10.149   0.263   7.024  1.0042  1.7006 -2.0248
  636MOL0     H87767  10.067   0.421   7.054 -1.5610 -0.0352  1.9210
  636MOL0     H87768   9.987   0.273   7.108 -0.9781  1.0315  1.0517
  637MOL0     O87769   7.616   6.095   4.459 -0.0499  0.8284  0.5397
  637MOL0     C87770   7.723   6.127   4.400  0.2944  0.3796 -0.5260
  637MOL0     O87771   7.804   6.229   4.431 -0.3016 -0.0110 -0.9025
  637MOL0     C87772   7.779   6.296   4.554 -0.4614  0.2038  0.6258
  637MOL0     C87773   7.682   6.390   4.567  0.2514  0.7608  0.4536
  637MOL0     C87774   7.651   6.443   4.697 -0.7528  0.2988  1.1299
  637MOL0     C87775   7.720   6.389   4.808 -0.0476 -0.6606  0.4072
  637MOL0     O87776   7.684   6.414   4.935  0.1398  0.3431 -1.0878
  637MOL0     C87777   7.562   6.484   4.960  0.1775  0.1563 -0.5580
  637MOL0     C87778   7.532   6.494   5.110 -0.4806  1.6187  0.4758
  637MOL0     C87779   7.504   6.371   5.188 -0.3988  0.0047  0.4610
  637MOL0     C87780   7.404   6.281   5.121  0.2401 -0.1986 -0.3116
  637MOL0     C87781   7.404   6.149   5.201 -0.0093  0.2592 -0.1426
  637MOL0     C87782   7.319   6.037   5.138 -0.1473 -0.1184  0.7629
  637MOL0     C87783   7.333   5.904   5.209  0.7696 -0.5099 -0.9498
  637MOL0     C87784   7.206   5.882   5.299  0.0129  0.0996  0.0026
  637MOL0     N87785   7.084   5.874   5.229 -0.0226  0.8000 -0.2674
  637MOL0     C87786   7.057   5.775   5.134 -0.2967 -0.0037  0.1808
  637MOL0     C87787   6.932   5.803   5.095  0.0939  0.6439 -0.1628
  637MOL0     C87788   6.852   5.708   5.007  0.4648  0.3589  0.1871
  637MOL0     C87789   6.747   5.616   5.082 -0.6343 -0.6660 -0.0577
  637MOL0     C87790   6.619   5.604   4.998  0.5661  0.5336 -0.3362
  637MOL0     C87791   6.509   5.507   5.062  0.4870 -1.1497 -0.7334
  637MOL0     O87792   6.533   5.371   5.028  0.4138  0.1009  0.0433
  637MOL0     C87793   6.434   5.281   5.056 -0.2775 -0.3874  0.1026
  637MOL0     C87794   6.476   5.155   5.033 -1.0172 -0.2130 -0.3604
  637MOL0     C87795   6.394   5.043   5.049 -0.7701  0.1815  0.1802
  637MOL0     C87796   6.455   4.908   5.009 -0.3749 -0.1616 -0.5800
  637MOL0     C87797   6.263   5.068   5.096  0.3586  0.4133  0.1383
  637MOL0     C87798   6.165   4.961   5.142 -0.4061  0.3362 -0.3224
  637MOL0     O87799   6.053   5.005   5.204  0.4730  0.5026 -0.3069
  637MOL0     C87800   5.947   4.924   5.217  0.1397  0.6337  0.0345
  637MOL0     C87801   5.866   4.888   5.107  0.4690  0.2134 -0.9458
  637MOL0     C87802   5.744   4.823   5.134 -0.0424  1.3058  0.1434
  637MOL0     C87803   5.694   4.810   5.259 -0.0782 -0.7813  0.0488
  637MOL0     O87804   5.570   4.757   5.278 -0.2596 -0.4755 -0.0644
  637MOL0     C87805   5.508   4.793   5.405  0.4431 -0.1756  0.5294
  637MOL0     C87806   5.366   4.750   5.403 -0.6009  0.1574  0.4174
  637MOL0     C87807   5.291   4.842   5.307 -0.6197 -0.5191  0.1274
  637MOL0     C87808   5.149   4.795   5.288  0.1727  0.3231 -0.1576
  637MOL0     C87809   5.074   4.866   5.170  0.1988 -0.2639 -0.3806
  637MOL0     C87810   4.930   4.814   5.130  0.4907  0.2055  0.3413
  637MOL0     C87811   4.858   4.895   5.023 -0.2479  0.7040  0.6572
  637MOL0     C87812   4.708   4.866   4.992 -0.0237  0.3221 -0.7745
  637MOL0    Cl87813   4.602   4.959   5.096 -0.4055 -0.4161  0.3248
  637MOL0     C87814   5.779   4.835   5.369 -0.2245  0.3735 -0.3101
  637MOL0     C87815   5.907   4.895   5.352  0.3747  0.3035  1.2087
  637MOL0     O87816   6.195   4.844   5.122 -0.0372  0.2324 -0.1814
  637MOL0     C87817   6.219   5.208   5.124  0.1367 -0.2495  1.0321
  637MOL0     C87818   6.306   5.320   5.101 -0.2803 -0.6372 -0.4489
  637MOL0     N87819   6.886   5.914   5.153  0.1704  0.1155 -0.1796
  637MOL0     N87820   6.980   5.956   5.242  0.2510  0.4515  1.0482
  637MOL0     C87821   7.819   6.299   4.786 -0.1169  0.1003 -0.4358
  637MOL0     C87822   7.854   6.252   4.662  1.0485 -0.1116  0.4573
  637MOL0     C87823   7.776   6.041   4.293 -0.3977  0.4707 -1.2713
  637MOL0     C87824   7.918   6.028   4.292 -0.3487  0.5857  0.1264
  637MOL0     C87825   7.981   5.961   4.192 -0.0893  0.2800  1.0175
  637MOL0     C87826   7.907   5.896   4.096 -0.5293  0.4436  0.3580
  637MOL0     O87827   7.983   5.816   4.020 -0.2272 -0.6076 -0.1979
  637MOL0     C87828   7.922   5.742   3.914  0.2341 -0.0057 -0.4644
  637MOL0     C87829   8.031   5.682   3.819 -0.0300  0.2539 -0.1126
  637MOL0     C87830   8.117   5.582   3.900  0.5316 -0.6381 -0.7456
  637MOL0     C87831   8.251   5.560   3.840 -1.0429  0.4285  0.2018
  637MOL0     C87832   8.308   5.429   3.879 -0.1172 -0.1103  1.2117
  637MOL0     C87833   8.352   5.321   3.891 -0.2479  1.5725 -0.3285
  637MOL0     C87834   7.763   5.905   4.095 -0.2414 -0.5770  0.1916
  637MOL0     C87835   7.698   5.978   4.195  0.4623 -0.7881  0.1809
  637MOL0     C87836   7.549   6.004   4.181 -0.9720 -1.0678 -0.7615
  637MOL0     H87837   7.620   6.411   4.481  1.6997 -0.7308 -1.0492
  637MOL0     H87838   7.569   6.513   4.709 -1.1418 -0.3235  2.2035
  637MOL0     H87839   7.477   6.441   4.907 -1.2534  2.4159 -0.2495
  637MOL0     H87840   7.576   6.583   4.915 -0.4636 -0.7445 -2.8389
  637MOL0     H87841   7.616   6.550   5.152 -0.2571  1.4250  0.2917
  637MOL0     H87842   7.445   6.559   5.126 -1.1863  0.1894  2.8455
  637MOL0     H87843   7.597   6.315   5.204 -1.2094 -0.7840  2.7394
  637MOL0     H87844   7.468   6.397   5.288 -4.4044 -1.0192 -0.5438
  637MOL0     H87845   7.305   6.328   5.120  1.7958  3.4718 -3.1024
  637MOL0     H87846   7.428   6.251   5.019  0.1209 -1.4028 -0.0003
  637MOL0     H87847   7.353   6.168   5.296 -0.4932 -0.1990 -0.3085
  637MOL0     H87848   7.506   6.112   5.212 -1.4041 -3.2062  3.8826
  637MOL0     H87849   7.215   6.060   5.114 -1.3669 -3.1270  2.5671
  637MOL0     H87850   7.354   6.013   5.037 -0.6211 -0.9147  0.7751
  637MOL0     H87851   7.410   5.908   5.286 -2.5652  3.6600  2.7659
  637MOL0     H87852   7.349   5.832   5.128 -3.6983  0.3295 -2.9045
  637MOL0     H87853   7.222   5.798   5.366 -2.6815  0.9601  1.8907
  637MOL0     H87854   7.195   5.964   5.371 -3.2108  0.0627 -0.3396
  637MOL0     H87855   7.120   5.692   5.104 -1.2818 -0.2267 -1.3716
  637MOL0     H87856   6.918   5.641   4.950  1.1654 -0.7188  2.1319
  637MOL0     H87857   6.804   5.785   4.947 -1.2659 -1.0767 -0.3392
  637MOL0     H87858   6.800   5.522   5.101  1.4581  0.4118 -0.2030
  637MOL0     H87859   6.726   5.665   5.177 -1.7436 -2.0114  0.4068
  637MOL0     H87860   6.574   5.703   5.000 -0.0032  0.2801  1.0181
  637MOL0     H87861   6.630   5.594   4.890  1.1269  1.0473 -0.3288
  637MOL0     H87862   6.506   5.506   5.172  0.4085  0.7328 -0.6913
  637MOL0     H87863   6.408   5.529   5.029 -0.3237 -1.2055  1.5060
  637MOL0     H87864   6.569   5.144   4.977 -0.4914  0.0992  0.4295
  637MOL0     H87865   6.385   4.865   4.936 -1.6598 -0.3828  0.7417
  637MOL0     H87866   6.454   4.839   5.094 -1.3226 -2.4279 -2.2951
  637MOL0     H87867   6.555   4.920   4.965  2.1938  0.3514  4.5954
  637MOL0     H87868   5.910   4.891   5.007  0.0370  0.8015 -1.1242
  637MOL0     H87869   5.691   4.789   5.045  2.0719  1.0093 -1.0655
  637MOL0     H87870   5.554   4.730   5.481 -1.7366 -1.1053  1.1587
  637MOL0     H87871   5.518   4.901   5.417 -0.8237  0.0642 -0.2593
  637MOL0     H87872   5.358   4.644   5.376  2.0243  0.4250 -1.9259
  637MOL0     H87873   5.325   4.749   5.504  0.5854 -2.2400  0.9623
  637MOL0     H87874   5.335   4.834   5.207  1.2983 -0.6849  0.9387
  637MOL0     H87875   5.301   4.944   5.346  1.4373  0.0770 -1.7340
  637MOL0     H87876   5.092   4.807   5.381  1.0648 -0.4988  0.5326
  637MOL0     H87877   5.158   4.687   5.270 -3.1785 -0.2012  0.6820
  637MOL0     H87878   5.060   4.969   5.205  0.0661 -1.1985  2.6087
  637MOL0     H87879   5.143   4.847   5.087 -0.8702 -3.2231 -0.6955
  637MOL0     H87880   4.871   4.833   5.220  0.1832 -0.4718  0.2862
  637MOL0     H87881   4.925   4.708   5.103  0.0584 -0.1592  1.7910
  637MOL0     H87882   4.914   4.873   4.932  0.8477 -4.6983  2.2902
  637MOL0     H87883   4.863   4.999   5.056  1.7160  0.0376  2.6920
  637MOL0     H87884   4.692   4.758   4.996  2.4147 -0.0820  0.0690
  637MOL0     H87885   4.687   4.910   4.894  1.0864  2.1679 -0.2513
  637MOL0     H87886   5.753   4.810   5.472 -0.5994  0.1874 -0.4469
  637MOL0     H87887   5.974   4.930   5.429 -2.8437  5.0622  2.2721
  637MOL0     H87888   6.116   5.237   5.144  0.3110  1.3527 -0.1882
  637MOL0     H87889   6.274   5.419   5.131  0.8357 -0.8375  1.5895
  637MOL0     H87890   7.875   6.264   4.872  0.1223  1.6242  0.0501
  637MOL0     H87891   7.926   6.171   4.651 -0.5040 -1.2203 -2.8199
  637MOL0     H87892   7.975   6.067   4.375 -2.4520  1.0379  1.4331
  637MOL0     H87893   8.088   5.945   4.185 -0.5358 -3.1299  0.6077
  637MOL0     H87894   7.858   5.663   3.955  2.0283 -0.3610  1.9317
  637MOL0     H87895   7.872   5.810   3.845  2.6869  1.9117 -0.4717
  637MOL0     H87896   8.091   5.770   3.792 -0.8179  1.2345  1.1983
  637MOL0     H87897   7.995   5.631   3.730  0.7017 -3.6824  1.6293
  637MOL0     H87898   8.133   5.631   3.997 -0.1531  1.5625 -1.6737
  637MOL0     H87899   8.062   5.488   3.891  3.2636 -2.2293 -1.8940
  637MOL0     H87900   8.320   5.631   3.886 -0.2410 -0.7355  0.8521
  637MOL0     H87901   8.252   5.573   3.732 -0.0548 -0.9422  0.0156
  637MOL0     H87902   8.390   5.224   3.916  0.3327  2.3199  1.9092
  637MOL0     H87903   7.707   5.847   4.022 -0.6082 -0.3129  0.2598
  637MOL0     H87904   7.525   6.106   4.152  1.7760 -0.6004 -1.6041
  637MOL0     H87905   7.504   5.938   4.106  2.0422 -0.2346 -3.4801
  637MOL0     H87906   7.496   5.969   4.271  2.9064 -1.7844  1.4784
  638MOL0     O87907   0.387   9.778   1.411  0.7911 -0.4629 -0.3692
  638MOL0     C87908   0.352   9.868   1.492  0.7628  0.1226 -0.0456
  638MOL0     O87909   0.332   9.856   1.627  0.4773 -0.4591 -0.1288
  638MOL0     C87910   0.422   9.776   1.695 -0.1140 -0.3474  0.0003
  638MOL0     C87911   0.379   9.721   1.810 -0.2191  0.1010 -0.1936
  638MOL0     C87912   0.457   9.633   1.877 -0.4031 -0.8605  0.1139
  638MOL0     C87913   0.586   9.605   1.822  0.0680  0.3777  0.1630
  638MOL0     O87914   0.643   9.504   1.890 -0.0990  0.0168 -0.3341
  638MOL0     C87915   0.748   9.423   1.836 -0.3049  0.3740  0.4329
  638MOL0     C87916   0.760   9.301   1.918  0.5368  0.1746 -0.2285
  638MOL0     C87917   0.885   9.216   1.888 -0.2309  0.3237  0.4565
  638MOL0     C87918   0.909   9.110   1.988  0.1494 -0.0604  0.1078
  638MOL0     C87919   1.051   9.053   1.985 -0.4279 -0.2296  0.2595
  638MOL0     C87920   1.101   8.988   1.857 -0.0067  0.2132 -1.5156
  638MOL0     C87921   1.224   8.906   1.900  0.8014 -0.7085 -0.5009
  638MOL0     C87922   1.278   8.834   1.784 -0.1262  0.9025 -0.2752
  638MOL0     N87923   1.389   8.749   1.828 -0.0257 -0.9811 -0.1008
  638MOL0     C87924   1.419   8.628   1.782  0.3739  0.5745  0.4249
  638MOL0     C87925   1.546   8.593   1.808 -0.0163 -0.7915 -1.0248
  638MOL0     C87926   1.606   8.461   1.778  0.1964  0.5087  0.3163
  638MOL0     C87927   1.756   8.459   1.778  0.2596  0.5654  0.2024
  638MOL0     C87928   1.805   8.307   1.749  0.3561  0.8084  0.3302
  638MOL0     C87929   1.948   8.285   1.767 -0.3526 -0.4997 -0.1648
  638MOL0     O87930   2.001   8.305   1.902  0.0676  0.7398 -0.2437
  638MOL0     C87931   2.133   8.335   1.919  0.3593 -0.0039 -0.8962
  638MOL0     C87932   2.180   8.388   2.043  0.0210 -0.4649 -0.4563
  638MOL0     C87933   2.314   8.409   2.076 -0.0749 -0.3820  0.4471
  638MOL0     C87934   2.328   8.437   2.215 -0.2887 -0.0617 -0.0381
  638MOL0     C87935   2.411   8.390   1.974  0.0328  0.3481  0.2502
  638MOL0     C87936   2.558   8.423   1.988  0.1559 -0.0465 -0.7803
  638MOL0     O87937   2.592   8.523   2.075  0.0883 -0.4397  0.1449
  638MOL0     C87938   2.706   8.510   2.153  0.3606 -0.5332  0.5444
  638MOL0     C87939   2.799   8.402   2.154  0.1247  0.0755  0.5164
  638MOL0     C87940   2.905   8.389   2.248  0.2106 -0.7703 -1.0578
  638MOL0     C87941   2.913   8.487   2.349  0.3895 -0.1114 -0.4539
  638MOL0     O87942   3.004   8.488   2.452 -0.2920 -0.0337 -0.2499
  638MOL0     C87943   3.125   8.429   2.422 -0.6307  0.8241  0.7208
  638MOL0     C87944   3.244   8.476   2.505  0.1393 -0.2183 -0.0455
  638MOL0     C87945   3.243   8.400   2.639  0.6179  0.0643 -0.2095
  638MOL0     C87946   3.368   8.398   2.720  0.2676 -0.6230  0.1357
  638MOL0     C87947   3.409   8.530   2.774 -0.2648 -0.5502  0.6442
  638MOL0     C87948   3.319   8.566   2.896  0.0010 -0.3765 -0.3820
  638MOL0     C87949   3.389   8.663   2.992 -0.4138  0.3708 -0.4092
  638MOL0     C87950   3.299   8.751   3.081 -0.9792 -0.0165  0.5207
  638MOL0    Cl87951   3.401   8.854   3.191 -0.1192 -0.0274  0.2256
  638MOL0     C87952   2.818   8.600   2.349 -0.0485  0.4838  0.4234
  638MOL0     C87953   2.711   8.599   2.260  0.2887 -0.5772 -0.2721
  638MOL0     O87954   2.636   8.353   1.917  0.0226  0.3806 -0.4898
  638MOL0     C87955   2.363   8.338   1.845  0.6981  0.4576 -0.7524
  638MOL0     C87956   2.228   8.312   1.823 -0.1582 -0.2493 -0.4556
  638MOL0     N87957   1.595   8.702   1.875  0.4353  0.1127 -0.2155
  638MOL0     N87958   1.504   8.796   1.886  0.4858 -0.0671 -0.1066
  638MOL0     C87959   0.639   9.675   1.713  0.4537  1.1466  0.6801
  638MOL0     C87960   0.554   9.759   1.644 -0.5165 -0.8448  0.3678
  638MOL0     C87961   0.317   9.997   1.421 -0.1892  0.4492  0.0493
  638MOL0     C87962   0.224  10.079   1.485 -0.0248 -0.2004 -0.7818
  638MOL0     C87963   0.178  10.203   1.430  0.2274  0.8632  0.6930
  638MOL0     C87964   0.227  10.246   1.307 -0.1282  0.4143 -0.0944
  638MOL0     O87965   0.183  10.364   1.259  1.3789 -0.8936  0.6512
  638MOL0     C87966   0.205  10.399   1.119 -0.0678  0.4295  0.0383
  638MOL0     C87967   0.343  10.470   1.093 -0.4203 -0.4670  0.5588
  638MOL0     C87968   0.394  10.557   1.211 -0.2844  0.6820  0.0882
  638MOL0     C87969   0.525  10.617   1.167 -0.2267  0.1047  0.4101
  638MOL0     C87970   0.569  10.708   1.266  0.1398 -0.2108  0.4337
  638MOL0     C87971   0.610  10.786   1.347 -0.4673 -0.2014 -0.2583
  638MOL0     C87972   0.317  10.163   1.240  0.4161  0.2224  0.9033
  638MOL0     C87973   0.369  10.041   1.296 -0.2930  0.0833 -1.2279
  638MOL0     C87974   0.489   9.971   1.220  0.6429  0.2069 -0.6749
  638MOL0     H87975   0.279   9.740   1.848 -0.3464  0.2843 -0.6185
  638MOL0     H87976   0.412   9.598   1.969  1.4488  1.5211  2.1132
  638MOL0     H87977   0.845   9.472   1.838  1.7832 -2.8899 -3.7742
  638MOL0     H87978   0.720   9.405   1.732  2.3767  1.1124 -0.4921
  638MOL0     H87979   0.753   9.319   2.025 -0.4595 -1.1440 -0.0424
  638MOL0     H87980   0.673   9.240   1.893  0.7240  0.2161 -1.0278
  638MOL0     H87981   0.878   9.168   1.790  3.8143  0.4181 -0.0583
  638MOL0     H87982   0.968   9.288   1.883 -0.2636  0.2978 -0.9548
  638MOL0     H87983   0.888   9.148   2.089 -1.0070  1.2321 -0.5900
  638MOL0     H87984   0.830   9.037   1.966 -0.2887  0.9141 -1.7324
  638MOL0     H87985   1.054   8.977   2.064  3.2692 -0.5628 -0.0076
  638MOL0     H87986   1.122   9.132   2.013 -0.2695 -0.0775 -0.5668
  638MOL0     H87987   1.016   8.930   1.820 -1.8834  0.7096  1.5984
  638MOL0     H87988   1.114   9.063   1.778 -0.1418 -1.9154 -3.6817
  638MOL0     H87989   1.202   8.825   1.970  0.1778 -1.1158 -1.1556
  638MOL0     H87990   1.297   8.966   1.955  0.0198 -1.7645  1.7941
  638MOL0     H87991   1.200   8.763   1.753 -1.8033  2.1173  0.9894
  638MOL0     H87992   1.304   8.895   1.698 -3.1428  0.4508 -1.6502
  638MOL0     H87993   1.356   8.560   1.727  0.5483  0.5146  0.2958
  638MOL0     H87994   1.572   8.434   1.678  2.2456 -0.2323 -0.2416
  638MOL0     H87995   1.575   8.386   1.851 -0.1209 -1.6050 -1.8644
  638MOL0     H87996   1.798   8.528   1.704  2.6307 -1.4552 -0.4733
  638MOL0     H87997   1.798   8.499   1.872 -2.0925 -2.2658  2.6682
  638MOL0     H87998   1.751   8.231   1.806 -1.4857  0.2052 -2.0312
  638MOL0     H87999   1.791   8.276   1.645  0.1025 -1.2334  0.9329
  638MOL0     H88000   1.990   8.197   1.718  4.2884  2.0168 -1.2371
  638MOL0     H88001   1.982   8.367   1.703 -5.6862  1.1769 -1.3669
  638MOL0     H88002   2.091   8.381   2.104 -0.1505 -0.7204 -0.7301
  638MOL0     H88003   2.271   8.524   2.251  0.6773  0.3908  0.4364
  638MOL0     H88004   2.435   8.449   2.236 -0.0769 -1.5649 -0.2088
  638MOL0     H88005   2.282   8.352   2.265  0.3408  0.3080  1.2120
  638MOL0     H88006   2.794   8.319   2.084  2.3213  2.5471 -2.9055
  638MOL0     H88007   2.965   8.299   2.252 -0.9669 -1.5168  1.1157
  638MOL0     H88008   3.116   8.320   2.431 -0.0718  0.7652  0.6071
  638MOL0     H88009   3.156   8.458   2.322 -1.4794  0.4126  0.3251
  638MOL0     H88010   3.339   8.444   2.462  0.8172  0.4138  0.9670
  638MOL0     H88011   3.245   8.583   2.526  0.3414 -0.0470 -0.8743
  638MOL0     H88012   3.208   8.297   2.627 -2.0225  0.5019  2.5269
  638MOL0     H88013   3.165   8.445   2.701  0.8062  1.7072 -1.0987
  638MOL0     H88014   3.439   8.354   2.650 -0.4154 -0.4144 -0.7130
  638MOL0     H88015   3.363   8.337   2.810  2.7127  1.8649  2.1140
  638MOL0     H88016   3.515   8.516   2.799 -0.0061 -1.4942 -0.8461
  638MOL0     H88017   3.401   8.608   2.697 -3.7409  0.6971  2.0434
  638MOL0     H88018   3.282   8.480   2.953 -1.1467  1.3309  1.6168
  638MOL0     H88019   3.225   8.610   2.861 -0.4491 -1.7968 -1.0149
  638MOL0     H88020   3.453   8.739   2.947 -0.8094  0.8739 -0.1248
  638MOL0     H88021   3.458   8.605   3.054  0.0019 -0.5744 -1.7211
  638MOL0     H88022   3.238   8.690   3.148 -2.0851  0.4267 -0.0564
  638MOL0     H88023   3.238   8.809   3.011 -0.5078  0.2638  0.3356
  638MOL0     H88024   2.820   8.671   2.431  1.9161  0.9816 -0.0065
  638MOL0     H88025   2.639   8.680   2.262  2.1632  1.2067  3.1448
  638MOL0     H88026   2.440   8.296   1.780  0.9537 -4.5455  2.2203
  638MOL0     H88027   2.198   8.267   1.729  2.6895 -1.9089 -0.6960
  638MOL0     H88028   0.741   9.663   1.679  0.1781  0.7974 -0.0512
  638MOL0     H88029   0.589   9.800   1.549  2.5250 -0.6989  1.4325
  638MOL0     H88030   0.197  10.054   1.588  2.4177 -1.3786 -0.3532
  638MOL0     H88031   0.105  10.265   1.481 -2.3401 -0.1787 -1.4796
  638MOL0     H88032   0.186  10.315   1.052  0.7733 -2.2660  2.9121
  638MOL0     H88033   0.133  10.480   1.103 -0.4268  0.0032 -0.5579
  638MOL0     H88034   0.331  10.539   1.009  0.9302  0.4645  1.1158
  638MOL0     H88035   0.409  10.388   1.063 -0.5779 -0.7845  1.0735
  638MOL0     H88036   0.321  10.633   1.241  0.2481  0.6991  1.4540
  638MOL0     H88037   0.409  10.506   1.307  1.4030 -1.6531 -1.2939
  638MOL0     H88038   0.523  10.674   1.074 -5.6835  2.3401  1.4710
  638MOL0     H88039   0.597  10.535   1.166 -0.9486 -0.5534 -1.1339
  638MOL0     H88040   0.638  10.865   1.413 -0.1381 -2.2250  2.1547
  638MOL0     H88041   0.357  10.197   1.145 -0.5533 -2.5873 -0.6287
  638MOL0     H88042   0.570  10.044   1.210  0.0354  1.3407  2.0027
  638MOL0     H88043   0.535   9.883   1.266  0.0534 -1.5397 -3.1939
  638MOL0     H88044   0.456   9.952   1.117  2.7620  1.1994 -1.6202
  639MOL0     O88045   5.216   1.781   2.126  0.0893 -0.1370 -0.4279
  639MOL0     C88046   5.236   1.780   2.006  0.6329  0.2022  0.5151
  639MOL0     O88047   5.318   1.862   1.945 -0.7612  0.3386  0.4712
  639MOL0     C88048   5.358   1.973   2.015 -0.0093  0.0981 -0.9639
  639MOL0     C88049   5.489   1.973   2.067  0.0783 -0.3542 -0.1335
  639MOL0     C88050   5.546   2.089   2.122  0.2934  1.0418  0.3926
  639MOL0     C88051   5.469   2.204   2.140 -0.1096 -0.7258 -0.2857
  639MOL0     O88052   5.534   2.315   2.195 -0.5550  0.0037 -0.2301
  639MOL0     C88053   5.447   2.429   2.230 -0.3461  0.2569 -0.6003
  639MOL0     C88054   5.529   2.534   2.298 -0.1416  0.0213 -0.0206
  639MOL0     C88055   5.638   2.606   2.199 -0.2777 -0.8229 -0.3031
  639MOL0     C88056   5.701   2.731   2.265  0.4598  0.1381 -0.2461
  639MOL0     C88057   5.822   2.767   2.187 -0.3349 -0.4564  0.8518
  639MOL0     C88058   5.951   2.704   2.236  0.6501  0.0165 -0.8823
  639MOL0     C88059   6.079   2.784   2.197  0.2190 -0.0971  0.6594
  639MOL0     C88060   6.196   2.720   2.267  0.5193  0.3300  1.6289
  639MOL0     N88061   6.320   2.794   2.249 -0.6010 -0.1902 -0.0078
  639MOL0     C88062   6.355   2.893   2.335  0.6125 -0.3204  0.5461
  639MOL0     C88063   6.476   2.932   2.286 -0.5007 -0.5456 -0.5738
  639MOL0     C88064   6.568   3.036   2.339 -0.2101  0.1365  0.0281
  639MOL0     C88065   6.710   2.994   2.324  0.5952  0.1058  0.1436
  639MOL0     C88066   6.797   3.090   2.413 -0.0643  1.0839  0.2896
  639MOL0     C88067   6.938   3.023   2.430 -0.3430  1.1093  0.5497
  639MOL0     O88068   6.983   3.005   2.295 -0.2093 -0.6179 -0.1170
  639MOL0     C88069   7.113   2.957   2.282 -0.6703  0.3475 -1.4707
  639MOL0     C88070   7.197   2.914   2.381 -0.2176 -0.0528 -0.6810
  639MOL0     C88071   7.323   2.865   2.361 -0.5948 -0.6384  0.5197
  639MOL0     C88072   7.386   2.809   2.485  0.8367  0.3786 -0.1793
  639MOL0     C88073   7.389   2.870   2.232 -0.5517  0.3269 -1.0255
  639MOL0     C88074   7.527   2.831   2.196 -0.3718  0.0211  0.0159
  639MOL0     O88075   7.573   2.858   2.066  0.2572  0.3387 -0.7896
  639MOL0     C88076   7.707   2.852   2.046  0.3628 -0.1916 -0.1213
  639MOL0     C88077   7.748   2.744   1.979 -0.7733 -0.2647 -0.1819
  639MOL0     C88078   7.878   2.735   1.940  0.1319 -0.7078  0.0542
  639MOL0     C88079   7.974   2.829   1.972 -0.3196 -0.6548  0.9969
  639MOL0     O88080   8.107   2.800   1.931  0.0214 -0.0759  0.5459
  639MOL0     C88081   8.195   2.910   1.954 -0.8435 -0.7450 -0.7638
  639MOL0     C88082   8.334   2.890   1.901 -0.2914 -0.4371 -0.6055
  639MOL0     C88083   8.430   3.008   1.931  0.3472 -0.0344 -0.4636
  639MOL0     C88084   8.562   2.993   1.842  1.0331  0.4608 -1.0134
  639MOL0     C88085   8.641   3.122   1.849  0.5888 -0.5381  0.1324
  639MOL0     C88086   8.777   3.092   1.783 -0.7702  0.2921  0.0059
  639MOL0     C88087   8.870   3.224   1.776  0.5097  0.0082  0.5208
  639MOL0     C88088   8.996   3.185   1.708  0.0600  0.6719 -0.0983
  639MOL0    Cl88089   9.128   3.307   1.741 -0.0188 -0.5478 -0.1216
  639MOL0     C88090   7.926   2.949   2.027  0.7151 -0.4112 -0.0852
  639MOL0     C88091   7.799   2.957   2.080  0.6310 -0.1137  0.2350
  639MOL0     O88092   7.596   2.771   2.278 -0.2047 -0.3600 -0.0889
  639MOL0     C88093   7.303   2.917   2.129  0.6606 -0.5764 -0.5969
  639MOL0     C88094   7.170   2.946   2.156  0.1798 -0.1918 -0.1128
  639MOL0     N88095   6.503   2.851   2.175  0.4021 -0.0333  0.6591
  639MOL0     N88096   6.405   2.772   2.146 -0.1817 -0.3536  0.1537
  639MOL0     C88097   5.335   2.192   2.103  0.0583 -0.0244  0.8026
  639MOL0     C88098   5.276   2.083   2.042 -0.0048 -0.5308 -0.2422
  639MOL0     C88099   5.159   1.676   1.924  1.6460  0.8312  0.1413
  639MOL0     C88100   5.214   1.617   1.809 -0.5297 -0.0137  0.4899
  639MOL0     C88101   5.145   1.520   1.729 -0.1675  0.2563 -0.8198
  639MOL0     C88102   5.011   1.495   1.765  0.1048 -0.0366 -0.2315
  639MOL0     O88103   4.938   1.414   1.677 -0.2327  0.5613  0.2287
  639MOL0     C88104   4.852   1.482   1.579 -0.3669 -0.8589  1.3060
  639MOL0     C88105   4.795   1.364   1.493  0.1454 -0.2915 -0.6517
  639MOL0     C88106   4.880   1.305   1.380  0.2736 -0.6893 -1.0131
  639MOL0     C88107   4.795   1.237   1.283  0.9649 -0.2461  0.9277
  639MOL0     C88108   4.870   1.195   1.167  0.6930 -0.4543  0.0279
  639MOL0     C88109   4.932   1.147   1.080  0.2395  0.5539  0.3294
  639MOL0     C88110   4.949   1.558   1.874  0.6748  0.3390 -0.3621
  639MOL0     C88111   5.026   1.643   1.955  0.5459 -0.8901  0.6783
  639MOL0     C88112   4.954   1.688   2.074  0.1512  0.5790 -0.4673
  639MOL0     H88113   5.548   1.882   2.054 -2.3430 -2.6746  3.3576
  639MOL0     H88114   5.640   2.089   2.176  0.7182 -1.0528 -0.2659
  639MOL0     H88115   5.358   2.398   2.286  0.7714 -1.6394  0.2072
  639MOL0     H88116   5.403   2.468   2.138  1.5248  2.2814 -0.6979
  639MOL0     H88117   5.455   2.609   2.328 -1.9546 -0.5400 -2.6689
  639MOL0     H88118   5.585   2.496   2.383 -1.6685  1.2990  1.6373
  639MOL0     H88119   5.716   2.532   2.179  0.5654 -0.1356  0.3386
  639MOL0     H88120   5.603   2.635   2.099 -0.4971 -0.9615 -0.2665
  639MOL0     H88121   5.639   2.821   2.264  1.2329  0.6944 -0.0092
  639MOL0     H88122   5.721   2.716   2.372  2.2686  0.7297 -0.4661
  639MOL0     H88123   5.827   2.875   2.202 -0.7428 -0.3019 -0.0573
  639MOL0     H88124   5.815   2.738   2.081  0.0755 -1.1107  0.9982
  639MOL0     H88125   5.954   2.687   2.344 -0.6017 -1.9495 -1.0991
  639MOL0     H88126   5.946   2.606   2.188 -3.8298 -1.0944  1.2893
  639MOL0     H88127   6.070   2.891   2.218 -4.8959  0.0959 -1.1261
  639MOL0     H88128   6.098   2.770   2.090 -0.2639 -1.7820  0.7743
  639MOL0     H88129   6.184   2.696   2.373  0.5567 -0.8042  1.3926
  639MOL0     H88130   6.213   2.620   2.225  2.1630 -0.1792  3.3773
  639MOL0     H88131   6.298   2.946   2.410 -0.3021  0.4084 -0.6176
  639MOL0     H88132   6.545   3.044   2.446 -1.0994 -2.6931  0.1366
  639MOL0     H88133   6.549   3.136   2.298  2.5993  0.2498 -1.2287
  639MOL0     H88134   6.719   2.889   2.350 -0.2597 -0.2971 -1.1224
  639MOL0     H88135   6.738   3.000   2.219 -3.6072  1.1521 -1.0923
  639MOL0     H88136   6.811   3.181   2.355 -2.4979  0.1495 -1.9274
  639MOL0     H88137   6.746   3.096   2.510 -1.9028 -1.0321 -0.4542
  639MOL0     H88138   7.009   3.078   2.492 -0.1721  0.3643  1.0267
  639MOL0     H88139   6.903   2.928   2.472  1.0481  0.5626  0.5050
  639MOL0     H88140   7.150   2.909   2.479 -2.3700 -1.1171 -1.6897
  639MOL0     H88141   7.450   2.727   2.451  0.9715  1.1318 -1.8505
  639MOL0     H88142   7.310   2.775   2.556  0.4050  2.2998  0.3334
  639MOL0     H88143   7.456   2.877   2.534  1.5745  0.9808 -1.9795
  639MOL0     H88144   7.683   2.661   1.953 -0.6078 -0.0982 -1.1618
  639MOL0     H88145   7.916   2.642   1.899 -2.1499 -1.6249 -0.0813
  639MOL0     H88146   8.163   3.002   1.905  1.2423  0.9944  0.9705
  639MOL0     H88147   8.208   2.924   2.061 -1.7068  1.1581 -0.8820
  639MOL0     H88148   8.380   2.803   1.949  0.7007 -0.1175 -0.9457
  639MOL0     H88149   8.335   2.869   1.794  2.8261  1.3702 -1.0641
  639MOL0     H88150   8.443   3.017   2.039 -4.4901  0.6396  0.2972
  639MOL0     H88151   8.366   3.091   1.899 -0.7341 -1.5821 -2.5745
  639MOL0     H88152   8.525   2.966   1.743 -3.3203 -1.4532  0.8896
  639MOL0     H88153   8.618   2.905   1.877 -0.1535 -0.9802 -2.5554
  639MOL0     H88154   8.581   3.203   1.807 -2.0757 -2.6204 -0.4146
  639MOL0     H88155   8.654   3.147   1.954  0.4929 -0.8008  0.2071
  639MOL0     H88156   8.771   3.062   1.678  0.5456  2.5840 -0.8065
  639MOL0     H88157   8.825   3.011   1.838  0.0999  0.3946 -0.5698
  639MOL0     H88158   8.889   3.246   1.882 -3.6522 -0.8472  1.6190
  639MOL0     H88159   8.817   3.306   1.727  0.9083  0.1107  0.2573
  639MOL0     H88160   8.994   3.176   1.599 -0.1989  1.1047 -0.1296
  639MOL0     H88161   9.031   3.090   1.748  3.0827  1.6177 -0.2649
  639MOL0     H88162   7.991   3.032   2.054  0.3735 -0.7024  1.7926
  639MOL0     H88163   7.746   3.043   2.121 -1.0084 -0.9353 -0.1033
  639MOL0     H88164   7.327   2.924   2.023 -0.9612 -0.7290 -1.0060
  639MOL0     H88165   7.097   2.977   2.081 -3.0780  1.7846  3.5060
  639MOL0     H88166   5.281   2.284   2.121  0.4433  0.3770 -0.0545
  639MOL0     H88167   5.173   2.084   2.007  0.4453  0.9474 -1.6303
  639MOL0     H88168   5.317   1.640   1.781  1.1268 -4.2974  2.3006
  639MOL0     H88169   5.195   1.490   1.637 -0.5213  1.8296 -1.5622
  639MOL0     H88170   4.768   1.527   1.633 -0.6447 -0.9470  0.9501
  639MOL0     H88171   4.910   1.549   1.515 -0.0007 -2.6773 -0.3951
  639MOL0     H88172   4.696   1.390   1.453 -0.5949 -0.8242  0.7377
  639MOL0     H88173   4.781   1.278   1.559  0.3233  0.2957  0.1752
  639MOL0     H88174   4.943   1.380   1.333  1.1866 -0.6262  0.2453
  639MOL0     H88175   4.944   1.226   1.421  2.3288  0.6683 -1.4456
  639MOL0     H88176   4.705   1.289   1.248  0.3900 -2.5909 -1.4383
  639MOL0     H88177   4.758   1.145   1.329  2.5462 -0.3829  2.0092
  639MOL0     H88178   4.982   1.102   0.997 -1.9353 -0.0322 -0.7253
  639MOL0     H88179   4.847   1.524   1.891  1.5130 -1.7450  0.7842
  639MOL0     H88180   4.850   1.656   2.082  0.0538  1.2818  1.6753
  639MOL0     H88181   5.004   1.647   2.162 -0.7224  0.0622 -0.2010
  639MOL0     H88182   4.950   1.797   2.085 -2.2117  0.4467  0.5122
  640MOL0     O88183   3.216   1.372   9.795  0.3450  0.7611 -0.4985
  640MOL0     C88184   3.121   1.418   9.730  0.1195  0.1306 -1.0821
  640MOL0     O88185   3.127   1.496   9.618  0.4156  0.3868  0.2519
  640MOL0     C88186   3.244   1.549   9.564  0.3006  0.1424 -0.2056
  640MOL0     C88187   3.235   1.658   9.477  1.6379  0.6268  1.1572
  640MOL0     C88188   3.341   1.721   9.415  1.0769  0.8658  0.2701
  640MOL0     C88189   3.466   1.670   9.443  0.7952 -0.3342  0.3726
  640MOL0     O88190   3.584   1.720   9.397  0.8137  0.2674  0.0268
  640MOL0     C88191   3.615   1.863   9.414  0.0445 -0.1550 -0.5883
  640MOL0     C88192   3.639   1.899   9.566  0.6868 -0.2602  0.5115
  640MOL0     C88193   3.658   2.056   9.566  0.2997 -0.1749 -0.6599
  640MOL0     C88194   3.808   2.093   9.583  0.0336  0.2079 -0.4996
  640MOL0     C88195   3.831   2.246   9.587  0.0304  0.2169 -0.1189
  640MOL0     C88196   3.929   2.287   9.694 -0.2238 -0.0584 -0.8669
  640MOL0     C88197   3.905   2.432   9.744 -1.1439  0.0138  0.1159
  640MOL0     C88198   4.001   2.476   9.852 -0.2274 -0.5138 -0.2494
  640MOL0     N88199   4.102   2.573   9.798 -0.0528  0.3004 -0.2676
  640MOL0     C88200   4.089   2.714   9.775  0.2084  0.7989 -0.1685
  640MOL0     C88201   4.205   2.746   9.706 -0.3334  0.5916  0.6023
  640MOL0     C88202   4.259   2.877   9.679  0.3868  0.1104  0.2961
  640MOL0     C88203   4.320   2.936   9.804  0.6923 -0.1177 -0.2774
  640MOL0     C88204   4.354   3.083   9.794 -0.1336 -0.1645  0.1689
  640MOL0     C88205   4.474   3.127   9.880 -0.1208 -0.8936 -0.3247
  640MOL0     O88206   4.464   3.270   9.888  0.3657 -0.5891  0.6990
  640MOL0     C88207   4.565   3.353   9.937  0.0730  1.4063 -0.4459
  640MOL0     C88208   4.650   3.315  10.044 -0.4288 -0.6887  0.4860
  640MOL0     C88209   4.746   3.401  10.094 -0.0762 -0.3530  0.5673
  640MOL0     C88210   4.847   3.334  10.195 -0.0920 -0.2936 -0.4536
  640MOL0     C88211   4.755   3.534  10.050 -0.9290  0.1915  0.6628
  640MOL0     C88212   4.850   3.635  10.102  0.2058  0.4510  0.0891
  640MOL0     O88213   4.868   3.745  10.031  0.0183 -0.1058  0.3458
  640MOL0     C88214   4.957   3.837  10.088  0.6164  0.3056  0.2004
  640MOL0     C88215   4.910   3.925  10.191 -0.2791  0.0272  0.5496
  640MOL0     C88216   5.004   4.015  10.247 -0.0085 -0.3278  0.0570
  640MOL0     C88217   5.132   4.028  10.195 -1.0981 -0.0555 -0.0582
  640MOL0     O88218   5.227   4.109  10.251  0.0074  0.0481  0.0575
  640MOL0     C88219   5.279   4.067  10.374 -0.0940  0.9063  0.8814
  640MOL0     C88220   5.418   4.119  10.400 -0.5124  0.3292 -0.3615
  640MOL0     C88221   5.409   4.267  10.438 -0.8991 -0.4836  1.0279
  640MOL0     C88222   5.558   4.326  10.452 -0.5622 -0.6636 -0.6300
  640MOL0     C88223   5.556   4.478  10.472  0.5805  0.1339  0.0835
  640MOL0     C88224   5.696   4.537  10.486  0.0934  0.1710 -0.1221
  640MOL0     C88225   5.677   4.685  10.532 -0.6522 -0.3582  0.9384
  640MOL0     C88226   5.802   4.712  10.620  0.3617 -0.0406  0.7379
  640MOL0    Cl88227   5.949   4.724  10.528  0.5271  0.3146  0.2457
  640MOL0     C88228   5.168   3.962  10.079 -0.1700  0.6582  0.0277
  640MOL0     C88229   5.083   3.861  10.032  0.0444  0.6830 -0.3869
  640MOL0     O88230   4.913   3.605  10.207  0.2701  0.4751 -0.0231
  640MOL0     C88231   4.672   3.573   9.941 -0.0725  0.0640  0.0418
  640MOL0     C88232   4.576   3.478   9.882 -0.0258  0.3252  0.5811
  640MOL0     N88233   4.284   2.631   9.701 -0.5727  1.2694  1.1733
  640MOL0     N88234   4.219   2.530   9.740  1.0535  0.3716 -0.2326
  640MOL0     C88235   3.481   1.564   9.535  0.6145 -0.1142  0.0608
  640MOL0     C88236   3.372   1.497   9.582 -0.2905  0.2357 -0.0657
  640MOL0     C88237   2.979   1.378   9.766 -0.5560 -0.7596 -0.0487
  640MOL0     C88238   2.962   1.257   9.840  0.1200 -0.2339  0.4593
  640MOL0     C88239   2.844   1.225   9.902  0.1035  0.4418  0.1476
  640MOL0     C88240   2.725   1.299   9.865  0.9001 -0.0159 -0.4289
  640MOL0     O88241   2.610   1.253   9.924  0.1031  0.1695 -0.4720
  640MOL0     C88242   2.500   1.231   9.842  0.0115  0.8349  0.7848
  640MOL0     C88243   2.385   1.205   9.933 -0.5662 -0.0476 -1.0570
  640MOL0     C88244   2.252   1.171   9.868 -0.5268  0.1749  0.5041
  640MOL0     C88245   2.161   1.094   9.961  0.9099  0.5235 -0.0285
  640MOL0     C88246   2.024   1.090   9.901 -0.3905  0.3306 -0.0708
  640MOL0     C88247   1.905   1.089   9.863  0.1389  0.2100 -0.2147
  640MOL0     C88248   2.736   1.403   9.769  0.1963  0.0110 -0.5922
  640MOL0     C88249   2.860   1.459   9.742  0.2839 -0.0810 -0.3506
  640MOL0     C88250   2.858   1.596   9.676  0.1468 -0.4893  0.7170
  640MOL0     H88251   3.139   1.705   9.460  0.1475 -1.7587  2.5141
  640MOL0     H88252   3.325   1.805   9.348  2.3887  0.1862 -0.9430
  640MOL0     H88253   3.532   1.924   9.378  0.6180  1.1027  0.1439
  640MOL0     H88254   3.695   1.892   9.344 -0.6254  0.0740 -1.2789
  640MOL0     H88255   3.558   1.874   9.635 -3.3089 -0.5224 -3.7900
  640MOL0     H88256   3.728   1.847   9.603  1.2531 -0.7872 -1.4687
  640MOL0     H88257   3.620   2.110   9.478 -0.3990 -0.0683 -0.3025
  640MOL0     H88258   3.604   2.097   9.652 -1.2633  3.0863 -2.9723
  640MOL0     H88259   3.844   2.046   9.675  1.5763  0.7212 -0.8130
  640MOL0     H88260   3.869   2.046   9.504  1.9436  2.3454 -0.4023
  640MOL0     H88261   3.736   2.294   9.611  0.3944  0.4401  0.9331
  640MOL0     H88262   3.865   2.294   9.494  0.5116  0.5611  0.2295
  640MOL0     H88263   3.925   2.222   9.782  1.0715  0.3034 -0.5178
  640MOL0     H88264   4.029   2.270   9.652  0.6754  0.5041  0.9282
  640MOL0     H88265   3.803   2.438   9.784 -1.3496  1.2161 -0.5412
  640MOL0     H88266   3.911   2.496   9.655 -1.9214  0.6200  0.4830
  640MOL0     H88267   3.947   2.534   9.927 -0.0066  0.4263 -0.8011
  640MOL0     H88268   4.041   2.391   9.908 -0.6519  0.6253  1.8787
  640MOL0     H88269   4.003   2.765   9.818  0.3577 -1.4555  3.3045
  640MOL0     H88270   4.190   2.950   9.636 -0.8546  0.8067  3.1828
  640MOL0     H88271   4.342   2.865   9.609 -1.2799  0.5896 -1.8921
  640MOL0     H88272   4.245   2.926   9.883  2.0926 -1.5243  0.9551
  640MOL0     H88273   4.405   2.874   9.835  1.0284  1.7730  3.0328
  640MOL0     H88274   4.373   3.105   9.688  0.4722 -0.6948  0.1621
  640MOL0     H88275   4.264   3.128   9.836 -0.5656 -1.1431  0.3151
  640MOL0     H88276   4.467   3.081   9.979  0.2899 -0.4285 -0.0753
  640MOL0     H88277   4.572   3.109   9.835  0.7280  2.0926  0.1086
  640MOL0     H88278   4.641   3.211  10.075 -0.5438 -0.8951 -0.2305
  640MOL0     H88279   4.811   3.373  10.290  0.1255  2.1460 -1.3187
  640MOL0     H88280   4.953   3.355  10.181  0.2558 -1.2973  0.5149
  640MOL0     H88281   4.840   3.225  10.186  0.4688 -0.2963 -0.9618
  640MOL0     H88282   4.807   3.928  10.225 -0.5217 -0.2837 -0.1446
  640MOL0     H88283   4.978   4.086  10.325  1.0332  0.3403 -0.1797
  640MOL0     H88284   5.213   4.074  10.461 -2.5269 -1.4515 -0.6247
  640MOL0     H88285   5.289   3.958  10.368 -0.9734  0.8365  0.5052
  640MOL0     H88286   5.461   4.059  10.481 -1.2125 -0.4084 -0.5165
  640MOL0     H88287   5.473   4.104  10.307  0.0945  1.0264 -0.1267
  640MOL0     H88288   5.357   4.282  10.533 -0.5630  1.9875  0.9037
  640MOL0     H88289   5.352   4.305  10.353  3.6613  0.9420 -1.7698
  640MOL0     H88290   5.616   4.309  10.361  0.2958 -1.2063 -0.0034
  640MOL0     H88291   5.617   4.285  10.535  1.9449  0.6497 -1.6514
  640MOL0     H88292   5.513   4.526  10.384 -0.1688 -0.3922  0.1610
  640MOL0     H88293   5.491   4.504  10.556  0.5588 -0.2804  0.1938
  640MOL0     H88294   5.750   4.532  10.390  2.6884 -1.4721  1.2831
  640MOL0     H88295   5.760   4.488  10.560  0.3816 -2.4063 -1.9196
  640MOL0     H88296   5.586   4.699  10.591 -1.3829 -1.0369  0.0034
  640MOL0     H88297   5.660   4.737  10.437 -3.8738  0.2671  1.7305
  640MOL0     H88298   5.809   4.634  10.696 -1.0489 -0.6694  0.2564
  640MOL0     H88299   5.787   4.809  10.668  5.1740  2.4002 -1.8888
  640MOL0     H88300   5.260   3.987  10.027 -0.2247  1.6207  0.3684
  640MOL0     H88301   5.105   3.796   9.948 -1.6853 -0.5818  0.0906
  640MOL0     H88302   4.677   3.675   9.904 -0.5167 -0.8180 -2.6627
  640MOL0     H88303   4.513   3.505   9.797  0.8689  1.3498  0.2311
  640MOL0     H88304   3.582   1.527   9.550  0.8330  0.5676  0.3097
  640MOL0     H88305   3.396   1.400   9.624  1.8307  0.8058  0.1460
  640MOL0     H88306   3.047   1.197   9.869 -1.0855 -2.3064 -0.1017
  640MOL0     H88307   2.813   1.146   9.970 -0.4126  0.1652 -0.3950
  640MOL0     H88308   2.468   1.318   9.785 -1.9486 -0.4274 -0.1629
  640MOL0     H88309   2.529   1.144   9.782 -1.3994 -0.3526  1.7588
  640MOL0     H88310   2.372   1.300   9.986  1.3988  2.1202 -4.1448
  640MOL0     H88311   2.413   1.130  10.007  3.0515  1.9364 -0.1687
  640MOL0     H88312   2.199   1.264   9.843 -3.2023 -0.5242  3.0391
  640MOL0     H88313   2.286   1.110   9.784  3.6686  0.6560  1.5974
  640MOL0     H88314   2.170   1.138  10.061  1.0800  0.4483 -0.0092
  640MOL0     H88315   2.187   0.988   9.969 -3.4337 -0.6561  1.4147
  640MOL0     H88316   1.802   1.071   9.837 -0.2473 -0.5339  1.6581
  640MOL0     H88317   2.648   1.453   9.730 -0.0099 -0.1774 -0.3740
  640MOL0     H88318   2.957   1.643   9.673 -0.5028  0.9575  0.8324
  640MOL0     H88319   2.817   1.592   9.575 -1.4689 -0.9816  1.3527
  640MOL0     H88320   2.791   1.657   9.738 -1.1752 -1.7767  0.6102
  641MOL0     O88321   2.180   0.765   4.446 -0.1998 -0.5117 -0.1446
  641MOL0     C88322   2.136   0.677   4.372 -0.4148  0.4758 -0.6583
  641MOL0     O88323   2.208   0.641   4.265 -0.2601  0.9225  0.0845
  641MOL0     C88324   2.343   0.668   4.262  0.1334 -0.1805  0.2628
  641MOL0     C88325   2.431   0.607   4.349 -0.6861 -0.0788  0.7164
  641MOL0     C88326   2.568   0.610   4.329 -0.2449 -0.0988 -0.6950
  641MOL0     C88327   2.617   0.656   4.210 -0.1150  0.1007  0.8923
  641MOL0     O88328   2.751   0.663   4.180  0.4893  0.2572 -0.0927
  641MOL0     C88329   2.833   0.551   4.222 -0.2773 -1.1874 -0.1763
  641MOL0     C88330   2.957   0.533   4.134 -0.9284  0.1391  0.5292
  641MOL0     C88331   3.077   0.629   4.156  0.0423  0.0024  0.0890
  641MOL0     C88332   3.210   0.572   4.104  0.8606 -0.2854  0.0193
  641MOL0     C88333   3.330   0.591   4.191 -0.1887  0.6577 -0.1802
  641MOL0     C88334   3.456   0.532   4.127  0.2351  0.4526  1.1991
  641MOL0     C88335   3.581   0.546   4.214  0.7121 -0.4328 -0.0063
  641MOL0     C88336   3.550   0.482   4.354  0.0109 -0.3549  0.0141
  641MOL0     N88337   3.670   0.469   4.433  0.4248  0.8783 -0.3515
  641MOL0     C88338   3.711   0.539   4.541  0.6789  0.5569 -0.3404
  641MOL0     C88339   3.836   0.494   4.582  0.9771  0.1371  0.7423
  641MOL0     C88340   3.906   0.532   4.702 -0.2260  0.3067  0.0144
  641MOL0     C88341   3.818   0.483   4.817 -0.0960 -0.4962 -0.1350
  641MOL0     C88342   3.848   0.558   4.946 -0.0459 -0.3419 -1.0536
  641MOL0     C88343   3.754   0.522   5.063  0.5169  0.3321  0.9149
  641MOL0     O88344   3.623   0.566   5.025  0.2711 -0.6442 -0.1109
  641MOL0     C88345   3.531   0.578   5.127 -0.7929  0.7005 -0.0766
  641MOL0     C88346   3.557   0.563   5.261  0.0153  0.3075  0.6343
  641MOL0     C88347   3.460   0.580   5.365 -0.5434  1.2060  0.0185
  641MOL0     C88348   3.510   0.556   5.508  0.3578  0.8966 -0.9104
  641MOL0     C88349   3.328   0.603   5.334 -0.9194  0.3582  0.5456
  641MOL0     C88350   3.213   0.624   5.435 -0.5858 -0.8963  0.7023
  641MOL0     O88351   3.094   0.669   5.380  0.3963  0.5092  0.2356
  641MOL0     C88352   2.990   0.709   5.458  0.2363  0.1834  0.2392
  641MOL0     C88353   2.985   0.833   5.524 -0.5315  0.5572  0.1402
  641MOL0     C88354   2.857   0.877   5.564 -0.6903  0.2380 -0.5398
  641MOL0     C88355   2.743   0.795   5.550 -0.4249 -0.2955 -0.7434
  641MOL0     O88356   2.618   0.831   5.602 -0.8246 -0.9558 -0.6742
  641MOL0     C88357   2.621   0.896   5.735 -0.1338 -0.8522 -0.4219
  641MOL0     C88358   2.496   0.862   5.811 -0.2739 -0.7275 -0.1385
  641MOL0     C88359   2.361   0.907   5.761 -0.0834  0.4191  0.5909
  641MOL0     C88360   2.259   0.924   5.863 -0.5969 -0.6070  0.3720
  641MOL0     C88361   2.137   1.000   5.818 -0.0604 -0.2496  1.2243
  641MOL0     C88362   2.046   1.026   5.933 -0.5296  1.2298  0.5203
  641MOL0     C88363   1.904   1.069   5.901 -0.5538 -0.1639 -1.3808
  641MOL0     C88364   1.892   1.204   5.834  0.1443 -0.3359  1.0749
  641MOL0    Cl88365   1.940   1.329   5.964 -0.0540 -0.3997 -0.2206
  641MOL0     C88366   2.754   0.668   5.490  0.1874 -0.2493  0.4095
  641MOL0     C88367   2.876   0.627   5.444  0.1472  0.0035  0.9979
  641MOL0     O88368   3.228   0.593   5.553 -0.1181  0.4009  0.1240
  641MOL0     C88369   3.306   0.620   5.199  0.3769  0.0701 -0.2652
  641MOL0     C88370   3.401   0.596   5.094  0.7820 -0.3856 -0.7501
  641MOL0     N88371   3.868   0.395   4.497 -0.5251  0.4649 -0.2963
  641MOL0     N88372   3.779   0.384   4.404 -0.1330 -0.0158  0.5987
  641MOL0     C88373   2.534   0.734   4.129  0.3336  0.3819  0.1347
  641MOL0     C88374   2.393   0.729   4.152 -0.7100  0.4133  0.2700
  641MOL0     C88375   2.006   0.621   4.420 -0.4543  0.0233 -0.4794
  641MOL0     C88376   1.904   0.701   4.468  0.0268  0.4208 -0.7675
  641MOL0     C88377   1.775   0.649   4.501 -0.1669  0.0910  0.4976
  641MOL0     C88378   1.764   0.517   4.507  0.2513 -0.5929 -0.2847
  641MOL0     O88379   1.646   0.461   4.549 -0.2179 -0.1481  0.2347
  641MOL0     C88380   1.552   0.397   4.454  0.9153  0.0387 -0.7972
  641MOL0     C88381   1.417   0.469   4.465 -0.1923 -1.0596  0.3787
  641MOL0     C88382   1.412   0.608   4.387  0.3119 -0.1271  0.5905
  641MOL0     C88383   1.269   0.668   4.408  0.2298  0.3094  0.8795
  641MOL0     C88384   1.255   0.785   4.315 -0.3757 -0.3475  0.6646
  641MOL0     C88385   1.260   0.888   4.244 -0.0617  0.1580  0.4073
  641MOL0     C88386   1.876   0.428   4.476  0.0752 -0.4955  0.2561
  641MOL0     C88387   2.004   0.479   4.429  0.2650  0.5358 -0.0488
  641MOL0     C88388   2.114   0.385   4.385  0.1900  0.1911  0.1942
  641MOL0     H88389   2.386   0.562   4.437 -2.8401 -1.6150 -1.0506
  641MOL0     H88390   2.636   0.575   4.407  0.0166 -0.4384 -1.0726
  641MOL0     H88391   2.765   0.465   4.218 -0.0647 -1.3204 -3.4446
  641MOL0     H88392   2.862   0.563   4.327  1.0097  1.3770 -0.7462
  641MOL0     H88393   2.981   0.429   4.154  1.3529  0.5218  0.0676
  641MOL0     H88394   2.935   0.532   4.026 -0.2224 -1.6917  0.3649
  641MOL0     H88395   3.063   0.727   4.108  1.1201 -1.6005 -3.8513
  641MOL0     H88396   3.089   0.643   4.264  0.2642 -0.3234  0.1067
  641MOL0     H88397   3.203   0.463   4.096 -0.8308 -0.1059 -1.8640
  641MOL0     H88398   3.223   0.620   4.006  1.2274 -2.6903 -1.1839
  641MOL0     H88399   3.316   0.539   4.286 -1.5330 -2.2941 -1.8850
  641MOL0     H88400   3.340   0.694   4.228  4.1835  0.0213  0.9928
  641MOL0     H88401   3.443   0.428   4.099  0.9602  0.3360  1.2556
  641MOL0     H88402   3.476   0.580   4.030 -2.3717  2.5143  1.5749
  641MOL0     H88403   3.609   0.650   4.234 -0.1665  0.6024 -3.4735
  641MOL0     H88404   3.662   0.490   4.165  1.5806  2.0475 -1.6285
  641MOL0     H88405   3.489   0.539   4.424  3.1502  2.5353  0.6361
  641MOL0     H88406   3.497   0.387   4.337  0.9497 -0.6456 -1.5902
  641MOL0     H88407   3.662   0.626   4.584 -0.1707  0.6057 -1.3729
  641MOL0     H88408   3.914   0.641   4.699 -1.8574  0.4747 -3.3829
  641MOL0     H88409   4.007   0.489   4.701 -0.4647 -0.3302  1.0278
  641MOL0     H88410   3.710   0.491   4.797  0.1724 -0.9769 -1.9424
  641MOL0     H88411   3.844   0.377   4.822  4.6563  0.5366  2.2502
  641MOL0     H88412   3.952   0.536   4.973  0.1425  0.7925 -0.8080
  641MOL0     H88413   3.842   0.667   4.935  2.3710 -0.2151 -1.7271
  641MOL0     H88414   3.755   0.415   5.087 -0.2451  0.4447  1.5316
  641MOL0     H88415   3.780   0.581   5.151 -1.1569  2.5623  0.0282
  641MOL0     H88416   3.654   0.542   5.306 -0.7834  1.7062  3.2243
  641MOL0     H88417   3.478   0.465   5.559  2.0104  2.0604  2.5025
  641MOL0     H88418   3.477   0.635   5.576 -1.8936 -0.5845 -0.1307
  641MOL0     H88419   3.618   0.540   5.507  0.3725  0.3525  1.5546
  641MOL0     H88420   3.078   0.888   5.527  1.7232 -2.9692  0.1360
  641MOL0     H88421   2.844   0.975   5.610  1.8310  0.2416  0.3110
  641MOL0     H88422   2.704   0.864   5.799 -0.2737 -2.0721 -0.8365
  641MOL0     H88423   2.612   1.004   5.722 -0.4032 -1.0142 -1.6548
  641MOL0     H88424   2.486   0.755   5.832 -2.9226 -0.7890 -1.3183
  641MOL0     H88425   2.508   0.921   5.902 -0.6214  1.7164 -1.5653
  641MOL0     H88426   2.334   0.840   5.679  4.4545 -0.2052 -0.6297
  641MOL0     H88427   2.367   1.002   5.706 -0.8956 -0.1954 -0.6109
  641MOL0     H88428   2.306   0.972   5.950  1.3335 -2.1636  0.2591
  641MOL0     H88429   2.229   0.823   5.892  2.8283 -1.9996 -0.3954
  641MOL0     H88430   2.157   1.092   5.763 -3.5641  0.6999  1.3126
  641MOL0     H88431   2.082   0.934   5.750 -1.1765  1.3651  0.4918
  641MOL0     H88432   2.089   1.087   6.012 -0.6686  0.9994  0.7776
  641MOL0     H88433   2.035   0.929   5.983  0.4325  0.6069 -0.4185
  641MOL0     H88434   1.841   1.057   5.989  2.5422 -0.8514  0.9199
  641MOL0     H88435   1.866   0.999   5.825  0.2799 -0.2019 -1.7821
  641MOL0     H88436   1.788   1.216   5.804  0.7445  0.3311 -0.9488
  641MOL0     H88437   1.946   1.207   5.738 -1.6044 -1.9295 -0.0286
  641MOL0     H88438   2.683   0.587   5.502  2.2128 -1.9446  1.5528
  641MOL0     H88439   2.868   0.540   5.381 -0.6296  0.8449 -0.0991
  641MOL0     H88440   3.204   0.647   5.171  0.3446  0.9778  0.6593
  641MOL0     H88441   3.374   0.593   4.989  3.3081  0.6356 -1.4889
  641MOL0     H88442   2.582   0.800   4.057  2.1546  0.7802  1.6339
  641MOL0     H88443   2.321   0.783   4.092 -0.0158  0.0485 -0.9227
  641MOL0     H88444   1.920   0.807   4.479  1.8221  0.1128 -0.0489
  641MOL0     H88445   1.696   0.718   4.530 -2.9850 -1.5488 -2.5406
  641MOL0     H88446   1.581   0.401   4.349 -3.3578  2.1831 -2.1514
  641MOL0     H88447   1.533   0.293   4.484  1.9046  0.2718  0.7711
  641MOL0     H88448   1.394   0.487   4.570  0.9794  2.9386  0.1295
  641MOL0     H88449   1.338   0.402   4.431 -0.1889 -0.1176 -1.6592
  641MOL0     H88450   1.475   0.691   4.419 -0.5833  0.6397  0.3887
  641MOL0     H88451   1.421   0.588   4.280 -0.5487  0.7741  0.3453
  641MOL0     H88452   1.265   0.703   4.511  5.0262 -0.3111  1.4915
  641MOL0     H88453   1.181   0.607   4.384  0.4757 -0.5161  1.9907
  641MOL0     H88454   1.267   0.972   4.178 -0.5256 -1.1097 -1.3211
  641MOL0     H88455   1.849   0.324   4.494  0.8584 -1.8758 -4.8853
  641MOL0     H88456   2.091   0.284   4.419 -0.0442  0.8569  2.1579
  641MOL0     H88457   2.138   0.412   4.281  2.1427  1.7947  0.9865
  641MOL0     H88458   2.203   0.413   4.443  0.3945  1.4986 -0.7035
  642MOL0     O88459   9.652   6.970   1.555 -0.1065  0.6404  0.6699
  642MOL0     C88460   9.627   6.980   1.434 -0.2722  0.5655  0.2898
  642MOL0     O88461   9.719   6.954   1.337 -0.0595 -0.7445  0.3300
  642MOL0     C88462   9.844   6.934   1.377  0.6102  0.7066 -0.4310
  642MOL0     C88463   9.890   6.806   1.384 -0.4584 -0.4540 -0.1494
  642MOL0     C88464  10.023   6.776   1.415  0.1632  0.2846 -0.1210
  642MOL0     C88465  10.117   6.878   1.425  0.2420  0.6747 -0.6152
  642MOL0     O88466  10.255   6.870   1.424 -0.1331 -0.5211 -0.6630
  642MOL0     C88467  10.304   6.801   1.531 -0.2711 -0.2003  0.4769
  642MOL0     C88468  10.454   6.834   1.539 -0.3124 -0.1518 -0.1658
  642MOL0     C88469  10.475   6.978   1.588 -0.1565 -0.2825  0.1698
  642MOL0     C88470  10.622   7.021   1.599  0.2069  0.5465  0.0805
  642MOL0     C88471  10.690   6.963   1.725  0.3385 -0.7677 -0.2149
  642MOL0     C88472  10.647   7.051   1.852  0.1564 -0.2426  1.0382
  642MOL0     C88473  10.725   7.021   1.977  0.1634  0.4687 -0.4852
  642MOL0     C88474  10.705   6.880   2.027  0.5212  0.5305  0.6100
  642MOL0     N88475  10.772   6.852   2.158  0.2290  0.4872  0.0758
  642MOL0     C88476  10.893   6.786   2.163 -0.3539 -1.5112  0.5579
  642MOL0     C88477  10.926   6.799   2.293  0.1056 -0.4892  0.3380
  642MOL0     C88478  11.050   6.733   2.369 -0.1809 -0.1110  0.0400
  642MOL0     C88479  11.014   6.588   2.394  0.7383 -0.1747  0.7544
  642MOL0     C88480  11.131   6.492   2.415 -0.5330  0.0335  0.3085
  642MOL0     C88481  11.185   6.519   2.553 -0.3221 -0.8385  1.2273
  642MOL0     O88482  11.310   6.444   2.577 -0.0595 -0.0842  0.6314
  642MOL0     C88483  11.434   6.490   2.564  0.6889 -1.0004 -0.4424
  642MOL0     C88484  11.458   6.598   2.480 -0.2954  0.2979 -0.2136
  642MOL0     C88485  11.590   6.636   2.460 -0.2198 -0.6236 -0.2246
  642MOL0     C88486  11.608   6.754   2.364  0.6421 -0.0743 -0.0333
  642MOL0     C88487  11.687   6.585   2.539 -1.1019  0.6805 -0.6355
  642MOL0     C88488  11.832   6.627   2.539 -0.7447  0.3684 -0.0074
  642MOL0     O88489  11.917   6.562   2.632  0.8688 -0.6080  0.4044
  642MOL0     C88490  12.043   6.606   2.628 -0.3547  0.4071 -0.1679
  642MOL0     C88491  12.077   6.739   2.668  0.0426 -0.4617  0.2695
  642MOL0     C88492  12.209   6.786   2.665 -0.2837 -0.4224 -0.9418
  642MOL0     C88493  12.313   6.689   2.641  1.1988  0.3211  0.4730
  642MOL0     O88494  12.442   6.728   2.647 -0.5616  0.1963  0.0053
  642MOL0     C88495  12.540   6.650   2.594 -0.3748 -0.1441  0.4261
  642MOL0     C88496  12.676   6.725   2.638  0.4366  0.6412  0.5456
  642MOL0     C88497  12.694   6.719   2.794  0.2710 -0.1164 -0.5870
  642MOL0     C88498  12.788   6.818   2.853 -0.3956 -0.5831  0.3105
  642MOL0     C88499  12.935   6.782   2.817 -0.9477  0.3042 -0.1276
  642MOL0     C88500  13.033   6.901   2.816  0.2110  0.2038 -0.1104
  642MOL0     C88501  13.171   6.855   2.767 -0.0141  1.0117 -0.5635
  642MOL0     C88502  13.277   6.973   2.793  0.2334  0.2359  0.3784
  642MOL0    Cl88503  13.443   6.910   2.750 -0.0710 -0.2316  0.2609
  642MOL0     C88504  12.276   6.557   2.612  0.5898 -0.0457 -0.1505
  642MOL0     C88505  12.145   6.521   2.603  0.4394 -0.1082  0.0183
  642MOL0     O88506  11.871   6.708   2.461  0.6744  0.4586  0.3147
  642MOL0     C88507  11.656   6.483   2.627  0.3980 -0.6048  0.5403
  642MOL0     C88508  11.528   6.428   2.630 -0.8520  0.7406  0.0214
  642MOL0     N88509  10.825   6.860   2.363 -0.0931 -0.0224 -0.3467
  642MOL0     N88510  10.741   6.901   2.280  0.0574 -0.7523  0.3781
  642MOL0     C88511  10.063   7.012   1.433 -0.2010  0.5539  0.4032
  642MOL0     C88512   9.926   7.039   1.410 -0.1159 -0.2572 -0.2566
  642MOL0     C88513   9.485   7.013   1.404 -1.0997  0.6802  0.4378
  642MOL0     C88514   9.386   6.970   1.488  0.2798  1.0131 -0.3167
  642MOL0     C88515   9.247   6.976   1.459  0.4089 -0.2120 -0.5210
  642MOL0     C88516   9.204   7.054   1.348  0.2948  1.2737 -0.0392
  642MOL0     O88517   9.067   7.067   1.336  0.4973  0.1934 -0.5606
  642MOL0     C88518   9.003   7.082   1.209 -0.5074 -0.1634  0.5453
  642MOL0     C88519   8.990   7.226   1.171  0.4144 -0.2348 -0.2066
  642MOL0     C88520   8.891   7.295   1.262 -0.3173 -0.0536  0.6031
  642MOL0     C88521   8.944   7.323   1.402 -0.4001 -0.6437 -0.1930
  642MOL0     C88522   8.843   7.391   1.488 -0.8023  0.0927  0.3017
  642MOL0     C88523   8.739   7.435   1.540 -0.3531  0.0138  0.7373
  642MOL0     C88524   9.306   7.097   1.258  0.3054  0.4628 -0.1537
  642MOL0     C88525   9.445   7.083   1.286 -0.1007 -0.1849  0.2100
  642MOL0     C88526   9.549   7.141   1.192  0.1919  0.2600  0.1682
  642MOL0     H88527   9.820   6.726   1.360 -1.8577  0.8264 -0.5232
  642MOL0     H88528  10.062   6.675   1.415  1.0056  0.5761 -1.8860
  642MOL0     H88529  10.293   6.692   1.528 -1.1963 -0.1929  2.0809
  642MOL0     H88530  10.262   6.826   1.629 -1.9363 -0.8724 -0.0296
  642MOL0     H88531  10.495   6.763   1.613 -2.3819  1.5972  2.8972
  642MOL0     H88532  10.501   6.826   1.441 -1.3607  0.2732 -0.7123
  642MOL0     H88533  10.419   7.037   1.515  1.0778 -0.6877 -1.1467
  642MOL0     H88534  10.429   6.995   1.686  2.4499 -1.7039  1.7544
  642MOL0     H88535  10.668   6.994   1.504 -2.6733 -0.7199 -1.0871
  642MOL0     H88536  10.627   7.130   1.601 -0.7950  0.6003  1.8342
  642MOL0     H88537  10.798   6.973   1.720  0.4141 -0.7149  1.3072
  642MOL0     H88538  10.656   6.859   1.733  2.8074 -1.8743 -2.5422
  642MOL0     H88539  10.679   7.149   1.815 -0.1279 -0.2448  0.7775
  642MOL0     H88540  10.538   7.051   1.859 -0.0750 -1.6189 -1.4264
  642MOL0     H88541  10.684   7.082   2.058 -2.3041 -2.4448  0.6420
  642MOL0     H88542  10.832   7.041   1.967  0.0230  1.3065 -0.4480
  642MOL0     H88543  10.597   6.875   2.043  0.6592  0.5948  1.6189
  642MOL0     H88544  10.737   6.808   1.950 -1.8817  0.2786 -0.2421
  642MOL0     H88545  10.956   6.752   2.082 -0.3865  1.4244 -0.8507
  642MOL0     H88546  11.081   6.773   2.465 -0.5200  0.8470 -0.2271
  642MOL0     H88547  11.137   6.736   2.303 -0.2738  2.3952 -0.1029
  642MOL0     H88548  10.950   6.578   2.482 -0.1001  1.1924  0.3075
  642MOL0     H88549  10.962   6.558   2.303 -2.4307 -0.6627  2.5963
  642MOL0     H88550  11.104   6.393   2.379 -0.1324  0.6405 -1.8456
  642MOL0     H88551  11.211   6.516   2.343 -1.5586 -0.5882 -1.0672
  642MOL0     H88552  11.200   6.628   2.549 -0.0777 -0.8010 -4.5274
  642MOL0     H88553  11.122   6.507   2.642 -2.4499 -1.3605 -0.2759
  642MOL0     H88554  11.380   6.635   2.414  0.6250 -0.4326 -1.7481
  642MOL0     H88555  11.678   6.732   2.283  0.3573  0.1277 -0.3381
  642MOL0     H88556  11.642   6.845   2.414  0.6690  0.9269 -1.7728
  642MOL0     H88557  11.513   6.771   2.312 -0.7310  0.8224  2.6029
  642MOL0     H88558  12.001   6.815   2.681 -0.0692 -0.2891 -1.2294
  642MOL0     H88559  12.244   6.882   2.704  2.9194 -2.2536  1.1360
  642MOL0     H88560  12.532   6.548   2.632 -1.0303 -0.7430 -1.2487
  642MOL0     H88561  12.505   6.645   2.491  0.9395 -2.1229  0.0196
  642MOL0     H88562  12.761   6.674   2.592 -0.7503 -1.2533  0.3498
  642MOL0     H88563  12.671   6.832   2.614 -4.1612  0.7001  0.8600
  642MOL0     H88564  12.737   6.625   2.828 -0.0614  0.0152  0.2123
  642MOL0     H88565  12.599   6.727   2.846 -0.6045  1.6182 -2.2965
  642MOL0     H88566  12.781   6.821   2.962 -1.4061  0.8503  0.2493
  642MOL0     H88567  12.761   6.919   2.821  1.5031  0.9680  3.1594
  642MOL0     H88568  12.973   6.711   2.891  2.7749  1.6126 -0.5556
  642MOL0     H88569  12.930   6.744   2.715 -4.2361 -2.7929  0.9809
  642MOL0     H88570  13.035   6.950   2.914  2.6745  3.6634 -1.6990
  642MOL0     H88571  12.988   6.965   2.740 -1.3859 -1.2642 -0.4667
  642MOL0     H88572  13.169   6.816   2.665  2.2839 -0.5072 -0.1096
  642MOL0     H88573  13.196   6.769   2.831  3.1041  0.2567 -2.5554
  642MOL0     H88574  13.278   6.996   2.900 -0.4923 -1.3905  0.7683
  642MOL0     H88575  13.241   7.054   2.730 -2.1195 -2.0105 -1.4210
  642MOL0     H88576  12.341   6.469   2.613 -2.0193 -2.1171  1.2408
  642MOL0     H88577  12.138   6.422   2.559  1.7468  0.8003 -2.4455
  642MOL0     H88578  11.743   6.437   2.674  2.1890  2.4775  0.5006
  642MOL0     H88579  11.504   6.337   2.684  2.4071  0.3314  1.0023
  642MOL0     H88580  10.136   7.090   1.455  3.3526 -2.3679  0.0585
  642MOL0     H88581   9.895   7.142   1.423 -3.2184 -0.8953 -1.6436
  642MOL0     H88582   9.415   6.908   1.573 -0.5118  1.9527  0.6659
  642MOL0     H88583   9.187   6.938   1.541  0.8471 -0.3954 -0.2749
  642MOL0     H88584   9.056   7.034   1.127  3.3656 -0.1933  2.7726
  642MOL0     H88585   8.902   7.042   1.216  0.5978 -2.9356  2.3172
  642MOL0     H88586   8.960   7.244   1.067  1.5863  1.1800 -0.3311
  642MOL0     H88587   9.089   7.272   1.174  0.3920 -0.2331  0.6612
  642MOL0     H88588   8.854   7.383   1.208 -1.1931 -0.2320  0.8970
  642MOL0     H88589   8.806   7.226   1.262 -1.5875  1.4293 -0.5506
  642MOL0     H88590   9.026   7.395   1.394 -0.1527 -0.8487  0.4134
  642MOL0     H88591   8.999   7.240   1.447  1.8752  0.3548 -1.0089
  642MOL0     H88592   8.654   7.452   1.604  0.5767  0.4680  1.8945
  642MOL0     H88593   9.278   7.152   1.169 -2.2905 -1.3390 -0.5520
  642MOL0     H88594   9.636   7.181   1.245 -1.7580  4.3986  0.6494
  642MOL0     H88595   9.586   7.085   1.106  4.1485  0.7207  1.3794
  642MOL0     H88596   9.495   7.227   1.151 -0.5808  0.7799  2.1858
  643MOL0     O88597   4.456   7.916   2.715  0.0179 -0.0427 -0.0326
  643MOL0     C88598   4.572   7.951   2.675  1.0963 -0.5269  0.3549
  643MOL0     O88599   4.591   8.047   2.582 -0.0844  0.3506 -0.2746
  643MOL0     C88600   4.479   8.108   2.529  0.2269  0.1899  0.7238
  643MOL0     C88601   4.426   8.066   2.411 -0.2359 -0.1138 -0.0354
  643MOL0     C88602   4.322   8.124   2.345 -0.0138 -0.1172 -0.0861
  643MOL0     C88603   4.271   8.245   2.392  0.0058 -0.0197  0.1486
  643MOL0     O88604   4.164   8.320   2.345  0.3219  0.3155 -0.3106
  643MOL0     C88605   4.103   8.260   2.229 -0.6394 -0.5944 -0.1725
  643MOL0     C88606   3.984   8.354   2.176 -0.7310  0.5345 -0.1011
  643MOL0     C88607   4.023   8.505   2.187  0.8368  0.2666 -0.5021
  643MOL0     C88608   3.938   8.590   2.082  0.4339 -0.1449 -0.6560
  643MOL0     C88609   3.995   8.733   2.063 -0.2634 -0.9139  0.8977
  643MOL0     C88610   4.136   8.739   2.008 -0.5277 -0.1866  0.3633
  643MOL0     C88611   4.177   8.878   1.949  0.4647  0.8723 -0.1097
  643MOL0     C88612   4.173   9.002   2.034  0.0273 -0.0049  0.1471
  643MOL0     N88613   4.181   9.110   1.939  0.0787 -0.7688 -0.0255
  643MOL0     C88614   4.284   9.172   1.878  0.1755 -0.5874  0.4605
  643MOL0     C88615   4.227   9.273   1.802  0.0014 -0.2897 -0.8957
  643MOL0     C88616   4.295   9.363   1.703  0.2106 -0.1011  0.9955
  643MOL0     C88617   4.451   9.350   1.693 -0.0860 -0.5285 -0.5468
  643MOL0     C88618   4.506   9.415   1.570  0.2041 -0.8487 -0.2962
  643MOL0     C88619   4.658   9.389   1.543  0.1285 -0.5244 -0.2795
  643MOL0     O88620   4.729   9.502   1.596  0.4573 -0.7136  0.4439
  643MOL0     C88621   4.869   9.494   1.607 -0.4209 -1.0481 -0.2033
  643MOL0     C88622   4.945   9.544   1.714  0.4641  0.0515  0.3802
  643MOL0     C88623   5.083   9.523   1.731  0.6525 -0.1841  0.3399
  643MOL0     C88624   5.143   9.583   1.861  0.0752 -0.1461  0.3513
  643MOL0     C88625   5.151   9.441   1.640  0.0026  0.1500 -1.1440
  643MOL0     C88626   5.293   9.410   1.651  1.0269  0.7089  0.1951
  643MOL0     O88627   5.347   9.415   1.772 -0.1659 -0.0385 -0.2038
  643MOL0     C88628   5.483   9.428   1.779  0.3734 -0.2104  0.4698
  643MOL0     C88629   5.550   9.530   1.834 -0.2432  1.1537 -0.5493
  643MOL0     C88630   5.689   9.532   1.842 -0.3389 -0.2931  0.8375
  643MOL0     C88631   5.770   9.429   1.805 -0.1923 -0.4365  0.1380
  643MOL0     O88632   5.907   9.431   1.824 -0.0220  0.3687 -0.6816
  643MOL0     C88633   5.974   9.432   1.702  0.0001  0.2701  0.0783
  643MOL0     C88634   6.121   9.444   1.722  0.0027  0.9952 -0.2488
  643MOL0     C88635   6.210   9.466   1.597 -0.0041 -0.3301 -0.8164
  643MOL0     C88636   6.175   9.585   1.505 -0.3075  0.0437  0.1110
  643MOL0     C88637   6.197   9.721   1.561 -0.4602  0.3894 -0.4084
  643MOL0     C88638   6.080   9.818   1.537 -0.3505  0.4169 -0.3894
  643MOL0     C88639   5.961   9.781   1.622  0.4951  0.1190 -0.2239
  643MOL0     C88640   5.875   9.903   1.654 -0.7133 -0.4224  0.5939
  643MOL0    Cl88641   5.835   9.998   1.494  0.1626  0.4556  0.0624
  643MOL0     C88642   5.697   9.320   1.736 -0.3302 -0.5639 -0.2072
  643MOL0     C88643   5.562   9.319   1.724  0.0945 -0.2027 -0.2926
  643MOL0     O88644   5.350   9.389   1.546  0.3509 -0.0558 -0.2263
  643MOL0     C88645   5.078   9.394   1.528 -0.1658 -0.2915 -0.0731
  643MOL0     C88646   4.944   9.414   1.513 -0.7195  0.0149 -0.6991
  643MOL0     N88647   4.093   9.285   1.836  0.0400  0.0906 -0.9068
  643MOL0     N88648   4.064   9.184   1.913  0.0099  0.2798  0.2002
  643MOL0     C88649   4.341   8.296   2.504  0.0086 -0.1816 -0.4784
  643MOL0     C88650   4.443   8.236   2.573 -0.4017 -0.2841 -0.0394
  643MOL0     C88651   4.698   7.899   2.729  0.1602 -0.4653 -0.0157
  643MOL0     C88652   4.820   7.968   2.718 -0.0964 -0.9149 -0.6244
  643MOL0     C88653   4.922   7.922   2.796 -0.0653  0.0070 -0.8648
  643MOL0     C88654   4.922   7.812   2.879 -0.0835 -0.2435  0.5114
  643MOL0     O88655   5.039   7.774   2.939 -0.2630  0.4804 -0.0584
  643MOL0     C88656   5.069   7.840   3.056 -0.1541  0.7744  0.1095
  643MOL0     C88657   5.130   7.741   3.152  0.2627 -0.2136  0.4881
  643MOL0     C88658   5.275   7.709   3.122 -0.4915 -0.6883 -0.9586
  643MOL0     C88659   5.344   7.635   3.246  0.3120  0.6734  0.6126
  643MOL0     C88660   5.476   7.604   3.198  0.3852  0.6092  0.1565
  643MOL0     C88661   5.581   7.570   3.162 -0.1212 -1.3819 -0.7246
  643MOL0     C88662   4.807   7.738   2.879 -0.3103 -0.5904  1.2111
  643MOL0     C88663   4.695   7.779   2.805 -0.4965  0.7514 -1.2774
  643MOL0     C88664   4.575   7.680   2.811  0.3203  1.1256  0.4637
  643MOL0     H88665   4.474   7.976   2.374  0.4242  0.1325  0.2063
  643MOL0     H88666   4.266   8.078   2.264 -2.3061  0.5416  1.0467
  643MOL0     H88667   4.069   8.161   2.262  1.0608 -0.5266  2.0004
  643MOL0     H88668   4.165   8.252   2.139 -0.9910 -0.6366 -0.4097
  643MOL0     H88669   3.968   8.313   2.076 -0.0705  1.1808 -0.4799
  643MOL0     H88670   3.899   8.337   2.243  2.4382 -3.6252  3.5485
  643MOL0     H88671   4.005   8.533   2.291  1.9113 -4.3886  1.1826
  643MOL0     H88672   4.129   8.523   2.166  1.3280 -1.7582  0.0614
  643MOL0     H88673   3.942   8.544   1.983 -2.4370 -1.9477 -0.0689
  643MOL0     H88674   3.834   8.598   2.115  0.9964  3.1558  0.6761
  643MOL0     H88675   3.992   8.775   2.164 -2.1424 -0.7458  0.8065
  643MOL0     H88676   3.934   8.787   1.991  1.7546  0.7251  0.2911
  643MOL0     H88677   4.205   8.695   2.080  2.3149 -0.1302 -2.1079
  643MOL0     H88678   4.145   8.677   1.918 -0.7512  1.5161 -0.8939
  643MOL0     H88679   4.109   8.895   1.866 -2.5677  1.0141  2.2050
  643MOL0     H88680   4.278   8.864   1.911  0.3965 -0.5545  0.1912
  643MOL0     H88681   4.075   9.005   2.083 -0.3456  1.5498 -0.6392
  643MOL0     H88682   4.247   9.004   2.115  0.7773  0.8775 -0.5442
  643MOL0     H88683   4.389   9.144   1.884  0.8532  1.9302  2.0435
  643MOL0     H88684   4.270   9.464   1.738  0.0857 -0.2956  1.4745
  643MOL0     H88685   4.250   9.343   1.605 -2.2078 -0.7682  2.1715
  643MOL0     H88686   4.500   9.394   1.781 -0.8069  2.2734 -1.4404
  643MOL0     H88687   4.484   9.246   1.688  2.0655  0.1308 -1.6485
  643MOL0     H88688   4.450   9.382   1.481 -0.1086  2.4716 -1.4749
  643MOL0     H88689   4.482   9.522   1.571  0.5432 -0.6779 -3.0109
  643MOL0     H88690   4.696   9.301   1.595 -3.3075 -1.1165  1.5461
  643MOL0     H88691   4.678   9.391   1.435 -4.7681 -2.0523 -1.4559
  643MOL0     H88692   4.902   9.609   1.790  0.8808  0.0387  0.6298
  643MOL0     H88693   5.067   9.649   1.904  1.7463  2.2196 -0.1528
  643MOL0     H88694   5.226   9.647   1.831 -0.5089 -0.7464 -2.8223
  643MOL0     H88695   5.167   9.505   1.935 -1.2937 -3.8056 -2.7045
  643MOL0     H88696   5.496   9.616   1.872 -0.2469  0.0066  2.2541
  643MOL0     H88697   5.749   9.615   1.880 -0.2744  1.7068 -3.1013
  643MOL0     H88698   5.958   9.340   1.645  1.4145  0.8615 -1.3605
  643MOL0     H88699   5.925   9.509   1.642 -5.9426 -4.0486 -1.4502
  643MOL0     H88700   6.148   9.528   1.787  0.0642  0.6688  0.1569
  643MOL0     H88701   6.151   9.351   1.773 -1.9300  0.5794  0.2059
  643MOL0     H88702   6.188   9.379   1.535 -0.4301 -0.1188 -0.9622
  643MOL0     H88703   6.316   9.472   1.626 -0.7601  0.7166  2.0597
  643MOL0     H88704   6.068   9.575   1.483  0.2256 -2.8585 -1.6840
  643MOL0     H88705   6.222   9.576   1.406 -1.7801 -1.3019 -0.5027
  643MOL0     H88706   6.203   9.722   1.670 -1.4351  0.0181 -0.3396
  643MOL0     H88707   6.290   9.766   1.525 -0.2078  0.1229 -0.0898
  643MOL0     H88708   6.050   9.819   1.432 -2.0768  2.9120  0.0515
  643MOL0     H88709   6.125   9.916   1.552  1.9967 -0.5268 -0.7146
  643MOL0     H88710   5.991   9.741   1.719 -4.7512  1.2738  2.2066
  643MOL0     H88711   5.897   9.708   1.573 -1.4330  1.1602  0.6355
  643MOL0     H88712   5.925   9.983   1.709 -1.6497  1.6386 -1.3696
  643MOL0     H88713   5.787   9.867   1.707 -0.6048 -0.0619  1.0205
  643MOL0     H88714   5.752   9.241   1.686  1.0150 -0.7921  1.5521
  643MOL0     H88715   5.505   9.238   1.680  1.5112 -0.5776 -1.4722
  643MOL0     H88716   5.120   9.321   1.460 -1.5860 -0.5262 -0.7339
  643MOL0     H88717   4.905   9.358   1.429 -1.4343 -1.9403  0.8684
  643MOL0     H88718   4.309   8.389   2.550  2.1166 -1.1119  3.3388
  643MOL0     H88719   4.497   8.279   2.657  0.8992 -1.1321 -0.4061
  643MOL0     H88720   4.834   8.059   2.661 -0.2181 -2.1782 -2.7656
  643MOL0     H88721   5.018   7.972   2.785  0.8203 -2.0605 -4.4414
  643MOL0     H88722   5.139   7.916   3.020  2.9220 -3.0953 -3.0482
  643MOL0     H88723   4.978   7.882   3.100 -0.4062 -1.9031  2.4193
  643MOL0     H88724   5.072   7.648   3.150 -0.1257 -0.0412  2.2765
  643MOL0     H88725   5.128   7.783   3.253  1.7400  0.8780  0.0985
  643MOL0     H88726   5.284   7.679   3.017  0.4314  2.2086 -1.7969
  643MOL0     H88727   5.322   7.807   3.116 -0.7201 -0.6101 -1.6118
  643MOL0     H88728   5.303   7.539   3.278  3.0417 -0.1589  1.9590
  643MOL0     H88729   5.354   7.703   3.331  2.7891  1.6044 -0.3232
  643MOL0     H88730   5.680   7.536   3.140  1.2281 -0.1265  2.7175
  643MOL0     H88731   4.814   7.651   2.943  1.1998 -0.3508  1.3971
  643MOL0     H88732   4.501   7.724   2.878  1.2461  0.7233  1.7926
  643MOL0     H88733   4.529   7.648   2.717 -1.0403  1.5330  0.9713
  643MOL0     H88734   4.612   7.583   2.845  0.6628  1.0827 -0.0263
  644MOL0     O88735   6.750   2.978  10.091  0.6495 -0.7887 -0.2549
  644MOL0     C88736   6.696   2.882  10.034  0.1473  1.1534  1.0509
  644MOL0     O88737   6.760   2.789   9.947 -0.1628  0.1333  0.4504
  644MOL0     C88738   6.900   2.798   9.938 -0.2291  0.4278  0.0440
  644MOL0     C88739   6.965   2.802   9.813  0.2425 -0.7697 -0.2108
  644MOL0     C88740   7.103   2.800   9.807 -0.7765  0.4056 -0.1675
  644MOL0     C88741   7.181   2.817   9.920  0.3936  0.5429  0.3910
  644MOL0     O88742   7.313   2.857   9.901  0.1659  0.7592 -0.2090
  644MOL0     C88743   7.421   2.802   9.981  0.2430 -0.4257 -0.6704
  644MOL0     C88744   7.558   2.870   9.934  0.2965 -0.7878 -1.3936
  644MOL0     C88745   7.661   2.815  10.042  1.2037  0.0768  0.2861
  644MOL0     C88746   7.808   2.842  10.014 -0.0358 -0.1255 -0.6059
  644MOL0     C88747   7.876   2.736   9.931  0.1704  0.2450  0.2312
  644MOL0     C88748   8.031   2.755   9.953 -0.8800 -0.1267  0.0238
  644MOL0     C88749   8.118   2.676   9.851  0.1569  0.0026  0.3177
  644MOL0     C88750   8.261   2.665   9.892 -0.4495  0.2867 -0.6426
  644MOL0     N88751   8.296   2.584  10.013  0.4750  0.6918  0.9135
  644MOL0     C88752   8.309   2.447  10.029 -0.0289 -0.3058  0.3621
  644MOL0     C88753   8.360   2.425  10.151 -0.3304 -0.5804  0.4444
  644MOL0     C88754   8.380   2.311  10.238 -0.6796  0.6292  0.9323
  644MOL0     C88755   8.529   2.274  10.274  0.2667 -0.5271  0.3704
  644MOL0     C88756   8.624   2.272  10.146 -0.4280  0.2103 -1.2096
  644MOL0     C88757   8.583   2.170  10.034 -1.2423  0.0651  0.0914
  644MOL0     O88758   8.611   2.031  10.079 -0.5667  0.3330 -0.3079
  644MOL0     C88759   8.729   1.969  10.052  0.1188  1.2046 -0.1817
  644MOL0     C88760   8.763   1.878  10.154 -0.8328 -0.4657  0.2508
  644MOL0     C88761   8.891   1.823  10.161  0.0882 -0.3671 -0.8432
  644MOL0     C88762   8.922   1.732  10.279  0.1922  0.4953 -0.1774
  644MOL0     C88763   8.992   1.856  10.060  0.7168 -0.3942 -0.7802
  644MOL0     C88764   9.135   1.803  10.054 -0.9525 -0.5111  0.2655
  644MOL0     O88765   9.203   1.830   9.940  0.0855 -0.1787 -0.3440
  644MOL0     C88766   9.317   1.756   9.912  0.2814 -0.3541  0.0771
  644MOL0     C88767   9.329   1.616   9.911  0.2030 -0.5356  0.4012
  644MOL0     C88768   9.436   1.546   9.873  0.4233 -0.1764 -0.4988
  644MOL0     C88769   9.552   1.606   9.849  0.0677 -0.4949 -0.2559
  644MOL0     O88770   9.654   1.523   9.829 -0.8661 -0.4311 -0.2664
  644MOL0     C88771   9.789   1.547   9.860 -0.5981 -0.8350  0.0640
  644MOL0     C88772   9.869   1.434   9.812 -0.3497 -0.0666  0.4096
  644MOL0     C88773   9.803   1.292   9.867  0.0062  0.1167  0.2645
  644MOL0     C88774   9.793   1.287  10.025 -0.5825  0.5237 -0.0352
  644MOL0     C88775   9.750   1.156  10.092 -0.1288 -0.0828  1.1564
  644MOL0     C88776   9.812   1.019  10.031  0.4792  0.4703  0.2202
  644MOL0     C88777   9.742   0.899  10.094  0.0206  0.5052 -0.0167
  644MOL0     C88778   9.778   0.771  10.015  0.5527 -0.1384  0.2487
  644MOL0    Cl88779   9.682   0.640  10.079 -0.1725  0.2069 -0.3595
  644MOL0     C88780   9.554   1.742   9.846 -0.9701 -1.1728 -0.2427
  644MOL0     C88781   9.443   1.817   9.882 -0.6977  0.8902 -0.4377
  644MOL0     O88782   9.183   1.756  10.154  0.4351  0.1821  0.2780
  644MOL0     C88783   8.958   1.958   9.963 -0.4838  0.8885  0.9758
  644MOL0     C88784   8.831   2.008   9.958  0.0749  0.4692  1.3653
  644MOL0     N88785   8.380   2.552  10.211 -0.2158  0.6557  0.7148
  644MOL0     N88786   8.327   2.648  10.128  0.1324 -0.2040 -0.1231
  644MOL0     C88787   7.119   2.814  10.045  0.6370  0.4392 -0.1427
  644MOL0     C88788   6.981   2.800  10.050  0.3600 -0.7752  0.1096
  644MOL0     C88789   6.563   2.845  10.067  0.7070 -0.1413 -0.2536
  644MOL0     C88790   6.543   2.708  10.091  0.5154 -1.2016 -0.8364
  644MOL0     C88791   6.408   2.661  10.108 -0.5362  0.6379 -0.0441
  644MOL0     C88792   6.301   2.755  10.095  0.0923 -0.1094 -0.1070
  644MOL0     O88793   6.170   2.727  10.108  0.2415 -0.4499  0.4252
  644MOL0     C88794   6.130   2.612  10.184  1.0404 -0.0895  0.5600
  644MOL0     C88795   5.978   2.616  10.205 -0.5792 -1.1066  0.7786
  644MOL0     C88796   5.920   2.493  10.253 -0.4462  0.6608 -0.0973
  644MOL0     C88797   5.766   2.506  10.249 -1.1819 -0.0905 -0.0101
  644MOL0     C88798   5.706   2.388  10.313  0.0881  0.8116 -1.2963
  644MOL0     C88799   5.651   2.303  10.386  0.3649  0.1409  0.5886
  644MOL0     C88800   6.330   2.882  10.054 -0.1784 -0.9982 -1.4342
  644MOL0     C88801   6.458   2.934  10.058 -0.4929 -0.2107  0.3610
  644MOL0     C88802   6.469   3.082  10.038  0.5773  0.0366  0.1357
  644MOL0     H88803   6.911   2.807   9.719 -2.5118 -1.6592  1.2381
  644MOL0     H88804   7.147   2.811   9.708 -1.3115 -0.7094 -0.5461
  644MOL0     H88805   7.428   2.693   9.968 -2.3104 -0.4222 -2.8884
  644MOL0     H88806   7.407   2.826  10.087 -4.0916  2.3218 -1.6171
  644MOL0     H88807   7.579   2.839   9.831  2.4205  0.1907 -1.3086
  644MOL0     H88808   7.549   2.979   9.943  1.3773 -0.7084 -1.1396
  644MOL0     H88809   7.630   2.864  10.134 -3.6604 -0.4450 -0.8337
  644MOL0     H88810   7.660   2.706  10.054  2.5529 -0.1856 -1.5329
  644MOL0     H88811   7.815   2.938   9.960 -1.5411 -0.0869 -0.8003
  644MOL0     H88812   7.870   2.852  10.103  1.2188  0.6832 -1.5292
  644MOL0     H88813   7.849   2.768   9.830  1.9921  0.6206 -0.1849
  644MOL0     H88814   7.843   2.633   9.949  0.7837  0.1910  1.1084
  644MOL0     H88815   8.049   2.862   9.944  0.9175 -0.4045  0.0442
  644MOL0     H88816   8.056   2.725  10.055  0.9725 -0.9246 -0.6219
  644MOL0     H88817   8.121   2.727   9.755 -1.7741 -2.1482 -0.9995
  644MOL0     H88818   8.073   2.577   9.837 -0.6576  0.2194  1.2741
  644MOL0     H88819   8.318   2.626   9.806 -0.5322  0.7319 -0.8992
  644MOL0     H88820   8.297   2.767   9.907 -0.2455  0.2845 -1.0906
  644MOL0     H88821   8.296   2.351   9.979 -0.2688 -0.4606  0.7220
  644MOL0     H88822   8.334   2.220  10.197  1.6333 -0.3936  0.4440
  644MOL0     H88823   8.331   2.326  10.335  0.6547 -1.2720  1.9764
  644MOL0     H88824   8.572   2.348  10.343  0.1499  0.4234 -0.5648
  644MOL0     H88825   8.521   2.173  10.318 -0.2280 -2.4772 -3.7382
  644MOL0     H88826   8.630   2.374  10.109  0.3571  0.2816 -0.9054
  644MOL0     H88827   8.724   2.242  10.177 -2.2290 -2.7007  2.6187
  644MOL0     H88828   8.476   2.159  10.018 -0.9296 -1.9755 -0.9892
  644MOL0     H88829   8.641   2.203   9.947  0.6777  2.2801  2.0694
  644MOL0     H88830   8.683   1.854  10.223 -1.5477  0.7253 -0.1324
  644MOL0     H88831   8.833   1.706  10.338  1.1918 -0.1121  1.1010
  644MOL0     H88832   8.985   1.780  10.354 -0.8496 -1.4923  2.1158
  644MOL0     H88833   8.965   1.635  10.252 -0.2505 -0.5413  2.5567
  644MOL0     H88834   9.244   1.566   9.957 -1.3241  2.5661  1.2061
  644MOL0     H88835   9.432   1.439   9.885  2.4328 -0.1993  0.3667
  644MOL0     H88836   9.826   1.647   9.835 -0.7054 -0.1795  2.2949
  644MOL0     H88837   9.791   1.535   9.969 -0.1746 -0.9788  0.0410
  644MOL0     H88838   9.863   1.437   9.703  0.9061 -0.5682  0.3227
  644MOL0     H88839   9.972   1.446   9.845 -1.3078 -0.2259  3.9219
  644MOL0     H88840   9.877   1.217   9.837 -0.4947 -0.3119  0.0877
  644MOL0     H88841   9.703   1.273   9.826  0.4865  0.7220 -1.2767
  644MOL0     H88842   9.723   1.367  10.047  1.2927  1.8583  1.4209
  644MOL0     H88843   9.890   1.306  10.071 -0.4746 -1.4475  0.6478
  644MOL0     H88844   9.762   1.181  10.198  1.0803 -0.8619  1.2298
  644MOL0     H88845   9.643   1.149  10.071 -0.8627  2.2464  3.5876
  644MOL0     H88846   9.920   1.020  10.044  0.4796 -2.1508  0.8714
  644MOL0     H88847   9.787   1.018   9.924  2.4624  3.3754 -0.3959
  644MOL0     H88848   9.634   0.915  10.089  0.1031  1.7997  1.3169
  644MOL0     H88849   9.758   0.873  10.199 -1.3970 -1.4895 -0.2447
  644MOL0     H88850   9.882   0.742  10.033  0.4130 -1.2790 -0.6238
  644MOL0     H88851   9.750   0.781   9.910  0.9461 -1.7960 -0.0529
  644MOL0     H88852   9.644   1.801   9.826 -0.9870  0.5644  3.8912
  644MOL0     H88853   9.451   1.925   9.893  1.4087  0.5514  2.9675
  644MOL0     H88854   9.023   1.976   9.879 -1.6494 -0.3293 -0.2464
  644MOL0     H88855   8.817   2.087   9.884  3.4403 -0.2364 -0.2267
  644MOL0     H88856   7.189   2.817  10.128 -1.6788 -2.2977  2.1159
  644MOL0     H88857   6.933   2.797  10.147 -2.1690 -2.2899 -1.0945
  644MOL0     H88858   6.629   2.644  10.103 -0.0750 -1.8282  0.1523
  644MOL0     H88859   6.387   2.557  10.129 -0.6297  0.6894  0.1209
  644MOL0     H88860   6.153   2.525  10.122 -1.3322 -0.5882  0.2841
  644MOL0     H88861   6.193   2.607  10.273  0.3410  3.3131  1.4037
  644MOL0     H88862   5.932   2.643  10.109  0.0722  0.1716  0.8183
  644MOL0     H88863   5.951   2.698  10.271  1.9333  0.9352 -0.5825
  644MOL0     H88864   5.963   2.408  10.200  2.2224  1.3078  0.8328
  644MOL0     H88865   5.952   2.486  10.358 -0.4537  4.0593  0.2734
  644MOL0     H88866   5.732   2.520  10.146 -0.8878  3.1867  0.2261
  644MOL0     H88867   5.746   2.602  10.298  1.4904  0.4176  0.2832
  644MOL0     H88868   5.607   2.223  10.442  0.9575  0.3118  1.3160
  644MOL0     H88869   6.246   2.951  10.063  1.6040  1.0116  1.6736
  644MOL0     H88870   6.520   3.104   9.943  0.6868  2.4731  0.7118
  644MOL0     H88871   6.369   3.125  10.030 -1.0186 -3.0592  1.4260
  644MOL0     H88872   6.521   3.134  10.119  0.5003  0.1451  0.1153
  645MOL0     O88873   1.518   3.548  10.797 -0.1278 -0.6264  0.2302
  645MOL0     C88874   1.607   3.478  10.751  0.8727  0.1611  0.4708
  645MOL0     O88875   1.719   3.451  10.807 -0.1772 -0.0622 -0.4160
  645MOL0     C88876   1.747   3.517  10.924 -0.4312 -0.6511 -0.0941
  645MOL0     C88877   1.772   3.434  11.033 -0.8947 -0.1586  0.7300
  645MOL0     C88878   1.805   3.492  11.165  0.1070  0.5803  0.1197
  645MOL0     C88879   1.820   3.630  11.180 -1.1941 -0.0077  0.6998
  645MOL0     O88880   1.869   3.703  11.282  0.3494 -0.3828 -0.3775
  645MOL0     C88881   1.883   3.654  11.420  0.0424  0.6229 -0.0849
  645MOL0     C88882   1.921   3.781  11.499  0.1981  0.1430 -0.5256
  645MOL0     C88883   1.989   3.748  11.628  0.4138  0.6719 -0.2827
  645MOL0     C88884   2.026   3.879  11.706  0.1302 -0.4213 -0.7991
  645MOL0     C88885   2.030   3.854  11.857  0.0296  0.6294 -0.2645
  645MOL0     C88886   2.065   3.990  11.910 -0.6147  0.5016 -0.7267
  645MOL0     C88887   2.216   4.016  11.897 -1.1955  0.7807  0.5471
  645MOL0     C88888   2.287   4.065  12.020 -0.0175  0.2030 -0.6767
  645MOL0     N88889   2.432   4.083  12.026 -0.7162  0.2567  0.0383
  645MOL0     C88890   2.503   4.193  11.970  0.2512  0.1791  0.6303
  645MOL0     C88891   2.623   4.179  12.023 -0.2334  0.5785 -0.9792
  645MOL0     C88892   2.727   4.285  12.015 -0.2394 -0.7697 -0.4640
  645MOL0     C88893   2.872   4.233  12.001 -0.3938 -0.4843 -0.5395
  645MOL0     C88894   2.973   4.329  12.072  0.1418  0.6069 -0.0625
  645MOL0     C88895   3.122   4.298  12.071 -0.1204  0.9079  0.4840
  645MOL0     O88896   3.183   4.399  12.156 -0.4016 -0.0095 -0.3871
  645MOL0     C88897   3.320   4.407  12.159  0.3973 -0.0987  0.4154
  645MOL0     C88898   3.388   4.307  12.222  0.7978  0.7232  0.3790
  645MOL0     C88899   3.526   4.309  12.237 -0.1907 -0.9913 -1.0733
  645MOL0     C88900   3.604   4.202  12.309 -0.8524 -0.2564  0.4512
  645MOL0     C88901   3.597   4.418  12.177  0.2982  0.0480 -0.4069
  645MOL0     C88902   3.746   4.444  12.187  0.3278 -0.4354 -0.4680
  645MOL0     O88903   3.827   4.339  12.237 -0.1276 -0.1909 -0.6312
  645MOL0     C88904   3.951   4.369  12.291 -0.5088 -0.7607  0.1436
  645MOL0     C88905   3.985   4.495  12.343 -0.5641 -0.1771 -0.3424
  645MOL0     C88906   4.121   4.522  12.369 -0.4774 -0.0829 -0.0722
  645MOL0     C88907   4.220   4.429  12.358 -0.1879  0.4494  0.4889
  645MOL0     O88908   4.353   4.470  12.384  0.1356  0.1882  0.3987
  645MOL0     C88909   4.467   4.387  12.355  0.2000  0.2961  0.5424
  645MOL0     C88910   4.478   4.265  12.450 -0.1658  0.0079 -0.0067
  645MOL0     C88911   4.579   4.147  12.411 -0.9324 -0.8310 -0.2575
  645MOL0     C88912   4.725   4.182  12.371  0.0695 -0.9264  0.5484
  645MOL0     C88913   4.801   4.254  12.485  0.3316  0.7846 -0.4578
  645MOL0     C88914   4.947   4.272  12.436  1.5013  0.3344 -0.1054
  645MOL0     C88915   5.031   4.330  12.557 -0.8524  0.3238  0.5014
  645MOL0     C88916   5.178   4.304  12.523 -0.4730 -1.0712  0.2607
  645MOL0    Cl88917   5.292   4.353  12.655  0.1634 -0.3639  0.1493
  645MOL0     C88918   4.185   4.306  12.301 -0.3184  0.1497 -0.9827
  645MOL0     C88919   4.046   4.273  12.273 -0.4977 -0.3161  1.0430
  645MOL0     O88920   3.792   4.549  12.143 -0.3880 -0.6873 -0.3563
  645MOL0     C88921   3.519   4.516  12.111 -1.0616 -0.4476  0.5789
  645MOL0     C88922   3.382   4.522  12.109 -0.1282 -0.2562 -0.0291
  645MOL0     N88923   2.636   4.055  12.092 -0.4792 -0.1612  0.0646
  645MOL0     N88924   2.525   3.992  12.084 -0.7194 -0.3068 -0.3431
  645MOL0     C88925   1.788   3.706  11.060  0.3603 -0.7476 -0.4977
  645MOL0     C88926   1.753   3.658  10.939  0.2511 -0.5098  0.0300
  645MOL0     C88927   1.584   3.442  10.613  0.0964 -0.1650  0.3306
  645MOL0     C88928   1.645   3.322  10.565 -0.3657  0.3634 -0.4708
  645MOL0     C88929   1.630   3.271  10.434 -1.4670 -0.0344 -0.6602
  645MOL0     C88930   1.539   3.334  10.355 -0.3364  0.8265 -0.4854
  645MOL0     O88931   1.528   3.271  10.229 -0.4463  0.3014 -0.5715
  645MOL0     C88932   1.436   3.318  10.128 -0.9309  0.9049 -0.1661
  645MOL0     C88933   1.493   3.275   9.995  0.4313 -0.3710 -0.1269
  645MOL0     C88934   1.486   3.126   9.961 -0.3220  0.3679  0.5123
  645MOL0     C88935   1.349   3.088   9.907 -0.2881 -0.1933 -0.4438
  645MOL0     C88936   1.325   3.108   9.770 -0.6413  0.2862 -0.6530
  645MOL0     C88937   1.302   3.108   9.650 -1.0032 -0.1788  0.3955
  645MOL0     C88938   1.470   3.454  10.399  1.0509 -0.6015 -0.2062
  645MOL0     C88939   1.504   3.518  10.526 -1.5257  0.3849 -0.5910
  645MOL0     C88940   1.468   3.662  10.539 -0.4372  0.3498 -0.7183
  645MOL0     H88941   1.778   3.326  11.034  3.6882 -0.1097  0.4015
  645MOL0     H88942   1.821   3.434  11.255  0.1969 -1.4666 -1.1538
  645MOL0     H88943   1.958   3.574  11.425  0.2953  0.9249  1.7001
  645MOL0     H88944   1.794   3.613  11.468 -0.1184 -0.2715 -1.1261
  645MOL0     H88945   1.998   3.836  11.443  1.4153 -0.4391  0.5391
  645MOL0     H88946   1.841   3.855  11.511 -0.1280 -0.0185 -1.6105
  645MOL0     H88947   1.922   3.687  11.689  1.0444  1.5164  1.2852
  645MOL0     H88948   2.079   3.685  11.628  0.2695  0.4219  1.2234
  645MOL0     H88949   2.125   3.910  11.671  1.3759 -2.5816  0.5692
  645MOL0     H88950   1.954   3.959  11.683  1.6400  0.8410 -1.2811
  645MOL0     H88951   2.091   3.767  11.882 -1.6137 -1.3401 -2.6521
  645MOL0     H88952   1.928   3.831  11.887  0.2143 -2.0446 -1.3763
  645MOL0     H88953   2.015   4.070  11.854 -0.5079  1.5657  0.6480
  645MOL0     H88954   2.044   3.988  12.017  0.1333  4.5586 -0.3335
  645MOL0     H88955   2.238   4.094  11.823 -1.0750  0.2315  0.0002
  645MOL0     H88956   2.270   3.929  11.861  0.0192  1.0440  1.6792
  645MOL0     H88957   2.242   4.161  12.048 -1.8325 -0.0761 -2.4796
  645MOL0     H88958   2.265   3.999  12.105 -1.0574 -0.9688 -1.8180
  645MOL0     H88959   2.466   4.287  11.930 -0.8394  0.1227  1.4734
  645MOL0     H88960   2.723   4.353  12.101 -2.0142  0.1016 -1.1678
  645MOL0     H88961   2.712   4.346  11.926  0.6030 -4.3795 -3.3150
  645MOL0     H88962   2.882   4.132  12.040  0.3855 -0.3545 -0.3932
  645MOL0     H88963   2.889   4.224  11.893 -1.7900 -2.5261 -0.6439
  645MOL0     H88964   2.957   4.426  12.024 -0.2184  0.9181  0.6762
  645MOL0     H88965   2.946   4.344  12.177 -1.7141 -1.0468 -0.2363
  645MOL0     H88966   3.138   4.194  12.102 -2.3110  0.2466 -0.3807
  645MOL0     H88967   3.150   4.311  11.966 -2.2380  1.8939 -0.0286
  645MOL0     H88968   3.341   4.216  12.260  0.9829  0.3572 -0.2536
  645MOL0     H88969   3.662   4.242  12.392  2.5809 -4.3887  0.3889
  645MOL0     H88970   3.648   4.141  12.229 -2.5318 -0.1429 -0.6051
  645MOL0     H88971   3.530   4.135  12.354  0.2215 -2.5945 -1.0443
  645MOL0     H88972   3.912   4.569  12.375  0.7448  0.2639  1.8601
  645MOL0     H88973   4.147   4.626  12.387  1.5716 -0.0079 -2.8747
  645MOL0     H88974   4.444   4.344  12.257 -2.0334  1.1269  0.6489
  645MOL0     H88975   4.555   4.451  12.343 -0.3343  0.8166 -0.7851
  645MOL0     H88976   4.509   4.308  12.547  0.5108  3.1909 -1.4749
  645MOL0     H88977   4.378   4.222  12.451 -0.4791  0.7277  0.0931
  645MOL0     H88978   4.554   4.098  12.317  1.7656  0.8250 -2.0077
  645MOL0     H88979   4.562   4.075  12.492 -1.6308  1.7974  2.1209
  645MOL0     H88980   4.716   4.248  12.285  1.0517 -2.7273 -1.0062
  645MOL0     H88981   4.770   4.090  12.333 -1.2570 -1.3127 -0.1430
  645MOL0     H88982   4.770   4.359  12.491 -0.6837  0.6767 -2.9202
  645MOL0     H88983   4.787   4.211  12.585 -1.6964  2.1068 -0.1061
  645MOL0     H88984   4.946   4.345  12.354 -1.3064  1.8322  1.1384
  645MOL0     H88985   4.981   4.171  12.412  1.5648  0.5356 -0.8926
  645MOL0     H88986   4.995   4.292  12.653 -1.7161  3.2796  1.4462
  645MOL0     H88987   5.015   4.438  12.565  0.0937  0.3969  1.6402
  645MOL0     H88988   5.208   4.377  12.446 -0.5184  1.9593  2.9015
  645MOL0     H88989   5.195   4.200  12.495 -2.5697 -1.2935 -0.3310
  645MOL0     H88990   4.258   4.230  12.277  0.8294  1.8052 -3.1619
  645MOL0     H88991   4.018   4.178  12.229 -2.7124  0.5207  0.5409
  645MOL0     H88992   3.582   4.588  12.060 -3.1465  1.0716  0.0207
  645MOL0     H88993   3.321   4.604  12.072 -1.6538  0.0588  2.8740
  645MOL0     H88994   1.805   3.813  11.062  2.5955 -1.0546  0.0108
  645MOL0     H88995   1.747   3.728  10.856  1.3618  2.4450  2.2605
  645MOL0     H88996   1.710   3.264  10.629 -2.6413 -2.5965 -0.6552
  645MOL0     H88997   1.693   3.192  10.394 -0.3968  1.1962 -1.4931
  645MOL0     H88998   1.346   3.256  10.139  0.6140 -1.6638 -1.1219
  645MOL0     H88999   1.423   3.426  10.120 -1.0504  0.8741 -0.3701
  645MOL0     H89000   1.594   3.317   9.989  0.2782  0.1242  0.6210
  645MOL0     H89001   1.423   3.332   9.934 -0.8615 -0.5481  1.1328
  645MOL0     H89002   1.566   3.088   9.898  0.8752 -0.0694  2.2252
  645MOL0     H89003   1.491   3.063  10.051  0.7250 -2.1813 -1.2320
  645MOL0     H89004   1.283   3.145   9.973  0.1040 -0.8250  0.5298
  645MOL0     H89005   1.329   2.985   9.936 -2.1664  0.4765  0.8877
  645MOL0     H89006   1.283   3.116   9.544  1.3000  2.7049  0.0720
  645MOL0     H89007   1.410   3.514  10.332 -0.3605  0.4292  1.8718
  645MOL0     H89008   1.423   3.693  10.634  1.8821  1.0147  0.2301
  645MOL0     H89009   1.559   3.722  10.539 -1.4083  1.8936 -1.0102
  645MOL0     H89010   1.397   3.690  10.460 -0.7650 -0.3808 -0.6939
  646MOL0     O89011   9.147   2.351   7.411  0.3418 -0.0923 -0.2381
  646MOL0     C89012   9.174   2.249   7.351  0.6590  0.9090 -0.5714
  646MOL0     O89013   9.298   2.200   7.325 -0.5599 -0.4301 -0.1583
  646MOL0     C89014   9.421   2.262   7.345  0.2541  0.3276  0.1196
  646MOL0     C89015   9.440   2.401   7.352  0.1390 -0.4152 -0.2881
  646MOL0     C89016   9.575   2.449   7.362 -0.7251 -0.0731 -0.0290
  646MOL0     C89017   9.683   2.360   7.355  0.1052  0.4129 -0.0410
  646MOL0     O89018   9.818   2.391   7.346  0.6464 -0.0007  0.4849
  646MOL0     C89019   9.858   2.513   7.389 -0.2794 -1.4813 -0.7180
  646MOL0     C89020  10.008   2.538   7.350  0.3727  0.6000 -0.3862
  646MOL0     C89021  10.095   2.440   7.424  0.1154  0.7986  0.0554
  646MOL0     C89022  10.237   2.482   7.389 -1.1611 -0.8167 -0.2616
  646MOL0     C89023  10.343   2.379   7.449  0.0069  0.1090  0.5767
  646MOL0     C89024  10.486   2.436   7.471  0.4125 -0.0229  0.2333
  646MOL0     C89025  10.591   2.330   7.528  0.6421 -0.1029 -0.1944
  646MOL0     C89026  10.720   2.406   7.504  0.4323  0.1035  0.0183
  646MOL0     N89027  10.837   2.340   7.565  0.0985  0.1625  0.3526
  646MOL0     C89028  10.964   2.383   7.553  0.5094 -0.2941  0.0546
  646MOL0     C89029  11.040   2.315   7.649 -0.5975 -0.0555 -0.1593
  646MOL0     C89030  11.182   2.345   7.673 -1.4482  0.7119  0.1975
  646MOL0     C89031  11.201   2.454   7.774 -0.3289  0.1238 -0.0835
  646MOL0     C89032  11.353   2.507   7.775  0.1045 -0.1255  0.3652
  646MOL0     C89033  11.448   2.410   7.839 -0.2056  0.6324 -0.6719
  646MOL0     O89034  11.569   2.443   7.779  0.5387 -0.3287  0.0826
  646MOL0     C89035  11.689   2.357   7.811 -0.5080  0.4498  0.0214
  646MOL0     C89036  11.700   2.249   7.905  0.3705 -0.9598 -0.1994
  646MOL0     C89037  11.817   2.172   7.922  0.0827 -0.4070  0.5631
  646MOL0     C89038  11.815   2.059   8.012  0.6734 -0.2954  1.0912
  646MOL0     C89039  11.932   2.215   7.845  0.2268  0.7971  0.0516
  646MOL0     C89040  12.065   2.148   7.860  0.3615  0.3190 -0.1810
  646MOL0     O89041  12.097   2.089   7.979  0.0085  0.2171  0.3447
  646MOL0     C89042  12.221   2.024   7.983 -0.0146  0.4953  0.0465
  646MOL0     C89043  12.339   2.090   8.010  0.1076  0.4582 -0.6341
  646MOL0     C89044  12.460   2.024   8.009  0.0074 -0.0042  0.9076
  646MOL0     C89045  12.462   1.886   7.993 -0.5535  0.0099  0.4593
  646MOL0     O89046  12.592   1.830   7.991 -0.0325 -0.3407  0.8704
  646MOL0     C89047  12.612   1.687   8.003  0.3774 -0.0533 -0.5276
  646MOL0     C89048  12.740   1.674   8.081 -0.4408 -0.2636  0.4446
  646MOL0     C89049  12.788   1.527   8.071 -0.5230  0.2864  0.0852
  646MOL0     C89050  12.919   1.514   8.147  0.6377 -0.6775 -0.5716
  646MOL0     C89051  13.001   1.388   8.119  0.6550  0.1990  0.1685
  646MOL0     C89052  12.907   1.262   8.129  0.3691  1.2333  0.1199
  646MOL0     C89053  12.832   1.232   8.260 -0.0739 -0.8273  0.0835
  646MOL0     C89054  12.913   1.244   8.387 -0.1082 -0.5859  0.7062
  646MOL0    Cl89055  13.078   1.183   8.367  0.0451 -0.3935  0.1726
  646MOL0     C89056  12.351   1.816   7.973  0.9848  0.7018  1.0227
  646MOL0     C89057  12.229   1.883   7.979 -0.3391 -0.1943 -0.3007
  646MOL0     O89058  12.135   2.144   7.761  0.9431 -1.0194  0.2630
  646MOL0     C89059  11.925   2.327   7.763 -0.1825  0.1658 -0.3096
  646MOL0     C89060  11.798   2.393   7.743 -1.3226 -1.2094 -0.4422
  646MOL0     N89061  10.952   2.230   7.711  1.0423 -0.3213 -0.7933
  646MOL0     N89062  10.832   2.256   7.674 -0.1908  0.6934  0.0059
  646MOL0     C89063   9.659   2.233   7.348 -0.4902  0.0498 -0.0295
  646MOL0     C89064   9.532   2.176   7.352  0.7856  0.5553 -0.4611
  646MOL0     C89065   9.060   2.155   7.338  0.1820  0.5709  0.3720
  646MOL0     C89066   9.085   2.019   7.290 -0.3941  0.1576  0.4864
  646MOL0     C89067   8.986   1.917   7.287 -0.4598  0.2963 -0.8067
  646MOL0     C89068   8.858   1.947   7.346  0.4145  1.0651  0.0446
  646MOL0     O89069   8.755   1.859   7.363 -0.3910 -0.6757 -0.8451
  646MOL0     C89070   8.782   1.728   7.351 -0.4497  0.1932  0.3175
  646MOL0     C89071   8.647   1.664   7.342 -0.0402  0.3736  0.2932
  646MOL0     C89072   8.552   1.705   7.456  0.6778 -0.4542 -0.3390
  646MOL0     C89073   8.472   1.573   7.498 -0.4852 -0.3547  0.1801
  646MOL0     C89074   8.364   1.610   7.582 -0.3456  0.6008 -0.3091
  646MOL0     C89075   8.275   1.634   7.666 -0.7265 -0.4041  0.1265
  646MOL0     C89076   8.831   2.076   7.385 -0.2014  0.1362 -0.1936
  646MOL0     C89077   8.928   2.179   7.398 -0.7727  0.9393  0.3480
  646MOL0     C89078   8.890   2.310   7.456 -0.2557 -0.2439 -0.5519
  646MOL0     H89079   9.355   2.468   7.349 -0.3092 -0.9670 -0.2404
  646MOL0     H89080   9.602   2.552   7.383 -0.2744  0.1845 -1.7808
  646MOL0     H89081   9.848   2.518   7.498  2.6123 -0.3395 -0.4227
  646MOL0     H89082   9.803   2.593   7.338  1.7563  0.8823  0.5874
  646MOL0     H89083  10.029   2.506   7.247  1.7071  1.1927 -0.3253
  646MOL0     H89084  10.036   2.640   7.375  0.2133  0.1454  1.7884
  646MOL0     H89085  10.085   2.443   7.533 -1.1209  1.1070 -0.0487
  646MOL0     H89086  10.059   2.346   7.382 -3.2499  2.4436 -1.1037
  646MOL0     H89087  10.260   2.490   7.282 -1.1097 -1.5996 -0.3183
  646MOL0     H89088  10.270   2.577   7.430  1.6630 -2.5180  1.8051
  646MOL0     H89089  10.342   2.299   7.375 -0.4501  1.0965 -0.5073
  646MOL0     H89090  10.313   2.338   7.546 -0.4792 -3.2494 -0.8768
  646MOL0     H89091  10.510   2.460   7.367  0.7778 -3.2034 -0.5168
  646MOL0     H89092  10.491   2.528   7.530 -1.6148  0.9884 -1.0524
  646MOL0     H89093  10.585   2.235   7.475 -3.6508 -0.7218  1.0145
  646MOL0     H89094  10.572   2.312   7.634 -2.7862  2.6502 -0.1737
  646MOL0     H89095  10.737   2.415   7.397  0.1980  1.1865  0.0581
  646MOL0     H89096  10.723   2.508   7.545  0.3906  1.8543 -3.9169
  646MOL0     H89097  10.992   2.456   7.478  1.1829 -0.5299  0.0677
  646MOL0     H89098  11.226   2.374   7.577 -1.8599  0.6307 -0.0205
  646MOL0     H89099  11.226   2.251   7.707  1.7008  2.2097  0.5555
  646MOL0     H89100  11.133   2.536   7.752  1.9662  2.0374 -0.4387
  646MOL0     H89101  11.184   2.413   7.874  0.9137  1.1447  0.5725
  646MOL0     H89102  11.395   2.522   7.676  2.7558  1.4719  1.6266
  646MOL0     H89103  11.359   2.606   7.821 -0.2229  0.5928 -1.0931
  646MOL0     H89104  11.446   2.429   7.947  0.8817 -2.2947 -0.0353
  646MOL0     H89105  11.420   2.305   7.829  2.2528 -0.1196 -0.2927
  646MOL0     H89106  11.605   2.227   7.952  0.3654 -1.9489 -0.6522
  646MOL0     H89107  11.713   2.027   8.032 -0.1956  1.7234  0.0959
  646MOL0     H89108  11.863   2.090   8.105  1.0053 -0.1255  0.8656
  646MOL0     H89109  11.868   1.970   7.976 -0.8500 -0.7003 -0.2629
  646MOL0     H89110  12.332   2.198   8.021  0.4322  0.5936 -1.6422
  646MOL0     H89111  12.554   2.078   8.009  0.0241 -0.0093 -0.3488
  646MOL0     H89112  12.531   1.634   8.053  1.6847 -0.1095  1.6830
  646MOL0     H89113  12.613   1.639   7.905 -0.7373 -1.2634  0.0278
  646MOL0     H89114  12.813   1.732   8.025 -0.9723  1.4684  1.4638
  646MOL0     H89115  12.729   1.717   8.181 -0.4131  0.1351  0.2761
  646MOL0     H89116  12.800   1.508   7.964 -2.0775  1.1874 -0.2806
  646MOL0     H89117  12.712   1.459   8.111  0.6186 -0.6088  0.7956
  646MOL0     H89118  12.881   1.526   8.249  1.6178  3.3809 -0.5151
  646MOL0     H89119  12.985   1.601   8.146  0.1421 -0.2093  1.5719
  646MOL0     H89120  13.038   1.399   8.016 -0.1577  1.7948  0.0087
  646MOL0     H89121  13.093   1.391   8.178 -0.8885  0.9389  2.7046
  646MOL0     H89122  12.968   1.178   8.094 -2.0017  0.8931 -3.8632
  646MOL0     H89123  12.834   1.272   8.048 -0.3677 -0.1833  0.5610
  646MOL0     H89124  12.791   1.131   8.268 -0.0215 -0.9631 -1.1446
  646MOL0     H89125  12.754   1.309   8.267  0.8496  0.2460 -1.0331
  646MOL0     H89126  12.854   1.196   8.466 -3.1776  2.2958  0.3838
  646MOL0     H89127  12.930   1.349   8.411 -0.5406 -0.6533  1.3175
  646MOL0     H89128  12.349   1.711   7.946 -0.4380  1.7017 -3.7771
  646MOL0     H89129  12.140   1.820   7.978 -1.5714  1.3731  1.6630
  646MOL0     H89130  12.007   2.365   7.704  0.7980  0.6023  1.2697
  646MOL0     H89131  11.787   2.475   7.674 -3.0286 -2.5050 -1.7961
  646MOL0     H89132   9.747   2.169   7.347 -0.4040  0.0169  2.5348
  646MOL0     H89133   9.520   2.070   7.333 -2.8369  0.8828 -0.7117
  646MOL0     H89134   9.186   1.999   7.257 -0.3755 -0.2978  0.8046
  646MOL0     H89135   9.025   1.822   7.253 -0.4727 -0.6872  1.7158
  646MOL0     H89136   8.848   1.703   7.267 -1.5233 -0.9624 -0.2135
  646MOL0     H89137   8.842   1.702   7.439  1.7624  1.8337 -0.6021
  646MOL0     H89138   8.661   1.555   7.340 -1.0794  0.2243 -2.5876
  646MOL0     H89139   8.591   1.693   7.254 -0.9910  3.5467  1.8265
  646MOL0     H89140   8.606   1.758   7.535 -0.9385 -0.0347  0.5303
  646MOL0     H89141   8.486   1.784   7.418  0.9995 -0.0944 -0.1652
  646MOL0     H89142   8.540   1.505   7.551  1.3196  0.7110 -0.6665
  646MOL0     H89143   8.442   1.536   7.399  0.6194  0.9115 -0.6600
  646MOL0     H89144   8.220   1.666   7.752  1.4044  0.7345  1.1404
  646MOL0     H89145   8.735   2.090   7.435 -0.7498 -2.8347 -0.2767
  646MOL0     H89146   8.784   2.319   7.485 -0.3638  1.0626 -1.2528
  646MOL0     H89147   8.954   2.328   7.543 -2.4983 -0.5970  1.2639
  646MOL0     H89148   8.905   2.398   7.392 -1.7520  2.2205  2.2430
  647MOL0     O89149   5.204   2.263  11.397 -0.1755 -0.2574  0.2502
  647MOL0     C89150   5.120   2.352  11.423 -0.7749  0.2387  0.7030
  647MOL0     O89151   5.149   2.479  11.458  0.0531  0.0106  0.0493
  647MOL0     C89152   5.284   2.506  11.452 -0.0786  0.6269 -0.9641
  647MOL0     C89153   5.375   2.448  11.542 -0.3208 -0.7261 -0.2204
  647MOL0     C89154   5.512   2.456  11.528  0.0050  0.0124  0.1460
  647MOL0     C89155   5.562   2.546  11.434  0.3727 -1.4163  0.0953
  647MOL0     O89156   5.698   2.567  11.434  0.1256 -0.3023 -0.0272
  647MOL0     C89157   5.760   2.665  11.351 -0.1372  0.4637  0.4591
  647MOL0     C89158   5.916   2.648  11.354 -0.1776  0.2411  0.2693
  647MOL0     C89159   5.984   2.669  11.488  0.4336 -1.0428  0.4249
  647MOL0     C89160   6.137   2.664  11.485 -0.1041 -1.1869  1.1400
  647MOL0     C89161   6.200   2.643  11.624  0.1676 -1.0140  0.1212
  647MOL0     C89162   6.349   2.702  11.626 -0.8983  0.5704  0.4583
  647MOL0     C89163   6.457   2.607  11.554 -0.0263  0.2491  0.4206
  647MOL0     C89164   6.479   2.472  11.627  0.7615  0.3783  0.2173
  647MOL0     N89165   6.524   2.476  11.762  0.0452 -0.1466 -0.2236
  647MOL0     C89166   6.459   2.439  11.880 -0.1264  0.2912  0.8686
  647MOL0     C89167   6.551   2.458  11.976  0.5694  0.2945 -0.5294
  647MOL0     C89168   6.524   2.437  12.121  0.1887 -0.3866 -0.4267
  647MOL0     C89169   6.562   2.301  12.179  0.5848  0.3603  0.2754
  647MOL0     C89170   6.709   2.268  12.196 -0.0684 -0.4798 -0.1612
  647MOL0     C89171   6.807   2.366  12.251 -0.1897 -0.2070 -0.0728
  647MOL0     O89172   6.938   2.310  12.228  0.5568  0.0676 -0.0750
  647MOL0     C89173   7.057   2.370  12.262  0.4186 -0.0984 -0.6895
  647MOL0     C89174   7.061   2.486  12.338 -0.5277 -0.4342 -0.0438
  647MOL0     C89175   7.185   2.546  12.371 -0.4412 -0.3513 -0.1837
  647MOL0     C89176   7.168   2.673  12.450  0.3838 -0.8511  0.1105
  647MOL0     C89177   7.305   2.493  12.325  0.0540 -0.4407  0.7465
  647MOL0     C89178   7.438   2.537  12.373  0.6054  0.1197 -0.2885
  647MOL0     O89179   7.542   2.488  12.295 -0.4550  0.4209  0.1719
  647MOL0     C89180   7.663   2.473  12.361 -0.2754 -0.8892  0.1793
  647MOL0     C89181   7.680   2.386  12.467 -0.3741 -0.6323 -0.3919
  647MOL0     C89182   7.800   2.375  12.537  0.1860  0.4003 -0.7547
  647MOL0     C89183   7.904   2.467  12.500  1.7472 -0.4079 -0.1499
  647MOL0     O89184   8.025   2.473  12.552  0.0288  0.4536 -1.4078
  647MOL0     C89185   8.045   2.391  12.668 -0.5648 -0.0663  0.0054
  647MOL0     C89186   8.201   2.404  12.714  0.7556  0.9087  0.8079
  647MOL0     C89187   8.242   2.552  12.715  0.2063  0.4773 -0.4382
  647MOL0     C89188   8.368   2.579  12.792 -0.0336 -0.6802  0.7510
  647MOL0     C89189   8.419   2.735  12.808 -0.2427  0.0970 -0.1186
  647MOL0     C89190   8.307   2.836  12.853  0.7681  0.7665  0.2339
  647MOL0     C89191   8.376   2.971  12.886 -0.2586  0.5257 -0.1372
  647MOL0     C89192   8.285   3.090  12.900 -0.8199  0.1982 -0.3401
  647MOL0    Cl89193   8.180   3.076  13.041 -0.0756 -0.7114 -0.1303
  647MOL0     C89194   7.884   2.562  12.399 -0.1566 -1.0224  0.2847
  647MOL0     C89195   7.764   2.561  12.331  0.2507  0.1144  0.0245
  647MOL0     O89196   7.459   2.613  12.466  0.1501  0.4035 -0.4726
  647MOL0     C89197   7.307   2.383  12.232  0.3236 -0.5853 -0.3598
  647MOL0     C89198   7.172   2.328  12.201  0.1269 -0.7259 -0.5651
  647MOL0     N89199   6.663   2.512  11.916 -0.7578 -0.6155 -0.3508
  647MOL0     N89200   6.643   2.538  11.795  0.6692  0.0442  0.4032
  647MOL0     C89201   5.471   2.623  11.355 -0.2629 -0.5224  0.7431
  647MOL0     C89202   5.335   2.590  11.352  0.1493 -0.3538 -0.0271
  647MOL0     C89203   4.985   2.312  11.386  0.0759  0.6093  0.1802
  647MOL0     C89204   4.942   2.186  11.407 -0.5555  0.7013 -0.9807
  647MOL0     C89205   4.813   2.145  11.368 -0.0776 -0.4526 -0.0168
  647MOL0     C89206   4.719   2.230  11.313 -0.5858  0.0860  0.5014
  647MOL0     O89207   4.588   2.208  11.302 -0.1204 -0.0801  0.5344
  647MOL0     C89208   4.539   2.071  11.299  1.0817 -0.1709 -0.1381
  647MOL0     C89209   4.508   2.021  11.437 -0.7090  0.2421  0.4981
  647MOL0     C89210   4.410   2.110  11.512  0.5134 -1.0522 -0.4677
  647MOL0     C89211   4.372   2.054  11.650 -0.7630 -0.0996  0.2030
  647MOL0     C89212   4.275   2.141  11.720 -0.1070 -0.9295 -0.5005
  647MOL0     C89213   4.192   2.201  11.793 -0.4626 -0.4030 -0.6692
  647MOL0     C89214   4.763   2.362  11.291 -0.0310  0.0499  0.8984
  647MOL0     C89215   4.894   2.403  11.327  0.9254 -0.4587 -0.1829
  647MOL0     C89216   4.935   2.545  11.285 -0.3334 -0.2718 -1.1683
  647MOL0     H89217   5.341   2.373  11.614 -2.1654 -1.1224 -1.4228
  647MOL0     H89218   5.577   2.398  11.593  0.4593 -0.6748 -0.8920
  647MOL0     H89219   5.732   2.766  11.383 -1.3602  0.8168 -1.6050
  647MOL0     H89220   5.722   2.656  11.249 -1.0855 -0.2066  0.8564
  647MOL0     H89221   5.946   2.549  11.318  1.4782  1.0995 -0.8511
  647MOL0     H89222   5.963   2.723  11.289  1.3604 -0.2284  0.7851
  647MOL0     H89223   5.960   2.771  11.516  1.4812 -1.3358  2.6659
  647MOL0     H89224   5.953   2.602  11.569 -1.9079 -3.5214 -2.2838
  647MOL0     H89225   6.171   2.593  11.409  1.8756  0.7570  0.0883
  647MOL0     H89226   6.171   2.757  11.437 -1.9144 -0.9094  0.2938
  647MOL0     H89227   6.199   2.539  11.660 -1.4215 -0.1413  2.9337
  647MOL0     H89228   6.150   2.704  11.700  0.0177 -1.7323  0.6166
  647MOL0     H89229   6.359   2.794  11.568  3.0148  0.9013  1.3863
  647MOL0     H89230   6.387   2.720  11.728 -2.7384  3.4738  0.7380
  647MOL0     H89231   6.550   2.665  11.555 -0.2296  0.5719  0.7230
  647MOL0     H89232   6.422   2.602  11.450 -0.2705  1.4505  0.4245
  647MOL0     H89233   6.383   2.419  11.618  1.2421 -0.6946  1.1431
  647MOL0     H89234   6.553   2.421  11.563  1.3572  0.6583  0.6783
  647MOL0     H89235   6.367   2.384  11.890  0.7253 -0.7693  4.2783
  647MOL0     H89236   6.419   2.460  12.141  0.3969  1.3019 -1.1486
  647MOL0     H89237   6.571   2.509  12.189  0.8369 -1.8485  0.7249
  647MOL0     H89238   6.516   2.291  12.278 -0.6421 -2.7662 -0.5210
  647MOL0     H89239   6.522   2.214  12.126  3.7436 -1.5294  0.7454
  647MOL0     H89240   6.718   2.176  12.255 -0.6213 -0.8929 -0.7065
  647MOL0     H89241   6.750   2.240  12.098  1.0590  1.0879 -0.1752
  647MOL0     H89242   6.801   2.468  12.212  3.4034 -0.5018 -1.7944
  647MOL0     H89243   6.787   2.371  12.359  1.0887 -0.4868  0.1828
  647MOL0     H89244   6.975   2.533  12.384 -1.1035  1.2114 -2.6116
  647MOL0     H89245   7.254   2.740  12.447  0.6924 -1.2855 -0.9820
  647MOL0     H89246   7.132   2.651  12.551  1.8375  1.4541  1.1986
  647MOL0     H89247   7.091   2.729  12.395  1.4475 -0.9637 -1.5443
  647MOL0     H89248   7.600   2.317  12.492 -0.1047 -1.6780 -2.2542
  647MOL0     H89249   7.791   2.295  12.609 -1.0351  0.1865 -1.1176
  647MOL0     H89250   7.988   2.430  12.753  0.0828  0.8037  0.0461
  647MOL0     H89251   8.029   2.284  12.653  0.9023 -0.6374  2.0721
  647MOL0     H89252   8.229   2.356  12.808  3.3051  1.3211  0.3281
  647MOL0     H89253   8.263   2.349  12.643  0.2744  0.7826  0.4780
  647MOL0     H89254   8.160   2.605  12.765 -0.2513 -2.6784  2.4811
  647MOL0     H89255   8.251   2.600  12.617  0.1103  2.8113  0.6082
  647MOL0     H89256   8.444   2.525  12.735  0.3335  1.5608 -1.0024
  647MOL0     H89257   8.363   2.542  12.895  0.1195  2.6965  2.1023
  647MOL0     H89258   8.498   2.742  12.885 -1.2817 -0.2196  1.0120
  647MOL0     H89259   8.462   2.774  12.716 -1.8779  3.1561  0.2820
  647MOL0     H89260   8.249   2.798  12.937 -0.6461 -1.1008 -1.4795
  647MOL0     H89261   8.235   2.849  12.772 -0.4854 -0.8127  1.0479
  647MOL0     H89262   8.453   2.997  12.813 -1.0560  1.8118 -0.5502
  647MOL0     H89263   8.424   2.957  12.984 -2.1162  1.3862  0.9439
  647MOL0     H89264   8.221   3.106  12.813 -0.9601 -0.9436 -0.4686
  647MOL0     H89265   8.350   3.176  12.919  0.2820 -0.3488 -1.4941
  647MOL0     H89266   7.959   2.638  12.378 -0.4076 -0.9513 -0.3729
  647MOL0     H89267   7.750   2.630  12.249  2.4175 -1.2721 -1.6258
  647MOL0     H89268   7.402   2.349  12.193  0.6194 -0.2954  0.1058
  647MOL0     H89269   7.153   2.241  12.139  1.7083 -1.4292 -0.1158
  647MOL0     H89270   5.511   2.691  11.282  0.4157 -0.8979  0.7622
  647MOL0     H89271   5.277   2.637  11.274  0.7942  0.8130  0.1755
  647MOL0     H89272   5.008   2.114  11.454  1.1591  0.9325 -2.8875
  647MOL0     H89273   4.783   2.045  11.398 -2.7898  0.6581  1.3458
  647MOL0     H89274   4.446   2.063  11.242  1.0975 -3.6400  0.1123
  647MOL0     H89275   4.613   2.009  11.246  0.9821 -1.1897  0.8688
  647MOL0     H89276   4.597   1.997  11.497  0.5843 -1.6615 -1.9838
  647MOL0     H89277   4.463   1.923  11.419  1.0008 -0.6476  0.8336
  647MOL0     H89278   4.452   2.211  11.520 -3.0696  0.6086 -0.4816
  647MOL0     H89279   4.324   2.119  11.445  1.0816 -0.0794 -1.0957
  647MOL0     H89280   4.465   2.046  11.707  0.6411  0.5659 -1.8782
  647MOL0     H89281   4.337   1.953  11.628  0.4748  0.0899 -3.0315
  647MOL0     H89282   4.127   2.254  11.858  0.2106  1.6069 -1.5426
  647MOL0     H89283   4.679   2.419  11.254 -0.0973 -0.0250  0.9321
  647MOL0     H89284   4.853   2.582  11.221 -0.3463 -0.8919 -1.5157
  647MOL0     H89285   4.944   2.605  11.375 -4.3012 -1.5221  0.2975
  647MOL0     H89286   5.019   2.544  11.215 -0.5545  0.8472 -1.4681
  648MOL0     O89287   8.707   7.878  10.710  0.4607 -0.3926  0.2405
  648MOL0     C89288   8.771   7.955  10.765 -0.8150  0.1056  0.2341
  648MOL0     O89289   8.771   8.091  10.737 -0.7769 -0.0134  0.4789
  648MOL0     C89290   8.678   8.147  10.657  0.6002 -0.6868  1.1656
  648MOL0     C89291   8.587   8.245  10.700 -1.0318  0.4764  0.3141
  648MOL0     C89292   8.493   8.296  10.617 -0.2539 -0.6763  0.0713
  648MOL0     C89293   8.474   8.256  10.478  0.4865 -0.1505 -0.7537
  648MOL0     O89294   8.393   8.309  10.386  0.3831 -0.1836 -0.2102
  648MOL0     C89295   8.284   8.381  10.428 -0.5836 -0.4797 -0.8079
  648MOL0     C89296   8.184   8.395  10.314 -0.8750  0.2380  0.1697
  648MOL0     C89297   8.102   8.273  10.302 -0.2798  0.2298 -0.1995
  648MOL0     C89298   7.960   8.304  10.273 -0.1324  0.2741  0.5529
  648MOL0     C89299   7.874   8.175  10.257 -0.8133  0.0401  0.5914
  648MOL0     C89300   7.726   8.208  10.263  0.0099  0.2978 -0.2694
  648MOL0     C89301   7.687   8.309  10.157 -0.5127  0.4623 -0.5581
  648MOL0     C89302   7.535   8.336  10.138 -0.4660 -0.2318 -0.5548
  648MOL0     N89303   7.479   8.430  10.236  0.1730  0.6062 -0.5867
  648MOL0     C89304   7.480   8.570  10.220  0.1850 -0.4793 -0.1437
  648MOL0     C89305   7.454   8.605  10.351  0.8312  0.0663 -0.7831
  648MOL0     C89306   7.457   8.744  10.403 -1.1008 -0.1433  0.5059
  648MOL0     C89307   7.570   8.755  10.507  0.1939 -0.1814 -0.1258
  648MOL0     C89308   7.712   8.778  10.449 -0.2765 -0.6515 -0.2292
  648MOL0     C89309   7.824   8.762  10.551  0.0828 -0.0621  0.3255
  648MOL0     O89310   7.829   8.622  10.585  0.1367 -0.4008 -0.1864
  648MOL0     C89311   7.937   8.571  10.653  0.7595  0.7130 -1.0290
  648MOL0     C89312   8.053   8.637  10.687  0.2103 -1.1622 -0.5575
  648MOL0     C89313   8.154   8.573  10.763  0.4311  0.3747  0.0387
  648MOL0     C89314   8.254   8.664  10.817 -0.5443 -0.5679  0.1154
  648MOL0     C89315   8.149   8.436  10.804 -0.0892 -0.0375 -0.0257
  648MOL0     C89316   8.249   8.357  10.881  0.7660  0.0088  0.1042
  648MOL0     O89317   8.228   8.225  10.917  0.0737  0.0853 -0.2296
  648MOL0     C89318   8.328   8.164  10.985 -0.6509 -1.3607 -0.4985
  648MOL0     C89319   8.426   8.068  10.936 -1.2526 -0.0499  0.7012
  648MOL0     C89320   8.523   8.025  11.023 -0.8119 -0.1114  0.9025
  648MOL0     C89321   8.530   8.057  11.154 -0.8164  0.0953 -0.4638
  648MOL0     O89322   8.627   7.994  11.233  0.6646 -0.3962 -0.1824
  648MOL0     C89323   8.613   8.004  11.376  0.6144 -0.1959  0.2236
  648MOL0     C89324   8.690   7.890  11.441  0.0128 -0.2690 -0.7901
  648MOL0     C89325   8.614   7.749  11.412 -0.0585 -0.0240 -0.4475
  648MOL0     C89326   8.492   7.735  11.493 -0.5796  0.4856 -1.2806
  648MOL0     C89327   8.395   7.640  11.434  0.0549 -0.3312 -0.7651
  648MOL0     C89328   8.285   7.717  11.357 -0.2690 -0.5586 -0.7055
  648MOL0     C89329   8.168   7.652  11.291  0.9082  0.6418  0.3072
  648MOL0     C89330   8.081   7.578  11.391  0.5046  0.4545 -0.1372
  648MOL0    Cl89331   8.032   7.686  11.528  0.3764 -0.2847  0.1488
  648MOL0     C89332   8.435   8.141  11.208  0.3248  0.3850  0.7416
  648MOL0     C89333   8.334   8.189  11.121  0.1547  0.2893  0.2324
  648MOL0     O89334   8.349   8.417  10.904  0.3217  0.1226  0.0549
  648MOL0     C89335   8.033   8.364  10.756 -0.4762 -0.1362  0.9285
  648MOL0     C89336   7.936   8.431  10.683  0.8607 -0.2648  0.4471
  648MOL0     N89337   7.455   8.499  10.432  0.2577  0.3820  0.6856
  648MOL0     N89338   7.470   8.393  10.366 -0.1486  0.3939  0.6444
  648MOL0     C89339   8.556   8.150  10.433 -0.8595 -0.8020  0.4839
  648MOL0     C89340   8.660   8.103  10.523  0.6693  0.2246  0.0840
  648MOL0     C89341   8.874   7.895  10.859 -0.5988 -0.1755 -0.0626
  648MOL0     C89342   8.873   7.753  10.882 -0.1541  0.6345 -0.0185
  648MOL0     C89343   8.979   7.697  10.960  0.2857  0.2764 -0.0169
  648MOL0     C89344   9.069   7.772  11.032 -0.6665 -0.1819 -0.0350
  648MOL0     O89345   9.174   7.707  11.094 -0.0362 -0.0570  0.4759
  648MOL0     C89346   9.259   7.766  11.189  0.1705  0.6365  0.0200
  648MOL0     C89347   9.186   7.821  11.312  0.0342  0.3714 -0.0304
  648MOL0     C89348   9.151   7.706  11.405  0.3526  0.5657 -0.8181
  648MOL0     C89349   9.023   7.635  11.382 -0.0242  0.8527 -0.1640
  648MOL0     C89350   8.999   7.525  11.473 -0.4044  0.0612  0.0487
  648MOL0     C89351   8.978   7.441  11.559  0.2202  0.4678 -0.2333
  648MOL0     C89352   9.072   7.908  11.002 -0.4663  0.8334  0.3747
  648MOL0     C89353   8.983   7.973  10.914  0.3135 -0.5987 -0.2155
  648MOL0     C89354   9.006   8.118  10.886  0.0390  0.1337  0.0732
  648MOL0     H89355   8.592   8.269  10.806  0.6978  4.0990 -0.4185
  648MOL0     H89356   8.434   8.383  10.643  0.9248  0.0950  0.2655
  648MOL0     H89357   8.322   8.482  10.446  1.2999 -1.3098  0.0976
  648MOL0     H89358   8.248   8.337  10.521 -1.3896 -2.6419 -2.0687
  648MOL0     H89359   8.118   8.482  10.324 -0.8027  0.4828 -1.2696
  648MOL0     H89360   8.236   8.417  10.221 -0.5166 -0.7019  0.1383
  648MOL0     H89361   8.143   8.215  10.219  1.2265 -0.6381  1.0841
  648MOL0     H89362   8.099   8.216  10.395  0.6246 -2.7451 -1.8476
  648MOL0     H89363   7.928   8.364  10.358 -0.7176  1.4734 -0.4849
  648MOL0     H89364   7.952   8.365  10.183  0.0826 -1.4683 -0.7180
  648MOL0     H89365   7.901   8.117  10.347  2.6220  2.3504  1.2686
  648MOL0     H89366   7.892   8.133  10.158  0.1680  2.9256 -0.5531
  648MOL0     H89367   7.676   8.112  10.250  0.3509 -0.0319  0.7107
  648MOL0     H89368   7.702   8.244  10.364  0.5353  0.7348 -0.2988
  648MOL0     H89369   7.725   8.268  10.063 -0.5440 -0.9295  0.0003
  648MOL0     H89370   7.747   8.399  10.175 -1.1901  0.3981  2.5188
  648MOL0     H89371   7.528   8.378  10.037 -0.6547  1.1483  0.0095
  648MOL0     H89372   7.488   8.237  10.136 -0.6281 -0.1497 -0.7759
  648MOL0     H89373   7.501   8.625  10.129  0.5074 -0.7309 -0.2238
  648MOL0     H89374   7.364   8.759  10.458 -1.0529  0.1871  0.4999
  648MOL0     H89375   7.466   8.817  10.322  0.0195  0.5459  1.2092
  648MOL0     H89376   7.551   8.838  10.575 -0.6156 -0.0891 -0.4544
  648MOL0     H89377   7.563   8.664  10.567 -0.3552 -0.1906 -0.1962
  648MOL0     H89378   7.732   8.708  10.367  0.7858 -3.4559  2.2222
  648MOL0     H89379   7.718   8.878  10.406 -0.9742 -0.3902  0.2776
  648MOL0     H89380   7.918   8.792  10.505 -1.5849  2.7873 -1.5801
  648MOL0     H89381   7.812   8.826  10.639 -1.5065  1.6199 -1.0278
  648MOL0     H89382   8.069   8.741  10.657  4.1561 -1.2269  0.7469
  648MOL0     H89383   8.238   8.762  10.772 -1.7592 -0.1609  1.3478
  648MOL0     H89384   8.357   8.641  10.791 -0.1779  1.3707 -0.2886
  648MOL0     H89385   8.251   8.679  10.925  0.8481  0.2694  0.0595
  648MOL0     H89386   8.430   8.052  10.828 -2.6481  1.2276  0.4149
  648MOL0     H89387   8.607   7.968  10.983 -1.3181  0.3581 -0.9189
  648MOL0     H89388   8.652   8.095  11.423  0.1891  1.2191 -2.0056
  648MOL0     H89389   8.507   8.000  11.402 -0.0644  1.7071 -1.8499
  648MOL0     H89390   8.795   7.879  11.413 -0.1507 -2.3623 -0.7330
  648MOL0     H89391   8.691   7.919  11.547  1.6688 -2.7348 -0.0481
  648MOL0     H89392   8.680   7.665  11.436  1.1844  1.1729  0.5454
  648MOL0     H89393   8.586   7.750  11.306  0.9847  1.3974 -0.7396
  648MOL0     H89394   8.447   7.832  11.518 -2.3700 -1.1060  2.4219
  648MOL0     H89395   8.527   7.703  11.591 -3.0893 -0.5123 -0.6430
  648MOL0     H89396   8.443   7.566  11.369  0.5413  1.8603 -3.0539
  648MOL0     H89397   8.348   7.584  11.515  0.6834 -3.3432 -2.3584
  648MOL0     H89398   8.337   7.783  11.287  0.2783 -0.7432 -0.4768
  648MOL0     H89399   8.240   7.784  11.431  2.4489  0.9670 -0.2987
  648MOL0     H89400   8.199   7.579  11.215 -1.2487 -0.8088  0.7230
  648MOL0     H89401   8.105   7.721  11.234  0.3404 -0.0809  0.0486
  648MOL0     H89402   8.130   7.488  11.428 -1.3211 -0.1480  0.9520
  648MOL0     H89403   7.986   7.548  11.345 -0.6984  1.3433  1.6534
  648MOL0     H89404   8.434   8.160  11.315  0.7404 -0.5103  0.9149
  648MOL0     H89405   8.262   8.257  11.166  1.0470  0.9010  0.7780
  648MOL0     H89406   8.022   8.258  10.777 -0.0483 -0.9746 -2.4916
  648MOL0     H89407   7.852   8.369  10.653  1.3812 -0.2523 -1.0737
  648MOL0     H89408   8.549   8.112  10.332 -2.9337 -0.8789  0.6156
  648MOL0     H89409   8.711   8.011  10.498 -3.3709 -1.4682 -2.9175
  648MOL0     H89410   8.789   7.696  10.843  0.7981 -1.4231  0.8048
  648MOL0     H89411   8.988   7.594  10.993 -0.4668  0.6792  1.5656
  648MOL0     H89412   9.336   7.692  11.214  0.9580  1.2102 -0.6643
  648MOL0     H89413   9.307   7.849  11.137 -0.8604  1.0951 -0.2277
  648MOL0     H89414   9.095   7.875  11.284 -1.8412 -2.6512 -0.2605
  648MOL0     H89415   9.267   7.879  11.357  3.3331 -4.2273  0.6447
  648MOL0     H89416   9.229   7.630  11.413 -1.8754 -1.6985  0.7231
  648MOL0     H89417   9.142   7.746  11.507 -0.3631 -1.8302  0.1317
  648MOL0     H89418   9.019   7.606  11.277 -0.2831 -0.8075  0.2727
  648MOL0     H89419   8.933   7.693  11.406 -3.0221 -3.5520  0.3360
  648MOL0     H89420   8.953   7.366  11.632 -1.8794  1.8123  0.4992
  648MOL0     H89421   9.151   7.967  11.046 -0.6074  0.8573  0.6007
  648MOL0     H89422   8.924   8.181  10.921  0.2583  0.7994 -0.5750
  648MOL0     H89423   9.098   8.152  10.935  0.7150  1.3092 -1.9019
  648MOL0     H89424   9.022   8.135  10.779  2.1438  1.1715  0.4834
  649MOL0     O89425   6.098   8.242   8.162  0.0065 -0.3213  0.1953
  649MOL0     C89426   6.069   8.205   8.049  0.4491 -0.0604  0.3227
  649MOL0     O89427   6.155   8.215   7.947 -0.3746 -0.8899 -0.0520
  649MOL0     C89428   6.280   8.263   7.983  0.5711 -0.7134 -0.2530
  649MOL0     C89429   6.377   8.175   8.047  0.9040  0.8063  0.2102
  649MOL0     C89430   6.490   8.227   8.108 -0.2402  0.9151 -0.2142
  649MOL0     C89431   6.511   8.369   8.100 -0.9798  0.3337  1.1072
  649MOL0     O89432   6.624   8.448   8.116  0.0442 -0.3136 -0.2138
  649MOL0     C89433   6.753   8.390   8.111  0.1469  0.3962  0.6091
  649MOL0     C89434   6.846   8.496   8.173 -0.0475 -0.2294 -0.7960
  649MOL0     C89435   6.991   8.457   8.181 -1.2531  0.2198 -0.3840
  649MOL0     C89436   7.028   8.353   8.288  0.8880 -0.2053 -0.1792
  649MOL0     C89437   7.170   8.311   8.260  0.1341 -0.1149 -0.6696
  649MOL0     C89438   7.249   8.265   8.383 -0.5777  0.1012  0.1810
  649MOL0     C89439   7.192   8.141   8.458 -0.2665 -0.1882  0.2080
  649MOL0     C89440   7.304   8.064   8.513 -0.2898  0.0761  0.1738
  649MOL0     N89441   7.375   8.135   8.620  0.5145 -0.3195  0.0214
  649MOL0     C89442   7.513   8.142   8.635  0.0026 -0.0579  0.4999
  649MOL0     C89443   7.531   8.224   8.745  0.4408  0.5812  0.2430
  649MOL0     C89444   7.653   8.283   8.804 -0.2418  0.1372 -0.1495
  649MOL0     C89445   7.762   8.190   8.865  0.2505  0.4922 -0.8598
  649MOL0     C89446   7.900   8.258   8.850 -1.1293  0.5398  0.1076
  649MOL0     C89447   8.022   8.165   8.897  0.2683  0.3999  0.6011
  649MOL0     O89448   8.029   8.112   9.030  0.2637 -0.7285 -0.0636
  649MOL0     C89449   8.135   8.150   9.105 -0.2589  0.1546 -0.3555
  649MOL0     C89450   8.204   8.272   9.109 -0.8285 -0.3157  0.7238
  649MOL0     C89451   8.295   8.316   9.202  0.2358  0.0955 -0.0999
  649MOL0     C89452   8.349   8.449   9.164 -0.7734 -0.5421  0.6382
  649MOL0     C89453   8.320   8.228   9.316  0.3675 -0.0998 -0.0557
  649MOL0     C89454   8.402   8.264   9.433  0.5424 -1.1063  0.7746
  649MOL0     O89455   8.466   8.388   9.430  0.1205  0.2413  0.2223
  649MOL0     C89456   8.485   8.451   9.544  0.7629  0.5856 -0.3872
  649MOL0     C89457   8.605   8.424   9.615  0.7653 -0.5532 -1.0887
  649MOL0     C89458   8.620   8.481   9.739  0.3914 -0.3463  0.0956
  649MOL0     C89459   8.528   8.575   9.792  0.8207  0.5736  0.3605
  649MOL0     O89460   8.532   8.636   9.909 -0.1825  0.3421 -0.1723
  649MOL0     C89461   8.615   8.575  10.003  0.0471  0.4026  0.5029
  649MOL0     C89462   8.561   8.618  10.140 -0.9339  0.2246 -0.3288
  649MOL0     C89463   8.652   8.548  10.246  0.3063  1.4958 -0.7824
  649MOL0     C89464   8.795   8.586  10.253  0.6556 -1.1145  0.0800
  649MOL0     C89465   8.870   8.533  10.373 -0.5471 -0.1163  0.6750
  649MOL0     C89466   8.918   8.386  10.364 -0.2055  0.4018 -0.1234
  649MOL0     C89467   8.971   8.349  10.509  0.5543  0.0366  0.7254
  649MOL0     C89468   9.110   8.423  10.544  0.2875 -0.5678  0.1501
  649MOL0    Cl89469   9.173   8.371  10.710 -0.0055  0.3282  0.2521
  649MOL0     C89470   8.430   8.620   9.709  1.1875 -0.2540 -0.3708
  649MOL0     C89471   8.405   8.560   9.585 -0.1494  0.4231  0.4381
  649MOL0     O89472   8.410   8.183   9.523  0.4838 -0.4532  0.3966
  649MOL0     C89473   8.263   8.096   9.312 -0.2849 -0.3079  0.4095
  649MOL0     C89474   8.175   8.067   9.209 -0.1549  0.7244 -0.0371
  649MOL0     N89475   7.407   8.245   8.803  0.3437 -0.0086 -0.4809
  649MOL0     N89476   7.319   8.196   8.721 -0.1658  0.0366  0.1824
  649MOL0     C89477   6.405   8.452   8.055 -0.3893 -0.1147  0.9975
  649MOL0     C89478   6.294   8.407   7.989 -0.1779  0.3447  0.7184
  649MOL0     C89479   5.941   8.133   8.027  0.0333  0.0818 -0.4229
  649MOL0     C89480   5.843   8.138   8.129 -0.9616 -0.5058  0.5282
  649MOL0     C89481   5.713   8.101   8.101 -0.4983  0.2504 -0.6377
  649MOL0     C89482   5.671   8.033   7.987  0.6459  0.1321  0.1332
  649MOL0     O89483   5.546   7.979   7.958 -0.2423 -0.3773 -0.2481
  649MOL0     C89484   5.435   8.016   8.042 -0.7491  0.0323  0.1658
  649MOL0     C89485   5.317   7.942   8.014  0.2657  0.3881  0.0040
  649MOL0     C89486   5.195   8.000   8.068 -0.0045  0.5139  0.8346
  649MOL0     C89487   5.128   7.902   8.172 -0.4232  0.1422  0.2848
  649MOL0     C89488   5.027   7.980   8.242  0.9756  0.8042 -0.2992
  649MOL0     C89489   4.944   8.050   8.302  0.9902 -0.1392  0.1551
  649MOL0     C89490   5.766   8.026   7.886 -0.2722 -0.5483 -0.9311
  649MOL0     C89491   5.903   8.062   7.905  0.2363 -0.5373 -0.2917
  649MOL0     C89492   6.005   8.028   7.789  0.2522 -0.3790 -0.0301
  649MOL0     H89493   6.363   8.068   8.048  0.9425  0.8062  1.3248
  649MOL0     H89494   6.566   8.170   8.159  0.0528 -1.1646 -2.7759
  649MOL0     H89495   6.776   8.374   8.006 -1.5626 -1.0390  0.3990
  649MOL0     H89496   6.762   8.294   8.164  6.0129  1.2280  1.7894
  649MOL0     H89497   6.833   8.584   8.109 -0.5058  0.0062 -0.3876
  649MOL0     H89498   6.805   8.517   8.272  3.2554  2.7840  0.1472
  649MOL0     H89499   7.028   8.416   8.087  0.8540 -1.1480  0.9522
  649MOL0     H89500   7.049   8.548   8.197 -0.1434 -0.4687 -0.3891
  649MOL0     H89501   7.014   8.392   8.389  0.4187 -1.3139  0.1955
  649MOL0     H89502   6.967   8.262   8.281 -0.1764  0.3152  1.6809
  649MOL0     H89503   7.224   8.389   8.206  0.1777 -1.9342 -3.4736
  649MOL0     H89504   7.172   8.233   8.184  1.4629 -0.3665 -0.4075
  649MOL0     H89505   7.346   8.232   8.344 -0.0842  1.2377  0.4021
  649MOL0     H89506   7.263   8.345   8.456 -0.5229  2.3681 -2.1958
  649MOL0     H89507   7.147   8.074   8.383  0.4325  1.2816 -1.6102
  649MOL0     H89508   7.127   8.170   8.541  0.0085 -2.0143  1.1069
  649MOL0     H89509   7.269   7.966   8.544  0.2707  0.5320  2.4103
  649MOL0     H89510   7.384   8.043   8.442  0.5751  1.5090  0.6670
  649MOL0     H89511   7.594   8.101   8.576  2.7782  0.2580  3.8027
  649MOL0     H89512   7.622   8.362   8.872 -1.3059 -0.0665 -0.3855
  649MOL0     H89513   7.705   8.331   8.720 -1.0718 -1.8055 -1.8478
  649MOL0     H89514   7.746   8.186   8.973 -1.9966  0.6661 -1.1333
  649MOL0     H89515   7.764   8.086   8.831  3.1595 -0.3956  1.6406
  649MOL0     H89516   7.917   8.278   8.744  1.7425 -1.7180  0.0070
  649MOL0     H89517   7.897   8.357   8.896  0.3393  0.3844  0.5927
  649MOL0     H89518   8.016   8.073   8.838  2.4621 -1.4945  3.0969
  649MOL0     H89519   8.118   8.211   8.871  1.2627 -2.0523 -0.4146
  649MOL0     H89520   8.186   8.342   9.028  2.4896  0.4647  0.5050
  649MOL0     H89521   8.458   8.438   9.169 -0.1438  3.4768 -0.7178
  649MOL0     H89522   8.304   8.525   9.228  0.1982 -1.0213  1.9373
  649MOL0     H89523   8.335   8.474   9.058 -0.0021 -1.7631  0.2181
  649MOL0     H89524   8.675   8.342   9.602  0.2925 -1.7619  2.6754
  649MOL0     H89525   8.710   8.457   9.794 -0.3834 -2.4810  0.5450
  649MOL0     H89526   8.617   8.466   9.992  0.9597  0.4820 -0.2489
  649MOL0     H89527   8.717   8.608   9.985  0.8384 -0.3010  3.3202
  649MOL0     H89528   8.568   8.728  10.140 -0.3639  0.2087 -1.2764
  649MOL0     H89529   8.457   8.586  10.150 -0.1184 -2.1558  1.4135
  649MOL0     H89530   8.655   8.439  10.235  1.1742  1.2376  1.4625
  649MOL0     H89531   8.598   8.553  10.341 -1.0460  1.9022 -1.5558
  649MOL0     H89532   8.800   8.695  10.257  2.9279 -1.2223  2.9894
  649MOL0     H89533   8.847   8.549  10.164 -0.8911  0.2430 -1.4727
  649MOL0     H89534   8.958   8.598  10.378 -1.1296  0.7224  0.2082
  649MOL0     H89535   8.812   8.535  10.466  0.7117  0.0535  1.4834
  649MOL0     H89536   8.996   8.373  10.288  2.4295  2.0586  2.0712
  649MOL0     H89537   8.836   8.317  10.343 -0.5619  0.9090 -0.4115
  649MOL0     H89538   8.990   8.241  10.518 -2.1953 -0.5015  0.7820
  649MOL0     H89539   8.884   8.358  10.574 -2.1712  0.2988 -2.6763
  649MOL0     H89540   9.098   8.532  10.545  2.5964 -0.2809  0.4776
  649MOL0     H89541   9.183   8.391  10.469 -2.2238  0.1416 -2.8078
  649MOL0     H89542   8.364   8.704   9.729  2.5186  0.8517 -0.4687
  649MOL0     H89543   8.324   8.589   9.518 -0.6212  1.4874  1.4417
  649MOL0     H89544   8.285   8.013   9.378 -2.5120 -0.2819  1.2871
  649MOL0     H89545   8.121   7.973   9.219 -0.1267  0.7918  0.8319
  649MOL0     H89546   6.434   8.556   8.065  1.2378 -0.5889  1.6164
  649MOL0     H89547   6.216   8.471   7.948 -2.0173 -1.2089  1.6590
  649MOL0     H89548   5.877   8.182   8.222  1.4347  1.0425 -0.9584
  649MOL0     H89549   5.639   8.109   8.181  1.0728 -1.8080  1.1585
  649MOL0     H89550   5.468   8.000   8.145  4.0462 -1.6194 -1.3813
  649MOL0     H89551   5.427   8.123   8.017  0.9483 -0.1321 -1.3154
  649MOL0     H89552   5.347   7.852   8.068  0.2712  0.7988  0.6915
  649MOL0     H89553   5.307   7.914   7.909  2.9195  0.1428 -0.2583
  649MOL0     H89554   5.218   8.093   8.121 -0.3917  1.7277 -1.0563
  649MOL0     H89555   5.116   8.019   7.996 -0.7800 -1.7083  1.0075
  649MOL0     H89556   5.201   7.866   8.245 -1.3660 -1.3850  0.4974
  649MOL0     H89557   5.086   7.820   8.113 -0.8452 -0.0486  0.8477
  649MOL0     H89558   4.879   8.122   8.348 -0.5356 -0.3854 -1.4731
  649MOL0     H89559   5.739   7.987   7.788 -1.9454 -0.8180 -0.4025
  649MOL0     H89560   6.091   7.976   7.831 -1.4119 -2.6706  0.7678
  649MOL0     H89561   5.956   7.962   7.717 -1.0782  0.1486  0.3388
  649MOL0     H89562   6.048   8.117   7.741 -1.1272  1.1350  1.3613
  650MOL0     O89563   8.123   5.072   5.517 -0.7339  0.3396 -0.5775
  650MOL0     C89564   8.067   4.996   5.438  0.2666  0.1217  0.0740
  650MOL0     O89565   8.118   4.880   5.382 -0.1616  0.6541  0.2472
  650MOL0     C89566   8.232   4.817   5.434 -0.7986 -1.7668 -0.0728
  650MOL0     C89567   8.349   4.806   5.351  0.1658  0.0217 -0.2021
  650MOL0     C89568   8.469   4.747   5.402 -0.0830  0.5750  0.3147
  650MOL0     C89569   8.464   4.695   5.535  0.6226  0.7078  0.2584
  650MOL0     O89570   8.574   4.627   5.589 -0.2099  0.0925  0.0058
  650MOL0     C89571   8.697   4.697   5.589 -0.9375 -0.2844  0.1213
  650MOL0     C89572   8.766   4.697   5.726 -0.1412  0.4015  0.2178
  650MOL0     C89573   8.915   4.725   5.708 -0.1157  0.4499 -0.4160
  650MOL0     C89574   8.973   4.780   5.843 -0.0192 -0.5981 -0.2365
  650MOL0     C89575   9.114   4.837   5.826  0.6203  0.2698 -1.1414
  650MOL0     C89576   9.225   4.738   5.856  0.8407  0.1948 -0.3436
  650MOL0     C89577   9.364   4.761   5.799 -0.7369  0.7768  0.2934
  650MOL0     C89578   9.471   4.654   5.834  0.4640  0.4323 -0.8964
  650MOL0     N89579   9.482   4.609   5.972  0.9243 -1.1647 -0.3760
  650MOL0     C89580   9.409   4.506   6.019 -0.5187 -0.5822 -1.0522
  650MOL0     C89581   9.443   4.488   6.151  0.2041  0.3899 -0.1772
  650MOL0     C89582   9.392   4.388   6.243  0.8542  1.1565 -0.1325
  650MOL0     C89583   9.504   4.311   6.310 -0.1593  0.7517 -0.7024
  650MOL0     C89584   9.452   4.217   6.417 -0.0478  0.1482  0.4101
  650MOL0     C89585   9.556   4.112   6.457  0.2237 -0.0279 -0.1497
  650MOL0     O89586   9.636   4.171   6.559 -0.2507  0.0817  0.1929
  650MOL0     C89587   9.771   4.134   6.560  0.6906 -0.1400 -0.0971
  650MOL0     C89588   9.856   4.235   6.606 -1.0313  0.0639 -1.1150
  650MOL0     C89589   9.993   4.225   6.615 -0.0757  0.0570  0.1999
  650MOL0     C89590  10.065   4.342   6.670 -0.2562  0.2473 -0.3437
  650MOL0     C89591  10.060   4.102   6.587 -0.5094 -0.2618  0.1795
  650MOL0     C89592  10.208   4.073   6.580  0.6077 -0.1783  0.0235
  650MOL0     O89593  10.232   3.945   6.596  0.3396 -0.1837 -0.5219
  650MOL0     C89594  10.353   3.892   6.586  0.5328 -0.2116 -0.5887
  650MOL0     C89595  10.456   3.919   6.674 -0.7591 -0.3950  0.5733
  650MOL0     C89596  10.581   3.849   6.661  0.1105  0.8616 -0.2376
  650MOL0     C89597  10.600   3.751   6.568  0.0679 -0.0048  0.8763
  650MOL0     O89598  10.717   3.680   6.545 -0.1933  0.3101 -0.4750
  650MOL0     C89599  10.846   3.740   6.566 -0.5908 -0.0149  0.9704
  650MOL0     C89600  10.962   3.649   6.533  0.4802  0.1509 -1.0695
  650MOL0     C89601  10.985   3.642   6.382 -0.3947 -0.7460 -0.0696
  650MOL0     C89602  11.116   3.577   6.341 -1.2293 -0.6743 -0.5123
  650MOL0     C89603  11.233   3.662   6.392  0.0601 -0.0855 -0.4475
  650MOL0     C89604  11.371   3.602   6.361  0.3267 -0.0242 -0.0051
  650MOL0     C89605  11.386   3.456   6.366  0.8492 -0.2756 -0.0214
  650MOL0     C89606  11.531   3.410   6.333  1.1624 -0.2683  0.4239
  650MOL0    Cl89607  11.558   3.434   6.155  0.1321 -0.1755  0.2265
  650MOL0     C89608  10.498   3.723   6.480 -0.2835  0.1354 -0.6003
  650MOL0     C89609  10.368   3.792   6.492 -0.1067 -0.6265  0.9958
  650MOL0     O89610  10.293   4.156   6.548  0.1083 -0.6783 -0.0644
  650MOL0     C89611   9.972   3.998   6.544  0.1046  0.2936 -0.1349
  650MOL0     C89612   9.833   4.014   6.530 -0.3656  0.8084  0.0833
  650MOL0     N89613   9.535   4.588   6.169  0.2073 -0.5040  0.0556
  650MOL0     N89614   9.563   4.658   6.067  0.0326  0.0729  0.4856
  650MOL0     C89615   8.354   4.719   5.622 -0.5815  0.0349  0.1787
  650MOL0     C89616   8.234   4.780   5.572 -0.2623 -0.3616 -0.4063
  650MOL0     C89617   7.927   5.044   5.410 -0.0337  0.2629 -0.6044
  650MOL0     C89618   7.906   5.183   5.412  0.3271 -0.3338  1.0904
  650MOL0     C89619   7.780   5.231   5.357 -0.0694 -0.4265  0.1829
  650MOL0     C89620   7.687   5.144   5.295 -0.0615 -0.2353 -0.1026
  650MOL0     O89621   7.573   5.210   5.244 -0.0751 -0.0771  0.1102
  650MOL0     C89622   7.491   5.135   5.153 -0.0783 -0.0535 -0.1805
  650MOL0     C89623   7.547   5.126   5.016  0.0253  0.0756 -0.2358
  650MOL0     C89624   7.449   5.070   4.917 -0.2321 -0.2086  0.8762
  650MOL0     C89625   7.444   4.913   4.911 -0.4244  0.1129  0.2621
  650MOL0     C89626   7.414   4.859   4.780  0.0124  0.1421  0.7222
  650MOL0     C89627   7.373   4.819   4.671 -0.0891  0.4808  0.1949
  650MOL0     C89628   7.709   5.009   5.312  0.1623  0.8881  0.3693
  650MOL0     C89629   7.823   4.955   5.369 -0.7948 -0.1061  0.9286
  650MOL0     C89630   7.807   4.808   5.400  0.5659 -0.5058  0.1964
  650MOL0     H89631   8.336   4.830   5.246  0.6020  2.1463  0.1782
  650MOL0     H89632   8.561   4.750   5.344  0.5113  2.8676  1.2624
  650MOL0     H89633   8.693   4.799   5.550  0.1942 -0.7209 -1.2108
  650MOL0     H89634   8.761   4.648   5.515  2.0423  2.6531  0.4698
  650MOL0     H89635   8.711   4.771   5.785  0.0798 -0.1146  1.0958
  650MOL0     H89636   8.759   4.599   5.776 -1.6638  0.2710 -0.1794
  650MOL0     H89637   8.975   4.639   5.678 -0.7224 -0.0144 -0.3302
  650MOL0     H89638   8.938   4.805   5.638  1.8265  1.0500  0.8377
  650MOL0     H89639   8.901   4.853   5.883 -1.2611 -1.2145 -1.2547
  650MOL0     H89640   8.980   4.698   5.915 -4.3565 -0.2703  0.8733
  650MOL0     H89641   9.122   4.918   5.900 -2.5109 -1.7163  1.7108
  650MOL0     H89642   9.120   4.860   5.720 -1.5781 -3.6724 -2.3279
  650MOL0     H89643   9.232   4.731   5.965  3.3097  0.2366 -0.4302
  650MOL0     H89644   9.191   4.647   5.805 -0.8206  0.6547 -0.0913
  650MOL0     H89645   9.404   4.855   5.839 -0.4190  0.1181  1.6010
  650MOL0     H89646   9.368   4.771   5.691 -2.2877 -1.6829 -0.0685
  650MOL0     H89647   9.463   4.566   5.769 -0.8681 -0.1346 -0.0071
  650MOL0     H89648   9.571   4.695   5.814  0.1638  1.5495 -0.1666
  650MOL0     H89649   9.339   4.449   5.958  0.5504 -0.5199 -2.3805
  650MOL0     H89650   9.336   4.319   6.179  0.7306  1.3560 -0.2400
  650MOL0     H89651   9.326   4.437   6.315  0.7407  1.4384 -0.4228
  650MOL0     H89652   9.555   4.245   6.240 -1.1993 -1.6138  0.6575
  650MOL0     H89653   9.579   4.377   6.356  3.0924 -3.2492  0.3284
  650MOL0     H89654   9.427   4.276   6.506  0.3081  1.1030 -0.1090
  650MOL0     H89655   9.353   4.178   6.391  0.7278 -0.5128 -1.7622
  650MOL0     H89656   9.497   4.026   6.489 -1.7087  0.0831 -3.0684
  650MOL0     H89657   9.619   4.095   6.368  1.4269  0.7613  0.5246
  650MOL0     H89658   9.814   4.330   6.638  0.1765 -0.2815  1.7660
  650MOL0     H89659  10.141   4.378   6.601  1.5663  3.0566  2.8133
  650MOL0     H89660  10.092   4.322   6.774  0.7885  0.9520 -0.4690
  650MOL0     H89661   9.999   4.428   6.683 -1.8825 -1.2541  2.4534
  650MOL0     H89662  10.451   3.996   6.750 -0.3022  1.2893 -1.0192
  650MOL0     H89663  10.647   3.863   6.746 -1.9504  0.5825  1.5031
  650MOL0     H89664  10.856   3.831   6.505  0.8501  0.4037  1.7934
  650MOL0     H89665  10.844   3.773   6.670 -1.5382 -1.0505  1.3084
  650MOL0     H89666  11.046   3.700   6.581  1.0950  0.2327 -2.1843
  650MOL0     H89667  10.944   3.549   6.573 -2.7383  0.9235 -0.2829
  650MOL0     H89668  10.990   3.744   6.345 -2.0765 -1.5057 -2.6467
  650MOL0     H89669  10.891   3.612   6.336 -1.2576  1.8920 -0.1648
  650MOL0     H89670  11.128   3.564   6.233 -3.4015  0.2656 -0.9295
  650MOL0     H89671  11.126   3.475   6.378  0.9772 -0.8783 -1.4931
  650MOL0     H89672  11.231   3.762   6.348  0.1142  0.8086  1.4830
  650MOL0     H89673  11.228   3.678   6.500  0.0538  3.4575 -0.8686
  650MOL0     H89674  11.446   3.643   6.430 -0.4128 -2.5529  2.4789
  650MOL0     H89675  11.389   3.640   6.260  1.6384 -0.0644  0.1947
  650MOL0     H89676  11.320   3.405   6.296 -0.8334 -1.4905  2.2969
  650MOL0     H89677  11.350   3.428   6.466 -0.1086  0.9926  0.0216
  650MOL0     H89678  11.538   3.302   6.350  0.4602 -0.1613  1.5092
  650MOL0     H89679  11.610   3.449   6.398  1.2914  0.9577 -0.4479
  650MOL0     H89680  10.505   3.640   6.410  0.0590 -0.5416  0.2209
  650MOL0     H89681  10.283   3.777   6.427 -0.8846  0.7271  1.6566
  650MOL0     H89682  10.016   3.900   6.526  1.1318  0.2685  2.2312
  650MOL0     H89683   9.763   3.936   6.501  0.3117 -0.7183  2.3116
  650MOL0     H89684   8.347   4.690   5.726 -1.4419  1.5521  0.5808
  650MOL0     H89685   8.145   4.816   5.624 -0.6719  0.3504 -1.5562
  650MOL0     H89686   7.984   5.246   5.452  0.8224  0.2500 -0.6900
  650MOL0     H89687   7.770   5.339   5.360  0.5391 -0.3771  3.4500
  650MOL0     H89688   7.469   5.036   5.194  0.4492  0.0497  0.3674
  650MOL0     H89689   7.398   5.193   5.154 -0.1935 -0.2300  0.8568
  650MOL0     H89690   7.644   5.077   5.017  0.0491  0.0664 -1.6578
  650MOL0     H89691   7.575   5.227   4.985  0.7567  0.6598  2.0872
  650MOL0     H89692   7.347   5.108   4.926  0.1865  1.3763 -0.6250
  650MOL0     H89693   7.473   5.104   4.816  2.4283 -0.8131  1.2032
  650MOL0     H89694   7.367   4.877   4.979  0.3094 -1.1374  0.4649
  650MOL0     H89695   7.535   4.865   4.948 -0.8886 -1.4070 -0.4637
  650MOL0     H89696   7.364   4.785   4.570  1.6915  0.7223 -0.0875
  650MOL0     H89697   7.633   4.939   5.278  0.1958  1.5944 -1.2264
  650MOL0     H89698   7.902   4.767   5.436  0.5059 -1.4632 -0.6896
  650MOL0     H89699   7.730   4.799   5.477  0.3027  0.7778  0.1146
  650MOL0     H89700   7.790   4.743   5.314  0.3027  2.2878 -2.0220
  651MOL0     O89701  11.151   4.430   4.565  0.4738 -0.1694  0.3682
  651MOL0     C89702  11.167   4.370   4.672 -0.8127  0.2908 -0.5524
  651MOL0     O89703  11.275   4.291   4.709  0.7885 -0.3907  0.7172
  651MOL0     C89704  11.339   4.235   4.603 -0.5626 -0.0432 -0.3757
  651MOL0     C89705  11.289   4.195   4.483 -0.1945 -0.7338  0.3678
  651MOL0     C89706  11.368   4.126   4.381 -0.5306 -0.2353 -0.2944
  651MOL0     C89707  11.500   4.100   4.407 -0.2589  0.3225 -0.4597
  651MOL0     O89708  11.574   4.024   4.316  0.3567 -0.0018  0.0556
  651MOL0     C89709  11.680   4.106   4.250  0.4750  0.1041  0.4712
  651MOL0     C89710  11.804   4.020   4.229  0.4215  0.5485 -0.3840
  651MOL0     C89711  11.787   3.920   4.111  0.0520  0.0053  0.1591
  651MOL0     C89712  11.898   3.816   4.115  0.0795  0.7189 -0.4450
  651MOL0     C89713  11.852   3.708   4.006 -0.5388  0.3095 -0.6524
  651MOL0     C89714  11.973   3.613   3.962  0.2797 -0.3089 -0.5348
  651MOL0     C89715  11.927   3.514   3.860  0.3035  0.4707  0.8186
  651MOL0     C89716  12.031   3.418   3.824 -0.2160  0.2502  0.1822
  651MOL0     N89717  12.143   3.494   3.768  0.3434 -0.2121  0.9971
  651MOL0     C89718  12.240   3.548   3.844  0.0755 -0.3741  0.2943
  651MOL0     C89719  12.335   3.593   3.751  0.1723 -0.1081 -0.9050
  651MOL0     C89720  12.468   3.649   3.793 -0.1050 -0.0742 -0.5603
  651MOL0     C89721  12.581   3.586   3.721  0.0447 -0.3181  0.2529
  651MOL0     C89722  12.562   3.438   3.716  0.0079  0.4731  0.3304
  651MOL0     C89723  12.692   3.372   3.667 -0.6368 -0.1386  0.1472
  651MOL0     O89724  12.769   3.326   3.777  0.2601 -0.6162  0.6834
  651MOL0     C89725  12.899   3.278   3.760  0.2720 -0.6129 -0.3281
  651MOL0     C89726  12.941   3.191   3.850  0.2102  0.2437 -0.1888
  651MOL0     C89727  13.070   3.130   3.849 -0.0203 -1.1285 -1.0108
  651MOL0     C89728  13.106   3.041   3.951 -0.3817 -1.0498 -0.0561
  651MOL0     C89729  13.159   3.172   3.746 -0.2804 -0.6042  0.9022
  651MOL0     C89730  13.299   3.117   3.735  0.1294  0.4109  0.2306
  651MOL0     O89731  13.341   2.987   3.769  0.1325  0.0362 -0.3842
  651MOL0     C89732  13.467   2.948   3.760  0.0101 -0.5159 -0.2049
  651MOL0     C89733  13.524   2.868   3.857  1.1236  1.4461  0.3195
  651MOL0     C89734  13.651   2.818   3.851  0.2620  0.1163  1.2096
  651MOL0     C89735  13.730   2.848   3.736 -0.0513 -0.5656 -0.5147
  651MOL0     O89736  13.854   2.791   3.739  0.0514  0.1194 -0.2567
  651MOL0     C89737  13.930   2.797   3.618  0.4510  1.0309  0.6503
  651MOL0     C89738  14.049   2.700   3.634  0.5338  0.5530  0.0449
  651MOL0     C89739  14.142   2.690   3.505  0.3593 -0.5360  0.0869
  651MOL0     C89740  14.234   2.574   3.527 -0.0725 -0.5215 -0.1752
  651MOL0     C89741  14.360   2.620   3.607 -1.1134 -0.7317  0.0704
  651MOL0     C89742  14.454   2.696   3.519  0.0272  0.2447 -0.0211
  651MOL0     C89743  14.571   2.746   3.590 -0.7045  0.2783 -0.4852
  651MOL0     C89744  14.691   2.768   3.498  0.3507  0.0701 -0.4947
  651MOL0    Cl89745  14.759   2.630   3.402 -0.1598 -0.2142  0.4973
  651MOL0     C89746  13.672   2.919   3.630 -0.2618  0.4318  0.5634
  651MOL0     C89747  13.544   2.971   3.644  0.4376 -0.5915 -0.4592
  651MOL0     O89748  13.378   3.201   3.683  0.5139 -0.1564  0.5481
  651MOL0     C89749  13.110   3.250   3.635 -0.0053  0.5931  0.0524
  651MOL0     C89750  12.978   3.298   3.647  1.0414  0.4521  0.2277
  651MOL0     N89751  12.283   3.562   3.623 -0.4159 -0.4308  0.3201
  651MOL0     N89752  12.171   3.511   3.638 -0.0874  0.0845 -0.4919
  651MOL0     C89753  11.558   4.140   4.529  0.7909 -0.3164 -0.8486
  651MOL0     C89754  11.475   4.204   4.627  0.2111 -1.0701 -0.3112
  651MOL0     C89755  11.082   4.410   4.787 -0.1495 -1.1182 -0.5527
  651MOL0     C89756  11.131   4.403   4.919 -0.0414 -0.0665  0.1723
  651MOL0     C89757  11.066   4.433   5.038 -0.3305 -0.1858 -0.1529
  651MOL0     C89758  10.936   4.505   5.027  0.1744  0.1291 -0.6130
  651MOL0     O89759  10.864   4.549   5.138  0.2021 -0.7214  0.1997
  651MOL0     C89760  10.934   4.562   5.259 -0.0790 -0.2143 -0.8163
  651MOL0     C89761  10.855   4.651   5.356  0.0850 -0.8454 -0.4785
  651MOL0     C89762  10.884   4.799   5.316 -0.6466 -0.1420 -0.2433
  651MOL0     C89763  10.831   4.895   5.423  0.1225 -0.7086 -0.1174
  651MOL0     C89764  10.690   4.883   5.443 -0.1557  0.2827 -0.0729
  651MOL0     C89765  10.567   4.877   5.460  0.2077  0.6159  0.4852
  651MOL0     C89766  10.884   4.522   4.898  0.3309 -0.0148 -0.4071
  651MOL0     C89767  10.951   4.474   4.779  1.0254 -0.4268  0.0612
  651MOL0     C89768  10.879   4.499   4.641  0.3091 -0.5296 -0.4011
  651MOL0     H89769  11.184   4.207   4.456  0.2167 -0.7689 -1.3681
  651MOL0     H89770  11.333   4.100   4.282  1.2579  0.1420 -1.0787
  651MOL0     H89771  11.703   4.195   4.309  1.1642  2.2043 -2.6920
  651MOL0     H89772  11.653   4.133   4.147  2.2755 -3.2773 -1.0465
  651MOL0     H89773  11.889   4.087   4.211  0.3082  0.5209 -1.0827
  651MOL0     H89774  11.828   3.959   4.316  0.9024  2.7403  1.1252
  651MOL0     H89775  11.691   3.871   4.130  1.4954 -3.3830 -0.5230
  651MOL0     H89776  11.773   3.967   4.013  2.5901  0.3286 -0.1286
  651MOL0     H89777  11.994   3.864   4.093  1.3384 -2.2930 -2.1598
  651MOL0     H89778  11.898   3.768   4.213  0.4238 -1.6720 -1.5496
  651MOL0     H89779  11.807   3.766   3.925 -2.7219  4.6287  3.1863
  651MOL0     H89780  11.775   3.652   4.061 -2.0193  2.9289  0.1026
  651MOL0     H89781  12.060   3.679   3.946  0.9747 -1.1451 -0.2521
  651MOL0     H89782  12.000   3.562   4.055 -1.4598  4.1291  2.7560
  651MOL0     H89783  11.912   3.574   3.770 -0.2881 -2.1355 -0.9164
  651MOL0     H89784  11.837   3.459   3.886  1.0144 -0.6399  0.9993
  651MOL0     H89785  12.064   3.354   3.907  1.4220 -0.8051 -1.2196
  651MOL0     H89786  12.000   3.352   3.743 -0.2163  2.3126 -1.5699
  651MOL0     H89787  12.256   3.541   3.951 -0.3724 -0.6200  0.3447
  651MOL0     H89788  12.470   3.633   3.901 -0.3989  2.6155 -0.0912
  651MOL0     H89789  12.459   3.758   3.783  1.5695  0.4091  2.2373
  651MOL0     H89790  12.571   3.632   3.623  1.7070  0.0297  0.2225
  651MOL0     H89791  12.681   3.613   3.758 -0.6232  0.3698  1.6376
  651MOL0     H89792  12.523   3.402   3.811 -1.2483  1.0922  0.0711
  651MOL0     H89793  12.491   3.421   3.634  1.0443  0.1639 -0.5157
  651MOL0     H89794  12.669   3.288   3.601 -0.8577 -2.6927  3.2364
  651MOL0     H89795  12.753   3.443   3.610  2.0335 -1.6631  0.9387
  651MOL0     H89796  12.879   3.169   3.937  0.2853  0.2817 -0.1257
  651MOL0     H89797  13.094   2.943   3.905  0.0988  0.6715 -4.2337
  651MOL0     H89798  13.045   3.059   4.041  1.1331 -0.1272  0.8218
  651MOL0     H89799  13.211   3.060   3.976 -0.8168  2.1536 -0.1915
  651MOL0     H89800  13.455   2.839   3.936  1.7179 -2.6819 -0.4544
  651MOL0     H89801  13.695   2.761   3.932  0.5737 -0.6431  0.5165
  651MOL0     H89802  13.863   2.753   3.543 -2.7694 -1.7482  4.7084
  651MOL0     H89803  13.968   2.895   3.588 -0.3143  1.5873  1.4530
  651MOL0     H89804  14.109   2.726   3.722 -0.1745 -1.7118  1.3007
  651MOL0     H89805  14.012   2.598   3.654 -0.1206  0.5657 -1.0314
  651MOL0     H89806  14.183   2.791   3.504 -2.7193  0.8643 -2.2955
  651MOL0     H89807  14.067   2.687   3.424  0.2692  1.1264  0.0840
  651MOL0     H89808  14.277   2.522   3.441  2.0242 -3.9063  2.6502
  651MOL0     H89809  14.182   2.488   3.569  1.6366 -1.9447 -0.8651
  651MOL0     H89810  14.325   2.687   3.686  1.7305  1.1186 -0.1077
  651MOL0     H89811  14.399   2.523   3.641 -3.0411 -1.2199  1.0290
  651MOL0     H89812  14.411   2.790   3.483 -1.3418 -0.3269  0.0461
  651MOL0     H89813  14.480   2.641   3.429 -0.5056 -0.7239  0.4057
  651MOL0     H89814  14.602   2.684   3.674  1.1975  2.4344  0.5172
  651MOL0     H89815  14.549   2.845   3.632  2.0164  1.0625 -0.7271
  651MOL0     H89816  14.776   2.808   3.554 -1.1282  1.6082  0.7624
  651MOL0     H89817  14.659   2.837   3.419  0.3238 -0.9861 -1.4357
  651MOL0     H89818  13.727   2.942   3.540  1.9256 -2.3622  1.0457
  651MOL0     H89819  13.496   3.019   3.559  0.2166 -1.5479 -0.8964
  651MOL0     H89820  13.168   3.267   3.546  1.5157  0.1736  0.9277
  651MOL0     H89821  12.929   3.349   3.564  0.8577  0.8593  0.5887
  651MOL0     H89822  11.661   4.116   4.555  0.1809 -1.5348  0.5647
  651MOL0     H89823  11.513   4.239   4.722  0.8152 -4.1546  0.7027
  651MOL0     H89824  11.234   4.369   4.926 -0.0584  0.0832  1.3810
  651MOL0     H89825  11.113   4.410   5.133 -0.0732  1.1573  0.0700
  651MOL0     H89826  10.938   4.457   5.288 -1.3254 -0.1144 -0.1927
  651MOL0     H89827  11.036   4.598   5.245 -0.4836  1.2176 -0.2842
  651MOL0     H89828  10.886   4.641   5.461 -1.4725  1.6906  0.3297
  651MOL0     H89829  10.749   4.622   5.358 -0.3312  0.5860 -0.5190
  651MOL0     H89830  10.993   4.808   5.304 -0.6071  0.0109  0.1925
  651MOL0     H89831  10.835   4.816   5.220 -1.0067 -1.3858 -0.2977
  651MOL0     H89832  10.856   4.995   5.385  0.8672 -0.1957  1.6216
  651MOL0     H89833  10.884   4.881   5.518 -0.6460 -0.5954  0.3416
  651MOL0     H89834  10.460   4.883   5.469  0.2669  1.2384  0.8489
  651MOL0     H89835  10.780   4.552   4.888  0.8288  2.0766  0.2631
  651MOL0     H89836  10.781   4.543   4.663  0.1120 -2.2350  2.7999
  651MOL0     H89837  10.953   4.568   4.599  0.4890 -1.3711 -1.4874
  651MOL0     H89838  10.856   4.413   4.578  0.2225  1.7057 -3.6237
  652MOL0     O89839   2.923   3.339  10.148 -0.0512 -0.7492  0.0283
  652MOL0     C89840   2.969   3.285  10.049 -0.2483  0.3781 -0.2651
  652MOL0     O89841   3.100   3.260  10.031 -0.2074 -0.6296 -0.1529
  652MOL0     C89842   3.184   3.287  10.137  0.7314  0.3256  0.1760
  652MOL0     C89843   3.290   3.367  10.117 -1.3418 -0.4655 -0.0064
  652MOL0     C89844   3.377   3.399  10.228 -1.0298 -0.3069  0.4345
  652MOL0     C89845   3.353   3.341  10.352  0.5529  0.5151  0.2027
  652MOL0     O89846   3.432   3.374  10.463 -0.2287 -0.3412  0.0059
  652MOL0     C89847   3.563   3.328  10.436  0.0189  0.1476 -0.2568
  652MOL0     C89848   3.652   3.338  10.553  0.2210  0.2909  0.1759
  652MOL0     C89849   3.644   3.484  10.592  0.3135 -0.6964 -0.2142
  652MOL0     C89850   3.725   3.512  10.718 -0.4519  0.4934 -1.3476
  652MOL0     C89851   3.624   3.556  10.831  0.6915 -0.3078  0.6596
  652MOL0     C89852   3.693   3.584  10.967 -0.3895 -0.8875  0.3754
  652MOL0     C89853   3.595   3.648  11.064 -0.9970 -0.2018 -0.1514
  652MOL0     C89854   3.667   3.683  11.190  0.1736  0.2236 -0.6336
  652MOL0     N89855   3.577   3.692  11.306 -0.0189  0.0835  0.0347
  652MOL0     C89856   3.564   3.603  11.404 -0.3512 -0.7350 -1.0459
  652MOL0     C89857   3.463   3.654  11.479  0.0722  0.9294  0.3952
  652MOL0     C89858   3.404   3.592  11.609 -0.2759 -0.2851  0.0882
  652MOL0     C89859   3.316   3.473  11.601 -0.5007  0.1454 -0.1466
  652MOL0     C89860   3.389   3.350  11.530 -0.9677 -0.0484  1.0519
  652MOL0     C89861   3.510   3.301  11.612  0.4718 -0.9241  1.0915
  652MOL0     O89862   3.451   3.233  11.724 -0.8759 -0.1992 -0.3088
  652MOL0     C89863   3.530   3.187  11.829 -1.0100  0.2606  0.3167
  652MOL0     C89864   3.476   3.108  11.928  0.3847 -1.0048 -0.4218
  652MOL0     C89865   3.553   3.041  12.030  0.0760  1.0865 -0.4027
  652MOL0     C89866   3.474   2.940  12.115 -0.5253  0.8969 -0.2108
  652MOL0     C89867   3.701   3.053  12.033  0.5824  0.5385  0.3800
  652MOL0     C89868   3.799   2.990  12.128  0.0163  1.2817  0.8575
  652MOL0     O89869   3.925   3.034  12.121 -0.6221  0.2611  0.4680
  652MOL0     C89870   4.014   2.952  12.192  0.0304  0.9806 -0.2955
  652MOL0     C89871   4.087   2.846  12.141  0.5533 -0.0787 -0.4966
  652MOL0     C89872   4.185   2.795  12.221 -0.5877  0.2276  0.2301
  652MOL0     C89873   4.219   2.848  12.348 -0.8716 -0.4803  0.3380
  652MOL0     O89874   4.300   2.785  12.439  0.7651 -0.0944  0.5331
  652MOL0     C89875   4.372   2.672  12.378 -0.9950  0.5856  0.6262
  652MOL0     C89876   4.494   2.617  12.451 -0.0219  0.4251 -0.0141
  652MOL0     C89877   4.578   2.735  12.506  0.4031 -0.3720 -0.4139
  652MOL0     C89878   4.648   2.813  12.398 -0.4056  0.2971 -0.6804
  652MOL0     C89879   4.758   2.727  12.328 -0.4622 -0.8053 -0.2700
  652MOL0     C89880   4.857   2.826  12.265  0.3958 -0.0583  0.3255
  652MOL0     C89881   4.975   2.740  12.203 -0.7565 -0.0444  0.2730
  652MOL0     C89882   5.093   2.834  12.181 -0.2364  0.0350 -0.1188
  652MOL0    Cl89883   5.046   2.968  12.077  0.4565  0.1127 -0.4121
  652MOL0     C89884   4.146   2.956  12.388 -0.2473  0.3826  0.2396
  652MOL0     C89885   4.039   3.003  12.318 -0.3417  0.3828 -0.3635
  652MOL0     O89886   3.751   2.898  12.198 -1.0193  0.8800 -0.3320
  652MOL0     C89887   3.751   3.128  11.927  0.0233 -0.6560 -0.2682
  652MOL0     C89888   3.674   3.194  11.833  0.4876 -0.1327 -0.0554
  652MOL0     N89889   3.416   3.767  11.415 -0.3267 -0.2371 -0.3338
  652MOL0     N89890   3.480   3.786  11.303  0.5713 -0.2927  0.1656
  652MOL0     C89891   3.241   3.257  10.372  0.2270 -0.5190 -1.2389
  652MOL0     C89892   3.159   3.224  10.267  0.4083  0.6490 -0.3053
  652MOL0     C89893   2.874   3.280   9.934  0.2486 -0.6653  0.4650
  652MOL0     C89894   2.740   3.280   9.964 -0.3814  0.2199 -0.6398
  652MOL0     C89895   2.651   3.288   9.860 -0.0623 -0.5690  0.9108
  652MOL0     C89896   2.693   3.296   9.724  0.1888 -0.5830 -0.2999
  652MOL0     O89897   2.616   3.295   9.614 -0.3839  0.1935 -0.0743
  652MOL0     C89898   2.478   3.246   9.633  0.5637 -0.4829  0.6550
  652MOL0     C89899   2.414   3.247   9.497 -0.2127  0.5116 -0.2129
  652MOL0     C89900   2.504   3.180   9.387  0.2930 -0.8592 -0.1801
  652MOL0     C89901   2.429   3.100   9.287 -0.3802 -0.7731 -0.6154
  652MOL0     C89902   2.339   3.188   9.212  0.0689 -0.6458 -0.2358
  652MOL0     C89903   2.251   3.258   9.156  0.1842  0.6698  0.7086
  652MOL0     C89904   2.831   3.297   9.698 -0.2769 -0.7695  0.2349
  652MOL0     C89905   2.922   3.302   9.794 -0.1582 -0.0865 -0.0154
  652MOL0     C89906   3.069   3.294   9.745  0.3394 -0.2341 -0.4204
  652MOL0     H89907   3.302   3.424  10.026 -0.4870 -1.8778 -0.8159
  652MOL0     H89908   3.468   3.456  10.213  0.4415 -3.0936 -2.5527
  652MOL0     H89909   3.617   3.388  10.362 -0.0209  0.3257 -0.1439
  652MOL0     H89910   3.565   3.223  10.407  3.3753  0.0965 -0.1616
  652MOL0     H89911   3.629   3.273  10.638  0.9035  0.8642  0.8069
  652MOL0     H89912   3.756   3.327  10.523  0.3785  0.9947  0.4508
  652MOL0     H89913   3.687   3.533  10.504  1.6486 -0.0606  0.7596
  652MOL0     H89914   3.539   3.514  10.603  0.4628  0.3457 -1.4250
  652MOL0     H89915   3.788   3.428  10.751 -1.5536 -1.1532 -3.1932
  652MOL0     H89916   3.791   3.598  10.700  0.2274  0.1895 -0.4243
  652MOL0     H89917   3.549   3.477  10.845  0.1953 -0.6762 -3.0431
  652MOL0     H89918   3.567   3.644  10.799 -1.1707 -1.4703  0.5910
  652MOL0     H89919   3.753   3.501  11.004  0.5786  0.3229  1.6599
  652MOL0     H89920   3.769   3.660  10.945 -2.1940  1.4351  1.5921
  652MOL0     H89921   3.510   3.583  11.082  0.2517 -1.9284 -0.2651
  652MOL0     H89922   3.558   3.734  11.007  3.0100  2.1389  0.3736
  652MOL0     H89923   3.742   3.603  11.200 -0.8612 -0.6839  0.1217
  652MOL0     H89924   3.729   3.773  11.186 -0.5594  0.7833  0.2088
  652MOL0     H89925   3.631   3.519  11.419 -0.1411 -0.8324 -2.3425
  652MOL0     H89926   3.348   3.671  11.661  0.9112  1.4632 -1.1848
  652MOL0     H89927   3.486   3.578  11.679 -0.6479  3.5825  1.5622
  652MOL0     H89928   3.278   3.438  11.698  0.0270  1.1660  0.4427
  652MOL0     H89929   3.235   3.504  11.534  0.8875  0.2503 -1.8332
  652MOL0     H89930   3.312   3.272  11.526  0.8974 -2.0622  2.1403
  652MOL0     H89931   3.417   3.365  11.425 -0.1747 -1.7551  0.9835
  652MOL0     H89932   3.567   3.221  11.565  0.5172  0.5627 -1.5730
  652MOL0     H89933   3.578   3.381  11.646  0.4016  0.3677 -1.5850
  652MOL0     H89934   3.371   3.098  11.902  0.9071 -0.0765 -3.2667
  652MOL0     H89935   3.366   2.957  12.117 -0.9071 -1.2358  0.0423
  652MOL0     H89936   3.523   2.945  12.212 -0.3620 -1.4557 -0.1152
  652MOL0     H89937   3.493   2.838  12.080  1.1437  0.5880  1.4744
  652MOL0     H89938   4.051   2.817  12.043 -1.3959  2.3456 -0.5984
  652MOL0     H89939   4.221   2.700  12.183  1.8528  1.4818 -0.8424
  652MOL0     H89940   4.296   2.593  12.368  1.2817 -1.7375  0.6414
  652MOL0     H89941   4.415   2.691  12.279 -0.9657 -1.9802  0.0678
  652MOL0     H89942   4.458   2.564  12.540 -2.1994  3.0467  0.8057
  652MOL0     H89943   4.549   2.535  12.405 -0.2060 -2.3016  4.0782
  652MOL0     H89944   4.641   2.704  12.590  0.3018 -2.7660 -1.1395
  652MOL0     H89945   4.506   2.801  12.555  2.0761  0.4209  1.0746
  652MOL0     H89946   4.697   2.893  12.454 -1.2786  0.6078 -0.3348
  652MOL0     H89947   4.574   2.864  12.335 -0.9918  0.2081 -0.0852
  652MOL0     H89948   4.822   2.675  12.400  0.9667  2.0928  0.7093
  652MOL0     H89949   4.714   2.665  12.250 -1.1898  2.1093 -2.3675
  652MOL0     H89950   4.893   2.904  12.334  2.8267  0.7622 -1.7447
  652MOL0     H89951   4.818   2.887  12.183 -0.2015  0.3543  0.9023
  652MOL0     H89952   4.953   2.693  12.107  0.7149 -2.1006  0.8883
  652MOL0     H89953   5.009   2.662  12.271 -1.6644  1.2888  2.3901
  652MOL0     H89954   5.171   2.776  12.130 -0.4895 -3.5261  3.0347
  652MOL0     H89955   5.128   2.870  12.278 -2.9952 -0.9655  1.3692
  652MOL0     H89956   4.181   3.001  12.480  0.2500  0.6395 -0.0682
  652MOL0     H89957   3.978   3.082  12.360 -3.0111 -2.2146  1.0147
  652MOL0     H89958   3.859   3.125  11.919  0.1972  1.1260  0.8067
  652MOL0     H89959   3.733   3.256  11.765  1.5549 -1.0160  0.0391
  652MOL0     H89960   3.241   3.218  10.473  1.0595 -2.5380 -1.9563
  652MOL0     H89961   3.072   3.160  10.280  0.8293  0.3706  1.3741
  652MOL0     H89962   2.714   3.272  10.069  1.5673  1.0890 -0.0346
  652MOL0     H89963   2.543   3.281   9.869 -0.2522  0.0867 -0.5274
  652MOL0     H89964   2.479   3.140   9.659 -2.8545 -1.3165 -1.9687
  652MOL0     H89965   2.415   3.294   9.709  1.0603 -1.4165  1.6953
  652MOL0     H89966   2.401   3.349   9.459 -0.2484  1.9794  3.4148
  652MOL0     H89967   2.316   3.198   9.504 -0.6468  1.5204  1.0987
  652MOL0     H89968   2.554   3.265   9.340 -1.6103  0.7975  0.6586
  652MOL0     H89969   2.585   3.118   9.426  0.7919  0.5756  1.1693
  652MOL0     H89970   2.372   3.023   9.340 -0.9818 -0.8330 -1.3300
  652MOL0     H89971   2.503   3.044   9.228 -0.4260 -1.6561  0.1477
  652MOL0     H89972   2.174   3.323   9.119 -2.6835 -1.1957  2.9768
  652MOL0     H89973   2.844   3.301   9.590 -1.5521 -0.2168  0.0874
  652MOL0     H89974   3.070   3.332   9.642 -2.5100 -0.9148 -0.7877
  652MOL0     H89975   3.133   3.355   9.809  0.2817 -0.2766 -0.3215
  652MOL0     H89976   3.095   3.188   9.746  1.4428 -0.0804  3.5021
  653MOL0     O89977   9.403   0.333   1.106  0.0955  0.4817 -0.0718
  653MOL0     C89978   9.358   0.400   1.204  0.4414 -0.1603  0.1688
  653MOL0     O89979   9.405   0.527   1.240 -0.2607 -0.0799 -0.3109
  653MOL0     C89980   9.502   0.591   1.174 -0.5970  0.6279 -0.4710
  653MOL0     C89981   9.489   0.615   1.036  0.0364 -0.2337 -0.5214
  653MOL0     C89982   9.589   0.684   0.974 -0.2087  0.4729 -0.1656
  653MOL0     C89983   9.690   0.738   1.048 -0.2564  0.2438 -0.1608
  653MOL0     O89984   9.785   0.819   0.990 -0.3287 -0.0740  0.0219
  653MOL0     C89985   9.730   0.917   0.906  0.1207 -0.0186  1.1715
  653MOL0     C89986   9.810   1.050   0.926  0.4544  0.2128 -0.1112
  653MOL0     C89987   9.952   1.031   0.892 -0.7462 -0.1389  0.6745
  653MOL0     C89988  10.041   1.164   0.898  0.1404 -0.1927  0.4378
  653MOL0     C89989  10.189   1.149   0.875 -0.5995 -0.0561 -0.5268
  653MOL0     C89990  10.224   1.090   0.737 -0.2718 -0.2370  0.3891
  653MOL0     C89991  10.381   1.089   0.726  0.1504  0.5895  0.1622
  653MOL0     C89992  10.468   1.012   0.831 -0.4253 -0.2949 -0.6463
  653MOL0     N89993  10.428   0.867   0.840 -0.4164  0.4740 -0.1126
  653MOL0     C89994  10.313   0.812   0.884  0.0028  0.1773  0.3286
  653MOL0     C89995  10.327   0.673   0.880  0.6001  0.1304 -0.7291
  653MOL0     C89996  10.240   0.574   0.954  0.6052  0.2303 -0.1200
  653MOL0     C89997  10.157   0.474   0.871  0.6590 -0.1790 -0.4997
  653MOL0     C89998  10.027   0.538   0.811  0.2061  0.0337 -0.8294
  653MOL0     C89999   9.963   0.448   0.709  0.2975  0.5255 -0.1802
  653MOL0     O90000   9.947   0.314   0.764  0.2672  0.1602  0.7732
  653MOL0     C90001   9.827   0.246   0.781 -0.0601 -0.1594  0.2560
  653MOL0     C90002   9.695   0.308   0.759 -0.0395  0.0347 -0.6232
  653MOL0     C90003   9.584   0.225   0.781 -0.0655 -0.4189  0.0860
  653MOL0     C90004   9.459   0.293   0.772 -0.5321 -0.0797  0.9183
  653MOL0     C90005   9.590   0.086   0.797 -0.8370 -0.0272 -0.3303
  653MOL0     C90006   9.488  -0.007   0.791 -0.8122  0.7443  0.4745
  653MOL0     O90007   9.439  -0.035   0.670  0.1245  0.9932  0.4052
  653MOL0     C90008   9.374  -0.159   0.649 -0.7321  0.5616  0.2506
  653MOL0     C90009   9.439  -0.276   0.696 -0.1921  0.1157  0.2995
  653MOL0     C90010   9.375  -0.395   0.657 -0.6159  0.0905 -0.6339
  653MOL0     C90011   9.260  -0.394   0.586 -0.5093 -0.1231  0.3455
  653MOL0     O90012   9.208  -0.512   0.542 -0.3973 -0.0414 -0.9836
  653MOL0     C90013   9.188  -0.615   0.634 -0.5290 -0.4098 -0.5612
  653MOL0     C90014   9.080  -0.713   0.589  0.5669  0.0829  0.3823
  653MOL0     C90015   9.101  -0.850   0.647 -0.2953 -0.6441  0.4464
  653MOL0     C90016   9.009  -0.956   0.592 -0.2276  0.1823 -0.1234
  653MOL0     C90017   9.034  -1.095   0.634 -0.1905 -0.2482 -0.8061
  653MOL0     C90018   8.948  -1.192   0.562  0.4266 -0.5183 -0.0924
  653MOL0     C90019   8.986  -1.335   0.599  0.6466  0.6193  0.0404
  653MOL0     C90020   8.865  -1.430   0.581 -0.4543 -0.6349  0.3486
  653MOL0    Cl90021   8.836  -1.460   0.407  0.2960  0.1217 -0.1796
  653MOL0     C90022   9.199  -0.276   0.541  0.0228 -0.0165  0.2674
  653MOL0     C90023   9.264  -0.162   0.567  0.5415 -0.2801 -0.3963
  653MOL0     O90024   9.467  -0.066   0.894 -0.0611  0.1572 -0.1472
  653MOL0     C90025   9.723   0.035   0.822 -0.4080 -0.4552 -1.3456
  653MOL0     C90026   9.835   0.112   0.824  0.8871  0.4849 -0.1189
  653MOL0     N90027  10.453   0.650   0.824  0.3547 -0.4419 -0.0291
  653MOL0     N90028  10.502   0.766   0.790 -0.1162  0.3476 -0.7707
  653MOL0     C90029   9.703   0.709   1.186 -0.3431  0.1133 -0.0234
  653MOL0     C90030   9.613   0.630   1.251  1.1606 -0.2223 -0.0418
  653MOL0     C90031   9.245   0.341   1.285  0.6020 -0.1185 -0.0382
  653MOL0     C90032   9.192   0.221   1.248 -0.2204  0.8517  0.0116
  653MOL0     C90033   9.110   0.146   1.330  0.2642 -0.1801 -1.6045
  653MOL0     C90034   9.062   0.200   1.459 -0.3070 -0.0201 -0.0767
  653MOL0     O90035   8.974   0.118   1.533 -0.4827 -0.2760 -0.2182
  653MOL0     C90036   8.884   0.195   1.626 -0.2427 -0.5329  0.3034
  653MOL0     C90037   8.744   0.203   1.568 -0.6040  0.4151 -0.7570
  653MOL0     C90038   8.681   0.065   1.568  0.0862  1.2637  0.4113
  653MOL0     C90039   8.548   0.067   1.515  1.0340  0.1714  0.4408
  653MOL0     C90040   8.536   0.106   1.369  0.0494 -0.9080 -0.2124
  653MOL0     C90041   8.522   0.137   1.247  0.5128  0.0923 -0.3014
  653MOL0     C90042   9.127   0.327   1.495  0.8737 -0.0763  0.4239
  653MOL0     C90043   9.212   0.394   1.412 -0.2081 -0.7043  0.2071
  653MOL0     C90044   9.268   0.517   1.482  0.0662  0.0795  0.1576
  653MOL0     H90045   9.404   0.580   0.978 -1.1520  1.1521  0.3324
  653MOL0     H90046   9.583   0.713   0.869 -1.8257 -1.4699 -0.6621
  653MOL0     H90047   9.628   0.939   0.941 -0.6433  0.0655 -0.9939
  653MOL0     H90048   9.735   0.888   0.801  1.5703  3.5471  0.1096
  653MOL0     H90049   9.767   1.134   0.870 -2.0992 -0.6404  0.4369
  653MOL0     H90050   9.793   1.073   1.032  2.6411 -2.7974  1.0378
  653MOL0     H90051  10.009   0.964   0.957  3.1279 -0.0901 -2.3205
  653MOL0     H90052   9.965   0.981   0.796  1.6552  0.9228  0.3529
  653MOL0     H90053  10.003   1.238   0.828  2.2454 -0.2883 -0.9194
  653MOL0     H90054  10.039   1.203   1.000  1.9156 -0.5214  0.6430
  653MOL0     H90055  10.237   1.098   0.959  1.6051  1.3915 -0.8111
  653MOL0     H90056  10.238   1.247   0.882 -1.4291  0.2907  0.8334
  653MOL0     H90057  10.183   0.989   0.730  1.9285 -1.1105 -1.0604
  653MOL0     H90058  10.195   1.156   0.655 -0.4047 -0.4180  0.2900
  653MOL0     H90059  10.418   1.191   0.719  2.1247 -0.1628 -1.3653
  653MOL0     H90060  10.401   1.053   0.624 -0.3808 -1.0276  0.5957
  653MOL0     H90061  10.575   1.025   0.817  1.0299 -2.4379  5.3133
  653MOL0     H90062  10.453   1.057   0.930 -0.9598 -1.8032 -0.0031
  653MOL0     H90063  10.225   0.868   0.915 -0.5262 -0.6788  0.4050
  653MOL0     H90064  10.164   0.629   1.010  0.2265 -1.7599  1.4234
  653MOL0     H90065  10.297   0.522   1.032 -0.0863  0.2609  0.4173
  653MOL0     H90066  10.223   0.431   0.795  3.7517  1.0923  1.2912
  653MOL0     H90067  10.131   0.401   0.948  1.6813  1.3935  1.4345
  653MOL0     H90068   9.963   0.543   0.899  5.0144  0.5101  3.0418
  653MOL0     H90069  10.043   0.640   0.776 -1.1391  0.2546 -0.8362
  653MOL0     H90070   9.870   0.487   0.666 -0.3079 -1.0687 -0.4157
  653MOL0     H90071  10.016   0.442   0.614 -1.5418 -1.0512 -1.1905
  653MOL0     H90072   9.684   0.411   0.728  0.8305  0.2884 -0.1222
  653MOL0     H90073   9.423   0.299   0.669  0.3692 -3.0698  0.3318
  653MOL0     H90074   9.463   0.400   0.794 -2.1216  0.4029 -0.9126
  653MOL0     H90075   9.384   0.238   0.830 -1.4097 -1.0434 -1.0676
  653MOL0     H90076   9.529  -0.264   0.754  1.4621 -0.8709 -1.9048
  653MOL0     H90077   9.413  -0.490   0.694  2.0528  0.8761 -1.1203
  653MOL0     H90078   9.284  -0.665   0.648 -1.2422 -1.1869  2.0799
  653MOL0     H90079   9.158  -0.576   0.732  1.5199  0.1430 -0.0912
  653MOL0     H90080   8.983  -0.681   0.629 -0.7491  0.2814 -2.7518
  653MOL0     H90081   9.089  -0.706   0.481 -1.8081  0.7269  0.1721
  653MOL0     H90082   9.085  -0.843   0.755  0.3168  0.3960  0.4822
  653MOL0     H90083   9.199  -0.890   0.617 -1.1410 -0.2482 -3.4361
  653MOL0     H90084   9.013  -0.944   0.483  1.7779  1.7371  0.0543
  653MOL0     H90085   8.905  -0.934   0.618 -0.6206 -2.4568  0.7753
  653MOL0     H90086   9.140  -1.110   0.612  0.0225  0.1035 -0.0432
  653MOL0     H90087   9.021  -1.105   0.742  0.2152 -4.2271 -0.9883
  653MOL0     H90088   8.976  -1.172   0.458  1.7985 -3.7927 -0.4435
  653MOL0     H90089   8.843  -1.165   0.576  0.9241  1.7458 -0.2389
  653MOL0     H90090   9.005  -1.340   0.707 -1.4985  3.6087  0.7138
  653MOL0     H90091   9.072  -1.375   0.545 -1.5529 -1.3854 -2.2033
  653MOL0     H90092   8.770  -1.396   0.625 -2.1452 -0.5434 -3.0670
  653MOL0     H90093   8.881  -1.527   0.630 -0.2837 -0.6277  0.3085
  653MOL0     H90094   9.102  -0.289   0.493  0.0520 -1.8418  0.6290
  653MOL0     H90095   9.230  -0.063   0.539  0.7391  0.8812  3.0546
  653MOL0     H90096   9.740  -0.062   0.866  2.7984  0.7940  0.4722
  653MOL0     H90097   9.929   0.081   0.868 -0.8452 -2.4386  1.8927
  653MOL0     H90098   9.784   0.755   1.241 -2.1450  1.0972  1.9723
  653MOL0     H90099   9.610   0.611   1.358  1.5300 -0.8519 -0.1376
  653MOL0     H90100   9.217   0.193   1.147  2.2725  3.6927 -0.3059
  653MOL0     H90101   9.073   0.046   1.311  1.3383 -1.4948  2.2490
  653MOL0     H90102   8.876   0.141   1.721 -0.7008 -0.0114  0.5640
  653MOL0     H90103   8.909   0.300   1.643 -1.8477  0.3375 -2.2364
  653MOL0     H90104   8.761   0.249   1.470  0.5713  0.9682 -0.3199
  653MOL0     H90105   8.684   0.270   1.630 -0.2646  1.2020 -1.2605
  653MOL0     H90106   8.743  -0.004   1.511 -0.1725  0.8020  0.6887
  653MOL0     H90107   8.685   0.036   1.673  1.0921  1.8381  0.5527
  653MOL0     H90108   8.487   0.132   1.579 -1.2500 -0.6654 -0.7819
  653MOL0     H90109   8.502  -0.032   1.516 -2.1653  1.5332  1.8672
  653MOL0     H90110   8.499   0.153   1.144 -2.3898 -2.5207 -0.2104
  653MOL0     H90111   9.101   0.374   1.589 -2.9967  0.0346 -0.5137
  653MOL0     H90112   9.376   0.507   1.499 -0.3546 -2.5959  2.1081
  653MOL0     H90113   9.245   0.607   1.425  2.2608  0.4325 -0.2509
  653MOL0     H90114   9.223   0.520   1.582  2.5827  0.0924  1.3918
  654MOL0     O90115   8.349   8.937   2.503 -0.0977  0.1802  0.3590
  654MOL0     C90116   8.438   8.979   2.575 -0.1418 -0.1004  0.1138
  654MOL0     O90117   8.545   9.070   2.539 -0.4867 -0.1529  0.0468
  654MOL0     C90118   8.548   9.129   2.411  0.3304 -0.7091 -0.3918
  654MOL0     C90119   8.561   9.269   2.407  0.1725  0.7427  1.0015
  654MOL0     C90120   8.576   9.338   2.287  0.2718 -0.3333  0.7558
  654MOL0     C90121   8.594   9.267   2.175 -1.0560  0.5715  1.3152
  654MOL0     O90122   8.638   9.320   2.056  0.7407 -0.2463  0.1305
  654MOL0     C90123   8.640   9.460   2.048  1.5229 -0.2153 -0.0396
  654MOL0     C90124   8.695   9.482   1.907  0.4190 -0.7479  0.0668
  654MOL0     C90125   8.693   9.630   1.862 -0.3666 -0.7627  0.6098
  654MOL0     C90126   8.721   9.639   1.713  0.4286  0.7860  0.1006
  654MOL0     C90127   8.696   9.781   1.663 -0.7288  0.9845  0.4838
  654MOL0     C90128   8.811   9.875   1.669  0.4648 -1.0685 -0.1034
  654MOL0     C90129   8.789  10.021   1.635 -0.2426  0.5613  0.0384
  654MOL0     C90130   8.754  10.033   1.489  0.2891 -0.0580 -0.0751
  654MOL0     N90131   8.853  10.105   1.402  0.3034 -0.1435 -0.1513
  654MOL0     C90132   8.987  10.094   1.406 -0.3973  0.2613  0.1721
  654MOL0     C90133   9.034  10.178   1.305 -0.6063  0.0140  0.5268
  654MOL0     C90134   9.178  10.219   1.272  0.1098 -0.5964  0.6113
  654MOL0     C90135   9.199  10.371   1.229  0.5814  1.0950 -0.1605
  654MOL0     C90136   9.346  10.400   1.201  0.4905 -0.0752  0.6596
  654MOL0     C90137   9.371  10.553   1.183  0.0616 -0.1404  0.2280
  654MOL0     O90138   9.510  10.558   1.147  0.9483  0.2668  0.4167
  654MOL0     C90139   9.557  10.683   1.112  0.0235  0.9586  0.3749
  654MOL0     C90140   9.489  10.809   1.127 -0.8049 -0.0514  0.1792
  654MOL0     C90141   9.558  10.929   1.096  0.5468 -0.3737 -0.1609
  654MOL0     C90142   9.478  11.062   1.104 -1.1652 -0.6742  0.6498
  654MOL0     C90143   9.684  10.913   1.036  0.7272 -0.0742  0.0109
  654MOL0     C90144   9.777  11.028   0.993  0.9401  0.4531 -0.6404
  654MOL0     O90145   9.890  11.036   1.062  0.1328  0.7551  0.2220
  654MOL0     C90146   9.985  11.128   1.021  0.4335  0.7447  0.0992
  654MOL0     C90147   9.985  11.264   1.074  0.5628 -0.0561  0.1483
  654MOL0     C90148  10.089  11.358   1.036  0.7549  0.4724 -0.0060
  654MOL0     C90149  10.185  11.322   0.942  0.8635  0.3476  0.6803
  654MOL0     O90150  10.272  11.408   0.900  0.4608 -0.5552  0.0077
  654MOL0     C90151  10.249  11.464   0.769 -0.1531 -0.5907  0.7689
  654MOL0     C90152  10.366  11.561   0.738 -0.3570 -0.4111 -0.3350
  654MOL0     C90153  10.336  11.650   0.617  0.9131  0.7246  0.1413
  654MOL0     C90154  10.459  11.730   0.591  0.0606 -0.1430 -0.1077
  654MOL0     C90155  10.480  11.809   0.450 -0.4296  0.4359 -0.3483
  654MOL0     C90156  10.630  11.839   0.436 -0.0321 -0.7108 -0.1557
  654MOL0     C90157  10.673  11.928   0.312  1.5025 -0.3553 -0.0590
  654MOL0     C90158  10.813  11.966   0.300  0.6701  0.1197 -0.4836
  654MOL0    Cl90159  10.936  11.835   0.293  0.5631 -0.3341 -0.4143
  654MOL0     C90160  10.179  11.195   0.891 -0.2219  0.5025 -0.1501
  654MOL0     C90161  10.083  11.093   0.927 -1.3924  0.4607  0.9794
  654MOL0     O90162   9.741  11.097   0.902  0.0190 -0.5069  0.3947
  654MOL0     C90163   9.746  10.786   1.003  0.3887  0.0672  0.0498
  654MOL0     C90164   9.676  10.675   1.043 -0.5485 -0.6407  0.3201
  654MOL0     N90165   8.931  10.229   1.236  1.0882 -0.2415 -0.7550
  654MOL0     N90166   8.818  10.182   1.294  0.0739 -0.0263  0.8775
  654MOL0     C90167   8.582   9.124   2.177 -0.5371 -0.4350 -0.2613
  654MOL0     C90168   8.555   9.062   2.294 -0.6155  0.4613  0.0386
  654MOL0     C90169   8.435   8.930   2.722 -0.2343 -0.0364 -0.7717
  654MOL0     C90170   8.333   8.837   2.760  0.9640  0.3582 -0.0228
  654MOL0     C90171   8.322   8.790   2.896 -0.2844  0.2457 -0.1137
  654MOL0     C90172   8.423   8.833   2.992 -0.0002 -0.3295 -0.8392
  654MOL0     O90173   8.416   8.797   3.124  0.0675  0.6103  0.4918
  654MOL0     C90174   8.346   8.676   3.152  0.3138  0.3554  0.4441
  654MOL0     C90175   8.404   8.610   3.278  0.5143  0.3860  0.4578
  654MOL0     C90176   8.435   8.685   3.401  0.0301  0.1459 -0.7888
  654MOL0     C90177   8.464   8.606   3.524  0.1746  0.4852 -0.8274
  654MOL0     C90178   8.348   8.555   3.599  0.3211 -0.2433  0.0490
  654MOL0     C90179   8.247   8.531   3.660 -0.4381 -1.4974  0.1499
  654MOL0     C90180   8.508   8.926   2.950 -0.1173 -0.2891 -0.1178
  654MOL0     C90181   8.525   8.967   2.823 -0.1927 -0.3964 -0.8691
  654MOL0     C90182   8.650   9.063   2.803  0.0027  0.6391  0.2053
  654MOL0     H90183   8.551   9.327   2.499  1.3922  5.3239 -1.4551
  654MOL0     H90184   8.564   9.445   2.285 -0.9580 -0.4176  1.8342
  654MOL0     H90185   8.707   9.496   2.127  1.1037 -1.1157  0.7399
  654MOL0     H90186   8.544   9.511   2.060  1.7715  0.5426 -1.1068
  654MOL0     H90187   8.802   9.459   1.914  0.7511  1.1129  1.9941
  654MOL0     H90188   8.642   9.417   1.837 -2.1529  0.2607  0.9982
  654MOL0     H90189   8.595   9.671   1.887 -0.3825  1.2823 -2.3115
  654MOL0     H90190   8.775   9.680   1.915 -0.7689  0.3813  0.1829
  654MOL0     H90191   8.823   9.617   1.681  0.5732  0.1972  0.9445
  654MOL0     H90192   8.668   9.562   1.656  0.9189 -0.1330  0.8679
  654MOL0     H90193   8.621   9.828   1.727  0.0637 -0.5941  2.6733
  654MOL0     H90194   8.658   9.777   1.560 -0.8009  0.5581  0.5273
  654MOL0     H90195   8.841   9.873   1.774  0.2035 -1.1184 -0.0296
  654MOL0     H90196   8.900   9.836   1.618  2.7207 -0.2317  2.9137
  654MOL0     H90197   8.872  10.091   1.653  0.5312 -0.2077 -0.4270
  654MOL0     H90198   8.703  10.048   1.696 -1.8391 -2.6621 -0.5961
  654MOL0     H90199   8.751   9.931   1.449 -2.0984 -1.4580  3.2539
  654MOL0     H90200   8.652  10.074   1.481  1.1095  2.1369  0.0976
  654MOL0     H90201   9.058  10.033   1.460  0.9825  0.4160 -1.3605
  654MOL0     H90202   9.227  10.152   1.201 -0.7471  0.8155 -1.3742
  654MOL0     H90203   9.237  10.210   1.364  2.6019 -4.1722 -1.1112
  654MOL0     H90204   9.144  10.389   1.136  1.0465 -0.4891 -0.7806
  654MOL0     H90205   9.160  10.437   1.307  3.0855  0.0467  2.1490
  654MOL0     H90206   9.417  10.355   1.272  1.5870 -1.6936 -1.3514
  654MOL0     H90207   9.371  10.342   1.111 -1.6763 -0.5696  0.3355
  654MOL0     H90208   9.307  10.581   1.099  0.7129  1.6229  0.2800
  654MOL0     H90209   9.351  10.617   1.269 -0.5738 -0.2160  0.1392
  654MOL0     H90210   9.395  10.831   1.177 -0.9600 -1.4610  0.5597
  654MOL0     H90211   9.552  11.140   1.118  0.2934 -1.2019 -2.9133
  654MOL0     H90212   9.417  11.061   1.195 -1.3250 -0.4657  0.5463
  654MOL0     H90213   9.424  11.091   1.013 -1.0438 -2.2172  0.0387
  654MOL0     H90214   9.903  11.298   1.137  2.5319  0.7822  2.4143
  654MOL0     H90215  10.081  11.453   1.087  1.4448 -0.4159  1.8416
  654MOL0     H90216  10.254  11.388   0.691  1.9470  2.1057 -1.9956
  654MOL0     H90217  10.149  11.509   0.767 -0.8978 -2.1677 -1.2564
  654MOL0     H90218  10.390  11.624   0.824  0.5692 -3.4185  1.7584
  654MOL0     H90219  10.457  11.502   0.722  0.4054  1.3269 -3.1114
  654MOL0     H90220  10.251  11.714   0.642  0.8802  0.6549  0.2079
  654MOL0     H90221  10.320  11.597   0.522  2.2341 -1.4018  1.0345
  654MOL0     H90222  10.541  11.658   0.600 -0.4649 -0.6457  0.7890
  654MOL0     H90223  10.476  11.802   0.672  1.4677 -0.2019 -0.3149
  654MOL0     H90224  10.454  11.752   0.361  0.9150  1.4009 -1.3889
  654MOL0     H90225  10.417  11.899   0.462 -0.9330  0.5711 -3.2290
  654MOL0     H90226  10.693  11.750   0.443  2.4753  1.0661  3.5272
  654MOL0     H90227  10.666  11.895   0.523  0.5412 -2.4366  0.7543
  654MOL0     H90228  10.605  12.014   0.302  0.3215 -1.0539  1.5069
  654MOL0     H90229  10.653  11.858   0.230  0.1960  0.5679 -0.5741
  654MOL0     H90230  10.840  12.023   0.389 -0.3572  1.2206 -0.8555
  654MOL0     H90231  10.814  12.018   0.203 -1.0280 -0.7956 -1.0267
  654MOL0     H90232  10.254  11.175   0.815 -0.8503  1.2292 -0.9743
  654MOL0     H90233  10.104  10.993   0.890 -0.6900  1.5368 -1.8206
  654MOL0     H90234   9.839  10.774   0.949 -1.6098 -1.7566 -3.3367
  654MOL0     H90235   9.719  10.578   1.020 -0.7473 -0.0583 -3.0444
  654MOL0     H90236   8.601   9.055   2.096  0.6512 -1.9948  1.2811
  654MOL0     H90237   8.568   8.955   2.307  1.8159  0.8000  1.0540
  654MOL0     H90238   8.259   8.803   2.688  0.4604  2.2086 -0.4310
  654MOL0     H90239   8.244   8.725   2.934  0.3728  0.5171  1.8177
  654MOL0     H90240   8.245   8.706   3.182 -0.0283 -0.3533  0.0277
  654MOL0     H90241   8.341   8.603   3.070  2.8437 -0.1392  0.6541
  654MOL0     H90242   8.497   8.576   3.233 -0.5797 -3.1416  0.5563
  654MOL0     H90243   8.345   8.521   3.300  0.9008  0.4286  1.7134
  654MOL0     H90244   8.527   8.743   3.389  1.6216 -1.8408  1.0783
  654MOL0     H90245   8.350   8.750   3.423 -1.7222 -1.0061 -3.5903
  654MOL0     H90246   8.512   8.676   3.593  2.4219 -3.3525  1.9415
  654MOL0     H90247   8.519   8.513   3.505  1.4126  1.1529 -0.5952
  654MOL0     H90248   8.157   8.516   3.717 -1.4485 -0.5900 -1.1411
  654MOL0     H90249   8.565   8.971   3.031  1.4275  0.7035 -1.6856
  654MOL0     H90250   8.705   9.049   2.710  0.8421 -1.5872  0.9793
  654MOL0     H90251   8.618   9.168   2.801  2.9464  1.6244 -1.6092
  654MOL0     H90252   8.719   9.056   2.888 -0.9520 -1.2627  0.8741
  655MOL0     O90253   0.835   2.496   9.797  0.3652 -0.5448 -0.3827
  655MOL0     C90254   0.954   2.524   9.811 -0.1528 -0.4470 -0.1701
  655MOL0     O90255   1.040   2.485   9.911  0.1601 -0.4158 -0.1846
  655MOL0     C90256   1.001   2.411  10.018 -0.2470  0.6254 -0.9095
  655MOL0     C90257   0.903   2.456  10.103  1.3187  0.7241 -0.9676
  655MOL0     C90258   0.873   2.384  10.223  0.1973  0.3787 -0.6795
  655MOL0     C90259   0.937   2.258  10.246 -0.1481 -0.1618  0.1489
  655MOL0     O90260   0.911   2.170  10.359 -0.1585 -0.4102 -0.8162
  655MOL0     C90261   0.823   2.210  10.461 -0.2488  0.2402  0.1434
  655MOL0     C90262   0.846   2.106  10.574  0.0699  0.7415 -0.3967
  655MOL0     C90263   0.712   2.041  10.616  1.1397  0.8206  0.0173
  655MOL0     C90264   0.700   2.039  10.768  0.1936  0.7818  0.4381
  655MOL0     C90265   0.590   1.941  10.813 -0.2704  0.0995 -0.2733
  655MOL0     C90266   0.642   1.791  10.841  0.3553 -0.5860  1.0822
  655MOL0     C90267   0.572   1.732  10.958  1.0597 -0.2577 -0.1559
  655MOL0     C90268   0.612   1.583  10.984  1.0782 -0.7961 -0.0203
  655MOL0     N90269   0.602   1.494  10.863 -0.1013 -0.2726 -0.1527
  655MOL0     C90270   0.500   1.498  10.763  0.4536 -0.1612 -0.2248
  655MOL0     C90271   0.542   1.417  10.666 -0.4009 -0.0871  0.3566
  655MOL0     C90272   0.473   1.384  10.534 -0.3322 -0.0045 -0.3699
  655MOL0     C90273   0.443   1.229  10.528  0.0274  0.4773  0.0084
  655MOL0     C90274   0.405   1.182  10.384 -0.0794  0.1293  0.1831
  655MOL0     C90275   0.379   1.030  10.363  0.6197  0.9429  0.7083
  655MOL0     O90276   0.486   0.942  10.398  0.2042  0.2458 -0.0472
  655MOL0     C90277   0.592   0.923  10.304 -0.2587  0.1579 -0.0635
  655MOL0     C90278   0.700   0.876  10.366 -1.0317  0.1340 -0.5408
  655MOL0     C90279   0.818   0.841  10.300  0.2552 -0.1645  0.5550
  655MOL0     C90280   0.937   0.782  10.379  0.1467 -0.0419  0.6530
  655MOL0     C90281   0.829   0.851  10.159  0.4332 -0.8909  0.4339
  655MOL0     C90282   0.934   0.796  10.071 -0.0019 -0.6431 -0.2608
  655MOL0     O90283   1.049   0.758  10.128  0.2598 -0.1154  0.0787
  655MOL0     C90284   1.163   0.726  10.051 -0.6736  0.1801 -0.8320
  655MOL0     C90285   1.257   0.623  10.096  0.8815  0.3250 -0.8469
  655MOL0     C90286   1.380   0.593  10.030  0.3110 -0.7482  1.3391
  655MOL0     C90287   1.415   0.656   9.913 -0.1992  0.8208  0.2526
  655MOL0     O90288   1.529   0.610   9.858  0.5395  0.2623  0.0655
  655MOL0     C90289   1.591   0.700   9.763 -0.4695  0.6035 -0.2931
  655MOL0     C90290   1.728   0.633   9.739 -0.0351  0.2769  0.2254
  655MOL0     C90291   1.821   0.732   9.667  1.1425 -0.7067  0.0354
  655MOL0     C90292   1.961   0.670   9.640  0.1448 -0.2325 -0.2585
  655MOL0     C90293   2.051   0.705   9.758  0.0206  0.6384  0.1415
  655MOL0     C90294   2.188   0.638   9.742 -0.4225  0.3634 -0.2270
  655MOL0     C90295   2.280   0.669   9.863 -0.3115  0.4465  0.0762
  655MOL0     C90296   2.412   0.611   9.856  0.8112 -0.5038 -0.4019
  655MOL0    Cl90297   2.500   0.643   9.706 -0.2182 -0.2658 -0.1996
  655MOL0     C90298   1.324   0.756   9.865  0.1320  0.3198 -0.3659
  655MOL0     C90299   1.204   0.787   9.931 -0.1230  0.2604  0.0001
  655MOL0     O90300   0.916   0.795   9.950  0.0318  0.2966  0.6391
  655MOL0     C90301   0.719   0.912  10.091 -0.4087  0.2043  0.1808
  655MOL0     C90302   0.605   0.950  10.165  0.7161 -0.3901  0.1932
  655MOL0     N90303   0.666   1.362  10.699 -0.4352  1.0876 -0.3846
  655MOL0     N90304   0.706   1.416  10.810  0.0014 -0.5505 -0.8024
  655MOL0     C90305   1.033   2.213  10.159  0.2454 -0.7094  1.0828
  655MOL0     C90306   1.060   2.286  10.045 -0.4783  0.4421  0.7136
  655MOL0     C90307   1.014   2.617   9.715 -1.1118  0.5523 -0.8340
  655MOL0     C90308   1.147   2.679   9.739 -0.5226 -0.3427 -0.2410
  655MOL0     C90309   1.188   2.779   9.660  0.3825  0.3044  0.0349
  655MOL0     C90310   1.118   2.813   9.548  0.7739 -0.1677 -0.3950
  655MOL0     O90311   1.181   2.894   9.460  0.0021 -0.0078 -0.0336
  655MOL0     C90312   1.199   2.828   9.331  0.0802  0.6314 -0.2542
  655MOL0     C90313   1.122   2.899   9.220 -0.9732 -0.6547 -0.0102
  655MOL0     C90314   1.178   3.043   9.190  0.1271  0.9147  0.7430
  655MOL0     C90315   1.119   3.106   9.062 -1.5134  0.8307 -0.4182
  655MOL0     C90316   0.974   3.107   9.079  0.2304  0.1151  0.3807
  655MOL0     C90317   0.854   3.131   9.093 -0.2200 -0.1305 -0.0241
  655MOL0     C90318   0.991   2.761   9.523 -0.1976  0.5389 -0.0752
  655MOL0     C90319   0.936   2.664   9.600  0.2830  0.0261 -0.2438
  655MOL0     C90320   0.798   2.621   9.556  0.3828  0.7112  0.2673
  655MOL0     H90321   0.845   2.547  10.092 -0.4138 -0.4985 -2.5934
  655MOL0     H90322   0.797   2.430  10.285  0.6737  0.2320  0.0231
  655MOL0     H90323   0.716   2.206  10.438 -0.1292 -1.5196 -0.3119
  655MOL0     H90324   0.847   2.309  10.501  3.8864 -0.5123 -0.0207
  655MOL0     H90325   0.921   2.033  10.543  1.0950  1.6026 -0.0094
  655MOL0     H90326   0.895   2.158  10.657  3.0436 -1.3273 -0.7187
  655MOL0     H90327   0.621   2.087  10.577  0.8824 -0.7713 -1.3617
  655MOL0     H90328   0.704   1.940  10.573 -0.7416  1.3788 -1.0508
  655MOL0     H90329   0.798   2.023  10.814  1.2874  0.5405 -1.8029
  655MOL0     H90330   0.668   2.142  10.789 -2.1158 -0.2089  2.1666
  655MOL0     H90331   0.508   1.952  10.741 -0.7592 -0.4814  0.1771
  655MOL0     H90332   0.552   1.975  10.910  2.3941  2.7188 -0.0007
  655MOL0     H90333   0.640   1.728  10.751  1.3112  1.3742 -0.3814
  655MOL0     H90334   0.745   1.796  10.875  1.1084  1.6267 -1.2239
  655MOL0     H90335   0.464   1.733  10.941  0.9601 -1.1622  0.3478
  655MOL0     H90336   0.588   1.800  11.042 -2.1911  3.0089 -1.8461
  655MOL0     H90337   0.708   1.584  11.037 -0.8687  0.2639  3.8118
  655MOL0     H90338   0.552   1.551  11.069  1.4719  0.9037  0.9451
  655MOL0     H90339   0.407   1.555  10.758  0.0633 -0.8835 -1.8381
  655MOL0     H90340   0.541   1.418  10.456  0.6684  0.2237  0.5692
  655MOL0     H90341   0.385   1.449  10.537 -0.3058  0.1091 -1.6516
  655MOL0     H90342   0.534   1.172  10.552  0.8316  2.2234  1.3622
  655MOL0     H90343   0.368   1.198  10.600  0.4618  0.7811  0.6014
  655MOL0     H90344   0.313   1.236  10.360  0.7438  1.5505  0.1184
  655MOL0     H90345   0.480   1.214  10.312  1.2050 -1.1243  0.9343
  655MOL0     H90346   0.298   0.998  10.430  0.4853 -3.4561 -1.2361
  655MOL0     H90347   0.352   1.003  10.260  1.0586 -0.4082  0.9346
  655MOL0     H90348   0.705   0.869  10.474 -1.5878  0.8681 -0.4655
  655MOL0     H90349   1.015   0.859  10.386 -3.8067  4.6769 -1.2079
  655MOL0     H90350   0.971   0.689  10.334  0.8086  0.7266 -0.5054
  655MOL0     H90351   0.901   0.759  10.479  0.2917 -1.0717  0.4802
  655MOL0     H90352   1.236   0.571  10.189  3.1287  0.4893 -0.1942
  655MOL0     H90353   1.441   0.511  10.065  2.6061  0.0585 -0.4887
  655MOL0     H90354   1.525   0.697   9.676 -0.3002  0.2156 -0.4085
  655MOL0     H90355   1.588   0.799   9.810 -0.0786  2.1738 -3.3443
  655MOL0     H90356   1.778   0.615   9.834 -0.8133  2.2533  1.0578
  655MOL0     H90357   1.712   0.536   9.690 -2.5785  0.1007  1.2557
  655MOL0     H90358   1.836   0.825   9.723  4.2125 -0.7659 -0.5205
  655MOL0     H90359   1.757   0.752   9.581 -2.2462 -1.8192  2.1193
  655MOL0     H90360   2.003   0.721   9.552 -0.1484 -1.1031 -0.9160
  655MOL0     H90361   1.952   0.564   9.614 -0.6191  0.0041 -1.0215
  655MOL0     H90362   2.068   0.813   9.750 -1.5838  0.8622 -0.6603
  655MOL0     H90363   1.997   0.679   9.850 -1.3620 -0.3055 -0.8759
  655MOL0     H90364   2.236   0.671   9.650 -1.9280 -0.0890 -1.2181
  655MOL0     H90365   2.177   0.529   9.736  1.1741 -0.1531  3.3062
  655MOL0     H90366   2.243   0.629   9.957  0.4586  1.3115  0.7660
  655MOL0     H90367   2.290   0.778   9.868  1.0205  0.6780 -3.7771
  655MOL0     H90368   2.410   0.503   9.875  0.7819 -0.5217 -0.5051
  655MOL0     H90369   2.470   0.663   9.932 -1.8838 -0.0754  1.5114
  655MOL0     H90370   1.339   0.789   9.763 -0.1835  2.0001  0.1028
  655MOL0     H90371   1.140   0.869   9.901 -0.3365  0.7671  1.7121
  655MOL0     H90372   0.718   0.932   9.985  1.4011  1.0929  0.2882
  655MOL0     H90373   0.526   0.999  10.109  1.2738 -1.4883 -1.6530
  655MOL0     H90374   1.079   2.117  10.183  0.4172 -0.9840 -0.2970
  655MOL0     H90375   1.128   2.236   9.977 -0.1962  0.5298  0.9296
  655MOL0     H90376   1.219   2.638   9.809 -1.4865 -2.9862 -0.6657
  655MOL0     H90377   1.283   2.826   9.683  1.0388 -0.9548 -0.0191
  655MOL0     H90378   1.305   2.839   9.306  0.2760  0.8503  0.6531
  655MOL0     H90379   1.174   2.721   9.336  3.5265 -0.6407 -4.2585
  655MOL0     H90380   1.021   2.909   9.263 -1.1400  1.6369 -0.7833
  655MOL0     H90381   1.108   2.837   9.130  0.2622  0.2365 -0.8392
  655MOL0     H90382   1.152   3.116   9.268 -4.8080  1.6294 -1.1805
  655MOL0     H90383   1.286   3.035   9.176 -0.1678 -1.4517 -0.8730
  655MOL0     H90384   1.150   3.052   8.973 -4.3651  1.9502 -2.2269
  655MOL0     H90385   1.154   3.209   9.047 -0.8077  0.2086 -3.7737
  655MOL0     H90386   0.748   3.147   9.097 -0.8738 -3.5303 -0.8567
  655MOL0     H90387   0.938   2.806   9.440 -2.1590  0.4344  1.0563
  655MOL0     H90388   0.774   2.661   9.457 -1.3685  0.1275  0.4275
  655MOL0     H90389   0.795   2.512   9.568 -1.2382  1.0339  4.0317
  655MOL0     H90390   0.718   2.660   9.619  0.3108 -0.2889  0.8193
  656MOL0     O90391   5.601  10.722   1.838 -0.0568 -0.5268 -0.3228
  656MOL0     C90392   5.596  10.834   1.780 -0.6813 -0.0396  0.4700
  656MOL0     O90393   5.580  10.842   1.638 -0.6523 -0.1564  0.0419
  656MOL0     C90394   5.587  10.724   1.569 -0.0592 -0.7133  0.0004
  656MOL0     C90395   5.704  10.663   1.530 -0.4953  0.6558 -0.0997
  656MOL0     C90396   5.709  10.534   1.463  0.5066 -0.3240 -0.4364
  656MOL0     C90397   5.590  10.482   1.425  0.3545 -0.2159  0.1118
  656MOL0     O90398   5.587  10.372   1.347 -0.5550  0.1341 -0.3245
  656MOL0     C90399   5.638  10.245   1.400  0.4433 -0.2846  0.2000
  656MOL0     C90400   5.524  10.183   1.491  0.2086 -0.4852  0.6704
  656MOL0     C90401   5.412  10.127   1.404 -1.0699  0.0790  0.1751
  656MOL0     C90402   5.299  10.058   1.488  0.3352  0.3261 -0.7348
  656MOL0     C90403   5.194   9.981   1.399 -0.4940  0.2195 -0.3888
  656MOL0     C90404   5.261   9.855   1.331  0.9689  0.3126  0.3186
  656MOL0     C90405   5.171   9.785   1.223 -0.3008 -0.5013 -0.7976
  656MOL0     C90406   5.039   9.727   1.286  0.4049 -0.1343  0.4848
  656MOL0     N90407   4.975   9.640   1.192 -0.2889  0.7646  0.3580
  656MOL0     C90408   4.873   9.663   1.101 -0.9141  1.0260  0.5013
  656MOL0     C90409   4.833   9.543   1.059 -0.5015 -0.6447 -0.0245
  656MOL0     C90410   4.718   9.519   0.976  0.2500  0.3890 -0.0279
  656MOL0     C90411   4.585   9.509   1.052  0.7878 -1.2072 -0.1494
  656MOL0     C90412   4.571   9.376   1.128  0.7309  0.0750 -0.2962
  656MOL0     C90413   4.430   9.314   1.154  0.2884  0.4250 -0.4612
  656MOL0     O90414   4.353   9.425   1.217 -0.9822 -0.7642  0.5378
  656MOL0     C90415   4.214   9.409   1.222 -0.6937  0.5616  0.0912
  656MOL0     C90416   4.145   9.501   1.299  0.1557  0.3887  0.7322
  656MOL0     C90417   4.000   9.491   1.308 -0.3046 -0.3284 -0.6073
  656MOL0     C90418   3.924   9.596   1.386 -0.0223 -0.1323 -0.3511
  656MOL0     C90419   3.930   9.386   1.232 -0.4496 -0.1835 -0.1871
  656MOL0     C90420   3.790   9.360   1.257 -0.8479  0.4352 -0.6601
  656MOL0     O90421   3.719   9.434   1.355 -0.2914  0.4385 -0.5578
  656MOL0     C90422   3.591   9.394   1.397  0.4220  0.7537 -0.8524
  656MOL0     C90423   3.491   9.311   1.331 -1.0393  0.0653  0.3717
  656MOL0     C90424   3.363   9.300   1.377  0.6002 -0.5682  0.2758
  656MOL0     C90425   3.319   9.378   1.483  0.6493  0.4318  0.1786
  656MOL0     O90426   3.186   9.399   1.520  0.2686  0.8804 -0.7453
  656MOL0     C90427   3.111   9.279   1.555 -0.6089  0.4353  0.0091
  656MOL0     C90428   3.023   9.312   1.676 -0.1092 -0.1184 -0.1868
  656MOL0     C90429   2.906   9.404   1.635  0.3892  0.5490 -0.0948
  656MOL0     C90430   2.814   9.440   1.763  0.0836 -0.0010  0.7626
  656MOL0     C90431   2.680   9.510   1.737 -0.3261  0.5218 -0.6976
  656MOL0     C90432   2.571   9.428   1.675 -0.9802  0.6122  1.2628
  656MOL0     C90433   2.457   9.517   1.652 -0.2208 -1.2117 -0.0437
  656MOL0     C90434   2.357   9.466   1.548  0.7800 -0.9501  0.4673
  656MOL0    Cl90435   2.213   9.566   1.543  0.2872  0.1703  0.1099
  656MOL0     C90436   3.413   9.452   1.560 -0.1542 -0.2106  0.1790
  656MOL0     C90437   3.547   9.454   1.522  0.6271 -0.3627  0.2580
  656MOL0     O90438   3.753   9.265   1.183 -0.0518  0.3158  0.0984
  656MOL0     C90439   4.007   9.310   1.143  0.4144  0.5066 -0.1933
  656MOL0     C90440   4.142   9.317   1.140 -0.1046 -0.2997 -0.2293
  656MOL0     N90441   4.909   9.442   1.120  0.1537  0.6768  1.1899
  656MOL0     N90442   4.998   9.510   1.185 -0.0617  0.1985 -0.0435
  656MOL0     C90443   5.472  10.535   1.467  0.3338 -0.0411 -0.9740
  656MOL0     C90444   5.470  10.657   1.535  0.3771  0.3005  0.1542
  656MOL0     C90445   5.614  10.956   1.867  0.0688  0.4422  0.7085
  656MOL0     C90446   5.637  11.074   1.791 -0.3688 -0.1184  0.0010
  656MOL0     C90447   5.649  11.189   1.858  0.4587 -0.3484  0.7236
  656MOL0     C90448   5.629  11.208   1.998  0.6417 -0.4848 -0.3121
  656MOL0     O90449   5.625  11.330   2.061  0.4239  0.5189 -0.5432
  656MOL0     C90450   5.581  11.447   1.992 -0.1150 -0.5787 -1.0612
  656MOL0     C90451   5.547  11.567   2.091 -0.7821 -0.0543  0.4490
  656MOL0     C90452   5.503  11.697   2.010  0.5070 -0.2520 -0.1571
  656MOL0     C90453   5.470  11.808   2.115  0.0712  0.0665  0.8372
  656MOL0     C90454   5.596  11.852   2.180 -0.4039  0.1442 -0.3281
  656MOL0     C90455   5.681  11.902   2.247 -0.2951  0.4371 -0.6231
  656MOL0     C90456   5.621  11.089   2.071 -0.5280 -0.6348 -0.7102
  656MOL0     C90457   5.606  10.958   2.009  0.2949  0.2252  0.6368
  656MOL0     C90458   5.584  10.833   2.095 -0.1241  0.6484 -0.0995
  656MOL0     H90459   5.791  10.727   1.537 -0.1436  0.9198 -4.4634
  656MOL0     H90460   5.799  10.496   1.417 -0.5445 -1.3440 -1.7448
  656MOL0     H90461   5.727  10.264   1.461 -0.6293 -2.2369  2.5425
  656MOL0     H90462   5.664  10.181   1.316 -1.5479 -1.1608  0.1799
  656MOL0     H90463   5.566  10.105   1.555  0.2692  0.5895  1.9853
  656MOL0     H90464   5.475  10.254   1.557 -0.4139 -0.7616  0.5103
  656MOL0     H90465   5.374  10.213   1.348  0.2236  1.2471  1.0463
  656MOL0     H90466   5.461  10.055   1.338 -0.1152 -2.3678  3.2900
  656MOL0     H90467   5.340   9.977   1.549  1.0537 -0.2812 -1.9881
  656MOL0     H90468   5.254  10.135   1.551  0.0783 -1.6056  1.5846
  656MOL0     H90469   5.148  10.045   1.323  0.5405 -0.7475 -1.9064
  656MOL0     H90470   5.122   9.935   1.467  1.0539 -3.4541 -0.9550
  656MOL0     H90471   5.357   9.891   1.293  0.0487  3.0667  0.3949
  656MOL0     H90472   5.271   9.778   1.409 -1.3426 -0.8618 -0.4523
  656MOL0     H90473   5.217   9.700   1.173 -0.7943 -1.7434  0.7910
  656MOL0     H90474   5.149   9.862   1.149 -0.7892  1.0917  0.9174
  656MOL0     H90475   5.069   9.659   1.366  1.7192 -0.6156 -0.3966
  656MOL0     H90476   4.971   9.804   1.324 -0.7382 -0.4713 -0.7639
  656MOL0     H90477   4.840   9.763   1.075 -1.6396  0.7284  0.2481
  656MOL0     H90478   4.734   9.426   0.920 -1.3446 -0.2337  0.5032
  656MOL0     H90479   4.707   9.597   0.901 -1.4004 -1.0968 -1.4121
  656MOL0     H90480   4.577   9.589   1.127  0.5710  0.5587 -1.9621
  656MOL0     H90481   4.496   9.519   0.990  0.9598  2.1391 -0.0504
  656MOL0     H90482   4.622   9.302   1.066 -1.0325  0.3621 -2.1807
  656MOL0     H90483   4.634   9.379   1.218 -1.6290 -0.4827  1.4785
  656MOL0     H90484   4.385   9.286   1.058 -0.7729 -2.8704  0.8537
  656MOL0     H90485   4.442   9.220   1.207  0.7813  1.1848  0.8075
  656MOL0     H90486   4.196   9.582   1.351  0.0686 -0.0794  1.5581
  656MOL0     H90487   3.997   9.675   1.406 -1.0466  0.3769  1.5521
  656MOL0     H90488   3.901   9.560   1.486  0.6601  2.2398  0.7368
  656MOL0     H90489   3.842   9.644   1.333 -0.6000 -0.5607  0.1484
  656MOL0     H90490   3.527   9.257   1.245  6.5404  0.1848  2.7018
  656MOL0     H90491   3.284   9.244   1.328  0.6671  1.7494 -2.7877
  656MOL0     H90492   3.057   9.252   1.463  2.7352  1.1538 -2.3712
  656MOL0     H90493   3.166   9.187   1.576 -1.4030 -0.0188  0.1289
  656MOL0     H90494   2.982   9.221   1.721  0.1330 -0.4604 -0.6532
  656MOL0     H90495   3.079   9.364   1.754 -0.5263 -0.4057  0.3110
  656MOL0     H90496   2.849   9.347   1.561 -0.2111  1.1198 -0.0848
  656MOL0     H90497   2.933   9.498   1.587  1.4508 -0.6882 -2.0548
  656MOL0     H90498   2.870   9.510   1.825 -1.0179  0.4978  1.2093
  656MOL0     H90499   2.806   9.345   1.818 -0.7340 -0.4267 -0.0687
  656MOL0     H90500   2.643   9.537   1.837  0.7221  0.8900 -0.4017
  656MOL0     H90501   2.710   9.601   1.684  2.3148  0.9802  1.3820
  656MOL0     H90502   2.544   9.340   1.734 -1.1136  0.2952  0.7398
  656MOL0     H90503   2.605   9.394   1.576  1.2774 -0.2389  2.2637
  656MOL0     H90504   2.498   9.607   1.605 -2.4875 -1.8087 -3.5371
  656MOL0     H90505   2.403   9.545   1.742 -2.4226  0.4500 -1.7545
  656MOL0     H90506   2.317   9.369   1.579 -1.0730 -0.4955 -0.3467
  656MOL0     H90507   2.404   9.448   1.451  0.4026  0.1983  0.0603
  656MOL0     H90508   3.380   9.506   1.648  1.5425  0.1693  0.5991
  656MOL0     H90509   3.612   9.516   1.582  0.0716  0.7271 -0.2253
  656MOL0     H90510   3.970   9.240   1.069 -0.3334 -0.6252  1.1890
  656MOL0     H90511   4.187   9.258   1.061  2.5101  0.7002  0.4310
  656MOL0     H90512   5.377  10.497   1.430 -0.4670 -0.8373  1.7245
  656MOL0     H90513   5.375  10.708   1.550 -0.8992 -1.6861 -0.7697
  656MOL0     H90514   5.655  11.075   1.684  0.3632  0.7989  0.1152
  656MOL0     H90515   5.669  11.280   1.803 -1.1502  0.0350  0.7522
  656MOL0     H90516   5.659  11.479   1.922 -0.3607 -0.0154 -1.0806
  656MOL0     H90517   5.494  11.425   1.929 -0.1193  1.7251 -1.9273
  656MOL0     H90518   5.628  11.591   2.161  2.1652 -1.4670 -2.2153
  656MOL0     H90519   5.466  11.543   2.161  0.5489 -2.4153  1.3091
  656MOL0     H90520   5.586  11.724   1.944  0.7183  0.7132  0.4761
  656MOL0     H90521   5.418  11.680   1.944 -0.1265  1.5739  0.1289
  656MOL0     H90522   5.397  11.777   2.189  0.4230  0.2963  1.2887
  656MOL0     H90523   5.417  11.888   2.062 -2.5197 -0.1405  2.9351
  656MOL0     H90524   5.746  11.954   2.313  0.6077  1.5688 -2.3250
  656MOL0     H90525   5.604  11.094   2.178 -0.6704 -2.6622 -0.5901
  656MOL0     H90526   5.479  10.806   2.082 -0.3281  2.1292 -1.9372
  656MOL0     H90527   5.648  10.753   2.058 -0.2856  0.7233 -0.5481
  656MOL0     H90528   5.607  10.865   2.197 -0.5694  1.3626 -0.2106
  657MOL0     O90529  11.121  10.342   0.213 -0.3038  0.2503  0.0116
  657MOL0     C90530  11.137  10.368   0.332 -0.1882 -0.2774 -0.3172
  657MOL0     O90531  11.094  10.481   0.397  0.4130  0.1331  0.1356
  657MOL0     C90532  11.038  10.581   0.317  0.6906 -0.3172 -0.2137
  657MOL0     C90533  11.119  10.657   0.236  0.2981  0.6089  0.6827
  657MOL0     C90534  11.060  10.755   0.148  0.0827 -0.2928  0.5284
  657MOL0     C90535  10.919  10.774   0.143 -0.3000  0.1378 -0.3847
  657MOL0     O90536  10.879  10.862   0.046  0.3031 -0.0740  0.3107
  657MOL0     C90537  10.747  10.839   0.006  1.2348 -0.5200  1.4583
  657MOL0     C90538  10.727  10.727  -0.092  0.4706 -0.4634  0.8938
  657MOL0     C90539  10.685  10.772  -0.228  0.9692 -0.2114 -0.8364
  657MOL0     C90540  10.690  10.651  -0.325 -0.4655  0.2906  0.2230
  657MOL0     C90541  10.608  10.681  -0.450 -0.3894 -0.5184  0.5308
  657MOL0     C90542  10.653  10.806  -0.528  0.1028  0.2541  1.0037
  657MOL0     C90543  10.791  10.819  -0.592 -0.8592  0.9254 -0.4823
  657MOL0     C90544  10.798  10.750  -0.721  0.1050  0.6868  0.7205
  657MOL0     N90545  10.928  10.783  -0.793  0.4994 -0.7270 -0.5824
  657MOL0     C90546  10.971  10.916  -0.832  0.3659  0.8613 -0.3503
  657MOL0     C90547  11.094  10.900  -0.889  0.4422 -0.3042  0.2813
  657MOL0     C90548  11.177  11.011  -0.951  0.3021  0.1901  0.1563
  657MOL0     C90549  11.128  11.026  -1.093  0.2255  0.4337  0.7300
  657MOL0     C90550  11.230  11.110  -1.179  0.2110 -0.5082  0.2435
  657MOL0     C90551  11.191  11.117  -1.320  0.2698 -0.2614  0.3369
  657MOL0     O90552  11.216  11.003  -1.409 -0.1114  0.6228 -0.4898
  657MOL0     C90553  11.349  10.973  -1.431  0.4478  0.8660 -0.4162
  657MOL0     C90554  11.390  10.843  -1.416 -0.3520  0.1180  0.0784
  657MOL0     C90555  11.525  10.810  -1.420  0.5205  0.3472  0.0029
  657MOL0     C90556  11.565  10.670  -1.385 -0.6347  0.2076  0.6993
  657MOL0     C90557  11.621  10.899  -1.464  0.2406  0.8128  0.3126
  657MOL0     C90558  11.764  10.867  -1.482  0.1956 -0.3947  0.7708
  657MOL0     O90559  11.828  10.786  -1.390 -0.7408  0.1843 -0.2316
  657MOL0     C90560  11.964  10.756  -1.400  0.6854  0.1396  0.1144
  657MOL0     C90561  12.062  10.835  -1.340  0.3906  0.4763 -0.4872
  657MOL0     C90562  12.200  10.819  -1.366  0.2098 -0.8988  0.9071
  657MOL0     C90563  12.243  10.717  -1.447 -0.1680  0.1641  0.1459
  657MOL0     O90564  12.379  10.695  -1.461 -0.5219  0.2866 -0.4383
  657MOL0     C90565  12.428  10.593  -1.553 -0.2935 -0.4104 -0.2332
  657MOL0     C90566  12.575  10.558  -1.521 -0.2797  0.6530  1.3781
  657MOL0     C90567  12.628  10.451  -1.617 -0.0897  1.2139  0.8475
  657MOL0     C90568  12.767  10.403  -1.570  0.4441  0.0958 -0.0765
  657MOL0     C90569  12.842  10.322  -1.676  1.1804  0.5752  0.6010
  657MOL0     C90570  12.977  10.283  -1.624 -1.0901 -1.1221 -0.2557
  657MOL0     C90571  13.070  10.410  -1.624 -0.5542 -0.2662  0.4541
  657MOL0     C90572  13.214  10.377  -1.656 -0.2620 -0.9872 -0.2088
  657MOL0    Cl90573  13.251  10.312  -1.821 -0.2312 -0.2246 -0.1884
  657MOL0     C90574  12.148  10.635  -1.510  0.3904  0.2576  0.2364
  657MOL0     C90575  12.006  10.653  -1.483 -0.1429 -0.3383  0.5477
  657MOL0     O90576  11.817  10.911  -1.583  0.2852 -0.1707  0.2186
  657MOL0     C90577  11.581  11.028  -1.496  0.0983 -0.3832  0.2310
  657MOL0     C90578  11.449  11.068  -1.480  0.3889 -0.3772 -0.0887
  657MOL0     N90579  11.124  10.761  -0.901  0.4938 -0.1468  0.7924
  657MOL0     N90580  11.019  10.701  -0.855  0.4584 -0.3356 -0.0026
  657MOL0     C90581  10.847  10.685   0.228  0.1477 -0.1252 -0.2793
  657MOL0     C90582  10.902  10.590   0.309  0.5149  0.6227 -0.0468
  657MOL0     C90583  11.221  10.272   0.419 -0.6896  0.9336  0.2209
  657MOL0     C90584  11.280  10.326   0.533 -0.2120 -0.2316 -0.5997
  657MOL0     C90585  11.349  10.244   0.621  1.1567  0.0991  0.0902
  657MOL0     C90586  11.366  10.108   0.599  0.7316  0.3765 -0.0362
  657MOL0     O90587  11.438  10.026   0.688 -0.3477 -0.4233 -0.3148
  657MOL0     C90588  11.451  10.066   0.830  0.3120  0.4015  0.0153
  657MOL0     C90589  11.585  10.124   0.880  0.4188 -0.1771  0.0134
  657MOL0     C90590  11.716  10.055   0.853  0.8312 -0.1589  0.9384
  657MOL0     C90591  11.700   9.906   0.906 -0.9287 -0.4791 -0.0324
  657MOL0     C90592  11.815   9.815   0.875  0.2862 -0.5422 -0.1326
  657MOL0     C90593  11.902   9.732   0.850 -0.1082 -0.0884 -0.7854
  657MOL0     C90594  11.319  10.048   0.484  0.4962 -0.8360  0.0513
  657MOL0     C90595  11.251  10.134   0.391  0.3431 -0.1373 -0.6797
  657MOL0     C90596  11.210  10.078   0.266 -0.4615  0.5366  0.2150
  657MOL0     H90597  11.227  10.644   0.234  0.4667  0.1229  4.6793
  657MOL0     H90598  11.109  10.819   0.075 -1.0875  3.1152  2.5189
  657MOL0     H90599  10.697  10.927  -0.035 -0.3039 -0.7068  2.8280
  657MOL0     H90600  10.679  10.825   0.091 -1.8660 -0.8630 -0.9147
  657MOL0     H90601  10.822  10.674  -0.105  0.9734  0.9980 -2.3856
  657MOL0     H90602  10.645  10.668  -0.050 -0.5029  0.9607  1.0640
  657MOL0     H90603  10.583  10.812  -0.232  0.9578 -0.2725 -1.2074
  657MOL0     H90604  10.757  10.848  -0.260  0.2385  1.4894  1.2898
  657MOL0     H90605  10.792  10.617  -0.349 -1.2482 -1.1705 -1.2492
  657MOL0     H90606  10.650  10.560  -0.281 -1.6383 -0.1524 -1.6329
  657MOL0     H90607  10.501  10.692  -0.430 -0.1951  2.0810  0.4533
  657MOL0     H90608  10.616  10.604  -0.527 -1.9021  0.9649 -1.2286
  657MOL0     H90609  10.585  10.831  -0.610  0.0007  1.0502  1.3154
  657MOL0     H90610  10.627  10.887  -0.459 -1.6819 -0.4914  1.2699
  657MOL0     H90611  10.867  10.785  -0.522 -2.0864 -1.9790 -0.4469
  657MOL0     H90612  10.806  10.927  -0.599 -0.6042  1.0973  1.8792
  657MOL0     H90613  10.784  10.643  -0.699 -1.6771  0.7581  0.1447
  657MOL0     H90614  10.719  10.771  -0.794  1.5782 -2.5447 -2.1385
  657MOL0     H90615  10.927  11.010  -0.802  0.1676  0.1859  1.6114
  657MOL0     H90616  11.279  10.972  -0.956 -0.1243 -0.8592 -0.8436
  657MOL0     H90617  11.189  11.110  -0.907  0.8950 -0.1475  0.7815
  657MOL0     H90618  11.098  10.930  -1.137  0.9107 -0.4436  2.1254
  657MOL0     H90619  11.036  11.085  -1.092 -0.8389 -1.1613  0.4202
  657MOL0     H90620  11.224  11.214  -1.145 -1.2158 -0.0462 -1.3225
  657MOL0     H90621  11.332  11.071  -1.177  1.4974  2.5296 -0.8935
  657MOL0     H90622  11.084  11.141  -1.332  0.3547 -0.4567 -0.9963
  657MOL0     H90623  11.234  11.203  -1.371 -0.4135 -1.5696 -2.6868
  657MOL0     H90624  11.307  10.778  -1.387  0.2188  0.0755  1.7072
  657MOL0     H90625  11.609  10.678  -1.285 -2.7468  1.4603  1.6006
  657MOL0     H90626  11.629  10.624  -1.460 -0.4369  0.3236  0.7977
  657MOL0     H90627  11.483  10.598  -1.387  0.3419 -0.9177 -0.5030
  657MOL0     H90628  12.030  10.916  -1.275  3.1209  1.0459  0.2593
  657MOL0     H90629  12.277  10.886  -1.330 -0.8353  1.1986 -0.5765
  657MOL0     H90630  12.370  10.502  -1.533 -0.1404 -0.2361  1.1259
  657MOL0     H90631  12.423  10.625  -1.657 -0.2533  0.0985 -0.0864
  657MOL0     H90632  12.642  10.644  -1.526  1.0028 -0.3854 -0.2177
  657MOL0     H90633  12.587  10.515  -1.421  2.9283 -1.3780  0.2734
  657MOL0     H90634  12.636  10.506  -1.711 -1.1166 -2.4816 -1.6319
  657MOL0     H90635  12.571  10.361  -1.641 -0.1214  1.8001 -1.5241
  657MOL0     H90636  12.742  10.326  -1.497  4.6834 -1.9946 -0.5692
  657MOL0     H90637  12.823  10.484  -1.522 -1.1474  0.7804  0.7280
  657MOL0     H90638  12.785  10.231  -1.695  1.9224  0.5002 -1.5108
  657MOL0     H90639  12.843  10.378  -1.769 -2.5019  2.4723  1.5196
  657MOL0     H90640  13.018  10.200  -1.682 -2.1508 -1.5648 -0.3967
  657MOL0     H90641  12.964  10.246  -1.522 -5.4441  1.7791  0.5009
  657MOL0     H90642  13.058  10.469  -1.533 -1.0282  1.7421 -0.8436
  657MOL0     H90643  13.038  10.472  -1.709 -2.4956 -2.0690 -0.2121
  657MOL0     H90644  13.250  10.308  -1.579 -1.0132 -1.2254 -0.0608
  657MOL0     H90645  13.267  10.471  -1.642  0.4938 -1.1545 -1.6827
  657MOL0     H90646  12.160  10.557  -1.585 -1.0947 -0.9810  1.2164
  657MOL0     H90647  11.936  10.584  -1.528 -1.5858  0.5709  1.3254
  657MOL0     H90648  11.649  11.105  -1.531  0.9519 -1.0328  0.4256
  657MOL0     H90649  11.428  11.173  -1.499  3.0356  0.8322  2.8773
  657MOL0     H90650  10.739  10.696   0.233  0.3333  1.2247  1.9225
  657MOL0     H90651  10.840  10.520   0.364 -0.3845 -0.8725 -2.7602
  657MOL0     H90652  11.259  10.426   0.569 -0.6938 -0.8758  1.0099
  657MOL0     H90653  11.389  10.289   0.712 -0.1537  2.2256 -0.3032
  657MOL0     H90654  11.374  10.140   0.853 -0.4261  0.2117 -1.7121
  657MOL0     H90655  11.436   9.974   0.888  1.7057  0.4324  0.4498
  657MOL0     H90656  11.562  10.136   0.986 -2.0712 -1.7599 -0.2524
  657MOL0     H90657  11.586  10.227   0.843  0.1239 -0.4217 -0.7015
  657MOL0     H90658  11.725  10.060   0.744 -3.3879 -1.0389  0.3548
  657MOL0     H90659  11.804  10.096   0.903 -0.6128 -0.6629  4.0984
  657MOL0     H90660  11.611   9.864   0.857 -0.3212 -0.2748 -1.3556
  657MOL0     H90661  11.672   9.901   1.011 -0.1583  0.2461  0.2136
  657MOL0     H90662  11.985   9.669   0.824 -0.4192 -2.0064  2.3005
  657MOL0     H90663  11.337   9.944   0.460 -2.3410 -0.7004 -3.5186
  657MOL0     H90664  11.102  10.093   0.257 -0.3413  0.8756 -0.7898
  657MOL0     H90665  11.259  10.143   0.194 -0.6014  0.4424  0.0325
  657MOL0     H90666  11.232   9.975   0.236 -1.3205  0.4438 -0.1313
  658MOL0     O90667   2.892   8.635   0.829  0.5937  0.4894 -0.5468
  658MOL0     C90668   2.844   8.594   0.935  1.1503  1.1450 -0.0855
  658MOL0     O90669   2.722   8.511   0.944 -0.4817 -0.2087  1.1677
  658MOL0     C90670   2.686   8.443   0.834 -0.4822  0.0244 -0.7037
  658MOL0     C90671   2.560   8.456   0.784  0.3516 -0.3428  1.0318
  658MOL0     C90672   2.518   8.394   0.666  0.2731  0.3304  0.6884
  658MOL0     C90673   2.607   8.329   0.583  0.8984 -0.0207  0.6966
  658MOL0     O90674   2.555   8.280   0.466 -0.0839 -0.5000 -0.9023
  658MOL0     C90675   2.653   8.240   0.368  0.4025  0.8235 -0.4721
  658MOL0     C90676   2.573   8.228   0.234 -0.4416  0.3200 -0.7166
  658MOL0     C90677   2.494   8.100   0.229  0.4024 -0.5244  0.2049
  658MOL0     C90678   2.414   8.094   0.095  0.4009  0.1199  0.3724
  658MOL0     C90679   2.350   7.956   0.067 -0.4629 -0.1536  0.2575
  658MOL0     C90680   2.447   7.850   0.020 -0.4335 -0.7964 -0.2895
  658MOL0     C90681   2.409   7.701   0.028  0.3403  0.7153 -1.2662
  658MOL0     C90682   2.341   7.657  -0.101 -0.4549 -0.2666  0.3800
  658MOL0     N90683   2.347   7.520  -0.141 -1.0257 -0.0901 -0.1501
  658MOL0     C90684   2.452   7.453  -0.202 -0.2291  0.3952 -0.2016
  658MOL0     C90685   2.408   7.321  -0.211 -0.6175 -0.9397  0.1471
  658MOL0     C90686   2.473   7.204  -0.287 -0.2892 -0.7146 -0.1150
  658MOL0     C90687   2.610   7.173  -0.241 -0.6036  0.1771  0.7239
  658MOL0     C90688   2.682   7.082  -0.336 -0.7489  0.2740  0.3644
  658MOL0     C90689   2.723   7.151  -0.475 -0.3019  0.2491 -0.3317
  658MOL0     O90690   2.785   7.281  -0.456  0.2955 -0.7565 -0.0813
  658MOL0     C90691   2.914   7.277  -0.414 -0.1062 -0.0264  0.0375
  658MOL0     C90692   3.015   7.215  -0.489 -1.1678  0.2004 -0.8027
  658MOL0     C90693   3.140   7.199  -0.424 -0.4542  0.6401 -0.5054
  658MOL0     C90694   3.249   7.117  -0.501 -0.2602  0.0173  0.1485
  658MOL0     C90695   3.164   7.244  -0.294  0.7284 -0.6362  0.2118
  658MOL0     C90696   3.294   7.232  -0.230 -0.9349 -0.3886 -0.0999
  658MOL0     O90697   3.403   7.226  -0.306 -0.3512 -0.3187 -1.5395
  658MOL0     C90698   3.527   7.224  -0.252  0.0609 -0.1173  0.7722
  658MOL0     C90699   3.603   7.103  -0.237  0.5653  0.5312  0.2045
  658MOL0     C90700   3.731   7.100  -0.188  0.2334  1.1204  0.2325
  658MOL0     C90701   3.791   7.223  -0.161 -0.5180 -0.3181 -0.6049
  658MOL0     O90702   3.916   7.219  -0.101 -0.4879  0.0426 -0.1832
  658MOL0     C90703   4.021   7.294  -0.167  0.4937 -0.0017  0.1193
  658MOL0     C90704   4.096   7.363  -0.044  1.1196 -0.7061 -0.1362
  658MOL0     C90705   4.232   7.291  -0.031  0.7058 -0.3228  0.2263
  658MOL0     C90706   4.338   7.362  -0.116 -0.3951  0.1714 -0.1985
  658MOL0     C90707   4.467   7.288  -0.152 -0.4461  0.3411 -0.2870
  658MOL0     C90708   4.534   7.223  -0.024  0.6098 -0.1037  0.1944
  658MOL0     C90709   4.671   7.162  -0.068 -0.2179 -0.0304  0.2615
  658MOL0     C90710   4.642   7.023  -0.122 -0.4135  0.3307  0.2378
  658MOL0    Cl90711   4.784   6.961  -0.203  0.2195  0.0364 -0.0368
  658MOL0     C90712   3.722   7.342  -0.171  0.1927 -0.9892  0.8439
  658MOL0     C90713   3.591   7.349  -0.224 -0.4239  0.2331 -0.6880
  658MOL0     O90714   3.297   7.238  -0.109 -0.8217  0.5402 -0.0759
  658MOL0     C90715   3.054   7.294  -0.225 -0.0763  1.1164 -0.0692
  658MOL0     C90716   2.940   7.316  -0.289 -0.2084  0.3107  0.9553
  658MOL0     N90717   2.289   7.306  -0.149  0.2001 -0.5372  0.0330
  658MOL0     N90718   2.253   7.420  -0.105  0.3930 -0.4266 -0.4144
  658MOL0     C90719   2.743   8.311   0.632  1.1573 -0.6594 -0.0621
  658MOL0     C90720   2.782   8.375   0.751 -0.2349 -0.1422  0.3168
  658MOL0     C90721   2.904   8.627   1.059 -0.7166  0.0928 -0.0336
  658MOL0     C90722   2.995   8.738   1.064  0.0604  0.2272 -0.0453
  658MOL0     C90723   3.068   8.775   1.178  0.6064 -0.4616 -0.0595
  658MOL0     C90724   3.053   8.707   1.303 -0.8987  0.2335  0.4449
  658MOL0     O90725   3.113   8.747   1.429  0.1887 -0.8404  0.8439
  658MOL0     C90726   3.189   8.871   1.415 -0.1401 -0.2584  0.4654
  658MOL0     C90727   3.337   8.830   1.391  0.1283 -0.2022  0.5893
  658MOL0     C90728   3.439   8.941   1.398 -1.3004 -0.6967 -0.8544
  658MOL0     C90729   3.505   8.970   1.272 -0.4170 -0.2382 -0.3224
  658MOL0     C90730   3.410   9.006   1.171 -0.2475  0.2543  0.5404
  658MOL0     C90731   3.315   9.035   1.099  1.0780  0.0761  0.3300
  658MOL0     C90732   2.967   8.603   1.308  0.0529  0.7785  0.8589
  658MOL0     C90733   2.899   8.558   1.185 -0.5265 -0.1152 -0.3149
  658MOL0     C90734   2.822   8.432   1.203  0.1130 -0.9882  0.1648
  658MOL0     H90735   2.488   8.519   0.835 -0.0588  0.6323 -0.7003
  658MOL0     H90736   2.419   8.415   0.627  1.6439  1.9011 -2.2728
  658MOL0     H90737   2.689   8.139   0.393 -0.1734  0.4112 -1.2677
  658MOL0     H90738   2.736   8.310   0.355 -0.0818  1.8607  1.5858
  658MOL0     H90739   2.504   8.312   0.233 -0.3322  0.4461  0.5296
  658MOL0     H90740   2.645   8.254   0.157  1.3394 -0.8291  0.4696
  658MOL0     H90741   2.558   8.017   0.260 -0.5822 -1.2210  0.4162
  658MOL0     H90742   2.423   8.089   0.312 -0.6217 -0.2733 -0.6087
  658MOL0     H90743   2.339   8.174   0.091  0.9756  0.7206  1.2506
  658MOL0     H90744   2.493   8.112   0.022  0.7985  2.3510  1.2814
  658MOL0     H90745   2.276   7.965  -0.012 -3.0655 -4.2764  1.9043
  658MOL0     H90746   2.303   7.918   0.158  1.3121 -4.2779 -0.3032
  658MOL0     H90747   2.482   7.862  -0.082  0.6004  1.8582  0.2909
  658MOL0     H90748   2.540   7.853   0.077  0.0006 -2.4591 -0.8500
  658MOL0     H90749   2.350   7.681   0.119  1.0425 -0.7667 -1.1036
  658MOL0     H90750   2.497   7.642   0.055 -0.3563 -0.1674 -0.8693
  658MOL0     H90751   2.236   7.687  -0.087 -1.2066 -1.4121 -2.2006
  658MOL0     H90752   2.397   7.715  -0.174 -0.0910  1.9992  2.3347
  658MOL0     H90753   2.547   7.492  -0.237 -0.6384  1.5277 -0.0871
  658MOL0     H90754   2.471   7.233  -0.393 -0.4979 -0.9503 -0.1749
  658MOL0     H90755   2.411   7.114  -0.292  0.6116 -1.3067 -1.2495
  658MOL0     H90756   2.665   7.266  -0.226  1.1230 -0.0130 -3.0505
  658MOL0     H90757   2.607   7.118  -0.147  0.4613  1.0574  1.2991
  658MOL0     H90758   2.767   7.056  -0.272 -4.1064 -0.5573  4.9399
  658MOL0     H90759   2.627   6.987  -0.343 -0.2095 -0.0586  0.4958
  658MOL0     H90760   2.796   7.083  -0.520 -0.8304  0.1228 -1.0118
  658MOL0     H90761   2.633   7.160  -0.538 -1.0718 -1.0847  0.5410
  658MOL0     H90762   3.017   7.178  -0.592  0.9965  2.8401 -1.8319
  658MOL0     H90763   3.306   7.061  -0.426  0.9827  2.1635  0.9138
  658MOL0     H90764   3.302   7.198  -0.553 -0.4438  2.1129  2.9867
  658MOL0     H90765   3.201   7.050  -0.573 -1.8497  0.3633  0.8466
  658MOL0     H90766   3.549   7.015  -0.272  1.4329  0.8967 -2.2041
  658MOL0     H90767   3.780   7.008  -0.159 -3.3932 -0.0727  3.4427
  658MOL0     H90768   4.076   7.229  -0.236  1.1306  0.4058  0.2321
  658MOL0     H90769   3.985   7.376  -0.228 -1.6510  0.6105  2.0951
  658MOL0     H90770   4.112   7.470  -0.061 -0.6074 -0.3438  0.3598
  658MOL0     H90771   4.031   7.352   0.044  1.2943 -0.6751 -0.0026
  658MOL0     H90772   4.231   7.185  -0.058  4.0594 -1.2116  2.9258
  658MOL0     H90773   4.259   7.299   0.074  0.1199  1.8332  0.2639
  658MOL0     H90774   4.364   7.459  -0.074 -0.3380 -0.7982  2.1358
  658MOL0     H90775   4.281   7.380  -0.208  0.7316  0.3687 -0.8843
  658MOL0     H90776   4.439   7.207  -0.221  0.1177  0.7135 -0.9756
  658MOL0     H90777   4.534   7.362  -0.198 -0.5400  1.1161  0.7788
  658MOL0     H90778   4.465   7.145   0.008 -1.4909  0.8779 -1.6534
  658MOL0     H90779   4.543   7.294   0.059  0.1030  1.1008 -0.7487
  658MOL0     H90780   4.738   7.159   0.018 -0.5686  2.1037  0.6734
  658MOL0     H90781   4.723   7.219  -0.146  0.4822  0.1700  0.8609
  658MOL0     H90782   4.555   7.033  -0.187 -0.5642  0.1267  0.4051
  658MOL0     H90783   4.618   6.962  -0.034 -0.0386  2.4211  1.8849
  658MOL0     H90784   3.774   7.435  -0.148  0.2390 -0.6867 -0.4083
  658MOL0     H90785   3.519   7.430  -0.234  1.5007  1.9985 -1.1502
  658MOL0     H90786   3.044   7.308  -0.118 -4.7364 -0.8512  0.0091
  658MOL0     H90787   2.863   7.371  -0.235  0.4559  1.9238  0.3489
  658MOL0     H90788   2.820   8.255   0.581  0.3591 -1.4347 -0.4276
  658MOL0     H90789   2.889   8.358   0.761 -0.4569 -0.9832  1.6597
  658MOL0     H90790   3.016   8.791   0.971 -2.3849 -1.6490 -1.8249
  658MOL0     H90791   3.148   8.848   1.167  3.2797 -3.4820 -3.4906
  658MOL0     H90792   3.162   8.947   1.340  2.0777 -1.1692 -1.3870
  658MOL0     H90793   3.176   8.921   1.511  0.8098 -0.8946  0.9433
  658MOL0     H90794   3.336   8.765   1.303 -1.8088  2.8532 -1.8665
  658MOL0     H90795   3.374   8.765   1.470  1.2553 -0.3399 -0.0294
  658MOL0     H90796   3.402   9.039   1.430  0.1813 -0.7273  1.1589
  658MOL0     H90797   3.514   8.934   1.477 -0.2396  2.9469 -1.3271
  658MOL0     H90798   3.570   8.884   1.248 -1.5512 -1.3798  0.5550
  658MOL0     H90799   3.574   9.053   1.288  1.8333 -2.2164  1.1065
  658MOL0     H90800   3.240   9.082   1.038 -0.6403 -1.3092  1.2467
  658MOL0     H90801   2.949   8.558   1.405 -0.1781  0.5951  0.7282
  658MOL0     H90802   2.833   8.364   1.118 -1.2264 -1.1387  0.0870
  658MOL0     H90803   2.848   8.381   1.296  1.7137  0.2199  0.4152
  658MOL0     H90804   2.717   8.461   1.190  0.5304 -0.3808 -2.5878
  659MOL0     O90805  10.181   8.069   3.997 -0.0750  0.8108  0.5028
  659MOL0     C90806  10.112   8.149   4.057  0.5647  0.1772 -0.6116
  659MOL0     O90807  10.015   8.225   4.003  0.1123 -0.0558 -0.1739
  659MOL0     C90808   9.985   8.209   3.875  0.2237  0.6152 -0.4116
  659MOL0     C90809  10.022   8.312   3.790  0.6918 -0.0110 -0.3066
  659MOL0     C90810   9.981   8.313   3.660 -0.0731 -0.6413  0.1390
  659MOL0     C90811   9.888   8.220   3.610 -0.1821 -0.3624 -0.1049
  659MOL0     O90812   9.851   8.221   3.477  0.7490 -0.0433 -1.0319
  659MOL0     C90813   9.770   8.123   3.416  0.3667 -0.1051 -0.3068
  659MOL0     C90814   9.767   8.149   3.269  0.1434 -1.3095  0.1366
  659MOL0     C90815   9.895   8.110   3.204  0.2614  0.9458  0.8513
  659MOL0     C90816   9.871   8.080   3.053 -1.8059  0.5245 -0.8126
  659MOL0     C90817   9.813   7.941   3.019  0.0302  0.4154  0.2525
  659MOL0     C90818   9.866   7.831   3.114 -0.5433  0.2674 -0.0075
  659MOL0     C90819   9.806   7.695   3.087  0.6076 -0.2411  0.3547
  659MOL0     C90820   9.868   7.589   3.172  0.2806  0.5989  0.8967
  659MOL0     N90821   9.791   7.466   3.169  0.0730 -0.5797 -0.4261
  659MOL0     C90822   9.652   7.449   3.175 -0.4059 -0.5612  0.2855
  659MOL0     C90823   9.627   7.319   3.159 -0.3892  0.1123  0.2873
  659MOL0     C90824   9.497   7.254   3.182  0.2516  0.4484  0.2647
  659MOL0     C90825   9.407   7.222   3.055  0.4315 -0.0276  0.1883
  659MOL0     C90826   9.283   7.127   3.089 -0.4678 -0.4331 -0.4088
  659MOL0     C90827   9.216   7.079   2.962 -0.2398  0.4835  0.0261
  659MOL0     O90828   9.269   6.957   2.912  0.4988  0.3998  0.4454
  659MOL0     C90829   9.215   6.840   2.957 -0.3765 -0.7685 -0.9264
  659MOL0     C90830   9.083   6.811   2.931  0.9311  0.3890  1.0227
  659MOL0     C90831   9.013   6.692   2.969 -0.0632  0.3940  0.0340
  659MOL0     C90832   8.878   6.684   2.909  0.5783  0.7490 -0.0873
  659MOL0     C90833   9.090   6.594   3.039  0.4833  0.4202  0.5889
  659MOL0     C90834   9.023   6.470   3.083  0.4578  0.3931 -0.0597
  659MOL0     O90835   9.102   6.361   3.108  0.1302  0.0774 -0.9192
  659MOL0     C90836   9.034   6.253   3.160 -0.2016 -0.1141  0.2115
  659MOL0     C90837   8.984   6.157   3.083  0.3057  0.2063  0.1276
  659MOL0     C90838   8.904   6.050   3.130  0.5973  0.7438  0.1726
  659MOL0     C90839   8.882   6.038   3.270  0.1934  0.1143 -0.5879
  659MOL0     O90840   8.809   5.933   3.317  0.7602  0.2258  0.1051
  659MOL0     C90841   8.763   5.929   3.450  0.7036  0.5529  0.3958
  659MOL0     C90842   8.692   5.798   3.474  0.2800  0.3957 -0.1286
  659MOL0     C90843   8.660   5.771   3.618  0.0335  0.6365 -0.9205
  659MOL0     C90844   8.512   5.787   3.667 -0.5211  0.5360 -0.3286
  659MOL0     C90845   8.462   5.930   3.641 -0.6036  0.1394 -0.1378
  659MOL0     C90846   8.344   5.950   3.733  0.2369  1.1613  0.3641
  659MOL0     C90847   8.282   6.081   3.726  0.4418 -1.4255  0.5228
  659MOL0     C90848   8.183   6.089   3.839 -0.5393 -0.0736 -0.6767
  659MOL0    Cl90849   8.159   6.265   3.869 -0.5857 -0.0701  0.6529
  659MOL0     C90850   8.946   6.131   3.352  1.1011  0.1108 -0.1677
  659MOL0     C90851   9.011   6.243   3.301 -0.2133  0.2473  0.2757
  659MOL0     O90852   8.900   6.473   3.096  0.5212 -0.3591 -0.4963
  659MOL0     C90853   9.230   6.625   3.063 -0.4797  0.6899  0.1881
  659MOL0     C90854   9.296   6.746   3.019  0.2759 -0.9290 -0.4272
  659MOL0     N90855   9.755   7.268   3.127 -0.4502 -0.0710  0.1070
  659MOL0     N90856   9.850   7.352   3.143  0.9810  0.4832  0.3483
  659MOL0     C90857   9.855   8.114   3.689 -0.1596  0.0470 -1.3114
  659MOL0     C90858   9.903   8.105   3.828 -0.3746  0.1808  0.3293
  659MOL0     C90859  10.126   8.165   4.205  0.0427  0.2925  0.4689
  659MOL0     C90860  10.028   8.240   4.274 -0.1899 -0.9111  0.4582
  659MOL0     C90861  10.037   8.261   4.409  0.6084  0.6135  0.4835
  659MOL0     C90862  10.132   8.194   4.483 -0.7112  0.5126 -0.0178
  659MOL0     O90863  10.107   8.200   4.616 -0.9868 -0.3790 -0.2361
  659MOL0     C90864  10.176   8.102   4.692  0.1187  0.5399 -0.0573
  659MOL0     C90865  10.107   8.085   4.832 -0.4328 -1.4458  0.3686
  659MOL0     C90866   9.965   8.022   4.824  0.1009 -1.2855  0.1497
  659MOL0     C90867   9.910   8.012   4.966  0.5124 -0.1439 -0.2750
  659MOL0     C90868   9.901   8.139   5.051 -0.0313  0.3042  0.0733
  659MOL0     C90869   9.901   8.232   5.127  0.4770 -0.6395  0.0720
  659MOL0     C90870  10.233   8.117   4.419 -0.4693 -0.4691  0.5194
  659MOL0     C90871  10.238   8.105   4.276 -0.4658  0.2415 -0.0571
  659MOL0     C90872  10.354   8.024   4.220  0.8111 -1.3816  0.1973
  659MOL0     H90873  10.089   8.386   3.832 -0.3285 -0.2592  1.9367
  659MOL0     H90874  10.032   8.384   3.596  0.0431 -2.8446 -2.3762
  659MOL0     H90875   9.670   8.140   3.457  0.6793 -2.4137  1.5943
  659MOL0     H90876   9.794   8.018   3.433 -0.9021 -0.7806 -2.3476
  659MOL0     H90877   9.684   8.099   3.219 -0.9536 -1.0377  1.6291
  659MOL0     H90878   9.743   8.255   3.257 -0.9069 -1.7143 -1.7965
  659MOL0     H90879   9.957   8.198   3.221  1.6392 -0.5245  4.5708
  659MOL0     H90880   9.940   8.028   3.260 -0.2655 -0.1720 -0.3084
  659MOL0     H90881   9.796   8.151   3.015 -1.6944  1.4968  0.6720
  659MOL0     H90882   9.968   8.095   3.005 -0.4966  3.3448  2.3223
  659MOL0     H90883   9.823   7.921   2.912 -1.4013  3.6284 -0.6000
  659MOL0     H90884   9.704   7.948   3.030 -0.5111 -1.1301 -2.8557
  659MOL0     H90885   9.974   7.819   3.101 -0.4571  0.8992  0.0592
  659MOL0     H90886   9.847   7.844   3.221  0.3179 -1.1727  0.3480
  659MOL0     H90887   9.814   7.677   2.979  0.9596 -1.0476  0.5029
  659MOL0     H90888   9.698   7.694   3.102  0.3696  0.1620 -1.1431
  659MOL0     H90889   9.966   7.565   3.132 -0.3455 -0.7900  0.1286
  659MOL0     H90890   9.889   7.624   3.273 -1.7819 -0.1411  1.6456
  659MOL0     H90891   9.582   7.526   3.208 -1.5543 -1.2827 -0.4036
  659MOL0     H90892   9.447   7.318   3.255  0.9029  1.9832 -0.5891
  659MOL0     H90893   9.519   7.159   3.232  3.8152  1.1586  0.3525
  659MOL0     H90894   9.375   7.316   3.009 -1.5113 -0.6121  0.2290
  659MOL0     H90895   9.460   7.159   2.983 -1.4564 -0.1198 -1.1917
  659MOL0     H90896   9.319   7.045   3.151  0.3269  0.1080 -0.1442
  659MOL0     H90897   9.211   7.197   3.132  1.7668  3.4138 -2.3903
  659MOL0     H90898   9.109   7.074   2.985  0.1572 -0.3892  1.9397
  659MOL0     H90899   9.231   7.159   2.890  2.4868 -1.1896 -1.4411
  659MOL0     H90900   9.023   6.893   2.890  1.2904 -0.4487 -1.3459
  659MOL0     H90901   8.877   6.612   2.826  3.2689 -1.0417  1.2836
  659MOL0     H90902   8.845   6.782   2.875  1.0577  1.7356  2.1220
  659MOL0     H90903   8.814   6.647   2.989 -0.9220 -0.2123 -1.6606
  659MOL0     H90904   9.002   6.167   2.976 -2.5092  1.6275 -0.3230
  659MOL0     H90905   8.882   5.974   3.056 -0.5762  1.4408 -0.2153
  659MOL0     H90906   8.844   5.933   3.523  0.1501 -5.4947  1.8490
  659MOL0     H90907   8.691   6.010   3.470  1.6168  2.3034 -2.7796
  659MOL0     H90908   8.600   5.799   3.415 -0.1556  0.5661  0.5449
  659MOL0     H90909   8.756   5.717   3.435  2.5344  2.5646 -1.2065
  659MOL0     H90910   8.738   5.820   3.678 -0.8078 -0.7780  1.5014
  659MOL0     H90911   8.683   5.665   3.630  0.1863  0.7972  0.3447
  659MOL0     H90912   8.514   5.765   3.774  0.9153 -2.9495 -0.9204
  659MOL0     H90913   8.452   5.703   3.630  0.4637 -0.3306 -0.0167
  659MOL0     H90914   8.542   6.003   3.655 -0.0380  0.2255 -3.0291
  659MOL0     H90915   8.424   5.927   3.538 -0.3907  0.6958 -0.2315
  659MOL0     H90916   8.372   5.911   3.831 -1.0551  0.3754  0.4380
  659MOL0     H90917   8.268   5.877   3.703  0.7561  0.6136  0.3335
  659MOL0     H90918   8.227   6.102   3.634  1.8873  2.5522  0.3190
  659MOL0     H90919   8.359   6.158   3.739  0.8323 -1.5621 -0.7956
  659MOL0     H90920   8.218   6.040   3.930  0.1840  0.8399 -0.4528
  659MOL0     H90921   8.085   6.045   3.819 -1.0407  0.2852  0.8151
  659MOL0     H90922   8.940   6.113   3.459 -0.7004  4.6189  0.7100
  659MOL0     H90923   9.036   6.322   3.371 -0.0588  0.5001 -0.0577
  659MOL0     H90924   9.300   6.567   3.122  0.4839  3.4239  1.9482
  659MOL0     H90925   9.400   6.771   3.035 -0.4872  1.3094  1.7615
  659MOL0     H90926   9.789   8.035   3.658 -3.3244  2.1578 -0.4471
  659MOL0     H90927   9.874   8.029   3.899 -1.2854  2.0813  2.0896
  659MOL0     H90928   9.943   8.289   4.226 -0.0458 -0.0518  1.0596
  659MOL0     H90929   9.962   8.324   4.457 -2.4664 -3.6106  1.7999
  659MOL0     H90930  10.160   8.006   4.641  0.4462 -0.0958  1.0028
  659MOL0     H90931  10.279   8.137   4.703  0.0196  0.6118  0.6787
  659MOL0     H90932  10.095   8.186   4.871  0.8185 -0.1463 -2.3574
  659MOL0     H90933  10.175   8.028   4.896  0.0008 -0.6461  0.6210
  659MOL0     H90934   9.901   8.089   4.766  0.7861 -1.7531 -1.1785
  659MOL0     H90935   9.961   7.924   4.776 -3.8930 -1.7946  1.1613
  659MOL0     H90936   9.956   7.926   5.013 -1.5124 -3.0965 -3.2354
  659MOL0     H90937   9.805   7.983   4.960 -0.0080  1.6796 -0.6391
  659MOL0     H90938   9.894   8.314   5.195 -0.1904  0.1182 -0.8797
  659MOL0     H90939  10.309   8.080   4.486  1.5120  2.0047 -0.1996
  659MOL0     H90940  10.427   7.997   4.297  0.8590 -0.1741  0.5979
  659MOL0     H90941  10.328   7.928   4.174  1.0443 -1.0082 -0.7460
  659MOL0     H90942  10.394   8.086   4.140 -1.0661  0.1596  0.3670
  660MOL0     O90943   9.798  10.321   9.648 -0.0664  0.2566 -0.0372
  660MOL0     C90944   9.678  10.302   9.640  0.3526 -0.0385 -0.5057
  660MOL0     O90945   9.622  10.197   9.577 -0.8912 -0.1903  0.3254
  660MOL0     C90946   9.714  10.101   9.524  0.4238 -0.3494  0.6055
  660MOL0     C90947   9.783  10.121   9.403  0.5027 -0.9360 -0.0485
  660MOL0     C90948   9.859  10.015   9.348 -0.5230 -0.2066  0.6743
  660MOL0     C90949   9.890   9.903   9.425  0.0275  0.2083 -0.1150
  660MOL0     O90950   9.985   9.825   9.369  0.7538 -0.1621 -0.0391
  660MOL0     C90951  10.000   9.693   9.414 -0.1250  0.3194  0.7489
  660MOL0     C90952  10.130   9.669   9.488  0.1125  0.7250  0.8184
  660MOL0     C90953  10.246   9.681   9.400 -1.1583  0.2429  0.9598
  660MOL0     C90954  10.254   9.578   9.285 -0.2974 -0.3701 -0.1417
  660MOL0     C90955  10.383   9.559   9.215 -0.1718 -0.1568 -0.1776
  660MOL0     C90956  10.373   9.475   9.095  0.5163  0.1133  0.2363
  660MOL0     C90957  10.517   9.458   9.043 -0.1801  0.0551  0.2679
  660MOL0     C90958  10.523   9.380   8.904 -0.5762 -0.7640 -0.5075
  660MOL0     N90959  10.662   9.369   8.857 -0.1037  0.4248  0.3370
  660MOL0     C90960  10.756   9.297   8.918 -0.1213 -0.4576 -0.7479
  660MOL0     C90961  10.868   9.319   8.855  0.6828  0.0997 -1.0375
  660MOL0     C90962  11.001   9.256   8.879  0.0181 -1.3664  0.4077
  660MOL0     C90963  11.107   9.358   8.888  0.0545  1.0327 -0.9488
  660MOL0     C90964  11.245   9.290   8.873  0.4573 -0.4962 -0.5902
  660MOL0     C90965  11.357   9.392   8.899  0.2089  0.1183 -0.0337
  660MOL0     O90966  11.486   9.334   8.885 -0.4057 -0.5449 -0.0097
  660MOL0     C90967  11.599   9.419   8.907  0.2624  0.4153  0.1172
  660MOL0     C90968  11.614   9.550   8.957 -0.7884  0.1834 -0.4815
  660MOL0     C90969  11.740   9.614   8.973  0.3721 -0.2112  0.0462
  660MOL0     C90970  11.745   9.749   9.042  0.4148  0.2517 -0.0572
  660MOL0     C90971  11.856   9.551   8.926  1.3144  0.4763  0.4537
  660MOL0     C90972  11.991   9.610   8.935  1.2246  0.6427  0.2539
  660MOL0     O90973  12.069   9.575   8.835 -0.4333  0.4295  0.1674
  660MOL0     C90974  12.196   9.621   8.828 -1.0669 -0.1876 -0.5086
  660MOL0     C90975  12.298   9.527   8.804 -0.5411  0.0077 -0.4224
  660MOL0     C90976  12.430   9.566   8.778 -0.2542  0.1287 -0.0893
  660MOL0     C90977  12.468   9.701   8.786 -0.0418  0.3033 -0.0924
  660MOL0     O90978  12.599   9.737   8.763 -0.0497  0.7066  0.1271
  660MOL0     C90979  12.633   9.878   8.778  0.4364  0.5011 -0.4032
  660MOL0     C90980  12.779   9.892   8.763  0.2320  0.2074 -0.6442
  660MOL0     C90981  12.821   9.875   8.621 -0.5400 -0.1465  0.8450
  660MOL0     C90982  12.839  10.010   8.544  0.1237  0.0573  1.0433
  660MOL0     C90983  12.847   9.979   8.387 -0.1487  0.6687 -0.2172
  660MOL0     C90984  12.873  10.107   8.308  0.3119  0.0445 -0.5119
  660MOL0     C90985  12.912  10.068   8.164 -0.1688 -0.8075  0.4892
  660MOL0     C90986  12.853  10.184   8.083  0.1973 -0.5605 -0.3495
  660MOL0    Cl90987  12.902  10.180   7.903 -0.1415  0.2095 -0.0020
  660MOL0     C90988  12.357   9.793   8.808 -0.5517  0.1150 -0.4592
  660MOL0     C90989  12.224   9.760   8.824 -0.4704  0.0204  0.3894
  660MOL0     O90990  12.019   9.667   9.043 -0.3309  0.3769 -0.3476
  660MOL0     C90991  11.839   9.424   8.868 -1.0321  0.0551  0.0887
  660MOL0     C90992  11.715   9.358   8.864 -0.1737  0.3865  0.9734
  660MOL0     N90993  10.836   9.399   8.744 -0.2760  0.2353  0.3112
  660MOL0     N90994  10.708   9.415   8.742  0.3616  0.0249 -0.1625
  660MOL0     C90995   9.827   9.887   9.549 -0.4402  0.0734 -0.9384
  660MOL0     C90996   9.730   9.979   9.593  0.4903 -0.3892  0.4272
  660MOL0     C90997   9.592  10.403   9.700  0.0193  0.8525 -0.5203
  660MOL0     C90998   9.528  10.486   9.605  1.2065 -0.0235 -0.2597
  660MOL0     C90999   9.429  10.576   9.660 -0.2566 -0.1462  0.3696
  660MOL0     C91000   9.401  10.577   9.800  0.2584 -0.3119  0.2252
  660MOL0     O91001   9.305  10.672   9.840  0.1967 -0.2459 -0.2167
  660MOL0     C91002   9.271  10.674   9.981  0.7142  0.4685  0.0350
  660MOL0     C91003   9.150  10.766   9.987  0.0790  0.7871  0.7717
  660MOL0     C91004   9.017  10.688   9.971 -0.1777 -0.2483 -0.0889
  660MOL0     C91005   8.897  10.781   9.974 -0.7184  0.8108  0.4294
  660MOL0     C91006   8.780  10.703   9.989  0.2607  0.2522 -0.0342
  660MOL0     C91007   8.684  10.619  10.005  0.1336 -0.9845  0.6426
  660MOL0     C91008   9.482  10.508   9.892  0.8070  0.4357 -1.2753
  660MOL0     C91009   9.577  10.419   9.840  0.8305  0.1197  0.6900
  660MOL0     C91010   9.670  10.341   9.928 -0.5410 -0.6626  0.0225
  660MOL0     H91011   9.778  10.217   9.353  2.2263  0.3953  2.1728
  660MOL0     H91012   9.926  10.024   9.263  0.8951 -0.4879  1.7177
  660MOL0     H91013   9.996   9.635   9.321  1.0367  2.9114 -1.0319
  660MOL0     H91014   9.916   9.663   9.478 -0.7856  0.7870  0.1251
  660MOL0     H91015  10.122   9.743   9.568 -1.1342  0.5197  0.9097
  660MOL0     H91016  10.127   9.572   9.538 -0.6588  1.8678  3.1470
  660MOL0     H91017  10.245   9.782   9.357  2.3477  0.1207  0.3349
  660MOL0     H91018  10.340   9.684   9.455  1.7699 -0.5895 -3.4853
  660MOL0     H91019  10.214   9.485   9.327 -1.4015  0.0408 -0.2441
  660MOL0     H91020  10.179   9.615   9.214 -3.4507 -3.6327  1.1994
  660MOL0     H91021  10.461   9.519   9.280 -1.6119 -2.4573  0.2272
  660MOL0     H91022  10.411   9.660   9.182  0.2191 -0.4721 -0.8451
  660MOL0     H91023  10.325   9.381   9.122 -3.5002  1.1642 -2.3501
  660MOL0     H91024  10.312   9.518   9.015  2.0177  0.9549 -0.5197
  660MOL0     H91025  10.572   9.399   9.118 -0.4369 -2.1033 -1.1642
  660MOL0     H91026  10.565   9.556   9.032  1.0939 -0.5957 -0.1761
  660MOL0     H91027  10.486   9.278   8.918  0.8385 -1.4188 -1.3219
  660MOL0     H91028  10.461   9.433   8.831  1.8734 -0.4238 -2.4634
  660MOL0     H91029  10.739   9.236   9.006 -3.0479  0.6565 -0.4184
  660MOL0     H91030  11.019   9.198   8.788  2.4747  0.2210 -0.1929
  660MOL0     H91031  10.994   9.191   8.967 -2.8079 -0.7651  0.7485
  660MOL0     H91032  11.094   9.415   8.796 -1.1454  0.9414 -0.8458
  660MOL0     H91033  11.096   9.420   8.978 -0.4252 -1.5907  0.9448
  660MOL0     H91034  11.263   9.200   8.933  3.5306 -0.0918 -0.7167
  660MOL0     H91035  11.245   9.256   8.769  0.3467  1.2297 -1.1992
  660MOL0     H91036  11.346   9.465   8.818  0.1317 -0.8326 -0.8955
  660MOL0     H91037  11.342   9.437   8.998  0.4230  1.0607 -0.4216
  660MOL0     H91038  11.530   9.608   8.994  0.4787 -0.0704  3.1779
  660MOL0     H91039  11.805   9.822   8.987 -1.5711 -0.0487 -2.8311
  660MOL0     H91040  11.779   9.725   9.144  4.4124  0.5082 -1.1472
  660MOL0     H91041  11.644   9.790   9.046  0.0579 -0.5380 -0.7732
  660MOL0     H91042  12.258   9.426   8.811  0.0865 -0.3332 -1.4379
  660MOL0     H91043  12.505   9.487   8.775  1.8517  2.0548 -1.7937
  660MOL0     H91044  12.583   9.932   8.697  0.3501 -1.8923 -2.0646
  660MOL0     H91045  12.600   9.926   8.871 -0.4159 -0.3454 -0.2623
  660MOL0     H91046  12.812   9.993   8.786  1.0027 -0.0051 -0.7726
  660MOL0     H91047  12.836   9.817   8.818 -0.9051 -0.7410 -0.7102
  660MOL0     H91048  12.732   9.838   8.570 -1.3558 -0.0901  2.1688
  660MOL0     H91049  12.906   9.807   8.610  0.7417  1.4397  0.5661
  660MOL0     H91050  12.933  10.059   8.573  1.3632 -1.1794 -0.6523
  660MOL0     H91051  12.751  10.072   8.565  1.1341  1.4892  1.2541
  660MOL0     H91052  12.932   9.911   8.376  0.2363  1.1044  0.0419
  660MOL0     H91053  12.756   9.935   8.345 -0.1184 -0.6057  1.0180
  660MOL0     H91054  12.956  10.163   8.353 -2.4725  5.5950 -1.4370
  660MOL0     H91055  12.778  10.161   8.313  0.2636  0.1864 -2.4079
  660MOL0     H91056  12.883   9.969   8.126 -0.7764 -0.1909 -0.6969
  660MOL0     H91057  13.021  10.078   8.160 -0.2391 -0.0210  0.5421
  660MOL0     H91058  12.873  10.280   8.132 -0.8975 -0.9233  0.8422
  660MOL0     H91059  12.745  10.174   8.083  0.2748 -1.4940 -0.8400
  660MOL0     H91060  12.383   9.898   8.814  0.9299 -0.2436 -0.0492
  660MOL0     H91061  12.139   9.826   8.813 -2.7378 -2.8270 -0.6978
  660MOL0     H91062  11.927   9.372   8.831 -0.9403 -0.5752  1.1599
  660MOL0     H91063  11.718   9.255   8.828  1.3502 -0.2775  2.8420
  660MOL0     H91064   9.842   9.793   9.601 -3.1397  0.4229  0.6074
  660MOL0     H91065   9.691   9.957   9.692 -1.1729  1.1353  0.1571
  660MOL0     H91066   9.523  10.486   9.496  1.9501 -2.9368 -0.3929
  660MOL0     H91067   9.378  10.639   9.588  1.3220 -1.3261 -1.8787
  660MOL0     H91068   9.249  10.576  10.024 -1.3326  1.4326  1.3690
  660MOL0     H91069   9.354  10.723  10.034  0.1834  3.5005 -1.6965
  660MOL0     H91070   9.156  10.835   9.902 -1.8608 -3.7168 -3.5323
  660MOL0     H91071   9.152  10.821  10.081  1.1609  1.7089  0.2405
  660MOL0     H91072   9.017  10.650   9.868  2.3228 -1.9183  0.4463
  660MOL0     H91073   9.010  10.600  10.034  1.5923 -1.3179 -1.2917
  660MOL0     H91074   8.880  10.842   9.885  1.4992  1.3058  0.3088
  660MOL0     H91075   8.916  10.852  10.055  2.4244 -0.6546  1.1027
  660MOL0     H91076   8.605  10.547  10.002  0.1189 -0.9855  1.0105
  660MOL0     H91077   9.474  10.528   9.999  2.0531  2.4431 -1.5108
  660MOL0     H91078   9.664  10.234   9.908  1.1597 -0.2098 -3.6733
  660MOL0     H91079   9.775  10.368   9.914 -0.4357  0.0304  1.9341
  660MOL0     H91080   9.638  10.361  10.031  0.0384 -1.0424  0.2850
  661MOL0     O91081   1.881   1.668   6.291  0.4755 -0.1907  0.2893
  661MOL0     C91082   1.798   1.722   6.360  0.0650 -0.2031  0.2241
  661MOL0     O91083   1.818   1.806   6.462  0.2140  0.0128 -0.3869
  661MOL0     C91084   1.939   1.870   6.490 -0.5141 -0.1539  0.4276
  661MOL0     C91085   1.965   1.907   6.623  0.3654 -0.8651  0.6790
  661MOL0     C91086   2.084   1.971   6.660 -0.8306 -1.4419  0.0783
  661MOL0     C91087   2.172   2.020   6.558 -0.3472 -0.1727 -0.9958
  661MOL0     O91088   2.287   2.091   6.582  0.1070 -0.3326  0.3364
  661MOL0     C91089   2.407   2.022   6.630 -0.5452  0.7552 -0.0009
  661MOL0     C91090   2.518   2.016   6.532  0.4530 -0.8619  0.2742
  661MOL0     C91091   2.641   1.956   6.605 -0.2525  0.7951 -0.0498
  661MOL0     C91092   2.663   1.812   6.584  0.5334  0.3033 -0.0372
  661MOL0     C91093   2.809   1.778   6.539 -0.1003 -0.3168  0.5072
  661MOL0     C91094   2.835   1.793   6.390  0.4095  0.2770  0.7662
  661MOL0     C91095   2.981   1.762   6.346  0.7463 -0.3299  0.0308
  661MOL0     C91096   3.028   1.781   6.207  0.0418 -0.2554  0.2218
  661MOL0     N91097   3.168   1.739   6.192  0.2120 -0.1650 -0.6411
  661MOL0     C91098   3.277   1.786   6.269 -0.2691  0.0058 -0.1078
  661MOL0     C91099   3.378   1.702   6.224  0.5776  0.4437  0.0391
  661MOL0     C91100   3.525   1.718   6.257  0.4344  0.2161 -0.1093
  661MOL0     C91101   3.587   1.851   6.195  0.2063 -0.1811  0.3952
  661MOL0     C91102   3.725   1.891   6.258  0.3345 -0.2258  0.2330
  661MOL0     C91103   3.804   2.007   6.188 -1.2628  0.4008  0.3085
  661MOL0     O91104   3.949   1.996   6.213 -0.4860  0.3958 -0.2301
  661MOL0     C91105   3.996   1.999   6.341 -0.3941  0.3354 -0.4988
  661MOL0     C91106   3.927   2.052   6.456 -0.4469  0.7327  0.0642
  661MOL0     C91107   3.977   2.061   6.585  0.4234  1.0903  0.5692
  661MOL0     C91108   3.889   2.103   6.686  0.3951  0.4128 -0.4210
  661MOL0     C91109   4.114   2.027   6.599 -0.2674  1.0479  0.7355
  661MOL0     C91110   4.194   2.042   6.723 -0.0214  0.3094 -0.4492
  661MOL0     O91111   4.328   2.074   6.716 -1.0532  0.3264  0.0152
  661MOL0     C91112   4.414   2.049   6.821  0.1621  0.2769  0.4282
  661MOL0     C91113   4.519   2.138   6.856  0.3207 -0.8762 -0.5772
  661MOL0     C91114   4.615   2.095   6.952  0.0999 -0.6884 -0.2204
  661MOL0     C91115   4.630   1.958   6.995  0.5022  0.2575  0.4730
  661MOL0     O91116   4.742   1.902   7.052 -0.6154 -0.3573  0.1354
  661MOL0     C91117   4.854   1.984   7.100 -0.8780  0.3304  0.6754
  661MOL0     C91118   4.820   2.062   7.232 -0.5049  0.5769  1.2122
  661MOL0     C91119   4.949   2.155   7.268  0.3548  0.7234  0.6056
  661MOL0     C91120   5.067   2.077   7.322  0.0376 -0.2027  0.8711
  661MOL0     C91121   5.195   2.159   7.330  0.5561  0.0785 -0.2556
  661MOL0     C91122   5.210   2.268   7.440 -0.2176 -0.5804  0.0410
  661MOL0     C91123   5.326   2.361   7.415 -0.0276 -0.2907 -0.1346
  661MOL0     C91124   5.468   2.300   7.397 -0.5697 -0.8872 -0.3960
  661MOL0    Cl91125   5.585   2.439   7.360  0.3034 -0.1012 -0.2216
  661MOL0     C91126   4.524   1.876   6.957 -0.1780  0.2583 -0.1553
  661MOL0     C91127   4.416   1.922   6.879 -0.9518 -0.4443 -0.3223
  661MOL0     O91128   4.130   2.018   6.831 -1.5087  0.0547 -0.0694
  661MOL0     C91129   4.187   1.970   6.485  0.4735 -0.5784 -0.5317
  661MOL0     C91130   4.133   1.962   6.361  0.4754  0.3547  0.1029
  661MOL0     N91131   3.336   1.591   6.148  0.4462  0.4803  0.9645
  661MOL0     N91132   3.211   1.630   6.128  0.2503 -0.2648 -0.4023
  661MOL0     C91133   2.146   1.996   6.426 -0.7681  0.3211  0.1706
  661MOL0     C91134   2.035   1.917   6.391  0.5922 -0.2116 -0.4418
  661MOL0     C91135   1.652   1.689   6.339  0.3453 -0.2114  0.5917
  661MOL0     C91136   1.559   1.729   6.431  0.3672 -0.0084  0.6040
  661MOL0     C91137   1.429   1.705   6.407  0.5086 -0.8368  0.4801
  661MOL0     C91138   1.374   1.648   6.290 -0.0207  0.9425  0.1853
  661MOL0     O91139   1.237   1.625   6.291  0.2656 -0.5382  0.5230
  661MOL0     C91140   1.158   1.629   6.167 -1.0943  0.9172 -0.6687
  661MOL0     C91141   1.112   1.482   6.145 -0.2750 -1.1236  0.1128
  661MOL0     C91142   1.017   1.419   6.244  1.5312 -0.4262 -0.2347
  661MOL0     C91143   0.877   1.479   6.263 -0.6724  0.3888  0.2188
  661MOL0     C91144   0.821   1.434   6.386  0.5864 -0.5644 -0.1832
  661MOL0     C91145   0.762   1.396   6.486 -0.0123  0.7591  0.0458
  661MOL0     C91146   1.467   1.601   6.194 -0.7354  0.4348 -0.4576
  661MOL0     C91147   1.606   1.621   6.218 -0.9534 -0.2483 -0.3708
  661MOL0     C91148   1.693   1.563   6.108 -0.0901  0.2547 -0.5225
  661MOL0     H91149   1.900   1.870   6.702  1.1836  2.3106  3.0234
  661MOL0     H91150   2.092   1.995   6.765 -4.9178  0.8008  0.0813
  661MOL0     H91151   2.383   1.916   6.641 -0.0665  0.0329 -4.2015
  661MOL0     H91152   2.441   2.056   6.728  3.4809 -4.5282  0.8665
  661MOL0     H91153   2.483   1.963   6.442 -0.3528  0.4884 -0.2481
  661MOL0     H91154   2.542   2.121   6.510  0.6753  0.0140  4.0838
  661MOL0     H91155   2.729   2.011   6.572 -0.5717  0.8122 -0.9033
  661MOL0     H91156   2.625   1.983   6.710 -0.4981  3.1469 -0.6450
  661MOL0     H91157   2.640   1.748   6.670  2.5976  0.6717  0.8351
  661MOL0     H91158   2.606   1.787   6.493  2.2386  1.7127 -1.5738
  661MOL0     H91159   2.824   1.673   6.568 -1.0216 -0.0890  1.8674
  661MOL0     H91160   2.885   1.842   6.585  0.9949  0.4655 -2.1940
  661MOL0     H91161   2.763   1.730   6.338  1.0878  0.7212 -0.7792
  661MOL0     H91162   2.807   1.896   6.364  0.0867 -0.1907 -0.8356
  661MOL0     H91163   2.997   1.655   6.364  2.3926 -0.5409 -2.1792
  661MOL0     H91164   3.045   1.825   6.408  1.1179  1.4178 -2.0038
  661MOL0     H91165   2.973   1.709   6.145  0.7127  0.2615 -1.0293
  661MOL0     H91166   3.001   1.877   6.163  1.1540 -0.8934 -1.9996
  661MOL0     H91167   3.284   1.873   6.334  0.7417 -0.8914  1.0307
  661MOL0     H91168   3.579   1.626   6.235  0.4650  0.9521 -3.8646
  661MOL0     H91169   3.536   1.712   6.366 -0.4362 -2.7687 -0.1133
  661MOL0     H91170   3.601   1.832   6.088  1.7102 -0.5225  0.6268
  661MOL0     H91171   3.520   1.936   6.205 -0.6458 -0.6299 -1.1696
  661MOL0     H91172   3.703   1.912   6.363 -0.5872 -2.8852  0.6323
  661MOL0     H91173   3.784   1.799   6.253  0.0053 -0.3915 -0.6151
  661MOL0     H91174   3.799   1.997   6.079  1.0753  1.0648  0.0819
  661MOL0     H91175   3.780   2.112   6.207 -0.4540  0.7661 -0.6202
  661MOL0     H91176   3.833   2.103   6.437 -0.0259  1.1516 -0.9416
  661MOL0     H91177   3.862   2.025   6.758 -1.3401  2.2836  1.1001
  661MOL0     H91178   3.794   2.132   6.641  0.9389  1.7741 -0.7305
  661MOL0     H91179   3.929   2.189   6.742 -1.0616  1.1150 -0.4058
  661MOL0     H91180   4.528   2.239   6.819  3.1234 -0.9403 -0.3007
  661MOL0     H91181   4.676   2.178   6.986 -1.7710  0.2223  1.0801
  661MOL0     H91182   4.940   1.918   7.110 -0.8113  0.3531  0.2757
  661MOL0     H91183   4.888   2.053   7.022  1.5634  2.3051  3.2997
  661MOL0     H91184   4.740   2.130   7.202  2.9103  3.6841 -2.0433
  661MOL0     H91185   4.788   1.993   7.310  1.2465 -1.0849  0.5386
  661MOL0     H91186   4.920   2.231   7.341 -0.6555  1.9903 -1.0197
  661MOL0     H91187   4.981   2.209   7.178 -2.7730  1.1547 -0.3793
  661MOL0     H91188   5.099   1.999   7.253 -1.0962 -0.1451  0.2680
  661MOL0     H91189   5.052   2.030   7.419 -0.1545 -1.2107  0.3589
  661MOL0     H91190   5.273   2.084   7.347  0.0042 -0.3372  0.5141
  661MOL0     H91191   5.210   2.208   7.233  1.2432  3.0309  1.2585
  661MOL0     H91192   5.216   2.231   7.543  1.5609 -1.6256 -0.4020
  661MOL0     H91193   5.128   2.340   7.436 -0.8416 -1.3024 -0.3539
  661MOL0     H91194   5.331   2.437   7.493 -0.6925 -1.2089  0.8333
  661MOL0     H91195   5.306   2.398   7.315  1.4073  1.2466  0.1090
  661MOL0     H91196   5.476   2.229   7.314 -0.9827  1.2337 -2.3655
  661MOL0     H91197   5.488   2.247   7.490 -2.6510 -0.2028  0.5257
  661MOL0     H91198   4.546   1.770   6.973  0.6548  0.1831 -1.6182
  661MOL0     H91199   4.353   1.838   6.852 -1.2475  0.5617 -2.9773
  661MOL0     H91200   4.293   1.948   6.490  0.9796  1.8060  0.4401
  661MOL0     H91201   4.188   1.923   6.276  0.1330 -2.5098  1.0661
  661MOL0     H91202   2.218   2.035   6.354 -0.8450 -0.3790 -0.2961
  661MOL0     H91203   2.021   1.886   6.287  3.7372 -0.7229 -0.8061
  661MOL0     H91204   1.594   1.773   6.524  1.2702 -0.9086  0.7017
  661MOL0     H91205   1.354   1.737   6.478  1.5023 -0.7256  1.4953
  661MOL0     H91206   1.075   1.700   6.171 -0.7914  1.2998 -1.0661
  661MOL0     H91207   1.222   1.653   6.082  1.8460 -0.0678  1.1272
  661MOL0     H91208   1.201   1.421   6.131 -0.1420 -1.1676  1.0424
  661MOL0     H91209   1.057   1.490   6.051 -1.6663  0.3276  0.9787
  661MOL0     H91210   1.004   1.312   6.223  2.1565 -0.2304 -1.6990
  661MOL0     H91211   1.074   1.433   6.336  1.8392 -0.8944 -0.3543
  661MOL0     H91212   0.815   1.444   6.180 -0.6518 -1.1779  0.8326
  661MOL0     H91213   0.892   1.587   6.259 -1.6642  0.6197  1.8458
  661MOL0     H91214   0.713   1.347   6.568 -2.8000 -1.1931 -2.5702
  661MOL0     H91215   1.440   1.551   6.102  0.4432 -1.1739  0.0200
  661MOL0     H91216   1.626   1.510   6.039 -2.6999  2.0796  0.4244
  661MOL0     H91217   1.755   1.643   6.066  1.7393 -1.0191 -0.3694
  661MOL0     H91218   1.758   1.494   6.162 -1.3205  0.1856  0.9475
  662MOL0     O91219   9.146   0.153   4.041  0.0030  0.0587  0.6380
  662MOL0     C91220   9.083   0.255   4.063  0.7799  0.7837 -0.2719
  662MOL0     O91221   9.127   0.356   4.136 -0.1353 -0.0248 -0.1955
  662MOL0     C91222   9.248   0.338   4.203 -0.1801 -0.0814 -0.6850
  662MOL0     C91223   9.234   0.333   4.344 -1.0584 -0.5030  0.0713
  662MOL0     C91224   9.353   0.316   4.425 -0.1925  0.3036 -0.2722
  662MOL0     C91225   9.479   0.305   4.367  0.0866  0.4360  0.0579
  662MOL0     O91226   9.597   0.287   4.443 -0.2033 -0.2173  0.3964
  662MOL0     C91227   9.606   0.341   4.579 -0.4877 -0.0643  0.6133
  662MOL0     C91228   9.657   0.231   4.668 -0.6032  0.0225  0.7158
  662MOL0     C91229   9.566   0.107   4.685 -0.4437 -0.3028 -0.0202
  662MOL0     C91230   9.442   0.139   4.766  0.6787  0.0710  0.4976
  662MOL0     C91231   9.361   0.012   4.793 -0.3798 -0.1446 -0.1081
  662MOL0     C91232   9.303  -0.064   4.681 -0.4092 -0.5495  0.9089
  662MOL0     C91233   9.194   0.015   4.594 -1.0317  0.7407  0.1179
  662MOL0     C91234   9.134  -0.076   4.485  0.1466 -0.6302 -0.0665
  662MOL0     N91235   9.225  -0.132   4.384 -0.2957 -0.3014 -0.1017
  662MOL0     C91236   9.276  -0.067   4.273 -0.5547  0.5216  0.1154
  662MOL0     C91237   9.363  -0.164   4.217 -0.6215  0.4574 -0.0391
  662MOL0     C91238   9.449  -0.155   4.091  0.1517 -0.2288 -0.3360
  662MOL0     C91239   9.484  -0.016   4.057  0.2694 -0.4156 -0.5837
  662MOL0     C91240   9.497   0.009   3.903  1.3661 -0.9158  0.5605
  662MOL0     C91241   9.377  -0.023   3.822  0.1134  0.6147  0.1434
  662MOL0     O91242   9.376   0.036   3.687 -0.5633  0.4140 -0.3179
  662MOL0     C91243   9.261   0.074   3.644  0.3625 -0.5569  0.4133
  662MOL0     C91244   9.187   0.193   3.678 -0.9481 -0.5474 -0.1624
  662MOL0     C91245   9.068   0.222   3.610 -0.5580  0.8287  0.0645
  662MOL0     C91246   8.987   0.342   3.653  0.4043 -0.0183  0.0804
  662MOL0     C91247   9.017   0.141   3.507 -0.3244  0.8964  0.0656
  662MOL0     C91248   8.890   0.171   3.447 -0.1853  0.3774 -0.0282
  662MOL0     O91249   8.770   0.153   3.523 -0.6164 -0.2920 -0.2817
  662MOL0     C91250   8.645   0.176   3.469 -0.2903 -0.1351 -0.8982
  662MOL0     C91251   8.604   0.280   3.385  0.2131 -0.4328  0.0358
  662MOL0     C91252   8.472   0.296   3.334 -0.6959 -0.0029 -0.2062
  662MOL0     C91253   8.388   0.183   3.347 -0.1335 -0.1179  0.0219
  662MOL0     O91254   8.263   0.175   3.292 -0.3606 -0.0402  0.2438
  662MOL0     C91255   8.193   0.291   3.259 -0.2925 -0.9765  0.0535
  662MOL0     C91256   8.044   0.284   3.245 -0.5513 -0.3942  0.6396
  662MOL0     C91257   8.006   0.196   3.136  0.2546 -0.8051 -0.1217
  662MOL0     C91258   7.848   0.181   3.121 -0.6370 -0.1676  0.6522
  662MOL0     C91259   7.811   0.077   3.021  0.1080  0.2282 -0.0680
  662MOL0     C91260   7.658   0.078   2.990 -0.2335  0.1778  0.9499
  662MOL0     C91261   7.611  -0.035   2.897  0.1784 -0.2112  0.6293
  662MOL0     C91262   7.665  -0.018   2.750  0.0421 -0.0047 -0.9806
  662MOL0    Cl91263   7.568   0.108   2.658 -0.0398  0.0703 -0.0239
  662MOL0     C91264   8.433   0.064   3.414 -1.0024 -0.1563 -0.1915
  662MOL0     C91265   8.559   0.060   3.486 -0.4555 -0.4929 -0.0081
  662MOL0     O91266   8.897   0.201   3.328  0.3209 -0.2082 -0.6627
  662MOL0     C91267   9.103   0.037   3.460  0.5166 -0.4533  0.2857
  662MOL0     C91268   9.219   0.005   3.532 -0.6665 -0.2039  0.5090
  662MOL0     N91269   9.363  -0.274   4.297 -0.6809 -0.3985 -0.8919
  662MOL0     N91270   9.285  -0.260   4.401 -0.1537  0.0380 -0.2474
  662MOL0     C91271   9.492   0.311   4.224 -1.1974 -0.1837 -0.2361
  662MOL0     C91272   9.378   0.323   4.148 -0.3741  0.0710  0.4425
  662MOL0     C91273   8.939   0.265   4.025 -0.0794 -0.3355 -0.0075
  662MOL0     C91274   8.883   0.397   4.032  0.5913 -0.5413 -0.3362
  662MOL0     C91275   8.757   0.422   3.976 -0.7693 -0.5646  0.4431
  662MOL0     C91276   8.672   0.322   3.933 -0.6259 -0.2416 -0.3919
  662MOL0     O91277   8.540   0.343   3.892  0.2609  1.2013 -0.6208
  662MOL0     C91278   8.461   0.459   3.929  0.0647  0.8905 -0.9442
  662MOL0     C91279   8.321   0.454   3.865 -0.5891  0.8648  0.5000
  662MOL0     C91280   8.339   0.429   3.716 -0.4305  0.5378  0.6211
  662MOL0     C91281   8.214   0.461   3.637  0.0916  0.4158 -0.2144
  662MOL0     C91282   8.107   0.359   3.678 -1.4041 -0.7932  0.5640
  662MOL0     C91283   8.037   0.277   3.714 -0.1426 -0.2114  0.1038
  662MOL0     C91284   8.724   0.194   3.932  0.0448 -0.2869  0.1599
  662MOL0     C91285   8.855   0.160   3.969 -1.1788 -0.6055 -0.6512
  662MOL0     C91286   8.903   0.018   3.960  0.1510 -0.5707 -0.4909
  662MOL0     H91287   9.139   0.356   4.391  0.0260 -1.5347  3.0289
  662MOL0     H91288   9.345   0.313   4.534  0.3730 -0.6410 -0.2526
  662MOL0     H91289   9.512   0.381   4.619 -0.9784 -2.0680  1.5812
  662MOL0     H91290   9.670   0.429   4.572  0.4239 -0.6191  1.6294
  662MOL0     H91291   9.754   0.198   4.631 -1.1953 -0.3965 -0.5142
  662MOL0     H91292   9.668   0.272   4.769 -2.2026 -0.9042  1.3141
  662MOL0     H91293   9.542   0.056   4.591 -0.1832 -1.3183  0.4541
  662MOL0     H91294   9.622   0.038   4.748  1.3324  1.4350  0.3815
  662MOL0     H91295   9.482   0.175   4.862  0.0873  0.7501  0.4976
  662MOL0     H91296   9.379   0.209   4.710 -0.4026  0.1593  1.7769
  662MOL0     H91297   9.282   0.025   4.868 -2.4671 -0.6418 -2.1209
  662MOL0     H91298   9.433  -0.061   4.829  0.1173  0.3110 -0.1585
  662MOL0     H91299   9.386  -0.106   4.622 -0.6531 -1.2685  1.0676
  662MOL0     H91300   9.245  -0.148   4.719 -1.6584 -0.4108 -0.5997
  662MOL0     H91301   9.244   0.092   4.535 -2.5890  3.3004  1.9440
  662MOL0     H91302   9.119   0.066   4.655 -0.4982  2.0131 -0.2700
  662MOL0     H91303   9.066  -0.150   4.530 -1.9160  1.1627 -0.0864
  662MOL0     H91304   9.063  -0.010   4.435  0.1618  0.5929  1.4648
  662MOL0     H91305   9.247   0.030   4.232  0.0505  0.4851 -0.4068
  662MOL0     H91306   9.392  -0.203   4.011 -2.5871  1.7742  0.2480
  662MOL0     H91307   9.537  -0.218   4.101  0.7067  0.9179  4.6524
  662MOL0     H91308   9.415   0.056   4.101 -1.0644 -0.3389 -2.6743
  662MOL0     H91309   9.582  -0.003   4.103 -0.4680 -0.0795  0.9680
  662MOL0     H91310   9.508   0.118   3.897 -1.8112 -0.6096 -1.5601
  662MOL0     H91311   9.585  -0.043   3.864  3.2661  0.7728  2.3437
  662MOL0     H91312   9.356  -0.127   3.795  0.6135  0.4804  0.2612
  662MOL0     H91313   9.289   0.005   3.882  0.3462  0.0724  0.7461
  662MOL0     H91314   9.225   0.264   3.751  0.2284  0.1265 -1.3889
  662MOL0     H91315   8.951   0.400   3.568 -1.6710 -0.3396  0.6886
  662MOL0     H91316   9.041   0.406   3.723 -1.4157 -0.0657  1.5963
  662MOL0     H91317   8.899   0.309   3.709 -0.9376 -0.2621 -2.0535
  662MOL0     H91318   8.677   0.359   3.368  2.5926 -2.0598  1.9867
  662MOL0     H91319   8.427   0.382   3.287 -1.5798 -0.1020  0.4406
  662MOL0     H91320   8.211   0.371   3.332 -0.5150  0.4885 -1.4204
  662MOL0     H91321   8.238   0.324   3.164  0.9128 -1.6510  0.3680
  662MOL0     H91322   8.003   0.240   3.337 -2.8793 -1.5209 -0.8473
  662MOL0     H91323   8.012   0.387   3.224  2.2381  0.1390 -1.5324
  662MOL0     H91324   8.042   0.099   3.171 -1.6750 -0.5699  2.9063
  662MOL0     H91325   8.047   0.230   3.040 -0.3251  1.9081  0.5104
  662MOL0     H91326   7.809   0.277   3.086 -0.4979 -0.8150 -1.3885
  662MOL0     H91327   7.794   0.152   3.212 -0.4816 -1.3757  0.3739
  662MOL0     H91328   7.859   0.098   2.924  1.5603 -0.9191  0.3739
  662MOL0     H91329   7.841  -0.023   3.052 -2.9094  0.3291  3.8257
  662MOL0     H91330   7.622   0.172   2.946  2.7336  2.8546  3.6807
  662MOL0     H91331   7.597   0.070   3.081 -1.8806 -1.1622 -0.2060
  662MOL0     H91332   7.503  -0.054   2.892  0.0081  0.7105  0.6844
  662MOL0     H91333   7.662  -0.123   2.937 -0.5090 -0.2403  1.4845
  662MOL0     H91334   7.649  -0.116   2.702  2.2961 -0.3077 -1.2430
  662MOL0     H91335   7.773   0.001   2.746  0.3048  0.5948  3.6434
  662MOL0     H91336   8.359  -0.014   3.423 -3.1104  1.7884  0.1854
  662MOL0     H91337   8.609  -0.019   3.540  1.5406  1.1221  0.6545
  662MOL0     H91338   9.071  -0.039   3.389 -3.0922 -1.5032  2.7427
  662MOL0     H91339   9.269  -0.079   3.486  3.1120  0.9342  2.1408
  662MOL0     H91340   9.595   0.293   4.193 -1.3293 -0.8928 -0.2841
  662MOL0     H91341   9.387   0.330   4.040  2.0263  0.7262  0.6065
  662MOL0     H91342   8.938   0.478   4.080 -0.4653  0.4993 -0.8460
  662MOL0     H91343   8.711   0.520   3.985  0.7473  0.2614 -0.4775
  662MOL0     H91344   8.466   0.472   4.037  0.0283 -2.0873 -0.5234
  662MOL0     H91345   8.503   0.553   3.889  0.3943  0.6326 -1.2145
  662MOL0     H91346   8.272   0.551   3.880 -2.8000  0.1024 -1.3376
  662MOL0     H91347   8.261   0.373   3.907 -0.6095  2.4666  3.9439
  662MOL0     H91348   8.423   0.483   3.670  0.7567 -2.2103 -0.6733
  662MOL0     H91349   8.370   0.325   3.705  1.8634  1.4272 -3.8985
  662MOL0     H91350   8.218   0.464   3.528 -0.4042  0.2284 -0.2410
  662MOL0     H91351   8.192   0.563   3.671  1.7703  1.9599 -3.3485
  662MOL0     H91352   7.966   0.198   3.730 -0.9790  0.2078 -1.3299
  662MOL0     H91353   8.663   0.114   3.891 -0.1268 -0.5274  0.8677
  662MOL0     H91354   8.981   0.019   3.883  2.6209  1.7488  1.8230
  662MOL0     H91355   8.947  -0.010   4.056 -0.7367  2.1959  0.8398
  662MOL0     H91356   8.822  -0.052   3.941  1.7469 -2.3018 -1.2743
  663MOL0     O91357   9.668   1.222   0.412  0.8212 -0.6913  0.2033
  663MOL0     C91358   9.637   1.334   0.371  0.3103 -0.2062 -0.6039
  663MOL0     O91359   9.516   1.391   0.412 -0.3065 -0.0115  0.6450
  663MOL0     C91360   9.457   1.342   0.524  0.3802  0.1341  1.0225
  663MOL0     C91361   9.344   1.259   0.525  0.1605 -0.3844 -0.2970
  663MOL0     C91362   9.296   1.212   0.651 -0.3543  0.9657  0.3033
  663MOL0     C91363   9.366   1.232   0.770 -0.3446  0.0214  0.0761
  663MOL0     O91364   9.318   1.198   0.895 -0.3895  0.0519  0.4739
  663MOL0     C91365   9.273   1.062   0.905  0.6685  0.0399 -0.0765
  663MOL0     C91366   9.257   1.024   1.055  1.0170 -0.9812 -0.2138
  663MOL0     C91367   9.393   1.037   1.134 -0.2625  0.2433  0.2066
  663MOL0     C91368   9.370   1.048   1.285  0.5166  0.5890 -0.6087
  663MOL0     C91369   9.484   0.986   1.369 -0.8925 -0.0521  0.4233
  663MOL0     C91370   9.433   0.950   1.509  0.2372 -0.5729 -0.1390
  663MOL0     C91371   9.534   0.907   1.615  0.2303  0.4313 -0.1085
  663MOL0     C91372   9.480   0.911   1.755  0.2867 -0.0134 -0.6874
  663MOL0     N91373   9.392   0.798   1.788 -0.0270  0.4067 -0.5942
  663MOL0     C91374   9.253   0.800   1.783  0.2393 -0.6714  0.8629
  663MOL0     C91375   9.210   0.674   1.821 -0.4092 -0.3210 -1.0136
  663MOL0     C91376   9.063   0.650   1.856  0.6939  0.1444 -0.0320
  663MOL0     C91377   9.042   0.608   2.003 -0.1246  0.4592  0.0413
  663MOL0     C91378   8.896   0.629   2.041  0.3310 -0.0991 -0.1986
  663MOL0     C91379   8.787   0.556   1.965 -0.0608 -0.1890 -1.0139
  663MOL0     O91380   8.821   0.420   1.971  0.0548  0.2227 -0.0438
  663MOL0     C91381   8.721   0.323   1.940 -0.1017  0.8028 -0.1391
  663MOL0     C91382   8.598   0.354   1.886 -0.4048 -0.1752 -0.4129
  663MOL0     C91383   8.507   0.254   1.847 -0.1406 -0.4055 -0.2815
  663MOL0     C91384   8.384   0.312   1.782 -0.4132  0.0204 -0.8813
  663MOL0     C91385   8.534   0.118   1.883  0.5154 -0.7696 -0.0232
  663MOL0     C91386   8.432   0.005   1.868  0.7642  0.5844 -0.5053
  663MOL0     O91387   8.479  -0.117   1.871 -0.0728  0.9314 -0.1784
  663MOL0     C91388   8.402  -0.220   1.899  0.1302  0.5679  0.3327
  663MOL0     C91389   8.451  -0.343   1.848  0.0895  0.4978  0.6757
  663MOL0     C91390   8.377  -0.460   1.860 -0.6219 -0.6053  0.5271
  663MOL0     C91391   8.267  -0.470   1.946  0.5807 -0.9452  0.0484
  663MOL0     O91392   8.194  -0.581   1.970  0.2778 -0.2033  0.7001
  663MOL0     C91393   8.241  -0.711   1.932 -0.8560 -0.1043 -0.1537
  663MOL0     C91394   8.156  -0.822   1.990 -0.7362 -0.8399  0.3464
  663MOL0     C91395   8.155  -0.839   2.138 -0.0936 -0.9930 -0.6578
  663MOL0     C91396   8.069  -0.954   2.188 -0.0176 -0.0491  0.0350
  663MOL0     C91397   8.059  -0.986   2.335 -0.7595 -0.9392 -0.1719
  663MOL0     C91398   8.024  -0.868   2.421 -0.1961 -0.6665 -0.5453
  663MOL0     C91399   8.058  -0.906   2.567  0.7114  0.9110 -0.0173
  663MOL0     C91400   8.072  -0.783   2.666  0.9344  1.0756  0.4216
  663MOL0    Cl91401   7.914  -0.687   2.664 -0.1951 -0.3299 -0.3543
  663MOL0     C91402   8.234  -0.352   2.019  0.4474  0.1558  0.3782
  663MOL0     C91403   8.289  -0.230   1.982 -0.0334 -0.1222 -0.3196
  663MOL0     O91404   8.311   0.036   1.840 -0.6296  0.3273 -0.2456
  663MOL0     C91405   8.663   0.089   1.937 -0.1157 -0.2100 -0.0958
  663MOL0     C91406   8.761   0.187   1.960  0.8362 -0.1606  0.2167
  663MOL0     N91407   9.333   0.602   1.847 -0.0679  0.5400  0.0538
  663MOL0     N91408   9.442   0.675   1.836  0.1302 -0.3117 -0.4160
  663MOL0     C91409   9.482   1.309   0.760  0.9017 -0.6598 -0.6074
  663MOL0     C91410   9.525   1.368   0.643 -1.0573 -0.0123  0.5986
  663MOL0     C91411   9.731   1.422   0.293  0.6160  0.3584 -0.6615
  663MOL0     C91412   9.664   1.505   0.209 -0.1547 -0.2863  0.0132
  663MOL0     C91413   9.730   1.582   0.115  0.0500 -0.1571  0.2547
  663MOL0     C91414   9.872   1.568   0.109 -0.7739  0.2074  1.5788
  663MOL0     O91415   9.947   1.654   0.033  0.2421 -0.3567 -0.0217
  663MOL0     C91416   9.980   1.776   0.089  1.0396 -0.3463  0.7116
  663MOL0     C91417  10.107   1.756   0.160  0.5335 -0.1564  0.8617
  663MOL0     C91418  10.162   1.883   0.219 -0.1434 -0.2600 -0.6217
  663MOL0     C91419  10.300   1.847   0.268  0.5755  0.1057 -0.5226
  663MOL0     C91420  10.377   1.969   0.301  0.3054  0.0749 -0.4404
  663MOL0     C91421  10.440   2.063   0.324  0.4318  0.2457  0.3806
  663MOL0     C91422   9.943   1.477   0.182 -0.3495  0.2202 -0.2344
  663MOL0     C91423   9.876   1.396   0.276  0.5431  0.1601 -0.1778
  663MOL0     C91424   9.955   1.301   0.356  0.1608  0.1478  0.4004
  663MOL0     H91425   9.310   1.226   0.427 -0.3391 -2.9145  0.6473
  663MOL0     H91426   9.207   1.149   0.653 -0.4210  0.9289 -1.7954
  663MOL0     H91427   9.346   0.993   0.861 -0.9929  0.4692 -3.9612
  663MOL0     H91428   9.175   1.045   0.858  1.0731 -0.8469 -0.6300
  663MOL0     H91429   9.183   1.090   1.101  1.2987 -0.8730  0.0869
  663MOL0     H91430   9.220   0.921   1.058  0.8780 -1.0565 -2.7136
  663MOL0     H91431   9.440   0.940   1.119 -0.7873 -0.2162  1.3762
  663MOL0     H91432   9.457   1.117   1.097 -0.7386 -0.4249 -2.1997
  663MOL0     H91433   9.352   1.151   1.315 -2.5969  0.0665 -0.3274
  663MOL0     H91434   9.281   0.988   1.308 -1.8751  2.3300 -4.1960
  663MOL0     H91435   9.560   1.062   1.390 -3.0947  2.3122  0.2975
  663MOL0     H91436   9.534   0.905   1.315  2.9268  0.5657  2.6267
  663MOL0     H91437   9.378   1.038   1.543  1.0221  0.3521 -1.1713
  663MOL0     H91438   9.361   0.868   1.500 -2.3190  1.6078 -1.1161
  663MOL0     H91439   9.625   0.965   1.605 -0.6301  1.5232 -2.2003
  663MOL0     H91440   9.555   0.802   1.591  0.5231  0.4201  0.2038
  663MOL0     H91441   9.565   0.905   1.823  0.4912 -0.7233 -0.9957
  663MOL0     H91442   9.422   1.002   1.774  1.8305  0.6483  1.2535
  663MOL0     H91443   9.199   0.891   1.757  1.0302  0.2480  2.2752
  663MOL0     H91444   9.018   0.575   1.790 -0.7869  1.0691 -0.1113
  663MOL0     H91445   8.997   0.736   1.845 -0.5251 -0.4896  1.6957
  663MOL0     H91446   9.084   0.510   2.026  1.2498  1.8613  4.4712
  663MOL0     H91447   9.096   0.687   2.056  3.7268 -1.9505  0.0927
  663MOL0     H91448   8.894   0.602   2.147 -0.9081  0.7627  0.0211
  663MOL0     H91449   8.877   0.736   2.023 -0.1714 -0.5212 -2.4949
  663MOL0     H91450   8.687   0.565   2.009 -0.0292  0.3905 -1.0572
  663MOL0     H91451   8.780   0.578   1.858  0.4304  1.3370 -0.7552
  663MOL0     H91452   8.565   0.456   1.868 -2.2072 -0.6572  0.0048
  663MOL0     H91453   8.404   0.379   1.698 -0.7925  0.4001 -0.6735
  663MOL0     H91454   8.328   0.359   1.864 -1.4349 -1.3545 -0.7405
  663MOL0     H91455   8.321   0.236   1.735  0.1040  0.8938 -3.0970
  663MOL0     H91456   8.543  -0.344   1.790 -1.6389  0.6853 -2.2874
  663MOL0     H91457   8.410  -0.553   1.813  0.1934 -0.1680  0.2138
  663MOL0     H91458   8.236  -0.713   1.823 -1.4401 -2.7254 -0.1503
  663MOL0     H91459   8.343  -0.735   1.963 -0.5404  1.6823  0.2924
  663MOL0     H91460   8.050  -0.809   1.966  0.0560  1.1083 -2.7269
  663MOL0     H91461   8.192  -0.918   1.950  2.1373 -0.6347  2.1420
  663MOL0     H91462   8.130  -0.743   2.183  1.1805 -0.1112 -1.7477
  663MOL0     H91463   8.256  -0.861   2.176 -0.5435 -0.7272  0.7603
  663MOL0     H91464   8.096  -1.045   2.133 -0.6955 -0.9916  1.2186
  663MOL0     H91465   7.968  -0.930   2.155 -0.0716  0.7087  0.7297
  663MOL0     H91466   7.998  -1.074   2.355 -1.0710 -0.1051  3.2629
  663MOL0     H91467   8.162  -1.004   2.366 -0.1206  0.9079 -1.0519
  663MOL0     H91468   7.918  -0.843   2.416 -0.0134 -0.0142 -1.3987
  663MOL0     H91469   8.072  -0.778   2.381  0.7210 -0.3404  1.1954
  663MOL0     H91470   8.153  -0.954   2.592 -0.6233 -2.1729 -0.3765
  663MOL0     H91471   7.980  -0.979   2.591 -0.0501  0.9305 -2.1904
  663MOL0     H91472   8.144  -0.712   2.625  0.6879  0.2241 -1.6415
  663MOL0     H91473   8.099  -0.814   2.767 -1.2978  0.5440  0.9071
  663MOL0     H91474   8.148  -0.352   2.086 -0.6003 -3.7667 -0.7009
  663MOL0     H91475   8.256  -0.136   2.025 -2.0222 -0.8591 -0.1576
  663MOL0     H91476   8.692  -0.012   1.963 -0.6514 -1.0607 -2.5003
  663MOL0     H91477   8.854   0.154   2.006  0.3560  0.1930  1.4795
  663MOL0     H91478   9.539   1.333   0.849  1.1951 -4.2802  0.3371
  663MOL0     H91479   9.612   1.431   0.630 -1.9670  1.1774  0.1019
  663MOL0     H91480   9.556   1.512   0.209 -0.1888 -0.0621 -2.1463
  663MOL0     H91481   9.674   1.648   0.049 -3.1799 -1.7280  1.2161
  663MOL0     H91482   9.992   1.853   0.012 -0.6859 -0.8403 -0.1142
  663MOL0     H91483   9.902   1.824   0.148  1.1405  2.1531 -1.0019
  663MOL0     H91484  10.179   1.717   0.087  0.6324  1.0505  0.2937
  663MOL0     H91485  10.103   1.678   0.236 -3.6858 -1.7209 -0.6567
  663MOL0     H91486  10.155   1.958   0.141 -2.8986 -0.0848 -0.2868
  663MOL0     H91487  10.105   1.921   0.304 -0.4486 -1.1044 -0.4411
  663MOL0     H91488  10.358   1.796   0.192 -0.5427 -1.8962 -0.1032
  663MOL0     H91489  10.298   1.788   0.361 -2.8140 -0.2498 -0.6917
  663MOL0     H91490  10.507   2.140   0.357  0.9931 -0.3827  0.7416
  663MOL0     H91491  10.051   1.470   0.174 -0.2671 -3.1340  1.8620
  663MOL0     H91492  10.064   1.306   0.346  0.5943 -2.4600  2.6628
  663MOL0     H91493   9.937   1.323   0.462 -1.7577  0.9747 -0.0470
  663MOL0     H91494   9.922   1.200   0.330  0.1560  0.2769 -0.1100
  664MOL0     O91495   0.584   4.275   8.866  0.1789 -0.5847 -0.0659
  664MOL0     C91496   0.640   4.384   8.875 -0.4183 -0.4241  0.5156
  664MOL0     O91497   0.728   4.432   8.782 -0.8915 -0.1730  0.0518
  664MOL0     C91498   0.801   4.364   8.684 -1.0354  0.6383  0.1513
  664MOL0     C91499   0.789   4.398   8.546  0.1305  1.1980 -0.3974
  664MOL0     C91500   0.885   4.352   8.453 -0.1680  0.3229 -0.2742
  664MOL0     C91501   0.989   4.268   8.493 -0.8304  0.4168 -0.6555
  664MOL0     O91502   1.092   4.228   8.415 -0.5288 -0.4955 -0.0507
  664MOL0     C91503   1.067   4.224   8.267 -0.7533 -0.1328 -0.2730
  664MOL0     C91504   1.173   4.135   8.201 -0.7112  0.2313 -0.0762
  664MOL0     C91505   1.211   4.190   8.065 -0.1167 -0.5242  0.4293
  664MOL0     C91506   1.325   4.097   8.006  0.0724 -0.2734 -0.6210
  664MOL0     C91507   1.342   4.113   7.860  0.4570  1.0196 -0.1477
  664MOL0     C91508   1.464   4.019   7.825  0.0493  0.7752  0.0995
  664MOL0     C91509   1.488   4.005   7.675  0.3578  0.1904  0.3535
  664MOL0     C91510   1.616   3.927   7.628  0.5524 -0.6360 -0.1440
  664MOL0     N91511   1.745   3.983   7.678 -0.6858 -0.0919  0.0516
  664MOL0     C91512   1.793   4.103   7.652  0.4436  0.3940 -0.0028
  664MOL0     C91513   1.895   4.117   7.725 -1.1694 -0.2328 -0.4645
  664MOL0     C91514   1.980   4.238   7.738  0.1280 -0.1697 -0.2553
  664MOL0     C91515   2.083   4.245   7.624 -1.2516  1.0000  0.2190
  664MOL0     C91516   2.181   4.127   7.636 -0.1835  0.3554  0.6053
  664MOL0     C91517   2.271   4.147   7.512 -0.5804 -0.5786  0.3722
  664MOL0     O91518   2.364   4.032   7.525  0.5514  0.0494 -0.4498
  664MOL0     C91519   2.473   4.042   7.611  0.5040  0.3720 -0.5559
  664MOL0     C91520   2.550   3.919   7.626  0.0082 -0.4933  0.2447
  664MOL0     C91521   2.671   3.923   7.708  0.8271 -0.0184 -0.5338
  664MOL0     C91522   2.747   3.794   7.708 -0.7253 -0.3361 -0.3916
  664MOL0     C91523   2.702   4.039   7.785 -0.6163  0.0869  0.0596
  664MOL0     C91524   2.811   4.041   7.876 -0.2931 -0.4274  0.1876
  664MOL0     O91525   2.924   3.970   7.854  0.3882  0.1264  0.2190
  664MOL0     C91526   3.031   3.956   7.950  0.0142  0.6256  0.4057
  664MOL0     C91527   3.030   3.964   8.091 -0.5565 -0.0417  0.5626
  664MOL0     C91528   3.148   3.947   8.167  0.0189 -0.2019  0.3206
  664MOL0     C91529   3.267   3.922   8.101  0.0880 -0.1083  0.2260
  664MOL0     O91530   3.380   3.911   8.179  0.2362 -0.4822  0.3861
  664MOL0     C91531   3.442   3.787   8.164 -0.8125 -1.2499 -0.5691
  664MOL0     C91532   3.596   3.807   8.169  0.6930  0.4303 -0.4574
  664MOL0     C91533   3.645   3.671   8.121 -0.9036 -0.4744  0.2138
  664MOL0     C91534   3.800   3.667   8.148  0.2217  0.3235  1.2633
  664MOL0     C91535   3.844   3.592   8.277 -0.7487  0.5027  0.4422
  664MOL0     C91536   3.995   3.608   8.301 -0.9165  0.2334  0.0984
  664MOL0     C91537   4.038   3.519   8.421 -0.0971  0.2364 -0.1051
  664MOL0     C91538   4.191   3.528   8.438  0.1281 -0.4533  0.4855
  664MOL0    Cl91539   4.261   3.692   8.438  0.3002  0.1790  0.5542
  664MOL0     C91540   3.277   3.920   7.959 -0.6112 -0.0261  1.0020
  664MOL0     C91541   3.150   3.925   7.885  0.1147 -0.8857 -0.0299
  664MOL0     O91542   2.797   4.114   7.976  0.8556  0.1518  0.6290
  664MOL0     C91543   2.620   4.158   7.769 -0.7571  0.0586 -0.4582
  664MOL0     C91544   2.508   4.154   7.687  0.0696  0.0403 -0.3622
  664MOL0     N91545   1.926   3.998   7.790 -0.6685 -0.2412 -0.2112
  664MOL0     N91546   1.836   3.917   7.761  1.1740  0.5067  0.4121
  664MOL0     C91547   0.996   4.232   8.628  0.2534 -0.0790 -0.3824
  664MOL0     C91548   0.907   4.283   8.722 -0.1319  0.2872  0.1792
  664MOL0     C91549   0.603   4.467   8.988  0.3073 -0.8288  0.1202
  664MOL0     C91550   0.706   4.564   9.026 -0.0366  0.9948  0.1997
  664MOL0     C91551   0.693   4.652   9.129 -0.0771 -0.2324  0.4922
  664MOL0     C91552   0.582   4.640   9.225 -0.8326  0.6388  0.2114
  664MOL0     O91553   0.583   4.723   9.332  0.4033  0.5035 -0.0606
  664MOL0     C91554   0.564   4.655   9.456  0.6263 -0.2241 -0.3342
  664MOL0     C91555   0.424   4.691   9.512 -0.6414  1.0504  0.1440
  664MOL0     C91556   0.367   4.569   9.595 -0.5950 -0.4557  0.6052
  664MOL0     C91557   0.228   4.606   9.654 -0.6398 -0.1545  0.2544
  664MOL0     C91558   0.172   4.497   9.731 -0.1605 -0.1626 -0.4441
  664MOL0     C91559   0.130   4.406   9.794 -0.9790  0.5336 -0.0854
  664MOL0     C91560   0.495   4.534   9.197 -0.0276 -0.2388 -0.4212
  664MOL0     C91561   0.496   4.459   9.076 -0.0770 -0.5849 -0.0594
  664MOL0     C91562   0.374   4.372   9.047  1.0549  0.1991  0.0753
  664MOL0     H91563   0.706   4.461   8.516 -1.2066  0.4809  1.6301
  664MOL0     H91564   0.862   4.378   8.350 -1.1552 -1.0913 -0.4438
  664MOL0     H91565   1.078   4.329   8.238 -2.8987  0.8806  2.1335
  664MOL0     H91566   0.966   4.191   8.240  0.0925 -1.0421 -2.5765
  664MOL0     H91567   1.257   4.122   8.270 -1.9820 -2.4174  1.1048
  664MOL0     H91568   1.117   4.042   8.193  0.8536 -0.7565 -0.0082
  664MOL0     H91569   1.125   4.187   7.997 -0.6184 -1.5204  1.0928
  664MOL0     H91570   1.243   4.295   8.061 -1.4208 -0.1325 -0.1740
  664MOL0     H91571   1.414   4.127   8.063 -1.2491  1.5241  0.6456
  664MOL0     H91572   1.295   3.993   8.019 -1.5562  0.1794 -0.6112
  664MOL0     H91573   1.353   4.216   7.824  0.2885  0.4317 -2.0099
  664MOL0     H91574   1.257   4.064   7.812  0.4247  0.6007  0.3284
  664MOL0     H91575   1.555   4.057   7.872 -0.2318 -0.8066  2.0404
  664MOL0     H91576   1.447   3.918   7.862  1.5097  0.4370 -0.1143
  664MOL0     H91577   1.488   4.107   7.635 -0.3534  0.7478  1.7124
  664MOL0     H91578   1.402   3.954   7.630 -0.1348  0.2776  1.1735
  664MOL0     H91579   1.612   3.823   7.664  0.5776 -1.2552 -1.8209
  664MOL0     H91580   1.615   3.920   7.519 -0.0056  2.1820 -0.3780
  664MOL0     H91581   1.754   4.178   7.583 -0.2462 -0.6399 -0.7586
  664MOL0     H91582   2.039   4.227   7.829 -2.8316 -0.3000  1.7955
  664MOL0     H91583   1.926   4.333   7.751  2.1321  1.0668 -0.6359
  664MOL0     H91584   2.036   4.236   7.525  1.4343  2.2198 -1.2881
  664MOL0     H91585   2.137   4.339   7.631  0.1535  0.1229  1.9174
  664MOL0     H91586   2.233   4.147   7.729  0.1141  3.9458 -0.1983
  664MOL0     H91587   2.137   4.027   7.645 -1.7277  1.1051  1.9068
  664MOL0     H91588   2.218   4.137   7.417  0.0554 -0.5010  0.0073
  664MOL0     H91589   2.331   4.238   7.506  0.9082 -1.6418 -2.4944
  664MOL0     H91590   2.534   3.822   7.581  1.6168 -1.3174  1.3463
  664MOL0     H91591   2.842   3.823   7.664 -0.1248 -1.5514  0.0624
  664MOL0     H91592   2.705   3.722   7.638 -0.3799 -0.8871 -0.0374
  664MOL0     H91593   2.761   3.743   7.804  1.5923 -2.1338 -1.5845
  664MOL0     H91594   2.942   4.004   8.141 -0.4457  3.5769 -1.7774
  664MOL0     H91595   3.150   3.953   8.276  0.7323  0.0692  0.2964
  664MOL0     H91596   3.410   3.710   8.235 -3.5178 -2.3951 -2.8271
  664MOL0     H91597   3.416   3.745   8.066 -0.3916  1.0197 -1.7193
  664MOL0     H91598   3.626   3.894   8.110 -2.2069  0.8985 -1.4282
  664MOL0     H91599   3.635   3.831   8.268  0.6557  1.4348 -0.6786
  664MOL0     H91600   3.640   3.657   8.012  2.6944  0.1772 -0.1686
  664MOL0     H91601   3.606   3.581   8.170  1.2990 -1.0638  1.0155
  664MOL0     H91602   3.842   3.768   8.144 -0.8514  0.8157  1.9326
  664MOL0     H91603   3.847   3.627   8.058 -2.0357 -0.0793  0.2037
  664MOL0     H91604   3.778   3.626   8.357 -1.5914  0.4812 -0.2277
  664MOL0     H91605   3.821   3.486   8.262  1.9941  0.1305 -2.0408
  664MOL0     H91606   4.015   3.711   8.333  2.2065 -1.0802  3.0222
  664MOL0     H91607   4.049   3.578   8.211 -1.3484  1.5013 -0.6183
  664MOL0     H91608   4.007   3.415   8.409  2.1014 -0.4065 -0.7160
  664MOL0     H91609   3.985   3.567   8.503 -3.9825  0.0946 -2.3052
  664MOL0     H91610   4.231   3.468   8.356  2.0457  0.3245  0.7918
  664MOL0     H91611   4.205   3.485   8.538 -3.3517  0.9494  1.7310
  664MOL0     H91612   3.373   3.916   7.910 -0.7144 -2.4667  0.8811
  664MOL0     H91613   3.152   3.905   7.778  1.9800  2.9794 -0.8711
  664MOL0     H91614   2.640   4.244   7.832 -0.9957 -1.2367  1.4721
  664MOL0     H91615   2.452   4.246   7.672 -2.8013 -1.3261  1.1680
  664MOL0     H91616   1.079   4.173   8.666  1.1199  1.9904  1.0740
  664MOL0     H91617   0.922   4.260   8.827 -1.0003 -2.2092 -0.1852
  664MOL0     H91618   0.796   4.573   8.966  1.2941 -3.6853  1.0738
  664MOL0     H91619   0.762   4.735   9.138 -0.1184 -0.4257  3.5686
  664MOL0     H91620   0.568   4.546   9.444  1.0066 -0.1804 -0.6203
  664MOL0     H91621   0.630   4.691   9.535 -0.8115  0.0967  0.7646
  664MOL0     H91622   0.363   4.732   9.430  0.6123 -0.6602 -1.7137
  664MOL0     H91623   0.437   4.779   9.577 -0.1771  0.2742  1.1209
  664MOL0     H91624   0.362   4.478   9.535  0.5009  0.3115 -0.6825
  664MOL0     H91625   0.439   4.548   9.675 -0.6546  0.8649  1.0320
  664MOL0     H91626   0.162   4.629   9.570  1.0735 -0.8521 -1.3678
  664MOL0     H91627   0.230   4.697   9.715 -2.1490 -1.4479  2.3570
  664MOL0     H91628   0.082   4.328   9.849 -0.2775 -0.6774 -1.1060
  664MOL0     H91629   0.408   4.530   9.262  0.7348 -0.4965  0.6136
  664MOL0     H91630   0.338   4.372   8.944  1.5514  2.5415 -0.1597
  664MOL0     H91631   0.406   4.273   9.083  1.0962 -0.8712 -2.6757
  664MOL0     H91632   0.288   4.399   9.108  1.7218  0.7115  0.8051
  665MOL0     O91633   1.195   9.143   5.727  0.8869 -0.3630 -0.3666
  665MOL0     C91634   1.095   9.074   5.749 -1.1667  0.3261  0.3071
  665MOL0     O91635   1.104   8.936   5.774 -0.1846  0.1613  0.1530
  665MOL0     C91636   1.216   8.856   5.764  0.8502 -0.0280  0.1140
  665MOL0     C91637   1.211   8.736   5.836 -0.8762  0.0635 -0.3835
  665MOL0     C91638   1.326   8.653   5.845 -0.1841  0.0979 -0.3437
  665MOL0     C91639   1.438   8.684   5.770  0.7596 -0.1151 -0.0865
  665MOL0     O91640   1.549   8.597   5.775 -0.3728  0.3846 -0.4495
  665MOL0     C91641   1.539   8.459   5.810 -0.1100  0.5175 -0.8034
  665MOL0     C91642   1.603   8.374   5.699  0.1544  0.8006  0.6964
  665MOL0     C91643   1.742   8.440   5.661 -0.4870  0.4615  0.2228
  665MOL0     C91644   1.796   8.347   5.546 -0.8199 -0.3767  0.0060
  665MOL0     C91645   1.929   8.389   5.475  0.5290  0.4402  0.4531
  665MOL0     C91646   1.968   8.538   5.454  0.5170  0.2566  0.2089
  665MOL0     C91647   2.093   8.561   5.370  0.2137 -0.6498 -0.6180
  665MOL0     C91648   2.215   8.537   5.466 -0.1505 -0.6120  0.8734
  665MOL0     N91649   2.347   8.561   5.403 -0.4371  0.1349 -0.7011
  665MOL0     C91650   2.432   8.671   5.409  0.4890 -1.0444  0.7518
  665MOL0     C91651   2.556   8.625   5.369 -0.7776 -0.0351  0.1231
  665MOL0     C91652   2.679   8.716   5.358 -0.3179 -0.0331  0.0004
  665MOL0     C91653   2.689   8.782   5.225 -0.3691 -0.5168 -0.3423
  665MOL0     C91654   2.826   8.843   5.200  0.8923 -0.0517 -0.7397
  665MOL0     C91655   2.858   8.867   5.053 -0.1942 -0.4646  0.7215
  665MOL0     O91656   2.983   8.940   5.047  0.3233  0.4877  0.1471
  665MOL0     C91657   3.030   8.988   4.932 -0.1390 -0.6377  0.6729
  665MOL0     C91658   3.144   9.061   4.934  0.4071  0.1315 -0.0892
  665MOL0     C91659   3.199   9.119   4.818 -0.1015 -0.1660 -0.0356
  665MOL0     C91660   3.317   9.206   4.832 -0.6392  0.3456 -0.1528
  665MOL0     C91661   3.121   9.117   4.697  0.1772  0.2893  0.0757
  665MOL0     C91662   3.162   9.167   4.563 -0.2732  0.4466 -0.4180
  665MOL0     O91663   3.070   9.198   4.470  1.0407 -0.3875  0.0304
  665MOL0     C91664   3.114   9.222   4.347  0.7636 -0.5261 -0.2421
  665MOL0     C91665   3.191   9.135   4.275 -0.2734  0.0301  1.1853
  665MOL0     C91666   3.240   9.178   4.150  1.6968  0.4466  0.6312
  665MOL0     C91667   3.198   9.300   4.090 -0.9336 -0.2068  0.3174
  665MOL0     O91668   3.230   9.349   3.966 -0.5648 -0.3197  0.0613
  665MOL0     C91669   3.324   9.274   3.882 -0.0077 -0.6840 -0.3006
  665MOL0     C91670   3.381   9.361   3.775  0.7046 -0.5077  0.2426
  665MOL0     C91671   3.444   9.494   3.836  0.1617  0.2469 -0.4858
  665MOL0     C91672   3.564   9.523   3.756 -0.3860  0.0919 -0.4867
  665MOL0     C91673   3.613   9.662   3.771  0.7725  0.4307  1.0273
  665MOL0     C91674   3.764   9.667   3.748 -0.8584 -0.1284  0.4949
  665MOL0     C91675   3.834   9.616   3.874 -0.0730 -0.1582  0.2575
  665MOL0     C91676   3.985   9.653   3.886  1.2468  0.0094  0.1705
  665MOL0    Cl91677   4.072   9.595   3.744 -0.5388 -0.0775  0.0327
  665MOL0     C91678   3.111   9.381   4.169 -0.4295 -0.5492  0.4080
  665MOL0     C91679   3.079   9.349   4.299  0.3251  0.3454  0.2273
  665MOL0     O91680   3.287   9.183   4.545 -0.2164 -0.1592 -0.1189
  665MOL0     C91681   3.004   9.040   4.697 -1.2140 -0.1774  0.1990
  665MOL0     C91682   2.955   8.981   4.817 -0.3035 -0.5622  0.9934
  665MOL0     N91683   2.544   8.492   5.342  0.3982 -0.2394  0.4456
  665MOL0     N91684   2.426   8.451   5.376  0.3541 -0.5573  0.1377
  665MOL0     C91685   1.430   8.789   5.679 -0.5701  0.6669  0.7557
  665MOL0     C91686   1.327   8.879   5.679 -0.8581 -0.6046 -0.1035
  665MOL0     C91687   0.961   9.127   5.721 -0.7621  0.8188  0.4211
  665MOL0     C91688   0.861   9.049   5.780  1.3471  0.4445 -0.3961
  665MOL0     C91689   0.722   9.092   5.773  0.0130 -0.9634  0.5633
  665MOL0     C91690   0.681   9.202   5.700 -0.5577 -0.2327  0.6509
  665MOL0     O91691   0.561   9.269   5.691  0.5557 -0.1670  0.4401
  665MOL0     C91692   0.439   9.199   5.728 -0.0362 -0.1287 -0.1150
  665MOL0     C91693   0.324   9.296   5.705 -0.9643 -0.2379  0.1824
  665MOL0     C91694   0.188   9.239   5.769 -0.0433  0.2493  1.0155
  665MOL0     C91695   0.058   9.311   5.724  0.0442  0.1401  0.1467
  665MOL0     C91696   0.050   9.346   5.578 -0.1398 -0.3998 -1.1980
  665MOL0     C91697   0.040   9.392   5.474 -0.0021  0.3988  0.2080
  665MOL0     C91698   0.793   9.286   5.664 -0.1780 -1.1504 -0.3554
  665MOL0     C91699   0.929   9.253   5.660  1.0238 -0.3113 -1.1183
  665MOL0     C91700   1.026   9.350   5.606 -0.2275  0.5668 -0.7168
  665MOL0     H91701   1.133   8.712   5.907  0.9202 -0.9935  1.3122
  665MOL0     H91702   1.329   8.568   5.913 -0.5644 -0.7731 -1.3856
  665MOL0     H91703   1.433   8.434   5.822  0.5885 -1.7452  1.5980
  665MOL0     H91704   1.604   8.445   5.897  0.7793  0.5614 -1.4611
  665MOL0     H91705   1.619   8.271   5.734  0.8726  1.1939  1.5812
  665MOL0     H91706   1.533   8.370   5.615  0.3453 -3.6547  0.4916
  665MOL0     H91707   1.738   8.543   5.624  1.8951  0.4749 -0.1852
  665MOL0     H91708   1.805   8.439   5.750 -3.0356 -1.8098  2.1499
  665MOL0     H91709   1.814   8.253   5.599 -1.2319 -0.6284 -0.2990
  665MOL0     H91710   1.722   8.340   5.466 -0.5230 -0.0339 -0.3052
  665MOL0     H91711   1.931   8.336   5.380  3.6352  1.1496  0.0427
  665MOL0     H91712   2.002   8.341   5.541  1.2430 -1.3352 -1.5508
  665MOL0     H91713   1.888   8.588   5.398  1.3044  0.7541 -0.4810
  665MOL0     H91714   1.962   8.587   5.552 -0.8758  0.4291  0.0688
  665MOL0     H91715   2.092   8.663   5.331 -3.6570 -1.1257 -2.2422
  665MOL0     H91716   2.105   8.494   5.284 -0.7016 -3.2610  1.1677
  665MOL0     H91717   2.208   8.604   5.552 -2.3018 -1.2812  1.2772
  665MOL0     H91718   2.213   8.438   5.512 -1.7487 -0.6750  0.7367
  665MOL0     H91719   2.407   8.772   5.441  1.1203 -1.1063  1.4642
  665MOL0     H91720   2.766   8.659   5.391 -1.5143 -1.2506  1.2014
  665MOL0     H91721   2.665   8.791   5.436 -1.8089 -0.5188  0.2354
  665MOL0     H91722   2.662   8.716   5.142  1.4956  0.3843 -1.7452
  665MOL0     H91723   2.611   8.858   5.220  0.8397  0.7055 -2.0420
  665MOL0     H91724   2.826   8.942   5.245 -0.4402  0.7404 -2.3682
  665MOL0     H91725   2.902   8.779   5.245 -1.0681 -1.9834  0.0060
  665MOL0     H91726   2.856   8.770   5.003  0.2025 -1.2351  2.1437
  665MOL0     H91727   2.774   8.928   5.018  2.3784  2.0627 -1.6483
  665MOL0     H91728   3.206   9.060   5.023  1.6092  1.3310 -0.8680
  665MOL0     H91729   3.391   9.165   4.763  0.6770 -2.1810  2.5426
  665MOL0     H91730   3.366   9.189   4.928  1.0326  0.9963 -0.8615
  665MOL0     H91731   3.298   9.313   4.824  0.9397  0.8772  2.1934
  665MOL0     H91732   3.212   9.043   4.329  2.9266  1.4037  2.5258
  665MOL0     H91733   3.302   9.114   4.087  1.6411  0.9122  0.0895
  665MOL0     H91734   3.415   9.248   3.937  0.1501 -0.7517 -0.5907
  665MOL0     H91735   3.284   9.185   3.833  1.4899 -0.2083 -2.4964
  665MOL0     H91736   3.460   9.305   3.724  1.7200 -0.0589  1.2886
  665MOL0     H91737   3.303   9.376   3.700 -0.4998 -1.0812  1.3399
  665MOL0     H91738   3.460   9.473   3.942 -0.9423 -2.3181 -0.7327
  665MOL0     H91739   3.371   9.574   3.823 -0.4353 -0.6493 -3.4624
  665MOL0     H91740   3.543   9.509   3.650  2.1793 -0.1090 -1.0181
  665MOL0     H91741   3.643   9.449   3.768 -2.1150 -2.0101 -1.4629
  665MOL0     H91742   3.562   9.719   3.692  1.4329 -2.4836 -1.7036
  665MOL0     H91743   3.591   9.712   3.866  1.7497  2.9289  0.0486
  665MOL0     H91744   3.788   9.770   3.723 -0.2645 -0.8535 -2.1941
  665MOL0     H91745   3.795   9.613   3.658 -1.8719  0.2493 -0.0867
  665MOL0     H91746   3.831   9.507   3.863 -1.4628  0.1326 -4.0718
  665MOL0     H91747   3.788   9.646   3.969 -0.6258  1.8148 -0.5877
  665MOL0     H91748   4.017   9.601   3.977 -0.4679 -1.3805  0.0216
  665MOL0     H91749   3.998   9.759   3.908 -0.3688 -0.2143  2.5430
  665MOL0     H91750   3.074   9.470   4.118  1.5819  0.1102 -0.0212
  665MOL0     H91751   3.011   9.419   4.345 -1.0676  0.4703 -1.8892
  665MOL0     H91752   2.939   9.029   4.611 -0.0196  0.6913 -0.8570
  665MOL0     H91753   2.861   8.928   4.807 -0.9782  0.9952 -2.3461
  665MOL0     H91754   1.514   8.800   5.611 -3.4889 -1.4801 -3.7410
  665MOL0     H91755   1.327   8.965   5.612  0.3935  2.6117  3.5951
  665MOL0     H91756   0.880   8.958   5.836 -1.0944  0.2425  0.2015
  665MOL0     H91757   0.652   9.027   5.825 -0.2290 -0.2606  1.1392
  665MOL0     H91758   0.427   9.102   5.679 -0.2220 -2.2312  3.6629
  665MOL0     H91759   0.434   9.181   5.836  0.1250  2.2646  0.3512
  665MOL0     H91760   0.320   9.312   5.597  1.0915 -0.4597  0.0300
  665MOL0     H91761   0.347   9.390   5.756  3.3370 -1.2078  0.4389
  665MOL0     H91762   0.180   9.134   5.738 -2.2238  0.5682  0.3568
  665MOL0     H91763   0.200   9.241   5.877  2.0845  0.4449  0.8209
  665MOL0     H91764   0.041   9.401   5.784  1.4972  0.2847  0.3706
  665MOL0     H91765  -0.029   9.246   5.740 -1.4656  0.8424 -3.9827
  665MOL0     H91766   0.023   9.442   5.381 -1.2103  0.5877  0.5178
  665MOL0     H91767   0.775   9.384   5.621  3.4295 -0.1098  0.1219
  665MOL0     H91768   0.988   9.421   5.532  1.8608 -0.2372 -2.7067
  665MOL0     H91769   1.093   9.398   5.679  2.1932 -2.0988 -1.0217
  665MOL0     H91770   1.094   9.295   5.541  0.6328  1.9583 -1.0553
  666MOL0     O91771   9.433   9.839  11.239  0.4329 -0.8984  0.2277
  666MOL0     C91772   9.338   9.778  11.299 -1.2598  0.0179 -0.0609
  666MOL0     O91773   9.250   9.689  11.243  0.0947  0.4470  0.7156
  666MOL0     C91774   9.265   9.646  11.112  0.3720 -0.4817  0.0165
  666MOL0     C91775   9.155   9.664  11.026 -0.1881  0.9913 -0.4529
  666MOL0     C91776   9.147   9.584  10.909  1.5522  0.2666  0.3940
  666MOL0     C91777   9.258   9.512  10.859  0.6592  0.1684 -0.4196
  666MOL0     O91778   9.237   9.438  10.745 -0.5125  0.2306 -0.2995
  666MOL0     C91779   9.326   9.322  10.734  0.4560 -0.4697 -0.0769
  666MOL0     C91780   9.271   9.217  10.625  0.5282 -0.4299  0.5010
  666MOL0     C91781   9.362   9.104  10.585  0.3094 -1.0063  0.2038
  666MOL0     C91782   9.403   8.998  10.689 -0.4959  0.0769 -0.2209
  666MOL0     C91783   9.478   8.872  10.647  0.4634  0.6681  0.2257
  666MOL0     C91784   9.497   8.774  10.755 -0.7002  0.6988 -0.3714
  666MOL0     C91785   9.371   8.691  10.786  0.5958 -0.0493  0.4566
  666MOL0     C91786   9.388   8.585  10.901 -0.8107 -0.9617  0.3389
  666MOL0     N91787   9.513   8.507  10.888 -0.1876  0.2493 -0.5434
  666MOL0     C91788   9.534   8.409  10.787 -0.9829 -0.2481  0.3028
  666MOL0     C91789   9.673   8.387  10.799  0.8953  0.1080  0.5070
  666MOL0     C91790   9.753   8.293  10.716 -0.2605 -0.2621 -0.6201
  666MOL0     C91791   9.901   8.299  10.735 -0.4013  0.0524 -0.2694
  666MOL0     C91792   9.962   8.181  10.665 -0.5646 -0.2832 -0.3706
  666MOL0     C91793  10.112   8.203  10.648 -0.4751 -0.3138 -0.4377
  666MOL0     O91794  10.158   8.341  10.656 -0.2994 -0.8670  0.8918
  666MOL0     C91795  10.292   8.362  10.627  0.8687 -0.8540  0.1528
  666MOL0     C91796  10.387   8.273  10.584 -0.3129 -0.0058 -0.0791
  666MOL0     C91797  10.521   8.305  10.567  0.3581  0.1817 -0.4077
  666MOL0     C91798  10.617   8.196  10.534 -0.4062 -0.1475 -0.3176
  666MOL0     C91799  10.563   8.440  10.593  0.0679  0.0306 -0.0919
  666MOL0     C91800  10.707   8.491  10.564 -0.4456 -0.5793 -0.5190
  666MOL0     O91801  10.720   8.609  10.496 -0.0144  0.2736 -0.8957
  666MOL0     C91802  10.845   8.671  10.475 -0.3096 -0.6227 -1.0939
  666MOL0     C91803  10.847   8.755  10.372  0.0972 -0.2330  0.4356
  666MOL0     C91804  10.951   8.844  10.346  0.3689  0.6495  0.4968
  666MOL0     C91805  11.065   8.834  10.429  0.2325  0.2083  0.8986
  666MOL0     O91806  11.173   8.908  10.413 -0.3542 -0.2668  1.1034
  666MOL0     C91807  11.290   8.903  10.491  1.0283 -0.2231  0.6027
  666MOL0     C91808  11.387   9.003  10.433  0.1990  0.5892  0.7197
  666MOL0     C91809  11.340   9.146  10.463  0.8307 -0.1735 -0.0068
  666MOL0     C91810  11.457   9.242  10.476  0.0221 -0.6134  0.4145
  666MOL0     C91811  11.412   9.391  10.451  0.3102  0.9631 -0.4119
  666MOL0     C91812  11.299   9.443  10.545 -0.1411 -0.2852 -0.2312
  666MOL0     C91813  11.252   9.580  10.512  0.6885 -0.3181 -0.3122
  666MOL0     C91814  11.173   9.629  10.629 -0.8606 -0.1064  0.0792
  666MOL0    Cl91815  11.109   9.785  10.599 -0.1741 -0.0069 -0.0416
  666MOL0     C91816  11.062   8.749  10.545 -0.2855 -1.2183  0.3706
  666MOL0     C91817  10.953   8.668  10.567 -0.0069 -0.1801  0.5785
  666MOL0     O91818  10.801   8.426  10.603  0.0409 -0.5168 -0.3794
  666MOL0     C91819  10.466   8.531  10.644 -0.2568  0.1628  0.5233
  666MOL0     C91820  10.333   8.490  10.658  0.6794  1.1920  1.0179
  666MOL0     N91821   9.723   8.465  10.900 -0.9101  0.1726  0.3717
  666MOL0     N91822   9.627   8.535  10.957 -0.7479  0.2361  0.1436
  666MOL0     C91823   9.369   9.505  10.947  0.0785  0.6142 -0.4219
  666MOL0     C91824   9.381   9.579  11.065  0.3877 -0.2876  0.0324
  666MOL0     C91825   9.336   9.809  11.450 -0.3279 -0.3816  0.4654
  666MOL0     C91826   9.439   9.891  11.507 -0.3287 -0.7602  1.3125
  666MOL0     C91827   9.447   9.933  11.638  0.8915 -0.6950  0.5462
  666MOL0     C91828   9.353   9.885  11.726 -0.7348 -0.2694  0.4786
  666MOL0     O91829   9.373   9.915  11.857  0.0423  0.4643 -0.1585
  666MOL0     C91830   9.277   9.851  11.959 -0.1199 -0.8536  0.9664
  666MOL0     C91831   9.305   9.887  12.107 -0.1139  0.1536  1.1386
  666MOL0     C91832   9.217   9.814  12.202  0.5261  1.3842 -0.0632
  666MOL0     C91833   9.252   9.666  12.230 -0.3470  0.1586 -0.3036
  666MOL0     C91834   9.397   9.639  12.250  0.3699  0.7470  0.6612
  666MOL0     C91835   9.514   9.594  12.248  0.2140 -0.7263  0.5790
  666MOL0     C91836   9.255   9.798  11.675  0.9371 -0.1316 -0.0590
  666MOL0     C91837   9.242   9.753  11.545 -0.3852 -0.4182 -0.7089
  666MOL0     C91838   9.136   9.659  11.513 -0.2338  0.1541  0.9644
  666MOL0     H91839   9.069   9.724  11.053  1.0825  3.2908 -1.1964
  666MOL0     H91840   9.060   9.578  10.844  3.4862  0.1029 -2.3419
  666MOL0     H91841   9.323   9.264  10.827 -1.5948  0.9693  0.8507
  666MOL0     H91842   9.429   9.344  10.704 -0.1874 -0.5938 -2.5927
  666MOL0     H91843   9.180   9.166  10.659 -0.8614  2.3576  1.2450
  666MOL0     H91844   9.253   9.274  10.534  1.2572 -2.0512 -0.7099
  666MOL0     H91845   9.311   9.055  10.501  1.5713 -1.4253 -0.3437
  666MOL0     H91846   9.455   9.135  10.536 -0.1054 -0.2386 -0.1216
  666MOL0     H91847   9.465   9.047  10.765 -0.0091 -0.3203 -0.3646
  666MOL0     H91848   9.315   8.960  10.742  1.6437 -1.9733  2.1496
  666MOL0     H91849   9.573   8.906  10.605 -0.1773  1.9699 -0.2395
  666MOL0     H91850   9.434   8.821  10.561 -0.2795  4.2179 -1.6948
  666MOL0     H91851   9.576   8.705  10.724 -0.2162  1.4418 -0.8069
  666MOL0     H91852   9.542   8.821  10.843 -1.0131  0.0626  0.1350
  666MOL0     H91853   9.350   8.627  10.699 -0.2896  0.5890  0.1843
  666MOL0     H91854   9.281   8.748  10.810 -1.0814 -2.6735  0.7879
  666MOL0     H91855   9.400   8.643  10.993 -2.1064 -0.9865  0.5414
  666MOL0     H91856   9.299   8.522  10.911 -1.7830  0.5581  1.6883
  666MOL0     H91857   9.458   8.352  10.734 -1.6170  0.9068 -0.0687
  666MOL0     H91858   9.745   8.332  10.614  0.3906 -0.6103 -0.8150
  666MOL0     H91859   9.704   8.196  10.725 -0.0899 -0.1168  4.2317
  666MOL0     H91860   9.935   8.390  10.686 -1.9542 -0.1160 -1.7506
  666MOL0     H91861   9.928   8.298  10.841 -0.1124 -1.6018 -0.3303
  666MOL0     H91862   9.933   8.093  10.723 -0.3261 -0.2682 -0.2232
  666MOL0     H91863   9.932   8.176  10.560 -1.6830  1.2014 -0.1627
  666MOL0     H91864  10.145   8.154  10.741 -1.7917 -1.4371 -0.5256
  666MOL0     H91865  10.157   8.152  10.562  0.4168  1.0172 -0.7851
  666MOL0     H91866  10.355   8.172  10.560  1.3489 -0.9150  1.2857
  666MOL0     H91867  10.695   8.207  10.610  2.8589  0.0475 -3.4343
  666MOL0     H91868  10.658   8.209  10.434  1.3744 -1.4365  0.1958
  666MOL0     H91869  10.563   8.101  10.534 -2.7401  1.0595 -2.0652
  666MOL0     H91870  10.762   8.770  10.306 -1.6826 -3.9520  1.5879
  666MOL0     H91871  10.947   8.909  10.259 -1.8300  1.2996  1.0293
  666MOL0     H91872  11.270   8.940  10.592 -0.6772 -1.0437  0.5991
  666MOL0     H91873  11.334   8.802  10.494  1.2149 -0.4412 -3.8425
  666MOL0     H91874  11.484   8.982  10.479  1.0446  2.1259 -0.2735
  666MOL0     H91875  11.398   8.981  10.327  3.7353 -1.3275  1.3242
  666MOL0     H91876  11.279   9.154  10.553 -4.9764  1.7271 -3.5895
  666MOL0     H91877  11.274   9.185  10.386 -1.2327 -0.1104  1.6977
  666MOL0     H91878  11.537   9.219  10.405 -1.1683 -1.7219 -0.6187
  666MOL0     H91879  11.496   9.224  10.577 -2.6255  1.7623  2.0006
  666MOL0     H91880  11.510   9.437  10.466  1.6827 -2.0317  0.7380
  666MOL0     H91881  11.365   9.400  10.353 -1.2077 -0.2277  0.1590
  666MOL0     H91882  11.330   9.433  10.649 -1.2708 -0.0979  0.1357
  666MOL0     H91883  11.215   9.375  10.533 -0.9916  0.6744  0.1210
  666MOL0     H91884  11.192   9.591  10.421 -0.3795  0.4892  0.4705
  666MOL0     H91885  11.338   9.644  10.492  1.0146 -0.8244 -0.5623
  666MOL0     H91886  11.240   9.620  10.714 -1.5716  0.0967  0.6767
  666MOL0     H91887  11.084   9.564  10.630 -1.9885  1.2948 -2.0642
  666MOL0     H91888  11.133   8.756  10.627  0.0129  1.2058 -0.0366
  666MOL0     H91889  10.946   8.608  10.657  1.5700 -0.4560  0.5405
  666MOL0     H91890  10.495   8.631  10.674 -2.7583  0.8748  0.7525
  666MOL0     H91891  10.258   8.552  10.707 -0.2222  0.4983  0.5466
  666MOL0     H91892   9.456   9.454  10.906 -2.2712 -2.2596 -2.2350
  666MOL0     H91893   9.468   9.574  11.129  1.9071 -0.2544 -1.9276
  666MOL0     H91894   9.509   9.928  11.432 -2.4339 -0.1194 -0.4624
  666MOL0     H91895   9.512  10.006  11.685 -0.3671  0.3392  0.7236
  666MOL0     H91896   9.182   9.888  11.920  0.9881 -1.0909 -2.3032
  666MOL0     H91897   9.280   9.743  11.947 -3.4133 -0.8011 -2.0993
  666MOL0     H91898   9.272   9.991  12.120 -3.1735 -0.7666  1.4889
  666MOL0     H91899   9.413   9.877  12.126  0.6370 -0.1016 -2.4530
  666MOL0     H91900   9.216   9.872  12.295 -0.9722  0.6678  0.3964
  666MOL0     H91901   9.115   9.813  12.161  0.3629 -0.3798  0.3208
  666MOL0     H91902   9.217   9.610  12.143  0.1216 -0.0929 -0.3348
  666MOL0     H91903   9.199   9.631  12.319  1.8639  1.8923  1.8439
  666MOL0     H91904   9.613   9.554  12.240  0.5447  0.1638  0.1448
  666MOL0     H91905   9.180   9.767  11.748  0.7089  2.0514  0.7188
  666MOL0     H91906   9.190   9.564  11.500 -0.8997  0.1743 -3.4706
  666MOL0     H91907   9.055   9.652  11.586  0.7461 -0.0124  2.0709
  666MOL0     H91908   9.087   9.707  11.427 -0.8497  1.4166  1.9882
  667MOL0     O91909   0.859   6.617  10.932  0.1385 -0.6283  0.1839
  667MOL0     C91910   0.869   6.532  11.021  0.5978 -0.7126 -0.2329
  667MOL0     O91911   0.984   6.484  11.081 -0.2910 -0.5590  0.6145
  667MOL0     C91912   1.106   6.522  11.038 -0.7266  0.3645  0.1021
  667MOL0     C91913   1.185   6.574  11.145 -0.7295  0.3663  0.2076
  667MOL0     C91914   1.309   6.630  11.110  0.1826  0.4585 -0.3462
  667MOL0     C91915   1.354   6.626  10.977 -0.1124 -0.0162 -0.0522
  667MOL0     O91916   1.476   6.682  10.946 -0.0195  0.4239  0.0705
  667MOL0     C91917   1.525   6.658  10.815  0.5063 -0.1113  0.1288
  667MOL0     C91918   1.653   6.721  10.787  0.3383 -1.4177  0.4366
  667MOL0     C91919   1.755   6.695  10.898 -0.9381  0.7556 -0.1082
  667MOL0     C91920   1.896   6.732  10.879 -0.7308 -0.4133 -0.4767
  667MOL0     C91921   1.962   6.729  11.024  0.2737  1.0044 -0.5086
  667MOL0     C91922   2.107   6.794  11.034 -0.1380  0.7512  0.0655
  667MOL0     C91923   2.212   6.719  10.955  0.0140  0.2321  0.2152
  667MOL0     C91924   2.357   6.756  10.999 -0.0285  0.1247 -1.2736
  667MOL0     N91925   2.445   6.642  11.020 -0.3824 -0.3867  0.5535
  667MOL0     C91926   2.453   6.556  11.121 -0.2789 -0.4842  0.5951
  667MOL0     C91927   2.558   6.476  11.093 -0.3863  0.6336 -0.4699
  667MOL0     C91928   2.613   6.366  11.181 -0.4987 -0.7918 -0.3539
  667MOL0     C91929   2.578   6.228  11.118  0.6015 -0.6044  0.3965
  667MOL0     C91930   2.586   6.119  11.222 -0.0240  0.6386 -0.4116
  667MOL0     C91931   2.468   6.124  11.320 -0.2719  0.3440  0.1600
  667MOL0     O91932   2.366   6.031  11.277  0.0658 -0.8100  0.1114
  667MOL0     C91933   2.238   6.054  11.321  0.0980  0.2241 -0.3087
  667MOL0     C91934   2.132   6.002  11.243 -0.4801  0.2636 -0.8770
  667MOL0     C91935   2.004   5.998  11.292 -1.8365 -0.3480  0.1194
  667MOL0     C91936   1.903   5.946  11.195 -1.0337  0.4048 -0.0329
  667MOL0     C91937   1.973   6.064  11.403 -0.5246 -0.0249 -0.4700
  667MOL0     C91938   1.833   6.062  11.466  0.4468 -0.4729  0.1015
  667MOL0     O91939   1.752   5.959  11.444  0.2741  0.4022 -0.3504
  667MOL0     C91940   1.620   5.981  11.474  0.2332 -0.4680 -0.7348
  667MOL0     C91941   1.573   5.913  11.587  0.2285 -0.3855 -0.0191
  667MOL0     C91942   1.437   5.926  11.628  0.5387  0.0627 -0.0452
  667MOL0     C91943   1.341   6.005  11.543 -1.0292  1.0398 -0.2998
  667MOL0     O91944   1.202   6.012  11.566  0.5274 -0.4615  0.2589
  667MOL0     C91945   1.144   5.896  11.626  0.6743  0.0198 -0.3961
  667MOL0     C91946   1.009   5.935  11.677  0.6157 -0.1511  0.8166
  667MOL0     C91947   0.968   5.849  11.804  0.1913  0.2299  0.5222
  667MOL0     C91948   0.827   5.895  11.839 -0.0496 -0.4593  0.7759
  667MOL0     C91949   0.789   5.868  11.982  0.2886 -0.1916  0.1956
  667MOL0     C91950   0.638   5.904  12.005 -0.1707  0.3130  0.2348
  667MOL0     C91951   0.542   5.799  11.946  0.1353  0.6825  0.0154
  667MOL0     C91952   0.411   5.778  12.019 -0.2689 -0.2024  0.3661
  667MOL0    Cl91953   0.322   5.636  11.968  0.1265  0.4241  0.1158
  667MOL0     C91954   1.394   6.070  11.427  0.5374 -0.7027  0.1247
  667MOL0     C91955   1.532   6.073  11.405 -0.2521 -0.4918  0.5045
  667MOL0     O91956   1.810   6.156  11.538 -0.0790  0.6867 -0.2883
  667MOL0     C91957   2.070   6.135  11.469 -0.6559 -0.6432 -0.4078
  667MOL0     C91958   2.201   6.127  11.430  0.0396  0.5523  1.1330
  667MOL0     N91959   2.630   6.527  10.980 -0.4612 -0.0435 -0.3278
  667MOL0     N91960   2.551   6.624  10.940 -0.8211 -0.2591  0.3716
  667MOL0     C91961   1.275   6.567  10.878  0.6200  1.4038  0.5966
  667MOL0     C91962   1.150   6.514  10.907 -0.1115  0.5697  0.9904
  667MOL0     C91963   0.744   6.474  11.076  0.3095 -0.3001 -0.4381
  667MOL0     C91964   0.752   6.354  11.155  0.1725  0.0419 -0.2500
  667MOL0     C91965   0.640   6.302  11.221 -0.5746 -0.1007  0.6749
  667MOL0     C91966   0.516   6.357  11.203 -0.7498 -0.1196 -0.1746
  667MOL0     O91967   0.418   6.293  11.273 -0.4383 -0.0991 -0.0952
  667MOL0     C91968   0.295   6.359  11.297 -0.5941  0.5477 -0.5761
  667MOL0     C91969   0.212   6.242  11.347  0.3137  0.0025  0.3217
  667MOL0     C91970   0.063   6.281  11.361 -0.4469 -0.2408  0.2800
  667MOL0     C91971  -0.028   6.165  11.417  0.9639 -0.1733 -0.3783
  667MOL0     C91972  -0.058   6.087  11.298  0.0390  0.1895  0.2740
  667MOL0     C91973  -0.096   6.012  11.206 -1.0089 -0.3201 -0.1531
  667MOL0     C91974   0.500   6.466  11.120 -0.6388 -0.2052  0.3512
  667MOL0     C91975   0.613   6.523  11.056  0.0492  0.3137 -0.1066
  667MOL0     C91976   0.582   6.625  10.955 -0.6475  0.6958  0.5834
  667MOL0     H91977   1.138   6.583  11.243 -0.4371  1.7489  0.2405
  667MOL0     H91978   1.373   6.670  11.188  1.3049 -1.2878 -0.3060
  667MOL0     H91979   1.467   6.699  10.732 -0.0061  1.3858  1.1807
  667MOL0     H91980   1.539   6.549  10.812 -0.1245 -0.1970  0.0699
  667MOL0     H91981   1.682   6.672  10.693 -2.3683 -1.1761 -0.6460
  667MOL0     H91982   1.634   6.827  10.770 -1.5206 -1.8081 -0.2515
  667MOL0     H91983   1.713   6.742  10.987 -0.1879  2.6452 -0.6984
  667MOL0     H91984   1.759   6.586  10.907 -1.0989  0.6194 -1.4996
  667MOL0     H91985   1.943   6.664  10.808 -2.4694 -1.2998 -0.8413
  667MOL0     H91986   1.901   6.837  10.849 -0.3729  0.4324  2.2060
  667MOL0     H91987   1.967   6.626  11.060 -2.8024  1.0428  0.3324
  667MOL0     H91988   1.896   6.787  11.089  1.3659  2.0127 -0.2723
  667MOL0     H91989   2.104   6.899  11.002 -3.9704  1.3913  1.8544
  667MOL0     H91990   2.128   6.801  11.141  0.5612  2.4217 -0.1542
  667MOL0     H91991   2.198   6.721  10.846  0.3086 -5.3550 -0.1785
  667MOL0     H91992   2.190   6.614  10.974  1.1769  0.3439  2.4710
  667MOL0     H91993   2.404   6.824  10.927  0.8312 -0.4974 -1.3156
  667MOL0     H91994   2.349   6.806  11.095 -2.6342  0.0517 -1.3763
  667MOL0     H91995   2.385   6.547  11.205 -1.2640 -0.1609 -0.1459
  667MOL0     H91996   2.576   6.381  11.282  0.0889  2.3020 -0.5186
  667MOL0     H91997   2.721   6.385  11.183 -0.7932  1.0041  0.5508
  667MOL0     H91998   2.481   6.223  11.068 -1.7132  0.9710  4.2835
  667MOL0     H91999   2.661   6.211  11.049  1.9541 -0.2259  1.8570
  667MOL0     H92000   2.577   6.022  11.172 -0.5563  0.2799  0.3717
  667MOL0     H92001   2.687   6.116  11.266  1.1537 -2.3608 -2.9510
  667MOL0     H92002   2.495   6.099  11.423  0.0482 -1.5674 -0.3653
  667MOL0     H92003   2.428   6.226  11.332  1.4716  1.0338  0.4013
  667MOL0     H92004   2.164   5.945  11.155  0.1908 -1.3777  0.3670
  667MOL0     H92005   1.872   5.845  11.225  1.7799 -0.7929 -0.8513
  667MOL0     H92006   1.951   5.935  11.098  1.8589  0.2741  1.3073
  667MOL0     H92007   1.816   6.011  11.184 -0.0878  2.1393  1.9862
  667MOL0     H92008   1.638   5.853  11.651 -1.6339 -1.2571  1.1386
  667MOL0     H92009   1.413   5.867  11.715 -1.8931  2.0458  0.7647
  667MOL0     H92010   1.133   5.815  11.555 -0.0384 -1.4329  1.2983
  667MOL0     H92011   1.212   5.865  11.707  1.5928  0.3035 -1.0404
  667MOL0     H92012   1.018   6.039  11.708 -0.7661  0.4004 -0.5053
  667MOL0     H92013   0.939   5.929  11.593  0.2823  1.9408  0.8885
  667MOL0     H92014   1.032   5.867  11.890  2.3338  0.0945 -0.9625
  667MOL0     H92015   0.963   5.750  11.759 -0.8203  0.7735 -0.6500
  667MOL0     H92016   0.749   5.852  11.774  0.1536 -0.7036  0.6922
  667MOL0     H92017   0.824   6.004  11.846  0.4782 -0.4235  0.4731
  667MOL0     H92018   0.794   5.762  12.007 -0.8592 -0.3177 -0.0268
  667MOL0     H92019   0.844   5.925  12.057 -1.6716  1.5041  0.4435
  667MOL0     H92020   0.631   6.002  11.958 -1.3423  0.7902  1.3739
  667MOL0     H92021   0.627   5.902  12.113  3.4063 -2.4182  0.7688
  667MOL0     H92022   0.585   5.699  11.947 -3.6285 -1.1948 -2.7726
  667MOL0     H92023   0.531   5.829  11.842  0.5533 -0.1276 -0.2704
  667MOL0     H92024   0.345   5.865  12.010  1.8490  1.6014  1.3579
  667MOL0     H92025   0.429   5.758  12.125  0.1216 -1.3299  0.0947
  667MOL0     H92026   1.321   6.132  11.377  0.0841  1.0528  2.8012
  667MOL0     H92027   1.573   6.136  11.328 -1.0422 -2.0454 -1.2745
  667MOL0     H92028   2.063   6.183  11.565 -1.4341 -1.1125 -0.2259
  667MOL0     H92029   2.277   6.188  11.477  0.8646  1.9487 -1.7971
  667MOL0     H92030   1.304   6.561  10.774 -1.3503  0.3453  0.0632
  667MOL0     H92031   1.087   6.466  10.833  2.0989 -0.1136 -0.5557
  667MOL0     H92032   0.846   6.310  11.186  1.6649  1.0031 -3.0732
  667MOL0     H92033   0.643   6.214  11.284  2.2134 -0.4526  0.1852
  667MOL0     H92034   0.311   6.439  11.369 -1.1778 -0.9934  1.3585
  667MOL0     H92035   0.265   6.399  11.200  0.9330  0.6028 -1.0530
  667MOL0     H92036   0.248   6.210  11.445 -0.7304  0.1243  0.7527
  667MOL0     H92037   0.227   6.161  11.274 -0.5216  1.1005 -1.1321
  667MOL0     H92038   0.064   6.366  11.430 -1.5271  0.3785 -0.4252
  667MOL0     H92039   0.016   6.318  11.269 -3.6908 -0.1975  1.8092
  667MOL0     H92040  -0.123   6.198  11.461  1.1265 -0.2372  0.0260
  667MOL0     H92041   0.021   6.101  11.491 -1.7635 -3.3655 -1.1101
  667MOL0     H92042  -0.126   5.952  11.122 -2.6893  0.8101 -0.4186
  667MOL0     H92043   0.398   6.495  11.097 -0.1444  1.6793  0.4109
  667MOL0     H92044   0.476   6.650  10.953 -1.0464 -0.7737  1.7735
  667MOL0     H92045   0.636   6.718  10.978 -1.5901  0.7160  3.0273
  667MOL0     H92046   0.618   6.583  10.860  0.9670 -1.7230  2.1377
  668MOL0     O92047   3.903   6.151   5.984 -0.2071  0.7051  0.2103
  668MOL0     C92048   3.900   6.136   5.860 -0.4661  0.6983 -0.5671
  668MOL0     O92049   4.015   6.113   5.781  0.3388  0.3934  0.4750
  668MOL0     C92050   4.148   6.120   5.820 -0.3004  0.3943  0.3889
  668MOL0     C92051   4.242   6.025   5.783 -0.0786 -0.1921  0.9696
  668MOL0     C92052   4.377   6.023   5.812 -0.0335 -0.2688 -0.6875
  668MOL0     C92053   4.439   6.134   5.874 -0.4242 -0.8433 -0.7620
  668MOL0     O92054   4.571   6.136   5.905  0.0235 -0.1406  0.1382
  668MOL0     C92055   4.605   6.164   6.041 -0.3736 -0.2889  0.2907
  668MOL0     C92056   4.649   6.313   6.052  0.4423 -0.6751 -0.1851
  668MOL0     C92057   4.787   6.328   5.985  0.6346  0.4587 -1.4657
  668MOL0     C92058   4.777   6.393   5.844  0.3579 -0.0802  0.5424
  668MOL0     C92059   4.911   6.438   5.802  0.8866  0.3007  0.8726
  668MOL0     C92060   5.022   6.333   5.775  1.0991  0.5721  0.1550
  668MOL0     C92061   5.126   6.378   5.672  0.2375  0.4953 -0.3892
  668MOL0     C92062   5.214   6.497   5.712  0.3638  1.4822 -0.6310
  668MOL0     N92063   5.288   6.470   5.841  0.1861 -0.4347  0.3799
  668MOL0     C92064   5.255   6.510   5.970  0.1237 -0.0302  0.1536
  668MOL0     C92065   5.361   6.479   6.052  0.0107 -0.0556 -0.6248
  668MOL0     C92066   5.368   6.501   6.204  0.2445  0.2167 -0.8891
  668MOL0     C92067   5.286   6.407   6.286  0.3309 -0.3375  0.6730
  668MOL0     C92068   5.333   6.257   6.267  0.8957  0.4135  0.0632
  668MOL0     C92069   5.470   6.205   6.328 -0.7414 -0.4998 -0.0216
  668MOL0     O92070   5.468   6.064   6.330  0.3473  0.0509 -0.5636
  668MOL0     C92071   5.571   5.981   6.351 -0.0398  0.3368 -1.0055
  668MOL0     C92072   5.532   5.842   6.346 -0.5265 -1.0229 -0.0110
  668MOL0     C92073   5.634   5.749   6.379  0.5477  0.1972 -0.6007
  668MOL0     C92074   5.591   5.607   6.414 -0.4037 -0.4788  0.1600
  668MOL0     C92075   5.767   5.783   6.403 -0.4883 -0.0416 -0.1923
  668MOL0     C92076   5.872   5.679   6.423  0.5862  0.4708  0.5062
  668MOL0     O92077   5.952   5.698   6.527 -0.2293  0.2922  0.3245
  668MOL0     C92078   6.066   5.622   6.543  0.2605  0.1539  0.1237
  668MOL0     C92079   6.129   5.540   6.446 -0.8773  0.1778 -0.5380
  668MOL0     C92080   6.228   5.450   6.484  0.1722 -0.0386 -0.1192
  668MOL0     C92081   6.268   5.428   6.618  0.0695  0.0644  0.2303
  668MOL0     O92082   6.353   5.334   6.660 -0.3058  0.2764 -0.1084
  668MOL0     C92083   6.291   5.214   6.710 -0.3706 -0.0344 -0.4040
  668MOL0     C92084   6.351   5.173   6.840  0.1503 -0.4313 -0.9536
  668MOL0     C92085   6.355   5.279   6.953  0.8167 -0.0862  0.5853
  668MOL0     C92086   6.435   5.245   7.070  0.7151  0.0844 -0.1763
  668MOL0     C92087   6.446   5.356   7.179 -0.0703 -0.6672 -0.0106
  668MOL0     C92088   6.543   5.463   7.136 -0.5492  0.3314 -0.1373
  668MOL0     C92089   6.477   5.587   7.059  0.0424 -0.1852  0.5807
  668MOL0     C92090   6.567   5.621   6.933 -0.8754 -1.0158  0.1771
  668MOL0    Cl92091   6.716   5.677   7.002 -0.1137  0.3586  0.6257
  668MOL0     C92092   6.200   5.498   6.720  0.5379  0.0596  0.6725
  668MOL0     C92093   6.114   5.606   6.678  0.2657 -0.3298  0.3757
  668MOL0     O92094   5.884   5.592   6.335  0.4359  0.4987 -0.0843
  668MOL0     C92095   5.799   5.919   6.399 -0.8739  0.5957  0.6874
  668MOL0     C92096   5.710   6.018   6.366  0.8938  0.5327  0.3265
  668MOL0     N92097   5.455   6.423   5.965 -0.1222  0.1839 -0.9887
  668MOL0     N92098   5.416   6.421   5.841  0.0854  0.3998 -0.0607
  668MOL0     C92099   4.345   6.227   5.930  0.2867 -0.9180 -0.1201
  668MOL0     C92100   4.202   6.221   5.901 -0.0991 -0.6869 -0.6826
  668MOL0     C92101   3.773   6.139   5.793 -0.1295 -0.6030  0.1293
  668MOL0     C92102   3.755   6.081   5.670  0.3011  0.3217  0.4449
  668MOL0     C92103   3.635   6.075   5.597  0.0729 -0.8784  1.0873
  668MOL0     C92104   3.524   6.153   5.640 -1.4500  0.2623  0.2835
  668MOL0     O92105   3.420   6.159   5.555  0.7303  0.6744  1.0307
  668MOL0     C92106   3.312   6.240   5.586 -0.1852 -0.5882 -0.3060
  668MOL0     C92107   3.217   6.256   5.471  0.2757  0.3823 -0.3024
  668MOL0     C92108   3.112   6.360   5.496 -0.0676  0.2134  0.2798
  668MOL0     C92109   3.022   6.388   5.373 -0.4998 -0.2149 -0.5127
  668MOL0     C92110   2.902   6.457   5.415 -0.4285  0.4417 -0.3181
  668MOL0     C92111   2.812   6.527   5.443  0.3853 -0.4901 -0.0807
  668MOL0     C92112   3.542   6.218   5.766  0.0426  0.1619  0.6690
  668MOL0     C92113   3.655   6.213   5.847 -0.0351  0.3181  0.1808
  668MOL0     C92114   3.666   6.292   5.972  0.4717 -0.3810 -0.7682
  668MOL0     H92115   4.200   5.941   5.729 -1.2652  0.1333  1.3554
  668MOL0     H92116   4.431   5.933   5.783  3.2085  1.0705  0.7154
  668MOL0     H92117   4.686   6.099   6.076 -2.6031 -2.5627  1.5782
  668MOL0     H92118   4.512   6.152   6.098 -2.0547 -1.5327 -2.5215
  668MOL0     H92119   4.581   6.380   5.998  0.0885 -2.0828 -1.5683
  668MOL0     H92120   4.648   6.343   6.157 -3.1366 -0.5492 -0.1253
  668MOL0     H92121   4.851   6.382   6.055  2.5245 -2.6824 -0.5754
  668MOL0     H92122   4.838   6.231   5.978  1.3006  0.6508  0.2272
  668MOL0     H92123   4.743   6.316   5.773  3.1174  0.5997 -1.7275
  668MOL0     H92124   4.706   6.474   5.861 -1.0086 -0.8265 -1.2257
  668MOL0     H92125   4.948   6.506   5.879  1.9629  3.1817 -1.9620
  668MOL0     H92126   4.895   6.490   5.707 -2.2789 -1.5716  0.2236
  668MOL0     H92127   5.069   6.282   5.860  0.0391 -0.4502  0.1589
  668MOL0     H92128   4.969   6.248   5.731  1.2999  0.5364 -0.0227
  668MOL0     H92129   5.083   6.419   5.580 -1.6068  0.1768  0.2881
  668MOL0     H92130   5.193   6.296   5.646  1.0778  1.6385 -1.9893
  668MOL0     H92131   5.290   6.502   5.633  1.1080 -0.0132 -0.0583
  668MOL0     H92132   5.168   6.596   5.717  0.3927  1.4374  0.7747
  668MOL0     H92133   5.167   6.563   6.006  2.1770  1.7585  3.0090
  668MOL0     H92134   5.334   6.601   6.230  1.8184  0.3062  1.0548
  668MOL0     H92135   5.474   6.486   6.229 -0.3665 -1.8985  0.7129
  668MOL0     H92136   5.294   6.420   6.394 -1.3985 -2.1441  1.0886
  668MOL0     H92137   5.183   6.422   6.252  0.3115 -0.0793  0.8480
  668MOL0     H92138   5.258   6.188   6.307  2.4944 -1.4996 -0.0899
  668MOL0     H92139   5.350   6.244   6.160  1.4170 -0.4034  0.2385
  668MOL0     H92140   5.555   6.255   6.280 -0.8093  1.6196  1.9569
  668MOL0     H92141   5.467   6.238   6.432 -1.8043  2.7678 -0.9830
  668MOL0     H92142   5.428   5.817   6.330 -0.7246 -0.0041 -0.3567
  668MOL0     H92143   5.638   5.577   6.508  1.2581 -1.2883 -0.8779
  668MOL0     H92144   5.625   5.541   6.334  0.2965  0.8637 -0.6869
  668MOL0     H92145   5.483   5.594   6.418 -0.8119  2.3336  0.1844
  668MOL0     H92146   6.104   5.535   6.340  0.0197 -1.0773 -0.7180
  668MOL0     H92147   6.266   5.396   6.397  0.7619 -0.6408  0.5044
  668MOL0     H92148   6.184   5.228   6.728 -0.5180 -0.4595 -0.9057
  668MOL0     H92149   6.304   5.131   6.639  3.9390 -0.2213  0.3141
  668MOL0     H92150   6.295   5.085   6.875 -0.3802  0.1844 -0.2205
  668MOL0     H92151   6.457   5.151   6.829  0.9035  1.5919  1.3864
  668MOL0     H92152   6.256   5.297   6.996  0.3856 -2.5316  0.8086
  668MOL0     H92153   6.403   5.367   6.910 -2.6702  0.9570 -1.5570
  668MOL0     H92154   6.533   5.215   7.034 -0.0984 -1.9131 -0.8440
  668MOL0     H92155   6.394   5.150   7.106  2.2695 -0.2690  0.7318
  668MOL0     H92156   6.346   5.391   7.206 -1.0700 -1.7792 -2.0404
  668MOL0     H92157   6.483   5.323   7.276  1.1681  2.5995  0.7390
  668MOL0     H92158   6.633   5.433   7.082 -1.5296 -1.6064 -0.7914
  668MOL0     H92159   6.589   5.519   7.218  2.6536 -0.2083 -1.4450
  668MOL0     H92160   6.467   5.670   7.129 -1.7514 -2.1585  2.8572
  668MOL0     H92161   6.376   5.561   7.026  0.0259  0.6335 -0.0194
  668MOL0     H92162   6.520   5.702   6.875  0.0996 -1.5676 -1.4671
  668MOL0     H92163   6.589   5.536   6.867 -0.1751 -2.2364  1.9245
  668MOL0     H92164   6.228   5.470   6.821  0.3368 -2.6091  0.0741
  668MOL0     H92165   6.066   5.667   6.754 -1.2792  0.6991 -1.3256
  668MOL0     H92166   5.904   5.940   6.412 -0.9841  0.1837  2.4970
  668MOL0     H92167   5.751   6.116   6.343  0.3606  0.9969  1.2900
  668MOL0     H92168   4.375   6.305   6.000 -2.1449 -1.3202  1.5063
  668MOL0     H92169   4.135   6.304   5.923  0.2976 -0.0003 -2.0239
  668MOL0     H92170   3.835   6.027   5.621 -2.4084 -0.8518 -3.1649
  668MOL0     H92171   3.627   6.009   5.512  0.3442 -0.7250  0.9412
  668MOL0     H92172   3.246   6.217   5.670 -0.8713  4.1054  0.7216
  668MOL0     H92173   3.356   6.338   5.608 -0.3093 -1.3791  4.7705
  668MOL0     H92174   3.175   6.158   5.446  2.7827 -1.3201  1.7411
  668MOL0     H92175   3.278   6.285   5.385  0.1046 -0.7897 -0.8384
  668MOL0     H92176   3.052   6.311   5.574  0.6761 -2.7721 -0.8714
  668MOL0     H92177   3.160   6.455   5.520  2.0911 -0.0076 -2.5848
  668MOL0     H92178   2.995   6.297   5.319 -0.1630 -0.6649  0.0678
  668MOL0     H92179   3.084   6.439   5.299  0.6216  0.7100  1.0008
  668MOL0     H92180   2.718   6.568   5.474  1.5548  0.5931  2.2852
  668MOL0     H92181   3.468   6.290   5.799  0.7729  0.5133  1.5702
  668MOL0     H92182   3.666   6.227   6.060 -0.3236 -0.0194 -0.4943
  668MOL0     H92183   3.753   6.359   5.973 -0.8364  1.3929 -1.6114
  668MOL0     H92184   3.576   6.351   5.990  0.7884  0.1090 -0.7673
  669MOL0     O92185   4.858  11.452   7.819 -0.5263 -0.0651  0.4446
  669MOL0     C92186   4.888  11.541   7.738  0.2824 -0.1686  0.2106
  669MOL0     O92187   5.004  11.611   7.726 -0.2135  0.0771 -0.3010
  669MOL0     C92188   5.099  11.587   7.823  0.0059  0.0463  0.1281
  669MOL0     C92189   5.070  11.628   7.949 -1.0404  0.2974 -0.2461
  669MOL0     C92190   5.170  11.594   8.051 -0.2715 -0.3519  0.2578
  669MOL0     C92191   5.283  11.518   8.019  0.0054 -0.0286  1.0352
  669MOL0     O92192   5.373  11.525   8.115 -0.2064  0.2495  1.0409
  669MOL0     C92193   5.505  11.497   8.067  0.3714  0.4321 -0.3019
  669MOL0     C92194   5.604  11.494   8.186  0.4084 -0.0238 -0.0119
  669MOL0     C92195   5.754  11.466   8.132  0.1825 -0.9968 -0.7052
  669MOL0     C92196   5.851  11.463   8.254 -0.0959  0.6336 -0.3139
  669MOL0     C92197   5.995  11.446   8.209 -0.8674  0.0177 -0.5486
  669MOL0     C92198   6.086  11.500   8.325  0.0851  0.7615 -0.1008
  669MOL0     C92199   6.239  11.485   8.308  0.0665 -0.7818 -0.8946
  669MOL0     C92200   6.286  11.348   8.355  0.7151 -0.2744  0.0951
  669MOL0     N92201   6.436  11.329   8.338 -0.4706  0.1314  0.0268
  669MOL0     C92202   6.529  11.335   8.444  0.7213 -0.2614  0.3386
  669MOL0     C92203   6.649  11.362   8.381 -0.3830  0.3078  0.4068
  669MOL0     C92204   6.787  11.372   8.444 -1.2479 -1.1012  0.9145
  669MOL0     C92205   6.851  11.515   8.432  0.3119  0.4370  0.1705
  669MOL0     C92206   6.870  11.559   8.289 -0.2743  0.7294  0.0047
  669MOL0     C92207   6.938  11.453   8.194 -0.3595  0.4116 -0.3018
  669MOL0     O92208   6.959  11.492   8.059 -0.4582  0.2781 -0.2257
  669MOL0     C92209   7.061  11.436   7.988 -1.0774 -0.7541  0.9402
  669MOL0     C92210   7.153  11.341   8.034 -0.3298  0.1469 -0.3363
  669MOL0     C92211   7.256  11.287   7.957  0.4130 -0.5050  0.0816
  669MOL0     C92212   7.340  11.185   8.026  1.1125  0.0888  0.0412
  669MOL0     C92213   7.264  11.330   7.818  0.3830 -0.2435  0.0705
  669MOL0     C92214   7.353  11.273   7.715  0.1673 -0.3433  0.6283
  669MOL0     O92215   7.328  11.312   7.582 -0.2227 -0.7052  0.6167
  669MOL0     C92216   7.420  11.282   7.486 -0.3461 -0.0014  0.7755
  669MOL0     C92217   7.392  11.183   7.390 -0.1017 -0.5482 -0.2520
  669MOL0     C92218   7.481  11.162   7.278 -0.7308  0.0750 -0.4012
  669MOL0     C92219   7.601  11.228   7.269  0.8534  0.2098  1.0704
  669MOL0     O92220   7.686  11.211   7.157 -0.5190 -0.1502  0.3881
  669MOL0     C92221   7.627  11.164   7.033 -0.3711  0.0492 -0.1888
  669MOL0     C92222   7.705  11.155   6.901  0.0958  0.7849 -0.1855
  669MOL0     C92223   7.763  11.294   6.853  0.9517  0.2004 -0.4990
  669MOL0     C92224   7.858  11.292   6.734  0.1527  0.6769 -0.1770
  669MOL0     C92225   7.994  11.227   6.779 -0.6826 -0.0905  0.9098
  669MOL0     C92226   8.082  11.207   6.664  0.3299  0.3474  0.4867
  669MOL0     C92227   8.191  11.115   6.697  0.1778  1.0828  0.0127
  669MOL0     C92228   8.314  11.112   6.598 -0.5363 -0.3531 -0.3056
  669MOL0    Cl92229   8.266  11.139   6.432 -0.1831 -0.0245  0.4837
  669MOL0     C92230   7.631  11.318   7.368  0.1570 -0.2866  0.0717
  669MOL0     C92231   7.541  11.347   7.479 -0.5428 -0.7978 -0.6877
  669MOL0     O92232   7.452  11.208   7.757  0.0620 -0.4547  0.9398
  669MOL0     C92233   7.171  11.420   7.776 -0.4174 -0.6345  0.6601
  669MOL0     C92234   7.073  11.476   7.857  0.9513  0.5790  0.6141
  669MOL0     N92235   6.632  11.368   8.241 -0.0986  0.2060 -0.7093
  669MOL0     N92236   6.505  11.353   8.227 -0.7108 -0.2841  0.2080
  669MOL0     C92237   5.308  11.475   7.887  0.2636 -0.7470 -0.3628
  669MOL0     C92238   5.200  11.496   7.794 -0.5792 -0.0505 -0.0448
  669MOL0     C92239   4.792  11.586   7.631 -0.2063  0.7194 -0.2528
  669MOL0     C92240   4.827  11.682   7.541 -0.5987 -0.9116 -0.1675
  669MOL0     C92241   4.736  11.722   7.447  0.1443 -0.1736 -0.7045
  669MOL0     C92242   4.608  11.675   7.432  0.0105 -0.0683 -0.4400
  669MOL0     O92243   4.524  11.722   7.335 -0.2152  0.2701  0.9762
  669MOL0     C92244   4.561  11.653   7.218  0.7810  0.5349  0.4759
  669MOL0     C92245   4.436  11.653   7.137  0.0648  0.4854 -0.3538
  669MOL0     C92246   4.423  11.781   7.059 -0.0540  0.9235 -0.6853
  669MOL0     C92247   4.308  11.764   6.952 -1.0305 -0.4545 -0.7594
  669MOL0     C92248   4.174  11.793   7.002  0.3336  0.4394 -0.7372
  669MOL0     C92249   4.065  11.808   7.055  0.1056 -0.9388  0.2045
  669MOL0     C92250   4.565  11.586   7.527  0.4093  0.4795 -0.0549
  669MOL0     C92251   4.655  11.537   7.626  0.7779 -0.5316 -0.1427
  669MOL0     C92252   4.583  11.445   7.724  0.3179 -1.3414  0.2619
  669MOL0     H92253   4.987  11.694   7.969  0.9872  3.1119 -0.6118
  669MOL0     H92254   5.147  11.626   8.152  1.0112  0.1029  0.4180
  669MOL0     H92255   5.545  11.570   7.997 -0.4578  0.3715 -0.8570
  669MOL0     H92256   5.505  11.396   8.024 -1.2503 -0.5739  1.8691
  669MOL0     H92257   5.610  11.585   8.248  3.2283 -1.1995  1.6428
  669MOL0     H92258   5.584  11.407   8.249  0.6049 -0.5383 -0.6459
  669MOL0     H92259   5.749  11.372   8.077 -2.4484 -1.3400 -0.0104
  669MOL0     H92260   5.789  11.546   8.066  0.9093  0.1996  1.0721
  669MOL0     H92261   5.836  11.566   8.289  2.4154  0.7083  0.7831
  669MOL0     H92262   5.820  11.388   8.327 -2.4269  0.1103 -1.7142
  669MOL0     H92263   6.017  11.497   8.114  0.1961  0.1029 -0.2693
  669MOL0     H92264   6.013  11.338   8.202 -2.2007 -0.2707  0.1997
  669MOL0     H92265   6.063  11.606   8.339 -0.8600  0.5919 -0.2990
  669MOL0     H92266   6.058  11.446   8.416  0.7606  0.8159  0.1443
  669MOL0     H92267   6.287  11.569   8.359 -2.4120  1.1820 -1.5817
  669MOL0     H92268   6.257  11.496   8.201 -2.2846  0.1753 -1.2632
  669MOL0     H92269   6.256  11.328   8.458 -1.6107 -2.4263 -0.8871
  669MOL0     H92270   6.233  11.272   8.297  0.9810  1.2740 -2.2957
  669MOL0     H92271   6.512  11.323   8.550  1.6696  0.8895  0.6457
  669MOL0     H92272   6.846  11.289   8.403 -2.5668 -0.9971 -1.3744
  669MOL0     H92273   6.783  11.352   8.551  1.8801 -0.9153  1.1620
  669MOL0     H92274   6.787  11.587   8.485  1.5215 -0.8927  3.7437
  669MOL0     H92275   6.943  11.508   8.491 -0.9496 -0.9173  2.1130
  669MOL0     H92276   6.770  11.577   8.249 -0.8972  0.3714  1.3428
  669MOL0     H92277   6.924  11.654   8.284 -1.3917  1.5271  2.0842
  669MOL0     H92278   7.027  11.427   8.252 -0.8857 -3.5468 -0.9529
  669MOL0     H92279   6.876  11.362   8.199 -1.1189  0.9417  0.1029
  669MOL0     H92280   7.142  11.303   8.135 -1.8949  1.6874  0.1235
  669MOL0     H92281   7.370  11.111   7.951 -2.9161 -0.8377 -0.9004
  669MOL0     H92282   7.278  11.137   8.102  1.6003  0.0622  0.4320
  669MOL0     H92283   7.413  11.236   8.090 -1.0193  0.2518  2.5187
  669MOL0     H92284   7.308  11.116   7.402  0.4023 -1.3664 -1.0783
  669MOL0     H92285   7.453  11.096   7.196 -1.0517  1.3883 -1.3731
  669MOL0     H92286   7.605  11.061   7.060 -1.3901  0.3382  0.1373
  669MOL0     H92287   7.541  11.232   7.019 -0.2982  0.2983  0.5589
  669MOL0     H92288   7.780  11.077   6.919  0.4226  1.0420 -0.4187
  669MOL0     H92289   7.639  11.105   6.829 -1.5281  0.9060  1.1717
  669MOL0     H92290   7.815  11.346   6.933 -0.1358  2.1458 -1.0011
  669MOL0     H92291   7.676  11.354   6.824 -0.0490 -2.0108 -2.4624
  669MOL0     H92292   7.874  11.394   6.699  1.6543 -0.3560 -2.8235
  669MOL0     H92293   7.823  11.235   6.647  0.9314  0.3696 -0.2971
  669MOL0     H92294   8.047  11.297   6.843 -0.4211 -0.6908  1.3643
  669MOL0     H92295   7.980  11.132   6.832 -3.0249 -0.8287 -0.8892
  669MOL0     H92296   8.120  11.306   6.639  0.9155  0.4048  1.5429
  669MOL0     H92297   8.014  11.186   6.581 -0.9284  0.7760  1.3723
  669MOL0     H92298   8.159  11.011   6.706 -0.1356  1.3147  2.0490
  669MOL0     H92299   8.237  11.151   6.789  2.2401 -1.2639  0.0056
  669MOL0     H92300   8.372  11.019   6.591  1.3338  0.8396 -1.6820
  669MOL0     H92301   8.374  11.193   6.639 -1.8581  0.2664  0.4691
  669MOL0     H92302   7.726  11.371   7.371  1.0858 -1.8691  0.3938
  669MOL0     H92303   7.566  11.406   7.567  6.1862 -1.3509 -1.6458
  669MOL0     H92304   7.175  11.465   7.678  0.2836 -0.0376  0.9543
  669MOL0     H92305   6.997  11.541   7.816  0.8531  0.4510  0.5916
  669MOL0     H92306   5.399  11.420   7.863  1.1715 -0.1523  1.5329
  669MOL0     H92307   5.199  11.464   7.690 -0.8953  1.0206 -0.3838
  669MOL0     H92308   4.915  11.745   7.549 -1.1639  0.1422 -1.7276
  669MOL0     H92309   4.764  11.811   7.390 -3.1614  1.7436  0.4170
  669MOL0     H92310   4.642  11.711   7.171  0.6191  0.9609  0.7150
  669MOL0     H92311   4.594  11.549   7.229 -2.7162 -0.8112 -0.5988
  669MOL0     H92312   4.346  11.630   7.196 -0.4526  0.7668 -1.0172
  669MOL0     H92313   4.432  11.569   7.067 -0.9011  0.3431 -0.1509
  669MOL0     H92314   4.379  11.847   7.134  1.9659 -0.1849  1.5978
  669MOL0     H92315   4.518  11.812   7.014  1.2172 -0.3608  0.9638
  669MOL0     H92316   4.302  11.662   6.912  0.7237 -1.5281  1.4445
  669MOL0     H92317   4.331  11.835   6.873 -3.2227  1.9930  0.6431
  669MOL0     H92318   3.968  11.823   7.098  1.4200  2.4230  2.4274
  669MOL0     H92319   4.461  11.555   7.526  0.0964  1.4233  0.9233
  669MOL0     H92320   4.474  11.456   7.725  0.4071 -0.2982  1.2679
  669MOL0     H92321   4.615  11.341   7.717 -0.7789 -1.8115  1.6856
  669MOL0     H92322   4.613  11.477   7.825 -1.8027 -1.7641  1.0855
  670MOL0     O92323   2.864   3.670   3.648  0.0481  0.7055  0.2560
  670MOL0     C92324   2.864   3.640   3.771  0.6322 -0.5706 -0.3064
  670MOL0     O92325   2.972   3.637   3.853 -0.4181  0.1843  0.7349
  670MOL0     C92326   3.093   3.651   3.794  0.8464 -0.0235  0.3808
  670MOL0     C92327   3.179   3.755   3.844  0.0356  0.0974  0.1110
  670MOL0     C92328   3.308   3.760   3.803  0.9084  0.0073 -0.0907
  670MOL0     C92329   3.359   3.662   3.714 -0.4037 -0.8908  0.2488
  670MOL0     O92330   3.494   3.665   3.676 -0.1813  0.0275  0.1542
  670MOL0     C92331   3.537   3.578   3.564  1.1994  0.0959 -0.5369
  670MOL0     C92332   3.682   3.608   3.530  0.2892 -0.3772 -0.2483
  670MOL0     C92333   3.790   3.538   3.607  0.0008  0.7264 -0.0486
  670MOL0     C92334   3.798   3.388   3.602 -0.5628 -0.4834 -0.2783
  670MOL0     C92335   3.927   3.355   3.678  0.1287  0.4445  0.3233
  670MOL0     C92336   3.965   3.202   3.652 -0.0931  0.0571 -0.4912
  670MOL0     C92337   4.099   3.166   3.722  0.3334  0.3226  0.0327
  670MOL0     C92338   4.128   3.021   3.699  0.0160  0.7513 -0.1707
  670MOL0     N92339   4.263   2.986   3.748  0.3153 -0.6817 -0.5222
  670MOL0     C92340   4.384   3.043   3.713 -0.5415 -0.2377  0.3125
  670MOL0     C92341   4.482   2.970   3.780 -0.6535  0.1664 -0.0022
  670MOL0     C92342   4.631   3.003   3.788 -0.3405 -1.5852 -0.2724
  670MOL0     C92343   4.715   2.889   3.837  0.6482  0.0437 -0.0392
  670MOL0     C92344   4.855   2.932   3.875  0.4978  0.3331  0.8957
  670MOL0     C92345   4.945   2.810   3.917  0.8697 -0.7040 -0.0933
  670MOL0     O92346   4.994   2.740   3.802  0.3887  0.5609 -0.2236
  670MOL0     C92347   5.040   2.616   3.836  0.2283 -0.5627 -0.1280
  670MOL0     C92348   5.055   2.522   3.731  0.5515 -0.7884 -0.1889
  670MOL0     C92349   5.095   2.393   3.753 -0.3554 -0.0286  0.7574
  670MOL0     C92350   5.100   2.309   3.633  0.0720  0.3252 -0.3774
  670MOL0     C92351   5.121   2.345   3.883 -0.5194 -0.3512 -0.6088
  670MOL0     C92352   5.179   2.208   3.927  0.8103 -0.2101 -0.3557
  670MOL0     O92353   5.185   2.183   4.067  0.1867  0.0096  0.4996
  670MOL0     C92354   5.275   2.092   4.114  0.2108  0.6946 -0.7678
  670MOL0     C92355   5.414   2.108   4.099  0.5713 -0.0476  0.3392
  670MOL0     C92356   5.505   2.014   4.156 -0.3099 -0.0437  0.3996
  670MOL0     C92357   5.457   1.897   4.227 -0.6543 -0.8165 -0.2041
  670MOL0     O92358   5.521   1.793   4.281  0.1566 -0.2850  0.4531
  670MOL0     C92359   5.661   1.816   4.305 -0.1155 -0.5166 -0.0750
  670MOL0     C92360   5.753   1.838   4.184  0.2341 -0.1625  0.0071
  670MOL0     C92361   5.890   1.768   4.193  1.3202 -0.2909  0.2494
  670MOL0     C92362   5.980   1.825   4.087 -0.4279 -0.6691 -0.3915
  670MOL0     C92363   6.127   1.754   4.091 -0.8774  0.3974 -0.6521
  670MOL0     C92364   6.187   1.744   4.232  0.2746  0.1630  0.0075
  670MOL0     C92365   6.189   1.889   4.297 -0.0667 -0.4914 -0.6276
  670MOL0     C92366   6.230   1.882   4.449  0.0040 -0.3002  0.5973
  670MOL0    Cl92367   6.082   1.860   4.539 -0.1496 -0.1062 -0.0794
  670MOL0     C92368   5.318   1.892   4.242 -0.5937  0.3564  0.0715
  670MOL0     C92369   5.225   1.985   4.185 -0.6637 -0.7524 -0.5197
  670MOL0     O92370   5.218   2.136   3.840 -0.0459 -0.5374 -0.0109
  670MOL0     C92371   5.107   2.436   3.992  0.2150  0.2515  0.3039
  670MOL0     C92372   5.073   2.569   3.966  0.0678  0.2769  0.1064
  670MOL0     N92373   4.410   2.877   3.859  0.7124  0.3942  0.0829
  670MOL0     N92374   4.278   2.890   3.843 -0.3411  0.3933 -0.4330
  670MOL0     C92375   3.272   3.567   3.660 -0.3260 -0.2735 -0.0287
  670MOL0     C92376   3.141   3.561   3.704  0.6967 -0.1596 -0.3117
  670MOL0     C92377   2.729   3.630   3.845  0.8164 -0.3686  0.3600
  670MOL0     C92378   2.735   3.582   3.976 -0.0771  1.3896 -0.5361
  670MOL0     C92379   2.620   3.570   4.050 -0.0714 -0.5094  0.2824
  670MOL0     C92380   2.495   3.606   3.992 -0.0175  0.4601 -0.3167
  670MOL0     O92381   2.379   3.607   4.070 -0.2870 -0.0330 -0.1986
  670MOL0     C92382   2.343   3.484   4.139  0.3206 -0.2346 -0.4041
  670MOL0     C92383   2.255   3.389   4.059  0.1383 -0.3924 -0.2511
  670MOL0     C92384   2.155   3.467   3.969  0.5999 -0.6373  0.4962
  670MOL0     C92385   2.039   3.383   3.914 -1.5306  0.6380  0.4465
  670MOL0     C92386   1.957   3.356   4.025  0.0680 -0.0216 -0.1160
  670MOL0     C92387   1.894   3.328   4.126  0.0854 -0.1026 -0.8912
  670MOL0     C92388   2.482   3.637   3.855 -1.0272  0.1744 -0.6493
  670MOL0     C92389   2.598   3.653   3.784 -0.3513  0.7362 -0.2372
  670MOL0     C92390   2.578   3.697   3.639  1.2040 -0.1668 -0.0728
  670MOL0     H92391   3.140   3.835   3.906 -1.4448 -1.0222  0.6591
  670MOL0     H92392   3.375   3.836   3.843 -1.2932  1.8341  0.3305
  670MOL0     H92393   3.475   3.609   3.479 -0.4482 -2.2185 -0.2759
  670MOL0     H92394   3.536   3.470   3.584  0.7033  0.2452  0.2962
  670MOL0     H92395   3.697   3.580   3.425 -1.3201  1.0574 -0.9083
  670MOL0     H92396   3.686   3.716   3.543 -0.1429 -0.4546  0.6028
  670MOL0     H92397   3.889   3.568   3.569  0.0571  0.0611 -0.4303
  670MOL0     H92398   3.791   3.559   3.714  2.7856 -0.8664  0.3484
  670MOL0     H92399   3.711   3.336   3.645  0.5792 -1.1954  1.2795
  670MOL0     H92400   3.801   3.364   3.496 -0.3297  0.4159 -0.4863
  670MOL0     H92401   3.921   3.367   3.787 -1.3345  1.0416  0.2029
  670MOL0     H92402   4.014   3.411   3.642  0.8607 -1.0588 -0.3375
  670MOL0     H92403   3.889   3.133   3.689 -0.7503 -0.5860 -2.9100
  670MOL0     H92404   3.967   3.188   3.544  3.7537 -1.0551 -0.4232
  670MOL0     H92405   4.083   3.184   3.828 -0.5786  2.6553 -0.4248
  670MOL0     H92406   4.181   3.233   3.692  0.4939 -0.3546 -1.1154
  670MOL0     H92407   4.059   2.952   3.748  0.7731 -0.5966 -0.9217
  670MOL0     H92408   4.126   2.992   3.593  0.9742  0.5339 -0.1429
  670MOL0     H92409   4.413   3.129   3.654 -0.0037 -0.2599  0.5350
  670MOL0     H92410   4.647   3.073   3.870  2.0689  1.7284 -3.2494
  670MOL0     H92411   4.672   3.046   3.696  0.6088 -0.3501  0.6885
  670MOL0     H92412   4.666   2.839   3.920  1.3968 -0.4325  0.1252
  670MOL0     H92413   4.719   2.810   3.762 -3.2500 -0.8552  0.5096
  670MOL0     H92414   4.913   2.983   3.798  1.8039 -1.6450  0.4679
  670MOL0     H92415   4.843   2.989   3.968  1.9091 -0.7957  1.8222
  670MOL0     H92416   5.026   2.862   3.969 -0.6667  1.8514 -0.0778
  670MOL0     H92417   4.895   2.745   3.989 -0.0790 -0.5367 -0.5757
  670MOL0     H92418   5.022   2.560   3.635  2.1746  0.1002 -0.4346
  670MOL0     H92419   5.082   2.363   3.540  0.8990  2.4882  0.6502
  670MOL0     H92420   5.020   2.234   3.635  0.2159  0.1749 -0.2125
  670MOL0     H92421   5.197   2.257   3.631 -0.3657 -0.5368  0.1546
  670MOL0     H92422   5.440   2.199   4.046 -4.3574  2.5137  1.6443
  670MOL0     H92423   5.609   2.045   4.158 -1.0423  2.7304  3.0576
  670MOL0     H92424   5.659   1.897   4.379 -2.0979  1.6372 -2.3009
  670MOL0     H92425   5.689   1.725   4.358  0.7440 -0.1700  0.0720
  670MOL0     H92426   5.701   1.814   4.091  1.8630 -1.4255 -0.6098
  670MOL0     H92427   5.774   1.946   4.180 -0.7714  0.2243  2.6030
  670MOL0     H92428   5.885   1.661   4.175 -0.9175 -0.4430  1.4706
  670MOL0     H92429   5.932   1.799   4.290  0.3983  1.4891  0.1141
  670MOL0     H92430   5.994   1.933   4.096 -0.6095 -0.6574 -0.2364
  670MOL0     H92431   5.941   1.812   3.985  1.2619  1.2062 -1.3574
  670MOL0     H92432   6.120   1.652   4.053  4.2441 -0.3694 -0.1472
  670MOL0     H92433   6.189   1.816   4.026  0.5056 -0.4864 -0.2176
  670MOL0     H92434   6.291   1.711   4.239  0.5529  1.2560  1.3346
  670MOL0     H92435   6.127   1.675   4.292  1.2828 -0.1022  0.7290
  670MOL0     H92436   6.095   1.941   4.280 -0.6641 -1.2310  0.3570
  670MOL0     H92437   6.275   1.942   4.254  0.5879  1.4914  2.7316
  670MOL0     H92438   6.279   1.974   4.482  1.3368 -0.4982 -0.7045
  670MOL0     H92439   6.312   1.810   4.459  2.7216  1.5492 -4.5850
  670MOL0     H92440   5.269   1.814   4.299  0.4321 -0.7510 -0.5264
  670MOL0     H92441   5.117   1.986   4.194 -0.5935 -0.3821  0.2822
  670MOL0     H92442   5.133   2.401   4.092  1.7351 -0.3249 -0.2594
  670MOL0     H92443   5.071   2.634   4.052 -2.0973  0.0748  0.2617
  670MOL0     H92444   3.308   3.491   3.591 -0.1578 -1.8578  1.7286
  670MOL0     H92445   3.073   3.483   3.671 -0.2794  0.2177  0.7219
  670MOL0     H92446   2.829   3.552   4.021  2.3924  0.7142 -5.5103
  670MOL0     H92447   2.627   3.548   4.156  1.5388  2.3418  0.8679
  670MOL0     H92448   2.432   3.424   4.156 -0.0198 -0.7783 -0.5333
  670MOL0     H92449   2.292   3.529   4.224  1.7316  0.9144 -0.1297
  670MOL0     H92450   2.209   3.332   4.140 -0.5093  1.6201  0.8599
  670MOL0     H92451   2.312   3.323   3.992  0.4109  2.1100 -2.6640
  670MOL0     H92452   2.117   3.553   4.025  0.7165 -0.0661 -0.2916
  670MOL0     H92453   2.209   3.506   3.882  0.0854  2.5925  1.5130
  670MOL0     H92454   2.085   3.301   3.858 -3.4069  0.1726 -0.4889
  670MOL0     H92455   1.978   3.436   3.840 -1.0631  2.4574  1.2980
  670MOL0     H92456   1.846   3.294   4.216 -0.7979  3.4623  0.1388
  670MOL0     H92457   2.381   3.643   3.817 -1.3982  1.7717  0.4793
  670MOL0     H92458   2.475   3.722   3.612  0.4795 -0.1944  2.4329
  670MOL0     H92459   2.641   3.782   3.611 -0.9122  1.2092 -0.8676
  670MOL0     H92460   2.601   3.616   3.569 -0.8187  1.5029 -2.8827
  671MOL0     O92461   2.982   4.394   2.253 -1.1961 -0.2268  0.4809
  671MOL0     C92462   2.940   4.485   2.318  0.2794 -0.1838  0.1190
  671MOL0     O92463   3.002   4.557   2.409 -1.1365  0.5922  0.4835
  671MOL0     C92464   3.145   4.552   2.412 -0.2547  0.1691  0.0784
  671MOL0     C92465   3.218   4.598   2.299  0.7979 -1.4526  0.2309
  671MOL0     C92466   3.354   4.600   2.300  0.0086 -0.0525  0.1275
  671MOL0     C92467   3.426   4.536   2.401  0.0946 -1.4247 -0.4928
  671MOL0     O92468   3.562   4.519   2.399  0.3300 -0.8851 -0.0013
  671MOL0     C92469   3.595   4.388   2.352  0.3754 -0.3749 -0.0920
  671MOL0     C92470   3.740   4.374   2.349  0.0175  0.3431  0.5457
  671MOL0     C92471   3.802   4.324   2.480 -0.0946  0.0207  0.0112
  671MOL0     C92472   3.814   4.431   2.583  0.0722 -0.5153 -0.7021
  671MOL0     C92473   3.922   4.534   2.562 -0.9698  0.4545  1.0324
  671MOL0     C92474   4.049   4.508   2.632 -0.5570  0.9494 -0.1958
  671MOL0     C92475   4.142   4.399   2.567  1.1604  0.8810  0.5311
  671MOL0     C92476   4.288   4.440   2.580  0.0915  0.5106  0.0067
  671MOL0     N92477   4.328   4.461   2.723 -0.3688 -0.4245  0.8392
  671MOL0     C92478   4.387   4.582   2.755  0.1162 -0.4966  0.3555
  671MOL0     C92479   4.437   4.565   2.874 -0.1151  1.0115 -0.6174
  671MOL0     C92480   4.525   4.660   2.957  0.1613  0.0015  0.5830
  671MOL0     C92481   4.655   4.705   2.886  1.0030  0.3629 -0.7583
  671MOL0     C92482   4.645   4.815   2.777 -0.0017  0.0078  0.1194
  671MOL0     C92483   4.716   4.779   2.644  0.1767 -0.8622 -0.1355
  671MOL0     O92484   4.856   4.741   2.645 -0.1929  0.2677 -0.5707
  671MOL0     C92485   4.961   4.823   2.661  0.4588 -0.1639 -0.0027
  671MOL0     C92486   5.088   4.782   2.644  0.0943 -1.1727 -0.4344
  671MOL0     C92487   5.200   4.872   2.632  0.6150  0.7466 -0.4584
  671MOL0     C92488   5.341   4.828   2.593 -1.0047  0.2853 -0.2689
  671MOL0     C92489   5.170   5.004   2.628 -0.9299  0.3628 -0.1095
  671MOL0     C92490   5.273   5.096   2.609 -0.1647  0.1358  0.1585
  671MOL0     O92491   5.321   5.122   2.480  0.5982  0.3724  0.3362
  671MOL0     C92492   5.413   5.225   2.480 -0.5198  0.5641  0.4039
  671MOL0     C92493   5.544   5.185   2.516 -0.0588 -0.4265 -0.4160
  671MOL0     C92494   5.653   5.267   2.495  1.1571 -0.8170 -0.1594
  671MOL0     C92495   5.627   5.399   2.445  0.2668 -0.2964 -0.1124
  671MOL0     O92496   5.729   5.482   2.424  0.5989  0.9847  0.4357
  671MOL0     C92497   5.748   5.505   2.278 -0.3035 -0.0861  0.6463
  671MOL0     C92498   5.831   5.386   2.218  0.4374  0.2757 -0.6781
  671MOL0     C92499   5.986   5.400   2.249 -0.2667  0.5782 -0.6953
  671MOL0     C92500   6.061   5.288   2.172 -0.8768 -1.3790 -1.6597
  671MOL0     C92501   6.211   5.306   2.175  0.6295  0.8197  0.4422
  671MOL0     C92502   6.280   5.182   2.129 -0.7228  0.1888  0.2835
  671MOL0     C92503   6.431   5.190   2.098  0.3876  0.4073 -0.2295
  671MOL0     C92504   6.497   5.087   2.013 -0.0272 -0.5349 -0.2420
  671MOL0    Cl92505   6.478   4.924   2.086 -0.1125 -0.2115 -0.0936
  671MOL0     C92506   5.496   5.447   2.417 -0.3360 -0.4341  0.3369
  671MOL0     C92507   5.393   5.351   2.424 -0.2254  0.4225 -0.5733
  671MOL0     O92508   5.297   5.152   2.717 -0.0084  0.1694 -0.5323
  671MOL0     C92509   5.042   5.049   2.647  0.6149 -1.0371  0.6712
  671MOL0     C92510   4.939   4.963   2.664  0.4471 -0.0644 -0.0089
  671MOL0     N92511   4.423   4.431   2.906  0.2156 -0.2580 -0.6483
  671MOL0     N92512   4.360   4.362   2.809 -0.3823  0.4940  0.1536
  671MOL0     C92513   3.356   4.487   2.517  0.0081 -0.3357  0.7847
  671MOL0     C92514   3.217   4.500   2.523 -0.4588 -0.1044 -0.0466
  671MOL0     C92515   2.800   4.529   2.285 -0.0915 -0.5002  0.7758
  671MOL0     C92516   2.717   4.575   2.393  0.2039  0.3658 -0.3575
  671MOL0     C92517   2.582   4.611   2.370  0.0435 -0.3119  0.1390
  671MOL0     C92518   2.526   4.614   2.245 -0.7492 -0.7182  0.5959
  671MOL0     O92519   2.401   4.663   2.236  0.0315  0.2750 -0.2364
  671MOL0     C92520   2.367   4.740   2.118 -0.2688  0.0179 -0.3823
  671MOL0     C92521   2.286   4.653   2.023 -0.5619  0.4363  0.1029
  671MOL0     C92522   2.304   4.704   1.874  0.3783  0.5218 -0.6393
  671MOL0     C92523   2.266   4.595   1.771  0.8672  0.3292 -0.5190
  671MOL0     C92524   2.120   4.557   1.794 -0.2541 -0.7153 -0.0385
  671MOL0     C92525   2.007   4.528   1.787 -0.8027 -0.4578 -1.2268
  671MOL0     C92526   2.611   4.581   2.133 -0.4247  0.5467  0.1629
  671MOL0     C92527   2.734   4.535   2.152  0.4517 -0.0448 -0.0796
  671MOL0     C92528   2.821   4.520   2.030  0.9499  0.2593  0.0040
  671MOL0     H92529   3.148   4.640   2.228  0.2102 -2.2533  0.3218
  671MOL0     H92530   3.412   4.626   2.212  0.2086  1.3065  0.6375
  671MOL0     H92531   3.559   4.372   2.250  0.5839 -0.2143 -0.1907
  671MOL0     H92532   3.544   4.314   2.415  0.8273 -1.9052 -1.4469
  671MOL0     H92533   3.759   4.284   2.290  0.9039  1.5425 -1.0590
  671MOL0     H92534   3.787   4.461   2.303  0.5831 -1.1656 -1.9458
  671MOL0     H92535   3.725   4.261   2.525  0.2645  0.2386  0.9598
  671MOL0     H92536   3.893   4.268   2.458  1.1578  1.8962  0.1727
  671MOL0     H92537   3.712   4.469   2.589 -0.6427 -2.2131 -1.4182
  671MOL0     H92538   3.830   4.390   2.683 -1.8290  2.3203  0.9050
  671MOL0     H92539   3.900   4.633   2.603 -1.8662  0.0909  1.4751
  671MOL0     H92540   3.944   4.541   2.455  2.1276 -1.1926  1.4561
  671MOL0     H92541   4.106   4.602   2.628  0.1305  0.5463  0.0005
  671MOL0     H92542   4.028   4.481   2.736  1.2234  1.9227  0.4614
  671MOL0     H92543   4.119   4.407   2.461  3.7400  2.6835  0.0068
  671MOL0     H92544   4.123   4.295   2.596  1.2288  0.4194 -0.9906
  671MOL0     H92545   4.347   4.368   2.523 -2.1731  0.1343 -2.0307
  671MOL0     H92546   4.296   4.530   2.518 -3.2415 -0.4039 -2.0001
  671MOL0     H92547   4.389   4.666   2.686  3.2415 -0.2602  0.5699
  671MOL0     H92548   4.545   4.613   3.054  0.8123  0.9039  0.9070
  671MOL0     H92549   4.470   4.753   2.978  0.5965  0.8121 -1.5743
  671MOL0     H92550   4.733   4.735   2.956  2.5174 -2.1198 -1.2566
  671MOL0     H92551   4.698   4.614   2.844 -1.2049 -2.2581  2.1186
  671MOL0     H92552   4.541   4.838   2.755 -0.9369 -3.2900  0.5301
  671MOL0     H92553   4.682   4.905   2.827  0.1352 -0.5657  1.0776
  671MOL0     H92554   4.657   4.697   2.602  0.9811 -1.7387  0.3942
  671MOL0     H92555   4.694   4.847   2.562  2.8623 -3.4358 -3.2855
  671MOL0     H92556   5.096   4.674   2.641 -0.7634 -1.2362 -1.0823
  671MOL0     H92557   5.417   4.886   2.646 -0.0358 -0.5060 -0.7407
  671MOL0     H92558   5.349   4.838   2.484 -1.0516 -1.4798 -0.4695
  671MOL0     H92559   5.348   4.722   2.621 -1.5861  0.9424  2.7220
  671MOL0     H92560   5.554   5.092   2.570 -1.1722  1.1489  2.7652
  671MOL0     H92561   5.753   5.230   2.515  0.5681 -2.7611 -0.5651
  671MOL0     H92562   5.649   5.513   2.231 -1.4883 -2.9294  2.3609
  671MOL0     H92563   5.808   5.595   2.266  1.4024 -1.4090 -1.3205
  671MOL0     H92564   5.788   5.292   2.252 -0.0365  0.5382 -0.5387
  671MOL0     H92565   5.809   5.383   2.111 -1.1465 -0.2982 -0.3629
  671MOL0     H92566   6.011   5.397   2.355  3.3397 -0.5466 -1.4454
  671MOL0     H92567   6.019   5.496   2.208 -0.6063  0.4694 -1.2419
  671MOL0     H92568   6.030   5.290   2.067  3.0065 -0.2856 -2.9371
  671MOL0     H92569   6.032   5.189   2.208  0.5551 -1.1837  0.1563
  671MOL0     H92570   6.228   5.393   2.111 -3.7937  1.5928 -0.0234
  671MOL0     H92571   6.251   5.311   2.277 -2.5658 -2.2881  2.0613
  671MOL0     H92572   6.229   5.149   2.038 -0.8420  0.4390  0.2591
  671MOL0     H92573   6.259   5.096   2.194 -0.0864  0.9815  1.5656
  671MOL0     H92574   6.477   5.190   2.197  0.5368 -1.6091 -0.2720
  671MOL0     H92575   6.446   5.288   2.051 -1.2701 -1.0321 -4.1622
  671MOL0     H92576   6.603   5.108   1.998 -0.4166  0.2842 -2.0537
  671MOL0     H92577   6.443   5.080   1.918 -3.4532  0.2313  1.4831
  671MOL0     H92578   5.483   5.548   2.381  0.6823 -0.7756 -1.0634
  671MOL0     H92579   5.293   5.378   2.390  0.0263  0.8632 -0.9792
  671MOL0     H92580   5.023   5.155   2.652  0.9758 -0.6956 -2.8017
  671MOL0     H92581   4.842   5.004   2.692 -0.6393 -1.5528 -1.3940
  671MOL0     H92582   3.424   4.454   2.595  2.7788 -0.8241 -1.6294
  671MOL0     H92583   3.162   4.471   2.612 -1.4515  0.0673 -0.5788
  671MOL0     H92584   2.763   4.569   2.491 -0.7027 -1.7826 -0.0029
  671MOL0     H92585   2.521   4.636   2.456 -2.2958  1.1742 -1.7926
  671MOL0     H92586   2.305   4.825   2.146 -0.6733 -0.3482 -0.1536
  671MOL0     H92587   2.453   4.787   2.070 -0.9370  2.1063  0.3639
  671MOL0     H92588   2.181   4.657   2.053 -0.9312  2.8851 -1.2197
  671MOL0     H92589   2.325   4.551   2.019 -1.3299  0.1504 -0.4812
  671MOL0     H92590   2.232   4.786   1.862  0.9277  0.7187 -2.9375
  671MOL0     H92591   2.406   4.737   1.855  0.1410  0.5807 -1.9079
  671MOL0     H92592   2.326   4.508   1.800  1.3875  1.0218  0.5425
  671MOL0     H92593   2.291   4.630   1.671  2.0390 -1.3066 -0.8377
  671MOL0     H92594   1.903   4.501   1.796 -0.7635 -0.0168  1.6916
  671MOL0     H92595   2.570   4.582   2.033 -3.1665 -1.4642  1.1507
  671MOL0     H92596   2.832   4.413   2.015 -4.0317 -0.3999 -0.5808
  671MOL0     H92597   2.776   4.571   1.944 -1.2356  0.2002  1.0666
  671MOL0     H92598   2.920   4.565   2.046  1.4838 -1.6276  2.6106
  672MOL0     O92599   0.363   1.155   7.537 -0.1329 -0.3833  0.5430
  672MOL0     C92600   0.432   1.080   7.610  0.6989  0.5272 -0.0492
  672MOL0     O92601   0.509   0.979   7.563  0.0332  0.1316 -0.7496
  672MOL0     C92602   0.507   0.933   7.436  0.0330 -0.6474 -0.0763
  672MOL0     C92603   0.616   0.946   7.356  0.2109 -0.0534 -0.5454
  672MOL0     C92604   0.615   0.897   7.222  0.2502 -0.2681 -0.3876
  672MOL0     C92605   0.495   0.830   7.174  0.0364 -0.4163 -0.8511
  672MOL0     O92606   0.475   0.762   7.062 -0.0137 -0.1067 -0.3485
  672MOL0     C92607   0.564   0.771   6.950 -0.3237 -0.6304 -0.5069
  672MOL0     C92608   0.547   0.894   6.870 -0.1731  0.3861  0.1808
  672MOL0     C92609   0.662   0.910   6.756 -0.0000  0.4907 -0.3686
  672MOL0     C92610   0.787   0.978   6.820 -1.1789 -0.5352  0.4304
  672MOL0     C92611   0.872   1.066   6.721  0.2054  0.3609 -0.2174
  672MOL0     C92612   0.920   0.985   6.605 -0.2245 -0.3242  0.6274
  672MOL0     C92613   1.000   1.074   6.519  0.0958  0.3811 -0.2658
  672MOL0     C92614   1.020   1.031   6.373 -0.1723  0.5864 -0.5823
  672MOL0     N92615   1.117   0.918   6.368  0.2461 -0.7669 -0.2923
  672MOL0     C92616   1.250   0.921   6.407 -0.1595  1.5305  0.8384
  672MOL0     C92617   1.301   0.803   6.354  0.2449  0.0089  0.4189
  672MOL0     C92618   1.441   0.744   6.368 -0.9388  0.4916 -0.2943
  672MOL0     C92619   1.461   0.636   6.471 -0.0592 -0.5574 -0.6529
  672MOL0     C92620   1.562   0.531   6.415  0.8595 -0.1502 -0.0239
  672MOL0     C92621   1.527   0.453   6.286 -0.5610 -0.1818 -0.8569
  672MOL0     O92622   1.424   0.355   6.309  0.3062  0.0720  0.6605
  672MOL0     C92623   1.460   0.224   6.310  0.0971 -0.4228  0.3709
  672MOL0     C92624   1.389   0.143   6.220 -0.4524  0.4851 -0.6764
  672MOL0     C92625   1.405   0.007   6.209  0.8089  0.6403 -0.5354
  672MOL0     C92626   1.326  -0.068   6.105 -0.6183  0.6931  0.3423
  672MOL0     C92627   1.505  -0.052   6.299  0.1089  0.6336 -0.1186
  672MOL0     C92628   1.531  -0.203   6.301 -0.4076  0.0080 -0.1736
  672MOL0     O92629   1.605  -0.252   6.406  0.7963  0.2897 -0.2175
  672MOL0     C92630   1.571  -0.379   6.430 -0.1748  0.8829 -0.4895
  672MOL0     C92631   1.662  -0.478   6.390 -0.5150  0.8204  0.2891
  672MOL0     C92632   1.642  -0.610   6.433 -0.0756  0.0942 -0.5651
  672MOL0     C92633   1.521  -0.642   6.499 -0.1230  1.0825  0.3447
  672MOL0     O92634   1.507  -0.777   6.523  0.0558 -0.2541 -0.6461
  672MOL0     C92635   1.379  -0.829   6.554 -0.3114  0.1386 -0.3230
  672MOL0     C92636   1.385  -0.979   6.573  0.2474 -0.2315 -0.0436
  672MOL0     C92637   1.257  -1.041   6.600  0.5842 -0.4588  0.0732
  672MOL0     C92638   1.272  -1.186   6.652 -0.1835 -0.4464 -0.1651
  672MOL0     C92639   1.140  -1.270   6.650  0.5757  0.4216  0.1058
  672MOL0     C92640   1.143  -1.380   6.747 -1.0328 -0.0576  0.3182
  672MOL0     C92641   1.029  -1.480   6.742 -0.0631 -0.0704 -1.1701
  672MOL0     C92642   1.016  -1.576   6.874 -0.8796 -0.0811  0.7898
  672MOL0    Cl92643   0.976  -1.467   7.016 -0.1222 -0.2525  0.1341
  672MOL0     C92644   1.423  -0.544   6.537  0.1169 -0.0409 -0.0386
  672MOL0     C92645   1.455  -0.411   6.507 -0.0551 -0.2425 -0.1330
  672MOL0     O92646   1.507  -0.262   6.201  0.7569 -0.2420 -0.4270
  672MOL0     C92647   1.561   0.031   6.402  0.0495  0.1099  0.0882
  672MOL0     C92648   1.542   0.173   6.402 -0.9428  0.5744 -0.9901
  672MOL0     N92649   1.206   0.735   6.286 -0.2525 -0.5413 -0.0065
  672MOL0     N92650   1.097   0.806   6.284 -0.4323 -0.1077  0.9583
  672MOL0     C92651   0.382   0.830   7.250 -0.0430  0.1126 -0.2587
  672MOL0     C92652   0.386   0.885   7.380 -0.8942  0.0085 -0.5972
  672MOL0     C92653   0.448   1.125   7.749  0.1876  0.6624  0.2260
  672MOL0     C92654   0.574   1.116   7.793 -0.1957  0.1596 -0.0612
  672MOL0     C92655   0.611   1.136   7.925  0.3808  0.8585  0.3163
  672MOL0     C92656   0.513   1.155   8.022 -0.2955  0.5653 -0.1566
  672MOL0     O92657   0.556   1.148   8.155  0.3590  0.3514 -0.8481
  672MOL0     C92658   0.460   1.129   8.258  0.4812  0.4455  0.3658
  672MOL0     C92659   0.520   1.163   8.403 -0.7406  0.3823  0.1058
  672MOL0     C92660   0.590   1.303   8.395 -0.4090 -0.6831 -0.0406
  672MOL0     C92661   0.504   1.430   8.352  0.9157  0.5300  0.4344
  672MOL0     C92662   0.404   1.449   8.455 -0.0578  0.0177 -0.1879
  672MOL0     C92663   0.314   1.476   8.531  0.5892  0.0840 -0.8990
  672MOL0     C92664   0.386   1.189   7.970 -0.1174 -0.5621 -0.6460
  672MOL0     C92665   0.346   1.159   7.842  0.3374 -0.3176  0.4290
  672MOL0     C92666   0.201   1.160   7.801 -0.5018  0.3127 -0.7086
  672MOL0     H92667   0.699   1.000   7.400 -2.1711  0.8942  3.3409
  672MOL0     H92668   0.705   0.915   7.165  0.6886  0.1439  0.4215
  672MOL0     H92669   0.541   0.682   6.891  0.2910  0.0397 -1.7972
  672MOL0     H92670   0.664   0.763   6.991  1.0343 -1.1125 -3.6110
  672MOL0     H92671   0.451   0.887   6.819  0.9895 -2.0131 -1.8837
  672MOL0     H92672   0.538   0.985   6.930 -3.2685 -0.1469  0.7050
  672MOL0     H92673   0.697   0.814   6.718  0.6954  0.0164  1.4070
  672MOL0     H92674   0.622   0.965   6.670  1.5264 -0.4752 -1.7518
  672MOL0     H92675   0.763   1.047   6.902  1.3321  1.5701 -0.4600
  672MOL0     H92676   0.843   0.897   6.867 -3.4981 -4.1928 -2.5677
  672MOL0     H92677   0.962   1.103   6.770  0.5773 -1.8996  0.9204
  672MOL0     H92678   0.808   1.148   6.685  0.5915  1.0775  0.6862
  672MOL0     H92679   0.981   0.902   6.643  0.8010 -0.0986 -0.4625
  672MOL0     H92680   0.836   0.937   6.553  1.4298 -2.0894 -0.5739
  672MOL0     H92681   1.100   1.089   6.562 -0.0165  2.4551 -0.6432
  672MOL0     H92682   0.951   1.172   6.515 -0.5016  0.0386 -1.9273
  672MOL0     H92683   0.924   1.000   6.330  0.4874  1.5535 -2.8886
  672MOL0     H92684   1.056   1.114   6.311  2.2885  2.0279  2.5067
  672MOL0     H92685   1.313   0.990   6.462  2.3704 -0.1278  0.2047
  672MOL0     H92686   1.514   0.822   6.389  0.5299 -1.6836  4.0116
  672MOL0     H92687   1.472   0.714   6.267  0.9339 -0.1418  0.4279
  672MOL0     H92688   1.495   0.676   6.566 -1.6225 -1.8209  0.4981
  672MOL0     H92689   1.361   0.601   6.497  1.3814 -3.3741  1.5763
  672MOL0     H92690   1.653   0.589   6.398  0.1499  1.0652  0.2066
  672MOL0     H92691   1.576   0.452   6.489 -1.1729 -1.5248 -0.9961
  672MOL0     H92692   1.507   0.522   6.202  0.0869  1.2223  0.1028
  672MOL0     H92693   1.623   0.405   6.268 -0.1910 -1.1579  2.8724
  672MOL0     H92694   1.314   0.179   6.150 -0.8660  0.7580 -0.0974
  672MOL0     H92695   1.246  -0.006   6.064 -1.4736 -1.2127 -1.0730
  672MOL0     H92696   1.263  -0.154   6.129 -0.0746  0.7126  1.9475
  672MOL0     H92697   1.397  -0.110   6.033 -3.8721  0.1119 -2.8126
  672MOL0     H92698   1.745  -0.447   6.328 -1.5699  2.4040 -0.4004
  672MOL0     H92699   1.717  -0.677   6.392  1.7651  1.2718  0.6985
  672MOL0     H92700   1.341  -0.801   6.653 -0.3585 -3.3242  0.8016
  672MOL0     H92701   1.306  -0.804   6.477 -0.1036 -0.9829 -0.9008
  672MOL0     H92702   1.424  -1.031   6.484 -0.8277  1.1785 -1.3991
  672MOL0     H92703   1.444  -0.999   6.663  0.1081 -0.3856  0.0146
  672MOL0     H92704   1.186  -1.029   6.518 -0.7123 -1.8092  0.9480
  672MOL0     H92705   1.206  -0.987   6.681  0.5458 -0.7490  0.2429
  672MOL0     H92706   1.302  -1.171   6.756 -1.2837  0.2462  0.0741
  672MOL0     H92707   1.352  -1.244   6.606  0.0799  1.6760 -2.5701
  672MOL0     H92708   1.059  -1.204   6.683  2.1507  1.8733  1.2622
  672MOL0     H92709   1.120  -1.300   6.546  0.3435  3.3850 -0.8036
  672MOL0     H92710   1.138  -1.328   6.843 -0.2665  2.8548 -1.1127
  672MOL0     H92711   1.238  -1.434   6.742 -0.1704  1.5310 -2.1781
  672MOL0     H92712   1.047  -1.548   6.658 -1.4194 -2.8421  0.6281
  672MOL0     H92713   0.931  -1.437   6.722 -0.9501 -1.8824 -0.9620
  672MOL0     H92714   1.104  -1.634   6.905 -0.2993 -0.1380 -0.8646
  672MOL0     H92715   0.937  -1.648   6.854 -0.1510 -0.2956 -1.5511
  672MOL0     H92716   1.330  -0.556   6.591  0.9082 -0.0839  1.3492
  672MOL0     H92717   1.388  -0.331   6.537 -2.6825 -1.0261 -3.2082
  672MOL0     H92718   1.628  -0.014   6.474  1.3149  1.5002 -0.1609
  672MOL0     H92719   1.596   0.235   6.472 -0.5125 -1.1842  0.2979
  672MOL0     H92720   0.302   0.760   7.230  0.8769 -1.2972  0.8130
  672MOL0     H92721   0.300   0.878   7.446  0.3978  2.1352  1.4569
  672MOL0     H92722   0.662   1.101   7.732  0.2422  0.2998  0.5287
  672MOL0     H92723   0.710   1.109   7.959 -0.0178  0.0689  0.9172
  672MOL0     H92724   0.379   1.201   8.244  0.0537 -0.1829 -0.4949
  672MOL0     H92725   0.428   1.024   8.261 -1.4112  0.9956  0.7288
  672MOL0     H92726   0.583   1.083   8.443 -0.4499  0.7654  0.4179
  672MOL0     H92727   0.435   1.177   8.469 -0.7662  3.9120 -0.4821
  672MOL0     H92728   0.647   1.322   8.486  0.8650 -0.3625 -0.8711
  672MOL0     H92729   0.669   1.305   8.319 -0.2928  0.9156  0.0987
  672MOL0     H92730   0.454   1.418   8.256 -0.6884  0.1784  1.2770
  672MOL0     H92731   0.570   1.516   8.339 -0.2684  0.9908 -3.8239
  672MOL0     H92732   0.232   1.490   8.599  1.0959  1.3746 -0.5146
  672MOL0     H92733   0.318   1.225   8.046 -0.2001  1.6351 -1.6808
  672MOL0     H92734   0.182   1.169   7.694 -0.9603 -1.3673 -0.7931
  672MOL0     H92735   0.164   1.063   7.836  4.4581 -0.3815  4.0799
  672MOL0     H92736   0.142   1.241   7.847  0.3278  0.1883  0.6407
  673MOL0     O92737   4.667  10.705   3.531 -0.7593  0.0772 -0.3830
  673MOL0     C92738   4.736  10.608   3.490 -0.7748 -0.0451  0.4061
  673MOL0     O92739   4.694  10.481   3.483  0.2030 -0.3126 -0.0713
  673MOL0     C92740   4.571  10.453   3.527  0.7607 -0.7289 -0.8643
  673MOL0     C92741   4.540  10.479   3.662  0.6826 -0.0192  0.0689
  673MOL0     C92742   4.404  10.464   3.703  0.6252  0.4800  0.5262
  673MOL0     C92743   4.309  10.397   3.619  0.0161 -0.4255 -0.5472
  673MOL0     O92744   4.182  10.384   3.672 -0.5681  0.2981 -0.3128
  673MOL0     C92745   4.089  10.497   3.664 -0.3344 -0.7315 -0.2006
  673MOL0     C92746   3.972  10.454   3.755  0.3083  1.1185  0.2071
  673MOL0     C92747   3.874  10.360   3.677 -0.7550  0.5407 -1.3311
  673MOL0     C92748   3.900  10.212   3.712  0.2936  0.2972 -0.3058
  673MOL0     C92749   3.801  10.114   3.651  0.8673  0.1906  0.5893
  673MOL0     C92750   3.669  10.110   3.714  0.0914  0.6688 -0.2003
  673MOL0     C92751   3.562  10.046   3.621  0.0135 -0.0830 -0.2375
  673MOL0     C92752   3.422  10.066   3.679  0.0489 -0.1198 -0.3042
  673MOL0     N92753   3.405  10.009   3.813 -0.1423 -0.6823  0.8703
  673MOL0     C92754   3.352   9.887   3.848  0.0025  0.4994 -0.6295
  673MOL0     C92755   3.364   9.884   3.986  0.1186  0.4456 -0.3139
  673MOL0     C92756   3.329   9.772   4.081  0.3649 -0.2773  0.2753
  673MOL0     C92757   3.360   9.804   4.217 -0.1725  0.0691 -0.0436
  673MOL0     C92758   3.314   9.701   4.318  0.5014  0.1613 -0.3022
  673MOL0     C92759   3.387   9.568   4.312  0.2464  1.0935  0.6096
  673MOL0     O92760   3.529   9.588   4.359 -0.0409  0.2001 -0.0953
  673MOL0     C92761   3.631   9.524   4.300 -0.0566  0.5691 -0.0337
  673MOL0     C92762   3.617   9.426   4.199 -0.0959  0.8609  0.7253
  673MOL0     C92763   3.728   9.362   4.136  0.9700 -0.0303  0.0565
  673MOL0     C92764   3.695   9.239   4.051  0.2865 -0.8277 -0.9937
  673MOL0     C92765   3.863   9.403   4.164  1.0237 -0.3839 -0.9768
  673MOL0     C92766   3.992   9.347   4.105  0.4905 -0.6119  0.3653
  673MOL0     O92767   4.101   9.434   4.118 -0.2842  0.6917  0.4860
  673MOL0     C92768   4.228   9.381   4.077  1.0637  0.3481 -0.4241
  673MOL0     C92769   4.278   9.452   3.970 -0.4266  0.5237 -0.2405
  673MOL0     C92770   4.398   9.404   3.903  0.3850  0.2671  1.1022
  673MOL0     C92771   4.456   9.290   3.947 -0.7147  0.2465  0.0726
  673MOL0     O92772   4.577   9.249   3.907  0.4699  0.1726  0.4010
  673MOL0     C92773   4.667   9.343   3.852  0.0831 -0.0626  0.4160
  673MOL0     C92774   4.804   9.298   3.905 -0.1874 -0.0506  0.5403
  673MOL0     C92775   4.832   9.331   4.047  0.2522 -0.1799  0.4091
  673MOL0     C92776   4.741   9.267   4.152  0.5614 -0.3254  0.3132
  673MOL0     C92777   4.824   9.241   4.295 -0.5149  0.1803  1.3685
  673MOL0     C92778   4.740   9.208   4.411 -0.3107  0.7862  0.5120
  673MOL0     C92779   4.818   9.218   4.545  0.1086  0.1205  0.6793
  673MOL0     C92780   4.799   9.373   4.591  0.3506 -0.0786 -0.0578
  673MOL0    Cl92781   4.638   9.389   4.666 -0.1490 -0.0984  0.3888
  673MOL0     C92782   4.404   9.217   4.047 -0.0813 -0.2206 -0.2319
  673MOL0     C92783   4.282   9.260   4.114 -0.2864  0.3452  0.2039
  673MOL0     O92784   3.997   9.234   4.055  0.4317 -0.0934  0.0330
  673MOL0     C92785   3.872   9.518   4.252 -0.1681 -0.3239 -0.3760
  673MOL0     C92786   3.754   9.573   4.316 -0.9887  0.3404 -0.1634
  673MOL0     N92787   3.416  10.004   4.030  0.2814 -0.3479 -0.7228
  673MOL0     N92788   3.440  10.078   3.927  0.3496  0.6132 -0.1188
  673MOL0     C92789   4.346  10.339   3.494 -0.5023 -0.1740 -0.3932
  673MOL0     C92790   4.471  10.381   3.447 -0.5676 -0.2645  0.3451
  673MOL0     C92791   4.868  10.647   3.446 -0.6336 -0.3006  0.7314
  673MOL0     C92792   4.926  10.775   3.486  0.4613  0.0703  0.4885
  673MOL0     C92793   5.045  10.819   3.434 -0.1912  0.3928  0.1994
  673MOL0     C92794   5.125  10.734   3.357 -0.1816  0.2956 -0.4030
  673MOL0     O92795   5.241  10.787   3.294 -0.2282  0.4318 -0.1836
  673MOL0     C92796   5.353  10.738   3.367  0.0318 -0.9390  0.1430
  673MOL0     C92797   5.474  10.760   3.288  0.2006 -0.6062  0.3051
  673MOL0     C92798   5.472  10.668   3.164 -0.3457 -0.1210  0.6329
  673MOL0     C92799   5.604  10.692   3.081 -0.5770 -0.4881 -0.6245
  673MOL0     C92800   5.584  10.608   2.954  0.6886 -0.0803  0.0881
  673MOL0     C92801   5.571  10.544   2.853 -0.5579  0.1114  0.5599
  673MOL0     C92802   5.073  10.602   3.326 -0.1987 -0.9603 -0.5011
  673MOL0     C92803   4.950  10.566   3.353  0.6385  1.1735  0.3488
  673MOL0     C92804   4.890  10.440   3.286 -0.8181  0.3547 -0.1011
  673MOL0     H92805   4.613  10.504   3.738 -0.1587  0.0158  0.8941
  673MOL0     H92806   4.384  10.494   3.805  3.3987 -0.0356  1.3113
  673MOL0     H92807   4.066  10.525   3.560 -2.4207  1.4954  0.7791
  673MOL0     H92808   4.128  10.587   3.713 -1.5839 -0.5229  0.4414
  673MOL0     H92809   4.006  10.396   3.841  1.1847  1.6929  0.2523
  673MOL0     H92810   3.913  10.542   3.784 -0.2164  0.6625  0.5471
  673MOL0     H92811   3.769  10.389   3.687 -0.6586  0.5624 -0.2849
  673MOL0     H92812   3.904  10.360   3.571  0.6647 -2.4592 -1.0442
  673MOL0     H92813   4.002  10.188   3.681 -0.6905 -2.7279 -1.6404
  673MOL0     H92814   3.900  10.191   3.819  0.1661 -0.1497 -0.3877
  673MOL0     H92815   3.853  10.018   3.656 -1.7474 -1.3907 -0.7531
  673MOL0     H92816   3.790  10.122   3.543 -0.1478  0.8495  0.7320
  673MOL0     H92817   3.671  10.070   3.816 -2.9927  0.5404 -0.1094
  673MOL0     H92818   3.632  10.212   3.728  0.1894  0.7672 -0.6688
  673MOL0     H92819   3.588   9.941   3.608  1.4445  0.0672  1.1637
  673MOL0     H92820   3.574  10.088   3.521  1.8960 -1.9938 -0.8739
  673MOL0     H92821   3.414  10.175   3.679  0.0346 -0.0463 -3.4108
  673MOL0     H92822   3.348  10.026   3.608 -1.0668 -1.1002  1.3368
  673MOL0     H92823   3.315   9.807   3.785 -1.8485 -0.2197  1.2459
  673MOL0     H92824   3.380   9.683   4.042 -0.6825 -0.2991 -1.1511
  673MOL0     H92825   3.221   9.755   4.072  0.2971  0.4492 -0.3823
  673MOL0     H92826   3.467   9.825   4.214 -0.7247  3.7541  1.1343
  673MOL0     H92827   3.302   9.894   4.240 -0.8148 -0.3719  0.1018
  673MOL0     H92828   3.323   9.737   4.421  2.1572 -2.1829  0.4511
  673MOL0     H92829   3.206   9.683   4.315  0.3662 -0.9705  4.2406
  673MOL0     H92830   3.340   9.488   4.370 -0.4791  0.7620 -0.4043
  673MOL0     H92831   3.388   9.533   4.209 -0.0614 -1.5177  1.4240
  673MOL0     H92832   3.518   9.385   4.181  0.8988 -1.8081  0.8735
  673MOL0     H92833   3.593   9.204   4.068 -0.3922  0.8688 -1.3714
  673MOL0     H92834   3.769   9.168   4.088 -0.2430 -0.2018  1.4428
  673MOL0     H92835   3.702   9.267   3.945 -0.4381 -0.1677 -0.8733
  673MOL0     H92836   4.240   9.549   3.940  0.3280  1.3723  1.4394
  673MOL0     H92837   4.427   9.462   3.816 -2.8676 -1.1786 -1.1596
  673MOL0     H92838   4.658   9.341   3.743 -3.2634  3.8299  0.3924
  673MOL0     H92839   4.653   9.444   3.892 -1.0784 -0.0059 -0.1002
  673MOL0     H92840   4.822   9.192   3.883 -1.8894  0.3509 -3.7218
  673MOL0     H92841   4.885   9.343   3.848  0.2734 -2.2624 -0.6633
  673MOL0     H92842   4.831   9.440   4.048 -2.7599 -0.1182  0.9281
  673MOL0     H92843   4.931   9.295   4.076 -0.9464 -2.9225  1.4955
  673MOL0     H92844   4.701   9.170   4.119  1.2461 -0.3745 -0.3816
  673MOL0     H92845   4.658   9.336   4.167  0.1963 -1.2406  3.0919
  673MOL0     H92846   4.912   9.180   4.275 -0.3571  1.1527 -1.3339
  673MOL0     H92847   4.863   9.341   4.316 -0.5424  0.2675  0.9999
  673MOL0     H92848   4.714   9.103   4.392  1.1917  0.0781  2.1811
  673MOL0     H92849   4.645   9.260   4.427 -1.0019 -1.0269  2.9627
  673MOL0     H92850   4.924   9.195   4.532 -0.2680 -3.8123  3.0821
  673MOL0     H92851   4.793   9.142   4.619 -1.0747 -1.3026 -1.0944
  673MOL0     H92852   4.802   9.438   4.503  3.4164  2.1020  1.4412
  673MOL0     H92853   4.882   9.401   4.657  2.8292 -2.6480 -1.8546
  673MOL0     H92854   4.457   9.128   4.080  0.0798 -0.5241 -1.2718
  673MOL0     H92855   4.240   9.218   4.204  1.0440 -0.5977  0.4138
  673MOL0     H92856   3.968   9.565   4.272  0.2190 -1.2296 -0.0516
  673MOL0     H92857   3.757   9.657   4.385 -3.0302  1.2155 -1.0540
  673MOL0     H92858   4.275  10.276   3.440 -3.1945  1.1740  1.3347
  673MOL0     H92859   4.500  10.343   3.350  0.7229 -2.5482  1.5383
  673MOL0     H92860   4.876  10.847   3.551  0.6950  1.0248 -0.3611
  673MOL0     H92861   5.083  10.917   3.463 -1.6537  1.5918 -1.7096
  673MOL0     H92862   5.358  10.803   3.454 -3.4661  0.4177 -0.4894
  673MOL0     H92863   5.334  10.634   3.395 -0.7975 -0.5698  1.0092
  673MOL0     H92864   5.559  10.723   3.346  0.1834  0.9160  1.3607
  673MOL0     H92865   5.483  10.864   3.254  1.2648  0.0419  2.3705
  673MOL0     H92866   5.480  10.567   3.206  4.1611  0.9958  3.0886
  673MOL0     H92867   5.382  10.669   3.102 -1.0139 -0.7406  1.5715
  673MOL0     H92868   5.698  10.663   3.129  0.4798  1.7196 -1.2377
  673MOL0     H92869   5.610  10.799   3.058  1.2177 -0.9651 -2.5938
  673MOL0     H92870   5.578  10.495   2.758  0.6539 -6.3343  3.4100
  673MOL0     H92871   5.139  10.536   3.271  2.6814 -0.0558  1.6405
  673MOL0     H92872   4.789  10.478   3.267 -0.7574  0.7420  0.3353
  673MOL0     H92873   4.941  10.409   3.195  1.7572 -2.3911  2.0820
  673MOL0     H92874   4.886  10.360   3.360 -0.2483  0.8260  0.4509
  674MOL0     O92875   9.210   4.349  10.613 -0.9256 -0.1977 -0.3962
  674MOL0     C92876   9.178   4.366  10.733 -0.4364  0.0516  0.4054
  674MOL0     O92877   9.230   4.290  10.842 -0.5244 -0.2735  0.1782
  674MOL0     C92878   9.353   4.225  10.823 -0.7044 -0.0847  0.3020
  674MOL0     C92879   9.462   4.294  10.760 -0.6262  0.5723  0.6081
  674MOL0     C92880   9.587   4.227  10.746  0.1432  0.5807 -0.6052
  674MOL0     C92881   9.601   4.095  10.794  0.0457  0.7095 -0.8870
  674MOL0     O92882   9.719   4.029  10.781  0.3969  0.1822 -0.5978
  674MOL0     C92883   9.756   3.993  10.652  0.8385  0.0806 -0.7387
  674MOL0     C92884   9.880   4.072  10.620 -0.6349 -0.4529  1.0894
  674MOL0     C92885  10.009   4.025  10.700  0.4586  0.5409  0.8340
  674MOL0     C92886  10.053   3.877  10.677 -0.1420  0.3655 -0.5362
  674MOL0     C92887  10.196   3.858  10.635  0.0652  0.3839 -0.3364
  674MOL0     C92888  10.242   3.715  10.612 -0.8613 -0.0253  0.0607
  674MOL0     C92889  10.266   3.634  10.741 -0.2470  0.0656 -0.1869
  674MOL0     C92890  10.371   3.676  10.836 -0.4041  0.5710 -0.0350
  674MOL0     N92891  10.345   3.625  10.979 -0.1762  0.6732  0.5542
  674MOL0     C92892  10.278   3.690  11.077  0.0565  0.1279  0.6185
  674MOL0     C92893  10.301   3.626  11.186 -0.4815 -0.6519  0.3793
  674MOL0     C92894  10.267   3.677  11.329  0.7042  0.9127  0.3526
  674MOL0     C92895  10.395   3.690  11.419  1.0762  0.4827 -0.1846
  674MOL0     C92896  10.353   3.773  11.555  1.0836  0.3850  0.6398
  674MOL0     C92897  10.476   3.809  11.630 -0.5215 -0.0520  0.2273
  674MOL0     O92898  10.534   3.690  11.685 -0.1887 -0.0747 -0.6825
  674MOL0     C92899  10.648   3.708  11.774  0.4878 -0.2506  0.1207
  674MOL0     C92900  10.699   3.595  11.825  0.2894  0.0053 -0.4252
  674MOL0     C92901  10.803   3.593  11.913 -0.1027  0.4734  0.3199
  674MOL0     C92902  10.843   3.465  11.983 -1.5266 -0.5336  0.0127
  674MOL0     C92903  10.874   3.722  11.951  0.6778  0.5736 -1.2742
  674MOL0     C92904  10.998   3.726  12.043  0.7537 -0.9919 -0.0700
  674MOL0     O92905  11.052   3.854  12.067 -0.2444 -0.6201  0.7667
  674MOL0     C92906  11.169   3.865  12.143  0.2652  0.3110  0.8825
  674MOL0     C92907  11.286   3.907  12.070  0.0935  0.5679 -0.5525
  674MOL0     C92908  11.411   3.907  12.128  0.6935  0.2335 -0.4543
  674MOL0     C92909  11.418   3.863  12.266  0.2711  0.5248  0.3779
  674MOL0     O92910  11.540   3.852  12.339  0.3372 -0.1767 -0.1574
  674MOL0     C92911  11.658   3.908  12.284  0.0089  0.0380 -0.1851
  674MOL0     C92912  11.733   3.818  12.182 -1.1427 -0.0348  0.1599
  674MOL0     C92913  11.840   3.897  12.117  0.0850  0.0368 -0.4161
  674MOL0     C92914  11.924   3.829  12.011 -0.0623 -0.0748  0.6454
  674MOL0     C92915  12.020   3.738  12.071 -0.6848 -0.9307 -0.8680
  674MOL0     C92916  12.119   3.689  11.968  0.0102  0.0804  0.4474
  674MOL0     C92917  12.057   3.593  11.872 -0.7849  0.2018 -0.6373
  674MOL0     C92918  12.020   3.458  11.917 -0.0446 -0.0246  0.0146
  674MOL0    Cl92919  12.152   3.340  11.927  0.2747 -0.1945 -0.6900
  674MOL0     C92920  11.299   3.806  12.329 -0.8531  0.2864  0.2546
  674MOL0     C92921  11.174   3.818  12.271 -0.7792  0.5347 -0.4674
  674MOL0     O92922  11.052   3.627  12.075 -0.3574 -0.0684  0.3124
  674MOL0     C92923  10.831   3.840  11.876  0.6593  0.4383 -0.1022
  674MOL0     C92924  10.723   3.838  11.791  1.0043 -0.4775 -0.1295
  674MOL0     N92925  10.371   3.519  11.162 -0.1220 -0.6408  0.5459
  674MOL0     N92926  10.405   3.524  11.040 -0.1856  0.4678  0.1422
  674MOL0     C92927   9.496   4.024  10.847  0.1732 -0.4090 -0.6270
  674MOL0     C92928   9.374   4.092  10.866  0.0157  0.8866 -0.4530
  674MOL0     C92929   9.065   4.457  10.763 -0.1300 -0.6973  0.1285
  674MOL0     C92930   8.979   4.417  10.868  0.8195  0.8594  0.6663
  674MOL0     C92931   8.863   4.479  10.894  0.1852 -0.2049 -0.5880
  674MOL0     C92932   8.822   4.606  10.828  1.0554 -0.0725 -0.4932
  674MOL0     O92933   8.703   4.671  10.865 -0.1803  0.8715  0.1162
  674MOL0     C92934   8.648   4.784  10.801  0.4636 -0.6354  0.3087
  674MOL0     C92935   8.523   4.821  10.878 -0.7121  0.4062  0.7855
  674MOL0     C92936   8.541   4.869  11.022 -0.4273  0.4065  0.1281
  674MOL0     C92937   8.404   4.878  11.089  0.1843 -0.1669  0.1933
  674MOL0     C92938   8.337   5.002  11.042 -0.9352 -0.0725  0.3421
  674MOL0     C92939   8.277   5.110  11.038 -0.3058 -0.0226 -0.1419
  674MOL0     C92940   8.912   4.655  10.731 -0.0969  1.4319 -0.7314
  674MOL0     C92941   9.027   4.579  10.692 -0.0993 -0.3427  0.0403
  674MOL0     C92942   9.105   4.647  10.591 -0.1183  0.4772  0.4916
  674MOL0     H92943   9.449   4.399  10.737  0.5573  0.3853 -1.0704
  674MOL0     H92944   9.669   4.267  10.686  1.2185  1.4908  1.3983
  674MOL0     H92945   9.673   4.019  10.585 -0.9857 -3.4794 -0.1353
  674MOL0     H92946   9.770   3.885  10.663 -1.0251 -0.2757 -1.3226
  674MOL0     H92947   9.887   4.068  10.511 -5.3366 -0.3997  0.5624
  674MOL0     H92948   9.863   4.171  10.663 -3.3863 -1.6633  3.0815
  674MOL0     H92949  10.094   4.092  10.684 -0.7927  1.7321 -1.2423
  674MOL0     H92950   9.985   4.029  10.807 -1.1853 -2.8022  0.7345
  674MOL0     H92951  10.039   3.815  10.766 -0.6688  1.7156  0.3523
  674MOL0     H92952   9.992   3.824  10.603  0.3272  0.8218 -1.2727
  674MOL0     H92953  10.256   3.909  10.711  0.6806  0.7247 -1.0409
  674MOL0     H92954  10.213   3.913  10.542  0.3636  1.0315  0.0910
  674MOL0     H92955  10.163   3.667  10.553 -1.5262  0.0618  0.8635
  674MOL0     H92956  10.332   3.716  10.550 -0.7018  1.2169  0.2944
  674MOL0     H92957  10.296   3.537  10.700 -1.3083  1.0313 -3.5953
  674MOL0     H92958  10.171   3.624  10.796  0.2791 -2.3460  0.4028
  674MOL0     H92959  10.463   3.640  10.788  0.3818  1.8580  0.4415
  674MOL0     H92960  10.381   3.785  10.836  0.4386  0.5375 -1.9990
  674MOL0     H92961  10.225   3.785  11.085 -0.6344 -0.3751  2.3652
  674MOL0     H92962  10.188   3.622  11.380  1.0835  1.8266  2.0050
  674MOL0     H92963  10.241   3.782  11.316  1.6626  1.4998  2.6279
  674MOL0     H92964  10.430   3.588  11.437  1.6862 -0.4996 -5.4150
  674MOL0     H92965  10.478   3.738  11.367  2.7798 -1.2943  0.7662
  674MOL0     H92966  10.297   3.864  11.532  0.0504 -1.1159 -3.7025
  674MOL0     H92967  10.285   3.704  11.604  1.2799  0.4669  1.0321
  674MOL0     H92968  10.536   3.870  11.562 -3.3335  3.2745  0.4582
  674MOL0     H92969  10.458   3.875  11.716  4.2861  1.2992  0.5007
  674MOL0     H92970  10.642   3.505  11.802 -0.5294 -0.0343  1.6046
  674MOL0     H92971  10.942   3.437  11.949 -0.5419  0.7067  1.6970
  674MOL0     H92972  10.776   3.382  11.960 -0.6911 -0.9001 -1.2205
  674MOL0     H92973  10.841   3.483  12.091  0.2607  1.3841 -0.2022
  674MOL0     H92974  11.267   3.930  11.966 -0.9563  0.8971 -0.3025
  674MOL0     H92975  11.495   3.954  12.079 -1.9100  3.6364 -2.0787
  674MOL0     H92976  11.635   3.999  12.228  0.2401 -0.4666 -1.1220
  674MOL0     H92977  11.718   3.916  12.375  1.0897 -0.4758 -0.8401
  674MOL0     H92978  11.782   3.734  12.232 -0.1122  1.3349  1.5519
  674MOL0     H92979  11.661   3.777  12.111 -0.8543  2.2237 -1.5411
  674MOL0     H92980  11.912   3.939  12.188 -0.1413 -2.0294  1.1455
  674MOL0     H92981  11.790   3.982  12.071  0.3863  0.0165 -0.7832
  674MOL0     H92982  11.983   3.905  11.960  1.3675  0.3941  2.8930
  674MOL0     H92983  11.861   3.783  11.933  0.3521 -0.2246  0.3966
  674MOL0     H92984  12.077   3.794  12.146 -2.4373  0.4521 -0.5157
  674MOL0     H92985  11.978   3.659  12.134  0.9311 -1.5145 -0.4687
  674MOL0     H92986  12.196   3.631  12.019  1.0733  1.8767  0.9621
  674MOL0     H92987  12.165   3.773  11.915 -0.7606  0.7899  0.8741
  674MOL0     H92988  12.121   3.574  11.786 -0.0816 -3.7970  0.5912
  674MOL0     H92989  11.968   3.641  11.829 -1.6436  0.8079  1.6693
  674MOL0     H92990  11.946   3.427  11.842 -2.5980  0.0258  2.3769
  674MOL0     H92991  11.960   3.463  12.008 -1.8052  2.2288 -1.1587
  674MOL0     H92992  11.301   3.775  12.433 -2.3795 -0.6481  0.0349
  674MOL0     H92993  11.085   3.787  12.326 -0.3360 -2.3505 -1.1947
  674MOL0     H92994  10.892   3.929  11.885  1.0295  0.3811 -1.8527
  674MOL0     H92995  10.692   3.928  11.740 -1.4509 -1.1415  0.0806
  674MOL0     H92996   9.505   3.919  10.875  0.2758  0.0047  0.9978
  674MOL0     H92997   9.282   4.051  10.905  0.6965 -1.8102 -1.4785
  674MOL0     H92998   8.993   4.315  10.902  3.0274 -0.4345 -3.5117
  674MOL0     H92999   8.790   4.437  10.962  0.9862  2.7732  2.3814
  674MOL0     H93000   8.722   4.864  10.803  0.0142 -0.1246 -1.5079
  674MOL0     H93001   8.616   4.771  10.697  1.1476 -3.5039  0.3773
  674MOL0     H93002   8.462   4.731  10.874 -2.1146  1.2820  1.5369
  674MOL0     H93003   8.469   4.895  10.818 -0.5280 -1.2515 -1.5567
  674MOL0     H93004   8.604   4.797  11.075  0.0583  0.5369 -0.2719
  674MOL0     H93005   8.597   4.962  11.028 -0.3136  0.2850  1.2065
  674MOL0     H93006   8.420   4.902  11.194 -0.8034  2.0525 -0.0989
  674MOL0     H93007   8.342   4.793  11.062 -0.7958  1.8261 -4.9592
  674MOL0     H93008   8.222   5.201  11.035 -2.5089 -1.2776 -0.2536
  674MOL0     H93009   8.892   4.744  10.673  0.9389 -0.3702 -4.1176
  674MOL0     H93010   9.043   4.669  10.503  2.8000 -0.6010 -2.0431
  674MOL0     H93011   9.146   4.734  10.643 -1.7243  0.7213  1.3906
  674MOL0     H93012   9.193   4.589  10.560 -0.3342 -0.4603  1.5867
  675MOL0     O93013   4.558   4.208   5.553  0.0704 -0.6961  0.3416
  675MOL0     C93014   4.516   4.328   5.518 -0.7782  1.2529 -0.3587
  675MOL0     O93015   4.599   4.434   5.503  0.7782  0.3012  0.9003
  675MOL0     C93016   4.736   4.421   5.501  0.1470 -0.8138  0.5664
  675MOL0     C93017   4.808   4.527   5.568  1.2633  0.2345  0.2225
  675MOL0     C93018   4.945   4.528   5.559  0.3284 -0.4805 -0.2568
  675MOL0     C93019   5.017   4.436   5.484  0.1969 -0.1788 -0.2005
  675MOL0     O93020   5.149   4.461   5.459  0.0275  0.2338  0.1753
  675MOL0     C93021   5.231   4.351   5.431  0.1401 -0.5891  0.2167
  675MOL0     C93022   5.381   4.385   5.430  0.1296  1.1487  0.0761
  675MOL0     C93023   5.461   4.255   5.443  0.1969  0.5251 -0.5270
  675MOL0     C93024   5.618   4.277   5.447 -0.5188  0.2888  0.0854
  675MOL0     C93025   5.679   4.315   5.310 -0.8593 -0.3657  0.2277
  675MOL0     C93026   5.843   4.308   5.309  0.7228  0.0918  0.3403
  675MOL0     C93027   5.913   4.406   5.403 -0.0623 -0.5093 -0.4790
  675MOL0     C93028   6.068   4.398   5.395 -1.4683 -0.9562  0.5887
  675MOL0     N93029   6.128   4.506   5.467  0.3217  0.2376 -0.7305
  675MOL0     C93030   6.153   4.622   5.413 -0.4062  0.4402  0.1175
  675MOL0     C93031   6.225   4.681   5.511  0.2225 -0.3443 -0.5774
  675MOL0     C93032   6.294   4.812   5.492  0.6151 -0.3874  0.1582
  675MOL0     C93033   6.439   4.814   5.539 -0.6869  0.1257  0.3172
  675MOL0     C93034   6.530   4.699   5.485  0.4649 -0.2136 -0.0706
  675MOL0     C93035   6.673   4.708   5.524 -0.5852  1.2673 -0.0371
  675MOL0     O93036   6.753   4.787   5.428 -0.1332  0.0166 -0.0171
  675MOL0     C93037   6.888   4.789   5.442 -0.2358  0.2737 -0.0881
  675MOL0     C93038   6.969   4.865   5.360 -0.3742  0.3331 -0.5061
  675MOL0     C93039   7.110   4.881   5.382 -0.1140 -0.2475 -0.4557
  675MOL0     C93040   7.182   4.998   5.297 -0.7845  0.8964 -0.8437
  675MOL0     C93041   7.169   4.796   5.478 -0.0734  0.6908 -2.0340
  675MOL0     C93042   7.307   4.806   5.526 -0.3701 -0.5243 -0.4338
  675MOL0     O93043   7.335   4.789   5.664  0.5547 -0.4703  0.2781
  675MOL0     C93044   7.451   4.799   5.721  0.4193  0.4368 -0.5040
  675MOL0     C93045   7.558   4.731   5.661  0.3861  0.5210  0.5291
  675MOL0     C93046   7.675   4.721   5.734  0.2082 -0.5303 -0.1558
  675MOL0     C93047   7.694   4.794   5.856  0.1675  0.1864 -0.7956
  675MOL0     O93048   7.809   4.780   5.929 -0.4295  0.1935  0.8598
  675MOL0     C93049   7.865   4.889   6.012  0.2913 -0.2328  0.0584
  675MOL0     C93050   7.944   4.970   5.910  0.2369 -0.1067  0.1120
  675MOL0     C93051   8.021   5.085   5.974  0.0324 -0.5392 -1.1155
  675MOL0     C93052   8.160   5.035   6.017  0.0405 -0.7776  0.2000
  675MOL0     C93053   8.263   5.030   5.903 -0.3400 -0.5458  0.4792
  675MOL0     C93054   8.395   4.998   5.967 -0.0218  0.7813 -0.1176
  675MOL0     C93055   8.502   4.931   5.872  0.0368 -1.2264  0.4364
  675MOL0     C93056   8.560   5.023   5.766 -0.9500 -0.1862 -0.6857
  675MOL0    Cl93057   8.602   5.200   5.818 -0.0989 -0.6868  0.1664
  675MOL0     C93058   7.579   4.850   5.912  0.4634 -0.5019 -0.6318
  675MOL0     C93059   7.468   4.862   5.847 -0.1528 -0.0412  1.3171
  675MOL0     O93060   7.390   4.829   5.439 -0.8615 -0.0983  0.1587
  675MOL0     C93061   7.089   4.706   5.552 -1.3456 -0.4592  0.2081
  675MOL0     C93062   6.954   4.706   5.531  0.7744  1.4862 -0.5339
  675MOL0     N93063   6.226   4.611   5.631 -0.8398  0.4173 -0.3822
  675MOL0     N93064   6.167   4.494   5.600  0.0721  0.0945  0.8566
  675MOL0     C93065   4.949   4.321   5.432 -0.3610  0.2066 -0.6371
  675MOL0     C93066   4.812   4.316   5.442 -1.0340 -0.2004 -0.4514
  675MOL0     C93067   4.367   4.330   5.490 -0.8164 -0.4790 -0.1801
  675MOL0     C93068   4.324   4.414   5.386 -0.2538 -0.4200 -0.2032
  675MOL0     C93069   4.184   4.435   5.366 -0.9984 -0.4316  0.5897
  675MOL0     C93070   4.097   4.360   5.448 -0.3995  0.1900  0.0159
  675MOL0     O93071   3.965   4.380   5.457  0.9785  0.4258  0.3975
  675MOL0     C93072   3.907   4.466   5.353 -0.4483 -0.3486  0.0219
  675MOL0     C93073   3.760   4.446   5.360 -0.5252  0.2564 -0.0374
  675MOL0     C93074   3.715   4.302   5.377 -0.4670  0.2541  0.1495
  675MOL0     C93075   3.759   4.185   5.280  0.0713  0.2956  0.0580
  675MOL0     C93076   3.689   4.204   5.145 -1.2153  0.4532 -1.5725
  675MOL0     C93077   3.640   4.239   5.038 -0.6792 -0.0561  0.6066
  675MOL0     C93078   4.142   4.279   5.547 -0.6993 -0.3718 -0.6101
  675MOL0     C93079   4.275   4.262   5.573  0.5895 -0.0765 -0.4035
  675MOL0     C93080   4.310   4.177   5.683 -0.5122 -0.6194 -0.6890
  675MOL0     H93081   4.742   4.599   5.615 -2.0611 -1.0702 -2.0772
  675MOL0     H93082   4.998   4.614   5.599 -0.6293  0.0573 -0.1007
  675MOL0     H93083   5.198   4.303   5.338 -0.1064  0.8622 -0.4693
  675MOL0     H93084   5.216   4.292   5.522  3.7194  2.0571  2.8316
  675MOL0     H93085   5.417   4.435   5.340 -1.5605 -1.2240 -2.0313
  675MOL0     H93086   5.404   4.436   5.524  0.2977 -0.3637  0.8880
  675MOL0     H93087   5.436   4.221   5.544  4.0028 -0.8231  0.1182
  675MOL0     H93088   5.429   4.182   5.370 -1.3007 -0.8805  1.4264
  675MOL0     H93089   5.632   4.363   5.513  1.6135 -0.3089  0.4933
  675MOL0     H93090   5.669   4.191   5.491  1.4016  2.5955  2.7101
  675MOL0     H93091   5.643   4.411   5.271  2.1662 -0.6550 -3.9504
  675MOL0     H93092   5.642   4.242   5.238  1.2945 -0.8728 -0.4213
  675MOL0     H93093   5.886   4.211   5.335 -1.2687 -0.9047  0.1355
  675MOL0     H93094   5.889   4.326   5.212 -1.0827  2.5057 -0.1607
  675MOL0     H93095   5.881   4.369   5.501  1.2128  0.1678  0.2205
  675MOL0     H93096   5.878   4.507   5.382 -1.1576 -0.8044 -0.1617
  675MOL0     H93097   6.094   4.303   5.442  1.4885 -0.4914  0.1000
  675MOL0     H93098   6.106   4.400   5.292  1.5782  0.8728  1.6282
  675MOL0     H93099   6.129   4.672   5.320 -0.4136  1.9018  0.8754
  675MOL0     H93100   6.247   4.879   5.565  0.0554  1.3363 -1.6939
  675MOL0     H93101   6.281   4.849   5.390  2.7193 -1.0937 -0.4096
  675MOL0     H93102   6.471   4.917   5.519 -4.0271  1.8463  2.7871
  675MOL0     H93103   6.431   4.815   5.648  0.3322  2.2752  0.4272
  675MOL0     H93104   6.486   4.603   5.512 -0.2461 -1.5191 -4.9168
  675MOL0     H93105   6.526   4.711   5.376 -0.6833  1.6315  0.1268
  675MOL0     H93106   6.682   4.740   5.628 -1.5577 -2.0714  1.2125
  675MOL0     H93107   6.702   4.603   5.529 -2.4722  0.4491 -2.9876
  675MOL0     H93108   6.922   4.921   5.281  0.6280  0.3619 -1.1079
  675MOL0     H93109   7.264   5.048   5.351  0.6976 -2.1977  0.0173
  675MOL0     H93110   7.108   5.077   5.284  0.8541  2.7125  0.2148
  675MOL0     H93111   7.207   4.952   5.201 -0.7577 -0.7085 -0.1039
  675MOL0     H93112   7.534   4.672   5.573  1.2465  1.1941 -0.1750
  675MOL0     H93113   7.766   4.672   5.700  0.5119  1.2484 -2.1827
  675MOL0     H93114   7.793   4.943   6.074 -0.7292 -1.7122  0.2395
  675MOL0     H93115   7.931   4.838   6.083 -1.6200 -1.8524  0.8024
  675MOL0     H93116   8.016   4.900   5.866  0.3731  0.0068  0.1524
  675MOL0     H93117   7.881   5.000   5.826 -1.0709 -0.2199  1.0168
  675MOL0     H93118   7.968   5.119   6.063  2.6382  3.7645 -0.9276
  675MOL0     H93119   8.028   5.163   5.897  1.6822  1.1638  0.6446
  675MOL0     H93120   8.150   4.937   6.063  0.4976 -0.8682  0.1095
  675MOL0     H93121   8.204   5.099   6.094 -3.2062  3.1938 -0.9003
  675MOL0     H93122   8.220   4.958   5.833 -0.3680  0.0614 -0.1324
  675MOL0     H93123   8.277   5.124   5.848 -0.7668  0.7777  2.4992
  675MOL0     H93124   8.392   4.930   6.052  0.5349 -0.0790 -0.7679
  675MOL0     H93125   8.436   5.086   6.017  0.6401 -1.0682  2.8550
  675MOL0     H93126   8.457   4.839   5.833  2.3664 -2.7421  1.1167
  675MOL0     H93127   8.588   4.896   5.931  0.8781  0.4031  0.2228
  675MOL0     H93128   8.506   5.013   5.672 -0.4778 -0.5725 -0.9198
  675MOL0     H93129   8.658   4.978   5.748 -0.6869 -0.1306  0.5030
  675MOL0     H93130   7.586   4.880   6.016 -0.9101  1.4203 -1.0418
  675MOL0     H93131   7.374   4.894   5.892  0.7422  1.4837  2.1564
  675MOL0     H93132   7.129   4.644   5.632  3.2988  0.3618 -1.2038
  675MOL0     H93133   6.906   4.635   5.598  1.7009  0.4890 -0.8961
  675MOL0     H93134   5.003   4.252   5.367  0.9683 -0.9038  1.5331
  675MOL0     H93135   4.747   4.249   5.388 -0.7033  0.1316 -1.2897
  675MOL0     H93136   4.384   4.483   5.328 -0.4840 -0.0571 -0.0125
  675MOL0     H93137   4.151   4.489   5.278  0.5513 -3.6749 -2.2447
  675MOL0     H93138   3.922   4.569   5.386  0.3743 -0.7796  1.0572
  675MOL0     H93139   3.944   4.446   5.252 -1.3404 -0.5096 -0.2863
  675MOL0     H93140   3.719   4.488   5.268 -2.1300 -1.5732 -0.2383
  675MOL0     H93141   3.728   4.503   5.447  1.8884 -2.5311  2.9226
  675MOL0     H93142   3.750   4.270   5.476  0.2664  2.0154  0.4988
  675MOL0     H93143   3.606   4.306   5.375 -0.5840  0.2230  2.7430
  675MOL0     H93144   3.730   4.084   5.310 -3.2580  1.1727  0.2015
  675MOL0     H93145   3.868   4.180   5.264 -0.3469  0.6207 -3.8032
  675MOL0     H93146   3.597   4.262   4.943  0.9846 -1.2803 -0.4899
  675MOL0     H93147   4.067   4.230   5.609 -0.9308 -0.7739 -1.1995
  675MOL0     H93148   4.352   4.085   5.640 -1.7195 -2.4114  1.6966
  675MOL0     H93149   4.384   4.238   5.735 -0.0864  0.0440 -2.0475
  675MOL0     H93150   4.228   4.153   5.752  0.7770 -1.8722  0.4721
  676MOL0     O93151   1.381   5.138   1.475 -0.0858 -0.0958 -0.0448
  676MOL0     C93152   1.313   5.226   1.411 -0.5920  0.1720  0.7255
  676MOL0     O93153   1.372   5.323   1.327  0.0256 -0.3522 -0.7165
  676MOL0     C93154   1.506   5.315   1.298  0.4082 -0.0509  0.0605
  676MOL0     C93155   1.606   5.347   1.388 -0.5628 -0.0683  0.2316
  676MOL0     C93156   1.738   5.324   1.355 -0.2086 -0.0747  0.1609
  676MOL0     C93157   1.772   5.280   1.229 -0.8110  0.1737  0.4073
  676MOL0     O93158   1.897   5.249   1.181 -0.9794  0.0016 -0.4143
  676MOL0     C93159   2.009   5.315   1.245 -0.1184 -0.2843 -0.3225
  676MOL0     C93160   2.128   5.302   1.148  0.6619  0.6423  0.0601
  676MOL0     C93161   2.116   5.378   1.018  0.2763 -0.0469  0.9001
  676MOL0     C93162   2.255   5.379   0.941 -0.9617  0.5875 -0.1086
  676MOL0     C93163   2.288   5.237   0.893 -1.0739 -0.2310 -0.0993
  676MOL0     C93164   2.372   5.228   0.757  0.1725 -0.5015 -0.1053
  676MOL0     C93165   2.452   5.098   0.729 -0.5244 -0.3817  0.0771
  676MOL0     C93166   2.596   5.088   0.792  0.4408 -0.1140  0.1320
  676MOL0     N93167   2.665   4.972   0.755 -0.1689  0.9362 -0.2489
  676MOL0     C93168   2.726   4.954   0.634 -0.4807  0.2493 -0.8651
  676MOL0     C93169   2.766   4.827   0.636 -0.4521 -0.0346 -0.7530
  676MOL0     C93170   2.843   4.753   0.537  0.3560 -0.7020  0.8972
  676MOL0     C93171   2.988   4.782   0.559  0.2598  0.1892 -1.5844
  676MOL0     C93172   3.027   4.923   0.555  0.5074 -0.0706 -0.0303
  676MOL0     C93173   3.177   4.937   0.564  0.2466  0.0946 -0.6529
  676MOL0     O93174   3.235   4.873   0.458 -0.7221  0.0177 -0.6729
  676MOL0     C93175   3.374   4.855   0.464 -0.4720  0.7952  0.1148
  676MOL0     C93176   3.434   4.808   0.346  0.2222  0.6371  0.2674
  676MOL0     C93177   3.574   4.786   0.335 -0.1675 -0.5901 -0.1865
  676MOL0     C93178   3.624   4.751   0.202  0.5567  0.1491 -0.1733
  676MOL0     C93179   3.659   4.814   0.448  1.3202 -0.1460  0.2448
  676MOL0     C93180   3.814   4.797   0.439  0.0717  0.3801  1.0631
  676MOL0     O93181   3.895   4.888   0.511 -0.1411 -0.5182 -0.0699
  676MOL0     C93182   4.028   4.858   0.529  0.7140 -0.3656  0.1459
  676MOL0     C93183   4.060   4.750   0.610  1.2867 -0.0856  0.1750
  676MOL0     C93184   4.194   4.713   0.632 -0.6738 -0.6593  0.1875
  676MOL0     C93185   4.293   4.785   0.557 -0.0692  0.2822 -0.3222
  676MOL0     O93186   4.431   4.771   0.552 -0.1384 -0.6263  0.4687
  676MOL0     C93187   4.489   4.671   0.630 -0.6372 -0.5909 -0.6137
  676MOL0     C93188   4.640   4.695   0.615  0.5478 -0.1185 -1.0416
  676MOL0     C93189   4.732   4.579   0.629 -0.6754 -0.3896  0.3183
  676MOL0     C93190   4.886   4.611   0.594 -0.3736  0.4634  0.7262
  676MOL0     C93191   4.982   4.487   0.618 -0.6584  0.2357 -0.0710
  676MOL0     C93192   4.945   4.361   0.548 -0.6776  0.5763  0.1131
  676MOL0     C93193   5.061   4.259   0.556  0.6868 -0.8897  1.2546
  676MOL0     C93194   5.180   4.286   0.462  0.2574 -0.1583  0.7656
  676MOL0    Cl93195   5.157   4.240   0.283  0.2408  0.0585  0.0317
  676MOL0     C93196   4.254   4.890   0.477  0.3180 -0.0851 -0.1262
  676MOL0     C93197   4.125   4.919   0.459  0.5901  1.0226  0.3727
  676MOL0     O93198   3.860   4.709   0.366 -0.0550  0.6165  0.5592
  676MOL0     C93199   3.603   4.863   0.563  0.3018  0.9379  0.5451
  676MOL0     C93200   3.462   4.881   0.576  0.0868 -1.1724  0.3033
  676MOL0     N93201   2.713   4.756   0.745 -0.0050 -0.2085  0.1952
  676MOL0     N93202   2.651   4.849   0.818 -0.2760  0.1580 -0.1222
  676MOL0     C93203   1.670   5.262   1.140  0.2113  0.8576 -0.3013
  676MOL0     C93204   1.536   5.278   1.172 -0.1051  0.3466 -0.0617
  676MOL0     C93205   1.167   5.221   1.417  0.0565 -0.2418 -0.8086
  676MOL0     C93206   1.112   5.107   1.476 -0.7615 -1.3478 -0.8452
  676MOL0     C93207   0.976   5.087   1.477 -0.7059  0.0917 -0.0653
  676MOL0     C93208   0.884   5.180   1.425 -0.0039 -0.3492  0.8284
  676MOL0     O93209   0.744   5.168   1.436 -0.5910 -0.6176  0.4794
  676MOL0     C93210   0.700   5.059   1.521  1.0368 -0.2902  0.7442
  676MOL0     C93211   0.544   5.054   1.504  0.4576  0.0239 -1.0250
  676MOL0     C93212   0.476   5.174   1.571 -0.0652 -0.3433  0.5363
  676MOL0     C93213   0.329   5.180   1.544  0.2735 -0.0646  0.4783
  676MOL0     C93214   0.243   5.074   1.595  0.8568 -0.1587  0.2562
  676MOL0     C93215   0.164   5.000   1.646 -0.7025 -0.6728 -0.0805
  676MOL0     C93216   0.942   5.304   1.372  0.0630  0.3884 -1.0301
  676MOL0     C93217   1.076   5.319   1.362  0.0830 -0.6442 -0.8805
  676MOL0     C93218   1.117   5.443   1.290  0.2968 -0.0876 -0.6669
  676MOL0     H93219   1.582   5.377   1.489  1.4901  1.0878  0.4064
  676MOL0     H93220   1.810   5.348   1.432 -1.2955  1.6610  0.7144
  676MOL0     H93221   2.025   5.263   1.341 -2.3922 -1.0052 -0.2763
  676MOL0     H93222   1.993   5.420   1.268  1.9922  0.4520 -1.9769
  676MOL0     H93223   2.210   5.344   1.207  0.0824 -0.0440  1.4226
  676MOL0     H93224   2.155   5.198   1.128 -1.9558 -0.0302 -0.3214
  676MOL0     H93225   2.036   5.347   0.950  1.1507  0.0712 -0.2103
  676MOL0     H93226   2.098   5.483   1.043  2.0105 -0.1554  2.8517
  676MOL0     H93227   2.243   5.443   0.853  1.5765  2.7230  0.9651
  676MOL0     H93228   2.334   5.418   1.006 -0.8901 -0.4186  0.4210
  676MOL0     H93229   2.193   5.186   0.870  0.2365 -1.9477 -2.0824
  676MOL0     H93230   2.344   5.178   0.966  1.5778  0.6431 -1.3049
  676MOL0     H93231   2.301   5.252   0.678  2.5104  2.2029 -1.5850
  676MOL0     H93232   2.435   5.317   0.757 -1.9297  1.0518  0.3779
  676MOL0     H93233   2.465   5.100   0.620  0.9624 -2.4448  0.1700
  676MOL0     H93234   2.390   5.013   0.757 -0.3750 -1.4097 -2.4260
  676MOL0     H93235   2.666   5.170   0.778 -0.0862  0.6833  1.8942
  676MOL0     H93236   2.570   5.086   0.898  1.5045 -0.8571  0.3901
  676MOL0     H93237   2.751   5.034   0.566 -1.6224 -0.7855 -2.5716
  676MOL0     H93238   2.816   4.794   0.439 -2.6561 -1.1449  1.4727
  676MOL0     H93239   2.832   4.644   0.540  1.0521 -0.7894  0.6048
  676MOL0     H93240   3.010   4.747   0.660  1.3898 -2.0832 -2.5585
  676MOL0     H93241   3.050   4.720   0.494  0.1285 -1.0304 -0.5816
  676MOL0     H93242   2.986   4.971   0.465  1.1047 -1.1233 -0.8919
  676MOL0     H93243   2.997   4.974   0.647  0.7582  5.3161 -2.5336
  676MOL0     H93244   3.203   5.043   0.573  0.1639  0.0926 -0.3984
  676MOL0     H93245   3.216   4.900   0.659 -2.4640  2.2358  1.4452
  676MOL0     H93246   3.369   4.778   0.265  0.2695 -1.6794  1.0110
  676MOL0     H93247   3.555   4.780   0.122  1.3325  2.0106 -0.2254
  676MOL0     H93248   3.637   4.643   0.199 -0.2680  0.0223  0.3037
  676MOL0     H93249   3.718   4.798   0.171  0.2183 -0.1166 -1.6611
  676MOL0     H93250   3.983   4.686   0.653  2.0429 -3.2499 -2.8091
  676MOL0     H93251   4.221   4.632   0.699  0.1333  0.2991  1.0479
  676MOL0     H93252   4.465   4.679   0.736  1.2280 -0.6769 -0.1566
  676MOL0     H93253   4.457   4.576   0.588  0.5112 -0.3902 -2.0332
  676MOL0     H93254   4.665   4.751   0.524 -0.5970 -0.8654 -1.8333
  676MOL0     H93255   4.672   4.767   0.691  3.4735 -0.2283 -2.0403
  676MOL0     H93256   4.702   4.493   0.569  3.0197 -0.8468 -1.1155
  676MOL0     H93257   4.726   4.541   0.731 -0.3284 -3.7193 -0.7826
  676MOL0     H93258   4.912   4.695   0.661 -2.5854 -0.5434  3.0107
  676MOL0     H93259   4.899   4.646   0.492  0.4414  1.2090  1.0627
  676MOL0     H93260   5.075   4.521   0.571 -2.1111 -0.2436 -3.6275
  676MOL0     H93261   5.000   4.466   0.723 -0.9430 -1.0621 -0.2623
  676MOL0     H93262   4.920   4.375   0.442  1.9605  1.0212 -0.5210
  676MOL0     H93263   4.864   4.308   0.599  0.4074 -1.6701 -0.3640
  676MOL0     H93264   5.019   4.161   0.531  1.6515 -1.3027  1.2030
  676MOL0     H93265   5.109   4.251   0.654 -0.4249 -2.7329  1.7026
  676MOL0     H93266   5.262   4.227   0.506 -2.6371 -4.0447  1.5415
  676MOL0     H93267   5.209   4.391   0.462 -2.0618  0.5483  1.4612
  676MOL0     H93268   4.333   4.938   0.421  0.2986  0.7249  0.5234
  676MOL0     H93269   4.103   5.002   0.392  1.7718 -0.3294 -1.7948
  676MOL0     H93270   3.660   4.896   0.649  0.7708  1.6404 -0.0198
  676MOL0     H93271   3.419   4.921   0.667 -1.2135 -2.4775  0.3062
  676MOL0     H93272   1.696   5.224   1.041  1.8022 -3.3261  1.5193
  676MOL0     H93273   1.451   5.259   1.107  0.3651  0.6152 -0.7658
  676MOL0     H93274   1.164   5.029   1.531 -1.5980 -1.2425  0.1480
  676MOL0     H93275   0.947   4.993   1.523 -1.0645  0.8053  1.2281
  676MOL0     H93276   0.734   4.958   1.499  1.1127  0.1242 -1.2852
  676MOL0     H93277   0.716   5.095   1.623 -3.4148  2.6420  0.6904
  676MOL0     H93278   0.499   4.966   1.552  1.1384  0.4705  0.5131
  676MOL0     H93279   0.524   5.060   1.397 -2.7884  2.6149 -0.4410
  676MOL0     H93280   0.483   5.185   1.680 -1.4983  0.4510  0.5768
  676MOL0     H93281   0.529   5.262   1.533 -0.7991 -0.6978 -1.4035
  676MOL0     H93282   0.312   5.176   1.436  0.0459 -1.7338  0.5458
  676MOL0     H93283   0.293   5.276   1.580  1.2225  0.5878 -0.2483
  676MOL0     H93284   0.100   4.930   1.695  1.0917 -1.6864  0.9491
  676MOL0     H93285   0.867   5.371   1.330 -1.5409 -1.1431 -0.7463
  676MOL0     H93286   1.197   5.423   1.219  0.4161 -3.2583  0.1938
  676MOL0     H93287   1.038   5.484   1.226  0.7057  0.4935 -0.8016
  676MOL0     H93288   1.158   5.510   1.366  1.0830  0.8411 -1.8793
  677MOL0     O93289   8.370   5.794   2.753  0.4466  0.4564 -0.5579
  677MOL0     C93290   8.348   5.872   2.845  0.1091  0.4606  0.1378
  677MOL0     O93291   8.421   5.863   2.970 -0.2990  0.1102 -0.2252
  677MOL0     C93292   8.479   5.743   3.004 -0.1843 -0.1162  0.1100
  677MOL0     C93293   8.591   5.681   2.938  0.0612  0.5429 -0.3236
  677MOL0     C93294   8.648   5.563   2.976  0.7944 -0.9136  0.1547
  677MOL0     C93295   8.594   5.500   3.087  0.3616 -0.1465  0.1018
  677MOL0     O93296   8.643   5.380   3.134 -0.1366 -0.7873 -0.1058
  677MOL0     C93297   8.639   5.275   3.037  0.1628  0.8339 -0.3329
  677MOL0     C93298   8.493   5.224   3.016  0.5646  0.3467  0.3628
  677MOL0     C93299   8.466   5.195   2.866 -0.4321 -0.1798 -0.5564
  677MOL0     C93300   8.572   5.085   2.818  0.4899 -0.3052  0.6771
  677MOL0     C93301   8.553   5.038   2.669  0.4497 -0.1426 -1.2479
  677MOL0     C93302   8.646   4.917   2.646  1.4788  0.7321  0.0394
  677MOL0     C93303   8.639   4.871   2.496  0.0308 -0.0717 -0.0508
  677MOL0     C93304   8.512   4.804   2.445  0.3860 -0.1012 -0.3500
  677MOL0     N93305   8.513   4.796   2.299 -0.0256 -0.4374  0.8876
  677MOL0     C93306   8.477   4.892   2.206 -0.5984 -0.1331 -0.2210
  677MOL0     C93307   8.511   4.838   2.082  0.0187 -0.0349  0.8737
  677MOL0     C93308   8.492   4.900   1.938  0.0091  0.8024  0.2127
  677MOL0     C93309   8.613   4.867   1.847 -0.2466  0.7569 -1.0001
  677MOL0     C93310   8.606   4.916   1.703 -0.2226  0.3346  0.4006
  677MOL0     C93311   8.513   4.820   1.618 -0.8281 -0.8781  0.3367
  677MOL0     O93312   8.493   4.865   1.478 -0.2274 -0.5495 -0.1455
  677MOL0     C93313   8.607   4.843   1.406  0.3231 -0.2997 -0.0639
  677MOL0     C93314   8.649   4.723   1.351 -0.3666 -0.1245 -0.1233
  677MOL0     C93315   8.766   4.716   1.277  0.2825  0.9272 -0.2480
  677MOL0     C93316   8.793   4.580   1.218  0.5908  0.4366 -0.3548
  677MOL0     C93317   8.861   4.811   1.281  0.0935 -0.3784 -0.2961
  677MOL0     C93318   9.003   4.810   1.241  0.5254  1.1550 -0.2122
  677MOL0     O93319   9.070   4.918   1.206  0.5593  0.1307 -0.0800
  677MOL0     C93320   9.189   4.942   1.259 -0.0964  0.2910  0.4122
  677MOL0     C93321   9.248   4.877   1.365 -0.9915  0.2964 -0.6472
  677MOL0     C93322   9.374   4.895   1.417 -1.3233 -0.5215 -0.1788
  677MOL0     C93323   9.462   4.990   1.357  1.0609 -0.1055 -0.4285
  677MOL0     O93324   9.589   4.997   1.404 -0.4314  0.1838  0.8179
  677MOL0     C93325   9.681   5.018   1.295 -0.7834  0.0121 -0.4604
  677MOL0     C93326   9.820   4.995   1.345  0.1383  0.2791  0.0178
  677MOL0     C93327   9.864   5.067   1.474  0.3839 -1.0726 -0.3833
  677MOL0     C93328  10.012   5.054   1.500  0.3126 -0.0317 -0.2430
  677MOL0     C93329  10.059   5.147   1.608 -0.4461 -0.1994 -0.1260
  677MOL0     C93330  10.210   5.132   1.642 -0.5681  0.4277  0.3477
  677MOL0     C93331  10.247   5.233   1.752 -0.6135  0.4090  0.3570
  677MOL0     C93332  10.239   5.383   1.717 -0.9743 -0.3059  0.0686
  677MOL0    Cl93333  10.378   5.422   1.611 -0.0065  0.1545  0.0414
  677MOL0     C93334   9.397   5.076   1.263 -0.8165 -0.2959 -0.2602
  677MOL0     C93335   9.265   5.046   1.207 -0.1373  0.5729  1.2639
  677MOL0     O93336   9.051   4.701   1.239  0.6159 -0.1277  0.0644
  677MOL0     C93337   8.818   4.936   1.336 -0.1905 -0.5000  0.0211
  677MOL0     C93338   8.696   4.955   1.400  0.1125  0.3900  0.1513
  677MOL0     N93339   8.563   4.710   2.108  0.3740 -0.3921 -0.1880
  677MOL0     N93340   8.555   4.682   2.232 -0.3056 -0.3841 -0.3385
  677MOL0     C93341   8.494   5.558   3.165  0.1203 -0.6611 -0.2207
  677MOL0     C93342   8.437   5.682   3.126 -0.3198 -0.2393  0.7959
  677MOL0     C93343   8.246   5.982   2.824  0.0485 -0.1710  0.2286
  677MOL0     C93344   8.203   6.071   2.929  0.3721  0.9287 -0.4561
  677MOL0     C93345   8.119   6.183   2.902 -0.5941  0.1446 -0.4564
  677MOL0     C93346   8.062   6.210   2.778  0.0926  0.2873  0.0938
  677MOL0     O93347   7.982   6.322   2.760  0.0332 -0.0030 -0.4609
  677MOL0     C93348   7.972   6.387   2.633 -0.5538 -0.3699 -0.3627
  677MOL0     C93349   7.953   6.540   2.639 -0.2420 -0.1801  0.5196
  677MOL0     C93350   8.068   6.619   2.697 -0.3911 -0.2521 -0.3065
  677MOL0     C93351   8.021   6.762   2.717 -0.8896  0.3003 -0.3027
  677MOL0     C93352   8.140   6.855   2.725  0.7008  0.2979  0.0839
  677MOL0     C93353   8.238   6.935   2.724  0.0309 -0.6738 -0.0419
  677MOL0     C93354   8.087   6.117   2.679 -0.3612 -0.5823 -0.3354
  677MOL0     C93355   8.177   6.013   2.703  0.6977 -0.5529  0.2960
  677MOL0     C93356   8.187   5.916   2.583 -0.0368 -0.3526  0.3709
  677MOL0     H93357   8.648   5.733   2.862  3.9061 -1.0701  1.1931
  677MOL0     H93358   8.731   5.527   2.916 -1.9260 -1.1181 -3.9557
  677MOL0     H93359   8.695   5.185   3.063  0.4844  1.2728  0.5146
  677MOL0     H93360   8.687   5.312   2.946 -0.3973 -0.1674 -1.0658
  677MOL0     H93361   8.463   5.138   3.078 -1.0300  0.2641 -0.4756
  677MOL0     H93362   8.422   5.307   3.024  1.7627  1.6215 -1.5244
  677MOL0     H93363   8.362   5.163   2.859 -0.1958 -1.9250  2.0434
  677MOL0     H93364   8.479   5.289   2.813  2.8904  1.9656  3.4119
  677MOL0     H93365   8.672   5.129   2.825  1.3172 -2.1563  1.1799
  677MOL0     H93366   8.565   4.998   2.884  1.5652 -0.8581  0.0954
  677MOL0     H93367   8.570   5.122   2.602  1.3887  0.8270  0.1403
  677MOL0     H93368   8.451   5.003   2.651 -0.7455  1.4752  1.6248
  677MOL0     H93369   8.752   4.939   2.663  1.8255 -0.2185 -0.7690
  677MOL0     H93370   8.621   4.834   2.712 -0.1310  0.9345 -0.2738
  677MOL0     H93371   8.714   4.796   2.468 -0.4771 -0.5199 -0.2096
  677MOL0     H93372   8.673   4.958   2.438  2.0914  0.9757  2.5296
  677MOL0     H93373   8.502   4.705   2.489  1.3901 -0.0439  0.0300
  677MOL0     H93374   8.419   4.859   2.467 -0.8587 -2.6587  1.1871
  677MOL0     H93375   8.436   4.992   2.215 -1.6598 -0.6154  0.3780
  677MOL0     H93376   8.480   5.008   1.949 -0.0993  0.7182  1.0338
  677MOL0     H93377   8.401   4.858   1.895  1.3409  0.0750 -2.0740
  677MOL0     H93378   8.701   4.923   1.879  0.6426 -1.3830  0.4987
  677MOL0     H93379   8.631   4.760   1.856  2.5079  1.2657  0.7685
  677MOL0     H93380   8.566   5.018   1.706 -1.0101  0.0204  0.7068
  677MOL0     H93381   8.701   4.911   1.650 -2.2236  0.0194 -3.5270
  677MOL0     H93382   8.560   4.722   1.618  0.7009 -0.1904 -1.2789
  677MOL0     H93383   8.422   4.826   1.678 -0.0316  0.7114  1.4768
  677MOL0     H93384   8.573   4.645   1.354  0.9775 -1.5431 -1.6713
  677MOL0     H93385   8.830   4.585   1.115  0.1721 -1.5667 -0.6371
  677MOL0     H93386   8.703   4.519   1.221 -0.7807  2.3675  0.2343
  677MOL0     H93387   8.876   4.531   1.269 -0.0862 -1.7165 -1.2455
  677MOL0     H93388   9.192   4.806   1.425 -1.6838  0.2934 -1.2849
  677MOL0     H93389   9.419   4.841   1.500 -1.2343  1.3500  1.0708
  677MOL0     H93390   9.664   4.950   1.211  0.9146 -1.7251  0.5261
  677MOL0     H93391   9.675   5.115   1.243 -0.3161  3.2780  4.8550
  677MOL0     H93392   9.834   4.887   1.356  1.2927  0.3911 -0.1930
  677MOL0     H93393   9.887   5.018   1.262 -1.1828  0.7338 -0.9526
  677MOL0     H93394   9.817   5.043   1.569  1.9646 -0.3714  0.6212
  677MOL0     H93395   9.847   5.174   1.457  1.8228 -0.7973 -0.2641
  677MOL0     H93396  10.064   5.089   1.410 -0.6561  2.0463 -0.0452
  677MOL0     H93397  10.045   4.950   1.510  1.0108  0.0450 -1.4622
  677MOL0     H93398  10.040   5.248   1.571 -1.1806  0.4203  1.8300
  677MOL0     H93399  10.002   5.130   1.700  3.2784 -4.6461  1.8172
  677MOL0     H93400  10.283   5.127   1.560  1.0048 -4.1601  1.7217
  677MOL0     H93401  10.226   5.031   1.681  1.5421 -0.3476 -2.1551
  677MOL0     H93402  10.349   5.208   1.782 -0.4964  1.1851  0.6191
  677MOL0     H93403  10.181   5.207   1.835  0.4013  0.7986  1.3111
  677MOL0     H93404  10.227   5.456   1.798  2.8612  1.8213 -1.0163
  677MOL0     H93405  10.163   5.391   1.639  0.6976 -2.6618 -1.9677
  677MOL0     H93406   9.444   5.168   1.230  3.4162 -2.6542 -1.5474
  677MOL0     H93407   9.218   5.112   1.135  1.6856 -0.9401 -1.4659
  677MOL0     H93408   8.883   5.023   1.325  1.3847 -1.7878 -1.5262
  677MOL0     H93409   8.662   5.048   1.443  0.0035 -0.0870  1.1306
  677MOL0     H93410   8.469   5.512   3.260 -1.3929 -1.2748 -0.8995
  677MOL0     H93411   8.367   5.733   3.190  0.0221 -0.5979  1.4651
  677MOL0     H93412   8.240   6.065   3.031  0.7007 -3.7570 -0.5910
  677MOL0     H93413   8.094   6.243   2.990 -1.3171  0.7363 -1.0540
  677MOL0     H93414   8.069   6.374   2.585  1.2006  1.1751  2.4659
  677MOL0     H93415   7.896   6.335   2.573 -1.2637 -0.0708  0.2625
  677MOL0     H93416   7.865   6.557   2.700 -0.1436 -0.8856  0.8719
  677MOL0     H93417   7.922   6.570   2.539 -1.5251 -0.9278  0.6737
  677MOL0     H93418   8.100   6.566   2.787 -2.9114 -1.7167 -0.1805
  677MOL0     H93419   8.151   6.618   2.626 -1.2790  1.3141 -1.4342
  677MOL0     H93420   7.954   6.761   2.804 -1.4482  0.9142 -0.7163
  677MOL0     H93421   7.968   6.790   2.626  2.2151  3.0438 -1.4680
  677MOL0     H93422   8.315   7.009   2.735  1.0571 -2.0074  2.4779
  677MOL0     H93423   8.042   6.148   2.585  1.0410  0.2015 -0.7706
  677MOL0     H93424   8.146   5.818   2.610 -1.1250 -0.0804 -0.2062
  677MOL0     H93425   8.131   5.948   2.494  0.5838  0.5476  0.2940
  677MOL0     H93426   8.292   5.907   2.552 -0.3523  0.1159 -0.9307
  678MOL0     O93427   0.234   8.960   3.532  0.0452  0.0865  0.7392
  678MOL0     C93428   0.144   9.048   3.511  0.1067  0.6778  0.3780
  678MOL0     O93429   0.153   9.178   3.549  0.2206  0.0188  0.4338
  678MOL0     C93430   0.267   9.233   3.599 -0.0310 -0.0334  0.5349
  678MOL0     C93431   0.360   9.158   3.683 -0.2107  0.0015  0.2266
  678MOL0     C93432   0.471   9.229   3.727  0.3028 -0.1525 -0.1688
  678MOL0     C93433   0.504   9.359   3.695  0.2344  0.4614 -0.1200
  678MOL0     O93434   0.623   9.426   3.742  0.2625 -0.5745 -0.5376
  678MOL0     C93435   0.708   9.495   3.649 -0.1625  1.0142 -1.0937
  678MOL0     C93436   0.799   9.565   3.752 -1.0825 -0.5407  0.2736
  678MOL0     C93437   0.896   9.478   3.828 -0.8422 -0.1800 -1.3557
  678MOL0     C93438   1.013   9.446   3.748 -0.5828  0.1118 -0.2821
  678MOL0     C93439   1.106   9.343   3.812  0.3022 -0.1516  0.9050
  678MOL0     C93440   1.205   9.301   3.705 -0.1136 -0.0321 -0.0529
  678MOL0     C93441   1.164   9.161   3.661  0.8295 -0.2404 -0.7926
  678MOL0     C93442   1.242   9.114   3.547  0.0752  0.9812  0.2877
  678MOL0     N93443   1.195   8.985   3.497  0.1235 -0.4228  0.3456
  678MOL0     C93444   1.060   8.939   3.474  0.6911 -0.3820 -0.2842
  678MOL0     C93445   1.059   8.823   3.397 -0.6047 -0.1797 -0.6417
  678MOL0     C93446   0.933   8.752   3.339  0.2230  0.3746  0.5140
  678MOL0     C93447   0.938   8.599   3.345  0.0864  0.1667  0.3146
  678MOL0     C93448   0.852   8.525   3.232 -0.2169  0.7221  0.0775
  678MOL0     C93449   0.862   8.370   3.251 -0.1718  0.4716 -0.2371
  678MOL0     O93450   0.997   8.350   3.224 -0.1482 -0.0971  0.4436
  678MOL0     C93451   1.063   8.247   3.283 -0.2580  0.1231  0.4834
  678MOL0     C93452   1.192   8.271   3.329 -0.4110  0.4174 -0.3017
  678MOL0     C93453   1.263   8.167   3.381 -0.2618  0.6240 -0.1911
  678MOL0     C93454   1.399   8.205   3.440  0.7249 -0.2377 -0.2209
  678MOL0     C93455   1.208   8.027   3.381 -0.2823  1.0344  0.3364
  678MOL0     C93456   1.268   7.910   3.446  0.3242  0.2893  0.5064
  678MOL0     O93457   1.189   7.802   3.445  0.0400 -0.0599 -0.0846
  678MOL0     C93458   1.211   7.689   3.530 -0.0777 -0.3056  0.1786
  678MOL0     C93459   1.182   7.701   3.670  0.4881 -0.2822  0.5854
  678MOL0     C93460   1.197   7.590   3.760  0.1419  0.4036 -0.1850
  678MOL0     C93461   1.224   7.465   3.708 -0.1736 -0.1940 -0.4190
  678MOL0     O93462   1.236   7.364   3.796 -0.2908 -0.7907 -0.6609
  678MOL0     C93463   1.322   7.254   3.760 -0.8454  0.1160  0.5522
  678MOL0     C93464   1.316   7.142   3.865  0.5502  0.5042  0.1003
  678MOL0     C93465   1.175   7.067   3.870 -0.0169 -0.0314 -0.0244
  678MOL0     C93466   1.153   7.012   4.002  0.0694  0.2844 -0.7918
  678MOL0     C93467   1.011   6.935   4.005 -0.0633 -0.5447 -0.4585
  678MOL0     C93468   0.997   6.850   4.123  0.2474  0.3940 -0.0091
  678MOL0     C93469   0.873   6.761   4.110  0.3939  0.4970 -0.4424
  678MOL0     C93470   0.814   6.705   4.246  0.2318 -0.7218  0.0708
  678MOL0    Cl93471   0.954   6.621   4.328  0.3774 -0.2966  0.0364
  678MOL0     C93472   1.239   7.450   3.570 -1.1320 -0.8638 -0.1029
  678MOL0     C93473   1.235   7.559   3.476 -0.2031  0.7787 -0.1755
  678MOL0     O93474   1.380   7.917   3.505  0.8788  0.4471 -0.5602
  678MOL0     C93475   1.097   8.009   3.306 -0.0858 -1.1010  0.5918
  678MOL0     C93476   1.016   8.114   3.260 -0.7634 -0.6158  0.3019
  678MOL0     N93477   1.199   8.803   3.380 -0.1670 -0.7327  0.8167
  678MOL0     N93478   1.278   8.897   3.438 -0.8019  0.3678 -0.4367
  678MOL0     C93479   0.417   9.434   3.616  0.7966  0.6108  0.4288
  678MOL0     C93480   0.298   9.373   3.579 -0.3990 -0.8452  0.1312
  678MOL0     C93481   0.006   9.000   3.464  1.4408 -0.1795  0.9651
  678MOL0     C93482  -0.109   9.063   3.522 -0.2777  0.5210 -0.2542
  678MOL0     C93483  -0.237   9.044   3.473 -0.1556 -0.6790 -0.3429
  678MOL0     C93484  -0.256   8.950   3.377 -0.5735 -0.0425  0.4970
  678MOL0     O93485  -0.378   8.931   3.326 -0.1208  0.7815  0.2174
  678MOL0     C93486  -0.426   8.797   3.301  0.1367 -0.8071  0.1290
  678MOL0     C93487  -0.579   8.809   3.270  0.4283 -0.5310  0.5840
  678MOL0     C93488  -0.626   8.893   3.161 -0.8754 -0.7875  0.2973
  678MOL0     C93489  -0.624   8.814   3.030 -0.2829 -0.6530 -0.8400
  678MOL0     C93490  -0.736   8.866   2.950  0.1432 -0.7333 -0.0922
  678MOL0     C93491  -0.823   8.916   2.884  0.3015  0.6779  0.9237
  678MOL0     C93492  -0.149   8.888   3.319  0.3652  1.6065 -0.6203
  678MOL0     C93493  -0.020   8.911   3.358 -0.1559 -0.3834  0.0438
  678MOL0     C93494   0.094   8.826   3.295  0.4145  0.6489 -0.4758
  678MOL0     H93495   0.365   9.056   3.719  4.3798 -0.0094  0.1451
  678MOL0     H93496   0.529   9.186   3.808 -0.7143 -1.2043  0.0290
  678MOL0     H93497   0.658   9.572   3.590 -0.6119  1.4523 -0.1633
  678MOL0     H93498   0.768   9.426   3.589  0.7148  0.7982 -0.0097
  678MOL0     H93499   0.845   9.638   3.685 -0.9900 -0.5063  0.3726
  678MOL0     H93500   0.753   9.626   3.830  1.8931  0.3880  1.4558
  678MOL0     H93501   0.937   9.532   3.914 -2.3879  2.4160 -2.1096
  678MOL0     H93502   0.849   9.389   3.870  1.1330 -0.8607 -0.4502
  678MOL0     H93503   0.976   9.398   3.657 -2.7163  4.0888 -1.7628
  678MOL0     H93504   1.075   9.530   3.715 -0.6250 -0.7193 -2.6816
  678MOL0     H93505   1.042   9.262   3.850 -1.2332 -0.5246 -2.1899
  678MOL0     H93506   1.153   9.393   3.898  0.7017  1.4158 -0.1815
  678MOL0     H93507   1.202   9.360   3.613 -0.2975  1.4702  0.8760
  678MOL0     H93508   1.304   9.292   3.748 -0.3578  0.3663  0.6050
  678MOL0     H93509   1.066   9.168   3.613  0.5399 -4.0495 -1.0858
  678MOL0     H93510   1.170   9.079   3.734 -1.1907 -0.6115 -0.9960
  678MOL0     H93511   1.245   9.176   3.457 -1.2716 -1.6869 -1.7630
  678MOL0     H93512   1.344   9.088   3.575 -0.4699  0.1427  1.5649
  678MOL0     H93513   0.976   9.001   3.504  0.3391 -0.2964 -1.3993
  678MOL0     H93514   0.921   8.792   3.238  2.0077  3.2044  1.3045
  678MOL0     H93515   0.850   8.787   3.401  0.6175 -0.4873  1.5495
  678MOL0     H93516   1.038   8.570   3.314 -0.2228  1.5945 -2.3433
  678MOL0     H93517   0.921   8.567   3.448  0.5719  1.3540  0.7855
  678MOL0     H93518   0.749   8.558   3.247  0.0145  0.7843  1.7519
  678MOL0     H93519   0.880   8.558   3.132 -1.2888 -1.0458 -0.8548
  678MOL0     H93520   0.823   8.330   3.345 -2.5307 -1.1373 -1.7806
  678MOL0     H93521   0.809   8.304   3.182 -0.2123 -3.2647  3.0517
  678MOL0     H93522   1.231   8.372   3.328 -0.8724  0.6378  1.1728
  678MOL0     H93523   1.413   8.164   3.540 -0.9429 -0.3644 -0.0081
  678MOL0     H93524   1.411   8.313   3.446  0.2452 -0.2613  1.6789
  678MOL0     H93525   1.474   8.156   3.377  0.7819 -1.3526  0.6788
  678MOL0     H93526   1.171   7.799   3.717  2.9970  1.4627 -2.0778
  678MOL0     H93527   1.195   7.603   3.868 -0.1079  0.4128 -0.1885
  678MOL0     H93528   1.304   7.211   3.662  0.8595 -1.0865  0.7214
  678MOL0     H93529   1.427   7.283   3.749 -0.8108 -0.6832 -1.5419
  678MOL0     H93530   1.402   7.078   3.842 -1.4489 -2.2245 -0.2845
  678MOL0     H93531   1.336   7.184   3.964 -0.6876 -0.2464  0.6927
  678MOL0     H93532   1.162   6.984   3.800  0.5109 -0.6141  0.5474
  678MOL0     H93533   1.101   7.146   3.855 -0.8442 -0.9928 -1.2055
  678MOL0     H93534   1.158   7.088   4.081 -0.1650  0.3112 -0.8016
  678MOL0     H93535   1.231   6.937   4.020 -0.3034 -0.0514 -0.5736
  678MOL0     H93536   0.931   7.009   4.013 -0.0686 -0.6150  0.2234
  678MOL0     H93537   1.008   6.883   3.908 -0.0858 -2.5207  0.5492
  678MOL0     H93538   0.989   6.920   4.207  1.9610  0.9888 -0.2915
  678MOL0     H93539   1.087   6.790   4.135 -0.6455 -0.4549  3.7767
  678MOL0     H93540   0.908   6.681   4.045 -0.0254 -1.2442  1.3570
  678MOL0     H93541   0.798   6.821   4.057 -0.2253 -0.0982 -0.2615
  678MOL0     H93542   0.731   6.641   4.214 -0.1222  0.5395 -1.6628
  678MOL0     H93543   0.768   6.788   4.299 -2.7927 -2.2755  0.1362
  678MOL0     H93544   1.264   7.354   3.526  0.8215  0.8536 -3.1559
  678MOL0     H93545   1.249   7.543   3.369 -0.4781 -0.0492 -0.0966
  678MOL0     H93546   1.073   7.906   3.280  0.6120 -1.0450 -0.3034
  678MOL0     H93547   0.923   8.098   3.207  0.4054 -1.0363 -1.6879
  678MOL0     H93548   0.412   9.541   3.595 -2.8367  0.3108 -1.0028
  678MOL0     H93549   0.221   9.432   3.529  0.3869  0.2275  0.1521
  678MOL0     H93550  -0.102   9.138   3.600 -1.8002  3.3141 -2.5770
  678MOL0     H93551  -0.318   9.100   3.519  1.1358  1.1769 -0.2021
  678MOL0     H93552  -0.394   8.752   3.206  0.7483  1.6202 -0.8778
  678MOL0     H93553  -0.423   8.729   3.386 -1.0395 -1.7810 -0.5593
  678MOL0     H93554  -0.629   8.854   3.356  0.3897 -1.3449  1.0025
  678MOL0     H93555  -0.623   8.710   3.254 -0.2353 -0.2900  0.8883
  678MOL0     H93556  -0.729   8.922   3.184  0.2933  1.4058  3.4624
  678MOL0     H93557  -0.572   8.988   3.151 -0.7730 -0.9371 -0.6524
  678MOL0     H93558  -0.643   8.706   3.038 -0.1805 -0.6689 -0.8105
  678MOL0     H93559  -0.528   8.821   2.977 -0.6936 -0.3806 -1.5511
  678MOL0     H93560  -0.894   8.956   2.814  0.1096  1.4887  1.5699
  678MOL0     H93561  -0.166   8.815   3.240  0.7362  1.7163 -0.8070
  678MOL0     H93562   0.055   8.733   3.252 -0.5742  0.4932  0.6816
  678MOL0     H93563   0.152   8.883   3.222 -1.0700  3.1121  0.1682
  678MOL0     H93564   0.158   8.784   3.373 -1.3111 -1.8488 -0.2799
  679MOL0     O93565   7.787   5.796   3.563 -0.0104 -0.1162  0.4409
  679MOL0     C93566   7.726   5.780   3.460  0.0461  1.3634 -0.1397
  679MOL0     O93567   7.776   5.806   3.342  0.4631  0.0644 -0.6890
  679MOL0     C93568   7.904   5.853   3.333  0.4430  0.5462 -0.1261
  679MOL0     C93569   8.021   5.778   3.343  0.8575  0.2533 -0.3661
  679MOL0     C93570   8.145   5.830   3.360 -0.1837  0.0819 -0.5758
  679MOL0     C93571   8.168   5.969   3.353  0.4077  0.6401 -0.5579
  679MOL0     O93572   8.297   6.010   3.352 -0.3610  0.0078  0.5818
  679MOL0     C93573   8.319   6.148   3.336 -0.0103  0.2225  0.4706
  679MOL0     C93574   8.464   6.182   3.305 -0.1668 -0.4723  0.1202
  679MOL0     C93575   8.484   6.174   3.157 -0.0247  0.1697  0.2502
  679MOL0     C93576   8.438   6.309   3.095 -0.0352 -0.6882  0.0483
  679MOL0     C93577   8.467   6.307   2.942  0.0452 -1.2046 -0.7230
  679MOL0     C93578   8.413   6.438   2.875 -0.2452  0.4304 -0.4991
  679MOL0     C93579   8.497   6.560   2.884 -0.5092 -0.3290 -0.3058
  679MOL0     C93580   8.435   6.679   2.818  0.3616 -0.2173 -0.0239
  679MOL0     N93581   8.543   6.775   2.800  1.3461 -0.3681  0.3237
  679MOL0     C93582   8.563   6.880   2.888 -0.4672  0.0231 -1.1529
  679MOL0     C93583   8.659   6.950   2.823  0.1701 -0.3821 -0.1684
  679MOL0     C93584   8.718   7.093   2.858 -0.4071  0.0613  0.1847
  679MOL0     C93585   8.630   7.202   2.798  0.6108  0.8273 -0.5602
  679MOL0     C93586   8.674   7.352   2.826  0.8113  0.1182 -0.1431
  679MOL0     C93587   8.577   7.460   2.771  0.3196 -0.1516  0.4928
  679MOL0     O93588   8.449   7.439   2.823 -0.6445 -0.2384  0.0785
  679MOL0     C93589   8.345   7.487   2.752 -0.2438  0.0960 -0.1347
  679MOL0     C93590   8.348   7.588   2.661  0.5089  0.0138  0.2132
  679MOL0     C93591   8.227   7.628   2.600 -0.1873  0.1739 -0.3024
  679MOL0     C93592   8.241   7.731   2.490 -0.4279  0.3572 -0.9877
  679MOL0     C93593   8.098   7.586   2.640  0.2424 -0.0319  0.2664
  679MOL0     C93594   7.959   7.621   2.587 -0.8239 -0.0511  0.9095
  679MOL0     O93595   7.864   7.530   2.601 -0.0475  0.2943 -0.0392
  679MOL0     C93596   7.738   7.532   2.561  0.5559 -0.0170 -0.0299
  679MOL0     C93597   7.666   7.408   2.587  1.0330 -0.4916 -0.2808
  679MOL0     C93598   7.533   7.396   2.543 -0.1325  0.0209 -0.0812
  679MOL0     C93599   7.468   7.494   2.476 -0.4184 -0.1433 -0.3894
  679MOL0     O93600   7.334   7.487   2.461 -0.4358  0.1954  0.2696
  679MOL0     C93601   7.262   7.615   2.468  0.0535 -0.1134  0.0556
  679MOL0     C93602   7.112   7.605   2.447  0.2820  1.0559  0.3984
  679MOL0     C93603   7.066   7.524   2.327 -0.6103  0.1388 -0.0169
  679MOL0     C93604   6.939   7.586   2.276  0.9195  0.2219 -0.1171
  679MOL0     C93605   6.866   7.503   2.164 -0.8196  0.9798  0.5170
  679MOL0     C93606   6.728   7.574   2.141 -0.3122 -0.2254 -0.2628
  679MOL0     C93607   6.652   7.504   2.032  0.3115  0.5382  0.3707
  679MOL0     C93608   6.523   7.587   2.002 -0.7939 -0.1393  0.6067
  679MOL0    Cl93609   6.414   7.487   1.887  0.1818 -0.5095 -0.3127
  679MOL0     C93610   7.535   7.606   2.451 -0.1049 -0.2274  0.1474
  679MOL0     C93611   7.671   7.623   2.478  1.0922 -0.4603 -0.5341
  679MOL0     O93612   7.945   7.719   2.516 -0.0176 -0.1169 -0.4494
  679MOL0     C93613   8.102   7.488   2.750 -0.3070  0.4475 -0.3440
  679MOL0     C93614   8.223   7.433   2.795 -0.6618 -0.0930 -0.4459
  679MOL0     N93615   8.701   6.888   2.715  0.1947  0.7139  0.1737
  679MOL0     N93616   8.639   6.778   2.704 -0.4508 -0.2493 -0.8589
  679MOL0     C93617   8.050   6.053   3.349 -0.4023 -0.4403 -0.5664
  679MOL0     C93618   7.929   5.995   3.339 -0.1502  0.7934  0.7090
  679MOL0     C93619   7.583   5.733   3.455 -1.0575  0.3086 -0.6733
  679MOL0     C93620   7.509   5.792   3.345  0.5473  0.8911  0.3913
  679MOL0     C93621   7.369   5.763   3.334  0.3787 -0.3826  0.2646
  679MOL0     C93622   7.304   5.677   3.429  0.1173 -0.0393  0.0676
  679MOL0     O93623   7.168   5.664   3.407 -0.3128 -0.3953 -0.0351
  679MOL0     C93624   7.096   5.566   3.475 -0.1782  0.3393 -0.3792
  679MOL0     C93625   6.964   5.556   3.399 -0.1479 -0.6696  0.6882
  679MOL0     C93626   6.890   5.691   3.386 -0.1713  1.1519 -0.1886
  679MOL0     C93627   6.739   5.675   3.379  0.3194 -0.5191  0.1894
  679MOL0     C93628   6.700   5.620   3.510 -0.2373 -0.5592  0.4279
  679MOL0     C93629   6.688   5.568   3.621  1.1378 -0.3668 -0.1471
  679MOL0     C93630   7.379   5.620   3.537  0.2497 -0.0705  0.8087
  679MOL0     C93631   7.519   5.640   3.539 -0.1586 -0.3941  0.4944
  679MOL0     C93632   7.593   5.580   3.656  1.1055 -0.8248  0.1786
  679MOL0     H93633   8.011   5.670   3.351  0.0582  0.2502 -1.3287
  679MOL0     H93634   8.232   5.769   3.381 -1.9793 -1.8335  1.9282
  679MOL0     H93635   8.274   6.201   3.420  2.0934  2.6955  0.1305
  679MOL0     H93636   8.261   6.174   3.246  1.7121 -2.3169 -1.5110
  679MOL0     H93637   8.489   6.282   3.341 -1.7769 -0.6414  1.8626
  679MOL0     H93638   8.519   6.105   3.360 -2.2796 -0.1592  2.9056
  679MOL0     H93639   8.590   6.161   3.136 -0.3493  1.9688 -3.1174
  679MOL0     H93640   8.437   6.088   3.108 -3.0431  1.6004  0.4321
  679MOL0     H93641   8.334   6.322   3.126  0.6967  1.2398  1.8963
  679MOL0     H93642   8.498   6.386   3.144  0.7483 -1.6228  0.5971
  679MOL0     H93643   8.423   6.216   2.899  0.9242 -1.9539 -0.0650
  679MOL0     H93644   8.574   6.301   2.922  0.6494 -1.0275  2.1401
  679MOL0     H93645   8.388   6.400   2.776 -1.1974 -0.1758 -0.0408
  679MOL0     H93646   8.314   6.454   2.918 -0.2314 -2.5386  0.8987
  679MOL0     H93647   8.599   6.532   2.854 -1.5130 -3.5787 -1.1344
  679MOL0     H93648   8.505   6.580   2.991  2.1686  1.6581 -0.7824
  679MOL0     H93649   8.375   6.655   2.730 -0.0597 -0.0596  0.2118
  679MOL0     H93650   8.365   6.727   2.887  1.1586  4.3362 -2.0322
  679MOL0     H93651   8.508   6.901   2.979  4.4348  1.3026  1.8971
  679MOL0     H93652   8.820   7.119   2.827 -0.0955 -1.0970  0.1831
  679MOL0     H93653   8.719   7.106   2.966  1.5968  1.4168  0.0592
  679MOL0     H93654   8.613   7.190   2.691 -1.5043  1.9606 -0.3990
  679MOL0     H93655   8.533   7.179   2.842  1.0338 -4.2735 -1.6741
  679MOL0     H93656   8.690   7.362   2.933  0.5373  0.5045 -0.1321
  679MOL0     H93657   8.777   7.367   2.792  0.6573  0.2156 -0.5826
  679MOL0     H93658   8.612   7.563   2.786 -0.9996  0.0918  2.1006
  679MOL0     H93659   8.587   7.456   2.662 -0.4959  3.0196  0.2182
  679MOL0     H93660   8.440   7.635   2.629 -0.1166  0.6777 -0.6728
  679MOL0     H93661   8.186   7.686   2.406  1.1376  0.4517 -2.1127
  679MOL0     H93662   8.341   7.736   2.446 -0.2530 -3.0510 -1.2429
  679MOL0     H93663   8.202   7.831   2.511 -0.4367  0.3797 -1.1058
  679MOL0     H93664   7.711   7.326   2.641  2.5620  1.6851  2.0009
  679MOL0     H93665   7.477   7.305   2.562 -0.3309 -0.0183 -0.8126
  679MOL0     H93666   7.287   7.653   2.568  0.1026 -0.6072  0.2334
  679MOL0     H93667   7.287   7.688   2.390 -1.3447 -0.0643 -0.3690
  679MOL0     H93668   7.065   7.564   2.537 -2.3882  0.8118 -1.0057
  679MOL0     H93669   7.062   7.701   2.434  0.3049  0.9410 -0.6482
  679MOL0     H93670   7.060   7.418   2.353  0.1706  0.0347 -0.2377
  679MOL0     H93671   7.131   7.530   2.239 -3.1790  2.9967 -1.9321
  679MOL0     H93672   6.950   7.684   2.229 -1.9365  0.3490 -0.6990
  679MOL0     H93673   6.875   7.594   2.365  0.7747 -0.8380 -0.1188
  679MOL0     H93674   6.923   7.486   2.072 -0.1077  0.2851  1.0764
  679MOL0     H93675   6.849   7.402   2.202  0.2098  0.0683 -1.2960
  679MOL0     H93676   6.744   7.681   2.129  0.1516 -0.3019 -0.3303
  679MOL0     H93677   6.675   7.567   2.237 -0.1334  1.6998  0.0116
  679MOL0     H93678   6.629   7.402   2.064  0.7837 -0.2435 -1.6035
  679MOL0     H93679   6.714   7.505   1.941 -1.4887  0.4731 -0.8999
  679MOL0     H93680   6.546   7.676   1.944 -4.6246  0.1498 -0.7406
  679MOL0     H93681   6.473   7.617   2.095  1.1342  0.2274  1.5790
  679MOL0     H93682   7.499   7.685   2.387  0.0681 -2.1685 -2.5369
  679MOL0     H93683   7.718   7.711   2.434 -3.0722  0.6246 -3.4508
  679MOL0     H93684   8.005   7.460   2.791 -0.6903 -0.8243 -1.9911
  679MOL0     H93685   8.218   7.375   2.887  0.3517 -0.0254 -0.3374
  679MOL0     H93686   8.039   6.160   3.358 -0.6758 -0.2900 -2.3842
  679MOL0     H93687   7.844   6.063   3.339 -0.3214  0.5868  0.1290
  679MOL0     H93688   7.543   5.863   3.272  1.6390  1.3337  1.3032
  679MOL0     H93689   7.310   5.809   3.256  0.5209 -0.7847 -0.0836
  679MOL0     H93690   7.151   5.474   3.500 -0.6137  0.1494 -0.1130
  679MOL0     H93691   7.059   5.601   3.572  0.6228  1.0825 -0.3298
  679MOL0     H93692   6.902   5.481   3.449 -0.5055 -1.1363 -0.4370
  679MOL0     H93693   7.003   5.519   3.304  2.0828 -2.1653  2.0953
  679MOL0     H93694   6.912   5.738   3.482 -2.1019 -2.0498  2.0216
  679MOL0     H93695   6.923   5.747   3.297  4.4937  0.1104  0.6465
  679MOL0     H93696   6.704   5.614   3.296 -1.3689  2.1474 -1.1694
  679MOL0     H93697   6.696   5.774   3.366 -1.3093 -0.7463  3.0597
  679MOL0     H93698   6.671   5.537   3.723 -2.6286  0.7718 -0.2644
  679MOL0     H93699   7.326   5.557   3.607  0.2051  0.8362  1.6103
  679MOL0     H93700   7.700   5.574   3.632  1.8701  2.6387  2.0741
  679MOL0     H93701   7.591   5.647   3.742  1.9520 -0.1950 -0.2781
  679MOL0     H93702   7.549   5.481   3.672  1.4810 -1.3198 -1.5985
  680MOL0     O93703   8.665   6.547   6.704  0.5185 -0.0125 -0.3462
  680MOL0     C93704   8.608   6.594   6.605  0.1273  0.7810 -0.7224
  680MOL0     O93705   8.672   6.676   6.515 -0.3615 -0.1797 -0.0113
  680MOL0     C93706   8.804   6.720   6.541 -0.6203  0.5203  1.3479
  680MOL0     C93707   8.920   6.640   6.507  0.5794  0.0111 -0.8920
  680MOL0     C93708   9.046   6.690   6.533 -0.0878  0.0069 -0.6363
  680MOL0     C93709   9.064   6.822   6.597 -0.8241  0.5485  0.3330
  680MOL0     O93710   9.184   6.868   6.618 -0.3660 -0.2009  0.9045
  680MOL0     C93711   9.204   6.996   6.679 -0.1957 -0.7813  0.2596
  680MOL0     C93712   9.352   7.041   6.702 -0.2589  0.2806  0.2034
  680MOL0     C93713   9.417   7.062   6.565 -0.3069  0.2537  0.2036
  680MOL0     C93714   9.566   7.065   6.578  0.0185  0.0549  1.0513
  680MOL0     C93715   9.637   7.089   6.445  0.0633 -0.9314 -0.7970
  680MOL0     C93716   9.665   7.237   6.438 -0.6143 -0.3664 -0.3712
  680MOL0     C93717   9.662   7.271   6.284  0.4672 -0.3180 -0.8205
  680MOL0     C93718   9.798   7.226   6.211  0.2257  0.0438 -0.2323
  680MOL0     N93719   9.920   7.309   6.245 -0.3193 -0.9189  0.6503
  680MOL0     C93720  10.051   7.279   6.236  0.0099  0.6355 -0.4062
  680MOL0     C93721  10.124   7.394   6.261  0.2838  0.0687 -0.9372
  680MOL0     C93722  10.271   7.392   6.267 -0.2238 -0.7707  0.5313
  680MOL0     C93723  10.314   7.444   6.403  0.4267 -0.4840  0.0783
  680MOL0     C93724  10.471   7.430   6.419 -1.0396 -0.0694  0.5376
  680MOL0     C93725  10.516   7.286   6.432  0.1490  0.2268  0.2165
  680MOL0     O93726  10.656   7.268   6.438  0.6216  0.4173  0.3399
  680MOL0     C93727  10.733   7.330   6.340 -0.4303 -0.2909 -0.2910
  680MOL0     C93728  10.712   7.331   6.200 -0.1012 -0.2762 -0.5244
  680MOL0     C93729  10.800   7.403   6.114  0.0154 -0.8851  0.5730
  680MOL0     C93730  10.775   7.388   5.964 -0.6038  0.3404 -0.1882
  680MOL0     C93731  10.915   7.466   6.172 -0.3175  0.1931  0.0671
  680MOL0     C93732  11.014   7.531   6.085  0.3050  0.6022  0.1700
  680MOL0     O93733  11.059   7.651   6.125  0.0035  0.1794  0.3060
  680MOL0     C93734  11.138   7.733   6.051  0.0110  0.8619 -0.3229
  680MOL0     C93735  11.273   7.688   6.030 -0.0654  0.3826 -0.0749
  680MOL0     C93736  11.360   7.769   5.956 -0.1220  0.3643 -0.0331
  680MOL0     C93737  11.331   7.902   5.916 -0.6225  0.5917  0.3466
  680MOL0     O93738  11.417   7.999   5.858 -0.1762  0.1747  0.1621
  680MOL0     C93739  11.476   7.949   5.731  0.9285  0.5417  0.2245
  680MOL0     C93740  11.426   8.026   5.612  0.6054 -0.5921 -0.1086
  680MOL0     C93741  11.279   7.998   5.590  0.1437 -0.7529 -0.2335
  680MOL0     C93742  11.236   7.852   5.578 -0.5644  0.6301 -0.0288
  680MOL0     C93743  11.089   7.837   5.535  1.1945  0.4038 -0.0317
  680MOL0     C93744  10.983   7.832   5.641 -0.2860 -0.1670  0.3815
  680MOL0     C93745  10.981   7.709   5.729  0.7372  0.0149 -0.1873
  680MOL0     C93746  10.921   7.586   5.665 -0.0744  1.5055  0.5560
  680MOL0    Cl93747  10.757   7.612   5.630  0.4590  0.0691  0.4187
  680MOL0     C93748  11.195   7.939   5.941  0.0890 -0.3554 -0.1493
  680MOL0     C93749  11.097   7.857   6.013 -0.5152 -0.5628 -0.1144
  680MOL0     O93750  11.055   7.477   5.981 -0.0034  0.1894 -0.4860
  680MOL0     C93751  10.938   7.459   6.316 -0.6026 -0.5227 -1.1954
  680MOL0     C93752  10.852   7.395   6.396  0.1989 -0.0722  0.0784
  680MOL0     N93753  10.027   7.493   6.288 -0.3210 -0.2419  0.5142
  680MOL0     N93754   9.914   7.438   6.280 -0.5831 -0.4461  0.3746
  680MOL0     C93755   8.944   6.893   6.614 -0.1071 -0.5440  0.2941
  680MOL0     C93756   8.822   6.851   6.584 -0.4581 -0.1128 -0.2094
  680MOL0     C93757   8.467   6.553   6.577 -0.3355 -0.0642  0.2676
  680MOL0     C93758   8.442   6.498   6.449 -1.2628  0.4947 -0.0093
  680MOL0     C93759   8.320   6.455   6.411  0.1071  0.7979 -0.9560
  680MOL0     C93760   8.216   6.448   6.502 -0.3424  0.3822 -0.3508
  680MOL0     O93761   8.089   6.395   6.472 -0.3897  0.3013 -0.0503
  680MOL0     C93762   8.086   6.256   6.486  0.3818  0.7996 -0.6555
  680MOL0     C93763   7.968   6.207   6.582 -0.5572  0.4529  0.1698
  680MOL0     C93764   7.997   6.066   6.646  0.2843 -0.1262  0.1074
  680MOL0     C93765   7.910   6.035   6.766  0.7158 -0.2533 -0.2574
  680MOL0     C93766   7.767   6.052   6.730 -0.8588 -0.7123  0.5134
  680MOL0     C93767   7.659   6.092   6.701  0.3149 -0.2730  0.0708
  680MOL0     C93768   8.241   6.514   6.629  0.6131  0.0460 -0.1091
  680MOL0     C93769   8.369   6.562   6.664 -0.3065 -0.0022 -0.2788
  680MOL0     C93770   8.384   6.626   6.802  0.9183  0.4473 -0.0527
  680MOL0     H93771   8.905   6.543   6.459  6.2021 -1.7410  0.0609
  680MOL0     H93772   9.138   6.637   6.513  1.6496  2.2997  0.7521
  680MOL0     H93773   9.148   6.991   6.773  0.6781 -2.5945  0.7302
  680MOL0     H93774   9.158   7.083   6.630  1.8537  1.0208  1.3541
  680MOL0     H93775   9.372   7.137   6.750  0.9726  0.3041 -0.3110
  680MOL0     H93776   9.399   6.956   6.754  1.3196  0.7560 -0.3807
  680MOL0     H93777   9.388   6.980   6.498 -1.6138  0.7053  0.1953
  680MOL0     H93778   9.380   7.156   6.523  1.7837  0.5284 -1.1638
  680MOL0     H93779   9.593   7.137   6.655 -2.5887  3.3525 -0.8610
  680MOL0     H93780   9.601   6.965   6.606  1.7336  0.3192 -0.0052
  680MOL0     H93781   9.574   7.046   6.367  0.9161 -1.4031 -1.2353
  680MOL0     H93782   9.735   7.040   6.449  0.1311 -0.8390  3.2902
  680MOL0     H93783   9.593   7.299   6.493  0.3046 -0.7664  1.3469
  680MOL0     H93784   9.757   7.266   6.489 -1.4199  1.0725  0.3223
  680MOL0     H93785   9.644   7.376   6.261  1.4652  0.1918  0.5942
  680MOL0     H93786   9.578   7.221   6.236  0.6325  0.6223 -2.1637
  680MOL0     H93787   9.827   7.121   6.222 -3.7102 -1.2591 -0.7706
  680MOL0     H93788   9.777   7.241   6.104 -1.0237  1.0704  0.1378
  680MOL0     H93789  10.088   7.181   6.208 -0.2428 -0.6532  3.1773
  680MOL0     H93790  10.315   7.453   6.187 -0.0258  0.4845  1.5574
  680MOL0     H93791  10.303   7.288   6.256 -2.8547 -1.3992 -2.3771
  680MOL0     H93792  10.284   7.549   6.413 -1.2322 -0.6523 -2.1859
  680MOL0     H93793  10.256   7.392   6.479 -0.0327 -0.4908 -0.2663
  680MOL0     H93794  10.516   7.479   6.332 -1.3029  1.8462  1.4260
  680MOL0     H93795  10.504   7.491   6.503  2.1363 -1.4515  0.4298
  680MOL0     H93796  10.473   7.251   6.527  0.1536 -2.1846 -0.6104
  680MOL0     H93797  10.483   7.222   6.350  2.1889 -0.3574 -0.1929
  680MOL0     H93798  10.624   7.284   6.157 -0.7078 -1.6279  1.9998
  680MOL0     H93799  10.671   7.357   5.950 -1.0657  1.5333  0.4420
  680MOL0     H93800  10.837   7.314   5.912 -1.9350 -0.2011 -1.0646
  680MOL0     H93801  10.789   7.486   5.918  0.0785  0.8140  0.9927
  680MOL0     H93802  11.308   7.593   6.070  0.7502  0.6657 -0.0953
  680MOL0     H93803  11.462   7.733   5.949 -0.2029  0.1850 -0.3053
  680MOL0     H93804  11.583   7.944   5.750  0.6551 -1.5954  1.4908
  680MOL0     H93805  11.448   7.846   5.706 -0.9367  0.8428  0.9264
  680MOL0     H93806  11.431   8.135   5.626 -1.7407 -0.5035  0.5318
  680MOL0     H93807  11.496   7.994   5.535 -0.3140 -1.2944 -0.6778
  680MOL0     H93808  11.265   8.047   5.494 -2.3808 -0.8649  0.0181
  680MOL0     H93809  11.217   8.048   5.665  1.1487 -0.4424  0.4057
  680MOL0     H93810  11.239   7.802   5.675 -1.3845 -1.2201 -0.9125
  680MOL0     H93811  11.306   7.810   5.506  1.0362 -0.9574  2.2920
  680MOL0     H93812  11.071   7.927   5.475  1.7980 -0.7633 -2.0706
  680MOL0     H93813  11.071   7.745   5.479  0.9475 -0.7964  1.9527
  680MOL0     H93814  10.889   7.854   5.588  0.4219  1.0145 -0.4407
  680MOL0     H93815  10.999   7.918   5.708  0.4717 -1.6224  2.1520
  680MOL0     H93816  10.924   7.731   5.820 -1.2546 -3.5280 -0.3781
  680MOL0     H93817  11.082   7.679   5.760  0.7437  3.6911  4.5094
  680MOL0     H93818  10.928   7.497   5.729  0.6655  0.6852 -0.6131
  680MOL0     H93819  10.985   7.554   5.582  0.4515 -1.6175  2.0027
  680MOL0     H93820  11.145   8.030   5.910 -3.1730 -1.9757 -0.1417
  680MOL0     H93821  10.997   7.897   6.025 -0.9387 -0.7201 -2.5402
  680MOL0     H93822  11.032   7.506   6.346  0.8809 -3.5483 -0.6831
  680MOL0     H93823  10.872   7.391   6.502  0.2970  2.7992  0.2528
  680MOL0     H93824   8.959   6.991   6.660 -1.3906 -0.3481  0.3299
  680MOL0     H93825   8.732   6.912   6.587 -3.0587 -3.2417 -4.1729
  680MOL0     H93826   8.519   6.489   6.373  0.9148 -1.3606  2.2405
  680MOL0     H93827   8.306   6.427   6.307  0.3607  1.5543 -1.1966
  680MOL0     H93828   8.085   6.214   6.385  4.4723 -0.7664 -0.2014
  680MOL0     H93829   8.177   6.214   6.529  1.4055  0.8744 -2.6110
  680MOL0     H93830   7.877   6.210   6.521 -0.0065 -2.5042 -1.0008
  680MOL0     H93831   7.968   6.290   6.653  0.5438 -0.4079  1.2264
  680MOL0     H93832   7.995   5.988   6.569 -0.8224  0.0003 -0.0087
  680MOL0     H93833   8.098   6.062   6.688 -0.1477  2.0171  1.5081
  680MOL0     H93834   7.932   6.106   6.846 -1.8977  0.2506  0.1022
  680MOL0     H93835   7.914   5.935   6.812  1.9252 -0.0698  0.0847
  680MOL0     H93836   7.556   6.116   6.682 -0.7474 -2.5196  2.4245
  680MOL0     H93837   8.156   6.514   6.696 -0.4932 -0.7340 -1.4502
  680MOL0     H93838   8.426   6.726   6.793 -1.1558  1.4020  0.3307
  680MOL0     H93839   8.284   6.633   6.846  0.2783  1.5864 -1.5706
  680MOL0     H93840   8.455   6.565   6.858  0.5454 -2.0604 -2.0795
  681MOL0     O93841   7.534   0.703   4.089  0.9472  0.9683 -0.0713
  681MOL0     C93842   7.517   0.660   4.202  0.3473  0.5242  0.1368
  681MOL0     O93843   7.582   0.713   4.305 -0.1704 -0.5541  0.6259
  681MOL0     C93844   7.662   0.828   4.283 -0.1335  0.0821  0.4106
  681MOL0     C93845   7.804   0.835   4.296  0.6144  0.2886  0.9553
  681MOL0     C93846   7.878   0.948   4.274  0.3627  0.3957 -0.1451
  681MOL0     C93847   7.819   1.063   4.227 -0.7773  0.1457  0.3733
  681MOL0     O93848   7.889   1.175   4.199  0.4119  0.0216  0.2035
  681MOL0     C93849   8.033   1.174   4.189 -0.0445  0.2980  0.0022
  681MOL0     C93850   8.074   1.297   4.115 -1.1854 -0.2292  0.5080
  681MOL0     C93851   8.215   1.296   4.056 -0.2395 -0.1363 -0.3019
  681MOL0     C93852   8.254   1.421   3.970  0.2738  0.3722 -0.6531
  681MOL0     C93853   8.390   1.422   3.910 -0.3914  0.0024  0.0657
  681MOL0     C93854   8.500   1.430   4.004 -0.2523 -0.3897 -0.2647
  681MOL0     C93855   8.534   1.565   4.065  0.7026 -0.3217  0.6195
  681MOL0     C93856   8.546   1.565   4.224  0.0369 -0.6264 -0.1629
  681MOL0     N93857   8.667   1.493   4.260 -0.2087 -0.4474  0.0808
  681MOL0     C93858   8.781   1.556   4.293 -0.3612  0.0977  0.6425
  681MOL0     C93859   8.858   1.459   4.345 -0.1338  0.5330 -0.7958
  681MOL0     C93860   9.000   1.464   4.390 -0.6394 -0.4714  0.8243
  681MOL0     C93861   9.063   1.600   4.368 -0.0412 -0.2657 -1.0316
  681MOL0     C93862   9.212   1.604   4.404  0.4741 -0.6801  0.4161
  681MOL0     C93863   9.294   1.554   4.290 -0.1150  0.5957 -0.2267
  681MOL0     O93864   9.430   1.566   4.330 -0.0239 -0.9188 -0.8248
  681MOL0     C93865   9.523   1.497   4.258 -0.6984 -0.3406  0.0138
  681MOL0     C93866   9.505   1.378   4.186 -0.5583 -0.1718  0.4087
  681MOL0     C93867   9.616   1.310   4.120 -0.1890  0.2476 -0.8066
  681MOL0     C93868   9.581   1.170   4.050 -0.4236  1.0483  0.1562
  681MOL0     C93869   9.752   1.365   4.127  0.7496 -0.1729  0.5144
  681MOL0     C93870   9.871   1.306   4.053  0.3096  0.0569  0.1241
  681MOL0     O93871   9.838   1.225   3.951  0.9517 -0.2283 -0.1970
  681MOL0     C93872   9.928   1.163   3.867 -0.5413  0.4627  0.5213
  681MOL0     C93873   9.876   1.063   3.786  0.3954  1.5179 -0.3149
  681MOL0     C93874   9.953   1.002   3.693  0.1424 -0.1626  0.3262
  681MOL0     C93875  10.082   1.049   3.649  0.2338 -0.1899 -1.7377
  681MOL0     O93876  10.154   0.996   3.546  0.0742 -0.0286 -0.3625
  681MOL0     C93877  10.142   0.854   3.536 -0.3257  0.5860 -0.6138
  681MOL0     C93878  10.270   0.824   3.456  0.1206 -0.0345  0.5932
  681MOL0     C93879  10.311   0.670   3.453 -1.0117 -0.0618  0.0655
  681MOL0     C93880  10.465   0.661   3.414 -0.9205 -0.2946 -0.4557
  681MOL0     C93881  10.493   0.515   3.414  0.7071 -0.9729  0.3020
  681MOL0     C93882  10.641   0.497   3.401 -0.0486  0.3275  1.0199
  681MOL0     C93883  10.667   0.348   3.390  0.6041  0.3370 -0.3507
  681MOL0     C93884  10.811   0.302   3.360  0.0756 -0.8787  0.6991
  681MOL0    Cl93885  10.845   0.311   3.178 -0.2226  0.6187 -0.1556
  681MOL0     C93886  10.134   1.159   3.726  0.2887  0.2192  0.3534
  681MOL0     C93887  10.061   1.211   3.828 -0.2161 -0.0020 -0.8430
  681MOL0     O93888   9.983   1.347   4.086  0.0120  1.3211  0.1407
  681MOL0     C93889   9.758   1.495   4.190 -0.1187 -0.8512 -0.1091
  681MOL0     C93890   9.652   1.556   4.255  0.6518  0.8791 -0.0216
  681MOL0     N93891   8.792   1.343   4.326  0.0621  0.7970 -0.2607
  681MOL0     N93892   8.670   1.359   4.283 -0.3355  0.4583  0.0477
  681MOL0     C93893   7.679   1.064   4.217  0.5445 -0.1700 -0.7453
  681MOL0     C93894   7.598   0.952   4.258 -0.1604 -0.2298  0.5097
  681MOL0     C93895   7.400   0.574   4.235  0.1049 -0.3335 -0.5577
  681MOL0     C93896   7.402   0.505   4.354 -0.8905  0.8497  0.1790
  681MOL0     C93897   7.305   0.410   4.384  0.6055 -0.3122 -0.3144
  681MOL0     C93898   7.194   0.386   4.296  0.3752 -0.7445 -0.3419
  681MOL0     O93899   7.101   0.278   4.312 -0.0184 -0.8821 -0.0681
  681MOL0     C93900   7.106   0.210   4.437 -0.4560  0.1824 -0.1948
  681MOL0     C93901   7.011   0.101   4.439  0.1132  0.5611  0.3178
  681MOL0     C93902   6.865   0.144   4.442  0.5555  0.2345  0.2086
  681MOL0     C93903   6.779   0.018   4.452 -0.5554  0.3258 -0.8786
  681MOL0     C93904   6.638   0.058   4.438  0.1615 -0.3351 -0.5429
  681MOL0     C93905   6.520   0.077   4.422 -0.3344  0.0433 -0.2441
  681MOL0     C93906   7.196   0.453   4.177  0.0284  0.1844  0.3007
  681MOL0     C93907   7.294   0.544   4.142  0.8594 -0.4175  1.0325
  681MOL0     C93908   7.279   0.604   4.007  0.5613 -0.0139  0.2161
  681MOL0     H93909   7.848   0.737   4.310  0.2932 -0.3037 -1.6887
  681MOL0     H93910   7.984   0.941   4.299  0.9299 -1.3580 -2.6089
  681MOL0     H93911   8.065   1.085   4.134 -3.9742 -0.1353 -1.8895
  681MOL0     H93912   8.088   1.169   4.284  2.4922  0.0479 -1.3930
  681MOL0     H93913   8.005   1.305   4.030 -0.3118  1.4380 -0.0825
  681MOL0     H93914   8.059   1.392   4.168 -0.3837  1.1867 -1.6708
  681MOL0     H93915   8.281   1.298   4.143 -0.2951 -0.9238 -0.2342
  681MOL0     H93916   8.225   1.206   3.994  3.2503 -0.7909  0.9729
  681MOL0     H93917   8.186   1.430   3.885  0.4871 -0.2133 -0.8899
  681MOL0     H93918   8.247   1.503   4.042  3.7204 -1.2920  1.8756
  681MOL0     H93919   8.399   1.507   3.841  0.9083 -2.9855 -3.8097
  681MOL0     H93920   8.411   1.336   3.845  1.1399  0.3600  0.0440
  681MOL0     H93921   8.485   1.360   4.086  0.8009  1.4497  1.6125
  681MOL0     H93922   8.590   1.393   3.955 -0.4629 -2.1281  0.6026
  681MOL0     H93923   8.456   1.633   4.031  0.6064 -1.6196 -1.9948
  681MOL0     H93924   8.638   1.581   4.034  1.5083 -2.5765  1.8645
  681MOL0     H93925   8.548   1.666   4.267  1.2999 -0.8192  0.2802
  681MOL0     H93926   8.466   1.505   4.268 -0.8084  1.6952  1.6756
  681MOL0     H93927   8.817   1.659   4.299  3.7787 -1.2156  1.6499
  681MOL0     H93928   9.050   1.393   4.323  0.1609  0.1512  0.7480
  681MOL0     H93929   9.013   1.436   4.495 -2.6557  1.2624  1.6107
  681MOL0     H93930   9.040   1.621   4.263  0.0307  0.0658 -0.9817
  681MOL0     H93931   9.013   1.677   4.427 -0.5972 -1.5644  0.2642
  681MOL0     H93932   9.230   1.712   4.410  1.1981 -0.5337 -2.7716
  681MOL0     H93933   9.230   1.557   4.501 -2.8297 -3.1924  0.0147
  681MOL0     H93934   9.271   1.448   4.275 -0.4375 -0.0481  3.8182
  681MOL0     H93935   9.279   1.603   4.193 -1.1706  1.3740  0.3036
  681MOL0     H93936   9.411   1.323   4.186 -0.9855  0.4372  2.7791
  681MOL0     H93937   9.487   1.129   4.088 -0.9533  0.2720 -1.8774
  681MOL0     H93938   9.661   1.098   4.070 -1.9802 -0.8408 -0.1720
  681MOL0     H93939   9.566   1.187   3.943  1.0713  1.4822 -0.0129
  681MOL0     H93940   9.777   1.023   3.803 -0.0699  2.8795  0.3097
  681MOL0     H93941   9.908   0.912   3.652  1.5262 -2.5278  3.5516
  681MOL0     H93942  10.150   0.799   3.630  2.8811 -0.8979 -1.6287
  681MOL0     H93943  10.050   0.825   3.484  0.9159 -0.2379 -2.4695
  681MOL0     H93944  10.254   0.863   3.355  0.4693  3.1393  1.6386
  681MOL0     H93945  10.352   0.877   3.506 -0.6090  1.1330  0.5977
  681MOL0     H93946  10.244   0.616   3.386  2.4913 -1.2330 -2.8431
  681MOL0     H93947  10.310   0.622   3.551 -2.4020  2.5137  1.4174
  681MOL0     H93948  10.539   0.705   3.482  0.0330 -3.4530  0.7642
  681MOL0     H93949  10.476   0.701   3.313 -2.5824 -4.0374 -2.3256
  681MOL0     H93950  10.452   0.470   3.505  0.7443  2.2083  2.0313
  681MOL0     H93951  10.438   0.477   3.327 -1.9239  0.5953  1.1451
  681MOL0     H93952  10.698   0.529   3.489  1.0819 -1.1025  0.8437
  681MOL0     H93953  10.672   0.546   3.308  0.0400 -0.1757  0.7810
  681MOL0     H93954  10.603   0.316   3.308  0.1027  1.0862 -0.2569
  681MOL0     H93955  10.637   0.299   3.483  2.2966 -0.5014 -0.2058
  681MOL0     H93956  10.813   0.197   3.392 -0.5127 -0.7139  1.2861
  681MOL0     H93957  10.881   0.362   3.419 -0.3500 -0.6127  0.9363
  681MOL0     H93958  10.230   1.201   3.700  0.4868  0.0743  0.8408
  681MOL0     H93959  10.101   1.298   3.879 -3.2804 -0.3400  2.5163
  681MOL0     H93960   9.855   1.542   4.179  1.1206 -2.6139  2.2922
  681MOL0     H93961   9.661   1.653   4.304  1.0484  0.8885 -0.1059
  681MOL0     H93962   7.624   1.147   4.175  1.5042  0.3036 -1.0878
  681MOL0     H93963   7.492   0.952   4.280 -0.0042 -1.8245  1.3351
  681MOL0     H93964   7.480   0.499   4.429  0.6917  0.5329 -1.4378
  681MOL0     H93965   7.306   0.362   4.481 -1.7891  2.2287  1.1391
  681MOL0     H93966   7.210   0.180   4.452 -0.0551  1.9326  0.7569
  681MOL0     H93967   7.087   0.271   4.526  1.3272 -0.7388  0.8671
  681MOL0     H93968   7.027   0.039   4.528 -0.3935  1.8685  1.3586
  681MOL0     H93969   7.022   0.041   4.349 -0.6082  4.2880 -2.5269
  681MOL0     H93970   6.839   0.212   4.523  0.1762 -0.3282  0.5686
  681MOL0     H93971   6.844   0.200   4.350  3.2152  1.0754  0.0133
  681MOL0     H93972   6.799  -0.032   4.547 -3.0764  4.1969  2.0134
  681MOL0     H93973   6.793  -0.055   4.372 -0.5521  0.3432 -0.8941
  681MOL0     H93974   6.415   0.083   4.441 -0.3887  0.2700 -0.6042
  681MOL0     H93975   7.115   0.426   4.110 -0.4311  2.0496  0.0529
  681MOL0     H93976   7.293   0.713   4.007  1.3308  0.0148 -3.4087
  681MOL0     H93977   7.345   0.573   3.925  0.1393 -0.3329 -0.0055
  681MOL0     H93978   7.178   0.581   3.971 -0.5911 -0.9185  3.6687
  682MOL0     O93979   7.393   7.866   4.486  0.7205 -0.0698 -0.1197
  682MOL0     C93980   7.469   7.816   4.566  0.6951 -0.2322  0.3802
  682MOL0     O93981   7.597   7.798   4.548  0.0336  0.5684 -0.4896
  682MOL0     C93982   7.666   7.882   4.461 -0.2589  0.0357 -0.9357
  682MOL0     C93983   7.660   7.877   4.323  0.9263  0.1546  0.2717
  682MOL0     C93984   7.747   7.952   4.238  0.3619 -0.3253  0.2268
  682MOL0     C93985   7.820   8.054   4.294  0.5367 -0.2343 -0.1903
  682MOL0     O93986   7.897   8.128   4.205  0.1686  0.5386 -0.2219
  682MOL0     C93987   7.910   8.266   4.235 -0.5072 -0.1271  0.4764
  682MOL0     C93988   7.933   8.345   4.105 -0.1617  0.7162  0.3580
  682MOL0     C93989   7.958   8.502   4.117  0.6482 -0.1449 -0.2117
  682MOL0     C93990   7.902   8.572   3.992  0.4281  0.8231 -0.5352
  682MOL0     C93991   7.941   8.721   3.983 -0.3322 -0.0225  0.2583
  682MOL0     C93992   8.077   8.749   3.919  0.1259 -0.2317 -0.0982
  682MOL0     C93993   8.127   8.880   3.972  0.2288  0.1200 -0.4447
  682MOL0     C93994   8.252   8.926   3.885  0.2116  0.0131 -0.4450
  682MOL0     N93995   8.312   9.051   3.938  1.0788  0.8441  0.2188
  682MOL0     C93996   8.398   9.050   4.050 -0.4039 -0.2754  0.4485
  682MOL0     C93997   8.442   9.182   4.054 -0.1201  0.3883 -0.5241
  682MOL0     C93998   8.542   9.249   4.142  0.4206  0.4807 -0.3690
  682MOL0     C93999   8.686   9.204   4.133  0.4994  0.0892  0.5276
  682MOL0     C94000   8.755   9.231   3.999  0.4495  0.3971 -0.8182
  682MOL0     C94001   8.732   9.372   3.946  0.3270  0.4063 -0.0993
  682MOL0     O94002   8.762   9.471   4.046  0.1110 -0.1742  1.0244
  682MOL0     C94003   8.887   9.507   4.085  0.7822 -0.2670 -0.9408
  682MOL0     C94004   9.006   9.472   4.030 -0.6064 -0.4786 -0.4408
  682MOL0     C94005   9.128   9.514   4.079  0.8733 -0.7156 -0.2031
  682MOL0     C94006   9.250   9.498   3.988 -0.5272  0.3910 -0.4440
  682MOL0     C94007   9.124   9.594   4.200  0.3336  1.2089  0.6491
  682MOL0     C94008   9.242   9.646   4.275  0.6748  0.4622  0.8513
  682MOL0     O94009   9.232   9.644   4.406  0.6938  0.0521  0.0040
  682MOL0     C94010   9.330   9.724   4.469 -0.3757  0.3206 -0.6747
  682MOL0     C94011   9.333   9.862   4.456  0.2731 -0.5319  0.2529
  682MOL0     C94012   9.427   9.939   4.531  0.1505  0.5057 -0.1683
  682MOL0     C94013   9.511   9.875   4.623 -0.8141 -0.5163  0.1744
  682MOL0     O94014   9.611   9.941   4.693  0.2624  0.2696 -0.0800
  682MOL0     C94015   9.699  10.022   4.625 -0.6555 -0.4873 -0.3726
  682MOL0     C94016   9.755   9.974   4.493 -0.3934  0.7487 -0.0942
  682MOL0     C94017   9.871   9.878   4.518 -0.4808 -0.3734  0.2441
  682MOL0     C94018   9.910   9.810   4.387  0.7125 -0.2782 -0.0691
  682MOL0     C94019  10.040   9.747   4.389  0.7977 -0.6239  0.0711
  682MOL0     C94020  10.074   9.711   4.244  0.6880  0.0906 -0.3200
  682MOL0     C94021  10.204   9.631   4.237 -0.1941 -0.1447  0.3961
  682MOL0     C94022  10.230   9.550   4.104  0.1284 -0.7371  0.3096
  682MOL0    Cl94023  10.370   9.444   4.125  0.1305 -0.1030  0.3050
  682MOL0     C94024   9.506   9.736   4.643 -0.0695  0.3455  0.0821
  682MOL0     C94025   9.419   9.660   4.561  0.0649 -0.2509 -0.7482
  682MOL0     O94026   9.334   9.695   4.210  0.5251 -0.3092  0.5197
  682MOL0     C94027   9.007   9.615   4.260 -0.2609 -0.0438  0.3248
  682MOL0     C94028   8.887   9.578   4.197 -0.6067 -0.3739 -0.5867
  682MOL0     N94029   8.369   9.253   3.961 -0.6539  0.5344 -0.3057
  682MOL0     N94030   8.291   9.178   3.892  0.1923  0.3035 -0.1154
  682MOL0     C94031   7.823   8.063   4.432 -0.5572  0.3647  0.5978
  682MOL0     C94032   7.743   7.984   4.516 -0.8706  0.2908  0.3271
  682MOL0     C94033   7.405   7.776   4.697  0.2854 -0.0514 -0.5547
  682MOL0     C94034   7.486   7.741   4.806  0.1691  0.3099  0.3060
  682MOL0     C94035   7.426   7.689   4.926 -1.4498  0.1018 -0.8348
  682MOL0     C94036   7.290   7.685   4.939  0.4456  0.4844 -0.1720
  682MOL0     O94037   7.230   7.618   5.037 -0.7612 -0.0397 -0.3488
  682MOL0     C94038   7.243   7.476   5.039  1.1066  0.7136  0.7387
  682MOL0     C94039   7.109   7.402   5.024  0.6540  0.6707  0.1657
  682MOL0     C94040   6.997   7.446   5.125 -0.2718 -0.5716 -0.0127
  682MOL0     C94041   7.025   7.416   5.272 -0.0148 -0.4515  0.3370
  682MOL0     C94042   6.976   7.278   5.300 -1.3281 -0.0271 -0.2382
  682MOL0     C94043   6.913   7.175   5.317  0.2238  0.4468 -1.3422
  682MOL0     C94044   7.201   7.735   4.842 -0.8338  0.3337 -1.1173
  682MOL0     C94045   7.257   7.776   4.718 -0.0666  1.1313  0.5985
  682MOL0     C94046   7.159   7.804   4.609 -0.1128 -0.0066 -0.0981
  682MOL0     H94047   7.616   7.789   4.276  2.3494  1.3577 -3.7663
  682MOL0     H94048   7.769   7.930   4.134 -1.1616 -1.3454  0.0817
  682MOL0     H94049   7.999   8.288   4.295 -0.0896 -2.1536  0.6677
  682MOL0     H94050   7.820   8.297   4.289  0.2793 -2.3971  3.3458
  682MOL0     H94051   8.026   8.300   4.068  1.1202  0.8212  3.1696
  682MOL0     H94052   7.850   8.326   4.038 -0.2450 -0.0930  0.6795
  682MOL0     H94053   7.905   8.539   4.205 -0.8772 -0.2952 -1.0391
  682MOL0     H94054   8.061   8.536   4.133  0.5085  0.2317 -0.1066
  682MOL0     H94055   7.930   8.511   3.905  3.6955 -1.7411  2.0356
  682MOL0     H94056   7.793   8.561   3.986  0.7397 -5.7258 -4.4054
  682MOL0     H94057   7.939   8.776   4.078  3.0187 -1.0406  1.0782
  682MOL0     H94058   7.858   8.767   3.929 -0.9071 -3.5952 -2.2113
  682MOL0     H94059   8.141   8.665   3.948  0.7592  0.4963  0.6888
  682MOL0     H94060   8.070   8.762   3.811  2.4749  1.4699 -0.1199
  682MOL0     H94061   8.163   8.872   4.075  2.6661 -0.9225 -1.3072
  682MOL0     H94062   8.048   8.955   3.967  1.4469  1.3711 -5.0220
  682MOL0     H94063   8.318   8.839   3.886 -2.4187 -2.0931  0.1944
  682MOL0     H94064   8.210   8.945   3.786  1.0954 -0.8917 -1.0136
  682MOL0     H94065   8.444   8.968   4.104 -0.1769 -0.6412 -0.2779
  682MOL0     H94066   8.516   9.230   4.247  2.3794  2.0075  0.4553
  682MOL0     H94067   8.541   9.358   4.134 -3.0620  0.4359 -2.3512
  682MOL0     H94068   8.738   9.258   4.213  2.5518 -0.0861 -0.6212
  682MOL0     H94069   8.687   9.097   4.155 -2.6226  0.1683  1.4800
  682MOL0     H94070   8.863   9.216   4.010  0.5070 -0.4399 -2.1987
  682MOL0     H94071   8.726   9.151   3.930 -0.7453 -0.9256  1.1235
  682MOL0     H94072   8.780   9.393   3.850  2.2983 -3.3138 -0.0980
  682MOL0     H94073   8.628   9.397   3.924  0.3771  1.9397  1.1978
  682MOL0     H94074   8.998   9.405   3.945 -0.9491  0.4296 -1.1340
  682MOL0     H94075   9.285   9.395   3.987  2.2778  1.2451  0.0886
  682MOL0     H94076   9.340   9.552   4.020  1.7957 -4.1335  1.5709
  682MOL0     H94077   9.212   9.522   3.889 -0.8267 -0.9931 -0.6776
  682MOL0     H94078   9.269   9.921   4.391 -1.1793 -0.8297  1.3514
  682MOL0     H94079   9.416  10.047   4.531 -0.0633  0.4840 -0.2520
  682MOL0     H94080   9.645  10.115   4.608  0.5901  0.2269 -0.5148
  682MOL0     H94081   9.777  10.035   4.700 -1.5189  0.4212  0.3964
  682MOL0     H94082   9.678   9.915   4.442  0.4441 -1.4685  1.0909
  682MOL0     H94083   9.780  10.049   4.418 -0.2478 -0.7199 -1.5786
  682MOL0     H94084   9.847   9.807   4.598  0.7731 -1.9546 -0.7168
  682MOL0     H94085   9.956   9.941   4.548  0.9290 -1.6006 -0.9836
  682MOL0     H94086   9.917   9.894   4.318  2.3115 -1.8615 -1.9787
  682MOL0     H94087   9.826   9.753   4.346 -0.3898  1.7207 -0.7352
  682MOL0     H94088  10.125   9.807   4.421  1.6099 -0.4888 -2.1269
  682MOL0     H94089  10.033   9.658   4.451 -0.4104 -0.9458 -0.4944
  682MOL0     H94090  10.091   9.799   4.181  0.7692 -0.6906 -1.4141
  682MOL0     H94091   9.987   9.652   4.215 -0.3731  1.8001 -0.7865
  682MOL0     H94092  10.206   9.557   4.318 -0.8345 -0.4756  0.1157
  682MOL0     H94093  10.290   9.695   4.258 -1.8008  1.6273  1.9672
  682MOL0     H94094  10.252   9.625   4.027  1.9765 -0.6877  0.8561
  682MOL0     H94095  10.146   9.485   4.076 -1.5448  1.2270  0.5047
  682MOL0     H94096   9.582   9.683   4.700  2.7136  1.5235 -2.2231
  682MOL0     H94097   9.419   9.551   4.562  1.5912 -0.2757 -0.7619
  682MOL0     H94098   9.001   9.669   4.354 -2.0347 -1.8670  1.3206
  682MOL0     H94099   8.792   9.605   4.241 -0.6343 -1.9502  0.3982
  682MOL0     H94100   7.892   8.139   4.466 -1.3626  1.2605  0.2572
  682MOL0     H94101   7.749   7.996   4.624 -0.3754 -2.7236  0.7345
  682MOL0     H94102   7.593   7.754   4.800  0.1783 -0.1391 -0.7466
  682MOL0     H94103   7.493   7.656   5.005 -0.4355  2.1027 -0.7999
  682MOL0     H94104   7.306   7.442   4.956  1.1937  0.8355  0.7548
  682MOL0     H94105   7.294   7.442   5.129  1.0646  0.0739  0.5289
  682MOL0     H94106   7.108   7.294   5.045 -2.2803  1.0590  2.9386
  682MOL0     H94107   7.082   7.413   4.919  4.7379  3.8603 -0.8068
  682MOL0     H94108   6.971   7.551   5.111 -1.1598 -1.0539 -2.4955
  682MOL0     H94109   6.905   7.391   5.102 -0.6889  0.1857 -0.2120
  682MOL0     H94110   6.973   7.484   5.340 -0.7966 -2.3168  1.6487
  682MOL0     H94111   7.134   7.419   5.284 -0.2654 -0.4304  3.2829
  682MOL0     H94112   6.845   7.092   5.322  0.9602 -0.5018 -4.7725
  682MOL0     H94113   7.096   7.716   4.862 -0.2346 -0.4458  1.6604
  682MOL0     H94114   7.060   7.796   4.654 -0.6751  3.1204 -0.5173
  682MOL0     H94115   7.160   7.909   4.577 -0.9947  0.3127  0.8624
  682MOL0     H94116   7.179   7.735   4.527  2.0949  1.4075 -0.8607
  683MOL0     O94117   2.773  10.304   1.758  0.2222  0.3085 -0.0528
  683MOL0     C94118   2.657  10.326   1.792  0.1153 -0.4373 -0.6121
  683MOL0     O94119   2.626  10.436   1.875  0.7001  0.2922  0.4193
  683MOL0     C94120   2.723  10.528   1.911 -0.1670 -0.0967 -0.2475
  683MOL0     C94121   2.705  10.666   1.863 -0.3681  0.1823  0.6220
  683MOL0     C94122   2.811  10.757   1.872 -0.3378  0.5081  0.4082
  683MOL0     C94123   2.924  10.723   1.949 -0.5066 -0.5268 -0.0481
  683MOL0     O94124   3.030  10.811   1.977  0.1207 -0.4445  0.4075
  683MOL0     C94125   3.022  10.940   1.901  0.5896  0.1415  0.3654
  683MOL0     C94126   3.159  11.016   1.918 -0.1404  0.4066  0.2154
  683MOL0     C94127   3.176  11.122   1.807 -1.0066  0.0731  0.1091
  683MOL0     C94128   3.299  11.215   1.824  0.5581 -0.6569  0.7166
  683MOL0     C94129   3.269  11.323   1.929 -0.1190  0.7630 -0.0350
  683MOL0     C94130   3.388  11.409   1.973  0.1787 -0.7957  0.2976
  683MOL0     C94131   3.453  11.497   1.870 -1.0556 -1.0005  0.2283
  683MOL0     C94132   3.479  11.646   1.936 -0.2185  0.4900  0.5122
  683MOL0     N94133   3.591  11.636   2.029 -0.0941 -0.8789 -0.1363
  683MOL0     C94134   3.598  11.700   2.153 -0.1065 -0.3663  0.4033
  683MOL0     C94135   3.728  11.686   2.191  0.5536  0.5908  0.0524
  683MOL0     C94136   3.789  11.746   2.311  0.8893  0.4663  0.0519
  683MOL0     C94137   3.745  11.893   2.351 -0.1110  0.2008 -0.3803
  683MOL0     C94138   3.817  11.951   2.474 -0.3164  0.5344 -0.0364
  683MOL0     C94139   3.747  12.059   2.548  0.2315 -0.5515 -0.7531
  683MOL0     O94140   3.729  12.172   2.465 -0.1714  0.4735 -0.2298
  683MOL0     C94141   3.827  12.268   2.470  1.0111 -0.5748 -0.0521
  683MOL0     C94142   3.789  12.391   2.424 -0.5251 -0.4353  0.0217
  683MOL0     C94143   3.868  12.510   2.433  0.0295  1.0442 -0.1153
  683MOL0     C94144   3.792  12.630   2.386 -0.0550 -0.0635  0.3119
  683MOL0     C94145   4.002  12.497   2.488  1.6994 -0.3450  0.0538
  683MOL0     C94146   4.084  12.620   2.525 -0.0490  0.0347 -0.0797
  683MOL0     O94147   4.192  12.593   2.604  0.6556 -0.8744  0.4052
  683MOL0     C94148   4.262  12.698   2.652 -0.0048  0.0052  0.5345
  683MOL0     C94149   4.313  12.801   2.571  0.1361 -0.6104 -0.3059
  683MOL0     C94150   4.399  12.892   2.631 -0.4645 -0.4689 -0.5210
  683MOL0     C94151   4.428  12.893   2.778 -0.7218 -0.2979 -0.0516
  683MOL0     O94152   4.510  12.984   2.845 -0.6860  0.0247  0.5379
  683MOL0     C94153   4.654  12.972   2.817  0.0609  0.9766 -0.2886
  683MOL0     C94154   4.713  13.108   2.844 -0.0324  0.4401  0.4343
  683MOL0     C94155   4.856  13.113   2.811  0.2360 -1.1477 -0.2646
  683MOL0     C94156   4.913  13.260   2.829 -0.0091  0.5631  0.4526
  683MOL0     C94157   5.064  13.246   2.828 -0.9742 -0.9592 -1.2789
  683MOL0     C94158   5.150  13.371   2.832 -0.9832 -1.0075  0.0825
  683MOL0     C94159   5.173  13.431   2.966 -0.7607  0.9166 -0.2367
  683MOL0     C94160   5.229  13.572   2.953 -0.6351  0.2555 -0.2037
  683MOL0    Cl94161   5.385  13.569   2.860  0.1172 -0.0415 -0.4982
  683MOL0     C94162   4.350  12.810   2.856  0.2481  0.6676  0.6192
  683MOL0     C94163   4.272  12.706   2.792  0.4657 -0.4886  0.3005
  683MOL0     O94164   4.062  12.732   2.468  0.1613  0.3297 -0.0816
  683MOL0     C94165   4.050  12.364   2.521  0.0852 -0.0806  0.4769
  683MOL0     C94166   3.959  12.257   2.516 -0.3281  0.4851 -0.5197
  683MOL0     N94167   3.788  11.616   2.090  0.2458 -0.4569 -0.5037
  683MOL0     N94168   3.707  11.580   2.000  0.5759 -0.1740  0.3412
  683MOL0     C94169   2.934  10.592   1.997  0.0573  0.2434 -0.2777
  683MOL0     C94170   2.842  10.490   1.975 -0.4904  0.1699 -0.2662
  683MOL0     C94171   2.542  10.238   1.755 -0.3864  0.1687  0.3707
  683MOL0     C94172   2.407  10.273   1.790 -0.1772 -0.0837  0.1377
  683MOL0     C94173   2.295  10.212   1.738 -0.2713 -0.1746 -1.1271
  683MOL0     C94174   2.302  10.114   1.644 -0.0587 -0.4146 -0.3235
  683MOL0     O94175   2.184  10.067   1.593  0.6269  0.2800  0.3031
  683MOL0     C94176   2.190  10.008   1.461 -0.5574  0.1621 -0.9820
  683MOL0     C94177   2.213  10.101   1.345 -0.7824  0.2002  0.3233
  683MOL0     C94178   2.110  10.221   1.335  0.1839 -0.0156  0.0476
  683MOL0     C94179   2.145  10.352   1.422 -0.2346  0.3939 -0.4539
  683MOL0     C94180   2.253  10.444   1.370  0.2740 -0.5363 -0.1120
  683MOL0     C94181   2.344  10.523   1.347 -0.2402  0.4808  0.9858
  683MOL0     C94182   2.432  10.086   1.599  0.0735 -0.5602  0.1157
  683MOL0     C94183   2.551  10.136   1.655 -0.2576 -0.2138  0.0032
  683MOL0     C94184   2.681  10.099   1.592 -0.7709 -0.0432  0.6040
  683MOL0     H94185   2.615  10.698   1.811 -0.1674  2.4679  1.5824
  683MOL0     H94186   2.798  10.856   1.830 -0.1578  0.1579 -0.5043
  683MOL0     H94187   2.944  11.002   1.947 -1.7858 -0.0831 -3.0082
  683MOL0     H94188   3.005  10.934   1.793  0.2338 -1.7529  0.4973
  683MOL0     H94189   3.160  11.054   2.020  0.0829 -1.9843  1.1558
  683MOL0     H94190   3.240  10.943   1.908  0.5790  0.9019  2.0993
  683MOL0     H94191   3.175  11.081   1.706 -1.6547  0.2395  0.0444
  683MOL0     H94192   3.091  11.188   1.824 -0.1155  0.5032  3.6984
  683MOL0     H94193   3.379  11.146   1.855  2.4382 -0.5346 -3.3321
  683MOL0     H94194   3.329  11.268   1.734  1.0877  0.0282  1.2832
  683MOL0     H94195   3.232  11.282   2.024  1.5009 -3.1707 -0.8872
  683MOL0     H94196   3.192  11.392   1.893 -0.0025  0.8440 -0.1275
  683MOL0     H94197   3.339  11.474   2.046 -1.6870 -1.3866 -0.3777
  683MOL0     H94198   3.464  11.344   2.018  0.1770 -1.6917 -0.9412
  683MOL0     H94199   3.391  11.497   1.779  2.0486  0.2892 -2.0571
  683MOL0     H94200   3.543  11.442   1.841 -0.2757  0.7628 -0.8182
  683MOL0     H94201   3.511  11.712   1.855  3.1539 -2.8190 -1.1451
  683MOL0     H94202   3.388  11.693   1.976 -0.9224  0.4946 -1.0306
  683MOL0     H94203   3.516  11.750   2.203 -1.3161 -0.9322 -0.9335
  683MOL0     H94204   3.894  11.745   2.283 -0.0465 -1.0274 -4.2355
  683MOL0     H94205   3.768  11.686   2.400 -0.0908 -0.5441 -0.8366
  683MOL0     H94206   3.755  11.966   2.271 -0.3592  3.0799  2.0211
  683MOL0     H94207   3.640  11.873   2.375 -0.5492 -0.9756 -2.9732
  683MOL0     H94208   3.839  11.864   2.536 -1.5305 -0.8837 -1.4948
  683MOL0     H94209   3.913  11.991   2.438  0.6509  0.8293  2.6674
  683MOL0     H94210   3.646  12.027   2.573  0.2280 -0.4002 -0.5762
  683MOL0     H94211   3.803  12.093   2.635 -0.3289 -1.9923  0.2179
  683MOL0     H94212   3.686  12.398   2.392 -0.7375 -3.3105 -0.1213
  683MOL0     H94213   3.698  12.611   2.334  0.6588  0.8090 -1.3661
  683MOL0     H94214   3.846  12.685   2.309  1.5233  1.5016  2.3977
  683MOL0     H94215   3.785  12.709   2.462  1.6341 -0.0366  0.4777
  683MOL0     H94216   4.318  12.800   2.463  0.1188  0.3626 -0.3264
  683MOL0     H94217   4.456  12.960   2.569  1.1893 -0.2204  1.1640
  683MOL0     H94218   4.704  12.905   2.887 -2.1514  0.3994  0.8431
  683MOL0     H94219   4.670  12.934   2.715 -2.0388 -1.0585  0.0542
  683MOL0     H94220   4.655  13.176   2.781  0.6706  0.8116  0.1763
  683MOL0     H94221   4.695  13.133   2.949 -1.1669 -1.7209  0.8065
  683MOL0     H94222   4.892  13.075   2.716  1.9124  0.7026 -0.4354
  683MOL0     H94223   4.913  13.057   2.886  0.5332  0.8782  1.0938
  683MOL0     H94224   4.883  13.298   2.927  1.7373 -4.8345  3.5264
  683MOL0     H94225   4.888  13.307   2.733 -0.1516 -1.7238 -0.6980
  683MOL0     H94226   5.092  13.199   2.923  0.6107  2.7057  0.2818
  683MOL0     H94227   5.093  13.189   2.740  1.6450 -0.3666 -0.8935
  683MOL0     H94228   5.113  13.439   2.755 -0.9134 -3.1888 -1.9993
  683MOL0     H94229   5.246  13.334   2.795 -1.0708 -0.1500 -1.0359
  683MOL0     H94230   5.249  13.371   3.016  0.6269  2.0233 -0.9552
  683MOL0     H94231   5.075  13.419   3.013 -0.6851  1.3482  0.0279
  683MOL0     H94232   5.239  13.614   3.054 -0.7760  0.3653 -0.2342
  683MOL0     H94233   5.150  13.626   2.900 -1.1777 -1.0168 -0.7062
  683MOL0     H94234   4.351  12.805   2.965  1.0660 -1.4569  0.5605
  683MOL0     H94235   4.225  12.628   2.851  1.0954 -1.7604 -0.8393
  683MOL0     H94236   4.150  12.353   2.561 -0.1600 -1.2315  0.8083
  683MOL0     H94237   3.990  12.161   2.555  2.0147  0.8165 -1.3862
  683MOL0     H94238   3.018  10.572   2.062 -1.2243 -0.5612  1.2013
  683MOL0     H94239   2.849  10.386   2.006  0.7436  0.2041 -0.3606
  683MOL0     H94240   2.389  10.356   1.856  1.2419 -1.0544  1.8295
  683MOL0     H94241   2.196  10.238   1.775 -0.1138 -0.4779 -0.4768
  683MOL0     H94242   2.251   9.917   1.461 -0.2037  0.3509  0.9580
  683MOL0     H94243   2.087   9.970   1.450  0.2904 -2.1230 -1.6817
  683MOL0     H94244   2.201  10.033   1.260 -3.5045  0.4283  0.4486
  683MOL0     H94245   2.313  10.141   1.362 -0.3883 -1.3056  1.9999
  683MOL0     H94246   2.088  10.244   1.230 -2.0303  2.8587  1.0033
  683MOL0     H94247   2.012  10.204   1.378 -0.3860  2.5676 -0.0583
  683MOL0     H94248   2.167  10.323   1.525  0.4300 -0.8689 -0.9392
  683MOL0     H94249   2.053  10.410   1.435  0.1660  0.5576  2.0484
  683MOL0     H94250   2.423  10.594   1.331  0.2938 -0.7470 -3.0361
  683MOL0     H94251   2.451  10.021   1.513  0.6958  0.7233 -0.7496
  683MOL0     H94252   2.722  10.179   1.530 -1.8601 -0.3582 -0.5883
  683MOL0     H94253   2.758  10.068   1.663 -0.8812 -0.9122  0.3622
  683MOL0     H94254   2.674  10.015   1.521  0.0096  1.9272 -1.9614
  684MOL0     O94255  10.852   2.722   1.953 -0.7565 -0.4070 -0.6672
  684MOL0     C94256  10.757   2.674   1.891  0.0393 -0.4553  0.0281
  684MOL0     O94257  10.761   2.608   1.776  0.0423  0.3036 -0.4977
  684MOL0     C94258  10.884   2.567   1.719 -0.2871 -0.7581  0.1193
  684MOL0     C94259  10.889   2.578   1.578 -0.4398 -1.4585  0.4728
  684MOL0     C94260  11.005   2.527   1.511  0.2762 -0.2478  0.0176
  684MOL0     C94261  11.118   2.480   1.578 -0.2645 -0.2560 -0.0967
  684MOL0     O94262  11.227   2.447   1.495 -0.0758  0.1305 -0.1471
  684MOL0     C94263  11.345   2.394   1.568  0.3309 -0.1688 -0.6287
  684MOL0     C94264  11.339   2.246   1.592 -0.0929  0.1534  0.4486
  684MOL0     C94265  11.335   2.174   1.454  0.0661 -0.6527  0.5624
  684MOL0     C94266  11.467   2.185   1.374  0.3274 -0.0709 -0.2653
  684MOL0     C94267  11.480   2.082   1.258 -0.6876 -0.0418 -0.2919
  684MOL0     C94268  11.610   2.117   1.170  0.9300  0.3810 -0.0913
  684MOL0     C94269  11.601   2.025   1.038 -0.4906  0.3517 -0.2215
  684MOL0     C94270  11.673   2.091   0.920  0.4655 -0.9557  0.0225
  684MOL0     N94271  11.806   2.132   0.951  0.4006  0.1698  0.1646
  684MOL0     C94272  11.845   2.259   0.990  0.0563  0.1926 -0.3151
  684MOL0     C94273  11.979   2.245   0.982  0.1092  0.2793  0.3567
  684MOL0     C94274  12.085   2.343   1.002  0.3033 -0.7614 -0.1432
  684MOL0     C94275  12.095   2.434   0.876 -0.0914 -0.1894  0.1605
  684MOL0     C94276  12.177   2.555   0.911 -0.0128 -0.2275  0.7098
  684MOL0     C94277  12.083   2.672   0.965 -0.3047  0.3981 -0.5472
  684MOL0     O94278  12.008   2.623   1.073  0.1674  0.6816 -0.7136
  684MOL0     C94279  11.899   2.698   1.117  0.5402 -0.3231 -0.1080
  684MOL0     C94280  11.855   2.817   1.059 -0.1947 -0.8042 -0.0984
  684MOL0     C94281  11.731   2.873   1.104  0.1797 -0.3871  0.0784
  684MOL0     C94282  11.690   2.998   1.028  0.5231  0.2380 -0.1002
  684MOL0     C94283  11.665   2.829   1.226 -0.0808 -0.5019 -0.1190
  684MOL0     C94284  11.542   2.895   1.284 -0.8701  0.0283 -0.0063
  684MOL0     O94285  11.493   2.821   1.393 -0.2363  0.3937 -0.1302
  684MOL0     C94286  11.403   2.877   1.478 -0.6731  0.4683 -1.0219
  684MOL0     C94287  11.308   2.788   1.534 -0.1675 -0.4242  0.0614
  684MOL0     C94288  11.205   2.839   1.624  0.5133  0.5030  0.0291
  684MOL0     C94289  11.202   2.979   1.655  0.2998  0.2501 -0.4204
  684MOL0     O94290  11.111   3.045   1.731  0.8403 -0.5795 -0.5452
  684MOL0     C94291  10.975   2.987   1.745 -0.8581 -0.0843 -0.1720
  684MOL0     C94292  10.896   3.065   1.852  1.0608  0.8240 -0.9844
  684MOL0     C94293  10.741   3.069   1.819 -0.2768  0.2034  0.9254
  684MOL0     C94294  10.670   3.176   1.910 -0.1430 -0.2387  0.3331
  684MOL0     C94295  10.519   3.161   1.908 -0.7278  0.4239 -0.5211
  684MOL0     C94296  10.450   3.225   1.788  0.1465  0.6164 -0.1749
  684MOL0     C94297  10.450   3.379   1.770 -0.0616 -0.1189  1.0082
  684MOL0     C94298  10.381   3.408   1.635  0.0598  0.3752  0.0911
  684MOL0    Cl94299  10.481   3.346   1.499 -0.3525  0.3963  0.4315
  684MOL0     C94300  11.307   3.065   1.611 -0.0321  0.7332 -0.0280
  684MOL0     C94301  11.404   3.010   1.523 -0.0378 -0.2164  0.1736
  684MOL0     O94302  11.507   3.008   1.251  0.6032  0.7188 -0.1305
  684MOL0     C94303  11.711   2.706   1.276  0.3551  0.1191 -0.7336
  684MOL0     C94304  11.821   2.634   1.219  0.9500  0.5875  0.7671
  684MOL0     N94305  12.014   2.107   0.957 -0.5651 -0.1734 -0.4913
  684MOL0     N94306  11.909   2.043   0.937  0.5147 -0.1391  0.0798
  684MOL0     C94307  11.114   2.488   1.724 -0.0623 -0.2055  0.5390
  684MOL0     C94308  10.997   2.526   1.794 -1.1259  0.8483  0.5852
  684MOL0     C94309  10.613   2.706   1.932 -0.5503  0.0979  0.7265
  684MOL0     C94310  10.519   2.724   1.832  0.2710 -0.0513 -0.7272
  684MOL0     C94311  10.385   2.769   1.868 -0.6495  0.0474 -1.0973
  684MOL0     C94312  10.338   2.770   2.002  1.2033 -0.6816 -0.2585
  684MOL0     O94313  10.200   2.784   2.041 -0.0465 -0.2141  0.2355
  684MOL0     C94314  10.097   2.783   1.944  0.6777 -0.3825  0.6153
  684MOL0     C94315   9.975   2.871   1.986 -0.5695 -0.0126  0.7382
  684MOL0     C94316  10.017   3.010   2.035  0.0051 -0.4178  0.6285
  684MOL0     C94317  10.105   3.095   1.941 -0.7025  0.7999 -1.0575
  684MOL0     C94318  10.040   3.105   1.817  0.3953  0.1434  0.0598
  684MOL0     C94319   9.989   3.111   1.710 -0.2291 -0.0293  0.8088
  684MOL0     C94320  10.429   2.746   2.099  0.2610  0.0003  0.2751
  684MOL0     C94321  10.564   2.719   2.075 -0.3228 -0.4746  0.5982
  684MOL0     C94322  10.647   2.693   2.194 -0.5065 -0.0793  0.4052
  684MOL0     H94323  10.801   2.615   1.526 -1.5866  1.5626  4.0732
  684MOL0     H94324  11.003   2.519   1.402 -1.1363 -1.7208  0.1088
  684MOL0     H94325  11.358   2.451   1.661 -0.5669  1.6306 -1.5391
  684MOL0     H94326  11.433   2.417   1.508  0.7144 -0.0639 -0.0366
  684MOL0     H94327  11.408   2.201   1.664 -0.7917 -0.3416  0.8183
  684MOL0     H94328  11.240   2.226   1.634  0.7029  0.4359  2.5504
  684MOL0     H94329  11.323   2.067   1.474 -0.7834 -0.3552  1.7502
  684MOL0     H94330  11.245   2.207   1.402  0.1983  0.7522  1.2017
  684MOL0     H94331  11.455   2.287   1.338  0.0718 -0.7011 -2.0462
  684MOL0     H94332  11.551   2.176   1.444 -0.2524  0.0205  0.4571
  684MOL0     H94333  11.385   2.084   1.203 -1.0319 -0.8617  0.2608
  684MOL0     H94334  11.478   1.986   1.309 -0.7024  1.1265  2.0218
  684MOL0     H94335  11.602   2.221   1.136 -1.7559 -0.4603 -2.4572
  684MOL0     H94336  11.702   2.103   1.227  1.3096  0.5501 -0.6523
  684MOL0     H94337  11.496   2.007   1.012 -0.2508  0.9534 -1.6874
  684MOL0     H94338  11.647   1.927   1.058 -0.0771  0.8827  1.5865
  684MOL0     H94339  11.668   2.018   0.839 -0.8607  0.2379 -1.0220
  684MOL0     H94340  11.620   2.175   0.875 -1.6127 -2.4659 -0.5669
  684MOL0     H94341  11.784   2.337   1.034  0.7487 -0.0726  1.1437
  684MOL0     H94342  12.183   2.298   1.020  1.2129  1.8004  1.8333
  684MOL0     H94343  12.066   2.396   1.095  1.9705  0.7664 -0.6104
  684MOL0     H94344  12.140   2.389   0.787 -0.8621 -2.2295  0.7543
  684MOL0     H94345  11.999   2.472   0.840  0.3363 -0.6886 -1.6182
  684MOL0     H94346  12.264   2.534   0.974  0.4445  1.3638  0.6483
  684MOL0     H94347  12.207   2.593   0.812 -0.8370 -1.3168  0.0177
  684MOL0     H94348  12.149   2.758   0.982  1.8149 -1.4791  1.5717
  684MOL0     H94349  12.020   2.696   0.879 -5.6255 -0.3368  2.6639
  684MOL0     H94350  11.915   2.867   0.984  0.9510 -1.3234  0.4483
  684MOL0     H94351  11.608   2.972   0.960  1.9764 -3.6694 -0.6308
  684MOL0     H94352  11.774   3.036   0.968  2.2627  0.6748  2.4653
  684MOL0     H94353  11.656   3.084   1.086 -0.7628  1.0051 -1.8799
  684MOL0     H94354  11.311   2.684   1.502 -0.7016  0.0887 -1.7939
  684MOL0     H94355  11.136   2.772   1.672  0.1521  2.0422  1.7717
  684MOL0     H94356  10.929   2.993   1.646  0.1523  2.1200 -0.5649
  684MOL0     H94357  10.969   2.884   1.782  0.3642  0.4195  1.5511
  684MOL0     H94358  10.911   3.017   1.949 -2.0955  1.4776 -0.0570
  684MOL0     H94359  10.941   3.163   1.872  2.4422  0.1704 -0.7522
  684MOL0     H94360  10.693   2.972   1.836 -2.2153  0.5890 -1.6888
  684MOL0     H94361  10.735   3.090   1.712  3.0414  1.6468  0.9140
  684MOL0     H94362  10.696   3.279   1.883 -0.8083  0.2102  1.3533
  684MOL0     H94363  10.704   3.160   2.012  0.3880 -0.3060  0.1487
  684MOL0     H94364  10.494   3.055   1.898 -2.9262  0.8080  0.3775
  684MOL0     H94365  10.477   3.203   2.000 -0.0706  2.3820 -1.0506
  684MOL0     H94366  10.345   3.192   1.796  0.6068 -0.3978  2.4569
  684MOL0     H94367  10.492   3.187   1.694 -0.7430  0.6288 -0.5934
  684MOL0     H94368  10.552   3.419   1.764 -0.2381  0.4722  1.7798
  684MOL0     H94369  10.397   3.435   1.847  1.1286  1.4627  0.7393
  684MOL0     H94370  10.363   3.515   1.621 -0.1844  0.4229  0.7190
  684MOL0     H94371  10.280   3.365   1.637 -1.2387  3.0656  3.6827
  684MOL0     H94372  11.331   3.159   1.661  2.3721 -0.6049  1.5278
  684MOL0     H94373  11.480   3.085   1.504  0.2692  0.3152  2.9609
  684MOL0     H94374  11.665   2.664   1.365  1.7241 -1.1540 -0.5939
  684MOL0     H94375  11.855   2.535   1.246 -0.8261 -0.2362  0.1473
  684MOL0     H94376  11.194   2.457   1.790  1.0607  3.4047  1.0940
  684MOL0     H94377  10.988   2.520   1.902 -1.1051 -3.6749  0.5160
  684MOL0     H94378  10.537   2.717   1.725 -0.9214  2.9309 -1.2394
  684MOL0     H94379  10.317   2.783   1.785  0.2154  0.2014 -1.8001
  684MOL0     H94380  10.127   2.831   1.851  0.2901 -1.6304 -0.1842
  684MOL0     H94381  10.056   2.685   1.917 -4.1530  2.1394 -2.7297
  684MOL0     H94382   9.924   2.825   2.071  0.2873 -1.1243  0.6695
  684MOL0     H94383   9.905   2.874   1.901  0.1409  0.4147  0.1564
  684MOL0     H94384   9.927   3.066   2.064 -0.1443  0.5854 -1.5832
  684MOL0     H94385  10.068   3.004   2.132 -1.5703 -1.9575  1.4377
  684MOL0     H94386  10.208   3.058   1.941 -0.6727  0.6557  2.1608
  684MOL0     H94387  10.125   3.195   1.981  0.6021  1.1099 -2.3466
  684MOL0     H94388   9.953   3.118   1.609 -0.9828 -1.1052  0.9744
  684MOL0     H94389  10.396   2.756   2.202 -2.3987 -3.7527  0.0231
  684MOL0     H94390  10.601   2.731   2.285  0.5276  1.4738  0.3032
  684MOL0     H94391  10.683   2.590   2.205  1.9251  0.0304 -4.1682
  684MOL0     H94392  10.739   2.749   2.183 -0.7567 -0.0312 -2.3033
  685MOL0     O94393   1.772   7.783   5.492  0.0874 -0.4696  0.0924
  685MOL0     C94394   1.734   7.899   5.492 -0.9358 -0.5414  0.0710
  685MOL0     O94395   1.735   7.978   5.601  0.2808  0.4326 -0.2492
  685MOL0     C94396   1.793   7.945   5.718 -0.6929 -0.7433 -0.8150
  685MOL0     C94397   1.744   7.849   5.801 -0.7528 -0.4865  0.6138
  685MOL0     C94398   1.807   7.829   5.926  0.1071 -0.1578 -0.2295
  685MOL0     C94399   1.920   7.911   5.958  0.6851  1.2740  0.8528
  685MOL0     O94400   1.992   7.891   6.068 -0.5085 -0.4641  0.3650
  685MOL0     C94401   1.962   7.774   6.145 -0.0238 -0.1849 -0.4174
  685MOL0     C94402   2.074   7.755   6.242  0.2531 -0.7417 -0.0733
  685MOL0     C94403   2.202   7.735   6.166  0.9077 -0.1242 -0.1946
  685MOL0     C94404   2.296   7.677   6.276  0.4800 -0.0946  0.5733
  685MOL0     C94405   2.423   7.599   6.219 -0.0357 -0.1435 -0.0459
  685MOL0     C94406   2.392   7.451   6.199 -0.0900 -0.4530 -0.1125
  685MOL0     C94407   2.529   7.391   6.145  0.1068 -0.4778 -0.7099
  685MOL0     C94408   2.526   7.241   6.108 -0.3044  0.1505 -0.6341
  685MOL0     N94409   2.647   7.204   6.036  0.2244 -0.1742  0.3211
  685MOL0     C94410   2.752   7.154   6.106 -0.4666 -0.9337  0.6166
  685MOL0     C94411   2.816   7.069   6.018  0.5083  0.0037  0.1645
  685MOL0     C94412   2.953   7.012   6.025  0.1540 -0.6353  0.2680
  685MOL0     C94413   3.051   7.038   5.915 -0.0128 -0.6071  0.2217
  685MOL0     C94414   3.180   6.963   5.944  1.0030  0.6235  0.1402
  685MOL0     C94415   3.277   6.983   5.828 -0.8615 -0.4151  0.5099
  685MOL0     O94416   3.375   7.094   5.851 -0.0274  0.3683  0.3370
  685MOL0     C94417   3.506   7.070   5.898  0.6857 -0.2610 -0.5365
  685MOL0     C94418   3.595   7.170   5.871  0.0767 -0.1587  0.7804
  685MOL0     C94419   3.734   7.150   5.883  0.0949  0.6803 -1.0611
  685MOL0     C94420   3.826   7.257   5.837  0.2613  0.4310  0.7859
  685MOL0     C94421   3.777   7.031   5.956 -0.1468 -0.5726  0.6367
  685MOL0     C94422   3.922   7.000   5.976 -0.1599  0.2153 -0.0459
  685MOL0     O94423   3.961   6.885   5.920  0.1452 -0.1500 -0.1059
  685MOL0     C94424   4.076   6.817   5.967 -0.3789  0.0757 -0.2499
  685MOL0     C94425   4.128   6.827   6.094  0.9090 -0.7769  0.8794
  685MOL0     C94426   4.251   6.769   6.118  0.2799 -0.4365 -0.4185
  685MOL0     C94427   4.323   6.682   6.024 -0.4903 -0.0154 -0.7956
  685MOL0     O94428   4.443   6.621   6.051  0.9206  0.5293 -0.7546
  685MOL0     C94429   4.499   6.636   6.188  0.4996 -0.1140 -0.0950
  685MOL0     C94430   4.612   6.734   6.189 -0.5907 -0.2211  0.0265
  685MOL0     C94431   4.554   6.882   6.169  0.6302 -0.4249 -0.2518
  685MOL0     C94432   4.677   6.979   6.179  1.1535  0.2571  0.3519
  685MOL0     C94433   4.665   7.127   6.119  0.8442  0.6274 -0.1283
  685MOL0     C94434   4.803   7.194   6.112 -1.1119 -0.0111 -0.2611
  685MOL0     C94435   4.808   7.317   6.026 -0.0548  0.5659 -1.0331
  685MOL0     C94436   4.942   7.390   6.028  0.3314 -0.1894 -0.3300
  685MOL0    Cl94437   4.940   7.530   5.907  0.1588  0.2476  0.1169
  685MOL0     C94438   4.256   6.663   5.899  0.3018 -0.3831 -0.7415
  685MOL0     C94439   4.138   6.740   5.870  0.4537  1.0368  0.3136
  685MOL0     O94440   3.996   7.085   6.030  0.4785 -0.9364  0.1820
  685MOL0     C94441   3.682   6.934   6.001 -0.0188  0.0166 -0.4360
  685MOL0     C94442   3.544   6.949   5.967 -0.4223 -0.1535 -0.5201
  685MOL0     N94443   2.739   7.064   5.902 -0.5654  0.6491 -0.2307
  685MOL0     N94444   2.639   7.140   5.920 -0.0776  0.1031  0.7738
  685MOL0     C94445   1.975   7.994   5.871  1.2070  0.2611 -0.0777
  685MOL0     C94446   1.904   8.018   5.754  1.1343  0.1960 -0.2260
  685MOL0     C94447   1.678   7.956   5.359 -0.4098  0.6324  1.0908
  685MOL0     C94448   1.581   8.049   5.367  0.6765 -0.3470 -0.2920
  685MOL0     C94449   1.510   8.100   5.258  0.1358 -0.1643 -0.3448
  685MOL0     C94450   1.545   8.065   5.134 -0.5076  0.0436 -0.3415
  685MOL0     O94451   1.475   8.112   5.029 -0.4286  0.4593 -0.1360
  685MOL0     C94452   1.473   8.047   4.902 -0.3559  0.6816  0.1654
  685MOL0     C94453   1.394   8.121   4.802 -0.3000 -0.9750  0.1341
  685MOL0     C94454   1.402   8.059   4.663  0.1760  0.6246 -0.8923
  685MOL0     C94455   1.439   8.162   4.552 -0.3181 -0.1214  0.4181
  685MOL0     C94456   1.582   8.221   4.561 -0.1729  0.7646  0.5561
  685MOL0     C94457   1.694   8.265   4.575  0.4311 -0.0789  1.5238
  685MOL0     C94458   1.643   7.965   5.121 -0.4167 -0.9841 -0.6489
  685MOL0     C94459   1.716   7.913   5.229  0.0663 -0.8217 -0.3770
  685MOL0     C94460   1.839   7.819   5.202 -0.1972 -0.0933  0.0857
  685MOL0     H94461   1.664   7.790   5.757 -1.5245 -1.6685  3.3478
  685MOL0     H94462   1.754   7.776   6.006 -0.9263  0.2618 -0.6203
  685MOL0     H94463   1.950   7.686   6.081 -4.8825  1.6130 -2.4444
  685MOL0     H94464   1.866   7.785   6.196  0.2312  0.0036  0.0399
  685MOL0     H94465   2.076   7.851   6.294 -1.5750 -0.2268 -0.8507
  685MOL0     H94466   2.055   7.672   6.311 -0.6300 -0.9972 -0.6062
  685MOL0     H94467   2.180   7.674   6.078  1.5469 -0.1789 -0.3250
  685MOL0     H94468   2.236   7.832   6.129  1.7697 -0.0901  0.6322
  685MOL0     H94469   2.333   7.756   6.342  1.0091 -0.1822  0.3830
  685MOL0     H94470   2.247   7.607   6.345 -1.2586  0.4971 -0.0126
  685MOL0     H94471   2.511   7.615   6.281  0.0159  0.0452 -0.1656
  685MOL0     H94472   2.446   7.633   6.118 -0.7893 -2.1433 -0.9557
  685MOL0     H94473   2.362   7.409   6.296  0.8329  1.1023  0.8849
  685MOL0     H94474   2.312   7.447   6.125 -2.2640  0.1086  2.0736
  685MOL0     H94475   2.615   7.422   6.206 -2.6546 -0.7098  3.6736
  685MOL0     H94476   2.539   7.438   6.046 -4.6352 -0.1959 -1.2806
  685MOL0     H94477   2.509   7.182   6.198  1.3989 -0.5888 -0.7729
  685MOL0     H94478   2.445   7.213   6.040  0.2602  1.4629 -1.9039
  685MOL0     H94479   2.794   7.209   6.189 -3.5036  1.4060  0.8201
  685MOL0     H94480   2.955   6.903   6.041  1.0700 -0.4058  1.9208
  685MOL0     H94481   2.995   7.074   6.104  0.2364  0.0015 -0.2667
  685MOL0     H94482   3.004   7.005   5.823 -1.7148 -1.5934  1.3953
  685MOL0     H94483   3.070   7.146   5.911 -2.9090 -0.0790 -1.2649
  685MOL0     H94484   3.224   6.996   6.038 -4.2020  5.6851  1.4349
  685MOL0     H94485   3.140   6.861   5.944  1.2397  0.5109 -1.1846
  685MOL0     H94486   3.328   6.887   5.822 -0.1878 -0.0902  0.8160
  685MOL0     H94487   3.231   6.989   5.729  3.3111 -1.0427 -1.7164
  685MOL0     H94488   3.556   7.253   5.812 -0.1906 -0.0951  1.0418
  685MOL0     H94489   3.800   7.354   5.880  0.2737  0.4085  0.8442
  685MOL0     H94490   3.806   7.263   5.729 -1.3941  0.4742  1.0643
  685MOL0     H94491   3.928   7.228   5.864  0.5033  0.3946 -0.1332
  685MOL0     H94492   4.075   6.876   6.175 -3.0935 -3.0521 -0.0855
  685MOL0     H94493   4.281   6.785   6.221  0.5689 -1.0976 -0.3918
  685MOL0     H94494   4.423   6.647   6.265  1.2478 -1.9553  0.9890
  685MOL0     H94495   4.557   6.547   6.213  4.1761  0.8888 -3.7903
  685MOL0     H94496   4.661   6.728   6.287  0.8469 -1.8655 -0.7401
  685MOL0     H94497   4.691   6.715   6.115 -1.9665 -1.7533 -1.1300
  685MOL0     H94498   4.474   6.910   6.238  0.0123  0.9144 -1.4563
  685MOL0     H94499   4.513   6.891   6.068 -4.3216  2.0129  1.6533
  685MOL0     H94500   4.761   6.940   6.121 -0.7890  1.7857 -3.9771
  685MOL0     H94501   4.702   6.986   6.285  2.3333  0.4898  0.0778
  685MOL0     H94502   4.627   7.112   6.017 -1.9625  2.0203  0.5936
  685MOL0     H94503   4.597   7.187   6.180 -1.5944 -0.6438 -1.4530
  685MOL0     H94504   4.875   7.119   6.076 -1.1454  0.6341 -1.7506
  685MOL0     H94505   4.857   7.210   6.205  1.4005 -0.8100 -1.4793
  685MOL0     H94506   4.741   7.389   6.072 -2.2685 -1.8772 -0.1987
  685MOL0     H94507   4.767   7.295   5.927 -1.3358  0.1965 -0.4391
  685MOL0     H94508   5.023   7.321   6.000 -0.3730 -0.6777 -1.2016
  685MOL0     H94509   4.968   7.430   6.126 -2.2666 -3.0216  1.6755
  685MOL0     H94510   4.308   6.602   5.826  0.1488  1.8746 -2.8735
  685MOL0     H94511   4.100   6.722   5.770 -0.1069 -1.1331  0.8776
  685MOL0     H94512   3.722   6.852   6.059  0.3939  0.0819 -0.6270
  685MOL0     H94513   3.469   6.874   5.992 -1.0555  0.4814 -0.4662
  685MOL0     H94514   2.075   8.033   5.891  1.0023 -0.3868  2.5258
  685MOL0     H94515   1.952   8.083   5.681  1.2414  0.1850 -0.1655
  685MOL0     H94516   1.549   8.087   5.464 -1.0306  1.6328 -1.5595
  685MOL0     H94517   1.427   8.168   5.274 -2.1870 -2.4480 -1.8847
  685MOL0     H94518   1.573   8.045   4.858  0.0372  0.2272  1.0441
  685MOL0     H94519   1.437   7.945   4.919  0.6553  0.5142  1.4594
  685MOL0     H94520   1.414   8.229   4.800  2.2514 -1.3900 -0.1693
  685MOL0     H94521   1.293   8.114   4.843  0.3106  0.3354  2.0420
  685MOL0     H94522   1.472   7.975   4.658 -0.7315 -0.4648  2.0971
  685MOL0     H94523   1.308   8.019   4.623  0.7872 -1.0971 -0.7201
  685MOL0     H94524   1.367   8.244   4.538  0.0119 -0.0080 -0.6910
  685MOL0     H94525   1.444   8.115   4.453  2.7885 -1.5207  1.1449
  685MOL0     H94526   1.787   8.317   4.578 -0.9535  2.5823  1.5234
  685MOL0     H94527   1.663   7.929   5.021  0.0690  0.1169 -0.9610
  685MOL0     H94528   1.875   7.852   5.104 -2.5599  0.2854 -0.7233
  685MOL0     H94529   1.919   7.823   5.276  0.7471 -0.7574 -0.8664
  685MOL0     H94530   1.810   7.715   5.218  0.1317  0.2557  3.8886
  686MOL0     O94531   6.165   6.916   8.551  0.2878  0.5125 -0.7485
  686MOL0     C94532   6.167   6.905   8.676  0.0627  0.0990 -0.0711
  686MOL0     O94533   6.066   6.842   8.752  0.6838 -0.0970  0.4288
  686MOL0     C94534   5.965   6.783   8.679  0.4293 -0.1091  0.8061
  686MOL0     C94535   5.835   6.845   8.689 -0.5575 -0.0535 -0.8620
  686MOL0     C94536   5.731   6.782   8.629  0.1296  0.0899  0.1247
  686MOL0     C94537   5.750   6.666   8.548 -0.8220 -0.7515  0.3567
  686MOL0     O94538   5.661   6.603   8.472 -0.4432 -0.1962 -0.3178
  686MOL0     C94539   5.544   6.684   8.426 -0.3920 -0.1638 -0.8494
  686MOL0     C94540   5.499   6.631   8.299 -0.2681 -0.0955  0.8286
  686MOL0     C94541   5.596   6.631   8.178 -0.5406 -0.0639  0.9849
  686MOL0     C94542   5.704   6.744   8.183  0.3364  0.7614  0.2688
  686MOL0     C94543   5.793   6.750   8.058 -0.1665 -0.4316  0.0393
  686MOL0     C94544   5.859   6.621   8.019 -0.3408  0.0072  0.2640
  686MOL0     C94545   5.955   6.559   8.119 -0.3663  0.2407 -0.6777
  686MOL0     C94546   6.068   6.654   8.157 -1.0103  0.2274  0.1001
  686MOL0     N94547   6.180   6.584   8.211 -0.1992 -0.5792  0.0923
  686MOL0     C94548   6.267   6.619   8.312  0.6083  0.0377  0.2105
  686MOL0     C94549   6.379   6.536   8.296  0.0290  0.0032  0.2012
  686MOL0     C94550   6.514   6.531   8.362 -0.8689  0.3617 -0.1474
  686MOL0     C94551   6.628   6.597   8.267  0.3706  0.0427  0.2075
  686MOL0     C94552   6.770   6.530   8.279 -0.3600  0.0865  0.5581
  686MOL0     C94553   6.836   6.555   8.408 -0.1112 -0.0501 -0.3569
  686MOL0     O94554   6.869   6.695   8.426  0.1212  0.2393  0.5245
  686MOL0     C94555   6.969   6.742   8.338 -0.6182  0.2409  0.2981
  686MOL0     C94556   6.942   6.855   8.267 -0.6405  0.1038 -0.7075
  686MOL0     C94557   7.039   6.925   8.192 -0.4062  1.5600  0.3553
  686MOL0     C94558   6.988   7.050   8.110  0.2942 -1.2844  0.7217
  686MOL0     C94559   7.175   6.874   8.188 -0.0694 -0.7609 -0.1448
  686MOL0     C94560   7.287   6.925   8.107  0.2535 -0.9572 -0.0560
  686MOL0     O94561   7.387   6.835   8.091  0.3636 -0.4238 -0.3541
  686MOL0     C94562   7.496   6.881   8.021  0.0450 -0.5742 -0.3473
  686MOL0     C94563   7.617   6.899   8.090 -0.1601  0.2491  0.2016
  686MOL0     C94564   7.727   6.956   8.027  0.1728  0.4425  0.7554
  686MOL0     C94565   7.720   6.984   7.884 -0.1044  0.0587 -1.7040
  686MOL0     O94566   7.842   7.012   7.834  0.7794  0.5144  0.0736
  686MOL0     C94567   7.855   7.069   7.706 -0.2081 -0.5569  0.4550
  686MOL0     C94568   7.998   7.106   7.671 -0.4393 -0.0034  0.1394
  686MOL0     C94569   8.099   6.996   7.672  0.4539  0.6102  0.9990
  686MOL0     C94570   8.243   7.053   7.647  0.0546 -0.6524 -0.5804
  686MOL0     C94571   8.345   6.940   7.618 -0.8910  0.3056  1.3017
  686MOL0     C94572   8.484   6.991   7.587 -0.1804 -0.2428 -0.4150
  686MOL0     C94573   8.494   7.094   7.474 -1.4535 -0.0467  0.5212
  686MOL0     C94574   8.636   7.104   7.410 -0.5405  0.2032  1.0297
  686MOL0    Cl94575   8.721   7.257   7.458  0.0556  0.2435 -0.1347
  686MOL0     C94576   7.603   6.958   7.819 -0.5798  0.3578  0.4449
  686MOL0     C94577   7.487   6.916   7.885 -0.1870 -0.1525  0.4300
  686MOL0     O94578   7.283   7.046   8.065 -0.6843 -0.3754 -0.1756
  686MOL0     C94579   7.204   6.752   8.255  0.7283  0.8873  0.1876
  686MOL0     C94580   7.099   6.687   8.328 -0.5320 -0.0728  0.1919
  686MOL0     N94581   6.347   6.450   8.191 -0.8070  0.1536  0.5444
  686MOL0     N94582   6.238   6.484   8.143 -0.0591  0.7319  0.5813
  686MOL0     C94583   5.878   6.614   8.535 -0.0345 -0.0831 -0.1262
  686MOL0     C94584   5.986   6.671   8.599  0.8162  0.3746  0.8904
  686MOL0     C94585   6.268   6.996   8.747  0.8279  0.8290  0.2049
  686MOL0     C94586   6.216   7.061   8.863  0.0436 -0.8721 -0.8640
  686MOL0     C94587   6.299   7.154   8.936 -0.7215  0.3343 -0.3565
  686MOL0     C94588   6.428   7.183   8.893 -0.2632 -0.2816  0.7871
  686MOL0     O94589   6.524   7.285   8.929  0.3911 -0.2586 -0.0797
  686MOL0     C94590   6.476   7.387   9.017 -0.3016 -0.5141 -0.4016
  686MOL0     C94591   6.376   7.490   8.957 -0.0524  0.3676  0.5398
  686MOL0     C94592   6.404   7.560   8.823 -0.1082  0.2070 -0.3473
  686MOL0     C94593   6.315   7.669   8.784 -0.3212 -0.6741 -0.0150
  686MOL0     C94594   6.367   7.799   8.811 -0.1361 -0.0227  0.0057
  686MOL0     C94595   6.412   7.912   8.831 -0.3184  1.2585  0.2858
  686MOL0     C94596   6.483   7.114   8.784 -0.1187  0.0078 -0.6844
  686MOL0     C94597   6.402   7.028   8.710 -0.0050 -0.1605  0.4939
  686MOL0     C94598   6.467   6.951   8.595 -0.3550  0.2354  0.0047
  686MOL0     H94599   5.818   6.933   8.749 -0.1389 -0.3317 -0.3254
  686MOL0     H94600   5.640   6.841   8.640  1.1512  1.6128  0.7606
  686MOL0     H94601   5.544   6.793   8.426  0.9865 -0.1455 -0.2089
  686MOL0     H94602   5.472   6.657   8.504 -0.1179  1.1355 -0.1158
  686MOL0     H94603   5.465   6.527   8.309  3.0355 -1.3288  0.5696
  686MOL0     H94604   5.409   6.691   8.282 -1.1401 -1.2718  1.1538
  686MOL0     H94605   5.642   6.532   8.166  0.9059  0.7297 -0.3967
  686MOL0     H94606   5.540   6.651   8.087  0.0365 -1.0003  0.4048
  686MOL0     H94607   5.637   6.830   8.188 -1.7828 -0.8692  3.2162
  686MOL0     H94608   5.767   6.731   8.272  2.0070  1.6086 -0.7381
  686MOL0     H94609   5.866   6.831   8.065 -0.7800  0.2206 -0.8413
  686MOL0     H94610   5.729   6.782   7.975 -1.5193  1.9877  1.8725
  686MOL0     H94611   5.777   6.553   7.998 -0.7292  0.3057  0.8100
  686MOL0     H94612   5.905   6.635   7.920 -2.0133 -0.7480 -0.6500
  686MOL0     H94613   5.996   6.473   8.066 -0.7930 -1.5683  1.7560
  686MOL0     H94614   5.911   6.526   8.214 -0.2415 -2.9838 -1.6276
  686MOL0     H94615   6.099   6.709   8.068  0.5547 -0.7551 -0.0050
  686MOL0     H94616   6.033   6.722   8.235 -2.1444 -1.2282  0.9101
  686MOL0     H94617   6.254   6.697   8.386  1.1698  0.2616  0.0799
  686MOL0     H94618   6.544   6.428   8.385 -3.2233 -0.1522  0.8931
  686MOL0     H94619   6.511   6.581   8.460  0.4617 -3.0375  1.8010
  686MOL0     H94620   6.604   6.595   8.160  1.3355 -0.4551 -0.0086
  686MOL0     H94621   6.634   6.701   8.299 -1.0676  0.1598  0.1727
  686MOL0     H94622   6.760   6.421   8.271  0.3126  0.1242 -4.7199
  686MOL0     H94623   6.828   6.558   8.190 -1.1668 -1.2035 -0.4118
  686MOL0     H94624   6.772   6.522   8.491 -0.6312  0.0777 -0.7064
  686MOL0     H94625   6.928   6.497   8.401  1.3116  2.1045 -0.3673
  686MOL0     H94626   6.842   6.890   8.289 -1.1780 -2.1837  0.8934
  686MOL0     H94627   7.047   7.138   8.137 -0.7033 -0.5707  0.6108
  686MOL0     H94628   6.883   7.077   8.125 -0.0688  0.4440 -3.6293
  686MOL0     H94629   6.998   7.041   8.002  1.3967 -0.2634  0.7166
  686MOL0     H94630   7.621   6.859   8.191 -1.2207 -2.0958 -0.6188
  686MOL0     H94631   7.826   6.970   8.070  0.4186 -1.5197  0.8914
  686MOL0     H94632   7.827   6.989   7.636  0.6910 -1.1272  0.7307
  686MOL0     H94633   7.789   7.155   7.701 -1.9551 -1.8522  0.3623
  686MOL0     H94634   7.983   7.139   7.568  0.1670  4.3850  1.2750
  686MOL0     H94635   8.017   7.193   7.735 -1.5696 -0.4505  1.1353
  686MOL0     H94636   8.062   6.923   7.599  0.5614 -0.3461  1.8770
  686MOL0     H94637   8.088   6.952   7.772 -1.2764  0.8145  0.9401
  686MOL0     H94638   8.283   7.106   7.734 -0.7556  1.3867 -1.3952
  686MOL0     H94639   8.242   7.121   7.561  3.8143  3.3146  2.0464
  686MOL0     H94640   8.349   6.877   7.708  1.1711  2.1595  2.6379
  686MOL0     H94641   8.302   6.892   7.530 -1.6187  2.7577  0.2331
  686MOL0     H94642   8.550   6.906   7.569  1.8965  0.9214  1.2130
  686MOL0     H94643   8.504   7.041   7.682 -0.4634 -0.4064 -0.2671
  686MOL0     H94644   8.472   7.194   7.514 -1.4899 -0.5946  1.9118
  686MOL0     H94645   8.425   7.074   7.390  0.2181  0.8066 -1.1339
  686MOL0     H94646   8.617   7.110   7.302 -0.6297  0.4651  1.0602
  686MOL0     H94647   8.695   7.020   7.448  0.0523  0.7190  1.2514
  686MOL0     H94648   7.593   6.967   7.712 -1.9983 -1.9202  0.3250
  686MOL0     H94649   7.389   6.906   7.838 -1.1136  1.9256  1.7898
  686MOL0     H94650   7.299   6.700   8.248  0.7875  0.8953  0.8792
  686MOL0     H94651   7.123   6.599   8.386 -1.4525 -0.5229 -0.1013
  686MOL0     H94652   5.882   6.531   8.464 -0.5811 -0.9706  0.8619
  686MOL0     H94653   6.087   6.635   8.583  0.3765 -0.4339 -0.2122
  686MOL0     H94654   6.118   7.032   8.899  0.2024 -0.1010  0.2840
  686MOL0     H94655   6.251   7.202   9.021 -0.7567 -3.0915  1.7469
  686MOL0     H94656   6.432   7.342   9.107  3.1499 -0.6832  1.3486
  686MOL0     H94657   6.558   7.452   9.049 -0.7215  0.1090 -0.5530
  686MOL0     H94658   6.363   7.570   9.030 -3.3140  0.9048 -0.4623
  686MOL0     H94659   6.284   7.434   8.937  0.0217  0.1581  0.7805
  686MOL0     H94660   6.505   7.600   8.830 -0.0311  1.0615 -4.1274
  686MOL0     H94661   6.400   7.487   8.742 -1.2668 -0.8023  0.5685
  686MOL0     H94662   6.215   7.642   8.819 -1.4571 -1.1880 -3.2454
  686MOL0     H94663   6.308   7.663   8.675 -2.0904 -0.4848  0.0685
  686MOL0     H94664   6.434   8.017   8.835  0.1239  1.1184  2.6166
  686MOL0     H94665   6.583   7.120   8.742 -0.6254  1.5429 -1.7757
  686MOL0     H94666   6.572   6.938   8.625 -0.3193  2.3315  1.0410
  686MOL0     H94667   6.419   6.854   8.583 -0.7270  0.5343 -1.0193
  686MOL0     H94668   6.448   7.001   8.500 -0.9612 -1.6543 -0.9114
  687MOL0     O94669  10.939   0.715  10.250 -0.7582 -0.4121  0.2691
  687MOL0     C94670  10.966   0.804  10.328  0.2142 -0.6131 -0.9015
  687MOL0     O94671  11.077   0.811  10.410 -0.3672  0.5693  0.1877
  687MOL0     C94672  11.144   0.692  10.427 -0.0342  0.7839 -0.0852
  687MOL0     C94673  11.188   0.594  10.328  0.3894 -0.3167 -0.2965
  687MOL0     C94674  11.268   0.481  10.362  0.6094  0.6175 -0.3957
  687MOL0     C94675  11.325   0.477  10.494  0.1619  0.0291  0.4937
  687MOL0     O94676  11.415   0.379  10.524 -0.0663  0.1245  0.5402
  687MOL0     C94677  11.474   0.363  10.648  0.1907 -0.4247 -0.5935
  687MOL0     C94678  11.577   0.252  10.628  0.1172 -0.4878 -0.1842
  687MOL0     C94679  11.512   0.121  10.611 -0.1479  0.3575 -0.1902
  687MOL0     C94680  11.614   0.003  10.656 -0.5517  0.0084 -0.6594
  687MOL0     C94681  11.562  -0.129  10.627  0.8578  0.0015  0.1783
  687MOL0     C94682  11.673  -0.237  10.635 -0.4941 -0.0745  0.3966
  687MOL0     C94683  11.603  -0.376  10.624 -1.0479 -0.2976 -0.8957
  687MOL0     C94684  11.708  -0.486  10.687  0.6322  0.6221  0.5457
  687MOL0     N94685  11.676  -0.631  10.663 -0.7157 -1.2610 -0.3390
  687MOL0     C94686  11.551  -0.691  10.657  0.2529 -0.0762  0.3025
  687MOL0     C94687  11.573  -0.822  10.635 -0.6713  0.0133  0.2455
  687MOL0     C94688  11.454  -0.911  10.633 -0.6337 -0.5097  0.3704
  687MOL0     C94689  11.376  -0.916  10.495  0.2401  1.1343  0.5346
  687MOL0     C94690  11.430  -1.011  10.384 -0.2833 -0.0005 -0.4983
  687MOL0     C94691  11.584  -0.997  10.364  0.2488  0.1465  0.3159
  687MOL0     O94692  11.642  -1.067  10.255 -0.3106 -0.4431  0.4471
  687MOL0     C94693  11.781  -1.065  10.240  0.2177 -1.0621  0.3451
  687MOL0     C94694  11.866  -0.983  10.319  0.0533 -0.0942  0.8268
  687MOL0     C94695  12.003  -0.978  10.298 -0.7556  0.1121  0.5057
  687MOL0     C94696  12.077  -0.879  10.395  0.7968  0.7077 -0.6688
  687MOL0     C94697  12.066  -1.065  10.200  0.5654  0.6550  0.2252
  687MOL0     C94698  12.208  -1.094  10.198 -0.1617  0.4214 -0.9049
  687MOL0     O94699  12.300  -1.035  10.289  0.0917 -0.3930  0.6404
  687MOL0     C94700  12.435  -1.057  10.258 -0.6789 -0.0056  0.6772
  687MOL0     C94701  12.477  -1.189  10.257 -0.0105 -0.2790 -0.2458
  687MOL0     C94702  12.609  -1.219  10.253 -0.0702 -0.3693  0.5631
  687MOL0     C94703  12.702  -1.117  10.258 -0.1699  0.5600  0.0351
  687MOL0     O94704  12.833  -1.163  10.263 -0.4251 -0.0212  0.0441
  687MOL0     C94705  12.933  -1.065  10.285 -0.4805 -0.1325 -0.3937
  687MOL0     C94706  13.070  -1.143  10.286  0.2514  0.5077 -1.0341
  687MOL0     C94707  13.195  -1.045  10.288 -0.3334  0.9761 -0.3860
  687MOL0     C94708  13.325  -1.141  10.285  0.0848 -0.4446  0.2238
  687MOL0     C94709  13.440  -1.059  10.336 -0.5895 -0.3101  0.6600
  687MOL0     C94710  13.562  -1.143  10.346  0.5190 -0.3195  0.5960
  687MOL0     C94711  13.684  -1.063  10.402  0.6593  0.7800 -0.4676
  687MOL0     C94712  13.774  -1.011  10.283 -0.0013 -0.0839 -0.7736
  687MOL0    Cl94713  13.926  -0.921  10.329  0.1271 -0.6953 -0.5526
  687MOL0     C94714  12.666  -0.988  10.270  0.9402 -0.4631  0.3595
  687MOL0     C94715  12.528  -0.957  10.265 -1.1488  0.1903  0.2087
  687MOL0     O94716  12.239  -1.166  10.104 -0.6320  0.3220  0.2781
  687MOL0     C94717  11.979  -1.134  10.117  0.0828  0.2275 -0.2512
  687MOL0     C94718  11.841  -1.138  10.138  0.0483 -0.0703 -0.2326
  687MOL0     N94719  11.706  -0.842  10.618 -0.2639 -0.0636  0.6351
  687MOL0     N94720  11.769  -0.733  10.637 -0.1216 -0.8388  0.7294
  687MOL0     C94721  11.280   0.568  10.585 -0.0700 -0.6837  0.2855
  687MOL0     C94722  11.196   0.674  10.553  0.5677  0.7331 -0.3988
  687MOL0     C94723  10.879   0.933  10.319 -0.2104 -0.0562  0.4148
  687MOL0     C94724  10.930   1.049  10.374 -1.0422  0.6873  0.0033
  687MOL0     C94725  10.848   1.162  10.373  0.4820  0.3209  0.0807
  687MOL0     C94726  10.722   1.169  10.312 -0.2620  0.8879  0.9979
  687MOL0     O94727  10.643   1.281  10.300  0.7317 -0.0292 -0.2378
  687MOL0     C94728  10.702   1.402  10.243 -0.2624  0.1515 -0.8174
  687MOL0     C94729  10.664   1.420  10.097 -0.0599 -0.3086  0.5214
  687MOL0     C94730  10.525   1.486  10.074 -0.1701  0.6551 -0.4090
  687MOL0     C94731  10.472   1.455   9.937 -0.5023 -0.0077 -1.3302
  687MOL0     C94732  10.358   1.542   9.917  0.4161 -0.0014 -0.6672
  687MOL0     C94733  10.265   1.619   9.897 -0.5730 -0.6669  0.0748
  687MOL0     C94734  10.676   1.050  10.252  0.3399  0.1579 -0.2597
  687MOL0     C94735  10.758   0.936  10.246 -0.2807 -0.3244 -0.6669
  687MOL0     C94736  10.685   0.818  10.176 -0.7793  0.0595  0.4754
  687MOL0     H94737  11.155   0.611  10.226  3.0966  0.1800 -1.1602
  687MOL0     H94738  11.305   0.403  10.296  4.0594  1.9211 -0.1860
  687MOL0     H94739  11.397   0.336  10.720 -1.8577  1.5644 -1.9162
  687MOL0     H94740  11.516   0.457  10.684  1.4651 -0.8987 -0.7644
  687MOL0     H94741  11.641   0.271  10.541  2.0791 -3.1067  0.5380
  687MOL0     H94742  11.642   0.254  10.716  0.8447  2.8560 -0.6736
  687MOL0     H94743  11.425   0.105  10.675 -0.3842 -0.7592 -0.7689
  687MOL0     H94744  11.479   0.101  10.509 -1.4292  0.7474  0.1244
  687MOL0     H94745  11.708   0.008  10.600  2.0041 -1.7641  3.0620
  687MOL0     H94746  11.626   0.015  10.764 -2.6412  0.3705 -0.4266
  687MOL0     H94747  11.510  -0.134  10.531  2.5018  0.5432 -0.7825
  687MOL0     H94748  11.483  -0.152  10.700 -1.9378  1.1708 -2.2936
  687MOL0     H94749  11.745  -0.223  10.553  0.4803  1.4131  1.4557
  687MOL0     H94750  11.724  -0.233  10.731  0.8723  0.8041 -0.3395
  687MOL0     H94751  11.561  -0.400  10.526  0.7662  0.0306 -1.8058
  687MOL0     H94752  11.521  -0.372  10.696 -0.2923 -0.0326 -0.0383
  687MOL0     H94753  11.806  -0.464  10.643  0.9453  0.5415  1.1965
  687MOL0     H94754  11.716  -0.485  10.796  0.7579 -1.0079  0.5742
  687MOL0     H94755  11.456  -0.641  10.676 -1.2551 -2.2723 -1.0888
  687MOL0     H94756  11.380  -0.889  10.710 -0.9678 -2.0610  0.5031
  687MOL0     H94757  11.505  -1.006  10.651 -1.5301 -0.6774  2.1737
  687MOL0     H94758  11.280  -0.961  10.521  0.0270  0.3213 -1.5164
  687MOL0     H94759  11.357  -0.818  10.449  0.8365  1.0348  0.0621
  687MOL0     H94760  11.407  -1.115  10.405 -1.6137  0.3267 -0.2673
  687MOL0     H94761  11.378  -0.991  10.290 -0.7511  3.6875  0.3829
  687MOL0     H94762  11.602  -0.890  10.348  0.2080 -0.1454 -1.9529
  687MOL0     H94763  11.628  -1.025  10.460 -0.0512 -0.8553  0.1744
  687MOL0     H94764  11.829  -0.912  10.392  1.0039  1.8029 -0.4548
  687MOL0     H94765  12.140  -0.928  10.470 -0.4514  2.9580  1.9948
  687MOL0     H94766  12.013  -0.820  10.461 -0.4401 -2.5142  1.2588
  687MOL0     H94767  12.137  -0.805  10.341 -2.1074  3.3362 -0.5065
  687MOL0     H94768  12.412  -1.274  10.275 -2.1707  1.7297  2.1200
  687MOL0     H94769  12.645  -1.320  10.236  0.4401  0.0667 -1.1263
  687MOL0     H94770  12.925  -0.985  10.211  0.0572 -1.0867 -1.5173
  687MOL0     H94771  12.919  -1.021  10.384  0.2655  1.5226 -0.9850
  687MOL0     H94772  13.068  -1.213  10.370  0.1360  0.5877 -0.9705
  687MOL0     H94773  13.073  -1.197  10.191  0.3971  0.9707 -1.2977
  687MOL0     H94774  13.192  -0.995  10.385  2.2652 -1.0968  0.8821
  687MOL0     H94775  13.191  -0.960  10.219 -1.0294  1.6310  0.4462
  687MOL0     H94776  13.339  -1.184  10.186  0.6875 -1.6541  0.8001
  687MOL0     H94777  13.312  -1.220  10.360 -0.9340 -0.6323 -0.1373
  687MOL0     H94778  13.452  -0.973  10.270 -0.3279  0.9267  2.2546
  687MOL0     H94779  13.426  -1.002  10.428  1.0704  0.2421  0.5993
  687MOL0     H94780  13.591  -1.179  10.247  0.4299 -2.3303  1.2548
  687MOL0     H94781  13.532  -1.225  10.412 -3.0577  0.4768  0.1858
  687MOL0     H94782  13.751  -1.129  10.458 -0.6432 -2.2567 -2.2589
  687MOL0     H94783  13.647  -0.980  10.463 -1.3586  1.6406 -2.7234
  687MOL0     H94784  13.699  -0.956  10.225  1.0202  1.3927 -0.7590
  687MOL0     H94785  13.812  -1.092  10.218 -0.7675 -0.1219 -1.1808
  687MOL0     H94786  12.733  -0.903  10.275 -1.4290  1.5670 -0.4248
  687MOL0     H94787  12.487  -0.857  10.255  2.3059  1.4897 -4.4056
  687MOL0     H94788  12.022  -1.190  10.035  2.5228  0.9344  0.4653
  687MOL0     H94789  11.765  -1.202  10.094 -0.1315 -0.3735  0.5197
  687MOL0     H94790  11.314   0.565  10.687 -1.3911  0.5783  0.8070
  687MOL0     H94791  11.180   0.743  10.636  0.9801  1.5974 -1.0198
  687MOL0     H94792  11.028   1.049  10.420 -1.1419  4.5260  0.5248
  687MOL0     H94793  10.893   1.252  10.414 -0.9872  0.7240  0.9052
  687MOL0     H94794  10.660   1.487  10.297 -0.7609  0.1114 -1.1369
  687MOL0     H94795  10.812   1.405  10.244 -0.1409 -2.4142  0.3037
  687MOL0     H94796  10.651   1.320  10.054  0.1632 -0.2396  0.3004
  687MOL0     H94797  10.742   1.471  10.041  0.0376 -1.8466 -0.8324
  687MOL0     H94798  10.461   1.465  10.160  1.2327  1.5954  0.9054
  687MOL0     H94799  10.546   1.594  10.076  3.0092  0.1921 -2.0989
  687MOL0     H94800  10.444   1.351   9.914 -0.2951  0.5226 -4.3245
  687MOL0     H94801  10.550   1.476   9.864  1.1624  0.2286  0.4290
  687MOL0     H94802  10.188   1.692   9.882  0.3393  0.4734  0.7447
  687MOL0     H94803  10.574   1.037  10.219 -0.2193  0.4667  1.2694
  687MOL0     H94804  10.579   0.830  10.153 -1.2893 -1.3974  1.8636
  687MOL0     H94805  10.738   0.803  10.082 -1.1428  0.5936  0.1841
  687MOL0     H94806  10.694   0.729  10.240 -0.8209  0.0521  0.4712
  688MOL0     O94807   2.060   2.648   4.705 -1.1211  0.3085  0.2440
  688MOL0     C94808   2.059   2.569   4.794 -0.3531 -0.3572 -1.1172
  688MOL0     O94809   2.146   2.462   4.814 -0.0155 -0.3894  0.3817
  688MOL0     C94810   2.225   2.412   4.720 -0.1057 -0.2707 -0.2074
  688MOL0     C94811   2.218   2.275   4.694 -0.2788 -1.1241  0.4304
  688MOL0     C94812   2.295   2.215   4.601 -0.5955  0.4437  1.0886
  688MOL0     C94813   2.380   2.289   4.524  0.5335  0.7092  0.3388
  688MOL0     O94814   2.466   2.218   4.434 -0.8975 -0.1247 -0.0263
  688MOL0     C94815   2.604   2.238   4.473  0.5335  0.5165 -0.3372
  688MOL0     C94816   2.682   2.165   4.361 -0.0117 -1.0679 -0.7350
  688MOL0     C94817   2.837   2.193   4.363  0.2750 -0.0501 -0.1016
  688MOL0     C94818   2.901   2.117   4.244 -0.1647 -0.5999 -0.8107
  688MOL0     C94819   2.871   2.155   4.101 -0.2681 -0.2875 -0.1253
  688MOL0     C94820   2.912   2.301   4.068  0.1137  0.4176 -0.2214
  688MOL0     C94821   3.068   2.314   4.064 -0.7686 -0.7194 -0.3929
  688MOL0     C94822   3.105   2.462   4.047 -0.2552  0.2019 -0.1505
  688MOL0     N94823   3.248   2.467   4.015  0.7508 -0.2840 -0.0844
  688MOL0     C94824   3.302   2.410   3.907 -0.5856 -0.7947 -0.2519
  688MOL0     C94825   3.432   2.447   3.906 -0.0500  0.6925  0.2351
  688MOL0     C94826   3.527   2.407   3.789 -0.1845 -0.1628 -0.8737
  688MOL0     C94827   3.549   2.252   3.787  0.2912  0.0894 -0.2848
  688MOL0     C94828   3.641   2.207   3.664  0.7134  0.0975 -0.0191
  688MOL0     C94829   3.784   2.255   3.690 -0.7856  0.2648 -0.4756
  688MOL0     O94830   3.859   2.198   3.579  0.2673  0.3196  0.1836
  688MOL0     C94831   3.980   2.133   3.588 -0.2871 -0.2857  0.5385
  688MOL0     C94832   4.018   2.060   3.470 -0.2102 -0.8767  0.2363
  688MOL0     C94833   4.132   1.981   3.463 -0.1173  0.5272 -0.3021
  688MOL0     C94834   4.162   1.915   3.334 -0.1243  0.6486  1.3225
  688MOL0     C94835   4.207   1.958   3.578  0.1845  0.5071  0.9516
  688MOL0     C94836   4.332   1.888   3.578 -0.1553 -1.0906 -0.1959
  688MOL0     O94837   4.385   1.832   3.695 -0.6486  0.0652 -0.1516
  688MOL0     C94838   4.525   1.798   3.691  0.7912  0.0603 -0.3887
  688MOL0     C94839   4.622   1.898   3.679  0.4001  0.3176 -0.1329
  688MOL0     C94840   4.751   1.870   3.692  0.0930 -0.6967  0.7223
  688MOL0     C94841   4.792   1.737   3.707  0.4776 -0.4502  0.2048
  688MOL0     O94842   4.928   1.727   3.729 -0.1115  0.0133 -0.4363
  688MOL0     C94843   4.983   1.597   3.758 -0.6117 -0.3303  0.1132
  688MOL0     C94844   5.133   1.606   3.751 -0.0778 -0.9192  0.0587
  688MOL0     C94845   5.181   1.708   3.858  0.2518  0.8621  0.1072
  688MOL0     C94846   5.337   1.699   3.881 -0.6626  0.2948  0.7596
  688MOL0     C94847   5.376   1.566   3.949 -0.1561  0.8429 -0.5868
  688MOL0     C94848   5.529   1.563   3.993 -0.7140  0.1602  0.8177
  688MOL0     C94849   5.625   1.563   3.867  0.5341  0.0605  0.3332
  688MOL0     C94850   5.754   1.479   3.903  0.0246  0.5146  0.2660
  688MOL0    Cl94851   5.901   1.534   3.835 -0.4018 -0.2905  0.0529
  688MOL0     C94852   4.706   1.625   3.717  0.4339  0.5129 -0.3620
  688MOL0     C94853   4.564   1.663   3.700 -0.7551  0.3155 -0.2057
  688MOL0     O94854   4.401   1.900   3.474  0.2852  0.0938 -0.1575
  688MOL0     C94855   4.165   2.015   3.695 -0.2515 -0.2474 -1.2996
  688MOL0     C94856   4.057   2.105   3.707 -0.4056 -0.2147  0.2992
  688MOL0     N94857   3.463   2.525   4.014  0.4776  0.7693 -0.2938
  688MOL0     N94858   3.347   2.539   4.070  0.1270  0.0198 -0.5034
  688MOL0     C94859   2.386   2.427   4.532 -0.8508  0.6667  0.3235
  688MOL0     C94860   2.319   2.491   4.647  0.0696  0.1427  0.3076
  688MOL0     C94861   1.957   2.601   4.899  0.5399 -0.0049  0.1360
  688MOL0     C94862   1.911   2.491   4.985 -0.4761 -0.2909 -0.6510
  688MOL0     C94863   1.815   2.504   5.078  0.3038 -0.0765 -0.4529
  688MOL0     C94864   1.759   2.626   5.093  1.0015 -0.4479  0.5782
  688MOL0     O94865   1.659   2.651   5.188 -0.3070 -0.0650 -1.0247
  688MOL0     C94866   1.553   2.560   5.197  0.1374 -0.0985 -1.1223
  688MOL0     C94867   1.440   2.645   5.250  0.9385  0.1938 -0.4438
  688MOL0     C94868   1.316   2.552   5.267  0.9728  0.3191  0.3781
  688MOL0     C94869   1.188   2.629   5.285  0.7974  0.6825 -0.4313
  688MOL0     C94870   1.166   2.730   5.177 -0.0804 -1.4561 -0.6661
  688MOL0     C94871   1.143   2.813   5.098  0.3360  0.0869  1.3682
  688MOL0     C94872   1.799   2.742   5.025 -0.4334 -0.6144 -0.3602
  688MOL0     C94873   1.898   2.728   4.926  0.2310  0.5821 -0.4435
  688MOL0     C94874   1.924   2.855   4.847 -1.3114 -0.3564  0.8017
  688MOL0     H94875   2.166   2.217   4.769 -2.3861 -0.7674 -0.6835
  688MOL0     H94876   2.304   2.111   4.573  1.5109  1.0443 -0.8719
  688MOL0     H94877   2.640   2.192   4.566 -0.1152  1.5842  0.4673
  688MOL0     H94878   2.624   2.346   4.464 -2.6128  1.2541  0.2943
  688MOL0     H94879   2.640   2.064   4.365 -3.3628  0.0742 -2.8207
  688MOL0     H94880   2.642   2.205   4.267 -0.3032 -1.5350 -0.8124
  688MOL0     H94881   2.854   2.300   4.345  0.8594 -0.1412 -0.0968
  688MOL0     H94882   2.892   2.164   4.452  0.4195 -2.1695 -0.8323
  688MOL0     H94883   3.009   2.111   4.255  0.1066  2.1368 -1.3795
  688MOL0     H94884   2.867   2.013   4.251  0.5193 -0.7500  0.5025
  688MOL0     H94885   2.763   2.148   4.085 -0.1770 -1.8007 -0.2141
  688MOL0     H94886   2.907   2.091   4.019 -1.7907  1.1189 -1.9858
  688MOL0     H94887   2.865   2.334   3.975  2.5844 -1.9249 -2.4325
  688MOL0     H94888   2.873   2.374   4.140  2.4256  3.0683 -1.4601
  688MOL0     H94889   3.104   2.257   3.978  0.3594 -0.1275 -0.3339
  688MOL0     H94890   3.115   2.278   4.156  2.4212  0.9498 -1.2038
  688MOL0     H94891   3.043   2.503   3.967 -4.6579 -1.1852  2.2351
  688MOL0     H94892   3.086   2.519   4.138  2.8321 -0.7247  1.2357
  688MOL0     H94893   3.243   2.362   3.829  0.4257  0.9904 -2.2322
  688MOL0     H94894   3.626   2.450   3.802  0.7161 -1.7424 -2.0565
  688MOL0     H94895   3.487   2.439   3.692 -0.7701 -0.5493 -0.7638
  688MOL0     H94896   3.606   2.219   3.875 -0.5649  1.3905  0.8088
  688MOL0     H94897   3.450   2.206   3.774 -0.2455  1.2408 -0.3619
  688MOL0     H94898   3.642   2.099   3.680  0.4618  0.2131  0.8393
  688MOL0     H94899   3.598   2.245   3.571  0.9061  1.1365  0.3089
  688MOL0     H94900   3.787   2.363   3.670 -0.9388  0.3444 -0.0851
  688MOL0     H94901   3.823   2.233   3.789  0.9672 -1.3290 -1.4709
  688MOL0     H94902   3.939   2.075   3.397 -0.7325  0.3786  1.0257
  688MOL0     H94903   4.164   1.806   3.335  0.0079  0.6251  0.2041
  688MOL0     H94904   4.256   1.954   3.294  0.4387  0.9066  2.8461
  688MOL0     H94905   4.079   1.938   3.266 -0.2531  0.7093  1.4982
  688MOL0     H94906   4.592   2.002   3.669  1.5282  0.5972 -0.9287
  688MOL0     H94907   4.827   1.947   3.702 -1.7897  1.0901  2.6997
  688MOL0     H94908   4.950   1.563   3.857  2.2896 -1.0535  0.9358
  688MOL0     H94909   4.962   1.524   3.680 -1.0218  0.8119 -0.8663
  688MOL0     H94910   5.181   1.508   3.766  0.9702 -0.4914 -0.4123
  688MOL0     H94911   5.148   1.651   3.652  0.9020 -1.7625 -0.2013
  688MOL0     H94912   5.121   1.691   3.948  0.2108 -5.0582 -0.6015
  688MOL0     H94913   5.159   1.810   3.827 -2.4199  1.1631  2.6141
  688MOL0     H94914   5.384   1.785   3.930  1.0870  1.2916 -2.4005
  688MOL0     H94915   5.378   1.703   3.780  1.1280 -0.8081  1.3966
  688MOL0     H94916   5.312   1.550   4.036  3.2991  0.3949  2.0556
  688MOL0     H94917   5.350   1.483   3.882 -2.8974  0.4245  0.8621
  688MOL0     H94918   5.539   1.477   4.060 -1.0651 -0.7373 -0.2571
  688MOL0     H94919   5.563   1.646   4.056  0.5441 -1.5932  2.5700
  688MOL0     H94920   5.655   1.667   3.850  0.3662 -0.1906 -1.6887
  688MOL0     H94921   5.572   1.523   3.781 -0.1425  1.8499 -0.1266
  688MOL0     H94922   5.741   1.379   3.863 -0.7085 -0.3758  2.5435
  688MOL0     H94923   5.773   1.477   4.011  1.1888 -1.4754  0.0597
  688MOL0     H94924   4.751   1.527   3.727  0.1360  0.3376 -0.7377
  688MOL0     H94925   4.480   1.596   3.714 -0.2120 -0.1425  0.9611
  688MOL0     H94926   4.213   1.986   3.788 -0.5148 -0.0268 -1.0924
  688MOL0     H94927   4.030   2.132   3.808 -2.0603  1.4308 -0.5231
  688MOL0     H94928   2.446   2.487   4.465  0.6182 -1.1158 -0.0420
  688MOL0     H94929   2.323   2.598   4.662 -0.8777  0.3273 -0.6480
  688MOL0     H94930   1.958   2.393   4.987 -0.9267 -0.5399  1.8955
  688MOL0     H94931   1.789   2.425   5.147 -3.8257  0.8565 -0.6559
  688MOL0     H94932   1.528   2.512   5.102 -0.3068  0.3040 -1.2153
  688MOL0     H94933   1.582   2.477   5.261 -0.4255 -0.3903 -1.2358
  688MOL0     H94934   1.417   2.723   5.176  3.7022  0.4108 -1.1933
  688MOL0     H94935   1.463   2.697   5.344  0.7578  0.4020 -0.5134
  688MOL0     H94936   1.307   2.493   5.175 -1.2683  1.4078 -0.1715
  688MOL0     H94937   1.334   2.487   5.353  1.6863  1.0364  0.7846
  688MOL0     H94938   1.197   2.675   5.383 -0.8936 -1.4596  0.8305
  688MOL0     H94939   1.095   2.572   5.296  1.1399  0.4385  1.3690
  688MOL0     H94940   1.125   2.901   5.039  1.8737 -0.1293  0.5358
  688MOL0     H94941   1.745   2.835   5.037 -0.9538 -0.6968 -1.8927
  688MOL0     H94942   2.029   2.883   4.833 -2.1662  3.3913  0.6386
  688MOL0     H94943   1.877   2.840   4.750  3.1527 -1.9226 -1.3645
  688MOL0     H94944   1.871   2.939   4.895 -1.5701  1.4566 -2.4017
  689MOL0     O94945   1.897   6.299   5.520  0.2143  0.7570 -0.4000
  689MOL0     C94946   1.939   6.275   5.409  0.1165 -0.0842 -0.2096
  689MOL0     O94947   1.861   6.266   5.291 -0.5501 -0.3647 -0.2216
  689MOL0     C94948   1.733   6.310   5.307  0.1178  0.5014  0.5503
  689MOL0     C94949   1.636   6.212   5.296 -0.3249  0.2573 -0.5199
  689MOL0     C94950   1.498   6.246   5.297 -0.1493  0.1119  0.1101
  689MOL0     C94951   1.459   6.381   5.304  0.0691 -0.1833  0.2814
  689MOL0     O94952   1.330   6.403   5.296 -0.1589  0.1613 -0.3382
  689MOL0     C94953   1.290   6.508   5.207  0.6849 -0.5114  0.7137
  689MOL0     C94954   1.167   6.467   5.127 -0.6819  0.5278 -0.1659
  689MOL0     C94955   1.046   6.423   5.201 -0.4853  0.5160 -0.5499
  689MOL0     C94956   0.929   6.391   5.115 -0.2136 -1.0825  0.6623
  689MOL0     C94957   0.796   6.477   5.165 -0.7270  1.0439 -0.3630
  689MOL0     C94958   0.815   6.620   5.109 -0.3609  0.3024  0.2636
  689MOL0     C94959   0.683   6.697   5.110  0.7901  0.1138  0.1092
  689MOL0     C94960   0.706   6.846   5.130  0.3481 -0.7161  0.3008
  689MOL0     N94961   0.589   6.927   5.085 -0.4911  0.6151  0.5123
  689MOL0     C94962   0.456   6.896   5.120 -0.2487 -0.6825 -0.4000
  689MOL0     C94963   0.379   6.997   5.064 -0.0694  0.5900 -0.3584
  689MOL0     C94964   0.228   7.014   5.079  0.7110 -0.0588  0.7085
  689MOL0     C94965   0.189   7.058   5.221 -0.1115  0.2066 -0.3043
  689MOL0     C94966   0.269   7.184   5.251 -0.2292  0.3310  0.2307
  689MOL0     C94967   0.206   7.251   5.371 -0.3307  0.5500 -0.1319
  689MOL0     O94968   0.221   7.160   5.483 -1.2037 -0.0772  0.7041
  689MOL0     C94969   0.147   7.182   5.597 -0.1596 -0.4005  0.6694
  689MOL0     C94970   0.107   7.311   5.635 -0.3193  0.1171 -0.4634
  689MOL0     C94971   0.030   7.333   5.748  0.4932 -0.3765 -0.2411
  689MOL0     C94972  -0.030   7.472   5.774  0.5426  1.1319  0.3163
  689MOL0     C94973  -0.006   7.220   5.832 -0.0364  0.5653 -0.0657
  689MOL0     C94974  -0.055   7.239   5.977 -0.7835  0.8695  0.3580
  689MOL0     O94975  -0.071   7.116   6.045  0.3628 -0.1969  0.2831
  689MOL0     C94976  -0.165   7.105   6.148  0.0134 -1.1890  0.6968
  689MOL0     C94977  -0.139   7.011   6.243 -0.3902 -0.9608  0.1618
  689MOL0     C94978  -0.236   6.964   6.326  0.1040  0.0864 -1.1936
  689MOL0     C94979  -0.361   7.021   6.335  1.0408 -0.5711  0.1666
  689MOL0     O94980  -0.445   6.982   6.436  0.8041  0.0284 -0.3635
  689MOL0     C94981  -0.559   7.062   6.485 -0.5871  0.9017 -0.0376
  689MOL0     C94982  -0.603   6.990   6.615 -0.1116 -0.2085  0.0291
  689MOL0     C94983  -0.734   7.046   6.677 -1.1055 -0.4154  0.1167
  689MOL0     C94984  -0.756   7.023   6.830 -0.5032 -0.0755 -0.7990
  689MOL0     C94985  -0.884   7.087   6.877  0.1135 -0.3514  0.3659
  689MOL0     C94986  -0.875   7.230   6.932 -0.1041 -1.0417  0.8748
  689MOL0     C94987  -1.011   7.305   6.931  0.6176 -0.9641  0.3674
  689MOL0     C94988  -1.006   7.459   6.954  0.4598 -0.0350 -1.0078
  689MOL0    Cl94989  -0.918   7.492   7.110 -0.1013 -0.0872 -0.0456
  689MOL0     C94990  -0.394   7.122   6.240 -0.1699 -0.2984  0.1345
  689MOL0     C94991  -0.298   7.154   6.143 -0.4801 -0.1865 -0.4008
  689MOL0     O94992  -0.084   7.347   6.019  0.7550  0.5138  0.2082
  689MOL0     C94993   0.032   7.090   5.791  0.6841 -0.4168  0.8225
  689MOL0     C94994   0.114   7.075   5.673  0.1585 -0.2078 -0.2051
  689MOL0     N94995   0.471   7.086   5.004  0.5847 -0.5285  0.2464
  689MOL0     N94996   0.595   7.050   5.023  0.6986 -0.7638 -0.1697
  689MOL0     C94997   1.556   6.481   5.302  0.0283 -0.1234 -0.2320
  689MOL0     C94998   1.695   6.444   5.302  1.0173 -0.2515  0.5019
  689MOL0     C94999   2.081   6.237   5.377  0.2942  0.5761 -1.0329
  689MOL0     C95000   2.115   6.163   5.255  0.5398 -0.1727 -0.3115
  689MOL0     C95001   2.250   6.134   5.223 -0.0688 -0.0902  0.0991
  689MOL0     C95002   2.353   6.171   5.309  0.1023 -0.0392  0.7895
  689MOL0     O95003   2.483   6.150   5.256  1.5341  0.8025 -0.1098
  689MOL0     C95004   2.538   6.279   5.242 -0.2310 -0.8574 -0.1143
  689MOL0     C95005   2.683   6.253   5.184 -0.1982 -0.4607 -0.0293
  689MOL0     C95006   2.687   6.198   5.036  0.2209 -0.5842  0.7284
  689MOL0     C95007   2.674   6.049   5.008  0.2310  0.0107 -0.8156
  689MOL0     C95008   2.738   5.965   5.110 -0.4308 -0.2498 -0.3020
  689MOL0     C95009   2.792   5.906   5.203 -0.0003  0.4477  0.3944
  689MOL0     C95010   2.323   6.214   5.440  0.5388  0.0006  0.7265
  689MOL0     C95011   2.189   6.254   5.474  0.5964 -0.2964 -0.2418
  689MOL0     C95012   2.176   6.314   5.609  0.4486 -1.1365 -0.1919
  689MOL0     H95013   1.654   6.105   5.287 -1.9530 -0.0934  0.1039
  689MOL0     H95014   1.420   6.172   5.288 -1.0298  1.1600 -1.4620
  689MOL0     H95015   1.363   6.534   5.130 -0.2940  0.1505 -0.0082
  689MOL0     H95016   1.269   6.579   5.287  0.5989 -0.3622  0.5585
  689MOL0     H95017   1.135   6.558   5.075  2.0249  1.5712 -0.1714
  689MOL0     H95018   1.192   6.387   5.057  0.7652  1.4441 -0.7359
  689MOL0     H95019   1.060   6.341   5.272 -1.1495  0.0842 -0.9109
  689MOL0     H95020   1.016   6.508   5.263 -2.2986  0.4054 -1.2046
  689MOL0     H95021   0.951   6.427   5.014 -3.2177 -0.9267 -0.0137
  689MOL0     H95022   0.922   6.282   5.120  2.5037 -1.3234  0.6817
  689MOL0     H95023   0.773   6.481   5.272 -3.3606  1.4171 -0.8794
  689MOL0     H95024   0.713   6.431   5.112  0.2144  0.8741 -1.7465
  689MOL0     H95025   0.880   6.659   5.188 -2.2156 -1.3094  2.7873
  689MOL0     H95026   0.852   6.631   5.007 -0.3594  0.4806  0.2829
  689MOL0     H95027   0.630   6.659   5.198 -1.2813  0.3090 -1.0141
  689MOL0     H95028   0.628   6.697   5.016  0.6112  2.8393  0.1353
  689MOL0     H95029   0.721   6.868   5.236  1.2633  0.5621 -0.0790
  689MOL0     H95030   0.805   6.870   5.089  0.6165  0.0122  1.3555
  689MOL0     H95031   0.418   6.822   5.189 -2.2881  0.7489  0.0978
  689MOL0     H95032   0.168   6.925   5.059  0.9677 -0.5663  2.0539
  689MOL0     H95033   0.188   7.097   5.020 -0.2999 -1.6279 -0.8793
  689MOL0     H95034   0.082   7.078   5.232 -0.2271 -1.2247  1.6638
  689MOL0     H95035   0.223   6.976   5.284  0.1520  1.7923  1.7172
  689MOL0     H95036   0.372   7.158   5.277  0.0141 -1.4169 -2.0967
  689MOL0     H95037   0.273   7.250   5.164  2.4590  0.3048  0.2362
  689MOL0     H95038   0.243   7.346   5.410 -2.8183  0.3640  3.1566
  689MOL0     H95039   0.099   7.263   5.353 -0.6532 -1.1507  0.4057
  689MOL0     H95040   0.125   7.393   5.565  0.7071 -1.6294 -2.3774
  689MOL0     H95041  -0.011   7.508   5.876 -0.8805  1.2994  0.5368
  689MOL0     H95042  -0.138   7.464   5.765  0.3863  2.5553  0.6707
  689MOL0     H95043   0.000   7.548   5.701  4.5363 -3.0101 -2.8976
  689MOL0     H95044  -0.040   6.966   6.244 -0.6603 -1.6032  2.4725
  689MOL0     H95045  -0.213   6.880   6.390 -2.4757  0.7722  0.7766
  689MOL0     H95046  -0.529   7.165   6.502  3.1323  0.0939 -0.9065
  689MOL0     H95047  -0.630   7.061   6.401 -0.3099  1.6363 -0.2809
  689MOL0     H95048  -0.618   6.882   6.610  0.5446 -0.3689  1.2045
  689MOL0     H95049  -0.519   7.003   6.684  3.2568  0.8290 -3.8085
  689MOL0     H95050  -0.825   7.008   6.630 -3.2195  2.5259  1.4631
  689MOL0     H95051  -0.724   7.154   6.661 -1.2702 -0.1831  1.4530
  689MOL0     H95052  -0.670   7.064   6.883 -0.5318 -0.7695 -0.1960
  689MOL0     H95053  -0.769   6.915   6.841 -1.4815  0.1500  0.5755
  689MOL0     H95054  -0.958   7.088   6.797  2.4673  2.2777 -2.0239
  689MOL0     H95055  -0.915   7.038   6.970 -2.0954  4.3120  2.4056
  689MOL0     H95056  -0.816   7.295   6.866 -1.3335  1.2694  1.9203
  689MOL0     H95057  -0.835   7.221   7.033  0.7160 -1.2264  0.5362
  689MOL0     H95058  -1.074   7.266   7.011 -0.8265 -0.2077 -0.3664
  689MOL0     H95059  -1.060   7.282   6.837  0.3144  0.6952  0.0809
  689MOL0     H95060  -1.111   7.488   6.962  0.0191 -1.7007 -0.2332
  689MOL0     H95061  -0.962   7.518   6.873  0.9184  0.3565 -0.4853
  689MOL0     H95062  -0.492   7.169   6.235 -0.4461 -0.9794 -1.5066
  689MOL0     H95063  -0.330   7.218   6.062 -0.0162  1.6957  0.8464
  689MOL0     H95064  -0.010   7.004   5.842 -2.8341  0.4444 -0.3391
  689MOL0     H95065   0.150   6.979   5.638  4.5754  2.5578 -4.4767
  689MOL0     H95066   1.532   6.587   5.299  0.8306  0.1073  0.8466
  689MOL0     H95067   1.772   6.520   5.311  0.6594  0.0350  1.1632
  689MOL0     H95068   2.030   6.148   5.189  0.3239  2.3151 -0.7120
  689MOL0     H95069   2.275   6.079   5.133 -1.5478 -2.9379  1.3138
  689MOL0     H95070   2.483   6.334   5.166  2.1810 -0.9408 -2.0614
  689MOL0     H95071   2.535   6.337   5.335 -3.7213  1.0573 -1.2386
  689MOL0     H95072   2.733   6.185   5.254  2.3280  0.8322 -0.4814
  689MOL0     H95073   2.736   6.348   5.184 -0.3196 -0.3927 -0.2293
  689MOL0     H95074   2.609   6.254   4.983  0.2577 -1.0246  0.1896
  689MOL0     H95075   2.781   6.235   4.993 -0.1284  0.9624  1.2598
  689MOL0     H95076   2.710   6.019   4.909  1.9509  1.8346 -0.8054
  689MOL0     H95077   2.571   6.013   5.009  0.9022 -2.0239 -0.9121
  689MOL0     H95078   2.834   5.870   5.295  2.1772  1.2727 -0.2271
  689MOL0     H95079   2.401   6.232   5.514 -0.1275 -1.4621  1.8540
  689MOL0     H95080   2.261   6.297   5.675 -1.0035 -0.6792  1.8989
  689MOL0     H95081   2.171   6.423   5.603 -0.1337 -0.9497  2.3544
  689MOL0     H95082   2.091   6.274   5.666 -2.2947  2.8625 -1.1066
  690MOL0     O95083  11.427   3.206   0.299 -0.0192 -0.5262 -0.1383
  690MOL0     C95084  11.397   3.288   0.387 -1.4900  0.8294  0.6439
  690MOL0     O95085  11.279   3.334   0.412 -0.3973  0.0031  0.7261
  690MOL0     C95086  11.171   3.264   0.368  0.8852 -0.3758 -0.1217
  690MOL0     C95087  11.136   3.251   0.228 -0.5956  0.9167 -0.8231
  690MOL0     C95088  11.015   3.194   0.188 -0.0415  0.6036 -0.0990
  690MOL0     C95089  10.924   3.151   0.284 -0.9038 -0.6429 -1.2750
  690MOL0     O95090  10.802   3.122   0.250  0.8586 -0.0150 -0.5107
  690MOL0     C95091  10.743   3.211   0.156 -0.5912 -0.7195 -0.1456
  690MOL0     C95092  10.590   3.196   0.161  0.2857  0.1148  0.7477
  690MOL0     C95093  10.530   3.224   0.305 -0.5701 -0.7753  0.1754
  690MOL0     C95094  10.401   3.308   0.304  0.4874  0.2706  0.1317
  690MOL0     C95095  10.297   3.257   0.203  0.2200  0.1306 -0.2961
  690MOL0     C95096  10.174   3.351   0.190 -0.3997 -0.1005 -0.2868
  690MOL0     C95097  10.062   3.333   0.302  1.1829  0.0143 -0.7027
  690MOL0     C95098   9.958   3.451   0.310  0.0940  0.2761  0.0873
  690MOL0     N95099  10.030   3.572   0.339 -0.6515  0.0103 -0.1369
  690MOL0     C95100  10.124   3.594   0.444 -0.5315 -0.5959 -0.0327
  690MOL0     C95101  10.148   3.726   0.438 -0.2238 -0.1966  0.2051
  690MOL0     C95102  10.244   3.808   0.528  0.3861 -0.1559  0.6428
  690MOL0     C95103  10.303   3.742   0.645  0.5360 -0.5697  0.3073
  690MOL0     C95104  10.401   3.635   0.591  1.5038  0.2765 -0.1163
  690MOL0     C95105  10.514   3.613   0.691  0.4410 -0.0969 -0.7518
  690MOL0     O95106  10.584   3.743   0.679 -0.1794 -0.5949 -0.8801
  690MOL0     C95107  10.685   3.772   0.775  0.2630 -0.7813 -0.5488
  690MOL0     C95108  10.757   3.672   0.833  0.1832  0.1053 -0.2651
  690MOL0     C95109  10.840   3.701   0.938 -0.0060 -0.8963  0.0298
  690MOL0     C95110  10.913   3.572   0.996  0.1281 -0.7878  0.4673
  690MOL0     C95111  10.862   3.837   0.983 -0.6721  0.2853 -1.1971
  690MOL0     C95112  10.956   3.870   1.089  0.3130  0.0032  0.3839
  690MOL0     O95113  11.064   3.790   1.115 -0.4594  0.3008 -0.0140
  690MOL0     C95114  11.147   3.806   1.220  0.4940  0.8490 -0.2611
  690MOL0     C95115  11.138   3.716   1.331  0.0364 -0.2623  0.5529
  690MOL0     C95116  11.229   3.741   1.440  0.3660 -0.1220  0.3700
  690MOL0     C95117  11.333   3.831   1.430 -0.6979  1.0061 -0.7104
  690MOL0     O95118  11.406   3.864   1.536 -1.3649 -0.0346 -1.2619
  690MOL0     C95119  11.449   3.756   1.625  0.9172  0.2035  0.0825
  690MOL0     C95120  11.550   3.816   1.719  0.2410  0.1674  0.1044
  690MOL0     C95121  11.678   3.827   1.640 -0.6816  0.0442 -0.9952
  690MOL0     C95122  11.787   3.887   1.744 -1.4179  0.3466  0.1097
  690MOL0     C95123  11.924   3.908   1.677  0.6279 -0.7871  0.1255
  690MOL0     C95124  12.001   4.030   1.728  0.6939 -1.2937 -0.3382
  690MOL0     C95125  12.146   4.011   1.714 -0.3103 -0.9382 -0.4143
  690MOL0     C95126  12.206   3.981   1.574 -0.3143  0.1827 -0.1321
  690MOL0    Cl95127  12.196   4.125   1.478 -0.2505 -0.1460 -0.1679
  690MOL0     C95128  11.350   3.904   1.309  0.1655  0.0620 -0.8405
  690MOL0     C95129  11.258   3.893   1.208 -0.7061 -0.7700 -0.5911
  690MOL0     O95130  10.921   3.973   1.158  0.0892  0.6504  0.6578
  690MOL0     C95131  10.799   3.933   0.904  0.4403 -0.4880  0.1122
  690MOL0     C95132  10.710   3.903   0.804 -0.5577 -0.3174  0.8914
  690MOL0     N95133  10.074   3.782   0.335  0.0125 -0.0357 -0.2327
  690MOL0     N95134  10.004   3.692   0.280 -0.1366 -0.3157 -0.9862
  690MOL0     C95135  10.960   3.159   0.426  0.8094 -0.2762 -0.6306
  690MOL0     C95136  11.089   3.208   0.466  0.7107  0.4988 -0.8302
  690MOL0     C95137  11.510   3.325   0.476  0.3749 -0.6715 -0.3847
  690MOL0     C95138  11.477   3.416   0.588  0.3738 -0.4386 -0.2620
  690MOL0     C95139  11.571   3.456   0.680 -0.1270  0.0981  0.3166
  690MOL0     C95140  11.697   3.408   0.662  0.0876  1.0930  0.0353
  690MOL0     O95141  11.796   3.451   0.745 -0.3290  0.0244 -0.3498
  690MOL0     C95142  11.809   3.366   0.861 -0.9201  0.0840  0.7071
  690MOL0     C95143  11.897   3.423   0.966  0.6541  0.1073  0.5444
  690MOL0     C95144  11.887   3.329   1.083  0.5222  0.6685 -0.3831
  690MOL0     C95145  11.951   3.390   1.205 -0.5028 -0.4054  1.0088
  690MOL0     C95146  11.975   3.281   1.301  0.2458  0.1453 -0.3075
  690MOL0     C95147  12.001   3.194   1.382 -0.3712 -0.6675 -0.4561
  690MOL0     C95148  11.734   3.312   0.571  0.2063  0.2406  0.0145
  690MOL0     C95149  11.639   3.275   0.471 -0.1468  0.6251  1.2187
  690MOL0     C95150  11.698   3.166   0.370 -0.1910  0.1737 -1.0245
  690MOL0     H95151  11.203   3.284   0.149 -1.3476 -0.6951 -2.1721
  690MOL0     H95152  10.997   3.163   0.086 -1.4407  1.0344 -0.0033
  690MOL0     H95153  10.797   3.179   0.066  3.2906 -0.6751  1.9888
  690MOL0     H95154  10.774   3.312   0.184 -2.1398  0.5946 -2.7622
  690MOL0     H95155  10.546   3.260   0.084  0.7768  0.7549  0.9910
  690MOL0     H95156  10.551   3.098   0.132  1.4383 -0.3849  0.8779
  690MOL0     H95157  10.510   3.122   0.341  0.3630 -1.6426 -1.6484
  690MOL0     H95158  10.592   3.279   0.376 -1.8402  0.9937 -0.0225
  690MOL0     H95159  10.353   3.304   0.403 -1.2172 -0.7972 -0.6952
  690MOL0     H95160  10.438   3.409   0.288  1.8428  0.0321  1.5116
  690MOL0     H95161  10.266   3.153   0.220 -1.0677  0.7709  1.6543
  690MOL0     H95162  10.335   3.260   0.101  3.2018 -0.3191  0.6907
  690MOL0     H95163  10.202   3.456   0.194 -0.7673  0.1162 -2.2948
  690MOL0     H95164  10.131   3.334   0.091  0.6079  0.1713 -0.7838
  690MOL0     H95165  10.105   3.331   0.402  1.0414  1.9261 -0.5779
  690MOL0     H95166  10.004   3.241   0.286 -1.1648  1.5141 -1.3110
  690MOL0     H95167   9.899   3.457   0.218  0.1912  1.5275  0.0921
  690MOL0     H95168   9.881   3.439   0.386 -0.6685 -1.0525 -0.8603
  690MOL0     H95169  10.160   3.512   0.504 -0.7824 -0.6639  0.0280
  690MOL0     H95170  10.187   3.897   0.557 -2.2818 -1.4517 -0.3265
  690MOL0     H95171  10.322   3.835   0.457 -0.5757  0.3071 -0.2499
  690MOL0     H95172  10.357   3.820   0.699  0.0738  0.4950 -0.7204
  690MOL0     H95173  10.227   3.699   0.711 -0.0794  0.1943  0.1145
  690MOL0     H95174  10.342   3.543   0.586 -0.6787  1.3784  2.7184
  690MOL0     H95175  10.444   3.659   0.493 -2.5834  1.8856 -1.7190
  690MOL0     H95176  10.473   3.620   0.792 -1.8148  0.2575 -1.6340
  690MOL0     H95177  10.583   3.536   0.656  0.2806 -0.0207 -1.2333
  690MOL0     H95178  10.742   3.566   0.817 -2.1443  0.6261 -1.9420
  690MOL0     H95179  11.019   3.598   0.999  0.0905 -0.4883 -0.5784
  690MOL0     H95180  10.909   3.485   0.929  2.6364  1.9189 -3.6109
  690MOL0     H95181  10.876   3.551   1.097 -0.9340 -4.3593 -0.5037
  690MOL0     H95182  11.070   3.632   1.341  1.6327 -1.6795 -0.0682
  690MOL0     H95183  11.203   3.675   1.522 -3.3456 -1.0239 -1.2810
  690MOL0     H95184  11.366   3.720   1.687  1.9904 -0.0975  1.3884
  690MOL0     H95185  11.485   3.668   1.572 -0.2839  0.2528 -0.8735
  690MOL0     H95186  11.524   3.916   1.758  1.7102  0.4048  0.5451
  690MOL0     H95187  11.560   3.745   1.801 -1.5791  0.2868  0.4883
  690MOL0     H95188  11.665   3.889   1.551 -2.4394  0.0962 -0.7316
  690MOL0     H95189  11.715   3.730   1.605  3.5024  1.5808 -1.3464
  690MOL0     H95190  11.802   3.833   1.838  1.3897 -2.6000 -1.8054
  690MOL0     H95191  11.753   3.988   1.769  0.5761  1.0070  0.3106
  690MOL0     H95192  11.985   3.819   1.694  0.9636 -0.4949  0.4709
  690MOL0     H95193  11.918   3.922   1.568  0.8355 -0.9588  0.0909
  690MOL0     H95194  11.973   4.045   1.832 -1.8886 -2.0571 -0.8458
  690MOL0     H95195  11.974   4.116   1.666 -1.0424  0.6412  2.8184
  690MOL0     H95196  12.158   3.924   1.779  0.3833 -1.3018 -1.0180
  690MOL0     H95197  12.199   4.099   1.753  2.5293 -1.0709 -3.4478
  690MOL0     H95198  12.156   3.902   1.516 -0.8989  0.3616  0.1248
  690MOL0     H95199  12.311   3.955   1.585 -0.6363 -2.0836 -1.6268
  690MOL0     H95200  11.424   3.979   1.283 -0.9541  0.8811 -1.7901
  690MOL0     H95201  11.270   3.960   1.124  1.2520  0.0281  0.2809
  690MOL0     H95202  10.819   4.036   0.929 -4.3234  0.1958  2.2194
  690MOL0     H95203  10.659   3.975   0.740 -0.6130 -0.2564  1.0030
  690MOL0     H95204  10.880   3.126   0.492 -2.2104 -0.2428 -3.9524
  690MOL0     H95205  11.104   3.212   0.573 -1.9525 -3.6150 -0.0752
  690MOL0     H95206  11.377   3.456   0.597  0.0028 -1.2091 -0.8682
  690MOL0     H95207  11.560   3.520   0.767  2.0385 -1.8593  2.1713
  690MOL0     H95208  11.710   3.344   0.902 -1.7965 -1.5642 -1.9863
  690MOL0     H95209  11.849   3.268   0.832 -1.8148  0.5400 -2.5714
  690MOL0     H95210  11.868   3.522   1.001 -3.4730  0.5474 -3.2052
  690MOL0     H95211  12.001   3.436   0.935 -0.1976  2.0986 -1.8750
  690MOL0     H95212  11.785   3.291   1.089  0.4633  1.0126  1.1234
  690MOL0     H95213  11.948   3.240   1.064 -0.7294 -0.7105  1.7510
  690MOL0     H95214  11.888   3.470   1.245 -2.8789 -2.0826  0.8778
  690MOL0     H95215  12.050   3.427   1.178 -0.9662 -0.6196 -1.1531
  690MOL0     H95216  12.037   3.131   1.460 -0.0172  0.0547 -0.0247
  690MOL0     H95217  11.837   3.279   0.575  0.0237 -0.1920  1.7769
  690MOL0     H95218  11.733   3.227   0.286  1.5780 -0.0857 -0.5239
  690MOL0     H95219  11.775   3.108   0.422 -2.8925 -0.8253  2.1754
  690MOL0     H95220  11.625   3.091   0.340  0.8770 -1.1990 -0.3081
  691MOL0     O95221   0.521   2.456   3.192  0.2857  0.2425 -0.3162
  691MOL0     C95222   0.482   2.531   3.104  1.2825  0.1933 -0.2616
  691MOL0     O95223   0.509   2.532   2.969 -0.0074  0.2512 -1.3572
  691MOL0     C95224   0.586   2.424   2.927 -0.4371  0.4628  0.2405
  691MOL0     C95225   0.522   2.345   2.827 -1.0606 -0.0049 -0.7151
  691MOL0     C95226   0.595   2.271   2.737 -0.8961  0.3131 -0.4614
  691MOL0     C95227   0.735   2.272   2.744  0.3981  1.0930  0.5461
  691MOL0     O95228   0.819   2.187   2.665  0.0476 -1.0441 -0.5051
  691MOL0     C95229   0.770   2.081   2.591  0.3230  0.4777  0.0133
  691MOL0     C95230   0.868   2.026   2.486  0.3028  0.1630  0.6308
  691MOL0     C95231   0.901   2.137   2.381 -0.1688 -0.4893 -0.1009
  691MOL0     C95232   1.018   2.232   2.409 -0.5837  0.2173  0.6532
  691MOL0     C95233   1.064   2.308   2.285 -0.1047 -0.2522 -0.1792
  691MOL0     C95234   0.960   2.374   2.203 -0.2997 -0.8345 -0.6067
  691MOL0     C95235   0.894   2.488   2.282 -0.3397 -0.4964  0.5787
  691MOL0     C95236   0.772   2.548   2.231 -0.4401  0.3824  0.7618
  691MOL0     N95237   0.773   2.601   2.089 -0.1353 -0.1435 -0.1751
  691MOL0     C95238   0.773   2.523   1.972 -0.4869  0.0887 -0.4474
  691MOL0     C95239   0.810   2.612   1.874  0.4031  0.1187 -0.5130
  691MOL0     C95240   0.835   2.584   1.729  0.5294  0.5509  0.1813
  691MOL0     C95241   0.980   2.567   1.710  0.4203  0.5643  0.8563
  691MOL0     C95242   1.038   2.705   1.692  0.8202  0.0538 -0.7344
  691MOL0     C95243   1.185   2.705   1.644 -0.3077 -0.3134  0.3081
  691MOL0     O95244   1.240   2.834   1.629 -0.7768 -0.0106  0.5447
  691MOL0     C95245   1.290   2.893   1.745  0.9540 -1.1855 -0.0304
  691MOL0     C95246   1.399   2.848   1.819  0.7033  0.2231  0.0368
  691MOL0     C95247   1.454   2.917   1.925 -0.1018 -0.6832 -0.1567
  691MOL0     C95248   1.584   2.866   1.981  0.6649 -0.3267  1.0131
  691MOL0     C95249   1.405   3.043   1.964  0.7195 -0.9567 -0.8100
  691MOL0     C95250   1.474   3.129   2.071  0.5190 -0.8951  0.4695
  691MOL0     O95251   1.511   3.065   2.180 -0.0181 -0.6298  0.2400
  691MOL0     C95252   1.613   3.125   2.245  0.1235 -0.6470 -0.0709
  691MOL0     C95253   1.744   3.122   2.197 -0.5471  0.0722 -0.3842
  691MOL0     C95254   1.860   3.157   2.278  1.1963  0.4273  0.1080
  691MOL0     C95255   1.844   3.211   2.403  0.2247  0.8142  0.1655
  691MOL0     O95256   1.949   3.262   2.479 -1.2073  0.5614  0.0381
  691MOL0     C95257   2.077   3.191   2.488 -0.4601 -0.2023 -0.3320
  691MOL0     C95258   2.145   3.222   2.622  0.3076  0.4960  0.8944
  691MOL0     C95259   2.250   3.330   2.633  0.3027  0.7352 -0.7126
  691MOL0     C95260   2.217   3.457   2.554 -0.2440  0.3298  0.3277
  691MOL0     C95261   2.271   3.465   2.416 -0.0922  0.9000  0.2345
  691MOL0     C95262   2.188   3.535   2.314 -0.0554  0.8122  0.1032
  691MOL0     C95263   2.281   3.560   2.188  0.5463  1.0301  0.6878
  691MOL0     C95264   2.345   3.431   2.123  0.7540  0.2571 -0.7076
  691MOL0    Cl95265   2.502   3.378   2.200  0.2563  0.0530  0.0037
  691MOL0     C95266   1.712   3.230   2.447 -0.9903 -1.1174 -0.5140
  691MOL0     C95267   1.607   3.176   2.374 -0.1203  0.1805 -0.2300
  691MOL0     O95268   1.492   3.245   2.045 -0.3528 -0.4018  0.1289
  691MOL0     C95269   1.292   3.089   1.889 -0.4440  0.8173 -0.7778
  691MOL0     C95270   1.236   3.013   1.784  0.3052 -0.8370  0.3575
  691MOL0     N95271   0.801   2.738   1.931  0.5352  0.1671  0.9547
  691MOL0     N95272   0.802   2.723   2.057 -0.5064 -0.9707 -0.4561
  691MOL0     C95273   0.803   2.349   2.835  0.3117 -0.8552  0.1736
  691MOL0     C95274   0.726   2.428   2.924  0.3947  0.6930  0.2007
  691MOL0     C95275   0.365   2.615   3.147 -0.3076 -0.2709 -0.1655
  691MOL0     C95276   0.293   2.674   3.045  0.1033  0.9294 -0.0857
  691MOL0     C95277   0.180   2.755   3.074 -0.7920  0.6049  0.2355
  691MOL0     C95278   0.143   2.774   3.204  0.5338 -0.7285 -0.4679
  691MOL0     O95279   0.031   2.846   3.224  0.6349 -0.3618 -0.2727
  691MOL0     C95280  -0.056   2.828   3.338 -0.6143 -0.3127  0.5595
  691MOL0     C95281  -0.189   2.883   3.297 -0.1052  0.0411  1.2676
  691MOL0     C95282  -0.190   3.035   3.255 -0.1667  0.2061 -0.0501
  691MOL0     C95283  -0.175   3.129   3.369 -0.3888  0.2636 -1.1095
  691MOL0     C95284  -0.044   3.181   3.394 -0.7078 -0.0027 -0.6050
  691MOL0     C95285   0.065   3.230   3.420  1.1477 -0.0481  0.8636
  691MOL0     C95286   0.223   2.725   3.312 -0.4207  0.1765  0.0282
  691MOL0     C95287   0.331   2.640   3.285 -0.5882 -0.7125  0.2533
  691MOL0     C95288   0.411   2.587   3.400  0.0597 -0.7801  0.0810
  691MOL0     H95289   0.414   2.351   2.838 -0.9108  0.8420  0.4747
  691MOL0     H95290   0.562   2.207   2.657 -1.2595 -1.3722  0.9782
  691MOL0     H95291   0.691   2.128   2.531  0.1341  0.8392  0.5384
  691MOL0     H95292   0.723   2.009   2.659 -0.3609  0.1517 -0.7772
  691MOL0     H95293   0.969   2.004   2.523  1.5711  1.1999 -1.9451
  691MOL0     H95294   0.816   1.944   2.436 -1.6563  1.7700 -0.1163
  691MOL0     H95295   0.910   2.091   2.282 -2.4375 -3.0805  0.7683
  691MOL0     H95296   0.813   2.201   2.368 -3.4248 -3.9652  2.4474
  691MOL0     H95297   1.003   2.307   2.488  2.8712  0.1632  1.5539
  691MOL0     H95298   1.100   2.168   2.446  1.0818  1.9875  0.2093
  691MOL0     H95299   1.112   2.230   2.225  2.1301 -0.8872  2.2558
  691MOL0     H95300   1.148   2.375   2.303  1.4692 -2.0802 -0.4239
  691MOL0     H95301   1.018   2.411   2.118  4.3148 -2.8397  1.3040
  691MOL0     H95302   0.881   2.311   2.162 -0.4773 -1.1883  0.2548
  691MOL0     H95303   0.969   2.565   2.300 -0.9223  0.0970  0.5180
  691MOL0     H95304   0.869   2.449   2.381  2.9744 -1.0810  1.2994
  691MOL0     H95305   0.692   2.475   2.242  0.6543 -1.1572 -0.9005
  691MOL0     H95306   0.742   2.633   2.294  0.2109  1.1866  0.0254
  691MOL0     H95307   0.764   2.415   1.962  2.5401 -0.0354 -3.8832
  691MOL0     H95308   0.782   2.658   1.668 -0.1487 -1.6971 -2.1480
  691MOL0     H95309   0.789   2.490   1.695  0.7148  1.5294 -3.0902
  691MOL0     H95310   1.029   2.518   1.795  3.6817 -0.3968 -1.3887
  691MOL0     H95311   1.008   2.511   1.621  1.9498  3.4670 -0.6352
  691MOL0     H95312   0.976   2.761   1.622 -0.2585 -2.0548 -1.5680
  691MOL0     H95313   1.036   2.755   1.789  0.5477  0.6580 -1.0513
  691MOL0     H95314   1.252   2.641   1.703 -1.1901 -1.9425 -0.3825
  691MOL0     H95315   1.182   2.656   1.546 -2.3028 -1.4458  0.8792
  691MOL0     H95316   1.448   2.756   1.789  0.2196  0.4236 -1.4359
  691MOL0     H95317   1.640   2.812   1.905  0.3678  2.1865 -1.1630
  691MOL0     H95318   1.551   2.805   2.065  1.7521  0.6829  2.2117
  691MOL0     H95319   1.644   2.955   2.004 -0.4748  1.0085 -0.8426
  691MOL0     H95320   1.774   3.069   2.107  0.7780  1.0554 -0.5514
  691MOL0     H95321   1.960   3.141   2.239  1.8098  2.7254  0.5864
  691MOL0     H95322   2.049   3.086   2.482 -3.0138  0.3731  0.4039
  691MOL0     H95323   2.146   3.211   2.405  1.7783 -0.6931  1.3204
  691MOL0     H95324   2.065   3.238   2.694 -1.7530 -0.2020 -1.1186
  691MOL0     H95325   2.193   3.124   2.629 -1.1563 -0.3738 -0.5983
  691MOL0     H95326   2.343   3.284   2.600  0.0942  0.7484 -1.3298
  691MOL0     H95327   2.257   3.362   2.737  1.0267 -2.2447  0.2349
  691MOL0     H95328   2.235   3.551   2.608 -2.5162  3.4044 -3.6882
  691MOL0     H95329   2.107   3.455   2.549 -0.2425  0.0453  0.4221
  691MOL0     H95330   2.369   3.513   2.430  0.6518 -0.3017 -0.6506
  691MOL0     H95331   2.285   3.367   2.369 -4.3548 -0.2023  0.8282
  691MOL0     H95332   2.155   3.631   2.353  1.8134  1.7024 -0.3871
  691MOL0     H95333   2.101   3.471   2.293 -1.0858  2.0172  0.5950
  691MOL0     H95334   2.366   3.625   2.208  2.1781 -0.2651 -1.5095
  691MOL0     H95335   2.221   3.612   2.112  1.8190  1.6050  0.0540
  691MOL0     H95336   2.356   3.450   2.016  0.4280  2.4361 -0.3990
  691MOL0     H95337   2.273   3.349   2.114 -0.1437  1.1566 -2.1731
  691MOL0     H95338   1.696   3.280   2.542 -0.3372  1.0591 -1.4793
  691MOL0     H95339   1.505   3.187   2.411  0.2653  0.6829  0.7103
  691MOL0     H95340   1.245   3.182   1.920  0.9611  1.7783 -1.4609
  691MOL0     H95341   1.161   3.070   1.730 -0.0295 -2.9917 -1.5952
  691MOL0     H95342   0.912   2.344   2.828  0.4138 -0.4411  1.1815
  691MOL0     H95343   0.779   2.498   2.987  0.9056  1.8809 -1.4890
  691MOL0     H95344   0.321   2.663   2.941 -2.7257 -0.5880 -0.7872
  691MOL0     H95345   0.112   2.785   2.995  0.3223  0.4790 -0.8014
  691MOL0     H95346  -0.077   2.721   3.345 -2.6949  0.0225  0.3257
  691MOL0     H95347  -0.018   2.872   3.430  0.2582  0.3675 -0.1118
  691MOL0     H95348  -0.258   2.862   3.379  1.1798 -1.3360  2.0514
  691MOL0     H95349  -0.230   2.832   3.209 -0.5126 -2.7030  2.9276
  691MOL0     H95350  -0.106   3.047   3.186  0.7838 -3.3157  0.2924
  691MOL0     H95351  -0.285   3.054   3.205 -1.2451 -2.1589  0.9875
  691MOL0     H95352  -0.213   3.084   3.461 -0.0022 -0.1668 -1.1566
  691MOL0     H95353  -0.232   3.219   3.344  1.0166  0.4542 -4.1260
  691MOL0     H95354   0.164   3.260   3.446  1.2629  1.4132 -1.0050
  691MOL0     H95355   0.201   2.746   3.416  1.9358 -0.8746  0.8206
  691MOL0     H95356   0.374   2.627   3.495  0.1705  0.2043 -0.2867
  691MOL0     H95357   0.409   2.479   3.422 -0.2222 -0.1404  3.7662
  691MOL0     H95358   0.514   2.615   3.379  0.3969 -2.1976 -0.2817
  692MOL0     O95359   5.870   1.319   5.134 -0.0705 -0.2248  0.0972
  692MOL0     C95360   5.845   1.359   5.022  0.5087 -0.4142 -0.1034
  692MOL0     O95361   5.943   1.409   4.935 -0.0258  0.1140  0.0756
  692MOL0     C95362   6.076   1.404   4.981 -0.2494  0.9858 -0.2390
  692MOL0     C95363   6.123   1.515   5.052  0.4773 -0.4686 -0.2272
  692MOL0     C95364   6.260   1.521   5.084  0.6621  0.0580 -1.3546
  692MOL0     C95365   6.348   1.414   5.056  0.8675 -0.0535 -0.3423
  692MOL0     O95366   6.481   1.439   5.080 -0.0420  0.0535  0.5915
  692MOL0     C95367   6.587   1.351   5.020 -0.1444  0.8143 -0.6525
  692MOL0     C95368   6.728   1.400   5.068 -0.2677 -0.3757 -0.4454
  692MOL0     C95369   6.768   1.527   4.988 -0.4475  0.0641  0.6732
  692MOL0     C95370   6.923   1.535   5.013 -0.0230  0.8871 -0.7798
  692MOL0     C95371   6.976   1.669   4.976  0.0213  0.6700  0.5369
  692MOL0     C95372   6.961   1.774   5.097  0.2000 -0.0265  0.0017
  692MOL0     C95373   6.993   1.908   5.048 -0.6287 -0.4597  1.3533
  692MOL0     C95374   6.902   1.972   4.940 -0.0496  0.8992  0.6390
  692MOL0     N95375   6.933   2.112   4.912 -1.2353  0.6198  0.2089
  692MOL0     C95376   7.063   2.170   4.910 -0.2461 -0.1401  0.1512
  692MOL0     C95377   7.040   2.307   4.895 -0.7576 -0.0412 -0.9085
  692MOL0     C95378   7.145   2.419   4.898 -0.7839 -0.5851 -0.6674
  692MOL0     C95379   7.153   2.505   5.031 -0.1255  0.4663  0.4194
  692MOL0     C95380   7.158   2.415   5.153  0.7536 -0.2781  0.1083
  692MOL0     C95381   7.285   2.332   5.166 -0.6797 -0.9552 -0.0221
  692MOL0     O95382   7.278   2.252   5.281  0.4323  0.5505  0.4807
  692MOL0     C95383   7.377   2.270   5.373 -1.2809 -0.3135  0.7809
  692MOL0     C95384   7.381   2.383   5.439 -0.3534 -0.1069 -0.6982
  692MOL0     C95385   7.471   2.401   5.548 -0.3754 -0.0169 -0.6161
  692MOL0     C95386   7.468   2.537   5.617 -0.1359 -0.3512  0.6844
  692MOL0     C95387   7.558   2.301   5.591  0.6121  0.3958 -0.0616
  692MOL0     C95388   7.670   2.312   5.692  0.4419  0.2690  0.3649
  692MOL0     O95389   7.772   2.221   5.680  0.6507  0.8075 -0.0980
  692MOL0     C95390   7.905   2.249   5.732  0.7380  0.5989 -0.0297
  692MOL0     C95391   7.969   2.168   5.828 -0.0647 -0.3845 -0.2395
  692MOL0     C95392   8.092   2.193   5.872  0.1814 -0.7373  0.2184
  692MOL0     C95393   8.145   2.314   5.821 -1.5062 -0.7440  1.1355
  692MOL0     O95394   8.262   2.356   5.863  1.0627 -0.5946  0.6490
  692MOL0     C95395   8.307   2.343   5.995 -0.1412  0.7117  0.0776
  692MOL0     C95396   8.450   2.396   6.006  0.1444 -0.5438 -0.3208
  692MOL0     C95397   8.468   2.538   5.968 -0.3126  0.8816  0.2476
  692MOL0     C95398   8.623   2.567   5.980 -0.0214  0.8542 -0.1581
  692MOL0     C95399   8.685   2.531   5.838 -1.2602  0.4344  0.2705
  692MOL0     C95400   8.836   2.513   5.848 -0.8418  0.2937 -0.3155
  692MOL0     C95401   8.878   2.370   5.873  0.5170  0.4477 -0.2598
  692MOL0     C95402   9.031   2.352   5.887 -0.4793  0.2484  0.1093
  692MOL0    Cl95403   9.111   2.390   5.736  0.2145 -0.0444  0.3073
  692MOL0     C95404   8.096   2.394   5.720  0.2324  0.7593  0.0437
  692MOL0     C95405   7.971   2.357   5.671 -0.1302  0.8032  0.5268
  692MOL0     O95406   7.670   2.410   5.766 -0.3203  0.1753  0.2900
  692MOL0     C95407   7.561   2.184   5.501  0.9355 -0.4436  0.0645
  692MOL0     C95408   7.466   2.167   5.399  0.0058  0.0931 -0.3319
  692MOL0     N95409   6.904   2.330   4.892  0.0870  0.1547 -0.1921
  692MOL0     N95410   6.843   2.212   4.906 -0.1057  0.4760  0.6533
  692MOL0     C95411   6.293   1.303   4.991 -0.9412 -0.5661 -1.2735
  692MOL0     C95412   6.162   1.300   4.952  0.0218  0.4120 -0.8205
  692MOL0     C95413   5.707   1.382   4.971  0.2893 -0.1336 -0.1067
  692MOL0     C95414   5.598   1.367   5.058  0.6950 -0.5122  0.3052
  692MOL0     C95415   5.467   1.410   5.028  0.2628  0.4235 -0.0628
  692MOL0     C95416   5.435   1.446   4.889 -0.4665  0.3466 -0.6851
  692MOL0     O95417   5.317   1.469   4.835  0.6909  0.1955 -0.2434
  692MOL0     C95418   5.204   1.468   4.925  0.1332 -0.5394 -0.2134
  692MOL0     C95419   5.195   1.607   4.987  1.0942 -0.0073  0.6858
  692MOL0     C95420   5.072   1.615   5.084 -0.7179  0.3076 -0.0716
  692MOL0     C95421   4.929   1.621   5.024 -0.0731 -0.0277  0.5817
  692MOL0     C95422   4.836   1.584   5.131 -0.2023 -0.2764  0.4786
  692MOL0     C95423   4.775   1.557   5.233 -0.3055 -0.8168 -0.0190
  692MOL0     C95424   5.538   1.430   4.797  0.2590 -0.0609  0.3645
  692MOL0     C95425   5.673   1.412   4.833 -0.1666  0.1445 -0.8301
  692MOL0     C95426   5.778   1.390   4.725 -0.3706 -0.2088 -0.1742
  692MOL0     H95427   6.057   1.599   5.070  2.0119  0.8527 -0.5139
  692MOL0     H95428   6.313   1.607   5.125  1.0436 -1.1249  0.7847
  692MOL0     H95429   6.572   1.335   4.913 -0.2308 -0.9435 -0.4189
  692MOL0     H95430   6.568   1.253   5.066  2.3763  0.5049 -0.1267
  692MOL0     H95431   6.739   1.431   5.172  4.0636  2.9235 -1.5521
  692MOL0     H95432   6.794   1.314   5.058  1.5261  0.5931  2.1115
  692MOL0     H95433   6.755   1.511   4.881 -0.5498  2.6790  0.2247
  692MOL0     H95434   6.712   1.614   5.024  3.9751  2.2487  2.9885
  692MOL0     H95435   6.953   1.510   5.116 -1.6758  1.6078 -0.1018
  692MOL0     H95436   6.971   1.455   4.955  0.1621 -1.0596  1.8731
  692MOL0     H95437   6.910   1.685   4.889 -0.5240 -0.2059  0.7768
  692MOL0     H95438   7.080   1.655   4.948  0.4253 -0.3384  2.4395
  692MOL0     H95439   6.858   1.771   5.136  0.3549  1.2377  0.5415
  692MOL0     H95440   7.026   1.741   5.178 -1.9023 -0.1074  1.7543
  692MOL0     H95441   7.099   1.911   5.019 -0.6048  0.2887  1.4891
  692MOL0     H95442   6.975   1.983   5.126  0.6417  1.7352 -0.3587
  692MOL0     H95443   6.901   1.918   4.845 -2.0484  0.5068  0.8398
  692MOL0     H95444   6.802   1.958   4.981 -0.3959 -0.8738 -0.6998
  692MOL0     H95445   7.158   2.117   4.921 -0.8980 -1.2609  0.5457
  692MOL0     H95446   7.118   2.488   4.818  0.0715  0.9819  0.3516
  692MOL0     H95447   7.243   2.382   4.868 -0.5658 -1.1749  0.7156
  692MOL0     H95448   7.232   2.581   5.030  1.6267 -1.2371 -1.9016
  692MOL0     H95449   7.065   2.570   5.034  0.9508  1.9362  2.0298
  692MOL0     H95450   7.145   2.471   5.246 -0.8039 -1.5290  0.6856
  692MOL0     H95451   7.081   2.338   5.153  2.9152 -2.5807  0.0358
  692MOL0     H95452   7.293   2.275   5.073  0.5467 -0.0795 -0.4789
  692MOL0     H95453   7.367   2.404   5.165 -0.7632 -0.8587 -0.7006
  692MOL0     H95454   7.312   2.465   5.421 -0.0491  0.8296  1.9357
  692MOL0     H95455   7.387   2.601   5.578 -1.8709 -0.6729  3.4257
  692MOL0     H95456   7.569   2.578   5.606  0.5033 -1.7500  1.1544
  692MOL0     H95457   7.449   2.512   5.722 -0.6911 -0.8101  0.4807
  692MOL0     H95458   7.912   2.081   5.861 -0.4778 -0.2574 -0.5994
  692MOL0     H95459   8.149   2.135   5.944 -1.2480 -0.6471  1.4750
  692MOL0     H95460   8.246   2.408   6.058  0.3297 -0.7880  2.1665
  692MOL0     H95461   8.313   2.239   6.029  1.4145  0.8647  0.3677
  692MOL0     H95462   8.474   2.380   6.111 -0.6104 -0.0480 -0.0628
  692MOL0     H95463   8.527   2.338   5.954  1.3770 -0.0521  0.9191
  692MOL0     H95464   8.413   2.609   6.030 -0.1548  1.3455 -0.1410
  692MOL0     H95465   8.431   2.542   5.865  0.1693  1.8752  0.1056
  692MOL0     H95466   8.668   2.508   6.059  1.2345  2.1370  0.1343
  692MOL0     H95467   8.642   2.672   6.003  2.0318  0.4669  0.1386
  692MOL0     H95468   8.641   2.439   5.798 -0.6425  0.2240  0.0771
  692MOL0     H95469   8.669   2.613   5.768  0.1844  0.3868 -0.1459
  692MOL0     H95470   8.870   2.575   5.931  0.7727 -0.7436 -0.1584
  692MOL0     H95471   8.886   2.544   5.756  0.1659  0.3657  0.2441
  692MOL0     H95472   8.848   2.308   5.788  0.6309 -1.9591  1.3468
  692MOL0     H95473   8.826   2.337   5.964  0.3559 -0.5957 -0.7173
  692MOL0     H95474   9.070   2.260   5.931 -0.7603  0.9784  1.9959
  692MOL0     H95475   9.070   2.425   5.959  1.6349  0.7197 -1.4457
  692MOL0     H95476   8.144   2.483   5.682  0.4959 -0.4151 -2.6039
  692MOL0     H95477   7.917   2.402   5.588 -2.2082 -0.4716  1.1042
  692MOL0     H95478   7.645   2.116   5.507  2.7397  1.7142  0.6052
  692MOL0     H95479   7.465   2.076   5.339  0.3027 -1.4924  1.9418
  692MOL0     H95480   6.345   1.209   4.979  1.4840  0.2610  1.6275
  692MOL0     H95481   6.122   1.216   4.896 -3.6306  1.4095 -0.0295
  692MOL0     H95482   5.626   1.343   5.160  2.8420  1.2257  0.1933
  692MOL0     H95483   5.399   1.401   5.112  3.0264  1.2143  2.4261
  692MOL0     H95484   5.121   1.445   4.857  0.5346 -0.0591 -0.8739
  692MOL0     H95485   5.207   1.389   5.000  0.8870 -0.2298  0.0898
  692MOL0     H95486   5.180   1.689   4.916 -0.1708  0.3196  1.3043
  692MOL0     H95487   5.288   1.640   5.036  2.3354  1.1125 -2.2104
  692MOL0     H95488   5.083   1.532   5.154  2.0149  0.6060 -0.0446
  692MOL0     H95489   5.090   1.710   5.135  1.2059  0.3834 -0.8113
  692MOL0     H95490   4.915   1.551   4.942 -1.5552 -0.6903  1.3728
  692MOL0     H95491   4.903   1.717   4.978 -1.4238 -0.5777  0.1741
  692MOL0     H95492   4.716   1.546   5.322  0.8791 -1.5078  0.7217
  692MOL0     H95493   5.522   1.429   4.690  1.0616 -0.7284  0.2379
  692MOL0     H95494   5.819   1.289   4.739  2.0653  0.9221  1.5095
  692MOL0     H95495   5.742   1.402   4.622 -1.1428  1.0411  0.2203
  692MOL0     H95496   5.849   1.472   4.740 -0.5044 -0.1571  0.1909
  693MOL0     O95497   2.839   5.278   5.030  0.2299  0.7562  0.5763
  693MOL0     C95498   2.755   5.325   4.956  0.6597 -0.0007  0.0954
  693MOL0     O95499   2.780   5.432   4.870  0.1658  0.4485  0.3280
  693MOL0     C95500   2.889   5.503   4.893  0.2296 -0.3750 -0.1684
  693MOL0     C95501   2.888   5.626   4.968  0.5217  0.1845 -0.1769
  693MOL0     C95502   3.004   5.703   4.990  0.0702 -0.6863  0.5704
  693MOL0     C95503   3.124   5.649   4.940 -0.1947  0.1823 -0.3888
  693MOL0     O95504   3.237   5.716   4.987  0.1263  0.3080 -0.2112
  693MOL0     C95505   3.365   5.681   4.937  0.0599  0.5261  0.4556
  693MOL0     C95506   3.474   5.784   4.965  1.0345 -0.1531  0.5088
  693MOL0     C95507   3.606   5.756   4.907 -0.4196  0.3355  0.1941
  693MOL0     C95508   3.690   5.651   4.978 -0.8487 -0.1223 -0.2729
  693MOL0     C95509   3.839   5.638   4.929 -0.2522  0.1175 -0.6295
  693MOL0     C95510   3.912   5.762   4.875  1.2394 -0.3734 -0.2919
  693MOL0     C95511   4.054   5.730   4.843 -0.2859  0.2682 -0.0041
  693MOL0     C95512   4.136   5.733   4.968 -0.0300  0.6977 -0.7104
  693MOL0     N95513   4.273   5.688   4.936  0.5793  0.3080 -0.2385
  693MOL0     C95514   4.366   5.629   5.022  0.2254 -0.2541  0.1177
  693MOL0     C95515   4.465   5.602   4.940 -0.2261  0.1415  1.1900
  693MOL0     C95516   4.595   5.526   4.948  0.8610  0.0712  0.6281
  693MOL0     C95517   4.694   5.611   5.021 -1.3863 -0.0670 -0.0838
  693MOL0     C95518   4.672   5.633   5.175 -0.2037  0.1987  0.1445
  693MOL0     C95519   4.796   5.687   5.252  1.0568 -0.5753 -0.0850
  693MOL0     O95520   4.844   5.806   5.188  0.3186 -0.4033 -0.3617
  693MOL0     C95521   4.983   5.819   5.170  0.0136 -0.6413 -0.0042
  693MOL0     C95522   5.074   5.784   5.267  0.0612  0.2997  0.7311
  693MOL0     C95523   5.215   5.807   5.259 -0.3827 -0.1911  0.1351
  693MOL0     C95524   5.296   5.781   5.381 -0.1652 -0.2481 -0.8496
  693MOL0     C95525   5.270   5.861   5.142 -0.0728 -0.0462 -0.3060
  693MOL0     C95526   5.418   5.893   5.121 -0.1215  1.0517  0.3622
  693MOL0     O95527   5.509   5.880   5.223  0.5831 -0.2627  0.9483
  693MOL0     C95528   5.647   5.894   5.204  0.4107  0.2651 -0.3804
  693MOL0     C95529   5.722   5.922   5.317 -0.1614  0.0603  0.6440
  693MOL0     C95530   5.859   5.931   5.314 -1.0657 -0.8625 -0.4201
  693MOL0     C95531   5.930   5.913   5.198 -0.7036  0.6072  0.7345
  693MOL0     O95532   6.067   5.929   5.200 -0.0570  0.1752  0.0589
  693MOL0     C95533   6.158   5.888   5.091 -0.2688  0.0276 -0.1528
  693MOL0     C95534   6.301   5.930   5.126  0.4544 -0.2285  0.3922
  693MOL0     C95535   6.361   5.842   5.233 -0.1537 -0.0319 -0.1961
  693MOL0     C95536   6.485   5.913   5.286  0.5084 -0.7519 -0.0999
  693MOL0     C95537   6.543   5.833   5.397  0.1798  0.5514 -0.3697
  693MOL0     C95538   6.685   5.888   5.427 -0.3336  0.2992 -0.7661
  693MOL0     C95539   6.749   5.776   5.522  0.0901 -0.1735  0.1106
  693MOL0     C95540   6.873   5.837   5.585  0.8592 -0.7309  0.1308
  693MOL0    Cl95541   6.991   5.715   5.654  0.0371 -0.1179  0.0857
  693MOL0     C95542   5.864   5.892   5.082 -0.7363 -0.8958  0.7889
  693MOL0     C95543   5.720   5.875   5.084  0.0584 -0.1186  0.2480
  693MOL0     O95544   5.449   5.940   5.012 -0.4908 -0.1408 -0.1644
  693MOL0     C95545   5.176   5.894   5.040 -0.1652 -0.4601  0.0488
  693MOL0     C95546   5.032   5.873   5.053 -0.3114  0.1050 -0.2037
  693MOL0     N95547   4.449   5.663   4.817  0.8342  0.2680 -0.0251
  693MOL0     N95548   4.334   5.717   4.818  0.5194 -0.3053  0.4114
  693MOL0     C95549   3.129   5.525   4.875  0.3584 -0.4756 -0.4935
  693MOL0     C95550   3.011   5.455   4.843 -0.1345 -0.1370 -0.1981
  693MOL0     C95551   2.617   5.254   4.942  0.2088 -0.1178  0.2861
  693MOL0     C95552   2.519   5.306   4.846  0.3635  0.1288  0.3343
  693MOL0     C95553   2.404   5.243   4.813  0.0364  0.2402 -0.4079
  693MOL0     C95554   2.373   5.119   4.873 -0.3877 -0.0454 -1.1188
  693MOL0     O95555   2.258   5.048   4.845 -0.7935 -0.0481 -0.0439
  693MOL0     C95556   2.147   5.111   4.784 -0.5699  0.6089 -0.3549
  693MOL0     C95557   2.080   5.191   4.895  0.2727  0.7063  0.2067
  693MOL0     C95558   1.953   5.271   4.851  0.1713  0.0604  0.7648
  693MOL0     C95559   1.989   5.383   4.741  0.1860 -0.1899  0.0061
  693MOL0     C95560   2.094   5.470   4.794  0.0545 -1.1146 -0.3029
  693MOL0     C95561   2.184   5.539   4.839  0.4125 -0.0405  0.3180
  693MOL0     C95562   2.452   5.079   4.982 -0.9737 -0.1822  0.0311
  693MOL0     C95563   2.576   5.136   5.015  1.1412 -0.6333 -0.1799
  693MOL0     C95564   2.656   5.076   5.122 -0.4539 -0.5301  0.7045
  693MOL0     H95565   2.785   5.651   4.989 -0.8412 -2.0478 -3.3552
  693MOL0     H95566   2.992   5.794   5.048 -1.4334 -0.7117  0.3206
  693MOL0     H95567   3.361   5.674   4.828 -1.4318  2.8586  0.2866
  693MOL0     H95568   3.389   5.583   4.980 -3.9487 -1.2576 -0.8243
  693MOL0     H95569   3.446   5.882   4.927 -1.1060 -0.9932 -0.2500
  693MOL0     H95570   3.473   5.793   5.074  1.4673  2.3765  0.3535
  693MOL0     H95571   3.592   5.719   4.805 -1.3010  0.2864  0.3236
  693MOL0     H95572   3.659   5.851   4.915  0.8584  0.1531 -3.8068
  693MOL0     H95573   3.703   5.689   5.080 -0.6768  0.8814 -0.6551
  693MOL0     H95574   3.638   5.555   4.973 -0.4012 -0.5916  2.5158
  693MOL0     H95575   3.851   5.556   4.858  1.6930 -0.5723  0.3989
  693MOL0     H95576   3.892   5.596   5.015 -1.5566 -0.4544 -0.0694
  693MOL0     H95577   3.854   5.788   4.785  0.6583  1.9936  0.6945
  693MOL0     H95578   3.898   5.848   4.941  0.9577 -0.3452 -0.3836
  693MOL0     H95579   4.090   5.803   4.770 -1.2959  0.0941 -0.7011
  693MOL0     H95580   4.067   5.631   4.798  0.0720  0.8491 -1.2327
  693MOL0     H95581   4.139   5.838   4.999 -0.8896 -0.0106  1.9847
  693MOL0     H95582   4.092   5.679   5.052 -0.8011  1.8527 -0.3517
  693MOL0     H95583   4.354   5.587   5.122 -0.9020 -1.8233 -0.6247
  693MOL0     H95584   4.624   5.499   4.846 -1.5076  0.8766 -0.3391
  693MOL0     H95585   4.579   5.437   5.010 -1.4025 -0.2790 -0.3676
  693MOL0     H95586   4.790   5.560   5.005 -1.6413  0.2023 -3.0001
  693MOL0     H95587   4.685   5.711   4.978 -1.4942 -0.3117 -0.6478
  693MOL0     H95588   4.593   5.709   5.181 -2.2031 -1.7130 -0.5858
  693MOL0     H95589   4.625   5.546   5.222 -1.5992 -0.1768 -1.8003
  693MOL0     H95590   4.765   5.719   5.351  1.5982  1.2198 -0.4583
  693MOL0     H95591   4.870   5.607   5.263 -0.3358 -1.8526  0.3760
  693MOL0     H95592   5.027   5.730   5.348 -1.4287 -2.1159 -1.5726
  693MOL0     H95593   5.248   5.716   5.454 -1.6376 -0.2312 -1.7749
  693MOL0     H95594   5.329   5.868   5.440  0.3720 -1.4327  0.6673
  693MOL0     H95595   5.395   5.737   5.363  1.0024  1.0697  1.6959
  693MOL0     H95596   5.666   5.934   5.409  0.9024 -0.5959  1.4093
  693MOL0     H95597   5.923   5.959   5.397  1.4123 -1.7521 -1.9173
  693MOL0     H95598   6.150   5.781   5.069  1.5155 -0.4698  1.4057
  693MOL0     H95599   6.129   5.941   5.000 -1.8231 -0.5226 -0.0167
  693MOL0     H95600   6.349   5.938   5.028 -1.0477  3.1544 -0.2237
  693MOL0     H95601   6.297   6.033   5.162  1.2053  0.5269 -1.5289
  693MOL0     H95602   6.382   5.744   5.191  0.8210 -0.0003  0.2137
  693MOL0     H95603   6.297   5.828   5.320  0.6062 -0.8555  0.2345
  693MOL0     H95604   6.452   6.011   5.324  0.6793  0.0377 -1.8910
  693MOL0     H95605   6.554   5.934   5.204 -0.6466 -2.6982 -1.6614
  693MOL0     H95606   6.478   5.853   5.482  1.6473 -0.9975  1.1764
  693MOL0     H95607   6.548   5.726   5.376 -1.0184  0.6247 -1.1413
  693MOL0     H95608   6.676   5.988   5.470  1.0376  0.0836  0.0764
  693MOL0     H95609   6.743   5.901   5.335  1.4477 -2.0043 -0.0767
  693MOL0     H95610   6.778   5.691   5.460  1.2988  0.3753 -0.0947
  693MOL0     H95611   6.674   5.752   5.598 -0.0833  2.3648  0.8408
  693MOL0     H95612   6.834   5.898   5.667 -1.5252 -2.1703  0.1502
  693MOL0     H95613   6.924   5.901   5.512  2.8466 -2.0576  0.2761
  693MOL0     H95614   5.912   5.889   4.984 -4.2468  0.9433 -1.1827
  693MOL0     H95615   5.683   5.849   4.986 -1.2247 -2.7995  1.3204
  693MOL0     H95616   5.206   5.947   4.951  0.2544  1.6629  1.3790
  693MOL0     H95617   4.961   5.906   4.978  0.5108  1.5592 -0.3769
  693MOL0     H95618   3.230   5.489   4.856  1.6147  0.7372  3.0086
  693MOL0     H95619   3.010   5.348   4.824 -1.8020 -0.1398 -0.2034
  693MOL0     H95620   2.533   5.398   4.790 -2.5911 -0.7664 -2.1385
  693MOL0     H95621   2.351   5.288   4.729  2.3636  5.1864  0.4117
  693MOL0     H95622   2.184   5.182   4.709 -1.0544  2.8815  1.4223
  693MOL0     H95623   2.075   5.049   4.730  1.1584 -1.0322 -0.8718
  693MOL0     H95624   2.159   5.253   4.937  2.9372 -1.7809 -0.7677
  693MOL0     H95625   2.043   5.123   4.972 -3.5010 -0.7731 -2.5535
  693MOL0     H95626   1.875   5.199   4.826 -0.2332  0.3007  1.3311
  693MOL0     H95627   1.928   5.332   4.939 -3.0189 -1.3427  0.9657
  693MOL0     H95628   1.899   5.442   4.720 -0.5021 -0.9487  0.7141
  693MOL0     H95629   2.023   5.336   4.648  2.5191  2.1221 -0.4207
  693MOL0     H95630   2.259   5.604   4.880 -1.0121  0.2786  2.6263
  693MOL0     H95631   2.419   4.988   5.033  0.4394 -0.3031  0.7633
  693MOL0     H95632   2.760   5.067   5.088 -0.4513  0.1912  0.5101
  693MOL0     H95633   2.659   5.139   5.211 -0.6066 -2.0198  1.8058
  693MOL0     H95634   2.626   4.972   5.138  1.7553 -1.6290 -1.5315
  694MOL0     O95635   6.399   9.210   4.886  0.4370 -0.0766 -0.1913
  694MOL0     C95636   6.378   9.303   4.805  0.5590 -0.0554  0.5391
  694MOL0     O95637   6.430   9.430   4.812 -0.2146 -0.1404  1.1654
  694MOL0     C95638   6.495   9.467   4.928 -0.3319 -0.0721 -0.2871
  694MOL0     C95639   6.431   9.545   5.017 -0.6272  0.0279 -0.2533
  694MOL0     C95640   6.498   9.586   5.129  0.4789  0.1633 -0.5851
  694MOL0     C95641   6.628   9.552   5.160  0.1090 -0.4372 -0.2459
  694MOL0     O95642   6.707   9.603   5.267 -0.8133  0.4003 -0.0754
  694MOL0     C95643   6.697   9.747   5.288 -0.0688 -0.5962  0.9324
  694MOL0     C95644   6.822   9.807   5.341 -0.5786  0.3856  0.5464
  694MOL0     C95645   6.941   9.789   5.246  0.1884 -0.5125  0.2399
  694MOL0     C95646   7.081   9.813   5.310  0.2320 -0.1576  0.7307
  694MOL0     C95647   7.171   9.832   5.187 -0.2352 -0.7084 -0.1262
  694MOL0     C95648   7.305   9.884   5.239  0.7035 -0.8588  0.4913
  694MOL0     C95649   7.419   9.888   5.121 -0.5768 -0.2532 -0.2996
  694MOL0     C95650   7.476   9.743   5.093  0.4666 -0.1721  0.1128
  694MOL0     N95651   7.554   9.764   4.968  0.0708  0.4753 -0.4027
  694MOL0     C95652   7.541   9.694   4.849  0.8387  0.2626  0.5915
  694MOL0     C95653   7.636   9.745   4.763  1.6776  0.5353  0.8533
  694MOL0     C95654   7.653   9.696   4.622 -1.4967  0.8465  0.4149
  694MOL0     C95655   7.807   9.708   4.582  0.4657  0.1083  0.2815
  694MOL0     C95656   7.833   9.844   4.513  0.0367  0.0747 -0.0765
  694MOL0     C95657   7.982   9.875   4.459  0.2160  0.5064 -0.1535
  694MOL0     O95658   8.066   9.768   4.401 -0.3269  0.5518 -0.8626
  694MOL0     C95659   8.196   9.790   4.403 -0.4781  0.6131  0.3381
  694MOL0     C95660   8.284   9.677   4.403 -0.1694 -0.0110 -0.1491
  694MOL0     C95661   8.419   9.689   4.396  0.2512 -0.6107  0.4562
  694MOL0     C95662   8.506   9.565   4.417  0.0359 -0.0020  0.4424
  694MOL0     C95663   8.475   9.824   4.389  0.1709 -0.5761 -0.2709
  694MOL0     C95664   8.618   9.854   4.372 -0.1206 -0.0046  0.0161
  694MOL0     O95665   8.651   9.980   4.333  0.1897 -0.2205 -0.1752
  694MOL0     C95666   8.792  10.013   4.336  0.7274  0.4907  0.3905
  694MOL0     C95667   8.831  10.103   4.433  0.0053  0.0240  0.1460
  694MOL0     C95668   8.959  10.149   4.444  0.0390 -0.7563  0.2855
  694MOL0     C95669   9.056  10.109   4.346  0.2663  0.2852  0.3518
  694MOL0     O95670   9.177  10.177   4.350 -0.5333  0.8833 -0.6219
  694MOL0     C95671   9.258  10.188   4.228 -0.5837  0.0856  0.9545
  694MOL0     C95672   9.395  10.256   4.261  0.0981 -0.5481 -0.3429
  694MOL0     C95673   9.375  10.407   4.275  0.1680 -0.0118 -0.0581
  694MOL0     C95674   9.493  10.475   4.341 -0.1452 -0.1672  0.7285
  694MOL0     C95675   9.451  10.623   4.362 -0.1033  0.0649  0.6439
  694MOL0     C95676   9.330  10.661   4.452  0.0438  0.1281 -0.4793
  694MOL0     C95677   9.332  10.812   4.487  0.4278 -0.2558  0.4578
  694MOL0     C95678   9.195  10.852   4.539  0.9445 -0.5097  0.8265
  694MOL0    Cl95679   9.170  10.789   4.696 -0.1855 -0.0367 -0.0467
  694MOL0     C95680   9.020  10.015   4.246  0.8178 -0.2631 -0.0696
  694MOL0     C95681   8.891   9.966   4.245  0.6102 -0.2807 -0.2788
  694MOL0     O95682   8.696   9.766   4.386 -0.2488  0.3956  0.2121
  694MOL0     C95683   8.391   9.928   4.363  0.9587 -0.4574 -0.1529
  694MOL0     C95684   8.250   9.911   4.374 -1.3186  0.1951  0.6788
  694MOL0     N95685   7.707   9.842   4.828  0.0304  0.1793 -0.5253
  694MOL0     N95686   7.663   9.846   4.954  0.3476  0.0276  0.4400
  694MOL0     C95687   6.684   9.468   5.073 -0.7053  0.0742 -0.2447
  694MOL0     C95688   6.623   9.426   4.961 -0.2956 -0.8193 -0.9713
  694MOL0     C95689   6.277   9.277   4.697 -0.7861  0.3301  0.4870
  694MOL0     C95690   6.291   9.348   4.577  0.3551  0.1760  0.1062
  694MOL0     C95691   6.200   9.347   4.481  0.6014  0.4374  0.1205
  694MOL0     C95692   6.083   9.258   4.485 -0.1438  0.0972 -0.5768
  694MOL0     O95693   5.984   9.243   4.396  0.1058 -0.1591 -0.6457
  694MOL0     C95694   6.007   9.288   4.262 -0.1129  0.3311 -0.3595
  694MOL0     C95695   6.091   9.195   4.175 -0.2060 -0.7058  1.1450
  694MOL0     C95696   6.117   9.270   4.033 -0.3276  0.2395  0.6755
  694MOL0     C95697   6.186   9.180   3.934 -0.2223 -0.2344  0.9301
  694MOL0     C95698   6.164   9.223   3.792 -0.2047 -0.8265 -0.5460
  694MOL0     C95699   6.161   9.251   3.677  0.6449  1.0869 -0.1962
  694MOL0     C95700   6.084   9.178   4.598  0.3128  0.5041  0.3353
  694MOL0     C95701   6.167   9.187   4.707 -0.4433  0.5762 -0.0062
  694MOL0     C95702   6.129   9.106   4.820 -0.3043 -0.5964  0.1044
  694MOL0     H95703   6.326   9.569   5.004 -1.0900 -1.6033  0.3055
  694MOL0     H95704   6.436   9.650   5.191 -0.3317 -1.0680 -0.0896
  694MOL0     H95705   6.617   9.765   5.361 -0.5273  1.9962 -0.0872
  694MOL0     H95706   6.673   9.795   5.193 -0.1485  1.8401  2.0939
  694MOL0     H95707   6.805   9.914   5.357 -3.5495 -0.0826  1.1309
  694MOL0     H95708   6.847   9.769   5.440 -0.1556  1.8671  1.0421
  694MOL0     H95709   6.927   9.683   5.220 -0.5580 -0.5181  0.6372
  694MOL0     H95710   6.921   9.868   5.173 -3.7624 -1.1930  0.3506
  694MOL0     H95711   7.095   9.907   5.363 -0.1479 -0.3289  1.1401
  694MOL0     H95712   7.121   9.728   5.366  2.7224  0.3520 -0.1318
  694MOL0     H95713   7.116   9.888   5.110 -2.0990 -1.3648  0.6646
  694MOL0     H95714   7.186   9.734   5.141  0.4142  1.3075 -4.7245
  694MOL0     H95715   7.271   9.982   5.272  1.6105 -0.3638  0.0010
  694MOL0     H95716   7.350   9.814   5.310  1.9777 -2.8575 -2.0647
  694MOL0     H95717   7.497   9.949   5.167 -3.0438  1.4758  1.8784
  694MOL0     H95718   7.376   9.932   5.030  0.5866  2.4152  0.3332
  694MOL0     H95719   7.535   9.708   5.178  1.1222 -0.0965 -0.3052
  694MOL0     H95720   7.395   9.676   5.062  1.0171  0.4492 -3.0253
  694MOL0     H95721   7.473   9.610   4.833  2.1700 -1.0646  1.6806
  694MOL0     H95722   7.588   9.756   4.557 -1.6457  0.3657  0.1161
  694MOL0     H95723   7.618   9.593   4.611 -0.9355  0.7680 -0.7946
  694MOL0     H95724   7.874   9.688   4.667 -1.4224 -1.6250  1.4502
  694MOL0     H95725   7.821   9.631   4.506 -2.4030  1.2603 -1.5420
  694MOL0     H95726   7.775   9.847   4.420  0.7959  0.9186 -0.5355
  694MOL0     H95727   7.792   9.927   4.572 -2.6849 -0.2569 -1.3137
  694MOL0     H95728   7.967   9.939   4.372  1.6280  0.1001 -0.7392
  694MOL0     H95729   8.044   9.924   4.535  0.5966  1.9922 -1.3644
  694MOL0     H95730   8.239   9.580   4.418  2.2517 -0.9238  1.9486
  694MOL0     H95731   8.429   9.492   4.442 -0.1858  1.1127  3.4494
  694MOL0     H95732   8.575   9.569   4.502  0.3088 -0.0902  0.2236
  694MOL0     H95733   8.563   9.542   4.327 -1.5041 -0.3475 -0.4916
  694MOL0     H95734   8.752  10.144   4.497  1.7519 -0.3597  2.7175
  694MOL0     H95735   8.987  10.221   4.520  2.2640 -0.9716 -0.2721
  694MOL0     H95736   9.282  10.096   4.174 -1.1864  0.1287  0.6051
  694MOL0     H95737   9.198  10.246   4.158  1.8892  2.3634  0.5612
  694MOL0     H95738   9.428  10.218   4.358 -0.9151 -2.8011 -0.8075
  694MOL0     H95739   9.469  10.237   4.183 -0.5654  1.3977 -1.5398
  694MOL0     H95740   9.290  10.424   4.342  0.7064 -1.8283  1.1655
  694MOL0     H95741   9.358  10.449   4.175  2.6514  0.1433 -0.4875
  694MOL0     H95742   9.578  10.462   4.274 -2.0746 -1.7266 -1.5681
  694MOL0     H95743   9.510  10.423   4.435 -0.0328 -2.3947 -0.4657
  694MOL0     H95744   9.539  10.669   4.407  0.3518 -1.6742  1.6511
  694MOL0     H95745   9.444  10.660   4.259  0.6886  0.8975  0.8801
  694MOL0     H95746   9.318  10.597   4.540  1.0585  1.5256  0.7159
  694MOL0     H95747   9.241  10.643   4.391  0.7192 -4.8368 -0.4124
  694MOL0     H95748   9.365  10.876   4.405 -0.9634 -0.3393 -0.1905
  694MOL0     H95749   9.403  10.831   4.569  2.7678  2.8804 -2.0455
  694MOL0     H95750   9.115  10.829   4.468  3.7646 -1.5904 -2.2514
  694MOL0     H95751   9.196  10.961   4.549 -0.8309 -0.3474 -0.2809
  694MOL0     H95752   9.092   9.981   4.173  0.3439 -1.7739  0.1351
  694MOL0     H95753   8.867   9.892   4.169 -0.6859  0.8353 -1.0108
  694MOL0     H95754   8.424  10.030   4.354 -1.1695  0.4673  1.4598
  694MOL0     H95755   8.180   9.992   4.354 -2.0783  0.1823  2.9740
  694MOL0     H95756   6.784   9.441   5.106  0.0564 -0.3715 -2.7081
  694MOL0     H95757   6.680   9.373   4.885 -0.6371  1.1647 -2.6966
  694MOL0     H95758   6.375   9.415   4.562 -1.0001  2.0459  0.5062
  694MOL0     H95759   6.228   9.404   4.392  0.5094 -0.2852 -0.3858
  694MOL0     H95760   5.906   9.290   4.220 -1.0561 -2.9413  1.4760
  694MOL0     H95761   6.050   9.389   4.267 -0.1334  0.3294 -0.1501
  694MOL0     H95762   6.043   9.099   4.157  0.1012 -0.2309 -3.8230
  694MOL0     H95763   6.189   9.177   4.221  0.3318  1.5667  1.0123
  694MOL0     H95764   6.021   9.306   3.995 -1.2172 -2.7842 -0.1887
  694MOL0     H95765   6.183   9.355   4.055  0.9303 -0.3364 -0.6730
  694MOL0     H95766   6.128   9.088   3.943 -5.1614  2.4765  0.2951
  694MOL0     H95767   6.292   9.194   3.958 -0.0083  1.6699 -0.8028
  694MOL0     H95768   6.177   9.262   3.572 -0.7258 -0.1718 -0.5726
  694MOL0     H95769   6.005   9.104   4.599  2.6738 -2.1892  0.4655
  694MOL0     H95770   6.073   9.169   4.891 -1.0758  0.3226 -1.2642
  694MOL0     H95771   6.060   9.026   4.791 -1.1140  0.6906 -1.8067
  694MOL0     H95772   6.217   9.062   4.866 -0.3351 -1.2674 -0.4637
  695MOL0     O95773  10.760  10.445   2.566 -0.2472  0.1117 -0.6130
  695MOL0     C95774  10.705  10.349   2.510 -0.0168 -0.6366 -0.4762
  695MOL0     O95775  10.759  10.226   2.497 -0.0787 -0.2597 -0.4553
  695MOL0     C95776  10.883  10.205   2.561 -0.2358  0.3688 -0.9780
  695MOL0     C95777  10.879  10.111   2.669  0.9983 -0.2302 -0.9493
  695MOL0     C95778  10.997  10.076   2.738 -1.2790  0.2874 -0.6268
  695MOL0     C95779  11.115  10.147   2.715  0.2701 -0.6406 -0.2333
  695MOL0     O95780  11.232  10.123   2.779 -0.2446  0.9524 -1.1900
  695MOL0     C95781  11.236  10.063   2.905  0.1377  0.2217 -1.4558
  695MOL0     C95782  11.389  10.040   2.932  0.3985 -0.2571  0.2527
  695MOL0     C95783  11.446   9.918   2.878  0.5016 -0.7144  0.6948
  695MOL0     C95784  11.595   9.926   2.884  0.4046 -0.1658 -0.5003
  695MOL0     C95785  11.658   9.785   2.884  0.3016 -0.0723  1.1218
  695MOL0     C95786  11.813   9.784   2.876 -0.1424 -0.0142 -0.3629
  695MOL0     C95787  11.879   9.645   2.871  0.7585 -0.0076  0.0378
  695MOL0     C95788  11.838   9.581   2.736  0.5562  0.3878 -0.8255
  695MOL0     N95789  11.870   9.432   2.739  0.7191 -0.4445 -0.0695
  695MOL0     C95790  11.970   9.362   2.808  0.4269  0.1380 -0.1617
  695MOL0     C95791  11.955   9.236   2.775 -0.6746  0.3273 -1.1971
  695MOL0     C95792  12.020   9.130   2.850  0.3362 -0.6816  0.2182
  695MOL0     C95793  12.173   9.144   2.826 -0.2701  0.2126  0.0897
  695MOL0     C95794  12.222   9.153   2.679 -0.1499 -0.0040 -0.8742
  695MOL0     C95795  12.156   9.047   2.592 -0.7132 -0.8355 -0.6086
  695MOL0     O95796  12.227   9.080   2.468  0.1095  0.2648  0.5536
  695MOL0     C95797  12.239   8.976   2.383 -0.6725 -1.4517  0.6763
  695MOL0     C95798  12.157   8.977   2.271 -0.4370 -0.0934 -0.2924
  695MOL0     C95799  12.153   8.881   2.170 -0.2465 -0.3659  0.7278
  695MOL0     C95800  12.039   8.871   2.072 -0.1928 -0.2766 -0.5576
  695MOL0     C95801  12.253   8.777   2.175 -0.0792  0.8679 -0.9410
  695MOL0     C95802  12.277   8.669   2.071 -0.2991 -0.0622  0.0945
  695MOL0     O95803  12.362   8.573   2.103 -0.1352  0.5102 -0.8673
  695MOL0     C95804  12.390   8.480   2.010  0.1198 -0.3299  0.1489
  695MOL0     C95805  12.344   8.346   2.029 -1.0540  1.2116  0.5748
  695MOL0     C95806  12.377   8.240   1.943 -0.8720  0.1563 -0.0433
  695MOL0     C95807  12.450   8.272   1.819 -0.1397  0.0622 -0.5903
  695MOL0     O95808  12.460   8.192   1.705  1.0585 -0.0272 -0.4213
  695MOL0     C95809  12.425   8.055   1.723 -0.0982  0.2871 -0.1471
  695MOL0     C95810  12.539   7.981   1.792 -0.1775 -1.2065  0.7691
  695MOL0     C95811  12.502   7.858   1.869 -0.8720 -0.5018  1.3178
  695MOL0     C95812  12.615   7.763   1.897 -0.1830 -0.4550  0.4401
  695MOL0     C95813  12.567   7.635   1.971  0.4534 -0.3877 -0.1883
  695MOL0     C95814  12.681   7.565   2.046  0.1247  1.0194  0.3314
  695MOL0     C95815  12.711   7.651   2.169  0.5421  0.2707 -0.2788
  695MOL0     C95816  12.834   7.609   2.234  0.3693  0.0402 -0.0507
  695MOL0    Cl95817  12.826   7.443   2.294 -0.2040 -0.0741 -0.2709
  695MOL0     C95818  12.491   8.406   1.798  0.0979  0.3101  0.4765
  695MOL0     C95819  12.465   8.508   1.892 -0.0591  0.7357 -0.6471
  695MOL0     O95820  12.238   8.690   1.961  0.0746 -0.2912  0.0029
  695MOL0     C95821  12.339   8.776   2.290 -0.2128  0.3919 -0.3356
  695MOL0     C95822  12.335   8.874   2.390  0.1199 -0.5587 -1.0097
  695MOL0     N95823  11.863   9.221   2.682 -0.1297  0.1723 -0.0385
  695MOL0     N95824  11.817   9.333   2.655 -0.6215 -0.6498 -0.0227
  695MOL0     C95825  11.115  10.239   2.611 -0.3391  0.6155 -0.1409
  695MOL0     C95826  11.003  10.270   2.535  0.0544 -0.5798 -0.5218
  695MOL0     C95827  10.580  10.387   2.441 -0.3161 -0.1068  0.4700
  695MOL0     C95828  10.558  10.522   2.416  0.3358 -0.3939 -0.7076
  695MOL0     C95829  10.448  10.574   2.359  0.4219  0.2821  0.3063
  695MOL0     C95830  10.347  10.487   2.311  0.8525  0.0687 -0.5735
  695MOL0     O95831  10.244  10.550   2.256  0.0849 -0.0255  0.3171
  695MOL0     C95832  10.144  10.473   2.194 -0.2285  0.5114  0.0807
  695MOL0     C95833  10.101  10.542   2.063 -0.7569  0.6806 -0.1083
  695MOL0     C95834  10.019  10.447   1.978  0.1627 -0.0781 -1.1009
  695MOL0     C95835  10.038  10.467   1.832 -0.7146  0.5518 -0.3422
  695MOL0     C95836   9.931  10.402   1.761  0.9297  0.8949 -0.1801
  695MOL0     C95837   9.838  10.340   1.722 -0.0472 -0.3152 -0.0849
  695MOL0     C95838  10.362  10.345   2.333  0.0286 -0.3773  0.0920
  695MOL0     C95839  10.479  10.295   2.390  0.5323 -0.6099  0.0588
  695MOL0     C95840  10.485  10.150   2.407  0.9910 -0.3055  0.7547
  695MOL0     H95841  10.786  10.057   2.680  0.3281  0.1721 -3.8481
  695MOL0     H95842  10.997   9.996   2.811  2.3238  2.6620  2.3475
  695MOL0     H95843  11.187   9.966   2.913  0.6526  0.0911  2.0029
  695MOL0     H95844  11.189  10.134   2.974  0.5305 -1.1402  0.2928
  695MOL0     H95845  11.434  10.126   2.882 -1.3948 -1.6468 -4.1935
  695MOL0     H95846  11.414  10.046   3.039  0.2772  0.0355  0.2680
  695MOL0     H95847  11.404   9.833   2.932  1.0460 -1.6142 -0.2687
  695MOL0     H95848  11.422   9.921   2.771  1.0199  1.4521  0.5810
  695MOL0     H95849  11.627   9.995   2.805 -2.5471  2.3395  0.3477
  695MOL0     H95850  11.621   9.976   2.977 -0.8699  3.5245 -1.9470
  695MOL0     H95851  11.618   9.748   2.789  2.8559  5.2454 -2.6058
  695MOL0     H95852  11.630   9.729   2.973  2.8288  2.8004  3.9751
  695MOL0     H95853  11.848   9.840   2.789 -2.1947  0.0587 -1.1848
  695MOL0     H95854  11.856   9.828   2.967 -0.8712 -1.9744  1.0061
  695MOL0     H95855  11.855   9.588   2.961  1.1195  2.4825  1.8473
  695MOL0     H95856  11.987   9.662   2.871  0.6411  0.8378 -1.4277
  695MOL0     H95857  11.729   9.581   2.724  0.2778 -0.4795  1.1516
  695MOL0     H95858  11.889   9.630   2.653  3.5603 -1.6731 -0.3518
  695MOL0     H95859  12.025   9.419   2.883  3.6278 -0.4132 -1.9337
  695MOL0     H95860  11.972   9.040   2.810 -2.5089  0.2491  1.2817
  695MOL0     H95861  12.003   9.133   2.958 -0.9053 -0.5762  0.0288
  695MOL0     H95862  12.225   9.218   2.888  3.4162 -1.7464 -0.3635
  695MOL0     H95863  12.216   9.052   2.866 -0.7944 -0.5013 -0.9583
  695MOL0     H95864  12.201   9.251   2.634  1.0267 -1.4086 -5.0176
  695MOL0     H95865  12.331   9.146   2.668 -0.3401 -1.6033 -2.2211
  695MOL0     H95866  12.184   8.953   2.640  3.0021 -0.4422 -1.6318
  695MOL0     H95867  12.052   9.071   2.570 -0.8718 -0.4914  0.4638
  695MOL0     H95868  12.079   9.052   2.282  0.6965  0.7514  3.5332
  695MOL0     H95869  12.004   8.768   2.059  0.8560 -0.3123 -5.0075
  695MOL0     H95870  12.069   8.909   1.973  0.8025  0.1881 -0.0986
  695MOL0     H95871  11.959   8.927   2.120  0.9673 -1.3913  2.9272
  695MOL0     H95872  12.293   8.316   2.120 -0.6307 -3.5612 -0.4865
  695MOL0     H95873  12.337   8.142   1.967  0.0438  0.3790  2.7119
  695MOL0     H95874  12.323   8.042   1.759 -0.1539 -0.6400 -0.6055
  695MOL0     H95875  12.402   7.996   1.633 -2.5954 -1.0893  1.2843
  695MOL0     H95876  12.604   7.958   1.707 -0.6298  0.0391  0.0601
  695MOL0     H95877  12.600   8.049   1.853  3.4489 -2.0190 -1.6191
  695MOL0     H95878  12.443   7.800   1.797 -0.3827  0.0771  0.4420
  695MOL0     H95879  12.440   7.874   1.958 -2.7895 -0.6211  0.0647
  695MOL0     H95880  12.706   7.810   1.936 -0.8980  1.5968 -0.2774
  695MOL0     H95881  12.650   7.716   1.805  2.0632 -1.0046  1.5046
  695MOL0     H95882  12.491   7.666   2.044  0.6572 -1.8316  0.6839
  695MOL0     H95883  12.507   7.560   1.918 -0.9615 -0.9714  2.0645
  695MOL0     H95884  12.778   7.551   1.997 -0.7182 -0.0847 -1.0901
  695MOL0     H95885  12.652   7.471   2.093 -1.9055  1.7066  0.5369
  695MOL0     H95886  12.637   7.652   2.249 -2.4435  3.1941 -2.7914
  695MOL0     H95887  12.710   7.756   2.138  0.2173  0.4948  0.4535
  695MOL0     H95888  12.855   7.684   2.311  1.0344  1.5016 -1.5714
  695MOL0     H95889  12.913   7.615   2.158  1.2777  3.1373  1.0051
  695MOL0     H95890  12.529   8.437   1.701 -1.6247 -1.4048 -0.8171
  695MOL0     H95891  12.488   8.611   1.869 -2.0907  1.1244 -1.0837
  695MOL0     H95892  12.407   8.696   2.318 -1.6236 -0.2488  1.3817
  695MOL0     H95893  12.406   8.859   2.471 -0.5347 -1.7612 -0.6244
  695MOL0     H95894  11.208  10.290   2.592  1.8569 -3.3337 -1.1695
  695MOL0     H95895  11.010  10.348   2.461 -1.5380  0.7093  0.6150
  695MOL0     H95896  10.636  10.591   2.446 -2.3638  3.1088 -1.0880
  695MOL0     H95897  10.427  10.681   2.352 -3.1715 -0.1375  1.9663
  695MOL0     H95898  10.176  10.373   2.163  1.3135  0.4977  1.5632
  695MOL0     H95899  10.055  10.461   2.256 -1.3164  0.5155 -1.4332
  695MOL0     H95900  10.197  10.557   2.013  1.6379  1.4328  4.2387
  695MOL0     H95901  10.049  10.634   2.090  0.0205  1.3696 -0.9107
  695MOL0     H95902  10.041  10.343   2.004  1.4127  0.4835  0.3150
  695MOL0     H95903   9.917  10.471   2.008  1.3158  1.6349  2.0309
  695MOL0     H95904  10.129  10.423   1.790 -0.6660  1.9733 -1.8288
  695MOL0     H95905  10.040  10.576   1.818  3.2293  0.5857 -0.8303
  695MOL0     H95906   9.746  10.291   1.699 -0.0622  0.4023 -1.7037
  695MOL0     H95907  10.286  10.271   2.308  1.3158 -0.9124 -2.5218
  695MOL0     H95908  10.410  10.105   2.342 -0.1848  1.2076  0.9935
  695MOL0     H95909  10.582  10.112   2.374  1.0956  0.4440  0.1720
  695MOL0     H95910  10.468  10.122   2.512 -2.1487 -0.4354  0.3073
  696MOL0     O95911   4.734   5.467  10.324  0.2903  0.3373  0.0467
  696MOL0     C95912   4.756   5.345  10.303 -0.8422  0.2077 -0.2467
  696MOL0     O95913   4.879   5.297  10.269  0.7299 -0.0682 -0.2694
  696MOL0     C95914   4.986   5.383  10.274 -0.3424 -0.5131  0.2128
  696MOL0     C95915   5.070   5.390  10.157  0.2032 -0.1029 -0.3889
  696MOL0     C95916   5.177   5.474  10.146  0.5105  0.2915  0.0007
  696MOL0     C95917   5.205   5.559  10.255  0.8247  1.2779 -0.2307
  696MOL0     O95918   5.321   5.629  10.249 -0.2194  0.3744 -0.0278
  696MOL0     C95919   5.435   5.553  10.290  0.0317  0.3748  0.7147
  696MOL0     C95920   5.555   5.648  10.270 -0.0127 -0.5149  0.2715
  696MOL0     C95921   5.673   5.569  10.301 -0.1373  0.3107 -0.5267
  696MOL0     C95922   5.796   5.625  10.238  0.0128 -0.5480  0.6102
  696MOL0     C95923   5.925   5.569  10.296  0.9841  0.0448 -0.6238
  696MOL0     C95924   6.052   5.642  10.237  0.9234 -0.2321 -0.0865
  696MOL0     C95925   6.179   5.585  10.293  0.1828  0.2589  0.3796
  696MOL0     C95926   6.309   5.660  10.249 -0.0451 -0.2709 -0.2212
  696MOL0     N95927   6.311   5.782  10.328 -0.2377  0.4828 -0.4921
  696MOL0     C95928   6.287   5.799  10.463  0.0773 -0.2316  1.5425
  696MOL0     C95929   6.307   5.928  10.485  0.6905  0.4814 -0.2823
  696MOL0     C95930   6.302   5.996  10.625  0.2510 -0.0043  0.2632
  696MOL0     C95931   6.193   5.945  10.717  0.1476 -0.3472  0.5100
  696MOL0     C95932   6.246   5.835  10.804  0.3676  0.4978 -0.1441
  696MOL0     C95933   6.119   5.778  10.868  0.1430 -0.3149 -0.2937
  696MOL0     O95934   6.143   5.712  11.000  0.1359  0.6527 -0.3199
  696MOL0     C95935   6.239   5.615  10.992  0.1951  0.3686 -0.1084
  696MOL0     C95936   6.370   5.653  11.015 -0.5072 -0.1435 -0.0751
  696MOL0     C95937   6.473   5.565  11.011  0.8520  0.6901  0.0965
  696MOL0     C95938   6.609   5.617  11.033 -0.3710  0.3901 -0.3923
  696MOL0     C95939   6.444   5.428  10.977  0.1829 -0.3966  0.9384
  696MOL0     C95940   6.545   5.327  10.964 -0.0910  0.0965 -0.5907
  696MOL0     O95941   6.496   5.201  10.992 -0.9545 -0.4694  0.4988
  696MOL0     C95942   6.585   5.102  11.006  0.2488 -0.7057 -0.7265
  696MOL0     C95943   6.679   5.064  10.907  0.3172  0.1154 -0.7915
  696MOL0     C95944   6.757   4.943  10.920 -0.2302  0.4538 -0.6132
  696MOL0     C95945   6.739   4.873  11.040 -0.4625 -0.4809  0.1997
  696MOL0     O95946   6.823   4.767  11.071 -0.2171  0.0665 -0.4445
  696MOL0     C95947   6.964   4.792  11.076  0.9717 -0.3081  0.4238
  696MOL0     C95948   7.015   4.718  11.198  0.3345 -0.0053  0.4111
  696MOL0     C95949   7.167   4.707  11.200  0.4193 -0.7549  0.3467
  696MOL0     C95950   7.238   4.845  11.223  0.2375  0.7799 -0.0776
  696MOL0     C95951   7.393   4.841  11.210  0.7189  0.9995 -0.5437
  696MOL0     C95952   7.458   4.727  11.294  0.3280  1.2527 -0.4292
  696MOL0     C95953   7.420   4.722  11.443 -0.3666 -0.1836 -1.0554
  696MOL0     C95954   7.450   4.853  11.522 -0.6427  0.2079  0.5998
  696MOL0    Cl95955   7.391   4.852  11.686  0.2977 -0.1302  0.3076
  696MOL0     C95956   6.647   4.917  11.141 -0.3837 -0.0817  0.4955
  696MOL0     C95957   6.572   5.036  11.127 -1.3379  0.7213 -0.2993
  696MOL0     O95958   6.662   5.354  10.948  0.4044  0.0594  0.1991
  696MOL0     C95959   6.308   5.389  10.957 -0.3854  0.1213 -0.3675
  696MOL0     C95960   6.211   5.483  10.960  1.3121 -0.5032 -1.1025
  696MOL0     N95961   6.349   5.995  10.374 -0.4841 -0.2250 -0.2409
  696MOL0     N95962   6.353   5.906  10.285 -0.2840 -0.1824  0.2875
  696MOL0     C95963   5.135   5.545  10.372 -1.1506  0.4858  0.0217
  696MOL0     C95964   5.022   5.454  10.381  0.2277 -0.6404  0.7082
  696MOL0     C95965   4.637   5.255  10.305  0.4388  0.3835 -0.4160
  696MOL0     C95966   4.667   5.118  10.289 -0.2869  0.4771 -0.1873
  696MOL0     C95967   4.567   5.022  10.269  0.4277  0.6079  0.0915
  696MOL0     C95968   4.429   5.056  10.283  0.4387  0.3315  0.6695
  696MOL0     O95969   4.324   4.968  10.274 -0.0696 -0.6149  0.1510
  696MOL0     C95970   4.345   4.856  10.187  0.1908 -0.2589 -0.6595
  696MOL0     C95971   4.215   4.781  10.165 -0.0662  0.4709 -0.0277
  696MOL0     C95972   4.104   4.855  10.077 -0.4958  0.5261 -0.3243
  696MOL0     C95973   3.973   4.779  10.086  1.0563  0.8360 -0.3785
  696MOL0     C95974   3.882   4.809   9.979 -0.3221  0.4605 -0.3792
  696MOL0     C95975   3.814   4.847   9.886  0.5213  0.6398 -0.4822
  696MOL0     C95976   4.391   5.193  10.296 -0.1831  0.1394 -0.1544
  696MOL0     C95977   4.493   5.292  10.299 -0.1093 -0.8984 -0.3164
  696MOL0     C95978   4.444   5.431  10.287 -0.3888  0.0859 -0.0110
  696MOL0     H95979   5.029   5.335  10.073 -0.8683  1.1240 -0.7079
  696MOL0     H95980   5.240   5.483  10.058  1.2875 -0.0398  0.5163
  696MOL0     H95981   5.445   5.466  10.223  2.0163  1.1102 -0.0172
  696MOL0     H95982   5.411   5.522  10.392 -0.5684  0.9606  0.7553
  696MOL0     H95983   5.556   5.683  10.167  1.6315 -0.4497  0.2842
  696MOL0     H95984   5.555   5.732  10.340  2.6916 -1.9205  2.1288
  696MOL0     H95985   5.681   5.579  10.410 -3.6386  3.9118 -0.3681
  696MOL0     H95986   5.664   5.465  10.268 -0.2333  0.1275  0.0629
  696MOL0     H95987   5.796   5.620  10.129  0.2558  0.3390  0.5600
  696MOL0     H95988   5.806   5.732  10.260 -0.1489 -1.1045  3.9602
  696MOL0     H95989   5.940   5.466  10.265  2.4479 -0.4470  1.5212
  696MOL0     H95990   5.935   5.570  10.405  1.0723  0.7157 -0.6295
  696MOL0     H95991   6.050   5.627  10.129  0.6554 -1.2737  0.0595
  696MOL0     H95992   6.046   5.749  10.260 -0.2420 -0.4090  0.5158
  696MOL0     H95993   6.199   5.485  10.254  1.3176  1.4040 -2.2038
  696MOL0     H95994   6.156   5.594  10.400 -1.3130 -0.1355  0.1133
  696MOL0     H95995   6.400   5.600  10.260  0.7115  0.3829 -2.2940
  696MOL0     H95996   6.305   5.693  10.144  1.0633  1.2737  0.1814
  696MOL0     H95997   6.272   5.718  10.533 -1.3651 -0.2838  1.2028
  696MOL0     H95998   6.305   6.101  10.594  1.6050  0.0636  0.5574
  696MOL0     H95999   6.398   5.963  10.666 -0.4831 -3.7518 -0.6849
  696MOL0     H96000   6.159   6.028  10.780  0.4019 -0.4899  0.8383
  696MOL0     H96001   6.110   5.916  10.653  0.4809  1.2077 -0.6946
  696MOL0     H96002   6.295   5.758  10.743 -1.2709 -1.0143  0.3595
  696MOL0     H96003   6.298   5.885  10.886 -1.2467 -1.8540  2.4672
  696MOL0     H96004   6.045   5.857  10.882 -0.8082 -1.7388  4.6793
  696MOL0     H96005   6.070   5.711  10.797 -0.8332 -1.0836  1.0421
  696MOL0     H96006   6.392   5.755  11.043  0.8971 -1.1837  3.1128
  696MOL0     H96007   6.616   5.717  11.075 -2.0299 -0.2982  1.7000
  696MOL0     H96008   6.662   5.605  10.938 -1.5374 -1.4781 -0.8643
  696MOL0     H96009   6.662   5.548  11.101  1.6002  1.5055 -0.7133
  696MOL0     H96010   6.696   5.121  10.816  2.8900  0.4989 -0.1554
  696MOL0     H96011   6.831   4.907  10.849  0.5692 -0.7422  0.7741
  696MOL0     H96012   7.007   4.764  10.980  1.2678  0.8594  0.1928
  696MOL0     H96013   6.975   4.901  11.080  3.1835 -0.5314  2.0438
  696MOL0     H96014   6.978   4.780  11.279 -1.1724 -0.1536 -0.1272
  696MOL0     H96015   6.969   4.621  11.220 -0.6611 -0.6604 -3.7102
  696MOL0     H96016   7.198   4.651  11.111  0.4562 -0.1719 -0.0138
  696MOL0     H96017   7.194   4.647  11.287  1.0904  1.5366  1.8051
  696MOL0     H96018   7.226   4.885  11.324  0.3520  0.1631  0.1895
  696MOL0     H96019   7.205   4.924  11.155  1.1299  1.7500  0.5787
  696MOL0     H96020   7.415   4.832  11.104  3.1286 -0.3417  0.0155
  696MOL0     H96021   7.439   4.934  11.242  2.6344 -0.2561  0.5221
  696MOL0     H96022   7.567   4.721  11.286  0.5779  2.4616  1.3715
  696MOL0     H96023   7.415   4.637  11.250  1.5378 -0.1092  1.0690
  696MOL0     H96024   7.476   4.646  11.497  0.0683  0.6585 -0.2873
  696MOL0     H96025   7.315   4.693  11.454  0.2361 -3.5315 -2.8859
  696MOL0     H96026   7.406   4.939  11.471  1.6868  1.1096 -0.0170
  696MOL0     H96027   7.559   4.864  11.520 -0.2301 -3.0517  0.0648
  696MOL0     H96028   6.653   4.867  11.237  2.6186  2.4946  1.7936
  696MOL0     H96029   6.501   5.074  11.200 -2.7889 -0.0684 -1.2647
  696MOL0     H96030   6.286   5.285  10.932 -0.6517 -0.4636  2.0582
  696MOL0     H96031   6.106   5.459  10.943  1.4326 -3.0565  1.0990
  696MOL0     H96032   5.150   5.610  10.458 -1.4672 -0.1374  0.5607
  696MOL0     H96033   4.973   5.435  10.476  0.5165 -0.1811  0.9521
  696MOL0     H96034   4.772   5.091  10.292  0.2812  2.5283  0.2805
  696MOL0     H96035   4.595   4.918  10.255  0.7508  0.4693  1.6050
  696MOL0     H96036   4.385   4.884  10.089  2.4037 -1.2327 -0.1075
  696MOL0     H96037   4.418   4.788  10.233 -1.0908 -0.2305  1.5753
  696MOL0     H96038   4.168   4.760  10.261 -1.6174 -2.3312 -1.2672
  696MOL0     H96039   4.231   4.679  10.129 -0.3120  1.1682 -2.3395
  696MOL0     H96040   4.087   4.953  10.122  0.9358 -1.0568  4.2533
  696MOL0     H96041   4.136   4.867   9.973 -0.6700 -2.0815 -0.7465
  696MOL0     H96042   3.927   4.801  10.183 -0.0059 -6.8689  1.4915
  696MOL0     H96043   3.985   4.671  10.082 -0.0573  0.6340  1.0945
  696MOL0     H96044   3.761   4.895   9.806  2.4653  2.2583 -0.8738
  696MOL0     H96045   4.287   5.221  10.284 -0.3495 -0.7484 -0.8797
  696MOL0     H96046   4.496   5.475  10.202  0.1700 -2.6624 -1.2281
  696MOL0     H96047   4.338   5.438  10.260 -0.2785 -2.4020 -1.3696
  696MOL0     H96048   4.469   5.489  10.376  0.2649  2.2834 -1.5762
  697MOL0     O96049   1.490   4.240   4.883 -0.4658 -0.9176 -0.9032
  697MOL0     C96050   1.531   4.279   4.772 -0.9799  0.1694 -0.8267
  697MOL0     O96051   1.651   4.335   4.745 -0.7436  0.0611 -0.4158
  697MOL0     C96052   1.743   4.323   4.856  0.6865  0.9347 -0.4580
  697MOL0     C96053   1.854   4.240   4.852  0.2573  0.0875 -0.2616
  697MOL0     C96054   1.942   4.226   4.969  0.0422 -0.0340  0.0547
  697MOL0     C96055   1.928   4.307   5.077  0.2789 -0.9506  0.1042
  697MOL0     O96056   2.013   4.303   5.184  0.8562 -0.3503 -0.0188
  697MOL0     C96057   2.041   4.423   5.254  0.1920  1.3789 -0.2090
  697MOL0     C96058   2.153   4.372   5.338 -0.6728 -0.5466 -0.6403
  697MOL0     C96059   2.292   4.386   5.265 -0.5419 -0.5734  0.4079
  697MOL0     C96060   2.407   4.390   5.378 -0.4202 -0.3970 -0.4028
  697MOL0     C96061   2.441   4.238   5.421  0.4180 -0.8647  0.2077
  697MOL0     C96062   2.540   4.238   5.545  0.1466 -0.5528  0.2663
  697MOL0     C96063   2.658   4.336   5.528  0.0273  0.3278  0.4244
  697MOL0     C96064   2.745   4.330   5.654  0.3084  0.0828  0.0032
  697MOL0     N96065   2.870   4.409   5.660 -0.4181  0.0952  0.1775
  697MOL0     C96066   2.985   4.386   5.602 -0.3191  0.5305  0.3664
  697MOL0     C96067   3.063   4.490   5.635  0.5105 -0.5900  0.6531
  697MOL0     C96068   3.212   4.500   5.622  0.4725  0.2582  0.0081
  697MOL0     C96069   3.301   4.427   5.733 -0.5271 -0.5471 -0.0077
  697MOL0     C96070   3.450   4.461   5.715 -0.4067  0.4888 -0.4046
  697MOL0     C96071   3.533   4.381   5.817 -0.0554 -0.3236  1.0267
  697MOL0     O96072   3.676   4.406   5.796  1.4023 -0.3879  0.3748
  697MOL0     C96073   3.773   4.335   5.868 -0.4302  0.4230 -0.2734
  697MOL0     C96074   3.749   4.232   5.959  0.3972 -1.0383  0.3163
  697MOL0     C96075   3.862   4.185   6.033 -0.2211 -0.1546  0.3793
  697MOL0     C96076   3.816   4.079   6.135 -0.5861 -0.1216 -0.1512
  697MOL0     C96077   3.998   4.218   6.011  0.0134 -0.0899 -0.0597
  697MOL0     C96078   4.116   4.135   6.061 -0.5227 -0.1548 -0.1338
  697MOL0     O96079   4.235   4.196   6.050  0.6393  0.2192 -0.6558
  697MOL0     C96080   4.347   4.147   6.109  0.5465 -0.6770 -0.7929
  697MOL0     C96081   4.463   4.128   6.029  0.8479 -0.3286 -1.4780
  697MOL0     C96082   4.589   4.111   6.085 -0.6459 -0.5815  0.3015
  697MOL0     C96083   4.603   4.102   6.219  0.5199 -0.2716 -0.5698
  697MOL0     O96084   4.725   4.083   6.279  0.1617  0.2110  0.6951
  697MOL0     C96085   4.801   3.971   6.223  0.7044 -0.3983 -0.7475
  697MOL0     C96086   4.913   4.022   6.133  0.5615 -0.2328 -0.2730
  697MOL0     C96087   5.020   4.091   6.218  0.0392 -0.2320  0.1122
  697MOL0     C96088   5.130   4.149   6.124 -0.0970 -0.9332 -0.4119
  697MOL0     C96089   5.227   4.046   6.060 -0.4096 -0.5585 -0.7753
  697MOL0     C96090   5.342   4.112   5.982 -0.5279  0.1986  0.6115
  697MOL0     C96091   5.432   4.225   6.042 -0.4547  0.3601  0.2786
  697MOL0     C96092   5.576   4.196   5.998 -0.6739  0.6191  0.6542
  697MOL0    Cl96093   5.601   4.227   5.820  0.0881 -0.0248 -0.2599
  697MOL0     C96094   4.495   4.120   6.298 -0.4905 -0.4465 -0.5069
  697MOL0     C96095   4.366   4.138   6.251 -0.0615 -0.3607 -0.2768
  697MOL0     O96096   4.096   4.026   6.114 -0.0945  0.3255 -0.0126
  697MOL0     C96097   4.022   4.316   5.914 -0.1214  0.3534 -0.5386
  697MOL0     C96098   3.912   4.361   5.839 -0.1025 -0.0100 -0.0547
  697MOL0     N96099   2.989   4.583   5.714 -0.1345  0.1997  0.6694
  697MOL0     N96100   2.874   4.524   5.731  0.6384  0.0628 -0.1746
  697MOL0     C96101   1.818   4.402   5.078  0.4198  0.9612  0.0041
  697MOL0     C96102   1.724   4.407   4.969 -0.4180 -0.1246  0.2809
  697MOL0     C96103   1.436   4.251   4.655  0.4565 -0.5803 -0.6925
  697MOL0     C96104   1.346   4.148   4.671 -0.7794  0.9322  0.4312
  697MOL0     C96105   1.244   4.123   4.580  0.6773 -0.0797  0.2589
  697MOL0     C96106   1.223   4.208   4.474 -0.3876 -0.2213 -0.4024
  697MOL0     O96107   1.102   4.187   4.406  0.0560 -0.5133 -0.4127
  697MOL0     C96108   1.069   4.297   4.311 -0.9339 -0.5817  0.1658
  697MOL0     C96109   0.924   4.275   4.263  0.3659 -0.4002 -0.3906
  697MOL0     C96110   0.912   4.165   4.165 -0.2893  0.8865 -0.5439
  697MOL0     C96111   0.923   4.021   4.219 -0.0861 -0.3868 -0.7006
  697MOL0     C96112   0.878   3.931   4.114  0.0246  0.5295 -0.0983
  697MOL0     C96113   0.844   3.848   4.036 -1.4638  0.4772  0.9358
  697MOL0     C96114   1.322   4.311   4.450  0.1450  1.0912  0.2958
  697MOL0     C96115   1.430   4.331   4.537  0.0806 -0.0733  0.3111
  697MOL0     C96116   1.527   4.443   4.496  0.0400 -0.3028 -0.7461
  697MOL0     H96117   1.862   4.177   4.764  0.3246 -0.5069  0.1575
  697MOL0     H96118   2.023   4.155   4.959 -0.7964 -1.1271  0.7508
  697MOL0     H96119   1.953   4.448   5.313 -2.0658 -2.0563 -1.7905
  697MOL0     H96120   2.080   4.503   5.190  2.5378  1.4664  1.1994
  697MOL0     H96121   2.149   4.432   5.430 -2.4443 -1.7418  0.1306
  697MOL0     H96122   2.132   4.273   5.379  0.6722 -0.7021 -0.3042
  697MOL0     H96123   2.305   4.295   5.205 -0.9053 -2.1146  2.5483
  697MOL0     H96124   2.296   4.473   5.200 -0.4308 -0.2344  0.8651
  697MOL0     H96125   2.491   4.450   5.340 -1.2634  0.9314 -0.2520
  697MOL0     H96126   2.383   4.441   5.472  0.9306 -0.6382  0.0979
  697MOL0     H96127   2.490   4.190   5.335 -0.4505 -4.1571  1.3713
  697MOL0     H96128   2.347   4.184   5.436 -1.9643  2.9905  0.4726
  697MOL0     H96129   2.486   4.268   5.636  0.0983 -1.8144  0.6724
  697MOL0     H96130   2.565   4.132   5.556  0.4003 -0.6188 -0.8412
  697MOL0     H96131   2.623   4.439   5.517  0.7229  0.5960  0.6480
  697MOL0     H96132   2.709   4.298   5.439  1.2556  1.8851  0.4198
  697MOL0     H96133   2.677   4.360   5.734 -0.0994 -0.1110 -0.2670
  697MOL0     H96134   2.777   4.226   5.669  2.1215  0.7562  1.1336
  697MOL0     H96135   3.018   4.301   5.544 -1.9696  0.1590 -0.0540
  697MOL0     H96136   3.240   4.606   5.627 -2.5478  1.1189  0.5045
  697MOL0     H96137   3.242   4.470   5.521 -0.0424 -1.2098  0.2701
  697MOL0     H96138   3.270   4.460   5.832 -0.5207 -1.3248  0.2625
  697MOL0     H96139   3.299   4.318   5.721  4.9974 -0.7418 -2.2146
  697MOL0     H96140   3.484   4.450   5.612  0.6786  3.1492 -0.4157
  697MOL0     H96141   3.458   4.568   5.735 -1.1082  0.6874 -1.1254
  697MOL0     H96142   3.500   4.404   5.919  0.6244  2.8473  0.6622
  697MOL0     H96143   3.519   4.273   5.812  1.1653 -0.4611 -0.3571
  697MOL0     H96144   3.652   4.188   5.979  0.6364 -2.3567 -1.1745
  697MOL0     H96145   3.877   4.087   6.226  0.7109  0.4757 -1.0451
  697MOL0     H96146   3.821   3.975   6.103 -0.4269 -0.8972  2.1879
  697MOL0     H96147   3.711   4.080   6.165 -0.1280 -2.1478  1.8155
  697MOL0     H96148   4.445   4.128   5.922  0.5743 -0.2032 -1.4334
  697MOL0     H96149   4.670   4.103   6.012  1.4988  1.5468  2.2627
  697MOL0     H96150   4.835   3.901   6.300 -2.5710  0.7159  1.9877
  697MOL0     H96151   4.744   3.907   6.156  0.2217  1.4785 -2.2034
  697MOL0     H96152   4.959   3.944   6.072  1.2735  1.4895 -2.0709
  697MOL0     H96153   4.873   4.101   6.068  2.8088 -0.6721 -2.2969
  697MOL0     H96154   5.051   4.020   6.296  1.5326 -0.1399 -0.3735
  697MOL0     H96155   4.973   4.170   6.278 -0.3896 -1.4186  1.4021
  697MOL0     H96156   5.195   4.205   6.191  0.0129 -1.7028  0.1272
  697MOL0     H96157   5.078   4.216   6.055  1.5247  0.8209 -0.0141
  697MOL0     H96158   5.274   3.981   6.135  2.3208  1.7232 -0.3477
  697MOL0     H96159   5.181   3.973   5.993 -4.1624  0.9040 -0.0769
  697MOL0     H96160   5.297   4.155   5.892 -2.8340  0.9385  2.0219
  697MOL0     H96161   5.409   4.030   5.953 -0.3016 -0.0146  1.6662
  697MOL0     H96162   5.431   4.232   6.151  1.3047  0.0877  0.3304
  697MOL0     H96163   5.400   4.324   6.007 -0.3034  0.0365 -0.8024
  697MOL0     H96164   5.608   4.094   6.020  0.4598  0.7235 -0.3857
  697MOL0     H96165   5.644   4.257   6.057  1.3828 -2.5266  1.7835
  697MOL0     H96166   4.498   4.130   6.406  2.1560  4.7187 -0.7530
  697MOL0     H96167   4.277   4.150   6.312 -0.0519 -2.5283  0.2571
  697MOL0     H96168   4.125   4.334   5.887  0.0425 -1.6616 -1.5190
  697MOL0     H96169   3.927   4.436   5.762  1.4614 -0.1050  0.1249
  697MOL0     H96170   1.791   4.457   5.168 -2.0162 -2.4913  1.6112
  697MOL0     H96171   1.638   4.473   4.963  0.4579  0.9171 -2.2955
  697MOL0     H96172   1.361   4.091   4.761 -1.6392  1.3698  0.8686
  697MOL0     H96173   1.173   4.044   4.604 -1.8538  2.3762  1.4386
  697MOL0     H96174   1.079   4.392   4.364  1.9559 -0.7947  0.1911
  697MOL0     H96175   1.139   4.293   4.227 -0.0050  2.5466  0.6683
  697MOL0     H96176   0.882   4.364   4.214 -0.7903  0.7022  2.3953
  697MOL0     H96177   0.859   4.250   4.347  0.3138 -3.7363 -1.2795
  697MOL0     H96178   0.809   4.176   4.129 -0.0083 -1.4460 -2.3448
  697MOL0     H96179   0.971   4.182   4.074 -2.2844 -0.2347 -2.1500
  697MOL0     H96180   0.851   4.009   4.301  1.3111 -0.3737  0.5654
  697MOL0     H96181   1.023   3.991   4.252 -1.1822 -1.6059  1.8116
  697MOL0     H96182   0.827   3.774   3.960  1.7591  0.1672  0.3965
  697MOL0     H96183   1.316   4.370   4.359  1.7272  0.9964  0.0959
  697MOL0     H96184   1.625   4.404   4.469 -0.0791  1.0124 -3.4285
  697MOL0     H96185   1.484   4.501   4.414 -0.5108  3.3448  1.8697
  697MOL0     H96186   1.535   4.524   4.569 -0.9950 -1.3726  0.6039
  698MOL0     O96187   7.718   6.943   3.297 -0.2682 -0.0580  0.0021
  698MOL0     C96188   7.715   6.990   3.407 -0.4221 -0.3932  0.3379
  698MOL0     O96189   7.722   6.912   3.520  0.2426 -0.3737 -0.9017
  698MOL0     C96190   7.771   6.787   3.514 -0.5880 -0.6472 -0.2619
  698MOL0     C96191   7.685   6.692   3.493  0.5080  0.7532 -0.5727
  698MOL0     C96192   7.735   6.559   3.494  0.2536 -0.1414 -0.7941
  698MOL0     C96193   7.862   6.528   3.553  0.7699 -0.7908  0.7305
  698MOL0     O96194   7.913   6.405   3.564 -0.0531  0.9533  0.1002
  698MOL0     C96195   7.842   6.279   3.542  1.0981 -0.7487  0.7493
  698MOL0     C96196   7.741   6.260   3.649 -0.4238 -0.1273 -0.1334
  698MOL0     C96197   7.690   6.120   3.652 -0.8748 -0.1532 -0.2918
  698MOL0     C96198   7.574   6.108   3.741 -0.3461 -1.5326  0.5027
  698MOL0     C96199   7.508   5.970   3.730  0.1956 -0.1838  1.1878
  698MOL0     C96200   7.369   5.967   3.800 -0.0546 -0.4366  0.2287
  698MOL0     C96201   7.278   5.847   3.772 -0.7092  0.5965 -0.1861
  698MOL0     C96202   7.159   5.828   3.861  0.4968 -0.6368 -0.2581
  698MOL0     N96203   7.039   5.906   3.818 -0.4064 -0.6721 -0.1540
  698MOL0     C96204   7.033   6.049   3.824 -0.6721 -0.9599  0.4388
  698MOL0     C96205   6.932   6.080   3.734 -0.3423  0.7168  0.2814
  698MOL0     C96206   6.892   6.214   3.697 -0.1725  0.4915  0.8589
  698MOL0     C96207   6.792   6.273   3.786  0.0603 -0.1924  0.3419
  698MOL0     C96208   6.843   6.373   3.893  0.2468  0.2568  0.6122
  698MOL0     C96209   6.771   6.376   4.027  0.3251  0.0503  0.7611
  698MOL0     O96210   6.837   6.466   4.106  0.1414  0.2252 -0.0336
  698MOL0     C96211   6.774   6.539   4.208 -0.0013 -0.9030  0.3618
  698MOL0     C96212   6.664   6.494   4.284  0.0894  0.4330 -0.7618
  698MOL0     C96213   6.613   6.570   4.389 -0.3052  0.3122  0.5893
  698MOL0     C96214   6.483   6.525   4.443  0.3702 -0.4243  0.7366
  698MOL0     C96215   6.685   6.685   4.432  0.3978  0.5839  0.2389
  698MOL0     C96216   6.633   6.781   4.535  0.2157 -0.0540  0.4346
  698MOL0     O96217   6.696   6.900   4.541  1.0136  0.1636  0.0338
  698MOL0     C96218   6.678   6.980   4.656 -0.1686  0.6388  0.4844
  698MOL0     C96219   6.795   7.056   4.692 -0.4564 -0.4748  0.3104
  698MOL0     C96220   6.794   7.156   4.793  0.3798  0.0055 -0.2121
  698MOL0     C96221   6.668   7.186   4.847  1.1435 -0.7048 -0.0838
  698MOL0     O96222   6.671   7.286   4.943  0.5156 -0.0164  0.4668
  698MOL0     C96223   6.570   7.387   4.931 -0.4125 -0.4539 -0.1687
  698MOL0     C96224   6.634   7.515   5.018 -0.0783 -0.4101 -0.0790
  698MOL0     C96225   6.523   7.612   5.063  0.5040 -0.4015  0.0103
  698MOL0     C96226   6.478   7.720   4.951 -0.2841  0.5419  0.1638
  698MOL0     C96227   6.589   7.822   4.926 -0.4514  0.6878 -0.1147
  698MOL0     C96228   6.561   7.891   4.793 -0.3477  0.6050 -0.9391
  698MOL0     C96229   6.665   7.987   4.757 -0.1959 -0.0335  0.1169
  698MOL0     C96230   6.739   7.939   4.629 -0.7553 -0.4070  0.3241
  698MOL0    Cl96231   6.878   8.051   4.621 -0.0490  0.2310  0.3698
  698MOL0     C96232   6.554   7.112   4.813 -0.0453 -0.2496  1.0214
  698MOL0     C96233   6.553   7.022   4.712 -0.3736  0.1814 -0.0210
  698MOL0     O96234   6.561   6.735   4.625 -0.3701  0.1234 -0.8785
  698MOL0     C96235   6.805   6.716   4.359  0.4996 -0.7759  0.1209
  698MOL0     C96236   6.852   6.648   4.254  0.0640 -0.4280 -0.5289
  698MOL0     N96237   6.876   5.957   3.694  0.6863 -0.1642 -0.7222
  698MOL0     N96238   6.941   5.858   3.730  1.0503 -0.0325  0.0272
  698MOL0     C96239   7.946   6.635   3.589  0.0071  0.2141  0.1201
  698MOL0     C96240   7.893   6.763   3.581  0.0407  0.1428  0.2875
  698MOL0     C96241   7.659   7.123   3.406 -0.4825 -0.0387 -0.3874
  698MOL0     C96242   7.561   7.136   3.500 -0.2951 -0.3360 -0.6604
  698MOL0     C96243   7.477   7.257   3.503  0.4697  0.4620 -0.6809
  698MOL0     C96244   7.500   7.357   3.407  0.4165 -0.2411 -0.7149
  698MOL0     O96245   7.423   7.470   3.417 -0.3325  0.0353 -0.2899
  698MOL0     C96246   7.348   7.526   3.315 -0.7158 -0.0809  0.1376
  698MOL0     C96247   7.198   7.493   3.347 -0.1856  0.4153  0.2184
  698MOL0     C96248   7.159   7.346   3.321  0.4024  0.1796 -0.3489
  698MOL0     C96249   7.193   7.305   3.180 -0.6147 -0.2051  0.1955
  698MOL0     C96250   7.121   7.191   3.128  0.2452 -0.3611 -0.0269
  698MOL0     C96251   7.055   7.091   3.085 -0.6756 -0.3664  0.2685
  698MOL0     C96252   7.613   7.355   3.329 -0.0119  0.6103 -0.7345
  698MOL0     C96253   7.690   7.239   3.321  0.2342  0.0907 -0.5219
  698MOL0     C96254   7.804   7.239   3.220 -0.5837 -0.6387 -0.1705
  698MOL0     H96255   7.590   6.721   3.448  1.6631  2.2706 -2.2088
  698MOL0     H96256   7.670   6.478   3.462 -1.2594  1.1048 -0.9743
  698MOL0     H96257   7.919   6.201   3.544  1.4281 -0.4920 -0.6220
  698MOL0     H96258   7.801   6.288   3.441 -1.0244 -2.8376  1.3289
  698MOL0     H96259   7.785   6.287   3.746 -1.2449 -0.1170  0.2439
  698MOL0     H96260   7.665   6.337   3.636  0.6839  0.7491 -1.7666
  698MOL0     H96261   7.667   6.088   3.550 -1.2310 -0.1032 -0.2294
  698MOL0     H96262   7.757   6.046   3.697 -0.1616  0.9752  0.5351
  698MOL0     H96263   7.590   6.138   3.845  0.6376 -0.5701  0.0947
  698MOL0     H96264   7.499   6.183   3.713  0.4611 -0.7905  0.3144
  698MOL0     H96265   7.581   5.897   3.767  1.0622  0.6854  1.2345
  698MOL0     H96266   7.502   5.946   3.623  3.4528 -1.5378  1.1973
  698MOL0     H96267   7.385   5.979   3.907 -1.1913  0.5694  0.2995
  698MOL0     H96268   7.300   6.043   3.761  3.3216  0.6951 -4.4680
  698MOL0     H96269   7.350   5.767   3.796  2.6286  3.2762 -0.5010
  698MOL0     H96270   7.253   5.834   3.666 -0.1020  1.3675 -0.4366
  698MOL0     H96271   7.122   5.725   3.858  0.1405 -0.5673  1.0467
  698MOL0     H96272   7.184   5.848   3.966  1.6653  0.1015 -0.6570
  698MOL0     H96273   7.098   6.116   3.880  1.5758 -1.1030 -1.8180
  698MOL0     H96274   6.856   6.215   3.593 -0.0718  1.9443  0.8220
  698MOL0     H96275   6.982   6.274   3.682  0.9412 -1.1909  0.6103
  698MOL0     H96276   6.735   6.332   3.713  2.3237  1.1431 -0.4327
  698MOL0     H96277   6.728   6.195   3.830 -1.2123  0.8110  0.3584
  698MOL0     H96278   6.952   6.365   3.900  0.1139 -1.0120  1.5834
  698MOL0     H96279   6.831   6.472   3.846  1.6836 -0.2114 -0.8495
  698MOL0     H96280   6.665   6.402   4.023  0.1539 -0.7062  0.1605
  698MOL0     H96281   6.788   6.279   4.074  0.4973 -1.4749 -2.2254
  698MOL0     H96282   6.612   6.406   4.248  1.8682 -1.3079  0.7322
  698MOL0     H96283   6.476   6.502   4.550 -1.8307 -0.7213  0.5742
  698MOL0     H96284   6.459   6.425   4.406 -1.9802  0.6703 -0.9210
  698MOL0     H96285   6.399   6.587   4.411 -0.6098 -2.9581 -2.0639
  698MOL0     H96286   6.882   7.025   4.634 -0.6875  1.6467 -1.2900
  698MOL0     H96287   6.877   7.219   4.820  1.9434 -1.5063 -1.2990
  698MOL0     H96288   6.563   7.411   4.824  2.9508 -0.7413 -0.5550
  698MOL0     H96289   6.480   7.340   4.972  0.4550 -1.0946  1.0639
  698MOL0     H96290   6.685   7.468   5.102  1.3282  0.8177 -0.2148
  698MOL0     H96291   6.714   7.554   4.955 -0.6932 -1.9349 -1.9105
  698MOL0     H96292   6.571   7.677   5.136  0.1218  0.6194 -0.6196
  698MOL0     H96293   6.436   7.561   5.106 -0.2629  0.8594  0.0126
  698MOL0     H96294   6.385   7.767   4.987 -0.8297 -1.2593  1.2512
  698MOL0     H96295   6.452   7.659   4.865 -1.1264 -2.1130  2.1532
  698MOL0     H96296   6.603   7.884   5.015  0.6933  0.0760  0.1667
  698MOL0     H96297   6.682   7.766   4.910  1.0235  2.5007  1.5694
  698MOL0     H96298   6.466   7.942   4.806 -2.2103 -1.8776 -3.6345
  698MOL0     H96299   6.547   7.817   4.714  0.2565  0.9472 -1.3701
  698MOL0     H96300   6.725   8.002   4.847 -1.9052  1.1978  1.1054
  698MOL0     H96301   6.620   8.083   4.729 -0.7902 -0.7999 -1.6691
  698MOL0     H96302   6.669   7.970   4.551 -0.9388  1.6190  1.2289
  698MOL0     H96303   6.771   7.835   4.635  2.5874  0.3514 -1.8026
  698MOL0     H96304   6.464   7.122   4.872  0.5795 -0.8517  2.1057
  698MOL0     H96305   6.459   6.973   4.690  1.0594 -2.0881 -1.4937
  698MOL0     H96306   6.863   6.801   4.392 -2.7172  1.5919  0.1365
  698MOL0     H96307   6.945   6.685   4.212 -0.1556  1.0073  0.1816
  698MOL0     H96308   8.036   6.606   3.642 -0.5112  0.5350  1.2112
  698MOL0     H96309   7.950   6.845   3.624 -2.0381  0.5602  2.4161
  698MOL0     H96310   7.535   7.057   3.569  1.7592  0.0266  0.6146
  698MOL0     H96311   7.394   7.278   3.570 -0.5945  2.7484 -2.5631
  698MOL0     H96312   7.365   7.634   3.311  3.6525 -0.5998 -2.6874
  698MOL0     H96313   7.392   7.489   3.221  1.3674  2.3336  0.0319
  698MOL0     H96314   7.125   7.542   3.281 -2.0465 -0.7409  1.3256
  698MOL0     H96315   7.190   7.517   3.453  1.2621 -0.4573  0.5478
  698MOL0     H96316   7.215   7.286   3.394  0.4250 -1.9750 -2.0498
  698MOL0     H96317   7.054   7.319   3.336  0.6960 -2.5834 -2.5253
  698MOL0     H96318   7.301   7.285   3.179 -0.2636  1.4820  0.4271
  698MOL0     H96319   7.165   7.387   3.114  2.5221  0.7582 -0.0929
  698MOL0     H96320   7.002   7.009   3.042  1.3614 -1.3239 -0.5902
  698MOL0     H96321   7.630   7.436   3.259  2.1554 -0.6492 -1.7808
  698MOL0     H96322   7.779   7.308   3.139  0.0066 -0.5316 -0.2613
  698MOL0     H96323   7.895   7.263   3.276 -1.7613  0.1074  1.5151
  698MOL0     H96324   7.817   7.142   3.172  1.9536 -0.6509  0.4233
  699MOL0     O96325  10.134   8.472   0.698 -1.0679 -0.3456 -0.2181
  699MOL0     C96326  10.099   8.488   0.817 -0.5158 -0.2921  0.6504
  699MOL0     O96327  10.176   8.476   0.930  0.2654 -0.0893  0.1585
  699MOL0     C96328  10.298   8.415   0.932 -0.4363 -0.7011  0.2162
  699MOL0     C96329  10.368   8.360   0.823  0.6143  0.2414 -0.6290
  699MOL0     C96330  10.491   8.297   0.849 -0.1433 -0.8366  0.2496
  699MOL0     C96331  10.541   8.292   0.977  0.0834  0.7052 -0.4598
  699MOL0     O96332  10.672   8.242   0.998 -0.0214  0.4051  0.3509
  699MOL0     C96333  10.740   8.168   0.899 -0.9509 -0.0984  0.1461
  699MOL0     C96334  10.863   8.090   0.961 -0.1978  0.4662 -1.1475
  699MOL0     C96335  10.951   8.165   1.060 -0.4680 -0.5013 -0.3248
  699MOL0     C96336  11.031   8.061   1.130 -0.8241  0.7153  0.4530
  699MOL0     C96337  11.169   8.128   1.158  0.5876  0.7998 -0.0985
  699MOL0     C96338  11.264   8.031   1.215  0.2809  0.0348 -0.3747
  699MOL0     C96339  11.328   7.942   1.107  0.9080 -0.2165 -0.4532
  699MOL0     C96340  11.423   7.851   1.181  1.0661 -0.1489 -0.4352
  699MOL0     N96341  11.477   7.755   1.082 -1.1098  0.7913 -0.3109
  699MOL0     C96342  11.435   7.622   1.046 -0.0856 -0.0146  0.1804
  699MOL0     C96343  11.515   7.601   0.932 -0.0889  0.0966  0.1828
  699MOL0     C96344  11.508   7.469   0.855  0.7179 -0.2430 -0.2950
  699MOL0     C96345  11.484   7.490   0.709 -0.0583 -0.1747  0.2512
  699MOL0     C96346  11.333   7.517   0.675 -0.6032 -0.4818 -0.4901
  699MOL0     C96347  11.304   7.578   0.530 -0.3662 -0.3651  0.0189
  699MOL0     O96348  11.271   7.469   0.447 -0.0449  0.3073  0.0677
  699MOL0     C96349  11.361   7.403   0.373 -0.2657  0.9895 -0.2081
  699MOL0     C96350  11.506   7.415   0.378 -0.3032 -0.1731  0.3317
  699MOL0     C96351  11.584   7.328   0.307  0.1248  0.0980 -0.5692
  699MOL0     C96352  11.731   7.337   0.334  0.0185 -0.6796 -0.5191
  699MOL0     C96353  11.528   7.236   0.208 -0.3741  0.1477  0.7048
  699MOL0     C96354  11.606   7.134   0.126 -0.6798  0.2338 -0.6898
  699MOL0     O96355  11.527   7.031   0.076 -0.5061  0.4638  0.5456
  699MOL0     C96356  11.580   6.932  -0.015 -0.2908  1.6572 -0.8595
  699MOL0     C96357  11.666   6.965  -0.126 -0.1802 -0.0619 -0.6286
  699MOL0     C96358  11.688   6.868  -0.232 -0.1544  0.1918  0.3564
  699MOL0     C96359  11.633   6.746  -0.230  0.4375  0.1628  0.4530
  699MOL0     O96360  11.657   6.660  -0.337  0.1417 -0.1146  0.1904
  699MOL0     C96361  11.544   6.607  -0.407 -0.1789  0.1161 -0.2550
  699MOL0     C96362  11.579   6.602  -0.552  0.5233  0.5695  0.7316
  699MOL0     C96363  11.609   6.734  -0.606 -0.6197 -0.0655 -0.0220
  699MOL0     C96364  11.629   6.747  -0.756 -0.1345 -0.9686  0.2911
  699MOL0     C96365  11.769   6.722  -0.814  0.5372  1.0360  0.6973
  699MOL0     C96366  11.855   6.850  -0.824 -0.2183  0.1782  0.0645
  699MOL0     C96367  12.000   6.816  -0.854 -0.0368  0.7812  0.3671
  699MOL0     C96368  12.104   6.924  -0.832 -0.0365  0.2489  0.1012
  699MOL0    Cl96369  12.118   6.943  -0.651  0.0119  0.7320 -0.0973
  699MOL0     C96370  11.565   6.714  -0.115  0.1977  0.4695  0.3885
  699MOL0     C96371  11.533   6.803  -0.011  0.2020  0.0765 -0.4217
  699MOL0     O96372  11.731   7.155   0.098  0.1815 -0.8848 -0.0761
  699MOL0     C96373  11.391   7.228   0.195  0.7213 -0.0801 -0.2876
  699MOL0     C96374  11.309   7.308   0.282  0.1687 -0.1036  0.0075
  699MOL0     N96375  11.604   7.706   0.907 -0.5285 -0.3551  0.7041
  699MOL0     N96376  11.575   7.795   0.997  0.7659 -0.1597 -0.6427
  699MOL0     C96377  10.466   8.332   1.080  0.8810 -0.3749 -0.0918
  699MOL0     C96378  10.341   8.396   1.063  0.6403  0.3712 -1.1901
  699MOL0     C96379   9.955   8.478   0.834 -0.9816 -0.4691  0.1573
  699MOL0     C96380   9.839   8.376   0.695 -0.0121 -0.0594  0.3450
  699MOL0     C96381   9.632   8.376   0.708  0.1348  0.2353 -0.9938
  699MOL0     C96382   9.538   8.477   0.859 -0.6550 -0.6193 -0.3060
  699MOL0     O96383   9.396   8.484   0.844 -0.1948 -0.3663  0.7796
  699MOL0     C96384   9.325   8.537   0.953  0.4480  0.7335 -0.0038
  699MOL0     C96385   9.333   8.681   0.940  0.0409 -0.5108 -0.3706
  699MOL0     C96386   9.304   8.760   1.071 -1.3213 -1.4816  0.1493
  699MOL0     C96387   9.167   8.729   1.132 -0.0186  0.3405 -0.4703
  699MOL0     C96388   9.154   8.764   1.281  0.1037  0.1954 -0.1168
  699MOL0     C96389   9.154   8.777   1.404 -0.3670 -0.5579  0.4728
  699MOL0     C96390   9.648   8.583   1.006  0.2015  0.8606  0.3704
  699MOL0     C96391   9.867   8.586   0.991  1.2011  0.8509  0.0993
  699MOL0     C96392   9.934   8.682   1.091  0.1721 -0.3795 -0.3077
  699MOL0     H96393  10.328   8.356   0.722  0.0455 -0.0359 -0.4006
  699MOL0     H96394  10.534   8.265   0.755 -0.5479 -0.9810  0.1111
  699MOL0     H96395  10.765   8.234   0.816 -0.5730  0.9067  1.0468
  699MOL0     H96396  10.679   8.087   0.855 -1.0769 -0.3610  0.7990
  699MOL0     H96397  10.836   7.994   1.006  1.2066 -0.7510 -2.7624
  699MOL0     H96398  10.924   8.070   0.872 -0.0066 -3.0373 -0.3780
  699MOL0     H96399  11.024   8.221   1.000  0.8121 -1.2526  0.5015
  699MOL0     H96400  10.895   8.228   1.130 -2.4832 -1.1107 -1.2954
  699MOL0     H96401  10.982   8.031   1.223 -0.8858 -0.9922 -0.1102
  699MOL0     H96402  11.048   7.976   1.064  0.4285  0.2510  1.3274
  699MOL0     H96403  11.157   8.216   1.222  2.8684 -0.2347  1.8514
  699MOL0     H96404  11.215   8.166   1.066  3.4572 -1.1889  0.3831
  699MOL0     H96405  11.343   8.095   1.255 -0.1489  1.1714 -1.2767
  699MOL0     H96406  11.220   7.967   1.292  1.8729 -1.0451 -0.3158
  699MOL0     H96407  11.373   7.994   1.023 -1.6411 -0.2402 -1.9390
  699MOL0     H96408  11.256   7.876   1.059  0.1847  0.8613 -0.8859
  699MOL0     H96409  11.499   7.897   1.244  0.0788 -1.2498  1.6603
  699MOL0     H96410  11.374   7.794   1.260 -1.1054  1.9801 -0.1526
  699MOL0     H96411  11.358   7.558   1.088 -1.7371  1.4568 -0.4690
  699MOL0     H96412  11.447   7.398   0.912  0.5182  0.2276  0.0826
  699MOL0     H96413  11.610   7.432   0.872  0.4993 -1.5466 -1.6140
  699MOL0     H96414  11.548   7.573   0.677  0.3363 -0.7330 -0.4495
  699MOL0     H96415  11.518   7.405   0.650  2.7536  2.2399 -1.9174
  699MOL0     H96416  11.269   7.429   0.677 -1.3539 -0.1166 -3.4474
  699MOL0     H96417  11.305   7.606   0.733  0.9586  0.2796 -0.8724
  699MOL0     H96418  11.237   7.664   0.523  1.8702  1.5097  0.4398
  699MOL0     H96419  11.401   7.609   0.491 -0.0370 -1.4502 -0.0653
  699MOL0     H96420  11.557   7.479   0.449 -1.3272 -0.6749  1.5564
  699MOL0     H96421  11.749   7.372   0.436 -1.0204  0.2098 -0.6210
  699MOL0     H96422  11.801   7.388   0.267  4.0620 -0.2667  3.4996
  699MOL0     H96423  11.765   7.233   0.343 -2.3383 -1.4895 -0.2163
  699MOL0     H96424  11.706   7.065  -0.135  0.7887 -0.5792 -2.6686
  699MOL0     H96425  11.746   6.913  -0.312  0.4903 -0.7948  0.2523
  699MOL0     H96426  11.535   6.505  -0.370  0.8616  0.2516  0.4109
  699MOL0     H96427  11.463   6.676  -0.380 -0.7118 -1.3655  2.2053
  699MOL0     H96428  11.666   6.536  -0.563 -3.8284 -5.8072 -0.7365
  699MOL0     H96429  11.509   6.553  -0.620  2.3262  0.7959 -1.4078
  699MOL0     H96430  11.691   6.776  -0.547 -0.2385 -0.0467 -0.5576
  699MOL0     H96431  11.523   6.798  -0.587 -0.4061  1.2695 -3.0251
  699MOL0     H96432  11.612   6.853  -0.780  0.7148 -0.5748  1.3720
  699MOL0     H96433  11.555   6.690  -0.815  1.4356 -1.0125 -1.7456
  699MOL0     H96434  11.814   6.648  -0.748 -0.3985  0.5537  0.8133
  699MOL0     H96435  11.756   6.667  -0.908  2.6359  0.4059  0.7343
  699MOL0     H96436  11.851   6.906  -0.730  2.5955  0.7243 -0.0622
  699MOL0     H96437  11.809   6.913  -0.901 -0.6015  0.8776  0.8577
  699MOL0     H96438  11.999   6.779  -0.957 -2.0813  0.8239  0.3342
  699MOL0     H96439  12.022   6.732  -0.787 -0.4774  1.5871  1.5366
  699MOL0     H96440  12.058   7.008  -0.884  1.9136  0.1585 -1.9147
  699MOL0     H96441  12.197   6.900  -0.884 -1.6837 -0.5318 -2.6575
  699MOL0     H96442  11.542   6.612  -0.090  0.0794  0.1859 -0.8134
  699MOL0     H96443  11.463   6.777   0.068 -0.9124 -2.2736 -2.0732
  699MOL0     H96444  11.337   7.161   0.129 -1.2398  0.8053  0.3346
  699MOL0     H96445  11.201   7.305   0.272 -0.0234 -3.0571  1.8552
  699MOL0     H96446  10.524   8.327   1.171  3.5684 -2.4448 -1.7461
  699MOL0     H96447  10.276   8.436   1.141  0.0339 -1.4349 -0.7126
  699MOL0     H96448   9.887   8.325   0.611 -3.4258  0.1778 -1.9638
  699MOL0     H96449   9.578   8.327   0.628  0.3900 -1.3593 -0.2334
  699MOL0     H96450   9.222   8.500   0.957  1.3243 -1.9452 -0.1093
  699MOL0     H96451   9.370   8.505   1.048  1.0065 -3.3505 -1.4565
  699MOL0     H96452   9.258   8.707   0.865 -3.6967 -0.5247  3.0002
  699MOL0     H96453   9.433   8.713   0.911  0.2709 -1.1413 -0.3036
  699MOL0     H96454   9.380   8.729   1.144  1.5305  3.3678 -0.2624
  699MOL0     H96455   9.321   8.868   1.061 -1.7778 -1.4673 -0.4946
  699MOL0     H96456   9.147   8.622   1.134 -1.0403  0.5205  1.2316
  699MOL0     H96457   9.084   8.774   1.077 -2.1459 -2.8304 -0.1193
  699MOL0     H96458   9.144   8.812   1.505  0.5796 -0.2273  0.4636
  699MOL0     H96459   9.591   8.641   1.078 -0.5622  1.7334 -0.9062
  699MOL0     H96460   9.971   8.773   1.044  1.3527  1.3872  3.6536
  699MOL0     H96461   9.853   8.712   1.158  0.1342  1.9758 -1.3194
  699MOL0     H96462  10.019   8.641   1.148 -0.0591  2.0776  2.0151
  700MOL0     O96463   0.165  11.148   8.561 -0.1312 -0.0208  0.1083
  700MOL0     C96464   0.041  11.175   8.569 -0.1030  0.6089  0.1417
  700MOL0     O96465  -0.015  11.272   8.646 -0.4126 -0.5911  0.2395
  700MOL0     C96466   0.055  11.375   8.701 -0.7728  0.3301 -0.5108
  700MOL0     C96467   0.019  11.411   8.831 -0.7712  0.5603 -0.1179
  700MOL0     C96468   0.098  11.501   8.906  0.6390  0.5036  0.5009
  700MOL0     C96469   0.209  11.559   8.843 -0.1162 -0.0157  0.0429
  700MOL0     O96470   0.292  11.653   8.906 -0.5315  0.3526 -0.1099
  700MOL0     C96471   0.391  11.605   8.991 -0.2338 -0.6108 -0.0112
  700MOL0     C96472   0.505  11.560   8.904 -0.0652 -0.2338 -0.2894
  700MOL0     C96473   0.560  11.683   8.828 -0.8238 -0.0840  0.0674
  700MOL0     C96474   0.673  11.632   8.728  0.1153 -0.1443 -0.5236
  700MOL0     C96475   0.733  11.733   8.635  0.5612  1.5974  0.2470
  700MOL0     C96476   0.861  11.676   8.567 -0.7121 -0.3834  1.0026
  700MOL0     C96477   0.931  11.793   8.487 -0.0672 -0.3831  0.4047
  700MOL0     C96478   1.030  11.869   8.583  0.6705  0.5890 -0.4057
  700MOL0     N96479   1.126  11.959   8.516 -0.7986 -0.0258  0.0677
  700MOL0     C96480   1.262  11.940   8.515 -0.7426  0.9763  0.0084
  700MOL0     C96481   1.305  12.024   8.425  0.5002 -0.5277 -0.3161
  700MOL0     C96482   1.453  12.046   8.416  0.2682 -0.0413  0.4383
  700MOL0     C96483   1.489  12.106   8.283  0.9622  0.6378  0.4216
  700MOL0     C96484   1.639  12.106   8.241  0.3558 -0.9352 -0.0780
  700MOL0     C96485   1.731  12.110   8.367  0.6325 -0.6855 -0.3908
  700MOL0     O96486   1.855  12.146   8.312  0.3329 -0.3334 -0.4750
  700MOL0     C96487   1.950  12.162   8.413 -0.7735  0.1837  0.2415
  700MOL0     C96488   1.961  12.096   8.536 -0.2307 -0.0931  0.0615
  700MOL0     C96489   2.076  12.110   8.626  0.2924  0.1927 -0.8635
  700MOL0     C96490   2.067  12.022   8.742  0.6834 -0.1205 -0.3566
  700MOL0     C96491   2.177  12.202   8.596 -0.0364  0.0783  0.0476
  700MOL0     C96492   2.285  12.246   8.685 -0.0181 -0.0600 -0.4089
  700MOL0     O96493   2.390  12.321   8.641 -0.8380 -0.0693  0.0667
  700MOL0     C96494   2.439  12.423   8.716 -0.5937 -0.9976 -0.2789
  700MOL0     C96495   2.359  12.516   8.788  0.1934  0.2461 -0.3904
  700MOL0     C96496   2.409  12.625   8.851 -0.7462  0.3932 -0.6934
  700MOL0     C96497   2.551  12.640   8.857  0.6789 -0.0419  0.7217
  700MOL0     O96498   2.606  12.745   8.917 -0.4454  0.2613  0.1930
  700MOL0     C96499   2.539  12.860   8.971  0.4853  0.3907 -0.2775
  700MOL0     C96500   2.492  12.836   9.114  0.2237 -0.3115  0.1679
  700MOL0     C96501   2.413  12.961   9.181 -0.5777  0.5490 -0.2130
  700MOL0     C96502   2.490  13.020   9.301 -0.9858 -0.2004  0.1407
  700MOL0     C96503   2.416  13.136   9.367 -0.3024  0.0182 -0.2848
  700MOL0     C96504   2.485  13.179   9.501 -0.3162 -0.0062 -0.2039
  700MOL0     C96505   2.392  13.272   9.576  0.1884 -0.5983  0.5179
  700MOL0     C96506   2.455  13.334   9.701  0.4011 -0.5337 -0.5616
  700MOL0    Cl96507   2.502  13.217   9.823 -0.2760 -0.3924 -0.3861
  700MOL0     C96508   2.632  12.550   8.789 -0.4598  0.0735 -0.4550
  700MOL0     C96509   2.578  12.438   8.724 -0.1402 -0.4446 -0.8302
  700MOL0     O96510   2.272  12.209   8.795 -0.5282 -0.3699  0.1618
  700MOL0     C96511   2.169  12.263   8.468  0.1872  0.9737 -0.2168
  700MOL0     C96512   2.063  12.243   8.382  0.3530 -0.5329 -0.6138
  700MOL0     N96513   1.203  12.104   8.375  0.2691 -0.2899  0.1098
  700MOL0     N96514   1.093  12.056   8.429 -0.2121 -0.4835  0.3774
  700MOL0     C96515   0.241  11.530   8.709  0.0222 -0.0789 -0.2222
  700MOL0     C96516   0.165  11.431   8.643 -0.2361 -0.5625  1.1009
  700MOL0     C96517  -0.059  11.094   8.495 -0.3457 -0.7926 -0.4135
  700MOL0     C96518  -0.182  11.093   8.554 -0.6124 -0.7789 -1.3521
  700MOL0     C96519  -0.282  11.024   8.493  1.0249 -0.0807 -1.0406
  700MOL0     C96520  -0.269  10.964   8.373 -0.1326  0.2432 -0.5383
  700MOL0     O96521  -0.374  10.909   8.305 -0.0234  0.9023 -0.3297
  700MOL0     C96522  -0.514  10.927   8.336  0.4825  0.1670 -1.0386
  700MOL0     C96523  -0.576  10.972   8.205 -0.5284 -1.0104  0.5329
  700MOL0     C96524  -0.723  10.956   8.190  0.1515  0.1362  0.9850
  700MOL0     C96525  -0.805  11.003   8.304  0.2030 -0.2860 -0.5820
  700MOL0     C96526  -0.785  11.148   8.345 -0.6020 -0.0454  0.0208
  700MOL0     C96527  -0.775  11.269   8.370 -0.7547  0.3277 -0.1698
  700MOL0     C96528  -0.150  10.972   8.309 -0.7842  0.6186  0.7966
  700MOL0     C96529  -0.038  11.034   8.364  0.4928  0.0236  0.3246
  700MOL0     C96530   0.083  11.048   8.282 -0.1056  0.0005 -0.4274
  700MOL0     H96531  -0.070  11.370   8.879 -0.8718 -1.3035 -1.7698
  700MOL0     H96532   0.063  11.521   9.007 -0.2754  0.2444  0.2442
  700MOL0     H96533   0.363  11.520   9.054  1.0878 -0.5406  0.7131
  700MOL0     H96534   0.429  11.683   9.057 -0.4483  1.5579 -2.3031
  700MOL0     H96535   0.583  11.514   8.966  1.7360  2.1657 -0.5766
  700MOL0     H96536   0.462  11.481   8.843  0.2063 -0.8300  0.2774
  700MOL0     H96537   0.480  11.734   8.773 -1.0608 -0.7008 -0.1753
  700MOL0     H96538   0.603  11.759   8.893  0.9657 -1.0046 -0.0020
  700MOL0     H96539   0.757  11.590   8.784  1.2227 -0.7932 -2.5673
  700MOL0     H96540   0.626  11.556   8.665  0.8760 -0.3193 -0.8904
  700MOL0     H96541   0.762  11.818   8.697 -2.0300  3.0122 -0.3038
  700MOL0     H96542   0.661  11.765   8.559 -0.6882  0.4114  0.8644
  700MOL0     H96543   0.928  11.638   8.645  1.0727  1.1088  0.2890
  700MOL0     H96544   0.847  11.596   8.493 -0.3200 -1.8470  2.4558
  700MOL0     H96545   0.851  11.852   8.442  1.7966  2.9277  1.1274
  700MOL0     H96546   0.992  11.757   8.404  0.1709  0.3379  0.2607
  700MOL0     H96547   0.968  11.937   8.643 -0.2720  0.6107 -1.3757
  700MOL0     H96548   1.081  11.801   8.651 -1.4701 -0.1571  0.5533
  700MOL0     H96549   1.322  11.885   8.587 -3.1966  2.3857  3.3845
  700MOL0     H96550   1.505  11.951   8.431  0.3341 -0.0035  0.4466
  700MOL0     H96551   1.495  12.113   8.492 -0.5529 -0.1722  1.0208
  700MOL0     H96552   1.428  12.062   8.203  0.4109  0.2334  1.0526
  700MOL0     H96553   1.457  12.210   8.290 -0.6838  0.1377  0.7976
  700MOL0     H96554   1.680  12.017   8.193  3.0225  0.3619 -0.3959
  700MOL0     H96555   1.648  12.185   8.166  1.9158 -1.3210 -0.3481
  700MOL0     H96556   1.703  12.185   8.441 -0.0535 -0.8145 -0.5094
  700MOL0     H96557   1.735  12.016   8.423  0.4623  0.1347  1.0504
  700MOL0     H96558   1.885  12.033   8.581  1.3145  0.3076  3.5583
  700MOL0     H96559   2.162  11.972   8.764  0.3505  0.6721  3.5783
  700MOL0     H96560   1.993  11.942   8.736  1.5422 -1.2784  2.5591
  700MOL0     H96561   2.052  12.078   8.835  1.3683 -1.9284  0.8929
  700MOL0     H96562   2.252  12.519   8.770 -0.7216 -2.2180  3.4090
  700MOL0     H96563   2.338  12.692   8.898  1.6657  0.0722  4.0008
  700MOL0     H96564   2.620  12.933   8.978  2.3899 -1.3528 -2.4057
  700MOL0     H96565   2.455  12.892   8.908 -0.3402 -0.3980  0.4118
  700MOL0     H96566   2.430  12.745   9.118 -1.8577  1.0677  2.1617
  700MOL0     H96567   2.577  12.829   9.183 -0.6062 -0.9115  1.1672
  700MOL0     H96568   2.328  12.919   9.236  0.9190  0.5988  2.2650
  700MOL0     H96569   2.371  13.031   9.108 -2.5776 -1.2334 -0.8797
  700MOL0     H96570   2.584  13.062   9.264 -0.4606 -1.2065  0.3061
  700MOL0     H96571   2.504  12.946   9.381 -1.7608  0.3688  0.8220
  700MOL0     H96572   2.410  13.225   9.304  3.6051  0.9767  0.4085
  700MOL0     H96573   2.319  13.106   9.407 -0.5421  0.7983 -0.2537
  700MOL0     H96574   2.575  13.239   9.483  0.9988 -0.9388  2.5405
  700MOL0     H96575   2.511  13.091   9.561  0.4893  0.4693  0.1682
  700MOL0     H96576   2.301  13.220   9.605 -1.1443  0.2494 -1.8247
  700MOL0     H96577   2.368  13.362   9.517 -4.4020 -0.8597  1.6027
  700MOL0     H96578   2.379  13.403   9.737 -0.9014 -0.3381 -3.4395
  700MOL0     H96579   2.536  13.403   9.676 -0.3907  2.1570  3.3509
  700MOL0     H96580   2.740  12.560   8.788 -0.1350 -2.6523 -0.2390
  700MOL0     H96581   2.639  12.367   8.670 -2.0494 -0.7834 -2.6659
  700MOL0     H96582   2.251  12.324   8.434  2.5776 -1.3968  0.8813
  700MOL0     H96583   2.073  12.301   8.291 -1.8758  2.8520  1.1107
  700MOL0     H96584   0.322  11.580   8.658 -0.0165 -0.8221 -1.0377
  700MOL0     H96585   0.195  11.388   8.548  2.9685 -1.8827  2.5576
  700MOL0     H96586  -0.191  11.129   8.656  3.4514  0.7232 -1.3502
  700MOL0     H96587  -0.371  11.014   8.555  2.8172 -1.9930  1.4272
  700MOL0     H96588  -0.554  10.832   8.373  0.1512  0.8492  0.4222
  700MOL0     H96589  -0.533  11.009   8.406  1.7074  1.1040 -1.7603
  700MOL0     H96590  -0.525  10.922   8.122  1.9500  4.5084 -1.7660
  700MOL0     H96591  -0.550  11.077   8.189 -2.0982 -0.8477 -1.4294
  700MOL0     H96592  -0.760  11.010   8.103  0.3378 -1.4204 -0.0886
  700MOL0     H96593  -0.764  10.856   8.174 -3.5848  1.1665  2.9284
  700MOL0     H96594  -0.781  10.945   8.393 -3.8341  0.0077  0.8810
  700MOL0     H96595  -0.911  10.991   8.279 -0.6726  1.2527  1.9955
  700MOL0     H96596  -0.764  11.375   8.370  1.6830  0.1514  1.4954
  700MOL0     H96597  -0.129  10.926   8.213  0.6208  1.3380  0.7366
  700MOL0     H96598   0.136  10.954   8.302 -0.0673 -0.7064 -3.3416
  700MOL0     H96599   0.054  11.055   8.177  0.4100 -1.9545 -0.7429
  700MOL0     H96600   0.143  11.133   8.313  0.5273 -1.3763  2.4911
  701MOL0     O96601   3.244   0.010   8.084  0.6206  0.3749  0.4254
  701MOL0     C96602   3.233   0.079   7.986  0.4397 -0.3991  0.4587
  701MOL0     O96603   3.333   0.163   7.930  0.6255 -0.1397 -0.6220
  701MOL0     C96604   3.443   0.205   8.002 -0.0180 -0.1742 -0.2593
  701MOL0     C96605   3.559   0.224   7.930 -0.5012 -0.5129 -0.2429
  701MOL0     C96606   3.686   0.253   7.993  0.1292  0.2256 -0.4074
  701MOL0     C96607   3.704   0.251   8.141  0.4334  0.3651  0.0932
  701MOL0     O96608   3.823   0.276   8.210 -0.0305  0.5521 -0.0836
  701MOL0     C96609   3.929   0.337   8.135  0.0576 -0.7699  0.9145
  701MOL0     C96610   4.024   0.410   8.230  0.4124 -0.2942  0.1281
  701MOL0     C96611   4.137   0.482   8.156  0.1502  0.2571 -0.4628
  701MOL0     C96612   4.227   0.545   8.258  0.1455  0.1815 -0.0714
  701MOL0     C96613   4.368   0.573   8.203 -0.1567 -0.1310  0.7950
  701MOL0     C96614   4.482   0.605   8.314  0.6317  0.5418  1.1231
  701MOL0     C96615   4.525   0.750   8.298 -0.3286  0.9453 -0.1651
  701MOL0     C96616   4.418   0.851   8.337 -0.2325  0.2021 -0.0543
  701MOL0     N96617   4.473   0.987   8.323 -0.9470  0.6049 -0.0656
  701MOL0     C96618   4.565   1.048   8.414 -0.4618  0.2761  0.2248
  701MOL0     C96619   4.588   1.172   8.364  0.5241 -0.2075 -0.0956
  701MOL0     C96620   4.690   1.277   8.419  0.8479 -0.4122  0.9612
  701MOL0     C96621   4.831   1.220   8.439  0.6124 -0.3131  0.4541
  701MOL0     C96622   4.916   1.340   8.511 -0.2440  0.2270 -0.2478
  701MOL0     C96623   5.068   1.318   8.503 -0.6332 -0.4636  0.5687
  701MOL0     O96624   5.109   1.187   8.531 -0.0426  0.0097 -0.7986
  701MOL0     C96625   5.235   1.139   8.509  0.0351 -0.0862 -1.3586
  701MOL0     C96626   5.332   1.222   8.447 -0.4035  0.0983  0.2990
  701MOL0     C96627   5.470   1.188   8.435 -0.4449 -0.2855  0.7173
  701MOL0     C96628   5.567   1.280   8.383 -0.0556  0.1956 -0.2397
  701MOL0     C96629   5.501   1.058   8.482 -0.7889  0.1592 -0.8572
  701MOL0     C96630   5.641   1.000   8.477 -0.2998 -0.0064 -0.2909
  701MOL0     O96631   5.750   1.081   8.459  0.3783 -0.0929  0.7424
  701MOL0     C96632   5.882   1.044   8.463  0.0050 -0.1103  0.2781
  701MOL0     C96633   5.982   1.141   8.430 -0.1008 -0.1327 -0.3206
  701MOL0     C96634   6.117   1.125   8.459  0.0687 -0.6244 -0.1563
  701MOL0     C96635   6.165   1.007   8.518  0.3832  0.4288 -0.1864
  701MOL0     O96636   6.294   1.008   8.551  0.0709  0.4425 -0.4574
  701MOL0     C96637   6.355   0.895   8.607  1.6518  0.0081  0.3915
  701MOL0     C96638   6.508   0.912   8.599 -0.1726  0.0177 -0.1913
  701MOL0     C96639   6.558   1.015   8.700 -0.0308 -0.4934  0.1322
  701MOL0     C96640   6.710   1.021   8.704 -0.1550  0.2582 -0.8057
  701MOL0     C96641   6.753   1.075   8.565  0.3883 -0.1930  0.1460
  701MOL0     C96642   6.900   1.044   8.534 -0.3920 -0.1125 -0.4015
  701MOL0     C96643   6.936   1.093   8.393  0.1351 -0.6644 -0.5573
  701MOL0     C96644   7.089   1.122   8.390 -0.1113 -1.3729 -0.0957
  701MOL0    Cl96645   7.183   0.975   8.421 -0.0678  0.2218  0.0586
  701MOL0     C96646   6.073   0.899   8.545 -0.4699 -0.5609 -0.1413
  701MOL0     C96647   5.935   0.921   8.519 -0.4372 -0.4315  0.0801
  701MOL0     O96648   5.648   0.881   8.492  0.5125  0.1530  0.1108
  701MOL0     C96649   5.397   0.970   8.542  1.0080 -0.0529  0.3314
  701MOL0     C96650   5.263   1.013   8.549  0.9814 -0.4447  0.1942
  701MOL0     N96651   4.491   1.187   8.263 -0.0931 -0.1750  0.0947
  701MOL0     N96652   4.428   1.073   8.232 -0.2098 -0.0518  0.2604
  701MOL0     C96653   3.588   0.225   8.209  0.6830  0.6358 -0.7043
  701MOL0     C96654   3.463   0.207   8.138 -0.0268 -0.1599 -0.6612
  701MOL0     C96655   3.101   0.089   7.918 -0.3514 -0.2381  0.3993
  701MOL0     C96656   3.094   0.181   7.805 -0.9267  0.7020  0.0315
  701MOL0     C96657   2.974   0.207   7.738 -0.9793  0.7336  0.5557
  701MOL0     C96658   2.857   0.138   7.770  0.2515 -0.5911 -0.1486
  701MOL0     O96659   2.731   0.165   7.718  0.0207 -1.0206 -0.3532
  701MOL0     C96660   2.686   0.060   7.635 -0.1937 -0.1640  0.6340
  701MOL0     C96661   2.566   0.100   7.558  0.0764 -0.4314 -0.7957
  701MOL0     C96662   2.472   0.195   7.640  0.3424  0.4684 -0.5176
  701MOL0     C96663   2.420   0.117   7.766  0.1275 -0.9301 -0.2782
  701MOL0     C96664   2.343   0.214   7.851 -0.0858  0.8408  0.3595
  701MOL0     C96665   2.264   0.291   7.901 -1.1022 -0.2171 -0.6579
  701MOL0     C96666   2.865   0.045   7.878  0.4800  0.1497  0.6364
  701MOL0     C96667   2.982   0.019   7.950 -0.7834 -0.1302  0.4136
  701MOL0     C96668   2.960  -0.077   8.071  0.4285  0.0093 -0.1775
  701MOL0     H96669   3.567   0.215   7.822  1.9204 -1.2036 -0.0775
  701MOL0     H96670   3.753   0.305   7.925 -0.2518  2.9379  1.1343
  701MOL0     H96671   3.883   0.419   8.079  0.6409  0.1330  1.7219
  701MOL0     H96672   3.976   0.260   8.074  0.0029  0.5761 -0.9158
  701MOL0     H96673   3.966   0.483   8.287  2.0493  1.1791 -0.0019
  701MOL0     H96674   4.064   0.333   8.297  2.5052 -2.8845 -3.7118
  701MOL0     H96675   4.190   0.401   8.107  0.4512 -0.0830  0.4029
  701MOL0     H96676   4.109   0.555   8.079  1.8976  2.2293  0.6626
  701MOL0     H96677   4.185   0.644   8.277 -2.0763 -0.1825 -2.5067
  701MOL0     H96678   4.241   0.485   8.349  4.4895 -1.0465 -1.3392
  701MOL0     H96679   4.362   0.655   8.132  2.2372 -1.9171 -1.6768
  701MOL0     H96680   4.390   0.483   8.144 -1.7576  0.7589 -1.2846
  701MOL0     H96681   4.454   0.569   8.414  2.0959 -3.5184  0.2767
  701MOL0     H96682   4.562   0.534   8.291  0.3230  0.8075 -0.9963
  701MOL0     H96683   4.549   0.766   8.192 -0.2684 -1.5782 -0.6022
  701MOL0     H96684   4.610   0.768   8.364  0.8044 -2.3244 -0.5508
  701MOL0     H96685   4.324   0.839   8.283 -2.2227  3.8891  2.2202
  701MOL0     H96686   4.391   0.834   8.441 -1.7886 -1.2337 -0.6583
  701MOL0     H96687   4.612   1.008   8.503 -2.9873  2.7354  2.8784
  701MOL0     H96688   4.650   1.327   8.507 -1.0022  1.8956 -1.0397
  701MOL0     H96689   4.691   1.360   8.347  2.1682  0.4991  1.9915
  701MOL0     H96690   4.831   1.131   8.502 -0.8361 -3.5360 -3.6084
  701MOL0     H96691   4.883   1.182   8.350  2.6532 -3.1967  2.6735
  701MOL0     H96692   4.891   1.436   8.465  0.5638  1.2607  1.3332
  701MOL0     H96693   4.881   1.343   8.615 -1.2755 -0.4366 -0.5587
  701MOL0     H96694   5.092   1.326   8.397 -0.4931  1.9838  0.7236
  701MOL0     H96695   5.127   1.388   8.565 -1.1572 -2.2894  3.3215
  701MOL0     H96696   5.314   1.324   8.412  0.5650 -0.2922 -1.4532
  701MOL0     H96697   5.642   1.295   8.462  0.1444  1.4163 -0.6295
  701MOL0     H96698   5.533   1.378   8.347  1.1145  0.1415 -1.5876
  701MOL0     H96699   5.601   1.231   8.292  0.7989 -0.9654  0.6644
  701MOL0     H96700   5.943   1.229   8.381 -2.4898 -0.8590  0.1528
  701MOL0     H96701   6.184   1.205   8.430  0.1748 -1.0210 -1.0520
  701MOL0     H96702   6.318   0.882   8.709  3.1875 -1.3189  0.8375
  701MOL0     H96703   6.322   0.800   8.564 -2.7861  0.4635  2.2402
  701MOL0     H96704   6.546   0.812   8.621 -0.5669  0.2425  1.7039
  701MOL0     H96705   6.538   0.926   8.495  0.4736  1.2415  0.1344
  701MOL0     H96706   6.524   1.006   8.803  1.7286 -1.9746  0.6256
  701MOL0     H96707   6.539   1.115   8.661 -0.0892 -0.0391  1.2774
  701MOL0     H96708   6.743   0.921   8.732 -1.9597  0.0134  0.6074
  701MOL0     H96709   6.748   1.088   8.782  0.2496 -0.2381 -0.5752
  701MOL0     H96710   6.699   1.028   8.482  0.1737  1.3253 -0.6034
  701MOL0     H96711   6.732   1.182   8.564 -0.3609 -0.3395 -0.7131
  701MOL0     H96712   6.921   0.938   8.548  0.9092 -0.2520 -2.9004
  701MOL0     H96713   6.961   1.091   8.612 -1.2853 -0.5122  0.5614
  701MOL0     H96714   6.875   1.178   8.363 -3.7449 -3.7362 -2.2072
  701MOL0     H96715   6.903   1.021   8.317  0.2059  0.9525 -2.1951
  701MOL0     H96716   7.109   1.184   8.478  2.5493 -0.2701 -1.3623
  701MOL0     H96717   7.114   1.186   8.305  1.4125 -0.0030  1.3211
  701MOL0     H96718   6.113   0.799   8.558  1.1585 -0.6482 -4.2571
  701MOL0     H96719   5.868   0.838   8.538 -2.4061  0.9596 -0.4448
  701MOL0     H96720   5.412   0.871   8.584 -2.2866 -0.5206  0.6890
  701MOL0     H96721   5.186   0.948   8.589  1.5036 -1.4185 -0.3516
  701MOL0     H96722   3.585   0.206   8.316 -1.1144  0.2294 -0.7861
  701MOL0     H96723   3.385   0.178   8.208  0.8592 -1.0354 -0.0188
  701MOL0     H96724   3.181   0.237   7.773  1.4532 -3.5957 -1.9012
  701MOL0     H96725   2.981   0.276   7.655  1.4276 -2.7139 -2.4347
  701MOL0     H96726   2.762   0.044   7.559  0.7489  1.3951  1.2016
  701MOL0     H96727   2.660  -0.034   7.685  0.7119  0.1761  1.7802
  701MOL0     H96728   2.500   0.018   7.527 -0.9725  1.1918 -3.2166
  701MOL0     H96729   2.600   0.143   7.463 -1.5396  0.8615 -0.8332
  701MOL0     H96730   2.516   0.294   7.655  1.2623 -0.2917  2.4968
  701MOL0     H96731   2.387   0.217   7.574  1.2531  3.8781 -0.7169
  701MOL0     H96732   2.498   0.058   7.816 -0.2940 -0.9949  0.3138
  701MOL0     H96733   2.345   0.044   7.734  0.0217  0.0696 -2.4364
  701MOL0     H96734   2.197   0.364   7.943  2.3577  2.7226  0.1873
  701MOL0     H96735   2.772   0.003   7.914 -0.0539  1.9768  1.5389
  701MOL0     H96736   2.854  -0.104   8.080  0.4100  0.4713  1.0898
  701MOL0     H96737   3.013  -0.173   8.062  1.9217  0.6071  1.6538
  701MOL0     H96738   2.988  -0.029   8.165  2.2148 -0.7297 -0.2907
  702MOL0     O96739  10.466   6.861   7.311  0.0207  0.1466 -0.8595
  702MOL0     C96740  10.418   6.872   7.197  0.1076  0.7230  0.3136
  702MOL0     O96741  10.449   6.790   7.089 -0.5830  0.4026 -0.3478
  702MOL0     C96742  10.566   6.725   7.076 -0.7290 -1.0215  1.1136
  702MOL0     C96743  10.567   6.596   7.033  0.4754 -0.0790  0.4057
  702MOL0     C96744  10.688   6.522   7.029  0.9331 -0.2525 -0.2611
  702MOL0     C96745  10.809   6.574   7.073 -0.2583 -0.6899 -0.3992
  702MOL0     O96746  10.926   6.502   7.073 -0.0212  0.2623  0.1130
  702MOL0     C96747  11.052   6.574   7.101  0.3957  0.3537 -0.5022
  702MOL0     C96748  11.155   6.459   7.075 -0.1902 -0.5241  0.8433
  702MOL0     C96749  11.284   6.490   7.149  0.0824  0.0699 -0.3670
  702MOL0     C96750  11.380   6.366   7.153 -0.3721 -0.7728  0.2761
  702MOL0     C96751  11.527   6.400   7.188 -0.6132 -0.3850 -0.5118
  702MOL0     C96752  11.635   6.294   7.162 -0.0937  0.0176  0.6528
  702MOL0     C96753  11.767   6.348   7.206 -0.4760 -0.6480 -0.1089
  702MOL0     C96754  11.871   6.231   7.239 -0.0932 -0.8250  0.1399
  702MOL0     N96755  11.920   6.171   7.117 -0.1132  0.0633 -0.3119
  702MOL0     C96756  12.011   6.233   7.035  0.1283 -0.0191  0.3089
  702MOL0     C96757  12.018   6.156   6.924 -0.4312 -0.6805  0.3420
  702MOL0     C96758  12.074   6.187   6.791  0.0660 -0.6017 -0.2739
  702MOL0     C96759  11.993   6.306   6.725 -0.2286  0.0064  0.1828
  702MOL0     C96760  11.920   6.283   6.592 -0.6298  0.7974 -0.3635
  702MOL0     C96761  12.017   6.259   6.479  0.0582 -0.3449  0.8044
  702MOL0     O96762  12.089   6.379   6.469  0.5000  0.5204  0.4105
  702MOL0     C96763  12.210   6.378   6.402 -0.9819  0.3360  1.1491
  702MOL0     C96764  12.314   6.470   6.439 -0.0491 -0.5448 -0.2919
  702MOL0     C96765  12.429   6.476   6.365 -1.0426 -0.2919 -0.7929
  702MOL0     C96766  12.539   6.566   6.428 -0.7023  0.0761 -0.1360
  702MOL0     C96767  12.456   6.387   6.258  0.0545 -0.6749  0.1898
  702MOL0     C96768  12.580   6.392   6.180  0.3062 -0.2084  0.7933
  702MOL0     O96769  12.635   6.269   6.161 -0.1587 -0.6263  0.0153
  702MOL0     C96770  12.711   6.238   6.052  1.2474  0.1771  0.2451
  702MOL0     C96771  12.825   6.314   6.012  0.4060 -0.2352  0.4817
  702MOL0     C96772  12.920   6.271   5.915  0.5848  0.6719 -0.1050
  702MOL0     C96773  12.895   6.143   5.856 -0.3774  0.4421 -0.2262
  702MOL0     O96774  12.983   6.083   5.764  1.1853 -0.7038 -0.2747
  702MOL0     C96775  13.105   6.154   5.744  0.3786  0.7195  0.2725
  702MOL0     C96776  13.205   6.055   5.680 -0.7792  0.2523  0.2951
  702MOL0     C96777  13.194   6.003   5.536  0.0742 -0.5239  0.1482
  702MOL0     C96778  13.256   5.857   5.531  0.7296 -0.2309 -0.7195
  702MOL0     C96779  13.311   5.825   5.397 -0.0545 -0.3292 -0.2366
  702MOL0     C96780  13.371   5.686   5.398 -0.8650 -0.1333  0.1216
  702MOL0     C96781  13.444   5.672   5.258  0.4244  0.8733 -0.2950
  702MOL0     C96782  13.507   5.537   5.267 -0.7310  0.8036 -0.2773
  702MOL0    Cl96783  13.399   5.404   5.227  0.1602  0.0809 -0.2268
  702MOL0     C96784  12.777   6.072   5.892 -0.5762  0.1133 -0.9039
  702MOL0     C96785  12.691   6.116   5.991  0.0751 -0.2185  1.2165
  702MOL0     O96786  12.608   6.498   6.128 -0.0453 -0.4671  0.4722
  702MOL0     C96787  12.351   6.298   6.223 -0.1533  0.1127 -0.4826
  702MOL0     C96788  12.229   6.296   6.286  0.0284 -0.0768  0.0107
  702MOL0     N96789  11.941   6.039   6.945  0.6823 -1.0996 -0.4388
  702MOL0     N96790  11.881   6.053   7.062 -0.4654 -0.8110 -0.0301
  702MOL0     C96791  10.807   6.707   7.116  0.0797 -1.1225 -0.6081
  702MOL0     C96792  10.692   6.788   7.112  0.5853  0.3305  1.0143
  702MOL0     C96793  10.314   6.985   7.187 -0.8060 -0.1570  0.5513
  702MOL0     C96794  10.218   6.976   7.084 -0.1189  0.7564  1.4452
  702MOL0     C96795  10.127   7.078   7.057  0.0335 -0.5291  0.0340
  702MOL0     C96796  10.125   7.192   7.128 -0.9270 -1.1569  0.1798
  702MOL0     O96797  10.029   7.290   7.106  0.1066 -0.5201 -0.2008
  702MOL0     C96798  10.069   7.413   7.045 -0.1239 -0.5086  0.6682
  702MOL0     C96799   9.954   7.499   7.021 -0.6857 -0.2992 -0.0450
  702MOL0     C96800   9.910   7.596   7.125 -0.0754 -0.1464 -0.5208
  702MOL0     C96801   9.988   7.728   7.122 -0.3894 -0.8219  0.4426
  702MOL0     C96802  10.120   7.732   7.190 -0.6477  0.7791  0.4536
  702MOL0     C96803  10.227   7.727   7.248 -0.5913 -0.4043 -0.5268
  702MOL0     C96804  10.211   7.200   7.239  0.9270 -0.3136 -0.3395
  702MOL0     C96805  10.303   7.103   7.265 -0.3420 -0.0072 -0.5514
  702MOL0     C96806  10.405   7.137   7.381 -0.2128 -0.2934  0.6785
  702MOL0     H96807  10.476   6.546   7.002  0.5296 -1.2275  1.9527
  702MOL0     H96808  10.688   6.417   7.003 -0.1042 -0.1844 -0.6040
  702MOL0     H96809  11.055   6.611   7.204  1.7928  0.4055 -0.5438
  702MOL0     H96810  11.063   6.661   7.035  0.2935 -1.8659 -3.6965
  702MOL0     H96811  11.113   6.359   7.089  0.0068 -1.0297 -1.5772
  702MOL0     H96812  11.185   6.463   6.970 -0.0335  2.5166  0.9098
  702MOL0     H96813  11.328   6.577   7.099 -0.2509  0.8450  0.6599
  702MOL0     H96814  11.261   6.524   7.251  0.0665 -0.7100 -0.1040
  702MOL0     H96815  11.346   6.292   7.226  5.4449 -2.5126  1.8161
  702MOL0     H96816  11.375   6.324   7.052  0.7629 -1.3307  0.4304
  702MOL0     H96817  11.537   6.434   7.292  0.2878 -0.1192 -0.6758
  702MOL0     H96818  11.537   6.485   7.120 -0.6365  1.1640  1.3220
  702MOL0     H96819  11.604   6.198   7.205  1.3117 -1.2184 -0.9641
  702MOL0     H96820  11.637   6.277   7.054  2.7550 -4.9124  1.1726
  702MOL0     H96821  11.751   6.404   7.299 -2.5792  0.2499 -0.9499
  702MOL0     H96822  11.810   6.419   7.135  3.8825 -2.1619  0.6670
  702MOL0     H96823  11.954   6.277   7.293 -0.4960  2.2366 -1.6261
  702MOL0     H96824  11.824   6.155   7.302 -0.8721 -1.1483 -0.8198
  702MOL0     H96825  12.067   6.323   7.060  2.3123 -1.7447  2.0963
  702MOL0     H96826  12.059   6.099   6.728 -3.4797 -1.3575  1.3728
  702MOL0     H96827  12.183   6.200   6.796 -0.1848  1.5482  1.4340
  702MOL0     H96828  11.913   6.340   6.792 -1.2730  0.4611 -1.2606
  702MOL0     H96829  12.051   6.398   6.713  0.8991 -0.5505  1.1635
  702MOL0     H96830  11.854   6.197   6.601 -0.0531  0.2980 -0.7991
  702MOL0     H96831  11.859   6.370   6.570  0.6885  2.2715  1.4848
  702MOL0     H96832  12.088   6.178   6.494  3.6397  2.1979 -1.0700
  702MOL0     H96833  11.967   6.252   6.382  2.1456  0.6751 -0.4196
  702MOL0     H96834  12.304   6.524   6.532 -0.5421 -0.5249 -0.3543
  702MOL0     H96835  12.505   6.655   6.482  2.9384  1.0927  0.8096
  702MOL0     H96836  12.608   6.613   6.358 -0.8739 -0.3598 -0.6005
  702MOL0     H96837  12.588   6.507   6.506 -0.4172 -1.8460 -1.6908
  702MOL0     H96838  12.838   6.412   6.055 -2.4123  0.6000 -0.3222
  702MOL0     H96839  12.998   6.340   5.883  0.0644  0.6134 -1.5556
  702MOL0     H96840  13.094   6.242   5.680 -0.0828 -0.4532 -1.3151
  702MOL0     H96841  13.145   6.174   5.844 -0.4188 -0.8681  0.9593
  702MOL0     H96842  13.300   6.108   5.692 -0.0962 -1.0684  0.9869
  702MOL0     H96843  13.202   5.972   5.752 -1.8443 -1.7559 -1.9406
  702MOL0     H96844  13.241   6.073   5.467 -0.0480  1.4457  1.9698
  702MOL0     H96845  13.088   6.010   5.509  0.1207  3.8313  0.4227
  702MOL0     H96846  13.177   5.784   5.555  0.6659  0.3105  0.8624
  702MOL0     H96847  13.337   5.832   5.601  1.6256 -2.5536 -2.4552
  702MOL0     H96848  13.230   5.840   5.324 -2.2991 -3.5695  1.3377
  702MOL0     H96849  13.390   5.899   5.384 -0.0853 -0.5965 -2.3079
  702MOL0     H96850  13.292   5.611   5.411 -0.5370 -0.7459 -1.2848
  702MOL0     H96851  13.449   5.675   5.473 -1.3057  1.0089  0.7808
  702MOL0     H96852  13.518   5.749   5.238 -0.7951  2.0310 -0.5124
  702MOL0     H96853  13.366   5.682   5.182 -0.3114 -2.5245 -0.1862
  702MOL0     H96854  13.542   5.519   5.369  1.9102 -0.2183 -1.2901
  702MOL0     H96855  13.588   5.532   5.193  0.9043 -5.1880  1.4052
  702MOL0     H96856  12.768   5.973   5.848  0.4791  0.7818 -2.7593
  702MOL0     H96857  12.610   6.048   6.014 -2.4700  1.7850 -1.0614
  702MOL0     H96858  12.364   6.219   6.150 -1.5583 -1.0436  0.4493
  702MOL0     H96859  12.150   6.225   6.264  3.0382 -3.4794 -0.8198
  702MOL0     H96860  10.890   6.764   7.155  0.9510  0.3676 -4.2551
  702MOL0     H96861  10.701   6.893   7.134  3.3860  0.4228 -0.1470
  702MOL0     H96862  10.224   6.886   7.024 -2.0869  0.7762  1.1385
  702MOL0     H96863  10.050   7.080   6.981 -0.0736 -0.0013  0.1527
  702MOL0     H96864  10.133   7.472   7.112 -0.1386  1.4212 -0.9510
  702MOL0     H96865  10.131   7.396   6.957  0.0922 -3.8130  1.3282
  702MOL0     H96866   9.869   7.431   7.012  1.0881 -2.5403 -0.8047
  702MOL0     H96867   9.969   7.545   6.923 -1.1721  1.8185  0.8161
  702MOL0     H96868   9.809   7.621   7.091  0.9086  2.9219 -1.6000
  702MOL0     H96869   9.897   7.558   7.226 -5.3829 -0.3998 -1.0403
  702MOL0     H96870   9.928   7.816   7.144  1.1689  0.9936 -2.0610
  702MOL0     H96871  10.007   7.743   7.015 -0.7048 -3.1153 -0.0002
  702MOL0     H96872  10.323   7.706   7.291 -0.7188  0.1564  0.0564
  702MOL0     H96873  10.205   7.286   7.304  0.1499 -1.4119  1.1064
  702MOL0     H96874  10.387   7.234   7.428  0.6710  0.6911 -0.8937
  702MOL0     H96875  10.394   7.055   7.451 -0.7414 -0.2105  0.6988
  702MOL0     H96876  10.505   7.146   7.336 -1.2346 -1.5586 -2.0925
  703MOL0     O96877   6.572   3.756   3.075 -0.1617 -0.0231 -0.3384
  703MOL0     C96878   6.481   3.799   3.144 -0.1030  0.3149  0.4250
  703MOL0     O96879   6.442   3.930   3.164  0.9228 -0.7611  0.3055
  703MOL0     C96880   6.518   4.030   3.112  0.8283  0.0055 -0.9795
  703MOL0     C96881   6.637   4.078   3.162 -1.5084  1.2138 -0.0254
  703MOL0     C96882   6.707   4.175   3.104  0.1860  0.0384 -0.2773
  703MOL0     C96883   6.666   4.225   2.979  0.6841  0.0064 -0.2529
  703MOL0     O96884   6.752   4.309   2.910 -0.5935 -0.4792 -0.8299
  703MOL0     C96885   6.793   4.261   2.778 -1.1014  0.1896 -0.2710
  703MOL0     C96886   6.896   4.147   2.788  0.4726 -0.0303  0.8188
  703MOL0     C96887   7.031   4.204   2.831  0.2445  0.1125 -0.0952
  703MOL0     C96888   7.116   4.073   2.872 -1.2461  0.1310  0.1155
  703MOL0     C96889   7.260   4.104   2.923 -1.0798 -0.2990  0.0708
  703MOL0     C96890   7.335   3.980   2.962  0.5159  0.4639  0.4667
  703MOL0     C96891   7.462   4.007   3.034 -1.0399  0.8335 -0.9440
  703MOL0     C96892   7.545   3.887   3.084  0.0235 -0.3195 -0.2355
  703MOL0     N96893   7.581   3.813   2.963  0.2209 -0.5312  0.1215
  703MOL0     C96894   7.670   3.854   2.872 -0.8920 -0.8406  0.9684
  703MOL0     C96895   7.690   3.764   2.776 -0.6745  0.1289 -0.4986
  703MOL0     C96896   7.795   3.761   2.670 -0.0172 -0.1774 -0.2001
  703MOL0     C96897   7.947   3.793   2.717  0.2219 -0.7635  0.1655
  703MOL0     C96898   8.000   3.733   2.848  0.9997 -0.5448 -0.6180
  703MOL0     C96899   8.005   3.584   2.841  0.2521  0.5807 -0.5245
  703MOL0     O96900   8.096   3.552   2.739  0.0048 -0.0132 -0.6259
  703MOL0     C96901   8.202   3.465   2.779  0.0377  0.4246  0.2096
  703MOL0     C96902   8.280   3.483   2.894  0.2102  0.0115 -0.6168
  703MOL0     C96903   8.384   3.400   2.924  0.9590  0.4799  0.9637
  703MOL0     C96904   8.479   3.445   3.033  0.1445  0.4247 -0.2223
  703MOL0     C96905   8.409   3.286   2.839  0.5160 -0.0446 -0.8476
  703MOL0     C96906   8.510   3.181   2.856 -0.5932  0.6003 -0.3278
  703MOL0     O96907   8.499   3.072   2.776 -0.1050 -0.6566 -0.0009
  703MOL0     C96908   8.577   2.967   2.789 -0.5417 -0.0476  0.9506
  703MOL0     C96909   8.633   2.904   2.677  0.8854 -0.0222 -0.2089
  703MOL0     C96910   8.694   2.782   2.687 -0.5025  0.2388  0.7299
  703MOL0     C96911   8.699   2.715   2.803 -0.4415  0.3390 -0.4803
  703MOL0     O96912   8.780   2.603   2.842  0.3619 -0.8228  1.0297
  703MOL0     C96913   8.839   2.522   2.746 -0.0935  0.3676  0.5271
  703MOL0     C96914   8.885   2.387   2.806  0.2741  0.5569 -0.0701
  703MOL0     C96915   8.963   2.305   2.706 -0.9236  0.4048 -0.6933
  703MOL0     C96916   9.024   2.180   2.774 -0.7312 -0.1346 -0.8035
  703MOL0     C96917   9.145   2.218   2.862 -0.5576  0.2492 -0.0686
  703MOL0     C96918   9.216   2.096   2.919 -0.7658  0.5791 -0.8248
  703MOL0     C96919   9.152   2.020   3.038  0.2574 -0.4773 -0.1598
  703MOL0     C96920   9.217   1.885   3.072  0.9154  0.3703 -0.7785
  703MOL0    Cl96921   9.169   1.783   2.943  0.0538 -0.0391 -0.2293
  703MOL0     C96922   8.657   2.778   2.920 -0.0944  0.3552  0.5294
  703MOL0     C96923   8.594   2.904   2.913  0.0872  0.1700 -0.3500
  703MOL0     O96924   8.594   3.192   2.945  0.7628  0.7199 -0.4920
  703MOL0     C96925   8.332   3.274   2.723 -0.1465 -0.1669 -0.2795
  703MOL0     C96926   8.225   3.351   2.700  0.1229 -0.6856 -0.1414
  703MOL0     N96927   7.626   3.655   2.814 -0.3322  0.4741 -0.3495
  703MOL0     N96928   7.554   3.687   2.923 -0.0552  0.0548 -0.0220
  703MOL0     C96929   6.537   4.191   2.935  0.5229 -0.7847 -0.3354
  703MOL0     C96930   6.469   4.079   2.992 -0.0135 -0.3149 -0.4343
  703MOL0     C96931   6.413   3.685   3.214  0.0958  0.4277  0.0431
  703MOL0     C96932   6.494   3.590   3.281 -0.8318 -0.6950  0.6626
  703MOL0     C96933   6.438   3.483   3.359  0.1989 -0.7533 -0.3539
  703MOL0     C96934   6.299   3.479   3.373 -0.4049  0.7053 -0.6187
  703MOL0     O96935   6.251   3.371   3.445  0.3460  0.5526 -0.0213
  703MOL0     C96936   6.110   3.346   3.464  0.2111  0.2464 -0.4094
  703MOL0     C96937   6.105   3.197   3.485  0.0253  0.1743  1.0327
  703MOL0     C96938   5.971   3.147   3.529 -0.9268 -0.2856 -0.0366
  703MOL0     C96939   5.958   2.997   3.547 -0.0458  0.6144  0.7509
  703MOL0     C96940   5.835   2.975   3.619  0.1562 -0.5034  0.4202
  703MOL0     C96941   5.724   2.947   3.667  0.5701  0.2608  1.1174
  703MOL0     C96942   6.215   3.574   3.303  0.2936 -0.2841 -0.7579
  703MOL0     C96943   6.274   3.673   3.218 -0.3228 -0.2690  0.0525
  703MOL0     C96944   6.183   3.770   3.143 -0.1831 -0.1819  0.0240
  703MOL0     H96945   6.664   4.035   3.258 -2.0122 -0.7443 -0.7058
  703MOL0     H96946   6.794   4.227   3.143 -0.3936  0.5661  0.3367
  703MOL0     H96947   6.841   4.341   2.721 -1.3980 -0.1470 -0.9950
  703MOL0     H96948   6.702   4.236   2.723 -1.3869  1.2981 -0.3382
  703MOL0     H96949   6.859   4.084   2.869 -0.4947  0.4146  0.7473
  703MOL0     H96950   6.898   4.103   2.687  0.7069  3.2874 -0.7627
  703MOL0     H96951   7.083   4.254   2.748  1.0245  2.0552  1.4766
  703MOL0     H96952   7.020   4.277   2.912  0.0251  2.1346 -1.8626
  703MOL0     H96953   7.072   4.012   2.951 -0.0471  1.8803  2.2539
  703MOL0     H96954   7.122   4.009   2.783 -1.6369 -0.5605  0.5838
  703MOL0     H96955   7.253   4.179   3.002 -3.1398  3.8191 -3.5815
  703MOL0     H96956   7.313   4.160   2.845 -1.7326  0.1623 -0.0481
  703MOL0     H96957   7.274   3.929   3.037 -0.4727  1.1689  0.1505
  703MOL0     H96958   7.356   3.921   2.872 -1.5106 -1.4001  1.1302
  703MOL0     H96959   7.443   4.073   3.120 -1.2221 -0.5998  0.1624
  703MOL0     H96960   7.522   4.064   2.963 -0.7854  1.7932  0.0143
  703MOL0     H96961   7.644   3.910   3.124  1.4459 -2.2578 -2.3982
  703MOL0     H96962   7.485   3.826   3.152 -0.7839  2.2530  1.4869
  703MOL0     H96963   7.718   3.951   2.860  0.4552 -1.7867 -3.1349
  703MOL0     H96964   7.767   3.833   2.593  3.3419 -0.2798 -1.7060
  703MOL0     H96965   7.787   3.660   2.629 -1.1275 -1.2480  2.3863
  703MOL0     H96966   8.010   3.761   2.633  0.0033 -1.7005  0.3392
  703MOL0     H96967   7.944   3.902   2.724 -0.7794 -0.8385  1.0409
  703MOL0     H96968   8.097   3.772   2.880 -0.2287  2.3302 -0.1323
  703MOL0     H96969   7.934   3.762   2.930  0.3449 -2.2118 -0.5033
  703MOL0     H96970   8.021   3.537   2.938  0.2949 -0.1000 -0.8535
  703MOL0     H96971   7.907   3.546   2.810 -1.1636  2.0321  1.8492
  703MOL0     H96972   8.259   3.571   2.954 -1.2160  1.4820 -3.0930
  703MOL0     H96973   8.522   3.363   3.091 -0.2368 -0.8901 -1.7012
  703MOL0     H96974   8.438   3.519   3.102  2.1915  0.1717  1.3382
  703MOL0     H96975   8.548   3.509   2.978  0.0194  0.6984 -0.0644
  703MOL0     H96976   8.609   2.952   2.583  1.1923 -1.6360 -1.1527
  703MOL0     H96977   8.735   2.742   2.595  3.4742  2.8820  1.1118
  703MOL0     H96978   8.774   2.504   2.660  4.1897  1.0218 -3.2292
  703MOL0     H96979   8.925   2.576   2.704 -0.4199  0.2958 -0.2583
  703MOL0     H96980   8.943   2.419   2.892  0.1568  2.0842 -0.5124
  703MOL0     H96981   8.797   2.335   2.846 -2.3704  0.5191 -5.0478
  703MOL0     H96982   9.042   2.373   2.672  0.6410 -0.7957  0.3815
  703MOL0     H96983   8.907   2.263   2.623 -0.4984 -0.7165 -0.4278
  703MOL0     H96984   9.053   2.118   2.689 -0.3189 -2.3208  0.8510
  703MOL0     H96985   8.954   2.125   2.838 -0.9126  0.9969 -0.0104
  703MOL0     H96986   9.211   2.279   2.800  0.5386  0.1714  0.9841
  703MOL0     H96987   9.110   2.280   2.945 -0.3688  0.4196 -0.1144
  703MOL0     H96988   9.314   2.119   2.962  0.3231 -2.9561 -1.1494
  703MOL0     H96989   9.232   2.022   2.840 -1.8665  1.5095 -1.9613
  703MOL0     H96990   9.047   2.005   3.011  0.5147 -0.3763 -1.2933
  703MOL0     H96991   9.155   2.086   3.125  1.0512  1.9226 -1.8909
  703MOL0     H96992   9.185   1.856   3.172 -1.1215  0.0520 -1.4764
  703MOL0     H96993   9.325   1.904   3.079  0.5330  2.0783  1.4273
  703MOL0     H96994   8.693   2.732   3.011  1.8292  0.4819 -0.1275
  703MOL0     H96995   8.558   2.945   3.006  1.8774  1.1299 -0.0407
  703MOL0     H96996   8.342   3.199   2.645 -1.7354 -0.8979  0.1749
  703MOL0     H96997   8.163   3.329   2.613 -1.5240 -2.8681  1.4833
  703MOL0     H96998   6.502   4.228   2.840 -0.0100  1.5736  0.6923
  703MOL0     H96999   6.374   4.038   2.960 -1.1730 -0.4098  2.8025
  703MOL0     H97000   6.602   3.596   3.270 -0.6654  1.6120  2.6745
  703MOL0     H97001   6.513   3.410   3.387  1.3641  0.0908 -1.1512
  703MOL0     H97002   6.071   3.402   3.549 -2.6442 -0.8819 -0.8623
  703MOL0     H97003   6.051   3.384   3.380  2.6932  1.7216 -1.5809
  703MOL0     H97004   6.184   3.159   3.551  0.1542  0.8550  1.2732
  703MOL0     H97005   6.123   3.152   3.387 -2.1659  2.2676 -0.4402
  703MOL0     H97006   5.943   3.204   3.618 -3.4766 -0.4498 -0.6717
  703MOL0     H97007   5.895   3.167   3.454 -0.5053  0.4600 -0.2741
  703MOL0     H97008   6.049   2.963   3.599 -0.6149 -4.0112 -0.7961
  703MOL0     H97009   5.961   2.940   3.454 -3.3270 -1.8419  1.9682
  703MOL0     H97010   5.627   2.918   3.700  0.6556 -1.7363 -0.2086
  703MOL0     H97011   6.108   3.574   3.323  0.3537 -1.8118 -0.3425
  703MOL0     H97012   6.093   3.717   3.109 -0.4175  0.6593 -0.7123
  703MOL0     H97013   6.169   3.859   3.204  0.9113  1.6166 -2.2206
  703MOL0     H97014   6.229   3.805   3.050 -1.2756 -0.3112 -0.5919
  704MOL0     O97015   8.513   2.934   8.651  0.1921 -0.1745 -0.1503
  704MOL0     C97016   8.467   2.841   8.724 -0.3551 -0.1376  0.6896
  704MOL0     O97017   8.544   2.742   8.778 -0.4727  0.4880  0.1621
  704MOL0     C97018   8.664   2.714   8.728  0.3698 -0.0385 -0.7293
  704MOL0     C97019   8.752   2.645   8.816 -0.4816  0.3274 -0.3962
  704MOL0     C97020   8.881   2.618   8.780  0.8895 -0.7452 -1.1088
  704MOL0     C97021   8.926   2.651   8.647 -0.3479  0.1173 -0.6887
  704MOL0     O97022   9.052   2.628   8.601 -0.2226  0.6309  0.1309
  704MOL0     C97023   9.166   2.671   8.685  0.3932  0.9189  0.0545
  704MOL0     C97024   9.222   2.806   8.638  0.3815  0.7169  0.4716
  704MOL0     C97025   9.369   2.820   8.704  0.7765 -0.1130  0.2173
  704MOL0     C97026   9.409   2.955   8.656  0.1926  0.0184  0.6104
  704MOL0     C97027   9.546   3.003   8.726 -0.8707  0.9879  0.1884
  704MOL0     C97028   9.674   2.921   8.695  1.0735  0.1914 -0.8979
  704MOL0     C97029   9.734   2.950   8.554  0.7719  0.5036 -0.4032
  704MOL0     C97030   9.795   3.091   8.550  1.1815  0.2260  0.3026
  704MOL0     N97031   9.886   3.114   8.442  0.3486  0.6849  0.2038
  704MOL0     C97032  10.002   3.183   8.454 -0.1060  0.9637  0.6074
  704MOL0     C97033  10.049   3.191   8.327 -0.2486 -0.6854 -0.1818
  704MOL0     C97034  10.170   3.275   8.288 -0.5582  0.3295  0.5075
  704MOL0     C97035  10.300   3.202   8.325 -0.7839  0.2704  0.0791
  704MOL0     C97036  10.421   3.289   8.280 -0.1769  0.7019 -1.1954
  704MOL0     C97037  10.444   3.297   8.132  0.4046  0.3332 -0.3575
  704MOL0     O97038  10.561   3.370   8.103  0.0053 -0.4590  0.7946
  704MOL0     C97039  10.687   3.323   8.130  0.5191  0.6067  0.5681
  704MOL0     C97040  10.712   3.193   8.173 -0.9575 -0.4558 -0.0401
  704MOL0     C97041  10.853   3.145   8.183 -0.4052 -0.9630  0.6194
  704MOL0     C97042  10.861   2.996   8.208  0.3504 -0.4853  0.0805
  704MOL0     C97043  10.962   3.240   8.159 -0.2345 -0.8337  0.5321
  704MOL0     C97044  11.112   3.200   8.161  0.7851  0.0936  0.1546
  704MOL0     O97045  11.143   3.087   8.230 -0.1792 -0.5997  0.2641
  704MOL0     C97046  11.272   3.053   8.257 -0.1418  0.8869  0.7611
  704MOL0     C97047  11.339   3.097   8.371 -0.1312  0.4225  0.4267
  704MOL0     C97048  11.464   3.046   8.400 -0.2926  0.8024  0.3206
  704MOL0     C97049  11.526   2.967   8.312 -0.1902 -0.2122 -0.1097
  704MOL0     O97050  11.657   2.912   8.326 -0.4174 -0.2545  0.4193
  704MOL0     C97051  11.743   2.956   8.428  0.3635 -0.3450 -0.6881
  704MOL0     C97052  11.885   2.915   8.410 -0.3035  0.1293 -0.6023
  704MOL0     C97053  11.968   2.977   8.523 -0.7883  0.2437  0.6527
  704MOL0     C97054  12.078   2.872   8.559 -0.0188 -0.1156  0.4714
  704MOL0     C97055  12.190   2.938   8.642  0.1019 -0.4148  0.3355
  704MOL0     C97056  12.303   2.833   8.670  0.0036  0.8158  0.6240
  704MOL0     C97057  12.403   2.896   8.773  0.3372  1.1579  0.3786
  704MOL0     C97058  12.511   2.795   8.802 -0.1391  0.0635  0.0317
  704MOL0    Cl97059  12.456   2.683   8.928 -0.3317 -0.0111  0.2453
  704MOL0     C97060  11.468   2.925   8.190 -0.3017 -0.2132 -0.3543
  704MOL0     C97061  11.338   2.968   8.169 -0.4591 -0.0851  0.1247
  704MOL0     O97062  11.190   3.264   8.094 -0.5020 -0.3233 -1.2091
  704MOL0     C97063  10.935   3.378   8.129  0.0018 -0.5705 -0.7594
  704MOL0     C97064  10.797   3.412   8.109  1.2336 -0.5492  0.2721
  704MOL0     N97065   9.964   3.127   8.243 -0.5343  0.3274  0.0391
  704MOL0     N97066   9.863   3.078   8.310 -0.5559  0.0949 -0.3378
  704MOL0     C97067   8.847   2.714   8.557  1.0714  1.1517  0.2456
  704MOL0     C97068   8.709   2.744   8.600 -0.0755 -0.3965  0.0566
  704MOL0     C97069   8.324   2.854   8.729 -0.5426 -0.1058 -0.0567
  704MOL0     C97070   8.269   2.981   8.745 -0.4790 -0.0871  0.1172
  704MOL0     C97071   8.130   3.000   8.718 -0.5026 -0.3906 -0.5876
  704MOL0     C97072   8.042   2.890   8.713  0.0768  0.4744  0.1094
  704MOL0     O97073   7.904   2.894   8.718  0.0560  0.4107 -0.4230
  704MOL0     C97074   7.837   3.019   8.746  0.1789 -0.3802  0.6956
  704MOL0     C97075   7.703   2.984   8.802  0.5782 -0.0902 -0.7349
  704MOL0     C97076   7.610   3.105   8.836 -0.3124 -0.6187  0.0139
  704MOL0     C97077   7.545   3.156   8.706  0.0694 -0.1740  0.7772
  704MOL0     C97078   7.447   3.265   8.725  0.1732  0.1160  0.2757
  704MOL0     C97079   7.361   3.351   8.738  0.6369  0.3242 -0.4675
  704MOL0     C97080   8.101   2.764   8.713 -0.2137 -0.7092  0.8590
  704MOL0     C97081   8.238   2.742   8.719 -0.8029 -0.2153 -0.2226
  704MOL0     C97082   8.295   2.598   8.724  0.4879 -0.5814  0.2452
  704MOL0     H97083   8.718   2.603   8.910 -2.3752  0.4269 -1.0055
  704MOL0     H97084   8.957   2.571   8.841  3.3309  1.7778 -2.0025
  704MOL0     H97085   9.244   2.597   8.668 -0.0733  0.4841 -0.2246
  704MOL0     H97086   9.153   2.669   8.793  3.6686 -0.8608  0.5412
  704MOL0     H97087   9.222   2.819   8.529  1.3340 -0.7005  0.2797
  704MOL0     H97088   9.156   2.883   8.679  0.2639 -0.4035  2.5059
  704MOL0     H97089   9.366   2.830   8.813  1.1700  0.7269  0.1635
  704MOL0     H97090   9.428   2.738   8.662  0.1719 -0.8884  0.8473
  704MOL0     H97091   9.438   2.938   8.552 -3.1113  0.2609 -0.4684
  704MOL0     H97092   9.329   3.029   8.644 -1.6717 -1.9556  0.3808
  704MOL0     H97093   9.527   2.999   8.834  1.2843  1.1004  0.6078
  704MOL0     H97094   9.565   3.108   8.703  1.5153  1.4727  3.6470
  704MOL0     H97095   9.760   2.941   8.759  0.6145  2.0436 -0.8153
  704MOL0     H97096   9.658   2.813   8.708 -1.0927  0.3463 -1.8627
  704MOL0     H97097   9.659   2.943   8.475  0.3233  1.0320 -0.0331
  704MOL0     H97098   9.815   2.877   8.539  0.5461 -0.1374  1.3288
  704MOL0     H97099   9.727   3.176   8.561 -0.5932 -0.5997 -3.0546
  704MOL0     H97100   9.866   3.093   8.634  0.5026  1.4760  0.8845
  704MOL0     H97101  10.050   3.232   8.538  4.4855 -0.4834 -0.9122
  704MOL0     H97102  10.145   3.369   8.338 -4.1429 -1.3364  2.2642
  704MOL0     H97103  10.170   3.284   8.179 -1.8503 -3.4780  0.0263
  704MOL0     H97104  10.296   3.190   8.434 -0.4678  0.3674  0.1029
  704MOL0     H97105  10.300   3.102   8.280 -0.6091  0.0124  0.6468
  704MOL0     H97106  10.410   3.393   8.312  1.5833  0.4168  0.5691
  704MOL0     H97107  10.507   3.239   8.327  0.1370  1.5079 -0.9045
  704MOL0     H97108  10.451   3.198   8.086 -0.9992  0.2247 -0.3628
  704MOL0     H97109  10.357   3.349   8.091 -0.5969 -0.4607  0.7014
  704MOL0     H97110  10.632   3.121   8.183 -2.6507  1.5857  2.7384
  704MOL0     H97111  10.873   2.967   8.313  2.0172 -1.7554 -0.4124
  704MOL0     H97112  10.943   2.946   8.157  0.7268 -1.3360  1.4657
  704MOL0     H97113  10.776   2.942   8.164  2.4420 -3.5232 -0.5507
  704MOL0     H97114  11.291   3.170   8.436 -2.0967  1.5043 -2.0803
  704MOL0     H97115  11.512   3.063   8.496 -0.7839  1.3780  0.4710
  704MOL0     H97116  11.745   3.065   8.433 -1.2618 -0.3671  1.8329
  704MOL0     H97117  11.701   2.930   8.525  1.5136  2.2794  0.6038
  704MOL0     H97118  11.896   2.806   8.410 -1.3719  0.0038  0.5310
  704MOL0     H97119  11.922   2.960   8.317 -1.5665  2.3690 -0.0938
  704MOL0     H97120  11.912   3.001   8.614  2.1925  1.7240  2.2413
  704MOL0     H97121  12.015   3.068   8.485  4.6257 -1.9004  1.2121
  704MOL0     H97122  12.114   2.812   8.476 -0.7271 -0.9717  0.7668
  704MOL0     H97123  12.021   2.803   8.622 -0.5502  0.3620  0.5314
  704MOL0     H97124  12.234   3.025   8.593  3.5575 -0.3814  3.0815
  704MOL0     H97125  12.157   2.970   8.742  0.9128  1.3831  0.0590
  704MOL0     H97126  12.345   2.801   8.574 -3.6096  2.4413 -1.7442
  704MOL0     H97127  12.250   2.747   8.712 -2.2568  1.6172 -0.4276
  704MOL0     H97128  12.360   2.931   8.867  1.7076  2.9100  0.4055
  704MOL0     H97129  12.446   2.984   8.724  0.6041  1.0919  0.4877
  704MOL0     H97130  12.603   2.837   8.845  0.3129  0.0379 -0.8642
  704MOL0     H97131  12.537   2.739   8.711 -1.8990 -0.9185  0.0961
  704MOL0     H97132  11.523   2.862   8.121  2.3966  0.8258  0.6974
  704MOL0     H97133  11.280   2.946   8.080  0.7041 -4.9482  0.2520
  704MOL0     H97134  11.025   3.437   8.114 -1.4437  1.6690 -1.2355
  704MOL0     H97135  10.787   3.513   8.072  3.6416 -0.1330  0.5905
  704MOL0     H97136   8.878   2.742   8.457  0.8214  1.7245  0.3256
  704MOL0     H97137   8.647   2.793   8.526 -0.2371 -1.6632 -0.6654
  704MOL0     H97138   8.335   3.067   8.745  0.4658 -0.7825 -1.1288
  704MOL0     H97139   8.084   3.098   8.715  0.5939  0.3654  3.0630
  704MOL0     H97140   7.901   3.067   8.821  0.3660 -0.7512  0.7773
  704MOL0     H97141   7.825   3.082   8.657  0.1322 -0.6509  0.5096
  704MOL0     H97142   7.724   2.923   8.891 -0.8741  1.5132  0.7905
  704MOL0     H97143   7.642   2.928   8.730  1.3821 -0.4643 -1.1296
  704MOL0     H97144   7.519   3.092   8.894  0.8696  1.0650  2.4254
  704MOL0     H97145   7.666   3.185   8.885 -2.4669  0.4316  0.8757
  704MOL0     H97146   7.496   3.069   8.663 -1.1320  1.3288 -1.0460
  704MOL0     H97147   7.613   3.198   8.631 -4.8202  1.0816 -3.4988
  704MOL0     H97148   7.280   3.420   8.730  2.8133  3.1166 -0.0217
  704MOL0     H97149   8.038   2.676   8.722  1.1179 -1.9368 -0.9777
  704MOL0     H97150   8.341   2.575   8.820 -0.1324 -0.9778  0.4551
  704MOL0     H97151   8.212   2.527   8.716 -0.6896  0.7785  0.1076
  704MOL0     H97152   8.362   2.584   8.639  2.6313  3.2333  1.1026
  705MOL0     O97153  10.919   9.789   7.533  0.6422  0.0843 -0.1459
  705MOL0     C97154  10.842   9.738   7.611  0.3576  0.0199 -0.0871
  705MOL0     O97155  10.865   9.742   7.747  0.4585 -0.0031 -0.3413
  705MOL0     C97156  10.953   9.829   7.798  0.0857  0.0037 -0.5337
  705MOL0     C97157  11.071   9.781   7.857  0.0828 -0.4955  0.0347
  705MOL0     C97158  11.174   9.875   7.888  0.0212  0.4922  0.6733
  705MOL0     C97159  11.153  10.012   7.886 -0.5492  0.2779 -0.1891
  705MOL0     O97160  11.260  10.096   7.927  0.5379 -0.0328  0.3433
  705MOL0     C97161  11.295  10.195   7.829  0.2456  0.2816  0.5591
  705MOL0     C97162  11.417  10.267   7.890 -0.0735  0.0829 -0.3251
  705MOL0     C97163  11.457  10.408   7.831  0.0722  0.3330 -0.0906
  705MOL0     C97164  11.582  10.468   7.902  0.5597 -1.0327  0.7582
  705MOL0     C97165  11.602  10.616   7.858 -0.2336  0.0145 -0.9824
  705MOL0     C97166  11.710  10.677   7.955  0.2991  0.1379 -0.2854
  705MOL0     C97167  11.720  10.832   7.947  0.4012 -0.0621 -0.1736
  705MOL0     C97168  11.777  10.881   7.816  0.1489  0.2143  0.3132
  705MOL0     N97169  11.878  10.988   7.839 -0.4930  0.3769 -1.0237
  705MOL0     C97170  12.015  10.960   7.844 -0.5176 -0.0413  0.2648
  705MOL0     C97171  12.079  11.064   7.914 -1.0494 -0.1790  0.2396
  705MOL0     C97172  12.223  11.079   7.968  0.4632  0.0469 -0.3308
  705MOL0     C97173  12.317  11.151   7.879 -0.4238 -0.2265 -0.3568
  705MOL0     C97174  12.262  11.280   7.828 -1.0092  0.2047  0.7807
  705MOL0     C97175  12.373  11.371   7.800  0.0299  0.2926  0.1265
  705MOL0     O97176  12.467  11.296   7.730 -0.6580  0.0170 -0.0255
  705MOL0     C97177  12.603  11.332   7.744 -0.1866  1.2680  0.0471
  705MOL0     C97178  12.693  11.225   7.734  0.2337  0.2367 -0.2218
  705MOL0     C97179  12.826  11.252   7.730  0.2506  0.3750 -0.3095
  705MOL0     C97180  12.912  11.136   7.726  0.1739  0.2387 -0.2399
  705MOL0     C97181  12.869  11.389   7.725  0.6286  0.6744 -0.3463
  705MOL0     C97182  13.013  11.432   7.712  0.0521  0.9731  0.1145
  705MOL0     O97183  13.032  11.566   7.674 -0.1230 -0.0093  0.4610
  705MOL0     C97184  13.154  11.620   7.641  0.3925  0.1015 -0.3101
  705MOL0     C97185  13.212  11.710   7.731  0.4541 -0.6971  0.2590
  705MOL0     C97186  13.324  11.782   7.700  0.2582  0.7375  0.6081
  705MOL0     C97187  13.382  11.765   7.570 -1.1748  0.3076 -0.9482
  705MOL0     O97188  13.477  11.845   7.516 -0.7858 -0.0578 -0.0601
  705MOL0     C97189  13.554  11.925   7.609  0.1111 -1.4255  0.7859
  705MOL0     C97190  13.647  12.022   7.541 -1.3333 -0.2137  0.6785
  705MOL0     C97191  13.579  12.106   7.438 -0.2179 -0.7196  0.8299
  705MOL0     C97192  13.678  12.220   7.384 -0.1301 -0.1780  0.9223
  705MOL0     C97193  13.603  12.285   7.274  1.0519 -0.6119  0.5692
  705MOL0     C97194  13.615  12.216   7.134 -0.2524  0.6610  0.1274
  705MOL0     C97195  13.762  12.200   7.088 -0.3487  0.0669 -0.3828
  705MOL0     C97196  13.770  12.182   6.940  0.3183  0.3400 -0.4646
  705MOL0    Cl97197  13.941  12.138   6.896  0.1406 -0.1786  0.3555
  705MOL0     C97198  13.329  11.670   7.481 -0.9020 -0.0476 -0.2414
  705MOL0     C97199  13.219  11.597   7.522 -0.0293  0.1047  1.0737
  705MOL0     O97200  13.098  11.344   7.714  0.1046  0.1816  0.2481
  705MOL0     C97201  12.783  11.491   7.756 -0.3641 -0.0967  0.4044
  705MOL0     C97202  12.647  11.458   7.758  0.4546  0.7497 -0.3313
  705MOL0     N97203  11.975  11.155   7.933 -0.0650 -0.3128  0.0422
  705MOL0     N97204  11.866  11.115   7.892 -0.2396  0.3152  0.4836
  705MOL0     C97205  11.025  10.062   7.853 -0.1635  0.4066 -0.6345
  705MOL0     C97206  10.931   9.965   7.805  0.3543 -0.3585 -0.1886
  705MOL0     C97207  10.731   9.656   7.564 -0.2058  0.4057 -0.0551
  705MOL0     C97208  10.666   9.696   7.450 -0.3733 -1.1864 -0.3669
  705MOL0     C97209  10.567   9.623   7.389  0.2294  0.1696  1.0180
  705MOL0     C97210  10.520   9.512   7.451  0.2406  0.1565 -0.1436
  705MOL0     O97211  10.410   9.438   7.400 -0.4098 -0.1802 -1.0424
  705MOL0     C97212  10.349   9.469   7.273 -0.4878  0.6456 -0.1963
  705MOL0     C97213  10.231   9.374   7.258 -0.4397 -1.3452  0.3135
  705MOL0     C97214  10.119   9.399   7.360  0.4390 -0.7858  0.4776
  705MOL0     C97215  10.046   9.543   7.327 -0.7975  1.0107  0.2699
  705MOL0     C97216   9.945   9.558   7.423 -1.0469  0.3144 -0.0623
  705MOL0     C97217   9.864   9.576   7.508  0.2372  0.0750 -0.3149
  705MOL0     C97218  10.580   9.473   7.569  0.2942  0.0793 -0.6062
  705MOL0     C97219  10.688   9.535   7.629  0.2619  0.1465  0.5146
  705MOL0     C97220  10.737   9.489   7.760  0.7783 -0.1236 -0.3586
  705MOL0     H97221  11.086   9.673   7.859 -2.3967 -0.8952 -0.0410
  705MOL0     H97222  11.276   9.846   7.912  0.5485  2.4813  1.0314
  705MOL0     H97223  11.213  10.267   7.826  1.0625  1.2070 -0.5276
  705MOL0     H97224  11.317  10.150   7.732 -3.1819 -1.9930  0.6510
  705MOL0     H97225  11.412  10.282   7.998 -0.2220 -1.4466 -0.1115
  705MOL0     H97226  11.504  10.203   7.872  0.1369 -0.6938  2.8378
  705MOL0     H97227  11.485  10.388   7.727  1.3107 -1.2224  0.4931
  705MOL0     H97228  11.368  10.470   7.840  0.2500  0.3434  1.9939
  705MOL0     H97229  11.566  10.476   8.010 -1.0396  0.6139  0.4402
  705MOL0     H97230  11.674  10.411   7.881  1.1718 -1.2408  3.4893
  705MOL0     H97231  11.510  10.672   7.840  0.4875  0.1319 -5.3772
  705MOL0     H97232  11.639  10.602   7.756  1.5013 -1.7894 -0.1840
  705MOL0     H97233  11.692  10.637   8.055 -0.7219 -2.7857 -1.4932
  705MOL0     H97234  11.808  10.638   7.927  0.0751 -0.8368  0.2123
  705MOL0     H97235  11.783  10.859   8.032  0.4664 -0.6422 -0.0335
  705MOL0     H97236  11.624  10.883   7.961 -0.7374 -2.2366  0.5798
  705MOL0     H97237  11.833  10.804   7.764 -1.1780 -1.6484  1.5029
  705MOL0     H97238  11.698  10.903   7.744  0.8379 -1.8563 -1.1503
  705MOL0     H97239  12.055  10.862   7.823  2.7465  1.0423  0.9331
  705MOL0     H97240  12.260  10.978   7.991 -3.7133 -1.7187 -0.3754
  705MOL0     H97241  12.221  11.127   8.067  1.2995  0.9578 -0.7404
  705MOL0     H97242  12.399  11.187   7.941 -2.0156  1.0973  1.0731
  705MOL0     H97243  12.346  11.081   7.800  2.8185  0.9729 -0.3918
  705MOL0     H97244  12.209  11.272   7.733  3.9046  0.1442 -2.2799
  705MOL0     H97245  12.198  11.329   7.903 -1.6778  0.2587  0.1801
  705MOL0     H97246  12.337  11.465   7.756  0.7601 -0.6083 -2.5784
  705MOL0     H97247  12.419  11.416   7.889 -1.6314  4.4297 -0.8741
  705MOL0     H97248  12.669  11.119   7.731  3.1091 -0.4762 -1.8024
  705MOL0     H97249  12.948  11.128   7.623  0.1566 -0.3271 -0.2020
  705MOL0     H97250  12.859  11.045   7.755  2.9093 -1.3574  0.0486
  705MOL0     H97251  12.999  11.134   7.792 -1.2214 -1.1286  1.6779
  705MOL0     H97252  13.157  11.737   7.821 -1.4593  0.5464 -1.1911
  705MOL0     H97253  13.357  11.849   7.779 -1.5286  0.4415  1.6542
  705MOL0     H97254  13.493  11.976   7.684  1.5462 -0.1370  1.1378
  705MOL0     H97255  13.626  11.857   7.655 -1.3024 -3.5949 -0.0631
  705MOL0     H97256  13.691  12.089   7.616  2.9918 -1.8253 -0.0929
  705MOL0     H97257  13.731  11.966   7.500 -0.7236 -0.3887  2.0881
  705MOL0     H97258  13.483  12.148   7.470 -0.1803  0.0357  0.0017
  705MOL0     H97259  13.543  12.041   7.357 -1.0450 -2.7938  2.7590
  705MOL0     H97260  13.775  12.178   7.356 -0.4848  0.4217 -1.3831
  705MOL0     H97261  13.695  12.296   7.461 -1.1917  0.6301  0.3928
  705MOL0     H97262  13.499  12.310   7.295  0.3617 -1.8112 -1.2014
  705MOL0     H97263  13.649  12.382   7.255  0.9361 -0.6602  0.0325
  705MOL0     H97264  13.561  12.272   7.057  4.9618  0.1027 -4.5879
  705MOL0     H97265  13.577  12.114   7.139  0.0400  0.6156  2.0541
  705MOL0     H97266  13.807  12.116   7.141  1.5618  0.7025 -0.9186
  705MOL0     H97267  13.809  12.294   7.115 -2.4145 -0.1031  5.0380
  705MOL0     H97268  13.740  12.266   6.877  0.3273  1.1228  0.5433
  705MOL0     H97269  13.703  12.099   6.915 -1.2053  1.1777  0.6620
  705MOL0     H97270  13.377  11.657   7.384  0.0271 -0.9892  0.3307
  705MOL0     H97271  13.164  11.528   7.459  1.4116 -1.3340  1.3360
  705MOL0     H97272  12.821  11.589   7.783 -0.5177 -0.6006  2.6040
  705MOL0     H97273  12.576  11.536   7.785  0.9655  0.6268  1.4978
  705MOL0     H97274  10.995  10.166   7.853 -1.9046  0.0390  3.0061
  705MOL0     H97275  10.836   9.997   7.763 -0.4560 -0.1987  1.6490
  705MOL0     H97276  10.699   9.786   7.399  0.4453 -0.8251  0.7638
  705MOL0     H97277  10.524   9.646   7.292  0.8380  0.6543  0.8538
  705MOL0     H97278  10.315   9.573   7.279 -4.3613 -0.4943 -0.0243
  705MOL0     H97279  10.416   9.444   7.190 -0.5871  1.0376 -0.3943
  705MOL0     H97280  10.277   9.275   7.266 -0.5024 -1.4696 -0.7376
  705MOL0     H97281  10.192   9.376   7.156  0.2224 -0.9821  0.0560
  705MOL0     H97282  10.046   9.318   7.359  0.5430 -0.9721 -2.7937
  705MOL0     H97283  10.167   9.404   7.458  0.2555 -2.6638  0.6976
  705MOL0     H97284  10.016   9.537   7.222  1.7092 -3.5432 -0.4705
  705MOL0     H97285  10.122   9.622   7.334  2.1597 -1.6681  1.0349
  705MOL0     H97286   9.813   9.580   7.602  1.9159 -0.8010  0.7077
  705MOL0     H97287  10.556   9.383   7.624  3.1850 -0.5788 -0.2484
  705MOL0     H97288  10.701   9.562   7.834 -0.8713 -1.5495  0.3194
  705MOL0     H97289  10.689   9.396   7.792 -0.5672  0.7711  0.3492
  705MOL0     H97290  10.845   9.479   7.771  0.6574 -1.0278  0.0987
  706MOL0     O97291   3.035   2.653   0.092 -0.2890 -0.2536  0.0126
  706MOL0     C97292   2.986   2.593   0.000  0.2995  0.2510  0.4154
  706MOL0     O97293   3.051   2.496  -0.069  0.0200  0.5173  0.0560
  706MOL0     C97294   3.175   2.472  -0.022 -1.4584  0.4718  0.2636
  706MOL0     C97295   3.296   2.524  -0.080 -0.2264 -0.8509 -0.4199
  706MOL0     C97296   3.426   2.485  -0.041 -0.2931 -0.3047 -0.1710
  706MOL0     C97297   3.442   2.379   0.049 -0.2479 -0.7853  0.1910
  706MOL0     O97298   3.568   2.339   0.088  0.7876  0.3554 -0.7640
  706MOL0     C97299   3.619   2.422   0.199  0.4226 -0.5118  0.4995
  706MOL0     C97300   3.767   2.378   0.206 -0.9906 -0.6659 -0.4634
  706MOL0     C97301   3.849   2.466   0.095  0.1895 -0.8752  0.3840
  706MOL0     C97302   4.001   2.430   0.086 -0.0068 -0.3324  0.1044
  706MOL0     C97303   4.083   2.540   0.013 -0.7090 -0.2763  0.1583
  706MOL0     C97304   4.233   2.489  -0.006 -0.0188  0.6102  0.3634
  706MOL0     C97305   4.327   2.615  -0.031 -0.5333 -0.3729 -0.4516
  706MOL0     C97306   4.473   2.570  -0.051 -0.2260  0.2389  0.2875
  706MOL0     N97307   4.567   2.661   0.013  0.5995 -0.4333 -0.1284
  706MOL0     C97308   4.665   2.610   0.097  0.4188  0.0383 -0.5136
  706MOL0     C97309   4.743   2.723   0.114  0.3493  0.5043  0.1649
  706MOL0     C97310   4.838   2.757   0.222  0.2085  0.0788 -0.5781
  706MOL0     C97311   4.982   2.706   0.197 -0.2519  0.0978 -0.2941
  706MOL0     C97312   5.060   2.718   0.329 -0.3980 -0.2560  0.7024
  706MOL0     C97313   5.202   2.708   0.296 -0.4989  0.7385 -0.6210
  706MOL0     O97314   5.258   2.724   0.421 -0.1286 -0.2326  0.0434
  706MOL0     C97315   5.389   2.763   0.435 -0.1346  0.2646  0.4231
  706MOL0     C97316   5.427   2.883   0.496 -0.4079 -0.2016 -0.0588
  706MOL0     C97317   5.565   2.909   0.513  0.0639  0.5754  0.2960
  706MOL0     C97318   5.592   3.041   0.576 -0.0653 -0.0824 -0.0059
  706MOL0     C97319   5.661   2.829   0.454  0.0840  0.3720  0.1525
  706MOL0     C97320   5.804   2.858   0.453  0.8672 -0.0577 -0.2645
  706MOL0     O97321   5.851   2.946   0.548  0.5700  0.1319 -0.1557
  706MOL0     C97322   5.981   2.979   0.542  0.3651 -0.1771 -0.2045
  706MOL0     C97323   6.096   2.891   0.540  0.7550 -0.8658 -0.6280
  706MOL0     C97324   6.221   2.946   0.515  0.0320 -0.7275  1.0911
  706MOL0     C97325   6.234   3.086   0.474 -0.8372  0.9568 -0.3577
  706MOL0     O97326   6.367   3.132   0.461  0.3435  0.0347  0.3063
  706MOL0     C97327   6.431   3.141   0.588 -0.0336 -0.2089 -0.1467
  706MOL0     C97328   6.547   3.046   0.593 -0.3190 -0.5990  0.2499
  706MOL0     C97329   6.646   3.085   0.476 -0.7581 -0.5989  0.4543
  706MOL0     C97330   6.741   3.196   0.505 -0.5854  0.3618 -0.2762
  706MOL0     C97331   6.822   3.214   0.382 -0.0552  0.0064 -0.8784
  706MOL0     C97332   6.924   3.336   0.395 -0.2885  0.5314  0.7629
  706MOL0     C97333   7.004   3.355   0.268 -0.5806  0.0493  0.2556
  706MOL0     C97334   7.116   3.471   0.286  0.2434  0.1270  0.8136
  706MOL0    Cl97335   7.046   3.637   0.258  0.5806 -0.3759 -0.4922
  706MOL0     C97336   6.123   3.166   0.471 -0.6970  0.6319 -1.1225
  706MOL0     C97337   6.005   3.111   0.513  0.1678  0.4647  0.1904
  706MOL0     O97338   5.869   2.802   0.363  0.7598 -0.0749 -0.3228
  706MOL0     C97339   5.623   2.715   0.382 -0.3710  0.0310 -0.2600
  706MOL0     C97340   5.484   2.686   0.373 -0.2201 -0.0572  0.7510
  706MOL0     N97341   4.709   2.825   0.029  0.2331 -0.1329 -0.6610
  706MOL0     N97342   4.605   2.781  -0.037  0.2308  0.5030 -0.1459
  706MOL0     C97343   3.330   2.320   0.096  0.1630 -0.9038  0.2266
  706MOL0     C97344   3.192   2.366   0.060 -0.4813  0.2899 -0.3230
  706MOL0     C97345   2.839   2.594   0.001  0.0491 -0.3482  0.4239
  706MOL0     C97346   2.780   2.472  -0.040 -0.5659  0.9250 -0.4980
  706MOL0     C97347   2.637   2.473  -0.065  0.3822  0.3007 -0.7765
  706MOL0     C97348   2.563   2.587  -0.047  0.5741  0.5803  0.0123
  706MOL0     O97349   2.425   2.591  -0.086 -0.7059  0.6759  0.2766
  706MOL0     C97350   2.362   2.726  -0.092  1.1843 -0.2913 -0.3593
  706MOL0     C97351   2.234   2.687  -0.158  0.6177 -0.1074  0.3091
  706MOL0     C97352   2.163   2.799  -0.242  0.5590 -0.6691  0.4370
  706MOL0     C97353   2.083   2.902  -0.158 -0.0540 -0.0951 -0.1979
  706MOL0     C97354   2.079   3.036  -0.211  0.1200  0.5605  0.0211
  706MOL0     C97355   2.093   3.148  -0.250  0.0080 -1.1146  0.8110
  706MOL0     C97356   2.625   2.693   0.019 -0.0095 -0.0562 -0.1640
  706MOL0     C97357   2.763   2.707   0.037  0.3103  1.1487 -0.0105
  706MOL0     C97358   2.815   2.844   0.069  0.2833 -1.0659  0.2784
  706MOL0     H97359   3.304   2.602  -0.156  2.5533 -0.1807  0.4478
  706MOL0     H97360   3.511   2.536  -0.084  0.1100 -2.4146 -2.0906
  706MOL0     H97361   3.558   2.400   0.288 -2.3779 -1.1124 -1.4383
  706MOL0     H97362   3.605   2.530   0.187 -0.5134 -0.4989  1.4798
  706MOL0     H97363   3.796   2.409   0.307 -5.2680  1.8079  0.2271
  706MOL0     H97364   3.783   2.270   0.196 -2.3652 -0.8535 -0.8904
  706MOL0     H97365   3.805   2.452  -0.004 -0.8636 -2.5923  1.0325
  706MOL0     H97366   3.838   2.573   0.117  3.9320  0.2149 -2.1091
  706MOL0     H97367   4.047   2.405   0.182 -0.9284 -2.0473  0.1369
  706MOL0     H97368   4.004   2.336   0.030  1.8871 -0.5650  0.5396
  706MOL0     H97369   4.088   2.637   0.063 -1.1085 -0.3861  0.4164
  706MOL0     H97370   4.042   2.558  -0.087  4.9433  0.8119 -2.3230
  706MOL0     H97371   4.253   2.440   0.089  0.0504  1.6577  0.9005
  706MOL0     H97372   4.235   2.414  -0.085 -3.1293  0.3785  0.3823
  706MOL0     H97373   4.332   2.682   0.056  1.1282 -1.0994  0.0442
  706MOL0     H97374   4.291   2.674  -0.116 -2.9685 -2.3321 -0.8929
  706MOL0     H97375   4.500   2.467  -0.028  1.6233  0.8345  0.9521
  706MOL0     H97376   4.490   2.570  -0.159  1.4110  0.2458  0.5298
  706MOL0     H97377   4.662   2.513   0.146 -0.2629 -0.1002 -0.8160
  706MOL0     H97378   4.801   2.721   0.319  2.0490  1.5223  0.7261
  706MOL0     H97379   4.853   2.862   0.247 -0.7040 -0.2783  1.7251
  706MOL0     H97380   4.980   2.599   0.175 -2.7706  0.0971 -0.3456
  706MOL0     H97381   5.031   2.769   0.122  1.2644  1.0347  1.4128
  706MOL0     H97382   5.036   2.811   0.382 -0.7254 -1.4042  2.6653
  706MOL0     H97383   5.024   2.638   0.394 -0.8280  1.0125  2.1004
  706MOL0     H97384   5.236   2.620   0.240 -0.1485 -0.0692  0.7894
  706MOL0     H97385   5.233   2.795   0.237  2.3076  0.4611  0.2983
  706MOL0     H97386   5.354   2.942   0.549 -0.8869 -1.2847  0.5045
  706MOL0     H97387   5.653   3.023   0.665  0.4119 -0.8694 -0.4693
  706MOL0     H97388   5.504   3.097   0.608  1.2587  0.8595  2.1907
  706MOL0     H97389   5.651   3.095   0.501  0.6911 -0.7277  0.1017
  706MOL0     H97390   6.079   2.787   0.565  2.1284 -1.9778 -3.8281
  706MOL0     H97391   6.314   2.894   0.499  0.5464  0.4732 -0.0475
  706MOL0     H97392   6.458   3.245   0.609  0.4078 -0.7681  2.4489
  706MOL0     H97393   6.364   3.103   0.666 -0.9813  3.3359  0.9633
  706MOL0     H97394   6.601   3.054   0.688 -1.1703 -1.5445  0.8261
  706MOL0     H97395   6.528   2.940   0.572  1.1454 -0.5519 -1.6192
  706MOL0     H97396   6.587   3.120   0.391  1.8633  3.1506 -0.0709
  706MOL0     H97397   6.708   2.998   0.451 -1.4701 -0.2543 -2.8712
  706MOL0     H97398   6.800   3.165   0.591  0.2955  1.2442 -0.5433
  706MOL0     H97399   6.680   3.284   0.527 -0.6501  1.7514 -4.9479
  706MOL0     H97400   6.868   3.116   0.364  1.0770  0.1079  1.1878
  706MOL0     H97401   6.750   3.231   0.301 -0.4038  0.1892 -0.5371
  706MOL0     H97402   6.975   3.317   0.489  0.6899 -1.5523 -0.1331
  706MOL0     H97403   6.871   3.430   0.416 -0.1035  0.0945  3.4849
  706MOL0     H97404   6.939   3.366   0.180 -1.4000 -1.7400  0.6011
  706MOL0     H97405   7.062   3.263   0.263 -0.2421  0.2617  0.2287
  706MOL0     H97406   7.190   3.471   0.205 -1.4515  0.2164 -0.8329
  706MOL0     H97407   7.155   3.463   0.387  0.3049 -3.8101  0.6466
  706MOL0     H97408   6.114   3.270   0.439 -1.2974  0.5179 -1.3430
  706MOL0     H97409   5.928   3.182   0.484  2.8934  3.0451 -1.2284
  706MOL0     H97410   5.696   2.655   0.329  0.6456  1.4686 -0.5574
  706MOL0     H97411   5.448   2.604   0.313  1.5880 -0.3226 -0.0402
  706MOL0     H97412   3.355   2.238   0.163 -0.0403  0.6069  2.2500
  706MOL0     H97413   3.097   2.330   0.096 -0.3846  0.1229 -0.2323
  706MOL0     H97414   2.836   2.381  -0.052 -0.9770  0.8932 -2.6026
  706MOL0     H97415   2.598   2.380  -0.105  3.3606 -1.2374 -0.4217
  706MOL0     H97416   2.342   2.771   0.005 -0.6802 -0.4401 -0.6488
  706MOL0     H97417   2.413   2.798  -0.157  0.1180 -0.1035 -1.0211
  706MOL0     H97418   2.155   2.649  -0.092  0.0484 -0.1934 -0.4154
  706MOL0     H97419   2.254   2.603  -0.225  2.8631  0.0399  0.7412
  706MOL0     H97420   2.241   2.854  -0.295 -1.2083  3.0579  1.3866
  706MOL0     H97421   2.093   2.758  -0.315 -1.6599  1.7203  1.0738
  706MOL0     H97422   2.114   2.912  -0.054 -0.9146 -0.6531  0.1207
  706MOL0     H97423   1.983   2.856  -0.162  0.3336 -0.9102 -1.1691
  706MOL0     H97424   2.117   3.252  -0.263 -3.1312 -0.4696 -0.9270
  706MOL0     H97425   2.572   2.786   0.032  1.1866  0.4021  1.7982
  706MOL0     H97426   2.846   2.833   0.174 -3.1121 -0.2774  1.4782
  706MOL0     H97427   2.893   2.874  -0.002 -0.2439 -0.9201 -0.2372
  706MOL0     H97428   2.731   2.913   0.061  1.5928  0.4288 -1.5677
  707MOL0     O97429   2.517   9.104   5.023 -0.7553  0.1255  0.2744
  707MOL0     C97430   2.509   9.145   5.133 -0.0109  0.3357  0.0590
  707MOL0     O97431   2.596   9.234   5.186  0.7104 -0.0257 -0.0291
  707MOL0     C97432   2.678   9.300   5.098  0.9938 -0.1488  0.1574
  707MOL0     C97433   2.812   9.265   5.086  0.3812 -0.8787  0.2161
  707MOL0     C97434   2.893   9.328   4.993  0.4544 -0.7964  0.5319
  707MOL0     C97435   2.841   9.433   4.907 -0.3394 -0.2253  0.0315
  707MOL0     O97436   2.920   9.509   4.822  0.0298  0.1825 -0.3405
  707MOL0     C97437   3.024   9.436   4.753  0.2792 -0.7833  0.1876
  707MOL0     C97438   3.077   9.523   4.635 -0.6840  0.1456  0.2010
  707MOL0     C97439   3.128   9.665   4.675  0.3911  0.5305 -0.1833
  707MOL0     C97440   3.271   9.655   4.715 -0.6778  0.7763 -0.1527
  707MOL0     C97441   3.340   9.788   4.734  0.3587 -0.4899 -0.5314
  707MOL0     C97442   3.277   9.871   4.851  1.1346 -0.0745  0.1181
  707MOL0     C97443   3.340   9.999   4.884  0.0105 -0.2644 -0.1261
  707MOL0     C97444   3.443   9.984   4.993 -0.7696  0.2008  1.1626
  707MOL0     N97445   3.522  10.108   5.002  0.1630  0.6990 -0.3676
  707MOL0     C97446   3.590  10.167   4.902  0.5953  0.2447 -0.0989
  707MOL0     C97447   3.613  10.290   4.952  0.2069  0.0281 -0.2904
  707MOL0     C97448   3.672  10.402   4.867  0.2685 -0.5260 -0.1887
  707MOL0     C97449   3.555  10.489   4.814  0.2775 -0.5552 -0.2969
  707MOL0     C97450   3.522  10.592   4.915  0.0718 -0.5264 -0.3279
  707MOL0     C97451   3.399  10.676   4.880 -0.6254 -0.6871  0.4260
  707MOL0     O97452   3.409  10.744   4.756  0.0063 -0.3861  0.4498
  707MOL0     C97453   3.292  10.793   4.708  0.2710  0.5652  0.5721
  707MOL0     C97454   3.304  10.856   4.584 -0.0258 -0.0971  0.2616
  707MOL0     C97455   3.202  10.913   4.505  1.2079  0.5402  0.5098
  707MOL0     C97456   3.237  10.976   4.374  0.0738 -0.2041 -0.0571
  707MOL0     C97457   3.068  10.907   4.553  0.0943  0.2152 -0.2452
  707MOL0     C97458   2.945  10.965   4.496 -0.2266  0.4067  0.6358
  707MOL0     O97459   2.830  10.915   4.538  0.2497  0.9259  0.1366
  707MOL0     C97460   2.712  10.975   4.499 -0.4618  0.4668 -0.1523
  707MOL0     C97461   2.619  11.015   4.596  0.8139  0.1278  0.3227
  707MOL0     C97462   2.492  11.055   4.549  0.0181  0.3876  0.4325
  707MOL0     C97463   2.457  11.067   4.414  0.7877  0.4689  0.4512
  707MOL0     O97464   2.328  11.088   4.388  0.1153  0.5364  0.4764
  707MOL0     C97465   2.283  11.163   4.270  0.2263 -0.5439 -0.6138
  707MOL0     C97466   2.249  11.075   4.163 -0.0541 -0.0319  1.2823
  707MOL0     C97467   2.132  10.984   4.204 -0.8008 -0.5266  0.5533
  707MOL0     C97468   2.113  10.872   4.099 -0.4256 -0.2243 -0.2214
  707MOL0     C97469   2.021  10.762   4.150 -0.0460 -0.0728  0.4195
  707MOL0     C97470   1.871  10.803   4.125  0.6698  0.0864  0.3703
  707MOL0     C97471   1.772  10.705   4.198 -1.0104  0.3599 -0.5203
  707MOL0     C97472   1.635  10.755   4.213 -1.3406  1.4200  0.0511
  707MOL0    Cl97473   1.577  10.826   4.050 -0.0303  0.2363 -0.1588
  707MOL0     C97474   2.552  11.031   4.321  0.0197  0.7660  0.3977
  707MOL0     C97475   2.680  10.987   4.360 -0.1799 -0.3825 -1.2876
  707MOL0     O97476   2.957  11.058   4.417  0.1221  0.8360  0.7432
  707MOL0     C97477   3.056  10.846   4.681  0.6333  0.2495  0.8033
  707MOL0     C97478   3.163  10.793   4.764  0.4465  0.2209  0.8994
  707MOL0     N97479   3.558  10.310   5.075 -0.4347 -0.3614 -0.9636
  707MOL0     N97480   3.511  10.196   5.114  0.4298 -0.1367 -0.0770
  707MOL0     C97481   2.707   9.477   4.932 -0.0047  0.3181  0.0529
  707MOL0     C97482   2.624   9.409   5.029  0.0983  0.1442 -0.5719
  707MOL0     C97483   2.408   9.070   5.218  0.4167  0.1517  0.3798
  707MOL0     C97484   2.401   9.102   5.360 -0.4515 -1.2921  1.2875
  707MOL0     C97485   2.302   9.063   5.447 -0.8596  0.4568  0.3800
  707MOL0     C97486   2.210   8.964   5.396 -0.5694  0.1029 -0.3094
  707MOL0     O97487   2.110   8.904   5.477  0.1855  0.0123  0.6118
  707MOL0     C97488   2.085   8.962   5.606 -0.1887  0.3943 -0.4409
  707MOL0     C97489   1.961   8.911   5.683  0.9135  0.1053  0.3826
  707MOL0     C97490   1.945   9.014   5.798  0.8112  0.2647  0.4557
  707MOL0     C97491   1.809   8.990   5.873 -0.3781 -0.1334 -0.5695
  707MOL0     C97492   1.821   8.867   5.951 -0.3417  0.2802 -0.0675
  707MOL0     C97493   1.854   8.762   5.998 -1.1158  0.6455  0.6315
  707MOL0     C97494   2.216   8.920   5.261  0.7324 -0.7087  0.4149
  707MOL0     C97495   2.301   8.979   5.170 -0.3606 -0.3373  0.1803
  707MOL0     C97496   2.277   8.942   5.028 -0.1218 -0.0785 -0.1678
  707MOL0     H97497   2.842   9.176   5.140 -0.6495 -2.4414 -1.6395
  707MOL0     H97498   2.997   9.302   4.975  0.1288 -0.5932 -1.9879
  707MOL0     H97499   2.986   9.343   4.710  1.9405 -1.2271 -0.4207
  707MOL0     H97500   3.109   9.412   4.817  0.0822 -0.4425  0.5846
  707MOL0     H97501   3.152   9.464   4.582  0.8150  0.8736  1.4004
  707MOL0     H97502   3.002   9.536   4.557  1.0575  2.2573 -1.2536
  707MOL0     H97503   3.126   9.734   4.590 -2.8362  0.1312 -0.5563
  707MOL0     H97504   3.056   9.705   4.747 -3.7184 -2.6574 -2.0672
  707MOL0     H97505   3.283   9.601   4.810  1.4963  3.0070  0.9555
  707MOL0     H97506   3.332   9.600   4.644  2.4963  4.0361 -0.2490
  707MOL0     H97507   3.325   9.839   4.639 -0.3689  0.1887 -0.0579
  707MOL0     H97508   3.449   9.786   4.749  0.8724  4.1219 -2.0368
  707MOL0     H97509   3.171   9.892   4.832  0.2017 -1.8505  2.8276
  707MOL0     H97510   3.285   9.803   4.936 -0.6433 -1.0317 -0.4271
  707MOL0     H97511   3.258  10.055   4.930 -1.4502 -3.5619  1.6746
  707MOL0     H97512   3.378  10.052   4.796  2.2485  1.7559  1.9516
  707MOL0     H97513   3.387   9.965   5.085 -1.8941 -0.3546  0.3718
  707MOL0     H97514   3.515   9.907   4.966 -1.1726  0.0754  0.4323
  707MOL0     H97515   3.607  10.135   4.800 -0.5207  0.3101 -0.3119
  707MOL0     H97516   3.740  10.359   4.793  1.4422  0.9268 -0.0031
  707MOL0     H97517   3.737  10.460   4.933  2.3076 -0.9022 -1.7660
  707MOL0     H97518   3.586  10.545   4.725 -0.3892  0.6596  0.2162
  707MOL0     H97519   3.465  10.433   4.787  0.1342 -0.5531  0.1718
  707MOL0     H97520   3.491  10.541   5.007 -1.5818 -2.8210 -2.0388
  707MOL0     H97521   3.612  10.647   4.942  0.8890 -1.8215 -0.3515
  707MOL0     H97522   3.312  10.612   4.895 -0.3704 -0.8852  1.0912
  707MOL0     H97523   3.382  10.754   4.955  2.3772 -1.7688  2.4357
  707MOL0     H97524   3.403  10.867   4.541 -0.5057  0.2936 -0.7693
  707MOL0     H97525   3.256  11.083   4.389  0.6296 -0.4961  1.5514
  707MOL0     H97526   3.159  10.959   4.299 -0.6198 -2.2984  1.0769
  707MOL0     H97527   3.329  10.932   4.334 -1.1767 -2.7777 -0.2658
  707MOL0     H97528   2.646  11.000   4.700  4.6032  1.8526 -0.2334
  707MOL0     H97529   2.427  11.092   4.628  0.4514 -1.5606  1.7717
  707MOL0     H97530   2.192  11.218   4.296  2.0236  0.6670  4.0558
  707MOL0     H97531   2.350  11.234   4.222 -1.8862  1.5714 -0.6317
  707MOL0     H97532   2.205  11.137   4.085  0.0521  2.7992  3.3084
  707MOL0     H97533   2.329  11.025   4.108 -0.3466  0.4794  0.3767
  707MOL0     H97534   2.040  11.043   4.210  1.0838  2.4517  3.3601
  707MOL0     H97535   2.145  10.940   4.304  1.3444 -0.5856  0.2897
  707MOL0     H97536   2.206  10.822   4.073  0.2388  0.4608  0.7457
  707MOL0     H97537   2.079  10.923   4.009 -1.6176  1.6383  1.1919
  707MOL0     H97538   2.042  10.666   4.102  0.8253 -0.0928  0.8331
  707MOL0     H97539   2.046  10.747   4.256 -0.3557  0.4099  0.5672
  707MOL0     H97540   1.860  10.810   4.016 -1.7611 -1.1107  0.4771
  707MOL0     H97541   1.850  10.907   4.149 -1.8718  0.4095 -2.6825
  707MOL0     H97542   1.815  10.668   4.292  0.0861 -3.0304 -2.1807
  707MOL0     H97543   1.766  10.612   4.141  0.4333 -0.8883  1.2357
  707MOL0     H97544   1.631  10.831   4.292  0.5985  0.5532  1.0476
  707MOL0     H97545   1.565  10.677   4.243  2.2233 -2.1450 -0.1087
  707MOL0     H97546   2.536  11.038   4.214  0.3785 -1.0043  0.1999
  707MOL0     H97547   2.753  10.959   4.284  0.3114 -1.0430 -0.5853
  707MOL0     H97548   2.959  10.838   4.730 -0.3705 -0.1662 -1.1798
  707MOL0     H97549   3.141  10.753   4.863 -3.9436 -0.9085 -0.3088
  707MOL0     H97550   2.674   9.560   4.870  0.9480  0.9548  0.3815
  707MOL0     H97551   2.520   9.438   5.043  0.5771  1.3263  0.8084
  707MOL0     H97552   2.469   9.180   5.392  0.3118 -0.3479 -2.2662
  707MOL0     H97553   2.296   9.114   5.542 -0.6130  2.5470 -0.6849
  707MOL0     H97554   2.175   8.936   5.662 -1.2702  0.1785  1.2651
  707MOL0     H97555   2.088   9.072   5.611  3.3615  0.3692  0.5790
  707MOL0     H97556   1.971   8.808   5.718  0.7951  0.4336  1.4301
  707MOL0     H97557   1.879   8.914   5.612  1.3789  1.5629 -0.1329
  707MOL0     H97558   2.033   9.000   5.863 -0.0822 -0.4129  1.5634
  707MOL0     H97559   1.935   9.115   5.759  0.6682  0.2389  0.4252
  707MOL0     H97560   1.744   8.996   5.785 -1.2586 -2.7745 -0.1839
  707MOL0     H97561   1.782   9.072   5.940 -1.4747 -1.5662  0.8026
  707MOL0     H97562   1.901   8.678   6.046 -2.6502 -0.6093  0.0488
  707MOL0     H97563   2.141   8.856   5.216  0.2939  0.8108 -1.0826
  707MOL0     H97564   2.187   8.884   5.004 -1.4115  1.5003  0.6583
  707MOL0     H97565   2.262   9.036   4.974 -2.9935 -0.0735  0.4812
  707MOL0     H97566   2.365   8.893   4.985  0.6001  1.9045 -1.0669
  708MOL0     O97567   4.001   0.808   9.485  0.1563  0.0181 -0.5774
  708MOL0     C97568   3.996   0.698   9.541  0.1389 -0.1094  0.2760
  708MOL0     O97569   4.106   0.615   9.546  0.7987  0.2056 -0.9347
  708MOL0     C97570   4.238   0.652   9.518  0.0445 -0.0658  0.3110
  708MOL0     C97571   4.297   0.775   9.501 -0.2378 -0.7585  0.3418
  708MOL0     C97572   4.428   0.791   9.477 -0.6881  0.3600  0.1462
  708MOL0     C97573   4.512   0.678   9.458  0.1747 -0.5564  0.6063
  708MOL0     O97574   4.641   0.700   9.431 -0.6035 -0.3543  0.0672
  708MOL0     C97575   4.746   0.596   9.428  0.1441 -0.0257  0.7450
  708MOL0     C97576   4.875   0.645   9.354 -0.5093 -0.0924  0.3654
  708MOL0     C97577   4.958   0.747   9.436  0.1191 -0.4963 -0.4214
  708MOL0     C97578   5.082   0.793   9.355  0.3559  0.6489 -0.1652
  708MOL0     C97579   5.166   0.890   9.429 -0.9647 -1.0581  0.4280
  708MOL0     C97580   5.278   0.958   9.342 -0.0140 -0.1867  0.5017
  708MOL0     C97581   5.353   1.069   9.405 -0.3332  0.0939  0.7303
  708MOL0     C97582   5.416   1.165   9.300 -0.5587 -0.3366 -0.5718
  708MOL0     N97583   5.544   1.216   9.354  0.1796  0.5959 -0.0811
  708MOL0     C97584   5.673   1.172   9.311 -0.1477  0.0662 -1.0968
  708MOL0     C97585   5.761   1.259   9.362  0.0804  0.6745 -0.3515
  708MOL0     C97586   5.909   1.237   9.353 -0.3185  0.1385 -0.5671
  708MOL0     C97587   5.991   1.283   9.470 -0.0695 -0.3437  0.4141
  708MOL0     C97588   6.136   1.249   9.437  1.0073  0.2132  0.2100
  708MOL0     C97589   6.238   1.311   9.525  0.5300  0.0464 -0.2969
  708MOL0     O97590   6.223   1.461   9.530  0.5519  0.5735 -0.0579
  708MOL0     C97591   6.293   1.521   9.430 -1.2706  0.4062 -0.5700
  708MOL0     C97592   6.244   1.609   9.341 -0.1129 -0.3525  0.1356
  708MOL0     C97593   6.318   1.684   9.250  0.4416 -0.3412 -0.0560
  708MOL0     C97594   6.239   1.775   9.154 -0.3019  0.5178  0.3732
  708MOL0     C97595   6.462   1.671   9.252  0.1308  0.9100 -0.0502
  708MOL0     C97596   6.548   1.740   9.154 -0.4211  0.0081 -0.6268
  708MOL0     O97597   6.675   1.718   9.174  0.2972 -0.5308  0.5791
  708MOL0     C97598   6.779   1.744   9.080  0.1651  0.0917  0.7476
  708MOL0     C97599   6.896   1.770   9.139  0.0213  0.5411  0.1391
  708MOL0     C97600   7.008   1.814   9.052 -0.1354  0.6233 -0.1441
  708MOL0     C97601   6.994   1.794   8.914 -0.0049 -0.4269 -0.3903
  708MOL0     O97602   7.096   1.824   8.831  0.7978 -0.1625  0.0416
  708MOL0     C97603   7.225   1.878   8.869  0.1586 -0.3046 -0.1339
  708MOL0     C97604   7.322   1.874   8.745 -0.5817  0.0923  0.7732
  708MOL0     C97605   7.454   1.966   8.756 -0.7077 -0.1334  0.7264
  708MOL0     C97606   7.545   1.953   8.629 -0.0177 -0.1823  0.1071
  708MOL0     C97607   7.662   2.052   8.611 -0.2480  0.6119  0.2438
  708MOL0     C97608   7.653   2.110   8.467 -0.2473 -0.4714 -0.2113
  708MOL0     C97609   7.776   2.201   8.451 -0.3708 -0.9156 -1.1800
  708MOL0     C97610   7.723   2.343   8.441  0.6449 -0.2968 -0.5341
  708MOL0    Cl97611   7.838   2.441   8.357 -0.2144  0.4711  0.3006
  708MOL0     C97612   6.877   1.750   8.857 -1.1316  0.2865 -0.2530
  708MOL0     C97613   6.768   1.736   8.936  0.8713  0.3031 -0.7933
  708MOL0     O97614   6.503   1.819   9.072  0.0608  0.2876  0.3857
  708MOL0     C97615   6.516   1.592   9.354  0.1342 -0.1051 -0.2817
  708MOL0     C97616   6.432   1.512   9.435 -0.4629 -0.8052 -0.4542
  708MOL0     N97617   5.690   1.346   9.443 -0.2974  0.5521  0.1074
  708MOL0     N97618   5.561   1.327   9.434  0.3032 -0.1216  0.4997
  708MOL0     C97619   4.462   0.552   9.492 -0.6766 -0.8210  0.3815
  708MOL0     C97620   4.328   0.540   9.517 -0.3236 -1.4605  0.7871
  708MOL0     C97621   3.866   0.639   9.592  0.7054  0.0965  0.0538
  708MOL0     C97622   3.859   0.493   9.631 -0.0592  0.0551  0.0520
  708MOL0     C97623   3.739   0.432   9.678  0.0051 -0.5490  0.4411
  708MOL0     C97624   3.619   0.508   9.684  0.1393 -0.1642 -0.3756
  708MOL0     O97625   3.498   0.462   9.733  0.0239  0.1102 -0.0814
  708MOL0     C97626   3.498   0.330   9.774 -0.5432 -0.0652 -0.7750
  708MOL0     C97627   3.344   0.287   9.792  0.0462  0.1978 -0.2001
  708MOL0     C97628   3.322   0.141   9.851 -0.0518  0.4144 -0.2804
  708MOL0     C97629   3.183   0.087   9.840 -0.1268  0.1293 -0.4602
  708MOL0     C97630   3.137   0.070   9.710 -0.5002 -0.2030  0.6213
  708MOL0     C97631   3.122   0.055   9.585  0.3370  0.1505 -0.3379
  708MOL0     C97632   3.628   0.645   9.651  0.5817  0.5487 -0.4154
  708MOL0     C97633   3.741   0.710   9.601 -0.3289  0.3737  0.2558
  708MOL0     C97634   3.727   0.858   9.564  0.3566  0.1577  0.4689
  708MOL0     H97635   4.226   0.858   9.501  0.4695 -0.1365  0.5992
  708MOL0     H97636   4.471   0.891   9.467 -0.3138  0.1301 -0.6491
  708MOL0     H97637   4.717   0.498   9.388 -3.0642  1.9714 -2.4976
  708MOL0     H97638   4.767   0.588   9.535 -2.0855 -1.4200  1.1631
  708MOL0     H97639   4.931   0.553   9.335 -3.7771 -2.1113 -0.3964
  708MOL0     H97640   4.859   0.675   9.250  2.6069 -2.1826 -0.8818
  708MOL0     H97641   4.897   0.831   9.470 -1.3136 -2.0035  0.9548
  708MOL0     H97642   4.987   0.686   9.523  2.2318 -3.9448 -3.2517
  708MOL0     H97643   5.153   0.721   9.312 -0.9194  0.5119 -2.1753
  708MOL0     H97644   5.043   0.834   9.262 -0.0092 -1.1811 -0.8722
  708MOL0     H97645   5.195   0.849   9.526 -0.8957  0.3243  1.0268
  708MOL0     H97646   5.098   0.968   9.464 -2.5372 -1.6305 -1.2237
  708MOL0     H97647   5.355   0.887   9.313  0.8828  1.1287 -0.4793
  708MOL0     H97648   5.233   0.999   9.251  0.2584  1.2324  0.9798
  708MOL0     H97649   5.435   1.037   9.469  0.9879  0.8064 -0.5502
  708MOL0     H97650   5.280   1.123   9.466 -0.1393  0.5848  0.5374
  708MOL0     H97651   5.435   1.094   9.218  1.6553 -1.1939  0.5856
  708MOL0     H97652   5.352   1.249   9.274  0.0327  0.0987 -0.6576
  708MOL0     H97653   5.699   1.082   9.256  1.0814 -0.4828  0.3259
  708MOL0     H97654   5.939   1.298   9.267 -0.4841  2.4830  0.9282
  708MOL0     H97655   5.936   1.133   9.332  0.9906  0.4711 -0.6231
  708MOL0     H97656   5.980   1.390   9.486  1.2085 -0.1536  0.1536
  708MOL0     H97657   5.960   1.226   9.558  1.2414  0.0601  1.1634
  708MOL0     H97658   6.144   1.141   9.445 -0.4301 -0.3007 -3.4709
  708MOL0     H97659   6.154   1.277   9.333 -2.2967 -1.4320 -0.9258
  708MOL0     H97660   6.230   1.265   9.624  2.1061  1.2086  0.4217
  708MOL0     H97661   6.338   1.279   9.493  1.6544  1.2545  1.7536
  708MOL0     H97662   6.136   1.624   9.338  0.0626  0.8784 -1.1571
  708MOL0     H97663   6.134   1.756   9.177 -0.4900 -0.1673 -0.9988
  708MOL0     H97664   6.259   1.761   9.048  0.9515 -1.3427  0.8122
  708MOL0     H97665   6.258   1.877   9.189 -0.5398  0.2319  1.3667
  708MOL0     H97666   6.899   1.764   9.247 -1.6452 -0.9451  0.1378
  708MOL0     H97667   7.101   1.856   9.089  0.4564 -0.7380 -0.0314
  708MOL0     H97668   7.217   1.985   8.892  1.9224 -0.0396 -0.5426
  708MOL0     H97669   7.266   1.817   8.949  1.7686  0.8400 -0.0291
  708MOL0     H97670   7.342   1.768   8.727 -1.7404 -0.1026  0.5696
  708MOL0     H97671   7.265   1.905   8.656  1.0523 -0.0262 -0.3637
  708MOL0     H97672   7.504   1.938   8.849 -2.9878  1.5413  2.5863
  708MOL0     H97673   7.421   2.070   8.762  0.7846  0.4406 -0.4111
  708MOL0     H97674   7.483   1.960   8.539 -1.6716  0.4973  1.2406
  708MOL0     H97675   7.580   1.850   8.622 -1.9734 -0.7656 -3.5981
  708MOL0     H97676   7.652   2.133   8.683  0.2376  2.2476 -1.4670
  708MOL0     H97677   7.759   2.007   8.633 -2.0058 -2.9189  1.5760
  708MOL0     H97678   7.556   2.160   8.457 -0.5511 -0.9573  0.2699
  708MOL0     H97679   7.662   2.029   8.393  0.6736 -1.0442  0.5085
  708MOL0     H97680   7.830   2.164   8.364 -0.3225 -1.6299 -0.8500
  708MOL0     H97681   7.848   2.188   8.532  0.0275  1.1201 -1.1654
  708MOL0     H97682   7.712   2.391   8.538  1.5643 -1.2384  0.0502
  708MOL0     H97683   7.622   2.351   8.398  0.0540 -5.6981 -0.8374
  708MOL0     H97684   6.879   1.731   8.750 -0.9367 -3.9200  0.3212
  708MOL0     H97685   6.670   1.712   8.898  0.6514 -2.6469  1.3519
  708MOL0     H97686   6.623   1.582   9.367  0.0485  1.1539  1.8482
  708MOL0     H97687   6.481   1.452   9.511  0.3690  0.0668 -0.2810
  708MOL0     H97688   4.536   0.472   9.487  0.9660  0.6812 -0.8168
  708MOL0     H97689   4.289   0.441   9.537 -0.9351 -0.6928  4.0543
  708MOL0     H97690   3.951   0.437   9.620  1.2056  1.8618  0.8971
  708MOL0     H97691   3.746   0.326   9.699 -1.6908 -0.6154  0.8026
  708MOL0     H97692   3.528   0.261   9.695 -0.3094 -0.5782 -0.2454
  708MOL0     H97693   3.555   0.313   9.866  0.8328 -1.7743 -1.8911
  708MOL0     H97694   3.289   0.300   9.698 -0.2085 -1.7617 -0.3623
  708MOL0     H97695   3.292   0.354   9.861 -0.9350  0.4162 -1.1337
  708MOL0     H97696   3.387   0.069   9.800 -1.4514 -0.0891 -1.3935
  708MOL0     H97697   3.354   0.146   9.955  2.0371 -2.4272 -0.6676
  708MOL0     H97698   3.115   0.153   9.894 -0.1663 -1.7128  1.8904
  708MOL0     H97699   3.186  -0.010   9.889 -0.1242  1.2500  1.8630
  708MOL0     H97700   3.088   0.054   9.483 -0.6151 -0.5477 -0.0300
  708MOL0     H97701   3.538   0.705   9.648  0.5879  0.6412  0.7143
  708MOL0     H97702   3.735   0.862   9.455  1.4259  0.9244  0.5537
  708MOL0     H97703   3.632   0.894   9.607 -0.0710 -2.7145  2.1629
  708MOL0     H97704   3.798   0.927   9.610 -2.0069  0.9331  3.2903
  709MOL0     O97705   6.128  11.260   8.661 -0.0482 -0.0955 -0.4397
  709MOL0     C97706   6.066  11.243   8.769 -0.2755 -0.6999  0.3356
  709MOL0     O97707   6.133  11.220   8.887 -0.2082 -0.2689 -1.0167
  709MOL0     C97708   6.268  11.197   8.885 -0.1507 -0.0107  0.7330
  709MOL0     C97709   6.312  11.082   8.961  0.3361 -0.2287 -0.6250
  709MOL0     C97710   6.443  11.058   8.995 -0.7185  0.0035 -0.5045
  709MOL0     C97711   6.550  11.145   8.960  0.7466  0.0095 -0.0256
  709MOL0     O97712   6.672  11.149   9.018 -0.3177 -0.2889  0.0116
  709MOL0     C97713   6.710  11.032   9.093 -0.1500 -0.2203 -0.1006
  709MOL0     C97714   6.863  11.033   9.091 -0.0696 -0.1995  0.0340
  709MOL0     C97715   6.925  11.148   9.172 -0.0771 -0.2822  0.0390
  709MOL0     C97716   7.074  11.165   9.135  0.1725 -0.2396 -0.2591
  709MOL0     C97717   7.149  11.275   9.210  0.3566  0.6115  0.4903
  709MOL0     C97718   7.140  11.260   9.368  0.4443  0.2190  0.1966
  709MOL0     C97719   7.212  11.364   9.451 -0.3053 -0.0406 -0.5199
  709MOL0     C97720   7.169  11.361   9.601  0.3302  0.2832 -0.0991
  709MOL0     N97721   7.235  11.465   9.670  0.7010  0.0761 -0.3470
  709MOL0     C97722   7.356  11.514   9.629 -0.8127  0.3201 -0.0265
  709MOL0     C97723   7.378  11.628   9.707  0.6020  0.7941  0.3950
  709MOL0     C97724   7.491  11.734   9.708 -0.3825  0.0780 -0.3446
  709MOL0     C97725   7.555  11.766   9.572  0.0047 -0.2140 -0.7681
  709MOL0     C97726   7.696  11.828   9.588 -0.9410  0.3390  0.8178
  709MOL0     C97727   7.789  11.784   9.474  0.1692  0.3666  0.7886
  709MOL0     O97728   7.872  11.668   9.517  0.3935  0.0450 -0.5225
  709MOL0     C97729   7.933  11.592   9.423 -0.3102 -0.1832  0.0921
  709MOL0     C97730   7.959  11.629   9.293  0.7224 -0.9232  0.2032
  709MOL0     C97731   8.017  11.535   9.201  0.5649  0.1862  0.0402
  709MOL0     C97732   8.026  11.571   9.057 -0.0568  0.0466 -0.6654
  709MOL0     C97733   8.054  11.403   9.243 -0.0296 -0.8287  0.6424
  709MOL0     C97734   8.110  11.294   9.141  0.8787  0.0993  0.9547
  709MOL0     O97735   8.128  11.169   9.202 -0.3247 -0.7961  0.6108
  709MOL0     C97736   8.200  11.076   9.145 -0.1571  0.8468 -0.6731
  709MOL0     C97737   8.336  11.083   9.127 -0.2224 -0.8006  0.2507
  709MOL0     C97738   8.417  10.992   9.068 -0.1714 -0.2996  0.3639
  709MOL0     C97739   8.345  10.881   9.017  0.0866  0.9294  0.2383
  709MOL0     O97740   8.416  10.778   8.960 -0.5251 -0.0430 -0.0790
  709MOL0     C97741   8.552  10.761   8.992 -0.5034 -0.2058  0.0622
  709MOL0     C97742   8.614  10.637   8.924 -0.8638  0.0629 -0.1032
  709MOL0     C97743   8.694  10.654   8.789  1.0130 -0.5775  1.6630
  709MOL0     C97744   8.813  10.748   8.794  0.5016  0.5555 -0.3584
  709MOL0     C97745   8.896  10.758   8.663 -0.1257  0.2618  0.8364
  709MOL0     C97746   8.821  10.828   8.539  0.0310  0.0676 -0.4045
  709MOL0     C97747   8.921  10.857   8.432 -0.1090  0.1199 -0.4572
  709MOL0     C97748   8.875  10.969   8.336 -0.2398 -0.1423 -0.3062
  709MOL0    Cl97749   8.988  10.983   8.189  0.0413  0.4006 -0.1738
  709MOL0     C97750   8.212  10.864   9.025  1.0252  0.7980  0.2942
  709MOL0     C97751   8.140  10.959   9.092  0.1228 -0.0970  0.1028
  709MOL0     O97752   8.126  11.313   9.024 -0.1799  0.6886  0.0276
  709MOL0     C97753   8.020  11.371   9.375  0.1558  0.2012 -0.4390
  709MOL0     C97754   7.964  11.463   9.472  0.1168  0.7626  0.3586
  709MOL0     N97755   7.275  11.621   9.801 -0.9447 -0.3697  0.1749
  709MOL0     N97756   7.193  11.523   9.782  0.2788 -0.3528  0.2385
  709MOL0     C97757   6.511  11.256   8.884  0.3712 -0.0150  0.7274
  709MOL0     C97758   6.372  11.275   8.848  0.0062 -0.8486 -0.7458
  709MOL0     C97759   5.923  11.225   8.757 -0.0757  0.0663  0.1706
  709MOL0     C97760   5.868  11.233   8.624 -0.2309 -0.1291 -0.3433
  709MOL0     C97761   5.732  11.221   8.596  0.8656 -0.4881 -0.4110
  709MOL0     C97762   5.638  11.209   8.703 -0.0579 -0.3633  0.1807
  709MOL0     O97763   5.506  11.199   8.658  0.2625  0.1670  0.4519
  709MOL0     C97764   5.419  11.162   8.763 -0.2220 -0.2121 -0.4160
  709MOL0     C97765   5.280  11.166   8.696 -0.0913 -0.5791  0.1213
  709MOL0     C97766   5.267  11.055   8.591  0.7055  1.1638 -0.4541
  709MOL0     C97767   5.254  10.912   8.647 -0.4121 -0.7843  0.2190
  709MOL0     C97768   5.291  10.816   8.546  0.0580 -0.5087  0.2740
  709MOL0     C97769   5.324  10.735   8.469 -0.5516 -0.8251 -0.0923
  709MOL0     C97770   5.685  11.211   8.838 -0.1597 -0.3180  0.3438
  709MOL0     C97771   5.829  11.213   8.866  0.2259  0.6231 -0.2167
  709MOL0     C97772   5.873  11.191   9.007 -0.3365 -0.3121 -0.9064
  709MOL0     H97773   6.235  11.020   9.004 -0.1815  0.6727 -0.2432
  709MOL0     H97774   6.470  10.972   9.056  0.7962  0.7059 -0.1331
  709MOL0     H97775   6.666  10.939   9.054 -4.4737  1.8062 -0.6308
  709MOL0     H97776   6.677  11.038   9.197  2.2157 -1.5003  0.7818
  709MOL0     H97777   6.898  10.940   9.137 -1.4431  0.1187  1.8299
  709MOL0     H97778   6.885  11.047   8.985  0.7290  0.8872  0.3273
  709MOL0     H97779   6.879  11.246   9.155 -1.3671 -0.3687  2.6353
  709MOL0     H97780   6.931  11.121   9.277  4.1510  0.7355  0.2391
  709MOL0     H97781   7.121  11.074   9.174  2.4060  0.9016 -0.1535
  709MOL0     H97782   7.083  11.162   9.026 -2.5306 -3.5833 -0.5726
  709MOL0     H97783   7.107  11.373   9.183  0.8652  1.1508  1.6009
  709MOL0     H97784   7.252  11.261   9.175  0.6997  0.5527  1.5064
  709MOL0     H97785   7.032  11.272   9.376  0.0768 -1.8765 -0.8063
  709MOL0     H97786   7.173  11.162   9.402  0.2734 -0.6038 -1.8352
  709MOL0     H97787   7.206  11.467   9.413 -0.3292  0.4999  0.9116
  709MOL0     H97788   7.318  11.339   9.445  0.4331  2.4782  0.6773
  709MOL0     H97789   7.063  11.370   9.625  0.3059 -1.5216  0.6163
  709MOL0     H97790   7.197  11.266   9.648 -0.4029 -0.2737 -0.7648
  709MOL0     H97791   7.425  11.475   9.555  0.5065  0.9362  0.8205
  709MOL0     H97792   7.569  11.698   9.775  1.5486  1.2921 -1.8376
  709MOL0     H97793   7.454  11.829   9.749  0.2042  0.7413 -1.3189
  709MOL0     H97794   7.573  11.673   9.517  0.9318  0.6624 -1.9986
  709MOL0     H97795   7.490  11.816   9.500 -0.8665 -1.6748 -1.0538
  709MOL0     H97796   7.691  11.936   9.574 -0.5794  0.1788 -0.8008
  709MOL0     H97797   7.747  11.803   9.682 -0.6421 -0.3773  0.4791
  709MOL0     H97798   7.722  11.761   9.391  0.2435  2.2617  0.1628
  709MOL0     H97799   7.856  11.866   9.449  0.0436  0.0727 -0.5812
  709MOL0     H97800   7.930  11.726   9.255  1.2656 -0.9685 -0.3469
  709MOL0     H97801   7.975  11.663   9.025 -0.9461 -0.1420  0.1579
  709MOL0     H97802   7.975  11.497   8.994  0.3652 -0.2533 -0.6580
  709MOL0     H97803   8.131  11.578   9.030 -0.0594  0.8274 -0.4967
  709MOL0     H97804   8.381  11.166   9.181 -0.4983 -0.9177  0.6731
  709MOL0     H97805   8.524  11.006   9.074 -0.0023 -0.4493 -1.5780
  709MOL0     H97806   8.611  10.850   8.970  0.0738 -0.5806  0.0495
  709MOL0     H97807   8.562  10.745   9.100  2.4533  0.5264 -0.0221
  709MOL0     H97808   8.683  10.592   8.995 -0.8392  2.7907  1.7702
  709MOL0     H97809   8.532  10.570   8.898  0.1852 -0.2275 -3.0211
  709MOL0     H97810   8.619  10.685   8.715 -2.1090 -2.1165  3.9445
  709MOL0     H97811   8.713  10.549   8.766  0.4056 -0.6414  1.4191
  709MOL0     H97812   8.873  10.706   8.876  0.8295 -0.9869 -1.3487
  709MOL0     H97813   8.781  10.848   8.824  2.8699  0.3690  3.5019
  709MOL0     H97814   8.985  10.815   8.691  0.9524  0.7566 -3.0064
  709MOL0     H97815   8.926  10.658   8.630  0.2994  0.5764  0.2409
  709MOL0     H97816   8.776  10.922   8.571 -0.1243 -0.8719  2.4263
  709MOL0     H97817   8.747  10.752   8.511  1.0145 -1.2897  0.5865
  709MOL0     H97818   8.925  10.763   8.376  0.0214 -0.7611  0.9879
  709MOL0     H97819   9.020  10.888   8.469 -0.6770  3.2617 -1.3165
  709MOL0     H97820   8.866  11.066   8.385  0.1412  0.5638 -1.5921
  709MOL0     H97821   8.780  10.928   8.301  0.9026 -3.1728 -0.1606
  709MOL0     H97822   8.166  10.775   8.983 -0.9521  1.0372  1.7931
  709MOL0     H97823   8.035  10.936   9.106  0.1159  1.2427  2.8021
  709MOL0     H97824   8.024  11.268   9.408 -0.2483 -0.3935 -2.1386
  709MOL0     H97825   7.930  11.438   9.572 -0.6068 -0.2658 -0.1246
  709MOL0     H97826   6.583  11.330   8.851  0.2695  0.3150  1.2294
  709MOL0     H97827   6.349  11.365   8.792  2.3967 -1.3836 -2.7578
  709MOL0     H97828   5.942  11.250   8.547  0.3555  0.0598  0.2473
  709MOL0     H97829   5.703  11.226   8.492 -0.6662 -1.3908 -0.0511
  709MOL0     H97830   5.445  11.069   8.815  1.5803  0.1518 -0.5932
  709MOL0     H97831   5.411  11.243   8.836 -2.5830 -0.1279 -0.7055
  709MOL0     H97832   5.254  11.267   8.663 -2.3967 -0.9631  0.5976
  709MOL0     H97833   5.213  11.147   8.780 -2.5492 -1.1615 -1.8779
  709MOL0     H97834   5.175  11.063   8.533  0.0812 -4.8860 -1.0152
  709MOL0     H97835   5.353  11.048   8.523  0.5855 -0.6587 -0.4677
  709MOL0     H97836   5.150  10.894   8.678 -0.6850  2.3593  1.4776
  709MOL0     H97837   5.316  10.901   8.736 -3.3221 -0.1841  2.4799
  709MOL0     H97838   5.336  10.652   8.402  0.5662  0.5725 -1.7004
  709MOL0     H97839   5.618  11.199   8.922  0.0344 -2.0342  0.2927
  709MOL0     H97840   5.949  11.262   9.040 -0.6780  0.1425 -1.0723
  709MOL0     H97841   5.786  11.194   9.074  0.8346 -1.8094  0.7630
  709MOL0     H97842   5.920  11.095   9.027 -1.3576 -0.1441  3.0667
  710MOL0     O97843   3.604   5.065   0.157 -0.2120  0.5624 -0.3033
  710MOL0     C97844   3.626   5.157   0.079  1.0557 -0.6766 -0.2363
  710MOL0     O97845   3.754   5.208   0.043 -0.0614  0.2835 -0.2276
  710MOL0     C97846   3.878   5.146   0.065 -0.0993  0.2130  0.0749
  710MOL0     C97847   3.905   5.032   0.139  1.5503 -0.4278 -0.9426
  710MOL0     C97848   4.041   4.988   0.141  0.4159  0.6998 -0.4065
  710MOL0     C97849   4.147   5.056   0.084 -0.5926  0.2090  0.2256
  710MOL0     O97850   4.270   5.004   0.078  0.2607  0.5138  0.6788
  710MOL0     C97851   4.376   5.087   0.127 -0.1199 -0.9863  0.2491
  710MOL0     C97852   4.521   5.022   0.120  0.2057 -0.9032  0.7266
  710MOL0     C97853   4.570   5.014  -0.031 -0.1864 -0.2315  0.1777
  710MOL0     C97854   4.719   4.979  -0.030  0.1660  0.9580 -0.5899
  710MOL0     C97855   4.779   4.955  -0.161 -0.7461  0.5020  0.1466
  710MOL0     C97856   4.704   4.852  -0.261 -0.2116 -0.1878 -0.6315
  710MOL0     C97857   4.767   4.844  -0.400 -0.1151 -0.6345 -0.0565
  710MOL0     C97858   4.918   4.819  -0.405 -0.3965 -0.2718 -0.9828
  710MOL0     N97859   4.961   4.699  -0.334  0.1951  0.5612 -1.4339
  710MOL0     C97860   5.094   4.668  -0.315  0.1513  0.8792 -0.1600
  710MOL0     C97861   5.097   4.537  -0.294  0.5162  0.8421  0.4663
  710MOL0     C97862   5.224   4.482  -0.236 -0.7200  0.6478 -0.9157
  710MOL0     C97863   5.259   4.336  -0.273 -0.2754 -0.3006 -0.0745
  710MOL0     C97864   5.402   4.290  -0.225 -0.5320  0.7402  0.9476
  710MOL0     C97865   5.411   4.282  -0.065  0.1184 -1.3103 -0.5162
  710MOL0     O97866   5.446   4.405  -0.002 -0.2342 -0.9005  0.0167
  710MOL0     C97867   5.581   4.441   0.007  0.8001 -0.0470  0.5585
  710MOL0     C97868   5.600   4.564   0.066 -0.2228 -0.2031  0.6437
  710MOL0     C97869   5.721   4.639   0.080 -0.5236  0.1959  0.6994
  710MOL0     C97870   5.711   4.769   0.149 -0.0949 -0.4601 -0.3834
  710MOL0     C97871   5.843   4.576   0.030 -0.3590 -0.0205  0.2603
  710MOL0     C97872   5.982   4.625   0.036  1.0832 -0.5422  0.6255
  710MOL0     O97873   5.998   4.756   0.042  0.6285 -0.4186 -0.1945
  710MOL0     C97874   6.129   4.808   0.058  0.8166  0.0076  0.0782
  710MOL0     C97875   6.239   4.772  -0.016 -0.6137  0.3371  0.1911
  710MOL0     C97876   6.359   4.838  -0.001 -0.0898 -0.2606  0.6352
  710MOL0     C97877   6.372   4.951   0.085  0.8418  0.4752 -0.2577
  710MOL0     O97878   6.498   5.007   0.093  0.0180  0.2925  0.4587
  710MOL0     C97879   6.534   5.060   0.222  0.3422 -0.4447  0.4458
  710MOL0     C97880   6.574   4.961   0.328 -0.2258  0.0442  0.0021
  710MOL0     C97881   6.635   5.017   0.453  0.0094  0.1420  0.2382
  710MOL0     C97882   6.630   4.929   0.583 -0.9916 -0.1737  0.5222
  710MOL0     C97883   6.682   4.992   0.703 -0.4044 -0.0963  0.2330
  710MOL0     C97884   6.603   5.104   0.765  0.1985 -0.4300  0.1065
  710MOL0     C97885   6.479   5.059   0.825 -0.9221 -0.3283  0.4824
  710MOL0     C97886   6.411   5.167   0.910  0.5211 -0.0596 -0.4438
  710MOL0    Cl97887   6.336   5.282   0.802  0.8744 -0.2824  0.3919
  710MOL0     C97888   6.257   4.988   0.152  0.9248  0.1513  0.1479
  710MOL0     C97889   6.141   4.911   0.152 -0.0776  0.0741 -0.2550
  710MOL0     O97890   6.071   4.541   0.024 -0.8805 -0.0775 -0.0650
  710MOL0     C97891   5.824   4.442  -0.023 -0.2191 -0.5247 -0.7229
  710MOL0     C97892   5.698   4.375  -0.035 -0.3270  0.2308  0.6375
  710MOL0     N97893   4.973   4.478  -0.320  0.0453 -0.5839 -0.0323
  710MOL0     N97894   4.898   4.583  -0.349 -0.4112 -0.1984 -0.1809
  710MOL0     C97895   4.112   5.167   0.017  0.0965  0.4640 -0.6381
  710MOL0     C97896   3.984   5.214   0.002  0.4267 -0.4759  0.0293
  710MOL0     C97897   3.514   5.251   0.033  0.2344 -0.0362  0.8883
  710MOL0     C97898   3.539   5.392   0.023 -0.5867  0.2526  0.2432
  710MOL0     C97899   3.430   5.472  -0.007  0.2560 -0.3115  0.0033
  710MOL0     C97900   3.298   5.424  -0.028  0.2920  0.8076 -0.0082
  710MOL0     O97901   3.210   5.519  -0.071 -0.8598 -0.8423 -0.1384
  710MOL0     C97902   3.060   5.494  -0.048 -1.4518  0.3589  0.2126
  710MOL0     C97903   2.987   5.558  -0.156 -0.8675 -0.5216 -0.0345
  710MOL0     C97904   2.972   5.709  -0.124  0.5105 -0.8194 -0.4139
  710MOL0     C97905   2.890   5.788  -0.223  1.1002  0.2757  0.0567
  710MOL0     C97906   2.920   5.936  -0.218 -0.2166  1.2549 -0.3069
  710MOL0     C97907   2.955   6.050  -0.226  0.1949  0.8954  0.0667
  710MOL0     C97908   3.271   5.283  -0.019 -1.0968  0.2605  0.0694
  710MOL0     C97909   3.384   5.197   0.014  0.9297  0.0034  0.5620
  710MOL0     C97910   3.350   5.049   0.039 -0.2288 -0.0658 -0.0223
  710MOL0     H97911   3.836   4.969   0.195  2.4906  0.3708  1.2014
  710MOL0     H97912   4.055   4.892   0.189  1.8242  0.6837 -0.8072
  710MOL0     H97913   4.348   5.118   0.228 -0.2375  2.6044 -0.7205
  710MOL0     H97914   4.375   5.186   0.080 -0.9998 -1.4552 -0.7765
  710MOL0     H97915   4.576   5.097   0.177  0.8910  0.4922 -1.6037
  710MOL0     H97916   4.534   4.923   0.165 -1.8009 -0.0129  3.5065
  710MOL0     H97917   4.511   4.940  -0.087 -0.5477 -0.8184  1.3018
  710MOL0     H97918   4.565   5.106  -0.091  6.1590  0.0331 -0.5998
  710MOL0     H97919   4.772   5.059   0.023 -0.8307  1.3201 -0.1266
  710MOL0     H97920   4.730   4.886   0.027  0.1833  0.1544 -1.8640
  710MOL0     H97921   4.884   4.923  -0.149 -0.5551  1.0366 -0.0691
  710MOL0     H97922   4.780   5.049  -0.217  0.9003  1.6615  1.9632
  710MOL0     H97923   4.688   4.755  -0.213 -0.1095 -0.5021 -1.2204
  710MOL0     H97924   4.602   4.888  -0.278  0.2366  0.4110 -2.2505
  710MOL0     H97925   4.747   4.939  -0.451 -1.1583 -0.3415  0.8567
  710MOL0     H97926   4.714   4.776  -0.467 -0.7521 -0.1245 -0.0789
  710MOL0     H97927   4.948   4.820  -0.510 -2.1832 -1.9048 -1.5800
  710MOL0     H97928   4.968   4.903  -0.357 -0.2882 -1.4186  1.0286
  710MOL0     H97929   5.182   4.731  -0.319 -0.5141  1.9111  0.8146
  710MOL0     H97930   5.214   4.492  -0.127  0.5637 -0.7854 -0.6285
  710MOL0     H97931   5.312   4.537  -0.271 -0.5017 -0.9166 -3.0253
  710MOL0     H97932   5.185   4.273  -0.224  1.3502 -1.0357  1.5719
  710MOL0     H97933   5.239   4.321  -0.380 -1.8844 -1.1563  0.3245
  710MOL0     H97934   5.429   4.195  -0.272 -0.2289  1.0598  0.4514
  710MOL0     H97935   5.477   4.361  -0.261 -0.3445 -0.5229 -1.3568
  710MOL0     H97936   5.316   4.242  -0.028 -1.5524  0.0483 -3.0401
  710MOL0     H97937   5.480   4.204  -0.031 -0.9350 -2.5544 -1.1426
  710MOL0     H97938   5.510   4.588   0.122  1.6795  2.2415  2.9308
  710MOL0     H97939   5.607   4.801   0.157  0.1604 -0.0208  1.3996
  710MOL0     H97940   5.777   4.847   0.109  2.8142 -1.5211  2.0099
  710MOL0     H97941   5.746   4.760   0.252  1.9732 -0.5377 -1.0473
  710MOL0     H97942   6.238   4.685  -0.081  1.4369  2.5470 -3.0407
  710MOL0     H97943   6.444   4.803  -0.058  0.6830  2.1647  0.1853
  710MOL0     H97944   6.626   5.116   0.207 -0.4767  0.2973 -2.4740
  710MOL0     H97945   6.456   5.126   0.262 -0.9857 -2.9062  2.2638
  710MOL0     H97946   6.494   4.895   0.362 -0.6259  0.1403 -0.7226
  710MOL0     H97947   6.652   4.896   0.288 -0.7744 -1.8174  1.8017
  710MOL0     H97948   6.605   5.120   0.476 -3.3839 -1.2371  2.7091
  710MOL0     H97949   6.743   5.017   0.432 -0.3952 -0.4167 -2.0372
  710MOL0     H97950   6.683   4.834   0.567  0.2184  0.6215 -0.4231
  710MOL0     H97951   6.527   4.897   0.596 -1.4132  1.5754  1.7975
  710MOL0     H97952   6.706   4.916   0.778  0.7304  0.2086  0.1966
  710MOL0     H97953   6.782   5.036   0.691  0.5860 -1.9055  1.3248
  710MOL0     H97954   6.592   5.197   0.708  0.4910  0.5474  1.5558
  710MOL0     H97955   6.670   5.143   0.843  1.3523 -2.4684  0.1908
  710MOL0     H97956   6.507   4.976   0.890 -0.1018 -0.3513  0.1108
  710MOL0     H97957   6.420   5.018   0.743 -0.6770  0.9760 -0.3794
  710MOL0     H97958   6.479   5.225   0.973 -2.4090  4.4693 -0.9755
  710MOL0     H97959   6.331   5.126   0.972  0.1986  0.8077 -0.2733
  710MOL0     H97960   6.273   5.062   0.229  2.7723 -1.0177  0.9539
  710MOL0     H97961   6.058   4.948   0.211 -1.1887  3.1186 -3.3430
  710MOL0     H97962   5.907   4.389  -0.069  0.6988 -1.6517  2.0355
  710MOL0     H97963   5.703   4.273  -0.069  0.4710  1.1375 -2.2589
  710MOL0     H97964   4.194   5.226  -0.022  0.6582  3.4869  4.1606
  710MOL0     H97965   3.967   5.308  -0.048 -0.3868  1.3782  3.4822
  710MOL0     H97966   3.637   5.427   0.055  0.3731 -2.3430  0.3919
  710MOL0     H97967   3.451   5.578   0.004 -0.2795 -0.0935 -0.9752
  710MOL0     H97968   3.036   5.387  -0.057 -0.9811  0.3523 -1.2120
  710MOL0     H97969   3.029   5.532   0.049  0.9481 -1.4758  1.8092
  710MOL0     H97970   2.883   5.525  -0.152 -1.0364  0.0615  2.9441
  710MOL0     H97971   3.035   5.529  -0.250 -1.9902 -0.3295 -0.6738
  710MOL0     H97972   2.924   5.716  -0.026 -0.8966 -1.4518 -1.0305
  710MOL0     H97973   3.071   5.757  -0.129  1.3757 -1.9369  3.2301
  710MOL0     H97974   2.782   5.772  -0.216  1.0997  0.2349 -0.0358
  710MOL0     H97975   2.926   5.750  -0.320 -0.2610 -0.8026 -0.0635
  710MOL0     H97976   2.991   6.147  -0.254  0.0275  0.3397 -2.3389
  710MOL0     H97977   3.179   5.247  -0.063 -1.3270  0.2717  0.5410
  710MOL0     H97978   3.435   4.985   0.012  1.8216  2.5142 -0.0285
  710MOL0     H97979   3.331   5.025   0.145 -0.7509  1.6360  0.2970
  710MOL0     H97980   3.263   5.017  -0.019  0.5320 -0.5242 -0.9324
  711MOL0     O97981   6.829  10.306   5.767  0.5774  0.5783 -0.3376
  711MOL0     C97982   6.778  10.196   5.731  0.1021  0.5425 -0.6599
  711MOL0     O97983   6.838  10.112   5.652  0.9953 -0.7475 -0.1743
  711MOL0     C97984   6.954  10.157   5.585  0.0629  0.1817 -0.0142
  711MOL0     C97985   6.951  10.230   5.466 -0.6563  0.4256 -0.8059
  711MOL0     C97986   7.065  10.276   5.411 -0.9397  1.6539  0.8527
  711MOL0     C97987   7.194  10.240   5.460  0.5290 -0.6988  0.5222
  711MOL0     O97988   7.311  10.267   5.391 -0.4820  0.2092 -0.5757
  711MOL0     C97989   7.314  10.377   5.293 -0.8149  0.7552 -0.3430
  711MOL0     C97990   7.455  10.412   5.261  0.0745  0.0454 -0.1351
  711MOL0     C97991   7.513  10.303   5.170 -0.0518 -0.6662  0.0089
  711MOL0     C97992   7.625  10.370   5.084 -0.5550  0.5269 -0.5696
  711MOL0     C97993   7.761  10.387   5.164 -0.0233 -0.0684 -0.2230
  711MOL0     C97994   7.872  10.446   5.075  1.0978 -0.3977 -0.2896
  711MOL0     C97995   8.010  10.441   5.144 -0.2317  0.4557 -0.6112
  711MOL0     C97996   8.074  10.308   5.122 -0.5638  0.1614 -0.3244
  711MOL0     N97997   8.196  10.300   5.215  0.1624  0.0644 -0.2581
  711MOL0     C97998   8.194  10.284   5.348  0.4625  1.1028  0.7450
  711MOL0     C97999   8.326  10.294   5.373  0.2093  0.4415 -0.2436
  711MOL0     C98000   8.399  10.276   5.508 -0.3865 -0.3517 -0.6352
  711MOL0     C98001   8.383  10.138   5.565 -0.7937  0.9232  0.6427
  711MOL0     C98002   8.423  10.124   5.716 -0.2616 -0.4104  0.0315
  711MOL0     C98003   8.415   9.977   5.765  0.4860 -0.0707  0.6279
  711MOL0     O98004   8.522   9.901   5.718 -0.4022  0.1113 -0.0556
  711MOL0     C98005   8.536   9.769   5.734 -0.2106  0.5859  0.2560
  711MOL0     C98006   8.608   9.698   5.640 -0.0367 -0.1277 -0.4653
  711MOL0     C98007   8.621   9.555   5.651 -0.1838  0.0267  0.1942
  711MOL0     C98008   8.677   9.483   5.533 -0.2960  0.0162  0.8587
  711MOL0     C98009   8.563   9.489   5.769  0.4138 -0.1660  0.4396
  711MOL0     C98010   8.572   9.345   5.790 -0.3241  0.0318 -0.3252
  711MOL0     O98011   8.563   9.314   5.918  0.0706  0.1196 -0.7151
  711MOL0     C98012   8.605   9.191   5.963  0.0531  0.0260  0.1902
  711MOL0     C98013   8.527   9.085   5.930 -0.4817  0.9573 -0.2116
  711MOL0     C98014   8.570   8.954   5.964  0.2794 -0.3194  0.3881
  711MOL0     C98015   8.683   8.928   6.043  0.0214 -0.3462  0.1269
  711MOL0     O98016   8.720   8.795   6.052  0.2828  0.4781  0.5021
  711MOL0     C98017   8.846   8.732   6.036 -1.1009 -0.6480  0.4901
  711MOL0     C98018   8.838   8.586   6.098 -0.9083  0.1283 -0.5658
  711MOL0     C98019   8.955   8.496   6.046 -0.7961  0.0857 -0.1235
  711MOL0     C98020   9.086   8.532   6.116 -0.2094  0.2348 -0.6351
  711MOL0     C98021   9.208   8.459   6.056  0.8262  0.3339  0.7340
  711MOL0     C98022   9.331   8.536   6.069  0.2300 -0.3031 -0.1770
  711MOL0     C98023   9.455   8.490   5.991 -0.8595 -0.3566 -0.3386
  711MOL0     C98024   9.512   8.369   6.076 -0.4082 -1.5056  1.6103
  711MOL0    Cl98025   9.667   8.319   6.012 -0.2612 -0.1433  0.0756
  711MOL0     C98026   8.748   9.042   6.093 -1.0807  0.3295  0.5887
  711MOL0     C98027   8.712   9.174   6.048  0.3645  0.9768 -0.1443
  711MOL0     O98028   8.598   9.261   5.704  0.4865  0.8088 -0.0677
  711MOL0     C98029   8.500   9.570   5.865  0.4341 -0.6691 -0.5226
  711MOL0     C98030   8.485   9.708   5.845 -0.0682  1.4216  0.7484
  711MOL0     N98031   8.400  10.315   5.260 -0.1500 -0.8768 -0.7705
  711MOL0     N98032   8.323  10.319   5.164 -0.2918  0.4090 -0.0124
  711MOL0     C98033   7.193  10.156   5.565  0.0013  0.7325  0.5622
  711MOL0     C98034   7.077  10.110   5.624  0.2040 -0.6213 -0.4085
  711MOL0     C98035   6.641  10.157   5.770 -0.2106  0.1820  0.1730
  711MOL0     C98036   6.576  10.078   5.675 -0.9726 -0.4708  0.3545
  711MOL0     C98037   6.452  10.027   5.697 -0.0900 -0.6836 -1.2263
  711MOL0     C98038   6.385  10.073   5.810 -0.1783  0.4420 -1.1916
  711MOL0     O98039   6.253  10.037   5.821  0.2458 -0.1698  0.7816
  711MOL0     C98040   6.169  10.145   5.791  0.4109  0.1523  1.0076
  711MOL0     C98041   6.014  10.115   5.800 -0.2186 -0.4510 -0.0575
  711MOL0     C98042   5.956  10.083   5.947 -0.6975 -0.1508  0.3002
  711MOL0     C98043   5.810  10.114   5.974  0.2536  0.4442  0.4860
  711MOL0     C98044   5.782  10.114   6.117 -1.2887 -0.5234 -1.1689
  711MOL0     C98045   5.761  10.110   6.243  0.5487  0.2919  0.5379
  711MOL0     C98046   6.445  10.156   5.903 -0.0511  0.2218 -1.3747
  711MOL0     C98047   6.578  10.198   5.886  0.0226 -0.2813 -0.1767
  711MOL0     C98048   6.651  10.277   5.992  0.6257  0.2114  0.0857
  711MOL0     H98049   6.862  10.268   5.417 -0.8677 -0.1654 -0.8884
  711MOL0     H98050   7.043  10.342   5.327  0.9928 -0.0038 -1.0614
  711MOL0     H98051   7.269  10.466   5.339  0.3278  1.4804 -0.5755
  711MOL0     H98052   7.263  10.343   5.203 -0.5713  1.3153 -0.6995
  711MOL0     H98053   7.451  10.511   5.214 -1.8613 -0.0038 -0.1574
  711MOL0     H98054   7.517  10.407   5.351  3.5475 -2.0503 -2.4327
  711MOL0     H98055   7.547  10.222   5.235 -1.8888 -0.2900  1.5216
  711MOL0     H98056   7.445  10.268   5.091  2.6867 -0.3342 -2.6881
  711MOL0     H98057   7.639  10.305   4.997 -0.7947  1.2648 -1.1679
  711MOL0     H98058   7.584  10.465   5.048 -1.4203  2.0111  3.7190
  711MOL0     H98059   7.794  10.293   5.210  2.2598  0.2028 -1.1398
  711MOL0     H98060   7.737  10.456   5.246 -3.1760  1.5896 -2.3300
  711MOL0     H98061   7.883  10.400   4.976 -1.2934 -0.4508 -0.5684
  711MOL0     H98062   7.860  10.554   5.062  1.7342 -0.0961  1.3904
  711MOL0     H98063   8.000  10.457   5.252  0.1827 -1.8195 -0.1887
  711MOL0     H98064   8.070  10.526   5.108  0.8382 -0.0431 -0.0466
  711MOL0     H98065   8.002  10.231   5.153  0.8287 -0.3229  1.9014
  711MOL0     H98066   8.105  10.290   5.018  3.8097  1.0479  0.6170
  711MOL0     H98067   8.112  10.283   5.418 -0.2311 -3.3313  0.1599
  711MOL0     H98068   8.348  10.338   5.582 -0.8804  1.0780 -2.0945
  711MOL0     H98069   8.499  10.319   5.511 -1.5490  2.5868 -0.1623
  711MOL0     H98070   8.280  10.106   5.546 -0.2789 -0.8777  0.7664
  711MOL0     H98071   8.450  10.068   5.515 -1.2266 -0.8659  2.4678
  711MOL0     H98072   8.523  10.163   5.736 -1.8863  3.2076  2.0674
  711MOL0     H98073   8.346  10.176   5.772 -1.3588  1.0424 -2.6551
  711MOL0     H98074   8.397   9.976   5.873  0.9386 -1.4812  0.7068
  711MOL0     H98075   8.330   9.917   5.731  2.4910 -2.2856 -0.7397
  711MOL0     H98076   8.649   9.761   5.562  2.3980 -1.0309 -0.0254
  711MOL0     H98077   8.604   9.420   5.481 -0.5025 -0.1170  1.3001
  711MOL0     H98078   8.752   9.411   5.567 -0.2503 -0.5996 -0.4895
  711MOL0     H98079   8.733   9.549   5.467 -1.4960 -1.3232 -1.6533
  711MOL0     H98080   8.433   9.110   5.881 -0.6696  1.5400  0.4303
  711MOL0     H98081   8.508   8.876   5.922 -1.9114  1.6935 -0.2710
  711MOL0     H98082   8.874   8.735   5.930 -1.1638 -0.5334  0.4750
  711MOL0     H98083   8.924   8.793   6.082 -2.2346  1.2254  0.0838
  711MOL0     H98084   8.830   8.591   6.207 -1.7989  0.3816 -0.6372
  711MOL0     H98085   8.742   8.543   6.067  0.5529 -1.5115 -3.2056
  711MOL0     H98086   8.973   8.520   5.941  1.4092 -1.7610 -0.2309
  711MOL0     H98087   8.923   8.391   6.051 -3.1992  0.7783  0.8226
  711MOL0     H98088   9.078   8.522   6.225  2.0793 -0.8807 -0.5042
  711MOL0     H98089   9.099   8.639   6.096 -1.4792  1.0265  2.1657
  711MOL0     H98090   9.210   8.359   6.100 -1.9635  0.6452  1.7548
  711MOL0     H98091   9.192   8.450   5.948  1.2582  1.0459  0.6009
  711MOL0     H98092   9.348   8.534   6.177 -1.2976 -0.3805  0.0857
  711MOL0     H98093   9.308   8.635   6.029 -2.2095 -0.0447  1.6316
  711MOL0     H98094   9.531   8.568   5.982 -2.3807  0.9499 -3.5315
  711MOL0     H98095   9.445   8.442   5.893  2.1633 -2.4535  0.2032
  711MOL0     H98096   9.444   8.284   6.058 -1.1323 -0.3044 -2.3387
  711MOL0     H98097   9.516   8.400   6.181  1.8871  2.0263  0.6297
  711MOL0     H98098   8.832   9.024   6.158 -1.6757  0.3539  1.3829
  711MOL0     H98099   8.760   9.264   6.085 -1.7463  2.6774 -1.2782
  711MOL0     H98100   8.459   9.531   5.958 -2.8519 -0.3107 -1.6729
  711MOL0     H98101   8.422   9.770   5.909  0.7704  2.2102  0.8245
  711MOL0     H98102   7.287  10.116   5.600 -0.4725  0.7717  1.9255
  711MOL0     H98103   7.088  10.030   5.696 -0.9205 -1.3528 -1.0264
  711MOL0     H98104   6.622  10.050   5.581  1.9212 -0.1907  1.6017
  711MOL0     H98105   6.399   9.955   5.635  2.3647 -1.3917 -2.6462
  711MOL0     H98106   6.198  10.230   5.852  1.2210  2.3853 -2.2035
  711MOL0     H98107   6.185  10.173   5.686 -1.8913  0.3421  0.6528
  711MOL0     H98108   5.999  10.022   5.745 -2.3831 -1.0138  1.3558
  711MOL0     H98109   5.948  10.190   5.755  0.7518 -1.3315 -3.2530
  711MOL0     H98110   5.979   9.978   5.966  3.2809  0.1270 -1.9184
  711MOL0     H98111   6.018  10.132   6.022  1.2361 -0.4346 -1.0432
  711MOL0     H98112   5.752  10.032   5.930  2.9876 -0.0313 -2.6071
  711MOL0     H98113   5.780  10.213   5.937 -2.7795 -1.8133 -4.1271
  711MOL0     H98114   5.750  10.109   6.349  0.2649  2.8328  0.5864
  711MOL0     H98115   6.387  10.179   5.991  4.5673  0.1298  2.0854
  711MOL0     H98116   6.597  10.279   6.088  0.5303 -1.0504  0.0713
  711MOL0     H98117   6.741  10.225   6.027 -0.1310 -0.8288  0.5219
  711MOL0     H98118   6.656  10.378   5.951 -2.6097 -0.2094 -1.7280
  712MOL0     O98119   6.277   4.217   1.459  0.0305 -0.6693 -0.5781
  712MOL0     C98120   6.229   4.114   1.409 -0.3252 -0.0508 -0.3170
  712MOL0     O98121   6.270   3.982   1.443  0.4770 -0.3516  0.4103
  712MOL0     C98122   6.358   3.969   1.549  0.3593 -0.2521  0.3009
  712MOL0     C98123   6.316   3.976   1.679 -0.4316  0.2125 -0.7999
  712MOL0     C98124   6.412   3.974   1.784  0.6904 -0.3630  0.2869
  712MOL0     C98125   6.550   3.953   1.760 -0.4619  0.6349  0.0963
  712MOL0     O98126   6.648   3.930   1.857  0.2430 -0.7411  0.6243
  712MOL0     C98127   6.607   3.943   1.998 -0.5044  0.2283 -0.4197
  712MOL0     C98128   6.650   4.080   2.053  0.0555  1.2436  0.5707
  712MOL0     C98129   6.566   4.203   2.030  0.7748 -0.3728  0.5452
  712MOL0     C98130   6.457   4.220   2.137  0.8738  0.6053  0.8934
  712MOL0     C98131   6.432   4.373   2.148 -0.2928  1.5284  0.5298
  712MOL0     C98132   6.286   4.400   2.158  0.2394 -0.2268 -0.0409
  712MOL0     C98133   6.260   4.551   2.143  0.2040 -0.0071 -0.5203
  712MOL0     C98134   6.122   4.590   2.196  0.3162  0.0320  0.8300
  712MOL0     N98135   6.085   4.714   2.133 -0.1135 -0.4018  0.1628
  712MOL0     C98136   6.039   4.730   2.000  0.0019  0.0984 -0.2704
  712MOL0     C98137   6.005   4.861   2.000 -0.2732 -0.6117  0.9356
  712MOL0     C98138   5.935   4.926   1.882  0.2617  0.0349  0.1772
  712MOL0     C98139   6.031   4.920   1.758 -0.0037 -0.0130  0.0347
  712MOL0     C98140   6.016   5.041   1.674  0.5717  0.9064  0.3231
  712MOL0     C98141   6.129   5.050   1.568 -0.5931  0.1551  0.5889
  712MOL0     O98142   6.258   5.053   1.634 -0.1275 -0.3129  0.6868
  712MOL0     C98143   6.362   4.987   1.576  0.0246 -0.5604  0.6259
  712MOL0     C98144   6.400   5.026   1.450  0.8567 -0.1032  0.3439
  712MOL0     C98145   6.508   4.969   1.378  0.4249 -0.3866 -0.5677
  712MOL0     C98146   6.516   5.017   1.233  1.2175 -0.6185  0.2889
  712MOL0     C98147   6.578   4.865   1.432 -0.3010 -0.5315  0.6456
  712MOL0     C98148   6.682   4.803   1.354  0.5413  0.8192 -1.2352
  712MOL0     O98149   6.697   4.667   1.376 -0.6395 -0.7910  0.5761
  712MOL0     C98150   6.812   4.601   1.336  0.1766 -0.4996  0.7825
  712MOL0     C98151   6.872   4.613   1.200  0.8120  0.6176 -0.2363
  712MOL0     C98152   6.993   4.563   1.179  0.2756 -0.0376 -0.0013
  712MOL0     C98153   7.068   4.495   1.284 -0.6561 -0.2352  0.6089
  712MOL0     O98154   7.181   4.434   1.238 -0.0225 -0.4856  0.5169
  712MOL0     C98155   7.299   4.466   1.300 -0.4788 -0.5074  0.2784
  712MOL0     C98156   7.370   4.338   1.359  0.2134 -0.0589  0.5892
  712MOL0     C98157   7.299   4.271   1.489 -0.6894 -0.6225  0.5334
  712MOL0     C98158   7.376   4.147   1.537  1.2126 -0.8569 -0.6072
  712MOL0     C98159   7.321   4.089   1.657  0.1210  0.3409 -0.0104
  712MOL0     C98160   7.170   4.065   1.660  0.3967  0.0737 -0.0829
  712MOL0     C98161   7.116   3.979   1.783  0.2375  1.1592  0.6328
  712MOL0     C98162   6.995   3.901   1.743 -0.2814  0.0113  0.5351
  712MOL0    Cl98163   7.028   3.750   1.645  0.1189 -0.2371 -0.3989
  712MOL0     C98164   7.023   4.485   1.411  0.1646 -1.0856 -0.6842
  712MOL0     C98165   6.892   4.542   1.436 -0.4176  0.3033  0.3854
  712MOL0     O98166   6.764   4.876   1.298  0.8285 -0.7309 -0.0179
  712MOL0     C98167   6.535   4.818   1.555  0.0313  0.2003  0.1384
  712MOL0     C98168   6.429   4.874   1.625  0.0586  0.6500 -0.5756
  712MOL0     N98169   6.044   4.913   2.119 -0.5671 -0.2483 -0.2347
  712MOL0     N98170   6.090   4.828   2.191  0.6704  0.2979 -0.7792
  712MOL0     C98171   6.589   3.943   1.618  0.0384 -0.1271 -0.1756
  712MOL0     C98172   6.491   3.966   1.521 -0.4119  0.4912  0.7828
  712MOL0     C98173   6.099   4.129   1.338 -0.1084  0.1918  0.0332
  712MOL0     C98174   6.006   4.030   1.358 -0.6924  0.1289 -0.0893
  712MOL0     C98175   5.882   4.039   1.300 -1.1049  0.3009 -0.2728
  712MOL0     C98176   5.846   4.147   1.220  0.6383  0.6263  0.0584
  712MOL0     O98177   5.726   4.147   1.150  0.8221 -0.7451 -0.4831
  712MOL0     C98178   5.632   4.037   1.168 -1.0398 -1.0196 -0.1794
  712MOL0     C98179   5.494   4.065   1.114  0.1425  0.8879  0.3570
  712MOL0     C98180   5.418   3.933   1.085 -0.3182 -0.5725  0.0656
  712MOL0     C98181   5.396   3.842   1.210  0.3728  0.2151  0.8872
  712MOL0     C98182   5.314   3.914   1.312  1.2115 -0.2284 -0.5667
  712MOL0     C98183   5.227   3.972   1.383  0.6186  0.1245 -0.1950
  712MOL0     C98184   5.929   4.259   1.214 -0.4786  0.6820  0.5226
  712MOL0     C98185   6.057   4.253   1.273 -0.2348 -0.2797  0.1129
  712MOL0     C98186   6.148   4.370   1.248 -0.3672  0.0279  0.0256
  712MOL0     H98187   6.212   3.987   1.709  0.4149  2.1158  1.8961
  712MOL0     H98188   6.369   3.993   1.882 -1.2777  0.9082 -0.7635
  712MOL0     H98189   6.666   3.870   2.054  2.1470 -0.0018 -3.2669
  712MOL0     H98190   6.500   3.937   2.018 -0.7808  5.3528  1.1142
  712MOL0     H98191   6.666   4.073   2.161  3.4550  4.1093  0.4142
  712MOL0     H98192   6.753   4.098   2.021  0.9236 -1.4340  1.5780
  712MOL0     H98193   6.633   4.289   2.031 -1.3969  1.4972 -2.0225
  712MOL0     H98194   6.536   4.204   1.925  1.9114  0.5179  0.2096
  712MOL0     H98195   6.375   4.159   2.100  1.9486 -0.7614  0.6824
  712MOL0     H98196   6.490   4.183   2.234 -2.4159 -2.4096  1.0339
  712MOL0     H98197   6.469   4.426   2.059  1.9968  1.9833  1.6622
  712MOL0     H98198   6.501   4.417   2.222  3.4297 -2.7242  0.0019
  712MOL0     H98199   6.229   4.336   2.090  1.6280 -1.4383 -0.1068
  712MOL0     H98200   6.266   4.363   2.259  1.1137 -2.0212 -0.4904
  712MOL0     H98201   6.272   4.571   2.036 -2.6110  3.8163 -0.3103
  712MOL0     H98202   6.330   4.607   2.205 -0.6533  0.8664 -0.3172
  712MOL0     H98203   6.050   4.515   2.162  0.8567 -0.5887  1.0201
  712MOL0     H98204   6.122   4.599   2.305 -2.7247  0.8333  0.8606
  712MOL0     H98205   6.024   4.659   1.919  1.3389 -1.0709  0.4753
  712MOL0     H98206   5.923   5.033   1.903  1.8429  0.0320  1.2733
  712MOL0     H98207   5.841   4.873   1.864  1.8433 -2.7569 -0.5415
  712MOL0     H98208   6.136   4.914   1.788  0.3625 -1.5479 -1.4106
  712MOL0     H98209   6.021   4.828   1.700 -1.2240 -2.1694  3.3690
  712MOL0     H98210   5.928   5.015   1.615  0.1677  2.4925  0.1851
  712MOL0     H98211   5.997   5.130   1.735 -3.1330  0.4305  0.0679
  712MOL0     H98212   6.145   4.955   1.516  1.8579 -0.2437  1.8891
  712MOL0     H98213   6.119   5.137   1.503  0.0146  2.1460  2.9903
  712MOL0     H98214   6.347   5.107   1.401  0.7903 -1.2258 -1.5174
  712MOL0     H98215   6.572   5.111   1.233  0.9911 -0.4481  2.0309
  712MOL0     H98216   6.416   5.043   1.196  0.6511 -2.7029  0.2230
  712MOL0     H98217   6.565   4.949   1.162 -1.4884  0.2060 -2.6157
  712MOL0     H98218   6.813   4.660   1.121 -0.4595  1.5675  1.2186
  712MOL0     H98219   7.037   4.581   1.081 -2.8703 -1.4084 -1.8208
  712MOL0     H98220   7.365   4.504   1.221  1.3363 -2.1853  0.9085
  712MOL0     H98221   7.291   4.546   1.375  0.3432 -0.6857  0.5604
  712MOL0     H98222   7.375   4.261   1.282 -0.1620  0.7966 -0.3136
  712MOL0     H98223   7.471   4.358   1.396  0.7298 -0.4055 -0.5664
  712MOL0     H98224   7.195   4.244   1.465 -0.8304  1.6153 -1.8448
  712MOL0     H98225   7.299   4.345   1.569  1.4676  0.5365 -0.4571
  712MOL0     H98226   7.481   4.174   1.556  1.5254 -0.1439 -2.9962
  712MOL0     H98227   7.370   4.079   1.451 -3.9497 -1.5657  0.0195
  712MOL0     H98228   7.363   3.990   1.674 -0.2027  0.0587 -0.7971
  712MOL0     H98229   7.352   4.154   1.740  1.5397 -0.0898 -0.1771
  712MOL0     H98230   7.139   4.012   1.569 -0.4445 -1.7072  1.1950
  712MOL0     H98231   7.120   4.161   1.670  2.0275  1.3457 -2.8522
  712MOL0     H98232   7.101   4.038   1.874 -0.0740  1.4447  0.3974
  712MOL0     H98233   7.188   3.901   1.808 -1.6969 -1.3230 -1.0606
  712MOL0     H98234   6.929   3.955   1.674 -1.3009  0.0770  1.5436
  712MOL0     H98235   6.944   3.875   1.836  0.0126  0.8145  0.9279
  712MOL0     H98236   7.083   4.433   1.485 -0.6811  1.2588  1.8001
  712MOL0     H98237   6.857   4.545   1.539 -0.5732 -0.2855  0.3512
  712MOL0     H98238   6.593   4.733   1.590  0.6904  0.4727 -0.2741
  712MOL0     H98239   6.404   4.831   1.721 -0.8828  3.4711  0.5536
  712MOL0     H98240   6.694   3.932   1.595  0.3341  0.9238  0.5713
  712MOL0     H98241   6.534   3.976   1.422 -0.2968  1.2331  0.8996
  712MOL0     H98242   6.026   3.944   1.421 -0.2754 -1.1125 -1.8223
  712MOL0     H98243   5.812   3.963   1.333 -1.3742  1.1199  1.1127
  712MOL0     H98244   5.688   3.952   1.129  0.8612  0.7237 -1.4588
  712MOL0     H98245   5.626   4.026   1.277  0.5634 -0.3956  0.0005
  712MOL0     H98246   5.501   4.118   1.018 -0.4615 -0.1323 -0.2814
  712MOL0     H98247   5.437   4.116   1.192 -0.4743 -2.0104  1.9481
  712MOL0     H98248   5.324   3.963   1.037  1.1689  1.1643 -1.9167
  712MOL0     H98249   5.467   3.870   1.010 -1.5749  0.6096 -1.8428
  712MOL0     H98250   5.494   3.813   1.249  1.1840  3.4194  1.4727
  712MOL0     H98251   5.338   3.753   1.184 -0.2911  0.4499  1.5193
  712MOL0     H98252   5.153   4.020   1.443 -0.1761 -1.4347  0.1246
  712MOL0     H98253   5.900   4.343   1.151 -2.3955 -0.9358 -0.9189
  712MOL0     H98254   6.156   4.442   1.330  2.0047 -1.5696  1.3191
  712MOL0     H98255   6.254   4.344   1.241  1.3370  4.6193  3.6015
  712MOL0     H98256   6.115   4.416   1.154 -1.8759  0.4597  0.7382
  713MOL0     O98257   1.639   5.095   8.462 -1.5434  0.4217  0.6618
  713MOL0     C98258   1.613   5.116   8.344  0.0584 -0.6065  0.5715
  713MOL0     O98259   1.674   5.058   8.244  0.2045 -0.4996  0.2710
  713MOL0     C98260   1.740   4.944   8.274 -0.0830 -1.1681  0.3915
  713MOL0     C98261   1.672   4.826   8.271 -0.0395 -0.0014  0.0923
  713MOL0     C98262   1.749   4.708   8.289  1.4963  0.1346 -0.1391
  713MOL0     C98263   1.878   4.709   8.330 -0.7809  0.0501  0.6492
  713MOL0     O98264   1.961   4.609   8.354  0.3962  0.5597 -0.9703
  713MOL0     C98265   1.910   4.473   8.339  0.7950 -0.4162  0.1269
  713MOL0     C98266   2.053   4.407   8.329  1.3546  0.1156 -0.1797
  713MOL0     C98267   2.115   4.390   8.463  0.0839 -0.1483 -0.2337
  713MOL0     C98268   2.265   4.346   8.442 -0.2481  0.8145 -0.4294
  713MOL0     C98269   2.367   4.466   8.423 -0.0700  0.7933  0.2823
  713MOL0     C98270   2.503   4.416   8.437 -0.7776 -0.1695  0.5394
  713MOL0     C98271   2.595   4.542   8.413  0.2452 -0.5846  0.7594
  713MOL0     C98272   2.741   4.491   8.410 -0.2605 -0.4008  0.0936
  713MOL0     N98273   2.830   4.609   8.404  0.9234 -0.4438 -0.1200
  713MOL0     C98274   2.867   4.674   8.281  0.1586 -0.4014 -0.0061
  713MOL0     C98275   2.917   4.793   8.316 -0.0568  0.0765 -0.3765
  713MOL0     C98276   2.983   4.898   8.226 -0.5696 -0.0764 -0.4206
  713MOL0     C98277   2.942   5.041   8.285 -0.3275 -0.0481 -0.0652
  713MOL0     C98278   3.006   5.155   8.204  0.6736  0.5811  0.3561
  713MOL0     C98279   3.020   5.156   8.058 -0.3971  0.0325  1.1705
  713MOL0     O98280   2.894   5.186   7.992 -0.4206 -0.4633 -0.2069
  713MOL0     C98281   2.825   5.077   7.960  0.1943  0.3722  0.2525
  713MOL0     C98282   2.870   4.985   7.869 -0.1920  0.5182 -0.9876
  713MOL0     C98283   2.798   4.858   7.845 -0.3488  0.3939 -1.1012
  713MOL0     C98284   2.846   4.780   7.719 -0.3837 -0.3241 -0.3553
  713MOL0     C98285   2.693   4.820   7.936  0.2212  0.3676 -0.4503
  713MOL0     C98286   2.607   4.692   7.921 -0.3728 -0.2132 -1.0429
  713MOL0     O98287   2.513   4.667   8.017 -0.2699  0.4382  0.9750
  713MOL0     C98288   2.454   4.537   8.019 -1.4872  0.5570  0.3483
  713MOL0     C98289   2.534   4.421   8.045 -0.0078  0.2145 -0.5799
  713MOL0     C98290   2.481   4.291   8.052  0.0329  0.1880 -0.4339
  713MOL0     C98291   2.342   4.275   8.020  0.7639  0.2826 -1.2360
  713MOL0     O98292   2.268   4.154   8.019  1.1404 -0.3677  0.1248
  713MOL0     C98293   2.330   4.027   7.998 -0.7836  0.0833 -0.0524
  713MOL0     C98294   2.232   3.919   8.007  0.7586 -0.7794 -1.0083
  713MOL0     C98295   2.293   3.781   8.047 -0.1595  0.5752 -0.1886
  713MOL0     C98296   2.413   3.738   7.956  0.3727 -0.1893  0.4732
  713MOL0     C98297   2.496   3.621   8.002 -0.3986  0.6764  1.0600
  713MOL0     C98298   2.572   3.639   8.128  0.1189 -0.0289  0.3747
  713MOL0     C98299   2.687   3.734   8.119 -0.4302  0.4802 -0.1253
  713MOL0     C98300   2.775   3.725   8.243  0.8294  0.5485 -0.7633
  713MOL0    Cl98301   2.883   3.572   8.250  0.2361 -0.1167  0.0758
  713MOL0     C98302   2.264   4.393   8.011 -0.6541  0.2076 -0.6089
  713MOL0     C98303   2.318   4.515   8.002 -0.4798 -0.8681 -0.5305
  713MOL0     O98304   2.654   4.610   7.846  0.0164  0.5382 -0.4229
  713MOL0     C98305   2.657   4.919   8.032  0.7903 -0.5029  0.2990
  713MOL0     C98306   2.711   5.048   8.031 -0.5831 -1.1349  0.1334
  713MOL0     N98307   2.916   4.798   8.453  0.4939  0.1514  0.2549
  713MOL0     N98308   2.867   4.689   8.506  0.4087 -0.0936 -0.1692
  713MOL0     C98309   1.950   4.832   8.326  0.2163  0.0369  0.9992
  713MOL0     C98310   1.879   4.946   8.301  0.3999  0.4533  0.2283
  713MOL0     C98311   1.519   5.232   8.307 -0.5511  1.0110  0.5591
  713MOL0     C98312   1.552   5.308   8.190 -1.3764  0.0837  0.0172
  713MOL0     C98313   1.477   5.421   8.160 -0.3309  0.1567 -0.2364
  713MOL0     C98314   1.350   5.442   8.224 -0.6780 -0.1386 -0.0416
  713MOL0     O98315   1.265   5.536   8.159 -0.2608 -0.7374  0.1205
  713MOL0     C98316   1.137   5.538   8.217 -0.4013 -0.0602 -0.1356
  713MOL0     C98317   1.050   5.626   8.138  0.3749 -0.4522  0.7312
  713MOL0     C98318   1.041   5.570   7.994  0.2619  0.1357 -0.9607
  713MOL0     C98319   0.929   5.629   7.903 -0.0444  0.8823 -0.4364
  713MOL0     C98320   0.794   5.613   7.957 -0.1376  0.1145  0.2124
  713MOL0     C98321   0.686   5.589   8.008  0.1951  0.1536 -0.1166
  713MOL0     C98322   1.320   5.366   8.337  0.5913  0.2869  0.3270
  713MOL0     C98323   1.402   5.259   8.380 -0.5464  0.3287  1.7995
  713MOL0     C98324   1.358   5.174   8.493  0.1648  0.2350 -0.2480
  713MOL0     H98325   1.569   4.827   8.240  0.4595  0.9218 -1.6576
  713MOL0     H98326   1.700   4.613   8.267 -0.5684  0.2795  3.1325
  713MOL0     H98327   1.858   4.463   8.243  1.5186 -1.6921 -0.1643
  713MOL0     H98328   1.843   4.441   8.419 -1.5452  1.7913 -0.8209
  713MOL0     H98329   2.052   4.310   8.278  0.2461  1.4095 -2.7866
  713MOL0     H98330   2.114   4.474   8.269 -1.9415  2.5016 -1.1718
  713MOL0     H98331   2.101   4.479   8.525 -1.0581  0.1396 -0.8798
  713MOL0     H98332   2.073   4.305   8.517  1.3029  1.1130  2.9717
  713MOL0     H98333   2.306   4.289   8.526  1.2607  0.8195 -1.1271
  713MOL0     H98334   2.267   4.275   8.358 -1.7081  0.0138  0.1653
  713MOL0     H98335   2.351   4.543   8.499 -2.0265  0.6910  0.0403
  713MOL0     H98336   2.347   4.502   8.322  0.3948 -0.3996 -0.2436
  713MOL0     H98337   2.516   4.360   8.530 -0.6717 -1.0014  0.0358
  713MOL0     H98338   2.531   4.342   8.361 -1.5249  1.0213 -0.9586
  713MOL0     H98339   2.583   4.610   8.498 -0.9114  1.3487 -0.8743
  713MOL0     H98340   2.574   4.599   8.322  1.0554  0.1375  1.0134
  713MOL0     H98341   2.760   4.430   8.499 -1.2401 -1.6800 -0.5363
  713MOL0     H98342   2.759   4.432   8.320 -1.6369  2.0351 -1.9247
  713MOL0     H98343   2.858   4.641   8.178  1.2572 -2.5788  0.5370
  713MOL0     H98344   2.943   4.881   8.125 -1.4273 -0.7081  0.0084
  713MOL0     H98345   3.092   4.887   8.226 -0.0871  3.5029 -1.3835
  713MOL0     H98346   2.832   5.040   8.278 -0.3509  1.3391 -0.3599
  713MOL0     H98347   2.978   5.067   8.385 -1.7253  0.6491  0.2839
  713MOL0     H98348   2.969   5.254   8.230 -2.7803  0.6739 -3.9129
  713MOL0     H98349   3.109   5.149   8.242  0.2940  1.5403  1.6203
  713MOL0     H98350   3.095   5.233   8.037 -0.1645 -0.5526 -0.2349
  713MOL0     H98351   3.055   5.062   8.015 -2.6025 -1.3085  2.1382
  713MOL0     H98352   2.950   5.025   7.807  2.4482 -1.1707  1.0469
  713MOL0     H98353   2.917   4.839   7.661  0.2234  0.3615  1.0259
  713MOL0     H98354   2.761   4.743   7.661 -1.2807 -2.2068  1.9733
  713MOL0     H98355   2.915   4.702   7.754 -0.6250  0.2238  1.4141
  713MOL0     H98356   2.642   4.430   8.046  0.2538 -1.8494 -2.4190
  713MOL0     H98357   2.534   4.197   8.067 -1.1582 -0.3232  0.7732
  713MOL0     H98358   2.389   4.033   7.906 -0.9833  3.1670 -0.0946
  713MOL0     H98359   2.399   4.015   8.082 -1.7209 -0.8818  0.5952
  713MOL0     H98360   2.156   3.954   8.077  1.1366  1.9577 -1.8342
  713MOL0     H98361   2.173   3.913   7.915  1.1169 -0.1446 -1.2884
  713MOL0     H98362   2.222   3.698   8.056  0.1179  0.1404 -1.7612
  713MOL0     H98363   2.327   3.808   8.148  0.1678 -0.8884  0.1121
  713MOL0     H98364   2.477   3.826   7.943  1.2593 -0.2476  3.5146
  713MOL0     H98365   2.394   3.712   7.852  1.7352  0.6281 -0.0070
  713MOL0     H98366   2.427   3.538   8.016 -1.2151  1.1376 -0.0815
  713MOL0     H98367   2.562   3.601   7.917 -2.1022 -2.7527  0.3956
  713MOL0     H98368   2.611   3.543   8.164  2.0787  0.4871 -0.2803
  713MOL0     H98369   2.492   3.661   8.200 -1.7827 -4.2660 -0.1253
  713MOL0     H98370   2.651   3.837   8.110  0.7089  0.8797 -0.3105
  713MOL0     H98371   2.744   3.712   8.028 -2.3598  1.0519 -1.5306
  713MOL0     H98372   2.699   3.742   8.320 -0.3413  2.5817 -2.2500
  713MOL0     H98373   2.841   3.812   8.247 -0.3962  1.5011  3.1238
  713MOL0     H98374   2.156   4.386   8.000 -0.5704 -2.7368 -0.3558
  713MOL0     H98375   2.241   4.591   7.995  1.4362  1.4521  1.3774
  713MOL0     H98376   2.575   4.901   8.100 -0.4142 -0.9048 -1.1961
  713MOL0     H98377   2.681   5.123   8.103  1.5522  0.2005 -0.2675
  713MOL0     H98378   2.056   4.845   8.344  0.2981 -0.0728  0.6086
  713MOL0     H98379   1.927   5.043   8.313 -1.1412  1.3753 -0.6759
  713MOL0     H98380   1.644   5.296   8.135 -1.3970  0.6674 -0.1561
  713MOL0     H98381   1.516   5.494   8.089  1.0062  1.3193  1.5943
  713MOL0     H98382   1.092   5.438   8.227  1.2596 -0.9830 -1.3585
  713MOL0     H98383   1.158   5.581   8.315  1.0410 -1.7021  0.3403
  713MOL0     H98384   1.089   5.728   8.140 -1.4111  0.2629  1.1107
  713MOL0     H98385   0.948   5.639   8.175 -0.2602 -0.2990 -0.9800
  713MOL0     H98386   1.136   5.596   7.946  0.7726  0.2012  0.0545
  713MOL0     H98387   1.032   5.462   7.986  0.4474 -0.0609  1.0171
  713MOL0     H98388   0.949   5.578   7.808  0.9740 -0.0082  0.2324
  713MOL0     H98389   0.952   5.735   7.887  2.9838  0.1723 -1.5966
  713MOL0     H98390   0.590   5.587   8.055  0.7782 -3.0678  1.2231
  713MOL0     H98391   1.229   5.376   8.396  1.2426 -0.5269  1.5095
  713MOL0     H98392   1.252   5.187   8.516  0.5025 -0.3314  1.8312
  713MOL0     H98393   1.385   5.072   8.464  0.9874  0.5391 -0.5807
  713MOL0     H98394   1.416   5.196   8.583  1.6245  0.2693 -1.1633
  714MOL0     O98395  10.647   8.323   9.582 -0.0174 -0.2898 -0.3602
  714MOL0     C98396  10.691   8.419   9.656 -0.5146 -0.1003 -1.0422
  714MOL0     O98397  10.817   8.438   9.678  0.4052 -0.1072  0.1960
  714MOL0     C98398  10.905   8.416   9.566  0.0510  0.4007 -0.0956
  714MOL0     C98399  10.869   8.446   9.436  0.6242  0.7437  0.3995
  714MOL0     C98400  10.961   8.423   9.333  0.1294 -0.5636  0.2361
  714MOL0     C98401  11.091   8.374   9.360  0.4289 -1.3672  0.5338
  714MOL0     O98402  11.184   8.350   9.261  0.1497 -0.6543 -0.9734
  714MOL0     C98403  11.248   8.466   9.204 -0.2125  0.1179 -0.0968
  714MOL0     C98404  11.386   8.481   9.263 -0.4826 -0.2115 -0.3077
  714MOL0     C98405  11.467   8.584   9.194  0.1581 -0.4512  0.1282
  714MOL0     C98406  11.429   8.735   9.237 -0.2520  0.2677  0.3756
  714MOL0     C98407  11.454   8.834   9.124  0.3356 -0.1662  0.5632
  714MOL0     C98408  11.597   8.835   9.066  0.3431  0.0896  0.6128
  714MOL0     C98409  11.630   8.963   8.991  0.1056 -0.3207 -0.8044
  714MOL0     C98410  11.525   9.008   8.888 -0.2317 -0.3008 -0.4815
  714MOL0     N98411  11.501   8.902   8.796 -0.3376 -0.3892 -0.1227
  714MOL0     C98412  11.590   8.844   8.709 -0.5846 -0.3327  0.8746
  714MOL0     C98413  11.521   8.758   8.635  1.3591 -0.4303 -0.0019
  714MOL0     C98414  11.568   8.663   8.532 -0.5540  0.3955 -0.3725
  714MOL0     C98415  11.548   8.713   8.386 -0.0662 -0.7197  0.4989
  714MOL0     C98416  11.603   8.609   8.280  0.4512  0.3073  0.1144
  714MOL0     C98417  11.563   8.632   8.137 -0.0887 -0.2549 -1.0913
  714MOL0     O98418  11.640   8.750   8.093 -0.0975 -0.4729  0.4484
  714MOL0     C98419  11.638   8.784   7.960 -0.0531  0.1718 -0.7198
  714MOL0     C98420  11.714   8.901   7.927  0.4636 -0.0626 -0.3663
  714MOL0     C98421  11.718   8.938   7.797  0.0664 -0.0238 -0.2893
  714MOL0     C98422  11.791   9.071   7.782  0.1733 -0.3132 -0.2562
  714MOL0     C98423  11.667   8.863   7.688 -0.4063 -0.1093  0.5951
  714MOL0     C98424  11.676   8.889   7.538 -0.1179  0.0687  0.1404
  714MOL0     O98425  11.629   8.798   7.451  0.3310 -0.5305 -1.1394
  714MOL0     C98426  11.637   8.824   7.319 -0.7620  0.3694  0.1139
  714MOL0     C98427  11.727   8.748   7.241 -0.4965 -1.3406  0.0449
  714MOL0     C98428  11.726   8.776   7.102 -0.6387  0.2446 -0.0662
  714MOL0     C98429  11.648   8.875   7.041  0.3517 -0.3010 -1.0093
  714MOL0     O98430  11.663   8.890   6.907  0.0946 -0.1220  0.1323
  714MOL0     C98431  11.674   9.015   6.841  0.5789 -0.2553  0.4321
  714MOL0     C98432  11.590   8.989   6.710  0.3909  0.0067  1.2075
  714MOL0     C98433  11.570   9.108   6.610 -0.2370  0.0706  0.1099
  714MOL0     C98434  11.479   9.224   6.667 -0.2383 -0.3263  1.0431
  714MOL0     C98435  11.460   9.333   6.560  0.8075  0.1889 -0.3448
  714MOL0     C98436  11.359   9.290   6.453  0.2304  0.0594 -0.4006
  714MOL0     C98437  11.344   9.395   6.344 -0.3725 -0.2330 -0.2359
  714MOL0     C98438  11.222   9.362   6.262  0.6666  0.0017 -0.4655
  714MOL0    Cl98439  11.211   9.474   6.127  0.4469 -0.2468 -0.4240
  714MOL0     C98440  11.558   8.952   7.123 -0.0060 -0.0847  0.1060
  714MOL0     C98441  11.557   8.922   7.261 -0.1042 -0.1600  0.0914
  714MOL0     O98442  11.755   8.977   7.500 -0.0864 -0.5179 -0.1584
  714MOL0     C98443  11.589   8.747   7.724  0.3887  0.5351 -0.6517
  714MOL0     C98444  11.572   8.716   7.859  0.4660  0.1237  0.7438
  714MOL0     N98445  11.388   8.771   8.670 -0.0874  0.7223  0.4598
  714MOL0     N98446  11.372   8.863   8.762 -1.0448 -0.2516 -0.2905
  714MOL0     C98447  11.126   8.343   9.492  0.0708 -0.2122 -0.3393
  714MOL0     C98448  11.033   8.361   9.593 -0.8658 -0.4208  0.2504
  714MOL0     C98449  10.605   8.499   9.744  0.2267 -0.4840 -0.1366
  714MOL0     C98450  10.662   8.616   9.803  0.2215  0.2169 -0.4489
  714MOL0     C98451  10.599   8.700   9.889  0.0878  0.2676 -0.3100
  714MOL0     C98452  10.459   8.689   9.907  0.7240 -0.2417  0.3597
  714MOL0     O98453  10.384   8.769   9.997  0.1592  1.0381  0.7316
  714MOL0     C98454  10.442   8.870  10.075 -0.1960  0.0589 -0.4227
  714MOL0     C98455  10.515   8.820  10.199  0.4548  0.3142  0.1680
  714MOL0     C98456  10.432   8.752  10.304 -0.1114 -0.1631  0.1687
  714MOL0     C98457  10.299   8.805  10.347 -0.1241  0.3111 -0.3812
  714MOL0     C98458  10.293   8.938  10.408  0.2314  0.8025  0.1333
  714MOL0     C98459  10.272   9.051  10.438 -0.2973  0.2034 -0.6895
  714MOL0     C98460  10.393   8.588   9.841 -0.0813  0.5405  0.0620
  714MOL0     C98461  10.465   8.491   9.765  0.1675  0.2037 -0.8055
  714MOL0     C98462  10.376   8.392   9.682  0.0874  0.4168 -0.5391
  714MOL0     H98463  10.772   8.488   9.413  0.7064  2.0820  2.2211
  714MOL0     H98464  10.931   8.461   9.236  1.5218 -2.1092 -0.8734
  714MOL0     H98465  11.190   8.559   9.216  0.0079  0.5444 -2.0023
  714MOL0     H98466  11.259   8.449   9.096  1.2071 -3.3286  0.4558
  714MOL0     H98467  11.373   8.488   9.372 -1.6800  0.5280 -0.4757
  714MOL0     H98468  11.433   8.383   9.250 -2.8163 -1.2560 -1.4648
  714MOL0     H98469  11.572   8.565   9.215 -0.3047 -0.6019  2.6084
  714MOL0     H98470  11.451   8.571   9.087  0.1619  0.1523  0.0503
  714MOL0     H98471  11.327   8.740   9.275  0.0378  1.5198  1.0245
  714MOL0     H98472  11.486   8.775   9.322  3.0395 -0.4145 -1.3368
  714MOL0     H98473  11.436   8.933   9.167 -3.2316 -0.5323  0.2011
  714MOL0     H98474  11.379   8.818   9.046  0.1389 -0.4697  0.8101
  714MOL0     H98475  11.674   8.808   9.139  0.5938  0.3909  0.4594
  714MOL0     H98476  11.595   8.758   8.988 -0.4042  2.2905 -1.6535
  714MOL0     H98477  11.724   8.945   8.939 -1.0896 -2.2375 -2.4901
  714MOL0     H98478  11.667   9.041   9.057 -1.7948  0.7847 -0.9827
  714MOL0     H98479  11.428   9.022   8.938 -0.1335  1.2233 -0.6791
  714MOL0     H98480  11.540   9.110   8.852 -1.7909  1.3897  3.1074
  714MOL0     H98481  11.696   8.868   8.703 -0.5598 -0.7847 -0.8023
  714MOL0     H98482  11.524   8.565   8.551  1.8906 -0.8065 -0.4969
  714MOL0     H98483  11.674   8.638   8.542 -0.3607  0.8207 -1.1985
  714MOL0     H98484  11.440   8.716   8.368  0.2354 -1.3676 -1.8135
  714MOL0     H98485  11.601   8.808   8.375 -1.1387 -0.0041  1.4088
  714MOL0     H98486  11.713   8.605   8.282  0.4201 -2.4840  0.2096
  714MOL0     H98487  11.573   8.510   8.314 -2.0148  1.3356  1.1732
  714MOL0     H98488  11.587   8.543   8.077 -1.3275 -1.7840  0.5525
  714MOL0     H98489  11.457   8.659   8.129 -0.1882  1.1417  2.9532
  714MOL0     H98490  11.745   8.962   8.012 -1.5873 -0.4310  0.7035
  714MOL0     H98491  11.715   9.142   7.746 -1.5524 -2.8948 -2.0750
  714MOL0     H98492  11.874   9.064   7.712 -0.6704 -3.2123 -1.1119
  714MOL0     H98493  11.829   9.107   7.878 -3.1173  1.7834  0.4182
  714MOL0     H98494  11.797   8.679   7.289 -1.5599 -0.8670  2.3982
  714MOL0     H98495  11.792   8.719   7.038 -0.9296 -0.6990  0.4620
  714MOL0     H98496  11.613   9.094   6.887  0.6147 -0.0685  0.1636
  714MOL0     H98497  11.773   9.049   6.809 -0.1193 -0.5562 -2.2189
  714MOL0     H98498  11.644   8.912   6.655  0.3685  1.0202 -0.3001
  714MOL0     H98499  11.491   8.959   6.744  0.4186  1.6792  2.9195
  714MOL0     H98500  11.528   9.066   6.519  3.1631 -0.2094 -1.4784
  714MOL0     H98501  11.672   9.142   6.589  0.1505 -0.7780  0.5732
  714MOL0     H98502  11.529   9.263   6.756 -0.4078 -0.5034  1.2144
  714MOL0     H98503  11.382   9.181   6.692 -0.4985 -1.2514 -1.2905
  714MOL0     H98504  11.445   9.432   6.604 -0.7978 -0.5089  0.7799
  714MOL0     H98505  11.558   9.350   6.513  1.1106  2.0132  0.8458
  714MOL0     H98506  11.264   9.281   6.507 -0.0846  0.6542 -0.8496
  714MOL0     H98507  11.392   9.192   6.417  1.0150 -0.7884  2.3720
  714MOL0     H98508  11.437   9.389   6.286  1.0570 -2.0732  2.0246
  714MOL0     H98509  11.343   9.498   6.379  3.0928  0.2222 -1.0853
  714MOL0     H98510  11.136   9.384   6.326  1.6701 -0.1215  0.9676
  714MOL0     H98511  11.234   9.257   6.231 -0.8355 -0.1598 -0.5896
  714MOL0     H98512  11.509   9.039   7.081  0.0987 -1.6029 -3.5381
  714MOL0     H98513  11.491   8.981   7.323  0.4766 -1.6070  2.1695
  714MOL0     H98514  11.547   8.675   7.654 -0.5720 -1.1023  1.5181
  714MOL0     H98515  11.520   8.624   7.880  1.7973 -0.9426 -0.4120
  714MOL0     H98516  11.228   8.312   9.514 -1.0635 -3.6072  0.7895
  714MOL0     H98517  11.057   8.341   9.697 -1.6079 -1.4521  0.2358
  714MOL0     H98518  10.764   8.646   9.782 -0.2160  0.9667 -1.6264
  714MOL0     H98519  10.649   8.780   9.944 -1.7947 -0.8981  3.4489
  714MOL0     H98520  10.510   8.937  10.021  1.6303  0.2442  1.9115
  714MOL0     H98521  10.365   8.938  10.113 -0.8131  0.7638 -2.7971
  714MOL0     H98522  10.561   8.904  10.252  0.2287  1.7212 -1.7476
  714MOL0     H98523  10.604   8.764  10.167  0.4647  0.4051  0.0334
  714MOL0     H98524  10.410   8.649  10.275  0.5167 -0.4448  0.6645
  714MOL0     H98525  10.497   8.761  10.392 -3.7189  2.0811  2.9116
  714MOL0     H98526  10.241   8.744  10.417 -0.1236 -0.6386 -1.2011
  714MOL0     H98527  10.234   8.809  10.259 -3.9620 -1.8830  2.0733
  714MOL0     H98528  10.239   9.148  10.468  1.2953  0.6006 -0.1346
  714MOL0     H98529  10.287   8.577   9.863  0.0591  1.1880  1.1370
  714MOL0     H98530  10.393   8.412   9.576  1.8698 -1.9071 -0.7592
  714MOL0     H98531  10.414   8.291   9.698  0.9261  0.7368 -0.4976
  714MOL0     H98532  10.273   8.405   9.717  0.9319  3.0597  1.2371
  715MOL0     O98533   8.107   5.050   3.295  0.0173  0.4385  0.0663
  715MOL0     C98534   8.088   4.927   3.278 -0.0675  0.8742 -0.4493
  715MOL0     O98535   8.183   4.828   3.281 -0.4518 -0.2104  0.2380
  715MOL0     C98536   8.313   4.867   3.284 -0.7340  0.5589 -0.2492
  715MOL0     C98537   8.382   4.920   3.395  0.8398 -0.3353  0.3973
  715MOL0     C98538   8.523   4.942   3.384 -0.2460  0.1487 -0.0587
  715MOL0     C98539   8.592   4.921   3.260 -0.4199  0.5533  0.0623
  715MOL0     O98540   8.724   4.934   3.230  0.1626 -0.5470 -0.3304
  715MOL0     C98541   8.810   5.010   3.313  0.1984  0.5728 -0.3713
  715MOL0     C98542   8.916   4.929   3.394 -0.0625  0.7101  0.1247
  715MOL0     C98543   8.979   4.818   3.309  0.1442 -0.4573  0.3288
  715MOL0     C98544   8.908   4.682   3.314 -0.9310  0.5438 -0.3368
  715MOL0     C98545   9.005   4.572   3.260 -0.4837 -0.5390  0.2986
  715MOL0     C98546   9.028   4.575   3.104 -0.2550 -0.2575  0.9996
  715MOL0     C98547   8.904   4.531   3.018 -0.2416  0.0194 -0.0835
  715MOL0     C98548   8.904   4.585   2.875  0.5932  0.5628 -0.0486
  715MOL0     N98549   8.801   4.508   2.801 -0.5365  0.7373  0.2681
  715MOL0     C98550   8.812   4.395   2.727  0.7674  0.2420  0.1450
  715MOL0     C98551   8.684   4.366   2.690 -0.4456  0.2415 -0.3089
  715MOL0     C98552   8.635   4.248   2.602 -0.2945 -1.6781  1.3912
  715MOL0     C98553   8.679   4.266   2.453  0.5705 -0.7748 -0.2619
  715MOL0     C98554   8.608   4.392   2.399  0.0987 -0.0688 -0.1430
  715MOL0     C98555   8.459   4.400   2.425 -0.0760 -0.1866  0.2952
  715MOL0     O98556   8.385   4.288   2.372  0.1151 -0.0753 -0.7695
  715MOL0     C98557   8.256   4.266   2.422  0.6291  0.5559  0.7891
  715MOL0     C98558   8.186   4.346   2.519 -0.5875 -0.4713 -0.4656
  715MOL0     C98559   8.056   4.320   2.550 -0.2809 -1.1726 -0.0383
  715MOL0     C98560   7.990   4.396   2.669  0.9146 -0.4642 -0.3892
  715MOL0     C98561   7.989   4.210   2.497  0.3142 -0.2351 -0.5202
  715MOL0     C98562   7.847   4.193   2.535 -0.3236  0.7605  0.3146
  715MOL0     O98563   7.761   4.240   2.444 -0.2616 -0.1650 -0.1558
  715MOL0     C98564   7.626   4.249   2.466  0.1412 -0.1246 -0.5062
  715MOL0     C98565   7.550   4.131   2.510  0.6344 -0.0354  1.3690
  715MOL0     C98566   7.414   4.149   2.532 -0.2741  0.2134  0.1140
  715MOL0     C98567   7.349   4.272   2.509  0.4292  0.2948  0.1150
  715MOL0     O98568   7.209   4.277   2.510 -0.4226  0.5349  0.8943
  715MOL0     C98569   7.159   4.239   2.379 -0.0730  0.4089 -0.5632
  715MOL0     C98570   7.011   4.214   2.392  0.0591  0.3323 -0.8230
  715MOL0     C98571   6.932   4.338   2.436 -0.3048  1.0958 -0.0230
  715MOL0     C98572   6.925   4.447   2.323  0.3350  0.7607  0.4269
  715MOL0     C98573   6.896   4.591   2.376 -0.5078 -0.4155 -0.3054
  715MOL0     C98574   6.869   4.690   2.267  0.2536 -0.5858  0.2093
  715MOL0     C98575   6.898   4.837   2.309  0.6243  1.2667  0.2542
  715MOL0     C98576   6.817   4.937   2.237 -0.1322  0.1912  0.2272
  715MOL0    Cl98577   6.872   4.945   2.080  0.3482 -0.0947 -0.1626
  715MOL0     C98578   7.419   4.388   2.479 -0.9962 -0.0032 -0.9124
  715MOL0     C98579   7.562   4.377   2.452 -0.4550 -0.1253 -0.2093
  715MOL0     O98580   7.811   4.141   2.636  0.1605  0.3832 -1.1164
  715MOL0     C98581   8.048   4.133   2.400  0.0247 -0.0922 -0.0524
  715MOL0     C98582   8.183   4.164   2.357  0.0518  0.7074  0.5100
  715MOL0     N98583   8.601   4.464   2.739  0.8413  0.9970 -0.2180
  715MOL0     N98584   8.669   4.546   2.800  0.6910 -0.0612  0.1178
  715MOL0     C98585   8.525   4.868   3.152  0.4092 -0.1267 -0.0374
  715MOL0     C98586   8.389   4.839   3.167 -0.2589  0.4195  0.9491
  715MOL0     C98587   7.941   4.888   3.263 -0.0812 -0.6852  0.1268
  715MOL0     C98588   7.883   4.801   3.351  0.3167  0.6628 -0.0794
  715MOL0     C98589   7.752   4.766   3.347  0.3316 -0.2296 -0.7972
  715MOL0     C98590   7.663   4.827   3.257  0.2476 -0.0103  0.1403
  715MOL0     O98591   7.525   4.798   3.250 -0.7774 -0.5464 -0.3973
  715MOL0     C98592   7.446   4.888   3.324 -0.4930 -0.1420  0.2700
  715MOL0     C98593   7.302   4.858   3.318  1.1191 -0.3359 -0.3419
  715MOL0     C98594   7.226   4.930   3.194  0.2725  0.1371 -0.3974
  715MOL0     C98595   7.087   4.973   3.220  0.1027 -0.4322 -0.2226
  715MOL0     C98596   7.031   5.052   3.121  0.6934  0.0894  1.8770
  715MOL0     C98597   6.982   5.114   3.031 -0.7724  0.1080  0.5975
  715MOL0     C98598   7.720   4.912   3.163  0.4716  0.2273 -0.4805
  715MOL0     C98599   7.855   4.946   3.163 -0.5206  0.3635  0.5473
  715MOL0     C98600   7.915   5.021   3.047  0.9163 -0.9552  0.0869
  715MOL0     H98601   8.326   4.952   3.481 -0.2935 -0.1078 -0.4045
  715MOL0     H98602   8.579   4.981   3.469 -0.6713  1.1159 -0.2049
  715MOL0     H98603   8.756   5.080   3.377 -2.8234 -0.2877 -1.7921
  715MOL0     H98604   8.872   5.074   3.250  2.8973 -2.0799 -0.6278
  715MOL0     H98605   8.992   5.000   3.429  2.5310 -2.4744  1.5830
  715MOL0     H98606   8.880   4.893   3.491 -1.4229 -1.3592 -1.0911
  715MOL0     H98607   8.992   4.851   3.206  2.7401 -1.7822  0.1484
  715MOL0     H98608   9.082   4.807   3.342  0.5353  1.4422 -0.1499
  715MOL0     H98609   8.874   4.654   3.415 -0.9658 -1.0213 -0.7512
  715MOL0     H98610   8.817   4.683   3.252 -3.2090 -0.9501  2.6904
  715MOL0     H98611   8.974   4.470   3.286 -0.0231 -0.3067  1.8810
  715MOL0     H98612   9.104   4.588   3.304 -0.2288  1.1805 -0.8202
  715MOL0     H98613   9.066   4.673   3.077 -0.8105 -0.7696 -2.0643
  715MOL0     H98614   9.115   4.513   3.081  0.7259  0.5051  2.5668
  715MOL0     H98615   8.810   4.574   3.054 -0.4322 -0.3437 -0.1462
  715MOL0     H98616   8.914   4.422   3.016  1.5604  0.1255  0.7803
  715MOL0     H98617   8.875   4.689   2.859  0.7882  0.1558 -4.0780
  715MOL0     H98618   9.001   4.582   2.825 -0.5749 -0.4950 -2.3723
  715MOL0     H98619   8.899   4.333   2.705  0.3063 -2.2362  4.1473
  715MOL0     H98620   8.527   4.251   2.613 -0.2854  2.5605  1.9385
  715MOL0     H98621   8.666   4.155   2.652 -0.4366 -2.6773 -0.2990
  715MOL0     H98622   8.785   4.270   2.425  0.0710  0.9764 -2.1110
  715MOL0     H98623   8.630   4.180   2.407 -1.5733  2.1788 -4.0780
  715MOL0     H98624   8.655   4.479   2.447 -1.3492 -1.1823  3.7059
  715MOL0     H98625   8.626   4.386   2.292 -1.2003 -2.8783 -0.2939
  715MOL0     H98626   8.442   4.412   2.533  1.7699 -0.2477  0.6296
  715MOL0     H98627   8.418   4.485   2.371 -3.2702 -0.9212  1.3670
  715MOL0     H98628   8.234   4.425   2.576 -1.3757 -0.2250 -0.1359
  715MOL0     H98629   7.975   4.342   2.763 -0.4017  0.2961 -0.1332
  715MOL0     H98630   7.890   4.424   2.636 -0.2879 -3.8372 -0.0030
  715MOL0     H98631   8.039   4.490   2.696  0.0186  0.5180 -2.0012
  715MOL0     H98632   7.594   4.031   2.514  1.8292  0.4284  0.2357
  715MOL0     H98633   7.366   4.065   2.582  0.7368 -0.0951  0.5890
  715MOL0     H98634   7.186   4.312   2.303  2.0663 -1.0938 -1.3553
  715MOL0     H98635   7.211   4.149   2.345 -0.1564  0.3047 -0.4214
  715MOL0     H98636   6.964   4.180   2.299 -2.1085  0.9939 -0.0335
  715MOL0     H98637   6.995   4.144   2.474  1.2594  3.5139  2.3942
  715MOL0     H98638   6.975   4.386   2.525  0.9104  0.6837 -0.3767
  715MOL0     H98639   6.840   4.299   2.482  2.1044 -3.5636  1.4817
  715MOL0     H98640   6.845   4.422   2.253  0.0618  2.3080  0.1421
  715MOL0     H98641   7.017   4.435   2.265  1.4253 -0.2336  2.2724
  715MOL0     H98642   6.830   4.601   2.463 -0.9314 -0.4121 -0.6208
  715MOL0     H98643   6.985   4.623   2.430 -0.9552 -1.0824  0.8715
  715MOL0     H98644   6.763   4.685   2.241  1.1393 -0.8139 -4.1605
  715MOL0     H98645   6.922   4.661   2.176  3.3816  0.5183  1.5477
  715MOL0     H98646   7.001   4.865   2.285  0.1561  0.9643 -2.4737
  715MOL0     H98647   6.882   4.842   2.417  4.4231 -1.3023  1.1352
  715MOL0     H98648   6.830   5.042   2.267  2.2498  0.1848 -0.5994
  715MOL0     H98649   6.711   4.911   2.244  0.1263 -0.8879  0.3737
  715MOL0     H98650   7.370   4.480   2.448 -1.8921  0.3136  1.2545
  715MOL0     H98651   7.620   4.463   2.420 -2.3369  0.8122 -1.2566
  715MOL0     H98652   7.983   4.057   2.357 -0.6075  0.4110 -0.0031
  715MOL0     H98653   8.221   4.120   2.265 -0.2223  2.5882 -0.5497
  715MOL0     H98654   8.573   4.842   3.059 -1.6303 -0.6727 -0.9977
  715MOL0     H98655   8.322   4.787   3.099  0.1793 -0.8121  1.4361
  715MOL0     H98656   7.950   4.765   3.429 -2.4007  0.5454  2.3800
  715MOL0     H98657   7.702   4.706   3.422  1.0464  0.0406 -0.0907
  715MOL0     H98658   7.472   4.888   3.430 -0.6458  0.1952  0.3101
  715MOL0     H98659   7.448   4.994   3.295 -2.8754  0.0362  0.5416
  715MOL0     H98660   7.262   4.893   3.413  0.8015 -2.7553  0.4760
  715MOL0     H98661   7.295   4.749   3.311  0.1911 -0.2755 -0.4643
  715MOL0     H98662   7.289   5.014   3.165  2.0662  0.0643  2.8307
  715MOL0     H98663   7.215   4.853   3.116  1.6268  0.9964 -1.4782
  715MOL0     H98664   7.102   5.030   3.313  0.4921  0.5352 -0.8595
  715MOL0     H98665   7.018   4.891   3.241 -0.3418 -0.0004  0.0286
  715MOL0     H98666   6.942   5.158   2.942  2.6144  0.7160 -0.7411
  715MOL0     H98667   7.648   4.960   3.097  0.3969  1.5093  0.4851
  715MOL0     H98668   7.962   4.954   2.974  0.8831  0.1339 -0.9755
  715MOL0     H98669   7.840   5.076   2.990  2.2798  1.5379  0.5561
  715MOL0     H98670   7.990   5.097   3.073 -2.0421  1.4216  2.3743
  716MOL0     O98671   1.005   3.217   6.606 -0.0679  0.0234 -0.0927
  716MOL0     C98672   0.999   3.244   6.485 -0.1251 -0.5702 -0.7013
  716MOL0     O98673   1.068   3.179   6.391  0.2691 -0.4664 -0.2163
  716MOL0     C98674   1.194   3.126   6.414  0.5585  0.6010  0.2169
  716MOL0     C98675   1.287   3.163   6.322  0.7408  0.4202  0.2939
  716MOL0     C98676   1.418   3.121   6.331  0.2680  0.1404 -0.4913
  716MOL0     C98677   1.458   3.029   6.423 -0.2959  0.8625 -0.8748
  716MOL0     O98678   1.581   2.971   6.445 -0.9861  0.8641 -0.0804
  716MOL0     C98679   1.690   3.052   6.424 -0.1947  0.1236  0.5295
  716MOL0     C98680   1.816   2.984   6.476  0.5156 -0.0108 -0.8354
  716MOL0     C98681   1.795   2.940   6.623  0.3924 -0.4452 -0.1938
  716MOL0     C98682   1.923   2.926   6.699  0.3371  0.5582 -0.6398
  716MOL0     C98683   1.902   2.872   6.841  0.2646 -0.3226 -0.1310
  716MOL0     C98684   2.043   2.859   6.910 -0.3794  0.2031  0.1803
  716MOL0     C98685   2.014   2.806   7.052  0.2794 -0.1000 -0.2067
  716MOL0     C98686   2.143   2.796   7.137 -0.2901 -0.5957 -0.0628
  716MOL0     N98687   2.255   2.720   7.083  0.0455  0.2252  0.2417
  716MOL0     C98688   2.258   2.583   7.045 -0.1179  0.1792  0.1579
  716MOL0     C98689   2.389   2.547   7.044 -0.8996 -0.8467  0.6096
  716MOL0     C98690   2.440   2.406   7.032 -0.5409  0.0884  0.0388
  716MOL0     C98691   2.585   2.408   6.987  0.6256  0.0895  0.0181
  716MOL0     C98692   2.630   2.266   6.946 -0.8148 -0.2975 -0.3943
  716MOL0     C98693   2.765   2.229   7.004  0.3967  0.2180 -0.3803
  716MOL0     O98694   2.793   2.101   6.962  0.2064 -0.3626  0.0648
  716MOL0     C98695   2.902   2.030   7.007 -0.4974  0.2801 -0.8839
  716MOL0     C98696   2.992   2.060   7.129 -0.5759 -0.5475 -0.4854
  716MOL0     C98697   3.082   1.964   7.177 -0.0258  0.1665 -0.0008
  716MOL0     C98698   3.158   2.000   7.307 -0.1314  0.7708 -0.7152
  716MOL0     C98699   3.094   1.844   7.113 -0.2282 -0.0258 -0.0508
  716MOL0     C98700   3.197   1.735   7.159  1.3563 -0.8419 -0.3737
  716MOL0     O98701   3.229   1.633   7.073  0.6603 -0.2614 -0.1694
  716MOL0     C98702   3.301   1.532   7.132  0.3538 -0.6903  0.4627
  716MOL0     C98703   3.440   1.545   7.132 -0.0189 -0.5084  0.3339
  716MOL0     C98704   3.516   1.443   7.185 -0.5513  0.6731 -0.0572
  716MOL0     C98705   3.456   1.317   7.223 -0.2508  0.3819 -0.1108
  716MOL0     O98706   3.539   1.220   7.278 -0.1689  0.1615  0.5413
  716MOL0     C98707   3.614   1.254   7.397  0.3460 -0.1340 -0.5152
  716MOL0     C98708   3.714   1.136   7.448  1.0159 -0.0791  0.0031
  716MOL0     C98709   3.634   1.033   7.517 -0.0632  0.2189  0.0031
  716MOL0     C98710   3.705   0.911   7.581 -0.1604  1.4454  0.2489
  716MOL0     C98711   3.832   0.946   7.656 -0.3386 -0.0949 -0.3203
  716MOL0     C98712   3.906   0.816   7.697 -0.3124 -0.3051  0.3762
  716MOL0     C98713   4.034   0.864   7.777 -0.7802 -0.4369 -0.2571
  716MOL0     C98714   4.106   0.740   7.820  0.3282  0.3905 -0.2492
  716MOL0    Cl98715   4.225   0.780   7.938 -0.1065  0.0155 -0.4310
  716MOL0     C98716   3.319   1.309   7.223  0.9081 -0.2072 -0.7376
  716MOL0     C98717   3.242   1.416   7.182 -0.9403 -0.8429  0.1492
  716MOL0     O98718   3.246   1.745   7.272  0.4259  0.4041  1.0392
  716MOL0     C98719   3.011   1.813   7.005 -0.3518  0.2567  0.1303
  716MOL0     C98720   2.920   1.905   6.954 -0.0890 -0.0221 -1.0999
  716MOL0     N98721   2.462   2.665   7.069  0.5149  0.0953 -0.6215
  716MOL0     N98722   2.381   2.768   7.084 -0.4093 -0.2698 -0.5731
  716MOL0     C98723   1.352   2.973   6.503  0.0129  0.1280  0.4831
  716MOL0     C98724   1.221   3.025   6.506  0.1390  0.1721  0.6629
  716MOL0     C98725   0.901   3.347   6.435 -0.6868  0.8278 -0.2009
  716MOL0     C98726   0.911   3.398   6.307  0.7026 -0.6477  0.5433
  716MOL0     C98727   0.806   3.487   6.243 -0.3087  0.1270 -1.0556
  716MOL0     C98728   0.689   3.503   6.314 -0.0141 -0.4029  0.5668
  716MOL0     O98729   0.583   3.583   6.270  0.2683 -0.1430 -0.3433
  716MOL0     C98730   0.582   3.674   6.160 -0.1703 -0.3885 -0.2004
  716MOL0     C98731   0.442   3.735   6.143  0.8272 -0.4240  0.3468
  716MOL0     C98732   0.401   3.820   6.267 -0.4403 -0.3317  0.0278
  716MOL0     C98733   0.267   3.767   6.319 -0.6194  1.0446 -0.6169
  716MOL0     C98734   0.218   3.841   6.437  0.4689  0.0268  0.5397
  716MOL0     C98735   0.178   3.900   6.538  0.4108 -0.6316  1.1965
  716MOL0     C98736   0.687   3.459   6.447  0.0968  0.5171 -0.2077
  716MOL0     C98737   0.784   3.375   6.509  0.8423  0.0773  0.5296
  716MOL0     C98738   0.737   3.314   6.640  0.8467 -0.4797  0.0303
  716MOL0     H98739   1.271   3.230   6.238  1.5174  0.8713  0.4970
  716MOL0     H98740   1.485   3.166   6.258 -3.9890  0.9708 -4.3211
  716MOL0     H98741   1.674   3.145   6.479 -1.8855 -0.2942  0.7852
  716MOL0     H98742   1.714   3.074   6.319  0.0594  1.3924  0.8414
  716MOL0     H98743   1.857   2.914   6.403  2.8077  1.8213 -1.4289
  716MOL0     H98744   1.894   3.060   6.482  1.2684 -0.8548  0.3269
  716MOL0     H98745   1.748   3.023   6.676  1.3583 -0.7164  1.1505
  716MOL0     H98746   1.729   2.853   6.627  2.9425 -2.4734  0.9205
  716MOL0     H98747   1.990   2.870   6.634  0.0627  0.1496 -0.5688
  716MOL0     H98748   1.969   3.025   6.703 -0.3877  0.8618  1.6398
  716MOL0     H98749   1.851   2.777   6.857  1.9947 -0.9423  2.4052
  716MOL0     H98750   1.853   2.943   6.909 -1.2991 -0.6468 -0.8920
  716MOL0     H98751   2.096   2.776   6.862 -1.7414 -0.7435  0.2631
  716MOL0     H98752   2.107   2.948   6.906 -1.6953  1.2304  1.3290
  716MOL0     H98753   1.981   2.704   7.030  2.2860 -0.8212 -0.0695
  716MOL0     H98754   1.934   2.860   7.104  1.2775  0.6812  0.5418
  716MOL0     H98755   2.180   2.897   7.157  1.1134 -1.2810  0.9777
  716MOL0     H98756   2.108   2.756   7.233  1.8659 -2.4341  0.0185
  716MOL0     H98757   2.178   2.510   7.049  0.9194 -0.9294  2.6833
  716MOL0     H98758   2.369   2.345   6.974  0.1555  0.4223 -1.2125
  716MOL0     H98759   2.446   2.363   7.132  1.7831  0.8412  0.2736
  716MOL0     H98760   2.604   2.471   6.900 -1.4121  0.7676  0.0131
  716MOL0     H98761   2.650   2.449   7.065 -0.1347  0.3421  0.5175
  716MOL0     H98762   2.563   2.197   6.997 -0.9608  0.4212  0.3994
  716MOL0     H98763   2.632   2.252   6.837  4.2354 -0.6635 -0.4979
  716MOL0     H98764   2.830   2.305   6.960 -1.6536  1.3711 -1.5748
  716MOL0     H98765   2.753   2.236   7.113 -1.0757  2.1074 -0.6165
  716MOL0     H98766   2.968   2.156   7.175  0.4136 -0.1060 -0.8735
  716MOL0     H98767   3.267   1.989   7.301 -0.2672 -1.1060 -0.5204
  716MOL0     H98768   3.125   1.943   7.394 -0.0530  2.2811  0.3374
  716MOL0     H98769   3.137   2.104   7.333  1.3196  0.9015  0.0281
  716MOL0     H98770   3.495   1.623   7.081  0.5865 -1.6106 -0.7665
  716MOL0     H98771   3.623   1.457   7.191 -0.4164 -0.6944  1.8514
  716MOL0     H98772   3.684   1.335   7.375  0.9090 -0.7598 -1.0539
  716MOL0     H98773   3.550   1.292   7.478  0.6839 -1.0703  0.2090
  716MOL0     H98774   3.777   1.097   7.368  1.1436  1.4684 -0.6847
  716MOL0     H98775   3.774   1.178   7.530 -0.5681 -0.3103  1.3464
  716MOL0     H98776   3.564   0.988   7.446  0.9240 -2.4608  0.6444
  716MOL0     H98777   3.575   1.075   7.600 -0.2670  0.8274 -0.4371
  716MOL0     H98778   3.722   0.837   7.502 -1.5532  1.6440 -0.2622
  716MOL0     H98779   3.641   0.861   7.654 -0.4610  2.9982  1.0959
  716MOL0     H98780   3.896   1.006   7.590 -3.2904  0.5780 -2.8276
  716MOL0     H98781   3.808   1.001   7.748  0.7619 -1.3439  0.7602
  716MOL0     H98782   3.957   0.772   7.610  3.4595 -0.3031  2.3829
  716MOL0     H98783   3.852   0.740   7.754 -2.6616 -1.1601 -2.6680
  716MOL0     H98784   4.003   0.918   7.867 -1.6683  0.7152 -1.2132
  716MOL0     H98785   4.101   0.935   7.728 -0.5328 -0.7331 -0.3434
  716MOL0     H98786   4.157   0.684   7.741  1.2782  0.5420  0.2534
  716MOL0     H98787   4.034   0.671   7.865 -0.1288  1.2945  0.4468
  716MOL0     H98788   3.267   1.219   7.255  2.0810 -1.2413 -1.6271
  716MOL0     H98789   3.135   1.398   7.184 -0.6592 -2.5760  0.7638
  716MOL0     H98790   3.021   1.714   6.963  0.4711  1.0015 -1.5674
  716MOL0     H98791   2.854   1.871   6.874 -1.8652  1.2646 -0.2493
  716MOL0     H98792   1.382   2.891   6.568 -0.4678 -2.3029 -2.1656
  716MOL0     H98793   1.148   2.975   6.568  0.9001 -3.1563 -0.9003
  716MOL0     H98794   0.996   3.379   6.242  0.4527  1.6586 -0.5682
  716MOL0     H98795   0.828   3.533   6.148  1.9545  1.4446  0.0150
  716MOL0     H98796   0.647   3.759   6.183  0.4416 -0.8588 -0.1600
  716MOL0     H98797   0.611   3.630   6.064 -0.4522 -0.1636 -0.3924
  716MOL0     H98798   0.364   3.660   6.127  0.4231 -0.7049  3.1670
  716MOL0     H98799   0.446   3.809   6.063 -0.8695  0.0716  0.6855
  716MOL0     H98800   0.477   3.816   6.346  0.6163 -0.3286 -0.9649
  716MOL0     H98801   0.384   3.922   6.232 -2.8217 -1.9959 -4.5280
  716MOL0     H98802   0.283   3.670   6.367  0.1647  1.6548  0.3947
  716MOL0     H98803   0.194   3.764   6.237 -2.7307  1.6139  1.1408
  716MOL0     H98804   0.139   3.948   6.626  1.6779  1.8690  0.5013
  716MOL0     H98805   0.596   3.487   6.498 -0.5285 -1.2953 -0.2611
  716MOL0     H98806   0.758   3.207   6.638  0.1376 -0.6183 -0.8969
  716MOL0     H98807   0.791   3.347   6.729 -1.3224 -2.2659  2.1270
  716MOL0     H98808   0.632   3.333   6.665  0.7440 -0.1040 -0.6512
  717MOL0     O98809  11.324   5.200   7.973  0.4658 -0.4976  0.3216
  717MOL0     C98810  11.431   5.143   7.940  0.6548 -0.0902 -0.8188
  717MOL0     O98811  11.530   5.202   7.877 -0.5769  0.0635 -0.0551
  717MOL0     C98812  11.522   5.338   7.848  0.7823  1.5036 -0.2961
  717MOL0     C98813  11.624   5.415   7.889 -0.8368  0.1168 -0.4703
  717MOL0     C98814  11.631   5.548   7.843  0.7834 -0.2349  0.3829
  717MOL0     C98815  11.529   5.606   7.766  1.4644  0.0935 -0.3334
  717MOL0     O98816  11.527   5.739   7.739  0.6574  0.5206  0.0162
  717MOL0     C98817  11.575   5.826   7.839  0.1325  0.2247 -0.6491
  717MOL0     C98818  11.504   5.962   7.831 -0.8520  0.5596  0.2823
  717MOL0     C98819  11.351   5.953   7.829 -0.2083  0.7191 -0.1351
  717MOL0     C98820  11.269   6.084   7.815  0.8528  0.0227  0.3087
  717MOL0     C98821  11.119   6.059   7.828 -0.5254  0.6206  0.2691
  717MOL0     C98822  11.046   6.190   7.812  0.1392  0.5066 -0.2282
  717MOL0     C98823  10.889   6.193   7.848 -0.9250  0.0687 -0.8399
  717MOL0     C98824  10.807   6.260   7.744  0.7980 -0.4558  0.4643
  717MOL0     N98825  10.672   6.289   7.788  0.1043 -0.5456  0.3880
  717MOL0     C98826  10.612   6.407   7.789 -0.9328 -0.0039  0.5460
  717MOL0     C98827  10.489   6.385   7.830  0.3805 -0.2532 -0.2187
  717MOL0     C98828  10.394   6.502   7.842 -0.5296 -0.5965 -0.1837
  717MOL0     C98829  10.382   6.600   7.723 -0.1170 -0.7892 -0.5505
  717MOL0     C98830  10.312   6.532   7.615  0.2361 -0.1390 -0.2962
  717MOL0     C98831  10.288   6.621   7.498  0.1512 -0.1666  0.0820
  717MOL0     O98832  10.230   6.751   7.531 -0.0712  0.1038  0.5551
  717MOL0     C98833  10.095   6.751   7.522 -0.5056 -0.4065 -0.1164
  717MOL0     C98834  10.035   6.783   7.401  0.5101 -0.1699  0.1173
  717MOL0     C98835   9.891   6.802   7.388 -0.0133  0.6857 -0.0736
  717MOL0     C98836   9.845   6.834   7.249 -0.2476 -0.6140 -0.3665
  717MOL0     C98837   9.808   6.765   7.506 -0.2742 -0.6829  0.1237
  717MOL0     C98838   9.661   6.763   7.508 -0.2363 -0.9203 -0.2507
  717MOL0     O98839   9.597   6.733   7.629 -0.3308 -0.8018 -0.2797
  717MOL0     C98840   9.469   6.680   7.633  0.8674 -0.7668  0.5313
  717MOL0     C98841   9.377   6.671   7.530  0.2403  0.7045  1.1151
  717MOL0     C98842   9.256   6.604   7.548  0.2600  0.4382  0.2834
  717MOL0     C98843   9.220   6.547   7.670  0.2602 -0.1004  0.2557
  717MOL0     O98844   9.090   6.490   7.670  0.2809  0.2113  0.8976
  717MOL0     C98845   9.058   6.403   7.778  0.0638 -0.6379  0.5455
  717MOL0     C98846   9.133   6.271   7.793 -0.6868 -0.5573  0.2390
  717MOL0     C98847   9.117   6.168   7.686 -0.0001 -0.3800 -0.6205
  717MOL0     C98848   9.243   6.112   7.625 -0.6800  0.1040 -0.2704
  717MOL0     C98849   9.306   5.987   7.699  0.5021  0.1510 -0.6827
  717MOL0     C98850   9.410   5.924   7.609 -0.6833 -0.2122  0.6084
  717MOL0     C98851   9.554   5.981   7.605 -0.0887 -0.3170 -0.5640
  717MOL0     C98852   9.647   5.908   7.519 -0.1790  0.0522  0.7937
  717MOL0    Cl98853   9.626   5.938   7.343  0.0370  0.0699 -0.0567
  717MOL0     C98854   9.309   6.569   7.778  0.3839 -0.2811 -0.5274
  717MOL0     C98855   9.436   6.629   7.758  0.7803 -0.8143  0.7095
  717MOL0     O98856   9.606   6.765   7.398  0.4606  0.2180  0.3570
  717MOL0     C98857   9.874   6.732   7.623  1.1334 -0.2705 -0.2468
  717MOL0     C98858  10.015   6.726   7.634  0.4997 -0.5767  0.0339
  717MOL0     N98859  10.477   6.260   7.874 -0.9300 -0.1960  0.1682
  717MOL0     N98860  10.588   6.199   7.842 -0.1689  0.2683 -0.2841
  717MOL0     C98861  11.426   5.523   7.720 -0.0172  0.6078  0.4166
  717MOL0     C98862  11.422   5.390   7.761  1.2375  0.5682  0.6896
  717MOL0     C98863  11.437   4.994   7.941 -0.5668  0.9490  1.1476
  717MOL0     C98864  11.550   4.929   7.891  0.0161 -0.0648  0.0792
  717MOL0     C98865  11.564   4.786   7.885  0.3256 -0.3046 -0.1602
  717MOL0     C98866  11.473   4.702   7.939  0.8397  0.4001  0.1110
  717MOL0     O98867  11.485   4.570   7.960 -0.1989  0.4229 -0.1562
  717MOL0     C98868  11.603   4.488   7.932  0.6144 -0.0446  0.0837
  717MOL0     C98869  11.576   4.423   7.801 -0.0982 -0.5481 -0.6144
  717MOL0     C98870  11.485   4.302   7.840 -0.0921  1.4415  0.0775
  717MOL0     C98871  11.567   4.184   7.906 -0.3006  1.2890 -0.4401
  717MOL0     C98872  11.500   4.056   7.863  0.3604 -0.1978  0.1633
  717MOL0     C98873  11.441   3.959   7.825  0.1664  0.3911  0.5440
  717MOL0     C98874  11.363   4.769   7.993 -0.7970  0.3172 -0.0812
  717MOL0     C98875  11.341   4.908   7.994 -0.5315  0.3080 -0.5417
  717MOL0     C98876  11.210   4.947   8.051  0.2808  0.8056  0.4173
  717MOL0     H98877  11.695   5.388   7.967 -2.0676  0.5468  0.8548
  717MOL0     H98878  11.723   5.602   7.867  0.8378 -1.1920  2.5926
  717MOL0     H98879  11.681   5.851   7.823  0.6229  0.4866  2.3536
  717MOL0     H98880  11.573   5.777   7.937 -1.4063 -0.1691 -0.8517
  717MOL0     H98881  11.543   6.026   7.911 -0.4712  1.4228 -0.5671
  717MOL0     H98882  11.545   6.003   7.738  1.6134 -0.5242  0.8147
  717MOL0     H98883  11.316   5.885   7.751 -1.8832  1.9765 -0.5487
  717MOL0     H98884  11.319   5.903   7.921 -3.9573  1.3208 -0.9383
  717MOL0     H98885  11.302   6.148   7.898  0.9393 -0.2334  0.4714
  717MOL0     H98886  11.275   6.131   7.717 -3.4889 -0.7082 -0.5086
  717MOL0     H98887  11.095   6.017   7.927  1.2716  1.8578  1.3013
  717MOL0     H98888  11.101   5.995   7.742  0.5361  4.2704 -2.9640
  717MOL0     H98889  11.094   6.264   7.877  1.5905 -0.2732 -0.3777
  717MOL0     H98890  11.073   6.226   7.712  0.8257  1.5791  0.3272
  717MOL0     H98891  10.855   6.237   7.942 -1.4706  0.2703 -1.1298
  717MOL0     H98892  10.850   6.091   7.851  0.6703 -0.6361 -2.1450
  717MOL0     H98893  10.854   6.356   7.721 -1.7968  0.4333 -1.6641
  717MOL0     H98894  10.810   6.195   7.656 -0.2174  1.4292 -1.0459
  717MOL0     H98895  10.659   6.504   7.777 -1.7841  0.3539  0.0301
  717MOL0     H98896  10.452   6.564   7.911  1.5932 -0.3761 -2.0401
  717MOL0     H98897  10.294   6.475   7.877 -0.6901 -0.1864 -0.3220
  717MOL0     H98898  10.321   6.680   7.766  1.6462  0.8818 -1.0275
  717MOL0     H98899  10.479   6.642   7.693 -0.0902 -0.4406  0.0121
  717MOL0     H98900  10.375   6.446   7.590  0.9534 -0.9641  3.6736
  717MOL0     H98901  10.224   6.487   7.662  1.9435 -0.2979  3.0568
  717MOL0     H98902  10.382   6.640   7.445 -0.3124 -1.6210 -1.3452
  717MOL0     H98903  10.225   6.564   7.429 -0.5020  1.3609 -0.6406
  717MOL0     H98904  10.112   6.803   7.328  1.3424 -0.8422  0.7852
  717MOL0     H98905   9.757   6.897   7.237 -0.2566 -0.7989 -1.3176
  717MOL0     H98906   9.817   6.742   7.197 -0.4965 -0.4664 -0.4976
  717MOL0     H98907   9.918   6.889   7.188 -0.1428  2.4591  2.2515
  717MOL0     H98908   9.394   6.710   7.430 -0.5341 -0.2523  0.5860
  717MOL0     H98909   9.179   6.580   7.475 -1.2458  0.0603  1.9251
  717MOL0     H98910   9.046   6.479   7.855  0.3034  2.0743 -1.9122
  717MOL0     H98911   8.961   6.360   7.753  0.0723  1.0855 -3.0570
  717MOL0     H98912   9.240   6.290   7.807 -0.7844  0.3080 -0.1385
  717MOL0     H98913   9.102   6.231   7.890  1.4784 -2.1725  0.3467
  717MOL0     H98914   9.049   6.206   7.609 -1.5588  4.1970  2.5929
  717MOL0     H98915   9.053   6.091   7.729 -2.0213  0.5925 -1.7322
  717MOL0     H98916   9.324   6.186   7.626  0.2358 -0.7938  2.8819
  717MOL0     H98917   9.218   6.088   7.521  0.1557  0.1364 -0.4855
  717MOL0     H98918   9.344   5.996   7.801  2.6694  0.2474 -1.4409
  717MOL0     H98919   9.221   5.918   7.704 -0.7732  1.6883 -0.4786
  717MOL0     H98920   9.379   5.924   7.504  1.2168  0.7738 -0.0154
  717MOL0     H98921   9.437   5.825   7.646  2.8197  0.3672  0.0501
  717MOL0     H98922   9.581   5.980   7.711 -1.8262  0.4461 -0.0668
  717MOL0     H98923   9.551   6.086   7.572  0.3584 -0.1605 -0.1206
  717MOL0     H98924   9.640   5.800   7.533  0.2568 -0.2585 -1.0713
  717MOL0     H98925   9.749   5.944   7.539 -1.3695  2.9289  2.2465
  717MOL0     H98926   9.280   6.550   7.881 -3.1213  0.8753 -1.1689
  717MOL0     H98927   9.507   6.646   7.838 -0.5698  0.2688  1.7402
  717MOL0     H98928   9.816   6.720   7.714  0.2135  2.2121 -0.4346
  717MOL0     H98929  10.079   6.710   7.721  0.9829  1.4198  0.1059
  717MOL0     H98930  11.357   5.562   7.645 -0.0746  1.2724  0.8053
  717MOL0     H98931  11.333   5.337   7.729  0.2591  1.6300  1.5682
  717MOL0     H98932  11.637   4.979   7.849  0.1890 -0.2843  0.1754
  717MOL0     H98933  11.657   4.748   7.845  1.0117 -0.4246  1.4767
  717MOL0     H98934  11.693   4.550   7.937  0.0831  1.1646 -3.0748
  717MOL0     H98935  11.612   4.413   8.011 -1.1063  2.0357  2.4303
  717MOL0     H98936  11.669   4.391   7.753 -0.4435  0.3652 -1.9361
  717MOL0     H98937  11.525   4.490   7.731 -1.3993 -3.0412 -2.1736
  717MOL0     H98938  11.408   4.335   7.910 -1.1676 -2.1243  0.7403
  717MOL0     H98939  11.442   4.271   7.744 -3.4115 -0.0050  1.8774
  717MOL0     H98940  11.565   4.190   8.015  3.3348 -2.7405  0.1358
  717MOL0     H98941  11.673   4.181   7.878 -0.1294  1.7277  0.1485
  717MOL0     H98942  11.390   3.868   7.801 -3.2024  2.5463 -1.2558
  717MOL0     H98943  11.292   4.696   8.029  0.5930 -0.8499  0.4177
  717MOL0     H98944  11.189   4.885   8.139  1.9966 -0.5312 -0.0630
  717MOL0     H98945  11.209   5.048   8.093 -0.2124  1.2378 -0.6018
  717MOL0     H98946  11.134   4.936   7.973 -1.1265 -0.0997  1.8622
  718MOL0     O98947   4.031   1.974   4.583  0.0091 -0.4848  0.4361
  718MOL0     C98948   4.149   1.986   4.560  0.4107 -0.2302  0.4557
  718MOL0     O98949   4.242   1.956   4.657 -0.3427  0.2593  0.1727
  718MOL0     C98950   4.367   2.004   4.636  0.1807 -0.0544  0.0046
  718MOL0     C98951   4.393   2.135   4.678 -0.0508  0.6571 -0.7866
  718MOL0     C98952   4.515   2.196   4.660 -0.5609  0.4266  0.4586
  718MOL0     C98953   4.623   2.114   4.623 -0.0197  1.0286  0.1110
  718MOL0     O98954   4.743   2.183   4.592 -0.2650  0.2813 -0.0655
  718MOL0     C98955   4.851   2.110   4.533 -0.0808  0.4730  0.6736
  718MOL0     C98956   4.949   2.223   4.506  0.3178  0.5788 -0.3953
  718MOL0     C98957   5.083   2.188   4.458 -0.5568  0.1661  0.1522
  718MOL0     C98958   5.194   2.278   4.534  0.5490  0.0932  0.3811
  718MOL0     C98959   5.328   2.257   4.459 -0.6605 -0.1735  0.4330
  718MOL0     C98960   5.443   2.343   4.510 -0.3406 -0.6012  0.2576
  718MOL0     C98961   5.570   2.307   4.442  0.5239  0.2280 -1.2959
  718MOL0     C98962   5.573   2.377   4.314 -0.5753 -0.0853  0.6069
  718MOL0     N98963   5.702   2.340   4.250  0.5618  0.5834 -0.9165
  718MOL0     C98964   5.829   2.326   4.305 -0.7170  0.8448  0.1144
  718MOL0     C98965   5.910   2.277   4.201  0.1422  0.0488 -0.8450
  718MOL0     C98966   6.063   2.256   4.208 -0.4193 -0.9151  0.7604
  718MOL0     C98967   6.134   2.374   4.130  0.1900 -1.1397  0.1692
  718MOL0     C98968   6.127   2.348   3.980  0.2576  0.5466  0.3575
  718MOL0     C98969   6.242   2.255   3.921  0.0629 -0.7881 -0.8125
  718MOL0     O98970   6.360   2.305   3.983  0.1264  0.4684 -0.8709
  718MOL0     C98971   6.488   2.271   3.945  0.5243 -0.4869 -0.6122
  718MOL0     C98972   6.511   2.185   3.845 -0.4143 -0.8428  0.5219
  718MOL0     C98973   6.643   2.161   3.804  0.6685 -0.3938 -0.9248
  718MOL0     C98974   6.663   2.074   3.683  0.7381  0.9564  1.2689
  718MOL0     C98975   6.750   2.224   3.869 -0.6611 -0.2513  0.1239
  718MOL0     C98976   6.896   2.216   3.831 -1.0565  0.0116  0.3763
  718MOL0     O98977   6.985   2.273   3.916 -0.3090  0.4545  0.1129
  718MOL0     C98978   7.108   2.318   3.876 -0.2793 -0.4466 -0.7782
  718MOL0     C98979   7.113   2.458   3.861  0.1947  0.7940 -0.3802
  718MOL0     C98980   7.232   2.514   3.813 -0.1015 -0.4076  0.3356
  718MOL0     C98981   7.348   2.440   3.789 -0.1562  0.4955  0.9365
  718MOL0     O98982   7.467   2.500   3.751  0.3881 -0.8433 -0.6525
  718MOL0     C98983   7.589   2.437   3.740  0.7211 -1.3798  0.3016
  718MOL0     C98984   7.684   2.508   3.651 -0.3807  0.1739  0.5623
  718MOL0     C98985   7.811   2.435   3.627 -0.2945 -0.1588 -0.2776
  718MOL0     C98986   7.914   2.451   3.752 -0.5262 -0.2466 -0.3768
  718MOL0     C98987   8.061   2.467   3.700 -0.0749 -0.2246 -0.3279
  718MOL0     C98988   8.150   2.495   3.822  0.3825 -0.1314  0.8836
  718MOL0     C98989   8.283   2.549   3.774 -0.7609  0.5941 -0.1488
  718MOL0     C98990   8.373   2.591   3.894 -0.9570  0.6016  0.4531
  718MOL0    Cl98991   8.511   2.672   3.814  0.1035 -0.2880 -0.1606
  718MOL0     C98992   7.341   2.302   3.810  0.4225 -0.3688  0.3448
  718MOL0     C98993   7.224   2.244   3.850 -0.1974  0.7220  0.2808
  718MOL0     O98994   6.922   2.161   3.727 -0.6723  0.1803  0.1814
  718MOL0     C98995   6.717   2.309   3.983 -0.7698  0.3070  0.2543
  718MOL0     C98996   6.593   2.337   4.015  0.4121  0.7945 -0.6053
  718MOL0     N98997   5.829   2.254   4.090  0.1761 -0.4261 -0.0979
  718MOL0     N98998   5.705   2.294   4.122 -0.6012  0.2337 -0.7419
  718MOL0     C98999   4.600   1.982   4.598 -0.7831 -0.0465 -0.0190
  718MOL0     C99000   4.474   1.924   4.604 -0.6315  0.5925  0.0846
  718MOL0     C99001   4.200   2.009   4.417 -0.3155 -0.4308  0.1191
  718MOL0     C99002   4.215   1.909   4.321  0.5170  0.3780  0.6092
  718MOL0     C99003   4.266   1.953   4.195  0.3380  0.6193 -0.3333
  718MOL0     C99004   4.296   2.080   4.156  0.4733  0.1984 -0.0545
  718MOL0     O99005   4.351   2.088   4.035  0.0332  0.3236 -0.0330
  718MOL0     C99006   4.365   2.218   3.965  0.2449  0.2042 -0.0934
  718MOL0     C99007   4.465   2.196   3.848 -1.1827 -0.8522  0.4426
  718MOL0     C99008   4.510   2.328   3.787 -0.2724 -0.3301  0.1632
  718MOL0     C99009   4.635   2.326   3.699  0.3227  0.0604 -0.0083
  718MOL0     C99010   4.673   2.459   3.645  0.6478  0.2482  0.0199
  718MOL0     C99011   4.716   2.561   3.601  0.1327  0.4642 -0.0429
  718MOL0     C99012   4.281   2.175   4.255  0.2792  0.0282  0.7663
  718MOL0     C99013   4.221   2.146   4.383  0.3755  0.0255  0.0849
  718MOL0     C99014   4.184   2.267   4.473  0.0232  0.4082  0.7499
  718MOL0     H99015   4.311   2.186   4.728  1.1642  2.7785 -0.8440
  718MOL0     H99016   4.519   2.304   4.666  0.7515  0.4408 -0.2004
  718MOL0     H99017   4.830   2.075   4.432  0.8301  3.0192 -0.4853
  718MOL0     H99018   4.885   2.023   4.590  1.4809  0.5901 -0.0150
  718MOL0     H99019   4.915   2.293   4.430  3.7391  1.0244 -1.7149
  718MOL0     H99020   4.949   2.287   4.594  1.0737  0.0088  0.0411
  718MOL0     H99021   5.110   2.086   4.488  0.0375 -0.4045 -2.1439
  718MOL0     H99022   5.087   2.194   4.349 -0.4591 -1.7536  0.0087
  718MOL0     H99023   5.165   2.383   4.526  2.4831  0.5266 -3.0263
  718MOL0     H99024   5.200   2.238   4.636 -0.8597 -0.4037  0.2962
  718MOL0     H99025   5.315   2.269   4.351 -1.1762 -0.8564  0.4125
  718MOL0     H99026   5.347   2.152   4.480 -1.4837 -0.0744  1.7772
  718MOL0     H99027   5.422   2.450   4.496  0.0179 -0.4751  0.6545
  718MOL0     H99028   5.469   2.313   4.612  1.7661 -0.6998 -0.2557
  718MOL0     H99029   5.581   2.198   4.436  1.7590  0.3394 -1.3144
  718MOL0     H99030   5.654   2.345   4.500 -0.0708  0.4507 -0.5705
  718MOL0     H99031   5.490   2.350   4.248  0.1384  0.4761 -0.5262
  718MOL0     H99032   5.565   2.485   4.325  0.1884  0.0179  0.1468
  718MOL0     H99033   5.855   2.345   4.408  1.7017 -2.0365  0.1587
  718MOL0     H99034   6.095   2.160   4.167 -2.3959 -1.9776  1.5791
  718MOL0     H99035   6.089   2.261   4.314 -0.4129  0.9602  0.7012
  718MOL0     H99036   6.091   2.470   4.160  2.1667 -0.2379  0.2971
  718MOL0     H99037   6.237   2.401   4.157 -0.1481  2.2739 -1.3722
  718MOL0     H99038   6.029   2.310   3.947 -0.3382 -0.5655  3.1061
  718MOL0     H99039   6.131   2.445   3.930  0.2552 -0.1191 -0.9911
  718MOL0     H99040   6.221   2.149   3.940 -0.8203 -0.6432 -0.9361
  718MOL0     H99041   6.252   2.276   3.814  2.8319  0.7075 -0.3455
  718MOL0     H99042   6.424   2.149   3.790 -2.4145  1.6055  1.8799
  718MOL0     H99043   6.573   2.057   3.622 -0.3106  1.6492  2.5650
  718MOL0     H99044   6.690   1.971   3.708  0.8392  0.0023 -2.2932
  718MOL0     H99045   6.738   2.105   3.610  0.2357 -1.3730 -0.3777
  718MOL0     H99046   7.021   2.513   3.877 -0.0133  0.1164  0.8894
  718MOL0     H99047   7.249   2.621   3.806  0.7150 -0.4011  1.9228
  718MOL0     H99048   7.626   2.431   3.843 -1.8002 -1.0507  1.3032
  718MOL0     H99049   7.581   2.334   3.703  0.1136 -1.2958  0.1839
  718MOL0     H99050   7.640   2.529   3.553  0.9608  1.9223  0.2935
  718MOL0     H99051   7.716   2.607   3.684  0.0778  0.3064 -0.2449
  718MOL0     H99052   7.859   2.482   3.541 -0.9841  0.8286 -0.1414
  718MOL0     H99053   7.789   2.330   3.609 -0.1575  0.2335 -3.1726
  718MOL0     H99054   7.901   2.374   3.829 -0.0154 -0.1334 -0.1763
  718MOL0     H99055   7.892   2.548   3.798  1.8117 -0.5336  1.5402
  718MOL0     H99056   8.086   2.384   3.634 -1.6783  1.3795 -3.1239
  718MOL0     H99057   8.070   2.556   3.637  2.7630 -1.5056 -1.9326
  718MOL0     H99058   8.165   2.401   3.875  2.3131 -0.4864 -0.1956
  718MOL0     H99059   8.103   2.573   3.883  2.6672  1.5815  0.5948
  718MOL0     H99060   8.262   2.640   3.718 -2.3433  2.0092  2.5162
  718MOL0     H99061   8.330   2.477   3.705  1.1549 -1.3617  2.9182
  718MOL0     H99062   8.406   2.501   3.946  1.2589  0.6895 -0.6751
  718MOL0     H99063   8.327   2.657   3.968 -0.4200  0.1534  1.2076
  718MOL0     H99064   7.423   2.231   3.807 -2.2526 -3.8862  3.1721
  718MOL0     H99065   7.219   2.137   3.867  2.6681  0.5606  0.5434
  718MOL0     H99066   6.798   2.341   4.049  1.9659 -5.0872  0.0543
  718MOL0     H99067   6.586   2.418   4.087  0.2134  1.2178 -1.0938
  718MOL0     H99068   4.693   1.931   4.573 -0.6537  0.7536 -1.2599
  718MOL0     H99069   4.456   1.821   4.572 -0.9383  0.9215 -0.8362
  718MOL0     H99070   4.197   1.804   4.341 -2.4615 -0.0256 -3.0939
  718MOL0     H99071   4.288   1.882   4.116  0.5789 -1.1049  1.2009
  718MOL0     H99072   4.264   2.244   3.935  0.3464  0.4463 -0.2239
  718MOL0     H99073   4.389   2.293   4.041 -0.7145  0.6334 -0.2077
  718MOL0     H99074   4.421   2.136   3.768  1.0207 -1.1140 -0.6346
  718MOL0     H99075   4.550   2.141   3.890 -1.7862 -2.2228 -0.0693
  718MOL0     H99076   4.430   2.390   3.747  0.3885  1.6870  1.7857
  718MOL0     H99077   4.534   2.400   3.866  0.2702 -0.1138 -0.1926
  718MOL0     H99078   4.621   2.262   3.611 -0.0748  0.8726 -0.5524
  718MOL0     H99079   4.720   2.286   3.754  2.5927  2.0501 -1.8064
  718MOL0     H99080   4.733   2.659   3.562 -3.9379  0.7972 -1.4760
  718MOL0     H99081   4.310   2.278   4.237  1.3244 -0.1503  1.3596
  718MOL0     H99082   4.095   2.314   4.428 -0.1227  0.4501  1.0788
  718MOL0     H99083   4.129   2.239   4.563 -2.0279  1.2877 -0.1508
  718MOL0     H99084   4.265   2.338   4.494  0.8909  1.1169 -3.9337
  719MOL0     O99085   6.302   2.953   6.689 -0.5782  0.4085  0.2020
  719MOL0     C99086   6.370   2.859   6.644  0.3352  0.2152 -0.5057
  719MOL0     O99087   6.500   2.833   6.681  0.5649  0.8277  0.1187
  719MOL0     C99088   6.559   2.918   6.770 -0.3175  0.0812 -0.1925
  719MOL0     C99089   6.700   2.930   6.747 -0.9985  0.1738 -0.3580
  719MOL0     C99090   6.773   3.010   6.827 -0.0872  0.5738  0.1246
  719MOL0     C99091   6.726   3.070   6.942 -0.2786 -0.2007  1.3036
  719MOL0     O99092   6.820   3.143   7.015 -0.0331  0.2709  0.6163
  719MOL0     C99093   6.775   3.192   7.140  0.5713  0.2281 -0.4734
  719MOL0     C99094   6.701   3.331   7.147  0.4105  0.1151 -0.9968
  719MOL0     C99095   6.795   3.447   7.114  0.1729 -0.6642 -0.1049
  719MOL0     C99096   6.721   3.586   7.105  0.5683  0.6116  0.0950
  719MOL0     C99097   6.814   3.691   7.038  0.7098  0.3784 -0.9758
  719MOL0     C99098   6.800   3.666   6.884  0.0594 -0.1286 -0.4751
  719MOL0     C99099   6.912   3.729   6.803 -0.0121  0.1112 -0.3016
  719MOL0     C99100   6.885   3.762   6.654  0.4448  0.5259 -0.8035
  719MOL0     N99101   7.002   3.833   6.599  0.0524 -0.0432 -0.4534
  719MOL0     C99102   7.030   3.967   6.609 -0.2251  0.5549  0.7616
  719MOL0     C99103   7.139   3.995   6.529 -0.3024 -0.4606  0.2211
  719MOL0     C99104   7.200   4.127   6.495 -1.0308 -0.9339 -0.1029
  719MOL0     C99105   7.324   4.108   6.409  0.4785  0.1637 -0.7496
  719MOL0     C99106   7.422   4.226   6.414 -0.4009  0.1798  0.0437
  719MOL0     C99107   7.554   4.171   6.368 -0.8547 -0.6950  0.3192
  719MOL0     O99108   7.645   4.270   6.402 -0.3018  0.4464  0.6163
  719MOL0     C99109   7.785   4.239   6.399  0.6929 -0.5367  0.1737
  719MOL0     C99110   7.861   4.330   6.466  0.3435  0.2852 -0.3441
  719MOL0     C99111   8.004   4.334   6.463  0.7140  0.5525  0.7946
  719MOL0     C99112   8.076   4.435   6.557 -0.4019 -0.2997  0.5762
  719MOL0     C99113   8.065   4.229   6.382 -0.1751  1.0576 -0.2566
  719MOL0     C99114   8.216   4.205   6.374  0.6404 -0.4623 -0.1480
  719MOL0     O99115   8.290   4.269   6.466 -0.0605  0.5684 -0.3679
  719MOL0     C99116   8.427   4.243   6.464  0.3512 -0.7513  1.1880
  719MOL0     C99117   8.501   4.336   6.394  0.0728  1.2764 -0.0111
  719MOL0     C99118   8.642   4.306   6.392  0.6410 -0.5555 -0.2269
  719MOL0     C99119   8.702   4.194   6.445  0.1470  0.2701 -0.1425
  719MOL0     O99120   8.834   4.160   6.423 -0.5568 -0.4881 -0.4757
  719MOL0     C99121   8.924   4.251   6.377 -0.4274 -0.5871  0.6999
  719MOL0     C99122   8.949   4.364   6.485 -0.5173  0.0412 -0.8778
  719MOL0     C99123   8.980   4.307   6.626 -0.3288  0.6270 -0.0206
  719MOL0     C99124   9.098   4.208   6.628  0.5598 -0.0742  0.3524
  719MOL0     C99125   9.132   4.177   6.776  0.4839 -0.0647  0.9486
  719MOL0     C99126   9.026   4.093   6.847 -0.7197  0.1835 -0.3621
  719MOL0     C99127   9.071   4.065   6.996  0.2516 -0.2992  0.4260
  719MOL0     C99128   8.966   3.989   7.072 -0.2567  1.1965  0.1978
  719MOL0    Cl99129   8.809   4.067   7.096 -0.3615  0.1066  0.3722
  719MOL0     C99130   8.618   4.100   6.511 -0.3371 -0.6288 -1.0423
  719MOL0     C99131   8.483   4.125   6.518  0.3733 -0.0927  0.8486
  719MOL0     O99132   8.259   4.130   6.286  0.0232 -0.2442 -0.1362
  719MOL0     C99133   7.987   4.143   6.308 -1.5791  0.6403 -0.5645
  719MOL0     C99134   7.846   4.147   6.318  0.5064 -0.5358  0.1372
  719MOL0     N99135   7.181   3.871   6.480  0.5562  0.2734  0.2456
  719MOL0     N99136   7.100   3.772   6.521  0.0513 -0.5684  0.2421
  719MOL0     C99137   6.588   3.048   6.973  0.1727 -0.1786  0.0130
  719MOL0     C99138   6.506   2.971   6.887 -0.5737 -0.8917  0.1047
  719MOL0     C99139   6.297   2.771   6.554  0.6538  0.0898  0.8600
  719MOL0     C99140   6.376   2.726   6.448  0.0974 -0.2266 -0.2672
  719MOL0     C99141   6.320   2.651   6.334  0.4758 -0.1120 -0.7268
  719MOL0     C99142   6.186   2.611   6.346 -0.0439 -0.0700 -0.3166
  719MOL0     O99143   6.133   2.516   6.261 -0.8455  0.0114 -0.1029
  719MOL0     C99144   6.100   2.583   6.136 -0.2411 -0.1502 -0.2065
  719MOL0     C99145   6.033   2.478   6.056  0.4255 -0.0649  0.0057
  719MOL0     C99146   6.121   2.352   6.034 -0.6907  0.0995  0.2818
  719MOL0     C99147   6.051   2.222   5.997  1.0465 -0.3967 -0.7497
  719MOL0     C99148   5.995   2.209   5.863  0.0795 -0.4216 -0.6681
  719MOL0     C99149   5.967   2.208   5.748 -0.4204 -0.3512  0.0543
  719MOL0     C99150   6.108   2.664   6.453 -0.4378  0.1603 -0.0764
  719MOL0     C99151   6.161   2.741   6.554 -1.3104  0.3276  0.1642
  719MOL0     C99152   6.059   2.782   6.652 -0.7106  0.5233 -0.1109
  719MOL0     H99153   6.743   2.860   6.675 -2.4802 -0.8587 -0.2956
  719MOL0     H99154   6.881   3.024   6.817 -0.1665  0.0766 -2.1061
  719MOL0     H99155   6.867   3.217   7.194 -0.8788  1.2417  1.6559
  719MOL0     H99156   6.720   3.113   7.192  2.3386 -1.5343 -1.1735
  719MOL0     H99157   6.625   3.334   7.068 -0.5814 -1.9721 -0.1730
  719MOL0     H99158   6.665   3.354   7.248  1.8279 -1.1422 -0.1696
  719MOL0     H99159   6.881   3.455   7.182 -0.0132  1.1809 -0.0341
  719MOL0     H99160   6.844   3.424   7.020  1.1948  0.8823 -0.0028
  719MOL0     H99161   6.625   3.577   7.053  2.9581 -1.8841 -4.5098
  719MOL0     H99162   6.682   3.621   7.201 -1.5273 -1.2686  0.0009
  719MOL0     H99163   6.915   3.693   7.079 -0.1560  0.2557  1.3109
  719MOL0     H99164   6.772   3.789   7.062  1.6343  0.4144  0.5934
  719MOL0     H99165   6.791   3.557   6.876 -1.0961 -0.2434  1.6637
  719MOL0     H99166   6.710   3.713   6.844  0.1772  1.0844  0.6217
  719MOL0     H99167   7.005   3.672   6.808  0.9862  1.6427 -0.6905
  719MOL0     H99168   6.934   3.819   6.861  0.5300 -0.0912 -0.1849
  719MOL0     H99169   6.865   3.667   6.604  1.1759 -0.0319 -0.0767
  719MOL0     H99170   6.794   3.819   6.638 -2.9693 -3.9786  0.3255
  719MOL0     H99171   6.970   4.044   6.657 -0.4575 -0.7103  2.6236
  719MOL0     H99172   7.233   4.161   6.594 -2.2605 -1.3190  0.4670
  719MOL0     H99173   7.131   4.200   6.453  1.7969  0.3382 -2.9162
  719MOL0     H99174   7.378   4.021   6.448  0.6076  0.2214 -0.7987
  719MOL0     H99175   7.281   4.101   6.308  0.6687 -2.1514 -0.7169
  719MOL0     H99176   7.399   4.310   6.348  0.7342 -0.8595 -1.7525
  719MOL0     H99177   7.424   4.261   6.518 -4.4037  0.5428  0.1744
  719MOL0     H99178   7.576   4.076   6.417  1.1187  0.1951  1.2704
  719MOL0     H99179   7.562   4.166   6.259  0.7379  1.3613  0.2810
  719MOL0     H99180   7.816   4.402   6.533  2.2805 -0.4350  1.8976
  719MOL0     H99181   8.172   4.464   6.512  0.3634 -0.5797  1.9868
  719MOL0     H99182   8.097   4.402   6.659  3.0092  3.4208  1.3417
  719MOL0     H99183   8.013   4.518   6.591  1.5442  0.8340  1.6593
  719MOL0     H99184   8.462   4.425   6.346 -0.0845 -0.3179 -3.1240
  719MOL0     H99185   8.702   4.380   6.339  0.8428  0.2605  1.0967
  719MOL0     H99186   9.014   4.190   6.379  0.6413  0.9119  0.1062
  719MOL0     H99187   8.895   4.291   6.279 -1.9583 -1.8301  0.6085
  719MOL0     H99188   9.038   4.420   6.454  1.5939 -0.1546  3.8647
  719MOL0     H99189   8.860   4.424   6.504 -0.5162 -0.6176  1.5448
  719MOL0     H99190   8.885   4.266   6.662 -0.3589  1.9898  1.5890
  719MOL0     H99191   9.006   4.388   6.696 -1.7029  1.5805 -0.5790
  719MOL0     H99192   9.176   4.260   6.572  2.4647 -1.1489  1.8628
  719MOL0     H99193   9.064   4.118   6.575 -0.8137  1.2422 -1.1159
  719MOL0     H99194   9.232   4.132   6.775 -0.2969 -2.2118 -2.8905
  719MOL0     H99195   9.149   4.275   6.822 -1.9175  2.6704 -3.3057
  719MOL0     H99196   9.007   3.997   6.798  2.6805  0.1819 -2.0164
  719MOL0     H99197   8.936   4.153   6.858 -0.6130  0.0401  1.8487
  719MOL0     H99198   9.078   4.164   7.042  1.7788  0.3508 -1.0809
  719MOL0     H99199   9.171   4.023   6.985  0.7385  1.0552 -0.5894
  719MOL0     H99200   9.005   3.965   7.172 -0.0607  0.4299 -0.0580
  719MOL0     H99201   8.949   3.893   7.022  1.8278  0.0206  1.5844
  719MOL0     H99202   8.659   4.004   6.541 -0.1466  0.3547  2.2409
  719MOL0     H99203   8.416   4.055   6.567 -0.5176 -0.1314 -0.3705
  719MOL0     H99204   8.022   4.063   6.244 -1.7891 -2.5640  3.0003
  719MOL0     H99205   7.784   4.079   6.262 -0.4592  0.0878  0.4239
  719MOL0     H99206   6.540   3.084   7.063  0.6225  1.5304 -0.4012
  719MOL0     H99207   6.401   2.959   6.915 -1.2179  0.0087 -1.7577
  719MOL0     H99208   6.476   2.764   6.428  0.1716 -0.8337 -1.0832
  719MOL0     H99209   6.381   2.608   6.256  3.1310 -0.0145  1.1599
  719MOL0     H99210   6.016   2.651   6.148 -0.7837 -0.6918 -0.8758
  719MOL0     H99211   6.190   2.618   6.085  1.8452 -1.2832  2.4103
  719MOL0     H99212   5.992   2.520   5.964  0.4422 -0.1864 -0.0568
  719MOL0     H99213   5.947   2.442   6.113  1.8410 -2.9528  0.5087
  719MOL0     H99214   6.193   2.358   5.952 -3.7244 -0.3565 -2.6387
  719MOL0     H99215   6.175   2.331   6.127  0.7246 -0.4972 -0.6379
  719MOL0     H99216   5.978   2.203   6.076 -0.2651 -0.6117 -1.9675
  719MOL0     H99217   6.120   2.138   6.010  1.7566  0.4184  1.0745
  719MOL0     H99218   5.953   2.203   5.642 -0.6659  0.7824  0.0236
  719MOL0     H99219   6.008   2.622   6.451  0.6620 -2.6224 -1.5694
  719MOL0     H99220   5.978   2.709   6.665  1.0124 -2.0090 -2.5004
  719MOL0     H99221   6.104   2.794   6.751 -0.5772  2.2361 -0.3453
  719MOL0     H99222   6.021   2.883   6.633 -0.1679  0.7004 -0.2745
  720MOL0     O99223   4.698   9.087   1.395  0.5661  0.2678 -0.5847
  720MOL0     C99224   4.643   9.010   1.475 -0.2827 -0.1183 -0.3608
  720MOL0     O99225   4.697   8.965   1.594  0.1892 -0.0461  0.6079
  720MOL0     C99226   4.834   8.973   1.608  0.8285  0.9840  0.8450
  720MOL0     C99227   4.905   9.085   1.654  0.2166 -0.4450  1.0656
  720MOL0     C99228   5.041   9.086   1.686 -0.0380 -0.4794 -0.0025
  720MOL0     C99229   5.107   8.969   1.664 -0.1544 -0.2683 -0.1272
  720MOL0     O99230   5.236   8.938   1.701 -1.0379  0.5039 -0.4931
  720MOL0     C99231   5.291   9.017   1.801  0.1412 -0.1977 -0.0151
  720MOL0     C99232   5.441   8.980   1.830  0.5904  0.4498  0.0475
  720MOL0     C99233   5.459   8.827   1.876 -0.3449  0.1226 -0.4242
  720MOL0     C99234   5.362   8.786   1.989 -0.1799  0.1559 -0.9776
  720MOL0     C99235   5.369   8.884   2.116  0.4735  0.8581  0.1673
  720MOL0     C99236   5.286   8.816   2.226  0.1299  0.6072  0.1099
  720MOL0     C99237   5.150   8.768   2.200  0.9059  0.6630  0.5914
  720MOL0     C99238   5.055   8.864   2.126 -0.2653 -0.1035  0.4364
  720MOL0     N99239   4.916   8.813   2.110  0.7976 -0.9298  0.6117
  720MOL0     C99240   4.854   8.793   1.982 -0.5937  0.0491 -0.2650
  720MOL0     C99241   4.726   8.749   2.019 -0.3704  0.1646  0.2303
  720MOL0     C99242   4.617   8.717   1.922 -0.8095 -0.0316  0.4161
  720MOL0     C99243   4.627   8.573   1.864  0.9653 -0.0134  0.3191
  720MOL0     C99244   4.696   8.573   1.730 -0.0248  1.0470 -1.1596
  720MOL0     C99245   4.601   8.585   1.610  0.1367  0.3718  0.2206
  720MOL0     O99246   4.536   8.453   1.598 -0.4561  0.0460  0.6123
  720MOL0     C99247   4.449   8.428   1.498  0.1773  0.3180  0.6068
  720MOL0     C99248   4.366   8.516   1.435  0.5783 -1.1275  0.1092
  720MOL0     C99249   4.266   8.471   1.344  0.3904 -0.1595 -0.4457
  720MOL0     C99250   4.176   8.581   1.277  0.2753 -0.3768  0.3736
  720MOL0     C99251   4.249   8.331   1.317  0.9121 -0.1761 -0.4564
  720MOL0     C99252   4.149   8.266   1.218 -0.4822 -1.5721 -0.8404
  720MOL0     O99253   4.126   8.135   1.228  0.1813  0.9454 -0.5076
  720MOL0     C99254   4.032   8.074   1.154 -0.2863  0.0371 -0.1956
  720MOL0     C99255   3.905   8.127   1.129 -0.9962  0.6875 -0.2486
  720MOL0     C99256   3.803   8.052   1.060  0.0528 -0.1092 -0.0387
  720MOL0     C99257   3.826   7.922   1.015  0.3240 -0.1713  0.0336
  720MOL0     O99258   3.724   7.837   0.972 -0.0199 -0.6872 -0.4094
  720MOL0     C99259   3.749   7.754   0.862 -0.7772  0.3769 -0.0707
  720MOL0     C99260   3.617   7.734   0.790 -0.1017 -0.0209 -0.2397
  720MOL0     C99261   3.561   7.594   0.830 -0.3639  0.5196 -0.3744
  720MOL0     C99262   3.551   7.573   0.986 -0.8968 -0.5701 -0.0373
  720MOL0     C99263   3.466   7.447   1.037 -0.8826 -0.1413  0.8948
  720MOL0     C99264   3.507   7.437   1.185  0.2796 -0.5093 -1.2666
  720MOL0     C99265   3.444   7.311   1.255 -0.4734 -0.1517  0.3895
  720MOL0     C99266   3.398   7.359   1.392 -0.0599 -0.2993  0.2257
  720MOL0    Cl99267   3.369   7.212   1.496  0.2408 -0.3026 -0.6048
  720MOL0     C99268   3.950   7.876   1.030 -0.2696 -0.2797  0.0354
  720MOL0     C99269   4.052   7.940   1.107 -1.0775 -0.1252  0.5959
  720MOL0     O99270   4.113   8.341   1.127 -0.0808  0.4177  0.3006
  720MOL0     C99271   4.336   8.234   1.377  0.2268 -0.6713  0.5989
  720MOL0     C99272   4.428   8.291   1.470 -0.3409  0.6208  0.8581
  720MOL0     N99273   4.723   8.743   2.156 -0.4578  0.2309  0.0146
  720MOL0     N99274   4.830   8.782   2.211  0.3069 -0.3093  0.0622
  720MOL0     C99275   5.040   8.862   1.607 -0.6464 -0.0580 -0.4607
  720MOL0     C99276   4.904   8.854   1.576 -0.3911 -0.0226  0.1445
  720MOL0     C99277   4.507   8.980   1.457  0.3850  0.3636 -0.0560
  720MOL0     C99278   4.428   8.969   1.580  0.3405 -0.6821  0.6192
  720MOL0     C99279   4.290   8.925   1.571 -0.3965  0.3177 -0.7632
  720MOL0     C99280   4.231   8.904   1.445  0.9092  0.0800 -0.1951
  720MOL0     O99281   4.098   8.885   1.435  0.2822 -0.4999  1.2291
  720MOL0     C99282   4.014   8.854   1.545  0.4699  0.5091 -0.5188
  720MOL0     C99283   3.957   8.975   1.614 -0.0738  0.2568 -0.3537
  720MOL0     C99284   3.868   9.056   1.515 -0.2057 -0.2720 -0.2398
  720MOL0     C99285   3.815   9.185   1.574 -0.2984  0.3939  0.6136
  720MOL0     C99286   3.734   9.149   1.691 -0.1457  0.2778  0.5746
  720MOL0     C99287   3.655   9.112   1.776 -0.2365  0.6590  0.3529
  720MOL0     C99288   4.316   8.916   1.335  0.1745  0.2570 -0.1945
  720MOL0     C99289   4.452   8.957   1.332  0.2498  0.8372 -0.1432
  720MOL0     C99290   4.520   8.937   1.200  1.3841 -1.0527  1.4106
  720MOL0     H99291   4.864   9.185   1.651 -0.3181 -0.6850 -0.3353
  720MOL0     H99292   5.101   9.173   1.712  0.8746 -0.6590 -1.4282
  720MOL0     H99293   5.226   9.019   1.889 -0.9755  2.0537 -0.8152
  720MOL0     H99294   5.285   9.121   1.768  1.2397  0.1167  0.7132
  720MOL0     H99295   5.490   8.997   1.734 -1.2039 -0.5043 -1.1044
  720MOL0     H99296   5.480   9.051   1.904 -0.6484  1.5181 -0.2788
  720MOL0     H99297   5.444   8.771   1.783 -2.7583  2.1903 -1.4356
  720MOL0     H99298   5.563   8.808   1.902 -0.3935 -0.5463 -0.7095
  720MOL0     H99299   5.264   8.782   1.941  0.4685  0.8650 -2.4319
  720MOL0     H99300   5.386   8.683   2.014 -1.3229 -0.0161 -0.5366
  720MOL0     H99301   5.335   8.984   2.089 -1.1294  1.2297  3.1146
  720MOL0     H99302   5.474   8.898   2.144  0.6474  0.2567 -0.1594
  720MOL0     H99303   5.331   8.729   2.273  1.9849  0.9082 -1.0261
  720MOL0     H99304   5.290   8.896   2.300 -0.2174  2.7112 -2.0399
  720MOL0     H99305   5.117   8.742   2.301  3.9399  2.7000  2.3039
  720MOL0     H99306   5.155   8.671   2.151  3.4609  0.4814  1.0367
  720MOL0     H99307   5.042   8.942   2.202 -0.5933  0.4789 -0.2063
  720MOL0     H99308   5.100   8.906   2.035  0.6140  0.2756  1.0211
  720MOL0     H99309   4.902   8.807   1.886  1.9689 -1.1508  0.7635
  720MOL0     H99310   4.614   8.781   1.833 -0.8008 -1.7605 -0.8769
  720MOL0     H99311   4.522   8.734   1.974 -0.3498  0.1098  1.2189
  720MOL0     H99312   4.665   8.505   1.940  0.4929 -0.7350 -0.0868
  720MOL0     H99313   4.526   8.533   1.859  0.8725  0.1757  0.6282
  720MOL0     H99314   4.774   8.648   1.717  2.3501 -1.3133 -1.4775
  720MOL0     H99315   4.736   8.471   1.724  0.3129  0.6934  3.6127
  720MOL0     H99316   4.535   8.669   1.632 -0.9189 -1.2349  3.9367
  720MOL0     H99317   4.640   8.597   1.509 -1.6140 -0.5537 -0.6137
  720MOL0     H99318   4.366   8.624   1.447 -1.7019 -0.8776 -1.3360
  720MOL0     H99319   4.215   8.605   1.178  0.9007 -3.5914 -0.2884
  720MOL0     H99320   4.168   8.668   1.343  0.7617  0.8439 -1.1306
  720MOL0     H99321   4.074   8.543   1.263  1.0187 -1.6804 -1.9655
  720MOL0     H99322   3.877   8.227   1.161 -1.4335  0.9606 -1.4118
  720MOL0     H99323   3.703   8.090   1.042  0.1683  0.4536  0.4617
  720MOL0     H99324   3.801   7.812   0.786 -1.5850 -0.6199 -1.4365
  720MOL0     H99325   3.804   7.665   0.895 -0.1868  1.1199  1.0377
  720MOL0     H99326   3.545   7.814   0.813 -0.0481 -0.1569  0.4326
  720MOL0     H99327   3.638   7.732   0.683 -3.2091 -0.5846 -0.9459
  720MOL0     H99328   3.636   7.524   0.791  0.6120  0.5591  1.3111
  720MOL0     H99329   3.471   7.565   0.776  0.8418 -3.8287 -0.4868
  720MOL0     H99330   3.509   7.665   1.028  0.7547  1.1742 -1.9978
  720MOL0     H99331   3.651   7.564   1.029 -1.4856 -1.8382  1.1304
  720MOL0     H99332   3.359   7.460   1.023 -0.9480 -0.6964  0.8502
  720MOL0     H99333   3.489   7.361   0.973 -0.5212  0.7455 -0.1981
  720MOL0     H99334   3.482   7.529   1.237 -3.3134 -0.0662 -3.5004
  720MOL0     H99335   3.615   7.418   1.193  0.1714 -0.3856  1.4261
  720MOL0     H99336   3.524   7.239   1.272 -0.1118  0.3009  0.6147
  720MOL0     H99337   3.372   7.265   1.187 -0.4714  0.0515  0.2494
  720MOL0     H99338   3.303   7.414   1.384  0.0329 -0.0062  1.0093
  720MOL0     H99339   3.472   7.424   1.440  0.5933  0.3634 -1.6281
  720MOL0     H99340   3.964   7.776   0.993 -0.5316 -0.9512  1.6669
  720MOL0     H99341   4.145   7.885   1.122 -2.4972 -2.0267  3.1808
  720MOL0     H99342   4.340   8.126   1.370  0.4194 -0.6527  0.3786
  720MOL0     H99343   4.488   8.218   1.523  0.7465 -1.3461 -2.6998
  720MOL0     H99344   5.104   8.782   1.572  2.1089  2.4745 -1.5939
  720MOL0     H99345   4.859   8.775   1.516  0.1533  1.3840 -2.2471
  720MOL0     H99346   4.451   8.992   1.683 -1.3646  0.8269  0.7186
  720MOL0     H99347   4.231   8.914   1.661  3.0217 -0.5051  1.5831
  720MOL0     H99348   3.926   8.805   1.502 -0.9106  2.2334  0.1900
  720MOL0     H99349   4.064   8.789   1.617  0.2632  0.5119 -0.3717
  720MOL0     H99350   4.045   9.038   1.634  0.2721 -1.0005  2.5719
  720MOL0     H99351   3.908   8.943   1.706 -2.5565  3.5382 -0.3376
  720MOL0     H99352   3.925   9.076   1.424  1.1482 -1.0628  0.4147
  720MOL0     H99353   3.789   8.985   1.489 -0.0869 -0.5698  0.1882
  720MOL0     H99354   3.782   9.246   1.490  2.4862  1.8373  0.4290
  720MOL0     H99355   3.888   9.258   1.610 -1.6869  2.6120 -0.8346
  720MOL0     H99356   3.582   9.091   1.851  1.5488 -0.2437  1.9344
  720MOL0     H99357   4.269   8.895   1.240 -2.1147 -1.0197  1.1363
  720MOL0     H99358   4.629   8.941   1.209  1.4888  5.1870  1.3866
  720MOL0     H99359   4.489   8.841   1.157  1.7051 -1.0420  1.1454
  720MOL0     H99360   4.498   9.029   1.146  2.8278 -1.1963  0.5198
  721MOL0     O99361   9.948   3.200  11.235 -0.6275 -0.1550 -0.4532
  721MOL0     C99362   9.952   3.144  11.343 -0.3484  0.6303 -0.5383
  721MOL0     O99363  10.053   3.060  11.389  0.2222 -0.2333 -0.5581
  721MOL0     C99364  10.187   3.074  11.354 -0.4028  0.6088  0.1062
  721MOL0     C99365  10.266   2.963  11.374  0.8113  0.3341 -0.6028
  721MOL0     C99366  10.400   2.972  11.334 -0.2158  0.5127  0.2342
  721MOL0     C99367  10.460   3.084  11.277  0.3406  0.5405 -0.0782
  721MOL0     O99368  10.594   3.077  11.248 -0.0174  0.3386  0.3699
  721MOL0     C99369  10.651   3.208  11.220  0.0808  0.2248 -1.0765
  721MOL0     C99370  10.802   3.197  11.192  0.2573 -0.0003  0.4816
  721MOL0     C99371  10.866   3.324  11.241 -0.5023 -0.3064 -0.4640
  721MOL0     C99372  11.014   3.320  11.204  0.0204 -0.6416 -0.6765
  721MOL0     C99373  11.086   3.444  11.263  0.0654 -0.5000  0.3472
  721MOL0     C99374  11.224   3.443  11.206  0.6121 -0.6222 -0.3950
  721MOL0     C99375  11.297   3.567  11.254 -0.1727 -0.4392  0.6373
  721MOL0     C99376  11.453   3.555  11.235 -0.5153 -0.5223 -0.2493
  721MOL0     N99377  11.477   3.596  11.097 -0.1562 -0.8961 -0.2445
  721MOL0     C99378  11.434   3.715  11.032 -0.2962  0.0198  0.2687
  721MOL0     C99379  11.451   3.692  10.903 -0.0667  0.2111 -0.2493
  721MOL0     C99380  11.410   3.777  10.782 -0.0655  0.2283 -0.9375
  721MOL0     C99381  11.465   3.919  10.811 -0.5484  0.6243 -0.1395
  721MOL0     C99382  11.495   3.995  10.684  0.0082 -1.0441  1.0100
  721MOL0     C99383  11.372   4.079  10.632  0.3953  0.4518 -0.8694
  721MOL0     O99384  11.408   4.193  10.557  0.1488 -0.0249 -0.1355
  721MOL0     C99385  11.454   4.152  10.434 -0.5943 -0.6810  0.2347
  721MOL0     C99386  11.360   4.141  10.329  0.3834  0.0913  0.4566
  721MOL0     C99387  11.389   4.126  10.193 -0.5021  0.0463 -0.9934
  721MOL0     C99388  11.275   4.145  10.096 -0.0310  0.3335 -0.0762
  721MOL0     C99389  11.526   4.099  10.171  0.1429 -0.0973 -0.0604
  721MOL0     C99390  11.581   4.068  10.030  0.8098  0.1325  1.1360
  721MOL0     O99391  11.716   4.043  10.019  0.3928 -0.3071  0.3469
  721MOL0     C99392  11.805   4.069   9.916  0.8489 -0.0009 -0.0505
  721MOL0     C99393  11.763   4.105   9.783 -0.3901 -0.0741 -0.3723
  721MOL0     C99394  11.854   4.123   9.675 -0.3674 -0.8560  0.6648
  721MOL0     C99395  11.988   4.090   9.692  0.4016 -0.0368 -0.6042
  721MOL0     O99396  12.084   4.074   9.600 -0.3824  0.6841  0.4574
  721MOL0     C99397  12.066   4.127   9.471  0.6507  0.2712 -0.3095
  721MOL0     C99398  12.203   4.125   9.407 -0.4777  0.5021 -0.2033
  721MOL0     C99399  12.195   4.180   9.269 -0.5250  0.1707  0.0404
  721MOL0     C99400  12.327   4.166   9.196 -0.2235 -0.6352  0.0543
  721MOL0     C99401  12.425   4.276   9.215 -0.2639 -0.1986 -0.4600
  721MOL0     C99402  12.548   4.268   9.116  0.4796 -0.8034  0.0666
  721MOL0     C99403  12.640   4.394   9.124 -0.2434  0.3499 -0.2579
  721MOL0     C99404  12.762   4.410   9.028 -0.1445  0.6124  0.1823
  721MOL0    Cl99405  12.703   4.476   8.863  0.4244  0.2242  0.3948
  721MOL0     C99406  12.034   4.041   9.815  0.1982 -0.1198  0.3182
  721MOL0     C99407  11.943   4.035   9.918 -0.4361  0.3137 -0.2754
  721MOL0     O99408  11.499   4.089   9.935  0.2191  0.8074 -0.5853
  721MOL0     C99409  11.632   4.102  10.272  0.3526 -0.0080 -0.0580
  721MOL0     C99410  11.586   4.128  10.403  0.1748 -1.1241 -0.5731
  721MOL0     N99411  11.490   3.563  10.884  0.8821 -0.2964  0.6479
  721MOL0     N99412  11.505   3.505  10.999  0.9968 -0.6079  0.3231
  721MOL0     C99413  10.376   3.197  11.274  0.3890  0.0816  0.6855
  721MOL0     C99414  10.243   3.192  11.295 -0.4291 -0.1891  0.1913
  721MOL0     C99415   9.834   3.171  11.431 -0.5151 -0.4585 -0.0318
  721MOL0     C99416   9.771   3.066  11.487 -0.4457 -0.1360 -0.3716
  721MOL0     C99417   9.673   3.075  11.586 -0.2128 -0.5557 -0.0745
  721MOL0     C99418   9.613   3.202  11.616 -0.1799  0.5579 -0.4060
  721MOL0     O99419   9.509   3.229  11.699  0.6390 -0.3168 -0.8163
  721MOL0     C99420   9.428   3.129  11.751  0.7253  0.5869 -0.5525
  721MOL0     C99421   9.320   3.075  11.659  0.0438 -0.1677  0.0886
  721MOL0     C99422   9.213   3.184  11.632  0.1057 -0.2006 -1.3383
  721MOL0     C99423   9.255   3.267  11.514 -0.6902 -0.4275  0.1993
  721MOL0     C99424   9.173   3.389  11.513 -0.3466  0.0318 -0.3936
  721MOL0     C99425   9.095   3.488  11.507 -1.3278 -0.0619 -0.4966
  721MOL0     C99426   9.670   3.310  11.544  1.3023  0.3215 -0.0976
  721MOL0     C99427   9.780   3.299  11.459 -0.1959  0.2940  0.5910
  721MOL0     C99428   9.835   3.425  11.403  0.1811  0.1243  0.4661
  721MOL0     H99429  10.223   2.870  11.410 -0.1334  0.3670 -1.6008
  721MOL0     H99430  10.454   2.879  11.349 -0.0338  0.8081  1.5346
  721MOL0     H99431  10.621   3.266  11.308 -2.2887 -2.2306 -0.1332
  721MOL0     H99432  10.601   3.253  11.134 -1.9408 -1.2895 -0.7664
  721MOL0     H99433  10.840   3.106  11.240  0.7565 -1.6726 -2.7987
  721MOL0     H99434  10.806   3.185  11.083  1.5989 -2.2517  0.7117
  721MOL0     H99435  10.821   3.403  11.181  0.1824  1.3287  1.0963
  721MOL0     H99436  10.861   3.337  11.350  4.7157 -1.1139  0.1700
  721MOL0     H99437  11.066   3.231  11.241  0.8615 -0.2213 -0.8075
  721MOL0     H99438  11.035   3.314  11.097 -1.5955  0.0255 -1.0583
  721MOL0     H99439  11.075   3.454  11.372  1.3373  4.7243  0.2510
  721MOL0     H99440  11.035   3.532  11.223 -0.3568 -0.1432  1.6037
  721MOL0     H99441  11.268   3.352  11.248 -1.8223 -1.8442 -0.2691
  721MOL0     H99442  11.228   3.447  11.097  4.0716 -0.9852 -0.3785
  721MOL0     H99443  11.285   3.570  11.363  0.7131 -2.6298  0.8583
  721MOL0     H99444  11.255   3.658  11.212 -0.4997 -1.3273 -1.0377
  721MOL0     H99445  11.499   3.621  11.309  1.2987 -2.2273  0.2199
  721MOL0     H99446  11.485   3.453  11.257  2.0272  0.5577  1.6435
  721MOL0     H99447  11.401   3.804  11.086 -1.7538 -0.4545  0.1961
  721MOL0     H99448  11.301   3.786  10.771  0.0473  1.7430 -1.0045
  721MOL0     H99449  11.463   3.741  10.694  1.0035  1.9111 -1.0176
  721MOL0     H99450  11.383   3.973  10.860 -2.1046 -0.8619 -1.0100
  721MOL0     H99451  11.558   3.912  10.868 -0.3715  0.3983 -0.4559
  721MOL0     H99452  11.576   4.067  10.695 -0.7116  0.0588 -0.5516
  721MOL0     H99453  11.523   3.922  10.608 -1.4015 -1.7795  1.1533
  721MOL0     H99454  11.309   4.004  10.583 -1.0512  0.7893  0.3917
  721MOL0     H99455  11.312   4.118  10.714  1.6231  0.2098  0.1845
  721MOL0     H99456  11.257   4.138  10.363 -0.1782  1.2309 -0.9937
  721MOL0     H99457  11.194   4.187  10.155 -0.6507 -1.8285  0.6950
  721MOL0     H99458  11.241   4.055  10.044 -0.8952  2.5385 -3.6985
  721MOL0     H99459  11.307   4.220  10.022 -3.9656  0.5486 -1.8263
  721MOL0     H99460  11.662   4.143   9.766 -0.3875  0.3662  0.5112
  721MOL0     H99461  11.826   4.159   9.577  0.3952  1.6605  1.2730
  721MOL0     H99462  11.985   4.066   9.430 -1.6369  1.9404  1.4591
  721MOL0     H99463  12.016   4.224   9.471  1.1363  0.5346 -1.4841
  721MOL0     H99464  12.283   4.172   9.465 -0.3007  1.1644 -0.9735
  721MOL0     H99465  12.238   4.023   9.423 -1.0284  0.1532 -1.1844
  721MOL0     H99466  12.160   4.284   9.261 -0.7441 -0.0020 -1.8832
  721MOL0     H99467  12.121   4.119   9.215  2.7889 -2.0906 -2.3081
  721MOL0     H99468  12.303   4.159   9.089  0.0900 -0.7817 -0.0079
  721MOL0     H99469  12.374   4.069   9.214 -0.7478 -1.1307 -1.1047
  721MOL0     H99470  12.373   4.370   9.194 -0.9423 -0.4109  0.2347
  721MOL0     H99471  12.458   4.275   9.319 -0.0289  3.1354 -0.3671
  721MOL0     H99472  12.529   4.240   9.012  2.1528 -0.1567 -0.4604
  721MOL0     H99473  12.612   4.180   9.127  0.2952 -1.3591 -2.5056
  721MOL0     H99474  12.683   4.375   9.223  1.4649 -1.7057 -1.3130
  721MOL0     H99475  12.576   4.483   9.117 -4.4842 -2.2771  1.0103
  721MOL0     H99476  12.805   4.310   9.018 -0.2339  0.3085  2.3319
  721MOL0     H99477  12.824   4.487   9.074 -0.2268 -0.1385  1.5991
  721MOL0     H99478  12.136   4.004   9.812 -0.0137 -0.7381  0.5540
  721MOL0     H99479  11.985   3.982  10.003 -1.4814 -2.9789 -1.6564
  721MOL0     H99480  11.736   4.077  10.262  0.5527  0.9546 -0.5902
  721MOL0     H99481  11.666   4.125  10.476 -0.1347 -1.6673 -0.2535
  721MOL0     H99482  10.412   3.291  11.235 -0.4165 -0.5304 -1.6961
  721MOL0     H99483  10.179   3.276  11.269  2.0358  1.6363 -0.2751
  721MOL0     H99484   9.821   2.970  11.482 -0.1279  0.0495 -0.8093
  721MOL0     H99485   9.639   2.979  11.624 -0.0774 -1.0257 -1.0955
  721MOL0     H99486   9.490   3.052  11.799 -2.5937 -0.3494  2.6883
  721MOL0     H99487   9.377   3.176  11.836  2.6814  1.6091  0.1217
  721MOL0     H99488   9.274   2.984  11.699  0.2883 -0.6223 -0.6417
  721MOL0     H99489   9.369   3.044  11.566 -2.8001 -0.1344 -1.5303
  721MOL0     H99490   9.114   3.139  11.624 -0.4581  0.8860 -0.6964
  721MOL0     H99491   9.200   3.243  11.723  0.8364 -3.2501  0.9153
  721MOL0     H99492   9.225   3.203  11.430 -0.1882 -1.3105  0.6831
  721MOL0     H99493   9.363   3.283  11.503 -0.6694 -0.6566  0.0629
  721MOL0     H99494   9.035   3.576  11.515 -3.4186 -1.4938  0.7155
  721MOL0     H99495   9.629   3.410  11.556  2.0479  0.4928  1.2425
  721MOL0     H99496   9.797   3.429  11.300 -3.0679 -2.6576  1.4073
  721MOL0     H99497   9.807   3.519  11.451 -2.9078  1.7976 -3.8660
  721MOL0     H99498   9.943   3.432  11.389  0.1168 -1.4823 -1.1426
  722MOL0     O99499  11.324   7.799   2.570 -0.7222  0.2332  0.2487
  722MOL0     C99500  11.226   7.866   2.592 -0.1123  0.9798 -0.9137
  722MOL0     O99501  11.102   7.823   2.559 -0.2135  0.0875 -0.5780
  722MOL0     C99502  11.086   7.738   2.455 -0.3280 -0.2954  0.3123
  722MOL0     C99503  11.179   7.737   2.343  0.2180  0.1375  0.1659
  722MOL0     C99504  11.139   7.645   2.238 -0.0205 -0.1806  0.7718
  722MOL0     C99505  11.022   7.578   2.230 -0.6273  0.3443 -1.0262
  722MOL0     O99506  10.997   7.509   2.114  0.0242  0.3043 -0.4091
  722MOL0     C99507  10.888   7.409   2.111  0.1357  0.0863 -0.3323
  722MOL0     C99508  10.865   7.362   1.965 -0.1641  0.4564  0.1538
  722MOL0     C99509  10.990   7.316   1.898  0.2610 -0.4688  0.2602
  722MOL0     C99510  10.984   7.279   1.753  0.0379  0.8819 -0.0238
  722MOL0     C99511  11.121   7.278   1.683 -0.5280  0.2058  0.1185
  722MOL0     C99512  11.098   7.266   1.533  0.1783 -0.2800 -0.4209
  722MOL0     C99513  11.229   7.250   1.454 -0.5056  0.4884 -0.1596
  722MOL0     C99514  11.214   7.261   1.306  0.4414  0.8108 -0.6260
  722MOL0     N99515  11.174   7.398   1.285 -0.2584 -0.5257  0.1784
  722MOL0     C99516  11.047   7.435   1.245  0.1637  0.2895 -0.0673
  722MOL0     C99517  11.072   7.564   1.216  0.1531 -0.0015 -0.9103
  722MOL0     C99518  10.974   7.658   1.160 -0.8284  0.1973 -0.1964
  722MOL0     C99519  10.852   7.690   1.246  0.0510  0.3099  0.4606
  722MOL0     C99520  10.767   7.802   1.182 -0.4268 -0.0604  0.9544
  722MOL0     C99521  10.618   7.799   1.217 -0.3816  0.4129 -0.4320
  722MOL0     O99522  10.547   7.911   1.163 -0.3104  0.1971  0.6537
  722MOL0     C99523  10.433   7.940   1.233  0.2879  0.0600 -0.1637
  722MOL0     C99524  10.329   7.848   1.252  0.5683 -0.3856 -0.9214
  722MOL0     C99525  10.216   7.885   1.325  0.2058  0.0378 -0.3669
  722MOL0     C99526  10.114   7.774   1.341 -0.4536 -0.0355 -0.2822
  722MOL0     C99527  10.190   8.020   1.362 -1.1961 -0.4169  0.0818
  722MOL0     C99528  10.072   8.077   1.435  0.3317  0.6553 -0.1937
  722MOL0     O99529  10.040   8.210   1.426 -0.3282 -0.1741  0.3523
  722MOL0     C99530   9.949   8.273   1.513 -0.9025  0.5246  0.2031
  722MOL0     C99531   9.856   8.355   1.454 -0.8067 -0.6772 -0.5530
  722MOL0     C99532   9.780   8.440   1.540  0.5508  0.9046 -0.5933
  722MOL0     C99533   9.801   8.428   1.678  1.0709 -0.0869 -0.0366
  722MOL0     O99534   9.709   8.498   1.765  0.5621 -0.3380  0.3549
  722MOL0     C99535   9.625   8.408   1.844  0.7658  0.6445 -0.0807
  722MOL0     C99536   9.484   8.461   1.890  0.9281  1.3936  0.1419
  722MOL0     C99537   9.398   8.510   1.768 -0.3150 -1.1148  0.7378
  722MOL0     C99538   9.349   8.408   1.678  0.8322  0.5053  0.2580
  722MOL0     C99539   9.268   8.461   1.556 -0.1135  0.2031 -0.9491
  722MOL0     C99540   9.192   8.342   1.496  0.9985 -0.4888 -0.3384
  722MOL0     C99541   9.110   8.392   1.369 -0.6965  0.0732  0.3838
  722MOL0     C99542   8.992   8.294   1.351  0.3421 -0.2079  0.2460
  722MOL0    Cl99543   8.888   8.345   1.207 -0.1974 -0.2559  0.4148
  722MOL0     C99544   9.906   8.355   1.743 -0.3800 -0.4037 -0.1288
  722MOL0     C99545   9.973   8.276   1.652 -0.1294  0.5784 -0.5069
  722MOL0     O99546  10.005   8.000   1.499  0.1339  0.2924  0.1719
  722MOL0     C99547  10.291   8.117   1.335 -0.2441  0.8753  0.0681
  722MOL0     C99548  10.410   8.074   1.279  0.4947  0.3962  0.6037
  722MOL0     N99549  11.190   7.605   1.269 -0.7373  0.0655  0.7709
  722MOL0     N99550  11.260   7.506   1.294  0.4321 -0.1958 -0.0453
  722MOL0     C99551  10.939   7.589   2.341  0.0222 -0.0367 -0.0861
  722MOL0     C99552  10.970   7.664   2.452  0.1576  0.2216  0.6635
  722MOL0     C99553  11.239   7.987   2.675 -0.2080 -0.6987 -0.1705
  722MOL0     C99554  11.123   8.019   2.755 -0.7422  0.1678  0.9137
  722MOL0     C99555  11.128   8.122   2.844  0.5319 -0.8008 -0.0453
  722MOL0     C99556  11.247   8.193   2.870  0.1628  0.5280 -0.6064
  722MOL0     O99557  11.242   8.292   2.969  0.4109 -0.1742 -0.7524
  722MOL0     C99558  11.359   8.383   2.982  0.6042 -0.0411  0.5627
  722MOL0     C99559  11.311   8.511   3.060 -0.6546 -0.2759 -0.0663
  722MOL0     C99560  11.230   8.496   3.184  0.0146  0.0531 -0.6104
  722MOL0     C99561  11.293   8.389   3.285  0.3868  0.2985 -0.9387
  722MOL0     C99562  11.221   8.399   3.416 -0.1688 -0.0419  0.3545
  722MOL0     C99563  11.164   8.406   3.524 -0.0193  0.4142 -0.6963
  722MOL0     C99564  11.358   8.164   2.787  0.1619 -0.1223 -0.1870
  722MOL0     C99565  11.358   8.062   2.695 -0.8577 -0.3877  0.2844
  722MOL0     C99566  11.465   8.024   2.596  0.5925  0.6534 -0.0578
  722MOL0     H99567  11.278   7.780   2.345  1.7572 -3.1225  1.3103
  722MOL0     H99568  11.203   7.621   2.153  1.5222  1.0185  1.5470
  722MOL0     H99569  10.793   7.442   2.154  1.6009  1.3770  2.1822
  722MOL0     H99570  10.916   7.329   2.180 -2.2761 -0.4055  0.1729
  722MOL0     H99571  10.778   7.297   1.967  0.0116  0.2292  0.4490
  722MOL0     H99572  10.834   7.455   1.915  0.7094  0.0682 -1.1738
  722MOL0     H99573  11.063   7.397   1.909  2.0614 -1.6100 -2.1971
  722MOL0     H99574  11.030   7.229   1.952  0.2055 -0.3870  0.4339
  722MOL0     H99575  10.936   7.184   1.728  1.7917  0.6460 -3.0301
  722MOL0     H99576  10.917   7.343   1.694 -0.9679 -0.5999 -0.5373
  722MOL0     H99577  11.176   7.192   1.722  0.6955  1.4451  1.2268
  722MOL0     H99578  11.176   7.371   1.703  0.8482 -0.2374 -1.3447
  722MOL0     H99579  11.032   7.183   1.507  1.3928 -0.3763 -3.6276
  722MOL0     H99580  11.041   7.350   1.492  2.0251 -0.1282 -2.9258
  722MOL0     H99581  11.269   7.150   1.477  2.1985  1.5373  0.0561
  722MOL0     H99582  11.302   7.329   1.474 -1.2882  0.9384  1.0878
  722MOL0     H99583  11.306   7.231   1.256 -1.1235 -2.7699 -1.6703
  722MOL0     H99584  11.134   7.191   1.283 -0.0519  0.3744  2.0265
  722MOL0     H99585  10.964   7.373   1.214 -0.1656  2.4257 -4.3088
  722MOL0     H99586  10.946   7.624   1.060  0.0772  1.2310 -0.8305
  722MOL0     H99587  11.026   7.752   1.140  0.3299  0.0521  1.8963
  722MOL0     H99588  10.788   7.602   1.251  0.1418 -0.0444 -2.5816
  722MOL0     H99589  10.874   7.717   1.349 -0.2640  0.1388  0.5757
  722MOL0     H99590  10.801   7.904   1.201  0.6227 -0.2030 -0.0614
  722MOL0     H99591  10.785   7.801   1.074  5.4068  1.7549  1.5713
  722MOL0     H99592  10.574   7.703   1.189 -1.2133  1.6905 -4.1635
  722MOL0     H99593  10.615   7.807   1.326  2.7086 -0.9575 -0.1438
  722MOL0     H99594  10.344   7.750   1.207 -3.4186 -1.6849  0.1664
  722MOL0     H99595  10.150   7.678   1.303  0.4048 -0.6148  1.8475
  722MOL0     H99596  10.023   7.795   1.284  2.0119  1.5647 -4.0374
  722MOL0     H99597  10.080   7.769   1.445 -0.0488  1.0443 -0.0821
  722MOL0     H99598   9.841   8.365   1.347 -1.4818  0.5172 -0.3732
  722MOL0     H99599   9.711   8.510   1.494  1.3941  0.1164 -3.2210
  722MOL0     H99600   9.616   8.314   1.788  1.9016 -0.5337  1.6284
  722MOL0     H99601   9.697   8.384   1.923  2.3834 -1.6958 -2.0820
  722MOL0     H99602   9.440   8.376   1.943  3.7741 -0.1145  0.2976
  722MOL0     H99603   9.495   8.541   1.964  0.1198  2.4306 -0.8176
  722MOL0     H99604   9.453   8.581   1.706 -0.8714 -0.9455  0.4399
  722MOL0     H99605   9.308   8.559   1.805 -1.7205 -1.4443 -1.9687
  722MOL0     H99606   9.291   8.341   1.743  1.5385 -1.1870 -0.7813
  722MOL0     H99607   9.425   8.338   1.643  1.4338  1.3794 -0.2159
  722MOL0     H99608   9.204   8.540   1.596  0.9619  1.6562 -1.9823
  722MOL0     H99609   9.329   8.507   1.478  1.8239 -0.5712  0.0373
  722MOL0     H99610   9.125   8.320   1.579 -0.7547  0.2941 -1.4624
  722MOL0     H99611   9.256   8.255   1.479  1.5189 -1.5576  5.2318
  722MOL0     H99612   9.173   8.378   1.281 -1.0822  0.5867  0.0210
  722MOL0     H99613   9.088   8.498   1.381 -0.8002  0.0437  0.4583
  722MOL0     H99614   8.924   8.291   1.436 -0.3501  0.9440 -0.2329
  722MOL0     H99615   9.036   8.196   1.327 -1.5260 -1.0162 -0.0518
  722MOL0     H99616   9.935   8.353   1.848  2.4341 -2.1668 -0.8351
  722MOL0     H99617  10.059   8.221   1.689 -2.1461 -1.6101  1.1958
  722MOL0     H99618  10.280   8.222   1.358  0.4124  0.9524  0.0401
  722MOL0     H99619  10.483   8.152   1.267 -0.0857  0.7492 -0.8813
  722MOL0     H99620  10.839   7.548   2.339  0.2372 -0.5722 -1.5308
  722MOL0     H99621  10.907   7.674   2.539  2.0641  3.6773  1.8225
  722MOL0     H99622  11.029   7.967   2.744  0.4121 -1.4295 -4.1997
  722MOL0     H99623  11.048   8.139   2.916 -0.5457 -0.4023 -1.2965
  722MOL0     H99624  11.432   8.320   3.033 -3.0612 -2.6323  3.1836
  722MOL0     H99625  11.392   8.419   2.884  4.3130 -0.4034  1.5470
  722MOL0     H99626  11.251   8.582   3.002 -1.0130  2.1954  3.1029
  722MOL0     H99627  11.406   8.562   3.074 -0.6015  0.2727 -2.1133
  722MOL0     H99628  11.219   8.594   3.231 -1.0754 -0.9247  1.3254
  722MOL0     H99629  11.129   8.462   3.159  0.4284 -1.2509 -0.5680
  722MOL0     H99630  11.401   8.405   3.301  0.3774  0.8251 -1.3808
  722MOL0     H99631  11.290   8.288   3.244  1.2106  0.4392 -1.3645
  722MOL0     H99632  11.119   8.406   3.621  0.2332  2.8488 -0.5135
  722MOL0     H99633  11.450   8.216   2.810  0.2242 -0.7567  1.1403
  722MOL0     H99634  11.427   7.998   2.497  2.5728  1.5370 -1.1105
  722MOL0     H99635  11.537   8.104   2.572  0.3552  0.3001 -2.1883
  722MOL0     H99636  11.523   7.935   2.621 -0.7675 -0.7464 -1.6296
  723MOL0     O99637   3.420   2.142   9.307  0.5007 -0.3046  0.6012
  723MOL0     C99638   3.306   2.155   9.353 -1.2396 -0.1134  0.5270
  723MOL0     O99639   3.277   2.230   9.460 -0.4856 -0.5949 -0.5160
  723MOL0     C99640   3.362   2.331   9.491  0.4428 -0.0564  0.3817
  723MOL0     C99641   3.418   2.425   9.403 -0.1579  0.0430  0.4269
  723MOL0     C99642   3.500   2.527   9.448 -0.8467 -0.4718  0.5246
  723MOL0     C99643   3.525   2.546   9.581 -0.4788 -0.1793 -0.1386
  723MOL0     O99644   3.594   2.660   9.618  0.0701  0.7364 -0.5976
  723MOL0     C99645   3.711   2.699   9.532 -0.3188  0.0609 -0.0371
  723MOL0     C99646   3.818   2.784   9.607  0.5286  0.7862 -0.0605
  723MOL0     C99647   3.793   2.936   9.594  0.3354  0.3115  0.2030
  723MOL0     C99648   3.928   3.007   9.613  0.7852 -0.4592  0.1860
  723MOL0     C99649   3.908   3.157   9.624 -0.4532 -0.2277  0.4516
  723MOL0     C99650   4.042   3.221   9.664  0.1113 -0.6260  0.0617
  723MOL0     C99651   4.046   3.375   9.654  0.0402 -0.4259 -1.0164
  723MOL0     C99652   3.921   3.442   9.712  0.1305  0.1795  0.3705
  723MOL0     N99653   3.927   3.591   9.719 -0.7818  0.1756  0.3830
  723MOL0     C99654   4.035   3.669   9.772 -0.4961  0.0822  0.2061
  723MOL0     C99655   4.030   3.791   9.723  0.4686  0.0871 -0.7490
  723MOL0     C99656   4.107   3.919   9.725 -0.0329 -0.0001  0.8748
  723MOL0     C99657   4.115   3.989   9.865  0.0449  0.1166  0.8430
  723MOL0     C99658   4.209   3.922   9.959 -0.7491  0.2486 -0.1237
  723MOL0     C99659   4.236   4.014  10.081  0.0915 -0.1965 -0.5516
  723MOL0     O99660   4.354   4.091  10.057 -0.5402 -0.1856 -0.5988
  723MOL0     C99661   4.445   4.117  10.157 -0.1300  0.0650  0.2504
  723MOL0     C99662   4.415   4.118  10.298 -0.8119 -0.3725 -0.3583
  723MOL0     C99663   4.511   4.152  10.391 -0.6353 -0.2738 -0.6259
  723MOL0     C99664   4.479   4.159  10.533  0.6849  0.6304  0.5588
  723MOL0     C99665   4.645   4.177  10.344 -0.2346  0.4372 -0.1035
  723MOL0     C99666   4.751   4.223  10.441 -0.4226  0.2046  0.7210
  723MOL0     O99667   4.833   4.322  10.392 -0.1473  0.0326  0.9011
  723MOL0     C99668   4.922   4.377  10.482  0.0992  1.0403  0.3001
  723MOL0     C99669   4.893   4.421  10.611 -0.7682  1.1484 -0.6959
  723MOL0     C99670   4.990   4.492  10.674  0.3861  0.3148 -0.4957
  723MOL0     C99671   5.116   4.521  10.625 -0.9436  0.3306  1.2178
  723MOL0     O99672   5.203   4.615  10.683  0.2951  0.0429  0.7258
  723MOL0     C99673   5.228   4.616  10.820 -0.5756 -1.1143  0.4268
  723MOL0     C99674   5.367   4.579  10.870  1.1132  0.4008 -0.1370
  723MOL0     C99675   5.409   4.430  10.839 -0.0563  0.5691  0.1238
  723MOL0     C99676   5.551   4.408  10.884  0.3967 -0.8322 -0.9501
  723MOL0     C99677   5.589   4.263  10.901  0.3010 -0.3689  0.4582
  723MOL0     C99678   5.735   4.233  10.925  0.1195 -0.3643  0.9183
  723MOL0     C99679   5.829   4.295  10.819  0.0684  0.0512  0.1042
  723MOL0     C99680   5.972   4.253  10.865 -0.5623 -0.4936  0.7061
  723MOL0    Cl99681   6.088   4.318  10.739 -0.0693  0.3733  0.0308
  723MOL0     C99682   5.137   4.481  10.500 -0.4835 -0.2663  0.2627
  723MOL0     C99683   5.047   4.405  10.432 -0.4508  0.3818 -0.1106
  723MOL0     O99684   4.770   4.157  10.543 -0.4142  0.0953  0.4524
  723MOL0     C99685   4.674   4.175  10.214  0.3808 -0.1516  0.0094
  723MOL0     C99686   4.570   4.142  10.118 -0.2936  0.0524  0.2795
  723MOL0     N99687   3.916   3.788   9.644  0.3564  0.6598 -0.4978
  723MOL0     N99688   3.858   3.670   9.643 -0.4860 -0.5230  0.0301
  723MOL0     C99689   3.470   2.460   9.679  0.0431  0.3678 -0.4171
  723MOL0     C99690   3.389   2.349   9.633 -0.1985 -0.4138  0.5753
  723MOL0     C99691   3.187   2.080   9.285  0.3296 -0.2974  0.2550
  723MOL0     C99692   3.058   2.079   9.346 -0.8143 -0.3243 -1.3801
  723MOL0     C99693   2.954   2.001   9.303  0.5201  0.2220  0.3296
  723MOL0     C99694   2.969   1.909   9.203 -0.0082 -0.2003 -0.1764
  723MOL0     O99695   2.863   1.829   9.176  0.2789  0.1068  0.7099
  723MOL0     C99696   2.874   1.732   9.068  0.7549 -0.6018  0.3012
  723MOL0     C99697   2.952   1.605   9.097 -0.6041  0.5554  0.1259
  723MOL0     C99698   2.890   1.522   9.204 -0.0243  0.6985  0.1645
  723MOL0     C99699   2.966   1.393   9.241 -0.6039 -0.6040  0.5635
  723MOL0     C99700   2.903   1.282   9.174  0.5237 -0.4328  0.3157
  723MOL0     C99701   2.841   1.191   9.133 -0.1102  0.1223  0.4210
  723MOL0     C99702   3.083   1.913   9.137  0.2401 -1.2348 -0.3368
  723MOL0     C99703   3.192   1.997   9.173 -0.2671  0.2487 -0.2406
  723MOL0     C99704   3.311   1.975   9.089 -0.1430 -0.1462  0.3455
  723MOL0     H99705   3.402   2.414   9.297 -0.5585 -1.4403  0.6201
  723MOL0     H99706   3.539   2.601   9.379 -0.2465  1.1771  2.5353
  723MOL0     H99707   3.681   2.760   9.446 -1.6209 -1.1924 -0.5075
  723MOL0     H99708   3.749   2.612   9.479 -1.6430  0.2732 -1.4111
  723MOL0     H99709   3.823   2.759   9.714 -2.1911  0.4017  0.0607
  723MOL0     H99710   3.910   2.756   9.555 -0.3235  0.3166 -1.3688
  723MOL0     H99711   3.748   2.967   9.499  0.1701 -2.8349 -0.8727
  723MOL0     H99712   3.729   2.965   9.677  0.5998 -1.8624  1.2416
  723MOL0     H99713   3.964   2.980   9.713 -1.8735  1.7488  1.8758
  723MOL0     H99714   4.002   2.980   9.536  0.0209  0.7901 -1.0410
  723MOL0     H99715   3.826   3.176   9.695 -1.0911 -0.6372 -0.1598
  723MOL0     H99716   3.877   3.202   9.529 -3.2452  0.2865  1.4849
  723MOL0     H99717   4.081   3.182   9.758  0.9839 -1.3372 -0.5789
  723MOL0     H99718   4.124   3.184   9.602  0.1553 -0.3192 -0.0669
  723MOL0     H99719   4.058   3.407   9.551  0.3748  0.2912 -0.7582
  723MOL0     H99720   4.134   3.392   9.716  0.3316 -1.9147 -0.9834
  723MOL0     H99721   3.834   3.409   9.655 -0.7982  1.4032  1.0425
  723MOL0     H99722   3.908   3.393   9.809  0.9815 -4.8097 -1.7159
  723MOL0     H99723   4.113   3.633   9.840  1.6318  1.5338 -1.3521
  723MOL0     H99724   4.057   3.989   9.657  0.0710 -1.0207 -0.2827
  723MOL0     H99725   4.211   3.901   9.699  1.0938  1.4392  3.9176
  723MOL0     H99726   4.149   4.093   9.870 -3.3500  1.3994  0.3395
  723MOL0     H99727   4.016   3.984   9.913 -0.6419 -0.3900 -0.5635
  723MOL0     H99728   4.152   3.838  10.000  0.4468  1.4239  4.5705
  723MOL0     H99729   4.304   3.887   9.917 -0.0550  1.5591  0.3142
  723MOL0     H99730   4.147   4.076  10.099  1.9771  2.2017  1.2247
  723MOL0     H99731   4.256   3.960  10.174  3.4630 -1.9736 -2.1352
  723MOL0     H99732   4.316   4.086  10.331  0.0081 -1.8574  0.8383
  723MOL0     H99733   4.527   4.070  10.575 -0.2833 -0.4231 -0.5063
  723MOL0     H99734   4.373   4.147  10.554  0.2496 -0.0831 -1.7764
  723MOL0     H99735   4.524   4.249  10.577 -0.1060  0.3303  2.0323
  723MOL0     H99736   4.799   4.416  10.665  1.0589  0.2214  2.6442
  723MOL0     H99737   4.954   4.535  10.767  1.6909  4.7240 -1.7966
  723MOL0     H99738   5.216   4.722  10.844 -4.4625 -0.7566 -2.2895
  723MOL0     H99739   5.159   4.552  10.876 -0.1449 -2.5845 -0.6564
  723MOL0     H99740   5.437   4.654  10.831  0.5324  0.5241 -0.9571
  723MOL0     H99741   5.369   4.601  10.977 -3.6439 -1.6454  0.5965
  723MOL0     H99742   5.392   4.418  10.732  1.2381 -0.8204  0.0424
  723MOL0     H99743   5.348   4.357  10.893 -0.8303 -1.5173 -3.2519
  723MOL0     H99744   5.556   4.459  10.980  0.0215  0.2046 -1.4662
  723MOL0     H99745   5.618   4.465  10.819  1.8076 -1.0937  0.2298
  723MOL0     H99746   5.529   4.207  10.973 -0.9444 -0.6941 -0.7933
  723MOL0     H99747   5.560   4.218  10.806  1.9014  2.4536 -1.5119
  723MOL0     H99748   5.749   4.126  10.937  1.9383 -0.0746  1.7604
  723MOL0     H99749   5.761   4.283  11.019 -0.6396  0.5523  0.6646
  723MOL0     H99750   5.832   4.404  10.818  0.3811  0.0442 -0.0753
  723MOL0     H99751   5.809   4.267  10.715  2.4780 -0.9017 -0.1733
  723MOL0     H99752   5.983   4.145  10.867 -1.1296 -0.5634  0.1151
  723MOL0     H99753   6.003   4.287  10.964  0.2782 -1.1367  0.6701
  723MOL0     H99754   5.228   4.516  10.454 -0.1776 -1.7004 -0.2753
  723MOL0     H99755   5.084   4.365  10.338  1.4072 -1.3259  1.2720
  723MOL0     H99756   4.778   4.191  10.187 -0.2491 -0.7576 -3.0901
  723MOL0     H99757   4.600   4.152  10.014  1.3577  1.7627  0.8525
  723MOL0     H99758   3.483   2.477   9.785 -1.0464 -1.2506  0.0077
  723MOL0     H99759   3.354   2.279   9.707 -1.3535  0.0746  0.5144
  723MOL0     H99760   3.041   2.128   9.441 -4.2078 -0.9383 -1.5585
  723MOL0     H99761   2.857   2.003   9.352 -0.7498 -0.5414 -2.0036
  723MOL0     H99762   2.770   1.710   9.041  0.8088  1.2187 -1.5849
  723MOL0     H99763   2.903   1.774   8.972  1.6987  0.4148  1.0117
  723MOL0     H99764   3.050   1.629   9.140  0.0347  2.4817 -2.1234
  723MOL0     H99765   2.962   1.544   9.007 -1.4156  1.2413 -0.4488
  723MOL0     H99766   2.889   1.581   9.297  0.7925  0.8334  0.0982
  723MOL0     H99767   2.786   1.502   9.175 -0.7429  0.9579  2.3533
  723MOL0     H99768   2.964   1.371   9.348 -0.1898 -3.3847  0.0819
  723MOL0     H99769   3.069   1.402   9.202 -0.4450  1.0962  1.3002
  723MOL0     H99770   2.789   1.105   9.097 -1.7272  0.5938  1.4907
  723MOL0     H99771   3.084   1.858   9.043 -2.5023 -1.2912 -0.4154
  723MOL0     H99772   3.344   2.076   9.063 -0.2412 -0.9962 -3.7844
  723MOL0     H99773   3.387   1.920   9.145  1.3246  0.7087 -0.7258
  723MOL0     H99774   3.297   1.929   8.990  2.2367  1.5105 -0.8639
  724MOL0     O99775   0.923   7.014  10.074  0.3824 -0.1764 -0.2530
  724MOL0     C99776   0.893   7.120  10.134 -0.0776  0.4663 -0.8020
  724MOL0     O99777   0.984   7.219  10.183  0.8192 -0.2787  0.4962
  724MOL0     C99778   1.116   7.206  10.151 -0.5834  0.4299 -0.3399
  724MOL0     C99779   1.192   7.098  10.194 -0.0758  0.8864  0.8891
  724MOL0     C99780   1.329   7.090  10.164  0.1501 -0.1700  0.0742
  724MOL0     C99781   1.394   7.203  10.113 -0.4463 -0.3065 -0.9580
  724MOL0     O99782   1.535   7.207  10.117  0.1808 -0.2521  0.1501
  724MOL0     C99783   1.602   7.338  10.098  0.4755  0.1359  0.4537
  724MOL0     C99784   1.746   7.326  10.147  0.3794 -0.3331  0.1673
  724MOL0     C99785   1.831   7.229  10.061  0.4915  1.1473 -0.1498
  724MOL0     C99786   1.843   7.091  10.129 -0.0271  1.4356  0.3826
  724MOL0     C99787   1.950   7.006  10.052  0.0830 -0.6900 -0.1407
  724MOL0     C99788   1.963   6.869  10.109  0.0374 -0.0761 -0.5723
  724MOL0     C99789   2.045   6.781  10.007  0.8401  0.0953 -0.2041
  724MOL0     C99790   2.201   6.771  10.026 -0.6517 -0.4345  0.2918
  724MOL0     N99791   2.278   6.729   9.902  0.1652 -0.0971  0.2337
  724MOL0     C99792   2.339   6.817   9.808  0.0488 -0.0079 -0.2064
  724MOL0     C99793   2.392   6.728   9.714 -0.2487  0.2217 -0.5470
  724MOL0     C99794   2.489   6.753   9.602 -0.4935 -0.5939 -0.7848
  724MOL0     C99795   2.617   6.804   9.665  0.5577  0.5263  1.0269
  724MOL0     C99796   2.718   6.838   9.552 -0.1033 -0.0422 -0.5176
  724MOL0     C99797   2.832   6.924   9.613  0.4132  0.2924  0.3205
  724MOL0     O99798   2.901   6.838   9.697 -0.3490  0.3274 -0.5997
  724MOL0     C99799   2.999   6.890   9.782  0.1589 -0.1169  0.9226
  724MOL0     C99800   3.043   7.021   9.783  0.1691 -0.1198 -0.1820
  724MOL0     C99801   3.142   7.064   9.872  0.0472 -0.6195  0.7071
  724MOL0     C99802   3.160   7.207   9.906  0.8790  0.4748  0.2547
  724MOL0     C99803   3.199   6.965   9.959 -0.0873  1.3708 -0.0268
  724MOL0     C99804   3.301   6.989  10.064 -0.4532  0.0979 -0.6109
  724MOL0     O99805   3.301   6.895  10.169 -0.2433 -0.1891  0.0900
  724MOL0     C99806   3.354   6.926  10.290 -0.3441  0.0143 -0.4345
  724MOL0     C99807   3.488   6.932  10.308 -0.4388  0.1874  0.1658
  724MOL0     C99808   3.548   6.960  10.426  0.1056  0.5308 -0.0837
  724MOL0     C99809   3.466   6.965  10.539  0.2836  0.5198  0.5135
  724MOL0     O99810   3.531   6.973  10.655 -0.5889 -0.1739 -0.4012
  724MOL0     C99811   3.485   6.885  10.755 -0.0650  0.6607  0.1316
  724MOL0     C99812   3.563   6.895  10.888  0.1396  0.6173 -0.2287
  724MOL0     C99813   3.708   6.851  10.869  1.0177  0.2593 -0.6361
  724MOL0     C99814   3.780   6.875  11.005 -0.5851  0.9555  1.0894
  724MOL0     C99815   3.929   6.835  10.988  0.0124 -0.3963 -0.4095
  724MOL0     C99816   4.001   6.872  11.121 -0.3390  0.1264 -0.9492
  724MOL0     C99817   4.155   6.887  11.097  0.2382 -0.8175  0.1293
  724MOL0     C99818   4.225   6.936  11.229  0.0332 -0.6231  0.1994
  724MOL0    Cl99819   4.234   6.810  11.361  0.1480 -0.4761  0.3567
  724MOL0     C99820   3.327   6.947  10.528 -0.5097  0.7038 -0.0378
  724MOL0     C99821   3.272   6.933  10.400 -0.0757  0.3316  0.1195
  724MOL0     O99822   3.363   7.091  10.066 -0.4133 -0.0573  0.1552
  724MOL0     C99823   3.156   6.828   9.955  0.7226  0.9797 -0.2882
  724MOL0     C99824   3.053   6.795   9.872 -0.8391  0.5932  0.1231
  724MOL0     N99825   2.344   6.601   9.747 -0.1960  0.8903 -0.2567
  724MOL0     N99826   2.270   6.602   9.855  0.0456  0.5632 -0.6965
  724MOL0     C99827   1.317   7.314  10.073 -0.5756 -0.0375 -0.1484
  724MOL0     C99828   1.178   7.324  10.092  0.9860  0.8985 -0.3277
  724MOL0     C99829   0.750   7.138  10.173  0.4686  0.5302 -0.1273
  724MOL0     C99830   0.649   7.127  10.081 -0.2127 -0.3263 -0.6547
  724MOL0     C99831   0.522   7.155  10.111  0.6680  0.0630 -0.3428
  724MOL0     C99832   0.484   7.174  10.246 -0.4098 -0.1696  1.0959
  724MOL0     O99833   0.348   7.186  10.255 -0.2560  0.0378 -0.0784
  724MOL0     C99834   0.286   7.225  10.376  0.9184  0.6165 -0.7122
  724MOL0     C99835   0.150   7.267  10.318  0.9274 -0.3261  0.4844
  724MOL0     C99836   0.048   7.156  10.277  0.0412  0.3280  0.3272
  724MOL0     C99837  -0.003   7.094  10.411  0.3761  0.7196  0.0823
  724MOL0     C99838  -0.135   7.026  10.388 -0.1114 -0.6330 -0.1760
  724MOL0     C99839  -0.243   6.968  10.373 -0.0629 -0.0792 -0.5207
  724MOL0     C99840   0.586   7.177  10.347  0.3079 -0.2764  0.0174
  724MOL0     C99841   0.716   7.162  10.311  0.5618 -0.4391  0.1013
  724MOL0     C99842   0.812   7.158  10.425  0.3069 -0.5363  0.7688
  724MOL0     H99843   1.133   7.019  10.238 -1.7474  0.8149 -1.2756
  724MOL0     H99844   1.390   7.016  10.214 -0.1328 -1.8239 -1.8999
  724MOL0     H99845   1.556   7.411  10.165 -0.4278 -0.8773  0.9684
  724MOL0     H99846   1.590   7.386  10.001 -0.2907  0.4479  0.6916
  724MOL0     H99847   1.788   7.426  10.131 -2.6060  0.8761 -0.7251
  724MOL0     H99848   1.742   7.297  10.253 -2.9800 -1.3175 -0.1119
  724MOL0     H99849   1.800   7.227   9.956 -0.5583  1.2795  0.1506
  724MOL0     H99850   1.934   7.266  10.055  0.4965  1.2386  0.4638
  724MOL0     H99851   1.865   7.108  10.234 -3.3633  3.5032  0.8818
  724MOL0     H99852   1.749   7.037  10.121  0.8178 -0.0837  0.3065
  724MOL0     H99853   2.047   7.058  10.047  0.6442 -1.7296 -0.2432
  724MOL0     H99854   1.909   6.991   9.952 -0.4623 -0.4236  0.0391
  724MOL0     H99855   2.005   6.864  10.210 -1.0527 -2.7617 -0.1786
  724MOL0     H99856   1.870   6.817  10.132 -1.0981  1.4863 -1.4849
  724MOL0     H99857   2.036   6.810   9.901  1.1381 -1.5792 -0.7189
  724MOL0     H99858   2.004   6.682  10.027  2.9347 -0.6890  0.4722
  724MOL0     H99859   2.236   6.865  10.069  2.1813 -1.1467 -0.2598
  724MOL0     H99860   2.230   6.698  10.102 -0.5057  0.2442  0.9050
  724MOL0     H99861   2.342   6.926   9.808 -2.0755  0.1847 -3.2823
  724MOL0     H99862   2.448   6.833   9.540 -1.0836  0.7108  1.1722
  724MOL0     H99863   2.493   6.663   9.539 -1.6956 -0.7902 -0.6045
  724MOL0     H99864   2.595   6.894   9.723 -0.7599  0.1592  1.1340
  724MOL0     H99865   2.660   6.725   9.726 -0.3593 -2.4164 -1.8015
  724MOL0     H99866   2.770   6.747   9.522  1.6592  0.8854 -0.4070
  724MOL0     H99867   2.679   6.880   9.459 -0.2254 -1.0587 -0.9324
  724MOL0     H99868   2.897   6.956   9.531 -0.2930  1.2519  0.1169
  724MOL0     H99869   2.798   7.011   9.669  0.4001  1.1038 -0.9192
  724MOL0     H99870   3.011   7.086   9.702  0.5112 -0.4933 -0.6244
  724MOL0     H99871   3.166   7.226  10.014 -1.7023 -1.8513  0.9154
  724MOL0     H99872   3.077   7.268   9.868  0.1411  0.5249  1.8446
  724MOL0     H99873   3.251   7.251   9.863 -0.8283  2.8456 -1.1656
  724MOL0     H99874   3.548   6.934  10.217 -0.1054 -2.3912  0.2331
  724MOL0     H99875   3.651   6.992  10.438  0.0058  0.8378 -0.0258
  724MOL0     H99876   3.379   6.894  10.781  0.1730  1.7852  0.7315
  724MOL0     H99877   3.491   6.784  10.712 -2.2868  0.2996  0.5207
  724MOL0     H99878   3.553   7.000  10.918 -0.7626  1.2158 -2.3747
  724MOL0     H99879   3.519   6.841  10.972 -0.7295  2.8664  0.8669
  724MOL0     H99880   3.759   6.915  10.797  2.3491 -1.4670 -1.2909
  724MOL0     H99881   3.719   6.748  10.832 -1.8311 -0.1041 -0.7033
  724MOL0     H99882   3.727   6.816  11.080  1.3466 -0.1749  1.6138
  724MOL0     H99883   3.762   6.981  11.029 -0.9562  1.2338 -0.2927
  724MOL0     H99884   3.932   6.726  10.979 -5.4233 -1.2129  3.0124
  724MOL0     H99885   3.983   6.886  10.908  4.0674 -0.2713  2.1292
  724MOL0     H99886   3.975   6.803  11.202 -4.0246  1.1768 -1.0655
  724MOL0     H99887   3.968   6.971  11.153  0.3085  1.1394 -3.1660
  724MOL0     H99888   4.185   6.968  11.030  3.0835 -3.1002 -1.6203
  724MOL0     H99889   4.202   6.795  11.060 -1.0543 -0.8950 -1.4550
  724MOL0     H99890   4.153   7.009  11.268 -0.4781 -1.6744  1.2840
  724MOL0     H99891   4.327   6.975  11.230  0.0168 -0.5357  1.8722
  724MOL0     H99892   3.259   6.934  10.612 -0.0572 -3.2191 -0.0752
  724MOL0     H99893   3.166   6.922  10.381  0.2678 -0.7524 -1.3892
  724MOL0     H99894   3.208   6.752  10.012  4.6736  0.7392 -3.7258
  724MOL0     H99895   3.012   6.695   9.881 -0.7417  0.6832  2.2233
  724MOL0     H99896   1.363   7.402  10.030 -0.8805 -0.0757 -0.5594
  724MOL0     H99897   1.112   7.408  10.073 -0.8299  0.2714  2.4638
  724MOL0     H99898   0.687   7.106   9.981 -1.5769  1.0725 -1.5088
  724MOL0     H99899   0.443   7.137  10.038  0.0433  0.6031  0.1833
  724MOL0     H99900   0.287   7.136  10.440 -1.9986 -0.1689 -1.6080
  724MOL0     H99901   0.335   7.311  10.421  2.0835 -0.2687 -0.2322
  724MOL0     H99902   0.169   7.333  10.232  2.0248  1.4421  1.9890
  724MOL0     H99903   0.095   7.335  10.384  0.5888 -0.0273 -0.0966
  724MOL0     H99904  -0.042   7.201  10.234 -0.8257 -3.3433 -2.1669
  724MOL0     H99905   0.097   7.089  10.206 -0.6615 -1.7050  1.6572
  724MOL0     H99906  -0.006   7.170  10.489 -1.9829  0.7866 -0.0074
  724MOL0     H99907   0.070   7.021  10.447  0.4627  0.4544 -0.6131
  724MOL0     H99908  -0.341   6.928  10.357 -0.5154 -0.2487  2.1228
  724MOL0     H99909   0.555   7.213  10.444 -1.3123 -3.7164  0.9379
  724MOL0     H99910   0.872   7.067  10.417 -0.0070 -0.7418  0.7053
  724MOL0     H99911   0.879   7.243  10.409 -0.9118 -0.0670 -3.1155
  724MOL0     H99912   0.770   7.178  10.524 -0.0279  1.2076  0.3125
  725MOL0     O99913   3.313   5.184   8.769  0.2536  0.1333 -0.2859
  725MOL0     C99914   3.333   5.278   8.697  0.4450  0.1439  0.3045
  725MOL0     O99915   3.441   5.295   8.620 -0.4472  0.2172 -0.2521
  725MOL0     C99916   3.565   5.257   8.663  0.7058  0.7002  0.1856
  725MOL0     C99917   3.599   5.220   8.793 -0.3217  0.2908 -0.0964
  725MOL0     C99918   3.730   5.202   8.837  0.0707 -0.1886  0.6230
  725MOL0     C99919   3.837   5.211   8.744 -0.0970  0.9614  0.1988
  725MOL0     O99920   3.967   5.194   8.790 -0.1571  0.4529  0.5284
  725MOL0     C99921   4.068   5.275   8.728 -0.2784  0.2403 -0.5422
  725MOL0     C99922   4.060   5.415   8.791 -0.6508 -0.2058 -0.0691
  725MOL0     C99923   4.188   5.505   8.767  0.0749  0.0448 -0.0967
  725MOL0     C99924   4.200   5.545   8.619 -0.2883 -0.0677  0.5475
  725MOL0     C99925   4.316   5.652   8.607 -0.1811  0.1321 -0.8809
  725MOL0     C99926   4.445   5.617   8.683 -0.0060 -0.0357 -0.8369
  725MOL0     C99927   4.536   5.741   8.665 -0.4263  0.7157  0.2748
  725MOL0     C99928   4.671   5.724   8.723  0.5007  0.1020 -0.7026
  725MOL0     N99929   4.752   5.615   8.673  0.3079 -0.7145  0.3250
  725MOL0     C99930   4.845   5.624   8.572  0.0388 -0.7290  0.5233
  725MOL0     C99931   4.877   5.497   8.542  0.5797  0.7955  0.5901
  725MOL0     C99932   4.974   5.459   8.435 -1.2839  0.5556  0.2036
  725MOL0     C99933   5.105   5.509   8.444 -1.4601 -0.4888  0.6467
  725MOL0     C99934   5.179   5.445   8.562 -0.7454  0.1706  0.9100
  725MOL0     C99935   5.326   5.510   8.579  0.1524  0.8055  0.2673
  725MOL0     O99936   5.416   5.452   8.472  0.5141  0.2769 -0.5445
  725MOL0     C99937   5.529   5.389   8.511  0.1542 -0.1021 -0.8232
  725MOL0     C99938   5.595   5.280   8.439  1.0334 -0.2953 -0.0586
  725MOL0     C99939   5.716   5.219   8.480 -0.1026  0.6969 -0.6102
  725MOL0     C99940   5.776   5.106   8.397  0.2417  0.1294 -0.8896
  725MOL0     C99941   5.776   5.269   8.604 -0.2257  0.1141  0.1964
  725MOL0     C99942   5.899   5.223   8.660 -0.2351  1.2556 -0.0647
  725MOL0     O99943   5.985   5.305   8.722  0.2782  0.3093 -0.4544
  725MOL0     C99944   6.121   5.283   8.727  0.0162  0.0640 -0.2691
  725MOL0     C99945   6.192   5.379   8.805 -0.5113 -0.3888 -0.4164
  725MOL0     C99946   6.325   5.372   8.830 -0.4311  0.0069  0.7735
  725MOL0     C99947   6.402   5.264   8.776  0.4340  0.1496  0.0731
  725MOL0     O99948   6.535   5.240   8.798 -0.5277  0.4303 -1.0676
  725MOL0     C99949   6.615   5.338   8.870 -0.5033 -0.1139 -0.3947
  725MOL0     C99950   6.759   5.309   8.815  0.2266 -0.6221 -0.2801
  725MOL0     C99951   6.804   5.169   8.844  0.1454  0.8094  0.2238
  725MOL0     C99952   6.939   5.140   8.775  0.5284 -0.0845 -0.0813
  725MOL0     C99953   6.996   5.011   8.856  0.1280  0.0537  0.7057
  725MOL0     C99954   7.130   4.961   8.797 -0.2907  0.1623  0.4472
  725MOL0     C99955   7.173   4.837   8.870  0.1363  0.5855 -1.4040
  725MOL0     C99956   7.315   4.806   8.830  0.4875 -0.2360  0.7568
  725MOL0    Cl99957   7.316   4.760   8.654  0.2113 -0.0526 -0.1427
  725MOL0     C99958   6.336   5.164   8.698 -1.4783  0.3725 -0.1575
  725MOL0     C99959   6.199   5.177   8.668  0.2062 -0.2646  0.8815
  725MOL0     O99960   5.902   5.097   8.663 -0.3041 -0.2016  0.2200
  725MOL0     C99961   5.721   5.392   8.655 -0.0083 -0.0178  0.1072
  725MOL0     C99962   5.600   5.445   8.613 -0.6119  0.3835 -0.5308
  725MOL0     N99963   4.814   5.411   8.635 -1.2168 -0.1253  0.2208
  725MOL0     N99964   4.740   5.483   8.703  0.1280 -0.9041 -0.2415
  725MOL0     C99965   3.800   5.241   8.611 -0.0910 -0.5614 -0.1680
  725MOL0     C99966   3.662   5.266   8.569  0.5329  0.6761  0.1712
  725MOL0     C99967   3.224   5.368   8.656  0.0886 -0.2474 -0.1861
  725MOL0     C99968   3.196   5.383   8.520  0.1854 -0.5424  1.1093
  725MOL0     C99969   3.093   5.458   8.478  0.1971 -0.0020  0.5990
  725MOL0     C99970   3.009   5.535   8.561 -0.0767  0.5594 -0.1470
  725MOL0     O99971   2.922   5.624   8.500 -0.8323  0.2653  0.3882
  725MOL0     C99972   2.890   5.744   8.565 -0.4711  0.2391  0.2718
  725MOL0     C99973   2.816   5.834   8.464 -0.1336 -0.8432  0.6881
  725MOL0     C99974   2.808   5.971   8.533  0.7040 -0.1275 -0.3542
  725MOL0     C99975   2.725   6.074   8.447  0.7625 -0.6652  0.0037
  725MOL0     C99976   2.640   6.161   8.531 -0.0456  0.0357  0.2297
  725MOL0     C99977   2.573   6.204   8.625  0.3672 -0.2293  0.8246
  725MOL0     C99978   3.022   5.509   8.699 -0.1498  0.6108 -0.3373
  725MOL0     C99979   3.129   5.433   8.740  0.3051 -0.9035 -0.9752
  725MOL0     C99980   3.140   5.406   8.886 -0.5057 -0.1108  0.7008
  725MOL0     H99981   3.522   5.203   8.868 -0.2271 -1.1828 -0.3072
  725MOL0     H99982   3.752   5.191   8.943 -0.2299 -0.3183  0.6741
  725MOL0     H99983   4.054   5.277   8.619  0.4160 -0.8139 -0.6644
  725MOL0     H99984   4.169   5.239   8.749 -0.1438  1.6548  1.6030
  725MOL0     H99985   3.968   5.454   8.746 -0.9849 -2.9499 -2.0487
  725MOL0     H99986   4.048   5.408   8.899  1.5841  1.6462  0.3791
  725MOL0     H99987   4.171   5.598   8.822 -3.9787 -0.0408 -0.8970
  725MOL0     H99988   4.276   5.457   8.812  0.9383  1.4053 -0.2879
  725MOL0     H99989   4.221   5.464   8.548 -3.0671  0.7569 -1.4091
  725MOL0     H99990   4.113   5.602   8.584  0.4236  0.3186 -0.6545
  725MOL0     H99991   4.278   5.749   8.641 -1.5336 -0.3924 -0.8243
  725MOL0     H99992   4.341   5.650   8.501 -0.4430 -2.3453 -0.9534
  725MOL0     H99993   4.432   5.602   8.791  0.3504 -1.2144 -0.9441
  725MOL0     H99994   4.483   5.528   8.632  2.3169  0.7499 -0.5947
  725MOL0     H99995   4.491   5.831   8.709  0.2298  0.3105  1.8428
  725MOL0     H99996   4.535   5.764   8.558 -0.4763 -0.6379 -0.0297
  725MOL0     H99997   4.726   5.818   8.707  1.6776 -0.8110 -2.3040
  725MOL0     H99998   4.665   5.706   8.830  2.4675 -0.6242 -0.6750
  725MOL0     H99999   4.879   5.711   8.517 -0.9779 -1.3531 -1.1531
  725MOL0     H    0   4.936   5.476   8.333  0.3905 -0.3259 -0.6159
  725MOL0     H    1   4.995   5.352   8.446  2.8304  1.2920  1.0167
  725MOL0     H    2   5.159   5.486   8.352 -1.7383 -0.6671  0.5278
  725MOL0     H    3   5.113   5.618   8.454  2.1697 -0.4315 -1.2087
  725MOL0     H    4   5.126   5.458   8.657  0.3916  1.3313  1.4119
  725MOL0     H    5   5.197   5.340   8.541 -0.0474  0.0483  2.0639
  725MOL0     H    6   5.333   5.619   8.564 -0.9263  0.6961 -1.2970
  725MOL0     H    7   5.355   5.482   8.680 -0.1672  2.9965  1.0208
  725MOL0     H    8   5.536   5.241   8.357 -0.1115  0.4363  0.3909
  725MOL0     H    9   5.757   5.014   8.453 -4.2657  1.3420 -0.0077
  725MOL0     H   10   5.879   5.127   8.367  0.7864 -0.1813  0.6467
  725MOL0     H   11   5.726   5.095   8.301 -0.5382  0.5201 -0.5412
  725MOL0     H   12   6.140   5.454   8.862  0.3926  0.5098 -0.7466
  725MOL0     H   13   6.373   5.446   8.892  2.0584 -0.2117 -0.7305
  725MOL0     H   14   6.583   5.441   8.853  1.1853  1.1051  2.8440
  725MOL0     H   15   6.609   5.315   8.977 -0.4739 -1.8126 -0.7415
  725MOL0     H   16   6.752   5.321   8.706  0.0561 -2.3530 -0.4839
  725MOL0     H   17   6.842   5.366   8.856 -0.0694 -0.9387  0.7923
  725MOL0     H   18   6.726   5.098   8.815  0.4445  0.0972  1.1055
  725MOL0     H   19   6.815   5.139   8.949 -0.7133 -1.8967 -0.3814
  725MOL0     H   20   7.000   5.230   8.784 -1.7614  1.4073  1.8989
  725MOL0     H   21   6.929   5.118   8.668 -3.2344  0.4216  0.0290
  725MOL0     H   22   7.008   5.041   8.961  0.7813  0.3958  0.5397
  725MOL0     H   23   6.918   4.934   8.859  1.1680 -1.0173  1.1632
  725MOL0     H   24   7.208   5.038   8.799  2.3040 -2.3144  0.8305
  725MOL0     H   25   7.111   4.935   8.692 -1.9716  0.9976  0.4965
  725MOL0     H   26   7.102   4.761   8.835  1.6101 -0.8431 -1.4322
  725MOL0     H   27   7.172   4.849   8.979  0.6310 -0.1539 -1.3063
  725MOL0     H   28   7.366   4.727   8.886  2.5835  1.2294  1.0122
  725MOL0     H   29   7.373   4.895   8.856 -1.6168  0.3665  3.8874
  725MOL0     H   30   6.407   5.095   8.654 -1.7512  0.9944 -1.6300
  725MOL0     H   31   6.161   5.086   8.622  0.3947 -0.2596  0.7130
  725MOL0     H   32   5.765   5.441   8.742 -1.7106  0.9266  0.4794
  725MOL0     H   33   5.571   5.531   8.673  3.9079  0.8932  1.3226
  725MOL0     H   34   3.875   5.279   8.543 -0.5567  0.3419 -0.1885
  725MOL0     H   35   3.649   5.293   8.464  1.0705  2.8629  0.6047
  725MOL0     H   36   3.263   5.328   8.455  1.3304  1.0316  0.9166
  725MOL0     H   37   3.096   5.462   8.370  3.2923  1.4363  0.6332
  725MOL0     H   38   2.835   5.734   8.659 -0.7996  1.5697  0.2370
  725MOL0     H   39   2.982   5.799   8.586 -1.1707  0.8005  2.0500
  725MOL0     H   40   2.719   5.792   8.436  0.9517 -1.7631 -2.1123
  725MOL0     H   41   2.889   5.843   8.383  0.3998 -4.4373  0.5756
  725MOL0     H   42   2.756   5.966   8.630  2.2492 -0.0972  0.5083
  725MOL0     H   43   2.907   6.012   8.551 -0.0532  1.0861  1.3873
  725MOL0     H   44   2.673   6.023   8.366 -1.1111  1.1025  0.0096
  725MOL0     H   45   2.789   6.146   8.395  1.4451 -0.7593  0.6884
  725MOL0     H   46   2.502   6.239   8.697  0.6221  0.2058  0.8761
  725MOL0     H   47   2.951   5.546   8.773  1.1976 -0.9486  1.8418
  725MOL0     H   48   3.114   5.502   8.931 -1.6359 -0.4509  0.7932
  725MOL0     H   49   3.069   5.329   8.916 -1.8321  0.5827 -0.4878
  725MOL0     H   50   3.246   5.392   8.911  0.3339  1.5878 -1.5352
  726MOL0     O   51  10.385   1.669   8.604  0.4339  0.6720 -0.0596
  726MOL0     C   52  10.276   1.723   8.574  0.2136 -0.6757 -0.4193
  726MOL0     O   53  10.237   1.777   8.450 -0.2302  1.0291  0.1313
  726MOL0     C   54  10.343   1.789   8.360  0.3887 -0.3952  0.0554
  726MOL0     C   55  10.352   1.704   8.252  0.4932 -0.0545 -0.1735
  726MOL0     C   56  10.446   1.722   8.154 -0.7577 -0.9449 -0.1013
  726MOL0     C   57  10.505   1.848   8.140  0.2618 -0.1789 -0.3145
  726MOL0     O   58  10.573   1.893   8.031  0.6318 -0.0182 -0.1737
  726MOL0     C   59  10.616   1.795   7.934 -0.3000 -0.0152 -0.4715
  726MOL0     C   60  10.756   1.745   7.970 -1.0353  0.2511 -0.6817
  726MOL0     C   61  10.798   1.658   7.843  0.3819 -0.3926 -0.2009
  726MOL0     C   62  10.931   1.575   7.887  0.0973  0.5697  0.0563
  726MOL0     C   63  10.953   1.448   7.805  0.3088  0.1867  0.4859
  726MOL0     C   64  10.945   1.465   7.660 -1.0936  0.1318  0.2290
  726MOL0     C   65  11.001   1.347   7.577  1.3169 -0.3785 -0.3436
  726MOL0     C   66  11.148   1.352   7.535 -0.4869 -0.9660  0.3141
  726MOL0     N   67  11.170   1.254   7.427  0.7570 -1.5496  0.0141
  726MOL0     C   68  11.243   1.141   7.446  0.4174  0.1769 -0.1961
  726MOL0     C   69  11.273   1.110   7.316 -0.1928 -0.0530  0.8290
  726MOL0     C   70  11.356   1.000   7.269 -0.2504 -0.9732 -0.7302
  726MOL0     C   71  11.509   1.023   7.259  0.0661 -0.8030  0.3371
  726MOL0     C   72  11.533   1.141   7.160 -0.4336  0.0803  0.3321
  726MOL0     C   73  11.680   1.147   7.115 -0.0689 -0.5787 -0.0745
  726MOL0     O   74  11.711   1.246   7.016 -0.0360 -0.4220  0.5148
  726MOL0     C   75  11.841   1.292   6.992  0.2096 -0.3854  0.5613
  726MOL0     C   76  11.959   1.265   7.070 -0.4633  0.0635 -0.1726
  726MOL0     C   77  12.087   1.307   7.039  0.2398 -0.5253 -0.0466
  726MOL0     C   78  12.200   1.261   7.136 -0.2963 -0.2713  0.6194
  726MOL0     C   79  12.102   1.393   6.928 -0.0208  0.1088 -0.5778
  726MOL0     C   80  12.238   1.451   6.884  0.6395 -0.3142  0.2088
  726MOL0     O   81  12.223   1.559   6.804  0.5860  0.5146 -0.0772
  726MOL0     C   82  12.332   1.637   6.779  0.1305  0.0497  0.7341
  726MOL0     C   83  12.330   1.769   6.821  0.0710 -0.5540  0.6511
  726MOL0     C   84  12.446   1.853   6.820  0.4493  0.8310 -0.1067
  726MOL0     C   85  12.553   1.802   6.747 -0.2193  0.7915 -0.0840
  726MOL0     O   86  12.683   1.859   6.746 -0.4910  0.9959 -0.2918
  726MOL0     C   87  12.731   1.938   6.858  0.5673 -0.4275  0.5869
  726MOL0     C   88  12.875   1.961   6.875  0.3498 -0.0037 -0.1291
  726MOL0     C   89  12.942   2.028   6.748 -0.2332  0.1568 -0.0742
  726MOL0     C   90  13.087   2.066   6.791  0.3850  0.7460  0.5004
  726MOL0     C   91  13.105   2.203   6.848  0.3738  0.1391 -0.3080
  726MOL0     C   92  13.262   2.244   6.845 -0.0364 -0.3101  0.9477
  726MOL0     C   93  13.296   2.363   6.939 -0.5856  0.6586  0.6087
  726MOL0     C   94  13.398   2.456   6.875 -0.7640  0.4917 -0.5141
  726MOL0    Cl   95  13.523   2.369   6.783 -0.1733  0.0481  0.2457
  726MOL0     C   96  12.555   1.667   6.700  0.0370  1.5957 -0.0399
  726MOL0     C   97  12.442   1.580   6.719  0.1677 -0.1755 -0.0686
  726MOL0     O   98  12.344   1.399   6.917  0.7197 -0.0095 -0.2803
  726MOL0     C   99  11.991   1.419   6.855 -0.3850 -0.5841 -0.7173
  726MOL0     C  100  11.868   1.382   6.886  0.9157  0.2821 -0.0448
  726MOL0     N  101  11.217   1.199   7.221 -0.7618  0.1747  0.1610
  726MOL0     N  102  11.160   1.289   7.295 -0.3695  0.1696 -0.5111
  726MOL0     C  103  10.477   1.945   8.238 -0.7826  0.0680 -0.0698
  726MOL0     C  104  10.410   1.912   8.356 -0.0851  0.0854 -0.0360
  726MOL0     C  105  10.186   1.752   8.690  0.4742 -0.3950  0.0616
  726MOL0     C  106  10.141   1.891   8.703 -0.4093  0.9114 -0.3503
  726MOL0     C  107  10.033   1.917   8.789 -0.2634  0.8868 -0.6130
  726MOL0     C  108   9.977   1.821   8.876  0.2724  0.6884 -0.8156
  726MOL0     O  109   9.887   1.847   8.968  0.6111 -0.2873  0.2519
  726MOL0     C  110   9.936   1.939   9.076 -0.1443  0.5698  0.7384
  726MOL0     C  111   9.810   1.984   9.140  0.6660  0.2279 -0.0255
  726MOL0     C  112   9.837   2.068   9.264  0.9293 -0.3691 -0.7560
  726MOL0     C  113   9.719   2.109   9.350 -0.3544 -0.0564  0.0469
  726MOL0     C  114   9.633   2.210   9.296 -0.0204 -0.6396 -0.3451
  726MOL0     C  115   9.583   2.308   9.249  0.4026 -0.4719 -0.1700
  726MOL0     C  116  10.035   1.689   8.875 -0.3909 -0.1502 -0.5008
  726MOL0     C  117  10.142   1.658   8.789 -0.5345 -0.6585  1.3062
  726MOL0     C  118  10.190   1.510   8.790  0.3139  0.4830 -0.5420
  726MOL0     H  119  10.300   1.609   8.241  1.7051 -1.0797  2.1652
  726MOL0     H  120  10.457   1.643   8.081 -2.6472 -0.6707 -0.7494
  726MOL0     H  121  10.618   1.844   7.836  0.5125  1.8915  0.4635
  726MOL0     H  122  10.548   1.710   7.918 -0.8555  0.0186  1.5398
  726MOL0     H  123  10.823   1.829   7.990  0.5222 -0.8946 -0.8637
  726MOL0     H  124  10.756   1.677   8.055 -0.0366  1.8120  0.6363
  726MOL0     H  125  10.717   1.585   7.828 -1.7810  1.7570  0.4406
  726MOL0     H  126  10.810   1.718   7.752 -0.3754  3.2041  1.9006
  726MOL0     H  127  11.015   1.644   7.875  0.5664 -0.0082 -0.0637
  726MOL0     H  128  10.933   1.555   7.995 -0.9142  0.4240  0.0553
  726MOL0     H  129  10.880   1.370   7.829  0.6252 -1.4889 -3.1958
  726MOL0     H  130  11.051   1.408   7.832  1.1847  1.6310 -0.4281
  726MOL0     H  131  10.846   1.486   7.618 -0.1638  0.3530 -1.9711
  726MOL0     H  132  10.999   1.560   7.651 -1.0805  0.4050  2.6336
  726MOL0     H  133  10.936   1.333   7.491 -0.1639 -2.2340  0.9915
  726MOL0     H  134  10.996   1.260   7.643  0.1436 -0.1347 -0.0939
  726MOL0     H  135  11.175   1.453   7.505 -0.9823 -0.8682  0.2026
  726MOL0     H  136  11.214   1.321   7.617 -0.9093  0.8935  1.4157
  726MOL0     H  137  11.287   1.099   7.536  1.8893  1.7365 -0.1367
  726MOL0     H  138  11.323   0.976   7.167  2.8177 -2.1575 -1.5615
  726MOL0     H  139  11.339   0.909   7.327  0.6222 -1.4313 -1.1644
  726MOL0     H  140  11.551   1.045   7.357 -1.0442 -0.8344  0.8327
  726MOL0     H  141  11.557   0.936   7.213  1.8091  0.9195 -1.3208
  726MOL0     H  142  11.467   1.128   7.073  0.5861 -1.4178 -0.2699
  726MOL0     H  143  11.510   1.234   7.212  1.3646  0.0143  1.3003
  726MOL0     H  144  11.750   1.160   7.198  2.6730 -0.5056 -2.2526
  726MOL0     H  145  11.705   1.048   7.074 -1.8393 -0.1237 -2.5050
  726MOL0     H  146  11.956   1.192   7.150 -1.3573  0.1097 -0.1575
  726MOL0     H  147  12.244   1.168   7.102 -1.3903 -1.5697  2.5408
  726MOL0     H  148  12.154   1.241   7.234 -1.7434  1.0251  0.2586
  726MOL0     H  149  12.277   1.338   7.144 -0.4000  0.2693 -2.5472
  726MOL0     H  150  12.240   1.801   6.873  0.2920  2.7300 -0.7013
  726MOL0     H  151  12.460   1.945   6.877 -2.3932  1.2240  0.1106
  726MOL0     H  152  12.677   2.032   6.843  2.2970  0.7303  1.3186
  726MOL0     H  153  12.686   1.896   6.949  0.7651  1.4284  1.5960
  726MOL0     H  154  12.875   2.016   6.970 -1.4960  0.3617 -0.3092
  726MOL0     H  155  12.937   1.872   6.892 -0.9338 -0.5607  2.0509
  726MOL0     H  156  12.890   2.119   6.717  2.1743  1.8057  0.4632
  726MOL0     H  157  12.929   1.961   6.662 -0.7726 -0.0929  0.1945
  726MOL0     H  158  13.148   2.060   6.700 -2.2235 -2.6126 -1.2536
  726MOL0     H  159  13.126   1.990   6.860 -2.1898 -0.0207  1.2223
  726MOL0     H  160  13.046   2.274   6.791  2.0042  2.3086  0.5701
  726MOL0     H  161  13.063   2.215   6.948 -0.9927 -0.5259 -0.7794
  726MOL0     H  162  13.291   2.272   6.743 -2.4014 -1.2378 -0.0412
  726MOL0     H  163  13.320   2.158   6.880  0.5310 -0.3468 -0.0525
  726MOL0     H  164  13.331   2.325   7.035 -0.8359  1.8424  1.1830
  726MOL0     H  165  13.206   2.422   6.959 -0.2859  0.7723  1.6545
  726MOL0     H  166  13.445   2.520   6.951 -0.9426  0.7885 -0.6498
  726MOL0     H  167  13.348   2.525   6.806 -1.2610  1.1644  0.4889
  726MOL0     H  168  12.634   1.614   6.647 -0.5654  0.5397  0.1000
  726MOL0     H  169  12.447   1.473   6.699  0.6825  0.1979 -2.1239
  726MOL0     H  170  12.011   1.491   6.777  1.1185 -1.9437 -1.6775
  726MOL0     H  171  11.787   1.421   6.825  0.4576  1.0298  1.0107
  726MOL0     H  172  10.517   2.046   8.239  0.2138 -0.3255  0.6106
  726MOL0     H  173  10.392   1.989   8.431 -3.5549  0.0092 -0.6644
  726MOL0     H  174  10.178   1.959   8.627  0.2231  0.1009 -0.7979
  726MOL0     H  175   9.992   2.017   8.778 -0.5160  0.8412 -0.0913
  726MOL0     H  176  10.007   1.891   9.144  1.3649  0.2487 -0.9645
  726MOL0     H  177   9.983   2.026   9.029  1.9484  0.3973  2.3709
  726MOL0     H  178   9.751   1.899   9.176 -1.4248  1.8960  0.6663
  726MOL0     H  179   9.747   2.038   9.069  0.6859  1.9912  1.2172
  726MOL0     H  180   9.899   2.015   9.337  1.7001  2.0526  0.4387
  726MOL0     H  181   9.887   2.154   9.219 -0.4882 -0.4238 -2.5397
  726MOL0     H  182   9.758   2.150   9.444  0.6277 -0.1725 -0.3030
  726MOL0     H  183   9.674   2.014   9.378  0.3989  0.3207  2.8783
  726MOL0     H  184   9.533   2.395   9.213 -0.7612 -0.5192  1.2574
  726MOL0     H  185   9.999   1.618   8.949 -0.5899 -3.0919 -3.2042
  726MOL0     H  186  10.197   1.477   8.894  1.6840 -2.2071 -1.3956
  726MOL0     H  187  10.118   1.446   8.738 -1.6456 -0.2177  2.7392
  726MOL0     H  188  10.282   1.491   8.735  0.5909  0.4869 -0.0814
  727MOL0     O  189   6.088   1.222   0.396  0.6203  0.4195  0.3086
  727MOL0     C  190   6.039   1.107   0.397 -1.2859  0.1407  0.0860
  727MOL0     O  191   6.117   0.995   0.410  0.7330 -0.1264 -0.6118
  727MOL0     C  192   6.245   1.000   0.366  0.5277  0.2862 -0.1034
  727MOL0     C  193   6.352   0.924   0.430  0.1402 -0.5399 -0.2096
  727MOL0     C  194   6.482   0.932   0.385  0.3536  0.7694 -0.0717
  727MOL0     C  195   6.529   1.012   0.290 -0.1403 -1.0275  0.3568
  727MOL0     O  196   6.660   1.016   0.237 -0.7891 -0.7686  0.7083
  727MOL0     C  197   6.737   0.903   0.252 -0.6578  0.4214 -0.0471
  727MOL0     C  198   6.699   0.787   0.158  0.6823  0.5778 -0.7992
  727MOL0     C  199   6.687   0.822   0.006 -0.4101 -0.3824 -0.3017
  727MOL0     C  200   6.813   0.894  -0.048 -0.0247 -0.2385  0.6777
  727MOL0     C  201   6.811   0.879  -0.199 -0.2303  0.0075 -0.4771
  727MOL0     C  202   6.911   0.969  -0.262 -0.5075  0.3210 -0.6534
  727MOL0     C  203   7.058   0.916  -0.241  0.1294  0.0585  0.0288
  727MOL0     C  204   7.150   0.987  -0.345  0.0233  0.6601  1.0112
  727MOL0     N  205   7.273   1.016  -0.277 -0.5446 -0.1257  0.0782
  727MOL0     C  206   7.317   1.145  -0.261  0.0741 -0.2441 -0.2239
  727MOL0     C  207   7.448   1.138  -0.210  0.8333  0.4242  0.6180
  727MOL0     C  208   7.535   1.251  -0.170  0.1535  1.0936 -0.0952
  727MOL0     C  209   7.681   1.223  -0.139 -0.1479  0.8994 -0.4447
  727MOL0     C  210   7.700   1.168   0.011  0.5697  0.2342  0.4996
  727MOL0     C  211   7.840   1.126   0.052  0.4142 -0.0310 -1.1053
  727MOL0     O  212   7.901   1.031  -0.035  0.3350 -0.6381  0.1245
  727MOL0     C  213   8.018   1.040  -0.093  0.3882 -0.1568  0.7136
  727MOL0     C  214   8.132   1.111  -0.047 -0.0311  0.2840 -0.3491
  727MOL0     C  215   8.254   1.102  -0.111 -0.5993 -0.4264  0.0871
  727MOL0     C  216   8.359   1.192  -0.049 -0.0726  0.4979  0.3338
  727MOL0     C  217   8.268   1.027  -0.230 -0.2527 -0.9949 -0.5883
  727MOL0     C  218   8.402   1.021  -0.291 -0.2140 -0.4205 -0.0209
  727MOL0     O  219   8.402   0.970  -0.420  0.3575  0.0714  0.3377
  727MOL0     C  220   8.513   0.983  -0.493  0.0723 -0.0612  0.2304
  727MOL0     C  221   8.531   1.075  -0.599 -0.2911 -0.3690 -0.5755
  727MOL0     C  222   8.657   1.107  -0.649 -0.1160 -0.4146  0.5232
  727MOL0     C  223   8.769   1.039  -0.604 -0.2867  0.1518 -0.2165
  727MOL0     O  224   8.883   1.084  -0.657 -0.7089  0.5292  0.1174
  727MOL0     C  225   9.012   1.048  -0.602 -0.0305 -0.5423  0.9329
  727MOL0     C  226   9.108   1.154  -0.636  0.1344  0.2295 -0.4118
  727MOL0     C  227   9.149   1.148  -0.784 -0.0985  0.7957 -0.1659
  727MOL0     C  228   9.259   1.257  -0.822 -0.0174  1.4044 -0.5134
  727MOL0     C  229   9.291   1.233  -0.970  0.4784  0.5925 -0.1328
  727MOL0     C  230   9.355   1.344  -1.046  1.2787 -1.0587 -0.4510
  727MOL0     C  231   9.381   1.324  -1.197  1.1423 -0.4877 -1.0529
  727MOL0     C  232   9.444   1.451  -1.250  0.6561 -0.0573 -0.2220
  727MOL0    Cl  233   9.617   1.457  -1.185 -0.3599 -0.0124 -0.1002
  727MOL0     C  234   8.759   0.932  -0.512 -0.2500 -0.1106 -0.2679
  727MOL0     C  235   8.629   0.912  -0.452 -0.8950 -0.2977 -0.2225
  727MOL0     O  236   8.503   1.070  -0.238 -0.0460 -0.3485 -0.1772
  727MOL0     C  237   8.157   0.961  -0.283 -0.0551 -0.0794 -0.0507
  727MOL0     C  238   8.035   0.956  -0.215 -0.0193 -1.0221  0.1153
  727MOL0     N  239   7.479   1.001  -0.197  0.0122 -0.0999  1.2288
  727MOL0     N  240   7.373   0.944  -0.244 -0.1164 -0.0715 -0.4915
  727MOL0     C  241   6.429   1.082   0.218 -1.2012 -0.1558  0.0265
  727MOL0     C  242   6.290   1.073   0.251  0.3308 -0.6963  0.4895
  727MOL0     C  243   5.898   1.094   0.436 -0.2466  0.1622  0.2203
  727MOL0     C  244   5.852   0.963   0.464 -0.9754 -0.6636  0.1499
  727MOL0     C  245   5.722   0.937   0.499 -0.2500 -0.3809  0.9335
  727MOL0     C  246   5.631   1.048   0.499  0.1486 -0.0529 -0.6127
  727MOL0     O  247   5.498   1.042   0.541  0.1960  0.0071 -0.4103
  727MOL0     C  248   5.413   0.937   0.481  0.3887  0.5744 -0.5247
  727MOL0     C  249   5.391   0.934   0.329  0.1624 -0.1904 -0.4932
  727MOL0     C  250   5.279   1.043   0.291  0.6839 -0.0248  0.0998
  727MOL0     C  251   5.346   1.179   0.267  0.3419 -0.4671  0.6415
  727MOL0     C  252   5.225   1.261   0.215 -0.2871  0.7064  0.2700
  727MOL0     C  253   5.133   1.329   0.175 -0.1367  0.3174 -0.5935
  727MOL0     C  254   5.674   1.174   0.454  0.6126  0.6977 -0.1445
  727MOL0     C  255   5.807   1.197   0.420  0.4384 -0.6852 -0.6166
  727MOL0     C  256   5.835   1.336   0.362 -0.8325  0.3493 -0.1659
  727MOL0     H  257   6.330   0.863   0.517  1.7980 -2.4337 -1.0370
  727MOL0     H  258   6.549   0.865   0.438  0.5127 -1.5200 -2.8996
  727MOL0     H  259   6.751   0.866   0.354 -0.1668  0.4124 -0.1174
  727MOL0     H  260   6.837   0.938   0.226 -0.2371 -0.4825  0.3062
  727MOL0     H  261   6.777   0.711   0.166  1.6558  1.7484  3.7840
  727MOL0     H  262   6.595   0.761   0.182  1.1370  0.7606  1.5294
  727MOL0     H  263   6.675   0.733  -0.057 -1.2363  2.0843 -3.9294
  727MOL0     H  264   6.601   0.888  -0.004 -0.0620 -0.1518 -1.9214
  727MOL0     H  265   6.801   1.002  -0.031  0.9280  0.7598 -3.6850
  727MOL0     H  266   6.904   0.856  -0.002 -2.1599 -3.3023  2.7221
  727MOL0     H  267   6.708   0.900  -0.229 -0.5788  0.7405  1.1708
  727MOL0     H  268   6.829   0.778  -0.237  0.9784  0.6945 -1.8403
  727MOL0     H  269   6.892   0.970  -0.369 -0.9954  1.2288 -0.5659
  727MOL0     H  270   6.915   1.067  -0.213 -3.7330 -1.5381  4.1780
  727MOL0     H  271   7.065   0.808  -0.261  2.7848  0.3377 -0.9176
  727MOL0     H  272   7.089   0.925  -0.137  1.7545 -3.6467  0.0366
  727MOL0     H  273   7.156   0.925  -0.434 -0.1241  1.4641  0.4303
  727MOL0     H  274   7.101   1.076  -0.386 -1.4523  0.0847  1.4447
  727MOL0     H  275   7.274   1.241  -0.287  1.4122 -0.6923 -5.0695
  727MOL0     H  276   7.482   1.296  -0.085 -0.0089 -0.2185  0.5246
  727MOL0     H  277   7.532   1.317  -0.258  3.6401  1.0507 -0.3672
  727MOL0     H  278   7.717   1.143  -0.204 -0.2743 -0.1227  0.7094
  727MOL0     H  279   7.744   1.308  -0.167  1.2522  0.7760  2.0041
  727MOL0     H  280   7.672   1.249   0.080 -3.7419 -0.6084  0.0464
  727MOL0     H  281   7.634   1.082   0.024 -1.6295  1.6857 -0.4501
  727MOL0     H  282   7.910   1.210   0.061  1.9504 -1.2816 -0.8694
  727MOL0     H  283   7.839   1.085   0.153  0.2609  2.6765  0.0654
  727MOL0     H  284   8.121   1.166   0.046  2.8347  1.9946 -0.9124
  727MOL0     H  285   8.402   1.261  -0.123  1.2130 -0.1166  0.4906
  727MOL0     H  286   8.442   1.138  -0.003  0.0087  0.1293 -0.2322
  727MOL0     H  287   8.311   1.257   0.024 -1.6490 -0.3259  0.0658
  727MOL0     H  288   8.444   1.127  -0.637 -1.1346 -1.9257 -0.8554
  727MOL0     H  289   8.663   1.200  -0.704 -2.1787 -0.8597 -0.5576
  727MOL0     H  290   9.008   1.042  -0.493 -0.2333  1.1680  1.0364
  727MOL0     H  291   9.040   0.959  -0.660 -0.9847  0.1515 -0.6328
  727MOL0     H  292   9.067   1.252  -0.610  0.0372  0.4429 -1.3449
  727MOL0     H  293   9.196   1.142  -0.572 -0.6225  2.6098  1.2159
  727MOL0     H  294   9.062   1.161  -0.848  0.2655 -2.0800 -1.4146
  727MOL0     H  295   9.188   1.048  -0.807  0.2101  1.0351 -0.7012
  727MOL0     H  296   9.351   1.258  -0.764 -1.1057 -0.5342  1.3677
  727MOL0     H  297   9.214   1.355  -0.800 -0.6950  1.0621 -0.3469
  727MOL0     H  298   9.356   1.146  -0.979  0.4643  0.6769 -1.2383
  727MOL0     H  299   9.202   1.216  -1.031 -0.7047  2.6321  0.9051
  727MOL0     H  300   9.440   1.371  -0.984  1.5156 -1.6965 -0.4873
  727MOL0     H  301   9.284   1.427  -1.043  1.3855 -0.9892  1.7057
  727MOL0     H  302   9.289   1.312  -1.256 -0.7720  3.4308  0.7792
  727MOL0     H  303   9.447   1.238  -1.210  1.0067 -0.8909  0.6962
  727MOL0     H  304   9.385   1.540  -1.227  0.6517  0.4278 -1.9704
  727MOL0     H  305   9.464   1.435  -1.356  3.2759 -2.5794  0.5238
  727MOL0     H  306   8.843   0.867  -0.494  0.1858 -0.9330 -4.3565
  727MOL0     H  307   8.624   0.842  -0.369 -3.2838  0.7787  0.6502
  727MOL0     H  308   8.178   0.897  -0.368  3.6042  2.4411 -1.3174
  727MOL0     H  309   7.946   0.907  -0.253  0.1490 -0.6081 -0.8488
  727MOL0     H  310   6.466   1.134   0.130  1.2823 -0.1613  1.0032
  727MOL0     H  311   6.212   1.114   0.187 -0.8425 -0.7996  1.8060
  727MOL0     H  312   5.915   0.875   0.471  1.8784  1.2674  0.9393
  727MOL0     H  313   5.678   0.839   0.514 -0.1283 -0.6571 -0.3669
  727MOL0     H  314   5.460   0.841   0.506  1.9463  1.7560  1.4020
  727MOL0     H  315   5.313   0.943   0.523 -0.0898 -0.9334 -1.3711
  727MOL0     H  316   5.362   0.835   0.292  1.6397 -0.5014 -0.8606
  727MOL0     H  317   5.486   0.959   0.282  0.0399  1.3625  0.0392
  727MOL0     H  318   5.216   1.016   0.206  0.7781 -0.7529  0.2567
  727MOL0     H  319   5.211   1.042   0.377 -0.8061 -0.5909 -1.0423
  727MOL0     H  320   5.423   1.193   0.191 -2.7857  2.9127 -2.2876
  727MOL0     H  321   5.367   1.225   0.364  0.3536  0.7853  0.0578
  727MOL0     H  322   5.054   1.397   0.151 -0.3897  1.2658  2.5251
  727MOL0     H  323   5.605   1.257   0.440 -0.6886 -0.3307  0.0605
  727MOL0     H  324   5.905   1.323   0.279  1.9753  1.0185  1.9589
  727MOL0     H  325   5.751   1.400   0.334  1.0677  3.5317  0.8929
  727MOL0     H  326   5.883   1.393   0.442  0.9541 -2.4899  0.9198
  728MOL0     O  327   6.248   2.259   4.487 -0.8214 -0.5083 -0.0283
  728MOL0     C  328   6.225   2.328   4.584  0.0233  0.1914 -0.3288
  728MOL0     O  329   6.311   2.423   4.639 -0.1272 -0.1763 -0.8192
  728MOL0     C  330   6.432   2.427   4.580  1.0157 -0.3872  0.7007
  728MOL0     C  331   6.538   2.375   4.651  0.1277  0.1162 -0.3819
  728MOL0     C  332   6.656   2.374   4.588 -0.2570 -0.0927 -0.1168
  728MOL0     C  333   6.685   2.436   4.465  0.1512  0.4707  0.6531
  728MOL0     O  334   6.805   2.436   4.397 -0.3567 -0.6993  0.2727
  728MOL0     C  335   6.908   2.350   4.445  0.0339  0.4811 -0.3196
  728MOL0     C  336   6.994   2.314   4.327 -0.0638 -0.4991 -0.2938
  728MOL0     C  337   7.127   2.242   4.362 -0.5392 -0.2264  0.0578
  728MOL0     C  338   7.206   2.221   4.226 -0.7643  0.2756 -0.2471
  728MOL0     C  339   7.351   2.176   4.257  0.2333  0.3029  0.2066
  728MOL0     C  340   7.428   2.164   4.134 -0.1105 -0.2525  0.5168
  728MOL0     C  341   7.546   2.076   4.127  0.1776  0.2314 -0.7447
  728MOL0     C  342   7.667   2.154   4.137 -0.6492  0.1781 -0.0944
  728MOL0     N  343   7.703   2.193   4.274  0.5124  0.1130 -0.9630
  728MOL0     C  344   7.723   2.105   4.379  1.1750  0.4139  1.2165
  728MOL0     C  345   7.725   2.189   4.483  0.9643  0.5180 -0.0610
  728MOL0     C  346   7.744   2.155   4.630 -0.8270 -0.2720  0.5198
  728MOL0     C  347   7.895   2.175   4.678  0.5523  0.5929  0.3985
  728MOL0     C  348   7.898   2.138   4.830 -0.5588  0.1285 -0.0552
  728MOL0     C  349   8.040   2.167   4.882 -0.1234  0.1011  0.3081
  728MOL0     O  350   8.124   2.048   4.851 -0.5473 -0.0287  0.5885
  728MOL0     C  351   8.252   2.038   4.905  0.1449 -0.2193  0.3330
  728MOL0     C  352   8.331   1.927   4.869 -0.2719 -0.9819 -0.3317
  728MOL0     C  353   8.458   1.905   4.923 -0.4001 -0.4216 -0.9559
  728MOL0     C  354   8.525   1.772   4.902  0.5474 -0.2802  0.5832
  728MOL0     C  355   8.508   1.996   5.021 -0.4515 -0.3482  0.0377
  728MOL0     C  356   8.629   1.966   5.110  0.5655  0.0001  0.3188
  728MOL0     O  357   8.623   2.025   5.245 -0.3468 -0.2139  0.1425
  728MOL0     C  358   8.723   2.000   5.330 -0.1314  0.3661 -0.5111
  728MOL0     C  359   8.779   1.876   5.341 -0.1858  0.5761  0.3039
  728MOL0     C  360   8.878   1.844   5.431 -0.4945  0.6381 -0.6429
  728MOL0     C  361   8.945   1.949   5.494  1.2583  0.7717  0.3750
  728MOL0     O  362   9.049   1.922   5.579 -0.9269  0.2498 -0.5143
  728MOL0     C  363   9.148   2.020   5.619 -0.5174  0.3867  0.4266
  728MOL0     C  364   9.214   2.101   5.495  0.2188 -0.5130 -0.6593
  728MOL0     C  365   9.300   2.009   5.404  0.1874 -0.2130 -0.0423
  728MOL0     C  366   9.447   2.060   5.381 -0.3355 -0.3799 -0.0560
  728MOL0     C  367   9.505   1.987   5.259 -0.1223  0.3075  0.4002
  728MOL0     C  368   9.630   2.077   5.212  0.6009 -0.3467  0.5966
  728MOL0     C  369   9.739   1.996   5.146  0.5832 -0.2540  0.0761
  728MOL0     C  370   9.844   2.092   5.092  0.5972 -0.5476 -0.6092
  728MOL0    Cl  371   9.978   1.994   5.006  0.0857  0.1496  0.5198
  728MOL0     C  372   8.888   2.079   5.489  0.0555 -0.2300 -0.1788
  728MOL0     C  373   8.775   2.101   5.410 -0.1781 -0.9677  0.3211
  728MOL0     O  374   8.730   1.906   5.065  1.3412 -0.2277  0.0633
  728MOL0     C  375   8.427   2.108   5.063  0.0634 -0.1639  0.1576
  728MOL0     C  376   8.306   2.129   5.003 -0.0089 -0.1874  0.5276
  728MOL0     N  377   7.693   2.318   4.444 -0.7743  0.6715 -0.2444
  728MOL0     N  378   7.686   2.313   4.323  0.6544  0.1042  0.3055
  728MOL0     C  379   6.575   2.489   4.395 -0.0903  0.3151 -1.2229
  728MOL0     C  380   6.454   2.479   4.453  0.2979  0.3590 -1.5909
  728MOL0     C  381   6.083   2.301   4.632 -0.3910 -0.1347 -0.0360
  728MOL0     C  382   6.013   2.192   4.585 -0.9498 -0.3318  0.8769
  728MOL0     C  383   5.890   2.149   4.632 -0.2577 -0.6455 -0.5491
  728MOL0     C  384   5.828   2.216   4.738 -0.2097 -0.1011 -0.3803
  728MOL0     O  385   5.715   2.161   4.795  0.4742 -0.7201  0.2864
  728MOL0     C  386   5.663   2.235   4.904  0.5332  0.5482 -0.6362
  728MOL0     C  387   5.558   2.155   4.964  0.0208 -0.5938  0.4380
  728MOL0     C  388   5.421   2.161   4.888 -1.1654  0.4679 -1.4764
  728MOL0     C  389   5.319   2.071   4.948  0.1220 -0.1911 -0.1287
  728MOL0     C  390   5.261   2.118   5.079 -0.7014 -0.1146  0.1725
  728MOL0     C  391   5.212   2.163   5.182  0.6673  0.7174  0.8700
  728MOL0     C  392   5.884   2.342   4.769 -0.5370 -0.3685  0.2323
  728MOL0     C  393   6.005   2.388   4.719 -0.2015 -0.2822  0.1178
  728MOL0     C  394   6.052   2.529   4.757 -0.4550 -0.2537 -0.5956
  728MOL0     H  395   6.512   2.320   4.741  3.2360 -1.1597 -0.1432
  728MOL0     H  396   6.734   2.335   4.653  1.6648  1.8299 -1.1391
  728MOL0     H  397   6.879   2.256   4.494  1.3730 -0.2255 -0.8180
  728MOL0     H  398   6.976   2.405   4.510  0.3736 -1.5845  1.1811
  728MOL0     H  399   6.931   2.251   4.263 -0.4263 -0.1630 -0.2739
  728MOL0     H  400   7.014   2.404   4.268 -2.2497 -0.7258 -1.4996
  728MOL0     H  401   7.186   2.306   4.428 -1.7630  0.9573  0.0420
  728MOL0     H  402   7.110   2.146   4.411 -0.8729  1.3005  3.1272
  728MOL0     H  403   7.151   2.153   4.160  0.4132 -0.9186 -0.0354
  728MOL0     H  404   7.210   2.321   4.182 -1.9332 -0.3508 -1.8771
  728MOL0     H  405   7.349   2.077   4.304 -2.2877  0.7747  1.2572
  728MOL0     H  406   7.394   2.242   4.332  0.0068  3.7560 -2.4710
  728MOL0     H  407   7.357   2.147   4.052 -1.3193 -2.6032  1.9380
  728MOL0     H  408   7.454   2.266   4.106 -2.2603  0.0795 -0.4575
  728MOL0     H  409   7.545   2.024   4.030  1.3857  0.5608 -0.9513
  728MOL0     H  410   7.538   2.001   4.206  1.5628  1.8880  1.0334
  728MOL0     H  411   7.748   2.095   4.094 -1.1076 -2.0555  1.8852
  728MOL0     H  412   7.659   2.241   4.071  6.1311  0.0483 -1.7763
  728MOL0     H  413   7.724   1.996   4.380  1.4762  0.3256 -1.4585
  728MOL0     H  414   7.711   2.051   4.636 -2.3378  0.0956 -0.7854
  728MOL0     H  415   7.673   2.215   4.688  0.3344  2.8591 -1.0571
  728MOL0     H  416   7.958   2.108   4.619  0.2349  0.5032  0.1567
  728MOL0     H  417   7.929   2.279   4.673 -0.0449  0.7445 -3.4500
  728MOL0     H  418   7.833   2.203   4.890  0.9555  1.8817 -0.2299
  728MOL0     H  419   7.884   2.034   4.863 -1.1302  1.0568  2.9124
  728MOL0     H  420   8.088   2.254   4.837  0.6897 -0.5324 -0.0717
  728MOL0     H  421   8.030   2.175   4.991 -1.5524 -0.7195  0.2698
  728MOL0     H  422   8.302   1.853   4.794 -0.7979 -2.7194  1.4797
  728MOL0     H  423   8.508   1.705   4.988 -3.7285 -0.0017  0.1811
  728MOL0     H  424   8.630   1.794   4.881 -0.5452  3.0774 -2.3092
  728MOL0     H  425   8.497   1.714   4.814  2.5485  0.3693 -0.5335
  728MOL0     H  426   8.734   1.793   5.286  1.8606 -0.6494  0.4014
  728MOL0     H  427   8.914   1.742   5.441  0.3774  0.9782 -0.0958
  728MOL0     H  428   9.089   2.091   5.679 -0.7354  0.6896 -0.1398
  728MOL0     H  429   9.237   1.980   5.667  0.0626  0.6645 -0.4071
  728MOL0     H  430   9.137   2.155   5.438  1.0011  3.0630  1.3620
  728MOL0     H  431   9.271   2.181   5.543 -2.3589 -0.2229  2.2761
  728MOL0     H  432   9.250   1.990   5.308 -2.2719 -0.3862  1.2070
  728MOL0     H  433   9.322   1.914   5.453  3.3094  1.0178  1.2207
  728MOL0     H  434   9.512   2.047   5.468 -0.7240  0.2067  0.3325
  728MOL0     H  435   9.438   2.168   5.369 -1.3028 -0.3430  0.8045
  728MOL0     H  436   9.544   1.890   5.290 -2.0564 -0.7207 -0.2521
  728MOL0     H  437   9.432   1.976   5.179  0.7567 -1.8816 -0.1590
  728MOL0     H  438   9.664   2.140   5.295 -1.6164  1.6161  0.1080
  728MOL0     H  439   9.590   2.147   5.139 -1.0971 -1.8625  0.0124
  728MOL0     H  440   9.686   1.951   5.061 -1.2422  2.7661 -0.5787
  728MOL0     H  441   9.780   1.924   5.217  2.8620  0.1372 -0.7803
  728MOL0     H  442   9.878   2.162   5.169 -1.5509  0.6730 -0.6822
  728MOL0     H  443   9.791   2.152   5.018 -0.9689 -1.0580  0.0436
  728MOL0     H  444   8.935   2.160   5.545  1.9886 -0.8694 -0.8101
  728MOL0     H  445   8.734   2.201   5.403  0.8985 -0.5101  0.4736
  728MOL0     H  446   8.460   2.188   5.128 -0.9067  0.4144 -0.0552
  728MOL0     H  447   8.248   2.218   5.025  1.1349  0.7506 -0.1221
  728MOL0     H  448   6.583   2.550   4.305  0.2463  2.6386  0.2916
  728MOL0     H  449   6.368   2.515   4.397 -0.8595 -0.8050 -0.6377
  728MOL0     H  450   6.059   2.139   4.502 -1.7658 -0.8232  0.7315
  728MOL0     H  451   5.830   2.072   4.583  0.7277 -0.8539 -1.4462
  728MOL0     H  452   5.741   2.254   4.978  0.6240 -3.9090  0.7417
  728MOL0     H  453   5.620   2.331   4.875 -1.6164 -0.8898 -2.5724
  728MOL0     H  454   5.549   2.197   5.065  0.8483  0.4378  0.1002
  728MOL0     H  455   5.583   2.049   4.979  2.3588  0.1184  2.3625
  728MOL0     H  456   5.389   2.261   4.857 -1.3867  0.4065 -1.4501
  728MOL0     H  457   5.430   2.120   4.787 -2.0512  1.6088 -2.0356
  728MOL0     H  458   5.358   1.970   4.968  1.6239  0.5554  0.9053
  728MOL0     H  459   5.234   2.067   4.880  0.1908 -1.4052 -0.1647
  728MOL0     H  460   5.141   2.191   5.257 -1.1937  2.5612 -1.4323
  728MOL0     H  461   5.840   2.399   4.850 -0.8951 -3.3825  2.2936
  728MOL0     H  462   6.110   2.526   4.850 -0.6052 -0.5644 -0.5115
  728MOL0     H  463   6.113   2.578   4.681 -0.5132 -1.0618 -1.1711
  728MOL0     H  464   5.965   2.593   4.770  0.5421  1.2544 -1.0971
  729MOL0     O  465   8.191   4.444   3.361 -0.0402 -0.3838  0.2888
  729MOL0     C  466   8.249   4.465   3.251  0.3842 -0.2045  0.0461
  729MOL0     O  467   8.380   4.431   3.223  0.4563  0.1329 -0.4303
  729MOL0     C  468   8.461   4.348   3.293 -0.0048 -0.1875  0.7641
  729MOL0     C  469   8.597   4.341   3.260 -0.2086  0.1408  0.1242
  729MOL0     C  470   8.686   4.259   3.333  0.5296 -0.7341  1.0163
  729MOL0     C  471   8.636   4.186   3.442  0.7787  0.1415 -0.2717
  729MOL0     O  472   8.705   4.099   3.522  0.2818 -0.0637  0.1273
  729MOL0     C  473   8.848   4.077   3.511  0.3197  0.6526 -0.3772
  729MOL0     C  474   8.892   3.948   3.588  0.8855 -0.4006  0.3915
  729MOL0     C  475   9.039   3.937   3.618 -0.4536  0.5260  0.0499
  729MOL0     C  476   9.080   4.015   3.743  0.6844  0.3716 -0.0429
  729MOL0     C  477   9.224   3.967   3.784 -0.9838  0.4440 -0.8839
  729MOL0     C  478   9.266   4.047   3.912  0.4930 -0.2388  0.3720
  729MOL0     C  479   9.310   4.188   3.879 -0.8095  0.0280 -1.0955
  729MOL0     C  480   9.456   4.184   3.830 -0.2354  0.0607  0.4782
  729MOL0     N  481   9.550   4.184   3.939  0.9613  0.1080 -0.8655
  729MOL0     C  482   9.601   4.072   4.004  0.5170  0.2923  0.1783
  729MOL0     C  483   9.692   4.112   4.093 -0.7999 -0.4173  0.3344
  729MOL0     C  484   9.785   4.042   4.180  0.4996  0.7323  0.1835
  729MOL0     C  485   9.932   4.050   4.135 -0.4885  0.8277  0.6172
  729MOL0     C  486  10.013   4.184   4.146  0.9138 -0.0192 -0.0543
  729MOL0     C  487  10.155   4.153   4.101 -0.3902 -0.3865 -0.7488
  729MOL0     O  488  10.242   4.131   4.214 -0.5316  0.1813  0.7096
  729MOL0     C  489  10.322   4.234   4.263 -0.1638 -0.3417  0.3978
  729MOL0     C  490  10.452   4.213   4.320  0.9278  0.3607  0.5116
  729MOL0     C  491  10.530   4.315   4.373 -0.1753  0.0356 -0.7811
  729MOL0     C  492  10.660   4.267   4.432 -0.5744 -0.4921 -0.2463
  729MOL0     C  493  10.488   4.447   4.362  0.1345 -0.1005  0.0398
  729MOL0     C  494  10.575   4.559   4.410 -0.0798  0.9970 -0.1291
  729MOL0     O  495  10.520   4.658   4.487  1.2220  0.8748 -0.2177
  729MOL0     C  496  10.413   4.620   4.564  0.3273 -0.5780 -0.2869
  729MOL0     C  497  10.448   4.560   4.688  0.0240 -0.2074  0.0527
  729MOL0     C  498  10.348   4.531   4.780  0.2203 -0.0108 -0.0031
  729MOL0     C  499  10.217   4.578   4.771 -0.6269  0.3746 -0.2403
  729MOL0     O  500  10.111   4.569   4.859 -0.7626  0.4295  0.1488
  729MOL0     C  501  10.159   4.563   4.994  0.0532 -0.2822  0.3692
  729MOL0     C  502  10.039   4.571   5.093  0.1388 -0.1163  0.7179
  729MOL0     C  503  10.069   4.541   5.237  0.9085 -0.0973 -0.4794
  729MOL0     C  504   9.939   4.543   5.308 -0.0581  0.4159  0.2521
  729MOL0     C  505   9.869   4.402   5.307  0.1951  0.0098 -0.7979
  729MOL0     C  506   9.724   4.408   5.371 -0.1725 -0.3444  0.1397
  729MOL0     C  507   9.671   4.261   5.384  0.2282  0.1460 -0.1461
  729MOL0     C  508   9.526   4.255   5.449 -1.1907 -1.4197  0.8169
  729MOL0    Cl  509   9.528   4.335   5.610 -0.0620 -0.2192  0.1503
  729MOL0     C  510  10.182   4.631   4.648  0.2427  0.6077  0.5010
  729MOL0     C  511  10.284   4.654   4.551  0.3704  0.8313 -0.3215
  729MOL0     O  512  10.688   4.561   4.362 -0.0963  0.1751 -0.4037
  729MOL0     C  513  10.358   4.467   4.300  0.6803 -0.0013  0.7703
  729MOL0     C  514  10.278   4.367   4.254 -0.7060  0.0018 -0.4243
  729MOL0     N  515   9.699   4.246   4.080  0.1755 -1.0249  0.1583
  729MOL0     N  516   9.609   4.291   3.994  0.1040  0.6009  0.3057
  729MOL0     C  517   8.503   4.191   3.474  1.3096  0.4368 -0.0040
  729MOL0     C  518   8.416   4.275   3.399  0.2981  1.1404 -0.8441
  729MOL0     C  519   8.174   4.523   3.132  0.1113 -0.5224 -0.8119
  729MOL0     C  520   8.036   4.515   3.135  1.1000 -0.0653  0.6017
  729MOL0     C  521   7.948   4.567   3.041 -0.7294 -0.7264 -0.2830
  729MOL0     C  522   8.001   4.621   2.923  0.8490  0.0354  0.3343
  729MOL0     O  523   7.928   4.688   2.824  0.1170  0.4653  0.2854
  729MOL0     C  524   7.787   4.705   2.844  0.0436  0.9509 -0.0647
  729MOL0     C  525   7.715   4.577   2.803  0.4094 -0.1520 -0.0593
  729MOL0     C  526   7.590   4.557   2.891 -0.7620 -0.2202  0.2130
  729MOL0     C  527   7.516   4.449   2.827  0.3631 -0.2809 -0.7405
  729MOL0     C  528   7.375   4.461   2.885 -1.1777 -1.2990  0.8815
  729MOL0     C  529   7.263   4.461   2.929  0.3017  0.5386 -0.6622
  729MOL0     C  530   8.143   4.612   2.903  0.4659  1.0989  0.4391
  729MOL0     C  531   8.230   4.559   3.005 -0.0247 -0.2682 -0.5836
  729MOL0     C  532   8.373   4.552   2.977 -0.3824 -0.0917 -0.5996
  729MOL0     H  533   8.634   4.407   3.181 -0.6969  1.4664  0.9794
  729MOL0     H  534   8.789   4.274   3.304  0.0740  0.8974  0.0944
  729MOL0     H  535   8.910   4.160   3.548  0.9196  0.1018 -0.1320
  729MOL0     H  536   8.861   4.063   3.403 -1.0770 -3.2624 -0.1845
  729MOL0     H  537   8.829   3.944   3.678 -0.4129  0.4933 -0.4506
  729MOL0     H  538   8.862   3.871   3.516 -0.7856  0.0899  0.5114
  729MOL0     H  539   9.060   3.832   3.641 -1.3070  0.6290  1.4193
  729MOL0     H  540   9.110   3.959   3.538  0.9169  0.9885  1.3266
  729MOL0     H  541   9.079   4.121   3.715  0.4572 -0.6699 -4.6329
  729MOL0     H  542   9.008   3.996   3.824  0.4679 -0.2418 -0.3693
  729MOL0     H  543   9.291   3.985   3.700 -0.2740 -0.4462 -0.5235
  729MOL0     H  544   9.224   3.858   3.794 -0.0764  0.6360  3.8450
  729MOL0     H  545   9.175   4.056   3.971 -1.1039  1.0538 -2.1540
  729MOL0     H  546   9.347   3.998   3.968  2.8168  1.9199 -0.9011
  729MOL0     H  547   9.310   4.246   3.972  0.2248 -0.1738 -0.9547
  729MOL0     H  548   9.253   4.232   3.797  1.7464  0.3827 -2.8183
  729MOL0     H  549   9.479   4.110   3.753 -1.0436  2.0638 -1.8212
  729MOL0     H  550   9.470   4.274   3.770  4.6256 -2.2953 -2.6055
  729MOL0     H  551   9.575   3.970   3.977  1.6264  0.6200 -2.3863
  729MOL0     H  552   9.765   3.935   4.187  1.6923  0.3177 -1.8227
  729MOL0     H  553   9.772   4.084   4.281 -1.5258 -0.4313  0.4414
  729MOL0     H  554   9.984   3.988   4.210  0.4294 -0.7308 -1.2278
  729MOL0     H  555   9.944   4.006   4.036  0.7139 -0.4386  1.2999
  729MOL0     H  556   9.956   4.251   4.082  0.4969  0.8100  1.1420
  729MOL0     H  557  10.016   4.211   4.252  0.2659 -0.7136  0.1541
  729MOL0     H  558  10.150   4.066   4.035 -1.4178  0.5410 -1.9627
  729MOL0     H  559  10.195   4.242   4.050  2.6062 -0.3884  1.3368
  729MOL0     H  560  10.490   4.112   4.312 -0.8285 -0.2411 -1.1231
  729MOL0     H  561  10.685   4.322   4.523  0.0643 -0.7124 -0.2845
  729MOL0     H  562  10.739   4.275   4.357 -0.4294 -2.9192 -0.4456
  729MOL0     H  563  10.669   4.161   4.459 -3.4354 -0.4570  1.2321
  729MOL0     H  564  10.550   4.527   4.709 -0.6598 -1.7315  1.2009
  729MOL0     H  565  10.377   4.480   4.871 -0.2858  2.0808  1.4125
  729MOL0     H  566  10.212   4.468   5.002  3.0404  1.0888 -1.3578
  729MOL0     H  567  10.229   4.643   5.020  0.3934  0.5491 -2.7140
  729MOL0     H  568  10.005   4.672   5.072 -0.4714 -0.4545  0.0347
  729MOL0     H  569   9.962   4.501   5.059 -0.1119  1.3468 -1.9182
  729MOL0     H  570  10.130   4.620   5.282 -0.3046  0.8806 -0.4748
  729MOL0     H  571  10.119   4.448   5.266 -2.5911 -0.6628  5.5342
  729MOL0     H  572   9.869   4.614   5.263  0.5749  0.2492 -1.0547
  729MOL0     H  573   9.950   4.567   5.414 -0.9174  1.3013  0.1476
  729MOL0     H  574   9.848   4.365   5.206 -2.0169 -2.3909  0.4213
  729MOL0     H  575   9.925   4.330   5.367  0.6381  1.4139  0.5412
  729MOL0     H  576   9.656   4.460   5.302 -0.6910 -2.2085 -0.8288
  729MOL0     H  577   9.718   4.457   5.468  0.2142  2.8171 -1.2762
  729MOL0     H  578   9.746   4.202   5.438 -0.2878 -0.3597  0.0207
  729MOL0     H  579   9.664   4.215   5.285 -1.4041 -1.4954  0.6724
  729MOL0     H  580   9.505   4.149   5.467  1.7553 -1.6926  3.4487
  729MOL0     H  581   9.453   4.304   5.383 -0.3685  0.1753  1.0277
  729MOL0     H  582  10.080   4.655   4.621  0.2400  1.8876  1.5110
  729MOL0     H  583  10.257   4.703   4.459  0.7034  0.8404 -0.4150
  729MOL0     H  584  10.323   4.568   4.279  0.9471 -0.5751 -2.9992
  729MOL0     H  585  10.179   4.376   4.210 -0.4474 -1.5598 -1.4113
  729MOL0     H  586   8.462   4.129   3.553 -2.6382  1.8273 -0.7497
  729MOL0     H  587   8.316   4.282   3.440  1.2043  0.9002  1.5308
  729MOL0     H  588   7.987   4.477   3.224 -0.5913  0.5224 -0.0547
  729MOL0     H  589   7.841   4.561   3.057 -0.7817  1.4507  0.4596
  729MOL0     H  590   7.772   4.729   2.950  4.2792  0.2674  0.8805
  729MOL0     H  591   7.751   4.787   2.781  1.0982  1.5253  0.0594
  729MOL0     H  592   7.786   4.495   2.816  1.1527  0.4636 -0.1840
  729MOL0     H  593   7.677   4.586   2.701 -1.9176  0.9147  0.8366
  729MOL0     H  594   7.613   4.531   2.994  1.1797  0.6363  0.0339
  729MOL0     H  595   7.527   4.647   2.897 -0.8833 -0.4148  3.6427
  729MOL0     H  596   7.557   4.353   2.860  0.0410  0.8863  3.6718
  729MOL0     H  597   7.513   4.449   2.718  0.8464 -0.7205 -0.7590
  729MOL0     H  598   7.168   4.476   2.977 -0.9850 -0.0003 -2.9237
  729MOL0     H  599   8.182   4.643   2.806 -0.4892  3.9275  0.8534
  729MOL0     H  600   8.393   4.602   2.882  0.3760  2.0844  0.6311
  729MOL0     H  601   8.441   4.603   3.046  3.6298 -3.4223 -1.6223
  729MOL0     H  602   8.405   4.448   2.984 -0.7525 -0.1326  0.6407
  730MOL0     O  603   5.098   3.744   5.576  0.2393 -0.1964 -0.3179
  730MOL0     C  604   5.086   3.818   5.476  0.0541  0.8630 -0.4841
  730MOL0     O  605   5.184   3.898   5.425  0.1574 -0.1942 -0.0382
  730MOL0     C  606   5.312   3.890   5.465 -0.3092 -1.1627  0.5485
  730MOL0     C  607   5.353   3.938   5.590  0.8378 -0.1288 -0.6862
  730MOL0     C  608   5.483   3.924   5.639 -0.0612  1.2509  0.6499
  730MOL0     C  609   5.584   3.853   5.560 -0.1553 -0.6488  0.2575
  730MOL0     O  610   5.723   3.849   5.587 -0.4067  0.6948 -0.4911
  730MOL0     C  611   5.778   3.957   5.673  0.4974 -0.2004 -0.1620
  730MOL0     C  612   5.936   3.959   5.667 -0.0135 -0.4209  0.2885
  730MOL0     C  613   5.994   4.084   5.740 -0.0281 -0.6772  0.4829
  730MOL0     C  614   6.146   4.068   5.745 -0.0516 -0.1705 -0.4713
  730MOL0     C  615   6.223   4.183   5.808  0.1324 -0.2353 -0.1235
  730MOL0     C  616   6.357   4.134   5.863 -0.8941  0.2336  0.1968
  730MOL0     C  617   6.449   4.241   5.924  0.3731 -0.0592  0.2994
  730MOL0     C  618   6.452   4.363   5.831  0.2478 -0.2240 -0.1321
  730MOL0     N  619   6.580   4.433   5.838 -0.0709 -0.1477 -0.7794
  730MOL0     C  620   6.627   4.478   5.962  0.5545  0.0890  0.2136
  730MOL0     C  621   6.745   4.537   5.930 -0.6993 -0.1290  0.4468
  730MOL0     C  622   6.841   4.589   6.027 -0.4805 -0.0858 -0.5334
  730MOL0     C  623   6.900   4.478   6.122  0.7378 -0.8473 -0.3146
  730MOL0     C  624   7.006   4.536   6.215  0.2104  0.0067  0.1929
  730MOL0     C  625   7.140   4.544   6.143  0.4508 -0.1154 -0.2542
  730MOL0     O  626   7.197   4.411   6.136  1.1778  0.3097  0.0142
  730MOL0     C  627   7.321   4.390   6.078 -0.8103  0.1787 -0.4779
  730MOL0     C  628   7.366   4.258   6.064 -0.4790 -0.5749  0.0678
  730MOL0     C  629   7.497   4.234   6.015 -0.6959 -0.4036 -0.1739
  730MOL0     C  630   7.531   4.089   5.993 -0.3916 -0.2399 -0.0665
  730MOL0     C  631   7.585   4.343   5.985  0.4120  0.6344  0.7007
  730MOL0     C  632   7.739   4.329   5.935  0.2553  0.1221  0.2703
  730MOL0     O  633   7.788   4.424   5.847 -0.1078  0.1011 -0.3068
  730MOL0     C  634   7.884   4.385   5.758  0.3901  1.3838 -0.1767
  730MOL0     C  635   7.981   4.463   5.732 -0.1586  0.2396  0.1513
  730MOL0     C  636   8.090   4.422   5.650  0.3847  0.0317 -0.3577
  730MOL0     C  637   8.088   4.312   5.572  1.3566  0.3409 -0.1578
  730MOL0     O  638   8.188   4.276   5.490  0.1263  1.1268 -0.3368
  730MOL0     C  639   8.297   4.374   5.463  0.6212  0.3713 -0.8427
  730MOL0     C  640   8.397   4.315   5.367 -0.4775 -0.3888 -0.0557
  730MOL0     C  641   8.506   4.221   5.423 -0.1775  0.3930  0.5971
  730MOL0     C  642   8.646   4.287   5.409  0.0430 -0.1431  0.5646
  730MOL0     C  643   8.751   4.209   5.487 -0.7733  0.1375  0.1486
  730MOL0     C  644   8.880   4.299   5.503  0.2247 -0.2793  0.1771
  730MOL0     C  645   8.997   4.225   5.563  0.3730  0.5997  0.1990
  730MOL0     C  646   9.114   4.318   5.623  0.2542 -0.6774 -0.3939
  730MOL0    Cl  647   9.206   4.417   5.502 -0.5097  0.3406  0.2548
  730MOL0     C  648   7.974   4.232   5.598  0.2240  0.5281 -0.5879
  730MOL0     C  649   7.882   4.271   5.679  0.8464 -0.6591 -0.2070
  730MOL0     O  650   7.796   4.221   5.961 -0.5298 -0.5067  0.1137
  730MOL0     C  651   7.529   4.473   5.987 -0.4915  0.6766 -0.6344
  730MOL0     C  652   7.405   4.493   6.034 -0.1744  0.2009  0.4235
  730MOL0     N  653   6.760   4.531   5.790  0.2477 -0.6590 -0.6097
  730MOL0     N  654   6.668   4.462   5.739  0.2882  0.3151 -0.2904
  730MOL0     C  655   5.537   3.810   5.436  0.0328 -0.1163 -0.0241
  730MOL0     C  656   5.408   3.827   5.387  0.3972  0.0596  0.0095
  730MOL0     C  657   4.950   3.830   5.422 -0.2023 -0.5825  0.2769
  730MOL0     C  658   4.908   3.741   5.327 -0.5484 -0.1520  0.0393
  730MOL0     C  659   4.771   3.756   5.290  0.0917  0.7862  0.0893
  730MOL0     C  660   4.692   3.855   5.333 -0.4532 -0.8206  0.2254
  730MOL0     O  661   4.568   3.859   5.285  0.5041 -0.3636  0.4414
  730MOL0     C  662   4.472   3.954   5.315 -0.1826 -0.6474 -0.0801
  730MOL0     C  663   4.341   3.901   5.280  0.0371  0.5314 -0.3550
  730MOL0     C  664   4.234   3.995   5.318  0.1477 -0.5554  0.1570
  730MOL0     C  665   4.102   3.972   5.249  0.7808 -0.1605 -0.6046
  730MOL0     C  666   4.068   3.833   5.228  0.2489 -0.7471 -0.7574
  730MOL0     C  667   4.053   3.713   5.217 -0.0037 -0.1019  0.0433
  730MOL0     C  668   4.742   3.946   5.425 -0.1031  0.0486 -0.0747
  730MOL0     C  669   4.870   3.939   5.475  0.2836 -0.6268  0.1598
  730MOL0     C  670   4.920   4.037   5.573 -0.4508 -0.1638 -0.6676
  730MOL0     H  671   5.268   3.986   5.639  1.8410  3.7442 -2.3387
  730MOL0     H  672   5.509   3.972   5.733 -3.2522  0.6675  1.9458
  730MOL0     H  673   5.744   3.944   5.776  0.7770  0.0111 -0.0397
  730MOL0     H  674   5.741   4.055   5.640  1.7887  0.7398  1.0424
  730MOL0     H  675   5.977   3.867   5.710 -0.1608 -0.1891  0.9370
  730MOL0     H  676   5.963   3.959   5.561 -0.5257  0.3792  0.1494
  730MOL0     H  677   5.974   4.175   5.683  1.7431 -1.1237 -0.9274
  730MOL0     H  678   5.949   4.096   5.839 -1.6731  3.4762 -0.5439
  730MOL0     H  679   6.166   3.978   5.803  1.8293  0.7438  0.3899
  730MOL0     H  680   6.179   4.038   5.645 -4.5956 -1.3153 -1.8736
  730MOL0     H  681   6.159   4.217   5.890  1.6108 -0.6254  1.2427
  730MOL0     H  682   6.230   4.261   5.732  2.9001  0.0759  0.3484
  730MOL0     H  683   6.333   4.056   5.936 -0.3601 -1.4805 -1.3695
  730MOL0     H  684   6.418   4.087   5.786  0.6279 -0.0401  1.5110
  730MOL0     H  685   6.551   4.207   5.944  0.8724  0.1707 -1.6526
  730MOL0     H  686   6.405   4.263   6.022 -0.9553  0.2233 -0.3285
  730MOL0     H  687   6.442   4.324   5.729 -3.3805  0.5702 -0.2054
  730MOL0     H  688   6.371   4.432   5.855  1.1320  0.5924  0.5614
  730MOL0     H  689   6.589   4.458   6.062  0.6948 -1.2353  0.0215
  730MOL0     H  690   6.793   4.669   6.085  3.1974  1.1900  0.9949
  730MOL0     H  691   6.916   4.642   5.967 -0.1727  0.5742  0.4153
  730MOL0     H  692   6.817   4.439   6.181  0.5064 -1.0978 -0.7947
  730MOL0     H  693   6.936   4.393   6.063  0.3095 -0.7094 -0.7817
  730MOL0     H  694   6.959   4.630   6.246  1.3559  0.4766  0.5562
  730MOL0     H  695   7.011   4.473   6.304 -1.5504  2.3453  2.1148
  730MOL0     H  696   7.136   4.572   6.037  3.3523 -2.9236 -1.2667
  730MOL0     H  697   7.205   4.615   6.195 -1.4838  0.6691  1.2359
  730MOL0     H  698   7.301   4.176   6.093 -0.2961 -1.9366 -2.9091
  730MOL0     H  699   7.447   4.028   6.029  0.0676 -0.7195  0.2039
  730MOL0     H  700   7.618   4.066   6.055  0.6608  3.0212 -0.1371
  730MOL0     H  701   7.557   4.081   5.887  0.7812  1.3095  0.0759
  730MOL0     H  702   7.985   4.561   5.779 -0.1397  0.1940  0.2460
  730MOL0     H  703   8.182   4.479   5.650  1.7696 -2.0548 -1.6751
  730MOL0     H  704   8.253   4.469   5.433 -0.0830  0.6453  0.9701
  730MOL0     H  705   8.346   4.392   5.559 -1.4395 -2.0617  0.7712
  730MOL0     H  706   8.349   4.280   5.275  1.0566  0.8787 -1.3983
  730MOL0     H  707   8.444   4.406   5.330  2.1029 -1.6227 -0.0170
  730MOL0     H  708   8.503   4.125   5.371  1.7664  0.3624  0.4612
  730MOL0     H  709   8.484   4.190   5.525  1.0609 -1.2904  0.3915
  730MOL0     H  710   8.643   4.386   5.456 -3.2778 -0.0174  0.3297
  730MOL0     H  711   8.667   4.294   5.302 -1.0358 -0.3317  0.3257
  730MOL0     H  712   8.716   4.171   5.583  1.4976 -1.7769  0.3054
  730MOL0     H  713   8.775   4.122   5.426 -0.2400  0.1149  0.3839
  730MOL0     H  714   8.854   4.397   5.543  0.5616  0.2123 -0.7625
  730MOL0     H  715   8.909   4.318   5.399  0.0305 -2.2621 -0.2897
  730MOL0     H  716   9.044   4.155   5.493  3.1212 -1.4895  3.7621
  730MOL0     H  717   8.954   4.163   5.642  0.6305  1.8273  1.3435
  730MOL0     H  718   9.200   4.259   5.657  1.4950  0.1564 -1.9529
  730MOL0     H  719   9.082   4.387   5.702 -1.3896  0.2469 -1.8184
  730MOL0     H  720   7.966   4.140   5.541  1.0614  2.0768 -3.4063
  730MOL0     H  721   7.792   4.209   5.680 -2.2433  3.4237  0.8410
  730MOL0     H  722   7.585   4.565   5.970  2.2030 -0.3152  2.0141
  730MOL0     H  723   7.364   4.593   6.028 -3.6529 -1.1590 -1.7314
  730MOL0     H  724   5.609   3.767   5.367 -0.6055 -3.5465  1.2310
  730MOL0     H  725   5.385   3.792   5.287  1.6153  0.9929 -0.6188
  730MOL0     H  726   4.972   3.667   5.280  1.4925  2.4622 -1.5918
  730MOL0     H  727   4.730   3.680   5.224 -1.5790  0.9979  0.8261
  730MOL0     H  728   4.475   3.976   5.422  2.0486 -0.8751 -0.0401
  730MOL0     H  729   4.498   4.049   5.267 -1.2346 -0.8938 -1.1674
  730MOL0     H  730   4.335   3.800   5.322  2.1869  0.2222 -0.7257
  730MOL0     H  731   4.337   3.895   5.171  4.3665  0.0359 -0.6287
  730MOL0     H  732   4.206   3.983   5.423  0.0275 -1.7483 -0.0005
  730MOL0     H  733   4.259   4.101   5.308 -0.8862 -0.4811 -2.3577
  730MOL0     H  734   4.094   4.037   5.161  0.5138 -1.6585 -1.7174
  730MOL0     H  735   4.026   4.009   5.319  1.0361 -0.6936 -0.0402
  730MOL0     H  736   4.040   3.608   5.208 -1.4765  0.2338 -2.4747
  730MOL0     H  737   4.688   4.033   5.461  2.7802  1.0251  2.3070
  730MOL0     H  738   5.000   4.100   5.531  0.1851  1.2347  2.3766
  730MOL0     H  739   4.836   4.097   5.607  0.4962  2.6749 -2.8732
  730MOL0     H  740   4.962   4.001   5.667 -1.4048  0.5316  0.0378
  731MOL0     O  741   4.088   4.683   7.399  0.0449  0.2193 -0.0530
  731MOL0     C  742   3.994   4.615   7.440  0.1422 -0.2478  0.6798
  731MOL0     O  743   3.987   4.541   7.561 -0.2758 -0.5447  0.2115
  731MOL0     C  744   4.107   4.512   7.627  0.2639  0.4746 -0.1745
  731MOL0     C  745   4.108   4.501   7.773  0.2498  0.6713  0.5099
  731MOL0     C  746   4.217   4.447   7.844 -0.5198 -0.7393  0.4390
  731MOL0     C  747   4.329   4.404   7.773 -0.5165 -0.1860 -0.4474
  731MOL0     O  748   4.444   4.351   7.833  0.2143 -0.0647 -0.7969
  731MOL0     C  749   4.434   4.365   7.979 -0.3762 -0.0957  0.3636
  731MOL0     C  750   4.572   4.328   8.027 -0.9991  0.7930 -0.7200
  731MOL0     C  751   4.582   4.340   8.174  0.7663 -0.4121  0.2618
  731MOL0     C  752   4.725   4.306   8.214 -0.0396 -0.9536  0.2343
  731MOL0     C  753   4.737   4.335   8.368  0.1786  0.3295 -0.3482
  731MOL0     C  754   4.845   4.436   8.384 -0.6705 -0.2411  0.6402
  731MOL0     C  755   4.913   4.456   8.515 -0.1034 -0.5834  0.2399
  731MOL0     C  756   5.029   4.553   8.521  0.4269 -0.2880 -0.2681
  731MOL0     N  757   5.094   4.536   8.651 -0.7564  0.2446  0.6961
  731MOL0     C  758   5.159   4.432   8.714 -0.1496  0.2553  0.2823
  731MOL0     C  759   5.195   4.474   8.837  0.7197  0.1112 -0.2494
  731MOL0     C  760   5.257   4.378   8.943  0.3066  0.9485 -1.1073
  731MOL0     C  761   5.335   4.454   9.051  0.5509  0.2427 -0.1972
  731MOL0     C  762   5.368   4.354   9.156 -0.1612  0.1900 -0.1063
  731MOL0     C  763   5.488   4.405   9.238  0.3897 -0.6655  0.2207
  731MOL0     O  764   5.512   4.321   9.350 -0.1557  0.5830 -0.5409
  731MOL0     C  765   5.639   4.334   9.412 -0.5985 -0.1678  0.8163
  731MOL0     C  766   5.713   4.458   9.412  0.4782  0.4049 -0.5986
  731MOL0     C  767   5.840   4.454   9.476 -0.4127 -0.1735  0.2287
  731MOL0     C  768   5.931   4.580   9.455  0.2696 -0.7321 -0.2644
  731MOL0     C  769   5.884   4.335   9.539 -0.4536 -0.0688 -0.1170
  731MOL0     C  770   6.000   4.335   9.635  1.4785 -0.2504  0.3955
  731MOL0     O  771   6.070   4.452   9.662  0.3215 -0.2052  0.3269
  731MOL0     C  772   6.123   4.442   9.789  0.1270  0.0962  0.4293
  731MOL0     C  773   6.255   4.421   9.801 -0.4694  0.1559 -0.0440
  731MOL0     C  774   6.309   4.410   9.925 -0.2802 -0.0438 -0.0373
  731MOL0     C  775   6.234   4.426  10.046  0.6515 -0.2605 -0.0238
  731MOL0     O  776   6.303   4.405  10.165 -0.2699 -0.8688  0.1147
  731MOL0     C  777   6.218   4.387  10.288  0.4006  0.1236 -0.3527
  731MOL0     C  778   6.298   4.463  10.394 -0.3897 -0.6576  0.1981
  731MOL0     C  779   6.407   4.368  10.456 -0.7960  0.6549 -0.0554
  731MOL0     C  780   6.472   4.422  10.579 -0.1649 -0.0972 -0.9323
  731MOL0     C  781   6.560   4.319  10.651 -0.2680  0.1217 -0.7455
  731MOL0     C  782   6.626   4.384  10.772 -0.4036 -0.4020  0.1301
  731MOL0     C  783   6.770   4.351  10.788 -0.0542  0.1905 -0.2826
  731MOL0     C  784   6.834   4.455  10.886  0.0742  0.4164 -0.5464
  731MOL0    Cl  785   6.979   4.376  10.942  0.2377  0.0192  0.1660
  731MOL0     C  786   6.094   4.445  10.032 -0.1209 -0.8974  0.2607
  731MOL0     C  787   6.037   4.445   9.899  0.3616 -0.1474 -0.5138
  731MOL0     O  788   6.015   4.227   9.684 -0.1472 -0.5052  0.2204
  731MOL0     C  789   5.815   4.222   9.526  0.8710 -0.1736 -0.3742
  731MOL0     C  790   5.695   4.215   9.460  0.4211 -0.5930  0.0257
  731MOL0     N  791   5.167   4.607   8.847 -0.4344  0.1450  0.3149
  731MOL0     N  792   5.119   4.641   8.732 -0.3947  0.1327 -0.5523
  731MOL0     C  793   4.342   4.431   7.631 -0.6374 -0.0775 -0.1885
  731MOL0     C  794   4.231   4.477   7.563 -0.3074 -0.1005 -0.8359
  731MOL0     C  795   3.862   4.635   7.370  0.0676 -0.1466 -0.3893
  731MOL0     C  796   3.859   4.782   7.222  0.6163  0.4184  1.0475
  731MOL0     C  797   3.674   4.818   7.114 -0.5795 -0.0227  0.2164
  731MOL0     C  798   3.503   4.714   7.163  0.2951  0.5079 -0.0454
  731MOL0     O  799   3.385   4.747   7.104  0.0998 -0.9099  1.0736
  731MOL0     C  800   3.385   4.856   7.009 -0.7696 -1.1467  0.0666
  731MOL0     C  801   3.245   4.847   6.954 -0.7766  0.5402 -0.9066
  731MOL0     C  802   3.222   4.943   6.848 -0.5360 -0.1023  0.9371
  731MOL0     C  803   3.122   5.042   6.900 -0.4484 -0.4213 -0.3970
  731MOL0     C  804   2.988   4.977   6.901  0.5393 -0.1869  0.0550
  731MOL0     C  805   2.878   4.923   6.910  0.1661  0.3078 -0.2072
  731MOL0     C  806   3.508   4.564   7.310  0.5088  0.0926 -0.5196
  731MOL0     C  807   3.685   4.528   7.420  0.4097 -0.1539 -0.1928
  731MOL0     C  808   3.686   4.418   7.534  0.9369 -0.6305  0.5673
  731MOL0     H  809   4.018   4.515   7.832  1.5697  1.6990  2.3769
  731MOL0     H  810   4.212   4.441   7.952  2.4217  1.4137  0.7977
  731MOL0     H  811   4.367   4.297   8.031  0.9254 -0.8036  1.1815
  731MOL0     H  812   4.407   4.463   8.020 -0.2711 -0.9491  2.6375
  731MOL0     H  813   4.604   4.230   7.992 -1.6011  0.4564 -0.3487
  731MOL0     H  814   4.644   4.394   7.978  0.3103 -1.1419 -1.5269
  731MOL0     H  815   4.557   4.440   8.210  1.0819 -0.6222  1.0816
  731MOL0     H  816   4.511   4.273   8.222 -0.6004  0.9601  0.2307
  731MOL0     H  817   4.759   4.206   8.183 -1.1426 -1.4500  0.5709
  731MOL0     H  818   4.792   4.378   8.165 -0.3228  0.3203  1.6737
  731MOL0     H  819   4.758   4.241   8.419 -1.0147  0.5853  0.6526
  731MOL0     H  820   4.641   4.371   8.407  0.3474  0.6318 -0.2112
  731MOL0     H  821   4.924   4.410   8.312 -1.0392 -0.0985  0.1751
  731MOL0     H  822   4.810   4.537   8.363  1.7401  0.3168 -1.2162
  731MOL0     H  823   4.947   4.355   8.541 -2.3203 -1.5358 -0.3442
  731MOL0     H  824   4.840   4.494   8.586  0.5381 -1.2053  1.2670
  731MOL0     H  825   5.107   4.550   8.445  1.7483  0.2347  1.0066
  731MOL0     H  826   4.991   4.654   8.505 -0.6904 -0.6473  0.0546
  731MOL0     H  827   5.184   4.333   8.675  3.3907  0.4968  1.5849
  731MOL0     H  828   5.320   4.307   8.888  0.1855 -0.2613  0.2646
  731MOL0     H  829   5.179   4.319   8.992  1.2944  0.2963 -0.2652
  731MOL0     H  830   5.424   4.487   8.997  0.6041 -0.4190 -0.5226
  731MOL0     H  831   5.274   4.535   9.090 -0.1806  0.4339 -1.6709
  731MOL0     H  832   5.278   4.338   9.216 -0.8317 -1.6571 -1.5053
  731MOL0     H  833   5.389   4.251   9.124  0.3229 -0.1240  1.1687
  731MOL0     H  834   5.582   4.403   9.181  0.9531  0.0490  1.0989
  731MOL0     H  835   5.467   4.509   9.264 -1.0245 -0.5537 -1.2125
  731MOL0     H  836   5.675   4.544   9.358  0.5366  0.9906  0.2749
  731MOL0     H  837   5.902   4.652   9.378 -1.3673 -2.2270 -1.1323
  731MOL0     H  838   6.033   4.546   9.434  1.1526  0.2469  2.0671
  731MOL0     H  839   5.920   4.640   9.546 -0.0388 -0.6439 -0.3594
  731MOL0     H  840   6.315   4.408   9.711 -2.4689  0.5247 -1.4939
  731MOL0     H  841   6.416   4.395   9.939 -0.5880 -0.2183  2.8945
  731MOL0     H  842   6.119   4.431  10.280  0.5253  0.4461 -0.1414
  731MOL0     H  843   6.216   4.281  10.315 -0.4744 -0.9596 -4.0088
  731MOL0     H  844   6.341   4.548  10.339 -0.5932 -0.6081  0.1119
  731MOL0     H  845   6.239   4.502  10.477  0.6423 -1.8062  1.5094
  731MOL0     H  846   6.483   4.336  10.384  0.4469  0.2229  1.3850
  731MOL0     H  847   6.364   4.273  10.490 -1.1799  0.4607 -1.0687
  731MOL0     H  848   6.405   4.461  10.656  2.3705  0.3923  1.1901
  731MOL0     H  849   6.539   4.504  10.551  0.2871 -0.1523 -0.0402
  731MOL0     H  850   6.501   4.239  10.697  0.3853  1.1916  2.1726
  731MOL0     H  851   6.637   4.284  10.581 -2.3391  1.4179 -3.9103
  731MOL0     H  852   6.568   4.350  10.859 -0.4040 -4.6341 -1.2685
  731MOL0     H  853   6.609   4.490  10.755 -2.5943 -0.9480 -1.6443
  731MOL0     H  854   6.831   4.378  10.701  0.4392  1.3897  0.4177
  731MOL0     H  855   6.783   4.245  10.810 -1.4542  0.6770  3.7402
  731MOL0     H  856   6.784   4.467  10.983 -1.0040 -1.4888 -0.8082
  731MOL0     H  857   6.861   4.552  10.843  2.1110 -0.9250 -2.5156
  731MOL0     H  858   6.022   4.457  10.112 -0.7757  0.1309 -0.4671
  731MOL0     H  859   5.930   4.453   9.885  0.5215  0.9600 -1.2081
  731MOL0     H  860   5.856   4.131   9.568  1.7411  0.7112  0.7592
  731MOL0     H  861   5.648   4.118   9.447  3.8652 -2.4331  0.1059
  731MOL0     H  862   4.435   4.389   7.593 -0.8024 -0.9960  0.3790
  731MOL0     H  863   4.238   4.495   7.456 -1.1155  2.1796 -0.5611
  731MOL0     H  864   3.956   4.821   7.193  1.0208 -2.4282 -2.0819
  731MOL0     H  865   3.668   4.905   7.049 -1.2060  1.6318  2.3837
  731MOL0     H  866   3.418   4.948   7.058  1.3865 -0.6245 -2.1641
  731MOL0     H  867   3.451   4.840   6.923 -0.9137 -1.4563  0.0110
  731MOL0     H  868   3.180   4.860   7.040  0.1610 -3.1448  0.5609
  731MOL0     H  869   3.227   4.744   6.920  2.9410  0.1724 -2.3093
  731MOL0     H  870   3.315   4.990   6.815 -0.3977 -1.3537 -0.5697
  731MOL0     H  871   3.194   4.896   6.753  0.2756  0.8140  0.2216
  731MOL0     H  872   3.124   5.122   6.827  0.8205 -1.7490 -1.8880
  731MOL0     H  873   3.151   5.087   6.996 -0.4748 -0.6126 -0.2973
  731MOL0     H  874   2.777   4.893   6.892  0.3358 -0.3109 -0.1411
  731MOL0     H  875   3.412   4.521   7.337  0.7181  0.1648  0.3607
  731MOL0     H  876   3.585   4.380   7.551  0.6937 -1.1739 -1.7440
  731MOL0     H  877   3.751   4.339   7.496 -1.4577 -2.8290  0.7894
  731MOL0     H  878   3.735   4.455   7.625  0.3158 -1.0512  1.0771
  732MOL0     O  879   9.697   0.214   8.253  0.0510 -0.7450 -0.2739
  732MOL0     C  880   9.646   0.143   8.171 -0.0437  0.4206  0.1748
  732MOL0     O  881   9.700   0.113   8.048  0.3178 -0.2966  0.1261
  732MOL0     C  882   9.833   0.149   8.011 -0.1765 -0.5443  0.0706
  732MOL0     C  883   9.860   0.164   7.875  0.3360 -0.3984  0.1180
  732MOL0     C  884   9.981   0.202   7.831 -0.5682  0.0941 -0.4966
  732MOL0     C  885  10.083   0.217   7.921 -0.1445  0.0440 -0.1774
  732MOL0     O  886  10.206   0.257   7.869  0.2573  0.0963 -0.6193
  732MOL0     C  887  10.298   0.333   7.947  0.9960 -0.2933 -0.1593
  732MOL0     C  888  10.404   0.361   7.852 -0.0952 -0.1698 -0.0811
  732MOL0     C  889  10.523   0.418   7.927 -0.5038  0.5062  0.8748
  732MOL0     C  890  10.491   0.555   7.997  0.3337  0.1677  0.9315
  732MOL0     C  891  10.553   0.545   8.134  0.5561 -0.7022 -0.0448
  732MOL0     C  892  10.704   0.548   8.133  0.4257 -0.4012 -0.4344
  732MOL0     C  893  10.788   0.513   8.263 -0.6055  0.0399 -0.2692
  732MOL0     C  894  10.756   0.622   8.371 -0.3571  0.4046 -0.6189
  732MOL0     N  895  10.838   0.596   8.492  0.4220  0.2222 -0.5080
  732MOL0     C  896  10.855   0.686   8.587  0.6774  0.4136 -0.0160
  732MOL0     C  897  10.914   0.632   8.689  0.9025  0.3656  0.2724
  732MOL0     C  898  10.952   0.732   8.795  0.3428  0.7071 -0.0480
  732MOL0     C  899  11.092   0.793   8.768  0.5518 -0.3214 -0.3814
  732MOL0     C  900  11.130   0.885   8.883  0.1514 -0.6529 -0.3659
  732MOL0     C  901  11.254   0.979   8.850  0.5371  0.7112  0.5323
  732MOL0     O  902  11.356   0.893   8.808  0.8604  0.0909 -0.3656
  732MOL0     C  903  11.417   0.910   8.684  0.4878 -0.1687 -0.2783
  732MOL0     C  904  11.423   1.027   8.606 -0.5644  0.2927 -0.0458
  732MOL0     C  905  11.480   1.029   8.472  0.0112 -0.1773  0.5274
  732MOL0     C  906  11.486   1.165   8.409  0.2740  0.9402  0.8089
  732MOL0     C  907  11.540   0.914   8.418  0.1214 -0.4658 -0.2054
  732MOL0     C  908  11.581   0.900   8.272 -0.1779 -0.4322  0.0194
  732MOL0     O  909  11.611   0.773   8.223  0.3383  0.0576 -0.6133
  732MOL0     C  910  11.637   0.759   8.090  0.1616  0.0381  1.6975
  732MOL0     C  911  11.549   0.695   8.009  0.1110  0.3049  0.0493
  732MOL0     C  912  11.572   0.675   7.870  0.4253  0.6882 -0.9139
  732MOL0     C  913  11.684   0.727   7.807  1.2596 -0.6957 -0.1690
  732MOL0     O  914  11.724   0.698   7.677  0.1545  0.2269 -0.3117
  732MOL0     C  915  11.707   0.564   7.630 -0.5934 -0.1060 -0.4575
  732MOL0     C  916  11.774   0.542   7.493  0.2266  0.2537  0.7261
  732MOL0     C  917  11.923   0.562   7.524 -0.0609 -0.1305  0.4531
  732MOL0     C  918  12.010   0.496   7.405  1.0987 -0.1438 -1.0752
  732MOL0     C  919  12.163   0.525   7.420 -0.0799 -0.3696 -0.4499
  732MOL0     C  920  12.246   0.457   7.309 -0.7698  0.4157 -1.2794
  732MOL0     C  921  12.388   0.526   7.282 -0.0072 -0.9511  0.1398
  732MOL0     C  922  12.454   0.474   7.152 -0.2083 -0.6319 -1.1827
  732MOL0    Cl  923  12.392   0.570   7.004 -0.2132 -0.1507 -0.1850
  732MOL0     C  924  11.774   0.798   7.889  0.4715 -0.1538 -0.0011
  732MOL0     C  925  11.757   0.806   8.030  0.3677  0.2415  0.6108
  732MOL0     O  926  11.590   1.002   8.203 -0.1248 -0.1534 -0.8891
  732MOL0     C  927  11.555   0.803   8.502 -0.8433  1.8757  0.4617
  732MOL0     C  928  11.489   0.800   8.626 -0.9105 -0.1619  0.4270
  732MOL0     N  929  10.947   0.499   8.657  0.3857 -0.5238 -0.8201
  732MOL0     N  930  10.890   0.480   8.543  0.0244  0.0483  0.2563
  732MOL0     C  931  10.063   0.195   8.054  0.7002  0.3462 -0.5092
  732MOL0     C  932   9.932   0.161   8.103  0.9183  0.3655  0.4112
  732MOL0     C  933   9.511   0.100   8.205  0.5281 -0.5257  0.0702
  732MOL0     C  934   9.443   0.027   8.107  0.1214 -0.3514  0.0099
  732MOL0     C  935   9.320  -0.024   8.127 -0.1559 -1.0954 -0.7251
  732MOL0     C  936   9.244  -0.002   8.238  0.1666  0.3567 -0.4973
  732MOL0     O  937   9.113  -0.051   8.238 -0.2989  0.1429 -0.2046
  732MOL0     C  938   9.034  -0.028   8.353  0.3268 -0.1378  0.0354
  732MOL0     C  939   8.895  -0.070   8.323  0.1448  0.6574  0.2802
  732MOL0     C  940   8.791  -0.042   8.442  0.2994 -0.7255  0.5381
  732MOL0     C  941   8.651  -0.063   8.394  0.4684 -0.5412  0.2669
  732MOL0     C  942   8.610   0.039   8.299 -0.6279  0.8669 -0.0434
  732MOL0     C  943   8.551   0.104   8.207 -0.8736  0.5215  0.0013
  732MOL0     C  944   9.309   0.068   8.342  0.0494  0.1028  0.8741
  732MOL0     C  945   9.446   0.116   8.330  0.7789 -0.7746  0.3504
  732MOL0     C  946   9.510   0.172   8.456  0.5562 -0.3737  0.0812
  732MOL0     H  947   9.774   0.170   7.809 -1.6656  3.2574  2.6900
  732MOL0     H  948   9.996   0.229   7.727  2.9211  0.1145 -0.1074
  732MOL0     H  949  10.323   0.273   8.036 -1.6485 -0.2047  0.7417
  732MOL0     H  950  10.250   0.424   7.984  2.3691  1.2179 -1.9135
  732MOL0     H  951  10.438   0.273   7.797  1.5694  0.6308 -0.4036
  732MOL0     H  952  10.375   0.441   7.783  0.7471 -0.7412 -1.1425
  732MOL0     H  953  10.549   0.334   7.992  0.2040 -0.3220 -0.4322
  732MOL0     H  954  10.608   0.428   7.859 -0.5330 -2.8394  0.1837
  732MOL0     H  955  10.547   0.633   7.944 -1.5985  0.5706 -0.6238
  732MOL0     H  956  10.384   0.577   7.994  0.0688 -0.8416  2.2822
  732MOL0     H  957  10.533   0.444   8.172  1.7846 -0.5171  1.1783
  732MOL0     H  958  10.501   0.621   8.193 -0.1246 -0.2725 -1.1604
  732MOL0     H  959  10.735   0.472   8.061 -0.6066 -3.2467  1.9280
  732MOL0     H  960  10.730   0.650   8.103 -2.3222  1.0910  1.8278
  732MOL0     H  961  10.895   0.520   8.239 -0.3908  2.2739  1.0926
  732MOL0     H  962  10.765   0.413   8.300 -1.0614 -0.5939 -2.1648
  732MOL0     H  963  10.785   0.719   8.331 -0.8046  2.4516  3.4768
  732MOL0     H  964  10.650   0.616   8.395 -0.7358 -2.1189 -2.5335
  732MOL0     H  965  10.819   0.787   8.571 -3.0191 -0.9822 -1.7750
  732MOL0     H  966  10.942   0.683   8.892  0.9628  3.1704  1.3614
  732MOL0     H  967  10.880   0.814   8.800 -0.5835 -0.1152  0.3766
  732MOL0     H  968  11.172   0.719   8.756 -1.5925 -2.6613 -1.2885
  732MOL0     H  969  11.084   0.853   8.677 -0.1068 -1.1662 -0.8923
  732MOL0     H  970  11.052   0.961   8.896 -0.2531 -1.2853  0.9711
  732MOL0     H  971  11.136   0.830   8.977 -0.3142  0.8402  0.5821
  732MOL0     H  972  11.236   1.057   8.776 -0.0373 -0.3774 -0.4978
  732MOL0     H  973  11.271   1.037   8.942 -1.1782  0.9649  0.7173
  732MOL0     H  974  11.382   1.116   8.654 -1.9612 -0.3087 -0.0666
  732MOL0     H  975  11.415   1.178   8.327  2.7594  2.0602 -1.3038
  732MOL0     H  976  11.586   1.173   8.365 -1.0155  0.5446 -2.4857
  732MOL0     H  977  11.461   1.240   8.485 -0.0006 -0.3077  1.9854
  732MOL0     H  978  11.466   0.640   8.052 -0.0868 -0.3817 -1.1632
  732MOL0     H  979  11.506   0.607   7.818  2.0372 -0.5547 -1.4366
  732MOL0     H  980  11.751   0.490   7.696  0.9156 -0.7791 -2.1364
  732MOL0     H  981  11.599   0.557   7.620 -0.9409  3.4718 -0.4668
  732MOL0     H  982  11.757   0.439   7.458  2.8854 -0.4529  1.3177
  732MOL0     H  983  11.735   0.611   7.417  0.0376  0.1381  0.7159
  732MOL0     H  984  11.955   0.520   7.620 -1.2776  1.1196  1.4559
  732MOL0     H  985  11.956   0.666   7.518  0.3268 -0.2215  0.9692
  732MOL0     H  986  11.968   0.539   7.313 -4.0768  1.0710  1.4981
  732MOL0     H  987  12.000   0.388   7.404  1.7771 -0.2105 -1.5623
  732MOL0     H  988  12.176   0.633   7.414  1.2253 -0.5825 -4.6739
  732MOL0     H  989  12.205   0.499   7.518 -2.9460 -0.1504  0.9530
  732MOL0     H  990  12.196   0.462   7.212  1.0579  0.7449 -2.2633
  732MOL0     H  991  12.274   0.355   7.338  3.0816  1.7427  0.4210
  732MOL0     H  992  12.455   0.489   7.361  0.3129  0.1822  0.4191
  732MOL0     H  993  12.376   0.634   7.280  2.6894 -0.5797 -1.6606
  732MOL0     H  994  12.424   0.371   7.133  3.5824 -1.6716 -2.5758
  732MOL0     H  995  12.562   0.467   7.169 -0.5913 -1.9205  1.2959
  732MOL0     H  996  11.857   0.851   7.843  0.5346  0.0676  0.3631
  732MOL0     H  997  11.841   0.843   8.088  0.4626  3.1242 -1.1886
  732MOL0     H  998  11.603   0.713   8.466 -1.7014  0.6129  2.2968
  732MOL0     H  999  11.500   0.704   8.676 -2.6937 -1.0418 -0.7726
  732MOL0     H 1000  10.151   0.206   8.117  1.8318  2.4117 -2.3009
  732MOL0     H 1001   9.913   0.131   8.206 -0.7430 -0.4474 -0.0934
  732MOL0     H 1002   9.499  -0.012   8.022 -0.6266 -1.0791 -0.1629
  732MOL0     H 1003   9.275  -0.082   8.047  2.0522 -2.3644 -1.1205
  732MOL0     H 1004   9.077  -0.084   8.436  2.6656 -1.7244 -2.0896
  732MOL0     H 1005   9.035   0.079   8.375 -2.1010  0.3737 -1.8992
  732MOL0     H 1006   8.913  -0.178   8.318 -0.5248  0.5708 -0.6387
  732MOL0     H 1007   8.859  -0.040   8.224  0.8049  2.5869  0.5818
  732MOL0     H 1008   8.827  -0.099   8.528  2.0113  1.0570  1.0862
  732MOL0     H 1009   8.802   0.063   8.471  3.1676 -0.0058 -2.5742
  732MOL0     H 1010   8.580  -0.068   8.477 -0.7300  0.6745 -0.6272
  732MOL0     H 1011   8.659  -0.164   8.353  2.4315  1.0544 -3.8128
  732MOL0     H 1012   8.497   0.163   8.136 -1.9831 -1.0872 -0.5521
  732MOL0     H 1013   9.254   0.100   8.429 -0.4818  3.0376 -0.4315
  732MOL0     H 1014   9.437   0.167   8.538 -0.6718  0.1946 -0.9452
  732MOL0     H 1015   9.605   0.119   8.471  0.9441 -1.0290 -3.7425
  732MOL0     H 1016   9.515   0.280   8.441 -4.0891 -0.1531 -1.6272
  733MOL0     O 1017   6.803   6.093   8.479  0.3914  0.1350  0.6593
  733MOL0     C 1018   6.748   6.127   8.371 -1.1788  0.4164  0.8937
  733MOL0     O 1019   6.818   6.170   8.260 -1.7150  0.1591 -0.6170
  733MOL0     C 1020   6.950   6.129   8.253  0.5363 -0.8417 -0.1906
  733MOL0     C 1021   6.979   5.996   8.207 -0.2504  0.6661 -0.2385
  733MOL0     C 1022   7.104   5.957   8.179 -0.5046  0.5431 -0.0433
  733MOL0     C 1023   7.213   6.044   8.209 -0.4120 -0.3540  0.0869
  733MOL0     O 1024   7.342   6.001   8.196  0.4448  0.3158 -0.1617
  733MOL0     C 1025   7.363   5.864   8.179  0.2566  0.5782  0.1436
  733MOL0     C 1026   7.515   5.835   8.192 -0.5398  0.1114  0.5705
  733MOL0     C 1027   7.547   5.688   8.143 -1.0870  0.0907  0.3671
  733MOL0     C 1028   7.681   5.637   8.207 -0.1866 -0.5955  0.0140
  733MOL0     C 1029   7.711   5.493   8.170 -0.1533 -0.3730  0.2832
  733MOL0     C 1030   7.850   5.419   8.207  0.2971  0.0265 -0.0019
  733MOL0     C 1031   7.862   5.276   8.159  0.0471 -0.3452 -0.2508
  733MOL0     C 1032   7.925   5.177   8.267 -1.2312 -0.1375 -0.6193
  733MOL0     N 1033   8.075   5.199   8.262 -0.4532  0.1025 -0.0823
  733MOL0     C 1034   8.149   5.302   8.320  0.6299  0.0575  0.3062
  733MOL0     C 1035   8.275   5.260   8.292  0.0940 -0.3463  0.0091
  733MOL0     C 1036   8.387   5.345   8.348 -0.5249 -0.1628  0.8043
  733MOL0     C 1037   8.523   5.273   8.339  0.7109 -0.5811 -0.2010
  733MOL0     C 1038   8.592   5.284   8.206  0.2089  0.3102  0.4253
  733MOL0     C 1039   8.696   5.177   8.170 -0.8752  0.2956 -0.3448
  733MOL0     O 1040   8.777   5.146   8.287  0.1524 -0.4254  0.2829
  733MOL0     C 1041   8.873   5.233   8.330 -0.6232  0.7157 -0.4440
  733MOL0     C 1042   8.952   5.310   8.248  0.3123 -0.0824 -0.1949
  733MOL0     C 1043   9.062   5.386   8.300  1.3476  0.4518 -0.5461
  733MOL0     C 1044   9.146   5.446   8.198  0.9528 -0.4297  0.0954
  733MOL0     C 1045   9.085   5.383   8.444  0.0364  0.0822  0.6885
  733MOL0     C 1046   9.189   5.469   8.516  0.3032 -0.5455  0.3527
  733MOL0     O 1047   9.274   5.551   8.456 -0.0173  0.0208  1.2068
  733MOL0     C 1048   9.400   5.584   8.502  0.1197 -0.8326  0.1849
  733MOL0     C 1049   9.462   5.553   8.617 -0.1389  0.0649 -0.2748
  733MOL0     C 1050   9.584   5.608   8.667 -0.2868  0.0581  0.3973
  733MOL0     C 1051   9.663   5.687   8.579 -0.2551 -1.1572  0.2554
  733MOL0     O 1052   9.778   5.741   8.614 -0.2060 -0.5200  0.1548
  733MOL0     C 1053   9.868   5.670   8.707  1.3250 -0.5203  0.1890
  733MOL0     C 1054  10.015   5.718   8.700  0.4089  0.4684 -0.1626
  733MOL0     C 1055  10.075   5.700   8.559  0.0922 -0.5255 -0.8223
  733MOL0     C 1056  10.234   5.696   8.562  0.4011  0.4166 -0.3535
  733MOL0     C 1057  10.298   5.727   8.428  0.3873  0.5740 -0.4978
  733MOL0     C 1058  10.315   5.868   8.376 -0.1639 -0.1460 -0.2713
  733MOL0     C 1059  10.391   5.875   8.243 -0.2921 -0.1836  0.3465
  733MOL0     C 1060  10.432   6.014   8.202 -0.3656 -0.4695 -0.8856
  733MOL0    Cl 1061  10.311   6.136   8.253  0.0544 -0.2575  0.1704
  733MOL0     C 1062   9.601   5.728   8.457  0.0088  1.2581 -0.4124
  733MOL0     C 1063   9.470   5.672   8.424 -0.3399  0.5473  0.5787
  733MOL0     O 1064   9.180   5.461   8.636 -0.1297 -0.1684  1.1706
  733MOL0     C 1065   8.999   5.299   8.519  0.0619 -0.3902  0.0364
  733MOL0     C 1066   8.891   5.224   8.468 -0.2321 -0.2482  1.1652
  733MOL0     N 1067   8.274   5.151   8.208 -0.1357  0.7764 -0.2420
  733MOL0     N 1068   8.157   5.110   8.194 -0.1500  0.4001  0.1485
  733MOL0     C 1069   7.189   6.175   8.257  0.4973  0.3904  0.2997
  733MOL0     C 1070   7.056   6.218   8.278  0.2153 -0.3724 -0.0921
  733MOL0     C 1071   6.596   6.118   8.357  0.4121 -0.3563 -0.0995
  733MOL0     C 1072   6.523   6.073   8.465 -0.1174  0.2254 -0.1163
  733MOL0     C 1073   6.378   6.066   8.471 -0.0508 -0.9615  0.3258
  733MOL0     C 1074   6.299   6.099   8.353  0.2048 -0.5433  0.3658
  733MOL0     O 1075   6.166   6.106   8.376 -0.0134  0.5792  0.0732
  733MOL0     C 1076   6.078   6.161   8.282 -0.1252  0.1780 -0.7966
  733MOL0     C 1077   5.938   6.175   8.340  0.6056 -0.5406 -0.2529
  733MOL0     C 1078   5.948   6.229   8.484  0.3424  0.5193 -0.1926
  733MOL0     C 1079   5.815   6.250   8.557  0.5333  0.0418 -0.0127
  733MOL0     C 1080   5.732   6.125   8.564  0.4426  0.3109  0.6120
  733MOL0     C 1081   5.671   6.023   8.568 -0.3123 -0.3026 -0.0574
  733MOL0     C 1082   6.377   6.140   8.241 -0.1137  0.5092  0.3740
  733MOL0     C 1083   6.516   6.153   8.241 -0.4522  0.1769  0.2190
  733MOL0     C 1084   6.581   6.189   8.111 -0.9156  0.9992 -0.2203
  733MOL0     H 1085   6.890   5.936   8.191 -0.9346  1.5216  0.2572
  733MOL0     H 1086   7.107   5.855   8.144 -1.9729 -0.2898  2.0450
  733MOL0     H 1087   7.335   5.826   8.080  0.8461 -0.8459  0.4957
  733MOL0     H 1088   7.312   5.800   8.252 -1.8865  1.1288 -0.8129
  733MOL0     H 1089   7.568   5.913   8.136  0.9486 -1.1933  0.1236
  733MOL0     H 1090   7.547   5.843   8.296  2.2828 -1.0859 -0.1153
  733MOL0     H 1091   7.475   5.616   8.183  0.2519  0.1719  3.1286
  733MOL0     H 1092   7.544   5.692   8.033  0.4224 -1.0028  0.2617
  733MOL0     H 1093   7.766   5.697   8.172  0.2089 -1.3443 -0.3347
  733MOL0     H 1094   7.686   5.659   8.314 -3.3778 -0.3149  0.1995
  733MOL0     H 1095   7.693   5.481   8.063  0.5137  2.3214 -0.1967
  733MOL0     H 1096   7.636   5.437   8.227 -2.4544 -0.1033 -2.2800
  733MOL0     H 1097   7.934   5.474   8.162 -0.0084  0.9737  0.5576
  733MOL0     H 1098   7.866   5.418   8.315  1.9984  0.2590 -0.2135
  733MOL0     H 1099   7.894   5.274   8.054 -2.6465  1.2872 -1.2079
  733MOL0     H 1100   7.761   5.238   8.138  0.5623 -1.5707 -0.5850
  733MOL0     H 1101   7.883   5.194   8.367  0.5749 -0.2379  0.2004
  733MOL0     H 1102   7.903   5.073   8.242  1.5949 -0.6992 -1.1166
  733MOL0     H 1103   8.110   5.376   8.389  0.2445  0.8584 -0.7530
  733MOL0     H 1104   8.349   5.371   8.447 -2.7727  1.7613 -0.4424
  733MOL0     H 1105   8.392   5.440   8.293  0.7942 -0.6257  0.0767
  733MOL0     H 1106   8.581   5.315   8.421  0.1306 -0.6290  0.2339
  733MOL0     H 1107   8.503   5.168   8.364 -1.6713  0.2088  1.5673
  733MOL0     H 1108   8.513   5.259   8.134 -0.9556  4.7751 -0.1370
  733MOL0     H 1109   8.630   5.384   8.182  3.1848 -0.9507 -0.6424
  733MOL0     H 1110   8.646   5.084   8.144 -2.2013  0.6200  0.9293
  733MOL0     H 1111   8.753   5.208   8.082 -0.8625 -0.9315 -0.7889
  733MOL0     H 1112   8.935   5.311   8.141 -1.3111 -3.3884 -0.0572
  733MOL0     H 1113   9.250   5.453   8.231  1.2310 -0.2264 -0.8012
  733MOL0     H 1114   9.104   5.547   8.189  1.0609  0.0373  3.4603
  733MOL0     H 1115   9.133   5.406   8.097 -0.7235 -1.5863  0.7120
  733MOL0     H 1116   9.409   5.488   8.686  1.3482 -0.5346  0.3585
  733MOL0     H 1117   9.614   5.560   8.760  1.4629  0.8172  0.2802
  733MOL0     H 1118   9.816   5.671   8.802  3.3524  1.8612  1.3936
  733MOL0     H 1119   9.865   5.564   8.680 -3.9562 -0.5346 -0.1886
  733MOL0     H 1120  10.035   5.823   8.722  0.7631  0.1651  1.0855
  733MOL0     H 1121  10.067   5.663   8.779 -1.5001  0.5262  1.2183
  733MOL0     H 1122  10.036   5.784   8.501  0.2944  0.2312  0.1164
  733MOL0     H 1123  10.038   5.611   8.507  1.7655 -0.6781 -1.8535
  733MOL0     H 1124  10.266   5.595   8.591  1.6707  0.9569  0.1872
  733MOL0     H 1125  10.273   5.764   8.638 -0.5172  1.4095 -0.7472
  733MOL0     H 1126  10.402   5.694   8.429  0.3403  0.2814 -2.1778
  733MOL0     H 1127  10.251   5.670   8.347 -0.0736  2.0389 -1.3095
  733MOL0     H 1128  10.363   5.915   8.462  0.8052 -1.8978  0.2033
  733MOL0     H 1129  10.218   5.913   8.352 -1.0538 -2.3163 -0.9438
  733MOL0     H 1130  10.329   5.835   8.162  0.2831 -3.4441  1.3584
  733MOL0     H 1131  10.474   5.808   8.266 -0.0222 -0.4963 -1.4115
  733MOL0     H 1132  10.458   6.021   8.096  2.5817  2.1137 -0.1341
  733MOL0     H 1133  10.520   6.045   8.259 -2.5217  3.8481  0.5131
  733MOL0     H 1134   9.637   5.806   8.390  1.9155  0.8136  0.0466
  733MOL0     H 1135   9.438   5.703   8.325  2.2861  1.2810 -0.1137
  733MOL0     H 1136   9.018   5.290   8.625  0.1899 -0.9775 -0.0320
  733MOL0     H 1137   8.826   5.158   8.524  0.7334  0.0259  2.6576
  733MOL0     H 1138   7.277   6.227   8.293  1.5360 -1.8544  1.1902
  733MOL0     H 1139   7.037   6.315   8.323 -0.5211  1.2287 -3.5395
  733MOL0     H 1140   6.571   6.035   8.555 -0.9629  0.5307  0.4768
  733MOL0     H 1141   6.331   6.033   8.563  0.3717 -0.6765  0.6484
  733MOL0     H 1142   6.105   6.263   8.253 -2.4846  1.0916 -0.0796
  733MOL0     H 1143   6.072   6.094   8.196 -0.8520 -1.2822  0.3583
  733MOL0     H 1144   5.890   6.076   8.336  0.4613 -0.4707 -0.2528
  733MOL0     H 1145   5.893   6.248   8.272  0.8520  0.7916  0.9875
  733MOL0     H 1146   6.008   6.161   8.544  0.6878 -1.3998 -2.5742
  733MOL0     H 1147   5.994   6.328   8.475 -0.7157  1.1517  0.9405
  733MOL0     H 1148   5.753   6.321   8.502 -0.5157 -1.3446 -0.6822
  733MOL0     H 1149   5.825   6.292   8.658 -0.6543 -0.9848  0.5593
  733MOL0     H 1150   5.617   5.930   8.566  1.4197 -1.3467 -0.9601
  733MOL0     H 1151   6.330   6.168   8.148 -0.0615 -0.8597 -0.0829
  733MOL0     H 1152   6.500   6.188   8.037 -2.0008  0.1656  0.9296
  733MOL0     H 1153   6.636   6.283   8.109 -0.2137  0.6076  0.4670
  733MOL0     H 1154   6.649   6.105   8.095  2.3792  3.1978  1.1182
  734MOL0     O 1155   4.183   6.167   8.063 -1.0077  0.0385 -0.1507
  734MOL0     C 1156   4.181   6.142   7.937 -0.5637 -0.5767  0.1545
  734MOL0     O 1157   4.170   6.021   7.870  0.3538  0.3825  0.0018
  734MOL0     C 1158   4.125   5.922   7.947  0.7429 -0.0376 -0.6501
  734MOL0     C 1159   4.216   5.821   7.986 -0.1438 -0.2847 -0.2503
  734MOL0     C 1160   4.176   5.722   8.063 -0.0834 -0.2396 -0.0701
  734MOL0     C 1161   4.049   5.702   8.100  1.5088 -0.0784 -0.1279
  734MOL0     O 1162   4.023   5.596   8.179  0.4331  0.0368 -0.3807
  734MOL0     C 1163   3.906   5.509   8.150 -0.2323 -0.1789 -0.1016
  734MOL0     C 1164   3.952   5.394   8.059 -0.3262 -0.9290 -0.3179
  734MOL0     C 1165   4.054   5.305   8.128  0.7597  0.2342  0.1164
  734MOL0     C 1166   4.190   5.360   8.154  0.3765 -0.3379 -0.1615
  734MOL0     C 1167   4.279   5.238   8.185 -0.6449 -0.2562 -0.5267
  734MOL0     C 1168   4.426   5.274   8.199  0.0550  0.9103  0.4302
  734MOL0     C 1169   4.456   5.350   8.328  0.3686  0.0383  0.2367
  734MOL0     C 1170   4.601   5.355   8.368  0.2352 -0.3736 -0.2726
  734MOL0     N 1171   4.662   5.224   8.371  0.1761  0.0665  0.0067
  734MOL0     C 1172   4.666   5.140   8.485 -0.2281 -0.2718  0.4978
  734MOL0     C 1173   4.763   5.051   8.455  0.4705  0.0269 -0.1414
  734MOL0     C 1174   4.810   4.936   8.538 -0.5317 -0.4102  0.1297
  734MOL0     C 1175   4.806   4.952   8.686 -0.3135  0.0218  0.1013
  734MOL0     C 1176   4.863   5.075   8.737 -0.2518 -0.7604 -0.7379
  734MOL0     C 1177   5.004   5.108   8.693 -0.2970  0.3253 -0.0020
  734MOL0     O 1178   5.086   5.007   8.753  0.2573  0.2697  0.6205
  734MOL0     C 1179   5.197   5.048   8.818 -0.3240  0.3665  0.9494
  734MOL0     C 1180   5.258   4.947   8.889  0.2114 -0.8331  0.1971
  734MOL0     C 1181   5.375   4.965   8.961  0.2888  0.4030  0.2399
  734MOL0     C 1182   5.399   4.843   9.046 -0.5270 -0.4652 -0.0517
  734MOL0     C 1183   5.444   5.087   8.957 -0.7105  0.0174 -0.4860
  734MOL0     C 1184   5.573   5.117   9.024  0.9465  0.0601 -0.5591
  734MOL0     O 1185   5.642   5.238   9.006 -0.5861 -0.1739 -0.1988
  734MOL0     C 1186   5.771   5.253   9.060  0.4428 -0.1123  0.4529
  734MOL0     C 1187   5.810   5.366   9.118  0.4988 -0.1907  0.3085
  734MOL0     C 1188   5.941   5.387   9.162  0.1454  0.3947  0.0438
  734MOL0     C 1189   6.034   5.285   9.137  0.2219 -0.0351 -1.0367
  734MOL0     O 1190   6.167   5.287   9.174  0.3305 -0.2430 -0.6362
  734MOL0     C 1191   6.217   5.398   9.252 -0.6881 -0.3577  0.5066
  734MOL0     C 1192   6.350   5.341   9.326  0.0680  0.3238 -0.3734
  734MOL0     C 1193   6.477   5.328   9.236  0.6228 -0.2912  0.9502
  734MOL0     C 1194   6.586   5.257   9.322  0.4340 -0.4610 -0.4446
  734MOL0     C 1195   6.710   5.244   9.243 -0.5589 -0.0315 -0.2819
  734MOL0     C 1196   6.808   5.169   9.338  0.3454  0.2137  0.9385
  734MOL0     C 1197   6.943   5.164   9.277  0.3189 -0.1839  0.8173
  734MOL0     C 1198   7.018   5.046   9.337  0.8665 -0.4129  0.1024
  734MOL0    Cl 1199   7.173   5.047   9.255 -0.1736 -0.0984  0.1699
  734MOL0     C 1200   5.998   5.177   9.067  0.9334  0.1903  0.3301
  734MOL0     C 1201   5.864   5.154   9.033 -0.5024  0.3890  0.0473
  734MOL0     O 1202   5.607   5.033   9.108  0.0822  0.7889 -0.1956
  734MOL0     C 1203   5.384   5.184   8.875 -0.5251 -0.0939 -0.1938
  734MOL0     C 1204   5.263   5.172   8.804 -0.0143 -0.8240 -0.5276
  734MOL0     N 1205   4.818   5.089   8.336 -0.5922  0.2191 -0.4409
  734MOL0     N 1206   4.759   5.184   8.282  0.3168 -0.4013  0.0259
  734MOL0     C 1207   3.957   5.797   8.061  0.1955 -0.9214  0.0720
  734MOL0     C 1208   3.993   5.906   7.986 -0.6790  0.1538 -0.2557
  734MOL0     C 1209   4.208   6.260   7.846  0.0049 -0.0080  0.3746
  734MOL0     C 1210   4.309   6.344   7.890 -0.9461  0.2981  0.3950
  734MOL0     C 1211   4.332   6.456   7.815 -1.0947 -0.1499 -0.3298
  734MOL0     C 1212   4.273   6.487   7.698 -0.2925  0.0070 -0.1022
  734MOL0     O 1213   4.327   6.592   7.625  0.4874  0.1642 -0.3316
  734MOL0     C 1214   4.299   6.602   7.480 -0.5043 -0.5301 -0.2044
  734MOL0     C 1215   4.422   6.681   7.428 -0.3551  0.3798  0.4943
  734MOL0     C 1216   4.434   6.823   7.474  0.7171 -0.0681  0.7685
  734MOL0     C 1217   4.552   6.884   7.407 -0.7150  0.2028  0.0224
  734MOL0     C 1218   4.599   7.020   7.437  0.3762 -0.2507  0.4901
  734MOL0     C 1219   4.625   7.134   7.456  0.0044  0.1674  0.1427
  734MOL0     C 1220   4.159   6.415   7.657 -0.3104  0.7057  0.2075
  734MOL0     C 1221   4.129   6.295   7.737 -0.4315 -0.0611 -0.4528
  734MOL0     C 1222   4.004   6.227   7.697  0.3206  0.7891 -0.6355
  734MOL0     H 1223   4.318   5.835   7.952  0.0057 -1.0821 -0.1422
  734MOL0     H 1224   4.243   5.653   8.114 -0.3317 -0.2273  0.2754
  734MOL0     H 1225   3.828   5.570   8.105 -0.1408  1.4549  1.7870
  734MOL0     H 1226   3.869   5.467   8.244 -0.2208  3.4232  1.6829
  734MOL0     H 1227   3.875   5.331   8.014  1.3342 -3.1798 -0.1505
  734MOL0     H 1228   3.994   5.446   7.972  1.8932 -1.8604  0.1347
  734MOL0     H 1229   4.010   5.269   8.221  1.7713 -1.2566  0.0583
  734MOL0     H 1230   4.065   5.213   8.071  2.0761 -0.8561  2.0237
  734MOL0     H 1231   4.240   5.410   8.070  1.6213 -1.4882 -0.1396
  734MOL0     H 1232   4.190   5.433   8.235 -2.6736 -1.0535  0.6105
  734MOL0     H 1233   4.279   5.173   8.096  0.3073  2.0617 -2.3441
  734MOL0     H 1234   4.248   5.190   8.278  0.6074 -0.2232 -0.0699
  734MOL0     H 1235   4.480   5.179   8.202 -2.8053 -0.8988 -0.7840
  734MOL0     H 1236   4.458   5.344   8.121 -0.7719  1.9450  0.9997
  734MOL0     H 1237   4.401   5.306   8.412  0.2207 -0.8932 -0.3365
  734MOL0     H 1238   4.412   5.450   8.316 -1.1785 -0.6775 -0.2802
  734MOL0     H 1239   4.658   5.424   8.306 -1.3296 -0.6058 -2.0606
  734MOL0     H 1240   4.597   5.391   8.471 -2.8594 -0.7100 -0.1764
  734MOL0     H 1241   4.603   5.156   8.572 -2.5817  0.9149 -1.2890
  734MOL0     H 1242   4.915   4.918   8.516 -0.2738  3.4477 -2.8113
  734MOL0     H 1243   4.762   4.849   8.491 -1.6321  0.4800 -0.4424
  734MOL0     H 1244   4.704   4.945   8.724 -0.8391  2.0380 -0.7583
  734MOL0     H 1245   4.865   4.869   8.726  1.0068  0.7726 -0.2103
  734MOL0     H 1246   4.803   5.166   8.725  0.2698 -0.1866  0.6676
  734MOL0     H 1247   4.870   5.070   8.846  2.0236  2.1612 -0.5968
  734MOL0     H 1248   5.008   5.099   8.584 -1.5701 -1.5490  0.0518
  734MOL0     H 1249   5.029   5.207   8.732 -0.5367  0.3298  0.1398
  734MOL0     H 1250   5.206   4.853   8.902  1.6764 -1.8373 -0.8162
  734MOL0     H 1251   5.389   4.870   9.151  1.7732 -1.9773  0.6339
  734MOL0     H 1252   5.497   4.802   9.020 -1.0415 -1.7950  0.0712
  734MOL0     H 1253   5.328   4.761   9.037 -2.6828  1.0027  2.3700
  734MOL0     H 1254   5.737   5.445   9.128 -0.4721 -1.2117  1.7448
  734MOL0     H 1255   5.963   5.481   9.212  1.8994 -0.3955  0.8470
  734MOL0     H 1256   6.228   5.481   9.182 -1.8717  2.2120  3.1604
  734MOL0     H 1257   6.148   5.439   9.326 -1.7405 -1.2798  0.0758
  734MOL0     H 1258   6.377   5.399   9.415  1.4251 -3.7271  2.1675
  734MOL0     H 1259   6.329   5.242   9.369 -0.8000  0.8088  0.3525
  734MOL0     H 1260   6.514   5.416   9.184 -2.0391  0.9829  1.0765
  734MOL0     H 1261   6.445   5.250   9.166 -2.7108  0.4622  1.4699
  734MOL0     H 1262   6.537   5.165   9.354 -2.2969  1.1135  0.2929
  734MOL0     H 1263   6.593   5.304   9.420 -0.2304 -1.0780 -0.0936
  734MOL0     H 1264   6.683   5.188   9.152 -0.6730 -2.9775  1.4084
  734MOL0     H 1265   6.745   5.346   9.225 -1.1934  0.0967 -0.8413
  734MOL0     H 1266   6.763   5.072   9.361 -1.4886 -0.1495 -3.2358
  734MOL0     H 1267   6.814   5.217   9.437  0.7500 -1.1933  1.6139
  734MOL0     H 1268   6.992   5.260   9.297  2.5236 -1.3797  1.5142
  734MOL0     H 1269   6.935   5.154   9.169  1.4240  0.4184  0.6569
  734MOL0     H 1270   6.961   4.953   9.322 -0.1088  0.0910  0.6050
  734MOL0     H 1271   7.031   5.068   9.444  0.9875  1.0833 -0.1997
  734MOL0     H 1272   6.067   5.096   9.046  0.3488 -0.5379  1.1210
  734MOL0     H 1273   5.829   5.066   8.980 -0.8366 -1.7586  3.5366
  734MOL0     H 1274   5.436   5.279   8.874 -0.2945 -0.2030  0.8085
  734MOL0     H 1275   5.235   5.261   8.748  2.4901  1.6449  1.7902
  734MOL0     H 1276   3.850   5.789   8.079  0.0293 -0.1423 -0.5166
  734MOL0     H 1277   3.929   5.992   7.969  0.1425  0.6991 -0.6424
  734MOL0     H 1278   4.368   6.318   7.976  1.4960 -2.3675 -1.8914
  734MOL0     H 1279   4.405   6.526   7.857  2.0871 -2.4360 -1.6158
  734MOL0     H 1280   4.288   6.505   7.429 -1.7722 -2.4730  3.3797
  734MOL0     H 1281   4.210   6.662   7.462  1.4326  3.0499  1.2211
  734MOL0     H 1282   4.445   6.674   7.321  2.6435  1.0130  0.9803
  734MOL0     H 1283   4.507   6.625   7.467  0.0808 -1.9514 -3.2294
  734MOL0     H 1284   4.351   6.889   7.446  2.1337  2.4432  2.1534
  734MOL0     H 1285   4.442   6.824   7.583 -2.4992  0.5331  1.1145
  734MOL0     H 1286   4.564   6.872   7.299  0.3208 -3.5219  0.4042
  734MOL0     H 1287   4.634   6.818   7.438  1.5748  2.1686 -1.4560
  734MOL0     H 1288   4.643   7.237   7.480  0.5256 -0.1323  1.1012
  734MOL0     H 1289   4.092   6.441   7.576 -0.0856 -0.1701 -0.2682
  734MOL0     H 1290   4.024   6.119   7.699  0.1243  0.7305 -1.4582
  734MOL0     H 1291   3.931   6.241   7.777  0.8812 -1.7104  0.4148
  734MOL0     H 1292   3.967   6.272   7.605 -0.4951 -0.0409 -0.7194
  735MOL0     O 1293   7.606   6.731   8.770  0.8570 -0.4164  0.2761
  735MOL0     C 1294   7.595   6.852   8.787 -0.1778 -0.2981  0.1173
  735MOL0     O 1295   7.699   6.947   8.766 -0.3477 -0.1752  0.3024
  735MOL0     C 1296   7.803   6.907   8.687 -0.2864 -0.7857 -1.0771
  735MOL0     C 1297   7.797   6.917   8.547  0.1871 -0.6125 -0.5934
  735MOL0     C 1298   7.907   6.893   8.467 -0.2366  0.6247  0.0232
  735MOL0     C 1299   8.025   6.854   8.524  0.2521  0.2916  0.1123
  735MOL0     O 1300   8.134   6.827   8.445  0.2232  0.0053  0.1333
  735MOL0     C 1301   8.112   6.725   8.346 -0.2646  0.3307 -1.0715
  735MOL0     C 1302   8.223   6.623   8.332  0.1355 -0.7051  0.1667
  735MOL0     C 1303   8.358   6.695   8.324 -1.0240  0.1180  0.6685
  735MOL0     C 1304   8.445   6.625   8.219  0.5989  0.0651 -0.4557
  735MOL0     C 1305   8.592   6.679   8.236  0.6913 -0.0367  0.5677
  735MOL0     C 1306   8.683   6.637   8.113 -0.2033 -0.0974  0.0898
  735MOL0     C 1307   8.804   6.722   8.121  0.0645 -0.1299  0.4682
  735MOL0     C 1308   8.905   6.688   8.023 -0.2618  0.3809  0.3160
  735MOL0     N 1309   9.035   6.753   8.042  0.1049  0.4367  0.1572
  735MOL0     C 1310   9.106   6.796   7.938  0.9049  0.5510 -1.1072
  735MOL0     C 1311   9.211   6.857   8.001  0.4387  0.3709  0.6260
  735MOL0     C 1312   9.320   6.920   7.929 -1.1299 -0.0154 -0.1662
  735MOL0     C 1313   9.460   6.890   7.983 -0.2246  0.0848 -0.4590
  735MOL0     C 1314   9.556   6.979   7.909 -0.9471  0.1541  0.3492
  735MOL0     C 1315   9.699   6.967   7.960  1.1605  1.0607 -0.4714
  735MOL0     O 1316   9.725   6.826   7.970 -0.5451 -0.0673 -0.1148
  735MOL0     C 1317   9.854   6.774   8.002 -0.4559 -0.4993  0.2442
  735MOL0     C 1318   9.961   6.855   8.036 -0.4980  0.0227 -0.3072
  735MOL0     C 1319  10.076   6.809   8.099 -0.7739  0.4008  0.1029
  735MOL0     C 1320  10.171   6.918   8.152 -0.7235 -0.2185  0.4621
  735MOL0     C 1321  10.094   6.674   8.120  0.2149 -0.4654 -0.4237
  735MOL0     C 1322  10.213   6.609   8.169 -0.5851  0.9151 -0.5806
  735MOL0     O 1323  10.317   6.693   8.202 -0.2871 -0.5758  0.1088
  735MOL0     C 1324  10.445   6.648   8.218 -0.1750 -0.5557 -0.3321
  735MOL0     C 1325  10.526   6.751   8.274 -0.7165  0.1384  0.5633
  735MOL0     C 1326  10.662   6.737   8.297 -0.3540 -0.5647  0.0432
  735MOL0     C 1327  10.720   6.611   8.277 -0.3343 -0.0489  0.2742
  735MOL0     O 1328  10.859   6.595   8.280 -0.3543 -0.0553  0.5453
  735MOL0     C 1329  10.936   6.655   8.388  0.2773 -0.1834  0.1851
  735MOL0     C 1330  11.028   6.564   8.464  0.3455  0.4745 -0.0808
  735MOL0     C 1331  11.155   6.519   8.384  0.8516 -0.2366 -0.0277
  735MOL0     C 1332  11.265   6.469   8.480  0.5508 -0.5833  0.8021
  735MOL0     C 1333  11.318   6.580   8.576 -0.7061  0.0027  0.2855
  735MOL0     C 1334  11.370   6.709   8.497  0.8586 -0.2878 -0.3588
  735MOL0     C 1335  11.457   6.694   8.368  0.4965 -0.0644 -0.6127
  735MOL0     C 1336  11.591   6.641   8.398 -0.0293  0.4088 -0.7385
  735MOL0    Cl 1337  11.688   6.737   8.518 -0.0873 -0.5830  0.1546
  735MOL0     C 1338  10.646   6.510   8.217  0.6113  0.5910  0.7397
  735MOL0     C 1339  10.500   6.525   8.199 -0.2379  0.7369  0.0687
  735MOL0     O 1340  10.214   6.488   8.180  0.5129  0.1053 -0.3247
  735MOL0     C 1341   9.982   6.586   8.082 -0.3464  0.0607 -0.7233
  735MOL0     C 1342   9.865   6.640   8.036  0.3965 -0.4187 -0.4559
  735MOL0     N 1343   9.202   6.842   8.138  0.6135 -0.9698 -0.4592
  735MOL0     N 1344   9.097   6.784   8.161  0.3237 -0.2260 -0.3355
  735MOL0     C 1345   8.042   6.853   8.663 -0.6833  0.0549  0.3499
  735MOL0     C 1346   7.930   6.881   8.747 -0.6039 -0.1147  0.1933
  735MOL0     C 1347   7.479   6.900   8.855  1.0766  0.1713 -0.1913
  735MOL0     C 1348   7.491   6.976   8.970 -0.1210  0.3156 -0.3116
  735MOL0     C 1349   7.379   7.005   9.054 -0.2605  0.3586 -0.0530
  735MOL0     C 1350   7.253   6.958   9.024 -0.6571  0.7228 -1.0315
  735MOL0     O 1351   7.139   6.956   9.105 -0.0582 -0.0118  0.0590
  735MOL0     C 1352   7.114   7.053   9.200 -0.0498  0.2034 -0.3117
  735MOL0     C 1353   7.007   7.151   9.173  0.2287 -0.5610  0.4303
  735MOL0     C 1354   6.866   7.095   9.152  0.9111 -0.3287 -0.6186
  735MOL0     C 1355   6.750   7.190   9.123 -0.1570  0.9506  1.1039
  735MOL0     C 1356   6.699   7.255   9.237 -0.4032 -0.3130 -0.2766
  735MOL0     C 1357   6.650   7.298   9.341 -0.5735 -0.6546 -0.2458
  735MOL0     C 1358   7.239   6.884   8.900  0.0960  0.0516 -1.2703
  735MOL0     C 1359   7.348   6.861   8.814 -0.2186 -0.1318 -0.2901
  735MOL0     C 1360   7.333   6.773   8.700 -0.1304  0.0049 -0.3465
  735MOL0     H 1361   7.711   6.951   8.489 -1.1138 -1.2494  0.8771
  735MOL0     H 1362   7.895   6.906   8.360  1.7299  1.1866 -0.1711
  735MOL0     H 1363   8.104   6.773   8.248  0.1581 -1.0657 -1.8174
  735MOL0     H 1364   8.026   6.660   8.363 -0.1410  0.3735 -0.2265
  735MOL0     H 1365   8.222   6.567   8.426 -2.5258  0.8583  1.1873
  735MOL0     H 1366   8.203   6.560   8.245 -0.7112  0.4439 -0.4954
  735MOL0     H 1367   8.358   6.804   8.311 -2.2800 -0.1147 -1.8185
  735MOL0     H 1368   8.415   6.674   8.415 -1.7129 -2.2684  0.6361
  735MOL0     H 1369   8.437   6.516   8.223 -2.6197  0.2432  2.4119
  735MOL0     H 1370   8.404   6.655   8.122  0.2701 -2.4525 -1.1702
  735MOL0     H 1371   8.627   6.633   8.329 -0.3640 -0.2399  0.8775
  735MOL0     H 1372   8.601   6.787   8.250 -1.3514  0.2742 -0.1884
  735MOL0     H 1373   8.700   6.529   8.115 -0.5663 -0.1896 -0.9250
  735MOL0     H 1374   8.637   6.655   8.015  1.8342 -4.2854 -1.9129
  735MOL0     H 1375   8.859   6.721   8.215  0.8959  3.1051  0.1285
  735MOL0     H 1376   8.777   6.825   8.097  0.7671  0.2137  1.1142
  735MOL0     H 1377   8.915   6.580   8.018  1.1768  0.3908  1.9794
  735MOL0     H 1378   8.867   6.733   7.931  0.7180 -0.5859 -0.5738
  735MOL0     H 1379   9.101   6.787   7.830  0.0057 -0.1420 -1.0220
  735MOL0     H 1380   9.300   7.028   7.930 -1.9941 -0.0899  3.3662
  735MOL0     H 1381   9.332   6.894   7.824  1.9366  4.2245 -1.1378
  735MOL0     H 1382   9.466   6.912   8.090  0.1900 -2.5131  0.1023
  735MOL0     H 1383   9.491   6.786   7.978  2.6090  0.5367  3.5643
  735MOL0     H 1384   9.562   6.950   7.804  0.4055  0.2694  0.3793
  735MOL0     H 1385   9.534   7.086   7.911 -0.1010  0.3621 -0.7126
  735MOL0     H 1386   9.770   7.008   7.888 -0.2811  1.0974 -1.9348
  735MOL0     H 1387   9.707   7.020   8.055 -3.2849 -1.6220  1.7360
  735MOL0     H 1388   9.949   6.962   8.017  0.1478  0.3206  0.8782
  735MOL0     H 1389  10.184   6.885   8.256  1.0681  1.4928  0.8465
  735MOL0     H 1390  10.125   7.017   8.160 -0.5408 -0.0743 -0.2333
  735MOL0     H 1391  10.260   6.928   8.090 -1.2388 -1.8245 -0.6036
  735MOL0     H 1392  10.480   6.849   8.279  0.2515  0.8435 -2.4960
  735MOL0     H 1393  10.711   6.826   8.336 -0.6861 -0.4941  0.2984
  735MOL0     H 1394  10.994   6.739   8.349  1.3377 -1.4062 -1.0005
  735MOL0     H 1395  10.870   6.689   8.468  1.9978  0.6087  1.3456
  735MOL0     H 1396  11.052   6.621   8.555  2.5043 -2.2734  1.2056
  735MOL0     H 1397  10.971   6.475   8.490  1.0045 -0.2482 -1.0834
  735MOL0     H 1398  11.185   6.607   8.327 -4.5420 -0.1345 -3.5159
  735MOL0     H 1399  11.127   6.437   8.317  0.8527  0.8041 -1.3348
  735MOL0     H 1400  11.338   6.425   8.412  1.1688  1.7100 -0.1216
  735MOL0     H 1401  11.233   6.389   8.547  1.1207 -1.2921  0.2471
  735MOL0     H 1402  11.247   6.613   8.652 -1.0545 -2.5335  1.1403
  735MOL0     H 1403  11.392   6.527   8.636  1.6189  0.3191 -2.0866
  735MOL0     H 1404  11.421   6.774   8.568  1.2932 -2.4155  1.3743
  735MOL0     H 1405  11.283   6.770   8.469 -0.6892 -1.5266  1.5338
  735MOL0     H 1406  11.448   6.795   8.326 -0.7621 -0.1312 -0.5516
  735MOL0     H 1407  11.420   6.625   8.291 -2.3906 -1.2933  1.7006
  735MOL0     H 1408  11.645   6.648   8.303  1.2615  1.5181  0.0387
  735MOL0     H 1409  11.585   6.535   8.425  1.2693  0.4592 -0.1561
  735MOL0     H 1410  10.692   6.412   8.216  0.5687  0.5638  1.3131
  735MOL0     H 1411  10.435   6.440   8.179 -4.3397  3.0256  2.2823
  735MOL0     H 1412   9.985   6.478   8.091 -2.8023 -0.3800 -3.4212
  735MOL0     H 1413   9.766   6.598   8.022 -0.0382 -0.7688  2.9346
  735MOL0     H 1414   8.130   6.824   8.720 -1.1727 -1.0127  0.5796
  735MOL0     H 1415   7.945   6.887   8.854  1.1581  3.8916 -0.0985
  735MOL0     H 1416   7.594   7.001   8.992  0.1096  2.4059 -3.0971
  735MOL0     H 1417   7.391   7.048   9.153 -3.2141  2.3083 -0.4246
  735MOL0     H 1418   7.091   7.001   9.294  1.0278  1.4006  0.6556
  735MOL0     H 1419   7.205   7.114   9.206 -1.5003  2.5448 -0.7664
  735MOL0     H 1420   7.035   7.212   9.087  0.4890 -1.3958 -0.0878
  735MOL0     H 1421   7.005   7.214   9.263  0.1710 -1.0071  0.7437
  735MOL0     H 1422   6.875   7.040   9.057  0.0342 -0.9273 -0.3697
  735MOL0     H 1423   6.844   7.018   9.227  1.5239  0.4795  0.4097
  735MOL0     H 1424   6.670   7.136   9.070  0.0558  2.1946 -0.5641
  735MOL0     H 1425   6.789   7.269   9.059 -1.7926  0.7942 -0.1600
  735MOL0     H 1426   6.619   7.343   9.433  2.0792  0.2198  0.3213
  735MOL0     H 1427   7.138   6.864   8.869 -0.8267  1.9642  0.2804
  735MOL0     H 1428   7.392   6.816   8.619  0.2087  2.3605  1.0741
  735MOL0     H 1429   7.371   6.672   8.721 -0.5990 -0.3435 -1.1075
  735MOL0     H 1430   7.227   6.772   8.673 -0.0129  1.0594 -0.8896
  736MOL0     O 1431   8.286   9.550   6.897 -0.6608 -0.6651  0.2356
  736MOL0     C 1432   8.228   9.464   6.961 -1.1310 -0.0162  0.2430
  736MOL0     O 1433   8.116   9.403   6.923  0.1418  0.1761  0.6023
  736MOL0     C 1434   8.059   9.441   6.805  0.3360 -0.4043  0.4043
  736MOL0     C 1435   7.947   9.515   6.805  0.6172  0.1823 -1.0693
  736MOL0     C 1436   7.886   9.550   6.682  0.0829 -0.0828 -0.0411
  736MOL0     C 1437   7.943   9.512   6.563 -0.2844  0.0263  0.7058
  736MOL0     O 1438   7.872   9.552   6.453 -0.8845  0.0375 -0.5989
  736MOL0     C 1439   7.908   9.510   6.324  0.5833 -0.5844 -0.5996
  736MOL0     C 1440   7.960   9.632   6.255  0.1845  0.2445  0.2861
  736MOL0     C 1441   8.042   9.579   6.129 -0.3006 -0.7137 -0.8026
  736MOL0     C 1442   8.021   9.646   6.000  1.1936 -0.1099 -0.1092
  736MOL0     C 1443   8.127   9.592   5.902  0.3859 -0.4567  0.1415
  736MOL0     C 1444   8.079   9.491   5.794  0.4881 -0.2169  0.8176
  736MOL0     C 1445   8.200   9.462   5.709  0.0865 -0.0035  0.3508
  736MOL0     C 1446   8.180   9.336   5.627  0.0052  0.1528  0.0716
  736MOL0     N 1447   8.063   9.335   5.529  0.2574 -0.1088 -0.1463
  736MOL0     C 1448   8.023   9.438   5.457 -0.5665  0.1198 -0.3810
  736MOL0     C 1449   7.928   9.397   5.373 -0.9783  0.1720 -0.9724
  736MOL0     C 1450   7.851   9.481   5.277  0.0891  0.8259 -0.5492
  736MOL0     C 1451   7.944   9.536   5.174 -0.1059  0.1822 -1.0262
  736MOL0     C 1452   7.870   9.635   5.085 -0.4243 -0.3973  0.4299
  736MOL0     C 1453   7.971   9.706   4.993 -0.5243  0.6840 -0.9972
  736MOL0     O 1454   8.008   9.624   4.878 -0.3745 -0.3117 -0.3343
  736MOL0     C 1455   8.129   9.575   4.856 -0.3415  0.7210 -0.1226
  736MOL0     C 1456   8.137   9.447   4.797  0.2459  0.5203 -1.1112
  736MOL0     C 1457   8.249   9.381   4.753  0.1025 -0.1869  1.0951
  736MOL0     C 1458   8.233   9.244   4.691 -0.0617 -0.4367  0.8066
  736MOL0     C 1459   8.370   9.451   4.768  0.2182 -0.0656 -0.8245
  736MOL0     C 1460   8.509   9.399   4.740  0.2874  0.9798  0.1530
  736MOL0     O 1461   8.626   9.476   4.727  0.0765  0.9378  0.0766
  736MOL0     C 1462   8.736   9.421   4.665 -0.7030 -0.4789 -1.1725
  736MOL0     C 1463   8.855   9.465   4.721 -0.1773  0.2417 -1.0062
  736MOL0     C 1464   8.978   9.436   4.658 -0.8364  0.4071 -0.1038
  736MOL0     C 1465   8.985   9.350   4.549  0.4187 -0.2325  0.5986
  736MOL0     O 1466   9.111   9.309   4.503  0.2897  0.2230  0.3368
  736MOL0     C 1467   9.164   9.184   4.560 -0.1966  0.0847 -0.4418
  736MOL0     C 1468   9.104   9.054   4.507 -0.7427 -0.1602  0.0980
  736MOL0     C 1469   9.121   8.941   4.605  0.3070  0.3666 -0.1764
  736MOL0     C 1470   9.270   8.920   4.638 -0.5851 -0.2134  0.6072
  736MOL0     C 1471   9.303   8.786   4.706  0.4980 -0.1199 -0.7335
  736MOL0     C 1472   9.449   8.739   4.694 -0.1937  0.5964  0.1367
  736MOL0     C 1473   9.467   8.600   4.751  0.4565  0.8653  0.3785
  736MOL0     C 1474   9.608   8.556   4.754 -1.0679 -1.0629 -1.9073
  736MOL0    Cl 1475   9.716   8.640   4.870  0.2768  0.9581  0.2353
  736MOL0     C 1476   8.863   9.304   4.490 -0.0085 -0.3833 -0.7645
  736MOL0     C 1477   8.738   9.340   4.544  0.1012 -0.1984  0.2391
  736MOL0     O 1478   8.509   9.278   4.732  0.1582  0.2123 -0.5770
  736MOL0     C 1479   8.365   9.582   4.825 -0.5682  0.4251  0.2087
  736MOL0     C 1480   8.251   9.637   4.872 -0.5591  0.6186 -0.2980
  736MOL0     N 1481   7.925   9.260   5.386  0.9055  0.0474 -0.6508
  736MOL0     N 1482   8.011   9.227   5.479 -0.1212 -0.2413 -0.7302
  736MOL0     C 1483   8.070   9.458   6.566 -0.8366  0.1819 -0.1216
  736MOL0     C 1484   8.120   9.419   6.690 -0.8422  0.2312 -0.3612
  736MOL0     C 1485   8.270   9.445   7.101  0.5311 -0.2313 -0.1191
  736MOL0     C 1486   8.270   9.564   7.180  0.7189 -0.3200  0.3577
  736MOL0     C 1487   8.288   9.563   7.316  0.5881  0.1416 -0.4826
  736MOL0     C 1488   8.306   9.443   7.381  0.0888  1.1509  0.3981
  736MOL0     O 1489   8.320   9.411   7.519  0.0843 -0.4919 -0.6099
  736MOL0     C 1490   8.306   9.515   7.613 -0.3710 -0.2056  0.2989
  736MOL0     C 1491   8.425   9.552   7.698  0.1844  0.2226 -0.3186
  736MOL0     C 1492   8.550   9.572   7.609  0.0714  0.3883 -0.0202
  736MOL0     C 1493   8.689   9.558   7.685  0.0178  0.2560  0.0675
  736MOL0     C 1494   8.741   9.686   7.741  0.5398  0.0374  0.4652
  736MOL0     C 1495   8.772   9.790   7.789  0.8608  0.6583  0.0238
  736MOL0     C 1496   8.309   9.321   7.301  0.6068 -0.0093  0.4186
  736MOL0     C 1497   8.293   9.324   7.160  0.0877 -0.0749  0.5483
  736MOL0     C 1498   8.306   9.202   7.072  0.8855  0.4433  0.0229
  736MOL0     H 1499   7.913   9.545   6.904  0.2721 -1.5273 -0.6454
  736MOL0     H 1500   7.792   9.604   6.685  0.9057  1.4045  2.2328
  736MOL0     H 1501   7.831   9.463   6.261  1.3907 -0.4028 -1.7632
  736MOL0     H 1502   7.983   9.430   6.329  0.1834 -0.8874  1.5624
  736MOL0     H 1503   7.879   9.700   6.226  0.6209  0.8770  0.5325
  736MOL0     H 1504   8.033   9.689   6.313  0.7008  0.0647 -0.1810
  736MOL0     H 1505   8.141   9.615   6.158 -1.5604  1.3583  1.3104
  736MOL0     H 1506   8.051   9.471   6.117  0.6302 -0.5631 -1.5695
  736MOL0     H 1507   7.923   9.616   5.965  1.8444 -1.2524 -1.0193
  736MOL0     H 1508   8.007   9.754   6.014 -2.2428 -0.5864  1.1045
  736MOL0     H 1509   8.207   9.539   5.955 -1.0069 -2.3123  0.4948
  736MOL0     H 1510   8.169   9.681   5.854  2.7260 -0.5226  1.8960
  736MOL0     H 1511   8.043   9.401   5.845  0.1735 -0.9509 -0.6543
  736MOL0     H 1512   7.997   9.527   5.731  1.3753  3.0877  1.3602
  736MOL0     H 1513   8.288   9.434   5.767  0.4122 -1.5067 -0.8107
  736MOL0     H 1514   8.229   9.554   5.657  1.0298  0.5788  1.8689
  736MOL0     H 1515   8.262   9.320   5.556 -0.0012  1.2794 -0.2046
  736MOL0     H 1516   8.172   9.247   5.690 -0.3611 -0.3714 -0.7077
  736MOL0     H 1517   8.054   9.540   5.474  0.9285 -0.5198  1.0379
  736MOL0     H 1518   7.802   9.559   5.335  0.3639  1.0648 -0.6358
  736MOL0     H 1519   7.777   9.417   5.227 -1.6085  1.3501  1.1807
  736MOL0     H 1520   8.031   9.582   5.221 -1.6693  2.7258 -0.4048
  736MOL0     H 1521   7.986   9.455   5.115  2.9181 -1.3896  2.8530
  736MOL0     H 1522   7.793   9.585   5.026  1.3694  0.5885 -2.9804
  736MOL0     H 1523   7.818   9.702   5.154  1.7922 -0.4750  2.3171
  736MOL0     H 1524   7.929   9.802   4.960  0.3090  2.1081  1.8125
  736MOL0     H 1525   8.058   9.727   5.055 -0.3574  0.7347 -1.2442
  736MOL0     H 1526   8.041   9.398   4.781  0.2526 -0.8304  2.2670
  736MOL0     H 1527   8.298   9.235   4.604 -2.0507 -0.5359 -0.7643
  736MOL0     H 1528   8.129   9.211   4.675 -0.6926  2.5852 -2.6118
  736MOL0     H 1529   8.267   9.173   4.766 -2.7137 -2.4186  0.2827
  736MOL0     H 1530   8.847   9.527   4.810  0.8188 -0.8738 -0.0961
  736MOL0     H 1531   9.074   9.461   4.703 -0.1011 -1.0379 -0.8138
  736MOL0     H 1532   9.271   9.185   4.537  0.6369  2.4587  2.7673
  736MOL0     H 1533   9.173   9.192   4.669  0.6498  1.2082 -0.5753
  736MOL0     H 1534   8.996   9.072   4.495 -0.5124  1.4313  0.1561
  736MOL0     H 1535   9.153   9.026   4.413  1.3073  0.3249  0.9835
  736MOL0     H 1536   9.071   8.853   4.562  2.0851 -0.4534 -0.6795
  736MOL0     H 1537   9.094   8.959   4.709 -2.0640 -1.1276 -0.4490
  736MOL0     H 1538   9.301   9.001   4.704  0.7496  0.3520 -0.6779
  736MOL0     H 1539   9.313   8.923   4.538 -2.1927  0.4731 -0.1132
  736MOL0     H 1540   9.285   8.803   4.813  0.4440 -0.2363 -0.7248
  736MOL0     H 1541   9.226   8.712   4.680 -0.8889  0.9570  0.1482
  736MOL0     H 1542   9.508   8.803   4.760 -1.2995 -0.6537  2.4541
  736MOL0     H 1543   9.481   8.745   4.589  1.1865  0.8018  0.5473
  736MOL0     H 1544   9.418   8.543   4.671  1.0139  0.0141  0.6194
  736MOL0     H 1545   9.424   8.573   4.848  2.2310  1.1810  1.2952
  736MOL0     H 1546   9.648   8.575   4.654 -1.1103  1.5225 -1.5013
  736MOL0     H 1547   9.603   8.448   4.772 -0.9630 -0.9153 -0.9165
  736MOL0     H 1548   8.869   9.241   4.401  2.1328 -2.0618  0.4484
  736MOL0     H 1549   8.652   9.310   4.485  0.1033  1.2749 -0.5734
  736MOL0     H 1550   8.460   9.635   4.828 -0.7996  0.9638 -1.1421
  736MOL0     H 1551   8.262   9.737   4.914 -0.1757 -0.5158  2.5346
  736MOL0     H 1552   8.123   9.442   6.472  0.4183 -0.8035  0.7269
  736MOL0     H 1553   8.213   9.364   6.684 -1.5108 -1.4623  2.6731
  736MOL0     H 1554   8.247   9.657   7.130 -0.6714 -2.2880 -2.9932
  736MOL0     H 1555   8.270   9.662   7.357 -0.2520  0.6940 -2.0577
  736MOL0     H 1556   8.275   9.604   7.557 -1.4413 -1.8832 -1.9228
  736MOL0     H 1557   8.215   9.495   7.671 -1.5142  2.1741 -0.5506
  736MOL0     H 1558   8.441   9.468   7.766  3.1009 -0.5631 -1.8015
  736MOL0     H 1559   8.406   9.640   7.760  0.4281 -0.3867  0.6456
  736MOL0     H 1560   8.561   9.505   7.524 -0.2754  1.4834 -0.9634
  736MOL0     H 1561   8.545   9.670   7.561 -0.3972  0.6903  0.6214
  736MOL0     H 1562   8.769   9.529   7.616  2.9068  0.1111  3.2049
  736MOL0     H 1563   8.686   9.485   7.767 -1.8760 -0.4209 -0.5406
  736MOL0     H 1564   8.792   9.886   7.833  1.8426  0.2502  0.5067
  736MOL0     H 1565   8.318   9.220   7.342  0.3893 -1.1070 -2.0305
  736MOL0     H 1566   8.397   9.147   7.095  1.7977  0.7778 -2.4830
  736MOL0     H 1567   8.220   9.135   7.084  0.3707  0.6684 -2.0700
  736MOL0     H 1568   8.315   9.218   6.964  0.1055 -4.5207 -1.0286
  737MOL0     O 1569   3.347   9.285   9.829 -0.1859 -0.4610 -0.1530
  737MOL0     C 1570   3.259   9.288   9.913 -0.5732  0.2409 -0.1447
  737MOL0     O 1571   3.262   9.366  10.025  1.0787  0.7260  0.3739
  737MOL0     C 1572   3.381   9.432  10.059 -0.3244 -0.5334 -0.5953
  737MOL0     C 1573   3.396   9.558   9.999 -0.8029 -1.1589 -0.0849
  737MOL0     C 1574   3.509   9.636  10.044  0.7839  0.2843 -0.3055
  737MOL0     C 1575   3.600   9.587  10.142  0.1293 -0.7784  0.0060
  737MOL0     O 1576   3.692   9.682  10.180  0.0637 -0.7562  1.0483
  737MOL0     C 1577   3.775   9.654  10.296  0.2548  0.5598 -0.0470
  737MOL0     C 1578   3.919   9.596  10.254  0.2325 -0.0686 -0.1341
  737MOL0     C 1579   3.928   9.447  10.227  0.1257  0.4791  0.2261
  737MOL0     C 1580   4.070   9.401  10.216 -0.3082  0.5418 -0.5232
  737MOL0     C 1581   4.098   9.254  10.168 -0.4672  0.2817  0.7754
  737MOL0     C 1582   4.032   9.139  10.249 -0.6125  0.3471  0.0758
  737MOL0     C 1583   4.119   9.015  10.252  0.6149 -0.0605 -0.4315
  737MOL0     C 1584   4.049   8.903  10.330  0.2496 -0.2467  0.2308
  737MOL0     N 1585   4.063   8.917  10.474  0.2091 -0.0401 -0.4019
  737MOL0     C 1586   4.171   8.925  10.558  0.2242  0.1047  0.4155
  737MOL0     C 1587   4.127   8.939  10.690  0.1912 -0.7833  0.0016
  737MOL0     C 1588   4.210   8.930  10.816  0.0430 -0.2570 -0.1861
  737MOL0     C 1589   4.296   9.060  10.832 -0.3657 -0.1188  0.2295
  737MOL0     C 1590   4.387   9.048  10.957  0.0070 -0.5481 -1.4755
  737MOL0     C 1591   4.438   9.188  10.996  0.6466 -0.1274  0.5332
  737MOL0     O 1592   4.554   9.186  11.083 -0.0194  0.2908 -0.2981
  737MOL0     C 1593   4.618   9.299  11.133 -0.5031 -0.0249  0.1539
  737MOL0     C 1594   4.561   9.427  11.141 -0.2907  0.0139  0.3372
  737MOL0     C 1595   4.640   9.527  11.189 -0.3380 -1.2969 -0.4409
  737MOL0     C 1596   4.569   9.662  11.193  0.0107  0.0277  0.4016
  737MOL0     C 1597   4.777   9.505  11.244 -0.3017  0.1554  0.7141
  737MOL0     C 1598   4.861   9.597  11.316 -0.1397 -0.6946 -0.2912
  737MOL0     O 1599   4.986   9.551  11.356  0.0441 -0.2153  0.4107
  737MOL0     C 1600   5.059   9.628  11.442 -0.6855 -0.3848 -0.4737
  737MOL0     C 1601   5.008   9.657  11.573 -0.3850 -0.0263 -0.2140
  737MOL0     C 1602   5.083   9.721  11.671  1.0575  0.1500  0.0585
  737MOL0     C 1603   5.215   9.775  11.642  0.5124  0.7701  1.0094
  737MOL0     O 1604   5.278   9.854  11.725  0.6041 -1.1000 -0.3164
  737MOL0     C 1605   5.288   9.815  11.861 -0.3663 -0.0554  0.5934
  737MOL0     C 1606   5.364   9.930  11.926 -0.9868  0.8036 -0.7510
  737MOL0     C 1607   5.513   9.934  11.884 -0.8344  0.3192  0.7294
  737MOL0     C 1608   5.609   9.845  11.974 -0.2329 -0.3184  0.2282
  737MOL0     C 1609   5.754   9.897  11.975 -0.6765 -0.8434 -0.2544
  737MOL0     C 1610   5.852   9.783  12.011 -0.1081 -0.0079  0.3063
  737MOL0     C 1611   5.994   9.839  12.055 -0.3039  0.2206  0.0500
  737MOL0     C 1612   6.056   9.731  12.148  0.4582 -0.9048  0.4707
  737MOL0    Cl 1613   6.224   9.778  12.194 -0.1711 -0.3317  0.3718
  737MOL0     C 1614   5.259   9.750  11.511 -0.1356 -0.7224 -0.1757
  737MOL0     C 1615   5.186   9.680  11.412 -0.3308 -0.0029 -0.2543
  737MOL0     O 1616   4.810   9.702  11.353 -0.1014 -0.0595 -0.2180
  737MOL0     C 1617   4.823   9.374  11.229 -0.4518  0.9135  0.8591
  737MOL0     C 1618   4.742   9.274  11.177  0.2856  0.7668  0.1178
  737MOL0     N 1619   3.990   8.947  10.670  0.7020  0.6299  0.0266
  737MOL0     N 1620   3.952   8.924  10.547  0.3083 -0.5408  0.9493
  737MOL0     C 1621   3.592   9.461  10.184  0.6149 -0.0197  0.2428
  737MOL0     C 1622   3.475   9.384  10.148 -0.6307  0.4645 -1.0268
  737MOL0     C 1623   3.145   9.183   9.887 -0.3617 -0.3493 -0.6913
  737MOL0     C 1624   3.117   9.148   9.750 -0.7867  0.0969 -0.1646
  737MOL0     C 1625   3.009   9.070   9.717  0.0131  0.0034  0.0385
  737MOL0     C 1626   2.934   9.013   9.815  0.0916  0.1101 -1.0405
  737MOL0     O 1627   2.820   8.932   9.794  0.3283 -0.1652  0.4202
  737MOL0     C 1628   2.829   8.837   9.694 -0.0056 -0.0837 -0.5500
  737MOL0     C 1629   2.766   8.890   9.569 -0.3475 -0.1251 -0.6450
  737MOL0     C 1630   2.615   8.930   9.573 -0.2202 -0.0801  0.3608
  737MOL0     C 1631   2.525   8.827   9.648 -0.5416 -0.6642  0.3631
  737MOL0     C 1632   2.386   8.844   9.622  0.6775 -0.2742  0.5417
  737MOL0     C 1633   2.266   8.840   9.608  0.0055 -0.3571  0.6716
  737MOL0     C 1634   2.957   9.046   9.941 -0.7938 -0.2672 -0.6782
  737MOL0     C 1635   3.074   9.112   9.983 -0.3323 -0.4946 -0.4600
  737MOL0     C 1636   3.112   9.126  10.128 -0.1419 -0.0126  0.4173
  737MOL0     H 1637   3.334   9.578   9.912 -1.8696 -2.3452  0.3770
  737MOL0     H 1638   3.515   9.732   9.994  0.2941  0.3732 -0.1987
  737MOL0     H 1639   3.724   9.588  10.366  1.6227  2.6261  3.1327
  737MOL0     H 1640   3.789   9.751  10.346 -0.3965  1.5681 -1.7084
  737MOL0     H 1641   3.947   9.640  10.158 -3.2019 -1.4759 -1.9738
  737MOL0     H 1642   3.991   9.625  10.331  0.8656  2.2538 -1.4893
  737MOL0     H 1643   3.872   9.397  10.307 -0.9852 -0.6133 -1.1792
  737MOL0     H 1644   3.885   9.415  10.132  1.5866  0.6116 -0.5092
  737MOL0     H 1645   4.121   9.467  10.144  3.3992 -1.2664  0.1713
  737MOL0     H 1646   4.130   9.413  10.307  0.0511 -1.3959 -0.4623
  737MOL0     H 1647   4.206   9.241  10.163 -0.5377 -0.6377  1.4355
  737MOL0     H 1648   4.052   9.243  10.069 -2.5431  0.3214  1.6734
  737MOL0     H 1649   4.031   9.173  10.354 -0.6121 -0.1631  0.2441
  737MOL0     H 1650   3.932   9.113  10.212 -0.3125  0.8471 -1.1098
  737MOL0     H 1651   4.218   9.036  10.295  1.0574 -2.3105 -0.2273
  737MOL0     H 1652   4.133   8.979  10.149 -0.0611 -0.6289 -0.3288
  737MOL0     H 1653   3.944   8.901  10.299  0.6749  2.1905 -1.6812
  737MOL0     H 1654   4.108   8.812  10.313  0.7634 -0.1752  1.5327
  737MOL0     H 1655   4.274   8.910  10.528 -0.2462 -1.2782 -0.6097
  737MOL0     H 1656   4.263   8.837  10.798  0.3463 -0.0067 -0.5985
  737MOL0     H 1657   4.143   8.918  10.902 -1.2141 -1.6748 -1.3135
  737MOL0     H 1658   4.365   9.064  10.746 -0.3640  0.1714  0.2425
  737MOL0     H 1659   4.238   9.153  10.834  0.0379  0.1907 -1.1041
  737MOL0     H 1660   4.329   8.999  11.035  0.0286 -1.5438 -2.0619
  737MOL0     H 1661   4.474   8.984  10.940  0.3344 -0.4153 -0.3776
  737MOL0     H 1662   4.454   9.256  10.912 -0.1356  1.3574  1.5422
  737MOL0     H 1663   4.358   9.237  11.054 -1.1223 -1.2116 -0.8870
  737MOL0     H 1664   4.462   9.450  11.102  0.2512  1.6188 -0.1674
  737MOL0     H 1665   4.464   9.646  11.168 -0.0789  1.9026 -0.5645
  737MOL0     H 1666   4.617   9.719  11.114  1.0929 -0.2255  0.8512
  737MOL0     H 1667   4.583   9.724  11.282 -0.4608  3.8251 -1.9697
  737MOL0     H 1668   4.910   9.617  11.592 -0.1679 -1.0520 -1.1679
  737MOL0     H 1669   5.037   9.729  11.768  1.6807 -1.4489  0.5226
  737MOL0     H 1670   5.193   9.800  11.912  0.9107 -1.7274  2.6668
  737MOL0     H 1671   5.354   9.728  11.869  3.3472  2.5173  0.4397
  737MOL0     H 1672   5.311  10.021  11.899 -2.7334 -0.0755 -0.3968
  737MOL0     H 1673   5.356   9.925  12.035 -1.3254 -1.1527 -0.8352
  737MOL0     H 1674   5.538  10.040  11.882 -1.7423  0.5364 -0.6053
  737MOL0     H 1675   5.507   9.899  11.781 -2.0395  0.1080  0.8506
  737MOL0     H 1676   5.616   9.743  11.935 -0.3299  0.3307 -1.6071
  737MOL0     H 1677   5.578   9.840  12.078 -1.3288 -2.6286 -0.1565
  737MOL0     H 1678   5.791   9.939  11.881 -0.7187 -1.2593 -0.4560
  737MOL0     H 1679   5.760   9.973  12.054  0.3522 -2.2329  1.0482
  737MOL0     H 1680   5.858   9.704  11.937 -2.2326  1.0308 -1.0470
  737MOL0     H 1681   5.807   9.735  12.098 -1.2099  0.6940  0.1495
  737MOL0     H 1682   5.985   9.928  12.117  2.6611 -2.4443  5.0084
  737MOL0     H 1683   6.058   9.859  11.968 -0.1681  0.1676  0.1357
  737MOL0     H 1684   6.045   9.637  12.093 -2.3563 -1.7880  2.3111
  737MOL0     H 1685   5.996   9.705  12.236  0.6126  1.4300  1.3207
  737MOL0     H 1686   5.355   9.789  11.480  0.6937 -0.4536  2.4486
  737MOL0     H 1687   5.221   9.668  11.310 -1.6287  0.6799 -0.8131
  737MOL0     H 1688   4.916   9.335  11.270 -0.6000  1.1617  1.4456
  737MOL0     H 1689   4.794   9.180  11.180  0.6190  0.8896 -1.2442
  737MOL0     H 1690   3.669   9.411  10.243  0.1587 -1.6738 -0.5060
  737MOL0     H 1691   3.469   9.280  10.179 -1.2362  1.6256  3.4887
  737MOL0     H 1692   3.171   9.190   9.665  0.5871  1.9203  1.5251
  737MOL0     H 1693   2.996   9.044   9.613 -1.4031  1.5280 -0.2056
  737MOL0     H 1694   2.931   8.799   9.679 -0.0141  0.2818 -1.7180
  737MOL0     H 1695   2.774   8.750   9.728  1.1839 -0.1717  1.2671
  737MOL0     H 1696   2.780   8.826   9.482  1.9854 -0.4948 -0.0501
  737MOL0     H 1697   2.817   8.984   9.545  0.3686 -0.5327 -0.7316
  737MOL0     H 1698   2.598   9.031   9.612 -0.3952  0.0885 -0.1551
  737MOL0     H 1699   2.579   8.933   9.470 -2.7577 -1.5937  1.1099
  737MOL0     H 1700   2.536   8.846   9.755 -1.0677  0.8924  0.1769
  737MOL0     H 1701   2.557   8.731   9.609 -0.1845  0.0616 -1.2101
  737MOL0     H 1702   2.160   8.830   9.601 -0.2928  2.8996 -3.4712
  737MOL0     H 1703   2.892   9.001  10.015 -1.9875  0.9741 -0.9411
  737MOL0     H 1704   3.041   9.078  10.195 -2.2847 -0.5984 -2.0966
  737MOL0     H 1705   3.206   9.069  10.137 -0.1908  0.2242  3.0185
  737MOL0     H 1706   3.119   9.232  10.153 -1.5980 -0.1449  1.4547
  738MOL0     O 1707   4.596   0.453  10.221 -0.2363 -0.1398  0.4759
  738MOL0     C 1708   4.574   0.465  10.342 -0.4942  0.1224  0.4845
  738MOL0     O 1709   4.649   0.532  10.431 -0.4256 -0.4022 -0.0269
  738MOL0     C 1710   4.761   0.606  10.387 -0.2209  1.0922 -0.9385
  738MOL0     C 1711   4.834   0.679  10.487  0.0351 -0.7602 -0.1797
  738MOL0     C 1712   4.951   0.754  10.466  0.3954  0.0976 -0.6625
  738MOL0     C 1713   4.983   0.785  10.334  0.4156 -0.6656 -0.0406
  738MOL0     O 1714   5.073   0.880  10.298  1.0314  0.1040 -0.1468
  738MOL0     C 1715   5.153   0.950  10.398  0.0012  0.1396  0.3416
  738MOL0     C 1716   5.255   1.033  10.328  1.0233 -0.7008 -0.4875
  738MOL0     C 1717   5.185   1.106  10.203  0.0763 -0.8555 -0.4902
  738MOL0     C 1718   5.283   1.209  10.142  0.3918  0.8294  0.4685
  738MOL0     C 1719   5.234   1.260  10.008 -0.8920  0.0446 -0.5475
  738MOL0     C 1720   5.343   1.360   9.957 -0.3308 -0.8181  0.3924
  738MOL0     C 1721   5.347   1.342   9.802  0.3044 -0.1837 -0.3895
  738MOL0     C 1722   5.416   1.203   9.762 -0.6434 -0.9744  0.7682
  738MOL0     N 1723   5.554   1.188   9.818 -0.1718  0.3808 -0.5067
  738MOL0     C 1724   5.674   1.240   9.774  0.1555  0.0460  0.3921
  738MOL0     C 1725   5.771   1.191   9.860 -0.4659  0.3813  0.3672
  738MOL0     C 1726   5.918   1.199   9.838 -0.4051  0.3361 -1.5051
  738MOL0     C 1727   5.999   1.222   9.965 -0.2806  0.4423 -0.4640
  738MOL0     C 1728   6.144   1.221   9.920 -0.3395 -0.5358 -0.2237
  738MOL0     C 1729   6.238   1.194  10.047  0.2577 -0.1372  0.7393
  738MOL0     O 1730   6.378   1.191  10.004  0.0807 -0.2296 -0.7792
  738MOL0     C 1731   6.480   1.217  10.098  0.0882  0.0223 -0.4954
  738MOL0     C 1732   6.456   1.236  10.240  0.7924  0.8613  0.5791
  738MOL0     C 1733   6.564   1.241  10.333  0.5707  0.3233 -0.5605
  738MOL0     C 1734   6.526   1.282  10.474  0.4289 -0.7293  0.0136
  738MOL0     C 1735   6.694   1.214  10.294  0.3456  0.3230  0.2799
  738MOL0     C 1736   6.816   1.239  10.379 -0.0323 -0.0194 -0.5026
  738MOL0     O 1737   6.928   1.171  10.345  0.2812 -0.1618  0.1472
  738MOL0     C 1738   7.049   1.210  10.398  0.3785 -1.1605 -0.6001
  738MOL0     C 1739   7.146   1.121  10.410  0.3205 -0.0950 -0.4455
  738MOL0     C 1740   7.259   1.153  10.483  0.1104 -0.6411  0.8271
  738MOL0     C 1741   7.294   1.288  10.500 -0.7893  1.6721  0.2208
  738MOL0     O 1742   7.415   1.321  10.558  0.4413 -1.1148  0.1484
  738MOL0     C 1743   7.462   1.459  10.548  1.1435  0.2930 -0.1894
  738MOL0     C 1744   7.620   1.471  10.563  1.2605 -0.8892  0.2921
  738MOL0     C 1745   7.712   1.420  10.454  0.4322  0.2189  0.3323
  738MOL0     C 1746   7.858   1.405  10.515 -0.0652  0.9534 -0.0365
  738MOL0     C 1747   7.966   1.366  10.407 -0.4665 -0.1392  0.3070
  738MOL0     C 1748   8.107   1.381  10.467 -0.0768 -0.6056 -0.1032
  738MOL0     C 1749   8.224   1.355  10.369 -0.0920 -0.5636 -0.1834
  738MOL0     C 1750   8.259   1.214  10.327  0.2381 -0.0693 -0.7371
  738MOL0    Cl 1751   8.388   1.227  10.194 -0.0227  0.0401 -0.2151
  738MOL0     C 1752   7.202   1.389  10.471 -0.1302  0.1477  0.1227
  738MOL0     C 1753   7.080   1.347  10.421  0.2377 -0.1608  0.4758
  738MOL0     O 1754   6.803   1.322  10.473  0.4814  0.2254 -0.4157
  738MOL0     C 1755   6.719   1.202  10.153  0.2751 -0.4621  0.2285
  738MOL0     C 1756   6.613   1.198  10.055  0.5096  0.9015 -0.1792
  738MOL0     N 1757   5.709   1.109   9.952 -0.4542  0.9375 -0.2421
  738MOL0     N 1758   5.584   1.101   9.922 -0.4025  0.3724 -0.1390
  738MOL0     C 1759   4.909   0.724  10.229 -0.2369 -0.3684  0.0298
  738MOL0     C 1760   4.809   0.633  10.253  0.3006 -0.5094  0.1801
  738MOL0     C 1761   4.445   0.409  10.383 -0.0050 -0.9060  0.1209
  738MOL0     C 1762   4.375   0.324  10.292 -0.5058  0.4923  0.1071
  738MOL0     C 1763   4.248   0.277  10.317  0.4333 -0.4137 -0.7728
  738MOL0     C 1764   4.182   0.318  10.434  0.0450 -0.0546  0.5321
  738MOL0     O 1765   4.070   0.272  10.499 -1.4175  0.4568  0.2497
  738MOL0     C 1766   3.981   0.190  10.423  0.9071 -0.3631 -0.1286
  738MOL0     C 1767   3.842   0.173  10.498 -1.1724  0.6962  0.0941
  738MOL0     C 1768   3.861   0.123  10.637 -0.1043  0.2910 -0.6029
  738MOL0     C 1769   3.718   0.079  10.688 -0.2660  0.7646 -0.4476
  738MOL0     C 1770   3.720   0.037  10.826 -0.3074 -0.6559  0.2781
  738MOL0     C 1771   3.756  -0.003  10.935  0.3543  0.4387  0.2156
  738MOL0     C 1772   4.247   0.394  10.528 -0.0435 -0.9591 -0.8841
  738MOL0     C 1773   4.380   0.436  10.511  0.3838 -1.2134 -0.4011
  738MOL0     C 1774   4.440   0.509  10.628  0.2646 -0.7324  1.3836
  738MOL0     H 1775   4.780   0.660  10.580  0.2756 -2.3976 -0.3579
  738MOL0     H 1776   5.003   0.781  10.558  0.9147 -2.4488 -0.1201
  738MOL0     H 1777   5.217   0.889  10.462 -0.1383 -1.4235 -0.9464
  738MOL0     H 1778   5.093   1.016  10.462 -1.2719 -1.7053  1.1279
  738MOL0     H 1779   5.286   1.116  10.393 -1.1722  0.1020 -0.3546
  738MOL0     H 1780   5.347   0.986  10.294  2.3756  1.9260 -0.6892
  738MOL0     H 1781   5.135   1.034  10.138 -0.2615 -1.0102 -0.0622
  738MOL0     H 1782   5.093   1.154  10.237  2.1334  2.6012  0.6944
  738MOL0     H 1783   5.304   1.292  10.210 -3.6318  1.6029  0.9950
  738MOL0     H 1784   5.367   1.144  10.116 -0.2956 -1.0864  2.6860
  738MOL0     H 1785   5.131   1.299  10.009 -1.1630 -0.6467  0.7057
  738MOL0     H 1786   5.227   1.175   9.940  1.5897  1.0464 -2.2018
  738MOL0     H 1787   5.311   1.459   9.988  2.6484 -0.0733  1.4421
  738MOL0     H 1788   5.444   1.341   9.995  0.1372 -0.6997 -0.7269
  738MOL0     H 1789   5.408   1.416   9.749 -1.0679  1.6937  0.5402
  738MOL0     H 1790   5.246   1.353   9.760  1.0176  2.6361 -1.6511
  738MOL0     H 1791   5.354   1.116   9.781 -2.6274 -0.4966 -2.6781
  738MOL0     H 1792   5.432   1.210   9.654 -2.3717  0.3545  0.5541
  738MOL0     H 1793   5.693   1.310   9.693 -1.1405  0.3268  0.3099
  738MOL0     H 1794   5.945   1.289   9.781  1.6626  0.5049 -0.3541
  738MOL0     H 1795   5.958   1.115   9.781 -0.0753  0.4803 -1.4922
  738MOL0     H 1796   5.974   1.318  10.010  0.2204  1.3012 -1.9425
  738MOL0     H 1797   5.982   1.143  10.039 -2.9810  1.0077 -0.3871
  738MOL0     H 1798   6.167   1.147   9.843  2.6241 -1.7263  1.6189
  738MOL0     H 1799   6.161   1.319   9.874  0.3253 -0.2364  0.6251
  738MOL0     H 1800   6.218   1.281  10.110 -1.4287  1.4005 -1.7329
  738MOL0     H 1801   6.207   1.106  10.103 -2.4115  0.8398  0.9795
  738MOL0     H 1802   6.355   1.225  10.278 -0.2712  0.0317 -2.2292
  738MOL0     H 1803   6.573   1.226  10.555 -0.3616 -1.2885  0.1115
  738MOL0     H 1804   6.422   1.249  10.484  0.6057 -2.2816 -2.4061
  738MOL0     H 1805   6.533   1.390  10.484 -0.1522 -0.5989 -0.8746
  738MOL0     H 1806   7.132   1.015  10.390  2.0082 -0.2135 -1.2257
  738MOL0     H 1807   7.338   1.079  10.485  0.4103 -0.5699 -2.3847
  738MOL0     H 1808   7.435   1.510  10.455  0.4218  1.2815  0.5488
  738MOL0     H 1809   7.416   1.511  10.632 -1.7118 -0.6478 -1.0445
  738MOL0     H 1810   7.643   1.577  10.577  0.9199 -1.0515  2.2722
  738MOL0     H 1811   7.646   1.423  10.658 -1.2773 -1.7213  0.6253
  738MOL0     H 1812   7.726   1.490  10.372 -1.6218  0.7190  0.3669
  738MOL0     H 1813   7.681   1.322  10.415 -0.1743 -0.1135  1.5916
  738MOL0     H 1814   7.877   1.328  10.591  0.8815 -1.7432 -2.8148
  738MOL0     H 1815   7.886   1.501  10.561 -1.0384  0.8953  0.6952
  738MOL0     H 1816   7.954   1.259  10.388  2.2121 -0.1997 -1.5891
  738MOL0     H 1817   7.943   1.428  10.320  0.5431 -0.0411  0.0972
  738MOL0     H 1818   8.114   1.316  10.555 -2.5047 -0.7308  0.0776
  738MOL0     H 1819   8.117   1.482  10.506 -3.8305  0.8274 -2.2687
  738MOL0     H 1820   8.315   1.392  10.415 -1.0609  1.5033  0.1888
  738MOL0     H 1821   8.209   1.409  10.275 -1.7537  1.1870  1.0154
  738MOL0     H 1822   8.172   1.151  10.308  0.9668 -1.7363  1.1204
  738MOL0     H 1823   8.304   1.165  10.414 -2.9127 -1.9326  0.0081
  738MOL0     H 1824   7.225   1.493  10.491 -0.6525  0.1358  0.8160
  738MOL0     H 1825   6.997   1.414  10.402 -1.9013 -2.8255 -0.2293
  738MOL0     H 1826   6.813   1.202  10.100 -1.9720 -2.2345 -4.2689
  738MOL0     H 1827   6.647   1.175   9.955  1.6006 -0.5476  0.4971
  738MOL0     H 1828   4.930   0.754  10.127 -1.1100 -2.0604 -0.6844
  738MOL0     H 1829   4.752   0.601  10.166  1.0696 -1.8279  0.1313
  738MOL0     H 1830   4.419   0.283  10.202  0.3687 -0.2884  0.8751
  738MOL0     H 1831   4.199   0.210  10.247  1.5359 -2.2179  0.1102
  738MOL0     H 1832   3.967   0.236  10.326  2.3961 -0.6668 -0.5092
  738MOL0     H 1833   4.027   0.090  10.416  1.1820 -0.4266  1.9261
  738MOL0     H 1834   3.776   0.104  10.444 -1.5059  0.3306  0.9412
  738MOL0     H 1835   3.796   0.272  10.509  1.6789  2.3346 -1.5311
  738MOL0     H 1836   3.942   0.051  10.651 -1.4809 -1.1927  0.0085
  738MOL0     H 1837   3.897   0.208  10.697 -3.8067 -0.4355  3.1381
  738MOL0     H 1838   3.681  -0.009  10.633  0.3856  1.7472 -2.5577
  738MOL0     H 1839   3.644   0.158  10.671  0.1315  0.9530 -1.3437
  738MOL0     H 1840   3.786  -0.037  11.032 -1.0090 -0.1272  0.4582
  738MOL0     H 1841   4.188   0.420  10.615  0.0382  0.4692 -1.2304
  738MOL0     H 1842   4.474   0.604  10.587 -0.2709 -2.6494 -4.5385
  738MOL0     H 1843   4.368   0.532  10.707 -3.4549  0.8260 -2.1183
  738MOL0     H 1844   4.520   0.449  10.673  0.3781 -2.4541 -0.9037
  739MOL0     O 1845   0.762   6.508   1.686  0.3065 -0.3350 -0.3605
  739MOL0     C 1846   0.717   6.395   1.710 -0.6637  0.1900 -0.0987
  739MOL0     O 1847   0.794   6.295   1.764 -0.5142 -0.4900  0.1144
  739MOL0     C 1848   0.924   6.322   1.777 -0.9903 -0.6685 -0.1492
  739MOL0     C 1849   1.020   6.359   1.679 -0.3350  0.2383  0.6616
  739MOL0     C 1850   1.145   6.394   1.717 -0.3118  0.2443  0.3498
  739MOL0     C 1851   1.197   6.374   1.845 -0.0482 -0.2915 -0.6497
  739MOL0     O 1852   1.324   6.412   1.870 -0.7781  0.5066  0.1919
  739MOL0     C 1853   1.387   6.342   1.982  0.3378  0.3624  0.6791
  739MOL0     C 1854   1.456   6.456   2.072 -0.1751  0.0621  1.3478
  739MOL0     C 1855   1.553   6.378   2.164  0.2509 -0.2368  0.4888
  739MOL0     C 1856   1.648   6.476   2.219 -0.3285 -0.4511  0.1464
  739MOL0     C 1857   1.747   6.413   2.311  0.9989  0.2909  0.2944
  739MOL0     C 1858   1.858   6.512   2.324  0.4468  0.1718 -0.5143
  739MOL0     C 1859   1.980   6.475   2.416  0.8704 -0.3931 -0.3880
  739MOL0     C 1860   2.020   6.331   2.417  0.1262 -0.3655 -0.6100
  739MOL0     N 1861   2.115   6.311   2.305  0.2031 -0.1695 -0.2617
  739MOL0     C 1862   2.083   6.254   2.185 -0.2030 -0.0293  0.5464
  739MOL0     C 1863   2.198   6.270   2.111  0.4313  0.2085  0.0212
  739MOL0     C 1864   2.214   6.220   1.976 -0.2267 -0.1829  0.8429
  739MOL0     C 1865   2.272   6.070   1.963 -0.5401 -0.5378 -0.1863
  739MOL0     C 1866   2.188   5.977   1.877  0.2041  0.8970 -0.0448
  739MOL0     C 1867   2.239   5.836   1.858 -0.7229  0.3965 -0.3509
  739MOL0     O 1868   2.346   5.832   1.760  0.0333  0.3843  0.5444
  739MOL0     C 1869   2.415   5.714   1.737 -0.0403  0.6843 -0.8234
  739MOL0     C 1870   2.516   5.725   1.636  1.1351  0.5419 -0.7157
  739MOL0     C 1871   2.620   5.621   1.633  0.3769  0.1508  0.6563
  739MOL0     C 1872   2.737   5.654   1.539  0.6086 -0.2448  0.1973
  739MOL0     C 1873   2.601   5.496   1.693  0.6444  0.4884 -0.2210
  739MOL0     C 1874   2.691   5.379   1.676  0.1932  0.1499  0.2791
  739MOL0     O 1875   2.824   5.395   1.698 -0.7809 -0.0989 -0.4656
  739MOL0     C 1876   2.898   5.292   1.638  0.0355 -0.1660 -0.1508
  739MOL0     C 1877   2.899   5.164   1.697 -0.1126 -0.1236  0.6021
  739MOL0     C 1878   2.965   5.058   1.631  0.9231  0.1767  0.7416
  739MOL0     C 1879   3.034   5.076   1.515 -0.8251  0.1623  0.0085
  739MOL0     O 1880   3.119   4.987   1.451  0.1682 -0.2497  0.5919
  739MOL0     C 1881   3.144   4.865   1.517  0.5323 -0.1747  0.9445
  739MOL0     C 1882   3.243   4.776   1.436  0.1976 -0.3667 -0.9854
  739MOL0     C 1883   3.365   4.737   1.504  0.0592  0.5736  0.2589
  739MOL0     C 1884   3.468   4.666   1.421  0.3405  0.0197 -0.4247
  739MOL0     C 1885   3.611   4.665   1.463  0.4475 -0.4782 -0.5665
  739MOL0     C 1886   3.648   4.558   1.572  0.4977 -0.3052 -0.5326
  739MOL0     C 1887   3.797   4.516   1.562 -0.6126  0.5463 -0.9012
  739MOL0     C 1888   3.884   4.625   1.628 -0.9144 -0.2156 -0.3240
  739MOL0    Cl 1889   4.057   4.583   1.644 -0.2579  0.2016  0.2560
  739MOL0     C 1890   3.039   5.203   1.471  0.5749  0.0759 -0.5200
  739MOL0     C 1891   2.977   5.314   1.522 -0.5982 -0.4882  0.2511
  739MOL0     O 1892   2.636   5.268   1.654  0.0245  0.0589  0.2703
  739MOL0     C 1893   2.486   5.482   1.781  0.1473 -0.1740  0.2311
  739MOL0     C 1894   2.395   5.588   1.803  0.1581  0.0137  0.6268
  739MOL0     N 1895   2.294   6.330   2.186 -0.6116  0.3586 -0.6976
  739MOL0     N 1896   2.240   6.354   2.303  0.5211 -0.6434 -0.4864
  739MOL0     C 1897   1.101   6.325   1.937 -0.4555  0.4335 -0.9837
  739MOL0     C 1898   0.975   6.299   1.899  0.7687 -0.6233 -0.0113
  739MOL0     C 1899   0.579   6.371   1.675  0.2614  0.7926 -0.6288
  739MOL0     C 1900   0.547   6.240   1.650  0.7332 -0.3870  0.7109
  739MOL0     C 1901   0.420   6.201   1.601  0.2429  0.4049  0.2458
  739MOL0     C 1902   0.317   6.294   1.576 -0.1605 -0.1860  0.8392
  739MOL0     O 1903   0.197   6.255   1.529 -0.1112  0.3243 -0.1553
  739MOL0     C 1904   0.104   6.351   1.487  0.9077  0.3019  0.2979
  739MOL0     C 1905   0.131   6.378   1.338 -0.0834  0.4262  0.1973
  739MOL0     C 1906   0.076   6.276   1.245 -0.6391 -0.6264 -0.4516
  739MOL0     C 1907   0.105   6.301   1.099  0.7816  0.8383 -0.5386
  739MOL0     C 1908   0.068   6.179   1.013  0.4399  0.5125 -0.2662
  739MOL0     C 1909   0.052   6.073   0.954 -0.4884  0.0265 -0.0294
  739MOL0     C 1910   0.359   6.431   1.599 -0.1401 -0.1338  0.3405
  739MOL0     C 1911   0.481   6.474   1.652 -0.1048 -0.2361  0.5942
  739MOL0     C 1912   0.502   6.617   1.689 -0.0506 -0.5535 -0.4839
  739MOL0     H 1913   0.975   6.353   1.580 -2.3578 -3.5149  1.5880
  739MOL0     H 1914   1.215   6.422   1.639 -2.6202  0.7880 -1.6527
  739MOL0     H 1915   1.464   6.275   1.944 -0.5299 -1.5862  2.1893
  739MOL0     H 1916   1.320   6.285   2.047 -0.7493  1.6774  0.7576
  739MOL0     H 1917   1.512   6.526   2.009  2.6089 -2.7141  0.4757
  739MOL0     H 1918   1.377   6.502   2.133 -0.7608  0.3944  0.3543
  739MOL0     H 1919   1.496   6.318   2.235  0.3735 -0.5109  0.3579
  739MOL0     H 1920   1.618   6.309   2.109  0.5462 -0.2300  0.8231
  739MOL0     H 1921   1.700   6.535   2.143 -1.0508  1.5584  1.1655
  739MOL0     H 1922   1.590   6.543   2.283 -0.8537 -0.2382 -0.5391
  739MOL0     H 1923   1.775   6.318   2.264 -0.1305  2.1562 -4.7846
  739MOL0     H 1924   1.718   6.404   2.416  0.3418  1.4583  0.2254
  739MOL0     H 1925   1.893   6.542   2.224  0.6788  1.2864 -0.1171
  739MOL0     H 1926   1.819   6.601   2.375 -0.0084 -1.3496  1.9474
  739MOL0     H 1927   1.961   6.507   2.519  0.1297 -3.6351  0.5948
  739MOL0     H 1928   2.058   6.545   2.385  0.8843 -1.0440 -1.9173
  739MOL0     H 1929   2.065   6.320   2.517  0.5451  1.1632 -0.6026
  739MOL0     H 1930   1.934   6.264   2.409  0.4076 -0.5124 -3.0865
  739MOL0     H 1931   1.989   6.215   2.147  0.5136 -1.2210 -0.0521
  739MOL0     H 1932   2.300   6.280   1.948  1.3342 -1.9525  1.6188
  739MOL0     H 1933   2.121   6.218   1.919  0.8356 -2.2562 -0.9935
  739MOL0     H 1934   2.364   6.088   1.907  1.4859  0.6473  3.1787
  739MOL0     H 1935   2.300   6.037   2.064  0.1649  1.9519  0.5175
  739MOL0     H 1936   2.090   5.965   1.925  0.0462 -0.8959 -0.7479
  739MOL0     H 1937   2.170   6.016   1.776  1.1698  1.3377 -0.0570
  739MOL0     H 1938   2.271   5.788   1.950  1.7750 -0.8110 -1.7507
  739MOL0     H 1939   2.157   5.773   1.821 -0.1002  0.3023 -1.6179
  739MOL0     H 1940   2.514   5.815   1.575  2.5207  0.3934 -0.9988
  739MOL0     H 1941   2.824   5.590   1.553  1.6416  1.3160  1.1791
  739MOL0     H 1942   2.770   5.757   1.552 -1.2807  1.0509 -3.7198
  739MOL0     H 1943   2.704   5.650   1.435  2.3084  1.9328 -0.4915
  739MOL0     H 1944   2.840   5.128   1.779 -0.0046  0.9769  1.1874
  739MOL0     H 1945   2.954   4.957   1.668 -0.9825  0.0650 -0.0393
  739MOL0     H 1946   3.181   4.890   1.617 -1.7068  1.3962  1.4595
  739MOL0     H 1947   3.056   4.800   1.523  0.8722 -0.6963  0.3765
  739MOL0     H 1948   3.194   4.687   1.396  0.1445  0.1606 -2.1132
  739MOL0     H 1949   3.272   4.832   1.347 -0.5020 -0.5035 -1.3056
  739MOL0     H 1950   3.332   4.654   1.568  0.9448  0.2014  0.2470
  739MOL0     H 1951   3.418   4.813   1.563  0.4511  0.2031  0.3876
  739MOL0     H 1952   3.486   4.728   1.332  1.1956  1.2530  0.5592
  739MOL0     H 1953   3.442   4.561   1.408  1.2834 -0.5664  1.9293
  739MOL0     H 1954   3.674   4.638   1.378  0.5173 -0.8671 -0.3927
  739MOL0     H 1955   3.628   4.763   1.508 -1.8757 -0.7029  0.9725
  739MOL0     H 1956   3.582   4.470   1.566  0.7584 -0.5076 -0.4250
  739MOL0     H 1957   3.652   4.588   1.677  1.5731 -1.9036 -0.0799
  739MOL0     H 1958   3.826   4.501   1.458 -1.9090  0.3673 -1.2541
  739MOL0     H 1959   3.801   4.429   1.629  1.0379 -0.5471 -2.3551
  739MOL0     H 1960   3.852   4.641   1.731  0.5381  0.4553  0.0528
  739MOL0     H 1961   3.881   4.716   1.568 -0.8045  0.6984  1.0305
  739MOL0     H 1962   3.097   5.217   1.380  1.1883  0.5603 -0.0616
  739MOL0     H 1963   2.993   5.407   1.468 -5.1470  0.0166 -0.6201
  739MOL0     H 1964   2.456   5.388   1.826  0.1833 -0.3421 -0.0884
  739MOL0     H 1965   2.305   5.581   1.863 -1.6145 -2.6366 -2.0307
  739MOL0     H 1966   1.123   6.297   2.040 -1.0515  1.7818 -0.4681
  739MOL0     H 1967   0.889   6.261   1.954 -0.5445 -0.4001 -1.8040
  739MOL0     H 1968   0.611   6.155   1.672  0.5885 -0.7452 -0.2286
  739MOL0     H 1969   0.401   6.095   1.596  0.4754  0.4322 -1.9649
  739MOL0     H 1970   0.014   6.291   1.499  0.7403  0.2944 -0.8322
  739MOL0     H 1971   0.103   6.448   1.537  2.3245  0.7189 -0.4138
  739MOL0     H 1972   0.237   6.392   1.313 -0.1555  1.3775  0.3777
  739MOL0     H 1973   0.084   6.472   1.308 -2.6929 -1.0196 -0.4872
  739MOL0     H 1974   0.121   6.179   1.269 -1.0397 -0.1133  2.8603
  739MOL0     H 1975  -0.032   6.289   1.245 -0.3996  1.8682 -0.3947
  739MOL0     H 1976   0.210   6.327   1.085  1.1175 -0.6590 -0.9690
  739MOL0     H 1977   0.042   6.383   1.064 -0.6200  0.1132  0.1790
  739MOL0     H 1978   0.041   5.975   0.911  4.1611 -0.7735  0.1560
  739MOL0     H 1979   0.298   6.516   1.568  2.0776  1.1241 -0.8440
  739MOL0     H 1980   0.566   6.672   1.621 -3.2956 -0.1757 -3.5235
  739MOL0     H 1981   0.408   6.672   1.675 -0.9813 -2.2727 -1.4221
  739MOL0     H 1982   0.533   6.623   1.794  0.7166  2.6216 -0.7874
  740MOL0     O 1983   9.207   5.071   7.528 -0.4347  0.1922  0.1434
  740MOL0     C 1984   9.192   5.018   7.419  0.2903 -0.1064 -0.5538
  740MOL0     O 1985   9.293   4.961   7.350  0.5406 -0.1789  0.1518
  740MOL0     C 1986   9.421   5.011   7.362  0.1390  0.9909  0.1487
  740MOL0     C 1987   9.523   4.917   7.343  0.8137  0.3272  0.1459
  740MOL0     C 1988   9.652   4.952   7.343 -0.8313 -0.1765  0.1860
  740MOL0     C 1989   9.688   5.085   7.378  0.3338 -0.0451 -0.1039
  740MOL0     O 1990   9.816   5.138   7.387 -0.5272  0.0100 -0.4061
  740MOL0     C 1991   9.909   5.050   7.462  0.2513 -0.1023  0.9568
  740MOL0     C 1992  10.034   5.132   7.508  0.3692  0.5054 -0.2113
  740MOL0     C 1993  10.139   5.038   7.564 -0.3137  0.0045  0.1921
  740MOL0     C 1994  10.242   5.122   7.642 -0.6168  1.2258 -0.1037
  740MOL0     C 1995  10.349   5.034   7.708 -0.2776  0.1179 -0.3014
  740MOL0     C 1996  10.309   4.933   7.812  0.6000 -0.4374  0.0865
  740MOL0     C 1997  10.234   4.981   7.934 -0.2767 -0.1149 -0.0147
  740MOL0     C 1998  10.308   5.080   8.023 -0.2112  0.1158  0.0030
  740MOL0     N 1999  10.446   5.034   8.064  0.7223  0.3313  0.4673
  740MOL0     C 2000  10.485   4.993   8.189 -1.0193  0.8196  0.2198
  740MOL0     C 2001  10.620   4.995   8.178 -0.5212 -0.4890 -0.3492
  740MOL0     C 2002  10.706   4.963   8.294 -0.3134  0.3711  0.4769
  740MOL0     C 2003  10.771   4.815   8.291 -0.4178 -0.2617 -0.2801
  740MOL0     C 2004  10.890   4.800   8.194  0.0918 -0.5706  0.5564
  740MOL0     C 2005  10.925   4.651   8.166 -0.2505  0.0584  0.1296
  740MOL0     O 2006  10.996   4.628   8.040  0.0678 -0.2966 -0.1953
  740MOL0     C 2007  10.941   4.659   7.915 -0.1197  0.6161 -0.2031
  740MOL0     C 2008  10.819   4.720   7.888 -0.7250  0.0862  0.1646
  740MOL0     C 2009  10.765   4.736   7.759 -0.4490 -1.3518 -0.7087
  740MOL0     C 2010  10.650   4.825   7.752  0.4928 -0.0400 -0.0036
  740MOL0     C 2011  10.834   4.676   7.645  0.2173  0.9028  0.0698
  740MOL0     C 2012  10.776   4.661   7.493 -0.6075 -0.4997 -0.3835
  740MOL0     O 2013  10.852   4.619   7.389  0.0018  0.0138 -0.9884
  740MOL0     C 2014  10.808   4.644   7.262 -0.2320 -0.0301 -0.4042
  740MOL0     C 2015  10.774   4.772   7.225 -0.5095  0.0408  0.1284
  740MOL0     C 2016  10.735   4.798   7.095 -0.2477  0.1657  0.0271
  740MOL0     C 2017  10.743   4.704   6.997  0.7772  0.2366 -0.1398
  740MOL0     O 2018  10.707   4.719   6.868  0.0395  0.2186 -0.6273
  740MOL0     C 2019  10.572   4.767   6.850  0.5854 -0.8071 -0.0281
  740MOL0     C 2020  10.515   4.716   6.714 -0.3840 -0.3048 -0.0655
  740MOL0     C 2021  10.376   4.775   6.689 -0.6925  0.9018 -0.9486
  740MOL0     C 2022  10.328   4.717   6.560  0.9216 -0.2519 -0.2144
  740MOL0     C 2023  10.178   4.702   6.581 -0.2258  0.2729 -0.2814
  740MOL0     C 2024  10.119   4.658   6.450  0.5221  0.1534 -0.5119
  740MOL0     C 2025   9.970   4.662   6.441  0.1497 -0.4060 -0.3536
  740MOL0     C 2026   9.928   4.604   6.301  0.1138 -0.2698  0.5943
  740MOL0    Cl 2027   9.973   4.420   6.301  0.3480  0.4719 -0.1080
  740MOL0     C 2028  10.780   4.570   7.032 -0.7048  0.4621  0.5405
  740MOL0     C 2029  10.802   4.540   7.167 -1.2590 -0.0489  0.0341
  740MOL0     O 2030  10.658   4.687   7.485  0.4899 -0.5419 -0.2111
  740MOL0     C 2031  10.960   4.625   7.673  1.0486 -0.3876  0.1418
  740MOL0     C 2032  11.013   4.616   7.805  0.1998  0.1516 -0.0606
  740MOL0     N 2033  10.667   5.027   8.049 -0.0099  0.2208  0.2862
  740MOL0     N 2034  10.562   5.052   7.986 -0.0912 -0.6043  0.2599
  740MOL0     C 2035   9.589   5.182   7.397  0.1948  0.3938 -0.2511
  740MOL0     C 2036   9.454   5.142   7.399  0.3880  0.5323  1.8080
  740MOL0     C 2037   9.055   5.027   7.358  0.2881  0.4582  0.3372
  740MOL0     C 2038   9.045   5.017   7.219  0.2900  0.1695 -0.1688
  740MOL0     C 2039   8.919   5.006   7.154  0.1271 -0.1858 -0.1831
  740MOL0     C 2040   8.804   5.011   7.226  0.3354  0.1951 -0.7484
  740MOL0     O 2041   8.691   5.004   7.152 -0.5064 -0.3080 -0.8760
  740MOL0     C 2042   8.561   4.998   7.213  0.5508  0.0986  0.5208
  740MOL0     C 2043   8.517   5.126   7.277 -0.6877  0.1146 -0.2963
  740MOL0     C 2044   8.371   5.123   7.332 -0.7180  0.1719 -0.0875
  740MOL0     C 2045   8.321   5.022   7.438  0.9195 -0.3894  0.0966
  740MOL0     C 2046   8.417   5.029   7.549 -0.3488 -0.0139  0.2232
  740MOL0     C 2047   8.493   5.063   7.638  0.7316  0.5262  0.0098
  740MOL0     C 2048   8.818   5.008   7.368 -0.1192  0.8809  0.6292
  740MOL0     C 2049   8.938   5.017   7.440 -0.3108 -0.1043 -0.4590
  740MOL0     C 2050   8.920   5.015   7.588 -0.3161 -0.5242 -0.2912
  740MOL0     H 2051   9.503   4.814   7.318 -0.4647  0.6135 -0.0571
  740MOL0     H 2052   9.734   4.882   7.338  0.1418  0.9357  0.0732
  740MOL0     H 2053   9.935   4.960   7.407  0.9165  0.7505 -0.1664
  740MOL0     H 2054   9.860   5.023   7.556  0.0101 -1.4143  0.4705
  740MOL0     H 2055  10.061   5.188   7.418  1.1033  2.3717  1.1096
  740MOL0     H 2056  10.001   5.199   7.587 -2.0544 -0.3929 -0.3849
  740MOL0     H 2057  10.080   4.986   7.639  1.7575 -1.6493  0.7796
  740MOL0     H 2058  10.186   4.961   7.502 -0.4727 -1.0534  1.3546
  740MOL0     H 2059  10.279   5.189   7.564  0.4351 -0.8896 -1.5252
  740MOL0     H 2060  10.204   5.177   7.729 -0.4309  0.9071  0.1804
  740MOL0     H 2061  10.422   5.099   7.756  0.4853 -2.1443  1.8120
  740MOL0     H 2062  10.389   4.976   7.625 -2.0774  1.0087 -1.8665
  740MOL0     H 2063  10.252   4.853   7.765 -1.8585  2.2460 -1.8503
  740MOL0     H 2064  10.402   4.892   7.852  0.4463 -2.7490 -1.7337
  740MOL0     H 2065  10.202   4.901   8.000  1.7331 -0.2726  0.8467
  740MOL0     H 2066  10.137   5.020   7.903 -0.7450  1.0574  2.6710
  740MOL0     H 2067  10.329   5.168   7.962 -1.2467  0.3841  0.0309
  740MOL0     H 2068  10.236   5.106   8.100 -0.1243  0.1713  0.0655
  740MOL0     H 2069  10.422   4.956   8.269  0.3700 -2.7448 -0.1226
  740MOL0     H 2070  10.652   4.966   8.389 -2.4224  1.6265 -0.6648
  740MOL0     H 2071  10.788   5.035   8.293  1.0290 -1.1046 -0.5058
  740MOL0     H 2072  10.804   4.790   8.392 -0.1368  0.0017 -0.3046
  740MOL0     H 2073  10.695   4.743   8.260  1.6661 -2.2559 -1.0751
  740MOL0     H 2074  10.870   4.853   8.101  2.2619 -1.2091 -0.3545
  740MOL0     H 2075  10.981   4.855   8.221  0.3062  0.1058 -1.3947
  740MOL0     H 2076  10.974   4.613   8.256 -1.6203  0.0086  0.8799
  740MOL0     H 2077  10.822   4.614   8.161 -1.3018  2.1993  3.0771
  740MOL0     H 2078  10.741   4.742   7.961 -0.9086 -4.8911  1.8604
  740MOL0     H 2079  10.557   4.768   7.762 -1.1496  2.4678 -0.1934
  740MOL0     H 2080  10.644   4.874   7.655 -1.0411  0.3093  0.2431
  740MOL0     H 2081  10.662   4.905   7.826  0.1328  0.2426 -0.2531
  740MOL0     H 2082  10.764   4.860   7.288  0.3720  1.8068 -2.0724
  740MOL0     H 2083  10.698   4.899   7.080 -0.2686 -0.1447 -2.4194
  740MOL0     H 2084  10.502   4.738   6.929 -3.0482  0.9689 -2.3356
  740MOL0     H 2085  10.575   4.876   6.840 -1.6446 -0.6572  0.4126
  740MOL0     H 2086  10.581   4.749   6.633 -0.6988 -0.8572 -0.5478
  740MOL0     H 2087  10.521   4.607   6.718 -1.7940 -0.4360 -0.8626
  740MOL0     H 2088  10.389   4.884   6.695 -2.1098  1.0092  2.1802
  740MOL0     H 2089  10.312   4.740   6.770 -0.3355 -3.8375 -2.4019
  740MOL0     H 2090  10.363   4.621   6.522 -0.1007 -0.7734  0.1393
  740MOL0     H 2091  10.359   4.787   6.481  3.3996  0.8998  1.6481
  740MOL0     H 2092  10.142   4.632   6.657 -2.2216  1.7889  0.2368
  740MOL0     H 2093  10.125   4.793   6.607 -0.4680 -0.4433  1.9514
  740MOL0     H 2094  10.152   4.554   6.436 -0.2199 -0.4650  1.8612
  740MOL0     H 2095  10.159   4.717   6.367 -0.9028 -1.2238 -2.2710
  740MOL0     H 2096   9.932   4.765   6.447  0.4780 -0.3404  1.3289
  740MOL0     H 2097   9.930   4.599   6.521  2.6775  0.2450  1.5530
  740MOL0     H 2098   9.979   4.647   6.214 -1.5812 -1.4360 -1.0533
  740MOL0     H 2099   9.823   4.625   6.277  1.0547  1.2743 -2.7842
  740MOL0     H 2100  10.777   4.494   6.955 -2.3175  1.6448 -0.6325
  740MOL0     H 2101  10.837   4.441   7.198  1.4029  0.6669 -0.4354
  740MOL0     H 2102  11.014   4.567   7.599 -1.0820  0.6568 -2.4277
  740MOL0     H 2103  11.112   4.574   7.824  0.3403  1.2435  1.9557
  740MOL0     H 2104   9.599   5.290   7.404  0.2686  0.5486 -2.1223
  740MOL0     H 2105   9.375   5.217   7.400 -2.1943 -1.8675 -1.7153
  740MOL0     H 2106   9.139   5.030   7.165  0.0038  1.5394 -0.3722
  740MOL0     H 2107   8.913   5.003   7.046 -0.8175 -1.7665 -0.1197
  740MOL0     H 2108   8.491   4.965   7.136 -0.6302  0.3839  1.4436
  740MOL0     H 2109   8.571   4.911   7.278  0.7570 -1.0837 -1.0183
  740MOL0     H 2110   8.525   5.213   7.211  1.2227 -0.1013 -0.4069
  740MOL0     H 2111   8.584   5.149   7.360 -0.5943  1.8086 -0.7942
  740MOL0     H 2112   8.336   5.221   7.367 -0.5640 -0.2086  1.1884
  740MOL0     H 2113   8.308   5.098   7.246 -1.5238  2.8944 -0.3758
  740MOL0     H 2114   8.323   4.922   7.394  0.9754 -1.0846  1.6191
  740MOL0     H 2115   8.219   5.050   7.464  1.6039  0.5406  1.9497
  740MOL0     H 2116   8.575   5.084   7.703  1.3027 -0.6420 -0.3123
  740MOL0     H 2117   8.724   5.006   7.422  0.5066  0.8590  1.7425
  740MOL0     H 2118   8.907   4.908   7.605  4.7588 -1.9434 -3.3227
  740MOL0     H 2119   9.003   5.050   7.650 -0.9544 -0.8952  0.8081
  740MOL0     H 2120   8.827   5.063   7.620 -0.9790 -0.2875 -2.4424
  741MOL0     O 2121  10.061   6.436   8.991 -0.1935  0.0157 -0.2058
  741MOL0     C 2122  10.063   6.555   8.964  0.4665  0.5838  0.0926
  741MOL0     O 2123  10.171   6.628   8.969 -0.4738  0.0521  0.1251
  741MOL0     C 2124  10.282   6.576   9.021  0.8674 -0.0454 -0.2642
  741MOL0     C 2125  10.353   6.651   9.113  0.2110 -0.5284 -0.5093
  741MOL0     C 2126  10.482   6.609   9.163  0.0555  0.4707 -0.1245
  741MOL0     C 2127  10.521   6.479   9.144 -0.2211 -0.0590  0.1562
  741MOL0     O 2128  10.633   6.422   9.191 -0.1594 -0.4388 -0.3014
  741MOL0     C 2129  10.698   6.488   9.301 -0.5449  0.0229 -0.0328
  741MOL0     C 2130  10.813   6.394   9.350 -0.1244 -0.1093 -0.8449
  741MOL0     C 2131  10.931   6.351   9.256  0.1049  0.4776  0.5085
  741MOL0     C 2132  11.002   6.473   9.193  0.2063 -0.6714  0.2179
  741MOL0     C 2133  11.110   6.424   9.093 -0.1866 -0.2313 -0.4447
  741MOL0     C 2134  11.209   6.527   9.041 -0.6751 -0.2689  0.7711
  741MOL0     C 2135  11.319   6.468   8.958  0.5259  0.4459 -0.0726
  741MOL0     C 2136  11.410   6.374   9.029  0.0416  0.8415  0.1299
  741MOL0     N 2137  11.538   6.335   8.957  0.2911  0.0945 -0.1272
  741MOL0     C 2138  11.621   6.414   8.888  0.0114 -0.7610 -0.0182
  741MOL0     C 2139  11.719   6.325   8.846  0.1285 -1.5548 -0.8530
  741MOL0     C 2140  11.839   6.360   8.772  0.5907 -0.1503 -0.9607
  741MOL0     C 2141  11.958   6.409   8.859 -1.0849  0.6112  0.1358
  741MOL0     C 2142  12.037   6.285   8.928  0.1021 -0.5800 -0.4387
  741MOL0     C 2143  12.174   6.345   8.960  0.0076 -0.3015  0.9478
  741MOL0     O 2144  12.160   6.427   9.069  0.5096  0.3707 -0.3677
  741MOL0     C 2145  12.268   6.494   9.108 -0.3629  0.3181 -0.4768
  741MOL0     C 2146  12.260   6.550   9.238 -0.5731 -1.3021  0.4665
  741MOL0     C 2147  12.368   6.623   9.294  0.1897 -0.4371  0.2059
  741MOL0     C 2148  12.349   6.653   9.448  0.0743 -0.1614  0.0600
  741MOL0     C 2149  12.482   6.635   9.214 -0.5902  0.7371 -0.3259
  741MOL0     C 2150  12.605   6.703   9.262 -0.9635 -0.7092  0.2443
  741MOL0     O 2151  12.722   6.677   9.194  0.4037 -0.5861 -0.0625
  741MOL0     C 2152  12.847   6.703   9.252  0.4070 -0.8790 -0.0585
  741MOL0     C 2153  12.948   6.763   9.171 -0.2937  0.5733  0.0797
  741MOL0     C 2154  13.073   6.799   9.229 -0.7247  0.2870  0.3423
  741MOL0     C 2155  13.100   6.771   9.361 -0.4338  0.4436  0.0979
  741MOL0     O 2156  13.225   6.809   9.396 -0.0485  0.0731 -0.3305
  741MOL0     C 2157  13.256   6.774   9.533 -0.2323 -0.2433  0.3459
  741MOL0     C 2158  13.396   6.828   9.570  0.5164  1.2734 -0.1210
  741MOL0     C 2159  13.410   6.984   9.574  0.1426 -0.2671  0.0128
  741MOL0     C 2160  13.533   7.028   9.654 -0.1923 -0.3888  0.6674
  741MOL0     C 2161  13.545   7.181   9.684  0.2360  0.4846  0.7643
  741MOL0     C 2162  13.684   7.201   9.752 -0.1543 -0.0781  0.4083
  741MOL0     C 2163  13.716   7.347   9.763  1.2633 -1.2814  0.6578
  741MOL0     C 2164  13.642   7.416   9.877  0.2094 -0.4161  0.6011
  741MOL0    Cl 2165  13.729   7.389  10.034 -0.7247 -0.2586  0.3580
  741MOL0     C 2166  12.989   6.728   9.444  0.0260  0.2522  0.4715
  741MOL0     C 2167  12.873   6.685   9.392  0.7929  0.4176  1.0369
  741MOL0     O 2168  12.592   6.779   9.357 -0.5290 -0.1683 -0.3212
  741MOL0     C 2169  12.489   6.585   9.085 -0.0871 -0.1504  0.0259
  741MOL0     C 2170  12.384   6.509   9.032  0.0956  0.4549 -0.1199
  741MOL0     N 2171  11.692   6.199   8.892 -0.4207 -0.1316 -0.2197
  741MOL0     N 2172  11.589   6.208   8.970  0.0211  0.5446  0.4996
  741MOL0     C 2173  10.456   6.406   9.049 -0.5202 -0.2491 -0.3296
  741MOL0     C 2174  10.341   6.453   8.988  0.5457 -0.9705  0.3444
  741MOL0     C 2175   9.933   6.622   8.907 -0.3027  0.0386  0.2436
  741MOL0     C 2176   9.839   6.531   8.865  0.3663  0.0177 -0.3828
  741MOL0     C 2177   9.724   6.580   8.811  0.5599 -0.7226 -0.6975
  741MOL0     C 2178   9.697   6.720   8.798  0.3772 -0.8827 -0.0538
  741MOL0     O 2179   9.588   6.775   8.737  1.1918 -0.4447  0.6966
  741MOL0     C 2180   9.457   6.699   8.746  0.3334  0.5561 -0.9272
  741MOL0     C 2181   9.337   6.798   8.732  0.4659 -0.6574  0.4918
  741MOL0     C 2182   9.353   6.877   8.602 -0.5051  0.3140  0.0761
  741MOL0     C 2183   9.368   6.791   8.475  0.0882  0.5530  1.1388
  741MOL0     C 2184   9.461   6.867   8.391 -0.0961 -0.5131  0.4375
  741MOL0     C 2185   9.549   6.932   8.339 -0.8807 -0.1540  0.4443
  741MOL0     C 2186   9.801   6.813   8.825  0.2357 -0.3480 -0.7107
  741MOL0     C 2187   9.923   6.765   8.885 -0.2549  0.0705  1.1846
  741MOL0     C 2188  10.033   6.866   8.916  0.1423  0.2388 -0.6974
  741MOL0     H 2189  10.308   6.750   9.109  0.7882 -0.2283  0.3138
  741MOL0     H 2190  10.533   6.673   9.234 -2.4071 -0.3845  2.6246
  741MOL0     H 2191  10.625   6.509   9.379 -1.5533 -3.0447 -0.0039
  741MOL0     H 2192  10.736   6.587   9.274 -0.2059  0.3973  1.7300
  741MOL0     H 2193  10.867   6.449   9.428 -2.1106 -1.3206  1.5116
  741MOL0     H 2194  10.775   6.303   9.399 -1.2687 -1.0932 -3.4028
  741MOL0     H 2195  11.004   6.295   9.314 -2.2064 -1.4298  1.7617
  741MOL0     H 2196  10.900   6.288   9.172  1.8343  0.2387  0.0051
  741MOL0     H 2197  10.935   6.539   9.138  1.1654 -1.1255 -1.5777
  741MOL0     H 2198  11.049   6.530   9.273 -4.2186 -0.1687  2.7885
  741MOL0     H 2199  11.074   6.357   9.015 -0.7757  0.2151 -0.5570
  741MOL0     H 2200  11.173   6.356   9.151  0.3188 -1.8131 -2.7365
  741MOL0     H 2201  11.144   6.599   8.990 -0.5319 -0.0833  0.8465
  741MOL0     H 2202  11.261   6.581   9.120 -0.2314  0.1948  0.1701
  741MOL0     H 2203  11.380   6.552   8.921  1.2789 -1.2191 -2.9383
  741MOL0     H 2204  11.280   6.414   8.872  3.9448 -1.7348 -0.4415
  741MOL0     H 2205  11.445   6.427   9.117 -1.8100  0.6313  1.0442
  741MOL0     H 2206  11.361   6.279   9.052 -0.1584  1.0709  0.6525
  741MOL0     H 2207  11.619   6.521   8.870 -2.4373 -0.7477 -0.0558
  741MOL0     H 2208  11.819   6.442   8.703  0.8513 -0.9262 -1.9732
  741MOL0     H 2209  11.874   6.264   8.732  0.3919 -0.6428  0.0144
  741MOL0     H 2210  12.020   6.462   8.786 -1.9190  0.2495 -0.8682
  741MOL0     H 2211  11.919   6.479   8.933 -0.4640  1.4309 -0.2998
  741MOL0     H 2212  11.989   6.261   9.023  1.0890 -0.0888  0.1974
  741MOL0     H 2213  12.046   6.204   8.855  0.2218 -0.2396 -0.8052
  741MOL0     H 2214  12.232   6.262   9.002 -1.5461 -2.3360 -0.7539
  741MOL0     H 2215  12.220   6.385   8.869  0.6677 -1.5688  0.6995
  741MOL0     H 2216  12.170   6.542   9.298  1.0452  1.3918  3.5651
  741MOL0     H 2217  12.244   6.643   9.479  0.5934 -0.8230  1.7640
  741MOL0     H 2218  12.388   6.752   9.471 -0.0672  0.5038 -2.3807
  741MOL0     H 2219  12.412   6.580   9.502 -2.2963 -1.2774  1.4991
  741MOL0     H 2220  12.923   6.782   9.067  0.3548  0.7984 -0.0448
  741MOL0     H 2221  13.158   6.849   9.185  0.2068  1.0431  2.8254
  741MOL0     H 2222  13.185   6.819   9.603 -0.2755 -0.4056  0.4055
  741MOL0     H 2223  13.250   6.665   9.538 -0.1757 -0.3735 -1.7057
  741MOL0     H 2224  13.423   6.791   9.670 -2.5428  0.0298  0.3638
  741MOL0     H 2225  13.468   6.795   9.495  0.7573 -1.2742  1.1287
  741MOL0     H 2226  13.324   7.039   9.614 -0.4068  1.2910 -3.0044
  741MOL0     H 2227  13.417   7.025   9.472  0.2985 -1.2298 -0.3771
  741MOL0     H 2228  13.622   6.993   9.602 -0.6433 -1.7596  0.7866
  741MOL0     H 2229  13.522   6.972   9.747 -3.3208 -2.1553 -0.5850
  741MOL0     H 2230  13.553   7.237   9.590  2.3820  0.2255  0.7395
  741MOL0     H 2231  13.457   7.216   9.739  1.1151 -0.9745  3.2854
  741MOL0     H 2232  13.757   7.155   9.685 -0.1396  0.9342 -0.3032
  741MOL0     H 2233  13.689   7.161   9.854  0.2227  1.3885  1.0037
  741MOL0     H 2234  13.691   7.390   9.665  0.0192 -0.9188  1.1176
  741MOL0     H 2235  13.823   7.370   9.769  0.9129  0.6479 -0.0101
  741MOL0     H 2236  13.536   7.389   9.882  0.1814 -1.0859 -2.0022
  741MOL0     H 2237  13.625   7.523   9.859  0.3560  0.0873  3.0955
  741MOL0     H 2238  12.998   6.714   9.551 -4.0203  1.1293  1.1044
  741MOL0     H 2239  12.799   6.645   9.461 -0.1476  1.2462  0.5299
  741MOL0     H 2240  12.569   6.617   9.019  1.3640 -0.5453  1.5154
  741MOL0     H 2241  12.387   6.480   8.927 -0.0707  0.2422 -0.0660
  741MOL0     H 2242  10.495   6.307   9.032  0.4394 -0.3441  2.0173
  741MOL0     H 2243  10.302   6.391   8.908  0.1622  2.0845 -2.0556
  741MOL0     H 2244   9.849   6.424   8.875  1.5326 -0.0185 -1.7324
  741MOL0     H 2245   9.650   6.506   8.780 -3.7848  2.3958  1.1749
  741MOL0     H 2246   9.451   6.612   8.679  1.1914 -0.0765 -0.2059
  741MOL0     H 2247   9.457   6.666   8.850  2.7205  0.8632 -0.7842
  741MOL0     H 2248   9.337   6.871   8.814  1.1133 -0.8118  0.6358
  741MOL0     H 2249   9.241   6.746   8.728 -0.6128  1.2038  0.8065
  741MOL0     H 2250   9.276   6.952   8.583 -1.2105  0.1535  2.0558
  741MOL0     H 2251   9.452   6.924   8.613  0.2108 -0.7050 -1.5885
  741MOL0     H 2252   9.280   6.763   8.416  1.2711  0.6467 -0.7497
  741MOL0     H 2253   9.418   6.697   8.501 -1.6233 -1.0017 -0.8002
  741MOL0     H 2254   9.622   6.998   8.297 -0.4861 -0.8400  0.0363
  741MOL0     H 2255   9.786   6.920   8.812  0.5246 -0.0140  1.3668
  741MOL0     H 2256  10.000   6.964   8.881  2.0659  1.2474  0.1509
  741MOL0     H 2257  10.058   6.871   9.022  0.4505  1.9877 -0.8139
  741MOL0     H 2258  10.125   6.846   8.859 -0.8195  0.7384 -2.5227
  742MOL0     O 2259   1.877   9.545   7.436 -0.5084  0.2604 -0.2049
  742MOL0     C 2260   1.824   9.521   7.542  0.3927 -0.0802 -0.3451
  742MOL0     O 2261   1.890   9.485   7.658 -0.4057 -0.1492  0.3772
  742MOL0     C 2262   2.025   9.453   7.649  0.0594  0.4229  0.1738
  742MOL0     C 2263   2.098   9.463   7.771  0.6254 -0.3239 -0.7585
  742MOL0     C 2264   2.227   9.430   7.782 -0.2675  0.0064  0.0408
  742MOL0     C 2265   2.293   9.361   7.682 -0.4347 -0.3463  0.8396
  742MOL0     O 2266   2.422   9.311   7.683 -1.0781 -0.2801 -0.1865
  742MOL0     C 2267   2.490   9.292   7.799  0.2337 -0.3481 -0.2072
  742MOL0     C 2268   2.624   9.226   7.780  0.5190 -0.2254  0.1854
  742MOL0     C 2269   2.738   9.333   7.777  0.1015  0.1405 -0.1931
  742MOL0     C 2270   2.829   9.333   7.905 -0.3630 -0.0541  0.1106
  742MOL0     C 2271   2.940   9.435   7.906 -0.2416 -0.2315  0.5167
  742MOL0     C 2272   3.009   9.412   8.040  0.5632  0.2653 -0.3222
  742MOL0     C 2273   3.148   9.486   8.062  0.4678  0.0366 -0.5254
  742MOL0     C 2274   3.177   9.510   8.209  0.8785  0.9338 -0.2194
  742MOL0     N 2275   3.316   9.541   8.240 -0.1495 -0.2218  0.5274
  742MOL0     C 2276   3.358   9.666   8.283  0.1017 -0.2929  0.3585
  742MOL0     C 2277   3.483   9.650   8.318  0.1239  0.3220  0.1551
  742MOL0     C 2278   3.577   9.742   8.389 -0.0029 -0.1268 -0.9771
  742MOL0     C 2279   3.558   9.749   8.543  0.5065  1.3478  0.0016
  742MOL0     C 2280   3.421   9.821   8.574 -0.4264  0.0033 -0.1301
  742MOL0     C 2281   3.396   9.834   8.732 -0.3153  0.0299  0.3625
  742MOL0     O 2282   3.260   9.897   8.755 -0.2281  1.0839  0.0104
  742MOL0     C 2283   3.235  10.028   8.738  0.6945 -0.4680  0.8889
  742MOL0     C 2284   3.109  10.062   8.683 -1.3659  0.0654 -0.0373
  742MOL0     C 2285   3.064  10.193   8.653 -0.2928  0.0006  0.5698
  742MOL0     C 2286   2.936  10.212   8.570 -0.0131 -0.4173 -0.1588
  742MOL0     C 2287   3.151  10.300   8.681 -0.3511 -0.3734 -0.8141
  742MOL0     C 2288   3.127  10.445   8.655 -0.4115 -0.6538 -0.0520
  742MOL0     O 2289   3.238  10.530   8.647 -0.0399  0.7619  0.3166
  742MOL0     C 2290   3.213  10.660   8.660  0.2339  0.4512  0.2707
  742MOL0     C 2291   3.172  10.704   8.791 -0.1947 -0.6579 -0.8885
  742MOL0     C 2292   3.153  10.834   8.821 -0.9182 -0.3269  0.6545
  742MOL0     C 2293   3.176  10.929   8.721  1.3560  0.8793 -0.1964
  742MOL0     O 2294   3.158  11.054   8.763 -0.0354 -0.0808 -0.3843
  742MOL0     C 2295   3.223  11.154   8.689  0.4612  0.5901 -0.3920
  742MOL0     C 2296   3.159  11.285   8.721 -0.0030 -0.3692  0.7723
  742MOL0     C 2297   3.188  11.347   8.861 -0.3432 -0.4480  0.3036
  742MOL0     C 2298   3.299  11.444   8.853 -1.1292 -0.5144 -0.3614
  742MOL0     C 2299   3.312  11.531   8.979 -0.4863  0.1092 -0.4436
  742MOL0     C 2300   3.343  11.451   9.109 -0.0342 -0.1589  0.1580
  742MOL0     C 2301   3.363  11.552   9.225 -0.0033 -0.5506 -0.6552
  742MOL0     C 2302   3.448  11.496   9.343  0.0653  0.3227  0.0598
  742MOL0    Cl 2303   3.444  11.611   9.481  0.2335  0.1405  0.3504
  742MOL0     C 2304   3.220  10.887   8.597 -0.3168  0.2871  0.5921
  742MOL0     C 2305   3.251  10.755   8.569 -0.8283  0.2918 -0.0960
  742MOL0     O 2306   3.012  10.485   8.645  0.6002 -0.6993  0.7346
  742MOL0     C 2307   3.274  10.268   8.751  0.1568  0.7028  0.4126
  742MOL0     C 2308   3.317  10.136   8.771  0.5300  0.4327  0.1317
  742MOL0     N 2309   3.509   9.513   8.311  0.2403 -0.3679  0.3559
  742MOL0     N 2310   3.415   9.452   8.259 -0.1452  0.2837 -0.2570
  742MOL0     C 2311   2.229   9.349   7.549 -0.2259 -0.8100  0.3032
  742MOL0     C 2312   2.088   9.384   7.540 -0.6012  0.5577 -0.0621
  742MOL0     C 2313   1.678   9.528   7.575  0.6202  0.9750 -0.1615
  742MOL0     C 2314   1.631   9.444   7.677  0.0020  0.8850 -0.0484
  742MOL0     C 2315   1.492   9.430   7.696  0.3224 -0.4049  1.2921
  742MOL0     C 2316   1.408   9.488   7.611  0.5177  0.6327  0.2237
  742MOL0     O 2317   1.269   9.480   7.632 -0.0335  0.6512  0.9581
  742MOL0     C 2318   1.219   9.353   7.572  0.6894  0.5317 -0.3161
  742MOL0     C 2319   1.066   9.352   7.594  0.2306  0.6128 -0.5955
  742MOL0     C 2320   0.994   9.471   7.544  0.4150 -0.7621 -0.4892
  742MOL0     C 2321   1.017   9.503   7.393 -0.0687  0.3306  0.0080
  742MOL0     C 2322   0.968   9.387   7.322  0.2672 -0.5641  0.3012
  742MOL0     C 2323   0.935   9.280   7.274  0.5826  0.1404 -0.4209
  742MOL0     C 2324   1.448   9.573   7.506  0.6196  0.5691 -0.1310
  742MOL0     C 2325   1.582   9.599   7.491  0.0277  0.9531 -0.3800
  742MOL0     C 2326   1.634   9.681   7.374 -0.0719  0.2661 -0.1915
  742MOL0     H 2327   2.051   9.514   7.855 -0.8763 -1.5225 -0.8163
  742MOL0     H 2328   2.282   9.449   7.874  0.2291  0.8471 -0.4138
  742MOL0     H 2329   2.430   9.216   7.852  1.3298 -0.5199  0.8227
  742MOL0     H 2330   2.503   9.378   7.865  3.8104 -1.4059  0.7007
  742MOL0     H 2331   2.641   9.152   7.859  1.5410 -0.7330 -0.4951
  742MOL0     H 2332   2.620   9.172   7.685  0.8365  0.7689 -0.4078
  742MOL0     H 2333   2.805   9.325   7.691  1.3145 -0.7542  0.7851
  742MOL0     H 2334   2.692   9.430   7.757  0.5039 -0.0570 -2.3030
  742MOL0     H 2335   2.761   9.352   7.989 -0.5255 -2.8440  0.6985
  742MOL0     H 2336   2.869   9.232   7.916 -2.5005 -0.8301  1.4774
  742MOL0     H 2337   2.899   9.536   7.896 -4.3116 -1.8697 -2.0225
  742MOL0     H 2338   3.016   9.413   7.831  0.7575  0.7412  1.2250
  742MOL0     H 2339   2.936   9.437   8.118  1.2876 -1.3730  0.9341
  742MOL0     H 2340   3.022   9.304   8.045 -2.4817 -0.3050 -2.2574
  742MOL0     H 2341   3.157   9.575   7.999  1.8605  0.9234  0.8526
  742MOL0     H 2342   3.228   9.421   8.024 -0.1037  0.1933 -2.0600
  742MOL0     H 2343   3.108   9.591   8.235 -2.0123 -0.6353 -2.3332
  742MOL0     H 2344   3.138   9.423   8.263  1.9959 -1.7594 -3.3615
  742MOL0     H 2345   3.296   9.754   8.292  1.1923  0.9074 -2.7441
  742MOL0     H 2346   3.580   9.843   8.348  0.8355  1.5147  2.6697
  742MOL0     H 2347   3.676   9.696   8.381  2.1053  3.8234 -0.3344
  742MOL0     H 2348   3.552   9.646   8.580  0.5967  1.2319 -0.2997
  742MOL0     H 2349   3.637   9.801   8.597  1.7169 -0.1477 -0.2655
  742MOL0     H 2350   3.422   9.921   8.530 -1.7366 -0.2868 -0.8862
  742MOL0     H 2351   3.333   9.765   8.540  0.6231 -1.6486 -0.2222
  742MOL0     H 2352   3.387   9.730   8.763 -0.8079  0.0579  0.3244
  742MOL0     H 2353   3.475   9.882   8.790  2.0183 -0.7077 -2.0279
  742MOL0     H 2354   3.048   9.978   8.652  0.5214 -0.6085 -2.2231
  742MOL0     H 2355   2.874  10.287   8.618  2.9425  1.8191  0.4757
  742MOL0     H 2356   2.878  10.119   8.564 -0.1353 -0.2649 -2.2035
  742MOL0     H 2357   2.959  10.251   8.470 -0.7131  0.1627 -0.0981
  742MOL0     H 2358   3.147  10.638   8.874 -3.0389 -1.0714 -1.9636
  742MOL0     H 2359   3.123  10.880   8.914 -2.3805  0.2810 -0.0834
  742MOL0     H 2360   3.327  11.167   8.721 -0.2795  0.5193  2.3153
  742MOL0     H 2361   3.208  11.148   8.581 -0.7372  0.5674 -0.2461
  742MOL0     H 2362   3.192  11.358   8.646  1.8986 -1.3134  0.6338
  742MOL0     H 2363   3.052  11.267   8.717  0.2061 -1.5578 -0.1726
  742MOL0     H 2364   3.215  11.271   8.935  0.1370  0.9718  1.6541
  742MOL0     H 2365   3.094  11.390   8.897 -0.2059 -0.0237  0.1692
  742MOL0     H 2366   3.285  11.515   8.771 -1.4861 -0.2996 -0.1116
  742MOL0     H 2367   3.392  11.388   8.839 -0.9688 -0.4598  0.4111
  742MOL0     H 2368   3.392  11.601   8.958 -0.2752  0.4251  1.2469
  742MOL0     H 2369   3.228  11.595   9.010 -1.3739 -1.8031  1.4473
  742MOL0     H 2370   3.437  11.396   9.099 -0.3141 -0.3345 -1.8723
  742MOL0     H 2371   3.256  11.387   9.124 -0.1048 -0.3593 -0.9822
  742MOL0     H 2372   3.261  11.564   9.263 -0.2378 -1.6392 -0.9013
  742MOL0     H 2373   3.399  11.645   9.181 -3.2500  0.5537 -1.3016
  742MOL0     H 2374   3.554  11.490   9.313  0.9890  0.1954  3.0566
  742MOL0     H 2375   3.420  11.396   9.376  2.8953 -2.1847 -4.1723
  742MOL0     H 2376   3.269  10.957   8.529  0.2098  0.9829  1.6504
  742MOL0     H 2377   3.294  10.729   8.473 -1.4703  2.1636 -0.9458
  742MOL0     H 2378   3.347  10.344   8.778  0.2788  0.4560  0.7714
  742MOL0     H 2379   3.413  10.121   8.818  1.1364 -2.3157 -1.7218
  742MOL0     H 2380   2.283   9.306   7.465  2.9489  1.8459  0.7836
  742MOL0     H 2381   2.033   9.367   7.448 -1.9077  0.4791  0.6930
  742MOL0     H 2382   1.692   9.386   7.745 -2.5132 -2.5280 -0.4005
  742MOL0     H 2383   1.451   9.386   7.786  0.7231 -0.2677  1.5464
  742MOL0     H 2384   1.241   9.346   7.465 -3.1041  0.2832 -1.2469
  742MOL0     H 2385   1.263   9.263   7.617  0.2629 -1.2790 -3.2863
  742MOL0     H 2386   1.053   9.337   7.702 -0.9023  0.3588 -0.7585
  742MOL0     H 2387   1.025   9.256   7.561  0.1137  0.2091  0.6646
  742MOL0     H 2388   0.891   9.448   7.571  0.8817 -2.7550 -0.2822
  742MOL0     H 2389   1.035   9.558   7.596  3.2460 -0.5304 -2.7969
  742MOL0     H 2390   1.121   9.523   7.364  0.0298 -1.0800 -0.6809
  742MOL0     H 2391   0.949   9.585   7.372  0.1551  1.1836  2.3277
  742MOL0     H 2392   0.907   9.193   7.220 -0.7829  1.0504 -1.2405
  742MOL0     H 2393   1.363   9.608   7.448 -0.2929 -1.0121  0.1949
  742MOL0     H 2394   1.549   9.742   7.344  1.7100  2.3859 -1.1857
  742MOL0     H 2395   1.707   9.758   7.400  0.0455  0.5963 -1.4170
  742MOL0     H 2396   1.671   9.619   7.291 -0.4472 -2.3393  1.4900
  743MOL0     O 2397   0.753   3.729   4.370  0.3516 -0.3679 -0.2474
  743MOL0     C 2398   0.767   3.697   4.491  0.0764 -0.1480 -0.1184
  743MOL0     O 2399   0.880   3.641   4.540 -0.0268 -0.1396  0.1164
  743MOL0     C 2400   0.993   3.650   4.460  0.2927  0.5793  0.1566
  743MOL0     C 2401   1.013   3.552   4.365  0.0366  0.1584  0.8878
  743MOL0     C 2402   1.137   3.555   4.296  0.1987 -0.2358  0.0571
  743MOL0     C 2403   1.239   3.654   4.316 -0.6240 -0.4390  0.6693
  743MOL0     O 2404   1.359   3.655   4.252  0.7393  0.2154 -0.7017
  743MOL0     C 2405   1.422   3.531   4.215  0.4329  0.2721  0.0512
  743MOL0     C 2406   1.403   3.499   4.060 -0.1297  0.1643 -1.0178
  743MOL0     C 2407   1.516   3.535   3.975 -0.1486  0.6284 -0.8385
  743MOL0     C 2408   1.570   3.679   4.000 -0.0942  0.7850 -0.0167
  743MOL0     C 2409   1.648   3.746   3.889 -0.8053 -0.1060  0.5178
  743MOL0     C 2410   1.770   3.672   3.838  0.8447  0.2606  0.0345
  743MOL0     C 2411   1.818   3.713   3.701 -0.2113 -0.9471  0.6328
  743MOL0     C 2412   1.836   3.868   3.679  0.2659 -0.5730  0.2083
  743MOL0     N 2413   1.950   3.928   3.758 -0.4754  0.5364  0.6082
  743MOL0     C 2414   2.078   3.951   3.710 -0.4316  0.4406 -0.6802
  743MOL0     C 2415   2.138   4.031   3.803 -0.2950  0.0344  0.3791
  743MOL0     C 2416   2.280   4.077   3.808  0.4712  0.1811  0.2217
  743MOL0     C 2417   2.355   4.022   3.930  0.1552 -0.4874  0.3520
  743MOL0     C 2418   2.488   4.102   3.953  0.2742 -0.6365 -0.1568
  743MOL0     C 2419   2.553   4.034   4.064  0.0630  0.7998 -0.7814
  743MOL0     O 2420   2.668   4.121   4.095  0.5404  0.0618  0.2161
  743MOL0     C 2421   2.778   4.119   4.018  0.2426 -0.8835  0.4603
  743MOL0     C 2422   2.874   4.210   4.060  0.4471 -0.3011  0.4542
  743MOL0     C 2423   2.992   4.216   3.989  0.3193 -0.7122  0.0217
  743MOL0     C 2424   3.094   4.323   4.027 -0.4485  0.6638  0.3616
  743MOL0     C 2425   3.013   4.131   3.879  0.9151 -0.5490 -0.2144
  743MOL0     C 2426   3.121   4.153   3.778 -0.3260  1.2384 -1.3234
  743MOL0     O 2427   3.242   4.142   3.822 -0.2876 -0.4705 -1.0737
  743MOL0     C 2428   3.343   4.175   3.739  0.2186  0.5047 -0.3696
  743MOL0     C 2429   3.398   4.083   3.641 -0.0615 -0.5696 -0.1028
  743MOL0     C 2430   3.518   4.117   3.568 -0.3860  0.3702 -0.0911
  743MOL0     C 2431   3.587   4.240   3.591  0.3892  0.6211  0.0957
  743MOL0     O 2432   3.709   4.252   3.522 -0.0485  0.3553  0.0609
  743MOL0     C 2433   3.803   4.355   3.554  0.0009  0.2800  0.2295
  743MOL0     C 2434   3.936   4.319   3.494 -0.6504  0.2488  0.6414
  743MOL0     C 2435   4.024   4.436   3.449 -0.2134 -0.7568  0.1736
  743MOL0     C 2436   3.966   4.542   3.351  0.5411  0.1706  0.2809
  743MOL0     C 2437   4.080   4.618   3.286 -0.9848  0.4930  0.5750
  743MOL0     C 2438   4.038   4.732   3.199  0.4157  0.3865 -0.4225
  743MOL0     C 2439   4.142   4.763   3.099  0.3163  0.1685 -1.0682
  743MOL0     C 2440   4.084   4.882   3.017  0.5122  1.4088  0.4192
  743MOL0    Cl 2441   4.197   4.918   2.879  0.2363  0.4284 -0.0835
  743MOL0     C 2442   3.525   4.329   3.678 -0.6319  1.1366  0.1390
  743MOL0     C 2443   3.404   4.301   3.745  0.0764 -0.8665 -0.3345
  743MOL0     O 2444   3.091   4.166   3.657 -0.5779 -0.6829 -0.7839
  743MOL0     C 2445   2.930   4.026   3.848  0.3671 -0.2896 -0.1276
  743MOL0     C 2446   2.809   4.017   3.920 -0.6000 -0.6776 -0.5753
  743MOL0     N 2447   2.045   4.051   3.901 -0.1240  0.6412 -0.5680
  743MOL0     N 2448   1.932   4.000   3.870 -0.9308 -0.0502 -0.2605
  743MOL0     C 2449   1.204   3.759   4.402  0.4251  1.3745  0.5274
  743MOL0     C 2450   1.087   3.751   4.477  0.9388  0.0293  0.1840
  743MOL0     C 2451   0.643   3.720   4.579 -0.2421 -0.1632  0.2737
  743MOL0     C 2452   0.534   3.798   4.527 -0.2935  0.1328 -0.0380
  743MOL0     C 2453   0.428   3.826   4.611  0.3639  0.3966 -0.7431
  743MOL0     C 2454   0.425   3.781   4.745 -0.2418  0.3260 -0.6246
  743MOL0     O 2455   0.312   3.806   4.817 -0.0745 -0.1519 -0.8189
  743MOL0     C 2456   0.271   3.715   4.921 -0.0135 -0.1045 -1.5891
  743MOL0     C 2457   0.127   3.733   4.975 -0.1811  0.7615  0.6516
  743MOL0     C 2458   0.098   3.877   5.026  0.3018  0.3156 -0.0900
  743MOL0     C 2459   0.018   3.962   4.929 -1.1293 -0.0121  1.3457
  743MOL0     C 2460   0.006   4.105   4.965 -0.8328 -0.0126  1.5700
  743MOL0     C 2461   0.012   4.223   4.994 -0.0376 -0.1307  0.4154
  743MOL0     C 2462   0.526   3.693   4.793 -1.1990 -0.9270  0.2351
  743MOL0     C 2463   0.631   3.660   4.710 -0.9177 -0.4018 -0.0014
  743MOL0     C 2464   0.732   3.559   4.760  0.4353 -0.1671  0.4726
  743MOL0     H 2465   0.940   3.474   4.347  1.4531 -1.4099  1.6590
  743MOL0     H 2466   1.163   3.482   4.220  2.7951  2.6492 -2.0786
  743MOL0     H 2467   1.377   3.449   4.271  3.3944 -0.2373  1.8310
  743MOL0     H 2468   1.527   3.534   4.245 -0.3963  0.7433  3.2822
  743MOL0     H 2469   1.380   3.392   4.061 -0.5027  0.1480  2.4112
  743MOL0     H 2470   1.313   3.537   4.011 -0.9632  1.3840  1.2890
  743MOL0     H 2471   1.591   3.456   3.988 -0.4862  0.3996 -0.2410
  743MOL0     H 2472   1.478   3.533   3.872 -0.0588  0.5824 -0.8719
  743MOL0     H 2473   1.487   3.746   4.024 -0.6213  2.4413 -5.2662
  743MOL0     H 2474   1.639   3.678   4.085  0.6555 -0.0415 -0.6198
  743MOL0     H 2475   1.699   3.836   3.924  3.1231 -1.5795 -0.8599
  743MOL0     H 2476   1.585   3.775   3.804 -0.7782  2.3053  1.2263
  743MOL0     H 2477   1.838   3.678   3.923  1.1695  0.3941 -0.2325
  743MOL0     H 2478   1.739   3.568   3.829 -0.7527  0.6077  1.0642
  743MOL0     H 2479   1.747   3.683   3.623  0.2668 -1.1842  0.2912
  743MOL0     H 2480   1.914   3.668   3.677 -0.3031 -1.8159  1.7823
  743MOL0     H 2481   1.850   3.885   3.572  0.3059 -1.7847 -0.0005
  743MOL0     H 2482   1.742   3.917   3.708  0.6110  0.3473 -0.2328
  743MOL0     H 2483   2.118   3.898   3.624 -2.0987 -2.8985  0.4112
  743MOL0     H 2484   2.283   4.185   3.787 -2.2789 -0.1134 -2.3031
  743MOL0     H 2485   2.330   4.036   3.720  1.2782  5.4668 -2.1787
  743MOL0     H 2486   2.298   4.026   4.024  2.0310  1.6737  1.5218
  743MOL0     H 2487   2.374   3.915   3.920 -5.0000 -2.0646  3.4333
  743MOL0     H 2488   2.533   4.097   3.853 -0.9409  3.2781 -1.0704
  743MOL0     H 2489   2.453   4.204   3.966 -1.4217 -1.5084  3.1228
  743MOL0     H 2490   2.494   4.030   4.156 -0.9552  1.6748 -1.3770
  743MOL0     H 2491   2.578   3.931   4.037  1.6015  0.5172  1.4284
  743MOL0     H 2492   2.839   4.288   4.128  0.8620  2.5954 -2.4064
  743MOL0     H 2493   3.138   4.374   3.941 -0.5641 -1.0241 -0.7368
  743MOL0     H 2494   3.171   4.285   4.096 -0.0649  1.2407  0.2657
  743MOL0     H 2495   3.037   4.392   4.091 -0.0090  0.7142  0.7038
  743MOL0     H 2496   3.346   3.990   3.626  1.0080 -0.9546 -1.7402
  743MOL0     H 2497   3.564   4.050   3.496 -2.2783 -0.4973 -0.5558
  743MOL0     H 2498   3.769   4.454   3.522 -0.0405  0.8156  1.8466
  743MOL0     H 2499   3.812   4.351   3.663  1.8178 -0.9202  0.0909
  743MOL0     H 2500   3.990   4.254   3.564 -0.4325 -2.0592 -1.5055
  743MOL0     H 2501   3.902   4.262   3.407  2.3600  2.3063 -2.1238
  743MOL0     H 2502   4.117   4.401   3.404  1.3056  1.6696  1.2098
  743MOL0     H 2503   4.050   4.495   3.537  0.3740  0.0172 -0.5006
  743MOL0     H 2504   3.887   4.607   3.389 -0.7577 -0.2532 -1.5834
  743MOL0     H 2505   3.921   4.478   3.274 -1.6858 -1.3421  2.7027
  743MOL0     H 2506   4.150   4.660   3.359  1.6808 -2.8994  0.2031
  743MOL0     H 2507   4.135   4.544   3.227 -1.9833 -1.6936  2.1988
  743MOL0     H 2508   4.005   4.819   3.257  0.0668 -0.8684  1.3684
  743MOL0     H 2509   3.953   4.702   3.138 -0.3181  2.3373 -0.4530
  743MOL0     H 2510   4.162   4.674   3.038 -0.7917  0.1415 -1.4009
  743MOL0     H 2511   4.236   4.800   3.143  1.4332  1.0747 -3.9917
  743MOL0     H 2512   4.083   4.973   3.078 -3.8564  2.3616 -0.7690
  743MOL0     H 2513   3.981   4.855   2.992  0.1004 -2.1951  4.6559
  743MOL0     H 2514   3.570   4.427   3.693  1.3077  0.0262  2.3509
  743MOL0     H 2515   3.363   4.377   3.811  1.7536  1.2013 -1.5555
  743MOL0     H 2516   2.949   3.949   3.774  1.2600 -2.9541  2.6669
  743MOL0     H 2517   2.744   3.935   3.891  1.9585 -3.6201  1.3106
  743MOL0     H 2518   1.268   3.845   4.416  0.5211  1.2860  0.6396
  743MOL0     H 2519   1.064   3.829   4.549  0.6484 -0.9890  1.2342
  743MOL0     H 2520   0.535   3.834   4.425 -0.6906  1.7529  0.5022
  743MOL0     H 2521   0.346   3.883   4.568 -0.3808 -0.6914 -0.8036
  743MOL0     H 2522   0.291   3.614   4.885  4.5438  0.0852 -0.2296
  743MOL0     H 2523   0.339   3.729   5.006 -0.6174  0.7020 -1.2136
  743MOL0     H 2524   0.114   3.652   5.047 -3.2922 -0.6739 -1.2908
  743MOL0     H 2525   0.051   3.717   4.898 -0.2513  1.8025  0.4854
  743MOL0     H 2526   0.028   3.848   5.105  1.1471 -1.9807 -0.1116
  743MOL0     H 2527   0.186   3.923   5.071  0.5096  0.5446 -0.7161
  743MOL0     H 2528  -0.077   3.908   4.919 -0.3633 -1.0247 -1.8202
  743MOL0     H 2529   0.060   3.958   4.828 -0.7811 -1.1637  1.5144
  743MOL0     H 2530   0.017   4.325   5.027 -1.0667 -0.0789  0.4377
  743MOL0     H 2531   0.507   3.663   4.896 -1.8924  0.5558  0.5628
  743MOL0     H 2532   0.744   3.479   4.686  0.9782 -2.4919  2.8854
  743MOL0     H 2533   0.826   3.613   4.775  1.4145 -0.8071 -2.5592
  743MOL0     H 2534   0.708   3.499   4.849  1.5938 -2.6097 -0.7457
  744MOL0     O 2535   5.675   6.943   9.425  0.8936 -0.2080  0.4208
  744MOL0     C 2536   5.677   6.951   9.545 -0.8488  0.2412 -0.0109
  744MOL0     O 2537   5.683   7.069   9.613  0.1913  0.0790  0.0258
  744MOL0     C 2538   5.645   7.186   9.552  0.0512  0.9649 -0.1554
  744MOL0     C 2539   5.721   7.291   9.582 -0.7103  0.4767  0.4688
  744MOL0     C 2540   5.708   7.412   9.520 -0.4932  0.6426 -0.0098
  744MOL0     C 2541   5.610   7.441   9.425  1.3570  0.5565  0.8523
  744MOL0     O 2542   5.589   7.559   9.365  0.1578 -0.0220 -0.4324
  744MOL0     C 2543   5.673   7.665   9.417  0.6103  0.0111  0.6712
  744MOL0     C 2544   5.627   7.787   9.337 -0.4726 -0.1265  0.3514
  744MOL0     C 2545   5.714   7.899   9.387 -0.3437  0.2382 -0.3335
  744MOL0     C 2546   5.688   8.024   9.302 -0.3675 -0.2364 -1.1867
  744MOL0     C 2547   5.759   8.145   9.366 -0.8468 -0.3870  0.5744
  744MOL0     C 2548   5.755   8.264   9.277 -0.1012 -0.5813  0.1236
  744MOL0     C 2549   5.849   8.376   9.328 -1.0601  0.6845 -0.5138
  744MOL0     C 2550   5.841   8.482   9.227  1.1589  0.7674  0.2573
  744MOL0     N 2551   5.915   8.597   9.270 -0.5053 -0.6382  0.6437
  744MOL0     C 2552   6.047   8.608   9.302  0.8119  0.1433  0.5284
  744MOL0     C 2553   6.070   8.731   9.356 -0.1985  0.9493  0.2016
  744MOL0     C 2554   6.178   8.786   9.440 -0.2688  0.2703 -0.7814
  744MOL0     C 2555   6.314   8.773   9.370  0.5561 -0.3580 -0.2061
  744MOL0     C 2556   6.315   8.862   9.244 -0.1739  0.1682  0.6502
  744MOL0     C 2557   6.454   8.856   9.180 -0.4040  0.4222 -0.1456
  744MOL0     O 2558   6.549   8.944   9.243  0.0651 -0.0644 -0.1147
  744MOL0     C 2559   6.679   8.913   9.252  0.4693 -0.3027 -0.4963
  744MOL0     C 2560   6.771   9.009   9.294 -0.8110  0.5597 -0.4707
  744MOL0     C 2561   6.913   8.995   9.300  0.7857  1.0239 -0.1746
  744MOL0     C 2562   6.991   9.119   9.323  0.1599  0.1747  0.3306
  744MOL0     C 2563   6.964   8.865   9.276  0.4409 -0.4444  0.2410
  744MOL0     C 2564   7.102   8.831   9.288 -0.9872  1.1787 -1.0220
  744MOL0     O 2565   7.133   8.706   9.221  0.0838 -0.3347  0.1423
  744MOL0     C 2566   7.251   8.657   9.240  0.4285 -0.1426  0.3599
  744MOL0     C 2567   7.326   8.620   9.128 -0.2105 -0.2101  0.4360
  744MOL0     C 2568   7.446   8.552   9.151 -1.1650  0.2905 -0.0079
  744MOL0     C 2569   7.491   8.520   9.279 -0.2127  0.1927 -0.5213
  744MOL0     O 2570   7.602   8.447   9.315 -0.3828  0.0270  0.3604
  744MOL0     C 2571   7.686   8.380   9.214  0.2214  0.0101 -0.1315
  744MOL0     C 2572   7.819   8.345   9.270 -0.9374 -0.1971 -0.2879
  744MOL0     C 2573   7.890   8.468   9.336 -1.1270 -0.7530 -0.1047
  744MOL0     C 2574   7.878   8.464   9.489 -0.1840 -0.1208 -0.3110
  744MOL0     C 2575   7.912   8.605   9.547  0.2285  0.9978  0.3566
  744MOL0     C 2576   7.903   8.605   9.705  0.2837 -0.0153  0.1854
  744MOL0     C 2577   7.773   8.563   9.767 -0.0170  0.4740  0.4023
  744MOL0     C 2578   7.755   8.605   9.917  0.1382 -0.4689 -0.6792
  744MOL0    Cl 2579   7.898   8.533   9.991  0.0493 -0.3796 -0.2308
  744MOL0     C 2580   7.415   8.556   9.388 -0.0895 -0.3957  0.2062
  744MOL0     C 2581   7.295   8.624   9.371  0.4654  0.1147 -0.2224
  744MOL0     O 2582   7.185   8.906   9.347 -0.8651 -0.5193  0.6706
  744MOL0     C 2583   6.872   8.762   9.231  0.0212 -0.8221 -0.4966
  744MOL0     C 2584   6.731   8.784   9.228 -0.5985  0.2765 -0.3067
  744MOL0     N 2585   5.944   8.804   9.330 -0.8829 -0.0687 -0.0801
  744MOL0     N 2586   5.860   8.722   9.279 -0.6152 -0.1242  0.1490
  744MOL0     C 2587   5.532   7.329   9.392 -0.0979  0.2810  0.8875
  744MOL0     C 2588   5.543   7.203   9.455 -0.6380 -0.0994  0.1692
  744MOL0     C 2589   5.709   6.827   9.616  0.2040  0.2564 -0.0777
  744MOL0     C 2590   5.825   6.806   9.695  0.3757  0.0974 -0.0476
  744MOL0     C 2591   5.848   6.689   9.760  0.8465 -0.4345  0.2785
  744MOL0     C 2592   5.756   6.585   9.753  0.2413  1.2181 -0.2561
  744MOL0     O 2593   5.783   6.473   9.827  0.7860 -0.8115  0.2834
  744MOL0     C 2594   5.684   6.390   9.875 -0.5915  1.0334 -0.5331
  744MOL0     C 2595   5.734   6.307   9.995  0.2449 -0.0847 -0.1816
  744MOL0     C 2596   5.627   6.205  10.041  0.2058 -0.0202  0.8792
  744MOL0     C 2597   5.680   6.143  10.167  0.8009  0.4342  0.7801
  744MOL0     C 2598   5.580   6.052  10.215  0.7392 -0.4229  0.0940
  744MOL0     C 2599   5.492   5.977  10.254 -0.3246 -0.0000  0.3801
  744MOL0     C 2600   5.634   6.615   9.687  0.4923 -0.1896  0.8798
  744MOL0     C 2601   5.612   6.730   9.609  0.0708 -0.2268 -1.1173
  744MOL0     C 2602   5.489   6.748   9.525 -0.1549  0.5260  0.1646
  744MOL0     H 2603   5.797   7.286   9.660 -0.9791  1.1719  0.7795
  744MOL0     H 2604   5.767   7.490   9.567  1.1526  0.7019 -2.0231
  744MOL0     H 2605   5.779   7.651   9.396  0.6784  1.7501 -0.3673
  744MOL0     H 2606   5.651   7.681   9.523  0.5124 -4.2512  1.4591
  744MOL0     H 2607   5.639   7.786   9.228  1.0010  4.1011  0.2842
  744MOL0     H 2608   5.521   7.805   9.356 -0.4373 -0.0051  0.4360
  744MOL0     H 2609   5.685   7.932   9.487  1.4367  1.8541 -0.2882
  744MOL0     H 2610   5.819   7.871   9.376 -0.9541 -1.3185 -3.1762
  744MOL0     H 2611   5.728   8.004   9.202  0.6162 -1.8835 -0.5195
  744MOL0     H 2612   5.581   8.042   9.294 -0.2624  1.0403 -0.0965
  744MOL0     H 2613   5.866   8.121   9.370 -0.7022  0.0762 -0.3059
  744MOL0     H 2614   5.715   8.164   9.464 -0.7148  2.3073  0.1880
  744MOL0     H 2615   5.780   8.234   9.175  1.0462  0.6096  0.0213
  744MOL0     H 2616   5.653   8.302   9.266 -0.0139 -0.5746 -0.7641
  744MOL0     H 2617   5.953   8.341   9.321 -0.8206  1.7002 -3.1455
  744MOL0     H 2618   5.830   8.410   9.430 -0.0017 -0.9192  0.2713
  744MOL0     H 2619   5.887   8.456   9.131  1.0322  1.5555 -0.0213
  744MOL0     H 2620   5.736   8.511   9.214  1.4420  1.9575  0.5652
  744MOL0     H 2621   6.118   8.527   9.312  1.0077  0.3551  0.8920
  744MOL0     H 2622   6.179   8.732   9.535 -1.9371  1.1396 -0.2259
  744MOL0     H 2623   6.139   8.884   9.467 -1.1805 -0.4036  0.4785
  744MOL0     H 2624   6.390   8.812   9.438 -2.7685  3.1705  1.8901
  744MOL0     H 2625   6.340   8.668   9.353  1.1204 -0.7186  2.5089
  744MOL0     H 2626   6.250   8.827   9.163  0.4526  0.7186 -0.1104
  744MOL0     H 2627   6.294   8.965   9.274  0.6817 -0.0475  2.1215
  744MOL0     H 2628   6.483   8.754   9.155 -0.5172  1.2188 -4.2476
  744MOL0     H 2629   6.442   8.900   9.080  1.2216 -0.0395 -0.5800
  744MOL0     H 2630   6.724   9.102   9.325  2.5979  2.4295 -0.3719
  744MOL0     H 2631   6.930   9.205   9.295 -1.3908 -1.8903 -3.3328
  744MOL0     H 2632   7.080   9.126   9.261 -0.8623  0.1740 -1.1932
  744MOL0     H 2633   7.006   9.135   9.431 -2.6798 -0.0935  0.8566
  744MOL0     H 2634   7.299   8.644   9.026  2.0504 -0.2732 -0.2182
  744MOL0     H 2635   7.499   8.517   9.063  0.4119 -0.9076  1.3509
  744MOL0     H 2636   7.630   8.294   9.177 -3.0968  1.1096  1.9216
  744MOL0     H 2637   7.700   8.429   9.117  2.3169 -2.7774 -1.3818
  744MOL0     H 2638   7.808   8.265   9.343  2.3759  0.2386  0.8841
  744MOL0     H 2639   7.881   8.303   9.191  1.6072  1.6836  0.5813
  744MOL0     H 2640   7.866   8.567   9.295 -2.1968 -0.2649  1.5825
  744MOL0     H 2641   7.998   8.464   9.322 -1.1540 -1.4651 -0.1019
  744MOL0     H 2642   7.938   8.384   9.533 -1.3986 -1.6086 -1.2688
  744MOL0     H 2643   7.771   8.441   9.499 -0.5582  0.5472 -2.2647
  744MOL0     H 2644   8.017   8.607   9.515  0.0769 -3.7626 -1.2561
  744MOL0     H 2645   7.853   8.688   9.509  0.7644  1.1545 -0.1480
  744MOL0     H 2646   7.916   8.709   9.737 -0.7336  0.1632  0.0648
  744MOL0     H 2647   7.991   8.548   9.736 -0.6660 -1.6732 -0.0237
  744MOL0     H 2648   7.776   8.457   9.740  1.0396  1.4336 -4.0203
  744MOL0     H 2649   7.691   8.604   9.707 -0.1382 -3.3473 -2.4254
  744MOL0     H 2650   7.661   8.557   9.945  0.1087 -0.2870 -0.4589
  744MOL0     H 2651   7.759   8.709   9.951  1.8744 -1.6989  3.5935
  744MOL0     H 2652   7.458   8.544   9.486 -0.3954 -1.5464  0.2084
  744MOL0     H 2653   7.246   8.653   9.464 -0.4971 -1.8013 -0.0800
  744MOL0     H 2654   6.904   8.658   9.226  0.9621 -0.7336  2.1733
  744MOL0     H 2655   6.668   8.705   9.188  1.6480 -0.2552 -3.1694
  744MOL0     H 2656   5.456   7.339   9.315 -0.5600 -1.4077  1.0873
  744MOL0     H 2657   5.475   7.122   9.433  0.1888 -1.2343  1.5958
  744MOL0     H 2658   5.900   6.884   9.705  2.0100 -1.5788  1.5005
  744MOL0     H 2659   5.942   6.662   9.807  1.3608 -2.8561 -1.8765
  744MOL0     H 2660   5.596   6.451   9.900 -2.2649 -0.8802 -1.4512
  744MOL0     H 2661   5.643   6.321   9.801  1.1208 -2.6964  1.7288
  744MOL0     H 2662   5.754   6.375  10.078 -1.1448  3.3519 -2.4456
  744MOL0     H 2663   5.830   6.262   9.968  1.2668  0.6432  2.0293
  744MOL0     H 2664   5.534   6.261  10.057  0.1556  0.4965 -0.9651
  744MOL0     H 2665   5.612   6.123   9.970 -0.7019 -3.0385  4.2783
  744MOL0     H 2666   5.692   6.222  10.242 -0.7800  1.4712  0.0164
  744MOL0     H 2667   5.776   6.092  10.160  0.7459  0.0709  2.3041
  744MOL0     H 2668   5.414   5.908  10.281 -1.8986  0.8609 -1.6729
  744MOL0     H 2669   5.554   6.541   9.688  1.0713 -0.8170  0.9139
  744MOL0     H 2670   5.415   6.669   9.541 -1.7839  2.2715  1.6749
  744MOL0     H 2671   5.441   6.842   9.554  1.3914  1.2660  0.4339
  744MOL0     H 2672   5.512   6.746   9.418 -0.0481  0.9731  0.1756
  745MOL0     O 2673   1.912   4.762   2.250  0.3231 -0.3055  0.1838
  745MOL0     C 2674   1.848   4.658   2.278  0.9742  0.6336  0.3806
  745MOL0     O 2675   1.877   4.562   2.363  0.3272 -0.0157  0.5647
  745MOL0     C 2676   1.981   4.569   2.447  0.0843 -1.0773 -0.0248
  745MOL0     C 2677   2.110   4.622   2.429  0.2551  0.0995 -0.2048
  745MOL0     C 2678   2.200   4.636   2.540  0.3731 -2.0288 -0.4956
  745MOL0     C 2679   2.165   4.587   2.665  0.0380  0.1682 -0.2312
  745MOL0     O 2680   2.231   4.591   2.784 -0.0630 -0.5139  0.0348
  745MOL0     C 2681   2.371   4.619   2.771 -0.1766  0.3526 -0.3855
  745MOL0     C 2682   2.431   4.569   2.896 -0.1634 -0.1830 -0.4439
  745MOL0     C 2683   2.439   4.418   2.906 -0.5083 -0.4433  0.1986
  745MOL0     C 2684   2.308   4.341   2.914  0.0090 -0.5623 -0.3158
  745MOL0     C 2685   2.327   4.219   3.013  0.5419 -0.1048  0.0002
  745MOL0     C 2686   2.442   4.129   2.981 -0.0795  0.0342 -0.3438
  745MOL0     C 2687   2.420   4.035   2.853  0.0133 -0.0980  0.8189
  745MOL0     C 2688   2.538   3.941   2.826  0.0974  0.3198 -0.7838
  745MOL0     N 2689   2.521   3.824   2.919  0.4481  0.3202  0.4666
  745MOL0     C 2690   2.569   3.818   3.044  1.0597  0.8745 -0.2734
  745MOL0     C 2691   2.503   3.719   3.102  0.3841  0.7014  0.8657
  745MOL0     C 2692   2.517   3.671   3.239 -0.4920 -0.0047  0.9601
  745MOL0     C 2693   2.659   3.615   3.269 -0.2842  0.2292 -0.0361
  745MOL0     C 2694   2.715   3.516   3.166 -0.4039  0.8014  1.2525
  745MOL0     C 2695   2.817   3.416   3.234 -0.4083 -0.3781 -0.0013
  745MOL0     O 2696   2.915   3.493   3.309  0.3009 -0.1908 -0.3518
  745MOL0     C 2697   3.041   3.528   3.254  0.1958  0.2074 -0.2487
  745MOL0     C 2698   3.109   3.479   3.143 -0.4700  0.2016  0.0725
  745MOL0     C 2699   3.226   3.528   3.090 -0.1401 -0.6953 -0.6001
  745MOL0     C 2700   3.273   3.457   2.956 -0.1549 -0.0162 -0.9067
  745MOL0     C 2701   3.290   3.635   3.161 -0.4336 -0.4099  0.1234
  745MOL0     C 2702   3.425   3.675   3.123  0.3237  0.6687 -0.1592
  745MOL0     O 2703   3.492   3.606   3.026  0.9724  0.2422 -0.2039
  745MOL0     C 2704   3.613   3.634   2.982  0.5259 -1.4960 -0.1334
  745MOL0     C 2705   3.631   3.582   2.856 -0.1235  0.0052  0.2099
  745MOL0     C 2706   3.750   3.598   2.786 -0.2229 -0.5949  0.7132
  745MOL0     C 2707   3.858   3.660   2.848  0.4328 -0.1451  0.5219
  745MOL0     O 2708   3.973   3.651   2.776  0.1217 -0.1655  0.1469
  745MOL0     C 2709   4.086   3.734   2.821 -0.9274  0.3130  0.3294
  745MOL0     C 2710   4.164   3.644   2.918  0.0372 -0.1439  0.2187
  745MOL0     C 2711   4.298   3.709   2.959 -0.6469  0.0397  0.4437
  745MOL0     C 2712   4.397   3.676   2.840 -0.1631 -0.0634 -0.9543
  745MOL0     C 2713   4.522   3.773   2.852  0.5965  0.9497 -0.2870
  745MOL0     C 2714   4.583   3.778   2.708  0.1208  0.0042  0.1535
  745MOL0     C 2715   4.642   3.644   2.668 -0.0064 -0.0084 -0.0951
  745MOL0     C 2716   4.712   3.637   2.538  0.3676  1.7476 -0.6132
  745MOL0    Cl 2717   4.832   3.785   2.538 -0.1889 -0.3617  0.3391
  745MOL0     C 2718   3.836   3.714   2.985 -0.2480  0.3411 -0.7848
  745MOL0     C 2719   3.713   3.703   3.047 -0.5251  0.2884  0.4514
  745MOL0     O 2720   3.477   3.769   3.181  0.8136 -0.5496  0.4652
  745MOL0     C 2721   3.231   3.686   3.284 -0.4799  0.7508  0.4653
  745MOL0     C 2722   3.109   3.626   3.332 -0.6100  0.6180 -0.2025
  745MOL0     N 2723   2.419   3.668   3.007  0.4999  0.5286  0.2143
  745MOL0     N 2724   2.434   3.727   2.900 -0.1171  0.7515  0.9133
  745MOL0     C 2725   2.042   4.526   2.684 -0.5764  0.2876  0.1583
  745MOL0     C 2726   1.956   4.515   2.577  0.0179  0.0585  0.5527
  745MOL0     C 2727   1.727   4.638   2.196  0.2395 -0.6916 -0.1633
  745MOL0     C 2728   1.748   4.657   2.057  0.3991  1.3724 -0.0107
  745MOL0     C 2729   1.651   4.619   1.978  0.3788  0.2336 -0.0685
  745MOL0     C 2730   1.531   4.555   2.009 -0.4477  0.3028  0.0809
  745MOL0     O 2731   1.445   4.510   1.910 -0.5904 -0.4838  0.6914
  745MOL0     C 2732   1.373   4.391   1.921 -0.3898  0.4561  0.5201
  745MOL0     C 2733   1.247   4.375   1.836  1.1958  0.7592  0.0924
  745MOL0     C 2734   1.198   4.228   1.838 -0.4386 -0.1780  0.6156
  745MOL0     C 2735   1.058   4.214   1.768 -0.2751 -1.0571  0.8254
  745MOL0     C 2736   1.050   4.243   1.628 -0.1036 -0.0388  0.8129
  745MOL0     C 2737   1.028   4.270   1.511 -0.7668 -0.8139  0.1079
  745MOL0     C 2738   1.511   4.545   2.151 -0.4211 -0.1029 -0.6162
  745MOL0     C 2739   1.605   4.590   2.245 -0.2257  0.3368 -0.8882
  745MOL0     C 2740   1.590   4.558   2.398  0.5724 -0.0150  0.3378
  745MOL0     H 2741   2.144   4.660   2.334 -0.9394  0.0602 -0.6567
  745MOL0     H 2742   2.296   4.682   2.515  1.9751 -3.0192  3.1848
  745MOL0     H 2743   2.380   4.728   2.780 -2.8848  0.5144  2.0145
  745MOL0     H 2744   2.407   4.569   2.680 -1.9806 -4.2216  1.1179
  745MOL0     H 2745   2.532   4.609   2.911 -0.2835 -1.1530  4.4708
  745MOL0     H 2746   2.374   4.603   2.983 -1.1932 -0.2849 -1.0621
  745MOL0     H 2747   2.493   4.381   2.818 -2.8273  0.9286 -1.9485
  745MOL0     H 2748   2.500   4.395   2.994 -0.3557  0.1634  0.2589
  745MOL0     H 2749   2.228   4.406   2.949 -0.0357 -0.2782 -0.9324
  745MOL0     H 2750   2.289   4.309   2.812  1.0732 -0.9476 -0.4067
  745MOL0     H 2751   2.235   4.161   3.025  0.4599 -0.6163 -2.5453
  745MOL0     H 2752   2.338   4.265   3.112 -4.0235 -4.1886  2.8151
  745MOL0     H 2753   2.533   4.189   2.983 -0.5175  0.6802  0.5294
  745MOL0     H 2754   2.453   4.069   3.072 -0.2727 -0.3923 -0.5947
  745MOL0     H 2755   2.400   4.095   2.763 -4.3370 -1.9365  0.3251
  745MOL0     H 2756   2.327   3.978   2.865  1.2289 -2.1371  1.0003
  745MOL0     H 2757   2.527   3.900   2.725 -1.4441 -0.0607 -0.4871
  745MOL0     H 2758   2.631   3.998   2.832  1.8779 -2.5351  1.2099
  745MOL0     H 2759   2.648   3.874   3.094  1.1653 -0.3786  1.0246
  745MOL0     H 2760   2.444   3.589   3.246 -1.1893  0.6995  2.5416
  745MOL0     H 2761   2.483   3.733   3.322 -1.3008  0.3999  0.3361
  745MOL0     H 2762   2.729   3.698   3.282  1.6252 -1.4632  1.1410
  745MOL0     H 2763   2.653   3.561   3.364 -1.9006 -0.8324 -0.7048
  745MOL0     H 2764   2.639   3.448   3.125  0.6876 -0.6891  1.5982
  745MOL0     H 2765   2.768   3.572   3.088 -1.9936  0.3622 -0.2130
  745MOL0     H 2766   2.770   3.345   3.302  0.1735 -0.7650  0.0002
  745MOL0     H 2767   2.858   3.356   3.151 -1.7154  2.0033 -2.5485
  745MOL0     H 2768   3.052   3.406   3.086 -1.9694  0.8296  0.7105
  745MOL0     H 2769   3.356   3.388   2.972 -0.0813  0.3578  0.3901
  745MOL0     H 2770   3.297   3.526   2.875 -0.0440 -0.3620 -1.1731
  745MOL0     H 2771   3.197   3.387   2.920 -1.4410  1.8835 -2.0365
  745MOL0     H 2772   3.546   3.527   2.818 -0.9175  1.4045 -0.1019
  745MOL0     H 2773   3.765   3.571   2.682  1.4130 -2.1156  1.2926
  745MOL0     H 2774   4.136   3.751   2.726 -0.3763 -2.1249  0.1134
  745MOL0     H 2775   4.065   3.835   2.858  3.2575  1.4156  0.2593
  745MOL0     H 2776   4.100   3.608   2.998  0.3636 -0.3104  0.4075
  745MOL0     H 2777   4.191   3.557   2.857 -0.6165  0.0997 -0.4296
  745MOL0     H 2778   4.337   3.656   3.047  1.0631  0.8023  0.1794
  745MOL0     H 2779   4.296   3.817   2.977  1.5923  0.4809 -1.5966
  745MOL0     H 2780   4.348   3.667   2.743  0.7271  1.2171 -1.5501
  745MOL0     H 2781   4.430   3.574   2.861  1.8497  1.0049  1.7050
  745MOL0     H 2782   4.491   3.877   2.868 -0.1125  0.7237 -0.1506
  745MOL0     H 2783   4.598   3.743   2.924  0.5464 -0.2364 -0.7065
  745MOL0     H 2784   4.659   3.856   2.715  0.4684 -0.4419  1.7575
  745MOL0     H 2785   4.511   3.817   2.634 -0.6557  0.2774  1.0222
  745MOL0     H 2786   4.564   3.567   2.672  0.5235 -0.8046 -2.9524
  745MOL0     H 2787   4.716   3.616   2.744  0.8800 -2.0341 -1.6399
  745MOL0     H 2788   4.643   3.643   2.454  0.1442  0.2066 -0.5719
  745MOL0     H 2789   4.780   3.552   2.529 -2.3327 -0.5066 -1.1298
  745MOL0     H 2790   3.926   3.753   3.033  0.6545 -0.2736 -1.9153
  745MOL0     H 2791   3.709   3.732   3.152  2.4424 -3.5156  1.8567
  745MOL0     H 2792   3.284   3.763   3.338  1.6471  1.0034 -1.8123
  745MOL0     H 2793   3.061   3.656   3.425 -1.1665  0.9982 -0.6048
  745MOL0     H 2794   2.022   4.507   2.789  0.6439  3.8028  1.1867
  745MOL0     H 2795   1.855   4.481   2.596 -0.0784  0.6566  1.1469
  745MOL0     H 2796   1.846   4.689   2.023 -0.6392  1.1169 -3.7008
  745MOL0     H 2797   1.675   4.612   1.872  1.3338 -1.0275  0.2144
  745MOL0     H 2798   1.443   4.312   1.894 -1.4964 -0.6190  0.7099
  745MOL0     H 2799   1.349   4.375   2.027 -2.4807  1.7430  0.2908
  745MOL0     H 2800   1.261   4.416   1.736 -0.1699 -0.8697 -0.8279
  745MOL0     H 2801   1.165   4.432   1.880 -1.1109 -1.3004 -1.2654
  745MOL0     H 2802   1.270   4.157   1.795  1.2149  1.8099 -0.0885
  745MOL0     H 2803   1.172   4.206   1.942 -0.0001 -2.9519  0.2137
  745MOL0     H 2804   0.998   4.276   1.835  1.2132  0.7102  0.6089
  745MOL0     H 2805   1.020   4.111   1.765  1.5669 -1.7834  0.7274
  745MOL0     H 2806   1.018   4.319   1.416  0.1826  3.4029  1.9662
  745MOL0     H 2807   1.432   4.491   2.201  0.2977  0.9254  1.7889
  745MOL0     H 2808   1.638   4.642   2.448  2.0268  0.3360 -1.5269
  745MOL0     H 2809   1.484   4.551   2.425  0.8468 -0.9109  1.2224
  745MOL0     H 2810   1.640   4.464   2.423  2.0338  1.0825  1.7704
  746MOL0     O 2811  11.271   0.046  10.111 -0.4103  0.0188 -0.3811
  746MOL0     C 2812  11.170   0.118  10.107 -0.4728  0.7214  0.1298
  746MOL0     O 2813  11.057   0.094  10.169  0.6071 -0.5391  0.0759
  746MOL0     C 2814  11.047   0.016  10.283 -0.1510 -1.2521  0.4949
  746MOL0     C 2815  10.926  -0.038  10.311  0.3248  0.6965 -0.3375
  746MOL0     C 2816  10.889  -0.107  10.424 -0.4804  0.4391  0.0852
  746MOL0     C 2817  10.993  -0.114  10.521  0.5250 -0.4893  0.3970
  746MOL0     O 2818  10.973  -0.170  10.641  0.3936 -0.1297 -0.0665
  746MOL0     C 2819  10.850  -0.137  10.705  0.8513  0.3431 -0.0525
  746MOL0     C 2820  10.850  -0.169  10.856 -0.2427 -1.1105 -0.4468
  746MOL0     C 2821  10.714  -0.171  10.913  0.9867  0.2552  0.0310
  746MOL0     C 2822  10.712  -0.247  11.042  0.2688  0.8726  0.8469
  746MOL0     C 2823  10.623  -0.170  11.142 -0.0790 -1.3076  0.3445
  746MOL0     C 2824  10.629  -0.246  11.278 -0.4743 -0.0966 -0.1162
  746MOL0     C 2825  10.520  -0.208  11.382 -0.5627 -0.5445 -0.4645
  746MOL0     C 2826  10.380  -0.275  11.373 -0.3203 -0.9526  0.5871
  746MOL0     N 2827  10.303  -0.247  11.489 -0.2440 -0.7083 -0.0488
  746MOL0     C 2828  10.207  -0.159  11.487  0.5287  0.0933 -0.1629
  746MOL0     C 2829  10.170  -0.139  11.615 -0.0006 -0.0908  0.0485
  746MOL0     C 2830  10.072  -0.026  11.660  1.4524 -1.1531 -0.1281
  746MOL0     C 2831  10.097   0.028  11.795 -0.1308 -0.0594  0.3515
  746MOL0     C 2832  10.019   0.151  11.835  0.2712 -0.3550 -0.4330
  746MOL0     C 2833   9.872   0.115  11.866 -0.2357  0.1430 -0.2881
  746MOL0     O 2834   9.813   0.248  11.874 -0.1726 -0.9201 -0.8631
  746MOL0     C 2835   9.677   0.250  11.865  0.4624 -0.2542  0.3978
  746MOL0     C 2836   9.622   0.370  11.801  0.2256 -0.2393 -0.8110
  746MOL0     C 2837   9.488   0.373  11.776 -0.8052 -0.4302 -0.8203
  746MOL0     C 2838   9.436   0.501  11.730 -0.3544 -0.3173 -0.3628
  746MOL0     C 2839   9.414   0.264  11.821  0.8022 -0.4074  0.0687
  746MOL0     C 2840   9.268   0.266  11.807  0.8334  0.3197 -0.6294
  746MOL0     O 2841   9.203   0.378  11.826 -0.4339  0.0391 -0.3242
  746MOL0     C 2842   9.073   0.384  11.824 -1.3541  0.5309 -1.1409
  746MOL0     C 2843   8.994   0.325  11.926  0.4089  0.3523  0.6997
  746MOL0     C 2844   8.854   0.354  11.911  0.4426  1.1632 -0.5268
  746MOL0     C 2845   8.794   0.426  11.814  0.2287  0.9065 -0.0017
  746MOL0     O 2846   8.660   0.427  11.787  0.2113 -0.3752  0.3533
  746MOL0     C 2847   8.571   0.325  11.833 -0.8098 -0.2555 -0.2238
  746MOL0     C 2848   8.444   0.356  11.768  0.0716 -0.9301  0.9160
  746MOL0     C 2849   8.328   0.255  11.801  0.3444  0.0227 -0.2562
  746MOL0     C 2850   8.345   0.122  11.725 -0.0175 -0.5838  0.2903
  746MOL0     C 2851   8.251   0.009  11.763  0.1872  0.6453  0.7546
  746MOL0     C 2852   8.275  -0.106  11.657 -0.9171 -0.1076 -0.3638
  746MOL0     C 2853   8.185  -0.228  11.650  0.2160 -0.1013  0.2901
  746MOL0     C 2854   8.221  -0.328  11.544  0.5523  0.4201  0.8196
  746MOL0    Cl 2855   8.393  -0.382  11.553 -0.4246  0.0793  0.7030
  746MOL0     C 2856   8.881   0.498  11.736 -0.0623 -1.1082  0.6581
  746MOL0     C 2857   9.017   0.478  11.733 -0.1288 -0.0189  0.1089
  746MOL0     O 2858   9.216   0.156  11.796  0.2533  0.2504  0.0968
  746MOL0     C 2859   9.474   0.151  11.873 -0.6357 -0.4378 -0.5038
  746MOL0     C 2860   9.605   0.143  11.895  1.0147  0.1669 -0.4033
  746MOL0     N 2861  10.247  -0.227  11.693 -0.4250 -0.7315  0.2568
  746MOL0     N 2862  10.327  -0.293  11.613  0.1180  0.1088 -0.5819
  746MOL0     C 2863  11.119  -0.060  10.500  0.7444 -0.1483 -0.5923
  746MOL0     C 2864  11.152  -0.002  10.375  0.5612  0.8019  0.4134
  746MOL0     C 2865  11.177   0.237  10.030  0.4607  0.8889  0.0592
  746MOL0     C 2866  11.053   0.290   9.981 -0.0249  0.0988  0.4338
  746MOL0     C 2867  11.045   0.415   9.924  0.7574 -0.3555  0.1027
  746MOL0     C 2868  11.165   0.495   9.916  0.6071 -0.1689  0.1805
  746MOL0     O 2869  11.160   0.623   9.868  0.8112 -0.4381  0.1377
  746MOL0     C 2870  11.045   0.710   9.895  0.6406 -0.6812  0.2723
  746MOL0     C 2871  11.071   0.866   9.910 -0.2240  0.0503  0.4767
  746MOL0     C 2872  11.160   0.903  10.025 -0.5316 -0.0814 -1.1556
  746MOL0     C 2873  11.226   1.044  10.012  1.1639 -0.0815 -0.8704
  746MOL0     C 2874  11.126   1.140  10.047  0.3309 -0.2428 -0.8518
  746MOL0     C 2875  11.040   1.217  10.068 -0.3823  0.4768  0.5005
  746MOL0     C 2876  11.286   0.432   9.950  0.1253 -0.4267 -0.1838
  746MOL0     C 2877  11.294   0.317  10.011  0.0264 -0.3221  0.7906
  746MOL0     C 2878  11.434   0.271  10.062  0.0973  0.0188 -0.4332
  746MOL0     H 2879  10.844  -0.036  10.240 -1.2800  1.9022  1.4538
  746MOL0     H 2880  10.789  -0.147  10.434 -0.3549  0.4851  1.8594
  746MOL0     H 2881  10.764  -0.192  10.666  0.8814 -1.4503  2.1556
  746MOL0     H 2882  10.837  -0.029  10.701  1.8861  0.4494 -0.9471
  746MOL0     H 2883  10.885  -0.273  10.865  2.0520 -0.1976  2.7206
  746MOL0     H 2884  10.909  -0.096  10.912 -0.7091  0.2184 -1.6346
  746MOL0     H 2885  10.669  -0.072  10.925 -0.5704 -0.3599 -0.4494
  746MOL0     H 2886  10.654  -0.227  10.840  0.3666  2.5725 -1.3743
  746MOL0     H 2887  10.672  -0.347  11.019 -1.0223  1.5311  0.1440
  746MOL0     H 2888  10.816  -0.259  11.072  1.5324 -0.9315 -3.4633
  746MOL0     H 2889  10.519  -0.176  11.108  1.0943  1.2006 -4.4112
  746MOL0     H 2890  10.638  -0.062  11.151  1.3456 -1.3153 -1.4115
  746MOL0     H 2891  10.622  -0.354  11.265 -0.3718 -0.1191  0.0067
  746MOL0     H 2892  10.723  -0.215  11.326 -1.6197 -0.9524  2.9115
  746MOL0     H 2893  10.516  -0.098  11.384  0.3211 -0.4707 -1.7427
  746MOL0     H 2894  10.558  -0.235  11.481 -0.9494  0.4450 -0.0259
  746MOL0     H 2895  10.328  -0.233  11.287 -3.4825 -2.0606  1.7925
  746MOL0     H 2896  10.388  -0.384  11.366  0.2491 -0.8440 -0.6188
  746MOL0     H 2897  10.170  -0.097  11.407 -0.1636  1.0505  0.8620
  746MOL0     H 2898   9.972  -0.071  11.656  0.6935  0.5583 -1.5505
  746MOL0     H 2899  10.089   0.051  11.584  2.1351 -0.2052  0.9542
  746MOL0     H 2900  10.081  -0.057  11.863 -1.0676  1.0978  1.6278
  746MOL0     H 2901  10.204   0.049  11.798 -0.5181  2.6099 -1.6702
  746MOL0     H 2902  10.060   0.181  11.932 -2.2995 -1.3798  1.0811
  746MOL0     H 2903  10.026   0.219  11.749  1.1423 -2.8438 -2.4373
  746MOL0     H 2904   9.836   0.054  11.783 -0.6321 -0.8188  0.5676
  746MOL0     H 2905   9.861   0.066  11.963 -0.8284  1.2157  0.2060
  746MOL0     H 2906   9.690   0.453  11.782 -0.1056  1.0942  3.0793
  746MOL0     H 2907   9.381   0.560  11.803 -1.2705 -0.0320 -1.2619
  746MOL0     H 2908   9.378   0.472  11.642  1.0025 -0.8876 -1.0968
  746MOL0     H 2909   9.511   0.571  11.693  1.8983 -0.1895  3.8683
  746MOL0     H 2910   9.023   0.269  12.014  1.3918  1.6361  1.2089
  746MOL0     H 2911   8.788   0.310  11.985  0.6071 -0.8139 -1.4813
  746MOL0     H 2912   8.594   0.220  11.808  0.4937  0.0246 -0.2825
  746MOL0     H 2913   8.568   0.328  11.942 -0.1809 -4.6722  0.1059
  746MOL0     H 2914   8.413   0.459  11.790  1.3320  0.2251 -2.1672
  746MOL0     H 2915   8.461   0.357  11.660 -2.0516  0.0010  0.5456
  746MOL0     H 2916   8.234   0.303  11.770  0.6717  1.5601  0.9774
  746MOL0     H 2917   8.316   0.245  11.909 -2.2390  0.3256 -0.4559
  746MOL0     H 2918   8.446   0.084  11.744  0.0232 -0.4196  0.3981
  746MOL0     H 2919   8.345   0.146  11.618 -1.2409  1.2281  0.6477
  746MOL0     H 2920   8.264  -0.030  11.865 -1.6130 -1.8295  0.1560
  746MOL0     H 2921   8.146   0.039  11.755  0.2408  0.6493 -0.0399
  746MOL0     H 2922   8.373  -0.142  11.690 -1.3664 -1.2995 -0.3098
  746MOL0     H 2923   8.290  -0.066  11.556  3.7058  0.4339  0.2869
  746MOL0     H 2924   8.086  -0.191  11.621  1.2234  0.7616 -2.3563
  746MOL0     H 2925   8.172  -0.272  11.749 -0.2475  1.4640  0.9620
  746MOL0     H 2926   8.190  -0.279  11.451 -0.3375 -0.6996  0.5177
  746MOL0     H 2927   8.148  -0.409  11.550 -2.0102  2.4942 -0.3586
  746MOL0     H 2928   8.845   0.581  11.676 -1.5122 -0.4096  2.4077
  746MOL0     H 2929   9.083   0.537  11.671  0.3849  0.0541  0.7156
  746MOL0     H 2930   9.409   0.075  11.916  0.4601 -0.1753  1.7545
  746MOL0     H 2931   9.647   0.063  11.955 -0.8991 -0.7862 -0.2782
  746MOL0     H 2932  11.182  -0.064  10.588 -0.2306  1.5675  0.2406
  746MOL0     H 2933  11.254   0.036  10.371  1.1941 -0.6538  1.7384
  746MOL0     H 2934  10.961   0.235  10.001  0.0844  0.9201  3.7150
  746MOL0     H 2935  10.949   0.453   9.892  1.2272  1.5404  0.8223
  746MOL0     H 2936  10.983   0.700   9.805  4.6734  2.8696 -3.3738
  746MOL0     H 2937  10.990   0.678   9.984  0.5559 -0.8657  0.1552
  746MOL0     H 2938  10.975   0.905   9.944 -0.2052 -1.8710  3.0449
  746MOL0     H 2939  11.104   0.910   9.816  0.4354 -3.1919 -0.9319
  746MOL0     H 2940  11.104   0.898  10.119 -0.1924  1.7916 -0.8097
  746MOL0     H 2941  11.241   0.830  10.034 -2.1380 -1.7251  1.1719
  746MOL0     H 2942  11.263   1.056   9.909  0.3289 -2.2701 -1.4822
  746MOL0     H 2943  11.301   1.062  10.089 -0.5029  0.3976  0.6811
  746MOL0     H 2944  10.957   1.284  10.081 -3.1743 -1.8029 -3.2502
  746MOL0     H 2945  11.377   0.491   9.939  0.7003 -1.4282 -1.0377
  746MOL0     H 2946  11.509   0.349  10.043  1.4686 -1.1426  0.0532
  746MOL0     H 2947  11.425   0.252  10.169 -0.7112  0.3096 -0.4444
  746MOL0     H 2948  11.463   0.175  10.018 -3.1185 -1.0784 -0.4273
  747MOL0     O 2949   1.064   9.442   2.333  0.1235  0.4364  0.4885
  747MOL0     C 2950   1.174   9.439   2.278 -0.2832  0.5668  0.4700
  747MOL0     O 2951   1.221   9.527   2.176  0.6485  0.3850 -0.1246
  747MOL0     C 2952   1.134   9.622   2.126 -0.0161  0.0513  0.1009
  747MOL0     C 2953   1.012   9.583   2.065 -0.1159  0.2112 -0.1997
  747MOL0     C 2954   0.919   9.684   2.031 -0.1816  0.9080  0.3119
  747MOL0     C 2955   0.954   9.821   2.050 -0.6336  0.4098  0.5515
  747MOL0     O 2956   0.875   9.913   1.997 -0.3748  0.3685 -0.5040
  747MOL0     C 2957   0.737   9.905   2.032 -0.0898  0.5216  0.3315
  747MOL0     C 2958   0.714   9.945   2.173 -1.2283 -0.6276  0.5900
  747MOL0     C 2959   0.569   9.952   2.206  0.7779 -0.7867 -0.1199
  747MOL0     C 2960   0.477  10.015   2.098 -0.0556  0.1291  0.0050
  747MOL0     C 2961   0.333  10.056   2.156 -0.3589 -0.2491 -0.0930
  747MOL0     C 2962   0.239  10.100   2.042  0.4533 -0.1021 -0.3945
  747MOL0     C 2963   0.103  10.163   2.086 -0.2793  0.5799 -0.1960
  747MOL0     C 2964   0.067  10.259   1.969  0.3543  0.2949 -0.5691
  747MOL0     N 2965   0.003  10.376   2.029  0.3982 -0.0776  0.5343
  747MOL0     C 2966  -0.135  10.404   2.030  0.3426  1.0976 -0.9542
  747MOL0     C 2967  -0.147  10.506   2.123 -0.2628  0.4508  0.8353
  747MOL0     C 2968  -0.271  10.560   2.189  0.3841 -0.0564 -0.0360
  747MOL0     C 2969  -0.268  10.529   2.343 -0.0738 -0.2565  0.0201
  747MOL0     C 2970  -0.184  10.633   2.412  0.0027 -0.3881 -0.2512
  747MOL0     C 2971  -0.267  10.709   2.523 -0.8694 -0.0830  0.4925
  747MOL0     O 2972  -0.332  10.646   2.630  0.1151 -0.1432  0.0390
  747MOL0     C 2973  -0.263  10.583   2.733 -0.7232 -0.5944 -0.3279
  747MOL0     C 2974  -0.339  10.518   2.834 -0.6585 -0.3544  0.9022
  747MOL0     C 2975  -0.280  10.467   2.952  0.0372 -0.6343  0.2038
  747MOL0     C 2976  -0.378  10.426   3.061  0.1075 -0.0727 -0.0920
  747MOL0     C 2977  -0.137  10.455   2.965  0.1445 -0.2343 -1.1905
  747MOL0     C 2978  -0.069  10.385   3.074 -0.5996 -0.2368 -0.1317
  747MOL0     O 2979   0.057  10.422   3.088 -1.1023 -0.1697  0.3836
  747MOL0     C 2980   0.137  10.325   3.138  0.6670  0.4242 -0.6000
  747MOL0     C 2981   0.152  10.318   3.273 -0.0314  0.1093 -0.3091
  747MOL0     C 2982   0.251  10.235   3.320 -0.2148 -0.8079  0.7267
  747MOL0     C 2983   0.340  10.166   3.240 -0.0113  0.1259 -0.4790
  747MOL0     O 2984   0.447  10.092   3.283  0.4529 -0.0527 -0.1995
  747MOL0     C 2985   0.456  10.059   3.425  0.7823 -0.1911 -0.5633
  747MOL0     C 2986   0.527  10.181   3.491  0.3384  0.3913  0.4765
  747MOL0     C 2987   0.551  10.155   3.637  0.0088  0.2684 -0.3588
  747MOL0     C 2988   0.617  10.283   3.694 -0.5898 -0.2119 -0.5219
  747MOL0     C 2989   0.645  10.272   3.842 -0.3240 -0.1789 -0.0678
  747MOL0     C 2990   0.717  10.403   3.896  0.7452  0.2550  1.0506
  747MOL0     C 2991   0.768  10.387   4.032 -0.2735 -0.0188 -0.6002
  747MOL0     C 2992   0.827  10.519   4.084  0.3990 -0.7645 -0.5901
  747MOL0    Cl 2993   0.701  10.641   4.103  0.1134  0.4476 -0.2078
  747MOL0     C 2994   0.317  10.172   3.107  1.0482  0.5838 -0.5690
  747MOL0     C 2995   0.218  10.248   3.055  0.0983  0.9607  0.1892
  747MOL0     O 2996  -0.130  10.316   3.156 -0.4311  0.0415 -0.8336
  747MOL0     C 2997  -0.064  10.512   2.858  0.8864 -0.2560 -0.2252
  747MOL0     C 2998  -0.122  10.582   2.751  0.0965  0.1425  0.2079
  747MOL0     N 2999  -0.021  10.548   2.159  0.6370 -0.6885 -0.2111
  747MOL0     N 3000   0.069  10.469   2.102 -0.1075 -0.1434  0.0097
  747MOL0     C 3001   1.081   9.855   2.096 -0.4629 -0.0185 -0.3127
  747MOL0     C 3002   1.165   9.751   2.144 -0.2623 -1.0370 -0.7653
  747MOL0     C 3003   1.263   9.333   2.331 -0.8577 -0.3873 -0.7913
  747MOL0     C 3004   1.402   9.366   2.325 -0.8858  0.2448  0.5818
  747MOL0     C 3005   1.498   9.278   2.373  0.0382 -0.2868 -0.2003
  747MOL0     C 3006   1.470   9.153   2.414 -0.2925  0.8982  0.4536
  747MOL0     O 3007   1.574   9.066   2.426  0.4627  0.7754 -0.9226
  747MOL0     C 3008   1.587   8.953   2.331  0.5728  0.0594  0.8563
  747MOL0     C 3009   1.630   8.983   2.177 -0.3021  0.2870 -0.3603
  747MOL0     C 3010   1.788   9.020   2.173 -0.0024  0.1091  0.4249
  747MOL0     C 3011   1.837   8.994   2.035 -0.3830  1.0172  0.2954
  747MOL0     C 3012   1.957   9.065   1.995 -0.2407  0.1579  0.4765
  747MOL0     C 3013   2.049   9.134   1.955  0.3958 -0.0677  0.0852
  747MOL0     C 3014   1.334   9.122   2.436 -0.1188 -0.4068  1.0060
  747MOL0     C 3015   1.229   9.212   2.396  0.4599 -0.1447  0.1333
  747MOL0     C 3016   1.087   9.165   2.411 -0.5274  0.3577 -0.2432
  747MOL0     H 3017   0.971   9.483   2.054 -3.2939  0.8746  3.2865
  747MOL0     H 3018   0.831   9.642   1.984  0.6754 -0.5609 -0.0538
  747MOL0     H 3019   0.700   9.804   2.014 -1.3713  0.4636  2.9491
  747MOL0     H 3020   0.692   9.963   1.951 -0.3374 -2.5900 -1.9850
  747MOL0     H 3021   0.757   9.875   2.245  0.9383  0.0446  0.0348
  747MOL0     H 3022   0.776  10.034   2.187  1.7129 -1.0961 -5.7577
  747MOL0     H 3023   0.528   9.857   2.243  2.2232 -1.2520  0.3455
  747MOL0     H 3024   0.567  10.021   2.291  0.3514  0.1678 -0.8906
  747MOL0     H 3025   0.530  10.094   2.044 -0.3426 -1.3105 -2.5075
  747MOL0     H 3026   0.476   9.928   2.033 -0.4148 -1.2960  1.8492
  747MOL0     H 3027   0.330  10.134   2.232  1.2858 -0.2787  0.0305
  747MOL0     H 3028   0.305   9.962   2.204  2.3173 -1.5957 -0.9596
  747MOL0     H 3029   0.306  10.168   1.989  1.2764 -0.2447  0.4284
  747MOL0     H 3030   0.220  10.009   1.984 -0.5018 -0.5479  0.5697
  747MOL0     H 3031   0.106  10.214   2.183 -1.3404 -1.5272  1.0311
  747MOL0     H 3032   0.022  10.091   2.099 -0.9038  1.1859 -0.6188
  747MOL0     H 3033   0.157  10.298   1.921 -0.1409  0.5877 -1.2823
  747MOL0     H 3034   0.011  10.203   1.893  0.7351  0.4922 -1.0008
  747MOL0     H 3035  -0.217  10.343   1.995 -2.1860  1.4259  3.7152
  747MOL0     H 3036  -0.359  10.515   2.141  2.0201 -2.6171 -0.8377
  747MOL0     H 3037  -0.278  10.668   2.179 -3.4602  0.3729  4.0179
  747MOL0     H 3038  -0.373  10.528   2.371 -0.6793  1.1123 -1.9046
  747MOL0     H 3039  -0.223  10.431   2.361 -0.5910 -0.6939 -0.9529
  747MOL0     H 3040  -0.109  10.574   2.466  0.5630  1.0873  0.6495
  747MOL0     H 3041  -0.136  10.704   2.344  0.7659  2.1540  2.7016
  747MOL0     H 3042  -0.200  10.788   2.560 -2.3555  2.3942 -1.7446
  747MOL0     H 3043  -0.347  10.774   2.488  0.8524  2.5668  1.1821
  747MOL0     H 3044  -0.447  10.516   2.820 -0.7842  1.7906  1.1600
  747MOL0     H 3045  -0.472  10.480   3.046  0.9628  1.7434  0.7147
  747MOL0     H 3046  -0.335  10.447   3.160 -0.4079  1.2571 -0.1278
  747MOL0     H 3047  -0.394  10.318   3.053 -1.9819  0.2671 -1.1216
  747MOL0     H 3048   0.080  10.356   3.344 -2.8452 -1.5555 -2.0505
  747MOL0     H 3049   0.248  10.224   3.428  0.7559 -1.3063  0.7106
  747MOL0     H 3050   0.362  10.037   3.475  0.1913  1.8947 -0.6629
  747MOL0     H 3051   0.533   9.982   3.432  2.4571  1.4685  0.6647
  747MOL0     H 3052   0.627  10.193   3.448  0.5390 -1.9937  0.1382
  747MOL0     H 3053   0.468  10.273   3.488  2.8933  2.1303 -0.0294
  747MOL0     H 3054   0.606  10.062   3.655 -0.1146  0.3877  0.6859
  747MOL0     H 3055   0.456  10.137   3.688  0.4104  0.8026  0.6024
  747MOL0     H 3056   0.552  10.370   3.681  0.1126  0.6998  1.5609
  747MOL0     H 3057   0.713  10.286   3.642 -0.4481 -0.6593 -0.2923
  747MOL0     H 3058   0.544  10.257   3.882 -0.6199 -2.1350 -1.4076
  747MOL0     H 3059   0.705  10.184   3.866 -0.0484  0.0013 -0.0953
  747MOL0     H 3060   0.640  10.480   3.886 -1.3129 -1.9453 -1.8545
  747MOL0     H 3061   0.805  10.434   3.839  0.5727 -1.5289 -0.2503
  747MOL0     H 3062   0.850  10.316   4.047  0.3033  1.1650  2.7607
  747MOL0     H 3063   0.686  10.352   4.096  1.1058 -0.3001  1.1009
  747MOL0     H 3064   0.901  10.554   4.011  2.7836 -3.0887  0.5555
  747MOL0     H 3065   0.882  10.507   4.177  0.5605  1.6222 -0.2958
  747MOL0     H 3066   0.380  10.129   3.029  0.6195 -0.5380 -0.3173
  747MOL0     H 3067   0.209  10.261   2.947  3.7589  3.0801 -0.0599
  747MOL0     H 3068   0.044  10.513   2.869  0.8962  2.1963 -0.0734
  747MOL0     H 3069  -0.062  10.632   2.676 -0.0760 -0.7494 -0.5403
  747MOL0     H 3070   1.120   9.956   2.101  0.2585 -0.2662 -0.8335
  747MOL0     H 3071   1.264   9.776   2.180 -0.1532 -0.4468 -1.4347
  747MOL0     H 3072   1.448   9.448   2.270  3.0065 -3.0371 -1.5907
  747MOL0     H 3073   1.600   9.308   2.352 -0.3439  3.3977  2.1340
  747MOL0     H 3074   1.644   8.870   2.374 -1.9105 -1.4230  1.5010
  747MOL0     H 3075   1.486   8.912   2.327  1.3930 -2.4779  3.0712
  747MOL0     H 3076   1.576   9.069   2.136 -2.4710 -0.3935  0.9147
  747MOL0     H 3077   1.610   8.901   2.108  2.5322  1.5011 -2.8789
  747MOL0     H 3078   1.804   9.121   2.209  1.8998  0.8282 -2.1135
  747MOL0     H 3079   1.849   8.955   2.236 -2.7131  0.3164  3.5205
  747MOL0     H 3080   1.757   9.022   1.966 -1.7892  1.1075  1.9186
  747MOL0     H 3081   1.833   8.886   2.017 -1.9991  1.0475  0.3673
  747MOL0     H 3082   2.127   9.188   1.906  1.6473 -3.0551 -1.4818
  747MOL0     H 3083   1.296   9.025   2.465  1.7803 -1.3274  0.5301
  747MOL0     H 3084   1.086   9.072   2.469  1.8029 -1.1612 -2.4222
  747MOL0     H 3085   1.026   9.239   2.463 -0.1826  2.2911 -2.4388
  747MOL0     H 3086   1.055   9.156   2.307 -1.6542  0.7058  0.0623
  748MOL0     O 3087   2.809   5.002  11.126  0.8724  0.1155 -0.0108
  748MOL0     C 3088   2.869   5.019  11.236  1.0690  0.6075  0.3704
  748MOL0     O 3089   2.990   5.073  11.245 -0.4119 -0.1040 -0.3988
  748MOL0     C 3090   3.058   5.068  11.130  0.2765  0.0554  0.0409
  748MOL0     C 3091   3.148   4.966  11.095 -0.7588  0.2270  0.4684
  748MOL0     C 3092   3.233   4.979  10.983 -0.7242 -0.2039  0.2312
  748MOL0     C 3093   3.224   5.093  10.893  0.3619  0.6803 -1.0094
  748MOL0     O 3094   3.304   5.101  10.779 -0.1574  0.1656 -0.2290
  748MOL0     C 3095   3.443   5.096  10.810 -0.3414 -0.4435  0.0240
  748MOL0     C 3096   3.529   5.141  10.690 -0.1409  0.5849 -0.2618
  748MOL0     C 3097   3.676   5.159  10.734  0.7504  0.2678  0.8526
  748MOL0     C 3098   3.743   5.041  10.799 -0.6958  1.0513 -1.0450
  748MOL0     C 3099   3.904   5.041  10.806 -0.0371  0.6915  0.8051
  748MOL0     C 3100   3.957   4.921  10.874 -0.9494 -0.0267  0.6352
  748MOL0     C 3101   4.100   4.971  10.919  0.0207  0.0954 -0.7904
  748MOL0     C 3102   4.090   5.028  11.063 -0.5475 -0.5919 -0.1498
  748MOL0     N 3103   4.177   5.146  11.080  0.2673 -0.3632  0.0214
  748MOL0     C 3104   4.315   5.135  11.055 -0.0629  0.2731 -0.4318
  748MOL0     C 3105   4.366   5.244  11.121 -0.6426 -0.2201 -0.1329
  748MOL0     C 3106   4.515   5.288  11.118  0.3581  0.2415 -0.1210
  748MOL0     C 3107   4.549   5.374  11.239  0.3460 -0.0237 -0.1651
  748MOL0     C 3108   4.686   5.389  11.263 -0.1840  0.4929 -0.0592
  748MOL0     C 3109   4.768   5.484  11.169 -0.2207  0.1045  0.2038
  748MOL0     O 3110   4.822   5.393  11.073  0.1833 -0.5108  0.6593
  748MOL0     C 3111   4.931   5.310  11.114  0.1033 -0.4502  0.2097
  748MOL0     C 3112   4.988   5.295  11.245  1.1715 -0.2384  0.5694
  748MOL0     C 3113   5.077   5.207  11.277 -0.1745 -0.0518  0.5351
  748MOL0     C 3114   5.104   5.193  11.426  0.3485  0.4979  0.1852
  748MOL0     C 3115   5.154   5.145  11.178  0.9563  0.0442 -0.0089
  748MOL0     C 3116   5.266   5.058  11.201 -0.6471  0.8090  0.1391
  748MOL0     O 3117   5.299   4.974  11.099 -0.0718  0.5985 -0.1586
  748MOL0     C 3118   5.424   4.912  11.097 -0.1456  0.1529  0.5330
  748MOL0     C 3119   5.488   4.845  11.199  0.7206  0.1430 -0.1533
  748MOL0     C 3120   5.607   4.774  11.171  0.7742  0.5396  0.2108
  748MOL0     C 3121   5.670   4.779  11.052 -0.1906 -0.1162 -0.1248
  748MOL0     O 3122   5.772   4.697  11.026  0.0736  0.3432 -0.3875
  748MOL0     C 3123   5.878   4.686  11.117 -0.1479  0.0992 -0.4466
  748MOL0     C 3124   5.992   4.604  11.055  0.5305  0.8425 -0.4635
  748MOL0     C 3125   6.127   4.646  11.114 -1.2650  0.4492  0.0837
  748MOL0     C 3126   6.240   4.555  11.065  0.1128 -1.2313  0.0623
  748MOL0     C 3127   6.365   4.566  11.149 -0.0108  0.4303  1.5755
  748MOL0     C 3128   6.463   4.449  11.117  0.4703  0.2393  0.2130
  748MOL0     C 3129   6.570   4.439  11.225  1.2449 -0.5296 -0.1144
  748MOL0     C 3130   6.649   4.315  11.212  0.2817 -0.2669  0.1238
  748MOL0    Cl 3131   6.805   4.332  11.307 -0.0923 -0.1784  0.5251
  748MOL0     C 3132   5.613   4.863  10.946 -0.9457 -0.2741 -1.1708
  748MOL0     C 3133   5.490   4.919  10.974  0.3911  0.0015 -0.6580
  748MOL0     O 3134   5.330   5.061  11.310  0.3144 -0.5155 -0.0057
  748MOL0     C 3135   5.104   5.155  11.052  0.1475  0.3456  0.0544
  748MOL0     C 3136   4.996   5.233  11.018 -0.8969 -0.5697  0.3878
  748MOL0     N 3137   4.266   5.315  11.177 -0.3067  0.0758 -0.0365
  748MOL0     N 3138   4.150   5.258  11.156  0.2265  0.3724 -0.4132
  748MOL0     C 3139   3.118   5.189  10.919  0.7599  0.3179  0.4042
  748MOL0     C 3140   3.049   5.189  11.045  0.5217  0.3267 -0.6104
  748MOL0     C 3141   2.789   5.013  11.361 -0.3759  0.0833 -0.2181
  748MOL0     C 3142   2.644   5.025  11.347 -0.6377 -0.0124 -0.5171
  748MOL0     C 3143   2.563   5.014  11.457 -0.0377 -0.3819 -0.0545
  748MOL0     C 3144   2.613   4.993  11.580  1.2060  0.2276 -0.6843
  748MOL0     O 3145   2.536   4.984  11.698  0.2799  0.2764 -0.5560
  748MOL0     C 3146   2.398   4.950  11.687 -0.0265  0.0987 -0.1448
  748MOL0     C 3147   2.355   4.907  11.824  0.5881  0.2648 -0.0883
  748MOL0     C 3148   2.208   4.854  11.822  0.0292 -0.2174 -0.6959
  748MOL0     C 3149   2.175   4.840  11.976  0.7254  0.0260 -0.3842
  748MOL0     C 3150   2.116   4.965  12.024  0.6033 -0.1868  0.3614
  748MOL0     C 3151   2.072   5.071  12.063  0.0881  0.1168 -0.6153
  748MOL0     C 3152   2.748   4.989  11.597 -0.7299  0.2531  0.1883
  748MOL0     C 3153   2.840   5.005  11.490 -0.3821 -0.1631 -0.4372
  748MOL0     C 3154   2.990   5.014  11.511 -0.0098 -0.0740  0.4852
  748MOL0     H 3155   3.155   4.881  11.162 -1.6614 -0.0304  0.2538
  748MOL0     H 3156   3.307   4.902  10.963 -1.1401 -0.2156 -1.3530
  748MOL0     H 3157   3.471   4.992  10.826  1.3437  0.0133  0.2336
  748MOL0     H 3158   3.459   5.171  10.889 -1.9141 -0.6877  0.6159
  748MOL0     H 3159   3.507   5.063  10.616 -1.1707  0.6968 -0.0893
  748MOL0     H 3160   3.499   5.238  10.648 -0.5162  1.3897  1.7768
  748MOL0     H 3161   3.738   5.169  10.644  1.6426  1.5512  1.5834
  748MOL0     H 3162   3.711   5.250  10.783  0.2043  1.3373 -0.6498
  748MOL0     H 3163   3.711   5.038  10.903  2.9113 -1.9064  0.1829
  748MOL0     H 3164   3.721   4.941  10.760  1.1887  0.5369 -0.8846
  748MOL0     H 3165   3.926   5.128  10.868  1.3273  1.1649 -0.2845
  748MOL0     H 3166   3.939   5.055  10.703 -2.9805  1.2224 -0.2274
  748MOL0     H 3167   3.897   4.896  10.962 -0.0997  4.3819  2.7554
  748MOL0     H 3168   3.975   4.830  10.816 -2.9962 -1.3688  1.9789
  748MOL0     H 3169   4.138   5.043  10.846 -0.1154 -1.4178 -2.4232
  748MOL0     H 3170   4.173   4.889  10.929 -1.0183 -0.6976  0.8106
  748MOL0     H 3171   3.986   5.061  11.078 -0.7728 -0.8870 -0.9899
  748MOL0     H 3172   4.119   4.957  11.140  0.5731 -0.4795 -0.4584
  748MOL0     H 3173   4.374   5.053  11.017  0.2923 -0.8340  2.2390
  748MOL0     H 3174   4.528   5.336  11.021  1.0524 -1.4938 -0.9105
  748MOL0     H 3175   4.580   5.201  11.114  3.8757  2.3240  3.7204
  748MOL0     H 3176   4.500   5.472  11.229 -0.6298 -0.3056  1.5436
  748MOL0     H 3177   4.500   5.335  11.328 -1.4318  1.5920 -0.3837
  748MOL0     H 3178   4.706   5.443  11.356  1.4317  2.3479 -1.4208
  748MOL0     H 3179   4.721   5.286  11.270 -3.2577 -0.6670  0.0543
  748MOL0     H 3180   4.710   5.565  11.125 -1.4487  0.9949  3.2301
  748MOL0     H 3181   4.854   5.532  11.217  2.3383  0.8290 -4.4691
  748MOL0     H 3182   4.941   5.359  11.320  1.4530  0.0596  0.4982
  748MOL0     H 3183   5.201   5.238  11.448 -0.3449  2.4640 -0.5732
  748MOL0     H 3184   5.091   5.087  11.450  3.0566 -0.0191 -0.3587
  748MOL0     H 3185   5.027   5.244  11.485  0.8337 -0.5724  1.8360
  748MOL0     H 3186   5.450   4.850  11.300  1.7795  0.1056  0.2603
  748MOL0     H 3187   5.659   4.714  11.245 -0.8125 -1.1461  0.0534
  748MOL0     H 3188   5.915   4.783  11.153  1.7513 -0.1904 -1.4924
  748MOL0     H 3189   5.843   4.632  11.205  1.1892 -1.4857 -0.8384
  748MOL0     H 3190   5.979   4.497  11.071 -3.2065  1.1447 -0.4684
  748MOL0     H 3191   5.995   4.618  10.946  0.1407 -0.5598 -0.6741
  748MOL0     H 3192   6.115   4.632  11.222 -1.4713  0.2409  0.0357
  748MOL0     H 3193   6.133   4.752  11.088 -5.6530  0.9836  0.4011
  748MOL0     H 3194   6.256   4.577  10.959 -0.7432 -0.2709  0.1210
  748MOL0     H 3195   6.197   4.454  11.065 -1.2155 -0.8253  3.9850
  748MOL0     H 3196   6.412   4.662  11.124 -1.9040  0.7785 -1.0662
  748MOL0     H 3197   6.350   4.562  11.257 -2.7449 -3.5539  1.2703
  748MOL0     H 3198   6.515   4.465  11.022  1.7050 -1.8164  0.4888
  748MOL0     H 3199   6.414   4.353  11.103 -1.9337  1.1922  1.6087
  748MOL0     H 3200   6.528   4.436  11.326  1.6646 -1.4150  0.0429
  748MOL0     H 3201   6.629   4.529  11.212  1.7772 -0.7330  0.7923
  748MOL0     H 3202   6.665   4.295  11.106 -1.0704 -4.8605  0.5863
  748MOL0     H 3203   6.587   4.233  11.250 -0.6507 -0.7607 -2.2741
  748MOL0     H 3204   5.655   4.867  10.846 -1.3017 -2.3859 -1.4483
  748MOL0     H 3205   5.437   4.975  10.897  1.3390 -0.8257 -1.9535
  748MOL0     H 3206   5.146   5.100  10.969 -3.5769  0.3672 -2.0522
  748MOL0     H 3207   4.970   5.238  10.912  0.5433 -0.3760  0.0217
  748MOL0     H 3208   3.103   5.262  10.841  1.6719 -0.9028 -0.9708
  748MOL0     H 3209   2.982   5.273  11.059 -1.1230 -0.4536 -3.0974
  748MOL0     H 3210   2.599   5.055  11.253 -0.5405  1.6929 -0.0649
  748MOL0     H 3211   2.456   5.029  11.447 -0.4697 -2.4597  0.9138
  748MOL0     H 3212   2.345   5.038  11.649  0.4831  0.0840 -0.9232
  748MOL0     H 3213   2.377   4.878  11.608  0.7947  0.4235 -0.6700
  748MOL0     H 3214   2.370   4.987  11.897 -0.2813  0.2141  0.1602
  748MOL0     H 3215   2.425   4.828  11.853  1.5748  0.4116 -1.8797
  748MOL0     H 3216   2.144   4.929  11.775 -1.9794 -0.2719  1.7539
  748MOL0     H 3217   2.194   4.755  11.777  3.0706 -0.4227 -1.4361
  748MOL0     H 3218   2.269   4.812  12.025 -0.3264  0.5748  2.1313
  748MOL0     H 3219   2.103   4.763  12.007 -0.8118  1.8184  0.7658
  748MOL0     H 3220   2.046   5.175  12.074 -0.4217 -0.2932  3.4638
  748MOL0     H 3221   2.798   4.971  11.691  0.7664  0.5212 -0.5165
  748MOL0     H 3222   3.038   5.110  11.492 -0.3309 -0.0083 -0.0143
  748MOL0     H 3223   3.011   4.966  11.608 -3.4018  0.1761  1.4901
  748MOL0     H 3224   3.026   4.933  11.447 -2.9381 -0.8172 -0.3997
  749MOL0     O 3225   1.650   0.919   5.086 -0.5715 -0.1500 -0.6660
  749MOL0     C 3226   1.714   0.859   4.999 -1.0035 -0.8827  0.6790
  749MOL0     O 3227   1.650   0.770   4.906 -0.1618 -0.7639 -0.5164
  749MOL0     C 3228   1.526   0.721   4.924 -0.3755  0.4003  0.0630
  749MOL0     C 3229   1.455   0.689   4.807  0.3528  0.0002  0.6467
  749MOL0     C 3230   1.323   0.646   4.804  0.0316 -0.5075  0.0616
  749MOL0     C 3231   1.255   0.636   4.925  0.3415 -0.1747 -0.7215
  749MOL0     O 3232   1.115   0.617   4.933 -0.1199 -0.1558  0.4204
  749MOL0     C 3233   1.029   0.729   4.974 -0.4426 -0.1865 -0.2001
  749MOL0     C 3234   0.898   0.741   4.905 -0.4465 -0.7374  0.0166
  749MOL0     C 3235   0.914   0.770   4.755  0.3934  0.2518 -0.2119
  749MOL0     C 3236   0.778   0.793   4.684 -0.4253 -0.3578  0.3022
  749MOL0     C 3237   0.785   0.836   4.536  0.2780 -0.1924  0.6211
  749MOL0     C 3238   0.831   0.982   4.517 -0.4723  0.0346  0.0830
  749MOL0     C 3239   0.731   1.087   4.567  0.3411 -0.4278 -0.1111
  749MOL0     C 3240   0.796   1.202   4.647 -0.3702  0.2054 -0.0249
  749MOL0     N 3241   0.917   1.273   4.586 -0.4854 -0.5070 -0.4477
  749MOL0     C 3242   1.040   1.230   4.568  0.0161  0.2861  1.2394
  749MOL0     C 3243   1.119   1.331   4.517  0.4609  0.1268 -0.2545
  749MOL0     C 3244   1.261   1.328   4.464  0.8492 -0.9586  0.1898
  749MOL0     C 3245   1.261   1.230   4.343 -0.7129 -0.1955 -0.0374
  749MOL0     C 3246   1.387   1.240   4.259 -0.0706 -0.5011  0.3577
  749MOL0     C 3247   1.405   1.375   4.184  0.1085  0.5701 -0.1981
  749MOL0     O 3248   1.535   1.389   4.131 -0.0808 -0.4935 -0.1382
  749MOL0     C 3249   1.562   1.345   3.999  0.0860  0.3482  0.6515
  749MOL0     C 3250   1.472   1.296   3.906 -0.2339  0.2355 -0.4528
  749MOL0     C 3251   1.502   1.242   3.780  0.2466 -0.1807  0.4110
  749MOL0     C 3252   1.393   1.162   3.701  0.1152 -0.4438  0.1597
  749MOL0     C 3253   1.639   1.260   3.735  0.4991 -0.5626 -0.3886
  749MOL0     C 3254   1.690   1.218   3.603  1.0981 -0.2404  0.5958
  749MOL0     O 3255   1.601   1.201   3.499 -1.0615 -0.4547  0.1378
  749MOL0     C 3256   1.662   1.143   3.388  0.1420  1.2856  0.0562
  749MOL0     C 3257   1.679   1.002   3.392  0.0465 -0.0066 -0.1338
  749MOL0     C 3258   1.745   0.934   3.293 -0.2020  0.7939 -0.2313
  749MOL0     C 3259   1.812   1.004   3.188 -0.3290 -1.0876  0.3561
  749MOL0     O 3260   1.888   0.954   3.086 -0.1605  0.1287  0.2645
  749MOL0     C 3261   1.909   0.816   3.062 -0.9347 -0.5329  0.5634
  749MOL0     C 3262   2.053   0.803   3.008 -0.6490  0.9365 -0.0511
  749MOL0     C 3263   2.091   0.657   2.977  0.5743 -0.0914  0.0774
  749MOL0     C 3264   2.001   0.588   2.871 -0.7660 -0.7735 -0.0047
  749MOL0     C 3265   2.068   0.463   2.819 -0.4315 -0.9395 -0.8308
  749MOL0     C 3266   1.987   0.358   2.737 -0.7524 -0.5759  0.3689
  749MOL0     C 3267   2.082   0.230   2.733 -1.0401  0.2642  0.9349
  749MOL0     C 3268   2.013   0.128   2.641 -0.6762 -0.1380 -0.5973
  749MOL0    Cl 3269   2.036   0.192   2.465  0.2489  0.3834  0.2559
  749MOL0     C 3270   1.787   1.145   3.180  0.7342  0.2740 -0.6072
  749MOL0     C 3271   1.704   1.208   3.276 -0.1983 -0.3623 -0.5813
  749MOL0     O 3272   1.808   1.186   3.594 -0.5895  0.1841 -0.5625
  749MOL0     C 3273   1.737   1.314   3.823  0.8427 -2.2363  0.2573
  749MOL0     C 3274   1.696   1.359   3.951 -0.3787  0.0290  0.7018
  749MOL0     N 3275   1.042   1.442   4.520 -0.2320 -0.5908  0.3792
  749MOL0     N 3276   0.923   1.409   4.566  0.0015 -0.0006  0.9801
  749MOL0     C 3277   1.326   0.646   5.046 -0.6004  0.1428  0.5761
  749MOL0     C 3278   1.461   0.687   5.044 -0.1531 -0.3364  0.4366
  749MOL0     C 3279   1.855   0.858   4.992 -1.3354 -0.6390 -0.3926
  749MOL0     C 3280   1.929   0.750   4.930  0.1029  0.3176 -0.1616
  749MOL0     C 3281   2.070   0.754   4.929  0.2870  0.2368 -0.1608
  749MOL0     C 3282   2.140   0.851   4.996 -0.7666 -0.5181  0.5594
  749MOL0     O 3283   2.279   0.851   5.006 -0.7469 -0.1237 -0.4160
  749MOL0     C 3284   2.353   0.848   4.893  0.0390 -0.2640  0.0268
  749MOL0     C 3285   2.310   0.971   4.797  0.4335  0.8184 -1.0600
  749MOL0     C 3286   2.390   0.956   4.670 -0.6129 -0.2037  0.8878
  749MOL0     C 3287   2.369   1.071   4.576 -0.1937  0.1766 -0.5204
  749MOL0     C 3288   2.398   1.016   4.443  0.0521 -0.3443 -0.5640
  749MOL0     C 3289   2.417   0.995   4.324 -1.3874  0.7932 -0.2124
  749MOL0     C 3290   2.075   0.954   5.050  1.0897 -0.5523 -1.1441
  749MOL0     C 3291   1.936   0.970   5.038  0.1400 -0.2482 -0.2132
  749MOL0     C 3292   1.888   1.108   5.079 -0.5615 -0.2677 -0.2622
  749MOL0     H 3293   1.511   0.702   4.715  0.8284  2.9526  1.2565
  749MOL0     H 3294   1.266   0.610   4.718 -0.0969 -1.0335  0.3632
  749MOL0     H 3295   1.082   0.825   4.969  0.2303 -0.5708 -0.6448
  749MOL0     H 3296   0.999   0.720   5.079  1.3170  3.4408  0.7998
  749MOL0     H 3297   0.831   0.656   4.921 -1.9968  0.5333  0.6130
  749MOL0     H 3298   0.844   0.824   4.953 -2.4034 -1.0070 -1.5779
  749MOL0     H 3299   0.981   0.856   4.742  2.4152 -1.5048 -2.3526
  749MOL0     H 3300   0.964   0.692   4.697  0.2193 -0.0113 -0.0083
  749MOL0     H 3301   0.722   0.699   4.688  2.1686 -2.0474 -0.3181
  749MOL0     H 3302   0.715   0.856   4.746  1.1495  2.1698 -0.5193
  749MOL0     H 3303   0.685   0.828   4.493 -0.2166  1.2847  1.4097
  749MOL0     H 3304   0.861   0.782   4.480 -2.4435 -1.6738 -1.8853
  749MOL0     H 3305   0.928   0.989   4.566 -1.1007 -0.2212  1.3915
  749MOL0     H 3306   0.841   1.000   4.410 -1.1562 -0.0888 -0.0105
  749MOL0     H 3307   0.648   1.036   4.617 -1.4381  1.9020 -0.5044
  749MOL0     H 3308   0.688   1.135   4.479  2.2582 -0.2305 -0.9848
  749MOL0     H 3309   0.715   1.269   4.678 -0.5535 -0.1799  0.3262
  749MOL0     H 3310   0.821   1.157   4.744  0.6353  0.6372 -0.0739
  749MOL0     H 3311   1.069   1.126   4.580  0.9801 -0.0351 -2.5384
  749MOL0     H 3312   1.344   1.305   4.532  0.4111 -0.2060  0.9947
  749MOL0     H 3313   1.290   1.430   4.436 -1.6771 -0.4254 -0.7561
  749MOL0     H 3314   1.257   1.131   4.389  0.8724  0.4683  1.6653
  749MOL0     H 3315   1.181   1.246   4.270 -0.5697 -0.8554 -0.3418
  749MOL0     H 3316   1.473   1.231   4.325  1.3070  1.1545 -1.1417
  749MOL0     H 3317   1.386   1.156   4.189  2.9924  1.5720 -2.4593
  749MOL0     H 3318   1.330   1.401   4.109  0.5693 -1.4130 -1.4004
  749MOL0     H 3319   1.380   1.455   4.254  2.7615  1.6107 -0.3088
  749MOL0     H 3320   1.368   1.289   3.935 -1.2119 -1.2964 -3.7990
  749MOL0     H 3321   1.353   1.246   3.644  4.3523  1.9820  0.3603
  749MOL0     H 3322   1.310   1.122   3.760  0.4655  0.2668  1.1688
  749MOL0     H 3323   1.440   1.090   3.634  0.0748 -1.8590  1.5974
  749MOL0     H 3324   1.636   0.957   3.481 -0.2598 -0.7077 -0.6184
  749MOL0     H 3325   1.746   0.826   3.296 -3.3898  0.6798 -0.0651
  749MOL0     H 3326   1.889   0.746   3.144  0.0777 -4.6647 -2.4192
  749MOL0     H 3327   1.836   0.795   2.983  0.2702  2.3871 -1.5105
  749MOL0     H 3328   2.069   0.871   2.924 -3.2769  5.3546  2.6473
  749MOL0     H 3329   2.115   0.833   3.093  1.0878 -2.3834  0.0209
  749MOL0     H 3330   2.080   0.599   3.069  0.5028  0.7422  0.6025
  749MOL0     H 3331   2.197   0.666   2.954  0.1773 -0.7798 -2.4054
  749MOL0     H 3332   1.983   0.658   2.789 -4.2300  2.2984  2.9903
  749MOL0     H 3333   1.907   0.572   2.925 -1.1020  2.1663  0.4752
  749MOL0     H 3334   2.150   0.504   2.758 -1.9012  1.7507 -1.1851
  749MOL0     H 3335   2.104   0.414   2.910 -1.2740  0.2350  0.1651
  749MOL0     H 3336   1.967   0.383   2.632 -0.3891  1.0551  0.6500
  749MOL0     H 3337   1.889   0.339   2.779 -2.0721  2.6569 -0.9202
  749MOL0     H 3338   2.077   0.187   2.833  0.7949 -1.5793  0.3131
  749MOL0     H 3339   2.187   0.250   2.709 -1.1582 -0.0129  0.1877
  749MOL0     H 3340   1.904   0.133   2.650 -0.6516  0.3179 -0.5372
  749MOL0     H 3341   2.046   0.025   2.655  1.6144  0.5601 -0.4499
  749MOL0     H 3342   1.828   1.208   3.102 -4.2582  1.7720 -2.4042
  749MOL0     H 3343   1.684   1.313   3.261 -0.8804 -0.1657  1.3453
  749MOL0     H 3344   1.837   1.341   3.792 -0.0646  0.4379 -0.6474
  749MOL0     H 3345   1.762   1.406   4.023  0.5884 -0.5414  0.2125
  749MOL0     H 3346   1.280   0.630   5.143  1.1482  0.3689  1.4906
  749MOL0     H 3347   1.518   0.702   5.135  0.4339 -0.8665  0.1631
  749MOL0     H 3348   1.874   0.672   4.879 -1.4739  0.6124  1.0025
  749MOL0     H 3349   2.125   0.674   4.879 -1.4158 -0.8327 -0.4208
  749MOL0     H 3350   2.455   0.864   4.929  0.0015 -0.4693  0.2286
  749MOL0     H 3351   2.344   0.754   4.837 -1.1022  0.2010 -0.5952
  749MOL0     H 3352   2.336   1.067   4.842 -0.7737  2.1138 -2.9452
  749MOL0     H 3353   2.202   0.975   4.775  0.1856 -0.8229 -0.3094
  749MOL0     H 3354   2.493   0.956   4.707 -0.0677  0.3304 -0.5753
  749MOL0     H 3355   2.350   0.867   4.621 -0.4387  1.6351 -2.8894
  749MOL0     H 3356   2.440   1.149   4.603  0.1735 -1.3109  3.3682
  749MOL0     H 3357   2.267   1.105   4.596 -0.6962 -0.3733 -1.9623
  749MOL0     H 3358   2.417   0.980   4.218 -0.8404  0.3835 -0.1554
  749MOL0     H 3359   2.146   1.028   5.086 -0.9399  0.2790  1.4354
  749MOL0     H 3360   1.795   1.134   5.028 -2.5185  0.1179  3.2006
  749MOL0     H 3361   1.869   1.120   5.186 -1.7105 -1.2574 -0.3243
  749MOL0     H 3362   1.958   1.187   5.053 -0.8650 -0.0506 -0.4241
  750MOL0     O 3363   2.882   2.567   6.860 -0.3413  0.3175  0.2357
  750MOL0     C 3364   2.961   2.658   6.852 -0.4643 -1.0016 -0.3916
  750MOL0     O 3365   3.089   2.660   6.886  0.0431  0.4367 -0.7779
  750MOL0     C 3366   3.147   2.533   6.912  0.2370 -0.2217  0.0008
  750MOL0     C 3367   3.259   2.545   6.991  0.4535 -0.2749  0.3344
  750MOL0     C 3368   3.328   2.437   7.036  0.1505 -0.7462 -0.2305
  750MOL0     C 3369   3.297   2.308   6.995  0.9187 -0.0981 -0.4720
  750MOL0     O 3370   3.360   2.204   7.059  0.0622  0.3130  0.0553
  750MOL0     C 3371   3.381   2.091   6.965  0.3926  0.4638 -0.7332
  750MOL0     C 3372   3.505   2.011   7.004 -0.4026  0.3139 -0.8784
  750MOL0     C 3373   3.514   1.961   7.151  0.0299  0.8634  0.5226
  750MOL0     C 3374   3.656   1.906   7.179  0.0914 -0.8464  0.4782
  750MOL0     C 3375   3.661   1.809   7.300 -0.3985 -0.1041  0.3422
  750MOL0     C 3376   3.802   1.759   7.313  0.3662 -0.7761 -0.6097
  750MOL0     C 3377   3.830   1.647   7.412  0.1194  0.2507  0.2642
  750MOL0     C 3378   3.983   1.631   7.430 -0.3808 -0.2909 -0.1231
  750MOL0     N 3379   4.016   1.510   7.501  0.3332 -0.0519 -0.6642
  750MOL0     C 3380   3.980   1.495   7.635  0.1067  0.2792 -0.4144
  750MOL0     C 3381   4.006   1.364   7.657  0.3112  0.3225  0.2279
  750MOL0     C 3382   4.003   1.309   7.795  0.0419  0.7624 -0.2854
  750MOL0     C 3383   4.122   1.352   7.875 -0.6096 -0.2740  0.0035
  750MOL0     C 3384   4.233   1.245   7.874  0.6835  0.1391 -0.3860
  750MOL0     C 3385   4.351   1.302   7.941  0.0324  0.0118 -0.4101
  750MOL0     O 3386   4.389   1.425   7.867  0.0634  1.1633  0.8409
  750MOL0     C 3387   4.514   1.472   7.890  0.0802 -0.4835  0.5504
  750MOL0     C 3388   4.608   1.424   7.985  0.0544 -0.5210 -0.4325
  750MOL0     C 3389   4.734   1.484   8.015 -0.0870 -0.5079  0.6204
  750MOL0     C 3390   4.832   1.400   8.106  1.0460  0.1990  0.0856
  750MOL0     C 3391   4.770   1.600   7.940 -0.1535 -1.4029  0.0230
  750MOL0     C 3392   4.911   1.665   7.945  0.7451 -0.8385 -0.6144
  750MOL0     O 3393   4.994   1.631   8.045  0.0625 -0.3778  0.2416
  750MOL0     C 3394   5.096   1.724   8.054  0.2702  0.5439 -0.1381
  750MOL0     C 3395   5.220   1.665   8.033  0.3099  0.3699  0.4706
  750MOL0     C 3396   5.332   1.743   8.012 -0.2838 -0.1607 -0.1591
  750MOL0     C 3397   5.336   1.875   8.058 -0.1211  0.4967  0.4078
  750MOL0     O 3398   5.458   1.940   8.057  0.7638 -0.6832 -0.0779
  750MOL0     C 3399   5.542   1.882   8.149  0.4781  0.4028  0.0272
  750MOL0     C 3400   5.656   1.981   8.177  0.0028 -0.5209 -0.0219
  750MOL0     C 3401   5.754   1.919   8.289 -0.0093 -0.4004 -0.1001
  750MOL0     C 3402   5.821   2.015   8.387 -0.0578 -0.1032  0.1627
  750MOL0     C 3403   5.886   1.922   8.492 -0.5358 -0.7128 -0.5426
  750MOL0     C 3404   6.019   1.976   8.539 -0.5287 -0.2453 -0.2342
  750MOL0     C 3405   6.106   1.873   8.616 -0.4134 -0.0213  0.0351
  750MOL0     C 3406   6.247   1.928   8.640 -0.6486 -0.0088 -0.4368
  750MOL0    Cl 3407   6.326   1.855   8.507 -0.4164 -0.3382 -0.1387
  750MOL0     C 3408   5.213   1.930   8.100 -0.6523 -0.6130  0.2982
  750MOL0     C 3409   5.091   1.858   8.101  0.0809  0.0541  0.8624
  750MOL0     O 3410   4.939   1.736   7.844  0.3120 -0.4010 -0.8834
  750MOL0     C 3411   4.680   1.653   7.841 -0.1646 -0.0552 -0.1289
  750MOL0     C 3412   4.554   1.589   7.822 -0.0904 -0.6704  0.4981
  750MOL0     N 3413   4.060   1.304   7.547  0.1391  0.5094  0.6425
  750MOL0     N 3414   4.038   1.384   7.450 -0.4433  0.0413  0.0787
  750MOL0     C 3415   3.171   2.286   6.924  1.0274 -0.8084 -0.3116
  750MOL0     C 3416   3.110   2.406   6.873  0.2692  0.8279  0.9544
  750MOL0     C 3417   2.917   2.794   6.802 -0.4051  0.4578 -0.1815
  750MOL0     C 3418   3.000   2.879   6.722 -0.2200 -0.3871 -0.6842
  750MOL0     C 3419   2.945   2.995   6.663  0.0733  0.2268 -0.6689
  750MOL0     C 3420   2.816   3.033   6.684  0.0527 -0.0758  0.1544
  750MOL0     O 3421   2.752   3.138   6.628 -0.1470 -0.5205 -0.7466
  750MOL0     C 3422   2.800   3.187   6.501  0.0844 -0.1291 -0.2211
  750MOL0     C 3423   2.715   3.134   6.383  1.2296 -0.5840  0.4364
  750MOL0     C 3424   2.730   2.982   6.364 -0.3480 -0.3202 -0.4409
  750MOL0     C 3425   2.677   2.937   6.224 -0.3055  1.0442 -0.0889
  750MOL0     C 3426   2.797   2.975   6.144 -0.2639  0.1142  0.8745
  750MOL0     C 3427   2.891   3.005   6.074  0.4417  0.9492 -0.2292
  750MOL0     C 3428   2.739   2.951   6.765  0.1646  0.1856  1.0979
  750MOL0     C 3429   2.785   2.839   6.823 -0.1217  0.0117 -0.2477
  750MOL0     C 3430   2.687   2.778   6.918 -0.0943 -0.3037  0.2043
  750MOL0     H 3431   3.300   2.645   7.001 -0.5703 -0.0388  3.1671
  750MOL0     H 3432   3.419   2.448   7.094 -0.4007 -2.0604  0.9399
  750MOL0     H 3433   3.386   2.135   6.865 -2.3274  2.0508 -0.2919
  750MOL0     H 3434   3.292   2.028   6.972 -0.6780  2.0635  1.3836
  750MOL0     H 3435   3.503   1.925   6.937 -0.7978 -1.7563  1.6289
  750MOL0     H 3436   3.587   2.082   6.988  1.3056 -1.6594 -1.3048
  750MOL0     H 3437   3.491   2.035   7.228 -2.0954 -0.7151  1.4678
  750MOL0     H 3438   3.433   1.891   7.168  1.0225 -1.9457 -4.2978
  750MOL0     H 3439   3.698   1.850   7.095  1.6291 -0.3782  0.9158
  750MOL0     H 3440   3.726   1.988   7.199  1.1177 -1.5199 -0.2572
  750MOL0     H 3441   3.597   1.724   7.273 -0.6132 -0.0962  0.8244
  750MOL0     H 3442   3.625   1.844   7.397 -2.1691 -1.0796  0.0788
  750MOL0     H 3443   3.836   1.723   7.215  2.4401  0.2656 -0.3332
  750MOL0     H 3444   3.862   1.842   7.351 -0.5552 -0.0546 -0.7146
  750MOL0     H 3445   3.786   1.557   7.368 -1.1768  0.4556  1.0956
  750MOL0     H 3446   3.778   1.671   7.505 -1.1120  1.4631 -0.6823
  750MOL0     H 3447   4.035   1.634   7.333  1.6583  2.5206  0.9049
  750MOL0     H 3448   4.020   1.717   7.486 -3.2123 -1.0704  3.2849
  750MOL0     H 3449   3.937   1.570   7.701  0.3585  1.9457 -2.0392
  750MOL0     H 3450   4.000   1.200   7.792 -0.5865  0.8082 -2.0278
  750MOL0     H 3451   3.912   1.342   7.847  0.4856  1.2430  0.2000
  750MOL0     H 3452   4.151   1.451   7.842 -0.9125  0.5084  1.9395
  750MOL0     H 3453   4.095   1.365   7.981  0.7833  1.8222  0.1470
  750MOL0     H 3454   4.207   1.152   7.926  1.3974 -0.3462 -0.8790
  750MOL0     H 3455   4.259   1.211   7.773 -0.9876  0.3541 -0.9324
  750MOL0     H 3456   4.318   1.334   8.040  2.4879  2.8470 -0.3716
  750MOL0     H 3457   4.429   1.226   7.939 -1.3290 -1.4727 -2.5810
  750MOL0     H 3458   4.578   1.342   8.050 -1.4239  1.7109  1.8774
  750MOL0     H 3459   4.788   1.308   8.145  1.4640  0.2788  0.7734
  750MOL0     H 3460   4.853   1.457   8.197 -0.3195 -0.2858  0.7271
  750MOL0     H 3461   4.927   1.374   8.057  0.1002 -1.9588 -0.7299
  750MOL0     H 3462   5.227   1.557   8.020 -1.0163  0.4153 -0.8765
  750MOL0     H 3463   5.421   1.700   7.968  0.1918  2.0358 -1.4459
  750MOL0     H 3464   5.487   1.852   8.239 -0.9507  1.9924 -0.2841
  750MOL0     H 3465   5.599   1.801   8.101  1.9375  0.1635  1.9904
  750MOL0     H 3466   5.705   2.008   8.083  1.3189  0.9866  1.0440
  750MOL0     H 3467   5.619   2.075   8.218 -2.0186 -0.1871 -2.3765
  750MOL0     H 3468   5.829   1.857   8.239 -3.4604 -3.8384 -1.4876
  750MOL0     H 3469   5.691   1.856   8.351 -1.1031 -0.1372 -0.9111
  750MOL0     H 3470   5.760   2.088   8.440 -0.4324  1.9236 -2.8047
  750MOL0     H 3471   5.904   2.060   8.331  0.9957 -1.1559  0.8101
  750MOL0     H 3472   5.824   1.915   8.582  3.0012 -0.0907  2.1965
  750MOL0     H 3473   5.896   1.820   8.454  0.8673 -0.9849  0.4628
  750MOL0     H 3474   6.005   2.060   8.607  1.6685 -0.6182  0.7712
  750MOL0     H 3475   6.081   2.003   8.453  1.1764 -0.7094  0.7965
  750MOL0     H 3476   6.116   1.774   8.571 -0.6223 -0.4864  1.0027
  750MOL0     H 3477   6.055   1.864   8.712 -1.1340 -0.8559 -0.4172
  750MOL0     H 3478   6.286   1.878   8.729 -0.3474 -0.2639 -0.7083
  750MOL0     H 3479   6.255   2.037   8.636  1.8669 -0.1280 -0.3455
  750MOL0     H 3480   5.213   2.038   8.117 -3.4646 -0.3078 -1.0592
  750MOL0     H 3481   5.000   1.912   8.125 -0.3293 -0.6168  0.8688
  750MOL0     H 3482   4.693   1.736   7.773 -0.1907  1.1973  1.3423
  750MOL0     H 3483   4.497   1.643   7.747  0.1280  0.9256  1.4131
  750MOL0     H 3484   3.120   2.190   6.917 -0.7757 -0.2358  2.7917
  750MOL0     H 3485   3.017   2.387   6.820  1.3501  0.9121 -1.0430
  750MOL0     H 3486   3.106   2.866   6.707 -0.2106  0.8928 -1.8777
  750MOL0     H 3487   3.008   3.058   6.600  0.8059  0.2987  0.1234
  750MOL0     H 3488   2.794   3.296   6.510 -0.8899 -0.2911  1.7059
  750MOL0     H 3489   2.905   3.171   6.473  0.9939 -0.5339  2.9514
  750MOL0     H 3490   2.742   3.186   6.291 -2.0108 -2.2576 -1.6766
  750MOL0     H 3491   2.611   3.165   6.401  2.1393  2.4990  0.8165
  750MOL0     H 3492   2.833   2.957   6.390  0.6672  2.4568 -1.4279
  750MOL0     H 3493   2.677   2.946   6.452  0.4504  0.1541  0.2451
  750MOL0     H 3494   2.585   2.988   6.195 -0.7013 -0.0548 -0.8158
  750MOL0     H 3495   2.659   2.829   6.219  0.0741  1.0009 -0.6983
  750MOL0     H 3496   2.966   3.023   6.000 -1.4195  2.3347 -1.9194
  750MOL0     H 3497   2.637   2.982   6.784 -0.5605 -1.1026 -0.4378
  750MOL0     H 3498   2.633   2.852   6.978  1.9283  2.3577 -1.0564
  750MOL0     H 3499   2.605   2.719   6.875 -1.2273  0.3425  1.3780
  750MOL0     H 3500   2.745   2.720   6.990 -1.0960  0.0667  1.3634
  751MOL0     O 3501   9.754   0.225   2.105  0.1350  0.0395 -0.2470
  751MOL0     C 3502   9.790   0.261   2.221 -0.5753  0.0114 -0.4460
  751MOL0     O 3503   9.917   0.250   2.266  0.6799  0.1817 -0.2232
  751MOL0     C 3504  10.021   0.197   2.186  0.2753 -0.2178  0.4072
  751MOL0     C 3505  10.146   0.263   2.201 -0.1541 -0.0679  0.3675
  751MOL0     C 3506  10.261   0.218   2.137  0.6642 -0.2123 -0.5240
  751MOL0     C 3507  10.249   0.102   2.058  0.0285 -0.0012  0.4032
  751MOL0     O 3508  10.354   0.056   1.995  0.7460  0.4054  0.1198
  751MOL0     C 3509  10.409  -0.060   2.067  0.0895 -0.0345 -0.6685
  751MOL0     C 3510  10.556  -0.057   2.064  0.2597  0.3000  0.0513
  751MOL0     C 3511  10.608   0.067   2.131  0.2786 -0.1968 -0.0666
  751MOL0     C 3512  10.761   0.082   2.124  0.9289  0.4154  0.5408
  751MOL0     C 3513  10.805   0.224   2.131  0.1895  0.1346 -0.1120
  751MOL0     C 3514  10.759   0.304   2.003 -0.5701 -0.1813 -0.6799
  751MOL0     C 3515  10.847   0.423   1.979 -0.7241 -0.0393  0.3598
  751MOL0     C 3516  10.842   0.538   2.083 -0.6902  0.4155  0.1272
  751MOL0     N 3517  10.936   0.645   2.047  0.4001 -0.0797 -0.4369
  751MOL0     C 3518  10.916   0.767   1.993  0.2530 -0.5365 -0.1161
  751MOL0     C 3519  11.031   0.833   2.003 -0.7797  0.0960  0.1871
  751MOL0     C 3520  11.060   0.967   1.938 -0.3165 -0.0234 -0.7449
  751MOL0     C 3521  11.190   0.967   1.855 -1.0467 -0.3497 -0.0117
  751MOL0     C 3522  11.214   1.095   1.775  0.8499  0.0923  0.1548
  751MOL0     C 3523  11.353   1.128   1.725 -0.1792  0.4816 -0.1011
  751MOL0     O 3524  11.399   0.996   1.681  1.3878 -0.2468  0.0191
  751MOL0     C 3525  11.540   0.989   1.658 -0.8283  0.0733 -0.1758
  751MOL0     C 3526  11.637   1.094   1.648  0.8069  0.2582  0.1213
  751MOL0     C 3527  11.783   1.065   1.643 -0.4490  0.4742 -0.4753
  751MOL0     C 3528  11.867   1.193   1.656 -0.4791  0.0433  0.1019
  751MOL0     C 3529  11.821   0.937   1.645  0.0619 -0.4086  0.5095
  751MOL0     C 3530  11.966   0.903   1.655 -0.3997  0.1485 -0.4912
  751MOL0     O 3531  12.041   0.988   1.725  0.0520  0.9486  0.2136
  751MOL0     C 3532  12.175   0.990   1.704  0.1756 -0.4030  0.0861
  751MOL0     C 3533  12.229   1.052   1.594 -0.2162  0.6926  0.0238
  751MOL0     C 3534  12.372   1.062   1.590  0.1881  0.0081  0.5183
  751MOL0     C 3535  12.455   1.008   1.684  1.1626  0.0214  0.3421
  751MOL0     O 3536  12.587   1.018   1.671  0.2659 -0.5630  0.0364
  751MOL0     C 3537  12.652   0.889   1.663 -0.1104  0.3007  0.4484
  751MOL0     C 3538  12.758   0.903   1.555  0.2156 -0.1396  0.6763
  751MOL0     C 3539  12.830   0.775   1.523 -0.0499 -0.4593  0.1090
  751MOL0     C 3540  12.960   0.755   1.610  0.4481  0.2060  0.2513
  751MOL0     C 3541  13.041   0.625   1.572 -0.3013  0.2183  0.3135
  751MOL0     C 3542  13.134   0.569   1.681 -0.1268  0.4675  0.6843
  751MOL0     C 3543  13.205   0.445   1.633 -0.7245 -0.7206  0.4185
  751MOL0     C 3544  13.289   0.383   1.752  0.0363  0.2986 -0.4918
  751MOL0    Cl 3545  13.409   0.500   1.822 -0.1237  0.0983 -0.2827
  751MOL0     C 3546  12.402   0.951   1.799  0.2551  0.5565  0.3532
  751MOL0     C 3547  12.261   0.933   1.804  0.0119  0.2615  0.0912
  751MOL0     O 3548  11.997   0.788   1.634 -0.2293 -0.5561  0.3271
  751MOL0     C 3549  11.730   0.838   1.636 -0.0198  0.2110  0.7533
  751MOL0     C 3550  11.593   0.859   1.640 -0.2483  0.5139 -0.3506
  751MOL0     N 3551  11.122   0.750   2.063  0.1761  0.3409 -0.5577
  751MOL0     N 3552  11.059   0.638   2.092 -0.7126  0.5678  0.7514
  751MOL0     C 3553  10.127   0.028   2.050  0.0888  0.8877  0.2544
  751MOL0     C 3554  10.017   0.080   2.106  0.5164 -0.4441 -1.0016
  751MOL0     C 3555   9.687   0.306   2.310 -0.2720  0.1732  0.3318
  751MOL0     C 3556   9.700   0.265   2.443 -0.4009  0.1104 -0.1022
  751MOL0     C 3557   9.595   0.272   2.531 -0.7003 -0.2164 -1.1189
  751MOL0     C 3558   9.479   0.341   2.506  0.2117 -0.6843  0.5668
  751MOL0     O 3559   9.383   0.373   2.596  0.8028 -0.7596 -0.1570
  751MOL0     C 3560   9.405   0.369   2.733 -0.1094  0.5296 -0.2594
  751MOL0     C 3561   9.345   0.234   2.787 -1.1360 -0.5018 -0.2686
  751MOL0     C 3562   9.355   0.217   2.933 -0.0944 -0.9369  0.2915
  751MOL0     C 3563   9.390   0.083   2.986  0.4561  0.4201 -0.6243
  751MOL0     C 3564   9.534   0.068   2.964 -0.3679 -0.2884 -0.0124
  751MOL0     C 3565   9.652   0.062   2.935  0.6471 -0.0384  1.4345
  751MOL0     C 3566   9.465   0.385   2.377  0.7411 -0.2199  0.2239
  751MOL0     C 3567   9.565   0.363   2.271 -0.3648 -0.0621  0.0516
  751MOL0     C 3568   9.526   0.390   2.126  0.6843  0.0011  1.0739
  751MOL0     H 3569  10.153   0.342   2.276 -0.1572 -0.0612  0.3605
  751MOL0     H 3570  10.355   0.268   2.162  0.8388 -0.6457 -0.3204
  751MOL0     H 3571  10.379  -0.146   2.007 -0.5623  1.2150 -2.2116
  751MOL0     H 3572  10.361  -0.065   2.165 -1.4303  0.6719 -1.3296
  751MOL0     H 3573  10.590  -0.147   2.115  0.2206  0.5385  0.5039
  751MOL0     H 3574  10.581  -0.052   1.958 -0.9660  0.0685 -0.2718
  751MOL0     H 3575  10.561   0.156   2.087 -0.4886 -0.1813  0.7482
  751MOL0     H 3576  10.581   0.068   2.237 -0.0633 -1.3397 -0.1332
  751MOL0     H 3577  10.814   0.023   2.199  0.2836 -0.6197  0.2068
  751MOL0     H 3578  10.793   0.039   2.029 -3.0338  0.5348 -1.0693
  751MOL0     H 3579  10.915   0.225   2.128  0.2282  1.9040  0.5131
  751MOL0     H 3580  10.766   0.275   2.220  0.2689  0.2262 -0.1292
  751MOL0     H 3581  10.754   0.231   1.920 -0.9365 -0.2565 -0.5957
  751MOL0     H 3582  10.664   0.356   2.012  1.1561  3.1411 -0.3387
  751MOL0     H 3583  10.807   0.470   1.888 -1.0009  2.1837  1.5571
  751MOL0     H 3584  10.951   0.393   1.966 -1.0908 -0.8173 -1.0366
  751MOL0     H 3585  10.743   0.583   2.097 -1.3736 -0.1711 -2.3776
  751MOL0     H 3586  10.877   0.493   2.176  0.6758 -0.6414 -0.8507
  751MOL0     H 3587  10.817   0.792   1.954 -0.4776  2.3898  3.1148
  751MOL0     H 3588  11.066   1.044   2.015  2.4921  1.3147 -2.1375
  751MOL0     H 3589  10.974   1.006   1.883 -0.2908  0.1815 -0.6378
  751MOL0     H 3590  11.275   0.959   1.924 -0.7843  0.0401 -0.2900
  751MOL0     H 3591  11.190   0.880   1.789 -0.5912  2.3631 -3.9295
  751MOL0     H 3592  11.140   1.117   1.698  0.4226 -1.6061  0.0574
  751MOL0     H 3593  11.193   1.181   1.840  1.0543 -0.3827  0.8560
  751MOL0     H 3594  11.359   1.203   1.646  0.1620 -0.6344 -1.1881
  751MOL0     H 3595  11.418   1.162   1.806 -0.0207 -0.2364  0.0881
  751MOL0     H 3596  11.597   1.195   1.655 -3.6254 -1.3667  2.2610
  751MOL0     H 3597  11.965   1.189   1.606 -0.3736  0.9752  0.2217
  751MOL0     H 3598  11.893   1.205   1.761  2.9145 -2.7013 -0.2450
  751MOL0     H 3599  11.809   1.270   1.605 -1.1646  0.1974  1.1032
  751MOL0     H 3600  12.168   1.080   1.508 -1.1292 -0.9791  0.0953
  751MOL0     H 3601  12.413   1.107   1.500  0.8744 -0.4872  0.5793
  751MOL0     H 3602  12.696   0.863   1.760 -0.6467 -1.0650  0.3511
  751MOL0     H 3603  12.582   0.812   1.628 -0.4530 -0.8720  3.4549
  751MOL0     H 3604  12.714   0.940   1.462  2.6884 -2.6586 -1.7140
  751MOL0     H 3605  12.826   0.986   1.576  1.1924 -0.9254  0.6783
  751MOL0     H 3606  12.872   0.779   1.422  1.9229  0.2644  0.9089
  751MOL0     H 3607  12.765   0.688   1.537 -0.0014 -0.2344  2.0774
  751MOL0     H 3608  12.931   0.745   1.714  0.2523  2.9521  0.5523
  751MOL0     H 3609  13.024   0.844   1.601  0.1956  0.4932  1.1598
  751MOL0     H 3610  12.963   0.551   1.558 -1.5000  1.4412  0.3067
  751MOL0     H 3611  13.104   0.645   1.484 -1.1706  0.8455 -0.1817
  751MOL0     H 3612  13.076   0.545   1.770  1.6610  1.1849  2.1278
  751MOL0     H 3613  13.200   0.651   1.712 -2.3958  2.6920  0.0467
  751MOL0     H 3614  13.275   0.466   1.551 -0.3815  0.2065  0.9306
  751MOL0     H 3615  13.129   0.374   1.600 -1.7097 -0.3158  1.7187
  751MOL0     H 3616  13.338   0.294   1.710  0.0392 -1.1580  2.3576
  751MOL0     H 3617  13.207   0.352   1.818  1.9244 -0.1349  1.7515
  751MOL0     H 3618  12.470   0.925   1.879 -0.9931  0.0155  1.2817
  751MOL0     H 3619  12.217   0.908   1.900  0.9858 -0.0404  0.4645
  751MOL0     H 3620  11.765   0.735   1.636  1.0749  0.5764  1.1042
  751MOL0     H 3621  11.516   0.783   1.631 -2.3354  2.6761 -2.5671
  751MOL0     H 3622  10.128  -0.061   1.988  0.3614  0.1434  1.2959
  751MOL0     H 3623   9.919   0.035   2.095  0.7297 -1.7230  1.6847
  751MOL0     H 3624   9.790   0.213   2.475 -2.2692 -1.7140  2.6296
  751MOL0     H 3625   9.615   0.229   2.629 -4.0046  2.1867  0.8178
  751MOL0     H 3626   9.511   0.378   2.757  0.5843 -1.3780 -2.2976
  751MOL0     H 3627   9.350   0.456   2.771 -0.4087 -0.2619  1.2092
  751MOL0     H 3628   9.405   0.162   2.731  1.6379  1.6706 -0.2907
  751MOL0     H 3629   9.244   0.216   2.750 -1.1521 -0.0091 -0.4778
  751MOL0     H 3630   9.425   0.289   2.977 -1.0154 -0.3750  0.8915
  751MOL0     H 3631   9.261   0.246   2.982 -0.0749 -0.6212  0.1452
  751MOL0     H 3632   9.320   0.008   2.947 -0.9810  0.4949  1.5950
  751MOL0     H 3633   9.376   0.071   3.094  0.1443 -3.8395 -0.9363
  751MOL0     H 3634   9.753   0.046   2.902 -0.0566 -0.3068 -0.7007
  751MOL0     H 3635   9.374   0.438   2.352  1.7002  0.6063 -1.6532
  751MOL0     H 3636   9.599   0.443   2.065  0.9297 -1.0051  0.4720
  751MOL0     H 3637   9.502   0.296   2.076  0.5122 -0.9738  2.8796
  751MOL0     H 3638   9.443   0.461   2.127  0.9237  0.5136 -2.6467
  752MOL0     O 3639   2.165  10.773   8.248  0.2253 -0.0801 -0.5133
  752MOL0     C 3640   2.180  10.681   8.324 -0.4507  0.3751 -0.2173
  752MOL0     O 3641   2.286  10.597   8.321  0.9290  0.5974  1.2158
  752MOL0     C 3642   2.396  10.634   8.244 -0.8634 -0.2153 -1.4017
  752MOL0     C 3643   2.494  10.720   8.301 -0.9697  1.0783  0.2462
  752MOL0     C 3644   2.591  10.789   8.220 -0.2592  0.2956 -0.0798
  752MOL0     C 3645   2.579  10.771   8.084 -0.7620 -0.1036 -0.2022
  752MOL0     O 3646   2.665  10.842   8.013  0.1797 -0.3291 -0.5200
  752MOL0     C 3647   2.731  10.774   7.911 -0.0642 -0.0461  0.1859
  752MOL0     C 3648   2.814  10.653   7.962 -0.2001  0.2360  0.3715
  752MOL0     C 3649   2.885  10.594   7.844  0.7105 -0.6752  0.5253
  752MOL0     C 3650   3.003  10.506   7.866 -0.2867  0.1872  0.4447
  752MOL0     C 3651   3.043  10.431   7.741 -0.0198 -0.5210  0.0776
  752MOL0     C 3652   3.161  10.336   7.768  0.1200 -0.1365 -0.6952
  752MOL0     C 3653   3.292  10.402   7.811 -0.4006  0.6037 -0.3276
  752MOL0     C 3654   3.411  10.290   7.808  0.4542 -0.4262  0.4457
  752MOL0     N 3655   3.547  10.342   7.820 -0.6221 -0.5136  0.2056
  752MOL0     C 3656   3.605  10.399   7.927 -0.4412  0.1805  0.0124
  752MOL0     C 3657   3.743  10.398   7.895 -0.2146 -0.3792 -0.3988
  752MOL0     C 3658   3.866  10.441   7.972  0.8455 -0.2136  0.0609
  752MOL0     C 3659   3.841  10.413   8.119  0.3845 -0.4281 -0.3546
  752MOL0     C 3660   3.950  10.481   8.202  0.2943 -0.0358 -0.4284
  752MOL0     C 3661   3.936  10.446   8.356 -0.3364 -0.5100 -0.0449
  752MOL0     O 3662   4.006  10.530   8.447 -0.5015  0.3064 -0.5016
  752MOL0     C 3663   4.134  10.488   8.469  0.0325 -0.7526 -0.4819
  752MOL0     C 3664   4.163  10.371   8.545 -0.4771 -0.3130  0.4320
  752MOL0     C 3665   4.295  10.323   8.566  0.5365 -0.2106  0.4092
  752MOL0     C 3666   4.299  10.199   8.658  0.2192 -0.6694  0.4937
  752MOL0     C 3667   4.405  10.395   8.511 -0.2391 -0.5495 -0.5461
  752MOL0     C 3668   4.542  10.369   8.534 -1.3243 -0.2920 -0.8717
  752MOL0     O 3669   4.623  10.469   8.494 -0.2638 -0.4810  0.3823
  752MOL0     C 3670   4.761  10.435   8.484  0.1559  0.4225  0.9023
  752MOL0     C 3671   4.817  10.343   8.397 -0.1964  0.3401 -0.9293
  752MOL0     C 3672   4.955  10.323   8.384 -0.0768  0.0981 -0.3334
  752MOL0     C 3673   5.042  10.401   8.457 -0.1601  0.2018 -0.4578
  752MOL0     O 3674   5.181  10.399   8.457 -0.9236  0.0865 -0.0698
  752MOL0     C 3675   5.232  10.268   8.472  0.5906 -0.7024  0.2983
  752MOL0     C 3676   5.342  10.267   8.576 -0.5800  0.2234  0.4269
  752MOL0     C 3677   5.452  10.375   8.540  0.3325 -0.0045  0.7724
  752MOL0     C 3678   5.580  10.355   8.623 -1.3175  0.9639 -0.1941
  752MOL0     C 3679   5.696  10.445   8.576  0.5477  0.4504  0.3144
  752MOL0     C 3680   5.840  10.411   8.623 -0.3121 -0.0866  0.2076
  752MOL0     C 3681   5.848  10.397   8.778  1.2575  0.8822  0.5338
  752MOL0     C 3682   5.950  10.288   8.820  0.1320  0.7909 -0.6546
  752MOL0    Cl 3683   6.116  10.329   8.757  0.3149 -0.3269  0.3433
  752MOL0     C 3684   4.990  10.498   8.535 -0.7846 -0.3280 -0.4756
  752MOL0     C 3685   4.853  10.511   8.548 -0.5800 -0.4831 -0.0306
  752MOL0     O 3686   4.578  10.257   8.555  0.0373  0.1551  0.5739
  752MOL0     C 3687   4.367  10.502   8.421  0.1908 -0.2442 -0.1288
  752MOL0     C 3688   4.237  10.554   8.403 -0.3895 -0.0893 -0.3394
  752MOL0     N 3689   3.750  10.374   7.761  0.5712 -0.3177  0.3847
  752MOL0     N 3690   3.636  10.343   7.716 -0.6089  0.4074  0.4249
  752MOL0     C 3691   2.480  10.682   8.029  0.6565 -0.5972 -0.1564
  752MOL0     C 3692   2.386  10.616   8.107  0.2952 -0.4219 -0.6652
  752MOL0     C 3693   2.078  10.637   8.424 -0.0616 -0.1002  0.0071
  752MOL0     C 3694   2.098  10.527   8.514 -0.9289 -0.7628  0.4540
  752MOL0     C 3695   2.015  10.491   8.616  0.2853 -0.2886  1.0148
  752MOL0     C 3696   1.888  10.553   8.621 -0.8335  0.2791  0.9288
  752MOL0     O 3697   1.776  10.520   8.696  0.1387  0.0818 -0.0087
  752MOL0     C 3698   1.771  10.420   8.796  0.6278 -0.0412 -0.1204
  752MOL0     C 3699   1.626  10.394   8.824  0.2240  0.1828  0.3608
  752MOL0     C 3700   1.529  10.371   8.699  0.1760  0.1470 -0.3358
  752MOL0     C 3701   1.383  10.391   8.750 -0.6375 -1.3264 -0.0096
  752MOL0     C 3702   1.344  10.292   8.858  0.7416  0.5949  0.1330
  752MOL0     C 3703   1.308  10.212   8.941  0.6692 -0.6023  0.3655
  752MOL0     C 3704   1.863  10.659   8.533 -0.0574  0.1748 -0.5910
  752MOL0     C 3705   1.957  10.708   8.438  1.1014  0.5031  0.4579
  752MOL0     C 3706   1.906  10.820   8.363 -0.5143  0.3727 -0.6980
  752MOL0     H 3707   2.504  10.720   8.409 -2.6870 -0.8081  0.4621
  752MOL0     H 3708   2.671  10.845   8.268 -1.3647 -0.1114  2.4334
  752MOL0     H 3709   2.806  10.849   7.883 -0.7602  0.8124  0.5984
  752MOL0     H 3710   2.678  10.755   7.817  2.9020 -0.4980 -1.5439
  752MOL0     H 3711   2.885  10.673   8.043  1.4748 -3.4238  0.0231
  752MOL0     H 3712   2.751  10.574   8.004  0.8853 -1.1626 -0.5413
  752MOL0     H 3713   2.816  10.532   7.785  1.2757 -0.7689 -0.0522
  752MOL0     H 3714   2.917  10.666   7.768  1.7238 -0.5244  1.0797
  752MOL0     H 3715   3.090  10.569   7.890 -0.1022  0.4319 -0.7793
  752MOL0     H 3716   2.982  10.441   7.951  0.9383 -0.3947  0.3191
  752MOL0     H 3717   3.062  10.506   7.663 -0.2634 -1.8976 -1.3396
  752MOL0     H 3718   2.954  10.373   7.717 -0.1470 -1.8380  3.1970
  752MOL0     H 3719   3.129  10.270   7.849  2.2024  0.0436  0.3376
  752MOL0     H 3720   3.182  10.280   7.676  0.8675 -2.6506  0.9067
  752MOL0     H 3721   3.290  10.443   7.913  0.0833 -0.3657  0.0857
  752MOL0     H 3722   3.325  10.491   7.757  1.5182  2.0051  2.7959
  752MOL0     H 3723   3.399  10.214   7.886  0.4382 -0.9167 -0.0345
  752MOL0     H 3724   3.401  10.255   7.705  0.1802 -0.0513  0.3417
  752MOL0     H 3725   3.559  10.422   8.023 -1.1513  3.1539 -0.9459
  752MOL0     H 3726   3.892  10.545   7.951 -3.2361  1.7163  3.0562
  752MOL0     H 3727   3.945  10.376   7.934 -0.1001 -0.6440 -1.2685
  752MOL0     H 3728   3.744  10.451   8.150  0.4015 -1.0363  0.4702
  752MOL0     H 3729   3.842  10.306   8.139  0.3481 -0.3401  0.1227
  752MOL0     H 3730   4.047  10.444   8.169  0.8039  1.1045 -0.2819
  752MOL0     H 3731   3.946  10.590   8.194  1.9567  0.1992  1.2319
  752MOL0     H 3732   3.832  10.453   8.390  0.2092 -0.8638  1.8203
  752MOL0     H 3733   3.967  10.344   8.381 -1.8009 -0.7590  0.8557
  752MOL0     H 3734   4.077  10.315   8.582  0.2058 -0.4903  1.8054
  752MOL0     H 3735   4.232  10.204   8.745  0.5670 -1.4844  0.8140
  752MOL0     H 3736   4.393  10.184   8.711  0.6691 -4.7243 -1.1280
  752MOL0     H 3737   4.270  10.116   8.593 -3.6119  0.8674 -0.0568
  752MOL0     H 3738   4.739  10.287   8.346 -0.0832  0.9899 -1.8330
  752MOL0     H 3739   4.984  10.254   8.305 -0.1390 -0.8308  0.4222
  752MOL0     H 3740   5.156  10.200   8.511 -1.2858  0.3529 -1.4054
  752MOL0     H 3741   5.271  10.235   8.375  2.3276  0.4986  0.5349
  752MOL0     H 3742   5.295  10.290   8.672 -1.0673  3.5291 -0.4860
  752MOL0     H 3743   5.389  10.168   8.585 -0.9070  0.1405  1.3942
  752MOL0     H 3744   5.421  10.480   8.551 -1.2240  0.0468 -2.8410
  752MOL0     H 3745   5.478  10.354   8.436 -1.6566  0.8051  0.0593
  752MOL0     H 3746   5.610  10.250   8.624 -0.8937  1.0866 -0.1222
  752MOL0     H 3747   5.576  10.372   8.731  1.5353  0.6739  0.0253
  752MOL0     H 3748   5.685  10.447   8.467 -2.0822 -1.8551  0.4156
  752MOL0     H 3749   5.678  10.548   8.609 -1.3817 -0.2462  1.6396
  752MOL0     H 3750   5.916  10.486   8.598  0.0819 -1.4403 -3.2777
  752MOL0     H 3751   5.867  10.322   8.566  3.3724  0.5227  0.7686
  752MOL0     H 3752   5.755  10.371   8.830  1.2556 -0.0544  0.0893
  752MOL0     H 3753   5.877  10.492   8.823 -0.3337  1.1601  1.0470
  752MOL0     H 3754   5.926  10.185   8.789  2.5645  0.5085 -1.8385
  752MOL0     H 3755   5.954  10.294   8.929  1.4597 -1.1947 -0.5427
  752MOL0     H 3756   5.048  10.568   8.594  2.0935 -1.9208 -1.2693
  752MOL0     H 3757   4.818  10.591   8.613  2.3974  0.2661  0.7700
  752MOL0     H 3758   4.446  10.558   8.371 -0.8460  1.8366  0.4394
  752MOL0     H 3759   4.214  10.642   8.343 -2.2208 -2.7434 -3.9600
  752MOL0     H 3760   2.471  10.684   7.921 -0.7961  1.3356 -0.0750
  752MOL0     H 3761   2.307  10.560   8.057  1.2790 -0.8750 -1.7582
  752MOL0     H 3762   2.188  10.468   8.498 -0.8777 -0.8653  1.1044
  752MOL0     H 3763   2.036  10.419   8.694 -0.1062  0.1007  1.4813
  752MOL0     H 3764   1.814  10.330   8.750 -0.9103 -0.9905  0.1965
  752MOL0     H 3765   1.825  10.450   8.886 -3.7439  3.0150  1.8348
  752MOL0     H 3766   1.581  10.483   8.869 -2.1591  0.4270 -2.2501
  752MOL0     H 3767   1.610  10.317   8.900  0.6813  0.8991  1.1976
  752MOL0     H 3768   1.543  10.453   8.629 -4.4462  0.8587 -0.7528
  752MOL0     H 3769   1.546  10.272   8.655 -1.4286  0.8452 -2.7312
  752MOL0     H 3770   1.316  10.374   8.665  0.2961 -1.2468 -0.7709
  752MOL0     H 3771   1.366  10.492   8.790 -3.1042 -1.1784 -1.2304
  752MOL0     H 3772   1.280  10.130   9.003 -0.6501  0.5687  1.3924
  752MOL0     H 3773   1.767  10.708   8.546 -0.4266 -0.5693 -0.4671
  752MOL0     H 3774   1.797  10.828   8.374 -0.6750 -2.3039  0.6471
  752MOL0     H 3775   1.947  10.917   8.390 -2.5585  0.8094  1.1362
  752MOL0     H 3776   1.921  10.780   8.262  0.1805 -5.2096  1.2445
  753MOL0     O 3777   5.749  10.110   8.977 -0.3191  0.0068  0.1029
  753MOL0     C 3778   5.735  10.082   9.095 -0.2239  1.4793  1.2916
  753MOL0     O 3779   5.837  10.064   9.184  0.1065 -0.4086 -0.4152
  753MOL0     C 3780   5.963  10.119   9.151 -0.5113 -0.0837 -0.0506
  753MOL0     C 3781   6.047  10.063   9.051  0.2534 -0.2860  0.6481
  753MOL0     C 3782   6.175  10.111   9.014 -0.8276 -0.0309 -0.0984
  753MOL0     C 3783   6.218  10.233   9.080 -1.0400  0.3313  0.3003
  753MOL0     O 3784   6.336  10.304   9.058  0.1764  0.8843 -0.3089
  753MOL0     C 3785   6.420  10.236   8.957 -0.2608 -0.2142  0.0015
  753MOL0     C 3786   6.548  10.329   8.949 -0.0533  0.6332  0.3632
  753MOL0     C 3787   6.666  10.259   8.873  0.9545 -0.1939  0.4708
  753MOL0     C 3788   6.767  10.379   8.843  0.4687  0.6332 -0.2777
  753MOL0     C 3789   6.865  10.322   8.737  0.1022  0.1718  0.1651
  753MOL0     C 3790   6.959  10.440   8.701 -0.4714 -0.6204  0.5038
  753MOL0     C 3791   7.079  10.389   8.625  0.5249  0.2939 -0.1697
  753MOL0     C 3792   7.055  10.343   8.489  0.2614 -0.3848  0.3613
  753MOL0     N 3793   7.182  10.328   8.416 -0.6986 -0.3531 -0.2967
  753MOL0     C 3794   7.211  10.387   8.296 -0.4714 -0.2858 -0.5332
  753MOL0     C 3795   7.336  10.333   8.260 -0.4010  0.9037  0.3227
  753MOL0     C 3796   7.407  10.370   8.137 -0.7506  0.0129  0.2094
  753MOL0     C 3797   7.535  10.286   8.114 -0.7183 -0.9784 -0.3095
  753MOL0     C 3798   7.556  10.250   7.971  0.0734  0.4027 -0.0401
  753MOL0     C 3799   7.713  10.242   7.945  0.1057  1.0995  0.4070
  753MOL0     O 3800   7.740  10.169   7.821  0.0852  0.6717 -0.2699
  753MOL0     C 3801   7.767  10.238   7.708 -0.3959 -0.1095  0.8807
  753MOL0     C 3802   7.727  10.369   7.675  0.9862 -0.1976 -0.0321
  753MOL0     C 3803   7.781  10.441   7.569  0.0442 -0.1287  0.6408
  753MOL0     C 3804   7.734  10.585   7.559  1.2324 -0.1098 -0.1394
  753MOL0     C 3805   7.893  10.386   7.496 -0.3474  0.8022  0.6784
  753MOL0     C 3806   7.976  10.456   7.398  1.1131 -0.1782 -0.1444
  753MOL0     O 3807   8.054  10.370   7.318 -0.2560 -0.4430  0.1842
  753MOL0     C 3808   8.137  10.445   7.235  0.2245 -0.0867 -0.0970
  753MOL0     C 3809   8.149  10.423   7.102 -0.3875  1.0503 -0.9369
  753MOL0     C 3810   8.250  10.479   7.025  0.4204  0.3837  0.3903
  753MOL0     C 3811   8.342  10.564   7.076 -0.9187  0.0331 -0.1721
  753MOL0     O 3812   8.444  10.627   7.001  0.2183  0.7454  0.4128
  753MOL0     C 3813   8.395  10.694   6.877  0.5699  0.2747 -0.4342
  753MOL0     C 3814   8.516  10.769   6.830 -0.6788 -0.6916 -0.1336
  753MOL0     C 3815   8.548  10.878   6.930 -0.0272 -0.5295  0.1092
  753MOL0     C 3816   8.668  10.972   6.885 -0.1667  0.7529 -0.2395
  753MOL0     C 3817   8.707  11.092   6.982 -0.3343  0.4235 -0.0739
  753MOL0     C 3818   8.762  11.056   7.119  0.3184 -0.3540  0.1372
  753MOL0     C 3819   8.750  11.168   7.222  0.0056  0.2034  0.5079
  753MOL0     C 3820   8.811  11.130   7.355 -0.5454 -0.6584  0.7747
  753MOL0    Cl 3821   8.991  11.108   7.342  0.0873  0.1770 -0.1963
  753MOL0     C 3822   8.341  10.583   7.215 -0.0032 -0.5811 -0.2892
  753MOL0     C 3823   8.237  10.521   7.290  0.7520  0.3720 -0.4864
  753MOL0     O 3824   7.961  10.579   7.383  0.2374 -0.6740 -0.0451
  753MOL0     C 3825   7.925  10.257   7.532  0.1384 -0.3822 -0.1732
  753MOL0     C 3826   7.870  10.186   7.630  1.7334  0.4247 -0.1403
  753MOL0     N 3827   7.378  10.255   8.366 -0.4050 -0.4730 -0.4745
  753MOL0     N 3828   7.284  10.245   8.455  0.0182 -0.6691 -0.1763
  753MOL0     C 3829   6.138  10.291   9.180  0.9187 -0.1765  0.9699
  753MOL0     C 3830   6.012  10.229   9.220 -0.2417  0.0570  0.7462
  753MOL0     C 3831   5.604  10.051   9.132  0.0848 -1.0483 -0.9767
  753MOL0     C 3832   5.589   9.990   9.259  0.4082  0.3358  0.2392
  753MOL0     C 3833   5.463   9.954   9.304  0.1256  0.7242  0.2804
  753MOL0     C 3834   5.343  10.001   9.240  0.1395  0.7122  0.8266
  753MOL0     O 3835   5.215   9.953   9.267  0.2235 -0.8959  0.1795
  753MOL0     C 3836   5.186   9.845   9.367  0.3363  0.1539 -0.8082
  753MOL0     C 3837   5.116   9.908   9.487  1.1412  0.1973 -0.7409
  753MOL0     C 3838   5.031   9.791   9.554  0.4378  0.1021 -0.5776
  753MOL0     C 3839   4.939   9.836   9.662 -0.4701  0.1496  0.3018
  753MOL0     C 3840   4.879   9.704   9.702 -0.2475  0.0655  0.4416
  753MOL0     C 3841   4.841   9.600   9.748 -0.2072  0.1892  0.3417
  753MOL0     C 3842   5.364  10.076   9.127  0.3499 -0.1451 -0.4979
  753MOL0     C 3843   5.487  10.100   9.066  0.2261  0.8889  0.2652
  753MOL0     C 3844   5.484  10.186   8.943  0.7678  0.2689 -0.3042
  753MOL0     H 3845   5.997   9.989   8.989 -1.4831  0.8397  0.6247
  753MOL0     H 3846   6.220  10.075   8.922 -1.7795 -0.8004 -0.2768
  753MOL0     H 3847   6.376  10.227   8.857  3.3926  0.4164 -1.8458
  753MOL0     H 3848   6.463  10.141   8.989  1.6270  1.1335  1.7595
  753MOL0     H 3849   6.519  10.430   8.918  1.0620  1.2862  1.3839
  753MOL0     H 3850   6.584  10.342   9.051 -1.3789 -0.6734  1.0381
  753MOL0     H 3851   6.726  10.192   8.934  1.9314  0.3286  0.1095
  753MOL0     H 3852   6.636  10.215   8.777  2.3815  0.7702 -0.4604
  753MOL0     H 3853   6.725  10.475   8.812  2.2461  1.3180 -0.6948
  753MOL0     H 3854   6.823  10.399   8.935  1.8642 -0.8711 -0.7599
  753MOL0     H 3855   6.814  10.288   8.646 -1.3809  0.5590  0.8150
  753MOL0     H 3856   6.916  10.232   8.769 -1.4252 -1.3354 -1.3978
  753MOL0     H 3857   6.908  10.522   8.651  0.1604 -0.1266  0.6624
  753MOL0     H 3858   6.993  10.479   8.797  3.4877 -0.9820 -0.5874
  753MOL0     H 3859   7.103  10.300   8.684 -5.2189 -0.3327  1.7917
  753MOL0     H 3860   7.152  10.470   8.619 -0.2846  1.0115 -0.3655
  753MOL0     H 3861   6.997  10.250   8.500  0.1926 -0.1414  2.4396
  753MOL0     H 3862   7.000  10.415   8.428  1.3621  0.5046  0.3913
  753MOL0     H 3863   7.149  10.447   8.230 -0.0580 -1.2291 -1.8187
  753MOL0     H 3864   7.434  10.475   8.126  1.1915 -0.4694  0.0168
  753MOL0     H 3865   7.338  10.353   8.054 -0.1188  1.4592 -0.6533
  753MOL0     H 3866   7.614  10.357   8.141 -1.3356  0.6602 -2.4959
  753MOL0     H 3867   7.548  10.193   8.170 -0.0708 -0.6102  0.1649
  753MOL0     H 3868   7.504  10.156   7.950  2.9059 -1.2755 -0.1244
  753MOL0     H 3869   7.515  10.326   7.904  1.9549 -0.5314 -2.4036
  753MOL0     H 3870   7.763  10.339   7.949  1.9700  0.4657 -3.3030
  753MOL0     H 3871   7.769  10.196   8.027  0.2840 -1.5110 -1.0881
  753MOL0     H 3872   7.654  10.421   7.737  1.0924 -1.8775  1.5777
  753MOL0     H 3873   7.795  10.652   7.620 -0.5623  2.1818 -0.7027
  753MOL0     H 3874   7.633  10.601   7.598  1.6684  1.9474  0.2992
  753MOL0     H 3875   7.722  10.618   7.455 -1.1628  3.3073  1.0412
  753MOL0     H 3876   8.086  10.347   7.058  1.1100 -0.2264 -0.9633
  753MOL0     H 3877   8.255  10.448   6.921 -3.3972 -2.1488  0.7507
  753MOL0     H 3878   8.365  10.618   6.805  0.7786 -1.9853  1.7326
  753MOL0     H 3879   8.312  10.762   6.897  2.2087  1.8820  1.3163
  753MOL0     H 3880   8.603  10.704   6.832 -0.0109  0.1042  3.2837
  753MOL0     H 3881   8.514  10.812   6.729 -0.4828  0.2692  0.2582
  753MOL0     H 3882   8.581  10.833   7.025  1.0565 -2.4027 -1.0832
  753MOL0     H 3883   8.461  10.942   6.946 -0.9420 -1.4315 -1.0646
  753MOL0     H 3884   8.654  11.023   6.789  5.4492  2.2512 -0.6488
  753MOL0     H 3885   8.760  10.916   6.867  1.1537  3.2392 -1.8567
  753MOL0     H 3886   8.784  11.148   6.929  0.2545 -0.9707 -0.7579
  753MOL0     H 3887   8.617  11.150   7.002  0.5622  1.2881  1.6319
  753MOL0     H 3888   8.863  11.014   7.128  1.1172  1.7922  2.0963
  753MOL0     H 3889   8.696  10.975   7.152 -0.1181  1.5986  4.6954
  753MOL0     H 3890   8.644  11.185   7.243  0.0085  0.9996 -0.0765
  753MOL0     H 3891   8.791  11.259   7.176 -0.9371  0.8068  0.8237
  753MOL0     H 3892   8.752  11.052   7.404 -2.5353  1.0718  1.2835
  753MOL0     H 3893   8.807  11.226   7.409  2.4622  0.4805 -0.7893
  753MOL0     H 3894   8.410  10.649   7.267 -2.6298  0.3089  2.3317
  753MOL0     H 3895   8.237  10.534   7.398  0.1785  2.0178 -0.6653
  753MOL0     H 3896   8.001  10.199   7.480 -0.2061  0.5770 -1.7960
  753MOL0     H 3897   7.906  10.085   7.651  0.2861 -0.7598 -2.8377
  753MOL0     H 3898   6.188  10.372   9.231  1.3764  0.9259 -1.1447
  753MOL0     H 3899   5.955  10.282   9.296 -1.7174 -0.6953  0.2020
  753MOL0     H 3900   5.670   9.952   9.320  1.6230 -1.6643 -2.4219
  753MOL0     H 3901   5.454   9.902   9.399  0.0873  1.1835  0.5295
  753MOL0     H 3902   5.128   9.764   9.322  2.8350 -1.9106 -0.5507
  753MOL0     H 3903   5.278   9.794   9.396  0.2451  0.8573  0.8258
  753MOL0     H 3904   5.046   9.982   9.448 -3.8023 -2.0707  2.7721
  753MOL0     H 3905   5.188   9.947   9.558 -1.9196  1.3048  1.9953
  753MOL0     H 3906   4.967   9.751   9.474  1.3812 -3.2266  0.1490
  753MOL0     H 3907   5.094   9.707   9.586 -0.0725  0.9327  2.9629
  753MOL0     H 3908   4.867   9.914   9.634  0.6581  1.0988 -0.0231
  753MOL0     H 3909   4.994   9.857   9.754 -1.6712 -2.3329  1.6679
  753MOL0     H 3910   4.824   9.496   9.770 -1.7124  0.2160 -0.5340
  753MOL0     H 3911   5.270  10.104   9.079  0.1538 -1.7196 -1.0843
  753MOL0     H 3912   5.519  10.129   8.857  2.2761  0.6764  0.0213
  753MOL0     H 3913   5.381  10.211   8.913  0.5430 -0.5756 -0.2787
  753MOL0     H 3914   5.539  10.280   8.952  4.0546 -1.5089 -0.2728
  754MOL0     O 3915  10.013   5.096   8.282 -0.0603 -0.5442 -0.0106
  754MOL0     C 3916   9.979   5.140   8.392 -0.6264 -0.7136  0.0968
  754MOL0     O 3917  10.052   5.232   8.462  0.0656  0.0982 -0.0128
  754MOL0     C 3918  10.165   5.270   8.407 -1.2236  0.3100 -0.8484
  754MOL0     C 3919  10.294   5.211   8.443  0.6781  0.0798 -0.3263
  754MOL0     C 3920  10.405   5.249   8.375  0.2792 -0.2051  0.8927
  754MOL0     C 3921  10.405   5.350   8.272  0.4112  0.5606  0.6505
  754MOL0     O 3922  10.514   5.404   8.200 -0.2155 -0.5727  0.2773
  754MOL0     C 3923  10.652   5.344   8.212 -0.7916  0.0839  0.1380
  754MOL0     C 3924  10.729   5.405   8.334  0.1068 -0.3257 -0.0609
  754MOL0     C 3925  10.717   5.558   8.346  0.5125 -0.1441 -0.1376
  754MOL0     C 3926  10.783   5.602   8.475 -0.1603  0.4423  0.6913
  754MOL0     C 3927  10.793   5.754   8.486 -0.5021 -0.0473 -0.3839
  754MOL0     C 3928  10.891   5.819   8.390  0.0791 -0.8446 -0.0877
  754MOL0     C 3929  10.915   5.963   8.440 -0.2721 -0.0054 -0.3071
  754MOL0     C 3930  10.960   6.061   8.326  1.0310  0.6042  0.3803
  754MOL0     N 3931  11.101   6.026   8.282  0.3667  0.0910  1.5015
  754MOL0     C 3932  11.220   6.072   8.336  0.3223 -0.5414  0.0594
  754MOL0     C 3933  11.324   6.022   8.272 -1.1554  0.5309  1.4076
  754MOL0     C 3934  11.466   6.070   8.291 -0.0522 -0.2789  0.6091
  754MOL0     C 3935  11.531   6.018   8.418 -0.7582  0.0225  0.1382
  754MOL0     C 3936  11.544   6.125   8.518  0.4066 -1.7372  0.1815
  754MOL0     C 3937  11.661   6.228   8.482 -0.2972  0.4451  0.4203
  754MOL0     O 3938  11.784   6.161   8.463  0.8115  0.5760  1.0465
  754MOL0     C 3939  11.904   6.222   8.480  0.0775 -0.0179 -0.3802
  754MOL0     C 3940  11.934   6.360   8.464 -0.2750 -0.0651 -0.2032
  754MOL0     C 3941  12.067   6.416   8.492  0.4404  0.6008 -0.0789
  754MOL0     C 3942  12.079   6.563   8.495 -0.2246 -0.3517  0.3266
  754MOL0     C 3943  12.170   6.322   8.520 -0.3758  0.7091 -1.0956
  754MOL0     C 3944  12.308   6.361   8.570  0.2374  0.6005 -0.2349
  754MOL0     O 3945  12.373   6.263   8.619 -0.7997  0.1907 -0.5571
  754MOL0     C 3946  12.469   6.282   8.715  0.3156 -0.5815 -0.2187
  754MOL0     C 3947  12.465   6.207   8.830  0.1168  1.0342  0.0062
  754MOL0     C 3948  12.558   6.233   8.935 -0.2834  0.7145 -0.0388
  754MOL0     C 3949  12.667   6.322   8.917  0.3527  0.5608  0.2323
  754MOL0     O 3950  12.750   6.353   9.025  0.2663  0.3519 -0.2071
  754MOL0     C 3951  12.882   6.398   8.996 -0.0484  0.7200 -0.2807
  754MOL0     C 3952  12.978   6.368   9.119 -0.9041 -0.5549  0.8907
  754MOL0     C 3953  13.115   6.428   9.074 -0.1415 -0.4033  0.4087
  754MOL0     C 3954  13.221   6.414   9.178  0.6816 -0.2307  0.2405
  754MOL0     C 3955  13.352   6.477   9.115 -0.3181  0.1834 -0.0324
  754MOL0     C 3956  13.468   6.450   9.212 -0.3344 -0.9528  0.0743
  754MOL0     C 3957  13.469   6.546   9.328 -1.1232  0.1001 -0.2757
  754MOL0     C 3958  13.583   6.507   9.431  0.5349  0.3683 -0.8479
  754MOL0    Cl 3959  13.755   6.533   9.360 -0.1250 -0.6674  0.2535
  754MOL0     C 3960  12.666   6.393   8.791 -0.9888 -0.8742  0.5402
  754MOL0     C 3961  12.575   6.368   8.691 -0.1777  0.4062 -0.6966
  754MOL0     O 3962  12.356   6.473   8.551 -0.3524 -0.0696  0.4627
  754MOL0     C 3963  12.142   6.182   8.519 -0.6344  0.1639 -0.7438
  754MOL0     C 3964  12.008   6.132   8.511 -0.5987  0.1112  0.1645
  754MOL0     N 3965  11.266   5.937   8.171  0.0676 -0.1563  0.2487
  754MOL0     N 3966  11.140   5.941   8.181  0.4053 -0.7404 -0.2660
  754MOL0     C 3967  10.285   5.423   8.246  0.4037 -0.0887 -0.3116
  754MOL0     C 3968  10.168   5.373   8.310 -0.2220  0.2525  0.2606
  754MOL0     C 3969   9.845   5.110   8.442 -0.1588 -0.2662 -0.6388
  754MOL0     C 3970   9.789   5.211   8.524  0.0721  0.2661  0.6718
  754MOL0     C 3971   9.661   5.191   8.562 -0.1692  0.7559 -0.0150
  754MOL0     C 3972   9.579   5.091   8.512 -0.0703 -0.2995  0.0968
  754MOL0     O 3973   9.450   5.079   8.555 -0.4058 -0.5726 -0.2074
  754MOL0     C 3974   9.348   5.086   8.454  0.6633  0.7173 -1.0227
  754MOL0     C 3975   9.223   5.000   8.489  0.6698  0.0211 -0.3538
  754MOL0     C 3976   9.258   4.846   8.500  0.1408 -0.0416 -0.2812
  754MOL0     C 3977   9.130   4.770   8.544  0.2295 -0.3488  0.3921
  754MOL0     C 3978   9.012   4.787   8.449 -0.3698 -0.0476 -0.5798
  754MOL0     C 3979   8.915   4.810   8.376  0.4266 -0.8859 -0.2459
  754MOL0     C 3980   9.637   4.992   8.432  0.4179  0.8065 -0.0279
  754MOL0     C 3981   9.769   4.998   8.398 -0.3062  0.4395  0.0905
  754MOL0     C 3982   9.822   4.886   8.310 -0.7666 -0.8003 -0.4773
  754MOL0     H 3983  10.305   5.124   8.508 -0.6851  0.4427  0.4341
  754MOL0     H 3984  10.508   5.219   8.392  0.8420  0.6079 -0.8256
  754MOL0     H 3985  10.694   5.347   8.111 -1.1717 -0.5321 -0.0452
  754MOL0     H 3986  10.647   5.235   8.226 -3.2489 -0.2364 -2.3621
  754MOL0     H 3987  10.696   5.355   8.426 -1.2700 -1.8066 -1.2957
  754MOL0     H 3988  10.833   5.368   8.329  0.0113 -0.4627 -1.4685
  754MOL0     H 3989  10.760   5.601   8.255 -1.2340 -1.2745 -1.5614
  754MOL0     H 3990  10.615   5.596   8.355  1.5235  2.3638  2.7185
  754MOL0     H 3991  10.729   5.560   8.561 -0.9409  1.6133  0.7887
  754MOL0     H 3992  10.881   5.554   8.479  0.0066  0.6449 -0.6100
  754MOL0     H 3993  10.833   5.777   8.585  0.2786 -2.4857 -0.0625
  754MOL0     H 3994  10.694   5.795   8.461 -0.5143 -0.0486 -0.3353
  754MOL0     H 3995  10.984   5.764   8.373 -0.4424 -1.8855  0.3972
  754MOL0     H 3996  10.852   5.828   8.288  0.5078 -2.4239 -0.4201
  754MOL0     H 3997  10.999   5.960   8.510  1.3224 -0.1385 -2.1575
  754MOL0     H 3998  10.828   6.005   8.492 -0.9572 -2.7154  0.9288
  754MOL0     H 3999  10.880   6.061   8.251  2.0022 -0.4338 -0.6944
  754MOL0     H 4000  10.956   6.161   8.370  1.6465  1.8433 -2.1850
  754MOL0     H 4001  11.229   6.145   8.416  3.2728  0.2163 -0.8388
  754MOL0     H 4002  11.464   6.179   8.306  1.5532  0.0250 -1.0384
  754MOL0     H 4003  11.531   6.041   8.208  1.0582  3.7010 -0.1261
  754MOL0     H 4004  11.464   5.945   8.463 -0.3467 -0.5905 -0.2335
  754MOL0     H 4005  11.632   5.976   8.409 -0.6919 -1.1014  4.3235
  754MOL0     H 4006  11.449   6.175   8.538  0.8817  0.7322 -2.8742
  754MOL0     H 4007  11.579   6.080   8.611 -0.4531 -1.7563  0.5033
  754MOL0     H 4008  11.634   6.276   8.387 -0.4972 -1.6726 -0.6501
  754MOL0     H 4009  11.675   6.310   8.553 -1.6863  0.0508  1.1876
  754MOL0     H 4010  11.856   6.429   8.434  0.6933  1.1948  0.1078
  754MOL0     H 4011  12.143   6.581   8.408 -1.9571 -1.1778 -1.1947
  754MOL0     H 4012  12.123   6.606   8.585  3.4278 -1.7838 -0.5702
  754MOL0     H 4013  11.984   6.614   8.479 -0.4237 -1.1620 -1.3469
  754MOL0     H 4014  12.389   6.134   8.853 -0.1290  0.6159 -1.9082
  754MOL0     H 4015  12.554   6.165   9.019 -2.3812 -3.6168 -3.2920
  754MOL0     H 4016  12.926   6.356   8.905 -0.6955  1.5898 -1.0101
  754MOL0     H 4017  12.881   6.507   8.984 -3.7257  0.7075 -1.2398
  754MOL0     H 4018  12.942   6.410   9.213  0.7475 -0.2861  1.4266
  754MOL0     H 4019  12.990   6.259   9.118 -0.5726 -0.5711 -2.2238
  754MOL0     H 4020  13.107   6.535   9.055 -1.1814 -0.8488 -1.9982
  754MOL0     H 4021  13.151   6.377   8.984  3.0748  0.2633  1.2052
  754MOL0     H 4022  13.236   6.307   9.195 -0.8275 -0.5624 -0.3168
  754MOL0     H 4023  13.198   6.475   9.266  1.7809 -0.5066  0.7323
  754MOL0     H 4024  13.364   6.430   9.017 -0.9272 -3.8974  1.6531
  754MOL0     H 4025  13.335   6.584   9.101  0.2417  0.3047  0.1634
  754MOL0     H 4026  13.562   6.449   9.155 -1.4379 -1.3586 -1.8149
  754MOL0     H 4027  13.461   6.350   9.256  0.0908 -0.9501  0.1582
  754MOL0     H 4028  13.373   6.550   9.381 -0.9601 -0.6308  0.0792
  754MOL0     H 4029  13.485   6.646   9.286 -0.1619  0.1744  0.2431
  754MOL0     H 4030  13.568   6.400   9.446 -0.6652  0.5944 -0.2812
  754MOL0     H 4031  13.566   6.558   9.526 -1.2530  0.0260 -0.9325
  754MOL0     H 4032  12.749   6.463   8.786 -0.6731 -1.3157 -1.0781
  754MOL0     H 4033  12.586   6.426   8.600  2.1753  2.1672  0.5827
  754MOL0     H 4034  12.223   6.110   8.516  0.4627  1.3451 -0.4418
  754MOL0     H 4035  11.991   6.024   8.510 -1.1559  0.1906 -1.4337
  754MOL0     H 4036  10.282   5.504   8.174 -1.9774  0.6450  0.5170
  754MOL0     H 4037  10.077   5.428   8.287 -0.0332  0.4580  0.0020
  754MOL0     H 4038   9.840   5.305   8.546 -0.8776  1.7721 -2.8980
  754MOL0     H 4039   9.611   5.269   8.618 -1.5155 -1.0147  1.3970
  754MOL0     H 4040   9.324   5.188   8.426  0.7312  0.4579 -2.0539
  754MOL0     H 4041   9.387   5.049   8.359  0.8091 -1.4042 -0.2119
  754MOL0     H 4042   9.150   5.018   8.409  2.2675 -0.5863 -2.0275
  754MOL0     H 4043   9.178   5.037   8.581  0.9992  1.3977 -0.7134
  754MOL0     H 4044   9.290   4.808   8.403  1.6144  2.1116 -0.7073
  754MOL0     H 4045   9.349   4.831   8.560  3.0138  2.2792 -3.6526
  754MOL0     H 4046   9.099   4.795   8.646  1.5246 -2.7360  1.4415
  754MOL0     H 4047   9.150   4.663   8.557 -0.0580 -0.4712 -0.1403
  754MOL0     H 4048   8.847   4.823   8.294  1.3531  0.4119 -0.8597
  754MOL0     H 4049   9.573   4.918   8.386 -0.4441  1.7751 -0.4004
  754MOL0     H 4050   9.805   4.786   8.352 -1.2029 -0.1545  0.9209
  754MOL0     H 4051   9.769   4.903   8.216 -0.0695 -2.1101 -1.1306
  754MOL0     H 4052   9.930   4.891   8.296 -0.5962  0.7841  1.1147
  755MOL0     O 4053   8.093   9.939   7.864  1.0342  0.0560  0.2162
  755MOL0     C 4054   8.093  10.036   7.931 -0.1015 -0.5866  0.3136
  755MOL0     O 4055   8.020  10.050   8.045  0.0010 -0.4062 -0.1968
  755MOL0     C 4056   7.956   9.937   8.086  0.9596 -0.3109  0.2229
  755MOL0     C 4057   7.822   9.906   8.041 -0.8065 -0.0974 -0.5891
  755MOL0     C 4058   7.751   9.792   8.087 -0.9588  0.8719  0.4315
  755MOL0     C 4059   7.803   9.712   8.185 -0.4607 -0.9171 -0.5326
  755MOL0     O 4060   7.735   9.604   8.224 -0.0519  0.3233 -0.8093
  755MOL0     C 4061   7.814   9.483   8.227  1.0731  0.3620 -0.4659
  755MOL0     C 4062   7.815   9.402   8.357  0.3723  0.1794 -0.8686
  755MOL0     C 4063   7.949   9.414   8.414 -0.2913  0.0122 -0.6525
  755MOL0     C 4064   7.975   9.316   8.527 -0.5843 -0.9778  0.1097
  755MOL0     C 4065   8.132   9.313   8.565  0.2740  0.6535  0.4840
  755MOL0     C 4066   8.166   9.200   8.658 -0.5628 -0.4517  0.4722
  755MOL0     C 4067   8.307   9.142   8.641 -0.8874  0.6909 -0.2788
  755MOL0     C 4068   8.358   9.073   8.769  0.0102  1.3224 -0.2478
  755MOL0     N 4069   8.500   9.026   8.767 -0.2207 -0.0733 -0.2042
  755MOL0     C 4070   8.558   8.941   8.672 -1.1732  0.6105 -0.5355
  755MOL0     C 4071   8.692   8.930   8.711  0.8375 -0.1549 -0.0571
  755MOL0     C 4072   8.798   8.856   8.648 -0.1894 -0.2056  0.0945
  755MOL0     C 4073   8.913   8.963   8.615  0.1295 -0.8128  0.0615
  755MOL0     C 4074   9.032   8.899   8.537  0.0876  0.1068  0.1780
  755MOL0     C 4075   9.125   8.827   8.630 -0.1791 -0.2540 -1.0249
  755MOL0     O 4076   9.257   8.820   8.567  0.0822  0.6933  1.2874
  755MOL0     C 4077   9.369   8.771   8.626  0.0959  0.5825 -0.3904
  755MOL0     C 4078   9.373   8.751   8.764  0.4807 -0.2182  0.3791
  755MOL0     C 4079   9.486   8.700   8.827 -0.4053  0.0394 -0.2865
  755MOL0     C 4080   9.491   8.685   8.981  0.2913  0.2071 -0.8713
  755MOL0     C 4081   9.605   8.668   8.747 -0.4960 -0.5209  0.3771
  755MOL0     C 4082   9.723   8.599   8.795  0.1928 -0.9791  0.3143
  755MOL0     O 4083   9.832   8.613   8.709 -0.2088 -0.7113  0.1460
  755MOL0     C 4084   9.940   8.532   8.738  0.1797  0.3058 -0.7710
  755MOL0     C 4085   9.949   8.404   8.690  0.4186  0.5464 -0.3970
  755MOL0     C 4086  10.060   8.327   8.722 -0.1041  0.0839  0.0732
  755MOL0     C 4087  10.171   8.377   8.789  0.7716 -0.0729 -0.5880
  755MOL0     O 4088  10.285   8.310   8.805  0.5186 -0.2085 -0.1647
  755MOL0     C 4089  10.260   8.194   8.885 -0.0482  0.3831 -0.4880
  755MOL0     C 4090  10.404   8.141   8.918  0.9913  0.3740 -0.5744
  755MOL0     C 4091  10.471   8.059   8.807  0.5622  0.2236  0.5858
  755MOL0     C 4092  10.592   7.988   8.855 -0.6066 -0.2475 -0.1295
  755MOL0     C 4093  10.666   7.927   8.738 -0.6732 -0.3092  0.7803
  755MOL0     C 4094  10.607   7.796   8.674  0.7590 -0.1181 -0.3071
  755MOL0     C 4095  10.672   7.760   8.542  0.5564  0.7221 -0.7757
  755MOL0     C 4096  10.615   7.627   8.490  0.0077 -0.4393  0.9343
  755MOL0    Cl 4097  10.692   7.584   8.336  0.4254 -0.1719 -0.1227
  755MOL0     C 4098  10.160   8.503   8.835 -0.3601 -0.3014 -0.5296
  755MOL0     C 4099  10.045   8.582   8.815 -0.8222  0.1189 -0.1656
  755MOL0     O 4100   9.715   8.522   8.888 -0.6405 -0.2163  0.3104
  755MOL0     C 4101   9.592   8.694   8.610 -0.4036  0.1003  0.1628
  755MOL0     C 4102   9.480   8.750   8.549 -0.8729  0.6132  0.2061
  755MOL0     N 4103   8.710   9.018   8.817  0.5066 -0.0531  0.0655
  755MOL0     N 4104   8.592   9.066   8.853  0.4029 -0.3392  0.0513
  755MOL0     C 4105   7.934   9.740   8.238 -0.3330 -0.2458 -0.4341
  755MOL0     C 4106   8.008   9.851   8.188  0.4201 -0.6732  0.3732
  755MOL0     C 4107   8.148  10.154   7.862 -0.2576 -0.7288  0.3013
  755MOL0     C 4108   8.072  10.282   7.866 -0.0854  0.4799 -0.9190
  755MOL0     C 4109   8.129  10.392   7.806  0.9366 -0.2600  0.3072
  755MOL0     C 4110   8.255  10.384   7.747 -0.5929 -0.5396 -0.3984
  755MOL0     O 4111   8.320  10.488   7.680  0.4329 -0.0654  0.1002
  755MOL0     C 4112   8.256  10.616   7.696 -0.0594  0.0584 -0.0450
  755MOL0     C 4113   8.355  10.723   7.637  0.2435  0.2819 -0.3866
  755MOL0     C 4114   8.274  10.838   7.562 -0.0872  0.1687 -0.3146
  755MOL0     C 4115   8.371  10.966   7.563  1.2469 -0.0922  0.5061
  755MOL0     C 4116   8.467  10.937   7.458  0.4882  0.3145  0.0233
  755MOL0     C 4117   8.539  10.895   7.375 -0.1670 -0.4212  0.5053
  755MOL0     C 4118   8.322  10.261   7.735  0.1983  0.7936  0.3214
  755MOL0     C 4119   8.268  10.147   7.790 -0.6319  0.4910  0.1841
  755MOL0     C 4120   8.340  10.014   7.772  0.4922  0.8839 -0.6299
  755MOL0     H 4121   7.794   9.970   7.958 -4.5080  0.5163  0.9204
  755MOL0     H 4122   7.649   9.774   8.054 -0.6019 -1.2419  0.3061
  755MOL0     H 4123   7.911   9.505   8.182  1.6564 -0.7946  0.1610
  755MOL0     H 4124   7.770   9.409   8.159 -0.8278  1.6986 -0.7570
  755MOL0     H 4125   7.739   9.437   8.427  2.8475 -2.3365  3.5399
  755MOL0     H 4126   7.808   9.295   8.335  1.9388 -0.2103  0.3859
  755MOL0     H 4127   8.021   9.394   8.334 -0.5853 -1.7602 -0.5349
  755MOL0     H 4128   7.960   9.511   8.462 -3.2222  0.0035  0.2361
  755MOL0     H 4129   7.911   9.343   8.611  0.9842  0.5678  0.8816
  755MOL0     H 4130   7.940   9.217   8.497 -3.1501 -0.4587  1.1583
  755MOL0     H 4131   8.172   9.413   8.584 -1.9503  1.7260 -0.1095
  755MOL0     H 4132   8.177   9.289   8.468 -1.5866  1.4046 -0.6242
  755MOL0     H 4133   8.147   9.231   8.761  0.9052 -0.2939  0.7092
  755MOL0     H 4134   8.091   9.122   8.643 -1.3241  0.6484 -2.1187
  755MOL0     H 4135   8.370   9.230   8.625 -2.9658  2.2308 -0.3666
  755MOL0     H 4136   8.303   9.069   8.560 -2.1943 -1.6946  1.8044
  755MOL0     H 4137   8.339   9.139   8.855 -2.2605  0.9026 -0.3542
  755MOL0     H 4138   8.299   8.981   8.779  3.4605 -1.2984 -1.9721
  755MOL0     H 4139   8.513   8.876   8.597 -2.1657  1.0850 -0.3618
  755MOL0     H 4140   8.767   8.805   8.557 -2.3199 -1.1730  1.2859
  755MOL0     H 4141   8.837   8.785   8.721  0.3627  2.3274  2.4438
  755MOL0     H 4142   8.853   9.030   8.553 -0.7088 -1.6804 -0.0770
  755MOL0     H 4143   8.949   9.021   8.701  1.5416  0.0849 -1.0892
  755MOL0     H 4144   8.990   8.842   8.454 -0.6416 -0.5387  0.9734
  755MOL0     H 4145   9.085   8.987   8.500  0.9980 -0.5445 -0.1047
  755MOL0     H 4146   9.123   8.872   8.730  0.9979  1.2330 -1.6261
  755MOL0     H 4147   9.077   8.730   8.648 -1.2479  0.6732  1.6093
  755MOL0     H 4148   9.281   8.767   8.819  1.3932  0.7534  1.6888
  755MOL0     H 4149   9.573   8.729   9.039 -2.5769  0.3656  3.5313
  755MOL0     H 4150   9.482   8.579   9.007  0.0237  0.3369 -0.4340
  755MOL0     H 4151   9.401   8.732   9.019  0.7558  0.7226 -0.3922
  755MOL0     H 4152   9.868   8.359   8.633  2.1599 -0.1137 -2.4831
  755MOL0     H 4153  10.074   8.232   8.671  2.0553 -0.0814  0.8605
  755MOL0     H 4154  10.214   8.224   8.979 -0.0788  1.3407 -0.7944
  755MOL0     H 4155  10.210   8.115   8.828  3.0894 -3.2012  1.2230
  755MOL0     H 4156  10.468   8.228   8.935  1.2295 -0.0486  0.7992
  755MOL0     H 4157  10.398   8.068   8.999  1.6403  0.5564 -0.3581
  755MOL0     H 4158  10.488   8.133   8.729 -0.4808  1.7163  1.7204
  755MOL0     H 4159  10.397   7.988   8.770  2.2495 -2.1384  1.4595
  755MOL0     H 4160  10.564   7.901   8.917  2.5295 -1.1582  0.1747
  755MOL0     H 4161  10.652   8.046   8.925  0.4659 -2.5256  0.9449
  755MOL0     H 4162  10.676   8.003   8.660 -1.8572 -0.2852  0.6277
  755MOL0     H 4163  10.765   7.896   8.772 -1.0180 -1.3731  0.8610
  755MOL0     H 4164  10.502   7.814   8.650  0.1449 -0.9085  1.6032
  755MOL0     H 4165  10.611   7.712   8.744  0.1095 -0.4336 -0.6377
  755MOL0     H 4166  10.779   7.747   8.558  0.1881 -1.0019  0.7320
  755MOL0     H 4167  10.653   7.844   8.476 -2.2780  1.1272  0.3775
  755MOL0     H 4168  10.505   7.629   8.485  0.0086  1.5058  0.7344
  755MOL0     H 4169  10.652   7.551   8.559  1.3618 -3.7892 -3.0854
  755MOL0     H 4170  10.245   8.540   8.891 -0.8885 -0.1773  0.1935
  755MOL0     H 4171  10.036   8.685   8.851 -1.0758  0.6294 -1.6255
  755MOL0     H 4172   9.669   8.672   8.536 -0.7798 -0.8474  0.0341
  755MOL0     H 4173   9.485   8.768   8.442  0.3649 -1.3906 -0.1289
  755MOL0     H 4174   7.975   9.680   8.319  0.5661 -0.5148 -1.0723
  755MOL0     H 4175   8.092   9.893   8.242  0.0843  2.1611 -1.0873
  755MOL0     H 4176   7.982  10.290   7.927  1.2411 -2.2539  1.6966
  755MOL0     H 4177   8.074  10.485   7.792  2.4300  0.8822  1.6269
  755MOL0     H 4178   8.164  10.611   7.636 -1.4289 -1.3623  2.0343
  755MOL0     H 4179   8.228  10.645   7.798 -0.4355 -0.4257 -0.0046
  755MOL0     H 4180   8.414  10.664   7.566 -3.1590 -1.5129 -1.9371
  755MOL0     H 4181   8.424  10.760   7.714 -0.6128 -0.4754  0.7699
  755MOL0     H 4182   8.252  10.803   7.461 -1.9965 -2.7390  0.9675
  755MOL0     H 4183   8.178  10.856   7.612  0.5063 -0.7836  1.2417
  755MOL0     H 4184   8.430  10.975   7.654 -0.0174 -2.3095  1.6430
  755MOL0     H 4185   8.328  11.063   7.535 -0.7698 -0.8436  0.8186
  755MOL0     H 4186   8.607  10.850   7.306 -0.1691  1.1362 -0.5635
  755MOL0     H 4187   8.417  10.247   7.684  0.2192 -0.1398  0.5981
  755MOL0     H 4188   8.440  10.038   7.734  1.3305 -2.2846 -0.7434
  755MOL0     H 4189   8.348   9.954   7.864 -0.6141  0.7514 -0.6146
  755MOL0     H 4190   8.288   9.956   7.696 -1.4556  2.1115 -0.2857
  756MOL0     O 4191   5.983   7.540   2.931  0.1663 -0.4584  0.1863
  756MOL0     C 4192   6.077   7.608   2.917 -0.6022 -0.7977 -0.1808
  756MOL0     O 4193   6.158   7.601   2.813 -0.7705 -0.1014  0.6148
  756MOL0     C 4194   6.129   7.526   2.706 -1.1124 -1.1450  0.0664
  756MOL0     C 4195   6.126   7.387   2.714  1.0278 -0.3276 -0.0178
  756MOL0     C 4196   6.117   7.305   2.597 -0.2832 -0.5432  0.7043
  756MOL0     C 4197   6.122   7.368   2.472  0.7828 -0.0080 -0.2605
  756MOL0     O 4198   6.110   7.281   2.364 -0.9352  0.0664 -0.5181
  756MOL0     C 4199   6.103   7.345   2.242  0.2134 -0.1759  0.2379
  756MOL0     C 4200   6.057   7.243   2.136 -0.2405  0.0697 -0.0194
  756MOL0     C 4201   6.157   7.128   2.117 -0.3264 -0.1628  0.0351
  756MOL0     C 4202   6.294   7.173   2.071  0.8573 -0.3012  0.2090
  756MOL0     C 4203   6.371   7.050   2.019 -0.6438  0.5142  0.2701
  756MOL0     C 4204   6.519   7.083   2.001 -0.7452  0.0682 -0.1893
  756MOL0     C 4205   6.605   7.095   2.127  1.3624 -0.7497  0.8293
  756MOL0     C 4206   6.751   7.126   2.093  0.0261  0.6631 -0.3986
  756MOL0     N 4207   6.846   7.135   2.201  0.8336  0.2569 -0.7225
  756MOL0     C 4208   6.976   7.107   2.194 -0.3049  0.3246  0.5290
  756MOL0     C 4209   7.028   7.132   2.320 -0.3843  0.7597  0.6411
  756MOL0     C 4210   7.172   7.142   2.356 -0.1926  0.2769 -0.2570
  756MOL0     C 4211   7.221   7.002   2.417 -0.3473 -1.1563 -0.1264
  756MOL0     C 4212   7.375   7.013   2.446  0.3262  0.0392 -0.0801
  756MOL0     C 4213   7.457   6.887   2.456 -0.1494 -0.1271 -0.4365
  756MOL0     O 4214   7.595   6.922   2.455  0.2331  0.0152  0.2392
  756MOL0     C 4215   7.658   6.975   2.568 -0.4138 -0.9199 -0.5010
  756MOL0     C 4216   7.608   6.977   2.698 -0.5373  0.0998  0.1156
  756MOL0     C 4217   7.669   7.037   2.807  0.1804  0.4259  0.3759
  756MOL0     C 4218   7.617   7.023   2.951  0.3724  0.1836 -0.2425
  756MOL0     C 4219   7.799   7.089   2.783 -0.3355 -0.0394 -0.0175
  756MOL0     C 4220   7.885   7.137   2.880 -0.7232 -0.6003 -0.1885
  756MOL0     O 4221   7.926   7.054   2.975  0.1220 -0.0118 -0.3472
  756MOL0     C 4222   8.048   7.065   3.043 -0.1072  0.6566 -0.1897
  756MOL0     C 4223   8.062   7.014   3.181  0.2430 -0.3858  0.4289
  756MOL0     C 4224   8.184   7.034   3.254 -0.6008  0.0170  0.2691
  756MOL0     C 4225   8.292   7.097   3.184  0.5850 -0.0533 -0.1375
  756MOL0     O 4226   8.404   7.088   3.258  0.7728 -0.8847  0.1364
  756MOL0     C 4227   8.518   7.174   3.234  1.2115  0.7245  0.6068
  756MOL0     C 4228   8.631   7.108   3.323 -0.4666 -0.3977  0.0674
  756MOL0     C 4229   8.699   6.980   3.251 -0.6214  0.4932 -0.3951
  756MOL0     C 4230   8.808   6.925   3.341 -0.3204 -0.0693  0.3154
  756MOL0     C 4231   8.836   6.784   3.285  0.2929  0.6581  0.1341
  756MOL0     C 4232   8.898   6.699   3.394  0.4984  0.9673  0.6399
  756MOL0     C 4233   9.019   6.762   3.461 -1.4436  1.2485 -0.0320
  756MOL0     C 4234   9.110   6.657   3.529 -0.1979 -0.0446  0.4263
  756MOL0    Cl 4235   9.189   6.540   3.414  0.0945 -0.1608  0.0652
  756MOL0     C 4236   8.284   7.146   3.054 -0.0238  0.6881  0.0602
  756MOL0     C 4237   8.158   7.129   2.988 -0.8160  0.9190  0.7159
  756MOL0     O 4238   7.919   7.257   2.882 -0.3277  0.0302  0.4488
  756MOL0     C 4239   7.845   7.092   2.652 -0.1516  0.2292 -0.1195
  756MOL0     C 4240   7.775   7.038   2.543  0.1580 -0.6799 -0.9080
  756MOL0     N 4241   6.925   7.179   2.398  0.0843  0.3544  0.5374
  756MOL0     N 4242   6.817   7.188   2.325 -0.4790  0.2034  0.0193
  756MOL0     C 4243   6.116   7.507   2.466 -0.1492 -0.1759 -0.0321
  756MOL0     C 4244   6.117   7.585   2.580 -0.6193  1.2663 -0.2693
  756MOL0     C 4245   6.135   7.704   3.021 -0.4248  1.2002 -0.0037
  756MOL0     C 4246   6.248   7.786   2.980  0.2967 -0.3715  0.3822
  756MOL0     C 4247   6.306   7.887   3.067  1.0485 -0.1040 -0.0221
  756MOL0     C 4248   6.248   7.896   3.199 -0.1743  0.2536  1.1925
  756MOL0     O 4249   6.300   7.976   3.295 -0.2344  0.6319  0.5700
  756MOL0     C 4250   6.439   8.015   3.292 -0.3427  0.0290  0.1224
  756MOL0     C 4251   6.512   7.894   3.352  0.1488 -0.0619 -0.1886
  756MOL0     C 4252   6.666   7.908   3.343 -0.3136 -0.0863 -1.0221
  756MOL0     C 4253   6.720   7.773   3.400  0.0296  0.0426 -0.1306
  756MOL0     C 4254   6.859   7.774   3.428  0.7509 -0.6078 -0.0308
  756MOL0     C 4255   6.978   7.788   3.449  0.0808 -0.0804 -0.1579
  756MOL0     C 4256   6.131   7.821   3.237 -0.1256 -0.7390  0.0511
  756MOL0     C 4257   6.082   7.730   3.148  1.1865 -0.2334 -0.6357
  756MOL0     C 4258   5.962   7.647   3.200  1.0346  0.4029  0.4635
  756MOL0     H 4259   6.130   7.336   2.810  1.0951 -0.0325  0.1398
  756MOL0     H 4260   6.097   7.199   2.614 -2.0077 -0.4876 -0.7000
  756MOL0     H 4261   6.202   7.384   2.215  0.1341  0.3250  0.6422
  756MOL0     H 4262   6.026   7.424   2.240  0.9548  0.6369  1.9321
  756MOL0     H 4263   5.958   7.199   2.152 -1.5376  0.7611 -4.5844
  756MOL0     H 4264   6.039   7.306   2.048  2.3855  1.0741  0.0791
  756MOL0     H 4265   6.172   7.065   2.206  0.5569 -0.4869 -0.3238
  756MOL0     H 4266   6.112   7.066   2.039 -1.7683 -1.3631  1.7439
  756MOL0     H 4267   6.275   7.244   1.990 -0.8971 -2.6097 -1.5549
  756MOL0     H 4268   6.342   7.229   2.152 -0.4522 -0.0320  0.8367
  756MOL0     H 4269   6.328   7.028   1.921 -1.3637 -3.4674  1.3058
  756MOL0     H 4270   6.360   6.965   2.087 -3.4229  0.8405  0.3571
  756MOL0     H 4271   6.566   7.007   1.937  1.2594  1.1040 -0.0272
  756MOL0     H 4272   6.532   7.169   1.934  2.0787 -0.1675 -0.0691
  756MOL0     H 4273   6.596   7.000   2.180 -0.1824  0.4018  2.7855
  756MOL0     H 4274   6.565   7.182   2.180  2.9986  0.0806  0.7514
  756MOL0     H 4275   6.778   7.039   2.032 -0.4672 -1.0139  1.6404
  756MOL0     H 4276   6.749   7.221   2.039  2.9008  1.0216 -0.0197
  756MOL0     H 4277   7.046   7.083   2.115  0.3794 -0.9047  1.4538
  756MOL0     H 4278   7.191   7.216   2.434  0.7646  0.1316 -0.3371
  756MOL0     H 4279   7.222   7.175   2.265 -1.6025  3.3811 -0.0369
  756MOL0     H 4280   7.167   6.982   2.510 -1.0944 -4.5026 -1.1416
  756MOL0     H 4281   7.202   6.925   2.341  0.2642  0.2740 -1.8039
  756MOL0     H 4282   7.422   7.073   2.368 -0.6905  1.7596  0.5727
  756MOL0     H 4283   7.383   7.065   2.542  0.2383  1.4324 -0.7926
  756MOL0     H 4284   7.435   6.821   2.541  0.7263 -0.6584 -0.6190
  756MOL0     H 4285   7.433   6.819   2.373  0.7429 -0.4253 -0.4552
  756MOL0     H 4286   7.507   6.941   2.712 -1.1955  1.7793  0.0264
  756MOL0     H 4287   7.633   7.114   3.010  0.6769 -2.1169  3.5830
  756MOL0     H 4288   7.673   6.952   3.012  0.7091  0.1713 -0.5603
  756MOL0     H 4289   7.509   7.006   2.947  0.3525  0.3768 -0.6372
  756MOL0     H 4290   7.969   6.987   3.229 -0.7266  2.5792  0.4640
  756MOL0     H 4291   8.190   6.989   3.353 -2.3653 -0.8708  0.0210
  756MOL0     H 4292   8.556   7.171   3.132 -0.0732 -0.6872  0.1339
  756MOL0     H 4293   8.503   7.280   3.257 -0.9626  0.4111  0.7675
  756MOL0     H 4294   8.705   7.188   3.336  0.1100 -0.4221 -2.5055
  756MOL0     H 4295   8.608   7.075   3.424 -0.2351 -1.7669 -0.3112
  756MOL0     H 4296   8.745   7.012   3.157  1.8799  0.5638  0.7781
  756MOL0     H 4297   8.621   6.913   3.213  0.0276 -0.6604  0.2423
  756MOL0     H 4298   8.775   6.922   3.445  0.1359 -1.5059  0.4417
  756MOL0     H 4299   8.896   6.990   3.339 -0.3933  0.0678  1.1998
  756MOL0     H 4300   8.752   6.725   3.246  2.3357 -2.0746 -0.4467
  756MOL0     H 4301   8.902   6.786   3.198 -1.8446  2.4974 -1.5724
  756MOL0     H 4302   8.925   6.605   3.346 -1.7864  0.3823  0.3941
  756MOL0     H 4303   8.825   6.674   3.471 -0.7460 -0.8919 -1.0434
  756MOL0     H 4304   8.979   6.819   3.546 -0.9724 -1.1980  1.9268
  756MOL0     H 4305   9.093   6.821   3.407 -0.6407  2.2291  2.0266
  756MOL0     H 4306   9.054   6.599   3.604 -2.0444  0.7541 -0.2829
  756MOL0     H 4307   9.184   6.717   3.584  0.8434 -0.2709 -0.6939
  756MOL0     H 4308   8.371   7.173   2.995 -0.0243 -3.4759 -2.2349
  756MOL0     H 4309   8.150   7.156   2.883 -0.7987  0.3888  0.5727
  756MOL0     H 4310   7.947   7.116   2.627  0.4410 -2.1405 -0.2237
  756MOL0     H 4311   7.808   7.045   2.441  2.7505  2.3800 -0.0295
  756MOL0     H 4312   6.116   7.556   2.369 -1.2036  0.8425  0.4640
  756MOL0     H 4313   6.120   7.692   2.564  2.4818  0.8651 -4.0902
  756MOL0     H 4314   6.300   7.765   2.887  0.5442 -0.3662  0.5191
  756MOL0     H 4315   6.391   7.942   3.028 -0.4551  2.8583  0.5795
  756MOL0     H 4316   6.479   8.036   3.192  0.5310 -0.5460  0.3418
  756MOL0     H 4317   6.455   8.101   3.358  0.2386  1.1279 -1.4001
  756MOL0     H 4318   6.494   7.805   3.291  1.0644 -1.2409  1.1914
  756MOL0     H 4319   6.480   7.867   3.453 -0.9189 -0.5180 -0.6377
  756MOL0     H 4320   6.710   7.928   3.245  2.8499 -4.5541 -0.8189
  756MOL0     H 4321   6.704   7.983   3.414 -2.6647  1.3607 -1.1605
  756MOL0     H 4322   6.704   7.687   3.336  2.7676 -0.5253 -0.1495
  756MOL0     H 4323   6.662   7.745   3.489 -0.1485 -3.4848 -1.2426
  756MOL0     H 4324   7.084   7.796   3.466  0.5114 -1.3093 -1.9157
  756MOL0     H 4325   6.095   7.848   3.335  0.5259  3.4332 -0.6546
  756MOL0     H 4326   5.877   7.714   3.209  0.1212 -0.7711  0.8831
  756MOL0     H 4327   5.932   7.551   3.157  0.3592  1.6942 -2.1678
  756MOL0     H 4328   5.985   7.616   3.302 -0.5629 -0.5429  0.5609
  757MOL0     O 4329   6.944  10.546   1.656 -0.4377 -0.4092 -0.1541
  757MOL0     C 4330   7.042  10.532   1.729 -0.8672  0.0083 -0.0305
  757MOL0     O 4331   7.035  10.502   1.862 -0.5029  0.4770  0.2798
  757MOL0     C 4332   6.922  10.458   1.924  0.0425  0.3513  0.5647
  757MOL0     C 4333   6.886  10.516   2.047  0.2727  0.6040 -0.9105
  757MOL0     C 4334   6.767  10.468   2.111  0.3229 -0.3117 -0.3516
  757MOL0     C 4335   6.692  10.365   2.054  0.5011  0.5285 -0.2858
  757MOL0     O 4336   6.566  10.336   2.107 -0.1486  0.1043 -0.2054
  757MOL0     C 4337   6.460  10.343   2.011 -0.0140  0.5607  0.4062
  757MOL0     C 4338   6.336  10.360   2.083  0.3409 -0.2220  0.0589
  757MOL0     C 4339   6.224  10.437   2.004 -0.4393 -0.4233 -1.4416
  757MOL0     C 4340   6.115  10.482   2.097  0.6737 -0.5315 -0.2478
  757MOL0     C 4341   6.047  10.380   2.173  0.3464  0.3347 -0.1347
  757MOL0     C 4342   5.926  10.440   2.239  0.3684 -0.0517  0.1589
  757MOL0     C 4343   5.840  10.360   2.340  0.7585  0.7317  0.4452
  757MOL0     C 4344   5.908  10.358   2.476  0.3101 -0.1201 -0.3849
  757MOL0     N 4345   5.838  10.273   2.568  0.0772 -0.3650  0.2033
  757MOL0     C 4346   5.871  10.143   2.608  0.1811  0.4968  0.4450
  757MOL0     C 4347   5.779  10.122   2.702 -0.1833  0.0775 -0.1736
  757MOL0     C 4348   5.763   9.992   2.775 -0.3201 -0.1837  0.9851
  757MOL0     C 4349   5.883   9.930   2.833 -0.0132 -0.4528  0.3643
  757MOL0     C 4350   5.858   9.818   2.929  0.4007 -0.4582 -0.1777
  757MOL0     C 4351   5.783   9.835   3.070 -0.4945  0.5297 -0.5293
  757MOL0     O 4352   5.842   9.944   3.145 -1.1109  0.3286 -0.2072
  757MOL0     C 4353   5.804   9.954   3.275 -0.7420 -0.5502  0.1591
  757MOL0     C 4354   5.699  10.040   3.300 -0.2683 -0.0130 -0.5839
  757MOL0     C 4355   5.681  10.099   3.430  0.2386 -0.5179 -0.5750
  757MOL0     C 4356   5.563  10.196   3.455 -0.2405  0.6339 -0.1031
  757MOL0     C 4357   5.765  10.053   3.533  0.3310 -0.4189 -0.1092
  757MOL0     C 4358   5.742  10.081   3.680  0.2992 -0.7595  0.8398
  757MOL0     O 4359   5.635  10.157   3.716 -0.0739  0.7678  0.1174
  757MOL0     C 4360   5.615  10.222   3.836 -0.0335 -0.5203  1.1535
  757MOL0     C 4361   5.704  10.241   3.937 -0.1964 -0.5850  0.4130
  757MOL0     C 4362   5.670  10.281   4.070 -0.2670 -0.4322 -0.3691
  757MOL0     C 4363   5.545  10.319   4.104  0.8800 -0.3486  0.0767
  757MOL0     O 4364   5.525  10.386   4.221  0.1600 -0.3600  0.1758
  757MOL0     C 4365   5.397  10.427   4.270  0.0522 -0.2335  0.1667
  757MOL0     C 4366   5.296  10.318   4.293 -0.8094 -0.1329 -0.0209
  757MOL0     C 4367   5.153  10.349   4.252  0.5267  0.1523 -0.0707
  757MOL0     C 4368   5.053  10.238   4.292 -0.1874 -0.0020 -1.1371
  757MOL0     C 4369   5.041  10.214   4.446 -0.2648  0.7125 -0.2551
  757MOL0     C 4370   4.915  10.144   4.494 -1.1221  0.2957  0.0698
  757MOL0     C 4371   4.925  10.107   4.641 -0.2752 -0.3192 -0.2361
  757MOL0     C 4372   4.798  10.013   4.680  0.7262  0.3917 -0.4386
  757MOL0    Cl 4373   4.812   9.851   4.590 -0.2409  0.4429 -0.1780
  757MOL0     C 4374   5.448  10.307   4.002 -0.7201 -0.0026 -0.2317
  757MOL0     C 4375   5.489  10.261   3.872 -0.6150  0.0766  0.3711
  757MOL0     O 4376   5.834  10.052   3.758 -0.1518 -0.4493  0.2393
  757MOL0     C 4377   5.879   9.965   3.502 -0.0003 -0.8512 -0.3744
  757MOL0     C 4378   5.900   9.929   3.373 -0.2842 -0.2001 -0.1744
  757MOL0     N 4379   5.702  10.230   2.721  0.7896 -0.7126  0.4450
  757MOL0     N 4380   5.734  10.323   2.640 -0.7879  0.1178  0.0905
  757MOL0     C 4381   6.749  10.291   1.951  0.5427  0.3385  0.0285
  757MOL0     C 4382   6.869  10.335   1.890  0.7046 -0.3553 -0.0954
  757MOL0     C 4383   7.177  10.531   1.665  0.8642  0.7007 -0.2344
  757MOL0     C 4384   7.218  10.642   1.587  0.9673  1.2448  0.1072
  757MOL0     C 4385   7.339  10.660   1.518 -0.6677 -1.6579 -0.9848
  757MOL0     C 4386   7.438  10.559   1.537  0.5402  0.0693 -0.0143
  757MOL0     O 4387   7.572  10.563   1.498 -0.3054 -0.5787 -0.3095
  757MOL0     C 4388   7.618  10.680   1.420  0.3216 -0.4401 -0.7831
  757MOL0     C 4389   7.574  10.676   1.278 -0.2855  0.1068  1.6452
  757MOL0     C 4390   7.633  10.794   1.197  0.4566 -0.6824  0.3633
  757MOL0     C 4391   7.536  10.911   1.185 -0.6029  0.6104  0.8541
  757MOL0     C 4392   7.504  10.990   1.307 -0.2366 -0.4348 -0.3320
  757MOL0     C 4393   7.483  11.061   1.403 -0.0111  0.1725  0.2747
  757MOL0     C 4394   7.403  10.447   1.609  0.0596 -0.1825  0.5983
  757MOL0     C 4395   7.274  10.427   1.672  0.2785 -0.4261  0.2958
  757MOL0     C 4396   7.255  10.310   1.758  0.1328  0.1839 -0.0784
  757MOL0     H 4397   6.940  10.604   2.080 -0.2275  1.4862 -2.3440
  757MOL0     H 4398   6.744  10.519   2.204  0.8584  1.2280 -1.0350
  757MOL0     H 4399   6.470  10.259   1.942 -0.5765  1.4293 -0.7661
  757MOL0     H 4400   6.484  10.432   1.952 -2.2032  0.0543 -1.3772
  757MOL0     H 4401   6.299  10.266   2.125 -0.4680 -0.3141 -0.8170
  757MOL0     H 4402   6.361  10.426   2.167  1.2232  1.8459 -1.7112
  757MOL0     H 4403   6.263  10.521   1.945 -3.4625  1.7053 -0.6911
  757MOL0     H 4404   6.184  10.361   1.936 -3.7244 -1.5304  1.4210
  757MOL0     H 4405   6.162  10.555   2.163 -1.4727  0.5510  0.1850
  757MOL0     H 4406   6.049  10.541   2.033  3.3841  1.5632 -1.3382
  757MOL0     H 4407   6.112  10.327   2.243 -0.6891  1.9497  2.2131
  757MOL0     H 4408   6.005  10.302   2.109 -0.4124 -0.4566  1.2630
  757MOL0     H 4409   5.964  10.524   2.298  0.0455 -0.2476  0.6593
  757MOL0     H 4410   5.859  10.482   2.163 -1.1960 -2.8807 -0.1642
  757MOL0     H 4411   5.826  10.256   2.310 -0.0291  0.9305  0.1115
  757MOL0     H 4412   5.744  10.411   2.347  0.4472  0.8660 -3.1592
  757MOL0     H 4413   6.015  10.334   2.465  1.1404  1.4726  2.8512
  757MOL0     H 4414   5.908  10.461   2.513 -5.0317 -0.6151  1.7465
  757MOL0     H 4415   5.954  10.080   2.575 -0.8212  0.7496 -2.8581
  757MOL0     H 4416   5.730   9.930   2.691  2.4552 -2.4028  1.3903
  757MOL0     H 4417   5.688  10.006   2.854 -0.1720  0.9215  0.9387
  757MOL0     H 4418   5.946   9.899   2.749 -0.0861  0.0652  0.1156
  757MOL0     H 4419   5.936  10.011   2.883  0.0225  1.0251 -1.9103
  757MOL0     H 4420   5.812   9.740   2.868  0.7248 -0.8808  0.1124
  757MOL0     H 4421   5.957   9.778   2.956 -0.0300 -1.5630 -0.1775
  757MOL0     H 4422   5.675   9.834   3.056 -0.5216  1.5370 -0.5268
  757MOL0     H 4423   5.804   9.740   3.120  3.0010  0.2931 -2.1112
  757MOL0     H 4424   5.643  10.070   3.212 -0.5123 -1.1515 -0.8276
  757MOL0     H 4425   5.485  10.150   3.516 -2.4878  4.6617  0.3626
  757MOL0     H 4426   5.534  10.216   3.351 -0.3880 -1.4014 -0.4914
  757MOL0     H 4427   5.588  10.284   3.515 -4.7197  0.8605  1.7653
  757MOL0     H 4428   5.804  10.203   3.921 -0.4612 -1.6022  1.0210
  757MOL0     H 4429   5.743  10.279   4.151 -1.9013 -0.9443  1.1559
  757MOL0     H 4430   5.402  10.474   4.369 -1.7069 -0.6887  0.5088
  757MOL0     H 4431   5.346  10.504   4.211 -1.5152  1.3105  3.2774
  757MOL0     H 4432   5.320  10.230   4.233 -1.2804  0.2411 -0.7774
  757MOL0     H 4433   5.292  10.292   4.399  0.9256  1.4553  0.4949
  757MOL0     H 4434   5.137  10.375   4.147  1.1166  1.6872  0.1922
  757MOL0     H 4435   5.124  10.442   4.301 -0.0338  0.4229 -0.8992
  757MOL0     H 4436   5.086  10.146   4.244 -1.7887 -2.3836  1.9374
  757MOL0     H 4437   4.953  10.255   4.250  0.0007  1.0894 -1.1747
  757MOL0     H 4438   5.120  10.146   4.478  0.6931  1.8885 -0.0871
  757MOL0     H 4439   5.056  10.301   4.510  1.8067  0.9857 -1.0693
  757MOL0     H 4440   4.893  10.056   4.433  1.4662  0.9988 -2.0567
  757MOL0     H 4441   4.833  10.216   4.486  1.2232  3.3393  1.4072
  757MOL0     H 4442   4.915  10.200   4.697 -2.9187 -0.8333  0.3195
  757MOL0     H 4443   5.016  10.055   4.673  2.1883  3.9822  0.5476
  757MOL0     H 4444   4.702  10.062   4.664 -0.1451 -1.3317 -0.8202
  757MOL0     H 4445   4.788   9.992   4.787 -1.2503  1.4065 -0.3872
  757MOL0     H 4446   5.349  10.347   4.018 -1.4764 -1.1410 -1.8051
  757MOL0     H 4447   5.417  10.263   3.791 -0.7401  2.8341  0.4301
  757MOL0     H 4448   5.941   9.926   3.582 -0.6730 -1.7558 -0.2744
  757MOL0     H 4449   5.987   9.876   3.336  0.1195  1.0027 -1.0364
  757MOL0     H 4450   6.693  10.203   1.922  2.9658 -1.3576  0.1497
  757MOL0     H 4451   6.925  10.283   1.813  3.0094 -0.0700  1.2789
  757MOL0     H 4452   7.147  10.723   1.579 -1.1569 -0.4831  0.3493
  757MOL0     H 4453   7.355  10.747   1.456  0.2830 -2.6057 -2.1159
  757MOL0     H 4454   7.587  10.766   1.481  1.1166 -0.5408 -0.2254
  757MOL0     H 4455   7.727  10.676   1.425  0.2976 -0.0506  0.7005
  757MOL0     H 4456   7.465  10.672   1.274 -0.2242 -2.2293  0.0800
  757MOL0     H 4457   7.612  10.593   1.217  1.6797  1.6617  0.6317
  757MOL0     H 4458   7.728  10.830   1.239  1.2067  3.4103 -4.0047
  757MOL0     H 4459   7.665  10.748   1.102  3.8703 -0.7611  1.4036
  757MOL0     H 4460   7.442  10.879   1.138 -1.1860  2.0560  0.9682
  757MOL0     H 4461   7.585  10.973   1.110 -1.6989  0.9922  0.4261
  757MOL0     H 4462   7.455  11.121   1.487 -4.1251  1.4659 -1.7500
  757MOL0     H 4463   7.466  10.359   1.617  1.6602  1.0975  4.9626
  757MOL0     H 4464   7.339  10.242   1.744  1.5021  2.0962 -1.8405
  757MOL0     H 4465   7.257  10.337   1.864 -2.2810 -0.8960  0.3043
  757MOL0     H 4466   7.158  10.263   1.743  0.4445 -0.3374 -0.5254
  758MOL0     O 4467   1.999  11.366   5.574  1.4707  0.9867 -0.7028
  758MOL0     C 4468   1.919  11.455   5.568  0.5968  0.2187 -0.1047
  758MOL0     O 4469   1.944  11.584   5.582  0.8604 -0.1524 -0.1852
  758MOL0     C 4470   2.068  11.621   5.557 -0.0113 -0.2008  0.2381
  758MOL0     C 4471   2.147  11.594   5.435  0.3264  0.3827  0.1648
  758MOL0     C 4472   2.267  11.669   5.416  0.1506 -0.1579 -0.0074
  758MOL0     C 4473   2.314  11.747   5.519  0.0532 -0.2346  0.3054
  758MOL0     O 4474   2.440  11.795   5.506  0.5495  0.9448 -0.1722
  758MOL0     C 4475   2.537  11.691   5.510 -0.5452 -0.4946 -0.2949
  758MOL0     C 4476   2.644  11.752   5.608  0.1665 -0.2022  0.0987
  758MOL0     C 4477   2.588  11.778   5.754 -0.2318 -0.4049  0.0332
  758MOL0     C 4478   2.705  11.793   5.857 -0.1321 -0.5084 -0.6345
  758MOL0     C 4479   2.782  11.929   5.851  0.5087  0.8628  0.0950
  758MOL0     C 4480   2.922  11.912   5.904 -0.5050  0.2163  0.3306
  758MOL0     C 4481   3.047  11.983   5.844  0.4288 -0.7953 -0.0614
  758MOL0     C 4482   3.036  12.138   5.825 -0.4101 -0.2255  0.6138
  758MOL0     N 4483   3.017  12.211   5.949  0.2454 -0.5211 -0.5092
  758MOL0     C 4484   2.950  12.324   5.975 -0.0892 -0.1849  0.3678
  758MOL0     C 4485   2.928  12.341   6.101 -0.2180 -0.2141  0.3335
  758MOL0     C 4486   2.848  12.442   6.169 -0.0652 -0.9284 -0.8887
  758MOL0     C 4487   2.931  12.567   6.199  0.5492  0.2968  0.6580
  758MOL0     C 4488   2.843  12.666   6.286 -0.2673 -0.6100  0.1340
  758MOL0     C 4489   2.900  12.804   6.319 -0.0720  0.5609  0.1563
  758MOL0     O 4490   2.953  12.803   6.450 -0.0815 -0.9021  0.0783
  758MOL0     C 4491   3.089  12.800   6.463  0.6987  0.2382 -0.9477
  758MOL0     C 4492   3.123  12.794   6.593  0.1751  0.3957 -0.8295
  758MOL0     C 4493   3.259  12.803   6.638  0.3432 -0.2456  0.6036
  758MOL0     C 4494   3.290  12.807   6.783 -0.1081  0.9010 -0.4361
  758MOL0     C 4495   3.359  12.822   6.535  0.3363 -0.3748 -0.0840
  758MOL0     C 4496   3.498  12.857   6.565 -0.8978 -0.2381  0.7062
  758MOL0     O 4497   3.584  12.858   6.453 -0.5759  0.1888  0.2341
  758MOL0     C 4498   3.717  12.840   6.477  0.3656  0.1644  0.3354
  758MOL0     C 4499   3.757  12.713   6.527  0.1523  0.6732  0.1661
  758MOL0     C 4500   3.891  12.682   6.551 -0.0916 -0.8269  0.0491
  758MOL0     C 4501   3.994  12.778   6.515 -0.6823  0.3368 -1.0297
  758MOL0     O 4502   4.129  12.766   6.554 -0.4172  0.2082  0.1430
  758MOL0     C 4503   4.161  12.652   6.635 -0.4842  0.9078 -0.5890
  758MOL0     C 4504   4.316  12.654   6.646  0.1667  0.2995  0.2163
  758MOL0     C 4505   4.373  12.790   6.699 -0.1397  0.0277 -0.0871
  758MOL0     C 4506   4.527  12.788   6.703 -0.2099  0.8253  0.0393
  758MOL0     C 4507   4.573  12.914   6.772 -0.0463 -0.8832 -0.2296
  758MOL0     C 4508   4.726  12.923   6.755 -0.3093 -0.3658  0.6164
  758MOL0     C 4509   4.781  13.038   6.834 -0.2070 -0.1037  0.6986
  758MOL0     C 4510   4.923  13.070   6.787  0.8831  0.1750 -0.3506
  758MOL0    Cl 4511   4.979  13.184   6.909 -0.0812 -0.5419  0.1063
  758MOL0     C 4512   3.957  12.898   6.460 -1.0181  1.2293  0.5003
  758MOL0     C 4513   3.819  12.930   6.443  0.5585  0.0661  0.5778
  758MOL0     O 4514   3.541  12.878   6.671  1.5111 -0.7222  0.0382
  758MOL0     C 4515   3.323  12.807   6.401  1.0677 -0.3954 -0.6594
  758MOL0     C 4516   3.188  12.803   6.366  0.2314 -0.8686  0.3529
  758MOL0     N 4517   3.004  12.238   6.156 -1.2105 -0.3839 -0.0266
  758MOL0     N 4518   3.065  12.165   6.070  0.5296 -0.1072  0.6779
  758MOL0     C 4519   2.235  11.783   5.620  0.1794  0.0835 -0.3236
  758MOL0     C 4520   2.110  11.729   5.642 -0.0109  0.0859  0.1142
  758MOL0     C 4521   1.776  11.408   5.586 -0.3592  0.0426 -0.5235
  758MOL0     C 4522   1.761  11.293   5.658  0.5570 -0.0488  0.9734
  758MOL0     C 4523   1.634  11.235   5.672 -0.0998 -0.0902 -0.7766
  758MOL0     C 4524   1.526  11.288   5.608  0.0813 -1.7451 -0.4010
  758MOL0     O 4525   1.402  11.233   5.614 -0.3865 -0.0629 -0.3883
  758MOL0     C 4526   1.362  11.139   5.715 -0.2594 -0.7763 -0.4014
  758MOL0     C 4527   1.212  11.095   5.711 -1.3754 -0.0929  0.6391
  758MOL0     C 4528   1.120  11.223   5.718 -0.4222  0.5211 -0.1057
  758MOL0     C 4529   0.976  11.177   5.729  0.9356  0.4584 -0.9678
  758MOL0     C 4530   0.956  11.110   5.854 -0.8284  0.2792  0.0745
  758MOL0     C 4531   0.943  11.053   5.963 -0.6087 -0.7803  0.0857
  758MOL0     C 4532   1.544  11.406   5.533 -0.1203  0.0650  0.1061
  758MOL0     C 4533   1.669  11.473   5.518 -0.5190 -1.0554 -0.0375
  758MOL0     C 4534   1.692  11.589   5.420  0.3472 -0.3736 -0.1591
  758MOL0     H 4535   2.106  11.536   5.353 -0.3481  2.1552 -0.7895
  758MOL0     H 4536   2.320  11.656   5.323  2.0523  0.1291  0.9880
  758MOL0     H 4537   2.574  11.684   5.408 -3.4780  0.2590 -1.5106
  758MOL0     H 4538   2.500  11.595   5.549  1.0768 -0.1757  2.2904
  758MOL0     H 4539   2.720  11.673   5.611 -1.2584 -1.6104  2.1439
  758MOL0     H 4540   2.686  11.843   5.563 -0.3785 -0.3654 -0.7437
  758MOL0     H 4541   2.524  11.867   5.755  1.6371  1.0416 -0.6514
  758MOL0     H 4542   2.527  11.692   5.783 -0.9098  0.5649  1.6365
  758MOL0     H 4543   2.678  11.788   5.963 -0.0906 -1.1915 -0.6533
  758MOL0     H 4544   2.774  11.710   5.842  0.7373 -1.0239  4.3657
  758MOL0     H 4545   2.736  12.010   5.908 -0.2700  0.0026  0.7138
  758MOL0     H 4546   2.796  11.950   5.744 -0.1954  0.4718 -0.0764
  758MOL0     H 4547   2.931  11.907   6.013  2.2545 -1.7907  0.1134
  758MOL0     H 4548   2.949  11.807   5.888 -1.3154 -0.1798  1.4138
  758MOL0     H 4549   3.070  11.938   5.746  2.3537 -0.8979  0.3962
  758MOL0     H 4550   3.133  11.948   5.902 -1.2646  0.4208  3.4862
  758MOL0     H 4551   3.123  12.173   5.768 -1.2150 -1.1347 -1.2627
  758MOL0     H 4552   2.955  12.162   5.755  0.8360  4.4553  0.3990
  758MOL0     H 4553   2.902  12.386   5.899  1.5101 -0.2005 -0.6992
  758MOL0     H 4554   2.806  12.402   6.262 -1.2496  1.3759 -0.3452
  758MOL0     H 4555   2.765  12.466   6.102 -0.6680 -1.1244 -0.2245
  758MOL0     H 4556   3.026  12.538   6.245  1.9556  1.0445 -1.6283
  758MOL0     H 4557   2.952  12.631   6.114 -0.1489  2.2165  1.8628
  758MOL0     H 4558   2.747  12.677   6.235  0.0496  0.2105 -0.3031
  758MOL0     H 4559   2.816  12.623   6.383 -1.4737 -0.9166 -0.3191
  758MOL0     H 4560   2.963  12.833   6.234 -1.0753  2.3960 -0.0125
  758MOL0     H 4561   2.816  12.873   6.308 -0.2443  0.4043  0.4810
  758MOL0     H 4562   3.043  12.788   6.666 -0.2505  1.2215 -1.2219
  758MOL0     H 4563   3.195  12.803   6.837 -0.4766 -2.0750 -1.1269
  758MOL0     H 4564   3.346  12.890   6.826 -1.9068  0.9047  2.1632
  758MOL0     H 4565   3.343  12.716   6.813  2.5268  2.7693  0.9419
  758MOL0     H 4566   3.677  12.643   6.550  0.4973  0.3643  0.4405
  758MOL0     H 4567   3.915  12.585   6.593  0.6260 -1.2751 -1.3077
  758MOL0     H 4568   4.128  12.657   6.739  3.5226  1.3145  0.8487
  758MOL0     H 4569   4.124  12.555   6.599  2.6882 -0.1212 -1.4151
  758MOL0     H 4570   4.347  12.577   6.717  1.8184 -0.2942 -1.0875
  758MOL0     H 4571   4.361  12.644   6.547  0.7540 -0.0379  0.5145
  758MOL0     H 4572   4.342  12.809   6.803 -0.1425 -3.3341  0.6345
  758MOL0     H 4573   4.332  12.876   6.646  1.7315  1.1673  0.2248
  758MOL0     H 4574   4.573  12.782   6.604 -0.5239  0.4475 -0.0839
  758MOL0     H 4575   4.567  12.701   6.755  0.3195  1.5881  0.9307
  758MOL0     H 4576   4.525  12.993   6.714  0.2212  1.0877  2.0753
  758MOL0     H 4577   4.548  12.921   6.878  0.1804  0.0711 -0.2306
  758MOL0     H 4578   4.754  12.943   6.651  0.7416 -0.5953  0.8370
  758MOL0     H 4579   4.757  12.823   6.786  1.8396 -0.4459 -1.4912
  758MOL0     H 4580   4.784  13.013   6.941 -0.2354 -2.2206  0.2606
  758MOL0     H 4581   4.710  13.120   6.826 -2.5696 -2.0203  0.7672
  758MOL0     H 4582   4.936  13.131   6.697  0.0106  0.8738 -0.0158
  758MOL0     H 4583   4.984  12.980   6.773  1.6792  0.6967 -0.3581
  758MOL0     H 4584   4.029  12.977   6.442 -1.7623  2.1565  1.4897
  758MOL0     H 4585   3.789  13.031   6.422 -0.5937 -0.4447 -0.3031
  758MOL0     H 4586   3.398  12.805   6.322 -0.7986  2.1193 -2.6417
  758MOL0     H 4587   3.159  12.799   6.262 -0.4664 -0.8413  0.5355
  758MOL0     H 4588   2.265  11.859   5.692  1.3303 -0.3281 -0.3526
  758MOL0     H 4589   2.060  11.773   5.727  0.5773  0.3974  0.3041
  758MOL0     H 4590   1.835  11.243   5.720 -0.1878 -0.2531  1.7217
  758MOL0     H 4591   1.622  11.147   5.734 -0.5033 -0.1990 -1.0098
  758MOL0     H 4592   1.422  11.051   5.692 -0.3511 -0.8510 -0.3553
  758MOL0     H 4593   1.387  11.175   5.814  5.7020  0.7352 -2.0738
  758MOL0     H 4594   1.204  11.029   5.797 -0.7784  0.1427  0.8799
  758MOL0     H 4595   1.203  11.032   5.622  0.9313 -1.2909  1.1868
  758MOL0     H 4596   1.148  11.299   5.791 -0.0401 -0.5810  0.9173
  758MOL0     H 4597   1.124  11.269   5.619 -3.9376  0.6976 -0.2810
  758MOL0     H 4598   0.943  11.114   5.646  2.1926 -0.2680 -0.9459
  758MOL0     H 4599   0.912  11.266   5.728 -1.6260 -1.2396 -3.2853
  758MOL0     H 4600   0.919  11.000   6.053  1.4154 -0.7725  0.6694
  758MOL0     H 4601   1.454  11.449   5.491 -0.3672  1.0795  1.6283
  758MOL0     H 4602   1.715  11.683   5.470 -0.9811  2.0847 -3.7625
  758MOL0     H 4603   1.783  11.553   5.369  1.4464 -0.6020  1.8609
  758MOL0     H 4604   1.604  11.599   5.356 -0.3812 -2.5544  0.3956
  759MOL0     O 4605   8.925   5.159   3.713  0.0801 -0.4670 -0.1052
  759MOL0     C 4606   8.901   5.272   3.666 -0.1194 -0.6058 -0.8640
  759MOL0     O 4607   8.983   5.382   3.671  0.3318  0.4561  0.4338
  759MOL0     C 4608   9.089   5.408   3.757 -0.0095  0.4510 -0.6555
  759MOL0     C 4609   9.136   5.317   3.855 -0.1267  0.2120 -0.5928
  759MOL0     C 4610   9.238   5.352   3.950  0.2182 -1.1128  0.6037
  759MOL0     C 4611   9.308   5.478   3.932  0.5425 -0.1963  0.3688
  759MOL0     O 4612   9.400   5.528   4.011 -0.1143 -0.2190  0.9392
  759MOL0     C 4613   9.445   5.446   4.120  0.5437  0.5997 -0.0780
  759MOL0     C 4614   9.524   5.528   4.215 -0.4386 -1.2097 -0.4278
  759MOL0     C 4615   9.641   5.601   4.131  0.1908 -0.6487 -0.4335
  759MOL0     C 4616   9.735   5.667   4.225 -0.0064 -0.6329  0.0766
  759MOL0     C 4617   9.868   5.724   4.174  0.7398  0.0308  0.3855
  759MOL0     C 4618   9.850   5.823   4.055 -1.1095 -0.7834  0.1354
  759MOL0     C 4619   9.985   5.852   3.986  0.7081 -0.0390 -0.5976
  759MOL0     C 4620   9.964   5.953   3.871 -0.1558  0.6436 -0.6288
  759MOL0     N 4621   9.924   6.091   3.912  0.1853 -0.2816  0.1151
  759MOL0     C 4622   9.991   6.159   4.026  0.6561  0.3437  0.6698
  759MOL0     C 4623   9.926   6.278   4.020  0.2446 -0.5598  0.7600
  759MOL0     C 4624   9.956   6.400   4.112 -0.1550  0.3523 -0.1990
  759MOL0     C 4625  10.101   6.426   4.146 -0.0587  0.5183  0.1835
  759MOL0     C 4626  10.199   6.422   4.024 -0.6115 -0.5247  0.0352
  759MOL0     C 4627  10.340   6.479   4.049  0.1531  0.0245 -0.3336
  759MOL0     O 4628  10.380   6.431   4.176 -0.6445  0.5470 -0.0313
  759MOL0     C 4629  10.512   6.465   4.201 -0.0079  0.2363 -0.5428
  759MOL0     C 4630  10.586   6.573   4.152  0.4954  0.2866  0.0868
  759MOL0     C 4631  10.722   6.590   4.169 -0.3521  0.9277  0.2672
  759MOL0     C 4632  10.788   6.716   4.129 -0.8226 -0.0427  0.2042
  759MOL0     C 4633  10.801   6.486   4.222 -1.2885 -0.2284 -0.2322
  759MOL0     C 4634  10.953   6.479   4.219 -0.1929 -0.4458  0.4890
  759MOL0     O 4635  11.010   6.392   4.306 -0.3576 -0.1986 -0.3579
  759MOL0     C 4636  11.142   6.385   4.330 -0.3016  0.2384  0.2280
  759MOL0     C 4637  11.228   6.296   4.273  0.8288  0.5861  1.2876
  759MOL0     C 4638  11.363   6.280   4.307  0.2541 -0.1641 -0.1906
  759MOL0     C 4639  11.415   6.374   4.397 -0.5172 -0.8398 -0.3525
  759MOL0     O 4640  11.550   6.371   4.427 -0.5501 -0.5188 -0.6396
  759MOL0     C 4641  11.630   6.483   4.377  0.1156 -0.6216  0.7046
  759MOL0     C 4642  11.727   6.447   4.266  0.0453  1.1524  0.1467
  759MOL0     C 4643  11.799   6.570   4.211  0.6553 -0.0923  0.7549
  759MOL0     C 4644  11.826   6.530   4.068 -0.1185 -0.2124  0.6765
  759MOL0     C 4645  11.887   6.650   3.990 -0.7052  0.4028  0.2762
  759MOL0     C 4646  11.935   6.610   3.843  0.2490 -0.0680  0.0656
  759MOL0     C 4647  12.061   6.690   3.817  0.4441 -0.6460 -0.2047
  759MOL0     C 4648  12.043   6.842   3.802  0.0529  0.3849 -0.0630
  759MOL0    Cl 4649  12.205   6.929   3.795  0.4793  0.1027 -0.2773
  759MOL0     C 4650  11.333   6.480   4.450  0.4649  0.0687  0.5330
  759MOL0     C 4651  11.196   6.477   4.418 -0.1507 -0.4273  0.3137
  759MOL0     O 4652  11.006   6.545   4.129 -0.1062 -0.2863 -0.8321
  759MOL0     C 4653  10.736   6.369   4.273 -0.2020 -0.9704  0.6412
  759MOL0     C 4654  10.587   6.364   4.270  0.1806 -0.3783 -0.1174
  759MOL0     N 4655   9.829   6.280   3.932  0.5907 -0.2489 -0.6891
  759MOL0     N 4656   9.833   6.175   3.861  0.0989  0.7016  0.6895
  759MOL0     C 4657   9.276   5.558   3.822  0.7583 -0.2679 -0.5361
  759MOL0     C 4658   9.160   5.531   3.738 -0.0856 -0.5651  0.2334
  759MOL0     C 4659   8.772   5.293   3.604  0.6118  0.4445  0.2963
  759MOL0     C 4660   8.656   5.223   3.650  0.0694 -0.6948  0.6874
  759MOL0     C 4661   8.519   5.250   3.607  0.2063 -0.5052 -0.9298
  759MOL0     C 4662   8.497   5.350   3.506  0.2299 -0.7808 -0.4515
  759MOL0     O 4663   8.378   5.401   3.458  0.1820 -0.1014  0.0924
  759MOL0     C 4664   8.294   5.313   3.376 -0.3771  0.2269 -0.2285
  759MOL0     C 4665   8.148   5.356   3.375  0.0031 -0.0775 -0.7641
  759MOL0     C 4666   8.083   5.296   3.511 -0.0095  0.3518 -0.5239
  759MOL0     C 4667   7.951   5.376   3.547  0.3611  0.3205 -0.0354
  759MOL0     C 4668   7.865   5.324   3.653  0.4179  0.5392  0.2406
  759MOL0     C 4669   7.784   5.294   3.740  0.1036 -0.3115 -0.1924
  759MOL0     C 4670   8.612   5.424   3.474 -0.7174 -1.0782 -0.3834
  759MOL0     C 4671   8.749   5.391   3.508  0.0726  0.4977 -0.0596
  759MOL0     C 4672   8.855   5.457   3.434 -0.8135  0.4046  0.0353
  759MOL0     H 4673   9.093   5.220   3.877 -0.0542  0.0048 -1.3264
  759MOL0     H 4674   9.271   5.276   4.020  2.1655 -1.8907 -1.0574
  759MOL0     H 4675   9.507   5.362   4.088  0.6980  0.9047 -0.6015
  759MOL0     H 4676   9.363   5.404   4.179  0.8004 -2.3583 -1.5993
  759MOL0     H 4677   9.466   5.608   4.262  2.4700  0.6325  0.2908
  759MOL0     H 4678   9.574   5.471   4.293  1.8006  0.6538 -0.4153
  759MOL0     H 4679   9.701   5.524   4.083  4.3683  1.4440  0.9781
  759MOL0     H 4680   9.608   5.668   4.050  0.9800  1.8279  1.1592
  759MOL0     H 4681   9.692   5.749   4.283  0.8924 -1.2671  1.7269
  759MOL0     H 4682   9.756   5.593   4.303  2.1999 -1.9906 -1.6937
  759MOL0     H 4683   9.926   5.636   4.146  0.9081 -0.1291  1.1917
  759MOL0     H 4684   9.929   5.758   4.259  0.0567 -0.9247  1.2871
  759MOL0     H 4685   9.781   5.779   3.982  0.2828 -0.4120 -1.4442
  759MOL0     H 4686   9.798   5.912   4.092  0.2760 -0.1022  0.5132
  759MOL0     H 4687  10.034   5.760   3.953  1.7431  0.1410  0.3497
  759MOL0     H 4688  10.055   5.885   4.064 -1.4229  0.8535  1.0269
  759MOL0     H 4689  10.050   5.971   3.806 -2.1485  0.1807 -3.5841
  759MOL0     H 4690   9.894   5.901   3.805 -0.5632 -0.7899  0.8404
  759MOL0     H 4691  10.070   6.123   4.091  1.9766 -1.1258 -1.6083
  759MOL0     H 4692   9.909   6.381   4.209 -1.1654 -3.8067 -1.2954
  759MOL0     H 4693   9.906   6.480   4.058  1.7513  2.2690  0.7105
  759MOL0     H 4694  10.101   6.524   4.195 -0.7869  0.5404  0.1514
  759MOL0     H 4695  10.136   6.351   4.216 -0.3425 -0.6044 -0.8356
  759MOL0     H 4696  10.215   6.318   3.994 -1.7097 -1.1389  1.4475
  759MOL0     H 4697  10.148   6.473   3.942 -1.0554 -0.7574  0.1646
  759MOL0     H 4698  10.410   6.449   3.971  0.7709 -1.0099  0.6003
  759MOL0     H 4699  10.346   6.589   4.048 -0.5318  0.1042  1.4646
  759MOL0     H 4700  10.537   6.657   4.103 -0.1624  1.4908  2.6344
  759MOL0     H 4701  10.868   6.748   4.196 -1.7623  2.3619  0.2999
  759MOL0     H 4702  10.721   6.803   4.121 -0.2424  0.2915 -1.3967
  759MOL0     H 4703  10.818   6.701   4.025  1.5169 -0.2440  0.8581
  759MOL0     H 4704  11.186   6.227   4.200  1.6899 -2.9091  3.8302
  759MOL0     H 4705  11.435   6.210   4.267  1.0468  0.5214  0.0147
  759MOL0     H 4706  11.564   6.556   4.330 -0.9576 -2.7355 -1.2938
  759MOL0     H 4707  11.687   6.527   4.459  1.7509  0.6332 -1.0332
  759MOL0     H 4708  11.805   6.377   4.298 -0.6370  0.5955  0.6430
  759MOL0     H 4709  11.669   6.397   4.188 -1.9746  1.1549  1.5445
  759MOL0     H 4710  11.896   6.579   4.262  1.1841  0.3448 -0.3095
  759MOL0     H 4711  11.741   6.662   4.215 -1.1417 -1.1544  0.2769
  759MOL0     H 4712  11.742   6.493   4.009 -1.7574  2.5546  1.1037
  759MOL0     H 4713  11.900   6.451   4.081 -0.4146 -0.1346  3.2719
  759MOL0     H 4714  11.820   6.735   3.976  0.7598  1.3698 -1.1660
  759MOL0     H 4715  11.971   6.690   4.049 -1.0973 -0.8189  1.7441
  759MOL0     H 4716  11.855   6.638   3.774  1.5620 -0.2415 -1.5711
  759MOL0     H 4717  11.947   6.501   3.851  0.9398  0.1328  4.4659
  759MOL0     H 4718  12.093   6.642   3.724 -0.1963 -2.3381  0.4080
  759MOL0     H 4719  12.140   6.665   3.889  1.8297 -0.0043 -1.4372
  759MOL0     H 4720  11.990   6.878   3.892 -0.6251 -0.5624 -0.0709
  759MOL0     H 4721  11.984   6.861   3.712 -0.6051 -3.5450 -0.6404
  759MOL0     H 4722  11.370   6.562   4.510  1.8255 -1.2968  1.6459
  759MOL0     H 4723  11.131   6.552   4.463 -0.6528 -1.4765  1.3934
  759MOL0     H 4724  10.779   6.286   4.328 -1.1871 -0.8369  1.6408
  759MOL0     H 4725  10.540   6.280   4.321 -0.7448  1.1165  1.6182
  759MOL0     H 4726   9.323   5.654   3.807  1.7144 -0.1455  2.6543
  759MOL0     H 4727   9.141   5.592   3.651  2.4348  0.2347  0.1669
  759MOL0     H 4728   8.683   5.149   3.724 -0.3659  0.9327  2.5676
  759MOL0     H 4729   8.432   5.200   3.647 -0.2324  1.3561  0.6122
  759MOL0     H 4730   8.329   5.308   3.272 -0.4594 -4.3176 -0.2364
  759MOL0     H 4731   8.303   5.212   3.418 -0.2432  0.5031  0.4133
  759MOL0     H 4732   8.081   5.319   3.297  0.1883 -2.4340  0.1147
  759MOL0     H 4733   8.140   5.465   3.373  1.6404  0.0740 -3.2820
  759MOL0     H 4734   8.068   5.188   3.515 -0.7146  0.4794  0.7567
  759MOL0     H 4735   8.152   5.317   3.594 -0.8355 -1.5775  0.7176
  759MOL0     H 4736   7.890   5.371   3.456  1.2121  0.9329 -0.6562
  759MOL0     H 4737   7.973   5.481   3.570 -0.3490  0.3924  0.3376
  759MOL0     H 4738   7.710   5.265   3.811  0.4522 -0.9023 -0.0658
  759MOL0     H 4739   8.608   5.521   3.426 -0.1361 -0.0313  1.5781
  759MOL0     H 4740   8.917   5.533   3.484 -0.3272  2.4696 -3.4255
  759MOL0     H 4741   8.929   5.387   3.394  0.1426 -1.4174  4.3525
  759MOL0     H 4742   8.804   5.503   3.350  0.7017 -1.2316 -1.8728
  760MOL0     O 4743   1.735   4.290   0.729  0.0274  0.4614 -0.3235
  760MOL0     C 4744   1.661   4.211   0.789  0.2939 -0.1151 -0.0409
  760MOL0     O 4745   1.699   4.107   0.877 -0.1346 -0.0084  0.0055
  760MOL0     C 4746   1.833   4.092   0.899  0.5730 -0.3296 -0.7731
  760MOL0     C 4747   1.861   4.043   1.026 -0.1984 -0.0753 -0.0073
  760MOL0     C 4748   1.989   4.016   1.077  0.7155  0.4197  0.3307
  760MOL0     C 4749   2.095   4.032   0.982  0.4045 -1.1265 -0.4051
  760MOL0     O 4750   2.215   3.979   1.021  0.2340  0.7624  0.0211
  760MOL0     C 4751   2.338   4.018   0.970 -0.6707  0.2205 -0.4529
  760MOL0     C 4752   2.450   3.987   1.079  0.1041  0.3154 -0.3256
  760MOL0     C 4753   2.588   4.043   1.025  0.3606  0.2824 -0.4874
  760MOL0     C 4754   2.595   4.205   1.030  0.2279  0.6161 -0.4380
  760MOL0     C 4755   2.727   4.258   0.976  0.2068 -0.1522  0.0745
  760MOL0     C 4756   2.740   4.411   0.982 -0.2015  0.0959 -0.1114
  760MOL0     C 4757   2.888   4.444   0.979 -0.4543  0.8230  0.6234
  760MOL0     C 4758   2.915   4.587   0.943  0.0748  0.3773 -0.5589
  760MOL0     N 4759   3.054   4.623   0.995  0.5444  0.6874  0.0923
  760MOL0     C 4760   3.166   4.639   0.922  0.7439  0.7792 -0.0510
  760MOL0     C 4761   3.266   4.672   1.005  0.1434 -0.6303  0.3333
  760MOL0     C 4762   3.417   4.689   0.973  0.2721 -0.0034 -0.0267
  760MOL0     C 4763   3.459   4.828   0.944 -0.5993  0.3308  0.4246
  760MOL0     C 4764   3.509   4.883   1.079 -0.7330 -0.6053  0.5722
  760MOL0     C 4765   3.651   4.844   1.115 -0.2707 -0.1050  0.3267
  760MOL0     O 4766   3.753   4.894   1.022 -0.6842  0.4123 -0.0990
  760MOL0     C 4767   3.887   4.876   1.062 -0.8173  0.1483 -1.2321
  760MOL0     C 4768   3.934   4.820   1.183 -0.0186  0.6940 -0.5600
  760MOL0     C 4769   4.074   4.781   1.201  0.7731  0.3852  0.0261
  760MOL0     C 4770   4.115   4.744   1.339  0.5068  0.5385 -0.2747
  760MOL0     C 4771   4.168   4.824   1.100  0.1488 -0.5722 -0.6069
  760MOL0     C 4772   4.317   4.805   1.114 -0.2415 -0.0525  0.1196
  760MOL0     O 4773   4.388   4.846   1.006 -0.5485  0.0172 -0.5551
  760MOL0     C 4774   4.533   4.829   0.998  0.3332 -0.0444 -0.1863
  760MOL0     C 4775   4.598   4.944   0.948 -0.1421 -0.4296 -1.0482
  760MOL0     C 4776   4.733   4.940   0.927  0.1988 -0.8257 -0.2809
  760MOL0     C 4777   4.804   4.827   0.966 -0.2527  0.2561  0.1024
  760MOL0     O 4778   4.935   4.804   0.955  0.1051  0.3898 -0.3124
  760MOL0     C 4779   5.025   4.900   0.909  0.4097 -0.0404  0.0639
  760MOL0     C 4780   5.150   4.837   0.848  0.6481 -1.3437 -0.7435
  760MOL0     C 4781   5.214   4.743   0.942  0.7883 -0.2226 -0.0140
  760MOL0     C 4782   5.331   4.683   0.866  0.6019 -0.5096  0.2810
  760MOL0     C 4783   5.439   4.632   0.958 -0.1176 -0.7266 -0.1834
  760MOL0     C 4784   5.558   4.730   0.984 -0.3163  0.9843  0.7460
  760MOL0     C 4785   5.642   4.668   1.098 -0.3621  0.2852  0.2734
  760MOL0     C 4786   5.569   4.656   1.230  0.4951 -0.4688 -0.1085
  760MOL0    Cl 4787   5.696   4.571   1.321  0.3650  0.2395  0.1044
  760MOL0     C 4788   4.739   4.722   1.026  0.1188  0.5839  0.0565
  760MOL0     C 4789   4.603   4.716   1.029  0.8147 -0.2307 -0.1770
  760MOL0     O 4790   4.366   4.752   1.212  0.1216 -0.0533 -0.1554
  760MOL0     C 4791   4.122   4.882   0.979 -0.9103  0.1335 -0.6377
  760MOL0     C 4792   3.983   4.897   0.961  0.6336  0.8519 -0.2799
  760MOL0     N 4793   3.218   4.690   1.133  0.1836  0.7296  0.4525
  760MOL0     N 4794   3.089   4.658   1.118 -0.3687 -0.6938  0.3517
  760MOL0     C 4795   2.067   4.091   0.856  0.2250  0.3582 -0.0820
  760MOL0     C 4796   1.942   4.113   0.815 -0.3713 -0.2407  0.2382
  760MOL0     C 4797   1.513   4.229   0.774  0.3350  0.3354 -0.7325
  760MOL0     C 4798   1.428   4.120   0.787  0.8405  0.5083  0.0386
  760MOL0     C 4799   1.293   4.132   0.766 -0.7791  0.1707 -0.0158
  760MOL0     C 4800   1.234   4.247   0.727 -0.3929  0.0392  1.0011
  760MOL0     O 4801   1.100   4.239   0.715 -1.3313  0.5590 -0.4560
  760MOL0     C 4802   1.028   4.367   0.707 -0.1242 -0.0158 -0.5027
  760MOL0     C 4803   0.870   4.369   0.710  0.1816 -0.0653  1.0894
  760MOL0     C 4804   0.797   4.347   0.846 -0.5047  0.7651  0.2599
  760MOL0     C 4805   0.838   4.452   0.944 -0.2821 -0.1264  0.3004
  760MOL0     C 4806   0.791   4.424   1.081  0.2135  0.0501 -0.3778
  760MOL0     C 4807   0.756   4.396   1.193 -0.1107  0.6590  0.3112
  760MOL0     C 4808   1.318   4.367   0.716 -0.2314  0.7137 -0.1261
  760MOL0     C 4809   1.455   4.351   0.745  0.0638  0.0736  0.1219
  760MOL0     C 4810   1.524   4.483   0.734 -0.0077 -0.2179 -0.5049
  760MOL0     H 4811   1.774   4.013   1.085 -0.7291 -4.2855 -2.5836
  760MOL0     H 4812   2.010   3.979   1.177 -0.0915 -0.5855  0.1507
  760MOL0     H 4813   2.327   4.127   0.962 -4.7529  0.1180  1.5627
  760MOL0     H 4814   2.372   3.973   0.876 -4.1347 -0.3565 -1.5860
  760MOL0     H 4815   2.423   4.038   1.172  1.1998  0.7402 -0.2274
  760MOL0     H 4816   2.459   3.881   1.102 -2.2195  0.0974 -0.1960
  760MOL0     H 4817   2.667   4.000   1.088 -1.1473  1.7277  2.6315
  760MOL0     H 4818   2.605   4.009   0.922  1.3983 -2.7951  0.5800
  760MOL0     H 4819   2.517   4.244   0.964 -1.6172  0.2142  1.4088
  760MOL0     H 4820   2.564   4.230   1.132 -2.6441 -1.2300 -0.7385
  760MOL0     H 4821   2.727   4.236   0.869  0.8655 -2.4556  0.5011
  760MOL0     H 4822   2.816   4.219   1.026 -0.0949  1.0279  1.6182
  760MOL0     H 4823   2.698   4.459   0.893  2.9241  0.4045 -1.5928
  760MOL0     H 4824   2.685   4.450   1.068 -0.7336  0.4999 -0.6269
  760MOL0     H 4825   2.943   4.383   0.906  2.7827  0.3349  3.2295
  760MOL0     H 4826   2.927   4.418   1.078 -0.8464 -2.2560  0.0730
  760MOL0     H 4827   2.916   4.604   0.835 -0.1239 -1.6403 -0.9129
  760MOL0     H 4828   2.842   4.643   1.002  0.8760 -0.2411  1.0946
  760MOL0     H 4829   3.173   4.600   0.821  0.1296  2.3165 -0.7176
  760MOL0     H 4830   3.435   4.642   0.876 -2.0737  1.7082 -1.3902
  760MOL0     H 4831   3.472   4.629   1.047 -2.5249 -2.8253 -0.0097
  760MOL0     H 4832   3.536   4.825   0.867 -0.5748 -0.1044  0.4655
  760MOL0     H 4833   3.385   4.893   0.897  1.1138  0.7679 -1.8312
  760MOL0     H 4834   3.495   4.990   1.063 -3.1208 -1.1325 -1.3411
  760MOL0     H 4835   3.438   4.858   1.159 -0.1575  0.4698  1.4542
  760MOL0     H 4836   3.669   4.868   1.220 -0.1785 -0.5458  0.4142
  760MOL0     H 4837   3.658   4.735   1.108  1.1887  0.0684 -1.8991
  760MOL0     H 4838   3.871   4.804   1.270  0.2252 -0.6963 -0.6190
  760MOL0     H 4839   4.034   4.705   1.402  1.7990 -3.5144 -0.7941
  760MOL0     H 4840   4.159   4.832   1.386 -1.4242  1.7222 -0.5873
  760MOL0     H 4841   4.178   4.654   1.336  0.9994  0.7601  1.9100
  760MOL0     H 4842   4.544   5.035   0.925  0.4985 -0.2754 -1.9983
  760MOL0     H 4843   4.779   5.029   0.887 -1.7924 -0.2176 -1.3430
  760MOL0     H 4844   4.973   4.960   0.834 -5.2884 -3.1336  0.9093
  760MOL0     H 4845   5.055   4.958   0.997 -0.9722  1.9788 -0.7061
  760MOL0     H 4846   5.109   4.777   0.766 -2.5023 -0.6718  0.2204
  760MOL0     H 4847   5.210   4.922   0.814 -0.1925 -1.2162 -1.9768
  760MOL0     H 4848   5.153   4.660   0.978  0.8618 -0.1471  0.2893
  760MOL0     H 4849   5.244   4.796   1.033 -1.0896 -1.0005  1.1154
  760MOL0     H 4850   5.372   4.756   0.795  1.3962  0.4703  1.6938
  760MOL0     H 4851   5.289   4.596   0.815  0.6757  0.5151 -1.6327
  760MOL0     H 4852   5.392   4.604   1.053 -2.0997 -1.4872 -1.3216
  760MOL0     H 4853   5.482   4.541   0.915 -1.0616 -1.0846 -0.4003
  760MOL0     H 4854   5.520   4.827   1.017  0.3654  0.9313  1.7300
  760MOL0     H 4855   5.628   4.746   0.901  0.9110  2.1998  1.9589
  760MOL0     H 4856   5.735   4.722   1.118  0.1038 -1.8242  4.9180
  760MOL0     H 4857   5.670   4.566   1.071 -1.6360  0.5158 -2.2850
  760MOL0     H 4858   5.484   4.587   1.233  0.9635 -1.0810 -0.8204
  760MOL0     H 4859   5.540   4.754   1.270 -0.5591 -1.5387  1.9091
  760MOL0     H 4860   4.795   4.644   1.077  1.9057  1.2331 -0.8247
  760MOL0     H 4861   4.548   4.631   1.068 -0.2128  0.0880 -0.8942
  760MOL0     H 4862   4.196   4.900   0.901  0.0464  1.4205  0.5234
  760MOL0     H 4863   3.950   4.931   0.863 -0.1765  0.7016 -0.0689
  760MOL0     H 4864   2.155   4.106   0.793 -0.0853 -1.4767 -1.0045
  760MOL0     H 4865   1.920   4.148   0.715 -1.4078  1.7375  1.0958
  760MOL0     H 4866   1.476   4.024   0.804  1.5269 -0.8148 -6.6679
  760MOL0     H 4867   1.221   4.051   0.768 -0.6480  0.0073 -1.3844
  760MOL0     H 4868   1.061   4.432   0.789 -1.6516  1.6096 -1.1113
  760MOL0     H 4869   1.060   4.417   0.615 -0.8013 -0.2516 -0.8725
  760MOL0     H 4870   0.844   4.284   0.646  2.2759 -1.1080  1.5387
  760MOL0     H 4871   0.831   4.463   0.669 -0.5446 -0.0231  1.8590
  760MOL0     H 4872   0.689   4.352   0.833 -1.0141  0.7629  3.4856
  760MOL0     H 4873   0.827   4.250   0.886 -1.5644  0.8727  1.3615
  760MOL0     H 4874   0.799   4.545   0.902  1.8628  1.2466  1.1285
  760MOL0     H 4875   0.947   4.457   0.960 -0.1109  1.0931 -1.0396
  760MOL0     H 4876   0.737   4.366   1.294  0.3145 -0.3079  0.1139
  760MOL0     H 4877   1.288   4.470   0.698  2.6187  1.6773  0.0740
  760MOL0     H 4878   1.471   4.579   0.735 -1.0139 -0.7009  1.8997
  760MOL0     H 4879   1.608   4.500   0.802  0.6556  1.1975 -1.6272
  760MOL0     H 4880   1.570   4.480   0.635  0.3114  3.1265 -0.5897
  761MOL0     O 4881   4.638   6.524   4.097 -0.0560  0.2306 -0.1558
  761MOL0     C 4882   4.724   6.595   4.159  0.8296 -0.0637 -0.1208
  761MOL0     O 4883   4.711   6.729   4.196  1.0638 -0.3744  0.3121
  761MOL0     C 4884   4.603   6.804   4.163 -0.2104 -0.0022 -0.5475
  761MOL0     C 4885   4.476   6.761   4.133  0.0155  0.4682  0.2190
  761MOL0     C 4886   4.392   6.857   4.081  1.2954  0.3287  0.7831
  761MOL0     C 4887   4.418   6.997   4.090  0.1332 -1.0880 -0.6403
  761MOL0     O 4888   4.323   7.080   4.046 -0.5727 -0.1000 -0.2380
  761MOL0     C 4889   4.371   7.166   3.940  0.8894  0.5591  0.6885
  761MOL0     C 4890   4.263   7.162   3.832  0.4974  0.0535  0.4018
  761MOL0     C 4891   4.292   7.268   3.726 -0.3822 -0.9654  0.3003
  761MOL0     C 4892   4.204   7.255   3.604  0.2982  0.0354  0.2069
  761MOL0     C 4893   4.239   7.367   3.502  0.8082  0.2328 -0.7517
  761MOL0     C 4894   4.216   7.511   3.546  0.4913  0.0777  0.5354
  761MOL0     C 4895   4.080   7.531   3.611  0.5990  0.0946 -0.0203
  761MOL0     C 4896   3.970   7.527   3.492 -0.7479 -0.6285  1.2667
  761MOL0     N 4897   3.832   7.540   3.540 -0.4319  0.4600 -0.1620
  761MOL0     C 4898   3.765   7.647   3.586 -0.7078  0.7253 -0.7381
  761MOL0     C 4899   3.636   7.601   3.617 -0.5144 -0.1990  0.4802
  761MOL0     C 4900   3.530   7.672   3.684 -0.2419  0.4413  0.4652
  761MOL0     C 4901   3.550   7.669   3.836  0.1167 -0.4280  0.0232
  761MOL0     C 4902   3.673   7.757   3.883  0.0322 -0.4568 -0.7286
  761MOL0     C 4903   3.687   7.783   4.033 -0.2904  0.2473 -0.2912
  761MOL0     O 4904   3.821   7.829   4.046  0.0683  0.0022 -0.6575
  761MOL0     C 4905   3.849   7.935   4.130 -0.0226  0.1789 -0.1224
  761MOL0     C 4906   3.770   7.999   4.219  0.4783 -0.8743 -0.5278
  761MOL0     C 4907   3.809   8.113   4.295 -0.3316  0.4654 -0.0673
  761MOL0     C 4908   3.706   8.184   4.381 -0.3297 -0.4131 -0.4256
  761MOL0     C 4909   3.944   8.149   4.290 -0.0160 -0.2416  0.6352
  761MOL0     C 4910   3.994   8.277   4.352  0.2191 -0.1637 -1.1332
  761MOL0     O 4911   4.129   8.277   4.379  0.3080  0.4661  0.4450
  761MOL0     C 4912   4.181   8.392   4.431 -0.2282  0.6918  0.3440
  761MOL0     C 4913   4.236   8.378   4.555 -0.2479 -0.6769 -0.2519
  761MOL0     C 4914   4.282   8.493   4.616 -0.4954 -0.0579 -0.4851
  761MOL0     C 4915   4.272   8.621   4.553 -0.1821  0.5347  0.5247
  761MOL0     O 4916   4.316   8.735   4.605  0.0486 -0.6431 -0.3052
  761MOL0     C 4917   4.439   8.729   4.676 -0.2286  0.4020  0.3707
  761MOL0     C 4918   4.507   8.870   4.685  0.1992 -0.2989 -0.8531
  761MOL0     C 4919   4.412   8.982   4.721  0.1264  0.1226 -0.1932
  761MOL0     C 4920   4.309   8.959   4.836  0.1839 -0.3520  0.3687
  761MOL0     C 4921   4.222   9.078   4.863  0.5913 -0.5693 -0.6581
  761MOL0     C 4922   4.279   9.216   4.877 -0.1070  0.9224 -0.5274
  761MOL0     C 4923   4.365   9.242   5.002 -0.8096 -0.0233 -0.3545
  761MOL0     C 4924   4.438   9.375   4.990  0.3556 -1.0489 -0.4978
  761MOL0    Cl 4925   4.527   9.409   5.141  0.2888  0.1819 -0.0572
  761MOL0     C 4926   4.224   8.631   4.424  0.0516  0.5695  0.1933
  761MOL0     C 4927   4.171   8.518   4.363  0.2389  0.8051  0.6780
  761MOL0     O 4928   3.920   8.377   4.338  1.1923 -0.6596  0.0481
  761MOL0     C 4929   4.025   8.075   4.209 -0.3472  1.0831  0.2704
  761MOL0     C 4930   3.980   7.977   4.126  0.0231  1.3454 -0.7959
  761MOL0     N 4931   3.628   7.473   3.576 -0.1574  0.1086  0.4023
  761MOL0     N 4932   3.741   7.440   3.537  0.0514  1.0348  0.1557
  761MOL0     C 4933   4.534   7.041   4.142 -0.8493  0.2158  0.6290
  761MOL0     C 4934   4.629   6.940   4.177 -0.0433  0.0248  0.0902
  761MOL0     C 4935   4.858   6.544   4.191  0.6784 -0.4736  0.2289
  761MOL0     C 4936   4.914   6.593   4.317 -0.8026 -0.1634  0.4446
  761MOL0     C 4937   5.025   6.522   4.375 -0.0692 -1.2330 -0.2707
  761MOL0     C 4938   5.096   6.419   4.308  0.3685  0.9459  0.0455
  761MOL0     O 4939   5.208   6.356   4.353  0.2510 -0.3195  0.4285
  761MOL0     C 4940   5.261   6.387   4.484  1.1152 -1.0940 -0.1877
  761MOL0     C 4941   5.370   6.487   4.483 -0.9697 -0.2962  0.8625
  761MOL0     C 4942   5.494   6.437   4.572 -0.1883 -0.7917 -0.9708
  761MOL0     C 4943   5.608   6.538   4.572  0.9325  0.2131  0.8702
  761MOL0     C 4944   5.723   6.509   4.655 -0.4286 -0.3571 -0.6716
  761MOL0     C 4945   5.823   6.470   4.714  0.1577  0.6257  0.3745
  761MOL0     C 4946   5.041   6.381   4.182 -0.8690 -0.4271  0.3917
  761MOL0     C 4947   4.926   6.442   4.122  0.3400 -0.5992  0.6150
  761MOL0     C 4948   4.883   6.387   3.989 -0.1337 -0.0203 -0.5055
  761MOL0     H 4949   4.449   6.656   4.132  2.2211 -0.1894  2.0708
  761MOL0     H 4950   4.292   6.822   4.057  1.1927  0.7748  0.5494
  761MOL0     H 4951   4.462   7.131   3.890  1.5103  2.0796  0.6869
  761MOL0     H 4952   4.386   7.263   3.989  0.3207 -0.6835  3.5203
  761MOL0     H 4953   4.267   7.073   3.768 -3.2662 -0.4854  0.6772
  761MOL0     H 4954   4.161   7.161   3.872 -0.0119 -1.7501 -0.8000
  761MOL0     H 4955   4.266   7.365   3.769 -3.7039 -0.6266 -2.0512
  761MOL0     H 4956   4.397   7.261   3.697 -0.5350  1.9572 -1.4096
  761MOL0     H 4957   4.240   7.168   3.548  1.4831  0.5374  0.1507
  761MOL0     H 4958   4.099   7.247   3.632  0.0173 -3.4031 -1.3316
  761MOL0     H 4959   4.193   7.349   3.405  1.1004 -0.8179 -0.7079
  761MOL0     H 4960   4.346   7.355   3.484  1.2314  0.1739  1.4671
  761MOL0     H 4961   4.293   7.525   3.622  3.7738  0.3556 -2.6222
  761MOL0     H 4962   4.226   7.589   3.470 -4.6619  0.4612 -0.1091
  761MOL0     H 4963   4.079   7.634   3.647 -0.9380  0.8116 -1.9498
  761MOL0     H 4964   4.064   7.459   3.692  3.6646 -0.0685  0.5701
  761MOL0     H 4965   3.992   7.596   3.411  1.4310  1.2545  3.3168
  761MOL0     H 4966   3.989   7.428   3.448 -0.0657 -0.1376  0.4335
  761MOL0     H 4967   3.806   7.741   3.621  0.8275  0.2536 -1.1966
  761MOL0     H 4968   3.431   7.639   3.651 -0.4282  2.9058 -1.7937
  761MOL0     H 4969   3.533   7.773   3.643 -0.6709 -0.4427 -1.9315
  761MOL0     H 4970   3.472   7.717   3.896  0.4483  0.2111 -0.0564
  761MOL0     H 4971   3.566   7.566   3.870  0.6724 -1.1383 -2.2053
  761MOL0     H 4972   3.754   7.697   3.841 -1.6887 -0.7240 -4.0283
  761MOL0     H 4973   3.674   7.855   3.836  0.3003 -0.4537 -0.7182
  761MOL0     H 4974   3.615   7.863   4.056  0.0271 -0.0725  2.0862
  761MOL0     H 4975   3.661   7.697   4.095  1.0164 -0.9163 -1.3194
  761MOL0     H 4976   3.665   7.974   4.230  0.2798 -0.2581 -0.9320
  761MOL0     H 4977   3.632   8.118   4.428 -0.7408 -0.6713 -1.3888
  761MOL0     H 4978   3.656   8.269   4.334  1.8659  1.4464  0.4606
  761MOL0     H 4979   3.752   8.228   4.469 -0.2290 -1.4614  0.0578
  761MOL0     H 4980   4.230   8.275   4.589 -1.5740  0.0631  1.9412
  761MOL0     H 4981   4.310   8.474   4.719  2.7952 -0.5851 -1.3551
  761MOL0     H 4982   4.430   8.673   4.770 -0.5293 -0.4262 -0.1449
  761MOL0     H 4983   4.508   8.663   4.623 -1.5127  1.1526 -2.4119
  761MOL0     H 4984   4.592   8.855   4.751  1.5119 -0.7003 -2.5585
  761MOL0     H 4985   4.556   8.894   4.590 -1.3730 -0.6707 -1.8022
  761MOL0     H 4986   4.359   9.022   4.634 -0.8697  1.1102  0.8148
  761MOL0     H 4987   4.477   9.063   4.755  0.4550 -0.4422  0.5499
  761MOL0     H 4988   4.357   8.923   4.927  1.1521 -1.4203 -0.5248
  761MOL0     H 4989   4.241   8.879   4.805 -0.4850  0.4356 -0.2639
  761MOL0     H 4990   4.142   9.079   4.788  0.3028 -1.9557 -0.3981
  761MOL0     H 4991   4.172   9.058   4.959  1.3807 -3.3975 -0.7519
  761MOL0     H 4992   4.195   9.286   4.871  1.3302  2.8957  1.0584
  761MOL0     H 4993   4.353   9.227   4.796  2.7116  1.4324  1.9509
  761MOL0     H 4994   4.428   9.154   5.017 -2.9798 -1.4020  1.3823
  761MOL0     H 4995   4.294   9.246   5.085 -1.3913 -1.4988 -0.7521
  761MOL0     H 4996   4.362   9.453   4.980 -1.6211 -2.5835  1.5218
  761MOL0     H 4997   4.506   9.362   4.906  1.5257 -1.2831  0.4465
  761MOL0     H 4998   4.203   8.728   4.381 -0.9965  0.2858  0.0595
  761MOL0     H 4999   4.115   8.514   4.270  0.7416 -2.8860  0.3956
  761MOL0     H 5000   4.131   8.094   4.193  0.2136 -1.9263 -0.1771
  761MOL0     H 5001   4.048   7.928   4.058 -0.0783  0.6217 -0.3847
  761MOL0     H 5002   4.542   7.149   4.148 -1.1052  0.3801 -1.4356
  761MOL0     H 5003   4.728   6.975   4.207 -0.5755  2.1008 -0.4048
  761MOL0     H 5004   4.866   6.671   4.376 -1.8090  0.7764 -1.5121
  761MOL0     H 5005   5.045   6.561   4.474  0.7691  1.7603 -1.5045
  761MOL0     H 5006   5.181   6.422   4.550  1.4990 -1.2260  0.3578
  761MOL0     H 5007   5.287   6.291   4.531 -2.0766 -2.7580 -1.4962
  761MOL0     H 5008   5.335   6.579   4.530  1.0607 -0.1646  2.2564
  761MOL0     H 5009   5.398   6.497   4.378 -0.0234 -2.4536  0.8486
  761MOL0     H 5010   5.453   6.424   4.673  2.4014 -2.5498 -0.0577
  761MOL0     H 5011   5.524   6.345   4.523  2.0931  0.6825 -2.5541
  761MOL0     H 5012   5.574   6.640   4.592  3.0337  0.8522  1.4496
  761MOL0     H 5013   5.644   6.541   4.469 -1.1680  1.6320  0.1133
  761MOL0     H 5014   5.907   6.441   4.774  1.9074  1.7144 -1.4133
  761MOL0     H 5015   5.087   6.302   4.124 -2.9393 -2.6733  1.6191
  761MOL0     H 5016   4.786   6.337   4.003 -0.5531  1.3256  2.0878
  761MOL0     H 5017   4.862   6.472   3.923  0.2832 -0.0970 -0.7351
  761MOL0     H 5018   4.960   6.323   3.947 -1.7664 -1.3614 -1.6128
  762MOL0     O 5019   5.340   3.590   7.916  0.7599 -1.0154  0.5346
  762MOL0     C 5020   5.453   3.632   7.880  0.0862  0.5142  0.9048
  762MOL0     O 5021   5.477   3.734   7.788  0.2487  0.0933 -0.2383
  762MOL0     C 5022   5.374   3.824   7.783 -0.3896  0.9122 -0.0631
  762MOL0     C 5023   5.283   3.805   7.677  0.8147  0.4722  0.5942
  762MOL0     C 5024   5.186   3.898   7.662 -0.0850 -0.6161 -0.5703
  762MOL0     C 5025   5.177   4.014   7.746  0.3892 -0.3710 -0.5468
  762MOL0     O 5026   5.066   4.094   7.723  0.0974 -0.4623 -0.0637
  762MOL0     C 5027   5.029   4.181   7.833  0.1109 -0.3784 -0.4386
  762MOL0     C 5028   4.899   4.262   7.804 -0.4476  0.5592  0.9680
  762MOL0     C 5029   4.927   4.353   7.681  0.4100  0.2059 -0.0230
  762MOL0     C 5030   4.809   4.358   7.589  0.6444  0.2908  0.1425
  762MOL0     C 5031   4.825   4.458   7.468 -0.4693 -0.1567  0.6246
  762MOL0     C 5032   4.716   4.436   7.372 -0.6314 -0.4190  0.7756
  762MOL0     C 5033   4.698   4.569   7.297  0.0213  0.1642  0.9192
  762MOL0     C 5034   4.813   4.603   7.204 -0.4062  0.2559 -0.4152
  762MOL0     N 5035   4.848   4.495   7.112  0.2042  1.0377 -0.4301
  762MOL0     C 5036   4.805   4.460   6.988 -0.3112  0.2475  1.0409
  762MOL0     C 5037   4.892   4.366   6.946 -0.2220  0.0277 -0.5096
  762MOL0     C 5038   4.905   4.302   6.812 -0.2132 -0.8443  0.0383
  762MOL0     C 5039   4.954   4.415   6.724 -0.8765  0.2018 -0.7561
  762MOL0     C 5040   4.963   4.390   6.572 -0.1959  0.7093  0.7396
  762MOL0     C 5041   5.067   4.284   6.534 -0.4240 -0.3591  0.1118
  762MOL0     O 5042   5.198   4.326   6.586 -0.5524  0.7525  0.5762
  762MOL0     C 5043   5.276   4.220   6.612  0.2922 -0.5195  0.7688
  762MOL0     C 5044   5.388   4.240   6.687 -0.2535  0.1462  0.3140
  762MOL0     C 5045   5.503   4.153   6.699 -0.1724  0.1988 -0.8866
  762MOL0     C 5046   5.612   4.189   6.800  0.0675 -0.1416  0.1230
  762MOL0     C 5047   5.501   4.034   6.624 -0.9774  0.1324 -0.5152
  762MOL0     C 5048   5.610   3.934   6.625  0.4404  0.1601  0.2783
  762MOL0     O 5049   5.604   3.840   6.527 -1.0100  1.0332 -0.5065
  762MOL0     C 5050   5.664   3.720   6.557  0.2458  0.2860  0.3286
  762MOL0     C 5051   5.584   3.620   6.603  0.4933 -0.1474 -1.3444
  762MOL0     C 5052   5.637   3.496   6.635 -0.5892 -0.2948  0.7603
  762MOL0     C 5053   5.784   3.475   6.633  0.5012 -0.2014 -0.3218
  762MOL0     O 5054   5.852   3.366   6.666 -0.6307  0.7331  0.0042
  762MOL0     C 5055   5.801   3.240   6.620  0.7314  0.9371 -0.2043
  762MOL0     C 5056   5.898   3.129   6.646  0.0119 -0.4310  0.4801
  762MOL0     C 5057   5.936   3.106   6.792 -0.3756 -0.2552  0.1653
  762MOL0     C 5058   5.822   3.053   6.867  0.1622 -0.1340 -0.5251
  762MOL0     C 5059   5.866   3.018   7.013 -0.1637 -0.3784  0.3115
  762MOL0     C 5060   5.959   3.123   7.079 -0.1637 -0.9222 -0.0200
  762MOL0     C 5061   6.015   3.070   7.209 -0.5954 -0.1995 -0.9469
  762MOL0     C 5062   6.134   2.975   7.196  0.1901  0.8311 -0.1689
  762MOL0    Cl 5063   6.278   3.052   7.130 -0.2639  0.1320  0.3065
  762MOL0     C 5064   5.861   3.581   6.587  0.1986  0.0361  0.1846
  762MOL0     C 5065   5.801   3.703   6.548  0.0377  0.0195  0.6017
  762MOL0     O 5066   5.700   3.944   6.706  0.3922 -0.3500  0.1022
  762MOL0     C 5067   5.383   4.002   6.547  0.1587  0.0659 -0.8225
  762MOL0     C 5068   5.273   4.093   6.545 -0.1247 -0.8886 -0.0133
  762MOL0     N 5069   4.987   4.344   7.035 -0.2022  0.0121 -0.2222
  762MOL0     N 5070   4.964   4.421   7.140 -0.2134  0.0062 -0.1864
  762MOL0     C 5071   5.279   4.043   7.841 -0.0057 -0.9787  0.5383
  762MOL0     C 5072   5.374   3.943   7.849  1.0457  0.1202 -0.0548
  762MOL0     C 5073   5.565   3.574   7.948  0.4759  0.6102  0.3034
  762MOL0     C 5074   5.578   3.601   8.088 -0.4078 -0.5173 -1.1569
  762MOL0     C 5075   5.689   3.552   8.161  0.0672 -0.6308 -0.3186
  762MOL0     C 5076   5.777   3.471   8.094  0.0339  0.4777 -0.5183
  762MOL0     O 5077   5.885   3.437   8.174  0.1984 -0.8906  0.6511
  762MOL0     C 5078   5.987   3.351   8.121 -0.2290  0.0239 -0.3622
  762MOL0     C 5079   6.090   3.327   8.241  0.7502  0.7019 -0.9596
  762MOL0     C 5080   6.212   3.257   8.194 -0.7791  0.2551  0.5912
  762MOL0     C 5081   6.328   3.261   8.290  0.5496 -0.2952 -0.1489
  762MOL0     C 5082   6.295   3.185   8.412 -0.3691 -0.4342 -0.3479
  762MOL0     C 5083   6.266   3.127   8.513 -0.1237 -0.0612  0.2912
  762MOL0     C 5084   5.764   3.440   7.958 -0.3369 -0.5095  1.1117
  762MOL0     C 5085   5.654   3.485   7.883 -0.1409 -0.4588 -1.0867
  762MOL0     C 5086   5.652   3.475   7.735 -1.0365 -0.0438  0.2393
  762MOL0     H 5087   5.293   3.717   7.614  4.3446  0.7074  0.6255
  762MOL0     H 5088   5.098   3.894   7.599 -0.9502  2.7426  0.2495
  762MOL0     H 5089   5.110   4.251   7.855  2.0892 -1.5102 -3.4525
  762MOL0     H 5090   5.005   4.112   7.915  0.0229  1.6712  1.3459
  762MOL0     H 5091   4.822   4.187   7.788  1.5059 -1.2628 -0.4200
  762MOL0     H 5092   4.865   4.313   7.894 -4.9039  0.9314 -0.6847
  762MOL0     H 5093   4.945   4.454   7.720 -1.3547  0.6954 -0.4046
  762MOL0     H 5094   5.013   4.325   7.618 -0.1026 -0.3987 -0.4725
  762MOL0     H 5095   4.787   4.257   7.553 -1.7732 -0.4088  3.1085
  762MOL0     H 5096   4.728   4.401   7.649  0.1472 -0.1169 -0.2253
  762MOL0     H 5097   4.927   4.445   7.429 -0.0487  1.6199  1.0264
  762MOL0     H 5098   4.834   4.561   7.505 -2.3043  0.0695  0.4987
  762MOL0     H 5099   4.744   4.357   7.302  0.9794 -1.2482  2.2697
  762MOL0     H 5100   4.621   4.414   7.422 -1.4204  2.3655  0.6634
  762MOL0     H 5101   4.689   4.650   7.370  1.1302  2.3285 -1.1898
  762MOL0     H 5102   4.611   4.574   7.230  1.7133 -0.2690 -1.4393
  762MOL0     H 5103   4.789   4.695   7.150  1.8766 -0.4286 -2.7755
  762MOL0     H 5104   4.900   4.624   7.266  1.3550 -0.1420 -2.6360
  762MOL0     H 5105   4.724   4.504   6.930  1.2491  2.8426  0.6559
  762MOL0     H 5106   4.813   4.255   6.777 -0.9662  0.0310  0.8097
  762MOL0     H 5107   4.983   4.225   6.809 -0.5581 -1.1761 -1.3508
  762MOL0     H 5108   4.879   4.492   6.739  1.1529  1.8142  2.0543
  762MOL0     H 5109   5.045   4.453   6.772 -1.9984  0.9137  0.8750
  762MOL0     H 5110   4.861   4.354   6.552  1.7509 -5.9790  0.3207
  762MOL0     H 5111   4.988   4.488   6.531  2.3571 -0.8980 -1.8849
  762MOL0     H 5112   5.034   4.190   6.581 -1.2513 -0.6667 -1.0259
  762MOL0     H 5113   5.082   4.266   6.427 -0.1808 -3.4469  0.5666
  762MOL0     H 5114   5.378   4.331   6.745  0.8426 -0.2976  1.2472
  762MOL0     H 5115   5.568   4.274   6.852 -1.4828 -0.9413  0.1737
  762MOL0     H 5116   5.712   4.208   6.760  1.1579 -1.2574  2.1691
  762MOL0     H 5117   5.623   4.107   6.871 -1.9084 -0.7713 -0.2176
  762MOL0     H 5118   5.477   3.641   6.609  0.7721  1.8907 -2.4825
  762MOL0     H 5119   5.587   3.417   6.691 -0.1359 -0.5402  0.8210
  762MOL0     H 5120   5.709   3.225   6.677  0.6765  2.2643  0.1126
  762MOL0     H 5121   5.777   3.237   6.514  1.0938 -0.2575 -0.2593
  762MOL0     H 5122   5.863   3.033   6.606 -0.9773  0.2255 -0.2993
  762MOL0     H 5123   5.986   3.155   6.588 -0.5694  0.4297 -0.0371
  762MOL0     H 5124   5.966   3.205   6.830  0.2932 -0.8653  1.2672
  762MOL0     H 5125   6.021   3.038   6.797 -1.5122 -1.7683 -0.5699
  762MOL0     H 5126   5.788   2.963   6.815  1.2060 -0.6238 -0.3825
  762MOL0     H 5127   5.740   3.123   6.889  1.8906  1.3268  1.7864
  762MOL0     H 5128   5.781   2.995   7.078 -1.8538 -3.2587 -2.5912
  762MOL0     H 5129   5.917   2.921   7.003 -0.9810 -0.6149 -2.6550
  762MOL0     H 5130   5.913   3.219   7.105  2.5740  0.9982 -1.6432
  762MOL0     H 5131   6.048   3.130   7.016  1.2166 -1.8526  1.7394
  762MOL0     H 5132   5.935   3.012   7.257 -1.3936 -2.1504 -4.3213
  762MOL0     H 5133   6.048   3.155   7.269 -1.0394  1.9623 -3.6053
  762MOL0     H 5134   6.104   2.886   7.142  1.3216  0.7036 -0.6100
  762MOL0     H 5135   6.168   2.949   7.297 -0.7929 -2.5757 -0.6160
  762MOL0     H 5136   5.968   3.572   6.602  0.3071  2.2143  1.0780
  762MOL0     H 5137   5.862   3.784   6.510  0.7039  0.4802  2.5621
  762MOL0     H 5138   5.367   3.904   6.502  0.1007 -0.3946  0.1792
  762MOL0     H 5139   5.189   4.052   6.489 -1.8537  1.7235  0.4896
  762MOL0     H 5140   5.287   4.134   7.899 -1.5732  0.6369 -1.5747
  762MOL0     H 5141   5.460   3.977   7.908 -1.8747  1.9686  3.5759
  762MOL0     H 5142   5.502   3.664   8.134  1.1691  1.1406 -0.7033
  762MOL0     H 5143   5.705   3.571   8.267  2.1825 -0.7137 -0.5817
  762MOL0     H 5144   5.944   3.260   8.077  1.2042 -0.4870 -0.7891
  762MOL0     H 5145   6.037   3.407   8.042 -1.1739  1.3367 -0.0624
  762MOL0     H 5146   6.050   3.270   8.325  0.7752 -1.6918 -2.4814
  762MOL0     H 5147   6.112   3.431   8.269  4.2976 -0.1982  0.0308
  762MOL0     H 5148   6.192   3.152   8.169 -0.2662  0.3443 -0.2289
  762MOL0     H 5149   6.242   3.313   8.105  2.2593 -0.1646  1.2189
  762MOL0     H 5150   6.363   3.362   8.314  1.1334 -0.6138  0.3606
  762MOL0     H 5151   6.411   3.207   8.244  0.1780  0.4802 -1.8051
  762MOL0     H 5152   6.245   3.081   8.608 -1.1809  1.4648  0.8459
  762MOL0     H 5153   5.851   3.395   7.911 -1.3174 -2.2682  0.9020
  762MOL0     H 5154   5.604   3.381   7.706 -0.6199 -1.7152  4.2113
  762MOL0     H 5155   5.618   3.555   7.669  0.3962  0.0853 -0.3860
  762MOL0     H 5156   5.757   3.458   7.709 -0.5387  2.3419  0.4916
  763MOL0     O 5157   2.120   8.079   3.778  0.0358 -0.5834 -0.5368
  763MOL0     C 5158   2.066   8.170   3.840 -0.4061  0.6482  0.4170
  763MOL0     O 5159   2.125   8.234   3.941  0.4896  0.3266 -0.0121
  763MOL0     C 5160   2.256   8.211   3.968  1.0426  0.4874  0.5149
  763MOL0     C 5161   2.354   8.262   3.893 -0.0024 -0.5891 -0.1491
  763MOL0     C 5162   2.481   8.232   3.918 -0.2171 -0.2655 -0.1589
  763MOL0     C 5163   2.524   8.161   4.029  0.0668  0.6945 -0.0496
  763MOL0     O 5164   2.660   8.152   4.060  0.3345 -0.6880  0.0696
  763MOL0     C 5165   2.702   8.046   4.152 -0.3957 -0.6757  0.0749
  763MOL0     C 5166   2.672   7.901   4.111  0.3708  0.0320  0.8063
  763MOL0     C 5167   2.733   7.864   3.972  0.4712  0.4636 -0.4283
  763MOL0     C 5168   2.883   7.836   3.997 -0.3787 -0.0641  0.6612
  763MOL0     C 5169   2.942   7.757   3.879 -0.4954 -0.1570 -0.7366
  763MOL0     C 5170   2.920   7.837   3.750 -0.3055  0.5003 -0.3375
  763MOL0     C 5171   2.979   7.758   3.625  0.2186  0.4382  0.0786
  763MOL0     C 5172   3.131   7.720   3.639 -0.2328 -0.0288  1.2676
  763MOL0     N 5173   3.223   7.839   3.662  0.4724 -0.1754  0.5292
  763MOL0     C 5174   3.270   7.930   3.568 -0.7871 -0.2228 -0.4992
  763MOL0     C 5175   3.378   7.994   3.628 -0.7943 -0.3157  0.2577
  763MOL0     C 5176   3.477   8.094   3.569  0.1636 -0.2336  0.2768
  763MOL0     C 5177   3.617   8.036   3.543  0.0282  0.0416 -0.5153
  763MOL0     C 5178   3.713   8.143   3.497  1.2637 -0.0647 -0.3295
  763MOL0     C 5179   3.857   8.080   3.484  0.5229  0.1897 -0.1004
  763MOL0     O 5180   3.891   8.019   3.606 -0.0970  0.1355 -0.9067
  763MOL0     C 5181   4.016   7.965   3.620  0.2550  0.6054 -0.7960
  763MOL0     C 5182   4.112   7.953   3.522 -1.2355  0.2590 -0.3930
  763MOL0     C 5183   4.238   7.898   3.549  0.3518  0.6468  0.2933
  763MOL0     C 5184   4.333   7.879   3.435 -0.4891 -0.9623  0.6497
  763MOL0     C 5185   4.279   7.870   3.683  1.0269  0.1687  0.6945
  763MOL0     C 5186   4.417   7.829   3.728 -0.4346 -0.0227  0.8512
  763MOL0     O 5187   4.424   7.761   3.846 -0.6015  0.2532 -0.2115
  763MOL0     C 5188   4.553   7.712   3.871 -0.5957 -0.2726  0.1311
  763MOL0     C 5189   4.629   7.783   3.965  0.9842  0.2279 -0.1102
  763MOL0     C 5190   4.751   7.730   4.017  0.3068 -0.4606 -0.1346
  763MOL0     C 5191   4.793   7.591   3.986 -0.4766  0.1671 -0.5772
  763MOL0     O 5192   4.913   7.546   4.029 -0.7239 -0.6099 -0.6476
  763MOL0     C 5193   4.961   7.420   3.988 -0.1138  0.6407 -0.0628
  763MOL0     C 5194   5.067   7.379   4.095  0.1617  0.2882  0.2134
  763MOL0     C 5195   5.010   7.330   4.228 -0.3469  0.3054 -0.5656
  763MOL0     C 5196   5.124   7.267   4.318 -0.2058 -0.3238  1.0274
  763MOL0     C 5197   5.086   7.245   4.458  0.3504  0.5144 -0.1309
  763MOL0     C 5198   5.027   7.105   4.478 -0.0870 -0.4138 -0.4062
  763MOL0     C 5199   4.984   7.073   4.618  0.4750 -0.1812  1.0625
  763MOL0     C 5200   4.906   6.940   4.623 -0.6715  1.1374 -0.2766
  763MOL0    Cl 5201   4.742   6.942   4.537  0.1659  0.0386 -0.0041
  763MOL0     C 5202   4.724   7.534   3.876 -0.3352 -0.5480 -0.6137
  763MOL0     C 5203   4.603   7.588   3.820 -0.0193  0.5252 -0.7969
  763MOL0     O 5204   4.516   7.863   3.664  1.1309  0.3891 -0.0432
  763MOL0     C 5205   4.185   7.893   3.785 -0.8768  0.3232  0.2450
  763MOL0     C 5206   4.057   7.937   3.754  0.3155  0.1498  0.0727
  763MOL0     N 5207   3.385   7.954   3.762 -0.1549 -0.0586 -1.3394
  763MOL0     N 5208   3.297   7.862   3.774 -0.3007  0.3346  0.0532
  763MOL0     C 5209   2.427   8.102   4.107  0.8276 -0.1597 -0.9223
  763MOL0     C 5210   2.299   8.123   4.074  0.6950 -0.3323 -0.4105
  763MOL0     C 5211   1.923   8.217   3.803  0.0404 -0.3315 -0.0426
  763MOL0     C 5212   1.884   8.347   3.849  0.1119  0.3001  0.4674
  763MOL0     C 5213   1.761   8.393   3.835 -0.4463  0.0318  0.3958
  763MOL0     C 5214   1.665   8.326   3.759 -0.8255  0.2849 -0.1242
  763MOL0     O 5215   1.542   8.378   3.734 -0.6445  0.1034 -0.0793
  763MOL0     C 5216   1.535   8.497   3.658 -0.8020  0.2736  0.0946
  763MOL0     C 5217   1.428   8.587   3.702  0.5335 -0.2562 -0.1561
  763MOL0     C 5218   1.293   8.562   3.634  0.1075 -0.0101  0.2029
  763MOL0     C 5219   1.229   8.437   3.700  1.2965 -0.4194 -0.6678
  763MOL0     C 5220   1.086   8.421   3.672 -0.4422 -0.2037  0.1777
  763MOL0     C 5221   0.973   8.382   3.641 -1.0908  0.0204  1.0314
  763MOL0     C 5222   1.701   8.202   3.701 -0.8954  0.1505  0.8065
  763MOL0     C 5223   1.831   8.139   3.729  0.3874  0.3194  0.3670
  763MOL0     C 5224   1.861   8.012   3.641 -0.3570 -0.3755 -0.4929
  763MOL0     H 5225   2.327   8.332   3.815  0.2261  0.3551  0.5902
  763MOL0     H 5226   2.551   8.273   3.845 -1.6932 -1.0196 -2.0902
  763MOL0     H 5227   2.669   8.065   4.254  0.8012  1.5409  0.1021
  763MOL0     H 5228   2.810   8.051   4.170 -0.6012 -3.8937  3.4417
  763MOL0     H 5229   2.709   7.831   4.187 -2.4887 -1.4211  1.0163
  763MOL0     H 5230   2.568   7.869   4.106  0.8458 -1.5060  0.0656
  763MOL0     H 5231   2.677   7.781   3.929  0.4635 -1.0661  2.3343
  763MOL0     H 5232   2.719   7.943   3.898 -0.7417  0.6851  0.0186
  763MOL0     H 5233   2.943   7.928   4.001  0.2380 -0.4523  0.5388
  763MOL0     H 5234   2.895   7.770   4.084 -2.4549  0.9923  1.8258
  763MOL0     H 5235   2.899   7.657   3.870 -0.0963 -0.4626  0.5610
  763MOL0     H 5236   3.050   7.742   3.891 -0.0891  0.6601 -2.8042
  763MOL0     H 5237   2.813   7.842   3.726 -0.2426 -3.3429 -2.1868
  763MOL0     H 5238   2.960   7.938   3.757  3.4205 -0.9311  1.6248
  763MOL0     H 5239   2.952   7.807   3.531 -1.6705 -3.1954 -1.5079
  763MOL0     H 5240   2.931   7.660   3.611  1.4170 -0.0111 -1.2160
  763MOL0     H 5241   3.155   7.644   3.713 -0.6283 -1.4370 -0.0040
  763MOL0     H 5242   3.151   7.677   3.541 -1.8975  0.3740  0.7208
  763MOL0     H 5243   3.229   7.943   3.468  0.4944 -0.2313 -1.0492
  763MOL0     H 5244   3.493   8.179   3.636  2.8257  0.7490 -1.4247
  763MOL0     H 5245   3.446   8.121   3.467 -3.4490 -3.7876  0.1942
  763MOL0     H 5246   3.653   7.987   3.634 -0.1780  0.6830 -0.0805
  763MOL0     H 5247   3.609   7.961   3.464  2.1557 -1.0797  0.2555
  763MOL0     H 5248   3.677   8.190   3.405  0.1064 -1.3178 -0.5485
  763MOL0     H 5249   3.726   8.217   3.577 -1.4568 -0.2383  0.4001
  763MOL0     H 5250   3.853   8.013   3.398 -0.7893 -1.4693  1.1941
  763MOL0     H 5251   3.917   8.165   3.449  0.6830 -0.3674 -1.2424
  763MOL0     H 5252   4.086   7.972   3.418  1.1911  1.4282 -0.8620
  763MOL0     H 5253   4.295   7.907   3.337  1.6413  1.1609  0.3315
  763MOL0     H 5254   4.368   7.775   3.437 -2.1155 -1.5671 -0.2853
  763MOL0     H 5255   4.416   7.949   3.447  0.7169 -2.0692 -0.7414
  763MOL0     H 5256   4.592   7.878   4.003  2.8678  1.0784 -0.2671
  763MOL0     H 5257   4.811   7.774   4.096  0.7330  1.2082 -1.3357
  763MOL0     H 5258   4.884   7.342   3.988 -0.1064  0.6215  0.6557
  763MOL0     H 5259   5.006   7.412   3.889 -0.1793  1.0381 -0.1288
  763MOL0     H 5260   5.125   7.296   4.054 -1.9754 -0.0526 -2.3378
  763MOL0     H 5261   5.138   7.459   4.117  1.1708 -0.3084 -0.7788
  763MOL0     H 5262   4.932   7.256   4.214  1.4722 -2.4744  2.5310
  763MOL0     H 5263   4.960   7.410   4.283 -0.2706  0.8344 -1.2492
  763MOL0     H 5264   5.204   7.341   4.315  1.6915 -2.2381 -2.3958
  763MOL0     H 5265   5.168   7.177   4.274  0.0278  1.2397 -2.3294
  763MOL0     H 5266   5.174   7.262   4.521  0.1001  1.9856 -0.1288
  763MOL0     H 5267   5.005   7.317   4.475 -0.0617  0.4291 -1.6595
  763MOL0     H 5268   5.097   7.034   4.434  0.7393  0.3282 -0.3010
  763MOL0     H 5269   4.937   7.097   4.416 -0.5695 -1.4055  0.3899
  763MOL0     H 5270   4.921   7.153   4.658 -0.2180 -0.9788  1.6078
  763MOL0     H 5271   5.079   7.068   4.673  1.3538  0.8924 -0.2833
  763MOL0     H 5272   4.900   6.905   4.726  1.4078  0.7666 -0.2393
  763MOL0     H 5273   4.976   6.866   4.582  0.8893  0.2540  3.5167
  763MOL0     H 5274   4.764   7.437   3.846  4.0936  1.2388 -1.1944
  763MOL0     H 5275   4.545   7.531   3.748 -1.1944 -1.8852  1.8586
  763MOL0     H 5276   4.216   7.881   3.888 -1.4318  1.0694  0.5114
  763MOL0     H 5277   3.976   7.961   3.822 -1.1053 -0.4056 -1.3600
  763MOL0     H 5278   2.461   8.045   4.194  0.4489 -1.6081 -1.6891
  763MOL0     H 5279   2.221   8.075   4.133  0.1569  0.1292 -0.7446
  763MOL0     H 5280   1.957   8.418   3.886  1.3929  0.9820 -2.9294
  763MOL0     H 5281   1.722   8.481   3.885 -1.2683  0.1779 -0.4711
  763MOL0     H 5282   1.626   8.556   3.665  0.2249 -1.3084  0.4753
  763MOL0     H 5283   1.518   8.480   3.551 -0.8428  0.3512  0.0882
  763MOL0     H 5284   1.454   8.690   3.678 -2.1515  0.7989  1.0363
  763MOL0     H 5285   1.417   8.579   3.810  1.2752 -1.9998 -0.1751
  763MOL0     H 5286   1.224   8.644   3.655 -0.4964 -0.9766  2.3583
  763MOL0     H 5287   1.310   8.553   3.526 -0.1583 -1.0814  0.2341
  763MOL0     H 5288   1.246   8.450   3.807  0.4137  1.9048 -0.7665
  763MOL0     H 5289   1.288   8.351   3.666  3.4550 -0.2948  2.3561
  763MOL0     H 5290   0.883   8.335   3.605 -0.5148 -2.5185  2.6407
  763MOL0     H 5291   1.628   8.155   3.636 -0.0026  2.2844 -1.9424
  763MOL0     H 5292   1.779   7.986   3.573 -0.7404 -3.6825  1.0547
  763MOL0     H 5293   1.959   8.023   3.593 -0.9606 -0.1011 -1.6980
  763MOL0     H 5294   1.891   7.933   3.710  1.2470 -0.2633 -1.0007
  764MOL0     O 5295   1.591   4.109   0.256 -0.2348  0.1476 -0.0151
  764MOL0     C 5296   1.545   4.211   0.206 -0.1206 -0.5679  0.2900
  764MOL0     O 5297   1.609   4.305   0.133  0.0330 -0.1921 -0.2010
  764MOL0     C 5298   1.731   4.267   0.080 -0.3199 -0.1315  0.2930
  764MOL0     C 5299   1.824   4.374   0.066  0.5643  0.7605 -0.4881
  764MOL0     C 5300   1.957   4.354   0.012  0.1398  0.5229  0.4174
  764MOL0     C 5301   1.996   4.231  -0.028 -0.1090 -0.1467  0.8581
  764MOL0     O 5302   2.125   4.215  -0.068 -0.4952 -0.1123 -0.2636
  764MOL0     C 5303   2.148   4.227  -0.208  0.3282  0.1582 -0.1538
  764MOL0     C 5304   2.105   4.100  -0.288  0.1951  0.8577  0.1578
  764MOL0     C 5305   2.168   4.101  -0.431 -0.0935 -0.1639 -0.5843
  764MOL0     C 5306   2.128   3.982  -0.508 -0.0684  1.2637 -0.4020
  764MOL0     C 5307   2.216   3.952  -0.632 -0.6482 -0.3163  0.7823
  764MOL0     C 5308   2.162   3.818  -0.691  0.3871  0.3176 -0.1895
  764MOL0     C 5309   2.018   3.834  -0.744  0.1197 -0.0167  0.2730
  764MOL0     C 5310   1.994   3.736  -0.863 -0.1499 -0.5895  0.4013
  764MOL0     N 5311   2.023   3.810  -0.990 -0.1424  0.5806 -0.3033
  764MOL0     C 5312   1.924   3.878  -1.057  1.3323  0.1714 -0.6313
  764MOL0     C 5313   1.982   3.937  -1.155 -0.1124  0.1533 -0.2473
  764MOL0     C 5314   1.916   4.027  -1.266 -0.1094 -0.3813 -0.7868
  764MOL0     C 5315   1.896   4.172  -1.236  0.0935 -0.7748 -0.6321
  764MOL0     C 5316   2.009   4.266  -1.278  0.6675  0.2899 -0.0931
  764MOL0     C 5317   2.133   4.243  -1.188 -1.2728  0.8086 -0.7890
  764MOL0     O 5318   2.111   4.249  -1.037  0.1603 -0.7577  0.1409
  764MOL0     C 5319   2.218   4.233  -0.950  0.2512  0.2839  0.7627
  764MOL0     C 5320   2.216   4.318  -0.843  0.4868 -0.0840 -0.1803
  764MOL0     C 5321   2.327   4.322  -0.762  0.4699 -0.9170  0.4627
  764MOL0     C 5322   2.307   4.428  -0.657 -0.7217  1.1482 -1.0648
  764MOL0     C 5323   2.439   4.235  -0.773 -0.0508  0.2038  0.8081
  764MOL0     C 5324   2.559   4.229  -0.682  0.1304 -0.0707  0.0594
  764MOL0     O 5325   2.634   4.122  -0.701  0.1616  0.4267  0.9169
  764MOL0     C 5326   2.751   4.109  -0.632 -0.9370  0.2234  0.3238
  764MOL0     C 5327   2.867   4.095  -0.707  0.2807  0.0712 -0.0666
  764MOL0     C 5328   2.990   4.092  -0.638 -0.5756  0.4165  0.3008
  764MOL0     C 5329   3.006   4.089  -0.498 -0.1815  0.2507 -0.7592
  764MOL0     O 5330   3.143   4.079  -0.453  0.1278 -0.2663  0.2525
  764MOL0     C 5331   3.183   4.033  -0.324  0.6656  0.2180  0.0200
  764MOL0     C 5332   3.281   4.128  -0.263  0.2932 -0.3852  0.0811
  764MOL0     C 5333   3.209   4.264  -0.219  0.8445 -0.6837  0.2645
  764MOL0     C 5334   3.307   4.388  -0.191  0.9772  0.4163  0.3461
  764MOL0     C 5335   3.223   4.517  -0.169 -0.2301  0.4117  0.1498
  764MOL0     C 5336   3.149   4.526  -0.034 -0.5135  1.1732 -0.2489
  764MOL0     C 5337   3.052   4.644  -0.041 -0.0738 -0.2886  0.2408
  764MOL0     C 5338   2.930   4.621   0.057 -0.4896 -1.0249  0.0977
  764MOL0    Cl 5339   2.960   4.576   0.232  0.1189  0.3279  0.0829
  764MOL0     C 5340   2.889   4.101  -0.426 -0.0252  0.8425 -0.2045
  764MOL0     C 5341   2.762   4.116  -0.484 -0.6312  0.0032  0.8298
  764MOL0     O 5342   2.598   4.319  -0.616 -0.0201 -0.3215  0.4288
  764MOL0     C 5343   2.438   4.147  -0.887 -0.5560 -0.3103  0.3341
  764MOL0     C 5344   2.322   4.140  -0.970 -0.1961 -0.3922  0.3481
  764MOL0     N 5345   2.121   3.912  -1.156  0.6990 -0.1475  0.3063
  764MOL0     N 5346   2.142   3.825  -1.057 -0.6137  0.0778  0.0214
  764MOL0     C 5347   1.901   4.125  -0.031  0.0192  0.5391 -0.5255
  764MOL0     C 5348   1.775   4.138   0.027  0.1188 -0.2214 -0.4007
  764MOL0     C 5349   1.396   4.244   0.224  0.3844 -0.4569  0.0031
  764MOL0     C 5350   1.342   4.346   0.139  1.1393  0.4974 -0.1775
  764MOL0     C 5351   1.203   4.361   0.134  0.1596 -0.0215 -0.3834
  764MOL0     C 5352   1.124   4.293   0.228  0.5326 -0.6654 -1.3471
  764MOL0     O 5353   0.985   4.301   0.233  0.2183  0.0402  0.2246
  764MOL0     C 5354   0.912   4.354   0.116 -0.5961 -0.9916  0.0823
  764MOL0     C 5355   0.776   4.292   0.095  0.5373  0.4553 -0.6486
  764MOL0     C 5356   0.780   4.142   0.094  0.4218 -0.4270  0.1898
  764MOL0     C 5357   0.631   4.093   0.080 -0.7066  0.3935 -1.0434
  764MOL0     C 5358   0.635   3.942   0.069 -0.6657  0.1565 -0.5298
  764MOL0     C 5359   0.644   3.817   0.071 -0.7817 -0.3191  0.0136
  764MOL0     C 5360   1.182   4.224   0.334  0.4214 -0.2718  1.3392
  764MOL0     C 5361   1.314   4.186   0.324  0.2108 -0.6199  0.5622
  764MOL0     C 5362   1.360   4.079   0.413  0.7206  0.5617  0.6291
  764MOL0     H 5363   1.790   4.469   0.104 -1.3596 -1.2133  3.3547
  764MOL0     H 5364   2.019   4.440  -0.006  1.0726 -0.1739  0.2126
  764MOL0     H 5365   2.256   4.238  -0.216  0.7543 -3.8183 -1.8761
  764MOL0     H 5366   2.096   4.316  -0.245  0.0801  0.9630  2.0132
  764MOL0     H 5367   2.139   4.010  -0.237  1.5584  1.2495  0.0008
  764MOL0     H 5368   1.998   4.104  -0.310  0.5243 -0.2691 -1.8811
  764MOL0     H 5369   2.132   4.191  -0.481 -0.5168 -1.9882 -3.9165
  764MOL0     H 5370   2.277   4.110  -0.425  0.0894 -2.5595  2.0784
  764MOL0     H 5371   2.136   3.890  -0.449 -0.0147 -0.7287 -3.2776
  764MOL0     H 5372   2.021   3.986  -0.529 -0.7697 -1.6051  1.9393
  764MOL0     H 5373   2.319   3.940  -0.598 -0.3897 -1.8002 -0.4095
  764MOL0     H 5374   2.214   4.042  -0.695  0.0529 -1.0681 -0.3618
  764MOL0     H 5375   2.228   3.787  -0.773  1.8238  0.5473  0.8270
  764MOL0     H 5376   2.167   3.738  -0.616 -0.1316  1.5150  1.1565
  764MOL0     H 5377   1.998   3.934  -0.782  0.6764  0.5295  1.3600
  764MOL0     H 5378   1.941   3.799  -0.674  0.2995 -2.2285 -0.5584
  764MOL0     H 5379   2.064   3.653  -0.853 -0.3550 -0.6684  1.2528
  764MOL0     H 5380   1.894   3.691  -0.862 -1.1062  1.3795  1.3463
  764MOL0     H 5381   1.818   3.868  -1.038  1.6771 -1.5305  0.6385
  764MOL0     H 5382   1.822   3.988  -1.307  0.0876  0.3248 -1.9602
  764MOL0     H 5383   1.982   4.018  -1.353  0.3693 -2.5519 -0.2536
  764MOL0     H 5384   1.810   4.203  -1.297  0.3705 -0.3399 -0.8074
  764MOL0     H 5385   1.880   4.185  -1.129  0.3574 -2.0105 -0.4273
  764MOL0     H 5386   2.057   4.247  -1.375  2.1422 -0.5851  0.7564
  764MOL0     H 5387   1.970   4.367  -1.270  0.5923  0.1692  1.3145
  764MOL0     H 5388   2.190   4.153  -1.216  0.2619  0.6365  2.3940
  764MOL0     H 5389   2.209   4.321  -1.202  0.2126 -0.0360  1.7977
  764MOL0     H 5390   2.138   4.391  -0.827  0.3450 -0.4508  0.8797
  764MOL0     H 5391   2.359   4.520  -0.683 -2.6606  2.6050 -0.0093
  764MOL0     H 5392   2.334   4.394  -0.557 -0.0409  0.6147 -1.4172
  764MOL0     H 5393   2.200   4.447  -0.644 -1.2676  0.5754 -3.9061
  764MOL0     H 5394   2.850   4.085  -0.813 -1.2146  0.4191  0.1249
  764MOL0     H 5395   3.076   4.079  -0.702 -0.9648  0.5084 -0.2467
  764MOL0     H 5396   3.097   4.026  -0.257 -2.4540  1.2427 -3.5218
  764MOL0     H 5397   3.241   3.941  -0.339  1.1528  0.7072 -1.2189
  764MOL0     H 5398   3.327   4.078  -0.178 -0.7685 -1.6579 -0.0613
  764MOL0     H 5399   3.362   4.152  -0.332  0.6031  2.5701  1.3025
  764MOL0     H 5400   3.145   4.248  -0.132 -0.4130  1.4364 -0.2120
  764MOL0     H 5401   3.146   4.307  -0.297 -0.9320 -0.4481  1.7644
  764MOL0     H 5402   3.366   4.415  -0.280 -0.9845  0.4831 -0.9894
  764MOL0     H 5403   3.381   4.372  -0.112  0.4644  3.6936  1.6659
  764MOL0     H 5404   3.292   4.602  -0.172  0.7974 -0.4166 -0.6443
  764MOL0     H 5405   3.155   4.515  -0.255 -2.0951 -1.7028  1.5727
  764MOL0     H 5406   3.218   4.527   0.050 -0.7505 -0.8806  0.0417
  764MOL0     H 5407   3.096   4.431  -0.020 -0.3531  1.3340  1.6104
  764MOL0     H 5408   3.003   4.659  -0.138  2.0104  1.2796 -0.6495
  764MOL0     H 5409   3.099   4.738  -0.009 -3.0497  1.6199 -0.5983
  764MOL0     H 5410   2.867   4.548   0.006  0.9743 -1.3415 -1.3406
  764MOL0     H 5411   2.865   4.709   0.056 -0.4498 -0.9569 -2.6670
  764MOL0     H 5412   2.901   4.118  -0.320 -0.5608 -0.8077  0.1595
  764MOL0     H 5413   2.674   4.133  -0.424  0.2306 -0.1496  2.1937
  764MOL0     H 5414   2.525   4.090  -0.919 -0.7283  1.0980 -2.9742
  764MOL0     H 5415   2.326   4.077  -1.058 -3.3987  0.7525 -0.7585
  764MOL0     H 5416   1.932   4.028  -0.070  2.0737  1.4046 -1.1862
  764MOL0     H 5417   1.705   4.056   0.035  0.6665 -0.7166 -0.6431
  764MOL0     H 5418   1.403   4.396   0.065  0.3972 -0.0046 -1.1402
  764MOL0     H 5419   1.180   4.421   0.047 -1.5531 -1.0035 -0.6504
  764MOL0     H 5420   0.905   4.460   0.140  4.0618  0.0748 -2.1029
  764MOL0     H 5421   0.972   4.351   0.025 -1.4406 -0.8005 -0.4916
  764MOL0     H 5422   0.744   4.313  -0.008  1.3774 -1.8959 -1.4369
  764MOL0     H 5423   0.695   4.322   0.162  0.7834 -1.5050  0.5967
  764MOL0     H 5424   0.839   4.112   0.007  1.0076  1.8412 -0.2659
  764MOL0     H 5425   0.821   4.118   0.193  0.9274  0.9384  0.3355
  764MOL0     H 5426   0.588   4.134  -0.012  2.4249 -0.1941 -2.9129
  764MOL0     H 5427   0.571   4.114   0.169 -0.4784 -1.7777 -0.3286
  764MOL0     H 5428   0.644   3.712   0.052 -4.3336  0.2544 -5.8556
  764MOL0     H 5429   1.115   4.171   0.401 -2.1695 -1.2374 -1.7861
  764MOL0     H 5430   1.384   3.985   0.364  0.6466  0.3626  0.9692
  764MOL0     H 5431   1.445   4.110   0.475  0.0096  0.6046  1.6139
  764MOL0     H 5432   1.280   4.061   0.486 -1.1897 -1.5341 -1.7926
  765MOL0     O 5433   3.476   6.027   0.560  0.3823  0.1504  0.5157
  765MOL0     C 5434   3.512   5.964   0.658  0.4994 -0.7866 -0.0122
  765MOL0     O 5435   3.566   5.830   0.647 -0.4110  0.1501  0.0632
  765MOL0     C 5436   3.610   5.787   0.526  0.4937  0.0201  0.3499
  765MOL0     C 5437   3.525   5.702   0.447  0.1891  0.5584 -0.7146
  765MOL0     C 5438   3.565   5.664   0.327 -0.3576  0.8016 -0.4079
  765MOL0     C 5439   3.686   5.708   0.266 -0.2879  0.8233 -0.5357
  765MOL0     O 5440   3.705   5.656   0.140  0.7594  0.3313 -0.0310
  765MOL0     C 5441   3.843   5.661   0.102  0.0076 -0.0768  1.6040
  765MOL0     C 5442   3.853   5.626  -0.045 -0.9155 -0.2643  0.2713
  765MOL0     C 5443   3.973   5.681  -0.125  0.0224  0.2660  0.7471
  765MOL0     C 5444   4.110   5.658  -0.054  0.4781  0.6057  0.0085
  765MOL0     C 5445   4.224   5.724  -0.127  0.1279  0.8575  0.2188
  765MOL0     C 5446   4.332   5.756  -0.032  0.9865  0.1193  0.1238
  765MOL0     C 5447   4.471   5.772  -0.103  0.6039 -0.0179  0.3351
  765MOL0     C 5448   4.585   5.788  -0.004  0.7231  0.8677  0.1522
  765MOL0     N 5449   4.712   5.803  -0.062 -1.2870 -0.2097  0.1965
  765MOL0     C 5450   4.752   5.887  -0.160  0.2616  0.8586  0.6920
  765MOL0     C 5451   4.886   5.869  -0.175  0.5490  0.0929 -0.3379
  765MOL0     C 5452   4.993   5.923  -0.271 -0.1278  0.5722 -1.0661
  765MOL0     C 5453   4.964   5.865  -0.406  0.4313  0.1230 -0.2457
  765MOL0     C 5454   5.018   5.966  -0.506  0.2358  1.4729 -0.0197
  765MOL0     C 5455   5.170   5.945  -0.531  0.3067 -0.3212  1.1783
  765MOL0     O 5456   5.250   6.021  -0.429  0.6718  0.1964 -0.4809
  765MOL0     C 5457   5.378   6.039  -0.465 -1.0165 -0.9348 -0.2023
  765MOL0     C 5458   5.424   6.166  -0.512 -0.7201  0.5558 -0.1502
  765MOL0     C 5459   5.557   6.190  -0.542  0.4041 -0.4975  0.7344
  765MOL0     C 5460   5.584   6.331  -0.576  0.8578  0.3412 -0.1178
  765MOL0     C 5461   5.648   6.084  -0.525  0.3764  0.5094  0.7651
  765MOL0     C 5462   5.790   6.107  -0.533 -0.9459 -0.2146 -0.6785
  765MOL0     O 5463   5.845   6.231  -0.545 -0.2250  0.2362 -0.2068
  765MOL0     C 5464   5.977   6.251  -0.546 -0.6667 -1.0542 -0.2803
  765MOL0     C 5465   6.025   6.352  -0.631  0.0007  0.1182 -0.7317
  765MOL0     C 5466   6.161   6.388  -0.639  0.5695 -0.0320 -0.4077
  765MOL0     C 5467   6.252   6.320  -0.555  0.6731  0.8342  0.5888
  765MOL0     O 5468   6.392   6.342  -0.550  0.0165 -0.1562  0.2198
  765MOL0     C 5469   6.472   6.388  -0.669 -0.2572  0.6880 -0.2884
  765MOL0     C 5470   6.622   6.356  -0.639 -0.5074 -0.5758  0.1710
  765MOL0     C 5471   6.654   6.204  -0.614  0.3712 -0.3483 -0.0788
  765MOL0     C 5472   6.656   6.165  -0.464 -0.4241 -0.2850 -0.3271
  765MOL0     C 5473   6.740   6.039  -0.420  0.1472 -0.9895 -0.2138
  765MOL0     C 5474   6.749   6.017  -0.275 -0.0220 -0.5021  0.4918
  765MOL0     C 5475   6.829   5.897  -0.242 -0.3981 -0.4606 -0.0539
  765MOL0     C 5476   6.793   5.834  -0.109  0.2657  0.2442  0.2951
  765MOL0    Cl 5477   6.624   5.752  -0.099 -0.2149  0.2466 -0.0317
  765MOL0     C 5478   6.206   6.225  -0.463  0.4518 -0.1003 -0.0080
  765MOL0     C 5479   6.070   6.190  -0.460 -0.4146  0.2156  0.6285
  765MOL0     O 5480   5.862   6.002  -0.518  0.2546  0.2768  0.3406
  765MOL0     C 5481   5.598   5.953  -0.487  0.7394  0.1901 -0.4885
  765MOL0     C 5482   5.461   5.938  -0.465  0.7553  0.1455  0.5707
  765MOL0     N 5483   4.912   5.772  -0.078 -0.5452 -0.0834  0.5869
  765MOL0     N 5484   4.810   5.725  -0.023  0.1141  0.7306 -0.6983
  765MOL0     C 5485   3.771   5.794   0.342 -0.9244 -0.2776  0.4110
  765MOL0     C 5486   3.731   5.835   0.470  0.5425 -0.1277  0.8986
  765MOL0     C 5487   3.490   6.011   0.795  0.2015  0.4010 -0.2240
  765MOL0     C 5488   3.541   5.936   0.908  0.6931 -0.5611  0.1769
  765MOL0     C 5489   3.523   5.987   1.042 -0.4618  0.4194  0.4870
  765MOL0     C 5490   3.456   6.106   1.066 -0.2182  0.3417 -0.5430
  765MOL0     O 5491   3.436   6.144   1.195  0.2174  0.4490 -0.5133
  765MOL0     C 5492   3.301   6.168   1.242  0.6334  0.7247  0.1911
  765MOL0     C 5493   3.237   6.056   1.319  0.2437 -1.4586 -0.4662
  765MOL0     C 5494   3.086   6.091   1.359  0.7821  0.0326 -0.2141
  765MOL0     C 5495   3.033   5.976   1.438  0.4567  0.3297 -0.6101
  765MOL0     C 5496   3.004   5.859   1.354 -0.3670 -0.0443  0.1403
  765MOL0     C 5497   2.971   5.771   1.285  0.2832 -0.2427  0.5288
  765MOL0     C 5498   3.414   6.186   0.958  0.5417  0.3769  0.4400
  765MOL0     C 5499   3.424   6.137   0.826  0.7796  0.2826 -0.0018
  765MOL0     C 5500   3.376   6.235   0.718  0.1527  0.7653 -0.0511
  765MOL0     H 5501   3.427   5.681   0.487 -0.5157  3.8857 -0.4073
  765MOL0     H 5502   3.490   5.599   0.282  0.3419 -0.4813  0.2298
  765MOL0     H 5503   3.900   5.588   0.160 -3.3331 -2.3902  2.1859
  765MOL0     H 5504   3.891   5.760   0.103 -0.2302  0.0947 -0.6028
  765MOL0     H 5505   3.879   5.520  -0.045 -1.9980 -0.5653  1.5598
  765MOL0     H 5506   3.753   5.636  -0.087 -0.1747 -2.2522 -2.2021
  765MOL0     H 5507   3.970   5.643  -0.228  1.6933  2.5475 -0.2264
  765MOL0     H 5508   3.959   5.789  -0.138 -0.4357  0.0112 -1.1902
  765MOL0     H 5509   4.105   5.691   0.051  1.9567  0.5324  0.1319
  765MOL0     H 5510   4.132   5.551  -0.043  1.9335  0.9581  0.8505
  765MOL0     H 5511   4.193   5.814  -0.181  1.8303  1.0209 -0.5612
  765MOL0     H 5512   4.258   5.654  -0.204 -0.6967 -0.0759  0.6822
  765MOL0     H 5513   4.313   5.838   0.039 -0.3210  0.2714 -0.3693
  765MOL0     H 5514   4.340   5.664   0.026 -1.0971  0.1494  0.5313
  765MOL0     H 5515   4.469   5.855  -0.174 -3.6760  0.7596  1.0806
  765MOL0     H 5516   4.477   5.676  -0.155 -2.5040  0.1918 -0.6190
  765MOL0     H 5517   4.567   5.872   0.064  0.3000  1.0625 -0.1918
  765MOL0     H 5518   4.597   5.702   0.062 -0.0081  0.2615 -0.4874
  765MOL0     H 5519   4.694   5.948  -0.230  1.2361  0.0537 -0.8806
  765MOL0     H 5520   5.093   5.896  -0.236  0.0489  2.6358  0.1749
  765MOL0     H 5521   4.991   6.033  -0.267 -1.0776  0.5148  0.7554
  765MOL0     H 5522   5.009   5.765  -0.414 -1.9550 -0.9992 -0.3975
  765MOL0     H 5523   4.860   5.851  -0.435  1.8682 -5.4730 -4.2739
  765MOL0     H 5524   4.966   5.947  -0.601  1.2632  1.9287 -0.6860
  765MOL0     H 5525   5.007   6.067  -0.466 -1.2769  1.0519  0.6898
  765MOL0     H 5526   5.198   5.839  -0.526 -2.3350 -1.1271  0.2907
  765MOL0     H 5527   5.189   5.981  -0.632 -0.4396 -2.5364  0.1855
  765MOL0     H 5528   5.347   6.241  -0.523 -0.9407  0.5857  1.3578
  765MOL0     H 5529   5.490   6.382  -0.596  0.2171 -0.8807 -0.3312
  765MOL0     H 5530   5.640   6.338  -0.670  4.0690  1.3909  1.7195
  765MOL0     H 5531   5.634   6.386  -0.496 -1.0302  4.1035 -1.3001
  765MOL0     H 5532   5.943   6.394  -0.688 -1.2196  1.3556  1.7865
  765MOL0     H 5533   6.192   6.473  -0.700  2.0084  0.5425  1.0610
  765MOL0     H 5534   6.448   6.333  -0.761  0.1126 -2.2140  1.2190
  765MOL0     H 5535   6.465   6.497  -0.670  2.0536  0.8889 -0.2903
  765MOL0     H 5536   6.685   6.396  -0.719  0.7159 -2.1354  0.3092
  765MOL0     H 5537   6.650   6.408  -0.547 -0.5838  0.9016 -0.6141
  765MOL0     H 5538   6.738   6.161  -0.670  0.8424  1.5489 -0.9204
  765MOL0     H 5539   6.565   6.153  -0.651  1.4881 -2.6974  0.2466
  765MOL0     H 5540   6.551   6.148  -0.439 -0.4779  3.7712  3.2233
  765MOL0     H 5541   6.685   6.249  -0.401 -2.3433  1.2614 -1.4034
  765MOL0     H 5542   6.695   5.952  -0.469 -1.4699 -0.2479 -0.1228
  765MOL0     H 5543   6.843   6.056  -0.451 -0.0104 -0.9657 -0.7260
  765MOL0     H 5544   6.651   6.013  -0.226 -0.0058  0.3154  0.6074
  765MOL0     H 5545   6.802   6.101  -0.230 -2.5197  1.7687 -0.5346
  765MOL0     H 5546   6.932   5.934  -0.234  0.0431 -1.7881  0.7390
  765MOL0     H 5547   6.836   5.820  -0.319  3.4216 -0.7712  0.4233
  765MOL0     H 5548   6.799   5.923  -0.045  0.5300  0.4514 -0.0146
  765MOL0     H 5549   6.872   5.767  -0.076  0.0305 -1.1034 -1.6905
  765MOL0     H 5550   6.275   6.171  -0.398  1.1566  2.3889  1.4360
  765MOL0     H 5551   6.044   6.120  -0.381 -0.1489 -0.5692  0.0408
  765MOL0     H 5552   5.654   5.863  -0.463 -2.2878 -1.5045  0.8106
  765MOL0     H 5553   5.425   5.840  -0.437  0.4474 -0.8800 -2.9608
  765MOL0     H 5554   3.870   5.821   0.306 -0.7579  0.0493  1.0835
  765MOL0     H 5555   3.786   5.907   0.530  0.0464  0.7218  0.3457
  765MOL0     H 5556   3.576   5.835   0.888 -1.1429 -0.7778 -2.6018
  765MOL0     H 5557   3.561   5.928   1.125 -1.3086  1.3246  1.5314
  765MOL0     H 5558   3.300   6.257   1.305 -0.3825 -1.1583  3.0036
  765MOL0     H 5559   3.241   6.192   1.153 -0.2931  0.8021  0.8279
  765MOL0     H 5560   3.296   6.047   1.411  1.0854 -1.7666 -1.0278
  765MOL0     H 5561   3.245   5.961   1.265  2.1156 -1.3053 -0.5371
  765MOL0     H 5562   3.085   6.180   1.422 -0.7972  0.4411 -0.7808
  765MOL0     H 5563   3.024   6.111   1.271 -0.6566 -0.2349  0.7077
  765MOL0     H 5564   2.934   6.006   1.472 -0.6171 -1.5001 -1.9287
  765MOL0     H 5565   3.088   5.945   1.527 -1.4240  1.4484  1.0133
  765MOL0     H 5566   2.915   5.691   1.241 -0.6903  0.6733  0.0694
  765MOL0     H 5567   3.365   6.280   0.981  1.5484  0.3807  2.8299
  765MOL0     H 5568   3.305   6.315   0.743 -2.7342 -2.1377  1.8173
  765MOL0     H 5569   3.460   6.268   0.655  1.8560 -1.4062  0.9555
  765MOL0     H 5570   3.303   6.180   0.659 -0.7355  0.2280  1.4843
  766MOL0     O 5571   9.105   3.275   8.522 -0.0552 -0.0502 -0.2596
  766MOL0     C 5572   9.057   3.333   8.426  0.2583  1.4559 -0.5618
  766MOL0     O 5573   9.121   3.422   8.344  0.6213  0.1264 -1.0240
  766MOL0     C 5574   9.252   3.444   8.366 -0.2338 -0.0765 -0.4513
  766MOL0     C 5575   9.293   3.553   8.444  0.6842 -0.1002  0.1850
  766MOL0     C 5576   9.431   3.577   8.447  0.1142 -0.4821  0.4222
  766MOL0     C 5577   9.520   3.498   8.383  0.1560  0.5079 -0.2535
  766MOL0     O 5578   9.651   3.507   8.403 -0.5900 -0.3497 -0.4350
  766MOL0     C 5579   9.714   3.628   8.441  0.3419  0.4228  0.2088
  766MOL0     C 5580   9.761   3.617   8.587 -0.1559  1.0010 -0.1616
  766MOL0     C 5581   9.821   3.477   8.619  0.2418 -0.1424  0.2729
  766MOL0     C 5582   9.847   3.479   8.772 -0.3499  0.6395 -0.1510
  766MOL0     C 5583   9.915   3.339   8.817  0.4392  0.2957  1.0766
  766MOL0     C 5584   9.938   3.333   8.965 -0.0189 -0.4105  0.1897
  766MOL0     C 5585  10.013   3.213   8.998  0.2069  0.3607 -1.0190
  766MOL0     C 5586   9.951   3.069   8.977  0.1223 -0.6392 -0.1591
  766MOL0     N 5587   9.846   3.042   9.072 -0.2533  0.0730  0.8378
  766MOL0     C 5588   9.862   3.031   9.204  0.2573 -0.5991 -0.3054
  766MOL0     C 5589   9.741   3.017   9.253  0.9202  0.6546  1.1348
  766MOL0     C 5590   9.703   3.016   9.401  0.1373 -0.6647  0.0060
  766MOL0     C 5591   9.614   3.133   9.441  0.1527  0.0105  0.2749
  766MOL0     C 5592   9.558   3.111   9.588 -0.1688  0.5509 -0.0783
  766MOL0     C 5593   9.445   3.009   9.581  0.2674  0.2831 -0.3404
  766MOL0     O 5594   9.337   3.076   9.503  0.0082  0.0884  0.2478
  766MOL0     C 5595   9.213   3.006   9.503 -0.4787 -0.3685  0.3215
  766MOL0     C 5596   9.096   3.077   9.455 -0.8523 -0.3902 -0.1449
  766MOL0     C 5597   8.968   3.017   9.438 -0.9346  0.5665 -0.7608
  766MOL0     C 5598   8.867   3.105   9.389 -0.1275  0.6526  0.6072
  766MOL0     C 5599   8.953   2.881   9.485  0.0870  0.7939 -0.1665
  766MOL0     C 5600   8.828   2.795   9.476 -0.8431  1.5682 -0.3770
  766MOL0     O 5601   8.725   2.832   9.404  0.3168 -0.2559  0.0214
  766MOL0     C 5602   8.592   2.789   9.431  0.8659 -0.0619  0.5666
  766MOL0     C 5603   8.520   2.819   9.544 -0.3604  1.2721 -0.6158
  766MOL0     C 5604   8.388   2.778   9.574  0.0907  0.1771 -0.3223
  766MOL0     C 5605   8.325   2.684   9.490 -1.7098  0.5692  0.8144
  766MOL0     O 5606   8.196   2.655   9.520 -0.3510  0.1052  0.2916
  766MOL0     C 5607   8.114   2.583   9.430 -0.2002  0.0860 -0.0202
  766MOL0     C 5608   7.994   2.534   9.520 -0.4948  0.1611  0.4924
  766MOL0     C 5609   7.925   2.415   9.463 -0.3972  0.1001 -0.1333
  766MOL0     C 5610   7.812   2.379   9.566  0.6915  0.5735  0.2123
  766MOL0     C 5611   7.754   2.240   9.529  0.6149 -0.3560  0.1499
  766MOL0     C 5612   7.626   2.205   9.597 -0.5501 -0.0229  0.2580
  766MOL0     C 5613   7.563   2.070   9.553 -0.0506 -0.5162 -0.3518
  766MOL0     C 5614   7.413   2.088   9.540  0.5936  0.1353  0.4247
  766MOL0    Cl 5615   7.351   2.130   9.704  0.2679 -0.2026  0.5553
  766MOL0     C 5616   8.396   2.653   9.370  0.3482  0.4646 -0.0999
  766MOL0     C 5617   8.526   2.698   9.349  0.0949  0.7256 -0.0580
  766MOL0     O 5618   8.823   2.692   9.540 -0.2906  0.2456  0.1235
  766MOL0     C 5619   9.074   2.814   9.529  0.2660  0.0076 -0.1275
  766MOL0     C 5620   9.199   2.878   9.533  0.3261  0.8401 -0.5637
  766MOL0     N 5621   9.646   3.005   9.148 -0.6663  0.1908 -0.2883
  766MOL0     N 5622   9.716   3.019   9.037  0.0239 -0.3753  0.2531
  766MOL0     C 5623   9.478   3.384   8.313  0.3772 -0.2361 -0.4843
  766MOL0     C 5624   9.339   3.362   8.301 -0.2774 -0.0164 -0.2680
  766MOL0     C 5625   8.910   3.312   8.404  0.2362  0.6185 -0.8314
  766MOL0     C 5626   8.844   3.397   8.311  0.4633 -0.5481 -0.3436
  766MOL0     C 5627   8.709   3.369   8.270  0.1961 -0.0309  0.5095
  766MOL0     C 5628   8.639   3.261   8.328  1.1862 -0.2291  0.3892
  766MOL0     O 5629   8.512   3.245   8.287 -0.3177 -0.5714 -0.2803
  766MOL0     C 5630   8.487   3.104   8.272 -0.0588 -0.8320 -0.9955
  766MOL0     C 5631   8.347   3.074   8.330 -0.4414  0.3678  0.4940
  766MOL0     C 5632   8.308   2.931   8.299 -1.2636 -0.0798 -0.3035
  766MOL0     C 5633   8.164   2.909   8.349 -0.5921  0.1870 -0.5719
  766MOL0     C 5634   8.115   2.775   8.316  0.4087 -0.2050 -0.6142
  766MOL0     C 5635   8.068   2.667   8.285  0.5587 -0.5023  0.5894
  766MOL0     C 5636   8.693   3.196   8.430  0.1756  0.1858 -0.4023
  766MOL0     C 5637   8.833   3.212   8.465  0.5801 -0.0276  0.2886
  766MOL0     C 5638   8.878   3.114   8.574  1.1436 -0.4094  0.5081
  766MOL0     H 5639   9.224   3.625   8.486  1.0262  2.2978 -2.9375
  766MOL0     H 5640   9.462   3.664   8.504 -0.2865 -0.3912  0.5035
  766MOL0     H 5641   9.643   3.711   8.432 -2.4270 -1.3751  3.3293
  766MOL0     H 5642   9.799   3.642   8.373 -1.1268  0.9036 -1.6258
  766MOL0     H 5643   9.843   3.684   8.614  2.2121 -2.2953  1.5425
  766MOL0     H 5644   9.673   3.640   8.647 -1.2230  1.6822 -1.9079
  766MOL0     H 5645   9.763   3.387   8.596  0.1156  0.2747 -1.1283
  766MOL0     H 5646   9.913   3.457   8.563 -0.7159 -1.3576 -0.9333
  766MOL0     H 5647   9.909   3.567   8.794 -1.3490  0.9034  1.9573
  766MOL0     H 5648   9.758   3.488   8.835  1.2191 -0.3259  2.3593
  766MOL0     H 5649  10.013   3.338   8.769  0.5604  3.0167  1.0916
  766MOL0     H 5650   9.849   3.254   8.796  0.0392  0.9430 -0.4483
  766MOL0     H 5651   9.988   3.430   8.977  1.1419 -1.0907  1.0142
  766MOL0     H 5652   9.845   3.341   9.022 -0.7687 -1.0367 -0.9056
  766MOL0     H 5653  10.048   3.223   9.101 -0.2507 -1.7061 -0.6264
  766MOL0     H 5654  10.107   3.214   8.941  2.4495 -0.8132  2.3513
  766MOL0     H 5655   9.908   3.061   8.877  2.1458  2.3546 -1.4001
  766MOL0     H 5656  10.024   2.988   8.990  0.5646  0.1189  2.8715
  766MOL0     H 5657   9.954   3.038   9.262 -0.8745 -1.0067  1.6257
  766MOL0     H 5658   9.792   3.016   9.466  1.1692 -1.2552 -1.3489
  766MOL0     H 5659   9.660   2.919   9.424 -0.1282 -1.4337 -3.2909
  766MOL0     H 5660   9.673   3.225   9.433 -0.9284  0.6451 -0.8720
  766MOL0     H 5661   9.532   3.148   9.370  1.1927  1.0020 -0.7691
  766MOL0     H 5662   9.634   3.090   9.665 -0.0981  2.1830  0.3562
  766MOL0     H 5663   9.512   3.207   9.616 -1.7893 -0.5630  1.2560
  766MOL0     H 5664   9.475   2.912   9.541 -0.1105 -1.4137  3.1411
  766MOL0     H 5665   9.410   2.985   9.681  1.7613 -0.1516  0.0883
  766MOL0     H 5666   9.103   3.178   9.415  1.3173  0.1721  1.4536
  766MOL0     H 5667   8.906   3.203   9.362  1.0305  0.9785  3.1116
  766MOL0     H 5668   8.792   3.128   9.465  1.7507  3.3423  1.8393
  766MOL0     H 5669   8.805   3.059   9.312  0.7736  0.3084  0.0753
  766MOL0     H 5670   8.574   2.893   9.603  1.3179 -0.5474  0.2612
  766MOL0     H 5671   8.336   2.827   9.655  0.3373 -0.7156  0.3926
  766MOL0     H 5672   8.080   2.656   9.356  1.5095 -0.1872 -1.1343
  766MOL0     H 5673   8.156   2.497   9.376 -4.0399 -2.8981  1.2717
  766MOL0     H 5674   8.043   2.515   9.615  2.2592  1.2084 -0.6165
  766MOL0     H 5675   7.922   2.614   9.541 -1.3599 -0.4310 -0.1136
  766MOL0     H 5676   7.992   2.331   9.446 -1.6457 -0.7457 -0.9999
  766MOL0     H 5677   7.887   2.440   9.364 -1.9271 -0.6623  0.2340
  766MOL0     H 5678   7.736   2.458   9.563  2.0621  1.9134 -0.3391
  766MOL0     H 5679   7.864   2.378   9.662  2.5181 -0.9341 -0.7350
  766MOL0     H 5680   7.740   2.243   9.420  0.6301  0.4237  0.1648
  766MOL0     H 5681   7.832   2.164   9.541  1.7791  0.7311 -0.2176
  766MOL0     H 5682   7.558   2.289   9.577  1.9231  2.0508 -0.0298
  766MOL0     H 5683   7.628   2.201   9.706 -4.4585  1.0355  0.5395
  766MOL0     H 5684   7.588   1.987   9.620 -1.3659  1.2314  2.4791
  766MOL0     H 5685   7.598   2.039   9.454 -0.2799 -7.2535  1.1856
  766MOL0     H 5686   7.363   1.996   9.509 -2.1975  2.2965 -2.0169
  766MOL0     H 5687   7.383   2.169   9.474  2.2053  1.6764  1.4992
  766MOL0     H 5688   8.347   2.590   9.296 -0.7152  0.7364  0.3549
  766MOL0     H 5689   8.571   2.675   9.253  2.7203 -1.2410  1.4849
  766MOL0     H 5690   9.072   2.706   9.541  2.4831 -0.0354  0.1729
  766MOL0     H 5691   9.278   2.817   9.575  1.2558  1.9020 -0.6974
  766MOL0     H 5692   9.547   3.317   8.262 -1.0833 -2.2484  0.0800
  766MOL0     H 5693   9.318   3.277   8.236  1.9810 -0.9074  0.0887
  766MOL0     H 5694   8.900   3.484   8.278  0.4202 -0.6512 -0.6897
  766MOL0     H 5695   8.670   3.426   8.187 -1.8276 -0.5547  1.0154
  766MOL0     H 5696   8.486   3.074   8.166 -0.3705 -0.8731 -0.9826
  766MOL0     H 5697   8.569   3.038   8.302  1.2944  0.8744 -0.8456
  766MOL0     H 5698   8.278   3.148   8.288 -0.2156 -0.0660 -0.6627
  766MOL0     H 5699   8.343   3.101   8.436  0.1694  2.6372 -0.0177
  766MOL0     H 5700   8.300   2.933   8.190 -0.6375  0.3339 -0.3486
  766MOL0     H 5701   8.380   2.855   8.330 -1.7647 -0.3243  0.2816
  766MOL0     H 5702   8.096   2.987   8.314  1.9265  2.0458 -1.6975
  766MOL0     H 5703   8.159   2.907   8.458 -0.1002 -1.0064 -0.5563
  766MOL0     H 5704   8.032   2.572   8.251  3.2432 -0.9270 -1.4099
  766MOL0     H 5705   8.633   3.120   8.480  2.5558 -0.3397  1.8818
  766MOL0     H 5706   8.967   3.052   8.556 -0.0734 -3.1484  3.0036
  766MOL0     H 5707   8.887   3.167   8.669 -2.1114 -1.2295  1.4040
  766MOL0     H 5708   8.799   3.042   8.599  1.7070  0.2175  5.0525
  767MOL0     O 5709  10.409   9.997   9.468  0.1802  0.3975 -0.2503
  767MOL0     C 5710  10.300  10.050   9.468 -0.6051 -0.1100  0.0842
  767MOL0     O 5711  10.252  10.125   9.363 -0.1110  0.1886  0.3986
  767MOL0     C 5712  10.295  10.120   9.229  0.2225 -0.2791 -0.3732
  767MOL0     C 5713  10.420  10.064   9.187 -0.1761  1.1252 -0.5113
  767MOL0     C 5714  10.462  10.067   9.057  0.5502  0.0381  0.3524
  767MOL0     C 5715  10.375  10.114   8.956  0.2130 -0.6416 -0.4394
  767MOL0     O 5716  10.413  10.136   8.828 -0.2307  0.1222  0.2784
  767MOL0     C 5717  10.518  10.059   8.768 -0.4570  0.5738 -0.3497
  767MOL0     C 5718  10.475   9.912   8.751  0.1047  0.7906  0.3249
  767MOL0     C 5719  10.601   9.817   8.755 -0.0407  0.0004 -0.4121
  767MOL0     C 5720  10.670   9.818   8.618 -0.6282  0.2989 -0.1269
  767MOL0     C 5721  10.812   9.764   8.616 -0.5342  0.2228 -0.6269
  767MOL0     C 5722  10.915   9.829   8.724  0.7005 -0.0484 -0.5963
  767MOL0     C 5723  11.064   9.835   8.671 -0.1396 -0.6809 -0.0035
  767MOL0     C 5724  11.126   9.695   8.673 -0.1004  0.2766 -0.5367
  767MOL0     N 5725  11.277   9.704   8.638  1.0262  0.3743 -0.0090
  767MOL0     C 5726  11.370   9.808   8.623 -0.7145 -0.8853 -0.1035
  767MOL0     C 5727  11.495   9.760   8.597 -0.1155 -0.6527  0.2310
  767MOL0     C 5728  11.630   9.832   8.596 -0.8488  1.3838 -0.4199
  767MOL0     C 5729  11.665   9.908   8.717 -0.3230  0.7970  0.6401
  767MOL0     C 5730  11.819   9.947   8.715 -0.0604  0.4689 -0.5500
  767MOL0     C 5731  11.877  10.020   8.599 -0.8851 -0.0701 -0.3390
  767MOL0     O 5732  12.021  10.011   8.599 -0.6307 -0.2926  0.2069
  767MOL0     C 5733  12.091  10.034   8.484 -0.9231 -0.2645 -0.3116
  767MOL0     C 5734  12.225  10.019   8.507  0.2896  0.8503  0.3695
  767MOL0     C 5735  12.307  10.035   8.401 -0.3279  0.3262 -1.1397
  767MOL0     C 5736  12.456   9.998   8.428 -0.2696  0.2616  0.0088
  767MOL0     C 5737  12.253  10.082   8.277 -0.3387  0.0637 -0.0499
  767MOL0     C 5738  12.336  10.128   8.156 -0.2327  0.3560  0.2825
  767MOL0     O 5739  12.275  10.165   8.043  0.2207 -1.2599  0.5874
  767MOL0     C 5740  12.348  10.198   7.928 -0.0765  0.1503 -0.0441
  767MOL0     C 5741  12.449  10.113   7.884  0.7879  0.5247 -0.4298
  767MOL0     C 5742  12.530  10.158   7.771  0.4459 -0.7706 -0.9252
  767MOL0     C 5743  12.492  10.268   7.692  0.1600  0.5756  0.0140
  767MOL0     O 5744  12.563  10.330   7.595 -0.6690 -0.1351 -0.1985
  767MOL0     C 5745  12.703  10.303   7.601  0.0462 -0.0291  0.1044
  767MOL0     C 5746  12.771  10.405   7.516 -0.1376  1.1115  0.3520
  767MOL0     C 5747  12.929  10.383   7.516  0.6082  0.5802  0.2040
  767MOL0     C 5748  12.986  10.499   7.430  0.6349  0.1694  0.4532
  767MOL0     C 5749  13.134  10.478   7.418  0.4833  0.4148  0.7958
  767MOL0     C 5750  13.182  10.593   7.311  1.2807  0.5598  0.4663
  767MOL0     C 5751  13.267  10.707   7.364 -0.1224  0.3881 -0.7362
  767MOL0     C 5752  13.298  10.825   7.261 -0.4067  0.1957  0.3152
  767MOL0    Cl 5753  13.457  10.794   7.196  0.3760 -0.2954  0.1934
  767MOL0     C 5754  12.375  10.334   7.732  0.1216 -0.2041 -0.0354
  767MOL0     C 5755  12.313  10.303   7.844 -0.3818  0.6087 -0.0541
  767MOL0     O 5756  12.457  10.122   8.173  0.9876 -0.4112  0.1638
  767MOL0     C 5757  12.121  10.096   8.261  0.5237  0.3063  0.1351
  767MOL0     C 5758  12.037  10.067   8.365  0.7433 -0.1967  0.5703
  767MOL0     N 5759  11.479   9.625   8.596  0.3616 -0.4558  0.2216
  767MOL0     N 5760  11.353   9.591   8.617  0.1754 -0.3340  0.1403
  767MOL0     C 5761  10.245  10.156   8.988  0.3452 -0.5400 -0.3523
  767MOL0     C 5762  10.205  10.164   9.121 -0.2715  1.1124 -0.5718
  767MOL0     C 5763  10.218  10.047   9.599 -0.0128  0.0215  0.1993
  767MOL0     C 5764  10.243   9.947   9.688 -0.9184  0.2219 -0.0889
  767MOL0     C 5765  10.177   9.938   9.816 -0.2121 -0.0906  0.7486
  767MOL0     C 5766  10.092  10.044   9.868 -0.3706  0.4592  0.0970
  767MOL0     O 5767  10.032  10.033   9.993  0.5068  0.1532 -0.1100
  767MOL0     C 5768   9.967  10.143  10.042  0.0400  0.1727  0.2534
  767MOL0     C 5769   9.937  10.121  10.198  0.0747 -0.8068 -0.0198
  767MOL0     C 5770   9.878  10.249  10.246 -0.6297  0.5362  0.1566
  767MOL0     C 5771   9.866  10.250  10.400  0.0259  0.2083  0.1372
  767MOL0     C 5772   9.772  10.352  10.440 -1.4373  0.5381  0.2868
  767MOL0     C 5773   9.689  10.420  10.488 -0.5160 -0.5646 -0.3907
  767MOL0     C 5774  10.073  10.140   9.775  0.9100 -1.4543  0.1025
  767MOL0     C 5775  10.133  10.153   9.645 -1.0144 -0.6310  0.2668
  767MOL0     C 5776  10.115  10.281   9.569  0.9837  0.7735  0.6771
  767MOL0     H 5777  10.492  10.017   9.254 -2.3086 -1.6931 -0.0237
  767MOL0     H 5778  10.559  10.022   9.040 -0.3488 -2.0475  0.2852
  767MOL0     H 5779  10.606  10.065   8.832  0.0158 -2.1150 -0.6405
  767MOL0     H 5780  10.540  10.108   8.672 -2.3668  0.4658 -0.8814
  767MOL0     H 5781  10.402   9.891   8.830  0.0505  1.7118  0.5305
  767MOL0     H 5782  10.436   9.917   8.649  3.3873  0.5379 -1.0673
  767MOL0     H 5783  10.658   9.840   8.846 -1.0919  2.2590 -0.2446
  767MOL0     H 5784  10.566   9.717   8.781  2.8210 -1.2674 -1.0340
  767MOL0     H 5785  10.615   9.746   8.557 -1.6091  1.9411 -1.2768
  767MOL0     H 5786  10.661   9.912   8.562 -3.8815  0.6899  0.8371
  767MOL0     H 5787  10.860   9.775   8.518  1.2201 -0.0068  0.1572
  767MOL0     H 5788  10.815   9.658   8.641  4.8757 -0.5364 -3.0089
  767MOL0     H 5789  10.894   9.935   8.740 -0.1660 -0.2280 -0.4960
  767MOL0     H 5790  10.897   9.795   8.826  2.5495  3.4001  1.0466
  767MOL0     H 5791  11.113   9.903   8.742 -1.2117  0.0010  0.1198
  767MOL0     H 5792  11.065   9.886   8.575  0.9868  2.2740  1.4347
  767MOL0     H 5793  11.111   9.640   8.766  1.0892  1.8815  0.6810
  767MOL0     H 5794  11.077   9.641   8.592  2.0074  1.1600 -2.5039
  767MOL0     H 5795  11.348   9.914   8.635 -0.6897 -0.9349  0.3842
  767MOL0     H 5796  11.641   9.903   8.513 -2.3802 -0.5753 -2.4053
  767MOL0     H 5797  11.698   9.747   8.595 -2.1630  0.1243  2.6997
  767MOL0     H 5798  11.593   9.989   8.732 -0.1632  0.7905  1.4453
  767MOL0     H 5799  11.652   9.846   8.806 -1.4511  1.2964  0.8388
  767MOL0     H 5800  11.844  10.003   8.806 -1.2183  0.4597 -0.2182
  767MOL0     H 5801  11.870   9.850   8.719 -0.1465  0.4427  0.1297
  767MOL0     H 5802  11.847   9.965   8.510  1.2883 -3.2142  0.6906
  767MOL0     H 5803  11.841  10.124   8.603 -0.5916  0.0130  0.4608
  767MOL0     H 5804  12.264  10.004   8.607  1.6463  2.6848  0.1682
  767MOL0     H 5805  12.514  10.088   8.451  1.3932 -0.8473  0.3122
  767MOL0     H 5806  12.498   9.947   8.341  0.9506  2.3309 -0.7079
  767MOL0     H 5807  12.464   9.923   8.506 -0.3300  1.1327  0.8700
  767MOL0     H 5808  12.479  10.028   7.945  0.9276  2.9001  3.1245
  767MOL0     H 5809  12.617  10.101   7.743  1.4782  0.8976 -1.2731
  767MOL0     H 5810  12.745  10.321   7.700  0.4704 -1.0003  0.1160
  767MOL0     H 5811  12.731  10.201   7.572  0.3672 -0.2840  1.2591
  767MOL0     H 5812  12.757  10.401   7.408  1.0093  0.5543  0.2119
  767MOL0     H 5813  12.747  10.509   7.540  0.2483  1.0768  0.9022
  767MOL0     H 5814  12.960  10.287   7.474  0.1133  0.7734 -0.6313
  767MOL0     H 5815  12.964  10.379   7.619  0.2225  2.1903  0.4333
  767MOL0     H 5816  12.955  10.593   7.476 -0.3295  0.9984 -1.7627
  767MOL0     H 5817  12.944  10.504   7.329  0.8650  1.5476  0.4068
  767MOL0     H 5818  13.187  10.489   7.513 -0.2623  3.4073  0.9638
  767MOL0     H 5819  13.156  10.375   7.390 -0.8637 -0.4116  2.5737
  767MOL0     H 5820  13.107  10.626   7.238 -0.5481 -1.5787  1.2251
  767MOL0     H 5821  13.251  10.531   7.254  2.2835 -0.2152  2.4260
  767MOL0     H 5822  13.359  10.668   7.409 -1.0267  1.0408  1.8843
  767MOL0     H 5823  13.221  10.747   7.455  3.3378  0.3772  1.1677
  767MOL0     H 5824  13.287  10.920   7.315 -4.6260 -0.4529  0.9703
  767MOL0     H 5825  13.232  10.841   7.176 -0.8442  4.8221  1.2515
  767MOL0     H 5826  12.333  10.418   7.677 -2.6727 -1.4859 -0.0486
  767MOL0     H 5827  12.232  10.359   7.890  0.9679  2.2428  0.4390
  767MOL0     H 5828  12.068  10.120   8.169 -0.6117 -1.4310  0.2886
  767MOL0     H 5829  11.928  10.070   8.363  0.5766 -3.1654  0.4085
  767MOL0     H 5830  10.195  10.195   8.900  3.0867 -0.4805 -1.9865
  767MOL0     H 5831  10.114  10.212   9.156 -1.3082 -0.2883 -1.2176
  767MOL0     H 5832  10.302   9.861   9.657 -1.7767 -0.2845 -0.3602
  767MOL0     H 5833  10.175   9.847   9.875  1.3397  1.1331  2.8633
  767MOL0     H 5834  10.026  10.235  10.030  1.0884 -0.6754 -1.4690
  767MOL0     H 5835   9.871  10.153   9.990  0.3379 -2.1532 -0.8794
  767MOL0     H 5836  10.034  10.096  10.242  0.8530  1.0635 -0.5595
  767MOL0     H 5837   9.873  10.032  10.200 -0.0223 -0.7253  1.3699
  767MOL0     H 5838   9.933  10.332  10.199  1.0213 -1.4451 -1.6410
  767MOL0     H 5839   9.775  10.259  10.211 -1.2278  0.6104  1.8596
  767MOL0     H 5840   9.961  10.261  10.453  0.7805 -2.0445 -0.5911
  767MOL0     H 5841   9.828  10.152  10.430  0.3067  0.7647  2.4911
  767MOL0     H 5842   9.610  10.480  10.529  0.6725  1.2736 -0.6289
  767MOL0     H 5843  10.018  10.226   9.813  1.2827 -1.8812  1.6755
  767MOL0     H 5844  10.038  10.270   9.492  1.8618 -0.2052 -0.0795
  767MOL0     H 5845  10.068  10.358   9.632 -2.2116  0.5766 -1.2424
  767MOL0     H 5846  10.207  10.327   9.534  0.3902  1.9274  0.5763
  768MOL0     O 5847   3.490   4.063  10.598  0.1939 -0.0444 -0.2599
  768MOL0     C 5848   3.531   3.973  10.671 -0.4167 -0.6961 -0.6574
  768MOL0     O 5849   3.531   3.838  10.632 -0.3538 -0.5783 -0.5340
  768MOL0     C 5850   3.472   3.805  10.515 -0.3013  0.8101  0.1982
  768MOL0     C 5851   3.349   3.742  10.530  0.2884  0.2152  0.2012
  768MOL0     C 5852   3.272   3.717  10.406 -0.5373  0.6429 -0.3376
  768MOL0     C 5853   3.326   3.752  10.288  0.2950  1.0264 -0.1908
  768MOL0     O 5854   3.270   3.727  10.165  0.2233 -0.1844  0.1724
  768MOL0     C 5855   3.126   3.710  10.151 -0.2769  0.0278  0.5631
  768MOL0     C 5856   3.085   3.740  10.011 -0.2008  0.5257 -0.1159
  768MOL0     C 5857   2.944   3.687   9.987  0.1011  0.8237 -1.1390
  768MOL0     C 5858   2.915   3.674   9.831  0.4903  0.0868 -0.1066
  768MOL0     C 5859   2.950   3.805   9.751 -0.3033  0.8920  0.1449
  768MOL0     C 5860   2.931   3.802   9.596  0.6264  0.7417 -0.6069
  768MOL0     C 5861   3.035   3.705   9.528 -0.2612  0.2436  0.1734
  768MOL0     C 5862   3.027   3.717   9.374 -0.8408  0.1471 -0.4545
  768MOL0     N 5863   2.895   3.729   9.310 -1.1778  0.4956  0.7614
  768MOL0     C 5864   2.812   3.624   9.311 -0.0330  0.8250 -0.3859
  768MOL0     C 5865   2.719   3.653   9.219  0.4223 -0.0190 -0.6933
  768MOL0     C 5866   2.585   3.576   9.192  0.2167 -0.6528 -1.0375
  768MOL0     C 5867   2.475   3.601   9.301  0.1323 -0.2714 -0.2463
  768MOL0     C 5868   2.440   3.754   9.306  0.6934  0.6921 -0.1124
  768MOL0     C 5869   2.291   3.769   9.352  0.3618 -0.4164 -0.0314
  768MOL0     O 5870   2.247   3.651   9.424 -0.2545  0.0155  0.1206
  768MOL0     C 5871   2.289   3.634   9.558 -0.2907 -0.0368  0.0437
  768MOL0     C 5872   2.217   3.543   9.635  0.1538 -0.0008 -0.7269
  768MOL0     C 5873   2.231   3.528   9.775 -0.1216  0.1517 -0.6098
  768MOL0     C 5874   2.139   3.431   9.841  0.4000  0.3076 -0.5723
  768MOL0     C 5875   2.328   3.608   9.844 -0.2362  1.0883  0.0552
  768MOL0     C 5876   2.353   3.595   9.990 -0.2572  0.1287 -0.1301
  768MOL0     O 5877   2.481   3.596  10.018 -0.0330 -0.7295  0.9186
  768MOL0     C 5878   2.533   3.637  10.141 -0.1239 -1.6305  0.0400
  768MOL0     C 5879   2.459   3.708  10.238 -0.1322  0.3136  0.0054
  768MOL0     C 5880   2.510   3.728  10.367  0.4552 -0.4085  0.3299
  768MOL0     C 5881   2.642   3.692  10.397  0.5527  0.6188 -0.1949
  768MOL0     O 5882   2.699   3.712  10.523 -0.3447  0.3687 -0.3060
  768MOL0     C 5883   2.621   3.731  10.647  0.0240  0.7317 -1.0258
  768MOL0     C 5884   2.698   3.742  10.777 -0.5164  0.1442  0.5649
  768MOL0     C 5885   2.796   3.639  10.808 -0.5035  0.0290 -0.4464
  768MOL0     C 5886   2.922   3.624  10.735 -0.9265 -0.0963  0.2705
  768MOL0     C 5887   3.020   3.733  10.759  0.2402 -0.2076 -0.0378
  768MOL0     C 5888   3.078   3.738  10.903 -0.3819  0.2163  0.1669
  768MOL0     C 5889   3.111   3.596  10.968  0.4809  0.2171  0.6989
  768MOL0     C 5890   3.199   3.604  11.096 -0.2029 -0.4717 -0.2372
  768MOL0    Cl 5891   3.119   3.703  11.225  0.5254 -0.4664  0.3308
  768MOL0     C 5892   2.716   3.629  10.301  0.1188  0.8846 -0.3934
  768MOL0     C 5893   2.667   3.602  10.174 -0.7717 -1.2085 -0.8309
  768MOL0     O 5894   2.258   3.582  10.071  0.3610  1.3889  0.1078
  768MOL0     C 5895   2.411   3.696   9.768 -0.3368  0.5700  0.3219
  768MOL0     C 5896   2.377   3.713   9.628 -0.5444  0.9650  0.6025
  768MOL0     N 5897   2.757   3.767   9.147  0.4634  0.4158 -0.5192
  768MOL0     N 5898   2.866   3.812   9.206  0.1807 -0.0500  0.3070
  768MOL0     C 5899   3.451   3.803  10.279 -1.1318  0.3143 -0.6321
  768MOL0     C 5900   3.526   3.827  10.394  0.4479 -0.1614  0.5702
  768MOL0     C 5901   3.602   4.012  10.805 -0.0586 -0.7855  0.2268
  768MOL0     C 5902   3.703   3.934  10.860 -0.8268 -0.7098  1.0212
  768MOL0     C 5903   3.759   3.972  10.972 -0.9929  0.0105 -0.9443
  768MOL0     C 5904   3.728   4.095  11.040 -0.1869  0.2159  0.4225
  768MOL0     O 5905   3.817   4.134  11.143  0.0209 -0.0801 -0.0429
  768MOL0     C 5906   3.784   4.238  11.232 -1.0298 -0.0724  0.2552
  768MOL0     C 5907   3.661   4.209  11.327 -0.2429 -0.8041 -0.0038
  768MOL0     C 5908   3.658   4.082  11.388 -0.0604 -0.9204  0.4154
  768MOL0     C 5909   3.782   4.021  11.462  0.2925  0.7277  0.3044
  768MOL0     C 5910   3.752   3.912  11.550  0.0023 -0.0041 -0.2275
  768MOL0     C 5911   3.738   3.822  11.632  0.0964  0.6774  0.3080
  768MOL0     C 5912   3.624   4.165  10.985  1.0585 -0.0678 -0.5147
  768MOL0     C 5913   3.547   4.125  10.873 -0.8589 -0.0086  0.5833
  768MOL0     C 5914   3.434   4.218  10.837  0.0147 -0.1695  0.0041
  768MOL0     H 5915   3.315   3.711  10.628  0.1462 -1.9051 -0.4626
  768MOL0     H 5916   3.188   3.649  10.416  0.3201 -0.3708  0.2140
  768MOL0     H 5917   3.067   3.780  10.212 -0.2932  3.9543 -3.4970
  768MOL0     H 5918   3.106   3.607  10.182  0.3417 -0.2269  0.1402
  768MOL0     H 5919   3.092   3.846   9.983 -1.4126  0.8371  0.6837
  768MOL0     H 5920   3.150   3.681   9.946 -3.5974 -3.3333 -0.3608
  768MOL0     H 5921   2.925   3.588  10.028  2.8417  0.1898 -1.1567
  768MOL0     H 5922   2.877   3.744  10.051  2.0240 -1.1306  3.0120
  768MOL0     H 5923   2.984   3.603   9.785  0.5863  0.4721 -0.5779
  768MOL0     H 5924   2.818   3.626   9.816  0.9517 -1.2169  0.9511
  768MOL0     H 5925   3.055   3.835   9.758  0.4495 -1.4364 -0.2147
  768MOL0     H 5926   2.884   3.874   9.805  0.9067  2.8810 -0.8141
  768MOL0     H 5927   2.830   3.766   9.578  1.0697 -0.1691 -1.4227
  768MOL0     H 5928   2.939   3.902   9.552 -0.3493  2.0749  2.0672
  768MOL0     H 5929   3.014   3.601   9.555 -2.3408  0.9493  1.5468
  768MOL0     H 5930   3.135   3.736   9.558 -0.3039  0.7363 -0.1777
  768MOL0     H 5931   3.082   3.808   9.350 -3.1397  2.0244  0.9238
  768MOL0     H 5932   3.076   3.625   9.342  1.2556 -0.2759  3.3605
  768MOL0     H 5933   2.824   3.541   9.380 -0.2658  2.4659  1.7375
  768MOL0     H 5934   2.604   3.469   9.182 -2.3307 -1.0401 -2.6809
  768MOL0     H 5935   2.545   3.614   9.098  0.3604  2.7557  0.1403
  768MOL0     H 5936   2.392   3.535   9.275  1.0284 -1.4190 -0.2519
  768MOL0     H 5937   2.512   3.582   9.402 -0.6799  2.1141  0.5907
  768MOL0     H 5938   2.515   3.800   9.371  2.0878 -1.7859  0.1574
  768MOL0     H 5939   2.450   3.799   9.207 -0.6836 -0.2046 -0.6983
  768MOL0     H 5940   2.283   3.862   9.410 -3.1041  0.9991 -2.4093
  768MOL0     H 5941   2.229   3.789   9.265  0.4753 -0.8126 -0.2040
  768MOL0     H 5942   2.140   3.487   9.584 -1.2596 -1.3839  2.6666
  768MOL0     H 5943   2.057   3.497   9.870  1.0313  0.0805  1.9496
  768MOL0     H 5944   2.181   3.377   9.926  0.5108 -1.9746 -1.9969
  768MOL0     H 5945   2.115   3.351   9.771  2.0712  1.5766 -2.7389
  768MOL0     H 5946   2.357   3.739  10.220 -0.8914 -2.6935 -1.6712
  768MOL0     H 5947   2.456   3.787  10.440 -2.1254  0.7206 -2.2765
  768MOL0     H 5948   2.543   3.806  10.632 -1.7340 -0.1341  2.7700
  768MOL0     H 5949   2.567   3.638  10.665  3.5192 -1.7485 -2.1966
  768MOL0     H 5950   2.745   3.841  10.774 -0.9347  0.4436  2.3454
  768MOL0     H 5951   2.629   3.752  10.862  1.7998  1.3773  2.4611
  768MOL0     H 5952   2.752   3.539  10.806 -0.0715 -0.2920  2.4155
  768MOL0     H 5953   2.832   3.643  10.911  3.8685 -0.8292 -1.7039
  768MOL0     H 5954   2.898   3.617  10.629  1.5441  2.3651 -0.5446
  768MOL0     H 5955   2.975   3.532  10.761  2.0477  0.5949 -2.7709
  768MOL0     H 5956   3.105   3.712  10.692 -0.0046 -1.0690 -0.0860
  768MOL0     H 5957   2.986   3.833  10.728  1.8006  0.1236 -0.8173
  768MOL0     H 5958   3.012   3.796  10.968 -1.5192  1.4553 -1.9772
  768MOL0     H 5959   3.169   3.799  10.902 -0.9809  1.1145 -0.6382
  768MOL0     H 5960   3.167   3.544  10.890 -2.7965 -0.0597 -1.6745
  768MOL0     H 5961   3.018   3.548  11.001  1.7065 -1.5669  1.6871
  768MOL0     H 5962   3.289   3.664  11.077 -0.1739 -0.6648 -0.7216
  768MOL0     H 5963   3.227   3.506  11.137 -2.3120 -1.8336 -1.8348
  768MOL0     H 5964   2.821   3.608  10.318  0.6303 -0.0585 -3.9544
  768MOL0     H 5965   2.717   3.557  10.089 -2.6603 -0.8647 -2.1879
  768MOL0     H 5966   2.482   3.758   9.823  2.0133 -1.0022 -0.7782
  768MOL0     H 5967   2.438   3.790   9.581  0.2297  0.1801  0.2725
  768MOL0     H 5968   3.498   3.813  10.182 -1.0478  0.9596 -0.5271
  768MOL0     H 5969   3.627   3.861  10.371 -0.2002  0.8806 -0.8838
  768MOL0     H 5970   3.728   3.847  10.799 -0.1109  0.4259 -0.3542
  768MOL0     H 5971   3.838   3.909  11.011 -2.2286 -0.4239  0.9980
  768MOL0     H 5972   3.865   4.253  11.304 -1.4112 -0.8419  0.8640
  768MOL0     H 5973   3.771   4.331  11.177  1.1200  1.1942  1.7572
  768MOL0     H 5974   3.568   4.233  11.275 -0.0775 -1.5230 -0.6397
  768MOL0     H 5975   3.665   4.278  11.412  3.1448  0.2310 -0.8385
  768MOL0     H 5976   3.577   4.092  11.461 -0.1636  0.9424  0.1014
  768MOL0     H 5977   3.623   4.016  11.309 -3.8557  0.3141  0.8883
  768MOL0     H 5978   3.838   4.103  11.509  1.4274 -0.1235  0.4823
  768MOL0     H 5979   3.831   3.973  11.377  1.1274 -1.6871  2.0644
  768MOL0     H 5980   3.724   3.746  11.705 -0.5194 -0.2417 -0.7360
  768MOL0     H 5981   3.608   4.263  11.028 -2.3154 -0.8510  0.3023
  768MOL0     H 5982   3.339   4.165  10.851  1.1166 -2.0744  0.6000
  768MOL0     H 5983   3.439   4.309  10.898  1.1900 -0.7223  0.7618
  768MOL0     H 5984   3.447   4.253  10.734 -2.3359  0.6473 -0.0836
  769MOL0     O 5985   1.243   3.808   6.037  0.4501 -0.0246  0.4560
  769MOL0     C 5986   1.155   3.730   6.067 -0.0783  0.0910  0.0976
  769MOL0     O 5987   1.166   3.640   6.166  0.1117  0.0883  0.9993
  769MOL0     C 5988   1.290   3.592   6.174 -0.5084 -0.0580  1.0633
  769MOL0     C 5989   1.332   3.553   6.302  0.1672 -0.6787 -0.2462
  769MOL0     C 5990   1.449   3.481   6.333  0.8833 -0.1538 -0.0791
  769MOL0     C 5991   1.533   3.440   6.233 -0.2843 -0.1144  0.9330
  769MOL0     O 5992   1.657   3.384   6.243  0.2987 -0.2588 -0.3622
  769MOL0     C 5993   1.733   3.419   6.363  0.7994 -0.3833 -0.6305
  769MOL0     C 5994   1.877   3.360   6.344  0.2460  0.2503  0.3420
  769MOL0     C 5995   1.960   3.356   6.469 -0.2464 -0.0372  0.7490
  769MOL0     C 5996   2.102   3.314   6.456 -0.5149 -0.1072  0.3984
  769MOL0     C 5997   2.193   3.323   6.589  0.7696  0.0289  0.4247
  769MOL0     C 5998   2.337   3.291   6.567  0.4924  0.1465 -0.4145
  769MOL0     C 5999   2.417   3.317   6.688 -0.7448  0.4605  0.6619
  769MOL0     C 6000   2.472   3.453   6.696  0.1275  0.8651 -0.4167
  769MOL0     N 6001   2.561   3.470   6.814 -0.5627 -0.5968 -0.4053
  769MOL0     C 6002   2.681   3.413   6.830 -0.9441 -0.0827  1.2905
  769MOL0     C 6003   2.718   3.428   6.962 -0.2506  0.8789  0.3543
  769MOL0     C 6004   2.835   3.364   7.044  1.2686  0.7792  0.6598
  769MOL0     C 6005   2.853   3.213   6.998 -0.0670  0.0784 -0.1925
  769MOL0     C 6006   2.978   3.147   7.077  0.2185 -0.0524  0.2713
  769MOL0     C 6007   2.971   3.003   7.126 -0.4352  0.1927 -0.5401
  769MOL0     O 6008   3.077   2.980   7.230 -0.3691 -0.1094  0.8467
  769MOL0     C 6009   3.102   2.846   7.267 -0.6013 -0.5431  0.1846
  769MOL0     C 6010   3.019   2.742   7.228  0.1188 -0.0817  1.0185
  769MOL0     C 6011   3.057   2.612   7.260 -0.4624  0.1926  0.0816
  769MOL0     C 6012   2.968   2.504   7.208 -0.0475  0.3296 -0.5443
  769MOL0     C 6013   3.172   2.594   7.344  0.0091 -0.1001 -0.2486
  769MOL0     C 6014   3.210   2.460   7.402  0.9072 -0.1019  0.1692
  769MOL0     O 6015   3.328   2.457   7.474  0.6754  0.5908 -0.1177
  769MOL0     C 6016   3.376   2.335   7.522  0.3061 -0.2618 -0.1124
  769MOL0     C 6017   3.408   2.341   7.653  0.3754  0.7342 -0.6544
  769MOL0     C 6018   3.466   2.236   7.722 -0.8590  0.5950  0.3759
  769MOL0     C 6019   3.477   2.111   7.649 -0.7347  0.2706 -1.0504
  769MOL0     O 6020   3.517   1.993   7.711  0.2230  0.1359  0.1102
  769MOL0     C 6021   3.660   1.976   7.687  0.5793  0.8064 -0.2742
  769MOL0     C 6022   3.697   1.840   7.739  0.1756  0.1432  0.5035
  769MOL0     C 6023   3.700   1.856   7.899  0.7977 -0.3928  0.4543
  769MOL0     C 6024   3.792   1.752   7.980  0.4634  0.4838  0.6869
  769MOL0     C 6025   3.940   1.788   7.988 -0.3970 -0.0074 -0.1789
  769MOL0     C 6026   4.021   1.682   8.067  0.8889  0.6412  0.7971
  769MOL0     C 6027   4.169   1.725   8.080 -0.0984  0.3812 -0.6762
  769MOL0     C 6028   4.240   1.649   8.199  0.3204  0.3118  0.0219
  769MOL0    Cl 6029   4.412   1.684   8.181  0.1635  0.3386 -0.0325
  769MOL0     C 6030   3.439   2.100   7.520 -0.1008 -0.2549 -0.1517
  769MOL0     C 6031   3.389   2.214   7.447 -0.2259  0.5110 -0.5547
  769MOL0     O 6032   3.130   2.368   7.391  0.9000  0.9152 -0.8827
  769MOL0     C 6033   3.261   2.704   7.366  0.3990  0.2776 -0.1324
  769MOL0     C 6034   3.219   2.827   7.337 -0.3868  0.1230  0.0801
  769MOL0     N 6035   2.615   3.502   7.017 -0.5069  0.2489 -0.1815
  769MOL0     N 6036   2.527   3.533   6.925  0.1598 -0.0137 -0.0309
  769MOL0     C 6037   1.489   3.466   6.100  0.0065 -0.3313  0.3958
  769MOL0     C 6038   1.369   3.536   6.071  0.5186  0.4205 -0.3815
  769MOL0     C 6039   1.029   3.748   6.002 -0.0706  0.4355  0.5397
  769MOL0     C 6040   0.945   3.849   6.038 -0.2072 -0.5504  0.0648
  769MOL0     C 6041   0.819   3.860   5.976 -0.1278 -0.4647 -0.1985
  769MOL0     C 6042   0.775   3.768   5.877 -0.0628 -0.7024 -0.3925
  769MOL0     O 6043   0.658   3.805   5.814  0.4866 -0.2411 -0.3039
  769MOL0     C 6044   0.616   3.743   5.690 -0.6841  0.4189 -0.0820
  769MOL0     C 6045   0.474   3.790   5.655 -0.8051  0.1867 -0.9850
  769MOL0     C 6046   0.377   3.757   5.771 -0.0433  0.1172  0.2486
  769MOL0     C 6047   0.234   3.771   5.716  0.1865  0.4329  0.0584
  769MOL0     C 6048   0.136   3.738   5.821  0.1608 -0.1363 -0.2162
  769MOL0     C 6049   0.052   3.723   5.909 -0.2018  0.4210 -0.6121
  769MOL0     C 6050   0.864   3.667   5.835  0.4208 -0.0900  0.1860
  769MOL0     C 6051   0.991   3.658   5.900  0.4079  0.1451 -0.4446
  769MOL0     C 6052   1.090   3.565   5.837  0.3120  0.9629 -0.1505
  769MOL0     H 6053   1.265   3.579   6.383  0.3328  0.3708 -0.4350
  769MOL0     H 6054   1.475   3.459   6.435 -1.2245 -0.7616  0.3868
  769MOL0     H 6055   1.701   3.376   6.459  0.9168 -0.9512 -0.8431
  769MOL0     H 6056   1.752   3.526   6.371  1.3196 -0.4038 -1.5110
  769MOL0     H 6057   1.870   3.256   6.309  1.8872  0.5464 -0.9940
  769MOL0     H 6058   1.927   3.424   6.271 -4.0086  2.9544 -0.5695
  769MOL0     H 6059   1.964   3.455   6.517  2.7055 -0.0930  0.7873
  769MOL0     H 6060   1.915   3.280   6.533  1.2601 -2.1022 -0.5351
  769MOL0     H 6061   2.111   3.219   6.402 -2.5384 -1.2167  1.8661
  769MOL0     H 6062   2.143   3.383   6.383 -0.0059 -1.1758 -0.3580
  769MOL0     H 6063   2.149   3.260   6.667  1.9415 -0.1806  0.9263
  769MOL0     H 6064   2.189   3.429   6.615  3.6563 -0.0515  1.5802
  769MOL0     H 6065   2.356   3.185   6.547  2.0989  0.4657 -0.6942
  769MOL0     H 6066   2.382   3.333   6.476 -0.0538 -1.1067 -1.2992
  769MOL0     H 6067   2.507   3.254   6.688 -0.9145  0.2151  1.3001
  769MOL0     H 6068   2.371   3.293   6.784 -0.6302  1.7069  1.0477
  769MOL0     H 6069   2.517   3.489   6.603 -1.4281  1.5346 -0.9403
  769MOL0     H 6070   2.393   3.523   6.723  1.4110  3.4183 -2.7702
  769MOL0     H 6071   2.729   3.341   6.765  1.7130  0.6779  2.2650
  769MOL0     H 6072   2.803   3.358   7.149 -1.8014 -2.3947 -0.2704
  769MOL0     H 6073   2.921   3.428   7.025  0.3132  1.5547 -1.2890
  769MOL0     H 6074   2.766   3.153   7.027  0.5840  0.1050  2.0257
  769MOL0     H 6075   2.871   3.202   6.891  2.2137 -1.3936  0.2502
  769MOL0     H 6076   3.063   3.143   7.009 -0.5575 -0.4624 -0.6917
  769MOL0     H 6077   3.003   3.213   7.161 -1.2921 -0.4102  1.0504
  769MOL0     H 6078   2.874   2.985   7.172  0.6639 -1.2513  1.3310
  769MOL0     H 6079   2.978   2.934   7.041 -2.5418 -2.3795  1.2556
  769MOL0     H 6080   2.933   2.756   7.164  0.8767 -0.6932 -0.1871
  769MOL0     H 6081   2.912   2.462   7.293 -0.6286  2.7525  0.3543
  769MOL0     H 6082   3.021   2.428   7.150  1.4090  0.6334  0.3569
  769MOL0     H 6083   2.892   2.548   7.142 -0.1677  0.4306 -0.3402
  769MOL0     H 6084   3.390   2.437   7.701 -0.1987  0.5744 -0.5431
  769MOL0     H 6085   3.505   2.247   7.823  0.2046  1.8050 -0.1506
  769MOL0     H 6086   3.678   1.986   7.580  0.9812  1.0933 -0.1803
  769MOL0     H 6087   3.724   2.055   7.728  0.6996  0.8994 -0.6340
  769MOL0     H 6088   3.637   1.752   7.712 -3.3275  2.0344  1.4734
  769MOL0     H 6089   3.797   1.817   7.701  0.0168 -0.6992  0.5722
  769MOL0     H 6090   3.597   1.852   7.936  0.7494  0.7757  0.4862
  769MOL0     H 6091   3.729   1.960   7.920  2.0114 -0.6114 -0.0723
  769MOL0     H 6092   3.774   1.654   7.933 -1.9515  1.4983 -0.6964
  769MOL0     H 6093   3.760   1.759   8.084 -0.1164  1.7920  0.4369
  769MOL0     H 6094   3.962   1.799   7.881  1.6378  1.6373  0.3493
  769MOL0     H 6095   3.950   1.887   8.032  0.7606 -1.5156  3.3349
  769MOL0     H 6096   4.009   1.588   8.014 -2.2858  0.6212  1.3478
  769MOL0     H 6097   3.972   1.670   8.164 -0.0272  1.5128  0.4691
  769MOL0     H 6098   4.192   1.829   8.104  0.3277 -0.6180  4.0841
  769MOL0     H 6099   4.221   1.711   7.984 -0.3344 -1.8385 -0.5374
  769MOL0     H 6100   4.226   1.541   8.186  2.0937  0.3077 -2.5716
  769MOL0     H 6101   4.195   1.676   8.295  0.2949  1.7845 -0.3872
  769MOL0     H 6102   3.460   2.006   7.470  1.9415  0.0607  0.0278
  769MOL0     H 6103   3.364   2.204   7.342  0.7956 -0.2346 -0.7375
  769MOL0     H 6104   3.360   2.687   7.406  0.1001  0.3466  0.6544
  769MOL0     H 6105   3.283   2.912   7.360  1.1137 -1.3181  1.4240
  769MOL0     H 6106   1.540   3.447   6.006 -0.2811 -0.5405  0.2797
  769MOL0     H 6107   1.343   3.544   5.966  1.6874  2.6055 -0.5713
  769MOL0     H 6108   0.954   3.930   6.109 -3.4996  1.2887 -1.3808
  769MOL0     H 6109   0.737   3.926   6.002  0.7131 -0.4575  2.7820
  769MOL0     H 6110   0.679   3.775   5.607 -2.6994 -0.0551 -1.9080
  769MOL0     H 6111   0.616   3.634   5.692 -0.8278  0.3917 -0.9621
  769MOL0     H 6112   0.442   3.756   5.557 -2.3774  0.7567 -0.7054
  769MOL0     H 6113   0.483   3.899   5.660 -0.0583  0.0896  2.0323
  769MOL0     H 6114   0.394   3.652   5.797  1.0838 -0.0807 -1.1654
  769MOL0     H 6115   0.395   3.816   5.861  1.1809 -2.8885  2.1420
  769MOL0     H 6116   0.208   3.696   5.640 -0.3068  0.1493  0.4931
  769MOL0     H 6117   0.208   3.874   5.689 -1.7161  0.2722  1.0810
  769MOL0     H 6118  -0.025   3.686   5.973  1.4897  1.6659  2.3627
  769MOL0     H 6119   0.835   3.598   5.757  0.8928 -0.6849  0.5267
  769MOL0     H 6120   1.066   3.551   5.732  0.2988  2.5246 -0.3805
  769MOL0     H 6121   1.185   3.618   5.827  1.6502 -1.6283 -2.7600
  769MOL0     H 6122   1.094   3.469   5.889 -3.0428  0.0721 -1.2701
  770MOL0     O 6123   9.699  10.069   4.176  0.8007 -0.0464 -0.2626
  770MOL0     C 6124   9.790  10.063   4.094 -0.8147  0.2229 -0.5426
  770MOL0     O 6125   9.910  10.134   4.096 -0.2508 -0.1320  0.1543
  770MOL0     C 6126   9.959  10.176   4.212  1.0266  0.5733  0.1533
  770MOL0     C 6127  10.090  10.151   4.256 -0.7772  0.2132 -0.8833
  770MOL0     C 6128  10.143  10.206   4.370 -0.2652 -0.0748 -0.1891
  770MOL0     C 6129  10.063  10.280   4.460 -0.5589 -0.8098 -0.8682
  770MOL0     O 6130  10.128  10.320   4.572 -0.5545 -0.1406  0.3018
  770MOL0     C 6131  10.066  10.367   4.691  0.8572 -0.1179 -0.1247
  770MOL0     C 6132  10.152  10.477   4.758 -0.0829 -1.1636 -0.1137
  770MOL0     C 6133  10.287  10.422   4.812 -0.0571  0.6362 -0.2392
  770MOL0     C 6134  10.356  10.526   4.896  0.2713 -0.5378  0.0121
  770MOL0     C 6135  10.496  10.491   4.933  0.0789  0.6817 -0.7802
  770MOL0     C 6136  10.544  10.607   5.019 -0.4460  0.2541  0.6651
  770MOL0     C 6137  10.676  10.574   5.090 -0.8340 -0.4108  0.6105
  770MOL0     C 6138  10.791  10.563   4.990 -0.1630  0.2882 -0.0952
  770MOL0     N 6139  10.929  10.559   5.041  0.3707  0.7196  0.1466
  770MOL0     C 6140  10.986  10.442   5.081  0.0953  0.6830 -0.1180
  770MOL0     C 6141  11.108  10.475   5.110  0.8490 -0.2922  0.1349
  770MOL0     C 6142  11.210  10.373   5.165 -0.6851 -0.3682  0.1945
  770MOL0     C 6143  11.355  10.416   5.167  0.3763  0.0442 -0.1490
  770MOL0     C 6144  11.442  10.313   5.249  0.3306 -0.3767  0.0222
  770MOL0     C 6145  11.496  10.197   5.165  0.6555  0.5711 -0.2441
  770MOL0     O 6146  11.586  10.251   5.064 -1.1945 -0.1204  0.4876
  770MOL0     C 6147  11.710  10.191   5.068 -0.7365  0.3628 -0.4486
  770MOL0     C 6148  11.831  10.271   5.079  0.3851  0.3599 -0.0817
  770MOL0     C 6149  11.963  10.218   5.091 -0.4564 -0.7241 -0.0975
  770MOL0     C 6150  12.069  10.323   5.107  0.0636  0.1445  0.1792
  770MOL0     C 6151  11.982  10.081   5.088 -0.5624 -0.3348 -1.4064
  770MOL0     C 6152  12.113  10.013   5.092 -0.6018 -0.0126 -0.5090
  770MOL0     O 6153  12.106   9.881   5.125  0.3220 -0.5255 -0.9715
  770MOL0     C 6154  12.199   9.830   5.211 -0.0943  0.0520  0.9640
  770MOL0     C 6155  12.246   9.889   5.329  0.6341  0.4174 -0.6280
  770MOL0     C 6156  12.340   9.834   5.415  0.1921  0.2640  0.0755
  770MOL0     C 6157  12.413   9.731   5.361 -0.4123  0.4905  0.2840
  770MOL0     O 6158  12.517   9.692   5.439  0.2924  0.7881  0.6222
  770MOL0     C 6159  12.631   9.689   5.358 -0.1904 -0.0772  0.4402
  770MOL0     C 6160  12.755   9.713   5.438 -0.3769  0.5321  0.7466
  770MOL0     C 6161  12.884   9.694   5.355 -0.6873  0.0629  0.3414
  770MOL0     C 6162  13.005   9.646   5.446 -0.0231 -0.3900 -0.6866
  770MOL0     C 6163  13.075   9.767   5.515  0.0726  0.2549 -0.3039
  770MOL0     C 6164  13.178   9.852   5.431  0.0201 -0.3297  0.1532
  770MOL0     C 6165  13.306   9.779   5.373 -0.1427 -0.1272 -0.0000
  770MOL0     C 6166  13.380   9.860   5.272 -0.8505 -1.1338 -0.1943
  770MOL0    Cl 6167  13.417  10.015   5.347  0.1672 -0.0526 -0.4448
  770MOL0     C 6168  12.366   9.658   5.250 -0.0251 -0.0605  1.5819
  770MOL0     C 6169  12.259   9.706   5.176  0.0757  0.3110 -0.0074
  770MOL0     O 6170  12.219  10.078   5.081  0.4365  0.2813  0.1932
  770MOL0     C 6171  11.867  10.001   5.093 -0.8921 -0.6013 -0.6373
  770MOL0     C 6172  11.736  10.051   5.086 -0.2584 -0.3758 -0.7686
  770MOL0     N 6173  11.119  10.618   5.117 -1.1964  0.3714 -0.0081
  770MOL0     N 6174  11.011  10.668   5.064  0.4745 -0.2890  0.6855
  770MOL0     C 6175   9.924  10.299   4.428 -1.2192 -0.7033 -0.0681
  770MOL0     C 6176   9.880  10.251   4.307 -0.4258  1.0333  0.2560
  770MOL0     C 6177   9.770   9.999   3.962  0.8574  0.3560 -0.1124
  770MOL0     C 6178   9.861  10.032   3.856  0.2377  0.0506  0.2506
  770MOL0     C 6179   9.838   9.984   3.727  0.0018  0.7470  0.6624
  770MOL0     C 6180   9.724   9.906   3.704  0.5812  0.3982  0.3861
  770MOL0     O 6181   9.700   9.858   3.579  0.2541 -0.3756 -0.5181
  770MOL0     C 6182   9.608   9.750   3.551 -0.7595  0.0283 -0.1564
  770MOL0     C 6183   9.633   9.698   3.407  0.7101 -0.9435 -0.6886
  770MOL0     C 6184   9.744   9.595   3.393  0.6560 -0.3760 -0.3360
  770MOL0     C 6185   9.735   9.515   3.263 -0.8134  0.0966  1.8048
  770MOL0     C 6186   9.843   9.411   3.258  0.3667 -0.4497 -0.7956
  770MOL0     C 6187   9.927   9.328   3.260  0.4107  0.7341 -0.0687
  770MOL0     C 6188   9.636   9.866   3.814  0.9330 -0.1118 -0.5336
  770MOL0     C 6189   9.657   9.910   3.936  0.5406  0.0940 -0.1518
  770MOL0     C 6190   9.567   9.860   4.049 -0.6842  1.1553 -0.4291
  770MOL0     H 6191  10.148  10.110   4.175  1.9169  0.7774  0.6114
  770MOL0     H 6192  10.248  10.197   4.396  0.5358 -0.2722 -3.1431
  770MOL0     H 6193  10.043  10.286   4.761 -0.6545  0.2437 -0.1715
  770MOL0     H 6194   9.968  10.412   4.672 -0.1743  0.0826  4.4529
  770MOL0     H 6195  10.179  10.552   4.684 -1.0709 -1.2333 -0.5596
  770MOL0     H 6196  10.107  10.523   4.846  0.1081 -1.8383  0.3472
  770MOL0     H 6197  10.275  10.328   4.866  1.2125 -0.6276 -1.9905
  770MOL0     H 6198  10.344  10.408   4.719  0.6999  0.0639  0.2998
  770MOL0     H 6199  10.357  10.622   4.844  0.3850 -0.5802 -0.0645
  770MOL0     H 6200  10.304  10.543   4.991  3.0759 -0.1415  1.6273
  770MOL0     H 6201  10.556  10.467   4.844  1.4125 -0.2525  0.3288
  770MOL0     H 6202  10.501  10.389   4.973  4.1970  1.1338  0.2398
  770MOL0     H 6203  10.536  10.702   4.965  0.5818 -0.9292 -1.7175
  770MOL0     H 6204  10.477  10.609   5.105  2.1793  0.4778  2.8334
  770MOL0     H 6205  10.674  10.481   5.147  2.3983 -0.3986  0.9379
  770MOL0     H 6206  10.691  10.656   5.160 -1.1879  1.0014 -0.9184
  770MOL0     H 6207  10.775  10.476   4.926  3.0424 -2.9154  2.9866
  770MOL0     H 6208  10.778  10.650   4.924 -0.8522  0.5022  0.3214
  770MOL0     H 6209  10.938  10.345   5.091 -0.8760  1.1228 -0.3708
  770MOL0     H 6210  11.214  10.285   5.100  4.3569 -0.8527  0.7460
  770MOL0     H 6211  11.182  10.341   5.266 -1.4328 -1.8973 -0.4652
  770MOL0     H 6212  11.387  10.417   5.062 -2.4641  2.0695 -1.1028
  770MOL0     H 6213  11.352  10.516   5.210 -0.9798  0.4349 -1.0981
  770MOL0     H 6214  11.535  10.349   5.294  0.7253 -1.8645  0.4433
  770MOL0     H 6215  11.380  10.268   5.327 -0.1357 -1.8828 -1.1715
  770MOL0     H 6216  11.532  10.120   5.233 -2.7415 -1.8884 -0.9926
  770MOL0     H 6217  11.419  10.147   5.106  1.8388  0.0901 -1.4338
  770MOL0     H 6218  11.826  10.379   5.084  1.4816  0.3789  1.0443
  770MOL0     H 6219  12.140  10.290   5.183 -2.1606 -0.7402  1.9813
  770MOL0     H 6220  12.022  10.418   5.136  0.6156  0.7398 -0.7890
  770MOL0     H 6221  12.116  10.344   5.010 -2.0251  0.3998 -0.8318
  770MOL0     H 6222  12.188   9.974   5.364  1.7851  0.7420  0.5889
  770MOL0     H 6223  12.371   9.874   5.511 -0.7010  0.2215  0.3920
  770MOL0     H 6224  12.642   9.591   5.309 -0.1527 -0.4031  1.0969
  770MOL0     H 6225  12.621   9.758   5.274 -2.5042 -1.7595 -0.7908
  770MOL0     H 6226  12.763   9.817   5.471 -2.1175  0.9753 -0.1328
  770MOL0     H 6227  12.756   9.640   5.520  1.7663  0.4972  0.7471
  770MOL0     H 6228  12.915   9.785   5.303 -0.6163 -0.9197 -1.4078
  770MOL0     H 6229  12.873   9.619   5.276 -0.0563 -0.8139  1.0633
  770MOL0     H 6230  13.081   9.588   5.391  0.2248 -0.6699 -0.0570
  770MOL0     H 6231  12.970   9.582   5.527  4.4451 -0.2474  1.6817
  770MOL0     H 6232  12.984   9.822   5.542 -0.0617  3.2008 -5.4415
  770MOL0     H 6233  13.116   9.727   5.608 -1.8063  2.5726  1.6680
  770MOL0     H 6234  13.212   9.934   5.495 -2.8231  1.4795 -0.4260
  770MOL0     H 6235  13.124   9.901   5.349  1.4012  1.7453  0.4038
  770MOL0     H 6236  13.283   9.682   5.328  1.3740  0.2557 -1.7283
  770MOL0     H 6237  13.361   9.750   5.463  1.0357 -1.2291 -1.0338
  770MOL0     H 6238  13.326   9.860   5.177  1.6435  0.1176 -1.7153
  770MOL0     H 6239  13.476   9.819   5.240  0.4985  1.5766  0.0773
  770MOL0     H 6240  12.407   9.559   5.236  3.2118  0.7553  3.9730
  770MOL0     H 6241  12.226   9.665   5.082 -0.6147 -1.8979  1.1401
  770MOL0     H 6242  11.883   9.894   5.105 -0.8063 -0.6713 -1.2968
  770MOL0     H 6243  11.664   9.970   5.088 -0.7721  0.0978  0.3380
  770MOL0     H 6244   9.851  10.351   4.490 -1.3861  0.3231 -1.0777
  770MOL0     H 6245   9.777  10.277   4.289 -1.1305 -0.1211  2.2568
  770MOL0     H 6246   9.942  10.104   3.865  2.0957 -1.7101 -1.3888
  770MOL0     H 6247   9.897  10.006   3.639  0.6093  0.3851  0.9722
  770MOL0     H 6248   9.626   9.665   3.619  1.9336 -1.2781 -2.2874
  770MOL0     H 6249   9.504   9.784   3.554 -0.3427  1.6457 -2.1571
  770MOL0     H 6250   9.646   9.786   3.343  0.1264 -0.0060  0.4237
  770MOL0     H 6251   9.533   9.665   3.379  0.3712 -1.9991  1.5237
  770MOL0     H 6252   9.838   9.646   3.412  0.1209  1.7197 -2.7676
  770MOL0     H 6253   9.728   9.535   3.483 -1.7137  1.0717  0.2903
  770MOL0     H 6254   9.758   9.568   3.170 -0.4544 -2.3166  0.4332
  770MOL0     H 6255   9.635   9.470   3.263 -1.5825  1.7383  0.9973
  770MOL0     H 6256   9.995   9.246   3.266  0.9506  0.9099 -2.8497
  770MOL0     H 6257   9.547   9.811   3.784  3.0300 -1.9632 -4.0710
  770MOL0     H 6258   9.638   9.820   4.122  1.9307 -0.5582 -3.6196
  770MOL0     H 6259   9.498   9.935   4.089 -0.0580 -0.0767  3.3115
  770MOL0     H 6260   9.502   9.779   4.016  2.2155 -1.2507 -0.7136
  771MOL0     O 6261   5.939   7.653  10.258  0.3923 -1.2602  0.1526
  771MOL0     C 6262   5.950   7.582  10.357  0.1883 -0.3250 -0.1941
  771MOL0     O 6263   6.066   7.543  10.415  0.3774 -0.3040  0.7015
  771MOL0     C 6264   6.182   7.627  10.413  0.5222  0.1502 -0.2270
  771MOL0     C 6265   6.188   7.765  10.375  0.3975 -0.6709 -0.1092
  771MOL0     C 6266   6.309   7.832  10.378  0.1976 -0.8797 -0.2581
  771MOL0     C 6267   6.426   7.770  10.426 -0.2110 -0.5049 -0.1496
  771MOL0     O 6268   6.536   7.855  10.437 -0.2425  0.2371  0.5739
  771MOL0     C 6269   6.666   7.789  10.414  0.1253  0.3226  1.0606
  771MOL0     C 6270   6.780   7.869  10.355  0.1237  0.1329  0.3864
  771MOL0     C 6271   6.808   7.981  10.458 -0.5677 -0.0845 -0.4525
  771MOL0     C 6272   6.921   8.077  10.410 -0.0923  0.9778 -0.4419
  771MOL0     C 6273   6.958   8.157  10.538  0.3850  0.2764  0.6537
  771MOL0     C 6274   7.029   8.284  10.490  0.4387 -0.5907 -0.1222
  771MOL0     C 6275   7.084   8.366  10.611 -0.8337  0.3019  0.5517
  771MOL0     C 6276   7.097   8.506  10.554  0.4032  0.2195  0.1627
  771MOL0     N 6277   7.161   8.604  10.647 -0.3102  0.5421  0.6276
  771MOL0     C 6278   7.287   8.583  10.700  0.2932  0.2179  0.2923
  771MOL0     C 6279   7.302   8.695  10.783  0.2032  0.7452  1.0297
  771MOL0     C 6280   7.429   8.722  10.855 -0.5194 -0.1346  0.3938
  771MOL0     C 6281   7.448   8.870  10.889  0.6199 -0.3637  0.2363
  771MOL0     C 6282   7.564   8.928  10.969 -0.2506 -0.6786  0.3078
  771MOL0     C 6283   7.688   8.862  10.926 -0.0418 -0.2577 -0.3191
  771MOL0     O 6284   7.794   8.910  10.999 -0.0998  0.7155 -0.1434
  771MOL0     C 6285   7.884   8.824  11.060  0.3600  0.1299 -0.1843
  771MOL0     C 6286   7.943   8.880  11.175 -0.0658  0.2530  0.6494
  771MOL0     C 6287   8.030   8.806  11.252  0.7402  0.2593 -1.0861
  771MOL0     C 6288   8.109   8.864  11.375 -0.1536 -0.9100 -0.2065
  771MOL0     C 6289   8.060   8.675  11.212  0.0058 -0.5213 -0.2465
  771MOL0     C 6290   8.163   8.592  11.279 -0.4035  0.9544 -0.7048
  771MOL0     O 6291   8.293   8.624  11.246  0.5261  0.9751 -0.1369
  771MOL0     C 6292   8.391   8.566  11.323  0.1800 -0.0190 -0.2659
  771MOL0     C 6293   8.490   8.508  11.246 -0.2473  0.3445  0.6039
  771MOL0     C 6294   8.590   8.440  11.314 -1.4144  0.2046 -0.4809
  771MOL0     C 6295   8.602   8.440  11.452 -0.0502 -0.2754  0.3128
  771MOL0     O 6296   8.702   8.358  11.500  0.6194  0.1143 -0.1909
  771MOL0     C 6297   8.681   8.324  11.638 -0.1374 -0.7289 -0.7400
  771MOL0     C 6298   8.768   8.204  11.679 -0.0967 -0.1404  0.0162
  771MOL0     C 6299   8.783   8.203  11.834 -1.2670  0.0318  0.0046
  771MOL0     C 6300   8.816   8.058  11.874  0.1267  1.0406 -0.0519
  771MOL0     C 6301   8.850   8.044  12.022  0.2951  0.3718  0.9534
  771MOL0     C 6302   8.844   7.901  12.084  0.0409  0.8781  0.2143
  771MOL0     C 6303   8.925   7.793  12.010 -0.1539  0.3198  0.1456
  771MOL0     C 6304   8.838   7.672  11.969 -0.3194  0.9240  0.5121
  771MOL0    Cl 6305   8.944   7.537  11.921  0.0167  0.1606 -0.0498
  771MOL0     C 6306   8.509   8.509  11.532 -0.5286 -0.0674 -0.9548
  771MOL0     C 6307   8.402   8.568  11.464  0.0599  0.8485  0.4482
  771MOL0     O 6308   8.122   8.495  11.343 -0.5166  0.7914 -0.7645
  771MOL0     C 6309   8.007   8.613  11.096  0.2737  0.8869  0.0053
  771MOL0     C 6310   7.919   8.695  11.018  0.0673  0.1658  0.1357
  771MOL0     N 6311   7.195   8.780  10.771 -0.1153 -0.6842  0.2729
  771MOL0     N 6312   7.112   8.721  10.689 -0.1215 -0.7777 -0.0440
  771MOL0     C 6313   6.422   7.634  10.467  0.5640 -0.2428 -0.4691
  771MOL0     C 6314   6.295   7.566  10.465 -1.1485 -1.0187 -0.1804
  771MOL0     C 6315   5.828   7.514  10.412  0.0112  0.4732 -0.7428
  771MOL0     C 6316   5.830   7.463  10.539 -0.3845 -0.2225 -0.1350
  771MOL0     C 6317   5.721   7.412  10.603 -0.1191 -0.4619 -0.1569
  771MOL0     C 6318   5.603   7.407  10.530  0.1358 -0.6094 -0.6560
  771MOL0     O 6319   5.500   7.339  10.595  0.0749  0.3030 -0.7006
  771MOL0     C 6320   5.370   7.400  10.589  0.3546  0.3091  1.2566
  771MOL0     C 6321   5.269   7.313  10.505 -0.0553 -0.5905  0.1778
  771MOL0     C 6322   5.134   7.375  10.528  0.0593  0.2130 -0.7169
  771MOL0     C 6323   5.018   7.305  10.446  0.0286 -0.7082  0.4032
  771MOL0     C 6324   4.884   7.366  10.460  0.0534  0.3743 -0.2070
  771MOL0     C 6325   4.784   7.434  10.482  0.0607 -0.1073  0.4146
  771MOL0     C 6326   5.591   7.455  10.395  1.3177  0.6729 -0.2555
  771MOL0     C 6327   5.703   7.507  10.335  0.7492  0.6300  0.2828
  771MOL0     C 6328   5.683   7.566  10.196 -0.0426 -0.9363  0.0358
  771MOL0     H 6329   6.098   7.815  10.341  2.0108  2.1709 -0.5360
  771MOL0     H 6330   6.309   7.936  10.349  2.6001 -0.9156 -0.5400
  771MOL0     H 6331   6.653   7.710  10.340  1.7380 -0.0384  1.1106
  771MOL0     H 6332   6.699   7.748  10.511 -0.2131  0.6988  1.3376
  771MOL0     H 6333   6.870   7.810  10.337  0.4586  0.5574  0.6542
  771MOL0     H 6334   6.750   7.922  10.263  0.8471 -2.7024 -1.6315
  771MOL0     H 6335   6.717   8.039  10.471 -0.7315 -0.2970 -0.6485
  771MOL0     H 6336   6.837   7.935  10.553 -0.9428  1.9033  0.6756
  771MOL0     H 6337   7.012   8.025  10.381 -0.4771  1.1570 -2.0488
  771MOL0     H 6338   6.880   8.138  10.329 -1.1207  1.7467  0.6323
  771MOL0     H 6339   7.007   8.090  10.609  1.3861  1.2517  0.9094
  771MOL0     H 6340   6.874   8.190  10.600  2.3082  1.4634  2.7954
  771MOL0     H 6341   7.110   8.267  10.418 -0.0306  1.6158 -1.2607
  771MOL0     H 6342   6.956   8.338  10.429 -0.0657 -1.2807 -0.1463
  771MOL0     H 6343   7.184   8.334  10.643 -0.3315 -2.1238 -2.8585
  771MOL0     H 6344   7.008   8.369  10.690 -2.1000  1.2956 -0.6619
  771MOL0     H 6345   7.155   8.503  10.461 -2.6523 -2.9545 -1.8724
  771MOL0     H 6346   6.996   8.538  10.526 -0.0433 -1.9994 -0.9710
  771MOL0     H 6347   7.355   8.500  10.677 -0.8395 -0.4255 -0.8994
  771MOL0     H 6348   7.513   8.695  10.790 -1.1848  1.9920 -1.4661
  771MOL0     H 6349   7.428   8.674  10.953 -0.0583 -1.0285 -0.0279
  771MOL0     H 6350   7.446   8.927  10.795 -1.2968 -1.6445 -0.5574
  771MOL0     H 6351   7.357   8.887  10.946  0.3629 -4.6659  1.4599
  771MOL0     H 6352   7.567   9.035  10.949 -0.5994 -0.3835  1.7046
  771MOL0     H 6353   7.546   8.909  11.076 -0.4928 -0.8469  0.2400
  771MOL0     H 6354   7.687   8.752  10.927  1.2953 -0.2907 -0.0662
  771MOL0     H 6355   7.698   8.897  10.822  1.4335  0.3674  0.0154
  771MOL0     H 6356   7.929   8.984  11.201  1.2460  0.3662  0.9828
  771MOL0     H 6357   8.072   8.967  11.385  1.8424  0.2347 -3.2009
  771MOL0     H 6358   8.216   8.876  11.354  0.3201 -0.8578  2.0662
  771MOL0     H 6359   8.090   8.806  11.465  0.3502  1.2234  1.3584
  771MOL0     H 6360   8.482   8.514  11.138 -1.2354  4.8073  0.7286
  771MOL0     H 6361   8.666   8.395  11.250 -1.4449  3.7703 -3.3697
  771MOL0     H 6362   8.705   8.411  11.700 -4.8061 -0.3587  0.9539
  771MOL0     H 6363   8.574   8.307  11.655 -0.6975  2.3428 -0.5588
  771MOL0     H 6364   8.725   8.107  11.650 -0.6845 -0.8533  2.9458
  771MOL0     H 6365   8.862   8.208  11.623  0.5937  3.0887  1.1835
  771MOL0     H 6366   8.693   8.228  11.891 -0.0864  0.8859  1.5398
  771MOL0     H 6367   8.874   8.256  11.864 -0.9437 -0.1148 -0.6946
  771MOL0     H 6368   8.907   8.030  11.820 -0.4238 -1.6367  0.2885
  771MOL0     H 6369   8.742   7.985  11.840  1.8360  0.2841 -2.4444
  771MOL0     H 6370   8.947   8.093  12.035  0.0821  1.2988 -0.7094
  771MOL0     H 6371   8.781   8.106  12.080 -1.9014 -0.4263 -0.6679
  771MOL0     H 6372   8.741   7.865  12.089  0.5578 -0.5491  2.1585
  771MOL0     H 6373   8.878   7.907  12.188 -0.5695 -0.3093  0.5087
  771MOL0     H 6374   9.009   7.751  12.065 -0.7148 -1.5361 -0.3382
  771MOL0     H 6375   8.965   7.831  11.916  1.2655 -1.4965 -0.0388
  771MOL0     H 6376   8.773   7.711  11.889 -0.4681 -1.6270 -0.7109
  771MOL0     H 6377   8.770   7.640  12.048  0.8090  3.0811  2.4853
  771MOL0     H 6378   8.509   8.517  11.641  0.1082 -2.4599 -0.7279
  771MOL0     H 6379   8.316   8.624  11.501 -3.8488 -3.5718 -0.8494
  771MOL0     H 6380   8.043   8.514  11.070 -0.3019 -0.0746  2.5720
  771MOL0     H 6381   7.868   8.645  10.936 -1.0426  0.0216  0.8962
  771MOL0     H 6382   6.510   7.579  10.497 -1.7047 -2.3564  3.0261
  771MOL0     H 6383   6.272   7.468  10.504 -1.0322 -0.9823 -0.0198
  771MOL0     H 6384   5.916   7.462  10.605 -0.1449 -1.2840 -0.4317
  771MOL0     H 6385   5.729   7.394  10.710  0.5245  2.0980  0.3011
  771MOL0     H 6386   5.329   7.417  10.690 -1.2168  0.9460  0.5468
  771MOL0     H 6387   5.372   7.503  10.553 -1.4415 -0.8305 -2.6304
  771MOL0     H 6388   5.271   7.212  10.548 -1.1932 -1.8546 -2.5414
  771MOL0     H 6389   5.288   7.310  10.398  0.9693 -0.9505  0.3529
  771MOL0     H 6390   5.117   7.376  10.637 -0.0181  0.5492 -0.7293
  771MOL0     H 6391   5.142   7.480  10.497  0.5622  0.7829  1.1561
  771MOL0     H 6392   5.015   7.208  10.496 -0.2658  1.3633  4.9881
  771MOL0     H 6393   5.037   7.294  10.339 -1.7680  2.2438 -0.3662
  771MOL0     H 6394   4.699   7.494  10.508  0.5736  0.6081  0.4895
  771MOL0     H 6395   5.494   7.469  10.349  1.4392  1.4268 -0.3035
  771MOL0     H 6396   5.710   7.672  10.191  0.0899 -0.9717  0.0174
  771MOL0     H 6397   5.741   7.511  10.122 -0.1395  1.1253 -1.6766
  771MOL0     H 6398   5.578   7.572  10.166 -0.0696 -0.6707  0.1813
  772MOL0     O 6399  10.573   1.223   2.580  0.5494  0.3368 -0.0880
  772MOL0     C 6400  10.580   1.260   2.459  0.7777 -0.3498 -0.3772
  772MOL0     O 6401  10.660   1.203   2.362  0.9434 -0.3330  0.2910
  772MOL0     C 6402  10.778   1.133   2.401  0.3548  0.5154  0.5077
  772MOL0     C 6403  10.851   1.155   2.516 -0.2051  0.1910 -0.5738
  772MOL0     C 6404  10.957   1.074   2.555  0.8957 -0.6750  0.2229
  772MOL0     C 6405  10.991   0.967   2.471  0.4031 -0.8201 -0.4117
  772MOL0     O 6406  11.089   0.882   2.515 -0.0135  0.1651  0.3986
  772MOL0     C 6407  11.215   0.938   2.547 -0.1633  0.2051 -0.8632
  772MOL0     C 6408  11.314   0.827   2.537  0.4066  0.0715  0.2490
  772MOL0     C 6409  11.306   0.764   2.393  0.5622  0.1736 -0.5496
  772MOL0     C 6410  11.428   0.683   2.356 -0.1610  0.0501  0.3026
  772MOL0     C 6411  11.562   0.752   2.365 -0.2983 -0.1441  0.8036
  772MOL0     C 6412  11.674   0.665   2.304 -0.6634 -0.2079 -0.0531
  772MOL0     C 6413  11.826   0.705   2.345 -0.1871  0.5050 -0.4641
  772MOL0     C 6414  11.859   0.637   2.475  0.4194 -1.0391  0.1935
  772MOL0     N 6415  11.997   0.662   2.519 -0.0672 -0.0414 -0.0255
  772MOL0     C 6416  12.026   0.730   2.634  0.0451 -0.8194  0.9564
  772MOL0     C 6417  12.157   0.701   2.657  0.8116  0.1442 -0.4390
  772MOL0     C 6418  12.260   0.748   2.755 -0.4198 -1.1257  0.2028
  772MOL0     C 6419  12.344   0.873   2.691 -0.5281  0.5550 -0.0267
  772MOL0     C 6420  12.401   0.842   2.546  0.7132 -0.6611 -0.2581
  772MOL0     C 6421  12.510   0.926   2.508 -0.1031  0.0554 -0.3580
  772MOL0     O 6422  12.608   0.932   2.611  0.3231 -0.4944 -0.8020
  772MOL0     C 6423  12.680   0.820   2.625 -0.2179 -0.3242  0.0066
  772MOL0     C 6424  12.771   0.774   2.528 -0.5421  0.0522 -0.0394
  772MOL0     C 6425  12.867   0.675   2.560  0.1625  0.4173  0.2668
  772MOL0     C 6426  12.971   0.651   2.444  0.7912  0.8325 -0.7954
  772MOL0     C 6427  12.863   0.602   2.683  0.9641 -0.0779  0.5802
  772MOL0     C 6428  12.960   0.496   2.729 -0.2725  0.2998  0.3381
  772MOL0     O 6429  12.914   0.385   2.790 -0.0928 -0.2289 -0.4239
  772MOL0     C 6430  12.989   0.274   2.786 -0.6338 -0.2339 -0.9253
  772MOL0     C 6431  13.038   0.226   2.668 -1.3266 -0.0361  0.2809
  772MOL0     C 6432  13.116   0.103   2.656  0.6642  0.3057 -0.4998
  772MOL0     C 6433  13.145   0.026   2.773 -0.5959 -0.0833 -0.1708
  772MOL0     O 6434  13.212  -0.094   2.759  0.2328  0.5397  0.0462
  772MOL0     C 6435  13.213  -0.192   2.857 -0.3468 -0.0510 -0.2425
  772MOL0     C 6436  13.239  -0.329   2.788  0.3998 -0.2876 -0.4811
  772MOL0     C 6437  13.383  -0.346   2.744 -0.3117  0.6742  0.3574
  772MOL0     C 6438  13.481  -0.418   2.838 -0.6774 -0.1991  0.4691
  772MOL0     C 6439  13.624  -0.456   2.779  1.2185 -0.3804  1.0391
  772MOL0     C 6440  13.641  -0.561   2.665 -0.3107 -0.5536 -0.8549
  772MOL0     C 6441  13.601  -0.699   2.690  0.8975 -0.0509  0.3111
  772MOL0     C 6442  13.553  -0.754   2.551 -0.2440  0.1680 -0.3068
  772MOL0    Cl 6443  13.470  -0.917   2.557 -0.4604  0.0624  0.1580
  772MOL0     C 6444  13.088   0.073   2.896  0.4640  0.7659  0.3025
  772MOL0     C 6445  13.023   0.195   2.904  1.0031 -0.6493 -0.5767
  772MOL0     O 6446  13.080   0.513   2.700  0.5120  0.6079  0.0134
  772MOL0     C 6447  12.757   0.635   2.773  0.9860 -0.0707  0.0121
  772MOL0     C 6448  12.673   0.744   2.744 -0.2673  0.3983  0.3818
  772MOL0     N 6449  12.198   0.616   2.563  0.4004  0.0647  0.0610
  772MOL0     N 6450  12.103   0.598   2.476  0.1281 -0.4266 -0.3985
  772MOL0     C 6451  10.913   0.942   2.360 -0.0940  0.2940  0.4656
  772MOL0     C 6452  10.815   1.032   2.318 -0.3149  0.0262  0.4698
  772MOL0     C 6453  10.459   1.338   2.413 -0.1539 -0.2656 -0.1063
  772MOL0     C 6454  10.407   1.312   2.283  0.4084  0.1848 -0.5233
  772MOL0     C 6455  10.313   1.397   2.226  0.6555 -0.3669 -0.3532
  772MOL0     C 6456  10.257   1.495   2.302  0.4487 -0.4753  0.4909
  772MOL0     O 6457  10.165   1.592   2.261 -0.4196  0.0933  0.3020
  772MOL0     C 6458  10.158   1.610   2.119  0.6183  0.1537  0.2817
  772MOL0     C 6459  10.051   1.715   2.098  0.4624  0.1929 -0.5852
  772MOL0     C 6460  10.088   1.853   2.144 -0.4600 -0.1430  0.7101
  772MOL0     C 6461  10.182   1.927   2.047 -0.0800  0.4475 -0.2325
  772MOL0     C 6462  10.321   1.876   2.047  0.4688 -0.9138  0.3523
  772MOL0     C 6463  10.443   1.858   2.043 -0.0590 -0.4010 -0.3550
  772MOL0     C 6464  10.298   1.510   2.437 -0.2716 -0.0502 -0.3811
  772MOL0     C 6465  10.405   1.441   2.493  0.5774  0.5741  0.1929
  772MOL0     C 6466  10.459   1.494   2.619  0.5803  0.6349  0.5645
  772MOL0     H 6467  10.819   1.228   2.590  0.7388 -0.6889  0.7411
  772MOL0     H 6468  11.007   1.084   2.651  2.6481 -1.8343 -0.5227
  772MOL0     H 6469  11.219   0.967   2.652  2.6176 -3.1063  0.1108
  772MOL0     H 6470  11.222   1.029   2.487 -1.4630  0.3807 -0.7851
  772MOL0     H 6471  11.413   0.857   2.571  1.0573 -0.6808 -0.9318
  772MOL0     H 6472  11.294   0.750   2.613  4.0376  1.8386  3.3545
  772MOL0     H 6473  11.214   0.705   2.398 -1.8426  3.6608  0.2724
  772MOL0     H 6474  11.299   0.840   2.315 -0.2646  2.2538  1.4017
  772MOL0     H 6475  11.430   0.596   2.422  0.8936 -0.8441 -0.8605
  772MOL0     H 6476  11.408   0.635   2.260  1.7449  0.5284 -0.3794
  772MOL0     H 6477  11.577   0.770   2.472 -1.3631  0.0764  0.9226
  772MOL0     H 6478  11.568   0.843   2.306 -0.5650 -1.8496 -2.0687
  772MOL0     H 6479  11.644   0.568   2.343  1.5964 -0.3104  1.6442
  772MOL0     H 6480  11.666   0.670   2.195  0.2945  2.8500 -0.0866
  772MOL0     H 6481  11.843   0.813   2.355  1.8683  0.2137 -0.4335
  772MOL0     H 6482  11.897   0.663   2.273 -0.2836  1.7441 -1.3362
  772MOL0     H 6483  11.794   0.672   2.556  0.4868  0.0343 -0.1903
  772MOL0     H 6484  11.843   0.531   2.455 -2.1708 -0.4752 -1.2991
  772MOL0     H 6485  11.963   0.799   2.690 -2.9665 -2.2297 -0.4778
  772MOL0     H 6486  12.327   0.670   2.790  2.4850  0.7133 -0.8783
  772MOL0     H 6487  12.214   0.794   2.843 -0.6426 -2.0420  0.5720
  772MOL0     H 6488  12.298   0.971   2.682  0.2478  1.1403  1.9534
  772MOL0     H 6489  12.429   0.879   2.760 -0.2507  1.6703 -0.4523
  772MOL0     H 6490  12.431   0.737   2.541 -1.2159 -1.3827  1.8160
  772MOL0     H 6491  12.328   0.858   2.466 -0.0260 -1.5828  0.2192
  772MOL0     H 6492  12.545   0.909   2.405  2.3120 -1.4298  0.6075
  772MOL0     H 6493  12.467   1.023   2.483 -1.3148 -0.8335 -1.9089
  772MOL0     H 6494  12.785   0.824   2.433  2.7460 -2.3798 -1.0234
  772MOL0     H 6495  13.033   0.566   2.471 -2.3687 -1.3415  0.2165
  772MOL0     H 6496  13.024   0.742   2.416  1.4930  0.8624  0.5647
  772MOL0     H 6497  12.922   0.618   2.352  2.8996 -0.1198 -1.6211
  772MOL0     H 6498  12.999   0.277   2.580  0.8761 -0.2347 -0.8733
  772MOL0     H 6499  13.140   0.069   2.556  0.5469  0.6950 -0.6615
  772MOL0     H 6500  13.281  -0.157   2.935 -1.0986  1.1762 -0.1230
  772MOL0     H 6501  13.112  -0.196   2.899 -1.0983 -3.1176 -2.0257
  772MOL0     H 6502  13.206  -0.411   2.853 -2.1875  0.6140 -0.5419
  772MOL0     H 6503  13.180  -0.342   2.697  1.3122 -0.2870 -1.0787
  772MOL0     H 6504  13.419  -0.243   2.730 -0.2735  0.8668  1.7390
  772MOL0     H 6505  13.384  -0.390   2.644  1.4026  1.7467 -0.1530
  772MOL0     H 6506  13.432  -0.513   2.862  0.0446 -0.7931 -0.3124
  772MOL0     H 6507  13.505  -0.371   2.933  1.7590 -0.0887 -0.1275
  772MOL0     H 6508  13.664  -0.356   2.758  0.7130  0.1220  2.3825
  772MOL0     H 6509  13.679  -0.503   2.860 -1.4906 -0.1125  3.1640
  772MOL0     H 6510  13.749  -0.572   2.652 -0.7912 -3.8111 -3.2703
  772MOL0     H 6511  13.594  -0.511   2.580 -0.8577  1.3815  0.4913
  772MOL0     H 6512  13.514  -0.699   2.757 -0.4587  1.9834 -1.3165
  772MOL0     H 6513  13.682  -0.767   2.717  1.4750 -0.2563 -1.7569
  772MOL0     H 6514  13.637  -0.759   2.482 -0.5865  0.7526 -0.7710
  772MOL0     H 6515  13.480  -0.689   2.503 -0.6954  0.7489  1.0994
  772MOL0     H 6516  13.100   0.017   2.988 -2.3083 -3.3518 -1.5752
  772MOL0     H 6517  12.994   0.224   3.004  1.0949  1.9537 -1.2139
  772MOL0     H 6518  12.741   0.589   2.870  0.0645 -0.8119 -0.4771
  772MOL0     H 6519  12.610   0.776   2.826 -0.9763 -2.9459  1.2960
  772MOL0     H 6520  10.954   0.871   2.289  2.2586  1.4758  0.5655
  772MOL0     H 6521  10.778   1.010   2.218 -0.6730  1.5553  0.2480
  772MOL0     H 6522  10.469   1.239   2.231  0.7188 -1.5222  2.0477
  772MOL0     H 6523  10.287   1.398   2.120  4.3777 -1.1303 -1.4317
  772MOL0     H 6524  10.253   1.636   2.071  0.2940  0.5616 -0.1557
  772MOL0     H 6525  10.125   1.517   2.072  1.3731  1.6055 -3.4456
  772MOL0     H 6526   9.965   1.694   2.163  2.7930 -1.5352  2.1454
  772MOL0     H 6527  10.018   1.712   1.993 -0.9210  2.3550 -0.2824
  772MOL0     H 6528   9.996   1.912   2.154 -1.5687 -1.5294 -0.8538
  772MOL0     H 6529  10.132   1.843   2.244  0.9934  2.7180  0.4671
  772MOL0     H 6530  10.175   2.035   2.061 -2.4062  0.2616  0.4079
  772MOL0     H 6531  10.151   1.916   1.943 -1.7766  0.4202  0.2536
  772MOL0     H 6532  10.550   1.859   2.036  0.0545 -1.1345  1.0179
  772MOL0     H 6533  10.253   1.588   2.498 -0.0002  0.7033 -1.1329
  772MOL0     H 6534  10.468   1.418   2.697  0.1814  0.4317  0.4192
  772MOL0     H 6535  10.557   1.542   2.617  0.8499  0.0981  0.6601
  772MOL0     H 6536  10.387   1.563   2.664 -0.3231 -0.9722  1.7257
  773MOL0     O 6537   9.482  10.131   5.750 -0.3371  0.4856  0.5373
  773MOL0     C 6538   9.457  10.234   5.811  0.0920  0.5605 -0.1716
  773MOL0     O 6539   9.477  10.266   5.941 -0.0717  0.0939 -0.2590
  773MOL0     C 6540   9.569  10.196   6.021 -0.0148 -0.2139 -0.5347
  773MOL0     C 6541   9.631  10.075   5.998 -1.1386  0.8386  0.5848
  773MOL0     C 6542   9.725  10.019   6.091  0.1599 -0.0854  0.2729
  773MOL0     C 6543   9.744  10.089   6.212  0.5222 -0.3579  0.3233
  773MOL0     O 6544   9.827  10.032   6.300 -0.4127 -0.1136 -1.1626
  773MOL0     C 6545   9.838  10.083   6.432 -0.0911 -0.1789  0.0326
  773MOL0     C 6546   9.938   9.992   6.514 -0.6898 -0.1980  1.0189
  773MOL0     C 6547  10.009  10.093   6.610  0.2310 -0.6406  0.1598
  773MOL0     C 6548  10.135  10.155   6.555 -1.3759  0.6358 -0.3749
  773MOL0     C 6549  10.243  10.047   6.571 -0.4763  0.1874 -0.5203
  773MOL0     C 6550  10.386  10.104   6.562 -0.2514  0.6328  0.1023
  773MOL0     C 6551  10.437  10.215   6.664  0.3957  0.7888 -0.0091
  773MOL0     C 6552  10.580  10.247   6.665  0.5153  0.3345  0.3380
  773MOL0     N 6553  10.661  10.142   6.723 -1.1170  0.5337  0.7933
  773MOL0     C 6554  10.701  10.121   6.857  0.1735 -0.7582  0.7618
  773MOL0     C 6555  10.828  10.065   6.847  0.9722  0.0780  0.1609
  773MOL0     C 6556  10.923  10.032   6.953  0.2416  0.4929  0.2594
  773MOL0     C 6557  11.067  10.092   6.936 -0.0064 -0.2839  0.0078
  773MOL0     C 6558  11.166  10.007   7.022 -0.1934 -0.6134 -0.4797
  773MOL0     C 6559  11.303  10.063   7.017  0.1716 -0.8039  0.0272
  773MOL0     O 6560  11.316  10.196   7.080  0.8091  0.1465  0.2841
  773MOL0     C 6561  11.442  10.257   7.064  0.4455  0.1094 -0.1942
  773MOL0     C 6562  11.445  10.393   7.096 -0.2951 -0.5075 -0.3753
  773MOL0     C 6563  11.559  10.471   7.085 -0.6425 -0.2288 -0.6975
  773MOL0     C 6564  11.553  10.615   7.137  0.3584 -0.1499  0.0206
  773MOL0     C 6565  11.679  10.404   7.036 -0.6316 -0.8109  0.8359
  773MOL0     C 6566  11.796  10.484   7.014 -0.0848  0.6185  0.1486
  773MOL0     O 6567  11.804  10.612   7.046  0.0114 -0.5355  0.2264
  773MOL0     C 6568  11.930  10.665   7.029  0.2204 -1.3515 -0.0621
  773MOL0     C 6569  12.039  10.627   7.101 -0.2788 -0.0550 -0.0862
  773MOL0     C 6570  12.168  10.693   7.086  0.3666  0.8773 -0.0688
  773MOL0     C 6571  12.181  10.806   6.993  0.8507 -0.1353  1.2461
  773MOL0     O 6572  12.286  10.883   6.973  0.1551 -0.3262  0.4085
  773MOL0     C 6573  12.418  10.821   6.961  0.1506  1.0045  0.0825
  773MOL0     C 6574  12.511  10.929   6.897  0.1130  0.2971 -0.3138
  773MOL0     C 6575  12.501  11.069   6.953  0.5323 -0.2951  0.7004
  773MOL0     C 6576  12.624  11.153   6.942 -0.1397 -0.7189 -0.0427
  773MOL0     C 6577  12.640  11.197   6.794  0.6767  0.1275  0.1121
  773MOL0     C 6578  12.753  11.291   6.769 -0.7349  0.2046 -0.0218
  773MOL0     C 6579  12.883  11.263   6.847 -0.0288  0.1340  0.9582
  773MOL0     C 6580  12.992  11.342   6.779  0.4092 -0.5855 -0.9901
  773MOL0    Cl 6581  12.950  11.510   6.780 -0.3617  0.2881 -0.2286
  773MOL0     C 6582  12.057  10.856   6.943 -0.2360 -0.1826 -0.5476
  773MOL0     C 6583  11.936  10.786   6.963 -0.3378 -1.2061 -0.4864
  773MOL0     O 6584  11.886  10.416   6.963 -0.5818  0.3888  0.5028
  773MOL0     C 6585  11.669  10.263   6.993  0.4790  0.3740 -0.2736
  773MOL0     C 6586  11.553  10.192   7.009 -0.3340 -0.7673 -1.2517
  773MOL0     N 6587  10.853  10.045   6.716 -1.0224 -0.5740 -0.5728
  773MOL0     N 6588  10.758  10.082   6.643 -0.7301  0.0211 -0.7759
  773MOL0     C 6589   9.663  10.206   6.240  0.4479  0.0608  0.4973
  773MOL0     C 6590   9.572  10.258   6.143 -0.0987  0.0630 -0.2080
  773MOL0     C 6591   9.360  10.312   5.745  0.5041  0.3533  0.7130
  773MOL0     C 6592   9.237  10.349   5.805  0.4696  0.3254 -0.8978
  773MOL0     C 6593   9.149  10.434   5.736  0.3738 -0.2058  0.4113
  773MOL0     C 6594   9.170  10.492   5.614 -0.9233 -0.4988 -0.0956
  773MOL0     O 6595   9.072  10.567   5.573  0.3969 -0.6823  0.0830
  773MOL0     C 6596   9.094  10.648   5.459 -0.2144 -0.1752  0.6141
  773MOL0     C 6597   9.031  10.578   5.338 -0.3794 -0.3207  1.2598
  773MOL0     C 6598   9.060  10.654   5.212  0.3740  0.5256 -0.7506
  773MOL0     C 6599   9.182  10.601   5.139  0.8392 -0.0230 -0.1936
  773MOL0     C 6600   9.310  10.647   5.186  0.6253  0.8277  0.5458
  773MOL0     C 6601   9.409  10.708   5.226  0.4736 -0.0487  0.0478
  773MOL0     C 6602   9.297  10.457   5.557  0.1026 -0.6546  1.3998
  773MOL0     C 6603   9.382  10.357   5.612  0.0639  0.2216  0.3134
  773MOL0     C 6604   9.517  10.340   5.536  0.1639 -0.3175  0.2939
  773MOL0     H 6605   9.600  10.017   5.911 -3.3980  1.4373  0.9466
  773MOL0     H 6606   9.772   9.922   6.079 -1.1467 -0.4928 -2.3624
  773MOL0     H 6607   9.748  10.090   6.494  1.1202  1.4888  1.7254
  773MOL0     H 6608   9.883  10.182   6.420 -0.5518 -0.0539 -0.7526
  773MOL0     H 6609   9.893   9.905   6.562  0.3200 -2.2828 -1.6150
  773MOL0     H 6610  10.010   9.951   6.443 -0.0144  2.0077  0.3216
  773MOL0     H 6611   9.946  10.182   6.615  0.2299 -0.6339  0.0219
  773MOL0     H 6612  10.028  10.050   6.709  2.9676  0.4820  0.2244
  773MOL0     H 6613  10.120  10.195   6.455  2.8737  0.6468 -1.1876
  773MOL0     H 6614  10.155  10.248   6.609  1.4727 -0.6923  1.1362
  773MOL0     H 6615  10.230   9.978   6.487 -0.4912  0.2103 -0.5362
  773MOL0     H 6616  10.223   9.988   6.660 -2.6790 -0.0948 -1.1353
  773MOL0     H 6617  10.460  10.023   6.568 -2.2256 -1.5498 -2.3709
  773MOL0     H 6618  10.382  10.152   6.463 -4.8546  0.8419  0.1913
  773MOL0     H 6619  10.412  10.181   6.765 -3.3994 -0.5158 -1.1964
  773MOL0     H 6620  10.378  10.306   6.651 -0.0491  0.4904 -0.1081
  773MOL0     H 6621  10.616  10.258   6.563  2.2820 -1.5242  0.6774
  773MOL0     H 6622  10.607  10.335   6.724 -0.0950  0.6890  0.0848
  773MOL0     H 6623  10.654  10.166   6.944 -3.1160  0.7752 -1.5915
  773MOL0     H 6624  10.930   9.922   6.953  0.5324  0.4330  3.2370
  773MOL0     H 6625  10.899  10.055   7.057  1.4362  1.9655  0.2409
  773MOL0     H 6626  11.084  10.087   6.828  1.5856  1.5569  0.1109
  773MOL0     H 6627  11.061  10.196   6.968 -0.1099 -0.9347  2.2761
  773MOL0     H 6628  11.130   9.998   7.126  0.6383  0.5597 -0.0719
  773MOL0     H 6629  11.167   9.910   6.971 -2.0060 -0.3714 -1.0606
  773MOL0     H 6630  11.377   9.993   7.057  1.9316 -1.0794 -3.3157
  773MOL0     H 6631  11.335  10.069   6.913  1.3613 -2.1939  0.2795
  773MOL0     H 6632  11.354  10.438   7.134  1.0478  1.0927  1.0900
  773MOL0     H 6633  11.454  10.643   7.174  0.1124  0.1541 -0.8513
  773MOL0     H 6634  11.574  10.682   7.053  2.8473 -1.6586 -0.6477
  773MOL0     H 6635  11.622  10.630   7.220 -0.8860  1.4159  0.8449
  773MOL0     H 6636  12.027  10.544   7.171 -0.9246 -0.1190 -0.2670
  773MOL0     H 6637  12.256  10.660   7.140  1.1696  3.4783  0.3250
  773MOL0     H 6638  12.450  10.805   7.064  0.8832 -2.4220 -0.5449
  773MOL0     H 6639  12.407  10.725   6.911 -2.3087  0.7796  0.9438
  773MOL0     H 6640  12.617  10.899   6.899 -1.3129 -6.3928  1.4621
  773MOL0     H 6641  12.482  10.932   6.791 -1.0575  1.2054  0.0130
  773MOL0     H 6642  12.477  11.053   7.058  0.6027  0.4573  0.8328
  773MOL0     H 6643  12.413  11.119   6.911  1.0740  1.7812  1.9236
  773MOL0     H 6644  12.712  11.093   6.966 -1.5846 -2.6550  0.6175
  773MOL0     H 6645  12.613  11.236   7.012 -0.0172 -2.4176  2.1060
  773MOL0     H 6646  12.656  11.105   6.738  1.5084  0.5661 -0.4020
  773MOL0     H 6647  12.542  11.241   6.772 -0.1551 -0.8369  1.6576
  773MOL0     H 6648  12.715  11.387   6.806 -2.0242 -0.7499  1.1856
  773MOL0     H 6649  12.781  11.304   6.663 -2.7338  2.1759 -0.3851
  773MOL0     H 6650  12.898  11.155   6.844  1.8129  0.3662 -1.2281
  773MOL0     H 6651  12.860  11.299   6.947 -4.8498  2.1297 -0.5604
  773MOL0     H 6652  13.015  11.300   6.681  1.3816 -1.0142 -0.5838
  773MOL0     H 6653  13.080  11.335   6.844 -2.1518  2.3991  3.3769
  773MOL0     H 6654  12.058  10.940   6.875  0.6003 -0.5148 -0.9512
  773MOL0     H 6655  11.860  10.834   6.903  0.8198  1.2455 -0.0927
  773MOL0     H 6656  11.758  10.212   6.958  0.6185  0.7436 -0.4626
  773MOL0     H 6657  11.564  10.088   6.978 -0.5306 -1.5254  1.0146
  773MOL0     H 6658   9.670  10.256   6.336  0.5127 -0.2264  0.6419
  773MOL0     H 6659   9.526  10.356   6.159  2.1098  1.2858 -0.9258
  773MOL0     H 6660   9.210  10.312   5.903 -2.8934  0.1920 -1.7729
  773MOL0     H 6661   9.056  10.462   5.783  0.9821 -1.9622  2.8385
  773MOL0     H 6662   9.050  10.748   5.460  0.7852  0.2906  2.6930
  773MOL0     H 6663   9.197  10.679   5.437 -1.8501  4.1509 -2.4446
  773MOL0     H 6664   8.926  10.594   5.367 -0.4521 -0.1300  0.9005
  773MOL0     H 6665   9.053  10.471   5.332  2.0194  0.1503  0.5931
  773MOL0     H 6666   8.972  10.657   5.148  0.0100  1.8861 -0.2261
  773MOL0     H 6667   9.078  10.757   5.245 -2.1729  0.3523  1.5650
  773MOL0     H 6668   9.180  10.642   5.038 -1.5973  4.4422  1.3906
  773MOL0     H 6669   9.172  10.492   5.132 -1.2885  0.1607 -0.6013
  773MOL0     H 6670   9.495  10.747   5.276  3.7613  0.2303 -5.1376
  773MOL0     H 6671   9.315  10.502   5.460  1.3966 -1.4974  1.2148
  773MOL0     H 6672   9.592  10.369   5.611 -0.0251 -0.6393  0.6087
  773MOL0     H 6673   9.521  10.235   5.506 -3.1683 -0.7272  0.9869
  773MOL0     H 6674   9.526  10.394   5.441  0.9705  1.3213  1.2678
  774MOL0     O 6675   3.983   4.182   2.067 -0.1209  0.3970 -0.5184
  774MOL0     C 6676   3.965   4.299   2.057  0.3325 -0.8766 -0.5167
  774MOL0     O 6677   4.062   4.392   2.066 -0.3561  0.3283 -0.2604
  774MOL0     C 6678   4.192   4.349   2.104  0.0136  1.1101 -0.4003
  774MOL0     C 6679   4.293   4.408   2.026  0.4963  0.1469  0.0303
  774MOL0     C 6680   4.428   4.371   2.044  0.0649 -0.0186 -0.4004
  774MOL0     C 6681   4.469   4.282   2.149 -0.1132 -0.4057  0.8232
  774MOL0     O 6682   4.590   4.225   2.161 -0.0691 -0.6950 -0.2984
  774MOL0     C 6683   4.650   4.201   2.031 -0.1653 -0.2285  0.1168
  774MOL0     C 6684   4.764   4.104   2.052  0.0225  0.2982 -0.0455
  774MOL0     C 6685   4.712   3.961   2.105 -0.3176 -0.5110 -0.4120
  774MOL0     C 6686   4.830   3.867   2.115  0.1129  0.4380  1.2515
  774MOL0     C 6687   4.772   3.723   2.154 -0.1411  0.6759  0.0981
  774MOL0     C 6688   4.896   3.629   2.182  0.4620  0.3498 -0.1652
  774MOL0     C 6689   4.837   3.487   2.229  0.0670 -0.4179 -0.2135
  774MOL0     C 6690   4.926   3.365   2.186  0.8522  0.3020 -0.7341
  774MOL0     N 6691   5.047   3.372   2.272  0.3379  0.1739 -0.3928
  774MOL0     C 6692   5.057   3.339   2.406  0.2365 -0.5875  0.2110
  774MOL0     C 6693   5.191   3.325   2.429 -0.1863 -0.6743 -0.5162
  774MOL0     C 6694   5.253   3.286   2.557 -0.0987 -0.1528  1.0345
  774MOL0     C 6695   5.405   3.250   2.534  0.0705  0.1546 -0.4338
  774MOL0     C 6696   5.499   3.377   2.540 -0.7098 -0.5203 -0.7693
  774MOL0     C 6697   5.648   3.339   2.519  0.1967  0.1121  0.0837
  774MOL0     O 6698   5.723   3.452   2.479 -0.1157 -0.0708 -0.2347
  774MOL0     C 6699   5.857   3.433   2.453  0.2041 -0.4033  0.4521
  774MOL0     C 6700   5.926   3.317   2.501 -0.2841 -0.8892  0.5447
  774MOL0     C 6701   6.062   3.298   2.482  0.3352  0.1192  0.1842
  774MOL0     C 6702   6.122   3.170   2.530  0.4331 -0.1998 -0.0832
  774MOL0     C 6703   6.141   3.397   2.415  0.2342  0.3298  0.1715
  774MOL0     C 6704   6.289   3.392   2.411 -0.0166  0.7086  0.1430
  774MOL0     O 6705   6.344   3.504   2.359 -0.5127 -0.1357  0.3150
  774MOL0     C 6706   6.471   3.494   2.297  0.6337 -0.6974  0.0010
  774MOL0     C 6707   6.503   3.386   2.222  0.9393 -0.0257 -0.0822
  774MOL0     C 6708   6.624   3.366   2.157  0.3321 -0.2651  0.2362
  774MOL0     C 6709   6.729   3.444   2.189  0.0848 -0.1317  0.1992
  774MOL0     O 6710   6.860   3.437   2.148  0.4051  0.0993  0.8812
  774MOL0     C 6711   6.915   3.328   2.072  0.0342  0.4548  0.0225
  774MOL0     C 6712   7.073   3.349   2.073  0.7702 -0.7038  0.0183
  774MOL0     C 6713   7.115   3.479   2.003 -0.4057  0.5194 -0.0640
  774MOL0     C 6714   7.265   3.503   2.006  0.5736  0.3040 -0.1006
  774MOL0     C 6715   7.280   3.633   1.922  0.2270  0.1385 -0.2874
  774MOL0     C 6716   7.429   3.639   1.871 -0.0792 -0.1152 -0.6940
  774MOL0     C 6717   7.464   3.774   1.804  0.2955  0.2788  0.6132
  774MOL0     C 6718   7.618   3.786   1.787 -0.3381 -0.4351  0.2823
  774MOL0    Cl 6719   7.652   3.954   1.760 -0.0309 -0.0558 -0.1406
  774MOL0     C 6720   6.705   3.555   2.267  0.0392 -0.1379 -0.4262
  774MOL0     C 6721   6.577   3.577   2.326  0.1726 -0.4375  0.0984
  774MOL0     O 6722   6.350   3.294   2.451 -0.9275  0.2337  0.0947
  774MOL0     C 6723   6.073   3.515   2.379 -0.0165  0.3728  0.4773
  774MOL0     C 6724   5.935   3.526   2.382  0.1421  0.5131 -0.5441
  774MOL0     N 6725   5.251   3.365   2.315 -0.6480 -0.2222  0.5004
  774MOL0     N 6726   5.174   3.380   2.219 -0.0328  0.6506 -0.6020
  774MOL0     C 6727   4.367   4.230   2.224  0.1463 -0.3394 -0.3161
  774MOL0     C 6728   4.228   4.266   2.208 -0.2017 -0.3844 -0.0622
  774MOL0     C 6729   3.832   4.350   2.010 -0.3794 -0.5507 -0.2608
  774MOL0     C 6730   3.821   4.491   1.991 -1.2366 -0.3556 -0.3408
  774MOL0     C 6731   3.700   4.547   1.974 -0.0240 -0.2978 -0.1051
  774MOL0     C 6732   3.586   4.476   1.964 -0.0947  0.0446  0.8188
  774MOL0     O 6733   3.469   4.540   1.953 -0.0097  0.1204 -0.5033
  774MOL0     C 6734   3.350   4.478   1.905 -0.2784  0.5194 -0.4371
  774MOL0     C 6735   3.353   4.418   1.760 -0.3891 -1.1012 -0.1100
  774MOL0     C 6736   3.222   4.350   1.712 -0.3217 -0.1393  0.1008
  774MOL0     C 6737   3.123   4.449   1.635 -0.2159 -0.5683  0.5180
  774MOL0     C 6738   3.079   4.567   1.702  0.3826 -0.0878  0.8589
  774MOL0     C 6739   3.046   4.674   1.753  0.6633  0.0045 -0.8361
  774MOL0     C 6740   3.595   4.335   1.953 -0.1701 -1.0779 -0.2911
  774MOL0     C 6741   3.715   4.268   1.990  0.9949  0.5164  0.6838
  774MOL0     C 6742   3.709   4.122   2.010  0.6720 -0.1427  0.3324
  774MOL0     H 6743   4.261   4.480   1.952 -2.3685 -0.8365  0.1522
  774MOL0     H 6744   4.500   4.407   1.972  0.8861 -0.5418  0.1336
  774MOL0     H 6745   4.686   4.297   1.992  1.4046 -0.3284  1.2541
  774MOL0     H 6746   4.583   4.165   1.953  2.2189 -3.1687 -0.7585
  774MOL0     H 6747   4.803   4.100   1.950 -0.5144 -1.9678 -0.2043
  774MOL0     H 6748   4.850   4.131   2.114 -0.3848  0.7598  0.3275
  774MOL0     H 6749   4.667   3.980   2.203 -0.5548 -2.0050 -0.2067
  774MOL0     H 6750   4.636   3.919   2.038 -0.7183 -0.9188  0.2820
  774MOL0     H 6751   4.887   3.862   2.022 -1.3502 -0.6052  0.3758
  774MOL0     H 6752   4.890   3.900   2.201  2.2614  1.6055 -0.5927
  774MOL0     H 6753   4.708   3.680   2.076  0.1753 -1.1450  0.8110
  774MOL0     H 6754   4.702   3.745   2.235  0.0265 -0.1737  0.4846
  774MOL0     H 6755   4.957   3.620   2.092 -2.8375 -1.4269 -2.4431
  774MOL0     H 6756   4.950   3.678   2.263  0.7848  2.9062 -1.8441
  774MOL0     H 6757   4.742   3.467   2.180 -0.7714 -0.2660  1.2944
  774MOL0     H 6758   4.841   3.488   2.339  3.6731 -0.7663 -0.2162
  774MOL0     H 6759   4.873   3.272   2.206  3.4867 -0.8417  1.5433
  774MOL0     H 6760   4.956   3.371   2.081 -1.3660 -0.3451 -1.4609
  774MOL0     H 6761   4.984   3.311   2.482  1.1193 -1.8033  0.6298
  774MOL0     H 6762   5.200   3.203   2.605 -1.2416 -0.1261 -0.1294
  774MOL0     H 6763   5.261   3.368   2.629  3.1429  1.7757 -1.3099
  774MOL0     H 6764   5.420   3.181   2.618  0.2212  0.4243 -0.2363
  774MOL0     H 6765   5.425   3.181   2.452 -0.5787  0.2353 -0.6661
  774MOL0     H 6766   5.470   3.459   2.474  4.6989  2.2322 -0.2351
  774MOL0     H 6767   5.499   3.419   2.641 -0.0180 -0.5532 -0.7558
  774MOL0     H 6768   5.682   3.292   2.611 -0.2714 -1.2430 -0.4132
  774MOL0     H 6769   5.651   3.263   2.440  0.9762 -0.7251  0.9049
  774MOL0     H 6770   5.881   3.240   2.563 -1.3172 -0.3112  0.5457
  774MOL0     H 6771   6.186   3.114   2.462 -0.8000  0.3991 -1.8116
  774MOL0     H 6772   6.042   3.097   2.548 -0.8121  1.4186  1.2554
  774MOL0     H 6773   6.177   3.175   2.624 -0.3548 -0.3881  0.4024
  774MOL0     H 6774   6.422   3.320   2.194  1.2369 -0.5693  0.3212
  774MOL0     H 6775   6.631   3.279   2.092 -1.2168 -0.3557  0.1640
  774MOL0     H 6776   6.901   3.228   2.115 -0.0276  0.9576  1.2164
  774MOL0     H 6777   6.873   3.324   1.971 -2.2061  3.2949  0.7020
  774MOL0     H 6778   7.101   3.347   2.178 -2.5420  0.8498  1.0632
  774MOL0     H 6779   7.119   3.268   2.015  0.8354  0.8701 -2.2796
  774MOL0     H 6780   7.064   3.564   2.050  0.6453  1.9863 -1.4568
  774MOL0     H 6781   7.075   3.465   1.902  2.2073  4.1947 -1.8478
  774MOL0     H 6782   7.302   3.417   1.949  1.5031 -0.0741  1.0546
  774MOL0     H 6783   7.310   3.513   2.105  0.4903  0.5041 -0.0820
  774MOL0     H 6784   7.216   3.637   1.834  2.0574  1.8020 -1.6312
  774MOL0     H 6785   7.270   3.720   1.987  4.3105  1.5222 -1.2115
  774MOL0     H 6786   7.450   3.555   1.805  1.0784  0.5651 -1.2393
  774MOL0     H 6787   7.494   3.637   1.959 -1.3705 -0.2011  0.2872
  774MOL0     H 6788   7.432   3.864   1.857 -0.0626  1.0945 -0.9020
  774MOL0     H 6789   7.417   3.776   1.705  0.7126 -3.3731  0.1935
  774MOL0     H 6790   7.650   3.723   1.703  1.0099  0.7698 -0.1711
  774MOL0     H 6791   7.680   3.762   1.874 -0.3721  0.1101  0.4592
  774MOL0     H 6792   6.789   3.616   2.299 -1.6182  1.9178  0.2799
  774MOL0     H 6793   6.565   3.668   2.385 -1.0457 -0.5732  0.0759
  774MOL0     H 6794   6.129   3.597   2.335 -0.3854  1.3446  1.7461
  774MOL0     H 6795   5.881   3.612   2.344 -1.3303  0.0914  0.5128
  774MOL0     H 6796   4.397   4.175   2.312  0.1353 -0.2685 -0.2681
  774MOL0     H 6797   4.149   4.223   2.269  0.0352 -1.0311 -0.2089
  774MOL0     H 6798   3.902   4.564   1.991 -2.1851  0.7576  0.6472
  774MOL0     H 6799   3.703   4.655   1.968  3.8648 -0.3680 -2.7026
  774MOL0     H 6800   3.339   4.394   1.974  0.0399  2.4409  2.1237
  774MOL0     H 6801   3.269   4.551   1.907 -0.1842  0.6176 -0.0282
  774MOL0     H 6802   3.445   4.359   1.755  0.4985  0.1996  0.4306
  774MOL0     H 6803   3.373   4.497   1.687  1.9150 -2.5231 -1.1283
  774MOL0     H 6804   3.252   4.268   1.646  3.3913 -0.5665  2.0181
  774MOL0     H 6805   3.174   4.298   1.795  0.3529 -0.1132  0.5193
  774MOL0     H 6806   3.042   4.375   1.629  2.7482 -4.4947  3.3269
  774MOL0     H 6807   3.150   4.480   1.533 -1.3852 -1.5233 -0.1111
  774MOL0     H 6808   3.016   4.768   1.796  1.1447  0.4604 -1.4673
  774MOL0     H 6809   3.510   4.269   1.939 -0.1910 -1.1247  0.0434
  774MOL0     H 6810   3.679   4.083   2.108 -0.7147 -1.9418 -0.7515
  774MOL0     H 6811   3.627   4.077   1.953  1.4197 -1.1727  0.0278
  774MOL0     H 6812   3.798   4.081   1.961  0.6188  0.2148 -0.0586
  775MOL0     O 6813   6.445  11.213  11.032 -0.9139 -0.6479 -0.7608
  775MOL0     C 6814   6.449  11.153  10.922 -1.3431  0.1832  0.2878
  775MOL0     O 6815   6.559  11.109  10.852 -0.3420 -0.1861  0.2226
  775MOL0     C 6816   6.677  11.122  10.925  0.3495  0.5811 -0.0999
  775MOL0     C 6817   6.717  11.016  11.004 -0.8395  0.2400  0.6854
  775MOL0     C 6818   6.846  11.022  11.053 -0.3265 -0.9186  0.6734
  775MOL0     C 6819   6.936  11.125  11.023  0.5568 -0.1601 -0.9146
  775MOL0     O 6820   7.065  11.109  11.061  0.9395 -0.4740 -0.0998
  775MOL0     C 6821   7.164  11.150  10.969 -0.1263  0.0799 -0.0521
  775MOL0     C 6822   7.201  11.060  10.850 -0.5058  0.2626 -0.8811
  775MOL0     C 6823   7.087  11.021  10.757  0.6286  0.0614  0.4686
  775MOL0     C 6824   7.135  10.963  10.629 -0.7763 -0.2272  1.1595
  775MOL0     C 6825   7.034  10.884  10.537 -0.3820 -0.0139  0.0409
  775MOL0     C 6826   6.953  10.972  10.453 -0.1714 -0.6490 -0.4283
  775MOL0     C 6827   6.812  10.923  10.438  0.8981 -0.0056 -0.8340
  775MOL0     C 6828   6.712  10.957  10.550  0.7158 -0.6670  0.2541
  775MOL0     N 6829   6.577  10.921  10.507  0.2573  0.0227  0.3233
  775MOL0     C 6830   6.512  10.809  10.536 -0.2375 -0.3273 -0.5819
  775MOL0     C 6831   6.419  10.793  10.446  0.0561 -0.7063 -0.0456
  775MOL0     C 6832   6.353  10.657  10.423  0.3270  0.5877 -0.7686
  775MOL0     C 6833   6.275  10.620  10.562 -0.0020 -0.3041 -0.2013
  775MOL0     C 6834   6.215  10.474  10.578 -0.3838 -0.2576  0.0175
  775MOL0     C 6835   6.331  10.372  10.597  0.7070 -0.2560  0.5766
  775MOL0     O 6836   6.432  10.369  10.492  1.1151  0.2811 -0.1158
  775MOL0     C 6837   6.566  10.345  10.523  0.0575  0.0210 -0.0944
  775MOL0     C 6838   6.609  10.261  10.632  0.1076 -0.0577 -0.1996
  775MOL0     C 6839   6.739  10.241  10.653  0.1227 -0.4248 -0.2884
  775MOL0     C 6840   6.763  10.146  10.773  0.0176 -0.0336 -0.3603
  775MOL0     C 6841   6.836  10.295  10.565 -0.4045  0.5879  0.4605
  775MOL0     C 6842   6.989  10.276  10.578  0.9381  0.1775 -0.3076
  775MOL0     O 6843   7.066  10.323  10.478 -0.0957 -0.2699  0.5774
  775MOL0     C 6844   7.203  10.342  10.499 -0.7417 -0.4607  0.2049
  775MOL0     C 6845   7.289  10.316  10.395 -0.6224  0.2355  0.3412
  775MOL0     C 6846   7.422  10.349  10.398 -0.4838  0.7844 -0.7100
  775MOL0     C 6847   7.483  10.400  10.513 -0.2106 -0.6065 -1.0787
  775MOL0     O 6848   7.615  10.437  10.536  0.3823  0.7589  0.4350
  775MOL0     C 6849   7.709  10.363  10.451  0.0360 -0.1964  0.2107
  775MOL0     C 6850   7.845  10.362  10.535  0.3059  0.2897  0.7827
  775MOL0     C 6851   7.934  10.477  10.479  0.0582 -0.3031  0.1431
  775MOL0     C 6852   7.883  10.618  10.511 -0.1939 -0.5830  0.2293
  775MOL0     C 6853   7.968  10.739  10.455 -0.2434  1.0471  0.5712
  775MOL0     C 6854   7.900  10.867  10.509  0.0351 -0.4530  0.7527
  775MOL0     C 6855   7.947  10.999  10.427  0.0501  0.6096  0.2475
  775MOL0     C 6856   7.830  11.085  10.369 -0.9209  0.0637  0.0879
  775MOL0    Cl 6857   7.724  11.146  10.497  0.1345  0.1638  0.2389
  775MOL0     C 6858   7.398  10.428  10.627  0.4612  0.4219 -0.6127
  775MOL0     C 6859   7.267  10.395  10.620 -0.1175  0.8372  0.3240
  775MOL0     O 6860   7.031  10.216  10.678 -0.0795 -0.5119  0.0716
  775MOL0     C 6861   6.793  10.374  10.461  0.2359 -0.1834  0.5195
  775MOL0     C 6862   6.665  10.406  10.446  0.8750  0.6488  0.1981
  775MOL0     N 6863   6.411  10.911  10.381  0.4746 -0.5362 -0.1113
  775MOL0     N 6864   6.510  10.984  10.405 -0.0189  0.0244  0.6348
  775MOL0     C 6865   6.888  11.236  10.946  0.1429 -0.5223 -0.2621
  775MOL0     C 6866   6.754  11.232  10.898  0.0516 -0.3213  0.1440
  775MOL0     C 6867   6.325  11.140  10.836  0.2409  1.1840 -0.1338
  775MOL0     C 6868   6.339  11.144  10.699 -0.4567 -0.8531  0.3973
  775MOL0     C 6869   6.246  11.087  10.609 -0.7881 -0.2222  0.3640
  775MOL0     C 6870   6.126  11.047  10.661 -0.4713  0.4682 -0.4349
  775MOL0     O 6871   6.043  10.992  10.576  0.1950 -0.5032  0.4935
  775MOL0     C 6872   5.901  10.973  10.607 -0.0926 -0.4573 -0.0660
  775MOL0     C 6873   5.816  10.897  10.510  0.7643 -0.1569  0.0424
  775MOL0     C 6874   5.889  10.780  10.449 -0.0768  0.0354 -0.3982
  775MOL0     C 6875   5.828  10.711  10.327  0.0462 -0.5150 -0.4672
  775MOL0     C 6876   5.760  10.592  10.376  0.0728  0.3867 -1.8833
  775MOL0     C 6877   5.699  10.498  10.429 -0.0940 -1.3432 -0.5258
  775MOL0     C 6878   6.108  11.060  10.801 -0.1364  0.2047  0.3821
  775MOL0     C 6879   6.209  11.100  10.892  0.4070  1.0820 -0.3755
  775MOL0     C 6880   6.184  11.092  11.041 -0.2714 -1.5065  0.1007
  775MOL0     H 6881   6.654  10.939  11.047  0.4368 -1.6065 -0.6316
  775MOL0     H 6882   6.877  10.933  11.108  0.7475 -0.2858  1.1132
  775MOL0     H 6883   7.253  11.171  11.028  0.1070  1.7699 -0.9279
  775MOL0     H 6884   7.139  11.251  10.933 -0.2609 -0.0443 -0.3122
  775MOL0     H 6885   7.273  11.122  10.795  0.7875  0.5126  0.9754
  775MOL0     H 6886   7.254  10.971  10.886  0.6396  0.0638 -2.8783
  775MOL0     H 6887   7.011  10.963  10.811  0.2258  0.6603  0.5551
  775MOL0     H 6888   7.034  11.111  10.725  2.9822  1.4267  0.1998
  775MOL0     H 6889   7.195  11.037  10.575  4.6794 -3.9419  1.3011
  775MOL0     H 6890   7.215  10.892  10.655  0.2305  1.0541  1.6755
  775MOL0     H 6891   6.986  10.814  10.607  3.8239 -1.0409  2.2148
  775MOL0     H 6892   7.091  10.822  10.467 -1.1076  0.9333 -1.4131
  775MOL0     H 6893   6.945  11.067  10.508  2.0513 -1.6873  1.8753
  775MOL0     H 6894   7.001  10.992  10.356  1.9659 -0.0267  0.6852
  775MOL0     H 6895   6.810  10.816  10.416  2.0758  0.3241 -2.8845
  775MOL0     H 6896   6.773  10.961  10.343  3.0730  0.8247 -1.4383
  775MOL0     H 6897   6.728  10.882  10.628 -2.1521 -3.0139 -1.1719
  775MOL0     H 6898   6.714  11.061  10.581  1.4883 -0.0436 -1.7083
  775MOL0     H 6899   6.556  10.735  10.602  2.0856  1.1144 -0.4126
  775MOL0     H 6900   6.425  10.575  10.415 -0.6429 -0.1718 -2.1954
  775MOL0     H 6901   6.294  10.659  10.330 -1.9271 -2.3211  0.4498
  775MOL0     H 6902   6.330  10.630  10.656  0.9468 -1.0007 -0.6685
  775MOL0     H 6903   6.192  10.691  10.560  1.7258  1.8963 -3.4389
  775MOL0     H 6904   6.157  10.481  10.670 -1.8158  1.1258 -0.9346
  775MOL0     H 6905   6.144  10.443  10.500 -1.2764 -0.4284  0.8873
  775MOL0     H 6906   6.379  10.397  10.693  2.0529  1.7379 -0.5343
  775MOL0     H 6907   6.285  10.273  10.596  0.4205 -0.1922  2.7359
  775MOL0     H 6908   6.534  10.215  10.696  0.2405  0.5680  0.4225
  775MOL0     H 6909   6.814  10.056  10.738 -0.9066 -1.1131  0.9491
  775MOL0     H 6910   6.671  10.120  10.826  0.9081 -5.1075 -0.7759
  775MOL0     H 6911   6.830  10.187  10.849 -1.3905 -1.2940  1.6578
  775MOL0     H 6912   7.247  10.284  10.300  1.1196 -0.8132 -0.1379
  775MOL0     H 6913   7.475  10.315  10.309 -2.0122  1.0836 -1.7617
  775MOL0     H 6914   7.676  10.262  10.425 -0.6020 -0.0997  0.6273
  775MOL0     H 6915   7.716  10.416  10.356  0.0374 -1.6013 -0.6002
  775MOL0     H 6916   7.836  10.366  10.644  1.6951 -1.5660  1.0082
  775MOL0     H 6917   7.901  10.268  10.524  1.0793  0.9416 -1.3199
  775MOL0     H 6918   7.938  10.466  10.370 -0.2538 -2.0103  0.2846
  775MOL0     H 6919   8.037  10.469  10.517 -0.0028 -0.2734  0.3130
  775MOL0     H 6920   7.873  10.623  10.620 -2.2280 -1.2803  0.1099
  775MOL0     H 6921   7.786  10.632  10.464 -0.3724 -1.7070  0.2210
  775MOL0     H 6922   8.072  10.731  10.487 -0.1269 -0.7271 -0.0955
  775MOL0     H 6923   7.964  10.744  10.345 -0.6588  1.3012  0.5968
  775MOL0     H 6924   7.930  10.877  10.614 -0.3666  1.1804  0.7304
  775MOL0     H 6925   7.792  10.851  10.509  0.0540 -0.7179 -0.6474
  775MOL0     H 6926   8.004  10.966  10.340  1.5618  1.1295  1.0143
  775MOL0     H 6927   8.020  11.055  10.486 -0.0863 -1.5862  2.6637
  775MOL0     H 6928   7.776  11.017  10.304  0.6333 -2.1795  1.0223
  775MOL0     H 6929   7.870  11.172  10.315 -0.9468  1.6931  2.5578
  775MOL0     H 6930   7.446  10.479  10.711 -0.0365  3.8768 -2.2441
  775MOL0     H 6931   7.208  10.433  10.703 -0.5412  1.9911 -0.4758
  775MOL0     H 6932   6.866  10.428  10.402  0.6818  0.3963  1.5726
  775MOL0     H 6933   6.620  10.482  10.384 -1.8927 -0.8214  0.2267
  775MOL0     H 6934   6.948  11.320  10.914  1.0186 -0.7278  0.7607
  775MOL0     H 6935   6.710  11.314  10.841 -0.5268 -0.9847 -0.3948
  775MOL0     H 6936   6.433  11.182  10.661 -1.4968  1.8465  0.2541
  775MOL0     H 6937   6.261  11.082  10.501 -0.7998 -0.0245  0.3528
  775MOL0     H 6938   5.900  10.908  10.695 -4.1029 -0.5933 -0.0404
  775MOL0     H 6939   5.859  11.073  10.626  0.3164 -0.3274  0.1695
  775MOL0     H 6940   5.786  10.967  10.432  2.2566  0.5683  0.0890
  775MOL0     H 6941   5.722  10.871  10.560  0.0634  4.3402  1.4761
  775MOL0     H 6942   5.988  10.822  10.428 -1.2539  2.6091 -1.2362
  775MOL0     H 6943   5.894  10.712  10.535 -2.4167  1.9692  1.3994
  775MOL0     H 6944   5.903  10.687  10.251 -1.7625 -0.6805 -2.2600
  775MOL0     H 6945   5.755  10.778  10.283 -1.5396 -1.5539  0.4718
  775MOL0     H 6946   5.639  10.423  10.477 -1.7802 -1.1697 -2.2595
  775MOL0     H 6947   6.011  11.032  10.842 -1.5562  3.2972 -0.5709
  775MOL0     H 6948   6.257  11.029  11.091  0.6348 -1.9470 -1.7011
  775MOL0     H 6949   6.187  11.196  11.076  0.0877 -1.1533 -0.9410
  775MOL0     H 6950   6.087  11.054  11.073 -1.3252  0.7809 -0.1226
  776MOL0     O 6951   3.035   2.309   2.053  0.8400  1.2821 -0.6130
  776MOL0     C 6952   2.988   2.250   1.962 -0.1958  0.0573  0.5513
  776MOL0     O 6953   3.039   2.145   1.898  0.2409  0.1932 -0.6894
  776MOL0     C 6954   3.160   2.091   1.925  0.2232 -0.1935 -0.7647
  776MOL0     C 6955   3.281   2.159   1.942 -0.0013 -0.4657  1.2474
  776MOL0     C 6956   3.403   2.097   1.959 -0.4231  0.4782 -0.5541
  776MOL0     C 6957   3.407   1.957   1.968 -1.2656  0.0971 -0.4257
  776MOL0     O 6958   3.526   1.887   2.003 -0.0985 -0.8412 -0.2158
  776MOL0     C 6959   3.599   1.945   2.122  0.7964 -0.5288  0.5435
  776MOL0     C 6960   3.706   1.843   2.152  0.3116 -0.1787 -0.7869
  776MOL0     C 6961   3.791   1.912   2.260 -0.1797  0.0195  0.7261
  776MOL0     C 6962   3.903   1.816   2.291  0.2133 -0.0897  0.3495
  776MOL0     C 6963   3.987   1.874   2.408 -1.2295 -0.7637  0.0878
  776MOL0     C 6964   4.112   1.790   2.427 -0.2532  0.0928  0.3895
  776MOL0     C 6965   4.069   1.649   2.485 -0.2714  0.2284 -1.1782
  776MOL0     C 6966   3.990   1.653   2.615  0.0447 -0.1416 -0.0959
  776MOL0     N 6967   4.062   1.729   2.726 -1.2026 -0.9605  1.2037
  776MOL0     C 6968   4.169   1.685   2.806 -0.5892  0.6771 -1.0467
  776MOL0     C 6969   4.213   1.795   2.873  0.1903  1.0219  0.2506
  776MOL0     C 6970   4.337   1.801   2.953  0.6127 -0.2339 -0.5403
  776MOL0     C 6971   4.334   1.697   3.074  0.0540 -0.7121 -0.7046
  776MOL0     C 6972   4.451   1.712   3.169  0.4037 -0.3090  1.2990
  776MOL0     C 6973   4.455   1.621   3.290  1.0885  0.5273 -0.1780
  776MOL0     O 6974   4.429   1.483   3.249  0.0276 -0.4350  0.0628
  776MOL0     C 6975   4.535   1.398   3.230  0.0666 -0.0272 -0.0244
  776MOL0     C 6976   4.497   1.266   3.199  0.0461 -0.0108  0.3376
  776MOL0     C 6977   4.598   1.167   3.170 -0.2463 -0.7155  0.5653
  776MOL0     C 6978   4.560   1.034   3.125  0.6026 -1.3565  0.6060
  776MOL0     C 6979   4.740   1.204   3.181  0.2302 -0.4474 -0.8562
  776MOL0     C 6980   4.852   1.113   3.169  0.7004 -0.0606  0.2473
  776MOL0     O 6981   4.912   1.068   3.290  0.1905  0.0672 -0.2070
  776MOL0     C 6982   5.010   0.975   3.268  0.0867 -0.3467  0.6678
  776MOL0     C 6983   4.984   0.838   3.284 -0.0702 -1.0555  0.3152
  776MOL0     C 6984   5.086   0.750   3.261 -1.3887  0.4702  0.7617
  776MOL0     C 6985   5.209   0.789   3.204  0.4890 -1.5239 -0.5926
  776MOL0     O 6986   5.298   0.688   3.172  0.8486  0.3550  0.4521
  776MOL0     C 6987   5.365   0.708   3.045 -0.4841 -0.8629  0.1373
  776MOL0     C 6988   5.516   0.708   3.067 -0.0565  0.2003 -0.2027
  776MOL0     C 6989   5.596   0.772   2.952 -0.1654 -0.3660  0.4217
  776MOL0     C 6990   5.746   0.778   2.993 -0.1433 -0.5021  0.2462
  776MOL0     C 6991   5.837   0.835   2.891 -0.3255 -0.0918  0.4977
  776MOL0     C 6992   5.987   0.805   2.911 -0.2674  0.1849  0.1811
  776MOL0     C 6993   6.073   0.848   2.796 -0.7486 -0.5713  0.2686
  776MOL0     C 6994   6.214   0.785   2.774  0.9192  0.5503  0.1389
  776MOL0    Cl 6995   6.182   0.619   2.699  0.0777 -0.1206 -0.0709
  776MOL0     C 6996   5.232   0.921   3.188 -0.5836  0.0855 -0.6629
  776MOL0     C 6997   5.132   1.013   3.219  0.2647 -0.9491  0.3154
  776MOL0     O 6998   4.879   1.087   3.058  0.0353 -0.2865  0.5985
  776MOL0     C 6999   4.767   1.335   3.212 -0.0269  0.0226  0.7944
  776MOL0     C 7000   4.672   1.428   3.238 -0.1520 -1.0359  0.0844
  776MOL0     N 7001   4.134   1.900   2.819 -0.7203  0.7141  0.6206
  776MOL0     N 7002   4.037   1.861   2.748 -0.2700  0.3777 -0.3367
  776MOL0     C 7003   3.288   1.883   1.956  0.1257  0.3372 -0.9272
  776MOL0     C 7004   3.169   1.949   1.929  0.3354  0.1177  0.2015
  776MOL0     C 7005   2.875   2.321   1.890 -0.5544  0.0966  0.0996
  776MOL0     C 7006   2.763   2.364   1.969 -0.0744  0.2367  0.0533
  776MOL0     C 7007   2.662   2.440   1.910 -0.4842 -0.2827 -0.9594
  776MOL0     C 7008   2.666   2.459   1.778 -0.4947  0.1193  0.6108
  776MOL0     O 7009   2.563   2.529   1.725  0.8087 -0.2859  0.5658
  776MOL0     C 7010   2.580   2.597   1.601 -0.4622  0.3783  0.0947
  776MOL0     C 7011   2.526   2.512   1.487  0.8172 -0.2659  0.1690
  776MOL0     C 7012   2.527   2.592   1.355 -0.5187  0.3413  0.9941
  776MOL0     C 7013   2.444   2.526   1.240  1.0640 -0.1002 -0.1881
  776MOL0     C 7014   2.307   2.561   1.235 -0.1297 -0.3134 -0.2314
  776MOL0     C 7015   2.190   2.588   1.243 -0.2927  0.4520 -0.5219
  776MOL0     C 7016   2.771   2.410   1.693 -0.1938  0.5530 -0.5842
  776MOL0     C 7017   2.884   2.365   1.756  0.4775  0.1410 -0.8846
  776MOL0     C 7018   2.997   2.334   1.668  0.3328 -0.4492 -0.8652
  776MOL0     H 7019   3.290   2.267   1.943  1.8956 -0.5438 -0.3041
  776MOL0     H 7020   3.488   2.158   1.990 -1.9312  0.8272  3.5132
  776MOL0     H 7021   3.527   1.951   2.204 -0.6849 -1.7213 -0.6000
  776MOL0     H 7022   3.646   2.040   2.095  2.1122 -1.4531 -0.5560
  776MOL0     H 7023   3.661   1.753   2.194  2.4760 -0.7651  0.4166
  776MOL0     H 7024   3.760   1.814   2.061  0.3467 -0.5958 -0.6354
  776MOL0     H 7025   3.825   2.008   2.220  0.3412 -1.0435 -1.5494
  776MOL0     H 7026   3.743   1.934   2.355 -1.4798 -1.0238  0.3434
  776MOL0     H 7027   3.858   1.722   2.324 -1.3650 -1.1152 -3.9961
  776MOL0     H 7028   3.964   1.788   2.204  1.3641  1.4970  0.6061
  776MOL0     H 7029   3.927   1.898   2.496 -1.4536  2.6995 -0.8464
  776MOL0     H 7030   4.018   1.972   2.371  0.3829 -1.8400 -1.6297
  776MOL0     H 7031   4.163   1.783   2.331  1.0877 -0.1427  1.1014
  776MOL0     H 7032   4.184   1.836   2.495 -1.3364  1.8911  0.3847
  776MOL0     H 7033   4.156   1.584   2.493  0.3922  0.8294 -3.1489
  776MOL0     H 7034   4.002   1.603   2.412 -2.4971  2.1871 -0.5134
  776MOL0     H 7035   3.892   1.701   2.601  0.8741  1.1566 -1.9676
  776MOL0     H 7036   3.981   1.552   2.657  0.6227  1.1696  3.5063
  776MOL0     H 7037   4.214   1.586   2.806  0.2163  0.9951 -3.0281
  776MOL0     H 7038   4.331   1.902   2.994 -2.7081 -0.4832 -0.1016
  776MOL0     H 7039   4.430   1.798   2.895  2.3896  3.7720  1.7435
  776MOL0     H 7040   4.241   1.718   3.128  0.4673 -0.4642 -0.0782
  776MOL0     H 7041   4.331   1.596   3.034 -1.3162 -1.3124  0.8395
  776MOL0     H 7042   4.535   1.686   3.104 -0.7974 -3.3889  0.7852
  776MOL0     H 7043   4.453   1.814   3.208  0.1128 -0.6513  2.2190
  776MOL0     H 7044   4.554   1.636   3.334  0.4213 -0.8545  1.9155
  776MOL0     H 7045   4.380   1.649   3.364  1.1226 -2.1790  1.0205
  776MOL0     H 7046   4.391   1.243   3.203 -0.1511  0.6254 -0.7189
  776MOL0     H 7047   4.467   0.999   3.172 -0.6287  1.9030  0.8267
  776MOL0     H 7048   4.637   0.965   3.162  2.4930 -0.3645 -1.2832
  776MOL0     H 7049   4.547   1.038   3.016 -1.7840  0.5157  0.8802
  776MOL0     H 7050   4.884   0.821   3.325 -0.4710 -2.3475 -1.1015
  776MOL0     H 7051   5.055   0.646   3.264 -1.7700  0.5730  0.4720
  776MOL0     H 7052   5.342   0.626   2.977  1.4518 -3.0828  1.9870
  776MOL0     H 7053   5.327   0.800   3.000 -0.4501 -1.1130 -0.4069
  776MOL0     H 7054   5.540   0.762   3.159 -0.7221  1.1848 -0.6025
  776MOL0     H 7055   5.541   0.602   3.080  0.1516 -0.1263 -2.8099
  776MOL0     H 7056   5.546   0.866   2.931  0.5001  0.1037  0.9006
  776MOL0     H 7057   5.591   0.715   2.859  2.9668 -2.3738  1.3272
  776MOL0     H 7058   5.774   0.673   3.007 -1.9311 -1.4646 -2.4653
  776MOL0     H 7059   5.768   0.825   3.089  0.8732 -1.1309  0.3398
  776MOL0     H 7060   5.808   0.809   2.789  1.9879  0.3941 -0.3399
  776MOL0     H 7061   5.816   0.942   2.898 -0.1877  0.1382 -1.8121
  776MOL0     H 7062   6.003   0.700   2.936  0.0952  0.3682  0.7428
  776MOL0     H 7063   6.028   0.863   2.995  0.5303  4.3735 -2.7647
  776MOL0     H 7064   6.096   0.953   2.813 -2.5632 -0.4687  2.4945
  776MOL0     H 7065   6.005   0.837   2.711 -0.3963  0.9197 -0.2395
  776MOL0     H 7066   6.262   0.779   2.872  0.6386 -1.1953  0.2127
  776MOL0     H 7067   6.273   0.850   2.709 -2.7036  1.9466 -2.0632
  776MOL0     H 7068   5.329   0.956   3.155  0.3944 -1.5031  0.4390
  776MOL0     H 7069   5.146   1.120   3.205 -5.0732 -0.2764 -2.7582
  776MOL0     H 7070   4.866   1.374   3.237 -0.2398  0.8165  0.4090
  776MOL0     H 7071   4.706   1.528   3.263 -4.3536  0.7624 -0.5497
  776MOL0     H 7072   3.298   1.776   1.967  0.7040  0.3825 -0.9790
  776MOL0     H 7073   3.074   1.904   1.901 -0.6164  1.4764  1.0921
  776MOL0     H 7074   2.757   2.319   2.068  1.5495 -2.7358 -1.0864
  776MOL0     H 7075   2.578   2.488   1.959 -0.3468 -0.2469 -0.7616
  776MOL0     H 7076   2.516   2.685   1.613 -0.7420  0.2316 -0.2852
  776MOL0     H 7077   2.685   2.621   1.585 -0.7884  0.5087 -2.3036
  776MOL0     H 7078   2.424   2.479   1.510  0.6992 -0.5348 -0.7044
  776MOL0     H 7079   2.585   2.420   1.475  1.9752  0.5607 -0.7856
  776MOL0     H 7080   2.493   2.695   1.367 -1.1325  0.6461 -2.3859
  776MOL0     H 7081   2.632   2.593   1.322  0.1258 -2.6167  2.6644
  776MOL0     H 7082   2.442   2.417   1.254  2.4973 -0.1580 -0.2316
  776MOL0     H 7083   2.495   2.552   1.148  0.4351  0.4796 -0.3783
  776MOL0     H 7084   2.088   2.623   1.248 -0.4209 -0.0417  0.5301
  776MOL0     H 7085   2.773   2.430   1.587 -0.2265 -0.5134 -0.7950
  776MOL0     H 7086   2.988   2.385   1.571 -0.5996 -1.2558 -1.2235
  776MOL0     H 7087   3.096   2.349   1.712  1.5236 -1.1056 -3.1619
  776MOL0     H 7088   3.000   2.229   1.637  3.0554  0.2572 -3.4776
  777MOL0     O 7089  10.674   7.528   1.614  0.5256 -0.8192 -0.0566
  777MOL0     C 7090  10.660   7.608   1.711  0.2890  0.2692 -0.2886
  777MOL0     O 7091  10.762   7.665   1.787 -0.2457  0.2130 -0.5258
  777MOL0     C 7092  10.890   7.663   1.740 -0.1144 -0.0458  0.6785
  777MOL0     C 7093  10.949   7.618   1.622  0.1802 -1.1068 -0.7125
  777MOL0     C 7094  11.086   7.647   1.599 -0.2597  0.0193 -0.0188
  777MOL0     C 7095  11.174   7.694   1.697 -0.4006  0.4075  0.3605
  777MOL0     O 7096  11.311   7.698   1.688 -0.2400 -0.3799  0.0922
  777MOL0     C 7097  11.366   7.672   1.561 -0.8485  0.2024  0.9610
  777MOL0     C 7098  11.518   7.692   1.564  0.7606 -0.2195  0.2864
  777MOL0     C 7099  11.573   7.652   1.430  0.5529 -0.4752  0.1070
  777MOL0     C 7100  11.710   7.716   1.411 -1.0730  0.1506 -0.8627
  777MOL0     C 7101  11.793   7.714   1.283  0.0926  0.1732  0.3129
  777MOL0     C 7102  11.853   7.569   1.260 -0.4337 -0.1739 -0.2633
  777MOL0     C 7103  11.957   7.571   1.155 -0.0723 -0.0757  0.3528
  777MOL0     C 7104  11.905   7.604   1.009 -0.2831  0.0494 -0.1187
  777MOL0     N 7105  12.021   7.600   0.920 -0.9519 -0.7527  0.2501
  777MOL0     C 7106  12.133   7.684   0.935  0.0207  0.0286 -0.8297
  777MOL0     C 7107  12.241   7.628   0.874  0.0487  0.1029  0.5406
  777MOL0     C 7108  12.387   7.665   0.857  0.0154  0.2481 -0.4987
  777MOL0     C 7109  12.407   7.772   0.748  0.2957 -0.2980 -0.4369
  777MOL0     C 7110  12.560   7.799   0.776  0.0606 -0.2743  0.0686
  777MOL0     C 7111  12.657   7.695   0.714  0.0621  0.5415  0.0450
  777MOL0     O 7112  12.771   7.744   0.657 -0.0123 -0.5029 -0.2350
  777MOL0     C 7113  12.753   7.801   0.536 -1.1590  0.5058  0.6327
  777MOL0     C 7114  12.639   7.829   0.463  0.1230  0.0652 -0.8170
  777MOL0     C 7115  12.633   7.887   0.341  0.3423 -0.1179  0.7214
  777MOL0     C 7116  12.486   7.918   0.294 -0.1767 -0.0458  0.3496
  777MOL0     C 7117  12.748   7.919   0.269 -1.0191  0.4779 -0.5104
  777MOL0     C 7118  12.754   7.984   0.140 -0.2230 -0.2524  0.3076
  777MOL0     O 7119  12.870   7.958   0.065  0.7275  0.0161 -0.0729
  777MOL0     C 7120  12.876   8.020  -0.059 -0.1415 -0.0647  0.0407
  777MOL0     C 7121  12.865   7.945  -0.172 -0.0048  0.3325 -1.1116
  777MOL0     C 7122  12.875   7.999  -0.295 -0.8535  0.0270 -0.0034
  777MOL0     C 7123  12.883   8.141  -0.316 -0.3157 -0.0178 -0.1221
  777MOL0     O 7124  12.894   8.204  -0.440  0.1170  0.2345  0.4637
  777MOL0     C 7125  12.901   8.116  -0.556 -0.1592  0.3359  0.4275
  777MOL0     C 7126  12.950   8.171  -0.691 -0.4591  0.2657  0.1788
  777MOL0     C 7127  13.105   8.214  -0.688 -0.5441  0.3777  0.4424
  777MOL0     C 7128  13.133   8.257  -0.833  0.3829  0.6729 -0.2122
  777MOL0     C 7129  13.277   8.252  -0.864  0.1220 -0.8119  0.0213
  777MOL0     C 7130  13.351   8.376  -0.801  0.5430 -0.3958 -0.5970
  777MOL0     C 7131  13.493   8.389  -0.854 -0.3821  1.1845 -0.5891
  777MOL0     C 7132  13.588   8.285  -0.794 -0.5109 -0.0728  0.0575
  777MOL0    Cl 7133  13.740   8.294  -0.888  0.1068 -0.1539 -0.2015
  777MOL0     C 7134  12.886   8.224  -0.196  0.3613 -0.3203 -0.8245
  777MOL0     C 7135  12.877   8.162  -0.066 -0.7443 -0.0523  0.7453
  777MOL0     O 7136  12.657   8.057   0.105 -0.1105  0.4227 -0.5682
  777MOL0     C 7137  12.871   7.877   0.329  0.4696 -0.4363 -0.4494
  777MOL0     C 7138  12.871   7.820   0.457 -0.3738 -0.8745  0.9912
  777MOL0     N 7139  12.187   7.527   0.799 -0.2489 -0.4006 -0.6910
  777MOL0     N 7140  12.060   7.511   0.829  0.9857  0.2315  0.5176
  777MOL0     C 7141  11.120   7.722   1.821  0.0644  0.7234 -0.5965
  777MOL0     C 7142  10.978   7.713   1.835 -0.5790  0.4539  0.5542
  777MOL0     C 7143  10.520   7.653   1.761 -0.0291 -0.0046 -0.2023
  777MOL0     C 7144  10.424   7.667   1.659 -0.2947 -0.0430  0.2314
  777MOL0     C 7145  10.292   7.701   1.687 -0.6143 -0.4764 -0.3893
  777MOL0     C 7146  10.254   7.726   1.825 -0.4521 -0.3742  0.8182
  777MOL0     O 7147  10.131   7.758   1.863 -0.5977  0.4930  0.6326
  777MOL0     C 7148  10.039   7.758   1.756 -0.3659  0.2668  0.0700
  777MOL0     C 7149   9.899   7.801   1.814 -0.2059  0.0076 -0.0745
  777MOL0     C 7150   9.883   7.949   1.784 -0.6542 -0.2875  0.6905
  777MOL0     C 7151   9.802   8.035   1.879  0.1224 -0.6321 -0.9119
  777MOL0     C 7152   9.703   7.958   1.947 -0.1536  0.5876 -1.0465
  777MOL0     C 7153   9.627   7.880   2.007 -0.7475 -0.4902  0.2848
  777MOL0     C 7154  10.354   7.702   1.924  0.2437 -0.8649 -0.3060
  777MOL0     C 7155  10.486   7.667   1.896 -0.6698  0.3372  0.3670
  777MOL0     C 7156  10.584   7.655   1.999 -0.1207 -0.0136 -0.4330
  777MOL0     H 7157  10.890   7.589   1.536 -1.6765  0.1960  0.0610
  777MOL0     H 7158  11.121   7.622   1.499  1.8853  1.7644  0.2203
  777MOL0     H 7159  11.328   7.747   1.491  1.5574  0.9249  0.3151
  777MOL0     H 7160  11.350   7.567   1.533  2.9145 -0.4742  0.7377
  777MOL0     H 7161  11.538   7.796   1.591  1.4636 -0.5457  1.0496
  777MOL0     H 7162  11.557   7.632   1.646 -2.2674 -2.7609  0.0557
  777MOL0     H 7163  11.572   7.543   1.424 -0.6943 -0.4708  0.0450
  777MOL0     H 7164  11.519   7.687   1.342  1.0094  2.7930  0.9774
  777MOL0     H 7165  11.691   7.821   1.432 -1.6862 -0.4632  2.2217
  777MOL0     H 7166  11.770   7.686   1.498  0.0441  0.5382 -1.4876
  777MOL0     H 7167  11.881   7.778   1.288 -2.4201  4.3281 -2.1801
  777MOL0     H 7168  11.725   7.744   1.203 -0.8089  1.3631  1.4855
  777MOL0     H 7169  11.897   7.521   1.347 -0.0704 -2.2484 -1.5176
  777MOL0     H 7170  11.771   7.502   1.229  0.7185 -0.5961 -2.6372
  777MOL0     H 7171  11.992   7.467   1.145  0.2486 -0.0638  1.3510
  777MOL0     H 7172  12.042   7.634   1.181 -0.9872  2.8539 -2.9119
  777MOL0     H 7173  11.835   7.524   0.986 -0.2853 -0.2114  0.7403
  777MOL0     H 7174  11.846   7.696   1.000 -1.3627 -0.4732  1.2092
  777MOL0     H 7175  12.134   7.771   1.001 -2.5239 -1.6806  1.7036
  777MOL0     H 7176  12.449   7.578   0.830  0.0122  0.2380 -0.4733
  777MOL0     H 7177  12.421   7.693   0.957 -0.8138 -2.3820  0.6329
  777MOL0     H 7178  12.384   7.731   0.650  1.5188  0.8121 -1.2280
  777MOL0     H 7179  12.347   7.862   0.763  0.6017 -0.0509 -0.6842
  777MOL0     H 7180  12.562   7.892   0.717 -0.7180 -2.5575 -3.9411
  777MOL0     H 7181  12.594   7.806   0.879  0.1863 -1.4205  0.1167
  777MOL0     H 7182  12.685   7.618   0.786  2.6053  1.4889  0.1647
  777MOL0     H 7183  12.593   7.648   0.639 -0.3329  1.3075 -0.1031
  777MOL0     H 7184  12.540   7.806   0.501  1.6311 -1.6033  2.5643
  777MOL0     H 7185  12.461   8.024   0.300  4.6725  1.4518 -1.4067
  777MOL0     H 7186  12.407   7.857   0.339 -0.5536  0.3204  0.1946
  777MOL0     H 7187  12.486   7.898   0.186 -2.3804 -2.0222  0.6235
  777MOL0     H 7188  12.844   7.839  -0.160  1.0397  0.3971  2.3179
  777MOL0     H 7189  12.861   7.947  -0.390  1.9246 -0.5729 -0.1825
  777MOL0     H 7190  12.982   8.044  -0.545 -0.2535 -1.2405 -5.5227
  777MOL0     H 7191  12.799   8.078  -0.567 -1.6438  4.2638 -1.1947
  777MOL0     H 7192  12.939   8.085  -0.758  0.5114 -0.6446  1.1489
  777MOL0     H 7193  12.890   8.260  -0.712 -0.8563 -0.0544 -0.0788
  777MOL0     H 7194  13.160   8.122  -0.663  0.0791  0.8429  0.7865
  777MOL0     H 7195  13.126   8.297  -0.621  0.0139  1.0854 -0.5736
  777MOL0     H 7196  13.088   8.354  -0.856  2.5825  1.1729 -2.8717
  777MOL0     H 7197  13.078   8.193  -0.902  2.6963  0.7320 -2.2539
  777MOL0     H 7198  13.321   8.155  -0.838 -3.5200 -2.8036 -0.6580
  777MOL0     H 7199  13.271   8.252  -0.974 -1.1007 -0.9962  0.0828
  777MOL0     H 7200  13.347   8.368  -0.692  0.9487  1.3490 -0.4214
  777MOL0     H 7201  13.299   8.466  -0.833  0.8888 -0.3506 -1.0582
  777MOL0     H 7202  13.532   8.490  -0.839 -4.1667  2.9612 -1.4491
  777MOL0     H 7203  13.488   8.377  -0.963  2.3845  3.1960 -1.0540
  777MOL0     H 7204  13.548   8.183  -0.801  0.1675 -0.3348 -0.0355
  777MOL0     H 7205  13.621   8.316  -0.694  2.8156  0.0149 -0.9500
  777MOL0     H 7206  12.894   8.332  -0.205  0.0899 -0.1384  0.7351
  777MOL0     H 7207  12.866   8.221   0.024 -0.1057 -3.2556  3.1228
  777MOL0     H 7208  12.962   7.882   0.271  0.7877  2.1087  0.1345
  777MOL0     H 7209  12.969   7.806   0.502  0.2248 -0.4317 -0.1423
  777MOL0     H 7210  11.171   7.765   1.906 -0.1133 -0.8612  0.3512
  777MOL0     H 7211  10.948   7.724   1.939 -1.5632 -1.4355  0.5134
  777MOL0     H 7212  10.463   7.651   1.559  0.0681 -1.3280  0.5562
  777MOL0     H 7213  10.218   7.698   1.608 -1.2190 -1.8112  0.1798
  777MOL0     H 7214  10.070   7.832   1.681  2.0136 -1.1561 -0.4399
  777MOL0     H 7215  10.034   7.659   1.711  0.4356  1.2353 -2.3317
  777MOL0     H 7216   9.894   7.772   1.920  0.5833 -1.5435 -0.4324
  777MOL0     H 7217   9.815   7.747   1.771 -0.5031 -0.0819  0.6124
  777MOL0     H 7218   9.981   7.997   1.789 -0.7584 -0.0041  0.1110
  777MOL0     H 7219   9.840   7.961   1.684  0.1528 -0.0245  0.3647
  777MOL0     H 7220   9.765   8.110   1.809  1.1519 -1.1580 -2.0714
  777MOL0     H 7221   9.874   8.079   1.948 -0.3271 -1.5744  0.1877
  777MOL0     H 7222   9.568   7.824   2.077  0.5136  1.8895  3.5094
  777MOL0     H 7223  10.330   7.722   2.029 -2.1195  1.9121 -1.2312
  777MOL0     H 7224  10.652   7.740   1.997  1.3520 -1.1669 -0.8349
  777MOL0     H 7225  10.545   7.657   2.102  0.9801  3.3264  0.0417
  777MOL0     H 7226  10.654   7.573   1.985 -1.8447 -1.5162 -0.6806
  778MOL0     O 7227   8.503   5.544   8.854  1.4886 -0.1340  0.1189
  778MOL0     C 7228   8.530   5.434   8.794  0.2674 -0.3023 -1.4849
  778MOL0     O 7229   8.648   5.370   8.792 -0.5423  0.0683 -0.3718
  778MOL0     C 7230   8.752   5.426   8.865 -0.5916  0.0735 -0.3665
  778MOL0     C 7231   8.775   5.388   8.995  0.8333  1.0548 -0.5007
  778MOL0     C 7232   8.896   5.427   9.052  0.4869 -0.7635 -0.8467
  778MOL0     C 7233   8.992   5.517   8.999 -0.1921 -0.1901  1.1002
  778MOL0     O 7234   9.105   5.542   9.076 -0.0756 -0.3084  0.5137
  778MOL0     C 7235   9.219   5.616   9.014  0.2894  0.5441 -0.7352
  778MOL0     C 7236   9.325   5.608   9.118  0.3961 -0.1206 -0.9944
  778MOL0     C 7237   9.464   5.657   9.062  0.1849  0.1077 -0.0686
  778MOL0     C 7238   9.589   5.628   9.152 -0.1342 -0.0120  0.4044
  778MOL0     C 7239   9.718   5.686   9.109 -0.3330  0.0825  0.2640
  778MOL0     C 7240   9.737   5.838   9.148 -0.7650  0.0504  0.8019
  778MOL0     C 7241   9.853   5.901   9.069 -0.5338 -0.7993  0.7605
  778MOL0     C 7242   9.932   6.009   9.155 -0.1770  0.1024  0.7540
  778MOL0     N 7243   9.861   6.136   9.170 -0.6350 -0.5736  0.4769
  778MOL0     C 7244   9.909   6.240   9.253 -0.1848  0.3467  0.7212
  778MOL0     C 7245   9.804   6.327   9.253  0.1159  0.0775 -0.3060
  778MOL0     C 7246   9.815   6.474   9.293 -0.0580 -0.1813 -0.3801
  778MOL0     C 7247   9.891   6.494   9.421  0.1604  0.4734  0.1590
  778MOL0     C 7248   9.936   6.640   9.447  0.2244  0.2788  1.1826
  778MOL0     C 7249   9.987   6.662   9.585 -0.4943 -0.9673  0.3268
  778MOL0     O 7250  10.081   6.547   9.616  1.0668 -0.1791  0.9931
  778MOL0     C 7251  10.110   6.530   9.751  0.0243 -0.6156  0.1328
  778MOL0     C 7252  10.021   6.534   9.857  0.2302 -0.1730  0.7559
  778MOL0     C 7253  10.058   6.525   9.994 -0.3256 -0.8800  0.5967
  778MOL0     C 7254   9.949   6.566  10.086 -0.3471 -1.1000 -0.2278
  778MOL0     C 7255  10.189   6.498  10.032 -0.7028  0.4251 -1.1370
  778MOL0     C 7256  10.243   6.498  10.172  0.2823  0.3393  0.1746
  778MOL0     O 7257  10.374   6.464  10.186 -0.2859 -0.0586  0.2967
  778MOL0     C 7258  10.429   6.465  10.315  0.1148 -0.0460 -0.1767
  778MOL0     C 7259  10.507   6.352  10.356  0.5976  0.7934  0.5343
  778MOL0     C 7260  10.549   6.326  10.484 -0.3170  0.5133 -0.7366
  778MOL0     C 7261  10.524   6.420  10.587  0.4743  0.1557  0.2179
  778MOL0     O 7262  10.555   6.379  10.717 -0.1456  0.3400  0.7845
  778MOL0     C 7263  10.573   6.475  10.821 -0.1294 -0.4876 -0.8068
  778MOL0     C 7264  10.703   6.553  10.806 -0.1701  0.2185 -0.0435
  778MOL0     C 7265  10.824   6.471  10.739  0.3441  0.3508 -1.1909
  778MOL0     C 7266  10.859   6.340  10.824 -0.0418 -0.3048 -0.0055
  778MOL0     C 7267  10.934   6.364  10.959  0.1799 -0.2368 -0.5897
  778MOL0     C 7268  11.012   6.243  10.997  0.7032 -0.5451  0.3683
  778MOL0     C 7269  11.084   6.250  11.133  0.4256 -0.5112  0.1640
  778MOL0     C 7270  11.195   6.348  11.144  0.2220 -0.5347 -0.5378
  778MOL0    Cl 7271  11.319   6.328  11.018  0.5048  0.0652  0.4203
  778MOL0     C 7272  10.448   6.528  10.547 -0.7984 -0.0369  0.2165
  778MOL0     C 7273  10.408   6.560  10.413  0.8783  0.0924 -0.6084
  778MOL0     O 7274  10.166   6.516  10.267  0.0615 -0.4991 -0.1397
  778MOL0     C 7275  10.281   6.472   9.929 -0.0253  0.1673 -0.6079
  778MOL0     C 7276  10.246   6.505   9.791  0.0385  1.2140 -0.0857
  778MOL0     N 7277   9.708   6.283   9.163  0.0940 -0.2728  0.5694
  778MOL0     N 7278   9.740   6.172   9.101 -0.0698 -0.2193 -0.9941
  778MOL0     C 7279   8.951   5.571   8.871 -0.2969  0.6073  0.0941
  778MOL0     C 7280   8.841   5.517   8.797  0.3384  0.7266 -0.6750
  778MOL0     C 7281   8.419   5.359   8.737  0.6445 -0.2489 -0.5057
  778MOL0     C 7282   8.447   5.234   8.677  0.1765  0.2134 -0.2934
  778MOL0     C 7283   8.350   5.145   8.630  0.3840 -0.7352 -0.3227
  778MOL0     C 7284   8.212   5.179   8.631  0.5478  1.2634 -0.5960
  778MOL0     O 7285   8.102   5.100   8.594 -0.0966 -0.6794 -0.1207
  778MOL0     C 7286   8.091   4.974   8.646 -0.2929  0.0775  0.2977
  778MOL0     C 7287   8.001   4.891   8.558 -0.2817  0.0006 -0.4541
  778MOL0     C 7288   7.851   4.936   8.563 -0.3469  0.1374 -0.3977
  778MOL0     C 7289   7.759   4.876   8.664 -1.1928 -0.5424 -0.5246
  778MOL0     C 7290   7.766   4.733   8.660  0.8280 -0.6172  0.2879
  778MOL0     C 7291   7.776   4.611   8.668  0.3500 -0.1685  1.2818
  778MOL0     C 7292   8.182   5.300   8.687  0.4525 -0.4239 -0.0714
  778MOL0     C 7293   8.279   5.389   8.731 -0.7905 -0.4678 -0.8908
  778MOL0     C 7294   8.217   5.517   8.797 -0.6535 -0.2257  0.2316
  778MOL0     H 7295   8.712   5.322   9.055  2.2007 -0.9827 -1.1894
  778MOL0     H 7296   8.925   5.386   9.149 -0.4665 -1.0827 -0.6878
  778MOL0     H 7297   9.172   5.710   8.983 -2.3020 -0.3185  0.2928
  778MOL0     H 7298   9.252   5.566   8.922 -2.8906 -0.3930 -1.5097
  778MOL0     H 7299   9.307   5.694   9.184 -0.9729 -1.7288  0.8595
  778MOL0     H 7300   9.326   5.515   9.176  1.5289 -0.4629 -1.5549
  778MOL0     H 7301   9.476   5.610   8.964  1.7967  1.2924 -0.4811
  778MOL0     H 7302   9.460   5.764   9.042  2.1775 -0.2720 -3.1139
  778MOL0     H 7303   9.575   5.654   9.258  1.8471 -0.6493  0.8611
  778MOL0     H 7304   9.604   5.520   9.157  1.2743  0.0344 -1.6982
  778MOL0     H 7305   9.740   5.690   9.002  2.3274  2.2388  0.8035
  778MOL0     H 7306   9.803   5.638   9.159  1.0633  3.2610  1.1712
  778MOL0     H 7307   9.644   5.892   9.127 -1.0799 -0.9910 -0.6578
  778MOL0     H 7308   9.761   5.844   9.254  1.7408 -1.8265  0.4518
  778MOL0     H 7309   9.820   5.931   8.970  2.3665  2.4133  0.5952
  778MOL0     H 7310   9.929   5.825   9.047  0.5102  0.4517 -0.0612
  778MOL0     H 7311   9.957   5.968   9.253 -1.4338 -1.3392  0.5048
  778MOL0     H 7312  10.022   6.045   9.105 -0.7472 -1.0683 -1.2857
  778MOL0     H 7313  10.005   6.248   9.301  0.1626 -0.0511  0.1086
  778MOL0     H 7314   9.712   6.509   9.290  0.4733  1.3707 -1.2749
  778MOL0     H 7315   9.872   6.527   9.217  0.3647  2.1832  1.4541
  778MOL0     H 7316   9.812   6.472   9.494  1.6490 -1.5046  1.2691
  778MOL0     H 7317   9.981   6.432   9.422 -0.1896 -0.1424  3.1951
  778MOL0     H 7318  10.011   6.666   9.371 -1.3433  2.3768  0.2544
  778MOL0     H 7319   9.850   6.703   9.426 -1.4162 -2.5861 -1.6809
  778MOL0     H 7320  10.046   6.754   9.594  1.6690 -2.4250  2.3593
  778MOL0     H 7321   9.903   6.659   9.654  1.0724 -1.1563  2.3075
  778MOL0     H 7322   9.916   6.558   9.843  0.4992  0.0460 -1.1651
  778MOL0     H 7323   9.910   6.482  10.145  1.7062 -2.1194 -0.2456
  778MOL0     H 7324   9.872   6.616  10.026  2.0158  1.4046 -1.4104
  778MOL0     H 7325   9.985   6.648  10.149 -0.7157 -1.0900 -0.0236
  778MOL0     H 7326  10.533   6.285  10.275 -1.1866  0.5467  0.1406
  778MOL0     H 7327  10.604   6.235  10.508 -1.7046 -0.3222 -0.6601
  778MOL0     H 7328  10.484   6.537  10.839 -0.0334 -0.5142 -0.2202
  778MOL0     H 7329  10.579   6.421  10.916  0.2257  3.2770  1.5053
  778MOL0     H 7330  10.683   6.642  10.745  0.3842  1.0832  1.0163
  778MOL0     H 7331  10.739   6.595  10.900  3.3555  1.7771 -1.8635
  778MOL0     H 7332  10.911   6.537  10.745  0.3598  0.3195  4.7744
  778MOL0     H 7333  10.780   6.441  10.644 -3.3966 -2.7740  1.2362
  778MOL0     H 7334  10.909   6.270  10.756 -0.8243 -1.8681  0.9574
  778MOL0     H 7335  10.772   6.281  10.855 -0.8122 -0.5642 -2.4093
  778MOL0     H 7336  11.007   6.444  10.950 -2.3244  2.3664  0.7374
  778MOL0     H 7337  10.856   6.393  11.030 -0.0342 -2.1311  0.0172
  778MOL0     H 7338  11.091   6.219  10.925  0.3153 -2.5127  0.5395
  778MOL0     H 7339  10.944   6.157  10.999  0.9001 -0.7032  0.3588
  778MOL0     H 7340  11.123   6.153  11.166 -0.1390 -0.6564  0.4224
  778MOL0     H 7341  11.012   6.281  11.209 -0.2700  2.2832 -1.5210
  778MOL0     H 7342  11.246   6.329  11.239  1.4949 -0.9116 -1.2744
  778MOL0     H 7343  11.169   6.454  11.134  1.8317 -0.0687 -0.2195
  778MOL0     H 7344  10.418   6.601  10.621 -2.5755  1.7719 -2.1375
  778MOL0     H 7345  10.345   6.644  10.386  1.0112 -0.3482 -2.4208
  778MOL0     H 7346  10.386   6.454   9.950  0.1188 -1.3482 -2.3470
  778MOL0     H 7347  10.325   6.521   9.718 -1.0111  0.7897 -1.3492
  778MOL0     H 7348   9.020   5.637   8.819 -0.4546 -0.4880 -1.6064
  778MOL0     H 7349   8.833   5.542   8.691 -1.1316  0.0079 -0.7654
  778MOL0     H 7350   8.542   5.183   8.688 -0.5234 -1.2634 -0.7871
  778MOL0     H 7351   8.372   5.048   8.586  2.4102  0.1522 -1.4403
  778MOL0     H 7352   8.182   4.915   8.658 -1.3367 -1.2593  2.3456
  778MOL0     H 7353   8.034   4.978   8.740  0.2144 -1.3392  0.6930
  778MOL0     H 7354   8.013   4.784   8.580 -0.2839  0.1094  0.1041
  778MOL0     H 7355   8.030   4.904   8.454 -1.5475 -3.3131 -1.3592
  778MOL0     H 7356   7.848   5.044   8.581 -2.0897 -0.1893  1.6893
  778MOL0     H 7357   7.818   4.908   8.463  2.7338  2.0749 -2.1146
  778MOL0     H 7358   7.659   4.911   8.638 -0.8186  1.8398  0.9149
  778MOL0     H 7359   7.778   4.910   8.766  0.2500 -3.2375  0.2035
  778MOL0     H 7360   7.770   4.504   8.671 -1.1394 -0.1038  1.9581
  778MOL0     H 7361   8.080   5.320   8.718  0.8220 -0.3001  1.1123
  778MOL0     H 7362   8.263   5.520   8.896  1.4738  0.7413 -0.7354
  778MOL0     H 7363   8.242   5.606   8.738 -2.3241 -0.2213 -0.5417
  778MOL0     H 7364   8.108   5.514   8.788 -0.6159 -0.6691 -0.1342
  779MOL0     O 7365  11.096   9.879   4.993  0.1256  0.0413 -0.5023
  779MOL0     C 7366  11.073  10.002   4.970  0.3994  0.1506 -0.3965
  779MOL0     O 7367  11.158  10.090   4.913  0.3693 -0.1877  0.0282
  779MOL0     C 7368  11.278  10.049   4.855 -0.0102 -0.1592  0.2211
  779MOL0     C 7369  11.362  10.157   4.827  0.3592  0.2598  0.0610
  779MOL0     C 7370  11.487  10.143   4.772  0.5648 -0.3492 -0.6646
  779MOL0     C 7371  11.515  10.018   4.712 -1.1251 -0.6769 -0.2308
  779MOL0     O 7372  11.632   9.985   4.645 -0.1957  0.0751 -0.0212
  779MOL0     C 7373  11.762  10.021   4.696  0.2305 -0.2996  0.1174
  779MOL0     C 7374  11.864   9.918   4.649 -0.7335 -0.0527  0.3468
  779MOL0     C 7375  11.987   9.916   4.734 -0.1833 -0.2819 -0.2518
  779MOL0     C 7376  12.093   9.818   4.682  0.4239  0.4189 -0.6467
  779MOL0     C 7377  12.225   9.821   4.759  0.4479  0.3209  0.1642
  779MOL0     C 7378  12.321   9.709   4.711 -0.9370 -0.6057  0.4437
  779MOL0     C 7379  12.470   9.741   4.768  0.2264 -0.4394  0.2108
  779MOL0     C 7380  12.472   9.727   4.923 -0.5142 -0.8718 -0.5691
  779MOL0     N 7381  12.610   9.764   4.963  0.1812  0.4120 -0.6470
  779MOL0     C 7382  12.651   9.885   5.006 -0.1152  0.1369 -0.3169
  779MOL0     C 7383  12.785   9.876   5.027 -0.1396  0.3096  0.7760
  779MOL0     C 7384  12.874   9.983   5.080  0.1792 -0.3549  0.0495
  779MOL0     C 7385  13.018   9.962   5.035  0.0206  0.0435 -0.0305
  779MOL0     C 7386  13.108  10.071   5.087  0.0900  0.0114 -1.7352
  779MOL0     C 7387  13.149  10.176   4.992 -0.5920  0.3192 -0.0892
  779MOL0     O 7388  13.155  10.130   4.861  0.5398 -0.5714  0.0653
  779MOL0     C 7389  13.285  10.101   4.812  0.4802 -0.0024  0.1178
  779MOL0     C 7390  13.402  10.076   4.888  0.6607 -0.5615  0.2886
  779MOL0     C 7391  13.524  10.048   4.826 -0.1492  0.2679 -0.0695
  779MOL0     C 7392  13.653  10.033   4.907  0.9156  0.2395 -0.0224
  779MOL0     C 7393  13.532  10.045   4.683 -0.7159  0.2631 -0.7758
  779MOL0     C 7394  13.656  10.016   4.601 -1.0505 -0.7631  0.0427
  779MOL0     O 7395  13.635  10.010   4.462  0.0954 -0.4577 -0.5063
  779MOL0     C 7396  13.735   9.965   4.378 -0.5306 -0.1156 -0.3399
  779MOL0     C 7397  13.782   9.829   4.344  0.1660  0.3034  0.2516
  779MOL0     C 7398  13.880   9.806   4.248 -0.1636  0.1124 -0.1560
  779MOL0     C 7399  13.943   9.911   4.184 -0.0013 -0.0137  0.0731
  779MOL0     O 7400  14.052   9.900   4.103 -0.1289  0.3286  0.4105
  779MOL0     C 7401  14.014   9.859   3.972  0.0002 -0.2295  1.0776
  779MOL0     C 7402  14.141   9.810   3.903  1.6502  0.2164 -0.5482
  779MOL0     C 7403  14.239   9.915   3.867 -0.0377  0.2652  0.1468
  779MOL0     C 7404  14.350   9.846   3.783  0.0326  0.1948  0.2663
  779MOL0     C 7405  14.439   9.945   3.718  0.5973 -1.7954 -0.2169
  779MOL0     C 7406  14.388  10.042   3.607 -0.8639 -0.2149 -0.0514
  779MOL0     C 7407  14.492  10.145   3.564 -0.9598  0.0640 -0.0430
  779MOL0     C 7408  14.453  10.200   3.423  0.0462 -0.1319 -0.0723
  779MOL0    Cl 7409  14.568  10.325   3.378 -0.0949  0.0659 -0.1204
  779MOL0     C 7410  13.900  10.038   4.213  0.5094  0.3709  0.6219
  779MOL0     C 7411  13.801  10.063   4.305  0.6260 -0.5081 -0.6118
  779MOL0     O 7412  13.762   9.988   4.658  0.7686  0.4437 -0.6654
  779MOL0     C 7413  13.416  10.067   4.612  0.2820  0.4291 -1.0258
  779MOL0     C 7414  13.297  10.099   4.673 -1.1309  0.1223 -0.6867
  779MOL0     N 7415  12.825   9.745   4.997 -0.6174  0.6726 -0.2233
  779MOL0     N 7416  12.719   9.676   4.965  0.3039 -0.3154  0.0649
  779MOL0     C 7417  11.425   9.915   4.729  0.3514  0.2457 -0.1093
  779MOL0     C 7418  11.307   9.925   4.803  0.3670 -0.9702 -0.8535
  779MOL0     C 7419  10.943  10.053   5.027 -0.2052 -0.1101 -0.4497
  779MOL0     C 7420  10.918  10.026   5.160 -0.8073 -0.3523  0.6690
  779MOL0     C 7421  10.795  10.063   5.218 -0.7012 -0.4842  0.7909
  779MOL0     C 7422  10.702  10.128   5.134  1.6314  0.6342 -0.5354
  779MOL0     O 7423  10.574  10.170   5.179 -0.3935  0.0735  0.1698
  779MOL0     C 7424  10.545  10.173   5.316 -0.1403 -1.4876 -0.3498
  779MOL0     C 7425  10.398  10.210   5.330  0.2677  0.0549  0.7057
  779MOL0     C 7426  10.370  10.360   5.293  0.6451 -0.6362  0.8397
  779MOL0     C 7427  10.357  10.457   5.412 -0.8947  0.0289 -1.1760
  779MOL0     C 7428  10.468  10.440   5.507 -0.4316  0.0106  0.3083
  779MOL0     C 7429  10.561  10.406   5.582 -0.8008 -0.2690 -0.3923
  779MOL0     C 7430  10.723  10.151   5.001 -0.0002  1.3536 -0.6340
  779MOL0     C 7431  10.844  10.110   4.949  0.0537 -0.4163  0.3337
  779MOL0     C 7432  10.857  10.142   4.804  0.0702  0.8111  0.6911
  779MOL0     H 7433  11.323  10.251   4.864  0.0021 -0.3266  1.2131
  779MOL0     H 7434  11.547  10.232   4.758  2.6158 -1.8030 -1.5505
  779MOL0     H 7435  11.761  10.027   4.805 -1.1927  0.4388  0.0797
  779MOL0     H 7436  11.801  10.120   4.672  1.9223 -1.1612 -0.8769
  779MOL0     H 7437  11.820   9.818   4.643  0.2422 -0.3992 -2.3786
  779MOL0     H 7438  11.888   9.944   4.545  0.2200 -3.2729 -0.3753
  779MOL0     H 7439  12.038  10.012   4.727 -0.8801 -0.0333 -3.5509
  779MOL0     H 7440  11.965   9.889   4.838  0.2371 -0.9779 -0.3338
  779MOL0     H 7441  12.053   9.717   4.680  1.5494 -0.0396 -3.1784
  779MOL0     H 7442  12.123   9.853   4.583 -0.9757 -0.6944 -1.4854
  779MOL0     H 7443  12.206   9.816   4.866 -0.3984 -2.4582 -0.0487
  779MOL0     H 7444  12.274   9.918   4.744  0.2348  0.2946 -0.7857
  779MOL0     H 7445  12.290   9.611   4.750  0.3372 -0.9792  0.5787
  779MOL0     H 7446  12.325   9.695   4.603 -1.8229 -3.4549  0.6724
  779MOL0     H 7447  12.501   9.838   4.729  0.0442 -0.8161 -0.9219
  779MOL0     H 7448  12.540   9.665   4.731 -0.8899 -2.8070  2.6612
  779MOL0     H 7449  12.402   9.801   4.963  1.5568  0.3032  1.1120
  779MOL0     H 7450  12.455   9.624   4.956 -2.6115 -0.2747  0.3767
  779MOL0     H 7451  12.588   9.971   5.020 -1.1938 -0.2059 -2.5419
  779MOL0     H 7452  12.870   9.982   5.190 -1.2786  0.8306  0.0357
  779MOL0     H 7453  12.836  10.081   5.051  0.2001 -0.7492 -1.4029
  779MOL0     H 7454  13.056   9.872   5.084  1.8793  1.3229  1.0518
  779MOL0     H 7455  13.032   9.933   4.931 -0.6965 -1.3660  0.2449
  779MOL0     H 7456  13.078  10.111   5.185  1.5003  0.3722 -1.4234
  779MOL0     H 7457  13.201  10.019   5.107 -0.3388 -1.1143 -2.5812
  779MOL0     H 7458  13.090  10.267   4.977  0.4198  0.6448 -2.4493
  779MOL0     H 7459  13.245  10.216   5.025  0.9733 -3.5161  0.5285
  779MOL0     H 7460  13.393  10.073   4.997  3.8648  3.8011  0.9670
  779MOL0     H 7461  13.698   9.933   4.901  2.7156  1.0571 -1.0138
  779MOL0     H 7462  13.638  10.071   5.008 -0.3144 -1.6598  0.5582
  779MOL0     H 7463  13.738  10.087   4.863  1.1397 -1.1371 -1.3781
  779MOL0     H 7464  13.733   9.747   4.395  0.7829  0.3246  0.8901
  779MOL0     H 7465  13.928   9.710   4.229  0.3739  0.3088  0.2014
  779MOL0     H 7466  13.936   9.783   3.973 -1.3635  1.0936  0.4601
  779MOL0     H 7467  13.971   9.941   3.912 -0.6794 -0.8634  0.6875
  779MOL0     H 7468  14.191   9.735   3.964 -0.6429 -0.0951  1.0614
  779MOL0     H 7469  14.103   9.772   3.808  2.1612  2.0205 -1.5268
  779MOL0     H 7470  14.279   9.967   3.954 -1.7152  1.8017  0.0558
  779MOL0     H 7471  14.182   9.984   3.803 -0.3235  0.6768  0.8415
  779MOL0     H 7472  14.295   9.790   3.707  0.2172  0.3721 -0.0010
  779MOL0     H 7473  14.408   9.778   3.845  0.5218 -1.6608 -2.0613
  779MOL0     H 7474  14.475  10.004   3.803 -1.7336  1.1070 -1.0675
  779MOL0     H 7475  14.526   9.898   3.672  1.9036 -1.0311  1.3727
  779MOL0     H 7476  14.303  10.101   3.644 -0.3123  1.8183 -1.8339
  779MOL0     H 7477  14.365   9.979   3.521  3.5511 -1.8413 -0.2794
  779MOL0     H 7478  14.586  10.091   3.547  1.0628  2.6811  1.9752
  779MOL0     H 7479  14.516  10.231   3.627  0.1674 -0.8760  0.8770
  779MOL0     H 7480  14.354  10.246   3.424  0.6567  1.5889  4.3957
  779MOL0     H 7481  14.451  10.121   3.348  2.5379  1.2410 -1.7283
  779MOL0     H 7482  13.951  10.113   4.152  1.0274 -1.7077 -1.6352
  779MOL0     H 7483  13.764  10.163   4.324  0.0229 -1.1228  1.7594
  779MOL0     H 7484  13.408  10.049   4.505  0.9507  0.4754 -1.0867
  779MOL0     H 7485  13.202  10.102   4.620 -2.7676 -1.7741  1.8664
  779MOL0     H 7486  11.451   9.816   4.693 -1.8007 -1.1978  2.0632
  779MOL0     H 7487  11.236   9.845   4.820 -1.9480  1.0902 -0.3691
  779MOL0     H 7488  10.996   9.986   5.223  1.6440  0.0307 -1.9310
  779MOL0     H 7489  10.787  10.055   5.326 -1.1073  0.4404  0.8394
  779MOL0     H 7490  10.563  10.076   5.363  0.9970 -0.8472  0.5780
  779MOL0     H 7491  10.610  10.242   5.370 -0.3676 -1.9536  0.5332
  779MOL0     H 7492  10.364  10.195   5.433 -1.1506  0.0477  0.2603
  779MOL0     H 7493  10.330  10.146   5.272 -1.1345 -0.5270  2.8392
  779MOL0     H 7494  10.452  10.398   5.231 -0.1612 -1.1068 -0.5693
  779MOL0     H 7495  10.279  10.381   5.237  0.5797  1.3611  1.6198
  779MOL0     H 7496  10.273  10.451   5.481  0.3096  1.5040  0.5062
  779MOL0     H 7497  10.344  10.559   5.376  0.1355 -0.0964 -1.9758
  779MOL0     H 7498  10.646  10.391   5.646 -0.5965  1.7610 -0.1084
  779MOL0     H 7499  10.650  10.207   4.943  0.0961 -0.6730 -2.8693
  779MOL0     H 7500  10.764  10.159   4.748 -1.0215 -1.9077  1.4924
  779MOL0     H 7501  10.914  10.233   4.784 -0.1674  0.8379  0.0975
  779MOL0     H 7502  10.916  10.062   4.760  0.7666  1.2068  0.9015
  780MOL0     O 7503   6.618   2.983   6.192  0.4485 -0.2856 -0.3327
  780MOL0     C 7504   6.588   3.102   6.175 -0.3368 -0.2157 -0.2762
  780MOL0     O 7505   6.615   3.173   6.060  0.7657  0.0660  0.2930
  780MOL0     C 7506   6.682   3.116   5.952 -0.0810  0.5358  0.1239
  780MOL0     C 7507   6.614   3.037   5.866  0.1955  0.2197  0.6456
  780MOL0     C 7508   6.675   2.983   5.747  1.4501  0.2153 -0.1556
  780MOL0     C 7509   6.814   2.997   5.726 -0.1830 -0.5784 -0.1816
  780MOL0     O 7510   6.879   2.950   5.610  0.0184  0.2100 -0.1395
  780MOL0     C 7511   6.834   2.831   5.560 -0.4934 -0.2646 -0.3446
  780MOL0     C 7512   6.950   2.804   5.456  0.2291 -0.0756 -0.3817
  780MOL0     C 7513   6.962   2.898   5.332  0.7680  0.6192  1.0403
  780MOL0     C 7514   6.819   2.946   5.283  0.1389  0.7128  0.3868
  780MOL0     C 7515   6.819   3.010   5.147 -0.6354 -0.4756  0.5862
  780MOL0     C 7516   6.690   3.077   5.110 -0.8398 -0.1425 -0.1916
  780MOL0     C 7517   6.720   3.120   4.965  0.6372 -0.3179  0.5916
  780MOL0     C 7518   6.592   3.152   4.883 -0.3936  0.8429  0.1826
  780MOL0     N 7519   6.621   3.244   4.771  0.3597  0.3167  0.5292
  780MOL0     C 7520   6.633   3.384   4.769  0.3215 -0.4245 -0.3034
  780MOL0     C 7521   6.640   3.409   4.634 -0.2860  0.1208 -0.3260
  780MOL0     C 7522   6.652   3.541   4.562  0.4926 -0.4854  0.1928
  780MOL0     C 7523   6.523   3.620   4.571  0.1983 -0.0459  0.1471
  780MOL0     C 7524   6.396   3.535   4.533 -0.3547 -0.2193  0.3479
  780MOL0     C 7525   6.406   3.463   4.397  0.4922  0.5639  0.8645
  780MOL0     O 7526   6.283   3.413   4.345 -0.8887 -0.6181 -0.4126
  780MOL0     C 7527   6.236   3.297   4.393 -0.3790  0.0323 -0.3685
  780MOL0     C 7528   6.317   3.194   4.449  0.6493  0.2207 -0.0176
  780MOL0     C 7529   6.263   3.072   4.488  0.3417  0.4768 -0.3943
  780MOL0     C 7530   6.374   2.983   4.541  0.2011 -0.2093 -0.4984
  780MOL0     C 7531   6.123   3.060   4.498  0.7012 -0.3092  0.0600
  780MOL0     C 7532   6.054   2.954   4.572 -0.8916  0.6861 -0.4317
  780MOL0     O 7533   5.912   2.952   4.564  0.1127 -0.8383  0.1172
  780MOL0     C 7534   5.843   2.877   4.651 -0.9838  1.0059  0.3414
  780MOL0     C 7535   5.775   2.765   4.602 -1.2044  0.3098  0.0013
  780MOL0     C 7536   5.718   2.664   4.687  0.4897  0.1743  0.3780
  780MOL0     C 7537   5.715   2.687   4.821 -0.5211  0.0599 -0.2364
  780MOL0     O 7538   5.648   2.589   4.893 -0.4740  0.5170 -0.1863
  780MOL0     C 7539   5.651   2.603   5.040 -0.8628 -0.5560 -0.5166
  780MOL0     C 7540   5.558   2.509   5.119 -0.3703 -1.3292  0.0841
  780MOL0     C 7541   5.403   2.520   5.071  0.2008 -0.4744 -0.2926
  780MOL0     C 7542   5.358   2.656   5.127 -0.3914  0.3683  0.5785
  780MOL0     C 7543   5.221   2.680   5.098  0.1121 -0.5216 -0.0763
  780MOL0     C 7544   5.186   2.828   5.136 -0.7917 -0.2425 -0.4505
  780MOL0     C 7545   5.060   2.872   5.061  0.9001 -0.1975 -0.6871
  780MOL0     C 7546   4.929   2.808   5.106 -0.4240 -0.0839 -0.1621
  780MOL0    Cl 7547   4.884   2.874   5.264 -0.0489  0.0290 -0.4675
  780MOL0     C 7548   5.784   2.801   4.873  0.6242  0.4857 -0.3892
  780MOL0     C 7549   5.853   2.892   4.792  0.3253 -0.0511  0.0140
  780MOL0     O 7550   6.120   2.877   4.644 -0.4460 -0.1673  0.0487
  780MOL0     C 7551   6.040   3.163   4.430  0.2675 -0.8337  0.3110
  780MOL0     C 7552   6.098   3.285   4.376  0.2972 -0.0578 -0.0478
  780MOL0     N 7553   6.642   3.297   4.559  0.3415 -0.5200 -0.7942
  780MOL0     N 7554   6.639   3.200   4.641 -0.8938  0.1398  0.4658
  780MOL0     C 7555   6.881   3.087   5.812  0.6242  0.0643 -0.8816
  780MOL0     C 7556   6.818   3.144   5.925  0.9930 -0.0076  0.3386
  780MOL0     C 7557   6.511   3.163   6.288 -0.0046  0.6824  0.7016
  780MOL0     C 7558   6.531   3.109   6.414 -0.5322 -0.3330 -0.0616
  780MOL0     C 7559   6.467   3.176   6.523 -0.2939  0.2501  0.0638
  780MOL0     C 7560   6.393   3.286   6.506 -0.3380 -0.4551  0.2238
  780MOL0     O 7561   6.332   3.355   6.605  0.2226 -0.3325 -0.6728
  780MOL0     C 7562   6.297   3.282   6.733 -0.5133  0.0461  0.3424
  780MOL0     C 7563   6.194   3.361   6.820  0.7972  1.3419 -0.5233
  780MOL0     C 7564   6.270   3.472   6.893  0.3860  0.0841  0.0159
  780MOL0     C 7565   6.334   3.427   7.025  0.1432  0.1663  0.2467
  780MOL0     C 7566   6.236   3.407   7.139 -0.7510  0.3116  0.2142
  780MOL0     C 7567   6.156   3.402   7.226  0.0141  0.1417 -0.1151
  780MOL0     C 7568   6.385   3.344   6.377  0.9355 -0.3095 -0.6547
  780MOL0     C 7569   6.433   3.272   6.263 -0.3620 -0.6235 -0.4802
  780MOL0     C 7570   6.417   3.349   6.134  0.0204  0.1787 -0.7357
  780MOL0     H 7571   6.509   3.022   5.889 -0.6289  2.2221 -1.4502
  780MOL0     H 7572   6.613   2.920   5.684 -0.5240  0.4526  1.4255
  780MOL0     H 7573   6.736   2.857   5.521 -1.3590  0.4548  2.1215
  780MOL0     H 7574   6.842   2.749   5.633  1.1788 -1.7714 -2.0748
  780MOL0     H 7575   7.040   2.816   5.517  0.1895  2.4421 -0.6983
  780MOL0     H 7576   6.938   2.704   5.415  1.6815 -0.2423 -0.4529
  780MOL0     H 7577   7.008   2.994   5.355 -0.3415  1.9721 -1.8858
  780MOL0     H 7578   7.021   2.848   5.254  0.3327  1.8541 -0.1290
  780MOL0     H 7579   6.745   2.866   5.297  0.1737  0.5889 -0.1177
  780MOL0     H 7580   6.784   3.023   5.353  1.4269  0.2365  1.5994
  780MOL0     H 7581   6.834   2.935   5.069 -2.3943 -1.4403  1.1315
  780MOL0     H 7582   6.901   3.082   5.158 -1.7242  0.4230  4.0761
  780MOL0     H 7583   6.604   3.010   5.110 -1.1770  0.2855 -0.3115
  780MOL0     H 7584   6.688   3.164   5.177  2.6944 -1.3260  1.7522
  780MOL0     H 7585   6.786   3.055   4.906 -0.4887 -1.5450  0.6346
  780MOL0     H 7586   6.781   3.209   4.981 -0.3311  0.3333  0.7293
  780MOL0     H 7587   6.556   3.056   4.844  1.7276  0.6001 -1.3716
  780MOL0     H 7588   6.513   3.191   4.948 -0.3314  0.3023  0.5948
  780MOL0     H 7589   6.630   3.452   4.854  2.6021 -1.4396  0.6862
  780MOL0     H 7590   6.684   3.529   4.458  3.8206 -1.2401  1.1802
  780MOL0     H 7591   6.727   3.599   4.619 -1.7999 -0.0696  3.0349
  780MOL0     H 7592   6.516   3.660   4.673 -1.1627  0.8438 -0.2788
  780MOL0     H 7593   6.532   3.709   4.508  0.7772 -0.0866  0.1645
  780MOL0     H 7594   6.360   3.474   4.616  1.4068  0.1279  1.4212
  780MOL0     H 7595   6.319   3.613   4.531  0.6818  0.8861  1.5350
  780MOL0     H 7596   6.441   3.540   4.328  1.1597 -0.1396  0.4061
  780MOL0     H 7597   6.478   3.381   4.396 -2.8986 -2.7943 -2.0424
  780MOL0     H 7598   6.425   3.203   4.442  0.7408 -1.7415 -3.3315
  780MOL0     H 7599   6.411   3.019   4.637  0.4745 -2.4472  0.2930
  780MOL0     H 7600   6.455   2.978   4.468  1.0658  1.9770  0.2376
  780MOL0     H 7601   6.336   2.881   4.547  0.0382 -0.1694 -0.8118
  780MOL0     H 7602   5.791   2.753   4.495  2.3270  2.4656  0.1180
  780MOL0     H 7603   5.663   2.581   4.644  1.7673 -0.9978  0.9013
  780MOL0     H 7604   5.750   2.605   5.086 -1.2787  0.8441  0.4086
  780MOL0     H 7605   5.615   2.704   5.063  1.1313 -0.1881  1.2496
  780MOL0     H 7606   5.600   2.409   5.103 -2.4390 -2.2493  0.0795
  780MOL0     H 7607   5.577   2.527   5.225  1.0940 -1.6364 -0.1043
  780MOL0     H 7608   5.340   2.440   5.111 -2.2545  0.7621 -1.4493
  780MOL0     H 7609   5.412   2.524   4.962  4.2588 -0.3922 -0.1065
  780MOL0     H 7610   5.421   2.738   5.092  0.0548  0.3066  1.2262
  780MOL0     H 7611   5.363   2.660   5.236 -1.1743 -0.1728  0.6478
  780MOL0     H 7612   5.210   2.663   4.991 -1.2481  2.8763 -0.5981
  780MOL0     H 7613   5.155   2.616   5.159 -1.3945  0.3393 -0.7396
  780MOL0     H 7614   5.270   2.886   5.097  1.2659 -1.1307  2.4114
  780MOL0     H 7615   5.194   2.843   5.244 -0.3552 -3.2515  0.0033
  780MOL0     H 7616   5.071   2.849   4.955 -1.8459 -0.3421 -0.9965
  780MOL0     H 7617   5.047   2.980   5.070  2.2258 -0.0406 -0.3750
  780MOL0     H 7618   4.941   2.700   5.117  0.0693 -0.1595 -1.3240
  780MOL0     H 7619   4.847   2.825   5.035  1.1679 -1.3064 -2.4130
  780MOL0     H 7620   5.786   2.825   4.979  0.1999  0.7500 -0.4400
  780MOL0     H 7621   5.901   2.979   4.836  0.3907 -0.3188  0.4821
  780MOL0     H 7622   5.934   3.140   4.426 -0.1204  0.4551  2.1398
  780MOL0     H 7623   6.040   3.367   4.335  0.3284  0.2032  0.4207
  780MOL0     H 7624   6.986   3.109   5.798  0.8083  0.4841  0.8885
  780MOL0     H 7625   6.878   3.212   5.985 -0.7683  0.6545  1.4542
  780MOL0     H 7626   6.600   3.025   6.417  2.8079  2.0798 -2.2558
  780MOL0     H 7627   6.474   3.136   6.624  3.0334 -0.4595 -0.3144
  780MOL0     H 7628   6.259   3.184   6.703  3.4175 -2.0088  1.3697
  780MOL0     H 7629   6.383   3.254   6.795 -0.4211  1.1846  0.7467
  780MOL0     H 7630   6.152   3.294   6.895  0.9040  1.6667 -0.1734
  780MOL0     H 7631   6.112   3.411   6.767 -0.5189  1.1165  1.2248
  780MOL0     H 7632   6.353   3.507   6.831  0.6574  1.4524  1.1053
  780MOL0     H 7633   6.212   3.565   6.900  0.9362  0.3924  0.5484
  780MOL0     H 7634   6.393   3.512   7.061 -1.0292  1.8926 -1.6786
  780MOL0     H 7635   6.394   3.336   7.017 -5.3411 -3.9701  0.0458
  780MOL0     H 7636   6.073   3.396   7.294 -0.0993  1.1114 -0.1474
  780MOL0     H 7637   6.331   3.438   6.371 -0.6903 -0.8673  2.6747
  780MOL0     H 7638   6.343   3.429   6.140 -0.4056 -0.2538 -0.1076
  780MOL0     H 7639   6.517   3.389   6.115  0.1573  0.8705  1.2455
  780MOL0     H 7640   6.389   3.277   6.056 -1.4326 -2.2858  1.8500
  781MOL0     O 7641   7.297  10.719   1.914  0.0978 -0.3710 -0.1130
  781MOL0     C 7642   7.330  10.841   1.899 -0.0932 -0.4916 -0.5113
  781MOL0     O 7643   7.251  10.946   1.920  0.0175 -0.3144  0.3118
  781MOL0     C 7644   7.146  10.922   2.012  0.1317 -0.2277 -0.2805
  781MOL0     C 7645   7.017  10.868   1.981 -1.1590 -0.0315  0.1365
  781MOL0     C 7646   6.910  10.859   2.079 -0.0568  0.3049  0.2618
  781MOL0     C 7647   6.940  10.906   2.206  0.2996  1.2679 -0.3908
  781MOL0     O 7648   6.841  10.903   2.307 -0.1308 -0.7363  0.0931
  781MOL0     C 7649   6.720  10.958   2.260  0.9524  0.2178 -0.3999
  781MOL0     C 7650   6.612  11.006   2.364  0.2210 -0.1329 -1.1007
  781MOL0     C 7651   6.682  11.071   2.488 -0.7421  0.9460 -0.1502
  781MOL0     C 7652   6.581  11.122   2.589  0.9000 -0.3567 -0.7590
  781MOL0     C 7653   6.650  11.225   2.680  0.4451 -0.4223 -0.3900
  781MOL0     C 7654   6.557  11.307   2.759  0.1721  0.1501 -0.2968
  781MOL0     C 7655   6.628  11.413   2.851 -0.0603  0.4415  0.2851
  781MOL0     C 7656   6.527  11.483   2.943  0.5212  0.3012 -0.0716
  781MOL0     N 7657   6.578  11.580   3.042 -1.1759  0.0774  0.0291
  781MOL0     C 7658   6.561  11.578   3.178  0.1158  1.1875 -0.2958
  781MOL0     C 7659   6.636  11.671   3.236 -0.8366 -0.5761  0.5571
  781MOL0     C 7660   6.636  11.698   3.383 -0.2265 -0.0623 -0.2149
  781MOL0     C 7661   6.511  11.773   3.438 -0.1040 -0.2800  1.1696
  781MOL0     C 7662   6.453  11.691   3.554  0.1327 -0.1424  0.4077
  781MOL0     C 7663   6.336  11.757   3.628  0.0258  0.4672 -0.5512
  781MOL0     O 7664   6.280  11.656   3.719 -0.2466 -0.2590 -0.6658
  781MOL0     C 7665   6.148  11.630   3.714  0.4022 -0.0682  0.1298
  781MOL0     C 7666   6.055  11.650   3.619  0.2073 -0.8744  0.1891
  781MOL0     C 7667   5.919  11.608   3.630 -0.4150 -0.8284  0.1882
  781MOL0     C 7668   5.830  11.655   3.519 -0.1599 -0.3108  0.7687
  781MOL0     C 7669   5.872  11.544   3.742  0.1829  0.5217 -0.5416
  781MOL0     C 7670   5.726  11.524   3.778  0.1103  0.0391  0.1178
  781MOL0     O 7671   5.707  11.430   3.873 -0.0388 -0.4540 -0.4677
  781MOL0     C 7672   5.579  11.419   3.927 -0.4458 -1.0383 -0.2948
  781MOL0     C 7673   5.466  11.398   3.846 -0.6840  0.0834  0.8451
  781MOL0     C 7674   5.348  11.366   3.908  0.0706  0.6673  0.2501
  781MOL0     C 7675   5.339  11.328   4.044 -0.1285 -0.0003  0.0191
  781MOL0     O 7676   5.223  11.284   4.104 -0.0097 -0.6965  0.2522
  781MOL0     C 7677   5.098  11.292   4.032  1.1332 -0.3107 -0.3269
  781MOL0     C 7678   5.020  11.426   4.031 -0.3056 -0.2297 -0.0843
  781MOL0     C 7679   4.916  11.444   3.917 -0.6804 -0.5455  0.7096
  781MOL0     C 7680   4.792  11.535   3.953 -0.4396  0.0360  0.0151
  781MOL0     C 7681   4.831  11.680   3.978 -0.6173  0.2857 -0.3651
  781MOL0     C 7682   4.718  11.781   3.989  1.0606  0.6960 -0.1945
  781MOL0     C 7683   4.767  11.924   3.991 -0.3025  1.2777 -0.2355
  781MOL0     C 7684   4.679  12.019   4.071 -1.3272 -0.7091 -0.5229
  781MOL0    Cl 7685   4.763  12.176   4.038  0.5113  0.1198 -0.4719
  781MOL0     C 7686   5.459  11.342   4.122  0.1025 -0.3515 -0.4066
  781MOL0     C 7687   5.574  11.394   4.064  0.2793  0.3357 -0.0289
  781MOL0     O 7688   5.642  11.612   3.742  0.3064  0.2910  0.1012
  781MOL0     C 7689   5.974  11.504   3.834  0.4298  0.1775 -0.0854
  781MOL0     C 7690   6.104  11.541   3.826 -0.0728 -0.5881  0.3142
  781MOL0     N 7691   6.698  11.744   3.126 -0.1206 -1.0551  0.1435
  781MOL0     N 7692   6.658  11.685   3.013  0.3577 -0.0666 -0.3798
  781MOL0     C 7693   7.066  10.957   2.236 -0.4034 -0.1163  0.7229
  781MOL0     C 7694   7.170  10.963   2.142  0.5378  0.9056  0.6405
  781MOL0     C 7695   7.475  10.877   1.861 -0.4867  0.9971  0.5774
  781MOL0     C 7696   7.565  10.764   1.844  0.2618  0.5836 -0.2065
  781MOL0     C 7697   7.693  10.775   1.793 -0.7035 -0.9039 -0.1151
  781MOL0     C 7698   7.738  10.897   1.757  0.6626 -0.4369  0.3112
  781MOL0     O 7699   7.851  10.893   1.676  1.5955 -0.3810 -0.1486
  781MOL0     C 7700   7.919  11.012   1.641  1.5814  0.0108 -0.4172
  781MOL0     C 7701   7.987  11.073   1.765 -0.4365 -0.0006  0.4816
  781MOL0     C 7702   8.075  11.185   1.712  0.0484 -0.0167 -0.3373
  781MOL0     C 7703   8.019  11.292   1.614 -0.4568  0.0635  0.3822
  781MOL0     C 7704   8.118  11.399   1.586  0.3208  0.3683  0.4282
  781MOL0     C 7705   8.195  11.482   1.540 -0.5755 -0.2149 -0.0470
  781MOL0     C 7706   7.665  11.017   1.794 -0.1952  0.1207 -0.1818
  781MOL0     C 7707   7.530  11.006   1.837  0.2878 -0.9105  0.5156
  781MOL0     C 7708   7.458  11.141   1.852  0.0463 -0.0640  0.4394
  781MOL0     H 7709   7.006  10.841   1.877  0.3755 -1.6306  0.3418
  781MOL0     H 7710   6.812  10.816   2.061  1.4949 -3.4304 -0.1552
  781MOL0     H 7711   6.661  10.888   2.199  1.9028 -0.8320 -0.1580
  781MOL0     H 7712   6.750  11.043   2.199  0.7297  0.0249 -0.7899
  781MOL0     H 7713   6.545  11.081   2.321  1.5489  1.4843 -0.4555
  781MOL0     H 7714   6.554  10.915   2.386  0.5040  0.0185  0.3871
  781MOL0     H 7715   6.755  11.006   2.538 -1.8636 -1.7149 -1.7434
  781MOL0     H 7716   6.749  11.152   2.457  0.4530  0.6138  1.4245
  781MOL0     H 7717   6.492  11.164   2.542  0.1784  0.5414  1.2933
  781MOL0     H 7718   6.545  11.040   2.652  0.3740 -0.4562 -1.1856
  781MOL0     H 7719   6.708  11.294   2.620  2.6881 -1.8574  0.0068
  781MOL0     H 7720   6.720  11.163   2.738 -1.6426 -1.9564  0.6699
  781MOL0     H 7721   6.497  11.369   2.691 -1.0149 -0.2704  0.3272
  781MOL0     H 7722   6.494  11.242   2.821 -0.9160 -1.3656 -2.8186
  781MOL0     H 7723   6.697  11.482   2.801  1.9586 -0.6885  1.3454
  781MOL0     H 7724   6.695  11.357   2.917  2.1124  1.8054 -0.6527
  781MOL0     H 7725   6.464  11.544   2.878 -2.9240 -1.4829  1.3322
  781MOL0     H 7726   6.449  11.415   2.979 -0.9427  0.1391 -3.1985
  781MOL0     H 7727   6.501  11.504   3.230  3.8494 -1.3376  0.7557
  781MOL0     H 7728   6.722  11.747   3.430 -1.5908  0.8501  1.4475
  781MOL0     H 7729   6.639  11.599   3.429  0.2952 -1.2256 -2.5872
  781MOL0     H 7730   6.546  11.871   3.473 -1.4984  0.0998  1.5811
  781MOL0     H 7731   6.436  11.780   3.359 -0.1416  2.3330  1.3480
  781MOL0     H 7732   6.430  11.596   3.504 -1.4862 -0.5152  1.7533
  781MOL0     H 7733   6.533  11.673   3.626  1.5521 -1.7109 -1.4724
  781MOL0     H 7734   6.376  11.847   3.676 -0.8596  1.0386 -0.8554
  781MOL0     H 7735   6.265  11.788   3.551  0.6255  0.9359 -0.9334
  781MOL0     H 7736   6.083  11.717   3.538 -1.6185  2.1889  1.8840
  781MOL0     H 7737   5.794  11.758   3.521 -0.3529 -0.2526 -1.9936
  781MOL0     H 7738   5.745  11.588   3.505  0.2221 -0.4730 -0.9937
  781MOL0     H 7739   5.884  11.631   3.427 -1.4468  0.5921 -0.2604
  781MOL0     H 7740   5.472  11.424   3.741  0.2194 -0.7343  0.6763
  781MOL0     H 7741   5.266  11.363   3.837  2.0404  1.5345 -2.2341
  781MOL0     H 7742   5.112  11.256   3.929  2.1578  1.6437 -0.9139
  781MOL0     H 7743   5.031  11.218   4.077  1.5177  0.5754  1.8201
  781MOL0     H 7744   4.968  11.420   4.127  1.2882 -3.4103  0.7262
  781MOL0     H 7745   5.089  11.510   4.017 -2.9989  1.9998 -1.1114
  781MOL0     H 7746   4.877  11.347   3.883 -1.6183  0.7799 -2.3478
  781MOL0     H 7747   4.953  11.484   3.822  1.9604 -1.8505  1.0751
  781MOL0     H 7748   4.727  11.496   4.031 -0.4220  1.2777  0.6799
  781MOL0     H 7749   4.728  11.536   3.864 -0.7487  0.1817  0.2401
  781MOL0     H 7750   4.911  11.687   4.053  0.2824 -2.4965 -0.9456
  781MOL0     H 7751   4.886  11.720   3.892 -0.6344  1.3945  0.1235
  781MOL0     H 7752   4.658  11.761   4.079  0.5031  0.7840 -0.5414
  781MOL0     H 7753   4.657  11.768   3.900  0.1384 -3.0010  0.8300
  781MOL0     H 7754   4.762  11.941   3.883 -2.6580 -2.8291 -0.9942
  781MOL0     H 7755   4.870  11.926   4.025 -0.1345  1.4494 -0.7442
  781MOL0     H 7756   4.676  12.005   4.179  0.5741  1.2644 -0.1306
  781MOL0     H 7757   4.579  12.021   4.027 -0.6640  2.5181 -2.2474
  781MOL0     H 7758   5.456  11.307   4.225  2.7059  2.6014  0.8446
  781MOL0     H 7759   5.676  11.396   4.103 -0.4025 -2.0694  2.1919
  781MOL0     H 7760   5.941  11.456   3.926  0.1027 -0.5500 -0.5768
  781MOL0     H 7761   6.181  11.514   3.897  0.6203 -1.9105 -0.8909
  781MOL0     H 7762   7.086  10.981   2.340  2.1851 -1.0292  0.4915
  781MOL0     H 7763   7.273  10.985   2.168  1.6510 -2.8582 -0.0051
  781MOL0     H 7764   7.553  10.657   1.856  1.9490  0.1100 -2.1411
  781MOL0     H 7765   7.759  10.691   1.775 -0.1154 -0.5655  0.4024
  781MOL0     H 7766   7.998  10.988   1.570  3.1459  0.9410  0.9435
  781MOL0     H 7767   7.838  11.078   1.608  1.1410  1.6031  3.2475
  781MOL0     H 7768   8.053  10.995   1.805 -0.5394 -0.9071 -1.0186
  781MOL0     H 7769   7.919  11.119   1.837  0.7098  1.2573  0.7999
  781MOL0     H 7770   8.101  11.238   1.804 -2.2173 -0.0615  0.3923
  781MOL0     H 7771   8.154  11.132   1.659  1.8799  1.1989  1.0326
  781MOL0     H 7772   7.923  11.335   1.644  0.5563  0.7364  2.9121
  781MOL0     H 7773   7.995  11.233   1.525 -0.7262  1.1961 -0.3183
  781MOL0     H 7774   8.265  11.557   1.510  0.7617 -0.3762  2.3879
  781MOL0     H 7775   7.696  11.115   1.760 -0.9626  0.3640 -0.1766
  781MOL0     H 7776   7.533  11.216   1.880  1.7314 -1.2200 -0.7609
  781MOL0     H 7777   7.408  11.166   1.759 -1.9380 -2.9837  0.6025
  781MOL0     H 7778   7.375  11.133   1.923 -1.1498  0.6797 -0.8308
  782MOL0     O 7779   6.999   0.686  10.890 -0.1875 -0.3170 -0.6202
  782MOL0     C 7780   6.940   0.590  10.936  0.4266 -0.0597 -0.0840
  782MOL0     O 7781   6.997   0.465  10.951  0.6549  0.6135 -0.5483
  782MOL0     C 7782   7.136   0.447  10.951  0.4988 -0.2062 -0.3266
  782MOL0     C 7783   7.197   0.335  10.888 -0.8315 -0.0361  0.9723
  782MOL0     C 7784   7.337   0.327  10.886 -0.1771  0.0589 -0.9343
  782MOL0     C 7785   7.413   0.418  10.974  0.0122  0.2918  0.4487
  782MOL0     O 7786   7.550   0.403  11.004 -0.5772  0.0186  0.1829
  782MOL0     C 7787   7.611   0.317  10.916 -0.1734  0.0831 -0.8351
  782MOL0     C 7788   7.773   0.313  10.929  0.1483 -0.8571  0.3485
  782MOL0     C 7789   7.824   0.298  11.068 -0.9605  0.6420 -0.1519
  782MOL0     C 7790   7.974   0.304  11.067 -0.7552  0.4042  0.1975
  782MOL0     C 7791   8.014   0.456  11.062  0.2419  0.2817  0.0323
  782MOL0     C 7792   8.163   0.466  11.087 -0.7438  0.2569  0.2902
  782MOL0     C 7793   8.258   0.422  10.969  0.1623 -0.0651  0.4806
  782MOL0     C 7794   8.225   0.507  10.846  0.2875 -0.1642 -0.0862
  782MOL0     N 7795   8.346   0.507  10.763 -0.0047 -0.7939 -0.4335
  782MOL0     C 7796   8.452   0.596  10.777  0.6140 -0.2003 -0.6038
  782MOL0     C 7797   8.528   0.575  10.674  0.1314 -0.1609  0.4810
  782MOL0     C 7798   8.663   0.647  10.662  0.0394  0.8183  0.6564
  782MOL0     C 7799   8.737   0.627  10.530 -0.2033  0.7601  0.6521
  782MOL0     C 7800   8.892   0.657  10.543  0.2325  0.0492 -0.0708
  782MOL0     C 7801   8.915   0.799  10.600 -0.9640 -0.1976 -0.2086
  782MOL0     O 7802   9.049   0.831  10.561 -0.1120  0.0249 -0.6423
  782MOL0     C 7803   9.082   0.857  10.432  0.4674 -0.1432 -0.3203
  782MOL0     C 7804   9.213   0.873  10.405  0.1196  0.5234  0.4214
  782MOL0     C 7805   9.257   0.915  10.278 -0.7131 -0.2871  0.8186
  782MOL0     C 7806   9.406   0.941  10.261 -0.3426  0.8882  0.0459
  782MOL0     C 7807   9.164   0.938  10.178  1.0150 -0.2861 -0.3150
  782MOL0     C 7808   9.197   0.993  10.041 -0.6670  0.3374 -0.6347
  782MOL0     O 7809   9.091   1.052   9.984 -0.2298 -0.7724 -0.3592
  782MOL0     C 7810   9.106   1.110   9.863  0.5942 -0.4931 -0.0508
  782MOL0     C 7811   9.062   1.042   9.743  0.6057 -0.5640  0.3385
  782MOL0     C 7812   9.082   1.107   9.618 -1.3843 -0.4015 -0.7437
  782MOL0     C 7813   9.160   1.222   9.613  0.3715 -0.4359 -0.0664
  782MOL0     O 7814   9.167   1.273   9.483  0.3513 -0.0079 -0.0662
  782MOL0     C 7815   9.256   1.384   9.453 -0.4381  0.7705  0.0907
  782MOL0     C 7816   9.228   1.439   9.312  0.2372  0.1469 -1.0497
  782MOL0     C 7817   9.069   1.457   9.304 -0.4447 -0.2179 -0.8761
  782MOL0     C 7818   9.030   1.556   9.189  0.2198 -0.5192  0.6642
  782MOL0     C 7819   9.068   1.706   9.206 -0.8858 -0.2426  0.2339
  782MOL0     C 7820   9.019   1.765   9.343 -1.5350 -1.2244 -0.8803
  782MOL0     C 7821   9.057   1.917   9.359  0.7434 -0.0255  0.6632
  782MOL0     C 7822   8.950   1.998   9.426  0.7406  0.3343 -1.2060
  782MOL0    Cl 7823   8.935   1.957   9.590 -0.2778  0.2186  0.1229
  782MOL0     C 7824   9.197   1.290   9.740  0.5892  0.1768  0.3412
  782MOL0     C 7825   9.168   1.227   9.856 -1.0768  0.3482 -1.1521
  782MOL0     O 7826   9.309   0.982   9.992 -0.3790 -0.2400  0.6338
  782MOL0     C 7827   9.028   0.904  10.204 -0.3807 -0.2126  0.4930
  782MOL0     C 7828   8.985   0.877  10.327 -0.4805 -0.1777 -0.2799
  782MOL0     N 7829   8.473   0.473  10.592  0.4551 -0.7000  0.1905
  782MOL0     N 7830   8.370   0.432  10.656  0.0756  0.5044  0.7863
  782MOL0     C 7831   7.345   0.519  11.042  0.3388  0.2713 -0.1453
  782MOL0     C 7832   7.210   0.534  11.033  0.1295  0.2605 -0.3310
  782MOL0     C 7833   6.793   0.608  10.973  0.4292 -0.1927  0.1802
  782MOL0     C 7834   6.716   0.698  10.891  0.4904 -0.1838  0.2625
  782MOL0     C 7835   6.578   0.708  10.906 -0.9236 -0.1764 -0.6855
  782MOL0     C 7836   6.517   0.643  11.009 -1.1057 -0.1913  0.0308
  782MOL0     O 7837   6.378   0.671  11.020 -0.1266  0.0893 -0.3920
  782MOL0     C 7838   6.304   0.595  11.112 -0.1537  0.6511  0.2370
  782MOL0     C 7839   6.292   0.670  11.247 -0.0700 -0.5668 -0.7908
  782MOL0     C 7840   6.206   0.804  11.233 -0.7518 -0.2513  0.1299
  782MOL0     C 7841   6.288   0.912  11.291  0.1353 -0.0573  0.2329
  782MOL0     C 7842   6.222   1.043  11.269 -0.0270  0.3745  0.2148
  782MOL0     C 7843   6.169   1.148  11.233 -0.1454 -0.5673  0.1228
  782MOL0     C 7844   6.595   0.560  11.099 -0.2212 -0.5790  0.7159
  782MOL0     C 7845   6.730   0.540  11.083  0.8667 -0.0730  0.7934
  782MOL0     C 7846   6.808   0.479  11.194 -0.2207  0.3899  0.2420
  782MOL0     H 7847   7.142   0.269  10.823  1.1296 -0.0337 -0.7854
  782MOL0     H 7848   7.385   0.240  10.842  2.2867  2.0114 -2.3595
  782MOL0     H 7849   7.590   0.341  10.811 -0.1514 -0.7852 -1.0505
  782MOL0     H 7850   7.575   0.217  10.942 -3.5844  0.7835 -2.3854
  782MOL0     H 7851   7.806   0.229  10.868  0.8046  0.2504 -0.8754
  782MOL0     H 7852   7.805   0.401  10.873 -1.1650 -1.1615 -0.9509
  782MOL0     H 7853   7.794   0.366  11.149  0.1172  0.3086  0.5431
  782MOL0     H 7854   7.804   0.199  11.109  1.3400  0.4667  0.7154
  782MOL0     H 7855   8.009   0.257  11.160 -2.0052  0.1725  0.5633
  782MOL0     H 7856   8.018   0.252  10.981  2.3966  2.5431  0.3545
  782MOL0     H 7857   7.954   0.519  11.128 -1.8917  0.8247 -2.2751
  782MOL0     H 7858   7.991   0.494  10.962 -0.6738 -0.1729  0.0671
  782MOL0     H 7859   8.189   0.563  11.130 -0.5027  0.4341 -0.2458
  782MOL0     H 7860   8.184   0.395  11.168  1.3541  1.2270  0.6589
  782MOL0     H 7861   8.237   0.316  10.952 -5.0336  0.6519  0.7932
  782MOL0     H 7862   8.363   0.429  10.998 -0.5148  1.9695  2.7471
  782MOL0     H 7863   8.148   0.459  10.784 -1.2309  0.9988  0.8200
  782MOL0     H 7864   8.190   0.610  10.859  1.4574  0.3492 -0.8225
  782MOL0     H 7865   8.466   0.683  10.840 -1.3187 -0.1259 -0.2170
  782MOL0     H 7866   8.727   0.611  10.744  0.5130  0.9056  0.3295
  782MOL0     H 7867   8.641   0.752  10.682 -3.6369  0.1789  0.7084
  782MOL0     H 7868   8.725   0.526  10.491  1.2681 -0.0596  2.2049
  782MOL0     H 7869   8.678   0.695  10.468 -1.1907 -1.4256 -0.9303
  782MOL0     H 7870   8.939   0.591  10.615  1.4599  1.4515  0.4478
  782MOL0     H 7871   8.942   0.644  10.447  0.5614 -2.4290  0.3838
  782MOL0     H 7872   8.842   0.875  10.571  1.3711  2.5468  0.6220
  782MOL0     H 7873   8.905   0.809  10.709 -0.0727  1.8272 -0.2678
  782MOL0     H 7874   9.282   0.868  10.489  1.7309  0.3457 -0.8530
  782MOL0     H 7875   9.431   1.020  10.189  0.9040  0.0127 -0.5147
  782MOL0     H 7876   9.437   0.848  10.211  0.1386 -1.3873  4.1414
  782MOL0     H 7877   9.463   0.956  10.353  2.7857 -0.4852 -1.5064
  782MOL0     H 7878   9.011   0.947   9.754  1.5339 -1.3389 -1.5198
  782MOL0     H 7879   9.044   1.065   9.526 -3.3051  1.3210 -0.7973
  782MOL0     H 7880   9.222   1.464   9.520 -1.6024  0.7605 -0.4681
  782MOL0     H 7881   9.362   1.358   9.462 -0.6085 -0.3199 -0.8747
  782MOL0     H 7882   9.289   1.527   9.292  1.7121 -0.6162 -0.1466
  782MOL0     H 7883   9.258   1.365   9.237  0.0324 -0.7749 -0.2364
  782MOL0     H 7884   9.016   1.491   9.393 -2.5654  0.2073 -2.2128
  782MOL0     H 7885   9.033   1.354   9.289 -0.1488 -0.3870 -0.4418
  782MOL0     H 7886   8.923   1.561   9.167  0.0762 -3.4703  0.3143
  782MOL0     H 7887   9.069   1.514   9.096  2.6589  4.1606 -0.7490
  782MOL0     H 7888   9.176   1.718   9.192 -1.2280  1.2684 -1.4254
  782MOL0     H 7889   9.018   1.761   9.126 -0.3670  0.7370  0.5793
  782MOL0     H 7890   9.068   1.711   9.424  1.3598  2.1791 -0.1179
  782MOL0     H 7891   8.911   1.746   9.351 -1.9611  1.0289 -0.7742
  782MOL0     H 7892   9.072   1.958   9.259  1.4238  1.0650  1.1948
  782MOL0     H 7893   9.150   1.923   9.416  1.6531  0.2494 -0.8107
  782MOL0     H 7894   8.851   1.995   9.379  0.1823 -2.9102 -0.0907
  782MOL0     H 7895   8.985   2.101   9.430  3.4730 -0.5139  2.3845
  782MOL0     H 7896   9.239   1.389   9.755 -0.6714  1.2764 -2.5452
  782MOL0     H 7897   9.192   1.273   9.952 -0.7589 -4.0301  1.1278
  782MOL0     H 7898   8.958   0.918  10.123  1.8988  0.1483 -1.5355
  782MOL0     H 7899   8.879   0.865  10.343 -0.8001 -1.0111 -2.5911
  782MOL0     H 7900   7.406   0.583  11.106  0.4288  0.2250 -0.1842
  782MOL0     H 7901   7.169   0.619  11.087  1.4296  0.0841  0.9918
  782MOL0     H 7902   6.772   0.745  10.811  3.6648  0.5421  2.6958
  782MOL0     H 7903   6.522   0.766  10.834  0.2270 -1.0630 -2.3495
  782MOL0     H 7904   6.201   0.595  11.077 -0.5498 -0.8929  1.2872
  782MOL0     H 7905   6.339   0.492  11.125 -2.6669 -0.0256  2.6402
  782MOL0     H 7906   6.391   0.677  11.294 -0.2527 -2.7366  0.0152
  782MOL0     H 7907   6.236   0.594  11.303 -0.6244 -1.7186 -2.8273
  782MOL0     H 7908   6.196   0.833  11.128  1.1633  1.7061  0.4155
  782MOL0     H 7909   6.101   0.793  11.262 -0.6410 -0.0594  0.6181
  782MOL0     H 7910   6.381   0.912  11.235 -1.2871  0.2202 -2.2638
  782MOL0     H 7911   6.308   0.904  11.399  1.4868 -0.4978 -0.0368
  782MOL0     H 7912   6.121   1.237  11.198 -0.3739 -0.0605  1.6373
  782MOL0     H 7913   6.542   0.522  11.186  1.0682 -0.1423  1.7389
  782MOL0     H 7914   6.855   0.383  11.170 -0.0564  0.8719 -1.4339
  782MOL0     H 7915   6.888   0.551  11.214  0.9844 -0.6202 -0.7673
  782MOL0     H 7916   6.751   0.477  11.288 -1.1002  1.8960 -0.2346
  783MOL0     O 7917   9.904   2.497  10.116 -0.2154  0.0742  1.3543
  783MOL0     C 7918   9.917   2.389  10.175 -0.1909  0.2272 -0.2059
  783MOL0     O 7919  10.028   2.308  10.166 -0.5653  0.0051 -0.8086
  783MOL0     C 7920  10.131   2.364  10.085  0.2198  0.6932 -0.9120
  783MOL0     C 7921  10.253   2.386  10.141 -0.0017  0.0200 -0.7600
  783MOL0     C 7922  10.367   2.414  10.056 -0.6301 -0.1355  0.4632
  783MOL0     C 7923  10.346   2.424   9.917 -0.4665 -0.2390  0.7969
  783MOL0     O 7924  10.451   2.454   9.828  0.2886 -0.2141 -0.0727
  783MOL0     C 7925  10.560   2.355   9.818  1.0117  0.3931  0.5213
  783MOL0     C 7926  10.520   2.252   9.718 -0.3889 -0.2531  0.5382
  783MOL0     C 7927  10.636   2.170   9.661  0.4468  0.0143 -0.3894
  783MOL0     C 7928  10.709   2.096   9.777  0.4701 -0.1448  0.0846
  783MOL0     C 7929  10.804   1.985   9.734 -0.4973 -0.3269  0.0386
  783MOL0     C 7930  10.946   2.030   9.691  1.4663 -0.6881  0.2719
  783MOL0     C 7931  11.048   2.044   9.797 -0.2327  0.6033 -1.1233
  783MOL0     C 7932  11.143   1.927   9.814 -0.3304 -1.2266 -0.3545
  783MOL0     N 7933  11.238   1.904   9.704 -0.0522  0.4444  0.3819
  783MOL0     C 7934  11.329   1.988   9.656 -0.5071  0.4454  0.0595
  783MOL0     C 7935  11.413   1.912   9.577 -0.5685 -0.5382 -0.8103
  783MOL0     C 7936  11.544   1.964   9.514 -0.1812  0.7549 -0.1821
  783MOL0     C 7937  11.633   1.850   9.464 -0.0364  0.4986 -0.3204
  783MOL0     C 7938  11.768   1.918   9.421  0.6295 -0.0859 -0.2000
  783MOL0     C 7939  11.878   1.818   9.378  0.1630  0.2331  0.6789
  783MOL0     O 7940  12.010   1.880   9.381  0.1503 -0.4824  0.2590
  783MOL0     C 7941  12.137   1.827   9.360  0.0314  0.4513 -0.2524
  783MOL0     C 7942  12.155   1.684   9.338  0.2860  0.1168 -0.6902
  783MOL0     C 7943  12.290   1.636   9.333  0.4085 -0.1012 -1.2074
  783MOL0     C 7944  12.304   1.492   9.316  0.6664 -0.4073  0.0370
  783MOL0     C 7945  12.396   1.724   9.327  0.8147 -0.2422 -0.2968
  783MOL0     C 7946  12.543   1.680   9.308  0.6681 -0.9091  0.4564
  783MOL0     O 7947  12.567   1.566   9.226  0.0628  0.2908 -0.4421
  783MOL0     C 7948  12.692   1.574   9.178 -0.3580  0.6543 -0.2244
  783MOL0     C 7949  12.703   1.633   9.054 -0.3458  0.2472  0.1751
  783MOL0     C 7950  12.833   1.662   8.999  0.1878  1.0491 -0.1761
  783MOL0     C 7951  12.949   1.627   9.066  0.5405 -0.1694  0.9455
  783MOL0     O 7952  13.066   1.651   9.000  0.1608 -0.6618 -0.0039
  783MOL0     C 7953  13.154   1.538   8.978  0.3953  0.1941  0.2640
  783MOL0     C 7954  13.113   1.483   8.843 -0.0715  0.6376 -0.2418
  783MOL0     C 7955  13.182   1.569   8.737  0.4975  0.0894  0.5102
  783MOL0     C 7956  13.197   1.494   8.599 -0.0566 -0.4474  0.4025
  783MOL0     C 7957  13.247   1.593   8.499 -0.2710 -0.0007 -0.6086
  783MOL0     C 7958  13.274   1.529   8.364 -0.3332  0.1576 -1.2261
  783MOL0     C 7959  13.297   1.630   8.254 -0.5555 -0.0761 -0.0935
  783MOL0     C 7960  13.434   1.699   8.264  0.2395 -0.4176 -0.5340
  783MOL0    Cl 7961  13.550   1.608   8.174  0.3591  0.2605  0.2860
  783MOL0     C 7962  12.934   1.556   9.186  0.6363  0.0020  0.2711
  783MOL0     C 7963  12.807   1.525   9.237  0.2571 -0.3356 -0.6786
  783MOL0     O 7964  12.628   1.743   9.363  0.4254 -0.4634 -0.0769
  783MOL0     C 7965  12.368   1.862   9.344 -1.7284  0.3603  0.6321
  783MOL0     C 7966  12.238   1.911   9.353 -0.3799 -0.8459 -0.7761
  783MOL0     N 7967  11.369   1.780   9.581 -0.9423 -0.5004 -0.1473
  783MOL0     N 7968  11.264   1.778   9.656  0.5284  0.2087 -0.6545
  783MOL0     C 7969  10.221   2.410   9.866 -0.2376 -0.4337 -0.0847
  783MOL0     C 7970  10.114   2.367   9.945 -0.3824 -0.1691 -0.2040
  783MOL0     C 7971   9.803   2.342  10.273 -0.2004  0.4272 -0.5207
  783MOL0     C 7972   9.827   2.227  10.359 -0.3104 -0.8674  0.5306
  783MOL0     C 7973   9.727   2.180  10.442 -0.0448  0.2086 -0.2754
  783MOL0     C 7974   9.615   2.244  10.467 -0.6750 -0.3746  0.0385
  783MOL0     O 7975   9.521   2.212  10.561  0.1291  0.8346 -0.4903
  783MOL0     C 7976   9.537   2.091  10.648 -0.0980  0.4600  0.2174
  783MOL0     C 7977   9.504   1.963  10.571 -0.0976  0.1579 -0.4683
  783MOL0     C 7978   9.532   1.846  10.654 -0.1591  0.1580  0.1306
  783MOL0     C 7979   9.567   1.718  10.572  0.0515 -0.5521 -0.3030
  783MOL0     C 7980   9.701   1.731  10.507 -0.0347 -0.1386  0.9172
  783MOL0     C 7981   9.818   1.718  10.463  0.2408  0.1731 -0.7460
  783MOL0     C 7982   9.582   2.353  10.380 -0.2491 -0.1676  0.1354
  783MOL0     C 7983   9.676   2.407  10.290 -0.4571 -0.0336 -0.4427
  783MOL0     C 7984   9.633   2.537  10.226  0.4994  0.7382  0.0770
  783MOL0     H 7985  10.272   2.379  10.247  0.9705 -0.2864 -0.9407
  783MOL0     H 7986  10.459   2.442  10.106 -0.0272 -0.6936 -0.3114
  783MOL0     H 7987  10.584   2.306   9.913  1.9103 -0.6713 -0.2232
  783MOL0     H 7988  10.658   2.395   9.789  1.8205  0.4659  3.0860
  783MOL0     H 7989  10.439   2.184   9.748 -1.9876  0.4793 -1.8467
  783MOL0     H 7990  10.479   2.303   9.631  0.6946 -2.1100 -1.1430
  783MOL0     H 7991  10.584   2.099   9.597  0.8307  0.2333 -0.9513
  783MOL0     H 7992  10.713   2.233   9.616 -0.0787  2.7260  2.1048
  783MOL0     H 7993  10.758   2.173   9.837 -2.6786  0.3273  2.2525
  783MOL0     H 7994  10.635   2.051   9.843  0.9555  0.2588  0.9241
  783MOL0     H 7995  10.759   1.938   9.646  0.4576 -1.2668  0.0324
  783MOL0     H 7996  10.822   1.923   9.823  0.8168 -1.3027 -0.8737
  783MOL0     H 7997  10.985   1.956   9.620  2.8941 -0.5767  0.9052
  783MOL0     H 7998  10.933   2.118   9.627 -1.7551 -0.5818  0.9017
  783MOL0     H 7999  10.992   2.060   9.890 -0.4740 -4.3458 -0.1097
  783MOL0     H 8000  11.119   2.126   9.786  2.3869 -0.7851  2.9386
  783MOL0     H 8001  11.196   1.943   9.908 -0.7448  0.5353 -0.3840
  783MOL0     H 8002  11.076   1.842   9.832 -1.5694 -0.3883 -0.8229
  783MOL0     H 8003  11.357   2.085   9.697 -0.0158 -0.7772  2.8604
  783MOL0     H 8004  11.603   2.029   9.579  1.7354 -0.1734 -0.9142
  783MOL0     H 8005  11.529   2.024   9.424  0.8397  1.0907 -0.1419
  783MOL0     H 8006  11.648   1.787   9.552 -0.2470 -0.2907 -0.8362
  783MOL0     H 8007  11.581   1.795   9.385  2.3438 -5.8218  1.9027
  783MOL0     H 8008  11.733   1.985   9.342 -1.6433  0.2211  0.9816
  783MOL0     H 8009  11.811   1.989   9.492  0.3767 -0.4568  0.3314
  783MOL0     H 8010  11.875   1.739   9.453 -1.4075  0.3040  0.7145
  783MOL0     H 8011  11.855   1.775   9.280  2.7313  2.4163 -1.0262
  783MOL0     H 8012  12.070   1.616   9.336  1.1272 -1.0855  1.1848
  783MOL0     H 8013  12.207   1.450   9.289 -0.8738  3.6751 -1.6368
  783MOL0     H 8014  12.336   1.455   9.414 -1.8589  2.0802  1.9655
  783MOL0     H 8015  12.367   1.459   9.232  0.1607 -0.9923 -0.1176
  783MOL0     H 8016  12.617   1.635   8.987  1.3258 -1.8275 -2.2077
  783MOL0     H 8017  12.840   1.693   8.896 -0.1329 -4.7569 -2.3167
  783MOL0     H 8018  13.262   1.557   8.968  0.7928 -2.4045 -1.1181
  783MOL0     H 8019  13.142   1.463   9.057 -1.2354 -3.5819 -3.2402
  783MOL0     H 8020  13.158   1.384   8.832  2.6430  1.7298  0.3132
  783MOL0     H 8021  13.005   1.479   8.828  0.2540  1.0878 -3.3777
  783MOL0     H 8022  13.287   1.592   8.760 -0.1947  2.0074  2.0111
  783MOL0     H 8023  13.134   1.667   8.728 -3.5592 -1.8567 -1.3127
  783MOL0     H 8024  13.100   1.454   8.569  1.1076 -0.9806 -3.1628
  783MOL0     H 8025  13.269   1.412   8.601  1.5473  0.8999  0.1059
  783MOL0     H 8026  13.169   1.669   8.489 -0.7810 -0.4103  0.1742
  783MOL0     H 8027  13.329   1.650   8.545 -1.0492  2.6795 -2.2863
  783MOL0     H 8028  13.202   1.453   8.333 -0.1460 -1.0329  1.0385
  783MOL0     H 8029  13.360   1.464   8.385 -0.1555  1.1491  1.5092
  783MOL0     H 8030  13.219   1.705   8.266  0.0306  0.5063  0.1273
  783MOL0     H 8031  13.277   1.595   8.152 -2.3502 -1.6786  0.7377
  783MOL0     H 8032  13.466   1.710   8.368 -2.0302 -1.3718  0.3371
  783MOL0     H 8033  13.434   1.800   8.222  0.0561  0.2496  1.0001
  783MOL0     H 8034  13.014   1.517   9.248 -0.6722  0.8945  2.6564
  783MOL0     H 8035  12.808   1.451   9.317  0.8630 -0.0609 -0.4280
  783MOL0     H 8036  12.462   1.917   9.351 -1.7096  0.2795  1.0297
  783MOL0     H 8037  12.209   2.015   9.362 -1.1167 -0.7913 -3.0735
  783MOL0     H 8038  10.219   2.416   9.757  1.1001  1.5295 -0.0355
  783MOL0     H 8039  10.018   2.339   9.903 -1.6655  0.2452  2.2316
  783MOL0     H 8040   9.922   2.175  10.355  0.4527  0.4614  0.4684
  783MOL0     H 8041   9.762   2.097  10.503 -2.1710  2.3442  4.3359
  783MOL0     H 8042   9.642   2.088  10.681  0.0629  3.6949  0.2906
  783MOL0     H 8043   9.472   2.108  10.735 -1.0424  0.2943 -0.4427
  783MOL0     H 8044   9.536   1.958  10.467 -2.2798 -1.6971 -1.1344
  783MOL0     H 8045   9.396   1.967  10.553  0.0300  0.9072 -1.0667
  783MOL0     H 8046   9.612   1.869  10.724 -3.4246  2.7921  3.3925
  783MOL0     H 8047   9.448   1.817  10.718 -0.1181  2.9451  1.5820
  783MOL0     H 8048   9.487   1.711  10.497  1.3121  0.1775 -1.7674
  783MOL0     H 8049   9.565   1.630  10.638 -1.3667  1.8183  3.1311
  783MOL0     H 8050   9.910   1.697  10.412  0.5151 -0.3480 -0.0435
  783MOL0     H 8051   9.488   2.406  10.390  0.5968  1.8147 -1.6358
  783MOL0     H 8052   9.543   2.581  10.270 -1.4712 -2.6298 -0.2455
  783MOL0     H 8053   9.718   2.605  10.233  0.2916  1.0690 -0.5704
  783MOL0     H 8054   9.613   2.514  10.121 -0.3655  0.4641  0.2954
  784MOL0     O 8055   1.319   6.684  10.445 -0.2114 -0.6882  0.5004
  784MOL0     C 8056   1.285   6.799  10.439  0.9632  0.5133  0.6852
  784MOL0     O 8057   1.157   6.841  10.402  0.7722  0.0078  0.1230
  784MOL0     C 8058   1.055   6.748  10.407 -0.2525 -0.5230 -0.3329
  784MOL0     C 8059   0.943   6.770  10.323  0.5805 -0.0359  0.0084
  784MOL0     C 8060   0.819   6.701  10.346  0.0185 -0.5341 -0.1194
  784MOL0     C 8061   0.814   6.621  10.461 -0.1507 -0.5805 -0.1147
  784MOL0     O 8062   0.691   6.551  10.471  0.7173  0.1281  0.6435
  784MOL0     C 8063   0.683   6.462  10.576 -0.1643 -0.2809 -0.4976
  784MOL0     C 8064   0.548   6.386  10.574  0.0276  0.0776 -0.0439
  784MOL0     C 8065   0.530   6.288  10.695 -0.2116 -0.4861 -0.2382
  784MOL0     C 8066   0.381   6.250  10.706  0.3911 -0.6506 -0.3814
  784MOL0     C 8067   0.359   6.167  10.836  0.2555  0.5358  0.4909
  784MOL0     C 8068   0.218   6.112  10.845 -0.0528 -0.1101  0.4977
  784MOL0     C 8069   0.202   6.022  10.960  0.1795 -0.5330  0.1335
  784MOL0     C 8070   0.273   5.890  10.959  0.3401 -0.0699  0.0440
  784MOL0     N 8071   0.215   5.796  11.046 -1.1922  0.0934  0.2404
  784MOL0     C 8072   0.250   5.798  11.181  0.4876  0.1759  0.0487
  784MOL0     C 8073   0.192   5.684  11.227 -0.4948  0.0073 -0.1747
  784MOL0     C 8074   0.181   5.632  11.370  0.5299 -0.2726 -0.7597
  784MOL0     C 8075   0.154   5.752  11.454  0.7480 -0.5107 -0.1958
  784MOL0     C 8076   0.093   5.708  11.598  0.2177 -0.0667  0.2453
  784MOL0     C 8077  -0.035   5.622  11.593  0.1673 -0.8790 -0.1807
  784MOL0     O 8078  -0.141   5.688  11.517 -0.4530  0.1358  0.1063
  784MOL0     C 8079  -0.224   5.773  11.584 -0.0326 -0.4541  0.1410
  784MOL0     C 8080  -0.258   5.753  11.716 -0.9060  0.2298  0.0177
  784MOL0     C 8081  -0.329   5.852  11.786  1.4801  0.5509 -0.5564
  784MOL0     C 8082  -0.355   5.816  11.929 -0.2127  0.3036  0.3935
  784MOL0     C 8083  -0.376   5.972  11.721 -0.1366  0.2922  0.1853
  784MOL0     C 8084  -0.469   6.071  11.772 -0.2038  0.0117  0.2720
  784MOL0     O 8085  -0.492   6.185  11.708 -0.7660 -0.7001 -0.3909
  784MOL0     C 8086  -0.610   6.264  11.718 -0.2301 -0.2258 -0.3128
  784MOL0     C 8087  -0.605   6.397  11.774  0.4204  0.2560 -0.1106
  784MOL0     C 8088  -0.728   6.465  11.782 -0.2424 -0.3962  0.4314
  784MOL0     C 8089  -0.846   6.413  11.732 -0.1772 -0.1585 -0.3856
  784MOL0     O 8090  -0.954   6.488  11.719 -0.5946 -0.3286 -0.3406
  784MOL0     C 8091  -1.031   6.490  11.838  0.3943 -0.9748  0.3687
  784MOL0     C 8092  -1.093   6.638  11.849 -0.2680 -0.2214  0.6097
  784MOL0     C 8093  -0.983   6.739  11.829 -1.3865 -0.1655 -0.7601
  784MOL0     C 8094  -1.016   6.874  11.886  0.4208  0.6918  0.2002
  784MOL0     C 8095  -0.898   6.967  11.874  1.0529  0.1811 -0.4935
  784MOL0     C 8096  -0.941   7.114  11.899 -0.0129  0.8364 -0.0038
  784MOL0     C 8097  -0.834   7.227  11.868 -0.0342 -0.2811 -0.1441
  784MOL0     C 8098  -0.695   7.222  11.937  1.3782  0.1119  0.4207
  784MOL0    Cl 8099  -0.584   7.329  11.851 -0.2500 -0.2140 -0.0642
  784MOL0     C 8100  -0.854   6.280  11.688  0.1775 -0.0011  0.3334
  784MOL0     C 8101  -0.731   6.207  11.676  1.2898 -0.4936  0.0184
  784MOL0     O 8102  -0.518   6.036  11.875  0.7010  0.1386 -0.4387
  784MOL0     C 8103  -0.345   5.983  11.581  0.2266  0.4258  0.3537
  784MOL0     C 8104  -0.268   5.887  11.520  1.3164 -0.1869  0.3616
  784MOL0     N 8105   0.135   5.616  11.124  0.6657  0.3935 -0.5049
  784MOL0     N 8106   0.149   5.679  11.011 -1.0407  0.5050 -0.2624
  784MOL0     C 8107   0.918   6.610  10.545 -0.3262 -0.6081  0.2497
  784MOL0     C 8108   1.041   6.668  10.519 -0.0394  0.5590  0.3498
  784MOL0     C 8109   1.382   6.900  10.478 -0.0520  0.4197  0.4234
  784MOL0     C 8110   1.339   7.017  10.543  1.0647 -0.1692 -0.0957
  784MOL0     C 8111   1.417   7.137  10.555  0.2654 -0.8604 -0.0841
  784MOL0     C 8112   1.543   7.133  10.505  0.3918 -0.5209  0.8928
  784MOL0     O 8113   1.645   7.227  10.545  0.0635  0.0456 -0.6562
  784MOL0     C 8114   1.618   7.368  10.563  0.4267 -0.1325  0.3403
  784MOL0     C 8115   1.699   7.471  10.481 -0.3162  0.2730  1.1252
  784MOL0     C 8116   1.844   7.457  10.517  0.1029  0.0599 -0.2934
  784MOL0     C 8117   1.947   7.506  10.425 -0.5739 -0.4834  0.3263
  784MOL0     C 8118   2.075   7.511  10.489  0.5927  0.9344  1.2205
  784MOL0     C 8119   2.183   7.504  10.535 -0.1061  0.6476  0.6659
  784MOL0     C 8120   1.588   7.012  10.451 -0.0338  0.8700  0.7165
  784MOL0     C 8121   1.517   6.893  10.434  0.8898 -0.2400  0.4193
  784MOL0     C 8122   1.579   6.776  10.367 -1.2041  0.0852 -0.1675
  784MOL0     H 8123   0.933   6.856  10.258 -2.8023 -1.1970 -1.2238
  784MOL0     H 8124   0.733   6.720  10.283  1.1195 -1.3676 -1.9831
  784MOL0     H 8125   0.696   6.519  10.669 -0.9851 -1.1266  0.1571
  784MOL0     H 8126   0.764   6.389  10.584  0.3724  0.4557  1.4880
  784MOL0     H 8127   0.470   6.463  10.572  0.1127  0.1697 -2.2118
  784MOL0     H 8128   0.543   6.337  10.476 -3.8556  2.0277 -1.0221
  784MOL0     H 8129   0.591   6.197  10.683  1.1639 -0.0456  2.6835
  784MOL0     H 8130   0.563   6.338  10.786  0.5078 -2.9260  0.9421
  784MOL0     H 8131   0.304   6.328  10.711  0.2160 -0.9039  1.3573
  784MOL0     H 8132   0.371   6.185  10.618  1.8236  2.2287 -2.8737
  784MOL0     H 8133   0.372   6.241  10.916  0.2375  1.0783  0.0009
  784MOL0     H 8134   0.421   6.077  10.834 -1.7473 -1.0310  3.1609
  784MOL0     H 8135   0.148   6.196  10.848 -0.5367 -0.4321 -1.0136
  784MOL0     H 8136   0.199   6.059  10.751  0.4068 -0.8221  0.7971
  784MOL0     H 8137   0.098   5.990  10.965  0.7010 -2.3068  0.0721
  784MOL0     H 8138   0.233   6.080  11.047  1.6643 -0.3435 -0.4799
  784MOL0     H 8139   0.270   5.858  10.854  1.4271  1.9761 -0.6714
  784MOL0     H 8140   0.381   5.895  10.971  0.5438  0.3774 -1.6364
  784MOL0     H 8141   0.307   5.869  11.240 -0.4907 -0.4711  1.8237
  784MOL0     H 8142   0.276   5.582  11.393  1.2280  0.0226 -2.7943
  784MOL0     H 8143   0.105   5.554  11.372  1.2285 -0.9945 -1.6211
  784MOL0     H 8144   0.246   5.811  11.460 -0.2349  1.4391 -2.4831
  784MOL0     H 8145   0.086   5.816  11.397  2.9465  0.8337 -1.4883
  784MOL0     H 8146   0.174   5.665  11.659 -1.2333  0.2176  2.5049
  784MOL0     H 8147   0.064   5.791  11.663 -0.8367  0.4237 -0.8267
  784MOL0     H 8148  -0.020   5.529  11.537 -0.2070  0.3444 -2.4686
  784MOL0     H 8149  -0.061   5.608  11.698 -2.9655  2.6825 -0.2767
  784MOL0     H 8150  -0.226   5.664  11.768  0.2888  1.7462  2.0022
  784MOL0     H 8151  -0.358   5.912  11.980 -4.3108 -0.9869  3.0432
  784MOL0     H 8152  -0.274   5.755  11.970  0.1305 -0.7517 -1.6772
  784MOL0     H 8153  -0.454   5.769  11.932  0.2325 -0.6552  0.4951
  784MOL0     H 8154  -0.509   6.442  11.796  0.7451  0.2220 -1.3651
  784MOL0     H 8155  -0.730   6.571  11.808  4.0346 -0.1155  0.2958
  784MOL0     H 8156  -1.111   6.416  11.849 -0.0782 -0.3510  1.2840
  784MOL0     H 8157  -0.964   6.472  11.922 -0.7766 -4.6791  0.6932
  784MOL0     H 8158  -1.164   6.665  11.770  2.4172  2.2011 -1.1492
  784MOL0     H 8159  -1.133   6.636  11.951 -0.0489 -3.4906  0.7476
  784MOL0     H 8160  -0.961   6.741  11.722  0.2581 -0.4702 -0.4537
  784MOL0     H 8161  -0.889   6.700  11.869 -1.6626 -1.2079 -1.0865
  784MOL0     H 8162  -1.054   6.870  11.989  2.5248  2.2179  1.1030
  784MOL0     H 8163  -1.096   6.913  11.822 -0.6601 -2.7561 -0.8164
  784MOL0     H 8164  -0.827   6.935  11.951  1.9977 -1.4170 -1.9684
  784MOL0     H 8165  -0.865   6.958  11.770 -2.2457 -2.2337 -1.5037
  784MOL0     H 8166  -0.968   7.127  12.004 -0.2868 -0.9019  0.1601
  784MOL0     H 8167  -1.032   7.140  11.844 -0.0828  1.4036  0.3777
  784MOL0     H 8168  -0.883   7.324  11.877 -0.2012 -0.3462 -0.3366
  784MOL0     H 8169  -0.814   7.216  11.761  2.8225  0.9749  0.1698
  784MOL0     H 8170  -0.656   7.120  11.943 -0.7767 -0.7807  0.1170
  784MOL0     H 8171  -0.709   7.265  12.036  0.9404 -1.7230  1.2018
  784MOL0     H 8172  -0.949   6.252  11.644  1.0087  1.2251 -2.5041
  784MOL0     H 8173  -0.727   6.110  11.629 -2.1947 -0.9490  0.3882
  784MOL0     H 8174  -0.390   6.060  11.519 -0.6609 -0.0519  0.3985
  784MOL0     H 8175  -0.251   5.890  11.413  1.0996  0.8999  0.3481
  784MOL0     H 8176   0.904   6.544  10.630 -2.3918 -0.8911 -0.2479
  784MOL0     H 8177   1.118   6.673  10.595  0.2049 -0.9475  0.2339
  784MOL0     H 8178   1.238   7.016  10.585  0.6078  0.7927 -1.1387
  784MOL0     H 8179   1.383   7.213  10.624 -1.3791 -0.2213 -1.5256
  784MOL0     H 8180   1.514   7.394  10.542  1.3959  1.5519 -3.1327
  784MOL0     H 8181   1.631   7.381  10.670  0.9327 -0.0762  0.2753
  784MOL0     H 8182   1.682   7.575  10.514  0.7718  2.3847 -4.0731
  784MOL0     H 8183   1.676   7.471  10.374  0.9272  1.2815  0.8417
  784MOL0     H 8184   1.861   7.506  10.614 -0.2580 -2.7178  1.2853
  784MOL0     H 8185   1.864   7.350  10.532 -4.6721 -1.1900 -1.3093
  784MOL0     H 8186   1.932   7.610  10.396 -0.3940 -0.8030 -0.9610
  784MOL0     H 8187   1.951   7.440  10.338  0.0213 -1.4544  1.0641
  784MOL0     H 8188   2.287   7.487  10.553  0.3615  1.3062 -1.1825
  784MOL0     H 8189   1.691   7.013  10.417 -0.8514 -1.2697 -2.2935
  784MOL0     H 8190   1.686   6.790  10.349 -1.0201  0.2410  0.9440
  784MOL0     H 8191   1.573   6.692  10.436  0.6970 -0.4596 -0.6035
  784MOL0     H 8192   1.522   6.749  10.278 -1.9144  3.5009 -0.8887
  785MOL0     O 8193   5.419  10.981   5.664  0.6002  0.0023 -0.3733
  785MOL0     C 8194   5.354  10.983   5.564  0.4332 -0.7091  0.9981
  785MOL0     O 8195   5.400  11.013   5.441  0.3479  0.1273 -0.1437
  785MOL0     C 8196   5.540  11.037   5.422  0.2510  0.4798  0.4752
  785MOL0     C 8197   5.631  10.919   5.435  0.9344  0.6112 -0.0366
  785MOL0     C 8198   5.765  10.925   5.394 -0.7712 -0.3106  0.5391
  785MOL0     C 8199   5.815  11.049   5.337  0.4913  0.6714  0.2125
  785MOL0     O 8200   5.938  11.085   5.294  0.9465  0.7319 -0.2014
  785MOL0     C 8201   6.045  11.010   5.338 -0.1693 -0.1987  0.2483
  785MOL0     C 8202   6.179  11.079   5.306 -0.2252  0.1191 -0.2147
  785MOL0     C 8203   6.298  10.980   5.303  0.1634  0.2658  0.3036
  785MOL0     C 8204   6.429  11.050   5.324  0.3401 -0.3401  0.0623
  785MOL0     C 8205   6.458  11.083   5.471 -0.0617  0.1840 -0.4765
  785MOL0     C 8206   6.504  10.953   5.546 -0.1469  0.2859 -0.4530
  785MOL0     C 8207   6.485  10.968   5.702 -0.2451  0.2329 -0.5144
  785MOL0     C 8208   6.570  11.075   5.774  0.5944  0.6998 -0.0761
  785MOL0     N 8209   6.714  11.052   5.751 -1.1066 -0.3024  0.2655
  785MOL0     C 8210   6.797  10.946   5.789  0.2389  0.8164 -0.3755
  785MOL0     C 8211   6.924  10.993   5.771  0.9127 -0.1584 -0.5378
  785MOL0     C 8212   7.048  10.916   5.761  0.3294 -1.1458 -0.5299
  785MOL0     C 8213   7.137  10.949   5.884 -0.7197  0.3896 -0.1248
  785MOL0     C 8214   7.259  10.863   5.873 -0.4189  0.6295 -0.8456
  785MOL0     C 8215   7.366  10.917   5.966 -0.1679  0.5726 -0.4792
  785MOL0     O 8216   7.495  10.861   5.943  0.3854 -0.0319 -0.3931
  785MOL0     C 8217   7.538  10.763   6.025 -0.6878 -0.2408 -0.1622
  785MOL0     C 8218   7.458  10.688   6.106  0.3081 -0.0930  0.8453
  785MOL0     C 8219   7.509  10.582   6.177  0.7100  0.2137  0.0393
  785MOL0     C 8220   7.406  10.499   6.252  0.9513  0.2531  0.0117
  785MOL0     C 8221   7.644  10.554   6.174 -0.1142 -0.2689 -0.4686
  785MOL0     C 8222   7.712  10.452   6.263  0.5697 -0.0500  0.5372
  785MOL0     O 8223   7.841  10.416   6.229  0.5486 -0.1842  0.3479
  785MOL0     C 8224   7.886  10.303   6.294 -0.6707  0.4432 -0.1033
  785MOL0     C 8225   7.814  10.182   6.328 -0.3038 -0.7581  0.0845
  785MOL0     C 8226   7.880  10.074   6.397 -0.7571  0.3023  0.2129
  785MOL0     C 8227   8.011  10.091   6.449 -0.0378  0.2881  0.0576
  785MOL0     O 8228   8.085  10.002   6.521 -0.0385 -0.6624 -0.1240
  785MOL0     C 8229   8.016   9.900   6.592  0.5331 -0.0551 -0.2723
  785MOL0     C 8230   8.086   9.861   6.724  0.1066  0.3003 -0.8968
  785MOL0     C 8231   8.117   9.975   6.817 -0.3054 -0.4606  0.5515
  785MOL0     C 8232   8.195   9.926   6.946  0.5281  0.7087 -0.0812
  785MOL0     C 8233   8.249  10.041   7.035  0.7735  0.6586 -0.6279
  785MOL0     C 8234   8.303   9.988   7.171 -0.1543  0.1215  0.1164
  785MOL0     C 8235   8.406  10.084   7.236  0.5427 -0.1942  0.6976
  785MOL0     C 8236   8.421  10.074   7.380 -0.1424  0.1299 -0.7366
  785MOL0    Cl 8237   8.427   9.907   7.452  0.1710  0.2941 -0.1050
  785MOL0     C 8238   8.080  10.208   6.405 -0.7824 -0.4308 -0.2964
  785MOL0     C 8239   8.021  10.313   6.335  0.0871  0.5521  0.5970
  785MOL0     O 8240   7.654  10.406   6.362 -0.2114 -0.0368 -0.3607
  785MOL0     C 8241   7.725  10.623   6.084 -0.0211  0.2312  0.6601
  785MOL0     C 8242   7.672  10.729   6.009  0.3328  0.3666 -0.8492
  785MOL0     N 8243   6.917  11.121   5.730  0.3424  0.3768  0.7942
  785MOL0     N 8244   6.797  11.158   5.715  0.2066  0.8619 -0.1384
  785MOL0     C 8245   5.724  11.155   5.320 -0.2276 -0.5371 -0.4900
  785MOL0     C 8246   5.592  11.145   5.356 -0.1594 -0.5793 -0.2795
  785MOL0     C 8247   5.214  10.945   5.557  0.0641 -0.3595 -0.6483
  785MOL0     C 8248   5.172  10.807   5.534 -0.3827 -0.6442 -0.4069
  785MOL0     C 8249   5.032  10.774   5.531  0.4519 -0.0234 -0.1111
  785MOL0     C 8250   4.932  10.873   5.542 -0.3926  0.6882  0.2652
  785MOL0     O 8251   4.798  10.834   5.528  0.0545  0.0946  0.7979
  785MOL0     C 8252   4.697  10.933   5.504  0.2840 -0.8866 -0.4952
  785MOL0     C 8253   4.561  10.891   5.558  0.7722  0.1765 -0.1689
  785MOL0     C 8254   4.550  10.912   5.711 -0.0367 -0.3361  1.2443
  785MOL0     C 8255   4.413  10.867   5.769  0.2795  0.0516  0.1138
  785MOL0     C 8256   4.300  10.937   5.714 -0.3797  1.1719 -0.1134
  785MOL0     C 8257   4.210  10.985   5.651 -0.3857 -0.1085  0.2955
  785MOL0     C 8258   4.981  11.004   5.555  0.2817  0.4135 -0.0959
  785MOL0     C 8259   5.119  11.046   5.564  0.7969  0.9449  0.0712
  785MOL0     C 8260   5.131  11.196   5.570 -0.8579 -0.2328 -0.0100
  785MOL0     H 8261   5.597  10.830   5.488  1.5664  0.6196  0.4005
  785MOL0     H 8262   5.833  10.848   5.429  0.3535  0.6107  0.4401
  785MOL0     H 8263   6.039  10.913   5.287  0.2294  0.9723 -2.1160
  785MOL0     H 8264   6.039  10.993   5.446 -2.3726  3.1718  0.8006
  785MOL0     H 8265   6.173  11.142   5.217 -1.7993  2.3465  1.3526
  785MOL0     H 8266   6.192  11.154   5.384  0.2937 -1.9223  1.7953
  785MOL0     H 8267   6.285  10.911   5.387 -0.3769 -1.4191 -1.1259
  785MOL0     H 8268   6.295  10.916   5.215 -2.7007 -3.0045  2.5116
  785MOL0     H 8269   6.508  10.987   5.283  0.6655 -0.3882  0.7541
  785MOL0     H 8270   6.427  11.149   5.276 -1.9755  1.3032  3.1928
  785MOL0     H 8271   6.373  11.123   5.527  1.7554  0.0047  2.6237
  785MOL0     H 8272   6.530  11.164   5.482 -0.2317  0.3726 -0.7299
  785MOL0     H 8273   6.451  10.865   5.510  2.0870 -1.1476 -0.4193
  785MOL0     H 8274   6.611  10.933   5.531  0.1918 -0.9270  2.7671
  785MOL0     H 8275   6.522  10.876   5.749 -0.1169  2.1728  3.6612
  785MOL0     H 8276   6.383  10.973   5.740  0.5533  0.6424  1.7014
  785MOL0     H 8277   6.534  11.176   5.753  1.4335  0.9244 -0.5036
  785MOL0     H 8278   6.554  11.063   5.881 -0.6181 -1.7618 -0.4646
  785MOL0     H 8279   6.779  10.844   5.821  1.8230  0.8085  0.5835
  785MOL0     H 8280   7.103  10.945   5.670  0.3522  3.4540  0.6675
  785MOL0     H 8281   7.015  10.812   5.763 -2.7670 -0.2520  0.1387
  785MOL0     H 8282   7.166  11.054   5.884 -0.1020  0.2257 -0.7049
  785MOL0     H 8283   7.085  10.928   5.978  0.1428 -0.2899  0.2232
  785MOL0     H 8284   7.245  10.754   5.875  1.4770  0.2968  3.2293
  785MOL0     H 8285   7.308  10.879   5.776 -0.6644 -1.7474 -1.4200
  785MOL0     H 8286   7.362  11.024   5.947 -2.4154  0.3599 -1.5738
  785MOL0     H 8287   7.329  10.912   6.069  0.1959  4.4481 -0.0345
  785MOL0     H 8288   7.354  10.714   6.120  0.6940  0.0213  4.8528
  785MOL0     H 8289   7.430  10.538   6.352  1.9976  3.6014 -1.4320
  785MOL0     H 8290   7.431  10.392   6.257 -0.6963 -0.1130  1.3533
  785MOL0     H 8291   7.300  10.515   6.233 -0.4966 -1.7724  4.6973
  785MOL0     H 8292   7.718  10.166   6.281  0.0705  0.0579 -1.0054
  785MOL0     H 8293   7.824   9.981   6.400 -1.1636  0.1273 -4.5584
  785MOL0     H 8294   7.914   9.937   6.605  0.9602  0.5260  1.8084
  785MOL0     H 8295   8.017   9.812   6.527  0.4585  1.1875 -2.0325
  785MOL0     H 8296   8.019   9.794   6.780 -3.5288  1.8927 -2.9757
  785MOL0     H 8297   8.179   9.815   6.689  0.4197 -0.4705  0.8562
  785MOL0     H 8298   8.019  10.007   6.854 -0.1697 -0.6540  1.0818
  785MOL0     H 8299   8.172  10.052   6.762 -0.5539 -0.1874  0.6856
  785MOL0     H 8300   8.272   9.856   6.911 -0.0204 -0.9039  1.7771
  785MOL0     H 8301   8.124   9.872   7.008  1.4163  1.8656  2.0475
  785MOL0     H 8302   8.323  10.095   6.975 -0.1439  2.2771 -0.3835
  785MOL0     H 8303   8.170  10.111   7.065 -0.1287 -1.1623  1.5077
  785MOL0     H 8304   8.348   9.890   7.151  0.5093  0.3877  0.2977
  785MOL0     H 8305   8.225   9.982   7.247 -1.8878 -1.3829 -1.6572
  785MOL0     H 8306   8.384  10.189   7.211  1.0975 -0.3477 -0.5381
  785MOL0     H 8307   8.501  10.062   7.187  0.8165  1.5642  0.3606
  785MOL0     H 8308   8.332  10.128   7.416 -1.2752 -0.9625 -1.8035
  785MOL0     H 8309   8.509  10.122   7.423 -1.8519 -0.5596  4.3545
  785MOL0     H 8310   8.181  10.206   6.444 -0.4352 -1.4575 -1.2103
  785MOL0     H 8311   8.082  10.398   6.305 -0.3233  0.7415  0.2961
  785MOL0     H 8312   7.832  10.604   6.085  0.0035  0.3847  1.1842
  785MOL0     H 8313   7.740  10.785   5.946  0.7790 -0.0684 -0.7579
  785MOL0     H 8314   5.754  11.256   5.290  0.5358  0.0562  2.0333
  785MOL0     H 8315   5.523  11.222   5.324 -1.6897 -1.2287  1.2817
  785MOL0     H 8316   5.248  10.729   5.528 -0.0801 -0.2553 -1.7816
  785MOL0     H 8317   4.990  10.675   5.517  0.6473 -0.2914  1.1250
  785MOL0     H 8318   4.719  11.022   5.563 -2.3847 -1.8913  2.2978
  785MOL0     H 8319   4.699  10.959   5.398  3.3351 -3.4515 -1.2034
  785MOL0     H 8320   4.528  10.790   5.531 -0.0832  0.6620 -0.9804
  785MOL0     H 8321   4.494  10.964   5.511  1.7816  2.2943  1.5191
  785MOL0     H 8322   4.632  10.863   5.764 -0.0322 -1.6317  0.0812
  785MOL0     H 8323   4.560  11.021   5.723 -1.6236 -0.1760  1.3811
  785MOL0     H 8324   4.414  10.879   5.878 -0.7614  1.6314 -0.0174
  785MOL0     H 8325   4.406  10.760   5.745  2.3685  0.2309 -1.5612
  785MOL0     H 8326   4.120  11.027   5.610 -1.0407 -0.1149  1.6701
  785MOL0     H 8327   4.903  11.080   5.556 -0.6301 -0.4693 -1.2690
  785MOL0     H 8328   5.076  11.240   5.487  0.0412 -1.4806 -1.3096
  785MOL0     H 8329   5.090  11.222   5.668 -2.8422  0.6000 -1.0094
  785MOL0     H 8330   5.233  11.233   5.557 -0.2092 -1.9163 -0.0368
  786MOL0     O 8331   7.250   9.220   5.000  0.2821  0.6629 -0.6243
  786MOL0     C 8332   7.259   9.194   4.877  0.3361  0.6446  0.5258
  786MOL0     O 8333   7.167   9.108   4.805 -0.5933 -0.1845 -0.1304
  786MOL0     C 8334   7.056   9.073   4.877 -0.3545 -0.5070 -0.1523
  786MOL0     C 8335   7.026   8.934   4.879 -0.2647  0.4687  0.3041
  786MOL0     C 8336   6.906   8.886   4.935  0.5189  0.1031  0.5815
  786MOL0     C 8337   6.813   8.979   4.979  1.0152  0.7637 -0.3793
  786MOL0     O 8338   6.705   8.920   5.033  0.0567  0.1629 -0.0133
  786MOL0     C 8339   6.582   8.996   5.046 -0.7099  0.2514  0.1594
  786MOL0     C 8340   6.476   8.907   5.108 -1.1270  0.2100  1.2630
  786MOL0     C 8341   6.450   8.783   5.026  0.4204 -0.1539 -0.7726
  786MOL0     C 8342   6.437   8.807   4.874  0.9142  1.4021 -0.3689
  786MOL0     C 8343   6.406   8.676   4.797 -0.2076  0.2296  0.1197
  786MOL0     C 8344   6.310   8.716   4.688 -0.3679 -0.9262  0.1068
  786MOL0     C 8345   6.362   8.833   4.588 -0.1427  0.4945  0.4150
  786MOL0     C 8346   6.276   8.867   4.461  0.6268  0.2574 -1.2695
  786MOL0     N 8347   6.347   8.953   4.371  0.1164  0.4444  0.6518
  786MOL0     C 8348   6.405   9.075   4.399 -0.1569  0.7784 -0.8436
  786MOL0     C 8349   6.475   9.103   4.286  0.4140 -0.5439  0.1119
  786MOL0     C 8350   6.580   9.213   4.260 -0.3784  0.3401 -0.0865
  786MOL0     C 8351   6.564   9.297   4.125  0.1912  0.5805  0.3062
  786MOL0     C 8352   6.691   9.391   4.116 -0.7114  0.6531 -0.0342
  786MOL0     C 8353   6.826   9.314   4.107 -0.3155 -1.1091  0.4363
  786MOL0     O 8354   6.825   9.252   3.975  0.4255  0.6460  0.1897
  786MOL0     C 8355   6.948   9.231   3.924 -0.6849  1.0544  0.2196
  786MOL0     C 8356   6.954   9.193   3.788  0.2790  0.2777 -0.6361
  786MOL0     C 8357   7.075   9.156   3.715  0.0501 -0.1108 -0.3497
  786MOL0     C 8358   7.062   9.118   3.569  0.3441 -0.3593  0.8539
  786MOL0     C 8359   7.195   9.202   3.782  0.2224  0.9748 -0.3512
  786MOL0     C 8360   7.331   9.183   3.725  2.1225 -0.0903 -0.4074
  786MOL0     O 8361   7.416   9.268   3.770  0.3641  0.1289  0.3361
  786MOL0     C 8362   7.540   9.271   3.713  0.0264 -0.0987 -0.9394
  786MOL0     C 8363   7.561   9.309   3.582 -0.2034 -0.0964  0.5382
  786MOL0     C 8364   7.688   9.298   3.529 -0.1781 -0.0013 -0.5642
  786MOL0     C 8365   7.800   9.289   3.609 -0.4448 -0.0598  0.7188
  786MOL0     O 8366   7.921   9.283   3.547  0.2086 -0.0128  0.8985
  786MOL0     C 8367   8.037   9.286   3.635  0.4597  0.1579 -0.2779
  786MOL0     C 8368   8.154   9.354   3.565 -0.1424 -0.5919  0.8231
  786MOL0     C 8369   8.170   9.504   3.601 -0.0271 -0.2105 -0.1887
  786MOL0     C 8370   8.136   9.590   3.485  0.0808  0.0060 -0.5716
  786MOL0     C 8371   8.162   9.744   3.500  0.4561  0.4313 -0.9135
  786MOL0     C 8372   8.062   9.816   3.590  0.8259  0.0788  0.8555
  786MOL0     C 8373   7.909   9.788   3.554  0.3904 -0.4344  0.2371
  786MOL0     C 8374   7.849   9.672   3.632 -0.2270 -0.4825  0.2367
  786MOL0    Cl 8375   7.682   9.658   3.604 -0.0831 -0.2392  0.3220
  786MOL0     C 8376   7.775   9.263   3.748  0.2413 -0.3789  0.4494
  786MOL0     C 8377   7.642   9.255   3.800 -0.5568 -0.4818  0.2391
  786MOL0     O 8378   7.352   9.090   3.650 -0.7921  0.6052 -0.5113
  786MOL0     C 8379   7.193   9.244   3.919  0.0690  0.4481 -0.0738
  786MOL0     C 8380   7.075   9.243   3.989  0.6325  0.1345  0.5038
  786MOL0     N 8381   6.425   9.019   4.190  0.1179  0.5732 -0.1362
  786MOL0     N 8382   6.347   8.931   4.235 -0.1320 -0.2084 -1.0283
  786MOL0     C 8383   6.833   9.114   4.969 -0.4128 -0.6523  0.0475
  786MOL0     C 8384   6.946   9.166   4.916 -0.8384  0.4887 -0.0318
  786MOL0     C 8385   7.381   9.247   4.805  0.5589  0.0237 -0.3284
  786MOL0     C 8386   7.374   9.227   4.663  0.2020 -0.9780 -0.1348
  786MOL0     C 8387   7.482   9.264   4.586 -0.2637 -0.7046  0.3272
  786MOL0     C 8388   7.605   9.308   4.648  0.2954 -0.4572  0.2859
  786MOL0     O 8389   7.722   9.343   4.580 -0.8876  0.3177  0.4621
  786MOL0     C 8390   7.750   9.309   4.445 -0.1072 -0.0915  0.2245
  786MOL0     C 8391   7.671   9.403   4.348 -0.4666  1.4075  0.2350
  786MOL0     C 8392   7.639   9.320   4.221  0.7275 -0.4638  1.2859
  786MOL0     C 8393   7.524   9.372   4.148  0.2229  0.1144  0.4669
  786MOL0     C 8394   7.401   9.381   4.231 -0.0384  0.3700  0.2057
  786MOL0     C 8395   7.301   9.410   4.288  0.2896  0.5552  0.0575
  786MOL0     C 8396   7.608   9.312   4.791  0.8820 -0.1833  0.4467
  786MOL0     C 8397   7.496   9.287   4.873  0.1327 -0.5166 -0.3462
  786MOL0     C 8398   7.520   9.309   5.014  0.0481 -0.2725 -1.3004
  786MOL0     H 8399   7.092   8.861   4.834 -1.1198  0.4168 -0.9309
  786MOL0     H 8400   6.872   8.783   4.937 -0.0775  0.2903  0.2683
  786MOL0     H 8401   6.537   9.024   4.950 -1.8460  0.2778  0.6801
  786MOL0     H 8402   6.592   9.086   5.106 -2.4482 -1.3427  3.0938
  786MOL0     H 8403   6.502   8.879   5.210  2.5624 -0.0377  0.3936
  786MOL0     H 8404   6.385   8.968   5.107 -1.0197  0.3696  0.4950
  786MOL0     H 8405   6.516   8.701   5.056  2.5685  2.1168  1.1412
  786MOL0     H 8406   6.347   8.753   5.049  0.0959  1.6976  0.3415
  786MOL0     H 8407   6.356   8.879   4.863  1.5233  2.6013  2.1490
  786MOL0     H 8408   6.526   8.851   4.828  2.1775 -1.1730 -0.5758
  786MOL0     H 8409   6.373   8.600   4.868  0.7474  1.8736  2.4609
  786MOL0     H 8410   6.501   8.638   4.758 -1.0294 -0.0144 -1.7200
  786MOL0     H 8411   6.276   8.639   4.618 -0.7152  1.4615 -2.5312
  786MOL0     H 8412   6.223   8.753   4.743 -0.7386 -0.4267 -0.7810
  786MOL0     H 8413   6.462   8.803   4.555 -0.0707  0.2934  0.8074
  786MOL0     H 8414   6.354   8.927   4.643 -0.2064  1.0389 -0.5059
  786MOL0     H 8415   6.244   8.776   4.409  2.9083  0.1603 -2.6144
  786MOL0     H 8416   6.181   8.913   4.489 -2.3387 -4.4114 -2.3833
  786MOL0     H 8417   6.411   9.129   4.493 -0.1325  1.1611 -1.0647
  786MOL0     H 8418   6.677   9.163   4.268 -0.1783  0.8789  1.1870
  786MOL0     H 8419   6.578   9.276   4.350  0.6902  0.7523 -0.3364
  786MOL0     H 8420   6.561   9.227   4.041  0.3284 -0.0336  0.8003
  786MOL0     H 8421   6.466   9.345   4.120 -0.4668 -0.7665 -0.4336
  786MOL0     H 8422   6.688   9.451   4.025 -0.0335  1.7143  0.6278
  786MOL0     H 8423   6.684   9.449   4.208 -0.4732  0.2684  0.2330
  786MOL0     H 8424   6.905   9.389   4.117 -0.0153 -1.4608  0.7741
  786MOL0     H 8425   6.848   9.232   4.176  0.5287 -1.1896  0.0870
  786MOL0     H 8426   6.868   9.184   3.722  1.3267 -1.5700 -1.8363
  786MOL0     H 8427   7.144   9.161   3.511  0.7279  1.3658  2.5691
  786MOL0     H 8428   6.971   9.143   3.513  1.7320 -2.1597 -2.5196
  786MOL0     H 8429   7.069   9.009   3.567  1.7314 -0.3927  3.2555
  786MOL0     H 8430   7.473   9.322   3.521 -1.5899 -1.8281  2.0763
  786MOL0     H 8431   7.694   9.303   3.421 -0.5811  0.1585 -0.5796
  786MOL0     H 8432   8.021   9.344   3.726 -1.3516 -1.2122  0.3532
  786MOL0     H 8433   8.060   9.181   3.659  1.4376  0.2445 -0.7811
  786MOL0     H 8434   8.253   9.311   3.581 -0.0266 -0.1350  1.3875
  786MOL0     H 8435   8.134   9.342   3.458  1.0776 -1.3855  0.6546
  786MOL0     H 8436   8.270   9.538   3.626  0.9323  0.3392 -4.0904
  786MOL0     H 8437   8.103   9.524   3.686 -0.8206 -1.2056 -0.5523
  786MOL0     H 8438   8.037   9.576   3.439 -1.0431  2.9287  0.7105
  786MOL0     H 8439   8.198   9.561   3.399  0.7973  0.6888 -0.2979
  786MOL0     H 8440   8.264   9.755   3.540 -0.7005 -0.1960  2.5781
  786MOL0     H 8441   8.162   9.792   3.402 -1.4483 -2.8135 -2.6682
  786MOL0     H 8442   8.080   9.924   3.598  1.9386  0.1143 -1.5243
  786MOL0     H 8443   8.072   9.783   3.694  0.7054 -1.8172  0.3020
  786MOL0     H 8444   7.906   9.760   3.448  1.1484  3.0372 -0.8438
  786MOL0     H 8445   7.855   9.883   3.560  0.9826 -0.1344  0.8064
  786MOL0     H 8446   7.877   9.683   3.737  3.7470  0.1357 -0.7021
  786MOL0     H 8447   7.899   9.579   3.601  2.0236  1.6493 -3.2628
  786MOL0     H 8448   7.852   9.232   3.819 -0.7978  1.0588  2.2815
  786MOL0     H 8449   7.612   9.220   3.899 -3.2327 -3.1606 -1.3267
  786MOL0     H 8450   7.282   9.271   3.975  0.0384 -1.6495  1.0847
  786MOL0     H 8451   7.074   9.257   4.096 -1.1886 -1.4625  0.7518
  786MOL0     H 8452   6.761   9.190   4.998  2.6449  1.6850  2.2956
  786MOL0     H 8453   6.960   9.273   4.900  2.5094  0.2462  0.4206
  786MOL0     H 8454   7.284   9.194   4.612 -1.3173  2.6062 -0.0844
  786MOL0     H 8455   7.477   9.266   4.478  3.1529 -1.4136  0.0488
  786MOL0     H 8456   7.853   9.343   4.430 -1.3614  3.6861 -1.0275
  786MOL0     H 8457   7.747   9.201   4.430  0.4769  0.0131 -0.7395
  786MOL0     H 8458   7.744   9.482   4.327  1.4637 -0.6695 -1.3687
  786MOL0     H 8459   7.587   9.441   4.407 -1.2803 -1.8504  1.3542
  786MOL0     H 8460   7.727   9.326   4.157 -0.5782  1.1911 -0.4726
  786MOL0     H 8461   7.615   9.216   4.244 -3.6078  0.0818  0.0476
  786MOL0     H 8462   7.486   9.310   4.065  0.5652  3.8963 -2.8064
  786MOL0     H 8463   7.546   9.470   4.105 -2.4992  1.4977  1.9354
  786MOL0     H 8464   7.212   9.420   4.347 -0.1037 -0.6064 -0.3225
  786MOL0     H 8465   7.701   9.336   4.841 -0.0284  2.0855  1.1671
  786MOL0     H 8466   7.480   9.226   5.074  0.5060 -0.2317 -0.9301
  786MOL0     H 8467   7.627   9.312   5.037 -0.0789  0.9836 -0.8401
  786MOL0     H 8468   7.474   9.403   5.044  1.0848 -0.2857  0.5714
  787MOL0     O 8469   7.144   3.924   2.166  0.3742 -0.2343 -0.7696
  787MOL0     C 8470   7.155   3.864   2.278  0.7693 -1.2956  0.3195
  787MOL0     O 8471   7.276   3.803   2.321 -0.2249  0.1731 -0.1141
  787MOL0     C 8472   7.401   3.825   2.264 -0.4328  0.0988 -0.2052
  787MOL0     C 8473   7.447   3.936   2.192 -0.0386 -0.1693 -0.5308
  787MOL0     C 8474   7.582   3.958   2.168 -0.5161  0.1909  0.0016
  787MOL0     C 8475   7.678   3.860   2.204  0.1788  0.6667 -0.6634
  787MOL0     O 8476   7.814   3.859   2.172 -0.0512 -0.0743 -0.1009
  787MOL0     C 8477   7.859   3.966   2.084  0.3031  0.2488 -1.0540
  787MOL0     C 8478   8.005   3.957   2.049  0.8207  0.8701 -0.2318
  787MOL0     C 8479   8.054   4.087   1.982  0.1346  0.0393 -0.1502
  787MOL0     C 8480   8.205   4.075   1.970 -0.7714 -1.2323 -0.4766
  787MOL0     C 8481   8.266   4.180   1.882 -0.9025 -0.5925 -0.3183
  787MOL0     C 8482   8.419   4.163   1.856  0.7167  0.7478 -0.1009
  787MOL0     C 8483   8.459   4.080   1.738 -0.1793 -0.2980  0.1180
  787MOL0     C 8484   8.601   4.132   1.713  0.0443 -0.2620  0.5761
  787MOL0     N 8485   8.667   4.002   1.653  0.3151 -0.8495 -0.3124
  787MOL0     C 8486   8.716   3.895   1.721 -0.0531 -0.4965  0.5005
  787MOL0     C 8487   8.789   3.824   1.638 -0.1004 -0.9479  0.8291
  787MOL0     C 8488   8.884   3.699   1.662  0.8830  0.4697 -0.2088
  787MOL0     C 8489   8.979   3.731   1.780  0.7051  1.2383 -0.7181
  787MOL0     C 8490   9.053   3.870   1.777 -0.5059  0.0544 -0.6035
  787MOL0     C 8491   9.133   3.887   1.906 -0.3666  0.0398 -0.6529
  787MOL0     O 8492   9.215   4.003   1.894  1.0115  0.2729  0.3635
  787MOL0     C 8493   9.271   4.055   2.004 -0.2822  0.0144 -0.2081
  787MOL0     C 8494   9.353   4.169   1.983  0.1800  0.7647 -0.1474
  787MOL0     C 8495   9.411   4.242   2.090 -0.4636 -0.0915  0.2464
  787MOL0     C 8496   9.525   4.341   2.056 -0.4062  0.4797 -0.2236
  787MOL0     C 8497   9.396   4.187   2.224  0.2256  0.4336  0.1333
  787MOL0     C 8498   9.475   4.243   2.332  0.5679  0.2252  0.3641
  787MOL0     O 8499   9.517   4.156   2.439  0.2376  0.0551  0.1322
  787MOL0     C 8500   9.592   4.216   2.534 -0.8916 -0.8034  0.3180
  787MOL0     C 8501   9.521   4.278   2.638 -0.5580 -0.2482 -0.0473
  787MOL0     C 8502   9.585   4.338   2.751 -0.0105  0.3801 -0.1110
  787MOL0     C 8503   9.718   4.346   2.754  0.1587 -0.0749  0.0053
  787MOL0     O 8504   9.791   4.401   2.853 -0.1419  0.4803 -0.4867
  787MOL0     C 8505   9.726   4.420   2.976  0.0178  0.1964  0.8838
  787MOL0     C 8506   9.835   4.453   3.077 -0.6872  0.1478 -0.1634
  787MOL0     C 8507   9.941   4.343   3.093 -0.2595 -0.3115  0.3977
  787MOL0     C 8508  10.047   4.377   3.203  0.0249 -0.8051  0.3707
  787MOL0     C 8509  10.141   4.261   3.221  0.3844  0.1797  0.3009
  787MOL0     C 8510  10.213   4.258   3.355 -0.8292  0.5317 -0.1886
  787MOL0     C 8511  10.306   4.136   3.337  0.4942 -0.2446  0.7804
  787MOL0     C 8512  10.372   4.103   3.464  0.0770  0.4748 -0.4326
  787MOL0    Cl 8513  10.469   4.229   3.538  0.9003 -0.2584 -0.3041
  787MOL0     C 8514   9.794   4.283   2.647  0.2681 -0.1232  0.6238
  787MOL0     C 8515   9.730   4.227   2.541 -0.8077 -0.2882  1.0502
  787MOL0     O 8516   9.467   4.368   2.342 -0.4170 -0.2750 -0.3963
  787MOL0     C 8517   9.322   4.063   2.240 -0.4083 -0.0706  0.4271
  787MOL0     C 8518   9.263   3.998   2.131 -0.0778 -0.0976 -0.6896
  787MOL0     N 8519   8.781   3.880   1.510  0.3128  0.2932 -0.4600
  787MOL0     N 8520   8.721   3.989   1.531  0.4985 -0.3826 -0.2196
  787MOL0     C 8521   7.632   3.747   2.280  0.0988 -0.2620  0.7411
  787MOL0     C 8522   7.499   3.730   2.301 -0.0410  0.0711 -0.1071
  787MOL0     C 8523   7.036   3.853   2.366 -0.3251 -0.4562  0.0296
  787MOL0     C 8524   6.906   3.878   2.305 -1.0920 -0.5053 -0.4220
  787MOL0     C 8525   6.790   3.892   2.389 -0.5255  0.0039  0.0945
  787MOL0     C 8526   6.790   3.851   2.522 -0.3867 -0.6336 -0.3490
  787MOL0     O 8527   6.672   3.883   2.580 -0.3528  0.3719 -0.2843
  787MOL0     C 8528   6.653   3.837   2.714  0.0644 -0.7600 -0.3437
  787MOL0     C 8529   6.652   3.682   2.739  0.5666  0.4035  0.0832
  787MOL0     C 8530   6.510   3.621   2.704  0.2791 -1.0134  0.2205
  787MOL0     C 8531   6.408   3.657   2.809  0.0994  0.1269 -0.3469
  787MOL0     C 8532   6.279   3.581   2.781 -0.0792  0.0355  0.7911
  787MOL0     C 8533   6.163   3.544   2.762 -0.4506 -0.1044  0.7236
  787MOL0     C 8534   6.920   3.814   2.582 -0.2837  0.0999 -0.3846
  787MOL0     C 8535   7.038   3.813   2.505 -0.7439  0.3136 -0.1574
  787MOL0     C 8536   7.158   3.781   2.588 -0.5660 -0.1382 -0.7303
  787MOL0     H 8537   7.380   4.020   2.171 -0.3260 -0.5165 -1.0161
  787MOL0     H 8538   7.602   4.047   2.109 -1.9148 -1.1194 -2.6850
  787MOL0     H 8539   7.848   4.062   2.135 -0.4004  0.1849 -1.0789
  787MOL0     H 8540   7.794   3.959   1.997  0.6269 -0.0579 -1.2721
  787MOL0     H 8541   8.072   3.945   2.135  1.2871  1.2856 -0.5401
  787MOL0     H 8542   8.023   3.875   1.978 -0.3142 -0.1970  0.6569
  787MOL0     H 8543   7.998   4.096   1.888 -3.8274 -2.4841  1.6841
  787MOL0     H 8544   8.032   4.172   2.046  1.6791 -0.6843  1.4302
  787MOL0     H 8545   8.257   4.069   2.066  0.3359 -1.4653 -1.0714
  787MOL0     H 8546   8.218   3.976   1.927 -0.3027 -1.1048 -0.6387
  787MOL0     H 8547   8.250   4.281   1.920 -0.4691 -0.5962 -0.1069
  787MOL0     H 8548   8.221   4.183   1.783  1.0290  0.5841 -1.2325
  787MOL0     H 8549   8.458   4.265   1.841  1.9707  0.3532  0.3385
  787MOL0     H 8550   8.465   4.130   1.949 -0.8173 -4.1337 -0.8008
  787MOL0     H 8551   8.400   4.094   1.646 -0.6183  3.1198  0.7607
  787MOL0     H 8552   8.451   3.977   1.773 -0.8232 -0.1619  0.3960
  787MOL0     H 8553   8.592   4.212   1.639 -1.5932 -0.4357  0.5330
  787MOL0     H 8554   8.661   4.169   1.797  0.0423 -1.3947  1.1051
  787MOL0     H 8555   8.709   3.880   1.828 -3.2365  1.8249  0.7639
  787MOL0     H 8556   8.945   3.707   1.571  1.5675  2.2663  0.3582
  787MOL0     H 8557   8.831   3.605   1.676  2.4895 -0.2246  1.5985
  787MOL0     H 8558   8.936   3.703   1.877  0.5759  0.2134 -1.0596
  787MOL0     H 8559   9.061   3.661   1.760 -0.3481  0.3430 -2.0224
  787MOL0     H 8560   9.108   3.877   1.683 -1.7134 -1.3016 -1.4516
  787MOL0     H 8561   8.985   3.956   1.774 -1.9601 -1.0853 -1.9059
  787MOL0     H 8562   9.064   3.894   1.990  1.0558 -1.9440  0.7875
  787MOL0     H 8563   9.199   3.800   1.922 -1.9851 -1.1562 -0.1945
  787MOL0     H 8564   9.355   4.215   1.884  0.9246  1.8403  0.3560
  787MOL0     H 8565   9.624   4.315   2.095 -0.2020  1.3525 -0.1503
  787MOL0     H 8566   9.506   4.437   2.105 -1.5955  0.5575 -0.8007
  787MOL0     H 8567   9.529   4.358   1.948 -0.9429  1.7456 -0.0655
  787MOL0     H 8568   9.413   4.279   2.638 -0.6794 -2.6399  1.6130
  787MOL0     H 8569   9.512   4.391   2.812 -1.4254 -1.1987 -0.3296
  787MOL0     H 8570   9.666   4.512   2.970 -0.4978 -0.1334  0.9120
  787MOL0     H 8571   9.664   4.333   3.001 -1.4910  0.8302 -0.4698
  787MOL0     H 8572   9.881   4.551   3.058 -0.4610 -0.5080 -3.5177
  787MOL0     H 8573   9.783   4.467   3.173  0.3880  0.7669  0.3511
  787MOL0     H 8574   9.993   4.335   2.997 -0.3455  1.1069  0.2230
  787MOL0     H 8575   9.893   4.246   3.109  2.2982 -1.5580  1.0501
  787MOL0     H 8576  10.005   4.395   3.303 -0.7648 -0.6575  0.0167
  787MOL0     H 8577  10.101   4.465   3.166  1.3452 -1.8222 -0.2141
  787MOL0     H 8578  10.105   4.159   3.206  4.2270 -1.2586 -0.3848
  787MOL0     H 8579  10.216   4.273   3.143 -0.1457 -2.4465 -0.7233
  787MOL0     H 8580  10.139   4.240   3.434 -0.9048 -2.3300 -0.7950
  787MOL0     H 8581  10.269   4.351   3.369  2.0983 -0.7950 -2.2416
  787MOL0     H 8582  10.370   4.144   3.248 -2.0968 -1.8931 -1.4089
  787MOL0     H 8583  10.243   4.047   3.324 -1.2685  1.2714 -2.0832
  787MOL0     H 8584  10.444   4.023   3.441 -0.1578 -0.9414  3.1416
  787MOL0     H 8585  10.303   4.065   3.540  0.5104 -1.8904 -1.1260
  787MOL0     H 8586   9.902   4.277   2.656  0.1414 -0.6389  2.1395
  787MOL0     H 8587   9.784   4.182   2.458 -4.3346  3.2652 -3.6928
  787MOL0     H 8588   9.338   4.011   2.334 -1.0393 -2.5472 -0.7377
  787MOL0     H 8589   9.195   3.915   2.144 -0.4084  0.1004 -1.1103
  787MOL0     H 8590   7.705   3.672   2.310 -0.1333 -1.2198 -0.9862
  787MOL0     H 8591   7.464   3.642   2.355 -0.2008 -1.4320 -2.5133
  787MOL0     H 8592   6.900   3.898   2.199  1.9698 -2.6585 -1.1248
  787MOL0     H 8593   6.695   3.908   2.340 -0.7279 -0.6915  0.2435
  787MOL0     H 8594   6.729   3.883   2.778  0.7104 -0.7037 -1.1393
  787MOL0     H 8595   6.560   3.883   2.747  0.3032 -0.4006 -0.1601
  787MOL0     H 8596   6.686   3.665   2.841 -0.0909 -0.4133  0.1796
  787MOL0     H 8597   6.728   3.640   2.672  2.6887  1.3605  1.7710
  787MOL0     H 8598   6.472   3.645   2.605  1.3015  1.0043  0.2736
  787MOL0     H 8599   6.515   3.511   2.705 -0.6143 -1.0667 -0.1204
  787MOL0     H 8600   6.388   3.764   2.822  1.7450  0.1271  3.0936
  787MOL0     H 8601   6.444   3.619   2.904  0.3119 -1.1749 -0.9315
  787MOL0     H 8602   6.074   3.494   2.729  0.6803 -0.6092 -1.8903
  787MOL0     H 8603   6.913   3.786   2.687 -1.0688  2.5543  0.2779
  787MOL0     H 8604   7.146   3.719   2.678  0.3622  0.3863 -0.2333
  787MOL0     H 8605   7.227   3.726   2.523 -0.6441 -1.1098 -0.0176
  787MOL0     H 8606   7.212   3.873   2.611 -2.2622  1.2085 -1.8940
  788MOL0     O 8607   0.166   6.691   7.324 -0.6144  0.2482  0.8254
  788MOL0     C 8608   0.126   6.750   7.224  0.7877  0.2476 -0.4338
  788MOL0     O 8609   0.191   6.753   7.100  0.5892  0.9801 -0.1455
  788MOL0     C 8610   0.316   6.698   7.081  0.9765 -0.7521 -0.7361
  788MOL0     C 8611   0.423   6.687   7.179  0.6191  0.1291  0.2792
  788MOL0     C 8612   0.547   6.635   7.146  0.7215 -0.2451  0.2651
  788MOL0     C 8613   0.570   6.596   7.010 -0.5982 -0.6135 -0.3981
  788MOL0     O 8614   0.695   6.550   6.986  0.6457  0.1630 -0.5443
  788MOL0     C 8615   0.789   6.663   6.975  0.3262 -0.4044 -0.6854
  788MOL0     C 8616   0.936   6.619   6.964  0.4088 -0.2004 -0.5101
  788MOL0     C 8617   0.956   6.524   6.848 -0.4145  0.1057  0.1127
  788MOL0     C 8618   1.079   6.443   6.873 -1.3575 -0.7695 -0.3543
  788MOL0     C 8619   1.097   6.329   6.773  0.3831 -0.1544 -0.9719
  788MOL0     C 8620   1.228   6.248   6.782 -0.0894 -0.1620 -0.8834
  788MOL0     C 8621   1.208   6.112   6.699 -0.1752 -0.4129 -0.5754
  788MOL0     C 8622   1.118   6.020   6.779  0.9587 -0.6266  0.6458
  788MOL0     N 8623   1.159   5.884   6.732 -0.8118 -0.8043 -0.3621
  788MOL0     C 8624   1.128   5.831   6.617  0.0232  0.2906  0.0734
  788MOL0     C 8625   1.202   5.719   6.609 -1.0919 -0.0846 -0.6300
  788MOL0     C 8626   1.195   5.619   6.502  0.0776  0.0985 -0.3666
  788MOL0     C 8627   1.109   5.503   6.554 -0.1800  0.2063  0.1407
  788MOL0     C 8628   1.084   5.391   6.458  0.0835 -0.3049  0.4398
  788MOL0     C 8629   0.994   5.437   6.342  0.1136 -0.6426 -0.2298
  788MOL0     O 8630   0.866   5.473   6.395  0.6303 -0.6005 -0.2137
  788MOL0     C 8631   0.754   5.461   6.317  0.7278 -0.2854 -0.4764
  788MOL0     C 8632   0.734   5.398   6.197 -0.3944 -0.4538  0.4870
  788MOL0     C 8633   0.612   5.390   6.128  0.6424 -0.1089  0.0721
  788MOL0     C 8634   0.598   5.310   6.003  0.1524 -0.5500  1.5911
  788MOL0     C 8635   0.510   5.473   6.176  0.1808  0.0311 -0.6888
  788MOL0     C 8636   0.368   5.475   6.131  0.2121  0.3010 -0.2335
  788MOL0     O 8637   0.320   5.368   6.061  0.1542 -0.1571  0.7959
  788MOL0     C 8638   0.192   5.380   6.016 -0.2392  0.7865 -0.6668
  788MOL0     C 8639   0.166   5.457   5.904  0.7418 -0.6689  0.1450
  788MOL0     C 8640   0.041   5.463   5.846 -0.7760 -0.8590 -0.1281
  788MOL0     C 8641  -0.065   5.392   5.905  0.2126 -0.3248  0.4860
  788MOL0     O 8642  -0.175   5.385   5.822 -0.3402  0.2525 -0.1154
  788MOL0     C 8643  -0.241   5.255   5.812  0.4696  0.1195 -0.4691
  788MOL0     C 8644  -0.350   5.262   5.703 -0.1871  0.2847  0.0010
  788MOL0     C 8645  -0.456   5.155   5.712  0.4577  0.1288 -0.5540
  788MOL0     C 8646  -0.562   5.181   5.820  0.1008 -0.5003 -0.4327
  788MOL0     C 8647  -0.702   5.173   5.762  0.3743  0.0796  0.2648
  788MOL0     C 8648  -0.832   5.179   5.844  0.6656 -0.0740  0.0924
  788MOL0     C 8649  -0.950   5.178   5.748 -0.2192  0.8642  0.0650
  788MOL0     C 8650  -1.075   5.130   5.809 -0.3217 -0.0250  0.3031
  788MOL0    Cl 8651  -1.149   5.266   5.898  0.0741 -0.0136  0.1324
  788MOL0     C 8652  -0.047   5.317   6.020  0.0646 -0.5226 -0.3170
  788MOL0     C 8653   0.082   5.316   6.083 -0.0503 -0.0667 -0.1312
  788MOL0     O 8654   0.296   5.571   6.173 -0.3298  0.8200  0.3332
  788MOL0     C 8655   0.529   5.539   6.298 -0.7915 -1.1203 -0.8517
  788MOL0     C 8656   0.649   5.533   6.372  0.5796  0.6097  0.6689
  788MOL0     N 8657   1.290   5.716   6.717  0.3150  0.3003 -0.2197
  788MOL0     N 8658   1.265   5.820   6.791  0.3097  0.2245 -0.6144
  788MOL0     C 8659   0.469   6.594   6.917 -0.1731  0.1608  1.0457
  788MOL0     C 8660   0.343   6.645   6.948  0.8334  0.1082 -1.1710
  788MOL0     C 8661  -0.016   6.795   7.233  0.9859 -0.2461 -0.8125
  788MOL0     C 8662  -0.069   6.873   7.121  0.2720  0.1919  0.2975
  788MOL0     C 8663  -0.201   6.930   7.125 -1.0223 -0.0138  0.9034
  788MOL0     C 8664  -0.281   6.909   7.238  0.3667  0.7663  0.5986
  788MOL0     O 8665  -0.407   6.949   7.227  0.7663  0.4506  0.2248
  788MOL0     C 8666  -0.421   7.094   7.215 -0.2045 -0.1972  0.0544
  788MOL0     C 8667  -0.573   7.118   7.206 -0.5790  0.4164  0.7206
  788MOL0     C 8668  -0.618   7.267   7.244  0.3902  1.1713 -0.1349
  788MOL0     C 8669  -0.548   7.376   7.159  0.1338  0.0769  0.5205
  788MOL0     C 8670  -0.423   7.408   7.230  0.5480  0.2263 -0.2585
  788MOL0     C 8671  -0.327   7.420   7.302 -0.1037 -0.7956 -0.3184
  788MOL0     C 8672  -0.230   6.826   7.345 -0.5220  0.0328  0.6252
  788MOL0     C 8673  -0.099   6.773   7.345  0.1340  0.8117 -0.3271
  788MOL0     C 8674  -0.062   6.682   7.470  0.2676  0.6014 -1.0222
  788MOL0     H 8675   0.407   6.728   7.278  2.5886  1.5020  0.0754
  788MOL0     H 8676   0.624   6.645   7.223  2.1412 -2.2259 -0.7963
  788MOL0     H 8677   0.780   6.729   7.061 -2.3828 -2.7527  1.0498
  788MOL0     H 8678   0.756   6.724   6.890  2.0358  0.3017 -0.8748
  788MOL0     H 8679   1.006   6.703   6.956  0.8291 -0.0663  3.0969
  788MOL0     H 8680   0.960   6.574   7.060  2.5412 -0.7319 -1.2419
  788MOL0     H 8681   0.869   6.458   6.844 -1.0310  0.8877  0.3969
  788MOL0     H 8682   0.977   6.587   6.761  0.5348 -0.8332 -0.3675
  788MOL0     H 8683   1.165   6.510   6.875 -0.7981 -1.3346  3.6571
  788MOL0     H 8684   1.076   6.403   6.975  2.2279 -1.0081 -0.2387
  788MOL0     H 8685   1.078   6.361   6.670  0.7147 -1.3101 -1.4089
  788MOL0     H 8686   1.016   6.257   6.790  1.4952 -1.0994  0.4810
  788MOL0     H 8687   1.307   6.314   6.745  2.1043 -1.7120  0.8261
  788MOL0     H 8688   1.243   6.227   6.888 -0.1547 -0.9300 -1.0213
  788MOL0     H 8689   1.305   6.064   6.687  0.0673 -0.8951  2.5209
  788MOL0     H 8690   1.158   6.139   6.605 -0.6133 -0.7483 -0.4385
  788MOL0     H 8691   1.138   6.027   6.886  1.2680 -0.5724  0.5862
  788MOL0     H 8692   1.011   6.032   6.759  1.2683 -1.1570 -1.7269
  788MOL0     H 8693   1.069   5.859   6.531  1.2679 -1.4742 -1.4492
  788MOL0     H 8694   1.296   5.584   6.477  2.0632  3.4456  2.0320
  788MOL0     H 8695   1.150   5.657   6.409 -0.2497 -1.8606 -1.0481
  788MOL0     H 8696   1.166   5.466   6.640 -1.3209  1.2177  1.3571
  788MOL0     H 8697   1.018   5.544   6.597  0.8409  0.2531  2.4028
  788MOL0     H 8698   1.175   5.351   6.413 -0.8597 -1.7315 -0.2767
  788MOL0     H 8699   1.034   5.312   6.514 -1.7456 -0.2206 -0.9626
  788MOL0     H 8700   1.039   5.520   6.288 -1.2446  0.0105 -0.3831
  788MOL0     H 8701   0.995   5.344   6.283 -0.0570 -0.5272 -0.4149
  788MOL0     H 8702   0.815   5.328   6.178  0.7630  0.2934  2.3777
  788MOL0     H 8703   0.533   5.224   6.021 -2.7187  1.3062  0.6584
  788MOL0     H 8704   0.694   5.268   5.973 -0.0434  1.1076 -1.7257
  788MOL0     H 8705   0.555   5.376   5.927 -0.6925 -0.9146  1.7407
  788MOL0     H 8706   0.252   5.505   5.860  0.1748  1.5957  1.3134
  788MOL0     H 8707   0.035   5.531   5.761 -0.7130 -0.2407  0.3501
  788MOL0     H 8708  -0.172   5.170   5.805  2.3960  1.2577  2.6909
  788MOL0     H 8709  -0.302   5.235   5.901 -2.5870 -0.9352 -2.6013
  788MOL0     H 8710  -0.395   5.362   5.703  1.3027  1.0306  2.1961
  788MOL0     H 8711  -0.296   5.255   5.609 -1.5279  3.1839 -1.1175
  788MOL0     H 8712  -0.406   5.060   5.735 -0.8238  0.2012  3.2637
  788MOL0     H 8713  -0.505   5.160   5.614  1.6332  0.2708 -1.1448
  788MOL0     H 8714  -0.549   5.283   5.858 -2.0958  0.5036 -2.1654
  788MOL0     H 8715  -0.555   5.118   5.909 -2.7690 -1.6088 -0.8852
  788MOL0     H 8716  -0.714   5.246   5.681 -1.0765 -1.4129 -0.9322
  788MOL0     H 8717  -0.707   5.079   5.707  0.0042 -0.2044  0.7784
  788MOL0     H 8718  -0.848   5.275   5.896  0.5491  0.5123 -0.9943
  788MOL0     H 8719  -0.838   5.091   5.908  0.3118 -2.9716 -3.6159
  788MOL0     H 8720  -0.931   5.102   5.671  1.3162  2.3488 -1.0970
  788MOL0     H 8721  -0.959   5.272   5.692  1.9513  0.7359 -0.6123
  788MOL0     H 8722  -1.063   5.049   5.882  1.0066 -0.0625  0.0593
  788MOL0     H 8723  -1.143   5.081   5.738 -1.9518  0.2439  1.6194
  788MOL0     H 8724  -0.126   5.260   6.069  2.3993 -2.6032  1.2687
  788MOL0     H 8725   0.090   5.278   6.185 -0.7707  3.1451  1.2510
  788MOL0     H 8726   0.448   5.595   6.343 -1.0568 -2.2136  0.0799
  788MOL0     H 8727   0.649   5.597   6.460 -3.0369 -1.5495  2.4634
  788MOL0     H 8728   0.473   6.578   6.810 -0.5601  0.0127  1.0523
  788MOL0     H 8729   0.273   6.650   6.866  2.5302  0.2460 -2.6632
  788MOL0     H 8730  -0.015   6.888   7.028 -1.9687 -0.4699 -1.1963
  788MOL0     H 8731  -0.252   6.963   7.034  0.6369 -4.5657 -2.0214
  788MOL0     H 8732  -0.384   7.143   7.306  0.0069  1.1546 -0.7285
  788MOL0     H 8733  -0.363   7.135   7.132 -0.4662 -1.8422 -0.9922
  788MOL0     H 8734  -0.629   7.046   7.265  0.3032  0.8627  2.1391
  788MOL0     H 8735  -0.611   7.091   7.107  0.2633  0.9972  0.2280
  788MOL0     H 8736  -0.725   7.274   7.225 -0.0363  1.5096  2.0914
  788MOL0     H 8737  -0.598   7.277   7.351 -1.9390  1.8078  0.2819
  788MOL0     H 8738  -0.615   7.461   7.143 -0.0622  0.0270  1.0346
  788MOL0     H 8739  -0.532   7.344   7.056  0.6455  0.1082  0.5899
  788MOL0     H 8740  -0.238   7.429   7.362 -0.9055  1.2183  0.6434
  788MOL0     H 8741  -0.287   6.803   7.434 -3.5067 -2.8707 -1.7818
  788MOL0     H 8742  -0.151   6.669   7.532 -0.3155  2.2962 -1.4283
  788MOL0     H 8743  -0.022   6.584   7.444 -0.1235 -0.3510  1.6311
  788MOL0     H 8744   0.023   6.710   7.533  0.6472  0.2998 -1.3975
  789MOL0     O 8745   7.134   1.036   2.456 -0.1011  0.2999 -0.3359
  789MOL0     C 8746   7.063   1.118   2.507 -0.1069 -0.0370  0.6415
  789MOL0     O 8747   7.029   1.234   2.455  0.3472  0.1982  0.7727
  789MOL0     C 8748   7.082   1.272   2.341  0.3026  0.4515 -0.2020
  789MOL0     C 8749   7.147   1.394   2.337 -0.3768 -0.5041  0.2577
  789MOL0     C 8750   7.205   1.447   2.218  0.3726 -0.6664 -0.2032
  789MOL0     C 8751   7.208   1.377   2.100 -0.3665 -0.0141 -0.5878
  789MOL0     O 8752   7.273   1.417   1.992 -0.1006 -0.8780 -0.4723
  789MOL0     C 8753   7.397   1.489   2.018  0.9454  0.5408  0.2685
  789MOL0     C 8754   7.502   1.460   1.913  0.6327  0.3334  0.5498
  789MOL0     C 8755   7.640   1.532   1.932  0.6995 -0.2909 -0.9283
  789MOL0     C 8756   7.720   1.469   2.045 -0.1673  0.3028 -0.2452
  789MOL0     C 8757   7.866   1.524   2.060  0.9220  0.1681 -0.6850
  789MOL0     C 8758   7.965   1.484   1.955  0.4206 -0.2507 -0.1062
  789MOL0     C 8759   8.106   1.546   1.976  0.4301 -0.6629  0.1072
  789MOL0     C 8760   8.160   1.534   2.121 -0.2642  0.5611  0.1551
  789MOL0     N 8761   8.300   1.575   2.106 -0.4012 -0.1983 -0.0085
  789MOL0     C 8762   8.393   1.506   2.043 -0.2146  0.1454 -0.0432
  789MOL0     C 8763   8.501   1.582   2.053  1.2475 -0.6590  0.8500
  789MOL0     C 8764   8.628   1.554   1.979  0.4970  0.0565  0.5298
  789MOL0     C 8765   8.728   1.467   2.053 -0.2303 -0.4555 -0.4439
  789MOL0     C 8766   8.786   1.524   2.183 -0.0139 -0.2782 -0.3455
  789MOL0     C 8767   8.925   1.449   2.202 -0.2545  0.5363 -0.3000
  789MOL0     O 8768   8.994   1.513   2.312  0.1438 -0.1056  0.5306
  789MOL0     C 8769   9.097   1.447   2.371  0.0483 -0.0829 -0.7969
  789MOL0     C 8770   9.145   1.489   2.495 -0.1394  0.3571  0.7223
  789MOL0     C 8771   9.241   1.414   2.567 -1.0197 -0.0686  0.5174
  789MOL0     C 8772   9.291   1.478   2.697  1.1326  0.0943 -0.6247
  789MOL0     C 8773   9.292   1.297   2.501 -0.6193  0.4304 -0.1046
  789MOL0     C 8774   9.398   1.207   2.558 -0.2080 -1.0097  0.0280
  789MOL0     O 8775   9.437   1.115   2.472  0.0782  0.5924 -0.1827
  789MOL0     C 8776   9.505   1.019   2.540  0.2754  0.2736 -0.1709
  789MOL0     C 8777   9.454   0.893   2.578  0.9030  0.4293 -0.0590
  789MOL0     C 8778   9.536   0.799   2.630  0.5219  0.1011  0.1209
  789MOL0     C 8779   9.676   0.817   2.634  0.1112  0.2460 -0.2816
  789MOL0     O 8780   9.774   0.737   2.675  0.2205  0.5878 -0.5747
  789MOL0     C 8781   9.761   0.606   2.626  0.2403 -0.1393 -0.8739
  789MOL0     C 8782   9.896   0.531   2.645  0.1737 -0.5039  0.0917
  789MOL0     C 8783   9.995   0.596   2.547  0.1631 -0.2239  0.0798
  789MOL0     C 8784  10.129   0.513   2.571  0.4711 -0.0086  0.4992
  789MOL0     C 8785  10.247   0.559   2.474 -0.7648 -1.1392 -0.1157
  789MOL0     C 8786  10.362   0.461   2.487  1.3200  1.2895 -1.7462
  789MOL0     C 8787  10.478   0.505   2.409  0.1893 -0.5307 -0.0034
  789MOL0     C 8788  10.600   0.553   2.493 -0.0815  0.5708  0.4370
  789MOL0    Cl 8789  10.718   0.638   2.390 -0.1540 -0.4723 -0.0764
  789MOL0     C 8790   9.725   0.941   2.605  0.1932 -0.0340 -0.1532
  789MOL0     C 8791   9.646   1.048   2.565 -0.4948 -0.1399 -0.0220
  789MOL0     O 8792   9.442   1.233   2.670  0.2296  0.1179  0.0347
  789MOL0     C 8793   9.236   1.252   2.381  0.0622 -0.1936 -0.2437
  789MOL0     C 8794   9.146   1.324   2.313 -1.0469 -0.3129 -0.9911
  789MOL0     N 8795   8.466   1.702   2.108  0.1972  0.3880  0.0257
  789MOL0     N 8796   8.344   1.693   2.145 -0.3786 -0.2465 -0.4124
  789MOL0     C 8797   7.141   1.254   2.104 -0.4014  0.2132  0.4015
  789MOL0     C 8798   7.072   1.200   2.217 -0.4104 -0.6459 -0.3558
  789MOL0     C 8799   7.012   1.095   2.640  0.1672 -0.3973 -0.3867
  789MOL0     C 8800   6.885   1.143   2.677  0.1714  0.7407  0.5785
  789MOL0     C 8801   6.827   1.126   2.799  0.0919 -0.1712  0.4556
  789MOL0     C 8802   6.897   1.060   2.901 -0.2565 -0.7321  0.5546
  789MOL0     O 8803   6.825   1.050   3.015  0.3937  0.5591 -0.4172
  789MOL0     C 8804   6.885   0.979   3.124 -0.2491  0.1389  0.5938
  789MOL0     C 8805   7.004   1.060   3.188 -0.2794  0.3061  0.3845
  789MOL0     C 8806   7.106   0.972   3.255  0.0558 -0.7732  0.5123
  789MOL0     C 8807   7.198   0.907   3.153 -0.4493  0.0605  0.1047
  789MOL0     C 8808   7.313   0.857   3.215  0.2539  0.5892 -1.0706
  789MOL0     C 8809   7.414   0.816   3.276 -0.2026  0.0350  1.1644
  789MOL0     C 8810   7.017   0.997   2.867 -0.3171 -1.1186 -0.2501
  789MOL0     C 8811   7.075   1.012   2.742 -2.0287 -1.1093 -0.4491
  789MOL0     C 8812   7.213   0.944   2.719 -0.7311  0.5093 -0.1203
  789MOL0     H 8813   7.141   1.465   2.419 -1.7309  0.2514 -0.4591
  789MOL0     H 8814   7.260   1.540   2.230 -0.0724 -0.3734 -0.4052
  789MOL0     H 8815   7.436   1.442   2.109  0.3114 -1.2042 -0.3059
  789MOL0     H 8816   7.374   1.595   2.027 -1.3172  0.1392 -0.1920
  789MOL0     H 8817   7.507   1.351   1.914 -0.9456  0.2337  1.7960
  789MOL0     H 8818   7.456   1.496   1.820 -2.0066 -2.5035  0.5905
  789MOL0     H 8819   7.704   1.516   1.845  2.5288 -0.9291  0.4710
  789MOL0     H 8820   7.632   1.640   1.945  0.6757 -0.2981 -0.8800
  789MOL0     H 8821   7.669   1.496   2.138  1.5688  3.0308  0.0287
  789MOL0     H 8822   7.715   1.362   2.027 -0.5842  0.6205 -2.3580
  789MOL0     H 8823   7.908   1.495   2.157  1.2995 -0.6978 -1.1076
  789MOL0     H 8824   7.839   1.631   2.056 -1.8285 -0.4039  0.0731
  789MOL0     H 8825   7.969   1.375   1.970 -2.7310 -0.4958 -0.3550
  789MOL0     H 8826   7.925   1.498   1.854  1.0971  2.0310 -0.1014
  789MOL0     H 8827   8.104   1.650   1.943 -3.4592 -0.7919 -0.6215
  789MOL0     H 8828   8.170   1.493   1.905 -0.8729 -0.2364 -1.4499
  789MOL0     H 8829   8.110   1.601   2.191  0.9427  2.3609 -0.6283
  789MOL0     H 8830   8.135   1.432   2.153  0.9560 -0.1661 -1.0964
  789MOL0     H 8831   8.374   1.412   1.992 -1.6083 -0.7484  1.9940
  789MOL0     H 8832   8.667   1.653   1.955 -0.9108 -0.0482 -2.7921
  789MOL0     H 8833   8.601   1.504   1.886  0.9613  1.1477 -0.2164
  789MOL0     H 8834   8.678   1.371   2.072 -1.1902  0.2507  0.6716
  789MOL0     H 8835   8.808   1.455   1.978 -1.8100  2.1749 -2.7459
  789MOL0     H 8836   8.797   1.633   2.186  1.9106 -0.4399  2.1166
  789MOL0     H 8837   8.721   1.495   2.266 -0.0445  0.6663 -0.0355
  789MOL0     H 8838   8.909   1.342   2.214  1.2953  0.2530 -0.5170
  789MOL0     H 8839   8.980   1.459   2.108 -0.5884 -0.5856 -0.6217
  789MOL0     H 8840   9.100   1.584   2.523 -2.9901 -1.0292  1.2497
  789MOL0     H 8841   9.258   1.581   2.710 -1.0689 -0.4091 -1.8893
  789MOL0     H 8842   9.400   1.476   2.708  1.2694  2.3519 -1.0557
  789MOL0     H 8843   9.243   1.429   2.782  0.4356 -1.5599 -1.9095
  789MOL0     H 8844   9.348   0.872   2.570  0.8864  0.0919  0.9875
  789MOL0     H 8845   9.493   0.703   2.657 -1.5899  1.0717  0.3978
  789MOL0     H 8846   9.692   0.554   2.694 -1.0057 -0.6206 -2.4210
  789MOL0     H 8847   9.737   0.603   2.519 -2.3297  1.6147 -0.4290
  789MOL0     H 8848   9.937   0.557   2.742  0.6832  0.2779 -0.3281
  789MOL0     H 8849   9.890   0.422   2.639  2.3969 -0.8526  2.6324
  789MOL0     H 8850  10.024   0.696   2.581  0.1716 -0.5999  1.2243
  789MOL0     H 8851   9.967   0.596   2.442 -0.4286  2.1683  0.1783
  789MOL0     H 8852  10.113   0.410   2.536  2.1782 -1.0756  2.6149
  789MOL0     H 8853  10.159   0.508   2.676  0.4629  3.7813  0.7956
  789MOL0     H 8854  10.217   0.561   2.369  1.8827  0.6970 -0.9512
  789MOL0     H 8855  10.288   0.655   2.507  0.7155 -0.9840 -2.2723
  789MOL0     H 8856  10.317   0.371   2.445  0.8653  1.4759 -1.6576
  789MOL0     H 8857  10.379   0.430   2.591  0.7367 -1.0876 -2.2940
  789MOL0     H 8858  10.449   0.582   2.337  3.4074  0.8287 -0.0087
  789MOL0     H 8859  10.509   0.416   2.354 -2.4055 -1.4135 -0.1781
  789MOL0     H 8860  10.654   0.465   2.528 -0.7683 -0.1250 -0.2056
  789MOL0     H 8861  10.568   0.604   2.584 -0.6315  0.4182  0.3313
  789MOL0     H 8862   9.830   0.963   2.617 -0.2330  3.0692 -1.2048
  789MOL0     H 8863   9.685   1.147   2.542  0.1686 -0.1931  0.8306
  789MOL0     H 8864   9.243   1.150   2.344 -0.8957 -0.6591  0.7964
  789MOL0     H 8865   9.099   1.289   2.222  0.3312  1.5450 -2.4971
  789MOL0     H 8866   7.147   1.193   2.015  1.3520  1.6625 -0.5440
  789MOL0     H 8867   7.013   1.110   2.234 -1.4385  0.6560  4.7926
  789MOL0     H 8868   6.819   1.196   2.609 -1.8244 -0.6743  1.3112
  789MOL0     H 8869   6.726   1.153   2.830 -0.5923 -0.1116 -1.6727
  789MOL0     H 8870   6.803   0.970   3.195 -3.2300  1.0353 -2.4599
  789MOL0     H 8871   6.923   0.880   3.096  3.1040  2.0291 -2.4521
  789MOL0     H 8872   6.961   1.124   3.266  2.0267  1.7740  0.5739
  789MOL0     H 8873   7.052   1.125   3.115 -2.1575  1.0540 -0.2474
  789MOL0     H 8874   7.161   1.041   3.320 -2.6241 -1.1533  3.3878
  789MOL0     H 8875   7.060   0.892   3.314  0.1672  0.0125  1.7055
  789MOL0     H 8876   7.237   0.978   3.079  2.9367 -1.5114  0.1995
  789MOL0     H 8877   7.147   0.832   3.093 -0.1434  0.7942 -1.1184
  789MOL0     H 8878   7.495   0.761   3.320 -0.9546 -2.0279  0.1206
  789MOL0     H 8879   7.075   0.931   2.931  3.2170  1.3811 -0.5922
  789MOL0     H 8880   7.212   0.865   2.643  0.8731  1.5811 -1.3546
  789MOL0     H 8881   7.284   1.022   2.687 -1.4645 -0.3217 -4.2980
  789MOL0     H 8882   7.250   0.898   2.811 -0.7326  1.2071  0.2335
  790MOL0     O 8883  10.479   7.480   0.867 -0.9766 -0.3677 -0.0914
  790MOL0     C 8884  10.501   7.602   0.883  0.2345  0.9472  0.9842
  790MOL0     O 8885  10.630   7.665   0.876  0.0247 -0.2704 -0.3914
  790MOL0     C 8886  10.732   7.573   0.872  0.4965  0.1434 -0.1894
  790MOL0     C 8887  10.740   7.457   0.946  0.4897 -0.0002 -0.1908
  790MOL0     C 8888  10.854   7.383   0.944 -0.0065 -0.5286 -0.4928
  790MOL0     C 8889  10.972   7.417   0.869  0.0429 -1.2792  0.7814
  790MOL0     O 8890  11.099   7.352   0.865 -0.0105 -0.1246  0.4287
  790MOL0     C 8891  11.107   7.219   0.931  0.0975 -0.4278  0.4427
  790MOL0     C 8892  11.229   7.137   0.859 -0.1047 -0.2348 -0.6962
  790MOL0     C 8893  11.204   7.052   0.737  0.1583 -0.0606  0.4629
  790MOL0     C 8894  11.226   7.115   0.603  0.2775  0.6726  0.3162
  790MOL0     C 8895  11.294   7.025   0.505  0.2230  0.1759  0.4933
  790MOL0     C 8896  11.438   7.020   0.527 -0.3872  1.2184  1.2414
  790MOL0     C 8897  11.506   6.911   0.452 -0.1850  0.1859 -0.0375
  790MOL0     C 8898  11.659   6.934   0.470 -0.0312  0.5835 -0.0246
  790MOL0     N 8899  11.729   6.820   0.407  0.2764 -0.2867  0.0045
  790MOL0     C 8900  11.765   6.809   0.274  0.8447  0.3716  0.1088
  790MOL0     C 8901  11.842   6.695   0.274 -1.0061 -0.0868 -0.3598
  790MOL0     C 8902  11.925   6.655   0.165 -0.5517  0.4171 -0.8943
  790MOL0     C 8903  12.048   6.741   0.150 -0.5064  0.7392 -1.3531
  790MOL0     C 8904  12.169   6.671   0.077  0.0126 -0.1283  0.3943
  790MOL0     C 8905  12.309   6.715   0.120  0.0179 -0.6731 -0.3521
  790MOL0     O 8906  12.309   6.673   0.253 -0.8231  0.4889 -0.3863
  790MOL0     C 8907  12.419   6.687   0.334 -0.1617  0.4766 -0.8611
  790MOL0     C 8908  12.522   6.771   0.309  0.2336  0.2427 -0.4280
  790MOL0     C 8909  12.626   6.793   0.404  1.1071  0.2965 -1.3733
  790MOL0     C 8910  12.738   6.885   0.376 -0.3513 -0.9484 -0.1358
  790MOL0     C 8911  12.613   6.724   0.529  0.2389  0.3757  0.3088
  790MOL0     C 8912  12.729   6.744   0.618  0.9481 -0.2333  0.2170
  790MOL0     O 8913  12.860   6.742   0.572 -0.2596  0.0365  0.9983
  790MOL0     C 8914  12.969   6.749   0.666 -0.5112 -0.6875 -0.2648
  790MOL0     C 8915  13.055   6.856   0.665 -0.5908  0.3894  1.0091
  790MOL0     C 8916  13.147   6.873   0.767  0.0256  0.4979 -0.0366
  790MOL0     C 8917  13.162   6.787   0.871 -0.0399 -0.5128 -0.0400
  790MOL0     O 8918  13.249   6.809   0.974 -0.2674 -0.1040 -0.5503
  790MOL0     C 8919  13.332   6.923   0.987 -0.1236  0.5733 -0.1175
  790MOL0     C 8920  13.441   6.904   1.094 -0.0140  1.5015 -1.1653
  790MOL0     C 8921  13.523   7.036   1.100 -0.7153 -0.8125  0.7776
  790MOL0     C 8922  13.652   7.030   1.174 -0.1815  0.4703 -0.5865
  790MOL0     C 8923  13.730   7.165   1.189  0.1169  0.2413 -0.3469
  790MOL0     C 8924  13.875   7.144   1.243  0.7103 -0.8445 -0.4376
  790MOL0     C 8925  13.945   7.280   1.278  0.6901 -0.1177  0.1744
  790MOL0     C 8926  14.089   7.260   1.316 -0.0511 -0.1745 -0.6046
  790MOL0    Cl 8927  14.185   7.177   1.188  0.0171  0.9495  0.2147
  790MOL0     C 8928  13.083   6.674   0.867  0.0233  0.4104  0.7163
  790MOL0     C 8929  12.993   6.653   0.764 -0.1468 -0.3297  1.0305
  790MOL0     O 8930  12.699   6.770   0.735 -0.1975  0.5933 -0.0275
  790MOL0     C 8931  12.512   6.633   0.554  0.1228  0.6429 -0.5873
  790MOL0     C 8932  12.415   6.616   0.459  0.1833 -0.0699 -0.7857
  790MOL0     N 8933  11.844   6.645   0.397  0.1918  0.7895 -0.8602
  790MOL0     N 8934  11.775   6.714   0.478 -0.1443 -0.0378  0.2515
  790MOL0     C 8935  10.966   7.548   0.813 -0.5976 -0.2283  0.4376
  790MOL0     C 8936  10.853   7.623   0.811  0.0816 -0.3141 -0.3331
  790MOL0     C 8937  10.378   7.687   0.900  0.0898 -0.8741 -0.0700
  790MOL0     C 8938  10.407   7.817   0.843  0.2790  0.0838 -0.1964
  790MOL0     C 8939  10.305   7.911   0.841  0.0964  0.8421 -0.3349
  790MOL0     C 8940  10.180   7.882   0.888  0.4299  0.3939 -0.5144
  790MOL0     O 8941  10.089   7.987   0.896 -0.3582  0.5523 -0.1952
  790MOL0     C 8942  10.103   8.075   1.013  0.5877 -1.6086 -0.8468
  790MOL0     C 8943  10.014   8.203   1.010  0.3747  0.3617  0.2612
  790MOL0     C 8944   9.871   8.170   0.981  0.6983  0.6792  0.2744
  790MOL0     C 8945   9.765   8.286   0.997  0.1298  0.0947 -1.1093
  790MOL0     C 8946   9.752   8.399   0.907 -0.1470 -0.4446  0.0269
  790MOL0     C 8947   9.743   8.561   0.796 -0.1718  0.6839  0.8154
  790MOL0     C 8948  10.150   7.750   0.945  0.3817 -0.8909  0.4009
  790MOL0     C 8949  10.248   7.656   0.951  0.0668  0.3061  0.1577
  790MOL0     C 8950  10.225   7.532   1.021  0.3583 -0.1115 -0.9427
  790MOL0     H 8951  10.660   7.409   1.001  2.8919  0.1088  3.7306
  790MOL0     H 8952  10.855   7.298   1.012 -1.5322 -1.5594 -1.7005
  790MOL0     H 8953  11.009   7.173   0.914 -0.6510  1.5649 -1.0533
  790MOL0     H 8954  11.129   7.240   1.037 -0.6667  3.0339  0.0313
  790MOL0     H 8955  11.317   7.200   0.843 -0.7934  0.6827 -0.9346
  790MOL0     H 8956  11.253   7.062   0.935  0.4012 -0.4992 -1.1150
  790MOL0     H 8957  11.269   6.969   0.763  2.3460  1.0858 -1.0335
  790MOL0     H 8958  11.101   7.015   0.740  0.4989 -0.9983  1.0538
  790MOL0     H 8959  11.127   7.144   0.564 -0.8263 -0.5122  2.0754
  790MOL0     H 8960  11.283   7.206   0.622  0.6148  0.6071 -0.3666
  790MOL0     H 8961  11.263   7.059   0.406 -1.1859 -0.2045  0.7860
  790MOL0     H 8962  11.261   6.921   0.505  1.4403 -0.2528 -1.4660
  790MOL0     H 8963  11.477   7.121   0.521 -0.5626  1.2430  0.3848
  790MOL0     H 8964  11.446   6.992   0.633 -1.7800  0.0757  1.0755
  790MOL0     H 8965  11.467   6.898   0.350  0.4627  1.6958 -0.5104
  790MOL0     H 8966  11.481   6.818   0.504  0.4751 -1.6463 -2.7458
  790MOL0     H 8967  11.679   7.030   0.422 -2.2257 -1.2979 -5.4792
  790MOL0     H 8968  11.696   6.941   0.573  2.4146  0.7001 -0.8355
  790MOL0     H 8969  11.744   6.874   0.190 -0.5585  0.2436  0.3364
  790MOL0     H 8970  11.863   6.635   0.078 -1.0967 -4.1203  0.2761
  790MOL0     H 8971  11.967   6.557   0.191 -0.4755 -0.1920 -3.0991
  790MOL0     H 8972  12.011   6.813   0.075 -0.7965  3.0105  0.8463
  790MOL0     H 8973  12.072   6.792   0.243 -1.0700 -0.6753 -0.4089
  790MOL0     H 8974  12.156   6.569   0.113 -0.9536  0.3633  1.5064
  790MOL0     H 8975  12.154   6.676  -0.031  3.6726  0.7618 -0.2153
  790MOL0     H 8976  12.389   6.665   0.065  0.9132 -0.0563  0.3458
  790MOL0     H 8977  12.309   6.825   0.112  3.0137 -0.6979 -1.9662
  790MOL0     H 8978  12.520   6.834   0.220  1.9370 -0.1405 -0.7690
  790MOL0     H 8979  12.829   6.829   0.350 -0.6177 -1.4585  0.0103
  790MOL0     H 8980  12.768   6.963   0.446  0.2784  1.6381 -3.0726
  790MOL0     H 8981  12.714   6.949   0.291  0.0795 -0.1570  0.3237
  790MOL0     H 8982  13.061   6.932   0.588  1.7921 -0.5136  0.2078
  790MOL0     H 8983  13.198   6.969   0.770 -1.4730  1.3239  0.0181
  790MOL0     H 8984  13.385   6.953   0.897  0.0763 -0.8990 -0.5237
  790MOL0     H 8985  13.272   7.004   1.030  1.6197  0.3536  3.0952
  790MOL0     H 8986  13.394   6.877   1.189  3.1793  2.2715  0.7845
  790MOL0     H 8987  13.504   6.822   1.058  0.3493  0.4688  1.6221
  790MOL0     H 8988  13.471   7.118   1.152  1.7534  0.3016  1.6661
  790MOL0     H 8989  13.553   7.066   0.999  0.7132  0.8193  1.6305
  790MOL0     H 8990  13.724   6.954   1.142 -2.0407 -0.2281 -3.4950
  790MOL0     H 8991  13.627   7.000   1.276  0.6604 -2.0931 -1.0763
  790MOL0     H 8992  13.726   7.219   1.094 -2.8430 -1.4177 -1.3034
  790MOL0     H 8993  13.673   7.227   1.260 -0.4061 -1.2552  0.5850
  790MOL0     H 8994  13.919   7.089   1.160  0.8314  0.5483 -1.3174
  790MOL0     H 8995  13.868   7.081   1.333  2.7446  0.0796  0.4319
  790MOL0     H 8996  13.884   7.339   1.347  0.9775 -0.7451  0.9697
  790MOL0     H 8997  13.939   7.341   1.187 -1.0052 -0.2629  0.1511
  790MOL0     H 8998  14.094   7.205   1.411 -1.7688  0.1147 -0.3059
  790MOL0     H 8999  14.119   7.364   1.330 -0.9555  0.2216 -1.5025
  790MOL0     H 9000  13.110   6.596   0.937  0.8146 -1.1881 -1.2596
  790MOL0     H 9001  12.941   6.557   0.756  0.3886 -0.6629  1.4713
  790MOL0     H 9002  12.510   6.587   0.652 -0.4423  2.0808  0.0927
  790MOL0     H 9003  12.329   6.552   0.477 -0.3692  1.1266  1.2328
  790MOL0     H 9004  11.053   7.594   0.766 -0.6763 -2.2443 -1.8461
  790MOL0     H 9005  10.850   7.723   0.770  0.3273  0.3574  1.2026
  790MOL0     H 9006  10.501   7.848   0.798  0.2728 -0.6578 -0.7449
  790MOL0     H 9007  10.329   8.006   0.795  3.8752 -0.9695 -2.6818
  790MOL0     H 9008  10.085   8.017   1.104  3.5224 -0.5668  0.5058
  790MOL0     H 9009  10.208   8.106   1.021  0.4932 -1.5636  0.4380
  790MOL0     H 9010  10.054   8.269   0.932  0.5937  1.1002  0.9814
  790MOL0     H 9011  10.027   8.243   1.111  1.9660  0.7137 -0.0609
  790MOL0     H 9012   9.868   8.127   0.881 -2.0341  0.4552  0.3987
  790MOL0     H 9013   9.851   8.086   1.048  0.0098 -0.3089 -1.1222
  790MOL0     H 9014   9.783   8.317   1.101  1.4292 -0.7891 -1.0548
  790MOL0     H 9015   9.666   8.244   0.981 -0.2106  0.3595  0.1401
  790MOL0     H 9016   9.737   8.650   0.736  1.0360  0.2129 -0.0427
  790MOL0     H 9017  10.057   7.732   0.997  0.6844  1.8985  2.0979
  790MOL0     H 9018  10.171   7.468   0.951 -0.2686 -0.7418  0.0846
  790MOL0     H 9019  10.326   7.502   1.053 -0.9215 -1.6091  2.0733
  790MOL0     H 9020  10.168   7.549   1.113 -0.4451  1.3162 -1.6743
  791MOL0     O 9021   8.844   2.271   6.754 -0.0204 -0.0522  0.4049
  791MOL0     C 9022   8.818   2.157   6.787 -0.2120 -0.0085  0.8907
  791MOL0     O 9023   8.920   2.065   6.816  1.1041 -0.7105  0.3555
  791MOL0     C 9024   9.052   2.088   6.816  0.6198 -0.5912 -0.0991
  791MOL0     C 9025   9.112   2.089   6.934 -0.0095  0.6733 -0.0151
  791MOL0     C 9026   9.246   2.119   6.946  0.1001  0.0621 -1.0699
  791MOL0     C 9027   9.324   2.156   6.834 -0.0630  0.7501 -0.3265
  791MOL0     O 9028   9.459   2.192   6.842 -0.3815 -1.0545 -0.6149
  791MOL0     C 9029   9.545   2.163   6.955  0.2523 -0.6823 -0.1505
  791MOL0     C 9030   9.683   2.233   6.961  0.8785  0.4742  0.8664
  791MOL0     C 9031   9.766   2.183   6.845 -0.1967 -0.4149 -0.2008
  791MOL0     C 9032   9.892   2.274   6.835  0.5210  0.5975 -0.5952
  791MOL0     C 9033  10.013   2.204   6.775  0.3320  0.1831 -0.2951
  791MOL0     C 9034  10.122   2.305   6.719  0.3173  0.1567  1.2006
  791MOL0     C 9035  10.212   2.238   6.617 -0.3282 -0.5687  0.4950
  791MOL0     C 9036  10.140   2.234   6.481  0.2459 -0.1370  1.0011
  791MOL0     N 9037  10.240   2.184   6.382  0.6813 -0.0756  0.2830
  791MOL0     C 9038  10.336   2.268   6.328 -0.0098  0.5497  0.2335
  791MOL0     C 9039  10.384   2.198   6.224  0.0977  0.6744 -0.0931
  791MOL0     C 9040  10.485   2.243   6.124  0.5109 -0.3518  0.8211
  791MOL0     C 9041  10.636   2.232   6.177  0.2254 -0.5247 -0.3204
  791MOL0     C 9042  10.670   2.344   6.273 -0.3061  0.6227  0.6664
  791MOL0     C 9043  10.810   2.322   6.324 -0.5256 -0.0425  0.7931
  791MOL0     O 9044  10.909   2.379   6.234  0.1954 -0.1719 -0.5404
  791MOL0     C 9045  11.030   2.420   6.289 -0.3429  0.8114  0.2116
  791MOL0     C 9046  11.078   2.378   6.415  1.1756  0.6679 -0.2279
  791MOL0     C 9047  11.202   2.414   6.471  0.2472  0.0925 -0.6795
  791MOL0     C 9048  11.248   2.355   6.604 -0.3832 -0.1527  0.0699
  791MOL0     C 9049  11.294   2.489   6.398 -0.2466  0.1693 -0.0287
  791MOL0     C 9050  11.418   2.534   6.444  0.6676  0.6817  0.2916
  791MOL0     O 9051  11.521   2.531   6.349  0.2583  0.5899 -0.2251
  791MOL0     C 9052  11.634   2.603   6.374 -0.4516  0.6418 -0.1614
  791MOL0     C 9053  11.626   2.737   6.372 -0.4600 -0.0152 -0.3424
  791MOL0     C 9054  11.747   2.804   6.403 -1.2768 -0.9284 -1.3609
  791MOL0     C 9055  11.872   2.737   6.420  0.5022  0.3941  0.2792
  791MOL0     O 9056  11.984   2.809   6.437  0.1605 -0.2302  0.1973
  791MOL0     C 9057  12.107   2.754   6.496  0.1057  0.1158  0.0931
  791MOL0     C 9058  12.195   2.706   6.376 -0.0577 -0.6112 -0.3842
  791MOL0     C 9059  12.346   2.727   6.395 -0.2273  0.3648  1.0981
  791MOL0     C 9060  12.434   2.660   6.286  0.0381 -0.1061  0.1269
  791MOL0     C 9061  12.577   2.712   6.312 -0.0908  0.1557  0.6597
  791MOL0     C 9062  12.656   2.686   6.190 -0.5584  0.2381 -0.5602
  791MOL0     C 9063  12.795   2.750   6.193  0.0076  0.5248  0.2742
  791MOL0     C 9064  12.898   2.691   6.097 -0.8691 -0.4392  0.3778
  791MOL0    Cl 9065  13.012   2.820   6.090  0.1674  0.1587  0.5066
  791MOL0     C 9066  11.875   2.599   6.409 -0.2059 -1.1863 -0.0768
  791MOL0     C 9067  11.748   2.532   6.386 -0.2090 -0.0346  0.5744
  791MOL0     O 9068  11.432   2.553   6.565  0.2161  0.3336  0.2592
  791MOL0     C 9069  11.248   2.529   6.272 -0.3971  0.7294  0.2556
  791MOL0     C 9070  11.124   2.498   6.220  0.0191  0.4963  0.4671
  791MOL0     N 9071  10.338   2.068   6.225 -0.7820  0.4900  0.6769
  791MOL0     N 9072  10.250   2.065   6.314  0.7896  0.0052  0.4490
  791MOL0     C 9073   9.264   2.152   6.708 -0.0954 -0.0234 -0.4492
  791MOL0     C 9074   9.124   2.118   6.694 -0.1336  1.0449  0.2014
  791MOL0     C 9075   8.677   2.109   6.788 -0.3644  0.2817  0.5867
  791MOL0     C 9076   8.579   2.182   6.717  0.1307  0.2883  0.1239
  791MOL0     C 9077   8.447   2.134   6.693  0.1569  0.3850 -0.4345
  791MOL0     C 9078   8.410   2.013   6.762  0.1055  0.3921 -0.0055
  791MOL0     O 9079   8.286   1.947   6.765  0.2004  0.4326 -0.6547
  791MOL0     C 9080   8.167   2.021   6.731  1.3089 -0.0259  0.1438
  791MOL0     C 9081   8.050   1.957   6.797  0.2546  0.2623  0.2174
  791MOL0     C 9082   8.064   1.912   6.936 -0.2867  0.2300  0.1319
  791MOL0     C 9083   7.942   1.833   6.973  0.6830 -0.1727 -0.4581
  791MOL0     C 9084   7.966   1.702   6.921  0.4858  0.5989 -0.0737
  791MOL0     C 9085   7.971   1.582   6.890 -0.0934  0.0092  0.3191
  791MOL0     C 9086   8.510   1.948   6.835  0.7139 -0.1405 -0.4510
  791MOL0     C 9087   8.641   1.999   6.862  0.1330  0.8608  0.2809
  791MOL0     C 9088   8.720   1.898   6.947  0.5896 -0.2532  0.3780
  791MOL0     H 9089   9.042   2.062   7.011  3.1122 -0.2267  2.6999
  791MOL0     H 9090   9.290   2.107   7.045 -0.5755 -2.0850 -0.9635
  791MOL0     H 9091   9.561   2.057   6.975  0.9555 -0.2931  1.5538
  791MOL0     H 9092   9.497   2.196   7.048  0.6139  0.1760 -0.2555
  791MOL0     H 9093   9.676   2.342   6.966  0.4615  0.6436 -1.7541
  791MOL0     H 9094   9.736   2.204   7.052  0.5265  3.0983  1.9909
  791MOL0     H 9095   9.799   2.081   6.867 -1.7093 -0.4813  2.0671
  791MOL0     H 9096   9.713   2.182   6.749 -1.0661 -0.7935  0.2701
  791MOL0     H 9097   9.878   2.365   6.777  1.0043  2.2326  1.7104
  791MOL0     H 9098   9.917   2.304   6.937  1.8286 -0.1223 -0.6821
  791MOL0     H 9099   9.989   2.134   6.695  1.4306  0.4819 -0.9046
  791MOL0     H 9100  10.062   2.139   6.847  2.8698  1.3544 -0.8544
  791MOL0     H 9101  10.065   2.388   6.677 -0.2541 -0.5238  0.6046
  791MOL0     H 9102  10.192   2.335   6.797  2.3248  0.6851 -0.7012
  791MOL0     H 9103  10.247   2.137   6.641  0.6365  0.2586  2.9133
  791MOL0     H 9104  10.296   2.307   6.608 -1.3023  0.5663 -0.0321
  791MOL0     H 9105  10.049   2.175   6.468 -0.5410  1.2994 -0.3292
  791MOL0     H 9106  10.102   2.333   6.454  0.3270 -0.6266 -1.0483
  791MOL0     H 9107  10.348   2.372   6.357  0.1350  1.1804 -1.9166
  791MOL0     H 9108  10.477   2.345   6.085 -1.1500 -1.1002 -0.9239
  791MOL0     H 9109  10.483   2.177   6.037  0.5931  0.3716  0.2551
  791MOL0     H 9110  10.641   2.135   6.226 -1.6085 -0.2487  0.4881
  791MOL0     H 9111  10.706   2.238   6.093 -2.3027  0.1777 -2.5115
  791MOL0     H 9112  10.659   2.443   6.228 -0.6821  0.3088  0.0581
  791MOL0     H 9113  10.609   2.327   6.363  1.7822  0.6375  2.1557
  791MOL0     H 9114  10.814   2.356   6.427  1.4890  2.7521 -0.0709
  791MOL0     H 9115  10.839   2.217   6.311  1.0200  0.3716  0.7012
  791MOL0     H 9116  11.009   2.306   6.457  1.1885 -0.3419 -1.8455
  791MOL0     H 9117  11.351   2.318   6.595  1.3422  3.5930  1.8888
  791MOL0     H 9118  11.185   2.272   6.637 -0.7350  1.2231  3.2180
  791MOL0     H 9119  11.245   2.431   6.682 -0.1831 -0.5510  0.4724
  791MOL0     H 9120  11.537   2.796   6.352  0.3289  0.3194 -3.4704
  791MOL0     H 9121  11.748   2.912   6.403 -2.4880 -0.7014  3.2529
  791MOL0     H 9122  12.150   2.834   6.556  0.7180 -0.9857  1.1729
  791MOL0     H 9123  12.066   2.671   6.555 -1.0527  1.1922  0.8460
  791MOL0     H 9124  12.174   2.602   6.350 -2.4369 -0.3828  0.4123
  791MOL0     H 9125  12.172   2.772   6.292 -1.4150  1.1282  1.2812
  791MOL0     H 9126  12.370   2.691   6.495 -0.7753  0.9621  1.4571
  791MOL0     H 9127  12.360   2.835   6.405 -2.1890  1.1802 -2.8853
  791MOL0     H 9128  12.408   2.686   6.184  1.0960 -2.6507 -0.8908
  791MOL0     H 9129  12.426   2.551   6.283  1.6161 -0.2281 -0.8230
  791MOL0     H 9130  12.572   2.817   6.340 -2.1622  0.0488  0.8524
  791MOL0     H 9131  12.606   2.660   6.403  0.1620  0.5875  0.8291
  791MOL0     H 9132  12.620   2.727   6.095 -0.7751 -0.1443 -0.6434
  791MOL0     H 9133  12.663   2.577   6.188  0.3062  0.2816 -0.4116
  791MOL0     H 9134  12.827   2.733   6.296 -1.3946 -0.0223  0.6311
  791MOL0     H 9135  12.781   2.855   6.165 -1.5485 -0.0214 -1.1412
  791MOL0     H 9136  12.860   2.687   5.994 -2.0818  1.0654  0.7334
  791MOL0     H 9137  12.945   2.601   6.136 -0.9645 -0.5396  0.2589
  791MOL0     H 9138  11.965   2.541   6.418  0.6670  0.2612  0.8290
  791MOL0     H 9139  11.729   2.429   6.358 -1.4823  0.1208  0.7719
  791MOL0     H 9140  11.307   2.598   6.212  1.3117 -2.0257 -1.4462
  791MOL0     H 9141  11.084   2.537   6.127 -0.2599  0.7377  0.6878
  791MOL0     H 9142   9.321   2.179   6.620  1.7203 -1.0498  0.3611
  791MOL0     H 9143   9.064   2.119   6.603  0.1032  0.6079  0.0339
  791MOL0     H 9144   8.620   2.264   6.660  1.2153 -0.7521 -0.6486
  791MOL0     H 9145   8.373   2.179   6.626 -0.4478 -0.1908 -0.1619
  791MOL0     H 9146   8.174   2.130   6.739  0.7424  0.0268 -0.0697
  791MOL0     H 9147   8.146   2.003   6.625 -0.5048 -0.7243  0.5846
  791MOL0     H 9148   8.023   1.876   6.729 -1.7458  2.1496 -1.3596
  791MOL0     H 9149   7.966   2.027   6.802  0.5860  0.6404  4.2342
  791MOL0     H 9150   8.157   1.855   6.953  0.4859  1.5121  0.3362
  791MOL0     H 9151   8.070   2.003   6.995  1.2649  0.7988 -0.8181
  791MOL0     H 9152   7.853   1.888   6.944 -1.0810 -1.9461  1.2703
  791MOL0     H 9153   7.948   1.840   7.082  3.1716 -1.3035 -0.4452
  791MOL0     H 9154   7.966   1.476   6.880 -0.0822  0.1356 -1.4641
  791MOL0     H 9155   8.461   1.876   6.900 -1.0159  2.2002  1.0341
  791MOL0     H 9156   8.768   1.813   6.896  2.0845 -0.1518  1.5410
  791MOL0     H 9157   8.799   1.950   7.003  0.3726 -1.0127  1.4223
  791MOL0     H 9158   8.644   1.865   7.018 -1.1851  0.8119 -0.9617
  792MOL0     O 9159   3.440   7.787   1.394  0.4201 -0.0997  0.2856
  792MOL0     C 9160   3.454   7.864   1.302  0.3691  0.1905  0.4534
  792MOL0     O 9161   3.553   7.957   1.295 -0.1825 -0.8173 -0.1991
  792MOL0     C 9162   3.663   7.944   1.376 -0.5236 -1.6728  0.3100
  792MOL0     C 9163   3.702   8.065   1.435 -0.3150  0.1202 -0.6532
  792MOL0     C 9164   3.821   8.061   1.505 -0.2738 -0.1670 -0.3856
  792MOL0     C 9165   3.903   7.947   1.524  0.3938 -0.2972  1.5761
  792MOL0     O 9166   4.017   7.952   1.600 -0.0666  0.1706  0.2180
  792MOL0     C 9167   4.075   7.830   1.635  0.1081 -0.6403 -0.1527
  792MOL0     C 9168   4.173   7.777   1.515 -0.1021  0.0301 -0.8399
  792MOL0     C 9169   4.320   7.807   1.542 -0.0406 -1.0730 -0.0777
  792MOL0     C 9170   4.410   7.744   1.426  0.2614 -0.1199  0.5423
  792MOL0     C 9171   4.389   7.824   1.297 -0.4129 -1.0049 -1.1844
  792MOL0     C 9172   4.486   7.782   1.185  0.0782  0.8870 -0.3043
  792MOL0     C 9173   4.633   7.807   1.211 -0.9003  0.2332  0.0437
  792MOL0     C 9174   4.714   7.789   1.072  0.0411  0.0084 -0.0296
  792MOL0     N 9175   4.869   7.794   1.089  0.1357  0.0407 -0.7544
  792MOL0     C 9176   4.937   7.891   1.154  0.9304  0.1716 -0.4198
  792MOL0     C 9177   5.060   7.839   1.190  0.0409  0.2391  0.6203
  792MOL0     C 9178   5.147   7.918   1.284  0.5728  0.7059  0.3066
  792MOL0     C 9179   5.301   7.884   1.265 -0.0175  0.0601 -0.6054
  792MOL0     C 9180   5.378   7.949   1.378 -0.8268  0.3568 -0.2096
  792MOL0     C 9181   5.535   7.964   1.369 -0.8099 -0.3871  0.1149
  792MOL0     O 9182   5.586   8.041   1.476  0.6834  0.2087 -0.7950
  792MOL0     C 9183   5.719   8.047   1.494 -1.1316  0.7027 -0.6504
  792MOL0     C 9184   5.815   8.017   1.396 -0.1988  0.2639  0.2726
  792MOL0     C 9185   5.953   7.998   1.432 -0.1767  0.6399 -0.5506
  792MOL0     C 9186   6.038   7.948   1.321  0.7443 -0.5760 -0.1492
  792MOL0     C 9187   6.005   8.025   1.561  0.3176  0.1631  0.5558
  792MOL0     C 9188   6.149   8.024   1.598  0.3079  0.1036  0.9225
  792MOL0     O 9189   6.239   7.950   1.521 -0.3720  0.0072  0.5286
  792MOL0     C 9190   6.365   7.928   1.561 -0.7765  0.2112  0.3353
  792MOL0     C 9191   6.459   8.036   1.592 -0.0739  0.0949  0.1277
  792MOL0     C 9192   6.577   7.998   1.649  1.4217  0.4443 -0.4547
  792MOL0     C 9193   6.617   7.874   1.685  0.3602  0.8291 -0.6016
  792MOL0     O 9194   6.727   7.860   1.774  0.2641 -0.4969 -0.5198
  792MOL0     C 9195   6.820   7.965   1.780  0.0343 -0.4380  0.2227
  792MOL0     C 9196   6.922   7.917   1.881  1.0061 -0.1966 -0.0979
  792MOL0     C 9197   7.045   7.844   1.822 -0.2714 -0.0048  0.7734
  792MOL0     C 9198   7.111   7.759   1.927 -0.4167 -0.0498 -0.1265
  792MOL0     C 9199   7.244   7.700   1.880  0.8478 -0.0504  0.1391
  792MOL0     C 9200   7.307   7.637   2.008 -0.5736 -0.0831 -0.5732
  792MOL0     C 9201   7.444   7.574   1.989 -0.0470  0.0147  0.8614
  792MOL0     C 9202   7.450   7.450   1.904 -0.0006  0.6046 -0.1543
  792MOL0    Cl 9203   7.624   7.432   1.871  0.3091  0.1150 -0.6715
  792MOL0     C 9204   6.525   7.764   1.656 -0.5425  0.4009  0.2236
  792MOL0     C 9205   6.406   7.796   1.593 -0.6204  0.0045 -0.4960
  792MOL0     O 9206   6.180   8.081   1.703  0.1452 -0.8110  0.0207
  792MOL0     C 9207   5.903   8.064   1.654  0.1261  0.0784 -0.4474
  792MOL0     C 9208   5.770   8.075   1.620 -0.3961 -0.1397  0.6981
  792MOL0     N 9209   5.058   7.707   1.140  0.6465 -0.8825  0.1895
  792MOL0     N 9210   4.945   7.681   1.078  0.1085 -0.3901  0.3058
  792MOL0     C 9211   3.862   7.830   1.454 -0.1247  0.2978 -0.1897
  792MOL0     C 9212   3.740   7.831   1.385  0.4970  1.0035  0.4677
  792MOL0     C 9213   3.364   7.851   1.187 -0.5651  0.1023  0.6227
  792MOL0     C 9214   3.402   7.899   1.060 -0.6506  0.3426 -0.5557
  792MOL0     C 9215   3.328   7.883   0.938 -0.1329 -0.0731 -0.0430
  792MOL0     C 9216   3.206   7.815   0.937 -0.2918  1.0273 -0.2035
  792MOL0     O 9217   3.137   7.816   0.821 -0.7583 -0.7228  1.0017
  792MOL0     C 9218   3.018   7.742   0.819 -0.5571  0.2339  0.0558
  792MOL0     C 9219   2.941   7.757   0.682  0.1119  0.7933 -0.5927
  792MOL0     C 9220   2.912   7.897   0.632 -0.0347 -0.0580 -0.0255
  792MOL0     C 9221   2.863   7.908   0.481 -1.0168 -0.6149 -0.5826
  792MOL0     C 9222   2.718   7.872   0.466 -0.6886  0.5602  0.7253
  792MOL0     C 9223   2.618   7.814   0.451 -0.1137 -0.4967 -0.4215
  792MOL0     C 9224   3.165   7.771   1.060 -1.6427 -0.3823 -0.3444
  792MOL0     C 9225   3.239   7.786   1.184  0.5044  0.6656 -0.2845
  792MOL0     C 9226   3.174   7.710   1.301 -0.5292 -0.9577 -0.4165
  792MOL0     H 9227   3.646   8.158   1.436 -0.1046  0.2472  0.2159
  792MOL0     H 9228   3.860   8.159   1.532  0.9389 -1.2595  2.2062
  792MOL0     H 9229   3.999   7.758   1.664 -1.4368  1.4955  1.3529
  792MOL0     H 9230   4.139   7.851   1.721  0.7379 -0.0849 -0.7419
  792MOL0     H 9231   4.159   7.669   1.506  0.1463  0.0939 -2.1594
  792MOL0     H 9232   4.141   7.828   1.423 -0.0439  2.8136  0.5898
  792MOL0     H 9233   4.334   7.916   1.539  3.9577 -1.2641  2.6055
  792MOL0     H 9234   4.352   7.775   1.642 -1.6498 -3.7997 -0.3448
  792MOL0     H 9235   4.518   7.752   1.441  0.3532  0.4343 -0.3808
  792MOL0     H 9236   4.399   7.635   1.414  2.8780 -0.9849  4.0639
  792MOL0     H 9237   4.407   7.930   1.313  1.9197 -0.8745 -3.9474
  792MOL0     H 9238   4.291   7.802   1.254 -2.3322  3.7182  0.1345
  792MOL0     H 9239   4.472   7.675   1.166 -0.6201  0.2896  2.9418
  792MOL0     H 9240   4.456   7.839   1.096  0.7535 -0.9668 -1.7777
  792MOL0     H 9241   4.678   7.736   1.281  0.9493 -0.0945 -1.3920
  792MOL0     H 9242   4.645   7.909   1.250 -0.4156  0.8079 -1.5228
  792MOL0     H 9243   4.687   7.692   1.030  1.7497  0.6149 -2.7294
  792MOL0     H 9244   4.677   7.862   1.000  1.4838 -1.4937 -2.4382
  792MOL0     H 9245   4.899   7.988   1.184 -0.7420 -0.3920 -0.6440
  792MOL0     H 9246   5.116   7.888   1.384  0.5173 -1.1543 -0.2241
  792MOL0     H 9247   5.124   8.024   1.272 -3.2054 -0.0843 -0.6726
  792MOL0     H 9248   5.315   7.776   1.276  0.4532  0.0242 -1.4817
  792MOL0     H 9249   5.333   7.915   1.165  2.0107 -0.0889 -0.0430
  792MOL0     H 9250   5.333   8.047   1.397 -0.0518  0.5475  0.7200
  792MOL0     H 9251   5.358   7.889   1.467  2.7846  0.1870  0.6438
  792MOL0     H 9252   5.577   7.863   1.374 -1.1448 -0.5532 -0.3064
  792MOL0     H 9253   5.550   8.008   1.270 -2.6360  1.8300  0.7408
  792MOL0     H 9254   5.783   7.996   1.294 -0.4158  1.3968  0.0889
  792MOL0     H 9255   6.102   8.033   1.295 -0.0193 -0.5865 -2.2471
  792MOL0     H 9256   5.981   7.921   1.232  1.2150  0.2760 -0.7272
  792MOL0     H 9257   6.107   7.867   1.347  0.3937 -0.5656  0.8342
  792MOL0     H 9258   6.443   8.143   1.578 -0.2243  0.3736  2.1608
  792MOL0     H 9259   6.643   8.083   1.661 -0.3124  1.5623  2.0054
  792MOL0     H 9260   6.881   7.971   1.690  0.7866 -1.4110  0.6439
  792MOL0     H 9261   6.773   8.056   1.819 -1.3948 -0.0310 -2.2234
  792MOL0     H 9262   6.956   8.003   1.940 -1.5091  0.1941  0.9369
  792MOL0     H 9263   6.873   7.850   1.952  3.9072 -1.9854  0.3578
  792MOL0     H 9264   7.107   7.926   1.783 -0.7364  0.2485  0.5640
  792MOL0     H 9265   7.013   7.779   1.741  4.2254  3.2715 -4.3650
  792MOL0     H 9266   7.046   7.676   1.956 -0.8039  0.0812 -0.5984
  792MOL0     H 9267   7.140   7.826   2.007 -1.6768  2.3990 -1.6107
  792MOL0     H 9268   7.208   7.626   1.808  3.4789 -0.8995 -0.4279
  792MOL0     H 9269   7.302   7.781   1.835 -0.3924 -0.0548 -1.5502
  792MOL0     H 9270   7.254   7.551   2.049 -0.6260 -0.9512 -2.3907
  792MOL0     H 9271   7.325   7.718   2.080  0.8686  1.6589 -2.7348
  792MOL0     H 9272   7.486   7.554   2.088 -1.1025 -0.5664  1.2094
  792MOL0     H 9273   7.514   7.644   1.944  1.0896 -2.5541 -1.6744
  792MOL0     H 9274   7.383   7.468   1.819 -0.2771  2.4216  0.4035
  792MOL0     H 9275   7.410   7.360   1.951 -2.5047  1.7145  0.0124
  792MOL0     H 9276   6.550   7.663   1.687  2.9489  1.1919  0.4303
  792MOL0     H 9277   6.332   7.717   1.590 -2.1372  1.3275  0.0632
  792MOL0     H 9278   5.923   8.084   1.759  0.1606 -0.9656 -0.2494
  792MOL0     H 9279   5.698   8.103   1.697 -1.1652  0.0261 -0.0627
  792MOL0     H 9280   3.917   7.736   1.459 -0.2356 -0.0065 -3.1577
  792MOL0     H 9281   3.707   7.748   1.324 -4.8461  3.5625 -0.7449
  792MOL0     H 9282   3.495   7.952   1.043 -0.5387  0.7636  1.1596
  792MOL0     H 9283   3.356   7.926   0.843 -2.1241 -0.3471 -0.8001
  792MOL0     H 9284   3.046   7.640   0.848  1.8177  0.5096 -1.0349
  792MOL0     H 9285   2.954   7.776   0.901 -0.1691  0.6729  0.1862
  792MOL0     H 9286   2.847   7.701   0.678  1.2581 -1.4707  1.6421
  792MOL0     H 9287   2.993   7.711   0.597 -1.5750  1.5276 -2.1106
  792MOL0     H 9288   2.837   7.942   0.698  0.2566 -1.1318  1.0777
  792MOL0     H 9289   3.005   7.953   0.649 -0.1297 -0.3285  1.5341
  792MOL0     H 9290   2.922   7.845   0.413 -2.3996 -2.3439 -0.2544
  792MOL0     H 9291   2.882   8.013   0.454 -0.7928 -0.6801 -0.6807
  792MOL0     H 9292   2.520   7.771   0.460 -0.2171 -0.1333  0.2810
  792MOL0     H 9293   3.068   7.722   1.068 -1.3328 -0.9460  0.0297
  792MOL0     H 9294   3.244   7.634   1.336  0.1632 -1.4277 -2.6683
  792MOL0     H 9295   3.158   7.780   1.384 -2.2055 -0.5716 -1.0250
  792MOL0     H 9296   3.078   7.669   1.267 -0.0259 -1.4087 -1.3133
  793MOL0     O 9297   9.674  10.916   2.433  0.5469 -0.1590 -0.5448
  793MOL0     C 9298   9.773  10.947   2.372  0.6144 -0.5943 -0.4907
  793MOL0     O 9299   9.776  11.047   2.279 -0.0312  0.2658  0.3845
  793MOL0     C 9300   9.663  11.121   2.244 -0.6725  0.5783 -0.1329
  793MOL0     C 9301   9.530  11.072   2.247  0.3395 -0.3407  0.0604
  793MOL0     C 9302   9.414  11.156   2.246 -0.0490 -0.0906 -0.6152
  793MOL0     C 9303   9.439  11.298   2.244  0.4178 -0.1943 -0.3147
  793MOL0     O 9304   9.317  11.369   2.256  0.3654 -0.3264 -0.9683
  793MOL0     C 9305   9.302  11.507   2.213  0.1466  0.1935 -0.2959
  793MOL0     C 9306   9.165  11.565   2.246 -0.1832 -0.4882  0.4497
  793MOL0     C 9307   9.134  11.574   2.386  0.2062  0.3947  0.4291
  793MOL0     C 9308   9.016  11.671   2.398 -1.1312  0.5791 -0.1254
  793MOL0     C 9309   8.973  11.692   2.542  0.1117  0.9142 -0.2005
  793MOL0     C 9310   8.999  11.829   2.605  0.5748  0.2471  0.2719
  793MOL0     C 9311   8.938  11.845   2.747 -0.1838  0.3840  0.4832
  793MOL0     C 9312   8.926  11.993   2.795 -0.1963  0.0425 -0.1054
  793MOL0     N 9313   9.060  12.067   2.816  0.6642 -1.3108  0.4148
  793MOL0     C 9314   9.139  12.065   2.925 -0.8274 -0.7961  0.8456
  793MOL0     C 9315   9.245  12.133   2.890 -1.1762 -0.2626 -0.2089
  793MOL0     C 9316   9.373  12.146   2.970 -1.7556 -0.2463 -0.3017
  793MOL0     C 9317   9.385  12.281   3.052 -0.2680  0.7428  0.1964
  793MOL0     C 9318   9.525  12.311   3.117 -0.3399  0.7117  0.1188
  793MOL0     C 9319   9.647  12.328   3.018 -0.0390 -0.0070  0.2199
  793MOL0     O 9320   9.767  12.299   3.086 -0.6740  0.8362  0.4078
  793MOL0     C 9321   9.843  12.180   3.069  0.7378 -0.1803  0.3261
  793MOL0     C 9322   9.782  12.068   3.025  0.0536  0.8426  0.7668
  793MOL0     C 9323   9.866  11.947   3.014  0.4777  0.1710  0.7384
  793MOL0     C 9324   9.789  11.813   2.986  0.2605  1.1691  1.1543
  793MOL0     C 9325   9.996  11.952   3.047 -0.7730  0.3828  0.2698
  793MOL0     C 9326  10.096  11.850   3.021  0.3997 -0.0655  0.4422
  793MOL0     O 9327  10.216  11.849   3.097  0.6512  0.0885  0.1400
  793MOL0     C 9328  10.309  11.762   3.061 -0.1284 -0.3088  0.0372
  793MOL0     C 9329  10.372  11.764   2.934 -0.4167  1.1307  0.1824
  793MOL0     C 9330  10.467  11.671   2.905  0.4495 -0.0949  0.3576
  793MOL0     C 9331  10.524  11.591   3.003  0.6159 -0.0102  0.0447
  793MOL0     O 9332  10.641  11.537   2.953 -0.2477  0.4563  0.9502
  793MOL0     C 9333  10.735  11.462   3.043 -0.0584 -0.0305  0.8658
  793MOL0     C 9334  10.877  11.460   2.981 -0.0357 -0.1785  0.3212
  793MOL0     C 9335  10.961  11.357   3.045 -0.1763 -0.3415 -0.6717
  793MOL0     C 9336  10.995  11.389   3.192 -0.1366  0.2998 -0.4929
  793MOL0     C 9337  11.008  11.263   3.285 -0.2513  0.5990 -0.3413
  793MOL0     C 9338  11.051  11.300   3.421  0.6201  0.1621 -0.3284
  793MOL0     C 9339  11.118  11.175   3.488 -0.2648  0.4359 -0.2827
  793MOL0     C 9340  11.144  11.220   3.632 -0.4431 -0.3115  0.0185
  793MOL0    Cl 9341  11.260  11.110   3.692 -0.4667  0.0586  0.3990
  793MOL0     C 9342  10.475  11.593   3.132 -0.8480  0.1490  0.1672
  793MOL0     C 9343  10.362  11.674   3.156  0.1806  0.0850  0.4590
  793MOL0     O 9344  10.073  11.774   2.926  0.3518  0.6640 -0.5920
  793MOL0     C 9345  10.053  12.071   3.100  0.3144  0.6934 -0.2005
  793MOL0     C 9346   9.971  12.182   3.111 -0.8887 -0.5960 -0.8900
  793MOL0     N 9347   9.234  12.174   2.760 -0.3255 -0.2051 -0.5756
  793MOL0     N 9348   9.115  12.140   2.721 -0.3614  0.4366  0.5476
  793MOL0     C 9349   9.571  11.349   2.246 -0.0865  0.2734 -0.0706
  793MOL0     C 9350   9.675  11.260   2.245  0.6192  0.7163 -0.1665
  793MOL0     C 9351   9.900  10.883   2.428  0.2301 -0.4210  0.0709
  793MOL0     C 9352  10.002  10.882   2.335  0.0738  0.7281  0.5142
  793MOL0     C 9353  10.122  10.818   2.369  0.4498  0.3423 -0.2002
  793MOL0     C 9354  10.148  10.776   2.503  0.2556 -0.1954 -0.3285
  793MOL0     O 9355  10.274  10.727   2.542 -0.1822 -0.0762  0.4560
  793MOL0     C 9356  10.309  10.739   2.681  0.3699  0.0672  0.3569
  793MOL0     C 9357  10.467  10.748   2.694  0.1212 -0.1660 -0.2155
  793MOL0     C 9358  10.504  10.697   2.836 -0.1943  0.4191 -0.0277
  793MOL0     C 9359  10.655  10.649   2.826  0.6996  0.9066  0.2252
  793MOL0     C 9360  10.692  10.568   2.946 -0.1753 -0.1472  0.3439
  793MOL0     C 9361  10.728  10.500   3.042 -0.4821 -0.3779  0.2586
  793MOL0     C 9362  10.037  10.771   2.591  1.1852  0.4185 -0.1156
  793MOL0     C 9363   9.912  10.826   2.561  0.2813 -0.5801  0.1070
  793MOL0     C 9364   9.799  10.820   2.671  0.3374  0.6136  0.3962
  793MOL0     H 9365   9.504  10.968   2.263 -2.2093  0.3084  0.4998
  793MOL0     H 9366   9.311  11.121   2.251  0.6312 -2.0784  1.0356
  793MOL0     H 9367   9.320  11.512   2.105  2.0950 -2.2562 -0.1941
  793MOL0     H 9368   9.367  11.575   2.268  0.8345  0.5000 -1.4650
  793MOL0     H 9369   9.169  11.660   2.191  2.5890  0.4436  2.0826
  793MOL0     H 9370   9.087  11.502   2.201 -0.4524 -0.3601  0.7381
  793MOL0     H 9371   9.115  11.472   2.422  1.4655 -0.8287 -2.0782
  793MOL0     H 9372   9.211  11.625   2.444 -0.9477  2.1587  0.4675
  793MOL0     H 9373   9.024  11.768   2.348 -3.5139  2.2498  2.4230
  793MOL0     H 9374   8.932  11.617   2.353 -0.1174  0.6638 -2.2463
  793MOL0     H 9375   9.030  11.625   2.606  1.1658  2.2435  0.2942
  793MOL0     H 9376   8.870  11.656   2.552  1.0721 -1.5744  1.6877
  793MOL0     H 9377   9.108  11.838   2.611  1.0614 -4.0587  1.5582
  793MOL0     H 9378   8.953  11.905   2.541  4.6338  4.5741  1.9229
  793MOL0     H 9379   9.008  11.786   2.807 -1.5822 -2.1964 -0.2498
  793MOL0     H 9380   8.839  11.799   2.752 -0.4354  1.0273  2.1317
  793MOL0     H 9381   8.875  12.053   2.719  3.9547  1.9352 -1.7232
  793MOL0     H 9382   8.867  11.999   2.886 -0.6896  0.4397 -0.4451
  793MOL0     H 9383   9.130  12.002   3.013 -3.9504 -1.6583  0.0363
  793MOL0     H 9384   9.453  12.145   2.895  1.0338 -1.8389  2.4654
  793MOL0     H 9385   9.377  12.062   3.039 -2.9065  0.8569  1.1743
  793MOL0     H 9386   9.345  12.373   3.008  1.2353  1.2043 -0.2863
  793MOL0     H 9387   9.319  12.267   3.138 -0.3482  3.0224  0.5915
  793MOL0     H 9388   9.525  12.403   3.176  1.9707 -0.4012  2.0266
  793MOL0     H 9389   9.543  12.238   3.196  0.2414 -0.3425 -0.9560
  793MOL0     H 9390   9.639  12.264   2.930  0.7954  0.9257 -0.5568
  793MOL0     H 9391   9.644  12.434   2.990 -2.0109 -0.3741 -1.1342
  793MOL0     H 9392   9.677  12.041   3.023  0.6062 -2.3404  4.2613
  793MOL0     H 9393   9.683  11.836   2.978 -0.2327 -0.6996  1.7885
  793MOL0     H 9394   9.802  11.743   3.070 -2.1274  0.2084  0.8020
  793MOL0     H 9395   9.816  11.771   2.889  0.7185 -3.5842  3.0430
  793MOL0     H 9396  10.356  11.839   2.857  1.1570  0.8399 -0.4704
  793MOL0     H 9397  10.500  11.671   2.801  0.2077  0.5491  0.2792
  793MOL0     H 9398  10.739  11.509   3.141 -1.7740 -0.2489  1.0653
  793MOL0     H 9399  10.694  11.360   3.044  0.0913 -0.1113 -0.0716
  793MOL0     H 9400  10.882  11.426   2.877  0.6970  0.4602  0.1344
  793MOL0     H 9401  10.924  11.559   2.971 -2.6886  0.9301 -3.5427
  793MOL0     H 9402  11.059  11.351   2.996 -1.9105 -1.0389 -4.3844
  793MOL0     H 9403  10.907  11.266   3.018 -0.2392 -1.0914  1.7533
  793MOL0     H 9404  10.914  11.442   3.243  1.5482  0.8667  1.7189
  793MOL0     H 9405  11.093  11.437   3.192  0.7803 -1.4031  1.2026
  793MOL0     H 9406  10.910  11.216   3.280  0.6922 -1.6484  0.7703
  793MOL0     H 9407  11.078  11.186   3.250 -0.5169  0.5975 -0.8874
  793MOL0     H 9408  10.954  11.323   3.467  0.9071  1.9777 -0.5471
  793MOL0     H 9409  11.112  11.390   3.429  1.8715 -0.6320 -0.7338
  793MOL0     H 9410  11.214  11.153   3.441 -0.9165  0.1861 -1.5551
  793MOL0     H 9411  11.040  11.099   3.479 -3.6585  3.5434  0.2976
  793MOL0     H 9412  11.048  11.230   3.684  0.0107  1.3729  0.5889
  793MOL0     H 9413  11.198  11.315   3.634 -3.0431  1.3235  3.2782
  793MOL0     H 9414  10.518  11.523   3.202  1.7386  2.6041  1.2253
  793MOL0     H 9415  10.316  11.656   3.252  0.0948 -2.0863  0.0525
  793MOL0     H 9416  10.160  12.082   3.113  0.5333 -0.0796 -1.1915
  793MOL0     H 9417  10.022  12.269   3.152  0.7996 -2.2089  0.6873
  793MOL0     H 9418   9.581  11.457   2.258 -1.7317  0.2130  2.7228
  793MOL0     H 9419   9.776  11.296   2.257  1.2040 -1.1335  0.8691
  793MOL0     H 9420   9.984  10.932   2.240  1.0991  0.6942  0.2901
  793MOL0     H 9421  10.213  10.834   2.312 -0.0779  0.5606 -0.9937
  793MOL0     H 9422  10.257  10.823   2.728 -0.4328  0.7169 -1.5849
  793MOL0     H 9423  10.279  10.644   2.726  1.2670  0.0360  0.9032
  793MOL0     H 9424  10.501  10.852   2.685  1.7551 -0.6346  0.2322
  793MOL0     H 9425  10.517  10.689   2.616  3.3132 -0.8163  2.1118
  793MOL0     H 9426  10.477  10.777   2.905  0.3392 -0.9688  1.9044
  793MOL0     H 9427  10.453  10.609   2.877  1.9369  0.4749  3.1057
  793MOL0     H 9428  10.713  10.741   2.812  0.0803  1.0398 -1.7832
  793MOL0     H 9429  10.679  10.582   2.743  1.8043  1.6360 -0.0700
  793MOL0     H 9430  10.762  10.450   3.130  1.2519  1.2902  0.6242
  793MOL0     H 9431  10.055  10.736   2.692  2.3434  0.8580 -0.1598
  793MOL0     H 9432   9.709  10.768   2.639  1.3119 -2.2927  2.0490
  793MOL0     H 9433   9.830  10.766   2.761 -1.3294 -0.9201  0.1011
  793MOL0     H 9434   9.789  10.926   2.698  3.1973  1.4478 -1.3767
  794MOL0     O 9435   4.661   0.794   8.774  1.0801  0.4594  0.4205
  794MOL0     C 9436   4.632   0.803   8.895  0.9985  0.3188  0.5856
  794MOL0     O 9437   4.723   0.864   8.986  0.4266  0.6023  0.7963
  794MOL0     C 9438   4.846   0.901   8.937  0.9439 -0.8583 -0.3058
  794MOL0     C 9439   4.955   0.829   8.985 -0.6757 -0.2729  0.0575
  794MOL0     C 9440   5.087   0.873   8.972 -0.6357  0.3318 -1.2377
  794MOL0     C 9441   5.110   1.005   8.916  0.0435 -0.0996 -1.2348
  794MOL0     O 9442   5.229   1.074   8.905 -0.4817  0.2097  0.4487
  794MOL0     C 9443   5.359   1.016   8.924 -0.4032  0.1411 -0.0420
  794MOL0     C 9444   5.459   1.119   8.878  0.6689  0.8297 -0.2598
  794MOL0     C 9445   5.597   1.072   8.921 -0.5007  0.0570  0.1742
  794MOL0     C 9446   5.700   1.166   8.851  0.6361  0.4765  0.6060
  794MOL0     C 9447   5.822   1.086   8.805 -0.3510 -0.1013 -0.7990
  794MOL0     C 9448   5.909   1.060   8.925  0.1465  0.1771 -0.5668
  794MOL0     C 9449   6.020   0.954   8.895  0.4372 -0.1644 -0.0293
  794MOL0     C 9450   6.099   0.910   9.019 -0.3166 -0.0705  0.0560
  794MOL0     N 9451   6.172   1.020   9.091  0.7264  0.0428  0.1563
  794MOL0     C 9452   6.225   1.132   9.033 -0.3126 -0.4036 -0.8819
  794MOL0     C 9453   6.315   1.178   9.116 -0.0045 -0.1936 -1.5344
  794MOL0     C 9454   6.402   1.301   9.102  0.6345  0.2754 -0.0425
  794MOL0     C 9455   6.526   1.263   9.015  0.3269 -0.3894 -0.7437
  794MOL0     C 9456   6.627   1.381   9.003  0.6337  0.3000 -0.3103
  794MOL0     C 9457   6.744   1.367   8.907  0.2204  0.5289  0.2370
  794MOL0     O 9458   6.829   1.258   8.934 -0.4680  0.2591 -0.3375
  794MOL0     C 9459   6.962   1.279   8.968 -0.4782 -0.4911  0.0808
  794MOL0     C 9460   7.016   1.370   9.055  0.0304 -0.3981  0.8272
  794MOL0     C 9461   7.153   1.388   9.069 -1.1427 -0.4424  0.2637
  794MOL0     C 9462   7.201   1.484   9.177  0.4023 -0.2961 -0.4723
  794MOL0     C 9463   7.245   1.300   9.003 -0.0704 -0.2597  0.0764
  794MOL0     C 9464   7.397   1.300   9.023  0.5298 -0.0918 -0.2861
  794MOL0     O 9465   7.461   1.408   9.076 -0.2259  0.2965  0.0988
  794MOL0     C 9466   7.601   1.420   9.106 -0.0178  0.4973  0.4372
  794MOL0     C 9467   7.671   1.543   9.107 -0.2219 -0.4093  0.0450
  794MOL0     C 9468   7.810   1.556   9.142  0.2742 -0.3203  0.1129
  794MOL0     C 9469   7.881   1.444   9.175  0.4898  0.1464 -0.8199
  794MOL0     O 9470   8.015   1.435   9.207 -0.4674  0.0386  0.0145
  794MOL0     C 9471   8.047   1.510   9.322  0.2621 -0.5554 -1.0899
  794MOL0     C 9472   8.029   1.436   9.453 -0.9221 -0.2557  0.5001
  794MOL0     C 9473   8.118   1.318   9.457  0.5964  0.8094 -0.5392
  794MOL0     C 9474   8.099   1.219   9.577 -0.1694 -1.3887  0.6797
  794MOL0     C 9475   8.210   1.108   9.602 -0.4535 -0.5840  0.4344
  794MOL0     C 9476   8.177   0.999   9.693  0.5889 -0.6095 -0.7227
  794MOL0     C 9477   8.051   0.921   9.656  0.2081 -0.7649  0.6423
  794MOL0     C 9478   8.066   0.776   9.701 -0.9958 -0.6344 -0.4521
  794MOL0    Cl 9479   7.925   0.688   9.621 -0.1519  0.3021  0.2851
  794MOL0     C 9480   7.814   1.319   9.163 -0.8377  0.3660 -0.2601
  794MOL0     C 9481   7.675   1.308   9.133 -1.1199 -0.7133  0.1949
  794MOL0     O 9482   7.459   1.206   8.976  0.4435 -0.1521  0.1589
  794MOL0     C 9483   7.188   1.201   8.922 -0.6066 -0.5610 -0.6742
  794MOL0     C 9484   7.052   1.196   8.895 -0.0118  0.3105 -0.6550
  794MOL0     N 9485   6.332   1.082   9.210 -0.9220  0.3962  0.1533
  794MOL0     N 9486   6.252   0.984   9.198  0.5227  0.6672  0.0910
  794MOL0     C 9487   4.996   1.072   8.865  0.0605  0.2675 -0.4008
  794MOL0     C 9488   4.868   1.022   8.872 -0.1948 -0.4165  0.3657
  794MOL0     C 9489   4.501   0.754   8.931 -0.6082 -0.6645 -0.6626
  794MOL0     C 9490   4.458   0.768   9.068  0.1230 -0.8371  0.1479
  794MOL0     C 9491   4.339   0.718   9.115  0.8954 -0.8569  0.2096
  794MOL0     C 9492   4.256   0.648   9.033  1.0175  0.2348 -0.6611
  794MOL0     O 9493   4.129   0.603   9.068 -1.0229 -0.0984 -1.1202
  794MOL0     C 9494   4.057   0.668   9.176 -0.1658 -1.1272 -0.1173
  794MOL0     C 9495   3.904   0.645   9.154 -1.7896  0.5346  0.3541
  794MOL0     C 9496   3.843   0.688   9.019  1.1264  0.1452  0.8578
  794MOL0     C 9497   3.690   0.676   9.015 -0.0706 -0.4935 -1.0016
  794MOL0     C 9498   3.614   0.785   9.085  0.0886  0.1675  0.0039
  794MOL0     C 9499   3.555   0.872   9.147 -0.1969 -0.4547  0.2316
  794MOL0     C 9500   4.291   0.620   8.904 -0.2298 -1.1126 -0.4755
  794MOL0     C 9501   4.412   0.671   8.853  0.2230 -0.3100  0.5057
  794MOL0     C 9502   4.433   0.628   8.714  0.2145  0.4275  0.1156
  794MOL0     H 9503   4.937   0.736   9.038 -1.8494 -1.5131 -2.3502
  794MOL0     H 9504   5.169   0.809   8.999  1.3605  2.0773 -2.8385
  794MOL0     H 9505   5.369   0.931   8.855 -2.5910  0.8850 -1.3795
  794MOL0     H 9506   5.372   0.967   9.021  0.5438 -2.2163 -1.2537
  794MOL0     H 9507   5.461   1.127   8.769  1.3656  1.9165 -0.1749
  794MOL0     H 9508   5.439   1.219   8.918  0.5877  0.5364  0.4383
  794MOL0     H 9509   5.597   1.067   9.030 -1.6767 -0.3135  0.1691
  794MOL0     H 9510   5.627   0.972   8.889 -0.8594 -0.6221  1.8676
  794MOL0     H 9511   5.657   1.200   8.757 -1.0041 -2.4394  0.1711
  794MOL0     H 9512   5.720   1.247   8.921  0.8023 -0.2879  1.4653
  794MOL0     H 9513   5.878   1.141   8.729 -1.8222 -0.3235 -2.0912
  794MOL0     H 9514   5.804   0.986   8.764 -0.1879 -0.5091  0.0758
  794MOL0     H 9515   5.964   1.146   8.962  0.1138 -0.0153 -0.0714
  794MOL0     H 9516   5.847   1.024   9.007 -1.9685  0.8187 -1.8121
  794MOL0     H 9517   6.090   1.004   8.828 -1.8058  3.4146  0.0555
  794MOL0     H 9518   5.969   0.864   8.857  0.4651  0.3290 -1.2869
  794MOL0     H 9519   6.023   0.881   9.092 -1.1629  2.8026  0.4493
  794MOL0     H 9520   6.164   0.827   8.991 -2.9990 -1.6302 -2.1060
  794MOL0     H 9521   6.189   1.174   8.939  1.4490 -0.1261 -1.4802
  794MOL0     H 9522   6.425   1.347   9.199 -2.3257  1.4446  0.2341
  794MOL0     H 9523   6.335   1.369   9.048 -1.0208 -0.8308  0.5350
  794MOL0     H 9524   6.581   1.177   9.056 -0.8119 -0.5539  0.5057
  794MOL0     H 9525   6.486   1.240   8.916 -0.9989  0.4303 -0.4237
  794MOL0     H 9526   6.569   1.471   8.982  1.0167  1.2038  2.1812
  794MOL0     H 9527   6.685   1.392   9.095  1.1209  0.0929 -0.5897
  794MOL0     H 9528   6.694   1.338   8.814 -2.3930 -1.6918  2.1600
  794MOL0     H 9529   6.802   1.460   8.904  0.0431  0.6610  0.7597
  794MOL0     H 9530   6.949   1.430   9.116 -0.1176 -2.3418  2.6845
  794MOL0     H 9531   7.281   1.548   9.138  0.9621 -1.1383 -0.7450
  794MOL0     H 9532   7.248   1.420   9.252 -4.2267 -1.8367  1.5049
  794MOL0     H 9533   7.124   1.552   9.214  2.2213  0.0068  3.1432
  794MOL0     H 9534   7.607   1.625   9.076 -0.8444  0.3119  2.9436
  794MOL0     H 9535   7.869   1.648   9.146  1.2049 -0.9237  3.0260
  794MOL0     H 9536   8.152   1.539   9.323 -0.1668  1.3645 -2.9516
  794MOL0     H 9537   7.991   1.604   9.324  1.6667  0.3156 -1.1103
  794MOL0     H 9538   8.053   1.492   9.544 -2.2543 -0.5568  1.0689
  794MOL0     H 9539   7.926   1.404   9.468  0.1301 -3.0876  2.6963
  794MOL0     H 9540   8.220   1.359   9.457  0.9784 -0.0596  1.2573
  794MOL0     H 9541   8.096   1.254   9.370  0.9942 -2.6266  1.6760
  794MOL0     H 9542   8.002   1.171   9.561 -0.6223  0.1822 -1.6590
  794MOL0     H 9543   8.100   1.287   9.663 -0.5562 -0.4058 -0.0834
  794MOL0     H 9544   8.237   1.053   9.511 -0.7838  0.7229 -0.4882
  794MOL0     H 9545   8.301   1.164   9.627 -1.2933  1.7048 -1.2177
  794MOL0     H 9546   8.160   1.036   9.795  0.7310  2.8198 -1.8259
  794MOL0     H 9547   8.263   0.931   9.695  0.5298 -0.6940  1.6261
  794MOL0     H 9548   8.043   0.923   9.547  2.4259 -1.5079  0.4050
  794MOL0     H 9549   7.958   0.967   9.689  0.4783  0.2796 -0.0104
  794MOL0     H 9550   8.056   0.775   9.810  0.9873 -1.3527 -0.2469
  794MOL0     H 9551   8.165   0.732   9.688 -0.0848  0.8669  1.0714
  794MOL0     H 9552   7.872   1.229   9.178 -1.2275  0.5719  3.7619
  794MOL0     H 9553   7.635   1.207   9.136 -2.1397 -0.2998  1.1470
  794MOL0     H 9554   7.249   1.122   8.878 -2.6151 -1.8589 -1.2789
  794MOL0     H 9555   7.007   1.124   8.828 -1.3632  1.6524 -1.2506
  794MOL0     H 9556   5.002   1.178   8.841  1.2911  1.0764  2.8019
  794MOL0     H 9557   4.779   1.076   8.842  1.0716  0.4937 -2.0831
  794MOL0     H 9558   4.527   0.822   9.131 -0.7717 -0.7324  1.0701
  794MOL0     H 9559   4.325   0.737   9.221  1.2633  0.5241  0.0226
  794MOL0     H 9560   4.086   0.611   9.264  1.5427 -0.8753 -0.4869
  794MOL0     H 9561   4.089   0.773   9.174 -0.3088 -1.0876 -1.5652
  794MOL0     H 9562   3.856   0.706   9.231 -1.8838 -0.1774  0.8756
  794MOL0     H 9563   3.878   0.543   9.187 -3.4817  1.8582  3.5641
  794MOL0     H 9564   3.875   0.792   9.002  1.0607  0.0354  0.0491
  794MOL0     H 9565   3.893   0.632   8.940 -1.2271 -1.3445  0.3376
  794MOL0     H 9566   3.659   0.580   9.057  2.0808 -1.1556 -0.7910
  794MOL0     H 9567   3.655   0.678   8.912 -1.6152  0.5074 -0.4971
  794MOL0     H 9568   3.519   0.961   9.195 -3.2339 -0.9339 -0.9343
  794MOL0     H 9569   4.221   0.557   8.851 -0.8200 -1.8954  1.1641
  794MOL0     H 9570   4.347   0.572   8.676  0.2375 -1.4347  2.5027
  794MOL0     H 9571   4.444   0.711   8.644  2.0898 -0.2920 -0.5156
  794MOL0     H 9572   4.516   0.558   8.710 -0.8365 -0.8020 -1.5566
  795MOL0     O 9573   7.401   1.760   1.841 -0.2413 -0.1853 -0.3629
  795MOL0     C 9574   7.398   1.830   1.743 -0.0359 -1.3252 -0.3679
  795MOL0     O 9575   7.499   1.911   1.709 -0.8406 -0.4985  0.0223
  795MOL0     C 9576   7.601   1.926   1.801 -0.7607  0.6484 -0.8111
  795MOL0     C 9577   7.708   1.843   1.781 -0.5886 -0.4480  0.6160
  795MOL0     C 9578   7.813   1.861   1.874  0.1211 -0.2227  0.6400
  795MOL0     C 9579   7.812   1.947   1.975  0.5748 -0.0065 -0.3851
  795MOL0     O 9580   7.926   1.957   2.048 -0.1994 -0.8480 -1.0443
  795MOL0     C 9581   7.917   2.035   2.170  0.3305  0.1308  0.0874
  795MOL0     C 9582   8.036   2.021   2.262 -0.4328  0.4494  0.6996
  795MOL0     C 9583   8.073   1.886   2.322 -0.4752  0.5879  0.6359
  795MOL0     C 9584   8.194   1.895   2.417  0.0225  0.5123 -0.2432
  795MOL0     C 9585   8.186   1.792   2.528 -0.2667 -0.9050  0.1924
  795MOL0     C 9586   8.314   1.815   2.609  0.4439 -0.6059  0.4840
  795MOL0     C 9587   8.301   1.720   2.731 -0.8070 -0.1313 -0.2334
  795MOL0     C 9588   8.433   1.709   2.817  0.6042 -0.8167 -0.2770
  795MOL0     N 9589   8.421   1.636   2.941 -0.2987 -0.7119 -0.6858
  795MOL0     C 9590   8.394   1.697   3.065 -0.0313 -0.2867  0.0976
  795MOL0     C 9591   8.345   1.601   3.142 -0.4788 -0.3050 -0.6835
  795MOL0     C 9592   8.311   1.627   3.289 -0.2159  0.0432 -0.4558
  795MOL0     C 9593   8.429   1.657   3.380 -0.0433  0.8978 -0.1452
  795MOL0     C 9594   8.382   1.707   3.521 -0.6762  0.3959 -0.1408
  795MOL0     C 9595   8.513   1.749   3.594 -0.1678  0.3509  0.0960
  795MOL0     O 9596   8.616   1.644   3.594  0.6113  0.4865  0.3197
  795MOL0     C 9597   8.713   1.668   3.680  0.0062  0.4901  0.2780
  795MOL0     C 9598   8.765   1.561   3.746  0.6233 -0.5434 -0.4043
  795MOL0     C 9599   8.868   1.572   3.846 -0.1594 -0.8960 -0.4712
  795MOL0     C 9600   8.924   1.442   3.905  0.2416  0.5692 -0.3785
  795MOL0     C 9601   8.922   1.702   3.873 -0.9430  0.8213  0.0372
  795MOL0     C 9602   9.048   1.725   3.960  0.9262 -0.4821 -1.3583
  795MOL0     O 9603   9.083   1.853   3.963  0.0890 -0.5861  0.7342
  795MOL0     C 9604   9.192   1.895   4.035  0.6723  0.5562 -0.3622
  795MOL0     C 9605   9.180   1.930   4.170  0.7972  0.1743  0.6208
  795MOL0     C 9606   9.277   1.985   4.255 -0.1140 -0.1314  0.2264
  795MOL0     C 9607   9.404   1.994   4.209 -0.0971 -0.5621  0.5009
  795MOL0     O 9608   9.507   2.038   4.296  0.9168  0.2436  0.3236
  795MOL0     C 9609   9.644   1.991   4.275  0.1427 -0.5083 -0.2663
  795MOL0     C 9610   9.734   2.090   4.189 -0.7096  0.1163  0.3190
  795MOL0     C 9611   9.882   2.048   4.207 -0.0523  0.1798 -0.4294
  795MOL0     C 9612   9.933   1.905   4.159 -0.1281 -0.1026  0.7056
  795MOL0     C 9613  10.078   1.885   4.192  0.2358  0.1609 -0.1463
  795MOL0     C 9614  10.136   1.739   4.168 -0.6397 -0.4828  0.2636
  795MOL0     C 9615  10.291   1.751   4.152 -0.0209  0.8475 -0.6769
  795MOL0     C 9616  10.360   1.792   4.280 -0.4424  0.2429  0.9347
  795MOL0    Cl 9617  10.537   1.734   4.293  0.1106  0.1292  0.2818
  795MOL0     C 9618   9.430   1.950   4.078 -0.0125  0.4199  0.1674
  795MOL0     C 9619   9.328   1.901   3.991 -0.4466  0.0788  0.5330
  795MOL0     O 9620   9.100   1.641   4.037  0.0598 -0.2536  0.3252
  795MOL0     C 9621   8.867   1.807   3.797 -0.1686 -0.1944  0.5098
  795MOL0     C 9622   8.764   1.794   3.708 -0.4816  0.1889  0.4000
  795MOL0     N 9623   8.335   1.483   3.073  0.3366  0.4631  0.0564
  795MOL0     N 9624   8.380   1.505   2.954 -0.7308  0.3995 -0.5560
  795MOL0     C 9625   7.690   2.027   2.002  0.3838  1.2423  0.1777
  795MOL0     C 9626   7.595   2.026   1.902 -0.0488 -0.6002 -0.0539
  795MOL0     C 9627   7.280   1.858   1.665 -0.1682  0.6134  0.2261
  795MOL0     C 9628   7.273   1.961   1.570  0.3856 -0.7923  1.2098
  795MOL0     C 9629   7.163   1.978   1.497  0.1077  0.3116  0.4313
  795MOL0     C 9630   7.056   1.894   1.496  0.3337 -0.2430  0.8129
  795MOL0     O 9631   6.953   1.944   1.412 -0.2220 -0.3691 -0.3819
  795MOL0     C 9632   6.851   1.853   1.387 -0.8294  0.0326  0.2119
  795MOL0     C 9633   6.731   1.924   1.324  0.2086 -0.1555  0.4101
  795MOL0     C 9634   6.622   1.820   1.286 -0.3011  0.4981  0.1848
  795MOL0     C 9635   6.477   1.873   1.271  0.4144 -0.2827  0.2012
  795MOL0     C 9636   6.455   1.943   1.138 -0.4572  0.1954  0.4345
  795MOL0     C 9637   6.425   1.997   1.031  0.1648 -0.8650  0.0884
  795MOL0     C 9638   7.060   1.784   1.572  0.4461  0.4906 -0.7380
  795MOL0     C 9639   7.170   1.764   1.659  0.4282  0.7166 -0.6361
  795MOL0     C 9640   7.164   1.632   1.727  0.8334  0.1462  0.5763
  795MOL0     H 9641   7.715   1.760   1.711  0.0613  1.4960 -1.7646
  795MOL0     H 9642   7.900   1.795   1.867  0.3216  0.1968 -1.5377
  795MOL0     H 9643   7.824   2.009   2.220  0.2743 -0.6339 -0.3987
  795MOL0     H 9644   7.907   2.139   2.137  2.4503 -0.3447 -2.3592
  795MOL0     H 9645   8.131   2.048   2.216  1.3455 -2.7356  2.2116
  795MOL0     H 9646   8.008   2.094   2.339  1.4374 -0.6316  2.4946
  795MOL0     H 9647   7.988   1.834   2.368 -0.2467 -1.9831 -1.6494
  795MOL0     H 9648   8.092   1.820   2.237 -0.5755  1.2080  0.1165
  795MOL0     H 9649   8.286   1.875   2.362 -1.5706 -2.5628 -2.1042
  795MOL0     H 9650   8.190   1.994   2.463  0.3419  0.5490 -0.2918
  795MOL0     H 9651   8.184   1.696   2.476 -0.1123  0.5063 -2.5986
  795MOL0     H 9652   8.091   1.789   2.581 -0.3393 -1.9853  0.0214
  795MOL0     H 9653   8.399   1.791   2.544  0.2618 -0.8308  0.3258
  795MOL0     H 9654   8.316   1.919   2.643 -4.2272  0.1113 -0.6482
  795MOL0     H 9655   8.284   1.614   2.710  4.5209 -1.5916  1.3989
  795MOL0     H 9656   8.221   1.751   2.800  1.7812 -1.1671  3.5862
  795MOL0     H 9657   8.516   1.661   2.765  5.0278  4.0236  1.4106
  795MOL0     H 9658   8.468   1.809   2.843  1.7853 -1.3922  0.4340
  795MOL0     H 9659   8.410   1.800   3.096 -1.5943  0.6398 -1.9709
  795MOL0     H 9660   8.259   1.537   3.324  0.7252 -0.1536  0.4725
  795MOL0     H 9661   8.230   1.701   3.290 -0.2299  0.0338 -0.7724
  795MOL0     H 9662   8.489   1.567   3.395  0.7767  1.4887  0.2238
  795MOL0     H 9663   8.485   1.738   3.332 -2.2823 -0.1520 -5.0958
  795MOL0     H 9664   8.320   1.798   3.518  0.4363  1.1502 -1.3637
  795MOL0     H 9665   8.331   1.623   3.568  0.5445  1.1068  2.6483
  795MOL0     H 9666   8.561   1.829   3.537 -0.4674 -1.2942 -2.6590
  795MOL0     H 9667   8.494   1.778   3.698  0.7289  0.8605  0.1289
  795MOL0     H 9668   8.724   1.464   3.720  3.5458 -2.8342  2.6658
  795MOL0     H 9669   9.000   1.384   3.851 -0.9067 -1.5421  0.1662
  795MOL0     H 9670   8.840   1.373   3.913  2.5661 -2.5454 -0.6916
  795MOL0     H 9671   8.963   1.456   4.007  2.7924 -2.0663 -0.8450
  795MOL0     H 9672   9.083   1.930   4.219  1.8696 -0.6085  2.8867
  795MOL0     H 9673   9.258   2.016   4.357  3.5446  3.1060  0.1446
  795MOL0     H 9674   9.695   1.992   4.372 -1.3848 -3.6017  0.7227
  795MOL0     H 9675   9.654   1.889   4.235  1.1751 -0.7422  0.5495
  795MOL0     H 9676   9.707   2.090   4.083  0.8514  1.0816 -0.1170
  795MOL0     H 9677   9.728   2.189   4.236 -0.4982 -0.4623  1.5876
  795MOL0     H 9678   9.893   2.043   4.315 -1.1856 -0.8767 -0.3386
  795MOL0     H 9679   9.940   2.130   4.165  0.1071  0.0300 -0.5013
  795MOL0     H 9680   9.921   1.884   4.053  0.8760  0.2269  0.5144
  795MOL0     H 9681   9.886   1.828   4.222 -0.2992  0.3155  1.0921
  795MOL0     H 9682  10.136   1.964   4.143  2.0239 -0.5446  0.7322
  795MOL0     H 9683  10.097   1.891   4.300  1.8545 -2.7121 -0.1860
  795MOL0     H 9684  10.087   1.705   4.076  1.3406 -1.9625 -0.2957
  795MOL0     H 9685  10.100   1.672   4.247 -1.4653 -0.1294  0.2044
  795MOL0     H 9686  10.316   1.817   4.068  0.3797 -3.1028 -3.9692
  795MOL0     H 9687  10.323   1.652   4.117 -3.0012 -0.8558  1.0120
  795MOL0     H 9688  10.297   1.768   4.366 -1.8304  2.0431  0.4723
  795MOL0     H 9689  10.373   1.900   4.269 -0.0811  0.4613  3.0277
  795MOL0     H 9690   9.532   1.954   4.043 -0.5704 -0.2177 -1.6717
  795MOL0     H 9691   9.358   1.878   3.889  0.9113 -0.8932  1.1267
  795MOL0     H 9692   8.903   1.905   3.823 -1.9979  0.6347  0.0780
  795MOL0     H 9693   8.730   1.882   3.654 -4.8639 -0.9049  0.9633
  795MOL0     H 9694   7.670   2.075   2.097 -0.8403  1.3716 -0.1236
  795MOL0     H 9695   7.513   2.095   1.918  1.7989  1.5087  0.9325
  795MOL0     H 9696   7.360   2.026   1.564 -0.4563  0.5192  2.5134
  795MOL0     H 9697   7.164   2.060   1.425  0.6701 -0.1663 -0.1153
  795MOL0     H 9698   6.902   1.782   1.321  4.0606  0.4127  3.0441
  795MOL0     H 9699   6.822   1.802   1.480 -0.4879  2.5409  1.8094
  795MOL0     H 9700   6.758   1.963   1.226  1.4714  0.6916  1.0679
  795MOL0     H 9701   6.681   1.997   1.388 -4.2955 -0.4310 -2.3777
  795MOL0     H 9702   6.660   1.762   1.201  2.7215 -0.3888  1.9635
  795MOL0     H 9703   6.624   1.754   1.373 -0.4693 -0.7574 -0.7446
  795MOL0     H 9704   6.444   1.945   1.345 -0.9885 -1.9706  1.2847
  795MOL0     H 9705   6.400   1.795   1.274  0.2468 -0.1091  0.4207
  795MOL0     H 9706   6.392   2.043   0.940 -0.4123  0.5371  0.9768
  795MOL0     H 9707   6.972   1.722   1.573 -1.6121  3.1982 -1.7640
  795MOL0     H 9708   7.077   1.567   1.711  1.0471 -0.7052  2.5664
  795MOL0     H 9709   7.251   1.571   1.702 -0.3811 -1.2164 -0.6016
  795MOL0     H 9710   7.153   1.647   1.835  0.5279 -0.8119  0.6903
  796MOL0     O 9711  11.032   2.107   5.326  0.1645  0.0215  0.1682
  796MOL0     C 9712  10.978   2.049   5.229  1.1376  0.6476  0.3688
  796MOL0     O 9713  11.046   2.010   5.113  0.0128  0.4623  0.7334
  796MOL0     C 9714  11.174   2.057   5.093 -0.0633 -0.6477  0.5034
  796MOL0     C 9715  11.183   2.194   5.044 -0.0700  0.3068  0.2371
  796MOL0     C 9716  11.309   2.254   5.030 -0.2250  0.4313  0.2863
  796MOL0     C 9717  11.422   2.181   5.065 -0.7115  0.1088  1.0023
  796MOL0     O 9718  11.545   2.239   5.046  0.7526  0.1756  0.2541
  796MOL0     C 9719  11.669   2.161   5.035  0.6142 -0.4235  0.4192
  796MOL0     C 9720  11.762   2.173   5.153 -0.0832 -0.5422 -0.5709
  796MOL0     C 9721  11.903   2.102   5.129  0.7341 -0.3811 -0.1786
  796MOL0     C 9722  11.973   2.080   5.270  0.2162  0.7542 -0.1793
  796MOL0     C 9723  12.108   2.001   5.269 -0.2449  0.0506 -0.8409
  796MOL0     C 9724  12.213   2.088   5.189 -0.0767 -0.2745  0.0997
  796MOL0     C 9725  12.352   2.007   5.201  0.4749  0.3253 -0.3088
  796MOL0     C 9726  12.439   1.985   5.324  0.7157 -0.8479 -0.1878
  796MOL0     N 9727  12.458   2.115   5.398  0.8161 -0.7244 -0.7943
  796MOL0     C 9728  12.354   2.189   5.464 -0.2520 -0.1346 -0.3225
  796MOL0     C 9729  12.407   2.315   5.496  1.2170  0.4839  0.2575
  796MOL0     C 9730  12.353   2.430   5.574  0.5237 -0.2338  0.1536
  796MOL0     C 9731  12.406   2.429   5.721  0.3688  0.4286  0.0118
  796MOL0     C 9732  12.558   2.416   5.742 -0.2808 -0.2359 -0.3162
  796MOL0     C 9733  12.604   2.425   5.888  0.0154 -0.5656  0.3676
  796MOL0     O 9734  12.639   2.295   5.936 -0.1269  0.5281 -0.4277
  796MOL0     C 9735  12.766   2.239   5.941 -0.3245 -0.0981  0.1247
  796MOL0     C 9736  12.779   2.115   6.004 -0.6489 -0.0818 -0.3082
  796MOL0     C 9737  12.914   2.056   6.010  1.0106  0.4855  0.1949
  796MOL0     C 9738  12.926   1.937   6.107 -0.4596 -0.2078  0.7958
  796MOL0     C 9739  13.022   2.118   5.953 -0.2357  0.0378 -0.9950
  796MOL0     C 9740  13.167   2.087   5.974 -0.3520 -0.1616  0.3463
  796MOL0     O 9741  13.266   2.166   5.916  0.2223 -0.5977  0.0296
  796MOL0     C 9742  13.400   2.120   5.905 -0.1389 -0.2801  0.2241
  796MOL0     C 9743  13.513   2.206   5.925  0.0264 -0.2629  0.4632
  796MOL0     C 9744  13.645   2.153   5.911  0.2356  0.0331  0.7878
  796MOL0     C 9745  13.669   2.024   5.850  0.6209 -0.8305 -0.3506
  796MOL0     O 9746  13.799   1.973   5.848 -0.6555  0.3143 -0.1857
  796MOL0     C 9747  13.863   1.964   5.981  0.5313  0.9309 -0.1058
  796MOL0     C 9748  13.890   1.816   6.029 -1.3659 -0.6171 -0.1959
  796MOL0     C 9749  13.997   1.733   5.943  0.1753 -1.0203 -0.2253
  796MOL0     C 9750  14.143   1.743   5.998 -0.6888 -0.6031  0.3548
  796MOL0     C 9751  14.248   1.679   5.905 -0.5071 -0.0434 -0.7105
  796MOL0     C 9752  14.239   1.528   5.903 -0.9090  0.6615 -0.7428
  796MOL0     C 9753  14.360   1.464   5.823  0.1994  0.1462 -0.2056
  796MOL0     C 9754  14.386   1.305   5.837 -0.1181 -0.2002  0.5637
  796MOL0    Cl 9755  14.244   1.203   5.827  0.0063  0.3412 -0.1456
  796MOL0     C 9756  13.556   1.948   5.818  0.2903  0.4062  0.8906
  796MOL0     C 9757  13.427   1.994   5.840  0.2150  0.2073  0.4756
  796MOL0     O 9758  13.194   2.003   6.058  0.1866  0.0290 -0.0003
  796MOL0     C 9759  13.003   2.222   5.863  0.1174 -0.4493 -0.3389
  796MOL0     C 9760  12.875   2.290   5.871  0.8246 -0.4087  0.0906
  796MOL0     N 9761  12.532   2.323   5.433  0.1109  0.5300  0.0656
  796MOL0     N 9762  12.553   2.210   5.370 -0.2161 -0.1176 -0.1450
  796MOL0     C 9763  11.415   2.050   5.121 -0.0784  0.0554  0.7058
  796MOL0     C 9764  11.285   1.992   5.140  0.7146 -0.5273  0.6483
  796MOL0     C 9765  10.839   1.997   5.244 -0.2462 -1.4236 -1.1003
  796MOL0     C 9766  10.800   1.882   5.179 -0.9592 -0.5582 -0.5305
  796MOL0     C 9767  10.683   1.824   5.192 -0.1917 -0.6193  0.8818
  796MOL0     C 9768  10.580   1.884   5.259 -0.2071 -1.2179 -0.5347
  796MOL0     O 9769  10.455   1.825   5.264 -0.1325  0.2946 -0.1698
  796MOL0     C 9770  10.374   1.823   5.145 -0.2218 -0.1356 -0.3897
  796MOL0     C 9771  10.220   1.809   5.180  0.5195  0.2747 -0.7159
  796MOL0     C 9772  10.169   1.678   5.257  0.0670 -0.0274 -0.5659
  796MOL0     C 9773  10.015   1.691   5.268  0.7058  0.1717  0.5792
  796MOL0     C 9774   9.941   1.568   5.314  0.5798  0.4620 -0.5023
  796MOL0     C 9775   9.862   1.486   5.352 -0.5619  0.7589  0.3848
  796MOL0     C 9776  10.599   2.001   5.322 -0.3851  0.3073 -0.5700
  796MOL0     C 9777  10.732   2.055   5.323  0.2520 -0.1843  0.2814
  796MOL0     C 9778  10.750   2.191   5.393  0.4757  0.1838  0.0491
  796MOL0     H 9779  11.089   2.233   5.008 -0.0564 -0.8397 -1.0992
  796MOL0     H 9780  11.321   2.350   4.981  0.6137  0.8999  1.3671
  796MOL0     H 9781  11.729   2.201   4.953  0.3711 -2.8265 -1.0250
  796MOL0     H 9782  11.642   2.059   5.005 -0.5703 -0.8240  2.6210
  796MOL0     H 9783  11.783   2.280   5.162  1.7945 -0.9547  0.8605
  796MOL0     H 9784  11.723   2.136   5.249 -0.7560 -1.1698 -1.0788
  796MOL0     H 9785  11.887   2.012   5.069 -1.2936 -1.7060  2.1869
  796MOL0     H 9786  11.968   2.175   5.080  2.5679 -0.8484  1.4483
  796MOL0     H 9787  11.994   2.177   5.315  0.8115  0.7391 -0.4111
  796MOL0     H 9788  11.900   2.024   5.329 -0.0459  3.2877  2.0997
  796MOL0     H 9789  12.096   1.898   5.233  0.8877  0.8832 -3.8900
  796MOL0     H 9790  12.126   1.997   5.376 -4.0991 -1.1912 -0.0756
  796MOL0     H 9791  12.181   2.081   5.084  1.7430  0.6992 -0.5673
  796MOL0     H 9792  12.219   2.195   5.212  2.3746 -0.4874  0.7335
  796MOL0     H 9793  12.406   2.040   5.112  0.5510 -1.4364 -0.9441
  796MOL0     H 9794  12.320   1.906   5.175  1.9211 -0.2270 -0.0238
  796MOL0     H 9795  12.388   1.911   5.387 -0.7057 -1.8230 -2.3574
  796MOL0     H 9796  12.538   1.947   5.297  1.2467  1.6026 -2.0564
  796MOL0     H 9797  12.255   2.155   5.494 -0.2328  0.5867  0.6181
  796MOL0     H 9798  12.244   2.437   5.580  0.4247 -1.9455  0.8076
  796MOL0     H 9799  12.390   2.518   5.519 -1.4044  0.4915 -0.0738
  796MOL0     H 9800  12.376   2.518   5.776 -0.7159 -1.1135  2.0339
  796MOL0     H 9801  12.351   2.355   5.780  1.9949  0.6161  1.8966
  796MOL0     H 9802  12.601   2.322   5.704 -1.9707 -0.6185 -1.3792
  796MOL0     H 9803  12.602   2.499   5.687  1.4818 -1.4118 -0.7808
  796MOL0     H 9804  12.680   2.503   5.897 -1.0642  0.5678 -0.0066
  796MOL0     H 9805  12.529   2.472   5.953  3.2442  1.1201  3.2053
  796MOL0     H 9806  12.708   2.064   6.068 -1.1102  1.8780  0.8232
  796MOL0     H 9807  12.982   1.854   6.064 -0.0040 -0.4855  1.8826
  796MOL0     H 9808  12.829   1.893   6.134 -1.0151  0.7247  0.3537
  796MOL0     H 9809  12.984   1.966   6.196 -0.2015  3.3977 -0.3957
  796MOL0     H 9810  13.503   2.307   5.965  2.3481  0.0892  0.2696
  796MOL0     H 9811  13.728   2.214   5.946 -2.2892  2.9176  2.2778
  796MOL0     H 9812  13.956   2.021   5.974  0.0284  1.7364 -0.3186
  796MOL0     H 9813  13.804   2.014   6.058 -2.0505 -1.6617 -0.2205
  796MOL0     H 9814  13.931   1.825   6.130  0.9842 -2.7923 -0.8520
  796MOL0     H 9815  13.789   1.775   6.023 -2.6588  2.3800 -0.9359
  796MOL0     H 9816  13.983   1.760   5.838  0.5793 -1.7878 -0.4864
  796MOL0     H 9817  13.966   1.629   5.956 -0.8316 -0.5376  1.5443
  796MOL0     H 9818  14.147   1.708   6.102 -0.4736 -3.3991 -0.5189
  796MOL0     H 9819  14.172   1.848   5.998  1.1657 -1.0707 -0.5528
  796MOL0     H 9820  14.233   1.725   5.807 -0.2423  1.3507 -0.1263
  796MOL0     H 9821  14.344   1.711   5.947 -0.4713 -0.5366 -0.4060
  796MOL0     H 9822  14.142   1.495   5.864 -2.9559  3.1907  1.7777
  796MOL0     H 9823  14.233   1.512   6.011 -0.8365 -0.1853 -0.8574
  796MOL0     H 9824  14.446   1.526   5.848  1.3317 -0.6506 -1.9349
  796MOL0     H 9825  14.354   1.489   5.717 -0.7544 -0.9402 -0.4254
  796MOL0     H 9826  14.426   1.280   5.936 -0.5765 -2.2265  0.2742
  796MOL0     H 9827  14.462   1.277   5.764 -2.8717 -1.6866 -1.9526
  796MOL0     H 9828  13.575   1.858   5.761 -4.0536 -0.3029  0.1931
  796MOL0     H 9829  13.342   1.941   5.798  1.6875 -0.3106 -2.0670
  796MOL0     H 9830  13.082   2.272   5.807  1.8478  1.7763  3.6362
  796MOL0     H 9831  12.868   2.388   5.826 -4.0701 -1.5966 -2.2697
  796MOL0     H 9832  11.503   1.993   5.150  0.6223 -0.0213 -1.3865
  796MOL0     H 9833  11.286   1.898   5.195  1.8388 -0.5274  0.6569
  796MOL0     H 9834  10.871   1.827   5.117 -0.8324 -1.9996  0.8164
  796MOL0     H 9835  10.656   1.731   5.144 -1.6286  0.4886 -0.5353
  796MOL0     H 9836  10.394   1.913   5.086  0.6653  1.4178  2.0818
  796MOL0     H 9837  10.402   1.737   5.084 -1.7064 -0.2853 -0.8770
  796MOL0     H 9838  10.168   1.811   5.084  1.9497  0.2136 -1.5285
  796MOL0     H 9839  10.191   1.903   5.228 -0.0015  0.6659 -1.7737
  796MOL0     H 9840  10.203   1.583   5.214 -0.5437 -0.2580 -0.5527
  796MOL0     H 9841  10.204   1.679   5.360 -1.8580 -4.5582  0.3995
  796MOL0     H 9842   9.970   1.716   5.172 -0.9878 -0.7487  1.0845
  796MOL0     H 9843   9.987   1.774   5.335 -1.5713 -0.3311  0.3474
  796MOL0     H 9844   9.793   1.414   5.390  0.3568 -0.8537 -0.8909
  796MOL0     H 9845  10.505   2.035   5.365 -1.0255 -2.6084  0.5931
  796MOL0     H 9846  10.655   2.232   5.427 -0.6255 -2.7795  0.8773
  796MOL0     H 9847  10.830   2.183   5.467  1.9774  1.2065 -1.3756
  796MOL0     H 9848  10.788   2.262   5.319 -0.4767  2.0248  1.2555
  797MOL0     O 9849   5.216   8.501   0.661 -0.3160  0.1738  0.2617
  797MOL0     C 9850   5.320   8.569   0.647  1.3757  0.4047 -0.0339
  797MOL0     O 9851   5.415   8.539   0.552 -0.0045  0.3361  0.2489
  797MOL0     C 9852   5.408   8.406   0.508 -0.7255  0.9725 -0.1556
  797MOL0     C 9853   5.515   8.329   0.546  0.0490 -1.0860 -0.4680
  797MOL0     C 9854   5.529   8.194   0.518 -0.7034 -0.1197  0.3376
  797MOL0     C 9855   5.431   8.135   0.434  0.0927  0.1026 -0.2314
  797MOL0     O 9856   5.439   8.003   0.426 -1.0948  0.3044  0.0119
  797MOL0     C 9857   5.388   7.943   0.304 -1.0782 -0.3008 -1.0055
  797MOL0     C 9858   5.466   7.818   0.280  0.6010  0.4807  0.1000
  797MOL0     C 9859   5.390   7.694   0.345 -0.3546 -0.0350 -0.6449
  797MOL0     C 9860   5.369   7.691   0.502 -0.9623 -0.8989  1.4328
  797MOL0     C 9861   5.282   7.578   0.547  0.0468  0.5946  0.0164
  797MOL0     C 9862   5.352   7.443   0.519 -0.3080 -0.7128 -0.2515
  797MOL0     C 9863   5.267   7.326   0.575 -0.3178 -0.4305  0.0232
  797MOL0     C 9864   5.291   7.184   0.532 -0.5295 -0.1318  0.6464
  797MOL0     N 9865   5.225   7.132   0.414  0.3117 -0.2006 -0.5382
  797MOL0     C 9866   5.091   7.099   0.381  0.8393  0.6007  0.3927
  797MOL0     C 9867   5.089   7.066   0.250  0.0824  1.0189  0.2519
  797MOL0     C 9868   4.970   7.028   0.165  0.2017  0.1746 -0.3068
  797MOL0     C 9869   4.968   6.875   0.160 -0.4695  0.2505 -0.6268
  797MOL0     C 9870   4.964   6.805   0.300  0.0583  0.6198 -0.2025
  797MOL0     C 9871   4.934   6.652   0.287  0.2555 -0.3333 -0.4726
  797MOL0     O 9872   4.801   6.635   0.228  0.6513  0.3548  0.8666
  797MOL0     C 9873   4.687   6.611   0.301  0.7723 -0.5039  0.0361
  797MOL0     C 9874   4.570   6.558   0.231 -0.2530  0.8550 -0.2084
  797MOL0     C 9875   4.451   6.524   0.290 -0.5293 -0.1477  0.1768
  797MOL0     C 9876   4.341   6.463   0.199 -0.3168 -0.2417 -0.5977
  797MOL0     C 9877   4.443   6.538   0.434  0.2652 -0.6515  0.0825
  797MOL0     C 9878   4.320   6.508   0.517 -0.4245  0.7481  0.6174
  797MOL0     O 9879   4.209   6.559   0.463 -0.0076 -0.3624  0.4258
  797MOL0     C 9880   4.085   6.567   0.541 -0.6573  0.2211 -0.4175
  797MOL0     C 9881   4.028   6.684   0.600 -0.5841 -0.0996  0.5037
  797MOL0     C 9882   3.908   6.679   0.675 -0.2378 -0.6938 -0.2038
  797MOL0     C 9883   3.842   6.563   0.704  0.1031  0.5911 -0.7858
  797MOL0     O 9884   3.731   6.554   0.788 -0.1916  0.0931 -0.3174
  797MOL0     C 9885   3.689   6.683   0.842  0.4426  0.7357 -1.4993
  797MOL0     C 9886   3.573   6.664   0.942  0.3551 -1.0304 -0.9319
  797MOL0     C 9887   3.444   6.621   0.870  0.6068 -0.1466  0.0197
  797MOL0     C 9888   3.311   6.657   0.940  0.3261  0.4211 -0.3668
  797MOL0     C 9889   3.254   6.537   1.021 -0.6361 -0.3026  0.0098
  797MOL0     C 9890   3.122   6.566   1.088  0.5959 -0.1084 -0.1758
  797MOL0     C 9891   3.022   6.472   1.036 -0.4356  0.2064 -0.1312
  797MOL0     C 9892   2.880   6.471   1.101 -0.2458  0.0136  0.1785
  797MOL0    Cl 9893   2.877   6.411   1.263 -0.3758  0.4247 -0.1971
  797MOL0     C 9894   3.902   6.442   0.648  0.4597  0.3666 -0.3358
  797MOL0     C 9895   4.015   6.449   0.564 -0.0062  0.1343  1.1924
  797MOL0     O 9896   4.323   6.445   0.616 -0.6101  0.0473  0.3362
  797MOL0     C 9897   4.550   6.592   0.507 -0.4051  0.5244 -0.0671
  797MOL0     C 9898   4.670   6.634   0.442  0.1513  0.6923  0.1166
  797MOL0     N 9899   5.216   7.078   0.201 -0.3701  0.2323  0.8036
  797MOL0     N 9900   5.294   7.110   0.296 -0.1231  0.2602 -0.6486
  797MOL0     C 9901   5.322   8.211   0.390 -0.0141  0.1264 -0.4930
  797MOL0     C 9902   5.303   8.343   0.437 -0.6860  0.2813  1.3401
  797MOL0     C 9903   5.348   8.685   0.725  0.5337  0.1163 -0.2316
  797MOL0     C 9904   5.476   8.735   0.740  0.3333 -0.0722 -0.2122
  797MOL0     C 9905   5.506   8.855   0.811  0.4785  0.4625  0.2709
  797MOL0     C 9906   5.395   8.923   0.868 -0.1224  0.7118 -0.3227
  797MOL0     O 9907   5.403   9.045   0.935  0.3506 -0.3755  0.1914
  797MOL0     C 9908   5.293   9.140   0.951 -0.7239 -0.4795  0.5022
  797MOL0     C 9909   5.346   9.288   0.972  0.4711  0.2833  0.0596
  797MOL0     C 9910   5.247   9.399   0.962  0.3688  0.1069  0.2030
  797MOL0     C 9911   5.205   9.435   0.819  0.2755 -0.2081 -0.3263
  797MOL0     C 9912   5.318   9.458   0.715  0.1236  0.4595  0.2929
  797MOL0     C 9913   5.414   9.459   0.636  0.0163 -0.5406 -0.9637
  797MOL0     C 9914   5.274   8.863   0.869  0.8086 -0.0532  0.9692
  797MOL0     C 9915   5.243   8.749   0.791  0.8545 -0.7749 -0.0404
  797MOL0     C 9916   5.089   8.716   0.781 -0.2785  0.4999 -0.6586
  797MOL0     H 9917   5.586   8.381   0.610  0.5045 -2.5370  0.2757
  797MOL0     H 9918   5.615   8.136   0.550 -0.6255 -0.5506 -0.6384
  797MOL0     H 9919   5.407   8.008   0.219 -2.6518 -0.1543 -1.2799
  797MOL0     H 9920   5.282   7.920   0.316 -0.7255 -1.7877 -0.4835
  797MOL0     H 9921   5.461   7.798   0.173 -2.0949  0.8712  0.0918
  797MOL0     H 9922   5.569   7.829   0.316 -0.6307 -0.6789  4.6798
  797MOL0     H 9923   5.289   7.689   0.304 -0.2117 -0.3302 -0.9619
  797MOL0     H 9924   5.448   7.609   0.309 -0.5904 -1.6674  2.4817
  797MOL0     H 9925   5.467   7.692   0.551  0.2865  2.0637 -0.8002
  797MOL0     H 9926   5.328   7.789   0.529 -2.2067 -1.3731  1.3156
  797MOL0     H 9927   5.183   7.580   0.501  1.5749 -0.1342 -3.7225
  797MOL0     H 9928   5.261   7.593   0.653  0.5186  0.8848  0.0704
  797MOL0     H 9929   5.370   7.429   0.412  0.8143  2.8748 -0.6751
  797MOL0     H 9930   5.447   7.445   0.574 -0.8510  1.6599  0.7435
  797MOL0     H 9931   5.165   7.349   0.541  0.2681  0.5909 -1.1200
  797MOL0     H 9932   5.273   7.320   0.684  0.1473 -1.5204 -0.0517
  797MOL0     H 9933   5.399   7.175   0.516  0.0517  2.4575  2.4607
  797MOL0     H 9934   5.272   7.112   0.613 -0.2500 -2.6830 -1.4025
  797MOL0     H 9935   5.006   7.098   0.448 -2.2413 -3.1930 -3.0919
  797MOL0     H 9936   4.982   7.079   0.069  0.4827  1.9090  0.6066
  797MOL0     H 9937   4.889   7.077   0.220  0.4864 -0.8001  1.0329
  797MOL0     H 9938   4.876   6.842   0.111 -2.1213  0.3617  2.1985
  797MOL0     H 9939   5.056   6.846   0.102  1.2140  0.7318  1.5913
  797MOL0     H 9940   5.063   6.814   0.345  1.1089 -2.0896 -1.6837
  797MOL0     H 9941   4.890   6.852   0.364 -2.0737 -1.2014 -1.1648
  797MOL0     H 9942   5.009   6.614   0.218  2.0152  1.3560  0.4400
  797MOL0     H 9943   4.953   6.586   0.372  1.7394  1.0737  0.3513
  797MOL0     H 9944   4.574   6.552   0.122  2.7073  1.7286 -0.2266
  797MOL0     H 9945   4.253   6.527   0.183  1.0705  1.7279 -0.7622
  797MOL0     H 9946   4.302   6.371   0.243  0.5512  0.1998  1.1942
  797MOL0     H 9947   4.383   6.421   0.107  0.2460 -1.3133  0.1314
  797MOL0     H 9948   4.086   6.772   0.574  0.9655 -1.5993 -1.4362
  797MOL0     H 9949   3.884   6.773   0.725  1.2097 -0.0311 -0.6846
  797MOL0     H 9950   3.772   6.734   0.890  0.0537  0.0482 -0.0479
  797MOL0     H 9951   3.653   6.745   0.759 -0.3043  0.4777 -1.3806
  797MOL0     H 9952   3.592   6.594   1.024  0.2401  0.6044  0.5385
  797MOL0     H 9953   3.553   6.762   0.987 -3.1899 -1.4498 -1.3109
  797MOL0     H 9954   3.459   6.515   0.845 -1.2240 -0.7892  1.4245
  797MOL0     H 9955   3.441   6.673   0.774  1.3610  0.8969  0.5364
  797MOL0     H 9956   3.240   6.692   0.865 -0.1715  0.0094 -0.0936
  797MOL0     H 9957   3.337   6.736   1.012 -1.5685 -0.0019  0.8528
  797MOL0     H 9958   3.256   6.441   0.969 -0.9674 -1.0376  1.2937
  797MOL0     H 9959   3.332   6.511   1.094  1.6964  1.6342 -1.6191
  797MOL0     H 9960   3.090   6.670   1.082 -3.4844 -1.2096 -0.5892
  797MOL0     H 9961   3.134   6.543   1.194  0.0276  2.6953  0.5648
  797MOL0     H 9962   3.062   6.370   1.042 -0.8824  0.0004 -0.5421
  797MOL0     H 9963   3.020   6.500   0.930  1.7814  4.1292  0.6497
  797MOL0     H 9964   2.827   6.401   1.035  0.0627  0.2005 -0.2727
  797MOL0     H 9965   2.838   6.571   1.086  2.9945  1.6680  1.2396
  797MOL0     H 9966   3.864   6.346   0.680  1.6273  0.6015  2.0653
  797MOL0     H 9967   4.050   6.359   0.515 -0.3813  0.3993  0.4320
  797MOL0     H 9968   4.537   6.624   0.610  1.8737 -0.2519  0.5213
  797MOL0     H 9969   4.750   6.664   0.508  0.7034  0.0233 -0.2355
  797MOL0     H 9970   5.247   8.175   0.320 -0.9676  0.6223  0.2437
  797MOL0     H 9971   5.227   8.405   0.391 -0.2033  1.2725  1.8434
  797MOL0     H 9972   5.564   8.691   0.695  0.9714  1.7428 -0.8565
  797MOL0     H 9973   5.604   8.901   0.800  0.1256  0.6768 -3.1832
  797MOL0     H 9974   5.228   9.136   0.863 -0.8630 -1.6624  0.6474
  797MOL0     H 9975   5.233   9.118   1.040  1.1744  2.9133  2.8609
  797MOL0     H 9976   5.425   9.302   0.898 -0.2313 -0.1658 -0.7964
  797MOL0     H 9977   5.410   9.294   1.060  3.8880  1.7240 -2.3181
  797MOL0     H 9978   5.163   9.355   1.016  2.6196 -2.2932  2.0063
  797MOL0     H 9979   5.284   9.490   1.009 -2.2409  1.5816 -0.4252
  797MOL0     H 9980   5.140   9.523   0.822  1.5344  0.7239  1.5550
  797MOL0     H 9981   5.141   9.355   0.781  1.4010 -1.3036 -0.0050
  797MOL0     H 9982   5.486   9.469   0.558 -1.9001 -1.1977 -2.9230
  797MOL0     H 9983   5.198   8.913   0.928  1.6114  2.8341 -0.2515
  797MOL0     H 9984   5.019   8.787   0.826  0.9649 -0.2052  2.7628
  797MOL0     H 9985   5.066   8.709   0.675  0.8856 -4.7998 -0.8354
  797MOL0     H 9986   5.068   8.620   0.829 -1.8310 -0.0801 -2.3673
  798MOL0     O 9987   2.930   8.542   4.893  0.1717 -0.2386  0.3919
  798MOL0     C 9988   3.034   8.598   4.843  0.1846  0.4074 -0.5962
  798MOL0     O 9989   3.150   8.608   4.903 -0.2741 -0.0143  0.8861
  798MOL0     C 9990   3.164   8.556   5.029 -0.5795  0.2987 -0.0385
  798MOL0     C 9991   3.186   8.424   5.049  0.5205 -0.7538  0.2897
  798MOL0     C 9992   3.214   8.387   5.178  0.2294  0.2522 -1.2997
  798MOL0     C 9993   3.216   8.470   5.288 -1.4309  0.2380  0.6561
  798MOL0     O 9994   3.222   8.407   5.408 -0.6448 -0.6034 -0.4127
  798MOL0     C 9995   3.191   8.490   5.528  0.1934 -0.9529  0.4052
  798MOL0     C 9996   3.195   8.400   5.654 -0.2087  0.0748  0.5794
  798MOL0     C 9997   3.113   8.270   5.631  0.6061 -0.1371  0.3475
  798MOL0     C 9998   3.128   8.174   5.756 -0.0603 -0.3896 -0.1653
  798MOL0     C 9999   3.089   8.032   5.719  0.1949  1.2684 -0.0945
  798MOL0     C10000   3.089   7.937   5.833 -0.1497 -0.5949  0.7028
  798MOL0     C10001   3.045   7.790   5.793 -0.1422 -0.1579  0.5977
  798MOL0     C10002   2.894   7.788   5.751  0.6887  0.5181 -0.1341
  798MOL0     N10003   2.814   7.823   5.867  0.4172  0.3617  0.1783
  798MOL0     C10004   2.777   7.957   5.892 -0.2702  1.0622 -1.0741
  798MOL0     C10005   2.701   7.947   6.006  0.4242 -0.4433 -0.4384
  798MOL0     C10006   2.617   8.051   6.077  0.2390  0.0644 -0.3398
  798MOL0     C10007   2.676   8.121   6.190 -0.5052 -0.3228  0.2066
  798MOL0     C10008   2.823   8.162   6.165 -0.3286  1.1201  0.5735
  798MOL0     C10009   2.888   8.249   6.270  0.0253 -0.0296 -0.4895
  798MOL0     O10010   3.028   8.252   6.245  0.2254  0.1353  0.0472
  798MOL0     C10011   3.091   8.326   6.337 -0.5943  0.8240 -0.4032
  798MOL0     C10012   3.229   8.359   6.312  0.0556  0.7060 -0.8037
  798MOL0     C10013   3.309   8.440   6.399 -0.1733 -0.1920 -0.1833
  798MOL0     C10014   3.450   8.472   6.367 -0.5366 -0.3274  0.0923
  798MOL0     C10015   3.242   8.495   6.512  0.8183  0.2251 -0.4479
  798MOL0     C10016   3.306   8.587   6.611  0.7583  0.0258  0.2840
  798MOL0     O10017   3.435   8.564   6.641  0.1377 -0.4257 -0.8732
  798MOL0     C10018   3.505   8.630   6.740 -0.0283 -0.3534 -0.8572
  798MOL0     C10019   3.458   8.718   6.845  0.3615  0.3966 -0.1241
  798MOL0     C10020   3.552   8.781   6.928 -0.0706  0.4307  0.1499
  798MOL0     C10021   3.688   8.766   6.911 -1.5302  0.2039  0.0096
  798MOL0     O10022   3.777   8.820   6.995  0.3057  0.0841  0.0437
  798MOL0     C10023   3.916   8.800   6.978 -0.3094 -0.9817  0.1424
  798MOL0     C10024   3.994   8.839   7.103 -0.2588 -0.2123  0.4218
  798MOL0     C10025   4.137   8.850   7.069 -0.3635 -0.6935 -0.4016
  798MOL0     C10026   4.232   8.896   7.187  0.8906  0.9984 -0.5941
  798MOL0     C10027   4.377   8.915   7.141  0.4115 -0.7551  0.2482
  798MOL0     C10028   4.458   8.982   7.247 -0.0822 -0.4195 -0.4701
  798MOL0     C10029   4.596   9.007   7.179 -0.8138  0.0210 -0.3100
  798MOL0     C10030   4.696   9.094   7.258 -0.2969  1.1112 -0.1106
  798MOL0    Cl10031   4.628   9.249   7.296  0.0634  0.0741 -0.2919
  798MOL0     C10032   3.732   8.686   6.805  0.0660  0.3718 -0.3983
  798MOL0     C10033   3.642   8.617   6.722  0.8242  0.6100 -0.4383
  798MOL0     O10034   3.237   8.679   6.653  0.3184  0.4354  0.4887
  798MOL0     C10035   3.107   8.468   6.536  0.5655 -0.8402  0.4876
  798MOL0     C10036   3.038   8.383   6.446  1.1039  0.3556 -0.1653
  798MOL0     N10037   2.705   7.813   6.049 -1.7328  0.1543 -0.3970
  798MOL0     N10038   2.758   7.739   5.955  0.2746 -0.5018 -0.0589
  798MOL0     C10039   3.194   8.604   5.264  0.4601 -0.9360 -1.0194
  798MOL0     C10040   3.178   8.648   5.133 -0.3032  0.1975 -0.0539
  798MOL0     C10041   3.020   8.657   4.707 -0.5540 -0.7908 -0.2275
  798MOL0     C10042   2.894   8.648   4.636 -0.4819 -0.5254  0.0666
  798MOL0     C10043   2.872   8.692   4.512  0.0336  0.1295 -0.0749
  798MOL0     C10044   2.979   8.743   4.444  0.2153  0.3620  0.6859
  798MOL0     O10045   2.966   8.779   4.313 -0.0969 -0.5587 -0.2584
  798MOL0     C10046   2.869   8.727   4.225  0.0626  0.2380  0.2957
  798MOL0     C10047   2.749   8.823   4.188 -0.5213 -0.2706 -0.4780
  798MOL0     C10048   2.794   8.954   4.134 -0.0267  0.0830  0.6921
  798MOL0     C10049   2.687   9.011   4.048  0.3466 -0.4770  0.2557
  798MOL0     C10050   2.747   9.134   3.982  0.4127  1.3397  0.3589
  798MOL0     C10051   2.800   9.233   3.942  0.0533 -0.2635  0.2427
  798MOL0     C10052   3.099   8.758   4.503  0.1701 -0.0411  0.0391
  798MOL0     C10053   3.125   8.721   4.636  0.1695  0.3099  0.5624
  798MOL0     C10054   3.258   8.758   4.682 -0.1124 -0.2225 -0.0379
  798MOL0     H10055   3.184   8.349   4.970 -0.7269 -1.8520  1.3096
  798MOL0     H10056   3.237   8.284   5.201 -2.2729  0.1527  1.2420
  798MOL0     H10057   3.089   8.527   5.515  0.4319 -0.0839  0.9054
  798MOL0     H10058   3.261   8.573   5.541 -2.5537  1.7944 -1.0966
  798MOL0     H10059   3.296   8.378   5.689 -0.0553  0.6343  0.4924
  798MOL0     H10060   3.146   8.448   5.739 -1.1755  0.0806  0.0348
  798MOL0     H10061   3.007   8.287   5.613  0.9236 -0.8584 -2.6919
  798MOL0     H10062   3.141   8.214   5.541 -1.3166 -0.9622  0.2312
  798MOL0     H10063   3.232   8.166   5.788  0.5409  1.5594 -1.4759
  798MOL0     H10064   3.060   8.214   5.832 -3.0137 -0.5264 -2.5195
  798MOL0     H10065   3.144   7.986   5.636 -2.5249 -1.5173 -0.5236
  798MOL0     H10066   2.984   8.031   5.688  0.3906 -0.0090 -0.7647
  798MOL0     H10067   3.192   7.931   5.871  1.0212  0.4273 -2.0250
  798MOL0     H10068   3.024   7.981   5.909  0.0191  3.4810 -1.1898
  798MOL0     H10069   3.068   7.717   5.871  3.0004  0.4284  0.3418
  798MOL0     H10070   3.110   7.771   5.708  0.8386 -0.9017  1.4839
  798MOL0     H10071   2.863   7.858   5.673 -5.8159 -1.4777  0.0398
  798MOL0     H10072   2.881   7.684   5.719  0.8599  0.8193 -1.2105
  798MOL0     H10073   2.801   8.041   5.827 -0.8778  0.4341 -2.1468
  798MOL0     H10074   2.528   8.000   6.118  1.3750 -0.5238  1.5275
  798MOL0     H10075   2.582   8.131   6.012 -1.9692  0.1865  0.8840
  798MOL0     H10076   2.611   8.209   6.201  1.6400  1.2255  1.1808
  798MOL0     H10077   2.653   8.059   6.276 -0.6458  1.0553  1.1971
  798MOL0     H10078   2.882   8.070   6.168  0.5993  1.6812 -0.0219
  798MOL0     H10079   2.828   8.204   6.064  2.0068 -1.2577 -0.4202
  798MOL0     H10080   2.848   8.350   6.253 -2.3317 -0.9855 -0.9084
  798MOL0     H10081   2.860   8.206   6.366 -0.4990 -0.7525 -0.9646
  798MOL0     H10082   3.272   8.327   6.217 -2.8385 -3.1137 -1.0699
  798MOL0     H10083   3.527   8.427   6.430 -0.2975  2.3593  1.8557
  798MOL0     H10084   3.455   8.581   6.366 -1.8930 -0.2416  0.5545
  798MOL0     H10085   3.475   8.438   6.265 -2.1571  1.7745 -1.0793
  798MOL0     H10086   3.353   8.733   6.870 -0.0655 -1.9784 -0.3006
  798MOL0     H10087   3.513   8.839   7.012  0.9867  1.0727  0.2265
  798MOL0     H10088   3.945   8.697   6.957  1.2744  0.0677 -3.7628
  798MOL0     H10089   3.951   8.859   6.893 -0.7309  0.2472  0.7851
  798MOL0     H10090   3.940   8.929   7.134 -0.6032 -0.9780  2.1658
  798MOL0     H10091   3.987   8.763   7.181  1.8738  2.6932  3.7612
  798MOL0     H10092   4.162   8.900   6.975 -2.4273  0.0936 -0.5717
  798MOL0     H10093   4.172   8.750   7.040  1.7531  0.0533 -0.6398
  798MOL0     H10094   4.239   8.830   7.273  0.6251  1.6110 -0.0969
  798MOL0     H10095   4.189   8.991   7.221  0.8640  0.4324  0.9995
  798MOL0     H10096   4.410   8.814   7.114 -0.6052 -1.6301  2.0266
  798MOL0     H10097   4.372   8.967   7.045 -2.0600 -1.9167 -0.3467
  798MOL0     H10098   4.461   8.924   7.339  1.2066 -2.2058 -1.5760
  798MOL0     H10099   4.419   9.079   7.277  0.6885 -0.3869  0.4554
  798MOL0     H10100   4.587   9.049   7.079  0.0383  2.2760  0.4906
  798MOL0     H10101   4.644   8.909   7.187 -0.5632  0.2683  2.1894
  798MOL0     H10102   4.785   9.110   7.196  1.2358  1.2036  1.9795
  798MOL0     H10103   4.741   9.034   7.338  1.8699  0.3212 -1.7921
  798MOL0     H10104   3.838   8.679   6.782  0.0006  1.3760 -1.0955
  798MOL0     H10105   3.688   8.583   6.630  0.6119  0.3981 -0.4688
  798MOL0     H10106   3.048   8.506   6.619  0.5162 -0.1175  0.1292
  798MOL0     H10107   2.933   8.367   6.468  0.9371  0.6986 -0.6951
  798MOL0     H10108   3.193   8.671   5.349  2.7261 -2.0495 -0.0258
  798MOL0     H10109   3.162   8.751   5.104 -1.8543 -0.8679 -3.5788
  798MOL0     H10110   2.814   8.604   4.694  0.2827  1.8667  3.2120
  798MOL0     H10111   2.773   8.701   4.468 -0.1368  1.6631  0.5614
  798MOL0     H10112   2.918   8.704   4.130  2.8907 -2.5376  2.2138
  798MOL0     H10113   2.820   8.640   4.270  0.1126  0.8517  1.5791
  798MOL0     H10114   2.695   8.840   4.282  1.9841  2.0698  0.6639
  798MOL0     H10115   2.680   8.770   4.122  0.2134 -3.4011  1.1024
  798MOL0     H10116   2.818   9.029   4.210  0.4105  4.4156 -3.2289
  798MOL0     H10117   2.884   8.940   4.073 -1.1495 -0.1544 -0.9665
  798MOL0     H10118   2.604   9.031   4.117 -0.3488 -1.1202 -0.3813
  798MOL0     H10119   2.654   8.938   3.974  1.8525 -0.4825 -0.4584
  798MOL0     H10120   2.856   9.310   3.893 -2.5044  2.5558  1.4046
  798MOL0     H10121   3.184   8.795   4.447  0.9524  1.1197  1.8906
  798MOL0     H10122   3.322   8.776   4.595 -0.0066 -0.5811 -0.0358
  798MOL0     H10123   3.273   8.854   4.732  1.3041  0.8861 -2.4480
  798MOL0     H10124   3.300   8.673   4.738  0.9007 -0.2735 -0.8472
  799MOL0     O10125   0.232  10.573   5.717  0.2005  0.6866 -0.3687
  799MOL0     C10126   0.246  10.662   5.635  0.0711 -0.2754  0.1686
  799MOL0     O10127   0.320  10.651   5.520 -0.4258  0.5155  0.7397
  799MOL0     C10128   0.365  10.522   5.501 -0.0466  0.9643  0.1898
  799MOL0     C10129   0.280  10.414   5.469 -0.4053  0.6162 -0.0288
  799MOL0     C10130   0.326  10.282   5.442 -0.0560 -0.4651 -0.1739
  799MOL0     C10131   0.468  10.261   5.449 -0.4058 -0.7165  1.1558
  799MOL0     O10132   0.530  10.144   5.413  0.6672 -0.6878 -0.8013
  799MOL0     C10133   0.474  10.021   5.466  0.2922  0.8334  0.5407
  799MOL0     C10134   0.535   9.990   5.600 -0.1777 -0.6620  0.0995
  799MOL0     C10135   0.525   9.848   5.665 -0.6352 -0.6041  0.4342
  799MOL0     C10136   0.547   9.858   5.810 -0.5733  0.4512  0.4095
  799MOL0     C10137   0.565   9.711   5.867 -0.2211 -0.3357  0.1203
  799MOL0     C10138   0.691   9.626   5.828  0.1642  0.2151 -0.3744
  799MOL0     C10139   0.823   9.689   5.890  0.2366  0.1705 -0.2999
  799MOL0     C10140   0.939   9.597   5.873 -0.7350  0.5099 -0.0798
  799MOL0     N10141   1.068   9.678   5.875 -0.3129  0.2616 -1.1029
  799MOL0     C10142   1.155   9.654   5.979 -0.1920 -0.8402  0.1664
  799MOL0     C10143   1.246   9.749   5.960  0.2627 -0.0366 -0.0230
  799MOL0     C10144   1.357   9.784   6.057 -0.8939  0.0044  1.0186
  799MOL0     C10145   1.497   9.758   5.983 -0.5558  0.3465  0.0467
  799MOL0     C10146   1.609   9.827   6.060  0.3047  0.2955  0.3666
  799MOL0     C10147   1.746   9.785   5.988  1.2936 -0.7522 -0.6153
  799MOL0     O10148   1.780   9.890   5.891  1.0224  0.3524  0.1892
  799MOL0     C10149   1.887   9.879   5.809 -0.1485 -0.2899 -0.4741
  799MOL0     C10150   1.961  10.003   5.782 -0.5344 -0.4421  0.2369
  799MOL0     C10151   2.081  10.016   5.710  0.3425 -0.5896  0.7137
  799MOL0     C10152   2.141  10.149   5.669  0.2551 -0.0608 -0.5333
  799MOL0     C10153   2.134   9.892   5.662 -0.0265 -0.2103  0.7955
  799MOL0     C10154   2.253   9.889   5.576  0.4567 -0.1173 -0.0879
  799MOL0     O10155   2.244   9.818   5.456  0.2034  0.0167 -0.0989
  799MOL0     C10156   2.328   9.861   5.349  0.3522  0.5030 -0.0224
  799MOL0     C10157   2.328   9.992   5.299 -0.8598  0.3333 -0.1044
  799MOL0     C10158   2.420  10.020   5.197 -0.1643 -0.2452  0.1418
  799MOL0     C10159   2.514   9.932   5.147 -0.1749 -0.2283 -0.1579
  799MOL0     O10160   2.608   9.982   5.055  0.2346 -0.1810 -0.3050
  799MOL0     C10161   2.719   9.902   5.040  0.3855  0.4081  0.0256
  799MOL0     C10162   2.818   9.969   4.935 -1.1776 -0.2241 -0.9485
  799MOL0     C10163   2.779   9.938   4.793  0.3703 -0.4149  1.1013
  799MOL0     C10164   2.864  10.021   4.693 -0.2253  0.2599  0.2591
  799MOL0     C10165   2.811  10.007   4.549 -0.9884  0.0372  0.0940
  799MOL0     C10166   2.842   9.868   4.485 -0.2260 -0.4496  0.8197
  799MOL0     C10167   2.883   9.873   4.338  0.0703  1.1549  0.0221
  799MOL0     C10168   2.873   9.734   4.269 -0.9722 -0.4805  1.1330
  799MOL0    Cl10169   2.958   9.733   4.112 -0.1737  0.3554 -0.0282
  799MOL0     C10170   2.510   9.803   5.195 -0.7118  0.5339 -0.1736
  799MOL0     C10171   2.420   9.764   5.295  0.8988 -0.1025  0.2106
  799MOL0     O10172   2.351   9.953   5.605  0.1225 -0.6022  0.7582
  799MOL0     C10173   2.058   9.769   5.675  0.2465 -1.1422 -0.4625
  799MOL0     C10174   1.939   9.761   5.751  0.5309  0.2637 -1.4086
  799MOL0     N10175   1.207   9.832   5.850  0.0137  0.6615  0.7290
  799MOL0     N10176   1.095   9.785   5.794  0.2513 -0.4311  0.5109
  799MOL0     C10177   0.549  10.366   5.477 -0.6648 -0.0476 -0.9864
  799MOL0     C10178   0.498  10.486   5.508 -0.2671 -0.0308 -0.5818
  799MOL0     C10179   0.194  10.803   5.660 -0.6973 -0.1944  0.0949
  799MOL0     C10180   0.129  10.823   5.780 -0.2719 -1.0808 -0.0968
  799MOL0     C10181   0.065  10.954   5.810  0.2936 -0.0446 -0.0562
  799MOL0     C10182   0.077  11.063   5.720  0.1925  0.6337 -0.6175
  799MOL0     O10183   0.022  11.183   5.766 -0.1191 -0.1081 -0.3572
  799MOL0     C10184   0.008  11.303   5.678  0.6984 -0.2499 -0.6038
  799MOL0     C10185   0.102  11.416   5.699 -0.2845 -0.5713 -0.0816
  799MOL0     C10186   0.118  11.495   5.565  0.0929  0.0640 -0.5107
  799MOL0     C10187   0.185  11.628   5.575  0.2408 -0.5538  0.4824
  799MOL0     C10188   0.314  11.629   5.651  0.1882 -0.1685  1.1055
  799MOL0     C10189   0.407  11.631   5.724  0.8908  0.4377 -0.5574
  799MOL0     C10190   0.154  11.044   5.607 -0.4659  0.2596  0.2081
  799MOL0     C10191   0.210  10.916   5.572  0.3300 -0.4419  0.3387
  799MOL0     C10192   0.270  10.922   5.432  0.2144 -0.1546 -0.1784
  799MOL0     H10193   0.171  10.410   5.472 -0.3653 -0.3665  0.9624
  799MOL0     H10194   0.252  10.204   5.431  0.4269 -0.9070 -0.3327
  799MOL0     H10195   0.493   9.938   5.398 -0.6702  0.5242  0.6313
  799MOL0     H10196   0.366  10.035   5.479  0.2638  1.5539 -0.4133
  799MOL0     H10197   0.641  10.013   5.588 -0.7179  1.8935 -0.3430
  799MOL0     H10198   0.481  10.062   5.662  0.3256  0.5887 -0.8806
  799MOL0     H10199   0.429   9.800   5.643 -0.6978  0.3265 -1.6330
  799MOL0     H10200   0.602   9.791   5.612  1.4219  1.5546  0.8935
  799MOL0     H10201   0.636   9.915   5.838  0.7274 -1.1346 -0.3264
  799MOL0     H10202   0.459   9.906   5.853 -0.8371  0.0752  0.2965
  799MOL0     H10203   0.475   9.664   5.825 -0.9311 -1.1900  2.4603
  799MOL0     H10204   0.552   9.714   5.975  0.2072  1.2114  0.1503
  799MOL0     H10205   0.681   9.524   5.866  3.3674 -0.2909 -0.6318
  799MOL0     H10206   0.698   9.617   5.719 -1.3574 -0.7951 -0.4172
  799MOL0     H10207   0.815   9.717   5.995  1.9145  0.2577 -0.1648
  799MOL0     H10208   0.836   9.786   5.841 -3.5427  1.6248  1.2180
  799MOL0     H10209   0.935   9.523   5.953 -0.9169 -0.7797 -1.2672
  799MOL0     H10210   0.940   9.545   5.777  0.1141 -1.3808  0.8963
  799MOL0     H10211   1.147   9.582   6.061  0.5449  0.2763  1.2597
  799MOL0     H10212   1.353   9.725   6.149 -2.4388  0.5592  1.3319
  799MOL0     H10213   1.355   9.890   6.084  2.3519 -0.5534  4.3006
  799MOL0     H10214   1.520   9.651   5.981  0.3364  0.5345  0.2668
  799MOL0     H10215   1.499   9.793   5.879 -0.7668 -1.9543 -0.7985
  799MOL0     H10216   1.593   9.935   6.062 -2.6684 -0.0523  0.1268
  799MOL0     H10217   1.593   9.797   6.164  0.7538  2.7320  1.1976
  799MOL0     H10218   1.825   9.791   6.063  1.1593  4.2446 -0.5371
  799MOL0     H10219   1.735   9.690   5.936 -1.6500 -0.3150 -0.9648
  799MOL0     H10220   1.913  10.092   5.822  0.6088 -0.4168  1.6386
  799MOL0     H10221   2.239  10.154   5.717 -0.1515  1.1935  0.2131
  799MOL0     H10222   2.079  10.228   5.713  0.3538 -1.5594  2.5624
  799MOL0     H10223   2.136  10.162   5.561 -1.3450 -2.9029 -0.9305
  799MOL0     H10224   2.256  10.058   5.345 -0.8480  0.2579  0.0216
  799MOL0     H10225   2.412  10.121   5.160  2.8928  0.6469  1.6037
  799MOL0     H10226   2.769   9.893   5.137 -0.6154  2.3812  0.7827
  799MOL0     H10227   2.698   9.800   5.007  3.8441 -0.9972  1.6904
  799MOL0     H10228   2.840  10.073   4.961 -0.0412 -0.5006 -0.7540
  799MOL0     H10229   2.914   9.923   4.961 -0.8661  0.9464  0.0344
  799MOL0     H10230   2.676   9.975   4.778 -0.0227 -1.3729  1.3825
  799MOL0     H10231   2.776   9.833   4.764  0.2830 -0.7939  2.4202
  799MOL0     H10232   2.970   9.997   4.696  0.1780  1.5115 -1.6875
  799MOL0     H10233   2.854  10.129   4.711  1.0750  0.3149  0.6815
  799MOL0     H10234   2.703  10.027   4.543 -0.8363  1.8359  2.0587
  799MOL0     H10235   2.866  10.084   4.493 -0.3618 -1.1645 -0.9837
  799MOL0     H10236   2.759   9.798   4.497 -2.0570  0.9591 -2.2761
  799MOL0     H10237   2.933   9.834   4.534 -0.1022 -1.3049  0.0054
  799MOL0     H10238   2.986   9.911   4.333  1.5186 -1.7333  3.4243
  799MOL0     H10239   2.818   9.942   4.284  0.4304  0.9944 -0.6249
  799MOL0     H10240   2.769   9.704   4.249 -0.4623 -0.8946 -1.2676
  799MOL0     H10241   2.919   9.659   4.333  0.2878 -0.4390  0.3144
  799MOL0     H10242   2.580   9.725   5.167  0.7929  0.7854  2.5616
  799MOL0     H10243   2.424   9.663   5.334 -1.7521  0.2583  1.6271
  799MOL0     H10244   2.113   9.691   5.623  3.0563  1.2011 -1.3193
  799MOL0     H10245   1.889   9.666   5.758 -0.7910  1.0409  0.1468
  799MOL0     H10246   0.654  10.350   5.500 -0.5234  1.3377 -0.5664
  799MOL0     H10247   0.575  10.560   5.528 -0.8257  0.8886 -1.7244
  799MOL0     H10248   0.115  10.753   5.862  0.5038  0.7950  1.7427
  799MOL0     H10249  -0.002  10.962   5.896  0.9217  1.1355  0.3586
  799MOL0     H10250   0.032  11.270   5.576 -0.3084  2.9739 -2.0286
  799MOL0     H10251  -0.099  11.326   5.682  0.9354  1.0783 -1.1574
  799MOL0     H10252   0.203  11.378   5.715  0.6990  1.2042 -1.6182
  799MOL0     H10253   0.071  11.477   5.784 -0.7137 -1.5407  0.4689
  799MOL0     H10254   0.169  11.434   5.490 -2.2328 -0.5446 -1.7032
  799MOL0     H10255   0.019  11.515   5.523 -1.6602 -2.5271  1.9779
  799MOL0     H10256   0.110  11.690   5.624 -0.2216 -0.3598 -0.4559
  799MOL0     H10257   0.198  11.670   5.475  0.3941  2.0303  1.5020
  799MOL0     H10258   0.474  11.626   5.808 -0.0113 -0.4811  0.1347
  799MOL0     H10259   0.168  11.125   5.536 -3.0814  1.8752  1.4026
  799MOL0     H10260   0.224  10.837   5.380 -2.6007 -0.1940  2.1207
  799MOL0     H10261   0.258  11.015   5.376  0.8003 -1.8621 -3.3830
  799MOL0     H10262   0.378  10.907   5.438  0.5721  2.4080  1.9151
  800MOL0     O10263   8.697   6.938   9.496  0.1841  0.0987  0.3194
  800MOL0     C10264   8.683   7.060   9.513 -0.2573  0.7459 -0.4129
  800MOL0     O10265   8.624   7.117   9.614 -1.1535  0.9682 -0.7109
  800MOL0     C10266   8.557   7.039   9.708  0.2640 -1.1189 -0.6743
  800MOL0     C10267   8.429   7.070   9.749  0.1442  0.2699  0.2746
  800MOL0     C10268   8.368   6.992   9.852 -0.0167  0.2133 -0.0144
  800MOL0     C10269   8.429   6.876   9.906 -0.2111 -0.4228 -0.2531
  800MOL0     O10270   8.373   6.782   9.995  0.3182 -0.1134 -0.6085
  800MOL0     C10271   8.250   6.815  10.056 -0.2344 -0.4847 -0.7559
  800MOL0     C10272   8.209   6.684  10.134  0.5728  0.0575 -0.2976
  800MOL0     C10273   8.159   6.566  10.043  0.4741 -0.1833  0.3303
  800MOL0     C10274   8.107   6.449  10.136  0.3123  0.2656  0.2000
  800MOL0     C10275   8.073   6.313  10.050 -0.3626 -0.6055  0.1619
  800MOL0     C10276   8.045   6.197  10.120  0.8758  0.2747 -0.1844
  800MOL0     C10277   7.918   6.218  10.213 -0.6906 -0.1222  1.5202
  800MOL0     C10278   7.890   6.075  10.277  0.0663 -0.0334 -0.4367
  800MOL0     N10279   7.756   6.072  10.334 -0.4657  0.6111 -0.1335
  800MOL0     C10280   7.720   6.161  10.435  0.9522  0.7623 -1.1420
  800MOL0     C10281   7.587   6.178  10.420 -0.0295 -0.8743  0.5490
  800MOL0     C10282   7.480   6.275  10.489 -0.1423  0.6217 -0.6226
  800MOL0     C10283   7.486   6.422  10.440 -0.2893  0.0270 -1.1546
  800MOL0     C10284   7.576   6.521  10.520 -0.0980 -0.2035 -0.2277
  800MOL0     C10285   7.528   6.665  10.504  0.2230 -0.2512  0.3278
  800MOL0     O10286   7.531   6.686  10.359 -0.0069 -0.5714 -0.0761
  800MOL0     C10287   7.518   6.814  10.310 -0.7374 -0.3659  0.2668
  800MOL0     C10288   7.537   6.818  10.176  0.8725 -0.5776 -0.1409
  800MOL0     C10289   7.510   6.937  10.106  0.3331  0.2927 -0.1647
  800MOL0     C10290   7.528   6.924   9.962  0.7871  0.5326 -0.0137
  800MOL0     C10291   7.490   7.060  10.183  0.0132 -0.3326  0.6040
  800MOL0     C10292   7.496   7.200  10.127  0.9253  0.3918  1.0741
  800MOL0     O10293   7.535   7.300  10.211  0.6575 -0.0374 -0.2391
  800MOL0     C10294   7.604   7.411  10.163 -0.3629  0.3860 -0.5191
  800MOL0     C10295   7.693   7.411  10.046 -0.0021  0.1651 -0.5141
  800MOL0     C10296   7.779   7.517  10.022 -0.0512 -0.6212  0.3364
  800MOL0     C10297   7.777   7.633  10.100 -0.4960 -1.0196 -0.1991
  800MOL0     O10298   7.865   7.730  10.061 -0.0870  0.7763  0.3625
  800MOL0     C10299   7.937   7.794  10.170  0.8866  0.3056 -0.5426
  800MOL0     C10300   8.060   7.873  10.129  0.1112 -0.1474  0.1482
  800MOL0     C10301   8.141   7.807  10.024 -0.3357 -0.4807  0.6399
  800MOL0     C10302   8.252   7.898   9.988  0.2407 -0.3764  0.7786
  800MOL0     C10303   8.364   7.828   9.910  0.0437 -0.3782  0.0215
  800MOL0     C10304   8.339   7.836   9.761 -0.2324  0.0379 -0.0094
  800MOL0     C10305   8.424   7.746   9.686  0.4122 -0.0252  0.6658
  800MOL0     C10306   8.413   7.770   9.530 -0.1552  0.1298 -0.1988
  800MOL0    Cl10307   8.251   7.733   9.477  0.4095 -0.0235  0.1447
  800MOL0     C10308   7.683   7.640  10.213 -0.7881  0.0145  0.0551
  800MOL0     C10309   7.600   7.524  10.245 -0.2597  0.2073  0.0716
  800MOL0     O10310   7.445   7.214  10.016 -0.3905  0.5440  0.5765
  800MOL0     C10311   7.481   7.052  10.320  0.6214  0.7653  0.3563
  800MOL0     C10312   7.494   6.935  10.380 -0.7501 -0.6163  0.8255
  800MOL0     N10313   7.541   6.095  10.317  0.0924 -0.2352 -0.1223
  800MOL0     N10314   7.642   6.033  10.273  0.2031  0.8359 -0.3746
  800MOL0     C10315   8.564   6.853   9.870  0.8613  0.6344  0.6010
  800MOL0     C10316   8.625   6.936   9.779  0.3108 -0.5966 -0.1531
  800MOL0     C10317   8.744   7.142   9.411 -0.5340  0.0430  0.4105
  800MOL0     C10318   8.880   7.121   9.375  0.0249  0.6576 -0.0174
  800MOL0     C10319   8.937   7.198   9.280  0.1296  0.7797  0.6482
  800MOL0     C10320   8.874   7.315   9.229  0.2587 -0.0720 -0.2509
  800MOL0     O10321   8.935   7.400   9.151 -0.5915  0.4932 -0.1067
  800MOL0     C10322   9.078   7.396   9.139  0.1503  0.2896  0.1555
  800MOL0     C10323   9.133   7.518   9.065 -0.3535 -0.2873  0.3800
  800MOL0     C10324   9.289   7.502   9.057  0.6237  0.7005 -0.0122
  800MOL0     C10325   9.345   7.603   8.956  0.8128 -1.1224  0.3318
  800MOL0     C10326   9.488   7.590   8.950 -0.0915 -0.5003  0.1276
  800MOL0     C10327   9.603   7.556   8.946 -0.2604  0.1897  0.4534
  800MOL0     C10328   8.742   7.336   9.269  0.0500  0.4995 -0.1668
  800MOL0     C10329   8.674   7.252   9.356  0.0472  0.4005  0.2150
  800MOL0     C10330   8.525   7.282   9.388 -0.1703  1.1807  0.2303
  800MOL0     H10331   8.371   7.150   9.705 -0.8432  1.3275  3.2223
  800MOL0     H10332   8.270   7.029   9.882  0.3774  1.6223 -0.4043
  800MOL0     H10333   8.165   6.830   9.988 -0.5684  1.4051 -0.0013
  800MOL0     H10334   8.261   6.896  10.128 -3.3920  0.6302 -1.3467
  800MOL0     H10335   8.290   6.669  10.207  1.2779  0.0993 -1.0497
  800MOL0     H10336   8.128   6.699  10.205  2.1310  1.5278  1.2945
  800MOL0     H10337   8.086   6.591   9.966  0.5376 -0.7333  0.0908
  800MOL0     H10338   8.239   6.525   9.980 -0.0347 -1.1146  0.2802
  800MOL0     H10339   8.173   6.421  10.218  0.4562  1.6549  0.5869
  800MOL0     H10340   8.022   6.479  10.197  3.9098 -0.1430  6.2538
  800MOL0     H10341   8.161   6.290   9.988  0.2478  3.7745 -0.9470
  800MOL0     H10342   7.995   6.330   9.975 -0.7407 -2.4747  0.1036
  800MOL0     H10343   8.030   6.119  10.044  2.0544  0.3448 -0.5057
  800MOL0     H10344   8.131   6.176  10.183 -0.1314 -0.4301  1.0102
  800MOL0     H10345   7.839   6.238  10.139  1.8367  5.1876 -0.2653
  800MOL0     H10346   7.928   6.295  10.289 -0.1072 -0.6916  2.0308
  800MOL0     H10347   7.897   5.999  10.198  1.2779 -0.5391  0.1447
  800MOL0     H10348   7.964   6.057  10.355  1.1102 -0.2364 -1.4527
  800MOL0     H10349   7.776   6.217  10.509 -0.8506 -0.2092  1.0585
  800MOL0     H10350   7.499   6.282  10.597  2.5915  2.4191 -1.1205
  800MOL0     H10351   7.382   6.229  10.477 -0.7209  1.0588  1.9129
  800MOL0     H10352   7.502   6.424  10.331 -1.3168 -0.1514 -1.3187
  800MOL0     H10353   7.382   6.451  10.453 -0.8332 -1.4307 -1.9364
  800MOL0     H10354   7.567   6.497  10.627  0.3948  0.2138 -0.0913
  800MOL0     H10355   7.681   6.503  10.495 -0.1351  0.3568 -0.7874
  800MOL0     H10356   7.431   6.679  10.551 -0.1870  1.5916 -0.9489
  800MOL0     H10357   7.587   6.738  10.560  0.1323 -0.0132  0.1129
  800MOL0     H10358   7.565   6.720  10.138  1.9709 -0.2452 -0.2210
  800MOL0     H10359   7.525   6.819   9.931  3.4117 -0.7888  3.5460
  800MOL0     H10360   7.623   6.966   9.928  0.3291  2.2484  0.7279
  800MOL0     H10361   7.452   6.973   9.900  2.0506 -0.2720 -2.2869
  800MOL0     H10362   7.691   7.339   9.966 -1.9879 -1.1983  0.6871
  800MOL0     H10363   7.839   7.526   9.932  0.3552 -0.8042  0.5883
  800MOL0     H10364   7.865   7.862  10.217 -0.4421 -2.5620  1.8782
  800MOL0     H10365   7.962   7.720  10.247 -1.8350  0.3987  0.5629
  800MOL0     H10366   8.026   7.970  10.092  0.7171 -0.7126 -2.0004
  800MOL0     H10367   8.124   7.906  10.212  0.6809  0.8250 -0.6522
  800MOL0     H10368   8.084   7.780   9.935  1.8044 -0.4120 -0.8296
  800MOL0     H10369   8.182   7.712  10.059 -0.3075 -0.5679  0.3711
  800MOL0     H10370   8.306   7.938  10.075  4.0818 -1.7291 -0.7863
  800MOL0     H10371   8.211   7.981   9.930 -2.7896 -2.3592 -0.1551
  800MOL0     H10372   8.457   7.883   9.925 -0.7762  0.8803  0.7066
  800MOL0     H10373   8.379   7.727   9.950 -0.3974 -0.4779 -0.0594
  800MOL0     H10374   8.341   7.937   9.719 -0.6987 -0.2355 -0.7253
  800MOL0     H10375   8.233   7.812   9.749 -0.5475  0.9163  0.9214
  800MOL0     H10376   8.382   7.646   9.702  3.5323 -1.1313  2.9148
  800MOL0     H10377   8.527   7.744   9.721  0.5369  0.4550  0.3438
  800MOL0     H10378   8.495   7.713   9.486 -0.0037 -0.6668  1.0706
  800MOL0     H10379   8.443   7.871   9.503  0.1706  0.0066 -0.2980
  800MOL0     H10380   7.684   7.732  10.271 -1.3791 -0.0856  0.2336
  800MOL0     H10381   7.546   7.519  10.339  2.9155 -1.5548  2.0120
  800MOL0     H10382   7.484   7.146  10.374  1.7919  1.6066 -1.1013
  800MOL0     H10383   7.500   6.939  10.489 -0.9398 -0.1591  0.8169
  800MOL0     H10384   8.606   6.764   9.915  2.0586  1.6726  1.6311
  800MOL0     H10385   8.727   6.909   9.750  0.7399  1.0726 -0.2589
  800MOL0     H10386   8.929   7.034   9.418  1.4123  1.3586 -0.1363
  800MOL0     H10387   9.035   7.174   9.238 -2.1524 -1.9606 -4.0039
  800MOL0     H10388   9.124   7.398   9.238  1.5240  1.0063 -0.4747
  800MOL0     H10389   9.116   7.306   9.089  1.1552  0.4541  0.6038
  800MOL0     H10390   9.107   7.608   9.121  1.2639  0.4937 -0.0877
  800MOL0     H10391   9.094   7.535   8.964  0.1025  2.8400  0.6441
  800MOL0     H10392   9.342   7.517   9.151  4.8380 -2.0244 -1.6633
  800MOL0     H10393   9.314   7.399   9.029  1.3561 -0.0016  2.9551
  800MOL0     H10394   9.301   7.698   8.986  0.5099 -0.9417 -0.6447
  800MOL0     H10395   9.299   7.586   8.858 -0.8811 -1.8584  1.2165
  800MOL0     H10396   9.707   7.535   8.931 -0.0688  0.8341  0.8597
  800MOL0     H10397   8.690   7.420   9.223 -2.2712  0.4781  2.1651
  800MOL0     H10398   8.472   7.305   9.295  1.9211  1.9514 -0.8417
  800MOL0     H10399   8.466   7.201   9.432  0.3418 -0.0096 -1.1602
  800MOL0     H10400   8.516   7.365   9.458 -1.6849  1.0719  0.1967
  801MOL0     O10401   6.786   0.720   0.996  0.4074 -0.0525  0.2351
  801MOL0     C10402   6.855   0.704   0.888  0.7534 -1.0011  0.4976
  801MOL0     O10403   6.992   0.735   0.878  0.5733  0.1566  0.5054
  801MOL0     C10404   7.046   0.809   0.982  0.5764  0.6108 -0.1398
  801MOL0     C10405   7.120   0.736   1.070 -0.6054 -0.2527  0.2328
  801MOL0     C10406   7.193   0.798   1.178 -1.0407  0.7103  0.7471
  801MOL0     C10407   7.196   0.932   1.192 -0.9355 -0.1096  0.8054
  801MOL0     O10408   7.277   0.991   1.287  0.3325 -0.1845  0.1629
  801MOL0     C10409   7.295   1.131   1.272  0.5351  0.2554  0.0695
  801MOL0     C10410   7.389   1.165   1.153 -0.4871 -0.8605 -0.1419
  801MOL0     C10411   7.527   1.121   1.202 -0.1983  0.6819  0.6210
  801MOL0     C10412   7.646   1.168   1.112 -0.1812 -0.0825 -0.2761
  801MOL0     C10413   7.771   1.110   1.181 -0.1820 -0.9940 -0.0633
  801MOL0     C10414   7.886   1.122   1.080 -0.6168  1.0466 -0.0618
  801MOL0     C10415   8.023   1.113   1.166  0.7532 -0.2726  0.6020
  801MOL0     C10416   8.141   1.175   1.088 -0.0963 -0.2907 -0.2326
  801MOL0     N10417   8.193   1.083   0.986  0.3341 -0.4891 -0.3656
  801MOL0     C10418   8.262   0.963   1.014  0.5940 -0.3715 -0.4875
  801MOL0     C10419   8.275   0.907   0.890  0.4057 -0.1672 -0.6303
  801MOL0     C10420   8.346   0.777   0.880 -0.3595  0.2146 -0.7899
  801MOL0     C10421   8.427   0.745   0.756 -0.6493  0.3473  0.1181
  801MOL0     C10422   8.512   0.612   0.768  0.3266 -0.0255 -0.2478
  801MOL0     C10423   8.581   0.593   0.637 -0.1312  0.4549 -0.3585
  801MOL0     O10424   8.672   0.700   0.604  0.9075  0.1492 -0.5791
  801MOL0     C10425   8.803   0.686   0.621 -0.0355  0.9715 -0.4851
  801MOL0     C10426   8.873   0.783   0.552  0.2829  0.4153 -0.5848
  801MOL0     C10427   9.012   0.791   0.562  0.1575 -0.6291  1.1845
  801MOL0     C10428   9.080   0.893   0.471  0.6550 -0.7729  0.2443
  801MOL0     C10429   9.083   0.700   0.644  0.5543  0.3599 -0.5144
  801MOL0     C10430   9.233   0.703   0.670  0.7759  0.0648  0.4556
  801MOL0     O10431   9.310   0.797   0.608 -0.3098  0.0307 -0.2606
  801MOL0     C10432   9.442   0.780   0.593 -1.3577 -0.1920 -0.5408
  801MOL0     C10433   9.523   0.895   0.588  0.3426 -0.4373  0.6877
  801MOL0     C10434   9.652   0.900   0.575 -0.4935  0.3183 -0.3324
  801MOL0     C10435   9.722   0.787   0.548 -0.9076 -0.1655  0.6129
  801MOL0     O10436   9.855   0.775   0.526 -0.2205  0.1153  0.1817
  801MOL0     C10437   9.925   0.876   0.447 -1.3316  0.4561 -0.0502
  801MOL0     C10438  10.075   0.846   0.456  0.0775  0.0884  0.0409
  801MOL0     C10439  10.159   0.942   0.372  0.5961  0.2658  0.0423
  801MOL0     C10440  10.303   0.887   0.342  0.0952  0.4246  0.8879
  801MOL0     C10441  10.375   0.982   0.235  0.0951  0.2919  0.3570
  801MOL0     C10442  10.390   1.128   0.276 -0.1076  0.8209  0.3677
  801MOL0     C10443  10.443   1.212   0.152  0.6924  1.2305  0.6331
  801MOL0     C10444  10.482   1.350   0.211  0.0248  0.5652  0.5137
  801MOL0    Cl10445  10.342   1.448   0.249 -0.3599  0.2908  0.1219
  801MOL0     C10446   9.652   0.665   0.556 -0.1073  0.4243 -0.1824
  801MOL0     C10447   9.518   0.657   0.573  0.4940 -0.6161  0.5717
  801MOL0     O10448   9.275   0.632   0.760 -0.7824  0.2567  0.4397
  801MOL0     C10449   9.005   0.603   0.709  0.7238  1.0538  0.1923
  801MOL0     C10450   8.865   0.593   0.698 -0.0772 -0.7077  0.4516
  801MOL0     N10451   8.200   0.978   0.804  0.2730 -0.2798  1.0376
  801MOL0     N10452   8.170   1.093   0.854 -0.1593 -0.9923  0.2681
  801MOL0     C10453   7.111   1.007   1.106 -0.2326 -0.5608  0.6608
  801MOL0     C10454   7.042   0.944   1.001  0.2538  0.1662  1.0155
  801MOL0     C10455   6.801   0.641   0.770 -0.0446  0.0098  0.5550
  801MOL0     C10456   6.893   0.577   0.683  0.0216  0.4109 -0.4227
  801MOL0     C10457   6.850   0.537   0.558  0.2876  0.1403  0.0625
  801MOL0     C10458   6.716   0.553   0.518 -0.0230  0.5668  0.0958
  801MOL0     O10459   6.696   0.500   0.400 -0.4991  0.0834  0.3946
  801MOL0     C10460   6.562   0.470   0.361  0.2503 -0.0671 -0.7666
  801MOL0     C10461   6.573   0.402   0.231 -0.5134  0.4115  0.8670
  801MOL0     C10462   6.450   0.333   0.177 -0.0452 -0.5226 -0.1122
  801MOL0     C10463   6.447   0.316   0.019 -0.0364 -0.1437 -0.0903
  801MOL0     C10464   6.570   0.238  -0.019  0.2175  0.2244  0.1880
  801MOL0     C10465   6.682   0.196  -0.035 -0.8078 -0.2912 -0.2076
  801MOL0     C10466   6.624   0.614   0.596 -0.1216  0.6419  1.1058
  801MOL0     C10467   6.662   0.652   0.727 -0.6872 -0.5604  0.0723
  801MOL0     C10468   6.570   0.739   0.801  0.4999  0.2188 -1.1137
  801MOL0     H10469   7.122   0.632   1.040 -1.6908 -0.3825  0.5602
  801MOL0     H10470   7.257   0.742   1.246 -0.8557  1.5443  1.2786
  801MOL0     H10471   7.330   1.171   1.367 -0.3888 -0.1584  0.6032
  801MOL0     H10472   7.197   1.179   1.265 -1.6292 -3.5673  1.0284
  801MOL0     H10473   7.354   1.111   1.065 -0.2323 -1.1307 -0.0818
  801MOL0     H10474   7.380   1.271   1.127 -2.2348 -0.9793 -0.1268
  801MOL0     H10475   7.561   1.142   1.304  1.5588  0.6584  0.0709
  801MOL0     H10476   7.526   1.012   1.190 -1.3404  0.4731  2.1799
  801MOL0     H10477   7.638   1.128   1.010  0.8954  0.9528 -0.7950
  801MOL0     H10478   7.654   1.275   1.089  0.0867 -0.4171 -1.8618
  801MOL0     H10479   7.759   1.006   1.213 -2.2231 -0.7004  0.2487
  801MOL0     H10480   7.792   1.169   1.270  0.9704 -3.0702  1.1162
  801MOL0     H10481   7.883   1.046   1.001 -0.9958  0.5411  0.4284
  801MOL0     H10482   7.901   1.214   1.023  3.5797  0.0077 -1.0091
  801MOL0     H10483   8.052   1.015   1.206  2.3725 -0.0419  0.0614
  801MOL0     H10484   7.999   1.181   1.248  2.9416 -0.1908  1.2334
  801MOL0     H10485   8.113   1.268   1.037  1.3432  0.3671  0.1095
  801MOL0     H10486   8.220   1.196   1.161  1.9982  0.7366 -2.6464
  801MOL0     H10487   8.300   0.917   1.104 -0.4061 -5.0527 -2.1256
  801MOL0     H10488   8.268   0.702   0.892  0.1542 -0.0824  0.9174
  801MOL0     H10489   8.416   0.769   0.964 -1.9307  0.5438  0.5822
  801MOL0     H10490   8.352   0.726   0.678 -0.4635 -0.5233  0.1429
  801MOL0     H10491   8.494   0.827   0.727  1.3111 -0.8813  1.0159
  801MOL0     H10492   8.589   0.627   0.845 -0.0627 -0.9028  0.3236
  801MOL0     H10493   8.440   0.532   0.789  2.2267 -2.1123 -1.2188
  801MOL0     H10494   8.631   0.496   0.641 -1.8287 -0.5387 -1.8938
  801MOL0     H10495   8.510   0.579   0.555 -0.3134  0.7385 -0.2515
  801MOL0     H10496   8.818   0.828   0.470 -0.9489 -0.6232 -0.3739
  801MOL0     H10497   9.103   0.983   0.529 -1.3638  1.1786 -1.7826
  801MOL0     H10498   9.003   0.931   0.402  0.8197  2.0139  1.4314
  801MOL0     H10499   9.170   0.853   0.425  1.6699  1.1190  0.5030
  801MOL0     H10500   9.474   0.992   0.599  0.8204  0.1044 -1.5384
  801MOL0     H10501   9.696   0.999   0.575 -0.7081  0.5432  3.3906
  801MOL0     H10502   9.899   0.886   0.341 -0.7060  1.4666 -0.1221
  801MOL0     H10503   9.905   0.977   0.485  2.0314  1.3884 -0.4439
  801MOL0     H10504  10.104   0.861   0.561  0.9873 -2.6700  0.2568
  801MOL0     H10505  10.091   0.740   0.434 -0.7979 -0.0500  0.0258
  801MOL0     H10506  10.175   1.029   0.436  1.4470 -0.2788  0.5887
  801MOL0     H10507  10.108   0.952   0.276  0.7668 -4.9384 -0.8862
  801MOL0     H10508  10.291   0.789   0.296  3.6891  0.7028 -0.9743
  801MOL0     H10509  10.355   0.881   0.438 -1.4375  1.8538  1.8750
  801MOL0     H10510  10.474   0.942   0.211 -0.2919 -0.7820  0.5246
  801MOL0     H10511  10.311   0.985   0.147 -2.3789  1.0428  2.0533
  801MOL0     H10512  10.455   1.138   0.363 -1.3047  1.4786  1.2043
  801MOL0     H10513  10.299   1.172   0.317  0.0773  2.1980 -0.6152
  801MOL0     H10514  10.361   1.215   0.080  1.3047  1.1594 -0.0758
  801MOL0     H10515  10.534   1.168   0.110  0.8081 -0.1067  2.1846
  801MOL0     H10516  10.531   1.413   0.135 -1.5325  1.9909  0.6242
  801MOL0     H10517  10.544   1.336   0.299  0.2690  1.5171  0.4993
  801MOL0     H10518   9.707   0.573   0.540  0.7232  0.6527  1.1777
  801MOL0     H10519   9.458   0.566   0.575 -2.0749  0.9448 -0.7190
  801MOL0     H10520   9.048   0.529   0.777 -0.1853  0.5375  0.2297
  801MOL0     H10521   8.810   0.526   0.764 -0.5123 -0.9650 -0.1613
  801MOL0     H10522   7.100   1.114   1.115 -2.0041 -0.7275  0.7389
  801MOL0     H10523   6.985   1.005   0.931 -2.6126  0.2395  3.2397
  801MOL0     H10524   6.996   0.548   0.698  0.1424  0.0158 -1.8538
  801MOL0     H10525   6.923   0.488   0.493 -1.6482 -1.7857 -0.7750
  801MOL0     H10526   6.519   0.395   0.427  0.8276  0.9699  0.8513
  801MOL0     H10527   6.487   0.548   0.344 -1.2608 -1.4329 -0.5858
  801MOL0     H10528   6.656   0.330   0.232 -1.6223 -0.9094  0.9268
  801MOL0     H10529   6.604   0.478   0.160  1.7192 -0.7550  0.4863
  801MOL0     H10530   6.444   0.235   0.225 -1.1565 -1.1699 -1.4681
  801MOL0     H10531   6.361   0.386   0.213  1.2354  1.5209  0.1956
  801MOL0     H10532   6.460   0.415  -0.026 -0.6746 -0.1617 -0.3213
  801MOL0     H10533   6.353   0.265  -0.005  0.3737 -0.4452 -1.1150
  801MOL0     H10534   6.784   0.166  -0.044 -0.2309  0.7591  2.1773
  801MOL0     H10535   6.529   0.654   0.562  1.1692  2.1118 -0.9784
  801MOL0     H10536   6.472   0.753   0.755 -0.6716  3.0697  1.8856
  801MOL0     H10537   6.537   0.701   0.898 -0.4680 -2.7335 -2.4689
  801MOL0     H10538   6.622   0.831   0.828 -0.0402  1.2894 -3.4686
  802MOL0     O10539   5.749   2.539   3.049 -0.1916  0.3394 -0.1909
  802MOL0     C10540   5.652   2.570   3.123  0.1341 -0.1371 -0.5149
  802MOL0     O10541   5.620   2.705   3.163  0.3815  0.0345  0.0615
  802MOL0     C10542   5.692   2.819   3.131  0.7583 -0.4498 -0.1485
  802MOL0     C10543   5.768   2.832   3.009  0.8087 -0.0479  0.2600
  802MOL0     C10544   5.837   2.951   2.983  0.4729 -0.1022 -0.3729
  802MOL0     C10545   5.854   3.045   3.087 -0.0853  0.2061  0.8560
  802MOL0     O10546   5.915   3.154   3.035  0.7413 -0.0585 -0.3623
  802MOL0     C10547   5.948   3.258   3.127  0.6882 -0.8483 -0.3139
  802MOL0     C10548   6.066   3.334   3.058  0.2464  0.7326  0.6893
  802MOL0     C10549   6.206   3.259   3.074  0.0844 -0.2231 -0.4263
  802MOL0     C10550   6.332   3.317   3.007 -0.0584 -1.0558 -0.3139
  802MOL0     C10551   6.473   3.268   3.062  0.5188 -0.2955 -0.0739
  802MOL0     C10552   6.585   3.339   2.995 -0.0688 -0.3436 -0.0372
  802MOL0     C10553   6.724   3.268   3.005 -0.8190 -0.0794  0.0525
  802MOL0     C10554   6.774   3.264   3.158  0.5523 -0.1219  0.8751
  802MOL0     N10555   6.804   3.403   3.214  0.0196 -1.0277 -0.3792
  802MOL0     C10556   6.891   3.484   3.155  0.1816 -1.4374 -0.4326
  802MOL0     C10557   6.924   3.572   3.251 -0.7365 -0.5786 -0.9807
  802MOL0     C10558   7.028   3.681   3.244 -0.3421  0.3929  0.4454
  802MOL0     C10559   7.164   3.626   3.286 -0.3955 -0.2906 -0.6377
  802MOL0     C10560   7.174   3.589   3.442 -0.2022 -0.3113 -0.0671
  802MOL0     C10561   7.308   3.525   3.487  0.1424  1.2333  0.3817
  802MOL0     O10562   7.421   3.606   3.446  0.4753 -0.3224  0.6022
  802MOL0     C10563   7.543   3.536   3.427 -0.7065  0.0333 -0.1947
  802MOL0     C10564   7.628   3.591   3.330 -0.3344  0.1900 -0.2517
  802MOL0     C10565   7.741   3.530   3.291 -0.3838 -0.3597  0.7973
  802MOL0     C10566   7.811   3.587   3.161 -0.0990  0.5215  0.6185
  802MOL0     C10567   7.770   3.403   3.342  0.7831  0.5152  0.3069
  802MOL0     C10568   7.882   3.324   3.303  0.4980  0.0250 -0.8076
  802MOL0     O10569   8.000   3.382   3.291 -0.3995 -0.7392 -0.2998
  802MOL0     C10570   8.101   3.294   3.286  0.5280  1.3442 -0.2515
  802MOL0     C10571   8.184   3.266   3.391  0.5295  0.1229  0.3211
  802MOL0     C10572   8.293   3.182   3.387  0.5498  0.2253 -0.3969
  802MOL0     C10573   8.328   3.130   3.256 -0.6164  0.0485 -0.6572
  802MOL0     O10574   8.427   3.036   3.239 -0.4186  0.2437 -0.2510
  802MOL0     C10575   8.486   2.960   3.348 -0.3107  1.0094 -0.0654
  802MOL0     C10576   8.545   2.826   3.296 -0.4467  0.8354  0.2693
  802MOL0     C10577   8.606   2.754   3.419 -0.5368  0.3434 -0.0158
  802MOL0     C10578   8.676   2.630   3.359 -0.3265  0.2924  0.2851
  802MOL0     C10579   8.599   2.521   3.287  0.4897  0.0059  1.0239
  802MOL0     C10580   8.667   2.388   3.262 -0.8313 -0.2415 -0.0219
  802MOL0     C10581   8.791   2.391   3.164  0.5227 -0.7083  1.2688
  802MOL0     C10582   8.912   2.305   3.190  1.0021  0.3699  0.2536
  802MOL0    Cl10583   8.996   2.369   3.332  0.2076 -0.3190 -0.5805
  802MOL0     C10584   8.244   3.154   3.140 -0.7198 -1.3029 -0.8745
  802MOL0     C10585   8.140   3.244   3.160  0.6587 -0.2744 -0.1985
  802MOL0     O10586   7.861   3.203   3.294 -0.4114 -0.3385 -0.7121
  802MOL0     C10587   7.694   3.347   3.452  0.0870 -0.0159  0.5069
  802MOL0     C10588   7.580   3.413   3.486  0.5521 -0.0916 -0.0264
  802MOL0     N10589   6.868   3.534   3.373 -1.4940 -0.0913  1.2088
  802MOL0     N10590   6.788   3.433   3.347 -0.6810  0.5458  0.0606
  802MOL0     C10591   5.789   3.031   3.206 -0.0905  0.6111 -0.4926
  802MOL0     C10592   5.710   2.915   3.228 -0.2461 -0.1401  0.8033
  802MOL0     C10593   5.559   2.469   3.172 -0.4748  0.6756 -0.8218
  802MOL0     C10594   5.466   2.502   3.270 -0.1239 -0.1516  0.9718
  802MOL0     C10595   5.385   2.406   3.329 -0.0870 -0.1048 -0.0297
  802MOL0     C10596   5.406   2.271   3.301  0.1088  0.4031 -0.6480
  802MOL0     O10597   5.328   2.182   3.366  0.0411  0.6242  0.4934
  802MOL0     C10598   5.367   2.045   3.389  0.8720  0.7304 -0.6475
  802MOL0     C10599   5.324   2.009   3.527  0.2039 -0.4459 -0.3186
  802MOL0     C10600   5.349   1.866   3.557  0.3521  0.2807 -0.3925
  802MOL0     C10601   5.499   1.848   3.582  0.7139  0.5233 -0.8561
  802MOL0     C10602   5.555   1.923   3.691 -0.3763 -0.6999 -0.3198
  802MOL0     C10603   5.602   1.989   3.782 -0.1248  0.5893 -0.6327
  802MOL0     C10604   5.495   2.229   3.208  0.6164 -0.2638  0.1593
  802MOL0     C10605   5.567   2.325   3.140 -0.1022 -0.0223  0.1739
  802MOL0     C10606   5.667   2.280   3.035  0.3609  1.0420 -0.6758
  802MOL0     H10607   5.742   2.765   2.927  0.1715 -0.7786  1.0401
  802MOL0     H10608   5.878   2.960   2.883  1.1814 -0.5590 -0.1322
  802MOL0     H10609   5.985   3.221   3.223 -1.0891 -1.6121  0.1125
  802MOL0     H10610   5.863   3.324   3.140  0.4850 -1.0869 -0.4285
  802MOL0     H10611   6.045   3.336   2.951  0.7553 -3.7992  0.3173
  802MOL0     H10612   6.063   3.440   3.085 -0.7471  2.3398 -4.6450
  802MOL0     H10613   6.219   3.262   3.182 -2.2620 -0.4348 -0.0905
  802MOL0     H10614   6.200   3.153   3.048  2.9530 -0.8681  1.1305
  802MOL0     H10615   6.333   3.302   2.899  2.9514 -0.5724 -0.4398
  802MOL0     H10616   6.330   3.423   3.031 -2.7559 -1.6477  2.7211
  802MOL0     H10617   6.471   3.159   3.048  1.0644 -0.6327  2.0731
  802MOL0     H10618   6.475   3.276   3.171  0.2652 -2.0732  0.1016
  802MOL0     H10619   6.566   3.348   2.887  0.5263  2.6919  0.0338
  802MOL0     H10620   6.590   3.444   3.024  0.9408 -0.0238 -1.2863
  802MOL0     H10621   6.793   3.314   2.934 -0.1431 -0.8339  0.2060
  802MOL0     H10622   6.724   3.163   2.972  2.7553  0.0605 -0.7822
  802MOL0     H10623   6.700   3.225   3.228 -1.9312  0.6619 -1.1474
  802MOL0     H10624   6.870   3.212   3.162  0.9568  0.6719  2.8249
  802MOL0     H10625   6.936   3.473   3.057  4.9771  0.4057  1.2849
  802MOL0     H10626   7.002   3.766   3.308 -3.2761 -0.9946  1.2796
  802MOL0     H10627   7.032   3.723   3.143 -0.5796  0.3335  0.4097
  802MOL0     H10628   7.193   3.541   3.224 -0.0583 -0.5721 -0.1018
  802MOL0     H10629   7.239   3.704   3.272  0.2035 -0.8875 -0.7881
  802MOL0     H10630   7.167   3.686   3.491 -0.6975  1.2113 -2.9241
  802MOL0     H10631   7.087   3.531   3.475  1.2417 -1.2522  2.3764
  802MOL0     H10632   7.312   3.517   3.596  1.9086 -1.1678  0.2195
  802MOL0     H10633   7.307   3.424   3.446  0.6439  0.9382  1.0746
  802MOL0     H10634   7.601   3.690   3.294 -0.9401  0.4176  0.8001
  802MOL0     H10635   7.912   3.554   3.134  1.0216  3.4298  0.9294
  802MOL0     H10636   7.792   3.695   3.161 -3.6729  0.0282  0.6880
  802MOL0     H10637   7.746   3.558   3.077 -0.0992  1.2901  0.3469
  802MOL0     H10638   8.161   3.308   3.489  0.2084 -1.8665  1.1576
  802MOL0     H10639   8.336   3.151   3.481 -2.9822 -0.4079  1.1836
  802MOL0     H10640   8.567   3.019   3.392  3.2932 -3.5469  0.2572
  802MOL0     H10641   8.417   2.918   3.422 -0.0706 -1.7970 -1.2866
  802MOL0     H10642   8.474   2.759   3.246  0.1909  0.7723 -0.5809
  802MOL0     H10643   8.627   2.840   3.226 -2.0686 -0.8277 -2.1500
  802MOL0     H10644   8.530   2.726   3.492  1.5717 -1.0124  1.7990
  802MOL0     H10645   8.679   2.821   3.464  0.4404 -0.6031 -0.1480
  802MOL0     H10646   8.729   2.570   3.433  0.3480 -3.2679 -2.7801
  802MOL0     H10647   8.753   2.671   3.292 -2.7103 -0.7494 -3.3822
  802MOL0     H10648   8.512   2.491   3.347 -0.4075 -3.5087 -1.7240
  802MOL0     H10649   8.556   2.566   3.197  0.8905  2.6299  2.0569
  802MOL0     H10650   8.595   2.313   3.229  1.0855 -1.0505 -2.7756
  802MOL0     H10651   8.712   2.363   3.358  0.8181  1.6199 -0.2626
  802MOL0     H10652   8.821   2.495   3.154 -3.7233  0.4588 -4.9776
  802MOL0     H10653   8.770   2.366   3.060  2.1684  0.6462  0.5614
  802MOL0     H10654   8.981   2.296   3.106 -0.2932  0.9680 -0.9071
  802MOL0     H10655   8.885   2.199   3.202  1.5304 -0.0330 -1.7696
  802MOL0     H10656   8.262   3.108   3.044  2.9302 -2.9344  0.3828
  802MOL0     H10657   8.077   3.272   3.076  1.0712 -0.6444 -0.6345
  802MOL0     H10658   7.714   3.251   3.498  0.9141  0.4261  1.0917
  802MOL0     H10659   7.508   3.364   3.550 -0.6917  1.7426  0.0415
  802MOL0     H10660   5.785   3.109   3.281  1.5299  0.9916 -0.7685
  802MOL0     H10661   5.651   2.895   3.317 -1.3533  1.3958  0.4626
  802MOL0     H10662   5.448   2.604   3.304  1.3767  0.6801 -0.5848
  802MOL0     H10663   5.298   2.455   3.371  0.4028 -0.0778  0.9721
  802MOL0     H10664   5.314   1.972   3.327  2.9560 -2.3500  0.9570
  802MOL0     H10665   5.474   2.029   3.376  0.9211  1.6063 -1.4594
  802MOL0     H10666   5.219   2.032   3.545 -0.1063 -0.7070 -1.6923
  802MOL0     H10667   5.383   2.078   3.590  2.8986 -2.7900 -0.0742
  802MOL0     H10668   5.302   1.852   3.655  1.3125  2.2522  0.3960
  802MOL0     H10669   5.296   1.808   3.480 -0.2874 -0.8809  0.8711
  802MOL0     H10670   5.558   1.882   3.496  2.2282 -0.2081 -0.1468
  802MOL0     H10671   5.522   1.741   3.579  0.3719  0.2725  2.4601
  802MOL0     H10672   5.642   2.043   3.865 -1.4928  0.9137 -0.1569
  802MOL0     H10673   5.502   2.125   3.178 -0.7937  0.3219 -2.5799
  802MOL0     H10674   5.765   2.285   3.084 -0.9433  0.2753  2.2247
  802MOL0     H10675   5.643   2.175   3.015  1.4751  0.7519 -0.5426
  802MOL0     H10676   5.657   2.344   2.947 -1.5365 -0.1223 -1.3702
  803MOL0     O10677   7.661   7.499   7.646 -0.1537  0.0582 -0.1320
  803MOL0     C10678   7.635   7.435   7.546 -0.9071  0.1938  0.6876
  803MOL0     O10679   7.698   7.457   7.427  0.0798  0.0984 -0.2665
  803MOL0     C10680   7.785   7.557   7.412 -0.1376 -0.1323 -1.1150
  803MOL0     C10681   7.909   7.525   7.377  0.1576 -0.0905  0.4756
  803MOL0     C10682   8.006   7.626   7.371  0.1456  0.8936  0.6294
  803MOL0     C10683   7.982   7.759   7.387  0.1411  0.2644 -0.0926
  803MOL0     O10684   8.078   7.851   7.382 -0.1140  1.0647  1.1294
  803MOL0     C10685   8.068   7.953   7.277 -0.8388 -0.5927 -0.4506
  803MOL0     C10686   8.095   8.099   7.337  0.3136 -0.0490 -0.0489
  803MOL0     C10687   8.237   8.127   7.379 -0.1833  0.5319 -1.0514
  803MOL0     C10688   8.276   8.264   7.429 -0.3877 -0.0842 -0.9725
  803MOL0     C10689   8.425   8.272   7.449 -1.0880 -0.3867 -0.1808
  803MOL0     C10690   8.478   8.398   7.511  0.5475  0.3569  0.3642
  803MOL0     C10691   8.631   8.399   7.503  0.8046  0.9240 -0.2009
  803MOL0     C10692   8.697   8.524   7.574 -0.8106  0.5948 -0.9390
  803MOL0     N10693   8.848   8.511   7.594 -0.2762 -0.6952 -0.1084
  803MOL0     C10694   8.942   8.492   7.491 -0.4683 -0.1572  0.0634
  803MOL0     C10695   9.060   8.511   7.538 -0.6029  1.3356  0.8854
  803MOL0     C10696   9.193   8.493   7.455 -0.3954  0.3108 -0.6511
  803MOL0     C10697   9.231   8.615   7.380 -0.1743 -0.0589  0.6129
  803MOL0     C10698   9.231   8.748   7.457  0.5840 -0.3572 -1.3601
  803MOL0     C10699   9.318   8.737   7.581  0.6069 -0.2043 -0.9695
  803MOL0     O10700   9.374   8.863   7.627 -0.6336 -0.0961 -0.1385
  803MOL0     C10701   9.502   8.863   7.682  0.4136  0.4126  0.1624
  803MOL0     C10702   9.555   8.775   7.780 -0.0245 -1.2049  0.0034
  803MOL0     C10703   9.691   8.791   7.824 -0.4540  1.3426  0.2322
  803MOL0     C10704   9.740   8.680   7.915  0.5405 -0.9272 -0.0759
  803MOL0     C10705   9.762   8.907   7.783 -0.4465 -0.7416  1.3041
  803MOL0     C10706   9.907   8.922   7.828 -0.0122 -0.0122  0.2265
  803MOL0     O10707   9.952   9.046   7.866  0.1652 -0.1764  0.7257
  803MOL0     C10708  10.093   9.060   7.873  0.2407  0.8912 -0.9607
  803MOL0     C10709  10.187   9.028   7.775  0.8779  0.2960  0.1688
  803MOL0     C10710  10.319   9.037   7.793 -0.8322  0.1561 -0.5505
  803MOL0     C10711  10.368   9.101   7.908  0.2336 -0.5489  0.0776
  803MOL0     O10712  10.498   9.129   7.899  0.9565  0.0389 -0.3862
  803MOL0     C10713  10.577   9.069   8.001  0.7910  0.2050  0.3084
  803MOL0     C10714  10.710   9.131   7.981 -0.7062  1.0630 -0.1035
  803MOL0     C10715  10.771   9.097   7.844  0.0915  0.3272 -0.3569
  803MOL0     C10716  10.912   9.161   7.826  0.5258 -0.5478 -0.4868
  803MOL0     C10717  11.018   9.079   7.896  0.2685  0.4667 -0.1413
  803MOL0     C10718  11.156   9.125   7.856  0.0032  0.1639 -0.5960
  803MOL0     C10719  11.266   9.038   7.925  0.1101 -0.7098  0.0100
  803MOL0     C10720  11.406   9.092   7.911 -0.8054 -0.9351 -0.1224
  803MOL0    Cl10721  11.461   9.173   8.060  0.2510 -0.0567 -0.3810
  803MOL0     C10722  10.277   9.160   8.004 -0.5623  0.2033  0.6718
  803MOL0     C10723  10.143   9.125   7.992 -0.8529  0.6089  0.7983
  803MOL0     O10724   9.977   8.826   7.813 -0.4100  0.2839  0.5169
  803MOL0     C10725   9.703   9.003   7.705  0.6450 -0.0108 -0.3048
  803MOL0     C10726   9.578   8.978   7.654 -0.2133  0.5299  1.6556
  803MOL0     N10727   9.041   8.539   7.668 -0.4012 -0.4234 -0.1938
  803MOL0     N10728   8.917   8.528   7.706  0.2914  0.0493 -0.7336
  803MOL0     C10729   7.847   7.791   7.407  0.3197 -0.1475  0.4509
  803MOL0     C10730   7.747   7.695   7.432  0.4860 -0.1317  0.3211
  803MOL0     C10731   7.529   7.326   7.546 -0.4755 -0.2255  0.2663
  803MOL0     C10732   7.483   7.274   7.428 -0.2384  0.8405  0.7661
  803MOL0     C10733   7.372   7.184   7.421 -0.4837 -0.4141  0.8157
  803MOL0     C10734   7.315   7.138   7.537  0.5847  0.2275  0.4430
  803MOL0     O10735   7.216   7.039   7.511  0.4894 -0.2343  0.4325
  803MOL0     C10736   7.144   7.005   7.632  0.2412 -0.3702 -1.3644
  803MOL0     C10737   7.027   6.903   7.599 -0.6379 -0.8464  0.3873
  803MOL0     C10738   6.905   6.982   7.574 -0.0060  0.5681  0.7779
  803MOL0     C10739   6.789   6.892   7.532  0.1228  1.1019  0.0891
  803MOL0     C10740   6.722   6.816   7.638  0.5008  0.0469 -0.1070
  803MOL0     C10741   6.665   6.769   7.737 -0.1556  0.0855  0.1476
  803MOL0     C10742   7.363   7.186   7.660  0.2869  0.4424  0.5201
  803MOL0     C10743   7.469   7.275   7.664  0.1544 -0.1142 -1.0384
  803MOL0     C10744   7.514   7.310   7.806  0.0198  0.0947  0.4209
  803MOL0     H10745   7.933   7.423   7.348 -0.7195  0.1057 -1.0936
  803MOL0     H10746   8.109   7.597   7.351 -0.3707 -1.0132  0.5566
  803MOL0     H10747   7.968   7.948   7.234 -1.2504 -4.0574  0.6553
  803MOL0     H10748   8.145   7.926   7.203 -0.7413  2.8174 -1.8106
  803MOL0     H10749   8.077   8.160   7.248 -1.0840 -0.7814 -0.2971
  803MOL0     H10750   8.029   8.127   7.420  0.7095 -1.5607  0.8141
  803MOL0     H10751   8.254   8.062   7.466  2.6111  3.3732  0.7181
  803MOL0     H10752   8.309   8.083   7.310  0.9072 -2.5342  1.7371
  803MOL0     H10753   8.239   8.329   7.349 -0.7463 -1.3710 -1.8832
  803MOL0     H10754   8.220   8.285   7.521 -1.3395 -1.0138 -1.3166
  803MOL0     H10755   8.465   8.265   7.348 -0.2010 -0.0121  0.1388
  803MOL0     H10756   8.442   8.188   7.517 -1.0004  0.3101  0.6783
  803MOL0     H10757   8.435   8.478   7.451 -1.2488 -1.1619 -0.4605
  803MOL0     H10758   8.443   8.417   7.613  0.4885  0.9925  0.2300
  803MOL0     H10759   8.663   8.402   7.398  2.9108 -0.7685  0.3233
  803MOL0     H10760   8.665   8.302   7.540 -0.4914  0.1988 -0.8531
  803MOL0     H10761   8.667   8.620   7.530 -4.8638 -0.1007 -0.0821
  803MOL0     H10762   8.650   8.522   7.672  1.5319 -2.1498  0.2707
  803MOL0     H10763   8.912   8.477   7.388 -4.4890  3.1500  0.4711
  803MOL0     H10764   9.184   8.406   7.389  0.5058  0.7529 -1.3684
  803MOL0     H10765   9.273   8.468   7.526 -1.2524  0.4256  0.3839
  803MOL0     H10766   9.331   8.611   7.335  0.3566  0.4261  1.6945
  803MOL0     H10767   9.154   8.621   7.302 -1.6749 -0.8324  1.9822
  803MOL0     H10768   9.254   8.831   7.389  1.5950 -0.5661 -1.2891
  803MOL0     H10769   9.133   8.783   7.490  2.2637  1.7047  1.9628
  803MOL0     H10770   9.259   8.697   7.663  3.0386 -0.6296  0.6825
  803MOL0     H10771   9.403   8.668   7.572  1.7349  0.3844  3.2338
  803MOL0     H10772   9.495   8.693   7.820  1.7631 -1.5188  2.2616
  803MOL0     H10773   9.795   8.729   7.997 -2.3253  1.4128  0.6081
  803MOL0     H10774   9.807   8.606   7.869  2.4774 -1.3842  3.1703
  803MOL0     H10775   9.656   8.637   7.969 -0.8725  2.2539  0.4950
  803MOL0     H10776  10.146   8.988   7.683  1.3171  2.1301 -0.8540
  803MOL0     H10777  10.393   9.002   7.721  2.8919  2.3936  1.8330
  803MOL0     H10778  10.548   9.109   8.098  2.7350 -0.3296  1.1651
  803MOL0     H10779  10.580   8.960   7.996 -0.9091  0.1790 -0.9574
  803MOL0     H10780  10.703   9.240   7.992  2.0090  1.2441  0.4898
  803MOL0     H10781  10.780   9.089   8.054 -1.0898 -1.9353 -1.3305
  803MOL0     H10782  10.705   9.132   7.764 -1.6297 -2.6247 -0.3704
  803MOL0     H10783  10.780   8.989   7.828 -0.2933  0.4318 -1.3747
  803MOL0     H10784  10.920   9.265   7.860 -1.7839 -0.1263 -1.0912
  803MOL0     H10785  10.942   9.164   7.721  2.1001  0.4374 -0.0443
  803MOL0     H10786  11.003   9.083   8.004  1.2391 -3.0059  0.2492
  803MOL0     H10787  11.004   8.976   7.862 -0.4635  0.3219  0.5739
  803MOL0     H10788  11.174   9.224   7.898  2.0497 -1.6208  3.3132
  803MOL0     H10789  11.174   9.113   7.749 -2.9499 -1.7858 -1.0136
  803MOL0     H10790  11.264   8.933   7.892  2.7368 -0.9022  0.1890
  803MOL0     H10791  11.248   9.045   8.032 -1.0296 -2.8875  0.0114
  803MOL0     H10792  11.423   9.157   7.825 -1.6690  1.4662  1.4109
  803MOL0     H10793  11.473   9.007   7.897  0.5118  0.3702 -2.3046
  803MOL0     H10794  10.308   9.222   8.088  1.3830 -1.1426  1.0308
  803MOL0     H10795  10.084   9.158   8.077  0.4133  1.0047  1.5401
  803MOL0     H10796   9.765   9.091   7.695  6.1486 -3.1436  1.5981
  803MOL0     H10797   9.538   9.047   7.580  0.7267 -1.1773 -0.5598
  803MOL0     H10798   7.823   7.896   7.424  0.4627  0.3512 -2.0650
  803MOL0     H10799   7.650   7.724   7.468  1.8772  2.3487  2.3434
  803MOL0     H10800   7.521   7.295   7.329 -0.2245 -1.9681  0.0744
  803MOL0     H10801   7.341   7.148   7.324 -0.3250  1.2220  0.1294
  803MOL0     H10802   7.207   6.942   7.696 -1.1254 -2.0595 -1.5872
  803MOL0     H10803   7.109   7.097   7.679 -0.4843 -1.4607  0.3048
  803MOL0     H10804   7.005   6.838   7.684 -0.8213  0.7334  1.5819
  803MOL0     H10805   7.055   6.844   7.511  0.5614 -1.9787  1.4980
  803MOL0     H10806   6.876   7.048   7.656  0.0051 -2.0225  3.0277
  803MOL0     H10807   6.916   7.042   7.483  0.9133 -1.0013 -0.1847
  803MOL0     H10808   6.837   6.820   7.465 -0.8296 -0.4316  0.9815
  803MOL0     H10809   6.722   6.934   7.456 -0.3797 -0.6493 -0.4993
  803MOL0     H10810   6.604   6.714   7.806  0.2597 -1.8036 -0.9050
  803MOL0     H10811   7.323   7.149   7.754 -0.0783  1.3407  0.7268
  803MOL0     H10812   7.438   7.270   7.874  0.0344 -0.1995  0.2627
  803MOL0     H10813   7.609   7.266   7.836 -1.0811 -1.4189  1.8220
  803MOL0     H10814   7.507   7.419   7.821 -3.9547  0.5556 -3.0450
  804MOL0     O10815   8.821   8.818   2.524 -0.7623  0.8240  0.6306
  804MOL0     C10816   8.885   8.872   2.610  0.1265  0.5368  0.2508
  804MOL0     O10817   8.994   8.952   2.592 -0.4850  0.4578  0.7368
  804MOL0     C10818   9.027   9.008   2.473  0.5599 -0.7314  0.2661
  804MOL0     C10819   8.936   9.069   2.385 -1.0592 -0.5515 -0.1900
  804MOL0     C10820   8.973   9.133   2.262 -0.1703  0.1561  0.4411
  804MOL0     C10821   9.106   9.146   2.239  0.3164  0.4850  0.3964
  804MOL0     O10822   9.135   9.215   2.131 -0.2146 -0.4155  0.0951
  804MOL0     C10823   9.258   9.265   2.115 -0.2347 -0.7990  0.2128
  804MOL0     C10824   9.266   9.350   1.988 -0.0626 -0.6172  0.5950
  804MOL0     C10825   9.160   9.466   1.984 -0.4903  0.0479  0.2171
  804MOL0     C10826   9.209   9.601   1.913 -0.3937 -0.3086 -0.0506
  804MOL0     C10827   9.098   9.701   1.881 -0.1766 -0.3270 -0.1660
  804MOL0     C10828   9.138   9.851   1.883 -0.3683 -0.9964 -0.2587
  804MOL0     C10829   9.250   9.889   1.785 -0.6596 -0.1676  1.1040
  804MOL0     C10830   9.193   9.947   1.654  0.2124  0.0335  0.0673
  804MOL0     N10831   9.309  10.010   1.587  0.0145 -0.4684  0.5222
  804MOL0     C10832   9.424   9.952   1.543  0.0594  0.3187 -0.0790
  804MOL0     C10833   9.518  10.047   1.528 -0.6778 -0.8561 -0.1967
  804MOL0     C10834   9.662  10.033   1.481 -0.2452  0.6571 -0.0673
  804MOL0     C10835   9.747   9.943   1.577  0.5635 -0.1662  1.4923
  804MOL0     C10836   9.867   9.902   1.490 -0.7728  0.2474 -0.5613
  804MOL0     C10837   9.981   9.851   1.578  0.4936 -0.6325  0.6937
  804MOL0     O10838  10.031   9.951   1.668  0.2255  0.7267  0.1363
  804MOL0     C10839  10.131   9.915   1.764 -0.3131 -0.6679  1.2911
  804MOL0     C10840  10.187  10.019   1.821 -0.0981 -0.1784 -0.5833
  804MOL0     C10841  10.286  10.008   1.917 -0.0462  0.3495 -0.1163
  804MOL0     C10842  10.320  10.148   1.973 -0.6036  0.5500  0.7209
  804MOL0     C10843  10.345   9.882   1.954 -0.1857  0.6557 -0.6864
  804MOL0     C10844  10.448   9.860   2.061 -0.2043  0.1440  0.2543
  804MOL0     O10845  10.471   9.738   2.100 -0.4330  0.1033 -0.4159
  804MOL0     C10846  10.574   9.699   2.178  0.4290  0.3144  0.4242
  804MOL0     C10847  10.611   9.765   2.300  0.9803 -0.4242  0.4225
  804MOL0     C10848  10.707   9.718   2.382  0.3014 -0.5076  0.7525
  804MOL0     C10849  10.769   9.595   2.355 -0.6637 -0.4293 -0.5407
  804MOL0     O10850  10.876   9.553   2.436 -0.2177  0.5823 -0.3860
  804MOL0     C10851  10.849   9.522   2.574 -0.0170  0.9708  0.5062
  804MOL0     C10852  10.874   9.374   2.595  0.9961 -0.2366  0.3111
  804MOL0     C10853  10.949   9.342   2.726  0.1487  1.1216  0.0505
  804MOL0     C10854  11.072   9.243   2.700 -0.1778  0.0609 -1.1366
  804MOL0     C10855  11.140   9.223   2.835  0.1055  0.9250 -0.1196
  804MOL0     C10856  11.262   9.128   2.807  0.7178  0.0918  0.0502
  804MOL0     C10857  11.331   9.076   2.935 -0.0949  0.2990 -0.2595
  804MOL0     C10858  11.457   8.999   2.901 -0.1153 -0.0168 -0.2009
  804MOL0    Cl10859  11.431   8.824   2.846 -0.1910 -0.1474  0.1025
  804MOL0     C10860  10.750   9.535   2.226 -0.4856 -0.0872 -1.3603
  804MOL0     C10861  10.656   9.586   2.144 -0.4577  0.0153  0.8913
  804MOL0     O10862  10.500   9.957   2.106 -0.2430  0.5114 -0.0965
  804MOL0     C10863  10.276   9.766   1.887  0.1637 -0.3260 -0.1517
  804MOL0     C10864  10.178   9.792   1.787  0.1033  0.2048  0.6661
  804MOL0     N10865   9.467  10.173   1.563 -0.1004 -0.4769 -0.4475
  804MOL0     N10866   9.340  10.149   1.592 -0.2386  0.2146  1.1946
  804MOL0     C10867   9.199   9.101   2.341  0.4792 -0.3434 -0.0997
  804MOL0     C10868   9.160   9.019   2.444  1.4498  0.0262  0.2751
  804MOL0     C10869   8.860   8.820   2.756 -0.0904  0.7406  0.1465
  804MOL0     C10870   8.943   8.870   2.859 -0.1095 -0.4334  0.0875
  804MOL0     C10871   8.932   8.823   2.991 -1.2614  0.7258  0.5775
  804MOL0     C10872   8.843   8.723   3.021  0.7907  1.1095 -0.4989
  804MOL0     O10873   8.845   8.678   3.151 -0.1923 -0.0051  0.1790
  804MOL0     C10874   8.768   8.748   3.245 -0.4594 -0.8949  0.6307
  804MOL0     C10875   8.845   8.862   3.303 -0.5098 -0.0354  0.1553
  804MOL0     C10876   8.769   8.906   3.424  0.7447  0.0471 -0.3755
  804MOL0     C10877   8.827   9.025   3.496  0.0791  0.0189  0.3301
  804MOL0     C10878   8.725   9.061   3.593  0.9205 -0.7199 -0.1290
  804MOL0     C10879   8.648   9.072   3.691 -0.2882 -1.3550  1.4233
  804MOL0     C10880   8.756   8.670   2.928  0.2377  0.5295  0.7453
  804MOL0     C10881   8.766   8.718   2.795  0.3369  0.4504  0.0168
  804MOL0     C10882   8.670   8.648   2.699  0.5386 -0.4663  1.0485
  804MOL0     H10883   8.833   9.064   2.419 -1.2507 -0.4557 -0.7580
  804MOL0     H10884   8.894   9.191   2.215 -1.2129  0.5056  2.5119
  804MOL0     H10885   9.335   9.188   2.114 -1.7625 -2.3857 -0.0356
  804MOL0     H10886   9.282   9.331   2.199  1.9853  0.6239 -1.4337
  804MOL0     H10887   9.368   9.390   1.980  0.5666 -2.0790  0.8878
  804MOL0     H10888   9.253   9.284   1.902  1.2120  1.3775 -1.2234
  804MOL0     H10889   9.068   9.438   1.931 -1.9392  4.8383 -0.2917
  804MOL0     H10890   9.138   9.485   2.089 -2.4853 -0.4420 -0.0785
  804MOL0     H10891   9.264   9.656   1.989 -0.5876  1.0291 -0.8390
  804MOL0     H10892   9.271   9.574   1.828  0.4897  1.3819  0.0226
  804MOL0     H10893   9.028   9.692   1.964  0.6275 -1.3451  0.4208
  804MOL0     H10894   9.037   9.673   1.794 -0.9646  0.0181  0.2702
  804MOL0     H10895   9.047   9.905   1.857 -0.2202 -0.6532 -0.0658
  804MOL0     H10896   9.169   9.888   1.981  2.5013 -1.1750 -1.0119
  804MOL0     H10897   9.315   9.804   1.760  0.0312  0.8012 -0.6387
  804MOL0     H10898   9.316   9.966   1.826  1.4309 -1.3303  0.0719
  804MOL0     H10899   9.156   9.860   1.597  0.1798 -0.5857  1.0141
  804MOL0     H10900   9.111  10.014   1.679 -0.5282 -0.1845 -1.6007
  804MOL0     H10901   9.440   9.846   1.523  0.2560  0.5587 -1.2980
  804MOL0     H10902   9.718  10.126   1.466  1.7594 -0.1188  2.0014
  804MOL0     H10903   9.655   9.977   1.387  2.1968 -0.8057  0.5166
  804MOL0     H10904   9.782   9.989   1.670  0.8571 -2.2482  2.4723
  804MOL0     H10905   9.690   9.855   1.606  0.8917 -0.2596  1.8646
  804MOL0     H10906   9.826   9.816   1.438 -0.4020  0.1197 -0.6471
  804MOL0     H10907   9.899   9.979   1.420  0.8503 -1.8371 -2.2696
  804MOL0     H10908   9.944   9.756   1.616  0.4416 -1.0825 -0.4497
  804MOL0     H10909  10.058   9.826   1.504 -1.6849  0.4841 -2.1129
  804MOL0     H10910  10.156  10.113   1.777 -1.0788 -1.4967 -2.9012
  804MOL0     H10911  10.274  10.156   2.072 -0.3480  0.0599  0.8810
  804MOL0     H10912  10.283  10.235   1.918  1.9235  4.7407  4.8353
  804MOL0     H10913  10.429  10.158   1.977 -0.6130  0.1828  2.8818
  804MOL0     H10914  10.576   9.863   2.332  0.7563 -0.6197  0.7759
  804MOL0     H10915  10.736   9.774   2.471  4.1600 -0.7729 -0.1444
  804MOL0     H10916  10.930   9.568   2.632  1.2883 -0.8825  0.2493
  804MOL0     H10917  10.752   9.561   2.607 -0.6836 -0.4788  0.3273
  804MOL0     H10918  10.782   9.313   2.594  0.6779  0.1438  2.1557
  804MOL0     H10919  10.920   9.338   2.503  0.6772  1.4378 -0.5536
  804MOL0     H10920  10.882   9.307   2.804 -0.0920  0.6306 -0.3681
  804MOL0     H10921  11.000   9.432   2.760  1.4542  0.1866  0.6785
  804MOL0     H10922  11.149   9.288   2.637  3.4877  0.1007  2.9055
  804MOL0     H10923  11.034   9.146   2.669 -3.1310  0.7597 -0.0557
  804MOL0     H10924  11.174   9.309   2.894 -0.0215 -0.0665  1.4339
  804MOL0     H10925  11.070   9.172   2.901 -0.9435 -0.3340 -2.0945
  804MOL0     H10926  11.331   9.173   2.734  0.2468  0.3980 -0.2098
  804MOL0     H10927  11.222   9.038   2.760  0.3398  1.4702 -2.4727
  804MOL0     H10928  11.266   9.019   3.001 -1.1605  0.7140 -0.9119
  804MOL0     H10929  11.356   9.157   3.004 -1.3028 -2.3913  3.6561
  804MOL0     H10930  11.512   8.996   2.995  0.2085  1.7647 -0.3126
  804MOL0     H10931  11.518   9.050   2.826 -1.6558 -0.3993 -1.7713
  804MOL0     H10932  10.808   9.450   2.192  1.0061  0.9956 -1.6574
  804MOL0     H10933  10.638   9.534   2.050  1.0397  0.6503  0.2289
  804MOL0     H10934  10.318   9.667   1.903  1.7388  0.0512 -1.6276
  804MOL0     H10935  10.139   9.712   1.725 -0.0762  2.2018 -2.0220
  804MOL0     H10936   9.306   9.113   2.328  0.0022  1.1519 -3.6953
  804MOL0     H10937   9.235   8.968   2.503  1.3057 -1.4005 -0.7342
  804MOL0     H10938   9.024   8.938   2.837 -1.2888  0.4962 -1.6111
  804MOL0     H10939   8.996   8.863   3.069 -1.8722  2.8114  0.0644
  804MOL0     H10940   8.681   8.784   3.188  0.5410  0.3028 -0.2007
  804MOL0     H10941   8.737   8.686   3.329  0.7678 -1.8518  0.3968
  804MOL0     H10942   8.852   8.950   3.237  1.1575  1.3505  2.0745
  804MOL0     H10943   8.949   8.840   3.327 -0.2373 -0.4339 -1.2660
  804MOL0     H10944   8.667   8.923   3.388 -0.0138  1.0670  2.0149
  804MOL0     H10945   8.757   8.830   3.501  0.7503  0.9522  0.5469
  804MOL0     H10946   8.853   9.110   3.432 -2.2076 -0.4042 -1.3122
  804MOL0     H10947   8.915   8.989   3.549 -1.1239 -1.1761  1.6133
  804MOL0     H10948   8.597   9.095   3.782 -1.0386  2.0097  0.2929
  804MOL0     H10949   8.690   8.596   2.970  0.5303  0.3314  0.8598
  804MOL0     H10950   8.590   8.590   2.746 -1.0556  0.9230  0.1677
  804MOL0     H10951   8.620   8.721   2.635  0.5959 -1.7391 -0.5149
  804MOL0     H10952   8.725   8.581   2.633  0.3269  0.1737  0.2019
  805MOL0     O10953   2.330   2.759   7.996 -0.2797 -0.3434 -0.1616
  805MOL0     C10954   2.379   2.866   8.022 -0.5639 -0.3829 -0.5688
  805MOL0     O10955   2.512   2.887   8.074  0.3479  0.7121 -0.0491
  805MOL0     C10956   2.617   2.790   8.074 -0.6574 -0.2208  0.0425
  805MOL0     C10957   2.652   2.723   7.964 -0.1136  0.0064 -0.0136
  805MOL0     C10958   2.768   2.641   7.952  0.5548 -0.4602  0.1773
  805MOL0     C10959   2.854   2.633   8.062 -0.6517  0.3059  1.1031
  805MOL0     O10960   2.961   2.547   8.045 -0.1965  0.1616 -0.2910
  805MOL0     C10961   3.062   2.534   8.145 -0.0423 -0.0920 -0.7253
  805MOL0     C10962   3.148   2.415   8.108 -1.0257 -1.4435 -0.2886
  805MOL0     C10963   3.278   2.408   8.203 -0.9646 -0.1689  0.9492
  805MOL0     C10964   3.378   2.322   8.123 -0.3127  0.1958 -0.2928
  805MOL0     C10965   3.510   2.299   8.203 -0.2795  0.2604 -0.8235
  805MOL0     C10966   3.620   2.223   8.125 -0.0889 -0.8487 -0.5953
  805MOL0     C10967   3.715   2.154   8.228  0.3558  0.0240  0.7126
  805MOL0     C10968   3.821   2.060   8.178  0.7716 -0.0111 -0.1844
  805MOL0     N10969   3.917   2.014   8.275  0.3884 -0.7259  0.3652
  805MOL0     C10970   4.000   2.091   8.344  0.3588 -0.3217 -0.7824
  805MOL0     C10971   4.063   1.999   8.420  0.2978 -0.6012  0.4680
  805MOL0     C10972   4.164   2.037   8.523 -0.1530  0.3406 -1.0940
  805MOL0     C10973   4.257   1.913   8.536  0.5281 -0.7741  0.9906
  805MOL0     C10974   4.392   1.924   8.616  0.0087 -1.0874  0.6460
  805MOL0     C10975   4.493   2.029   8.564 -0.4086 -1.3016  0.8338
  805MOL0     O10976   4.609   2.034   8.642  0.1970  0.1347 -0.0491
  805MOL0     C10977   4.714   1.952   8.618 -1.1917 -0.3029 -0.5316
  805MOL0     C10978   4.715   1.851   8.516 -0.0037 -0.6548  0.0868
  805MOL0     C10979   4.833   1.781   8.482 -0.5465 -0.4326 -0.5046
  805MOL0     C10980   4.834   1.682   8.362  0.1811  0.2320  0.3599
  805MOL0     C10981   4.948   1.807   8.553 -0.5477 -0.3068  0.3406
  805MOL0     C10982   5.081   1.743   8.531 -0.2268  0.1086  0.2397
  805MOL0     O10983   5.185   1.818   8.505 -0.3401 -0.3222 -0.5744
  805MOL0     C10984   5.306   1.760   8.480  0.6163  0.0261  1.0394
  805MOL0     C10985   5.402   1.763   8.575  0.4462 -1.0691 -0.0517
  805MOL0     C10986   5.524   1.714   8.548 -0.2578  0.7122 -0.1242
  805MOL0     C10987   5.555   1.649   8.428  0.1917  0.1266  0.2323
  805MOL0     O10988   5.684   1.602   8.418 -0.2360 -0.4378 -0.0914
  805MOL0     C10989   5.743   1.565   8.300 -0.8892  0.5443  0.9515
  805MOL0     C10990   5.885   1.522   8.331 -0.9566  0.0328  0.3654
  805MOL0     C10991   5.951   1.472   8.203  0.2941  0.4690  0.6872
  805MOL0     C10992   6.096   1.528   8.166 -1.1934 -0.0257 -0.5498
  805MOL0     C10993   6.203   1.490   8.269 -0.5028 -1.2533 -0.2732
  805MOL0     C10994   6.336   1.525   8.212 -0.3216 -0.5295 -0.2238
  805MOL0     C10995   6.459   1.463   8.282 -0.2665  0.0390  0.2152
  805MOL0     C10996   6.459   1.314   8.262 -0.2243 -0.0661 -0.2942
  805MOL0    Cl10997   6.603   1.256   8.347 -0.2775 -0.2205  0.4913
  805MOL0     C10998   5.444   1.633   8.336 -0.1355 -0.0581 -0.2531
  805MOL0     C10999   5.324   1.684   8.359 -0.7618  0.0621  0.2320
  805MOL0     O11000   5.083   1.622   8.542 -0.1204 -1.4477  0.0313
  805MOL0     C11001   4.945   1.905   8.650  0.4740  0.5726  0.0026
  805MOL0     C11002   4.832   1.975   8.690  0.6715  0.3834  0.2095
  805MOL0     N11003   4.010   1.868   8.396 -0.5577 -0.3180  0.1963
  805MOL0     N11004   3.921   1.882   8.307  0.7258  0.5598  0.2695
  805MOL0     C11005   2.814   2.695   8.182  0.0951  0.3429  0.8699
  805MOL0     C11006   2.703   2.780   8.186  0.0932 -0.1803 -0.0314
  805MOL0     C11007   2.321   2.977   7.940 -0.3682  0.0352 -0.8520
  805MOL0     C11008   2.410   3.053   7.856 -0.3178  0.0014  0.0200
  805MOL0     C11009   2.366   3.158   7.781 -0.5818 -0.6166 -0.2936
  805MOL0     C11010   2.225   3.186   7.788  0.2321 -0.9515 -0.6741
  805MOL0     O11011   2.158   3.284   7.709  0.3726  0.2208 -0.2018
  805MOL0     C11012   2.222   3.410   7.707 -0.6185 -0.1601  0.2014
  805MOL0     C11013   2.161   3.502   7.812  0.6629  0.4074  0.2398
  805MOL0     C11014   2.013   3.527   7.784  0.3871 -0.1432 -0.0187
  805MOL0     C11015   1.954   3.616   7.895 -0.8264  0.0290  0.6624
  805MOL0     C11016   1.807   3.616   7.876 -0.6809 -0.3891  0.0360
  805MOL0     C11017   1.688   3.631   7.851 -0.3692 -0.0014 -0.4437
  805MOL0     C11018   2.140   3.107   7.871  0.3950 -0.5552 -0.2481
  805MOL0     C11019   2.186   2.999   7.943  0.0884  0.1032 -0.4412
  805MOL0     C11020   2.087   2.933   8.041 -0.9606 -0.2020 -0.7167
  805MOL0     H11021   2.584   2.732   7.879  0.7121  1.2711 -0.5730
  805MOL0     H11022   2.782   2.597   7.854 -2.2783  1.3791 -1.1942
  805MOL0     H11023   3.018   2.524   8.245  1.8460  1.0358  0.2787
  805MOL0     H11024   3.122   2.626   8.142 -0.5365  0.2605 -0.0825
  805MOL0     H11025   3.092   2.321   8.096  0.8348 -2.5355 -0.7712
  805MOL0     H11026   3.185   2.452   8.013 -0.4973  2.2549  1.1958
  805MOL0     H11027   3.325   2.503   8.230  1.9192 -1.6874  1.6875
  805MOL0     H11028   3.256   2.359   8.299 -3.4858  2.3361  1.7913
  805MOL0     H11029   3.334   2.222   8.111  0.3816 -0.2019  0.4051
  805MOL0     H11030   3.400   2.362   8.023  0.7720 -1.2731 -0.6805
  805MOL0     H11031   3.495   2.242   8.295  0.0616  3.7890  1.6299
  805MOL0     H11032   3.558   2.389   8.243 -0.3997 -0.3402  0.7292
  805MOL0     H11033   3.576   2.144   8.064 -1.5205 -0.5215 -0.0237
  805MOL0     H11034   3.668   2.293   8.056  1.8370 -2.1460 -0.6507
  805MOL0     H11035   3.648   2.088   8.284  1.3977 -3.5620 -1.8921
  805MOL0     H11036   3.758   2.226   8.299 -0.5248  1.1168  0.1631
  805MOL0     H11037   3.770   1.967   8.150  0.8408  0.1001 -0.6872
  805MOL0     H11038   3.881   2.111   8.102  0.7540  4.5021  2.4810
  805MOL0     H11039   4.002   2.200   8.341  0.0483 -0.2257  1.0753
  805MOL0     H11040   4.109   2.050   8.617 -1.1293  0.7992 -1.7194
  805MOL0     H11041   4.216   2.128   8.495  0.6429  1.0056  2.1882
  805MOL0     H11042   4.212   1.829   8.590 -1.1201 -0.9026 -0.5286
  805MOL0     H11043   4.259   1.874   8.434 -2.1395  1.7875 -0.1979
  805MOL0     H11044   4.363   1.942   8.720 -1.3679 -1.7562  0.3922
  805MOL0     H11045   4.437   1.825   8.610  3.4112  0.3980 -1.4026
  805MOL0     H11046   4.517   2.026   8.458  1.5015  2.0630  1.0082
  805MOL0     H11047   4.440   2.124   8.573  1.6556  0.1213 -0.8747
  805MOL0     H11048   4.627   1.814   8.465  1.3476  1.4334 -4.1830
  805MOL0     H11049   4.781   1.735   8.283 -2.2994 -0.2439  1.5941
  805MOL0     H11050   4.775   1.596   8.396 -1.5282  1.7399  1.3596
  805MOL0     H11051   4.931   1.646   8.328  0.2073 -0.8549  1.5223
  805MOL0     H11052   5.387   1.807   8.673 -0.1432 -1.9949  0.2893
  805MOL0     H11053   5.599   1.719   8.626  0.5932  2.4094 -1.0093
  805MOL0     H11054   5.690   1.481   8.254 -3.7357  1.4076  2.4462
  805MOL0     H11055   5.735   1.648   8.228 -1.1877 -1.3521 -1.3378
  805MOL0     H11056   5.939   1.614   8.355  0.0388  0.2148 -2.2311
  805MOL0     H11057   5.892   1.450   8.413 -1.5193 -0.4849 -0.0287
  805MOL0     H11058   5.887   1.500   8.120 -2.4667 -0.0745  2.4952
  805MOL0     H11059   5.963   1.364   8.209 -0.4448  0.2389 -1.3653
  805MOL0     H11060   6.083   1.637   8.159 -3.6295  0.0681  2.8794
  805MOL0     H11061   6.117   1.495   8.063 -1.2184  1.2061 -0.9711
  805MOL0     H11062   6.183   1.549   8.359 -2.7202 -1.3002 -0.6612
  805MOL0     H11063   6.205   1.382   8.288  2.9749 -1.5136 -1.4406
  805MOL0     H11064   6.350   1.633   8.220 -2.3285  0.0301 -2.9818
  805MOL0     H11065   6.334   1.513   8.103  1.2242 -2.0863 -0.1310
  805MOL0     H11066   6.453   1.494   8.387 -1.3580 -1.2701  0.5661
  805MOL0     H11067   6.543   1.518   8.238 -0.1101 -2.0500 -2.3309
  805MOL0     H11068   6.461   1.297   8.154 -2.8503 -1.9285 -0.1174
  805MOL0     H11069   6.372   1.263   8.301  1.0992 -4.2111 -2.2251
  805MOL0     H11070   5.467   1.582   8.243 -0.7344  1.1474 -1.0848
  805MOL0     H11071   5.253   1.692   8.278 -0.2170  1.4157 -0.1399
  805MOL0     H11072   5.039   1.915   8.703 -0.2362  2.1887  1.0472
  805MOL0     H11073   4.826   2.047   8.772 -0.8245  1.0813 -0.4570
  805MOL0     H11074   2.875   2.684   8.271  1.9339  0.2018 -0.3538
  805MOL0     H11075   2.668   2.824   8.279 -1.6712  1.3518 -1.3657
  805MOL0     H11076   2.510   3.011   7.862 -0.7814 -1.0287  0.8911
  805MOL0     H11077   2.431   3.217   7.718 -2.3930 -0.1820 -1.8531
  805MOL0     H11078   2.329   3.391   7.720 -0.8359 -0.5615  1.5362
  805MOL0     H11079   2.229   3.467   7.614  1.5495  1.1507  1.0908
  805MOL0     H11080   2.208   3.601   7.801  0.0672  0.6490 -0.1728
  805MOL0     H11081   2.167   3.461   7.913 -1.9892  0.6769  0.5674
  805MOL0     H11082   2.004   3.572   7.685 -1.7304 -3.1129 -1.3349
  805MOL0     H11083   1.969   3.427   7.788  0.4395 -0.1994 -0.6703
  805MOL0     H11084   1.990   3.720   7.891 -2.4105  0.6411  1.5237
  805MOL0     H11085   1.961   3.580   7.998  0.9670  0.4768  0.7370
  805MOL0     H11086   1.588   3.662   7.832 -0.1561  1.5049  0.7139
  805MOL0     H11087   2.035   3.133   7.867  0.9450  1.8023 -1.8717
  805MOL0     H11088   1.985   2.973   8.031 -1.2849 -1.2435 -1.7253
  805MOL0     H11089   2.087   2.824   8.038  0.3440 -0.2035 -1.2310
  805MOL0     H11090   2.129   2.946   8.141  1.2981 -1.5664 -1.4308
  806MOL0     O11091   4.193  10.157   6.878  0.2057 -0.4283 -0.1497
  806MOL0     C11092   4.162  10.259   6.828 -0.1322  0.2955  0.0220
  806MOL0     O11093   4.233  10.376   6.830 -0.5955  0.9088  0.7404
  806MOL0     C11094   4.372  10.358   6.842  0.3447 -0.7929 -0.3948
  806MOL0     C11095   4.446  10.272   6.928 -0.2025 -0.1897  0.2568
  806MOL0     C11096   4.594  10.284   6.926  0.4965  0.4932  0.0834
  806MOL0     C11097   4.654  10.380   6.846 -0.3582 -1.5796 -0.0955
  806MOL0     O11098   4.791  10.391   6.860  0.0665 -0.1642 -0.7504
  806MOL0     C11099   4.846  10.447   6.743  0.4521 -0.3283 -1.1596
  806MOL0     C11100   4.997  10.401   6.760 -0.5735 -0.8927  0.1159
  806MOL0     C11101   5.067  10.447   6.888  0.5964 -0.6548 -0.3488
  806MOL0     C11102   5.209  10.401   6.894 -0.0430  0.7474  0.2835
  806MOL0     C11103   5.268  10.424   7.033  0.3188  0.0927 -0.2935
  806MOL0     C11104   5.413  10.377   7.049 -0.2466  0.1031 -0.7234
  806MOL0     C11105   5.508  10.437   6.945  0.1073  0.3992  0.3019
  806MOL0     C11106   5.659  10.381   6.959 -0.0943 -0.0631  0.0725
  806MOL0     N11107   5.742  10.442   7.061 -0.0766  0.5667  0.2978
  806MOL0     C11108   5.860  10.508   7.043  0.3247  0.7163 -0.0568
  806MOL0     C11109   5.886  10.557   7.170  0.6764 -1.1549  0.6275
  806MOL0     C11110   6.022  10.614   7.209 -0.9934 -1.0259  0.3555
  806MOL0     C11111   6.046  10.754   7.158  0.0778  0.2893 -0.2132
  806MOL0     C11112   6.171  10.823   7.221  0.1109 -0.6264  0.7578
  806MOL0     C11113   6.213  10.966   7.174  0.4457 -0.6748  0.3052
  806MOL0     O11114   6.221  10.970   7.033 -0.1183  0.0948  0.2065
  806MOL0     C11115   6.341  10.990   6.974  0.4551 -0.4302  0.5757
  806MOL0     C11116   6.468  10.967   7.026 -0.4150 -1.0517  0.4456
  806MOL0     C11117   6.581  11.002   6.954  0.3226  0.7456  0.4366
  806MOL0     C11118   6.712  10.975   7.020 -0.0836  0.0257  0.4340
  806MOL0     C11119   6.567  11.058   6.826  0.1153  0.1659  0.8487
  806MOL0     C11120   6.675  11.115   6.753 -0.2228 -0.5962 -0.8570
  806MOL0     O11121   6.768  11.177   6.833 -0.3039  0.0698  0.0787
  806MOL0     C11122   6.889  11.218   6.776  1.1710  0.4736 -0.1618
  806MOL0     C11123   6.993  11.124   6.758 -0.4041 -0.5221 -0.6076
  806MOL0     C11124   7.111  11.167   6.710  1.7101 -0.1975  0.6869
  806MOL0     C11125   7.122  11.304   6.662 -0.1044  0.1903  0.3918
  806MOL0     O11126   7.226  11.343   6.583 -0.5946  1.0823 -1.0128
  806MOL0     C11127   7.343  11.255   6.579  0.0153  0.3691  0.2485
  806MOL0     C11128   7.448  11.303   6.480 -0.2180 -0.0231 -0.0204
  806MOL0     C11129   7.472  11.453   6.479  0.0075 -0.2666  0.1557
  806MOL0     C11130   7.559  11.501   6.605  0.1997  1.4702  0.6061
  806MOL0     C11131   7.582  11.649   6.600 -0.0030  0.6127 -0.6596
  806MOL0     C11132   7.703  11.684   6.688 -0.4327  0.1674 -0.4054
  806MOL0     C11133   7.801  11.752   6.592  0.8973 -0.2601  0.1672
  806MOL0     C11134   7.930  11.794   6.667  0.5234 -0.0484  0.0490
  806MOL0    Cl11135   8.009  11.664   6.761  0.0794  0.4010  0.2888
  806MOL0     C11136   7.025  11.391   6.684  0.1637 -0.1764 -0.2680
  806MOL0     C11137   6.903  11.351   6.741  0.3322  0.5419 -0.3674
  806MOL0     O11138   6.676  11.106   6.632 -0.2094  0.0849  0.1976
  806MOL0     C11139   6.440  11.074   6.778  0.7038  0.1831  0.4822
  806MOL0     C11140   6.326  11.043   6.844 -0.3790  0.5456  0.7117
  806MOL0     N11141   5.780  10.535   7.253 -0.3086  0.3508  0.5002
  806MOL0     N11142   5.704  10.452   7.190  0.3430  0.0951 -0.3973
  806MOL0     C11143   4.575  10.465   6.766  0.0014  0.3498 -0.4164
  806MOL0     C11144   4.435  10.455   6.768  0.0041 -0.3832 -0.2139
  806MOL0     C11145   4.024  10.268   6.786  0.4435 -0.0398  0.9053
  806MOL0     C11146   3.923  10.187   6.840 -1.0139  0.2094  0.1848
  806MOL0     C11147   3.791  10.184   6.799  1.1191  0.0215  0.4624
  806MOL0     C11148   3.750  10.270   6.697  0.0799  0.0586  0.0358
  806MOL0     O11149   3.618  10.282   6.661  0.7425 -0.0676  0.3371
  806MOL0     C11150   3.528  10.175   6.677  0.2229  0.0487  0.2826
  806MOL0     C11151   3.424  10.162   6.566  0.3309  0.0794  0.0898
  806MOL0     C11152   3.484  10.163   6.432 -0.2889  0.0591  0.5434
  806MOL0     C11153   3.397  10.157   6.314  1.6250 -0.2276 -0.1818
  806MOL0     C11154   3.309  10.277   6.308  0.0226 -0.6951  0.2492
  806MOL0     C11155   3.253  10.387   6.316 -0.4295  0.5703 -0.1255
  806MOL0     C11156   3.847  10.348   6.631 -0.2153  0.7575  0.0891
  806MOL0     C11157   3.979  10.349   6.679 -0.1473  0.7071  0.5082
  806MOL0     C11158   4.073  10.448   6.608 -0.7515 -0.6447  0.2785
  806MOL0     H11159   4.401  10.199   6.994 -1.8190  1.8393  1.5362
  806MOL0     H11160   4.662  10.219   6.981  1.3813  1.3116 -0.0190
  806MOL0     H11161   4.844  10.555   6.756  2.8993 -0.1481 -1.8700
  806MOL0     H11162   4.797  10.414   6.651  0.8807  2.5325 -2.5028
  806MOL0     H11163   4.993  10.292   6.762 -0.4777 -0.8951  0.1777
  806MOL0     H11164   5.048  10.434   6.669  0.5926  0.7532  1.2995
  806MOL0     H11165   5.052  10.554   6.903 -1.3530 -0.8252 -0.8169
  806MOL0     H11166   5.005  10.415   6.972 -0.3466  0.3285 -0.6489
  806MOL0     H11167   5.219  10.293   6.881  2.0835  0.7523  1.4080
  806MOL0     H11168   5.260  10.433   6.803  0.3502 -0.1841  0.1626
  806MOL0     H11169   5.207  10.379   7.112  0.2562 -0.9963 -0.9481
  806MOL0     H11170   5.273  10.532   7.047 -2.6965  0.1224  1.3704
  806MOL0     H11171   5.450  10.401   7.148  2.9987 -0.8783 -1.5909
  806MOL0     H11172   5.406  10.268   7.050 -2.8530  0.1803  1.0487
  806MOL0     H11173   5.493  10.545   6.954  0.8417  0.6065 -0.7541
  806MOL0     H11174   5.467  10.425   6.845 -1.2821 -0.0966  0.9093
  806MOL0     H11175   5.654  10.275   6.985  3.6360  0.0376  1.8810
  806MOL0     H11176   5.715  10.388   6.865 -0.4757 -2.8963 -0.4515
  806MOL0     H11177   5.929  10.519   6.960 -0.9006  1.1013 -1.0665
  806MOL0     H11178   6.105  10.556   7.167 -1.1347  0.6901 -2.5923
  806MOL0     H11179   6.038  10.631   7.316  1.2868 -1.1402  0.0972
  806MOL0     H11180   6.055  10.753   7.049  0.9741  2.2245 -0.2086
  806MOL0     H11181   5.957  10.812   7.184 -1.6743 -1.5986 -1.7027
  806MOL0     H11182   6.164  10.816   7.330  1.5855 -0.2141  0.9011
  806MOL0     H11183   6.260  10.765   7.196  0.8493  1.1643 -0.9560
  806MOL0     H11184   6.137  11.040   7.199  1.3745  0.1374  0.8012
  806MOL0     H11185   6.300  11.004   7.230 -1.1812  2.2930  1.0718
  806MOL0     H11186   6.487  10.931   7.127  2.1250  0.5590  0.6218
  806MOL0     H11187   6.783  10.938   6.945 -0.6823 -0.1157 -0.0766
  806MOL0     H11188   6.708  10.911   7.108 -1.7435  0.6959  0.8810
  806MOL0     H11189   6.750  11.070   7.058 -0.3541 -0.7269  2.7614
  806MOL0     H11190   6.987  11.019   6.783 -1.5576  0.2360  2.9467
  806MOL0     H11191   7.187  11.091   6.693  2.4671  0.6753  0.0896
  806MOL0     H11192   7.389  11.256   6.679  0.0625 -0.7766  0.2529
  806MOL0     H11193   7.321  11.151   6.554  0.0889  1.0092 -2.8645
  806MOL0     H11194   7.538  11.243   6.495 -0.2465 -0.2743 -0.7929
  806MOL0     H11195   7.396  11.282   6.386  1.4464  0.9508 -1.2315
  806MOL0     H11196   7.379  11.508   6.468 -0.1454 -0.4651  0.4514
  806MOL0     H11197   7.525  11.481   6.387  1.3638 -1.1829  0.6107
  806MOL0     H11198   7.649  11.439   6.606 -0.1778  0.8833 -0.2264
  806MOL0     H11199   7.501  11.490   6.697  2.1961 -0.6594  1.6971
  806MOL0     H11200   7.605  11.677   6.497  0.2146 -3.6324 -1.9737
  806MOL0     H11201   7.493  11.706   6.629  0.4395  1.1235 -0.2989
  806MOL0     H11202   7.753  11.599   6.736  0.6855  2.2790  2.3984
  806MOL0     H11203   7.670  11.755   6.764  0.1108  0.3439 -0.3342
  806MOL0     H11204   7.753  11.840   6.549  3.6774  2.4669  2.2133
  806MOL0     H11205   7.833  11.679   6.516 -1.0399  0.1603 -1.1133
  806MOL0     H11206   7.910  11.889   6.719 -0.1719 -0.0262 -0.2402
  806MOL0     H11207   7.994  11.838   6.590  0.7458  3.9955  2.2554
  806MOL0     H11208   7.023  11.492   6.644 -1.8507  0.5646  1.5259
  806MOL0     H11209   6.816  11.415   6.755 -1.1914 -1.6739  0.8762
  806MOL0     H11210   6.422  11.114   6.679  1.8156  0.1592  0.2524
  806MOL0     H11211   6.233  11.059   6.792 -0.2200  1.2741  0.6463
  806MOL0     H11212   4.615  10.541   6.700 -0.3686 -0.9883 -2.2341
  806MOL0     H11213   4.375  10.521   6.706 -2.5418  0.3781  2.8191
  806MOL0     H11214   3.958  10.132   6.927  2.2828 -1.7490 -2.1639
  806MOL0     H11215   3.724  10.115   6.848  1.2266 -1.1058 -0.9089
  806MOL0     H11216   3.581  10.079   6.680 -0.2837 -0.3158 -1.2561
  806MOL0     H11217   3.477  10.181   6.774  2.9921  1.5239  1.7568
  806MOL0     H11218   3.357  10.249   6.575  0.8667  0.5628 -0.4976
  806MOL0     H11219   3.366  10.073   6.591 -1.3642  1.1324  0.0515
  806MOL0     H11220   3.540  10.257   6.422 -2.2926  1.2457 -0.2030
  806MOL0     H11221   3.545  10.073   6.421 -1.7431 -0.6489 -3.1374
  806MOL0     H11222   3.331  10.070   6.320  3.0522 -1.2814  4.1189
  806MOL0     H11223   3.453  10.149   6.221  0.6286 -0.0588 -0.8111
  806MOL0     H11224   3.222  10.486   6.343  1.0871  0.7292  1.2556
  806MOL0     H11225   3.814  10.421   6.557 -0.9565  1.0344  0.6792
  806MOL0     H11226   4.171  10.403   6.588 -0.1442 -0.0670  1.8418
  806MOL0     H11227   4.037  10.496   6.516 -0.5879  0.4993  0.8033
  806MOL0     H11228   4.091  10.535   6.671 -1.6337 -2.3897  3.1220
  807MOL0     O11229   7.724   2.557   1.693  0.2840  0.7564 -0.1263
  807MOL0     C11230   7.839   2.541   1.642 -0.4958 -0.6023 -0.3149
  807MOL0     O11231   7.884   2.604   1.527 -0.0786 -0.4090 -0.8201
  807MOL0     C11232   7.796   2.682   1.463  0.5423  0.5445  0.2723
  807MOL0     C11233   7.782   2.813   1.506  0.2209  0.0998  0.2331
  807MOL0     C11234   7.703   2.902   1.442  0.4035 -0.2786  0.7487
  807MOL0     C11235   7.615   2.857   1.349 -0.2725 -0.1667  0.5836
  807MOL0     O11236   7.519   2.943   1.296 -0.2265  0.0970  0.2056
  807MOL0     C11237   7.519   2.944   1.154  1.0107 -0.0232 -0.0909
  807MOL0     C11238   7.419   3.051   1.099  0.1098 -0.7878 -0.4975
  807MOL0     C11239   7.482   3.189   1.119 -1.2597 -0.0389  1.1787
  807MOL0     C11240   7.387   3.294   1.065  0.0644  0.3573  0.0731
  807MOL0     C11241   7.428   3.438   1.057 -1.0871 -0.2795 -0.4400
  807MOL0     C11242   7.536   3.470   0.956  0.4564 -0.6659 -0.7366
  807MOL0     C11243   7.553   3.622   0.914 -0.0183  0.6079 -0.1348
  807MOL0     C11244   7.578   3.707   1.038 -0.3098  0.9392  0.1773
  807MOL0     N11245   7.624   3.837   0.991 -0.3052  0.1464  0.5710
  807MOL0     C11246   7.550   3.907   0.899 -0.1437 -1.0861  0.3408
  807MOL0     C11247   7.647   3.971   0.826  0.4040  0.1772  0.1628
  807MOL0     C11248   7.636   4.058   0.702  0.0993  0.3674 -0.5600
  807MOL0     C11249   7.707   3.985   0.586  0.3904  0.3595 -0.2573
  807MOL0     C11250   7.716   4.076   0.464 -0.1188  0.3596 -0.2864
  807MOL0     C11251   7.820   4.026   0.360 -0.5632 -0.7821  0.2614
  807MOL0     O11252   7.954   4.056   0.408  0.8258  0.5227  0.4425
  807MOL0     C11253   8.059   4.074   0.324 -0.8289 -0.1751  0.2587
  807MOL0     C11254   8.054   4.047   0.181 -0.1592  0.5034  0.1172
  807MOL0     C11255   8.164   4.044   0.101 -1.0954 -0.7376  0.7426
  807MOL0     C11256   8.140   4.017  -0.051 -0.4747 -0.3812 -0.0640
  807MOL0     C11257   8.286   4.064   0.157  0.0619  0.9799  0.0345
  807MOL0     C11258   8.412   4.064   0.087 -0.1094 -0.2608 -0.5738
  807MOL0     O11259   8.530   4.084   0.157 -0.2104 -0.5252 -0.0295
  807MOL0     C11260   8.648   4.056   0.092 -0.4502  0.6614 -0.2761
  807MOL0     C11261   8.749   4.151   0.104  0.7384  0.7645 -0.6223
  807MOL0     C11262   8.874   4.129   0.053  0.1571  0.0235 -0.1362
  807MOL0     C11263   8.908   3.998  -0.002 -0.1878  0.4460 -0.7226
  807MOL0     O11264   9.037   3.977  -0.047  0.2501 -0.5908 -0.5446
  807MOL0     C11265   9.067   3.855  -0.105  0.2612 -0.6113 -0.5348
  807MOL0     C11266   9.196   3.850  -0.189  0.4503 -0.3222 -0.3302
  807MOL0     C11267   9.314   3.906  -0.108  1.0337 -0.2727  0.4837
  807MOL0     C11268   9.458   3.878  -0.156  0.2233  1.2966  0.1382
  807MOL0     C11269   9.570   3.933  -0.076 -0.3191  0.0976 -0.6133
  807MOL0     C11270   9.694   3.869  -0.125  0.6571  0.2741 -0.6594
  807MOL0     C11271   9.818   3.939  -0.070  0.2807 -0.3033 -0.5122
  807MOL0     C11272   9.941   3.852  -0.085  0.7412 -0.3755  0.0329
  807MOL0    Cl11273   9.977   3.802  -0.255 -0.1393 -0.0792 -0.2385
  807MOL0     C11274   8.805   3.905  -0.016  0.0524  0.0185 -0.0436
  807MOL0     C11275   8.679   3.931   0.029  0.0148 -1.1216  0.8942
  807MOL0     O11276   8.410   4.013  -0.031  0.6254 -0.7022 -0.8743
  807MOL0     C11277   8.305   4.071   0.297 -0.3505  0.5106 -0.4962
  807MOL0     C11278   8.185   4.074   0.378  0.5894 -0.6200 -0.4860
  807MOL0     N11279   7.775   3.956   0.888 -0.6443 -0.4768  0.0245
  807MOL0     N11280   7.758   3.867   0.981 -0.2876  0.7674  0.1288
  807MOL0     C11281   7.637   2.729   1.295 -0.3077 -0.1964 -0.3191
  807MOL0     C11282   7.734   2.650   1.350  0.2019  0.2557 -0.2726
  807MOL0     C11283   7.935   2.438   1.700 -0.6968  0.2249 -0.1155
  807MOL0     C11284   8.059   2.436   1.625 -0.6876 -0.0529 -0.6041
  807MOL0     C11285   8.157   2.342   1.661 -0.6370  0.7800  0.0714
  807MOL0     C11286   8.124   2.257   1.770 -0.7181  0.5598  0.0126
  807MOL0     O11287   8.226   2.174   1.804  0.1185  0.0631 -0.3720
  807MOL0     C11288   8.209   2.075   1.906 -0.7257  0.2041  0.4750
  807MOL0     C11289   8.327   1.985   1.911  1.0179  0.2832 -0.4376
  807MOL0     C11290   8.464   2.058   1.904 -1.0741  0.0015  0.2589
  807MOL0     C11291   8.567   1.954   1.930 -0.3503 -0.0403  0.0501
  807MOL0     C11292   8.697   2.006   1.882  0.4875  0.2633 -0.2266
  807MOL0     C11293   8.805   2.035   1.827  0.2836  0.0906  1.0222
  807MOL0     C11294   8.003   2.261   1.836  0.7359 -1.3463 -0.1175
  807MOL0     C11295   7.901   2.347   1.806 -0.5688  0.2503  0.9063
  807MOL0     C11296   7.774   2.350   1.886 -0.1729 -0.7517 -0.0343
  807MOL0     H11297   7.841   2.846   1.590  1.7827  0.0785 -0.8202
  807MOL0     H11298   7.689   3.003   1.481 -0.1087 -0.3711  0.8128
  807MOL0     H11299   7.488   2.847   1.115  0.0096  0.8024 -1.4058
  807MOL0     H11300   7.622   2.957   1.120  2.1656 -0.5464  2.8741
  807MOL0     H11301   7.407   3.030   0.992  0.5947  1.3138 -1.0154
  807MOL0     H11302   7.322   3.049   1.149  0.4348 -0.1617  0.1879
  807MOL0     H11303   7.512   3.205   1.223 -1.1549 -2.2098  1.5239
  807MOL0     H11304   7.568   3.189   1.051 -2.7087 -0.6133 -0.7436
  807MOL0     H11305   7.351   3.255   0.969  2.3888  0.3027 -0.8461
  807MOL0     H11306   7.307   3.296   1.140 -0.3189  1.6071 -0.3453
  807MOL0     H11307   7.463   3.473   1.154  3.8826 -1.1405 -1.6305
  807MOL0     H11308   7.340   3.501   1.042  0.9614  2.4194 -2.4155
  807MOL0     H11309   7.635   3.441   0.994  0.7992  1.0088 -0.2753
  807MOL0     H11310   7.508   3.419   0.863 -3.4815  1.2582 -0.7988
  807MOL0     H11311   7.460   3.657   0.867 -0.1564  0.5771  0.1167
  807MOL0     H11312   7.631   3.622   0.838  1.1014  0.9718  0.9934
  807MOL0     H11313   7.488   3.717   1.100 -0.1769  0.8169  0.3902
  807MOL0     H11314   7.661   3.668   1.097 -0.9361 -1.4615 -0.4071
  807MOL0     H11315   7.447   3.910   0.864  0.6029  0.8998 -1.9144
  807MOL0     H11316   7.690   4.151   0.723  1.5167 -0.6540  0.5138
  807MOL0     H11317   7.529   4.071   0.685  0.1355 -0.7714 -1.7773
  807MOL0     H11318   7.812   3.966   0.613  0.4575  1.4484  0.2795
  807MOL0     H11319   7.650   3.892   0.576  0.0094  0.1511  2.8280
  807MOL0     H11320   7.618   4.085   0.415 -0.1744 -0.6899 -0.3923
  807MOL0     H11321   7.747   4.180   0.477  1.4468 -0.0326 -0.7023
  807MOL0     H11322   7.814   3.919   0.336 -1.5553 -0.9327  1.0894
  807MOL0     H11323   7.800   4.066   0.261  1.5340 -0.5940 -0.1360
  807MOL0     H11324   7.965   4.015   0.129  0.4400  0.2111 -0.7550
  807MOL0     H11325   8.031   4.012  -0.063 -0.6747  1.6121  0.6376
  807MOL0     H11326   8.179   3.918  -0.077 -0.2663 -0.7655  1.6445
  807MOL0     H11327   8.177   4.094  -0.120 -0.9696 -0.1910 -0.1210
  807MOL0     H11328   8.716   4.240   0.158 -1.6054  0.5092 -1.5118
  807MOL0     H11329   8.946   4.210   0.053  1.7838 -1.3352 -1.4592
  807MOL0     H11330   9.075   3.781  -0.026  1.4632  0.4090  0.3388
  807MOL0     H11331   8.986   3.822  -0.172 -3.4963  4.1953  1.0048
  807MOL0     H11332   9.219   3.749  -0.221 -2.7741 -1.0303 -0.7737
  807MOL0     H11333   9.178   3.911  -0.279  1.4460  0.1037 -0.2596
  807MOL0     H11334   9.308   3.869  -0.005 -0.2449 -4.3003 -0.8825
  807MOL0     H11335   9.301   4.015  -0.099 -0.5436 -0.4160  0.1904
  807MOL0     H11336   9.468   3.913  -0.259  2.9118 -1.8087 -0.8440
  807MOL0     H11337   9.461   3.768  -0.160  1.0036  1.3201 -0.0974
  807MOL0     H11338   9.570   4.035  -0.114  1.1222 -0.7066 -2.9423
  807MOL0     H11339   9.552   3.924   0.032 -2.5171  0.5407 -0.8834
  807MOL0     H11340   9.713   3.877  -0.232  1.0277  0.6105 -0.5676
  807MOL0     H11341   9.693   3.763  -0.096 -1.0655  0.2137 -0.8321
  807MOL0     H11342   9.813   3.963   0.036  0.8186 -0.5007 -0.4375
  807MOL0     H11343   9.833   4.028  -0.132 -0.1013 -2.1812 -3.4965
  807MOL0     H11344   9.941   3.760  -0.026  2.3163 -0.5171 -0.1565
  807MOL0     H11345  10.029   3.906  -0.050  0.3543  1.8382 -2.0794
  807MOL0     H11346   8.802   3.808  -0.063 -0.6086 -0.0558  0.1473
  807MOL0     H11347   8.598   3.865  -0.001 -1.6494  1.9814 -2.1981
  807MOL0     H11348   8.396   4.093   0.352 -0.7513  0.4080  0.2303
  807MOL0     H11349   8.183   4.079   0.486  2.3784  0.3861 -0.4631
  807MOL0     H11350   7.580   2.702   1.206 -1.5310  0.6409  0.1785
  807MOL0     H11351   7.754   2.551   1.311 -1.1402  0.1957 -0.8698
  807MOL0     H11352   8.082   2.503   1.543  3.3952 -0.9198 -0.3916
  807MOL0     H11353   8.257   2.343   1.618 -1.2518 -0.3327 -1.4603
  807MOL0     H11354   8.200   2.113   2.008  2.9015  0.7562  0.7269
  807MOL0     H11355   8.124   2.013   1.875 -0.5858  1.5411 -3.0443
  807MOL0     H11356   8.324   1.905   1.836  1.4668 -1.3251  1.1784
  807MOL0     H11357   8.316   1.947   2.013 -2.8726  0.5611 -0.5827
  807MOL0     H11358   8.476   2.101   1.805  0.8177 -1.6543 -0.2806
  807MOL0     H11359   8.463   2.141   1.976  0.1982 -0.1996  0.5195
  807MOL0     H11360   8.550   1.865   1.869  2.8001 -1.3428  0.8997
  807MOL0     H11361   8.575   1.926   2.036  2.3101  0.1525 -0.0501
  807MOL0     H11362   8.902   2.043   1.781 -0.6264  0.9127 -0.8731
  807MOL0     H11363   7.994   2.205   1.928  4.2206 -0.8541  0.6830
  807MOL0     H11364   7.800   2.287   1.971  1.0841  0.2189  0.3341
  807MOL0     H11365   7.739   2.445   1.929 -0.7777 -1.4470  1.0655
  807MOL0     H11366   7.692   2.311   1.825  0.2521 -0.7028 -0.6377
  808MOL0     O11367   5.053   5.956   4.717 -0.0738  1.1979  0.1947
  808MOL0     C11368   5.050   6.010   4.608 -0.3891 -0.3234 -0.6172
  808MOL0     O11369   5.160   6.059   4.539  0.5631  0.3639  0.1890
  808MOL0     C11370   5.283   6.021   4.580  0.7612 -0.7962 -0.6479
  808MOL0     C11371   5.356   5.924   4.506  0.4036 -0.1685 -0.3064
  808MOL0     C11372   5.492   5.907   4.532 -0.5593  0.2611  0.3886
  808MOL0     C11373   5.554   5.975   4.628 -1.0743  0.5961 -0.5967
  808MOL0     O11374   5.690   5.960   4.648 -0.5437  0.2420  0.1976
  808MOL0     C11375   5.742   6.084   4.609 -0.0275  0.4404 -0.1740
  808MOL0     C11376   5.891   6.079   4.624  0.0033  0.1461 -0.3594
  808MOL0     C11377   5.961   5.960   4.556  0.4092  0.2698  0.6913
  808MOL0     C11378   5.932   5.966   4.401  0.4737  0.1607 -0.5206
  808MOL0     C11379   5.999   5.853   4.348  0.8841 -1.1362  0.2391
  808MOL0     C11380   6.014   5.857   4.194 -0.1633 -0.0407  0.0188
  808MOL0     C11381   6.073   5.728   4.128  0.3016 -0.6452  0.0139
  808MOL0     C11382   5.959   5.636   4.069  0.1013  0.1494 -0.5822
  808MOL0     N11383   6.022   5.507   4.039 -0.5466 -0.1600  0.1571
  808MOL0     C11384   6.121   5.485   3.945 -0.0613 -0.3963 -0.2705
  808MOL0     C11385   6.147   5.347   3.937 -0.2360 -0.4667 -0.0635
  808MOL0     C11386   6.247   5.269   3.854  0.6725 -0.6152 -0.4914
  808MOL0     C11387   6.386   5.330   3.850 -1.2826 -0.0186 -0.0752
  808MOL0     C11388   6.469   5.326   3.976  1.1457 -0.2880  0.3745
  808MOL0     C11389   6.428   5.434   4.070  0.1667 -1.4746  0.9745
  808MOL0     O11390   6.436   5.566   4.002  0.4908  0.8237  0.7604
  808MOL0     C11391   6.429   5.687   4.065 -1.3070  0.1876  0.2073
  808MOL0     C11392   6.444   5.809   3.999 -0.4467  0.5726 -0.3238
  808MOL0     C11393   6.444   5.933   4.065 -0.7350 -0.6903 -0.2126
  808MOL0     C11394   6.473   6.057   3.981 -0.6355  0.2224 -0.4362
  808MOL0     C11395   6.421   5.945   4.206  0.4772  0.7623  0.4778
  808MOL0     C11396   6.424   6.067   4.292 -0.0737  0.7381  0.6403
  808MOL0     O11397   6.402   6.044   4.422 -0.0393 -0.5290 -0.3188
  808MOL0     C11398   6.366   6.156   4.501 -0.0957 -0.4048  0.0178
  808MOL0     C11399   6.242   6.212   4.486  0.3628 -0.7322  0.1207
  808MOL0     C11400   6.207   6.317   4.564  0.7728 -0.4480  0.0252
  808MOL0     C11401   6.281   6.368   4.673  0.6920 -0.2901 -0.4913
  808MOL0     O11402   6.241   6.474   4.752 -0.2611 -0.0695 -0.4872
  808MOL0     C11403   6.190   6.595   4.679  0.5013  0.5201 -0.1228
  808MOL0     C11404   6.232   6.717   4.759  0.2681  0.0555  0.2813
  808MOL0     C11405   6.172   6.718   4.906  0.0921  0.5624 -0.0409
  808MOL0     C11406   6.015   6.728   4.904  0.2199 -1.3442 -0.9273
  808MOL0     C11407   5.966   6.790   5.039 -1.1056  0.6892  0.6788
  808MOL0     C11408   5.819   6.783   5.062 -0.1506 -0.4793 -0.6994
  808MOL0     C11409   5.726   6.822   4.942  0.2828  0.8545 -0.9494
  808MOL0     C11410   5.581   6.799   4.998 -0.1942  0.8760  0.0722
  808MOL0    Cl11411   5.468   6.886   4.881 -0.0356 -0.2071 -0.2535
  808MOL0     C11412   6.402   6.307   4.694  0.8145  0.1949  0.5029
  808MOL0     C11413   6.450   6.211   4.603  0.8468  0.0401 -0.4363
  808MOL0     O11414   6.432   6.176   4.237  0.6787 -0.3414  0.4827
  808MOL0     C11415   6.397   5.818   4.264  0.6521 -0.4709 -0.8069
  808MOL0     C11416   6.400   5.699   4.197  0.9776 -0.2606 -0.2346
  808MOL0     N11417   6.055   5.288   4.024 -0.1401  0.1015 -0.4544
  808MOL0     N11418   5.982   5.377   4.074 -1.1873 -0.0005  0.2669
  808MOL0     C11419   5.485   6.066   4.713  0.2808  0.4111 -1.1366
  808MOL0     C11420   5.342   6.086   4.691  0.1120 -0.2507  0.4375
  808MOL0     C11421   4.927   6.024   4.528  0.0358 -0.4500 -0.3016
  808MOL0     C11422   4.937   6.068   4.391  0.3680  1.0694  0.5172
  808MOL0     C11423   4.825   6.072   4.311 -0.0000 -0.2041 -0.1057
  808MOL0     C11424   4.692   6.048   4.367 -0.5495 -0.3063  0.2150
  808MOL0     O11425   4.580   6.054   4.292 -0.6593 -0.0670 -0.5275
  808MOL0     C11426   4.593   6.092   4.150  0.3986  0.3793 -0.2707
  808MOL0     C11427   4.456   6.074   4.088  0.3120 -0.0072  1.2475
  808MOL0     C11428   4.362   6.191   4.142  0.2409 -0.6335 -1.0122
  808MOL0     C11429   4.222   6.185   4.082 -0.3805 -0.6896 -0.2629
  808MOL0     C11430   4.138   6.080   4.146  0.3958 -0.1781  0.2090
  808MOL0     C11431   4.063   5.987   4.169  0.5704 -0.1222  0.9918
  808MOL0     C11432   4.691   6.000   4.503  0.0143  0.7285  0.7773
  808MOL0     C11433   4.804   5.989   4.590  0.7340 -0.4733 -1.1029
  808MOL0     C11434   4.771   5.931   4.727  0.6852  0.4592 -0.0807
  808MOL0     H11435   5.298   5.863   4.438 -1.6792 -1.3215  2.3175
  808MOL0     H11436   5.550   5.852   4.458  0.0659 -0.8656  1.6685
  808MOL0     H11437   5.705   6.174   4.659 -3.7112 -0.4631 -0.9960
  808MOL0     H11438   5.714   6.107   4.506 -0.4499 -0.6465 -0.3134
  808MOL0     H11439   5.926   6.178   4.593 -0.7468  0.2217 -1.0043
  808MOL0     H11440   5.898   6.058   4.731 -2.9019 -0.6131 -0.2322
  808MOL0     H11441   6.066   5.983   4.577  0.2593  1.4323  0.2095
  808MOL0     H11442   5.932   5.859   4.587  0.0648 -0.6196 -2.2573
  808MOL0     H11443   5.828   5.952   4.370  0.7060  0.2928 -1.4063
  808MOL0     H11444   5.963   6.062   4.358  0.9186  0.5766  0.6867
  808MOL0     H11445   5.942   5.761   4.369  1.2517 -1.1214  1.3335
  808MOL0     H11446   6.096   5.842   4.397 -0.3567 -2.8198  2.5017
  808MOL0     H11447   5.910   5.876   4.163 -0.3701 -2.3865 -0.8986
  808MOL0     H11448   6.078   5.940   4.162 -0.1730  0.0841  0.3178
  808MOL0     H11449   6.126   5.661   4.197  0.3289 -2.3194 -1.5489
  808MOL0     H11450   6.136   5.757   4.044  3.4351 -0.2663  2.3338
  808MOL0     H11451   5.884   5.621   4.147  0.6870  0.6856  0.1075
  808MOL0     H11452   5.914   5.682   3.981  2.8102 -0.0951 -2.2404
  808MOL0     H11453   6.177   5.556   3.884 -0.0576  0.0654  0.2570
  808MOL0     H11454   6.208   5.260   3.752 -1.2526 -0.2441  0.1560
  808MOL0     H11455   6.246   5.164   3.884 -1.2339 -0.6218 -0.4454
  808MOL0     H11456   6.439   5.267   3.778  0.1671  2.1488 -1.0138
  808MOL0     H11457   6.390   5.428   3.803 -2.9025 -0.2021 -0.6661
  808MOL0     H11458   6.460   5.227   4.021  0.5567 -1.7717 -2.7352
  808MOL0     H11459   6.572   5.355   3.953  1.7430 -1.6416  1.1834
  808MOL0     H11460   6.326   5.418   4.106 -0.4929 -0.9512 -0.5696
  808MOL0     H11461   6.486   5.438   4.163  1.1006  0.8831  0.3672
  808MOL0     H11462   6.463   5.807   3.893  1.6863 -2.1349 -0.0073
  808MOL0     H11463   6.450   6.030   3.877 -0.7752  0.4583 -0.4688
  808MOL0     H11464   6.576   6.093   3.977 -0.8284  0.9246  0.4532
  808MOL0     H11465   6.407   6.141   4.005  1.5703  1.7343  0.7485
  808MOL0     H11466   6.164   6.179   4.418  0.4276 -0.0831 -0.2748
  808MOL0     H11467   6.107   6.355   4.544  0.0839 -1.7342  0.8975
  808MOL0     H11468   6.233   6.596   4.578  1.0728 -0.7980  0.0835
  808MOL0     H11469   6.082   6.591   4.662  0.7262  0.8182 -1.8903
  808MOL0     H11470   6.341   6.722   4.775  0.2738  3.9132  0.0698
  808MOL0     H11471   6.192   6.807   4.711  3.5286  0.2247 -2.5513
  808MOL0     H11472   6.200   6.814   4.953 -1.1853  0.9428 -0.0197
  808MOL0     H11473   6.206   6.628   4.958  1.2761  0.7213 -0.5143
  808MOL0     H11474   5.982   6.625   4.890  3.0292 -2.6155  0.7152
  808MOL0     H11475   5.991   6.792   4.819 -1.0762  0.4324  0.6949
  808MOL0     H11476   6.026   6.742   5.117 -0.0440 -2.8159 -1.9938
  808MOL0     H11477   5.988   6.897   5.032  2.7567  0.0179  0.3417
  808MOL0     H11478   5.804   6.867   5.130  1.5101 -0.1518 -0.6899
  808MOL0     H11479   5.800   6.684   5.106  5.1241 -1.1272  0.7942
  808MOL0     H11480   5.734   6.756   4.855  1.7692 -0.5009  0.1589
  808MOL0     H11481   5.753   6.924   4.913  4.9368 -0.2057 -1.2423
  808MOL0     H11482   5.577   6.834   5.102  0.6074 -0.9006  0.7389
  808MOL0     H11483   5.569   6.691   5.006  5.0635  0.1617  1.8935
  808MOL0     H11484   6.471   6.336   4.772  1.0886  0.1002  0.2975
  808MOL0     H11485   6.550   6.173   4.620  1.1541 -1.8541 -4.9577
  808MOL0     H11486   6.385   5.809   4.371  2.7564  0.5643 -0.4316
  808MOL0     H11487   6.372   5.610   4.253 -0.7296  0.2649 -0.2165
  808MOL0     H11488   5.516   6.119   4.803 -1.5461 -1.4667  0.6843
  808MOL0     H11489   5.279   6.153   4.748 -0.3228  0.8389 -1.2651
  808MOL0     H11490   5.028   6.096   4.340  0.4821 -0.9097 -0.4337
  808MOL0     H11491   4.832   6.116   4.213 -1.5760  0.4085  0.0217
  808MOL0     H11492   4.639   6.191   4.146 -0.0056  0.6234  0.8524
  808MOL0     H11493   4.663   6.022   4.104  0.0756  0.5018 -0.9681
  808MOL0     H11494   4.413   5.975   4.103  0.4651 -0.8644 -2.8798
  808MOL0     H11495   4.460   6.086   3.979  1.2878 -2.7234  0.9279
  808MOL0     H11496   4.362   6.191   4.251 -2.2146  1.3656 -0.9301
  808MOL0     H11497   4.408   6.286   4.115  1.9330 -0.8775  0.8441
  808MOL0     H11498   4.222   6.178   3.973 -1.8259  2.6257 -0.6003
  808MOL0     H11499   4.184   6.286   4.100  3.5024  1.6301 -3.5245
  808MOL0     H11500   4.009   5.896   4.183 -0.1086 -0.1573 -1.4366
  808MOL0     H11501   4.595   5.984   4.550  0.9746  0.8924  2.9069
  808MOL0     H11502   4.799   5.996   4.811  1.4038 -0.5794  0.5182
  808MOL0     H11503   4.669   5.905   4.753  1.3815 -2.6111 -0.0746
  808MOL0     H11504   4.829   5.839   4.741  2.8229  1.3679 -2.2693
  809MOL0     O11505   8.731   8.529   4.394  0.0609  0.0247  0.3686
  809MOL0     C11506   8.759   8.603   4.486  0.4148 -0.2585 -0.1703
  809MOL0     O11507   8.691   8.720   4.518 -0.6997 -0.3003 -0.3887
  809MOL0     C11508   8.564   8.748   4.474 -0.4081 -0.2097  0.4433
  809MOL0     C11509   8.457   8.661   4.491  0.5160 -0.9388  0.5866
  809MOL0     C11510   8.322   8.703   4.471 -0.5987  0.4658 -0.3965
  809MOL0     C11511   8.302   8.839   4.426 -0.5845  0.3611  0.0155
  809MOL0     O11512   8.181   8.887   4.390 -0.2238 -0.0498 -0.2211
  809MOL0     C11513   8.062   8.825   4.443  0.0904 -0.4037 -0.0293
  809MOL0     C11514   7.946   8.926   4.425 -1.2076  1.3189  0.6619
  809MOL0     C11515   7.819   8.848   4.466  0.2545  0.3625 -0.2016
  809MOL0     C11516   7.697   8.931   4.445  0.3235  0.2795  0.3096
  809MOL0     C11517   7.583   8.831   4.439  0.8477 -0.5757  0.4312
  809MOL0     C11518   7.447   8.912   4.452 -0.2075  0.2636  1.0987
  809MOL0     C11519   7.348   8.804   4.508  0.3033  0.6742  0.0849
  809MOL0     C11520   7.212   8.860   4.531  0.8455  1.6240  0.3377
  809MOL0     N11521   7.159   8.907   4.400 -0.4931  0.4529  0.0082
  809MOL0     C11522   7.128   8.821   4.297 -0.6703  0.8027  0.2295
  809MOL0     C11523   7.072   8.909   4.214  0.0223  0.7104  0.7969
  809MOL0     C11524   7.013   8.863   4.073 -0.1844 -0.6632 -0.4769
  809MOL0     C11525   6.863   8.889   4.057 -0.0656 -0.9292 -0.2336
  809MOL0     C11526   6.817   8.880   3.916  0.1065 -0.1845  0.7769
  809MOL0     C11527   6.662   8.853   3.904  0.0226 -0.2847 -0.7686
  809MOL0     O11528   6.618   8.869   3.764 -0.3428 -0.0337 -0.2800
  809MOL0     C11529   6.482   8.874   3.749  0.2588 -0.2687 -0.5987
  809MOL0     C11530   6.438   8.882   3.611  1.3033 -1.0372 -0.3646
  809MOL0     C11531   6.301   8.884   3.575  0.2325  0.5840  0.5090
  809MOL0     C11532   6.274   8.911   3.429 -0.0035  0.2859 -0.2716
  809MOL0     C11533   6.202   8.874   3.679 -1.0468 -0.1011 -0.9348
  809MOL0     C11534   6.053   8.875   3.662  1.1879  0.4140  0.1831
  809MOL0     O11535   5.963   8.905   3.765  0.0428  0.0775 -0.7483
  809MOL0     C11536   5.826   8.931   3.763 -0.6007  0.4513  0.4266
  809MOL0     C11537   5.730   8.863   3.682 -0.5855 -0.1583 -0.5158
  809MOL0     C11538   5.597   8.897   3.695  0.9541 -0.1209 -0.8076
  809MOL0     C11539   5.553   9.011   3.769 -0.4919 -0.0292  0.5698
  809MOL0     O11540   5.424   9.063   3.767 -0.1294  0.1285 -0.0825
  809MOL0     C11541   5.332   9.008   3.673 -0.6802 -0.1840  0.6997
  809MOL0     C11542   5.194   9.084   3.691 -0.7589 -0.6394 -1.0760
  809MOL0     C11543   5.180   9.188   3.582 -0.3123 -0.2288  0.7288
  809MOL0     C11544   5.049   9.248   3.591 -0.0778 -0.1087 -0.0341
  809MOL0     C11545   5.050   9.360   3.480  0.1406  0.4600  0.6384
  809MOL0     C11546   4.917   9.431   3.478  0.2650 -0.4326 -0.4054
  809MOL0     C11547   4.886   9.501   3.347 -0.1102 -0.5414 -0.0269
  809MOL0     C11548   4.803   9.405   3.269  0.1214  0.2970  0.8762
  809MOL0    Cl11549   4.646   9.370   3.346 -0.2767 -0.0018 -0.0360
  809MOL0     C11550   5.655   9.075   3.850  0.4350  0.0221 -0.1947
  809MOL0     C11551   5.780   9.033   3.848 -0.4207  0.0248 -0.5873
  809MOL0     O11552   6.005   8.847   3.549 -0.3305 -0.1449  0.4848
  809MOL0     C11553   6.243   8.864   3.819 -0.1441 -0.6174  0.1030
  809MOL0     C11554   6.378   8.870   3.851 -0.3738 -0.8008  0.1225
  809MOL0     N11555   7.077   9.036   4.265  0.2856 -0.0322 -0.5358
  809MOL0     N11556   7.123   9.029   4.387 -0.1653  0.4184 -0.7525
  809MOL0     C11557   8.414   8.918   4.403 -1.1895 -0.4131  0.3118
  809MOL0     C11558   8.547   8.875   4.419 -0.2472 -0.6228 -0.8842
  809MOL0     C11559   8.876   8.563   4.569 -0.2775  0.4446  0.0800
  809MOL0     C11560   8.883   8.617   4.699 -0.6047 -0.1039  1.2505
  809MOL0     C11561   8.991   8.576   4.785  0.0724  0.1979  0.3793
  809MOL0     C11562   9.081   8.473   4.749 -0.7033  0.1507 -0.2587
  809MOL0     O11563   9.166   8.423   4.848  0.3131  0.1569 -0.5463
  809MOL0     C11564   9.235   8.307   4.811 -0.1279  0.6509 -0.0217
  809MOL0     C11565   9.299   8.251   4.938  0.2270  0.0252  0.3271
  809MOL0     C11566   9.408   8.146   4.917 -0.1406  1.0556 -0.1936
  809MOL0     C11567   9.518   8.151   5.025  0.1036  0.3125 -0.4131
  809MOL0     C11568   9.482   8.201   5.161  0.2290  0.1540  0.7816
  809MOL0     C11569   9.436   8.238   5.264 -0.1838 -0.5054 -0.5074
  809MOL0     C11570   9.086   8.440   4.612  0.6821 -0.8413 -0.4649
  809MOL0     C11571   8.984   8.477   4.527  0.6966 -0.2632 -1.0403
  809MOL0     C11572   8.987   8.419   4.395 -0.9065 -0.2300 -0.2547
  809MOL0     H11573   8.463   8.563   4.538  0.3311 -2.9292 -3.1367
  809MOL0     H11574   8.235   8.641   4.492  1.5934 -3.2422 -1.3217
  809MOL0     H11575   8.074   8.804   4.550 -1.1213  1.8686  0.6266
  809MOL0     H11576   8.031   8.741   4.380 -0.6882  0.1338 -0.3819
  809MOL0     H11577   7.959   9.009   4.495  3.3486  0.9538  0.5513
  809MOL0     H11578   7.958   8.966   4.323  3.5170 -4.8538 -1.8480
  809MOL0     H11579   7.809   8.754   4.410 -1.2087  1.1112 -1.2669
  809MOL0     H11580   7.830   8.810   4.568  2.9877  0.6777 -0.2906
  809MOL0     H11581   7.683   9.001   4.528 -0.8460 -0.5279  0.8298
  809MOL0     H11582   7.695   8.986   4.350  1.1548  1.5654  1.0107
  809MOL0     H11583   7.583   8.761   4.524 -1.7552  0.2263  1.1815
  809MOL0     H11584   7.564   8.773   4.348 -1.3189  0.7436 -0.0155
  809MOL0     H11585   7.454   8.988   4.530 -0.0598  1.6590 -0.2204
  809MOL0     H11586   7.405   8.950   4.358  0.7881 -0.5531  0.2982
  809MOL0     H11587   7.376   8.745   4.596  0.3653  1.4320  0.5818
  809MOL0     H11588   7.328   8.733   4.428 -1.3619  4.3987 -3.1539
  809MOL0     H11589   7.145   8.787   4.578  0.5059  1.3965 -0.4870
  809MOL0     H11590   7.221   8.949   4.594  0.1747  1.5702  0.5170
  809MOL0     H11591   7.138   8.713   4.304 -0.1342  0.8331  0.0126
  809MOL0     H11592   7.032   8.755   4.066  1.3497 -0.5699  1.4537
  809MOL0     H11593   7.073   8.914   3.998 -1.6724  0.7924 -0.7361
  809MOL0     H11594   6.800   8.820   4.114  0.0738 -1.8452 -1.1553
  809MOL0     H11595   6.840   8.986   4.102  0.4062 -0.3218 -1.2608
  809MOL0     H11596   6.829   8.977   3.865 -2.0725 -0.3451 -0.1584
  809MOL0     H11597   6.875   8.806   3.861  1.8677  0.5174  1.6013
  809MOL0     H11598   6.637   8.757   3.950  0.0681 -0.1379 -0.4381
  809MOL0     H11599   6.614   8.934   3.959 -1.3245 -0.3725 -1.7483
  809MOL0     H11600   6.514   8.887   3.534 -0.6250  0.0700 -2.3301
  809MOL0     H11601   6.203   8.989   3.401  0.3481 -0.3705 -3.4868
  809MOL0     H11602   6.227   8.818   3.394  0.5895  0.9595 -3.1230
  809MOL0     H11603   6.370   8.924   3.378  1.0243 -2.2018  0.8828
  809MOL0     H11604   5.754   8.776   3.621  2.2749 -0.9386  1.5184
  809MOL0     H11605   5.529   8.829   3.644  1.1128 -0.6176 -0.3679
  809MOL0     H11606   5.369   9.014   3.570 -2.5888  0.9656  0.0265
  809MOL0     H11607   5.315   8.903   3.697 -1.9892  0.0202  0.7350
  809MOL0     H11608   5.116   9.008   3.689 -1.0351 -0.3775 -0.5227
  809MOL0     H11609   5.187   9.130   3.791  1.4082  0.0548 -1.1834
  809MOL0     H11610   5.192   9.140   3.485  0.7216  0.0550  0.7079
  809MOL0     H11611   5.261   9.257   3.604 -1.0722  0.9556 -0.0355
  809MOL0     H11612   5.032   9.290   3.690  3.9429  0.7858  0.4483
  809MOL0     H11613   4.971   9.174   3.573 -1.8858  1.6438  0.1591
  809MOL0     H11614   5.129   9.434   3.494  0.3750  0.3123  0.1315
  809MOL0     H11615   5.070   9.318   3.381 -0.3674  1.6287  0.0151
  809MOL0     H11616   4.918   9.511   3.553 -1.6968  0.3686 -1.1507
  809MOL0     H11617   4.840   9.361   3.511 -1.5443  0.4214 -2.5146
  809MOL0     H11618   4.987   9.519   3.311  0.0048  0.8692  0.9322
  809MOL0     H11619   4.828   9.593   3.358  0.5304 -0.1131 -0.1621
  809MOL0     H11620   4.850   9.309   3.249 -4.0450 -2.5765  3.3393
  809MOL0     H11621   4.790   9.450   3.170 -0.5883  0.8320  1.1980
  809MOL0     H11622   5.643   9.172   3.897  0.5083  0.3956 -0.9304
  809MOL0     H11623   5.846   9.084   3.917 -0.8902 -1.4481  1.0310
  809MOL0     H11624   6.164   8.849   3.892 -0.9509 -0.7179 -0.7691
  809MOL0     H11625   6.402   8.864   3.957  0.5405  1.2358  0.0866
  809MOL0     H11626   8.389   9.020   4.373  0.1701 -0.0704  0.2903
  809MOL0     H11627   8.634   8.940   4.419 -0.2885 -0.0647  4.4801
  809MOL0     H11628   8.810   8.692   4.727 -0.6100  0.1851  0.4893
  809MOL0     H11629   9.008   8.619   4.883  0.7487 -0.3728  0.5174
  809MOL0     H11630   9.190   8.234   4.744  1.8440 -0.2289 -0.4663
  809MOL0     H11631   9.314   8.351   4.749 -1.4001  1.4953 -1.0964
  809MOL0     H11632   9.224   8.213   5.007 -1.4878 -0.8290 -1.8897
  809MOL0     H11633   9.344   8.339   4.985  0.7100 -0.8140  1.4856
  809MOL0     H11634   9.363   8.047   4.927  3.2634 -0.8072 -1.6523
  809MOL0     H11635   9.447   8.164   4.816 -0.8718  2.2386 -0.2818
  809MOL0     H11636   9.597   8.220   4.994  0.6324 -0.6950 -1.3393
  809MOL0     H11637   9.557   8.049   5.035  0.8470  0.4897 -1.4396
  809MOL0     H11638   9.386   8.267   5.355  2.3497  0.9151  0.5261
  809MOL0     H11639   9.168   8.373   4.589 -0.6132 -2.3106 -1.0095
  809MOL0     H11640   9.089   8.388   4.368  0.7742  4.8668 -0.9970
  809MOL0     H11641   8.905   8.347   4.390 -1.6111  0.5874 -0.7993
  809MOL0     H11642   8.978   8.499   4.320  1.1307  1.1346  0.8653
  810MOL0     O11643  10.172   7.045   6.521  0.0629  0.6932  0.5430
  810MOL0     C11644  10.161   6.922   6.541  0.1936 -0.2348 -0.1449
  810MOL0     O11645  10.241   6.822   6.490  0.3467  0.1715 -0.2790
  810MOL0     C11646  10.334   6.853   6.394  0.0271 -0.4572  0.0855
  810MOL0     C11647  10.292   6.893   6.270 -0.0866  0.5174 -0.0376
  810MOL0     C11648  10.383   6.946   6.182  0.1775 -0.3197 -0.2215
  810MOL0     C11649  10.520   6.942   6.202  0.2790 -0.1465  0.2585
  810MOL0     O11650  10.621   6.979   6.118 -0.1622  0.3445 -0.4288
  810MOL0     C11651  10.597   6.968   5.978  0.7570  0.2227  0.0906
  810MOL0     C11652  10.736   6.978   5.909  0.0290 -0.4645 -0.1376
  810MOL0     C11653  10.829   6.865   5.941  1.0675 -0.3097 -0.0671
  810MOL0     C11654  10.965   6.884   5.896 -0.4351 -0.4491  0.0901
  810MOL0     C11655  11.048   6.760   5.920  1.5200  1.3920 -0.0855
  810MOL0     C11656  11.186   6.747   5.862  0.5644 -0.6266  0.8845
  810MOL0     C11657  11.191   6.764   5.711 -0.4823  0.1634 -0.4684
  810MOL0     C11658  11.331   6.732   5.656  0.7811 -0.0072  0.0112
  810MOL0     N11659  11.349   6.763   5.513  0.7554  0.6625  0.1148
  810MOL0     C11660  11.342   6.669   5.418  0.4773  0.2849  0.6392
  810MOL0     C11661  11.387   6.730   5.303  0.4496  0.1792  0.0986
  810MOL0     C11662  11.386   6.685   5.157  0.6214  0.0413  0.3550
  810MOL0     C11663  11.503   6.575   5.145  0.6082  0.1230 -0.3750
  810MOL0     C11664  11.642   6.629   5.154  0.3139  0.3546 -0.3393
  810MOL0     C11665  11.750   6.522   5.145  0.4109 -0.3123 -0.3558
  810MOL0     O11666  11.712   6.407   5.223  0.5875  0.2983  0.9606
  810MOL0     C11667  11.812   6.312   5.229  0.0032 -0.4370  0.3606
  810MOL0     C11668  11.804   6.217   5.333  0.4842 -0.3078  0.0543
  810MOL0     C11669  11.895   6.114   5.354 -0.8863 -0.0828  0.3275
  810MOL0     C11670  11.865   6.008   5.456  0.4746  1.7420  0.1566
  810MOL0     C11671  12.011   6.112   5.270 -0.6082 -0.0979 -0.5171
  810MOL0     C11672  12.121   6.016   5.293  0.6326 -0.4895 -0.1224
  810MOL0     O11673  12.232   6.050   5.231  0.9605  0.1985  0.5385
  810MOL0     C11674  12.311   5.956   5.171  0.3516 -0.9339 -0.6428
  810MOL0     C11675  12.260   5.847   5.100  0.5665  0.2100 -0.2181
  810MOL0     C11676  12.337   5.769   5.020  0.3268 -0.0538 -0.7036
  810MOL0     C11677  12.475   5.775   5.018  0.7195 -0.0543  0.3271
  810MOL0     O11678  12.561   5.705   4.937 -0.6617  0.0400 -0.1666
  810MOL0     C11679  12.512   5.625   4.832 -0.1548 -0.5867  0.9521
  810MOL0     C11680  12.629   5.555   4.758  0.0478  0.1681 -0.3136
  810MOL0     C11681  12.709   5.466   4.848  0.2433 -0.6828 -0.4539
  810MOL0     C11682  12.777   5.358   4.752 -0.1427 -0.6136  0.7818
  810MOL0     C11683  12.880   5.275   4.830 -0.7060 -0.4344  0.0001
  810MOL0     C11684  12.914   5.148   4.738 -0.5718 -0.2270 -0.2351
  810MOL0     C11685  12.983   5.037   4.821  0.2860 -0.8045  0.5826
  810MOL0     C11686  13.061   4.932   4.736  0.2953 -0.0422  0.7010
  810MOL0    Cl11687  12.931   4.846   4.645 -0.0627 -0.3909 -0.6583
  810MOL0     C11688  12.525   5.880   5.096  0.0434 -0.0040 -0.1761
  810MOL0     C11689  12.447   5.970   5.169  1.4065  0.1662 -0.2108
  810MOL0     O11690  12.101   5.908   5.345  0.0752 -0.2081 -0.2349
  810MOL0     C11691  12.023   6.202   5.167  0.1837 -1.3769  0.3774
  810MOL0     C11692  11.926   6.299   5.147  0.1357 -0.7684  0.3055
  810MOL0     N11693  11.418   6.854   5.329 -0.4153 -0.6124 -0.4459
  810MOL0     N11694  11.386   6.877   5.449 -0.9957  0.7470 -0.5270
  810MOL0     C11695  10.564   6.894   6.329 -0.3621 -0.5805  0.8395
  810MOL0     C11696  10.470   6.852   6.422 -0.1197 -0.3596 -0.5541
  810MOL0     C11697  10.041   6.873   6.624  1.1583  0.0249 -0.3371
  810MOL0     C11698  10.032   6.728   6.647  0.1865  0.0277 -0.0758
  810MOL0     C11699   9.919   6.674   6.704 -0.1749 -0.4241 -0.4666
  810MOL0     C11700   9.821   6.757   6.767 -0.0300  0.0628 -0.3628
  810MOL0     O11701   9.728   6.708   6.857 -0.5293 -0.5832  0.4761
  810MOL0     C11702   9.685   6.572   6.846 -0.4094 -0.4469 -0.1802
  810MOL0     C11703   9.597   6.551   6.954 -0.4798  0.1005 -0.3517
  810MOL0     C11704   9.470   6.634   6.943  0.0680 -0.0914  0.3291
  810MOL0     C11705   9.390   6.629   7.074 -0.0716  0.2353  0.0527
  810MOL0     C11706   9.257   6.692   7.043  0.0576  0.1737  0.4248
  810MOL0     C11707   9.161   6.751   7.010  0.5751 -0.3993  0.7968
  810MOL0     C11708   9.829   6.888   6.745 -0.4152 -0.4551 -0.1455
  810MOL0     C11709   9.934   6.954   6.684  0.2909 -0.1317  0.6434
  810MOL0     C11710   9.937   7.106   6.671 -0.1185  0.3637 -0.7517
  810MOL0     H11711  10.184   6.895   6.256  0.0354 -1.1520 -1.4626
  810MOL0     H11712  10.350   6.986   6.087 -0.7578  0.0118  0.2299
  810MOL0     H11713  10.546   7.058   5.942  1.8758  0.4688 -0.9601
  810MOL0     H11714  10.544   6.878   5.945  0.5015 -0.6221  2.5999
  810MOL0     H11715  10.722   6.976   5.800 -2.4959 -3.2558  0.0992
  810MOL0     H11716  10.774   7.077   5.935 -0.2459 -0.6767  1.1665
  810MOL0     H11717  10.827   6.853   6.050  0.3466 -0.5090 -0.0928
  810MOL0     H11718  10.782   6.774   5.901  1.7484 -0.0765 -1.4606
  810MOL0     H11719  10.971   6.900   5.788 -2.7264  1.5218  0.1545
  810MOL0     H11720  11.005   6.970   5.949  1.7675 -0.9122 -0.7182
  810MOL0     H11721  10.999   6.669   5.884  1.1039  1.1216  1.1006
  810MOL0     H11722  11.055   6.739   6.028 -4.5734  0.4578  0.5073
  810MOL0     H11723  11.253   6.819   5.909  2.6719 -2.1121  0.2860
  810MOL0     H11724  11.223   6.647   5.886 -1.6873 -2.4334 -2.4178
  810MOL0     H11725  11.166   6.870   5.700  1.0181  0.5902 -0.0202
  810MOL0     H11726  11.121   6.700   5.657 -0.3946 -1.1101  0.8736
  810MOL0     H11727  11.395   6.804   5.708 -0.6956  1.6306 -0.3369
  810MOL0     H11728  11.355   6.629   5.682 -1.1407  0.2128  3.1141
  810MOL0     H11729  11.320   6.563   5.427  0.9962  0.1999  0.9845
  810MOL0     H11730  11.410   6.776   5.102  1.2605  0.8989  1.9888
  810MOL0     H11731  11.292   6.647   5.115  0.7373  0.7836 -0.6156
  810MOL0     H11732  11.479   6.494   5.215 -0.7152  2.7381  2.4178
  810MOL0     H11733  11.495   6.531   5.045  0.4601  0.2975 -0.4405
  810MOL0     H11734  11.653   6.709   5.080  0.4373  0.1227 -0.5732
  810MOL0     H11735  11.655   6.677   5.251  0.9638  1.4967 -0.9654
  810MOL0     H11736  11.773   6.502   5.040 -0.0766 -0.2310 -0.4800
  810MOL0     H11737  11.843   6.560   5.188  1.0525 -2.1210 -0.0521
  810MOL0     H11738  11.725   6.246   5.401  0.8471  0.9499 -0.0369
  810MOL0     H11739  11.951   6.001   5.522  2.2943 -2.7606 -2.2113
  810MOL0     H11740  11.826   5.915   5.413 -1.6119  2.8116 -0.4109
  810MOL0     H11741  11.781   6.042   5.518  0.1416  0.6861  0.3083
  810MOL0     H11742  12.152   5.842   5.104  0.5359  0.8610 -0.0264
  810MOL0     H11743  12.305   5.688   4.956 -0.1277 -0.4763  0.0436
  810MOL0     H11744  12.447   5.545   4.869  0.0260 -1.1574  0.0603
  810MOL0     H11745  12.461   5.679   4.751  0.7479  0.7333  1.2392
  810MOL0     H11746  12.595   5.502   4.669  0.0008  1.3454 -1.0253
  810MOL0     H11747  12.696   5.631   4.717  0.9890 -1.0392 -1.0565
  810MOL0     H11748  12.660   5.411   4.929 -1.1545 -0.2072 -0.9568
  810MOL0     H11749  12.796   5.523   4.885 -0.2609 -0.4804  0.4601
  810MOL0     H11750  12.833   5.402   4.670 -1.3756 -0.2975  0.0848
  810MOL0     H11751  12.703   5.288   4.714  0.5294 -1.3085  0.7426
  810MOL0     H11752  12.973   5.329   4.850 -1.9543  1.5210  0.8156
  810MOL0     H11753  12.839   5.238   4.924 -0.6240 -0.7302 -0.0795
  810MOL0     H11754  12.980   5.183   4.659  0.1886  2.2014  1.3525
  810MOL0     H11755  12.818   5.113   4.699  0.0399 -3.5122  0.8174
  810MOL0     H11756  12.906   4.982   4.877 -1.2286 -0.0288 -0.6464
  810MOL0     H11757  13.054   5.096   4.879  0.4201  1.5040 -1.7354
  810MOL0     H11758  13.122   4.865   4.797  1.8480 -1.4211 -2.1939
  810MOL0     H11759  13.135   4.985   4.675  0.3444  1.2992  1.8851
  810MOL0     H11760  12.633   5.888   5.098  0.3552 -3.3094  1.9066
  810MOL0     H11761  12.492   6.047   5.231 -1.0738  1.9131 -0.4574
  810MOL0     H11762  12.103   6.189   5.095 -0.0614  2.1437 -0.7321
  810MOL0     H11763  11.927   6.365   5.061 -0.4129  1.7512  2.1561
  810MOL0     H11764  10.672   6.895   6.338 -0.2138 -2.3399 -0.2996
  810MOL0     H11765  10.510   6.806   6.512  0.1136 -0.4310 -0.6929
  810MOL0     H11766  10.118   6.670   6.619  1.3433 -0.0316  3.1583
  810MOL0     H11767   9.908   6.567   6.716 -1.1519 -0.3386 -0.5091
  810MOL0     H11768   9.628   6.567   6.753 -1.2311  0.8841  0.2165
  810MOL0     H11769   9.768   6.501   6.848  0.0411  0.0775 -0.1146
  810MOL0     H11770   9.651   6.569   7.047 -1.7790  0.4634  0.3668
  810MOL0     H11771   9.575   6.443   6.949  1.2135 -0.2101 -3.0983
  810MOL0     H11772   9.498   6.739   6.934 -1.7336  0.4344  0.5640
  810MOL0     H11773   9.401   6.610   6.861 -2.0489 -4.6856  3.0776
  810MOL0     H11774   9.449   6.684   7.148 -0.1686  1.5425 -0.8096
  810MOL0     H11775   9.373   6.525   7.105 -0.5378  0.0875 -0.6591
  810MOL0     H11776   9.070   6.808   7.002 -1.3347 -3.4557 -1.4663
  810MOL0     H11777   9.752   6.952   6.788 -1.5568 -1.0356 -1.2342
  810MOL0     H11778   9.920   7.151   6.573 -0.4129 -1.2204 -1.4716
  810MOL0     H11779   9.854   7.144   6.731 -1.1321  0.1773 -1.9953
  810MOL0     H11780  10.026   7.145   6.720 -0.2796 -1.4552  1.1634
  811MOL0     O11781   5.126   8.973   6.142  0.1397  0.1025  0.1657
  811MOL0     C11782   5.104   9.086   6.177  0.9446 -0.2450  0.1945
  811MOL0     O11783   5.025   9.117   6.287 -0.4020 -0.8537  0.8003
  811MOL0     C11784   4.984   9.034   6.386 -0.7897 -0.2298  0.2121
  811MOL0     C11785   4.882   9.080   6.475  0.2623  0.3605 -0.0607
  811MOL0     C11786   4.856   9.002   6.598  0.7326  0.7284  0.0336
  811MOL0     C11787   4.934   8.889   6.628 -0.2796  0.3294 -0.3416
  811MOL0     O11788   4.897   8.820   6.739  0.4434  0.9265  0.8260
  811MOL0     C11789   4.992   8.780   6.829 -0.4830  1.1555  0.2495
  811MOL0     C11790   4.938   8.780   6.968 -0.7167  0.5243  0.4793
  811MOL0     C11791   5.041   8.731   7.064  0.1390 -0.2171  0.0472
  811MOL0     C11792   5.071   8.580   7.078 -0.6014  1.0748  0.0520
  811MOL0     C11793   5.178   8.552   7.191 -0.2369  0.0397 -0.2535
  811MOL0     C11794   5.328   8.573   7.156  1.0366  0.2054  0.2431
  811MOL0     C11795   5.372   8.511   7.025  0.4244  0.6922 -0.0524
  811MOL0     C11796   5.524   8.529   7.013  0.2486 -1.0745  0.1407
  811MOL0     N11797   5.582   8.438   7.111 -0.5465 -0.2461 -0.3163
  811MOL0     C11798   5.619   8.304   7.087 -0.6092 -0.3868 -0.0800
  811MOL0     C11799   5.691   8.281   7.203 -0.4017  0.4831  0.3911
  811MOL0     C11800   5.770   8.157   7.215 -0.1430 -0.7334 -0.9901
  811MOL0     C11801   5.912   8.189   7.258 -0.0249  0.2968 -0.5904
  811MOL0     C11802   6.002   8.066   7.306 -0.0142  0.2908 -0.7394
  811MOL0     C11803   6.141   8.102   7.368 -0.1420 -0.5259  0.6785
  811MOL0     O11804   6.201   7.986   7.408  0.7645 -0.0324 -1.0132
  811MOL0     C11805   6.304   8.003   7.497  0.4034 -0.7627 -0.7304
  811MOL0     C11806   6.419   8.073   7.463  0.4043  0.7298  0.3734
  811MOL0     C11807   6.531   8.072   7.551 -0.4342 -0.4178  0.3572
  811MOL0     C11808   6.662   8.137   7.511  0.3084 -0.1691  0.1416
  811MOL0     C11809   6.522   8.008   7.677 -0.6984  0.5301  0.4000
  811MOL0     C11810   6.625   8.016   7.776  0.5269  0.2615  0.6569
  811MOL0     O11811   6.647   7.903   7.840 -0.4602 -0.2354  0.1415
  811MOL0     C11812   6.733   7.892   7.947 -0.0520  0.7147  0.3501
  811MOL0     C11813   6.684   7.921   8.077  0.0283  0.4189  0.9491
  811MOL0     C11814   6.761   7.891   8.192 -0.0774  0.4883  0.2312
  811MOL0     C11815   6.900   7.865   8.170 -0.3400  0.8512  0.9761
  811MOL0     O11816   6.994   7.844   8.267  0.0464 -0.9384 -0.0723
  811MOL0     C11817   6.952   7.819   8.403 -0.6792 -0.1785  0.2645
  811MOL0     C11818   6.894   7.676   8.421  0.1223 -0.1643  0.4322
  811MOL0     C11819   6.996   7.562   8.390  0.2602 -0.5911 -0.5673
  811MOL0     C11820   6.922   7.438   8.443 -0.1552 -0.9486 -0.4125
  811MOL0     C11821   6.997   7.295   8.442 -0.2368 -0.6207  0.6719
  811MOL0     C11822   6.893   7.179   8.468  0.6705 -0.3799  0.3647
  811MOL0     C11823   6.846   7.176   8.616 -0.1305  0.6003  0.3738
  811MOL0     C11824   6.940   7.100   8.708  0.0275 -0.2239  0.2896
  811MOL0    Cl11825   6.912   6.932   8.703 -0.3140  0.4636 -0.0234
  811MOL0     C11826   6.946   7.847   8.043 -0.6088 -0.0287  1.1310
  811MOL0     C11827   6.872   7.864   7.929  0.1542  0.0875 -0.5777
  811MOL0     O11828   6.685   8.123   7.797 -0.4291  0.0831  0.4391
  811MOL0     C11829   6.409   7.926   7.697  0.5394 -0.8177 -0.7205
  811MOL0     C11830   6.300   7.929   7.614 -0.6869  0.5806 -0.3705
  811MOL0     N11831   5.694   8.399   7.286 -0.7484 -0.7269 -0.6394
  811MOL0     N11832   5.631   8.494   7.233  0.6114  0.8306  1.1081
  811MOL0     C11833   5.044   8.856   6.543  0.8245  0.0690 -0.7298
  811MOL0     C11834   5.063   8.926   6.426  0.3996 -0.1312  0.5075
  811MOL0     C11835   5.161   9.195   6.094 -0.4629  0.1149 -0.0098
  811MOL0     C11836   5.122   9.327   6.135  0.4107  0.7956  0.5505
  811MOL0     C11837   5.162   9.431   6.050 -0.2108  0.1208  0.2309
  811MOL0     C11838   5.247   9.422   5.948 -0.2959  0.4178  0.2716
  811MOL0     O11839   5.295   9.536   5.890  0.2920 -0.6153  0.3201
  811MOL0     C11840   5.433   9.539   5.866  0.1202 -0.6344 -0.1303
  811MOL0     C11841   5.466   9.506   5.719 -0.9155 -0.2591 -0.4543
  811MOL0     C11842   5.610   9.521   5.682  0.5977  0.0242 -0.2770
  811MOL0     C11843   5.697   9.392   5.704 -0.6760  0.0270  0.4757
  811MOL0     C11844   5.650   9.285   5.616  0.6296  0.3751 -0.3495
  811MOL0     C11845   5.611   9.191   5.551 -0.2379  0.2299  0.9420
  811MOL0     C11846   5.287   9.292   5.910 -0.6382 -0.2394  0.3190
  811MOL0     C11847   5.248   9.178   5.989  0.2380 -0.0536  0.4432
  811MOL0     C11848   5.304   9.054   5.946 -0.2898  0.1542  1.1938
  811MOL0     H11849   4.830   9.169   6.441  0.3990 -0.0284 -1.3470
  811MOL0     H11850   4.773   9.025   6.664 -2.1344  0.5588 -3.2154
  811MOL0     H11851   5.083   8.842   6.823  0.4000  0.0193  1.3638
  811MOL0     H11852   5.026   8.681   6.797 -1.5090  1.3427 -1.5414
  811MOL0     H11853   4.915   8.886   6.981 -0.3441  0.5038  1.3626
  811MOL0     H11854   4.847   8.723   6.989 -0.9803  1.4281  1.9321
  811MOL0     H11855   5.138   8.777   7.043 -1.4945  3.5876 -0.0766
  811MOL0     H11856   5.013   8.767   7.164  1.8111  0.1023  0.4383
  811MOL0     H11857   4.979   8.526   7.102  1.5389 -2.8627  0.2878
  811MOL0     H11858   5.109   8.534   6.986  2.1134  0.5649  1.3435
  811MOL0     H11859   5.164   8.446   7.216  2.2666 -0.7059 -1.5889
  811MOL0     H11860   5.162   8.611   7.282  1.9217  2.1531 -1.1366
  811MOL0     H11861   5.326   8.683   7.159 -1.5278  0.2965 -1.6147
  811MOL0     H11862   5.390   8.531   7.236 -2.1282 -0.4544  2.5413
  811MOL0     H11863   5.317   8.550   6.938 -0.3043  1.0087  0.5327
  811MOL0     H11864   5.351   8.404   7.032 -2.3636  1.1386 -0.4238
  811MOL0     H11865   5.552   8.499   6.911 -0.5968  0.1941 -0.4912
  811MOL0     H11866   5.561   8.631   7.019 -2.5996  0.0965 -0.6562
  811MOL0     H11867   5.602   8.237   7.004 -0.0851 -1.7519  0.8864
  811MOL0     H11868   5.760   8.104   7.119 -3.8731  2.2923 -2.5117
  811MOL0     H11869   5.716   8.096   7.288 -4.5423  0.1524 -3.1510
  811MOL0     H11870   5.968   8.242   7.180  0.2952  0.2048 -0.4257
  811MOL0     H11871   5.910   8.248   7.350  1.5100 -1.0051  0.3513
  811MOL0     H11872   5.948   8.007   7.380  3.2713 -0.5301  1.2031
  811MOL0     H11873   6.016   8.000   7.220 -2.2289  0.8847 -1.6200
  811MOL0     H11874   6.203   8.156   7.296  0.3642 -0.7555  0.9398
  811MOL0     H11875   6.121   8.165   7.455 -1.1610  1.2865 -0.7972
  811MOL0     H11876   6.430   8.116   7.364  0.8573  1.8954  0.9136
  811MOL0     H11877   6.654   8.154   7.403 -1.6224  0.2095  0.3159
  811MOL0     H11878   6.751   8.081   7.541 -0.9369 -0.7476  3.0380
  811MOL0     H11879   6.677   8.234   7.558  0.6341 -0.8326  1.4657
  811MOL0     H11880   6.579   7.948   8.090 -0.2627  0.4079 -1.0026
  811MOL0     H11881   6.727   7.913   8.292  3.9191 -1.1220  2.1550
  811MOL0     H11882   7.042   7.827   8.465  0.2734 -1.0692 -0.9282
  811MOL0     H11883   6.880   7.897   8.428 -1.6667  0.2881 -3.4191
  811MOL0     H11884   6.862   7.673   8.526 -2.7329  1.3014 -0.2992
  811MOL0     H11885   6.807   7.670   8.354  1.0508  2.4297 -1.1356
  811MOL0     H11886   7.082   7.563   8.457 -0.9533 -1.2899  1.0752
  811MOL0     H11887   7.025   7.548   8.286  0.1382  1.8266 -0.9894
  811MOL0     H11888   6.835   7.417   8.380  0.4592  1.3589 -2.1982
  811MOL0     H11889   6.899   7.453   8.548  1.8503 -0.1829 -0.0305
  811MOL0     H11890   7.043   7.285   8.343 -3.8658  1.3154 -1.4273
  811MOL0     H11891   7.072   7.300   8.521 -0.3725  1.2864  0.7313
  811MOL0     H11892   6.930   7.082   8.434 -0.3654 -0.2490 -1.2097
  811MOL0     H11893   6.805   7.185   8.403  0.5201 -0.5193  0.5527
  811MOL0     H11894   6.750   7.125   8.619  0.5854 -0.8273 -0.0282
  811MOL0     H11895   6.825   7.278   8.650  0.6524  0.4204  1.4433
  811MOL0     H11896   6.929   7.122   8.815 -0.7544 -1.4064  0.4634
  811MOL0     H11897   7.040   7.128   8.674  0.4410  0.3602  1.8605
  811MOL0     H11898   7.053   7.832   8.037 -0.1244  2.6333  2.0949
  811MOL0     H11899   6.917   7.850   7.831  0.7976 -0.9773 -0.1478
  811MOL0     H11900   6.390   7.863   7.783 -3.1453  2.9203  1.5729
  811MOL0     H11901   6.213   7.867   7.636 -2.5998  2.6567 -1.6672
  811MOL0     H11902   5.113   8.774   6.565 -0.3697 -0.4559  1.3786
  811MOL0     H11903   5.148   8.906   6.361  0.2046  2.5612 -0.6929
  811MOL0     H11904   5.045   9.343   6.210 -2.1935 -2.2202 -1.2194
  811MOL0     H11905   5.135   9.531   6.083 -1.6518 -0.3732  0.6448
  811MOL0     H11906   5.464   9.642   5.887  1.2474 -0.5536 -1.9395
  811MOL0     H11907   5.489   9.473   5.932  1.8369 -0.1125 -1.0091
  811MOL0     H11908   5.404   9.580   5.667 -0.3644  0.1014 -0.6063
  811MOL0     H11909   5.419   9.410   5.696 -1.6703 -0.9235  3.2210
  811MOL0     H11910   5.610   9.553   5.578 -4.0560  1.3176 -0.1418
  811MOL0     H11911   5.651   9.606   5.738  2.2327  1.8133 -3.8695
  811MOL0     H11912   5.689   9.359   5.808 -2.1011 -1.2252  0.0081
  811MOL0     H11913   5.798   9.423   5.674 -1.9595  2.8968 -1.3263
  811MOL0     H11914   5.567   9.117   5.487 -0.2725  2.3277 -1.6500
  811MOL0     H11915   5.355   9.280   5.825 -2.1631 -0.5516 -0.9154
  811MOL0     H11916   5.222   8.988   5.915  2.8047 -3.1529 -0.6237
  811MOL0     H11917   5.373   9.068   5.862  1.0448 -0.4337  2.1581
  811MOL0     H11918   5.365   9.014   6.027  0.8052 -0.1654  0.2268
  812MOL0     O11919   0.282   0.617   9.719  0.4587 -0.0786  0.5808
  812MOL0     C11920   0.350   0.650   9.813 -1.0895  0.6325  0.1363
  812MOL0     O11921   0.490   0.656   9.808 -0.5270 -1.2337 -0.4641
  812MOL0     C11922   0.565   0.623   9.704 -0.1153  0.0043  0.0732
  812MOL0     C11923   0.664   0.716   9.667  0.5504  0.0981 -0.7174
  812MOL0     C11924   0.746   0.689   9.555 -0.2071 -0.0682  0.2772
  812MOL0     C11925   0.732   0.564   9.494  0.2158  0.5024  0.1416
  812MOL0     O11926   0.822   0.555   9.390 -0.4273 -0.1147  0.7965
  812MOL0     C11927   0.816   0.437   9.304 -0.1020 -0.0870 -0.3470
  812MOL0     C11928   0.931   0.437   9.200 -0.2702 -0.2680 -0.0756
  812MOL0     C11929   0.938   0.300   9.130  0.3340 -0.2689 -1.2033
  812MOL0     C11930   1.036   0.296   9.012 -0.0430  0.9085  0.1951
  812MOL0     C11931   1.011   0.160   8.928  0.3528 -0.6951 -0.4122
  812MOL0     C11932   1.090   0.043   8.984  0.6573 -0.9531  0.0253
  812MOL0     C11933   1.245   0.030   8.958 -0.2009  0.5202 -0.4417
  812MOL0     C11934   1.307  -0.069   9.056 -0.0204  0.6169 -0.1275
  812MOL0     N11935   1.454  -0.058   9.068 -0.8258 -0.3190 -0.4183
  812MOL0     C11936   1.536  -0.100   8.970 -1.0928  0.5638  0.3697
  812MOL0     C11937   1.649  -0.045   9.010 -0.0763 -0.1822  0.1531
  812MOL0     C11938   1.781  -0.060   8.928  0.3793 -0.5888 -0.2923
  812MOL0     C11939   1.903  -0.005   9.004  0.8650 -0.2453 -0.0167
  812MOL0     C11940   1.965  -0.107   9.113  0.0350 -0.9671  0.0529
  812MOL0     C11941   2.005  -0.233   9.043  0.4357  0.2147  0.5703
  812MOL0     O11942   1.962  -0.343   9.121 -0.4027  0.3713  0.1228
  812MOL0     C11943   1.836  -0.385   9.098  0.4725  0.0110 -0.0176
  812MOL0     C11944   1.817  -0.490   9.004  0.0515 -0.1362  0.4484
  812MOL0     C11945   1.692  -0.543   8.978  0.7840 -0.8198 -1.0055
  812MOL0     C11946   1.680  -0.648   8.880  0.1850  0.1227 -0.5420
  812MOL0     C11947   1.581  -0.490   9.054 -0.5104 -0.7736  0.0818
  812MOL0     C11948   1.436  -0.533   9.040 -0.4244 -0.0636  0.8575
  812MOL0     O11949   1.339  -0.432   9.052  0.0140 -0.1218  0.3904
  812MOL0     C11950   1.205  -0.463   9.038 -0.1227  0.9597 -0.6671
  812MOL0     C11951   1.127  -0.413   8.938 -0.3317 -0.2839 -0.5226
  812MOL0     C11952   0.996  -0.464   8.918  0.8203  0.3254 -0.0291
  812MOL0     C11953   0.939  -0.554   9.006 -0.1962  0.1109 -0.0388
  812MOL0     O11954   0.815  -0.612   9.007 -0.3266 -0.6359  0.2015
  812MOL0     C11955   0.720  -0.582   8.907 -0.1154  0.6401 -0.2911
  812MOL0     C11956   0.586  -0.656   8.929 -0.8611  0.7613  0.1498
  812MOL0     C11957   0.517  -0.638   9.058  0.4050  0.2163 -0.1890
  812MOL0     C11958   0.385  -0.725   9.050  0.0691 -0.5418 -0.7282
  812MOL0     C11959   0.293  -0.696   9.171  0.3148 -0.4738 -0.9667
  812MOL0     C11960   0.182  -0.794   9.193 -0.4176  0.7884  0.3160
  812MOL0     C11961   0.087  -0.758   9.300  0.6306 -0.0970 -0.2113
  812MOL0     C11962  -0.021  -0.656   9.243  0.3186  0.3693 -0.2770
  812MOL0    Cl11963  -0.156  -0.669   9.345 -0.2937  0.1944 -0.1639
  812MOL0     C11964   1.020  -0.598   9.112  0.1013 -0.1648  0.1277
  812MOL0     C11965   1.152  -0.557   9.127 -0.2610  0.7304  0.6722
  812MOL0     O11966   1.414  -0.647   9.000 -0.8395  0.0927 -0.5571
  812MOL0     C11967   1.595  -0.388   9.148 -0.9314  1.3534 -0.2532
  812MOL0     C11968   1.722  -0.329   9.167 -0.6273  0.7893  0.8394
  812MOL0     N11969   1.636   0.031   9.127 -0.4341  0.0390 -0.4388
  812MOL0     N11970   1.512   0.023   9.160  0.4530 -0.2457  0.1984
  812MOL0     C11971   0.631   0.473   9.528 -0.3522  0.2827 -0.1493
  812MOL0     C11972   0.552   0.508   9.634  0.0638  0.2458  0.6875
  812MOL0     C11973   0.273   0.687   9.938 -0.8802 -0.6853  0.6088
  812MOL0     C11974   0.351   0.683  10.060  0.2243  0.6441  0.3143
  812MOL0     C11975   0.287   0.695  10.185 -0.0675 -0.1590 -0.2974
  812MOL0     C11976   0.151   0.721  10.193  0.5868 -0.0520 -1.4484
  812MOL0     O11977   0.103   0.742  10.325 -0.1882  0.1046 -0.1530
  812MOL0     C11978  -0.023   0.805  10.339  0.1919  0.4235  1.2101
  812MOL0     C11979   0.002   0.954  10.329  0.3924 -0.1856  0.9446
  812MOL0     C11980  -0.133   1.035  10.346 -0.6274 -0.4365  0.7095
  812MOL0     C11981  -0.112   1.186  10.323 -0.4461  0.8655  0.4592
  812MOL0     C11982  -0.028   1.258  10.422  0.5478 -0.5457  0.3912
  812MOL0     C11983   0.051   1.300  10.507 -0.3378 -0.2479  0.3534
  812MOL0     C11984   0.078   0.720  10.077  0.5378 -0.2046 -0.2402
  812MOL0     C11985   0.133   0.717   9.946 -0.4170 -1.1972  0.1561
  812MOL0     C11986   0.048   0.730   9.821  0.0071  0.8000 -0.4992
  812MOL0     H11987   0.671   0.809   9.723  2.5514 -1.3326  1.5752
  812MOL0     H11988   0.808   0.769   9.518 -1.6528  0.8038 -0.3393
  812MOL0     H11989   0.720   0.429   9.251 -1.3494 -2.4932  2.0375
  812MOL0     H11990   0.828   0.350   9.370 -0.4467 -0.5007 -0.8245
  812MOL0     H11991   0.916   0.517   9.128 -0.2497 -1.1397 -1.0718
  812MOL0     H11992   1.026   0.461   9.250  0.8233 -1.8468 -1.2703
  812MOL0     H11993   0.978   0.233   9.207 -1.2346  0.4812  0.3276
  812MOL0     H11994   0.836   0.274   9.102 -1.1312  2.3100  1.3114
  812MOL0     H11995   1.022   0.390   8.957 -3.3956  0.7584  0.5959
  812MOL0     H11996   1.140   0.300   9.046  0.1022 -0.2474 -0.0805
  812MOL0     H11997   1.051   0.161   8.826 -0.1839 -1.7514 -0.6541
  812MOL0     H11998   0.904   0.138   8.929  0.6389 -2.4490  2.2522
  812MOL0     H11999   1.077   0.043   9.092  1.9140  2.2336  0.3123
  812MOL0     H12000   1.034  -0.045   8.950  0.4357 -0.8569  0.1335
  812MOL0     H12001   1.294   0.127   8.976  0.0682  0.6197 -1.6362
  812MOL0     H12002   1.274  -0.004   8.858 -0.9747 -3.3184  0.4975
  812MOL0     H12003   1.276  -0.038   9.157 -1.8519 -0.4018 -0.3267
  812MOL0     H12004   1.286  -0.173   9.026  1.1603  1.1126 -3.0053
  812MOL0     H12005   1.511  -0.147   8.875  2.1185  1.9231 -1.3264
  812MOL0     H12006   1.762   0.010   8.846  0.0136 -0.1646  0.1449
  812MOL0     H12007   1.781  -0.164   8.894  1.3723 -0.3998 -0.8923
  812MOL0     H12008   1.987   0.014   8.937  2.2780 -3.3952  0.6720
  812MOL0     H12009   1.865   0.088   9.047 -0.0448 -1.0083  0.8960
  812MOL0     H12010   2.051  -0.055   9.156  0.2021  0.3277 -1.7248
  812MOL0     H12011   1.890  -0.120   9.191  0.6368 -4.7033  0.1815
  812MOL0     H12012   1.979  -0.230   8.937  1.1676  0.9812  0.3983
  812MOL0     H12013   2.113  -0.232   9.031  0.5284  0.5597  1.3822
  812MOL0     H12014   1.897  -0.528   8.942 -1.7833 -1.3106 -1.3486
  812MOL0     H12015   1.773  -0.686   8.836  0.7179 -0.1670  0.7712
  812MOL0     H12016   1.610  -0.608   8.806 -3.3673  0.7773  2.8751
  812MOL0     H12017   1.631  -0.737   8.920  2.5448 -1.4934 -1.0261
  812MOL0     H12018   1.170  -0.342   8.869  1.8382  1.0296  2.0050
  812MOL0     H12019   0.934  -0.438   8.833 -0.9981 -2.3552  0.3572
  812MOL0     H12020   0.684  -0.479   8.899  2.5647  1.6125 -0.8827
  812MOL0     H12021   0.762  -0.605   8.809  0.4781  6.1889 -1.6763
  812MOL0     H12022   0.519  -0.621   8.849 -0.4947  0.3590 -0.3421
  812MOL0     H12023   0.608  -0.761   8.906  0.5813  1.4677 -1.9541
  812MOL0     H12024   0.494  -0.535   9.088  1.2749  0.6712 -1.0365
  812MOL0     H12025   0.577  -0.675   9.142  2.0552  0.4433 -1.2301
  812MOL0     H12026   0.417  -0.829   9.046  0.1796 -0.5268 -0.2771
  812MOL0     H12027   0.328  -0.695   8.961  0.0414  0.5725 -0.3576
  812MOL0     H12028   0.348  -0.696   9.267  0.1746 -3.0856 -0.8001
  812MOL0     H12029   0.248  -0.597   9.165  0.5832 -0.1232  1.5150
  812MOL0     H12030   0.221  -0.893   9.222 -0.2827  0.9373  0.6457
  812MOL0     H12031   0.141  -0.804   9.092  2.0349 -0.2920 -0.6681
  812MOL0     H12032   0.146  -0.713   9.381  0.9011  0.0629 -0.4955
  812MOL0     H12033   0.027  -0.846   9.323 -2.2326  2.2360  2.1798
  812MOL0     H12034  -0.049  -0.679   9.140 -2.5514 -0.3979  0.5787
  812MOL0     H12035   0.018  -0.554   9.241  0.6272  0.2870  0.6692
  812MOL0     H12036   0.966  -0.661   9.182 -0.5980  2.7143  2.3198
  812MOL0     H12037   1.196  -0.606   9.213 -1.8572  0.9094  1.6423
  812MOL0     H12038   1.516  -0.331   9.195  0.1982  2.9375 -0.1848
  812MOL0     H12039   1.743  -0.252   9.241 -1.5685  2.5449 -0.6294
  812MOL0     H12040   0.630   0.376   9.480  0.2906  0.2589 -0.1170
  812MOL0     H12041   0.478   0.434   9.662 -0.0744  0.6288  1.3377
  812MOL0     H12042   0.455   0.653  10.062  0.0064 -0.5631 -2.2465
  812MOL0     H12043   0.343   0.689  10.278 -0.9014 -4.8820  0.1354
  812MOL0     H12044  -0.102   0.791  10.264  1.0882 -3.6739  0.7770
  812MOL0     H12045  -0.068   0.787  10.436  0.3359  1.7678  1.5381
  812MOL0     H12046   0.042   0.983  10.231 -1.0893  0.3003  0.4708
  812MOL0     H12047   0.076   0.975  10.407 -0.5252  0.8390  1.5653
  812MOL0     H12048  -0.206   0.989  10.278  0.8661 -1.3620 -0.3489
  812MOL0     H12049  -0.155   1.027  10.452 -0.5487  1.2801  0.8934
  812MOL0     H12050  -0.212   1.232  10.325  0.7874  3.8249 -0.6959
  812MOL0     H12051  -0.066   1.204  10.226  1.6646  0.2953  1.3033
  812MOL0     H12052   0.137   1.321  10.568  1.5061 -3.3565 -0.9146
  812MOL0     H12053  -0.028   0.737  10.089  1.0311  1.3546  3.1414
  812MOL0     H12054  -0.048   0.771   9.853 -1.2681 -2.5082  0.4150
  812MOL0     H12055   0.089   0.795   9.744  3.4243 -2.2906 -1.6011
  812MOL0     H12056   0.028   0.629   9.782 -0.5953 -0.5322  2.9207
  813MOL0     O12057   0.936   2.811   1.111  0.1249  0.7058  0.1028
  813MOL0     C12058   0.937   2.694   1.152  1.1092  0.1181  0.5682
  813MOL0     O12059   1.025   2.600   1.106  0.4435  0.3066 -0.0315
  813MOL0     C12060   1.121   2.640   1.018 -0.2351 -0.1145  0.4584
  813MOL0     C12061   1.113   2.598   0.885 -0.4553 -0.9664  0.2465
  813MOL0     C12062   1.223   2.628   0.807 -0.4395  0.1330  0.4615
  813MOL0     C12063   1.331   2.706   0.846  0.4984  0.1608 -0.2766
  813MOL0     O12064   1.442   2.727   0.761 -0.2704 -0.6383 -0.3056
  813MOL0     C12065   1.423   2.743   0.620 -0.2588 -1.1963  0.2836
  813MOL0     C12066   1.462   2.624   0.542 -0.3003 -1.0210  0.4367
  813MOL0     C12067   1.601   2.574   0.582 -0.7463 -0.5084  0.2180
  813MOL0     C12068   1.673   2.500   0.460  1.7001  0.0121 -0.4637
  813MOL0     C12069   1.822   2.478   0.486 -1.9355  0.2000  0.4743
  813MOL0     C12070   1.840   2.390   0.608  0.3838  0.3446  0.2817
  813MOL0     C12071   1.984   2.351   0.641  0.0056  0.7327  0.2710
  813MOL0     C12072   2.087   2.454   0.685 -0.3036  0.4379 -0.0342
  813MOL0     N12073   2.221   2.394   0.694  1.0596 -0.1530  0.1902
  813MOL0     C12074   2.301   2.375   0.807  0.6018 -0.3075 -0.2441
  813MOL0     C12075   2.406   2.292   0.768 -0.3053 -0.7361 -0.8486
  813MOL0     C12076   2.528   2.258   0.846  0.2171  0.4147  0.7479
  813MOL0     C12077   2.608   2.391   0.867 -0.3946 -0.7573  0.2042
  813MOL0     C12078   2.744   2.362   0.933 -0.9531  0.2385 -0.2763
  813MOL0     C12079   2.729   2.296   1.068 -0.3693 -1.1576  0.3641
  813MOL0     O12080   2.854   2.297   1.132  0.5258 -0.2891  0.8137
  813MOL0     C12081   2.949   2.206   1.075 -0.7028  0.5594  0.2356
  813MOL0     C12082   2.918   2.105   0.987  0.1089  0.3188  0.4206
  813MOL0     C12083   3.018   2.034   0.926  0.0198 -0.3035 -0.0424
  813MOL0     C12084   2.985   1.917   0.841 -0.8179 -0.4073 -0.5620
  813MOL0     C12085   3.155   2.054   0.962  0.5257 -1.0385 -0.0928
  813MOL0     C12086   3.278   2.009   0.886  0.6921 -0.0582  0.8273
  813MOL0     O12087   3.400   1.994   0.961  0.0839  0.0964  0.5003
  813MOL0     C12088   3.513   1.994   0.885 -0.1911 -0.5026 -0.2877
  813MOL0     C12089   3.604   2.101   0.901  0.1408  0.7247 -0.2031
  813MOL0     C12090   3.724   2.096   0.830 -0.2880  0.3147  0.1424
  813MOL0     C12091   3.746   1.998   0.730 -0.4248  0.6370 -1.0357
  813MOL0     O12092   3.858   1.998   0.651 -0.1463 -0.7259  0.0115
  813MOL0     C12093   3.982   2.059   0.688 -0.0989 -0.4907 -0.1582
  813MOL0     C12094   4.093   1.952   0.648 -0.6268 -0.3134 -0.1614
  813MOL0     C12095   4.222   1.997   0.710  0.7022 -0.5434  0.8215
  813MOL0     C12096   4.339   1.939   0.628  0.2155 -0.1457 -0.7088
  813MOL0     C12097   4.469   1.975   0.694 -0.4724  0.7707  0.3102
  813MOL0     C12098   4.589   1.920   0.617 -0.4291 -0.7970  0.3768
  813MOL0     C12099   4.713   1.930   0.686 -0.9153  0.3784 -0.4519
  813MOL0     C12100   4.783   2.065   0.687 -1.2915 -0.4923  0.7281
  813MOL0    Cl12101   4.949   2.065   0.760 -0.0285  0.4601  0.1289
  813MOL0     C12102   3.654   1.893   0.718  0.1916 -0.1980  0.5865
  813MOL0     C12103   3.537   1.893   0.790  0.5002  0.0325 -0.6185
  813MOL0     O12104   3.267   2.009   0.762  0.1495 -1.1792 -1.1714
  813MOL0     C12105   3.182   2.133   1.078 -0.1345 -0.1478 -0.4268
  813MOL0     C12106   3.075   2.207   1.129 -0.3715  0.1011  0.6680
  813MOL0     N12107   2.389   2.267   0.631 -0.5834 -0.8168  0.3397
  813MOL0     N12108   2.284   2.324   0.587  0.4053 -0.5611  0.5262
  813MOL0     C12109   1.342   2.738   0.984  0.0418 -0.1219 -0.8208
  813MOL0     C12110   1.239   2.703   1.070  0.2467  0.2480 -0.3555
  813MOL0     C12111   0.824   2.644   1.247  0.1837  0.3878 -0.2686
  813MOL0     C12112   0.806   2.502   1.262  0.0475 -0.2418  0.3242
  813MOL0     C12113   0.719   2.458   1.361 -0.1733  0.8439  0.3624
  813MOL0     C12114   0.642   2.538   1.432 -0.6530 -0.7276 -0.5298
  813MOL0     O12115   0.563   2.469   1.523  0.1987 -0.6762 -0.1238
  813MOL0     C12116   0.477   2.556   1.591  0.1261 -0.4899 -0.6037
  813MOL0     C12117   0.399   2.471   1.687  0.0724 -0.1691 -0.5291
  813MOL0     C12118   0.309   2.358   1.622  0.4095 -0.8168 -0.0272
  813MOL0     C12119   0.276   2.240   1.716  0.0008 -0.2301  0.0914
  813MOL0     C12120   0.175   2.293   1.806 -0.0898  0.7501 -0.1522
  813MOL0     C12121   0.091   2.325   1.893 -0.2538  0.2341  0.3412
  813MOL0     C12122   0.649   2.682   1.404  1.0254  0.4339 -0.5287
  813MOL0     C12123   0.745   2.736   1.315 -0.1847  0.0519  0.2701
  813MOL0     C12124   0.760   2.885   1.309  0.3852  0.6294 -1.4106
  813MOL0     H12125   1.028   2.546   0.842  1.0695 -2.7963 -0.6761
  813MOL0     H12126   1.237   2.587   0.707 -0.1545  1.4204 -0.0559
  813MOL0     H12127   1.484   2.830   0.593 -0.1148 -1.6732 -1.0239
  813MOL0     H12128   1.318   2.761   0.597 -0.3289 -2.4414 -0.4605
  813MOL0     H12129   1.393   2.542   0.564 -1.7493  0.2815  1.0097
  813MOL0     H12130   1.447   2.643   0.435 -3.4247  1.4126  1.1315
  813MOL0     H12131   1.660   2.663   0.607  1.6152 -1.1268 -2.5822
  813MOL0     H12132   1.613   2.500   0.661  2.8525  0.2192  0.5377
  813MOL0     H12133   1.621   2.405   0.446 -1.1059  1.3394  0.1535
  813MOL0     H12134   1.657   2.558   0.368 -2.7962  0.1393  0.1643
  813MOL0     H12135   1.873   2.573   0.504 -0.8305 -0.2102 -0.3367
  813MOL0     H12136   1.877   2.421   0.410  2.5207  1.9579  2.0605
  813MOL0     H12137   1.808   2.449   0.694 -2.4950  1.3827 -1.3388
  813MOL0     H12138   1.789   2.293   0.606 -0.9082  0.9446  1.8149
  813MOL0     H12139   2.018   2.301   0.550 -0.4065  0.1814  0.4126
  813MOL0     H12140   1.976   2.274   0.718  1.8265 -2.8921 -2.8351
  813MOL0     H12141   2.089   2.525   0.602 -0.4537  1.5181  0.8674
  813MOL0     H12142   2.064   2.505   0.779 -0.4131 -1.4962  1.0469
  813MOL0     H12143   2.273   2.413   0.905  0.3713  1.2539 -0.8885
  813MOL0     H12144   2.585   2.197   0.776 -0.7040  0.6327 -0.2247
  813MOL0     H12145   2.489   2.198   0.929 -1.8356 -3.6474 -2.7550
  813MOL0     H12146   2.635   2.443   0.775  0.0230 -1.9475 -0.3716
  813MOL0     H12147   2.556   2.472   0.919  0.4350  2.0205 -2.9218
  813MOL0     H12148   2.795   2.303   0.857 -1.8456 -0.5249 -0.3012
  813MOL0     H12149   2.805   2.452   0.945 -0.2322 -0.4424  1.5040
  813MOL0     H12150   2.667   2.358   1.134 -1.1447  0.2275 -1.5731
  813MOL0     H12151   2.698   2.192   1.059  0.7685 -1.3956 -1.3992
  813MOL0     H12152   2.815   2.081   0.960 -0.0308  0.0814  1.1463
  813MOL0     H12153   3.068   1.847   0.854 -0.9450 -0.6316 -0.9444
  813MOL0     H12154   2.975   1.945   0.736 -3.0871  2.7597  0.3539
  813MOL0     H12155   2.896   1.862   0.871  0.6960 -1.5766  2.0890
  813MOL0     H12156   3.579   2.178   0.973  0.1486 -0.8764  1.6174
  813MOL0     H12157   3.795   2.169   0.868 -3.0477  3.5402 -0.4174
  813MOL0     H12158   3.997   2.150   0.628 -1.2074  2.3082  3.4836
  813MOL0     H12159   3.998   2.074   0.795  2.1768 -1.4065 -0.3269
  813MOL0     H12160   4.063   1.852   0.679 -0.1956  0.4695  3.1665
  813MOL0     H12161   4.103   1.969   0.540  1.5748  1.4350  0.2338
  813MOL0     H12162   4.228   1.948   0.808 -1.3178 -1.8798  0.3237
  813MOL0     H12163   4.226   2.106   0.721  3.8461 -0.5072  0.0264
  813MOL0     H12164   4.340   1.994   0.533  2.1350  0.3680 -0.4345
  813MOL0     H12165   4.320   1.834   0.604 -1.0251  0.6477 -3.7990
  813MOL0     H12166   4.486   2.082   0.705  0.9959  1.1115 -3.5864
  813MOL0     H12167   4.471   1.917   0.786  1.5213 -1.4486 -1.0051
  813MOL0     H12168   4.601   1.971   0.521  0.3049  4.4091  2.8564
  813MOL0     H12169   4.580   1.811   0.609 -1.4060 -0.7999  1.2098
  813MOL0     H12170   4.788   1.867   0.637 -2.7453  0.8879 -4.2219
  813MOL0     H12171   4.698   1.889   0.786 -1.5790 -0.1238 -0.7528
  813MOL0     H12172   4.720   2.148   0.721 -2.0844 -1.1385  0.8856
  813MOL0     H12173   4.792   2.076   0.579 -0.1215 -0.8273  0.7798
  813MOL0     H12174   3.683   1.816   0.647  1.8297 -0.2483  1.2583
  813MOL0     H12175   3.454   1.827   0.764 -0.6320  1.4285 -0.6595
  813MOL0     H12176   3.285   2.142   1.111  0.1224 -0.2977 -1.1584
  813MOL0     H12177   3.086   2.278   1.211 -3.9206 -0.0313  1.3924
  813MOL0     H12178   1.431   2.787   1.021 -1.3515  0.3624  2.1845
  813MOL0     H12179   1.249   2.715   1.178 -3.0222 -0.5755  0.1740
  813MOL0     H12180   0.871   2.425   1.222 -0.5583 -2.5113  3.2656
  813MOL0     H12181   0.712   2.350   1.371 -1.6334  0.9224  0.3826
  813MOL0     H12182   0.534   2.625   1.653  0.3341  1.9120 -3.2760
  813MOL0     H12183   0.409   2.609   1.525  2.2412 -0.9819 -3.3713
  813MOL0     H12184   0.337   2.538   1.748  0.7433 -0.1367  0.1370
  813MOL0     H12185   0.465   2.421   1.759 -2.6804 -2.8519  0.3422
  813MOL0     H12186   0.219   2.413   1.593 -0.0171 -1.9473 -0.9034
  813MOL0     H12187   0.360   2.329   1.530 -1.0835  3.6249 -2.5903
  813MOL0     H12188   0.361   2.188   1.759 -0.9946 -1.7029  0.3680
  813MOL0     H12189   0.222   2.164   1.658  1.2988  0.2496 -1.8284
  813MOL0     H12190   0.023   2.365   1.966 -0.3518  1.6604 -0.4907
  813MOL0     H12191   0.591   2.747   1.467 -0.3943 -2.0678  0.9195
  813MOL0     H12192   0.855   2.914   1.357  0.3491 -1.0748 -0.2017
  813MOL0     H12193   0.750   2.926   1.208  1.4612  1.4662 -1.2069
  813MOL0     H12194   0.678   2.926   1.370  1.7150  2.3627 -0.6735
  814MOL0     O12195   6.294   4.522   7.325 -0.0808 -0.3082 -0.4564
  814MOL0     C12196   6.205   4.541   7.239 -0.3043 -0.2801  0.5719
  814MOL0     O12197   6.128   4.445   7.175  0.2414 -0.0467  0.1511
  814MOL0     C12198   6.188   4.323   7.188  0.4767  1.0662 -0.0895
  814MOL0     C12199   6.278   4.282   7.094 -0.6617  0.4518 -0.9088
  814MOL0     C12200   6.336   4.154   7.093 -0.0397 -0.3674 -0.1624
  814MOL0     C12201   6.289   4.063   7.189  0.8196  0.6491  0.5833
  814MOL0     O12202   6.338   3.931   7.179  0.4843  0.2906 -0.1170
  814MOL0     C12203   6.261   3.832   7.255 -0.0621 -0.5235  0.0543
  814MOL0     C12204   6.333   3.827   7.396 -0.3328  0.3243 -0.4424
  814MOL0     C12205   6.290   3.700   7.458 -0.2784  0.6745 -1.0326
  814MOL0     C12206   6.137   3.692   7.487  0.1647  0.0636  0.0389
  814MOL0     C12207   6.098   3.568   7.572 -0.4114  0.0202 -0.0496
  814MOL0     C12208   6.106   3.574   7.723  0.6826  0.5466 -0.9591
  814MOL0     C12209   6.006   3.676   7.777 -0.2288 -0.4579  0.0957
  814MOL0     C12210   6.020   3.704   7.931  0.2214  0.3031 -0.4143
  814MOL0     N12211   5.935   3.823   7.953 -0.4441 -0.1216  0.2010
  814MOL0     C12212   5.971   3.945   7.997 -1.0427  0.3561 -0.0365
  814MOL0     C12213   5.865   4.024   7.973 -0.7545 -1.1442 -0.5028
  814MOL0     C12214   5.871   4.178   8.002 -0.6138  0.3788 -0.4046
  814MOL0     C12215   5.805   4.265   7.904 -0.2731  0.0990  0.5695
  814MOL0     C12216   5.657   4.265   7.896  0.3222 -0.3364 -1.2774
  814MOL0     C12217   5.617   4.381   7.811  0.0853 -0.1201 -0.2248
  814MOL0     O12218   5.627   4.511   7.880 -0.5029  0.3804  0.2992
  814MOL0     C12219   5.560   4.620   7.825 -0.5374 -0.6174  0.3094
  814MOL0     C12220   5.519   4.726   7.904 -0.2975  0.6416 -0.2852
  814MOL0     C12221   5.464   4.843   7.850 -0.6922 -0.6189  0.5246
  814MOL0     C12222   5.425   4.952   7.945 -0.0524  0.5156  0.3782
  814MOL0     C12223   5.465   4.864   7.709  1.1226 -0.8051  0.3377
  814MOL0     C12224   5.432   4.988   7.630  0.0027  0.5388 -0.0881
  814MOL0     O12225   5.375   5.090   7.700 -0.2512 -0.3160 -0.0933
  814MOL0     C12226   5.304   5.185   7.631 -0.3627 -0.5952 -0.5782
  814MOL0     C12227   5.342   5.324   7.634  0.5603  0.7110  0.0891
  814MOL0     C12228   5.271   5.418   7.561  0.0614  0.4086 -0.2674
  814MOL0     C12229   5.154   5.383   7.499  0.4161  0.4270 -0.5131
  814MOL0     O12230   5.087   5.479   7.422 -0.1747 -0.7122  0.0320
  814MOL0     C12231   5.071   5.604   7.491 -0.0432  0.0766  0.4415
  814MOL0     C12232   4.951   5.677   7.424  0.3758 -0.4126  1.4708
  814MOL0     C12233   4.820   5.604   7.437  1.1942 -0.1738 -0.0204
  814MOL0     C12234   4.711   5.699   7.390 -0.5645  0.1903 -0.6875
  814MOL0     C12235   4.571   5.638   7.376  1.1453  0.2010 -0.6947
  814MOL0     C12236   4.492   5.679   7.252  0.7232  0.1274 -0.0242
  814MOL0     C12237   4.348   5.641   7.263 -0.5054  0.1350  0.8229
  814MOL0     C12238   4.270   5.690   7.137 -0.0170 -0.0131 -0.8758
  814MOL0    Cl12239   4.126   5.601   7.125 -0.1890 -0.2394  0.0155
  814MOL0     C12240   5.109   5.247   7.506  0.4428 -0.6424 -0.4705
  814MOL0     C12241   5.185   5.155   7.578 -0.4414  0.2133  0.5763
  814MOL0     O12242   5.466   4.991   7.511  0.2325  0.2394 -0.2772
  814MOL0     C12243   5.494   4.748   7.627  0.0039 -0.7228 -0.7817
  814MOL0     C12244   5.553   4.634   7.688 -0.5534 -0.3727  0.0542
  814MOL0     N12245   5.758   3.950   7.935 -0.6919 -0.2015 -0.2378
  814MOL0     N12246   5.807   3.838   7.913  0.7568  0.2133  0.0915
  814MOL0     C12247   6.190   4.103   7.279 -0.0532 -0.1326 -0.2520
  814MOL0     C12248   6.138   4.232   7.281 -0.5502 -0.0400 -0.3781
  814MOL0     C12249   6.154   4.684   7.228  0.5936  0.5925 -0.2440
  814MOL0     C12250   6.076   4.707   7.120 -0.0322 -0.3936  0.3280
  814MOL0     C12251   6.032   4.834   7.086  0.0603  1.0414  0.5378
  814MOL0     C12252   6.058   4.940   7.171  0.1673  0.0964 -0.0774
  814MOL0     O12253   6.013   5.069   7.142 -0.3951 -0.5261  0.0684
  814MOL0     C12254   5.939   5.128   7.252 -0.3349 -0.5508 -0.1871
  814MOL0     C12255   5.888   5.259   7.191 -0.6487 -0.6085 -0.1786
  814MOL0     C12256   6.002   5.360   7.208 -0.3357 -0.0210  0.2389
  814MOL0     C12257   6.001   5.483   7.114  0.5878  0.0962  0.3500
  814MOL0     C12258   5.894   5.575   7.151 -0.5402 -0.2127 -0.2814
  814MOL0     C12259   5.791   5.629   7.171  0.8513 -0.0156 -0.1735
  814MOL0     C12260   6.131   4.914   7.285 -0.2860 -0.2569 -0.0794
  814MOL0     C12261   6.187   4.787   7.313  0.0824  0.4571  0.1394
  814MOL0     C12262   6.287   4.784   7.427  0.2207 -0.1290 -0.0164
  814MOL0     H12263   6.306   4.357   7.020 -1.7452  0.8120 -0.9726
  814MOL0     H12264   6.407   4.122   7.018  1.5482  0.5626  0.8877
  814MOL0     H12265   6.278   3.735   7.208 -1.2248 -0.7531  0.0707
  814MOL0     H12266   6.154   3.849   7.272  0.2625  1.7375  0.1925
  814MOL0     H12267   6.442   3.827   7.393 -0.3006 -1.5762 -0.6191
  814MOL0     H12268   6.292   3.911   7.454  1.2666  1.1390 -0.4546
  814MOL0     H12269   6.336   3.616   7.405 -1.0552 -0.1598 -0.4227
  814MOL0     H12270   6.351   3.709   7.548  1.9077  1.5131 -2.5296
  814MOL0     H12271   6.100   3.784   7.532 -1.5178  1.4829 -3.8044
  814MOL0     H12272   6.075   3.686   7.397  0.7787  1.1005 -0.4707
  814MOL0     H12273   6.174   3.494   7.545  2.2895  1.6722  2.4776
  814MOL0     H12274   5.993   3.543   7.552 -0.4384 -1.6905  1.8658
  814MOL0     H12275   6.080   3.479   7.770  1.5966  1.2749  1.1916
  814MOL0     H12276   6.207   3.610   7.747  0.6523 -0.2735  0.5479
  814MOL0     H12277   5.906   3.658   7.738 -0.5880  0.8265  0.3856
  814MOL0     H12278   6.040   3.771   7.732 -1.4686 -0.4513 -0.8777
  814MOL0     H12279   5.973   3.617   7.978 -0.4926  0.2991 -1.1020
  814MOL0     H12280   6.124   3.705   7.964 -0.7249 -1.5584  3.1221
  814MOL0     H12281   6.065   3.975   8.041  0.6147 -1.9367 -1.7665
  814MOL0     H12282   5.977   4.205   8.010 -0.2152 -1.2817  0.4070
  814MOL0     H12283   5.812   4.179   8.094 -2.0978 -0.8457 -1.3143
  814MOL0     H12284   5.844   4.363   7.932  0.5177 -0.3277  0.9824
  814MOL0     H12285   5.856   4.242   7.810  1.2052 -0.2689  1.4344
  814MOL0     H12286   5.626   4.165   7.864 -0.3038  0.0710 -1.9771
  814MOL0     H12287   5.602   4.282   7.989 -0.2165  0.2147 -1.6957
  814MOL0     H12288   5.671   4.376   7.715 -0.2643 -1.2975 -0.3846
  814MOL0     H12289   5.516   4.352   7.780  0.2912  0.3971 -1.4615
  814MOL0     H12290   5.523   4.723   8.012  0.4992  1.7210 -0.2743
  814MOL0     H12291   5.455   5.054   7.920  1.3835  0.5296  1.9395
  814MOL0     H12292   5.462   4.928   8.046 -0.1348 -1.1022  0.0425
  814MOL0     H12293   5.316   4.955   7.955 -0.0691 -1.2529  1.2580
  814MOL0     H12294   5.436   5.338   7.687  1.0275  2.5095 -1.1072
  814MOL0     H12295   5.321   5.509   7.528  1.4456 -0.9689 -2.1485
  814MOL0     H12296   5.050   5.587   7.597  0.9778 -1.8739  0.3700
  814MOL0     H12297   5.159   5.666   7.471  1.1376 -1.2069  1.5274
  814MOL0     H12298   4.955   5.770   7.481  0.9287  0.8419 -0.5026
  814MOL0     H12299   4.967   5.693   7.317 -0.6572 -1.0790  1.1951
  814MOL0     H12300   4.797   5.579   7.540 -0.9641 -4.3196 -1.3088
  814MOL0     H12301   4.834   5.508   7.386  2.8310  0.4825 -0.8993
  814MOL0     H12302   4.745   5.745   7.296 -0.2570  1.0787 -0.1542
  814MOL0     H12303   4.708   5.784   7.459  0.6761  1.6596 -2.3291
  814MOL0     H12304   4.582   5.529   7.377 -1.2973 -0.0929  0.7057
  814MOL0     H12305   4.515   5.659   7.467  2.8376  1.8932  0.0164
  814MOL0     H12306   4.540   5.654   7.157  1.6572  0.8247  0.2604
  814MOL0     H12307   4.487   5.788   7.253  2.1071  0.2075 -0.1410
  814MOL0     H12308   4.299   5.688   7.349 -1.3382 -0.5132  0.7144
  814MOL0     H12309   4.346   5.533   7.276 -1.8421 -0.1045 -1.0059
  814MOL0     H12310   4.339   5.684   7.052  3.0822 -2.3424  1.5720
  814MOL0     H12311   4.245   5.794   7.160 -3.0333 -1.2747  2.4420
  814MOL0     H12312   5.015   5.228   7.455  0.0748  1.3336 -0.6226
  814MOL0     H12313   5.168   5.050   7.599  2.1106 -0.9787 -2.4762
  814MOL0     H12314   5.488   4.752   7.518 -1.6349 -1.0016 -0.7231
  814MOL0     H12315   5.587   4.563   7.614  0.8185 -0.4220  0.7135
  814MOL0     H12316   6.151   4.035   7.354 -1.2481  1.4044  0.5919
  814MOL0     H12317   6.064   4.258   7.356 -0.2765 -1.6192  0.4904
  814MOL0     H12318   6.045   4.627   7.054  1.1911  0.2114 -1.0333
  814MOL0     H12319   5.958   4.833   7.006  1.5637 -2.7497 -1.0417
  814MOL0     H12320   5.857   5.063   7.285 -0.9370  1.5024  2.7455
  814MOL0     H12321   6.001   5.151   7.339  0.5368 -2.2404 -0.3335
  814MOL0     H12322   5.801   5.306   7.239  0.2595  0.2591  0.6448
  814MOL0     H12323   5.862   5.233   7.088  1.0383  0.8217 -0.9978
  814MOL0     H12324   5.998   5.390   7.313 -0.7824 -0.4312  0.3426
  814MOL0     H12325   6.093   5.303   7.188 -2.2972 -2.1604 -3.6191
  814MOL0     H12326   5.979   5.434   7.019 -2.0120  0.9848  0.4220
  814MOL0     H12327   6.103   5.523   7.117  1.2286 -1.1844 -1.7201
  814MOL0     H12328   5.695   5.676   7.176  0.3273 -1.1595  1.3748
  814MOL0     H12329   6.138   4.990   7.362 -1.1932 -0.7754  0.5319
  814MOL0     H12330   6.381   4.821   7.385  0.7606  0.4771  1.6528
  814MOL0     H12331   6.252   4.856   7.501 -1.8821  1.3783 -2.3190
  814MOL0     H12332   6.286   4.686   7.477 -1.1866  0.7672  1.8403
  815MOL0     O12333   4.058   0.102   9.068 -0.2043  0.4424 -0.1835
  815MOL0     C12334   4.045   0.192   9.155  0.1763 -0.5200 -0.2417
  815MOL0     O12335   4.139   0.268   9.219  0.7775  0.1561 -0.5610
  815MOL0     C12336   4.268   0.266   9.173  0.3135  0.3523 -0.4356
  815MOL0     C12337   4.369   0.241   9.264 -0.4226 -0.5141  0.1765
  815MOL0     C12338   4.501   0.274   9.231 -0.3043 -0.0672  0.7288
  815MOL0     C12339   4.539   0.296   9.103  1.1660 -0.0934 -0.1856
  815MOL0     O12340   4.675   0.306   9.089  0.4756 -0.3044  0.3393
  815MOL0     C12341   4.713   0.327   8.951 -0.2325 -0.1098  0.6015
  815MOL0     C12342   4.867   0.325   8.923 -0.7683 -0.7134 -0.1693
  815MOL0     C12343   4.937   0.416   9.034  0.3372 -0.1749  0.8881
  815MOL0     C12344   5.087   0.410   9.006  0.5496 -0.7556  0.0332
  815MOL0     C12345   5.151   0.508   9.111 -0.9926  0.5345  0.3404
  815MOL0     C12346   5.300   0.477   9.096  0.1497  0.3169  0.1104
  815MOL0     C12347   5.384   0.562   9.185  0.1409 -0.1472 -0.2163
  815MOL0     C12348   5.523   0.576   9.141 -0.6811  0.1266 -0.0169
  815MOL0     N12349   5.600   0.687   9.186 -0.5309  0.0174  0.1371
  815MOL0     C12350   5.650   0.695   9.313  0.0059 -1.2979 -0.0484
  815MOL0     C12351   5.742   0.794   9.306 -0.4038 -0.0555 -0.2256
  815MOL0     C12352   5.823   0.852   9.415 -0.3548  1.0077  1.2024
  815MOL0     C12353   5.878   0.750   9.515  0.0572 -0.3330  0.0645
  815MOL0     C12354   5.972   0.806   9.622  0.0680 -0.2451 -0.2256
  815MOL0     C12355   6.104   0.853   9.582  0.0382  0.1167  0.3947
  815MOL0     O12356   6.187   0.873   9.697 -0.9661  0.1527 -0.0908
  815MOL0     C12357   6.319   0.905   9.674  0.0008  0.0981 -0.4826
  815MOL0     C12358   6.380   0.897   9.549 -0.1193  0.1617  0.0698
  815MOL0     C12359   6.517   0.916   9.533 -0.1009  0.2432  0.1939
  815MOL0     C12360   6.572   0.893   9.393 -0.1922 -0.1391 -0.0871
  815MOL0     C12361   6.601   0.960   9.641  0.3142  0.1036  0.5615
  815MOL0     C12362   6.740   0.998   9.630 -0.0197 -0.2600  0.0916
  815MOL0     O12363   6.814   0.957   9.537  0.1029  0.4695  0.7022
  815MOL0     C12364   6.945   1.006   9.536 -0.0220  0.5200 -0.9149
  815MOL0     C12365   7.046   0.930   9.589  0.9174  1.1659 -0.7664
  815MOL0     C12366   7.176   0.977   9.587 -0.5898  0.5257 -0.0325
  815MOL0     C12367   7.211   1.099   9.522  0.0584  0.1592 -0.6082
  815MOL0     O12368   7.347   1.130   9.511  0.0616  0.4299  0.4627
  815MOL0     C12369   7.378   1.253   9.454  0.4580 -0.7103 -0.5149
  815MOL0     C12370   7.523   1.284   9.491 -0.1502  0.0910 -0.9187
  815MOL0     C12371   7.545   1.290   9.645 -0.1651  0.1501  0.1478
  815MOL0     C12372   7.694   1.279   9.665  0.3965 -0.1601 -0.0041
  815MOL0     C12373   7.720   1.266   9.815 -0.1625 -0.8898 -0.2308
  815MOL0     C12374   7.866   1.265   9.859 -0.4125  0.1532  0.5654
  815MOL0     C12375   7.873   1.248  10.009  0.3372  0.1255 -0.7674
  815MOL0     C12376   8.008   1.228  10.073 -0.0318  0.2989  0.4310
  815MOL0    Cl12377   8.067   1.059  10.032 -0.1923  0.2245 -0.2142
  815MOL0     C12378   7.104   1.180   9.485 -0.2803  0.5652 -0.0619
  815MOL0     C12379   6.976   1.138   9.489  0.4980 -0.2779  0.2182
  815MOL0     O12380   6.785   1.043   9.733  0.4705  0.3254  0.5364
  815MOL0     C12381   6.539   0.963   9.764  0.4354  0.3358  0.0090
  815MOL0     C12382   6.399   0.947   9.780 -0.3744  0.1815 -0.7969
  815MOL0     N12383   5.756   0.843   9.172 -0.4989  0.8764 -0.4693
  815MOL0     N12384   5.669   0.771   9.108  0.2979  0.0817  0.0449
  815MOL0     C12385   4.435   0.326   9.016 -0.7445 -0.4190  0.0972
  815MOL0     C12386   4.304   0.306   9.053  0.3441  0.2723  0.5507
  815MOL0     C12387   3.900   0.232   9.191  0.2423  1.2944  0.4232
  815MOL0     C12388   3.872   0.307   9.303  1.1337 -0.5575 -0.1259
  815MOL0     C12389   3.741   0.365   9.329 -0.1500  1.2306 -0.0668
  815MOL0     C12390   3.644   0.342   9.229  0.0159 -0.2428 -0.4036
  815MOL0     O12391   3.521   0.402   9.233  0.0835 -0.7647 -0.8803
  815MOL0     C12392   3.506   0.509   9.331  0.0552 -0.1258 -0.8107
  815MOL0     C12393   3.376   0.589   9.296 -0.7865 -0.7064 -0.3766
  815MOL0     C12394   3.246   0.518   9.324  0.1842 -0.2632 -0.8473
  815MOL0     C12395   3.149   0.611   9.394 -0.2360 -0.5802 -0.1432
  815MOL0     C12396   3.126   0.744   9.330  0.5426  0.5954  0.6488
  815MOL0     C12397   3.091   0.844   9.266 -0.6531 -0.0483 -0.6027
  815MOL0     C12398   3.674   0.262   9.124  0.4235  0.6055  0.5638
  815MOL0     C12399   3.791   0.205   9.100 -0.3646  0.5246  0.2488
  815MOL0     C12400   3.786   0.109   8.975 -0.3934  0.3945  0.0914
  815MOL0     H12401   4.344   0.217   9.367 -0.6415 -2.5648 -0.3058
  815MOL0     H12402   4.586   0.263   9.297  1.7527  0.0468 -1.7894
  815MOL0     H12403   4.689   0.431   8.930  3.2524  1.4238  3.2410
  815MOL0     H12404   4.661   0.256   8.886 -2.1081  3.2528 -1.8244
  815MOL0     H12405   4.912   0.226   8.911  1.3583  0.1551  0.0968
  815MOL0     H12406   4.900   0.380   8.834  0.3753  2.3573  1.9831
  815MOL0     H12407   4.894   0.516   9.028 -0.4995 -0.4862  1.3722
  815MOL0     H12408   4.910   0.378   9.133 -2.2779 -0.4711  0.1387
  815MOL0     H12409   5.098   0.303   9.026  2.1219 -1.3150 -3.0825
  815MOL0     H12410   5.121   0.432   8.904 -0.9702  0.1245 -0.3097
  815MOL0     H12411   5.122   0.470   9.209  1.6313 -2.0850  0.2681
  815MOL0     H12412   5.133   0.615   9.101 -1.6096  0.5719  1.6303
  815MOL0     H12413   5.295   0.371   9.125 -0.3783  0.7780  1.8047
  815MOL0     H12414   5.341   0.481   8.994  3.1950 -2.2098  1.0517
  815MOL0     H12415   5.386   0.527   9.289  0.4934 -1.0861 -0.5312
  815MOL0     H12416   5.338   0.661   9.183  0.2182 -0.1109 -0.1862
  815MOL0     H12417   5.581   0.490   9.176 -0.5583 -0.3476 -1.3433
  815MOL0     H12418   5.511   0.582   9.033 -1.6987  0.6736  0.1175
  815MOL0     H12419   5.630   0.635   9.401  2.0271 -0.0473  1.3384
  815MOL0     H12420   5.776   0.946   9.446 -3.0875  0.4318 -0.8573
  815MOL0     H12421   5.911   0.891   9.362 -0.4876  1.1444  1.0817
  815MOL0     H12422   5.789   0.713   9.567  0.0338  0.6369  0.7522
  815MOL0     H12423   5.925   0.670   9.458  1.8285  1.1326 -0.6513
  815MOL0     H12424   5.924   0.891   9.671 -2.2295 -0.4039 -2.0178
  815MOL0     H12425   5.994   0.725   9.692  0.9074 -3.3805 -3.7916
  815MOL0     H12426   6.142   0.772   9.519  0.5921 -1.3321  2.4755
  815MOL0     H12427   6.104   0.950   9.532 -3.4170 -0.8758 -1.8223
  815MOL0     H12428   6.324   0.866   9.461 -1.5440  2.6612 -0.0005
  815MOL0     H12429   6.612   0.791   9.382 -0.7681 -0.4198  0.3676
  815MOL0     H12430   6.637   0.973   9.356 -0.2187 -0.5460 -1.0693
  815MOL0     H12431   6.484   0.897   9.328 -0.0821  1.7669 -0.1626
  815MOL0     H12432   7.022   0.832   9.629 -0.1247  1.0923 -1.5567
  815MOL0     H12433   7.247   0.909   9.632 -1.5873 -0.2339  0.4132
  815MOL0     H12434   7.360   1.248   9.346 -1.9583 -0.8082 -0.1753
  815MOL0     H12435   7.327   1.342   9.493  0.0649 -2.1414  2.5790
  815MOL0     H12436   7.583   1.201   9.453  3.7767  2.2725 -0.0386
  815MOL0     H12437   7.555   1.382   9.455  1.7364  1.2136  3.1435
  815MOL0     H12438   7.504   1.197   9.688  0.7168  0.5464  1.9470
  815MOL0     H12439   7.514   1.382   9.695  0.8491  0.1570  0.8010
  815MOL0     H12440   7.726   1.379   9.634 -0.9608  1.1862  2.5892
  815MOL0     H12441   7.743   1.202   9.604 -1.1733  1.0041 -2.9360
  815MOL0     H12442   7.674   1.358   9.854  0.1883 -1.5973  1.9796
  815MOL0     H12443   7.672   1.175   9.849  1.9436 -1.4201  1.5072
  815MOL0     H12444   7.914   1.362   9.840  1.2719 -1.0484 -1.7724
  815MOL0     H12445   7.912   1.182   9.806 -0.8969 -0.4653  1.1016
  815MOL0     H12446   7.811   1.167  10.048 -2.2173  1.1670 -2.3964
  815MOL0     H12447   7.844   1.341  10.059  0.4259 -1.3320  2.1629
  815MOL0     H12448   8.000   1.236  10.182  1.0657  1.5505  0.4472
  815MOL0     H12449   8.076   1.312  10.053 -2.1466  2.1975  0.8221
  815MOL0     H12450   7.135   1.277   9.448  3.7822 -0.2469  0.6876
  815MOL0     H12451   6.901   1.211   9.461  0.0793  0.3023  2.6209
  815MOL0     H12452   6.581   0.995   9.859 -0.2994  2.4043 -0.3205
  815MOL0     H12453   6.349   0.952   9.876  0.5938  1.5213 -0.3462
  815MOL0     H12454   4.451   0.363   8.915  1.1778  0.4694  0.6827
  815MOL0     H12455   4.228   0.356   8.994  0.5446 -0.7741 -0.6427
  815MOL0     H12456   3.950   0.349   9.365  2.5350  1.6727 -3.1368
  815MOL0     H12457   3.716   0.433   9.410  2.1496 -1.3707  3.0811
  815MOL0     H12458   3.501   0.469   9.432  2.0650  0.0459 -0.6153
  815MOL0     H12459   3.597   0.569   9.322  1.4317 -2.0812 -0.6513
  815MOL0     H12460   3.362   0.607   9.189 -1.5118  1.9665  0.1196
  815MOL0     H12461   3.381   0.684   9.350  1.3241 -1.0628  0.1357
  815MOL0     H12462   3.210   0.492   9.224  1.0369  0.2824 -1.3140
  815MOL0     H12463   3.247   0.429   9.388 -2.0275  0.1855 -0.0939
  815MOL0     H12464   3.190   0.629   9.494 -0.2200 -0.9220 -0.0858
  815MOL0     H12465   3.051   0.566   9.414 -0.3706 -0.0098  0.5273
  815MOL0     H12466   3.064   0.925   9.202  0.1525  0.2629 -0.5517
  815MOL0     H12467   3.597   0.247   9.049 -0.1699  1.3832  0.9905
  815MOL0     H12468   3.808   0.005   8.999 -0.0871  0.9717  2.5829
  815MOL0     H12469   3.687   0.119   8.930  0.5245  1.1976 -1.8802
  815MOL0     H12470   3.863   0.132   8.900  2.4393  1.6800  3.1572
  816MOL0     O12471   9.072   8.909   3.842  0.2928  0.8678  0.2016
  816MOL0     C12472   9.009   8.901   3.943 -0.2010 -0.5956  0.2669
  816MOL0     O12473   9.030   8.980   4.051  0.2754 -0.2033  0.1135
  816MOL0     C12474   9.158   9.031   4.076  0.1531  0.5959 -0.3888
  816MOL0     C12475   9.273   8.964   4.038  0.3229 -0.9422  0.3528
  816MOL0     C12476   9.401   9.001   4.081  0.8415  0.0676  0.6093
  816MOL0     C12477   9.403   9.123   4.146 -0.2840 -0.0393 -0.1001
  816MOL0     O12478   9.535   9.167   4.159 -0.3693 -0.0457  0.3110
  816MOL0     C12479   9.557   9.301   4.209  0.1732 -0.1273  0.4696
  816MOL0     C12480   9.698   9.348   4.199  0.8116  0.1250  0.4466
  816MOL0     C12481   9.739   9.391   4.048 -0.3572  0.4498  0.2442
  816MOL0     C12482   9.850   9.496   4.025 -0.0445  0.1087  0.7175
  816MOL0     C12483   9.881   9.509   3.884 -0.3474  0.3248 -0.4818
  816MOL0     C12484   9.966   9.632   3.854  0.1838 -0.1940  0.6804
  816MOL0     C12485  10.018   9.613   3.709 -0.4292  0.2912  0.4729
  816MOL0     C12486  10.097   9.731   3.660  0.1234 -0.3246  0.2117
  816MOL0     N12487  10.225   9.767   3.736 -0.0459  0.1599 -0.1311
  816MOL0     C12488  10.262   9.886   3.791 -0.8181  0.5441 -0.3606
  816MOL0     C12489  10.375   9.861   3.863  0.3704 -0.6690 -0.7732
  816MOL0     C12490  10.456   9.962   3.938  0.0357  1.1575  0.7346
  816MOL0     C12491  10.610   9.936   3.923 -0.0340 -1.2821 -0.2097
  816MOL0     C12492  10.673  10.059   3.993 -0.6350 -0.2141 -0.0310
  816MOL0     C12493  10.668  10.189   3.904 -0.1040 -0.5962 -0.9385
  816MOL0     O12494  10.652  10.301   3.999 -0.2308 -0.0418 -0.0133
  816MOL0     C12495  10.767  10.366   4.044 -0.0696 -0.0411 -0.1449
  816MOL0     C12496  10.895  10.311   4.050 -0.4889 -0.4461 -0.1358
  816MOL0     C12497  11.013  10.366   4.111 -0.3963  0.3137  0.1629
  816MOL0     C12498  11.137  10.275   4.121 -0.3784 -0.3869 -0.2581
  816MOL0     C12499  10.999  10.494   4.169  0.4752  0.5118  0.8562
  816MOL0     C12500  11.115  10.566   4.222 -0.1883  0.0597 -0.2823
  816MOL0     O12501  11.244  10.525   4.208  0.3977  0.7425 -0.4053
  816MOL0     C12502  11.351  10.610   4.236  0.3282 -0.2421  0.5229
  816MOL0     C12503  11.378  10.657   4.361 -0.0719 -0.0486 -0.3243
  816MOL0     C12504  11.497  10.733   4.389  0.3262  0.1504  0.2297
  816MOL0     C12505  11.595  10.752   4.291  0.4585 -0.1019 -0.6301
  816MOL0     O12506  11.714  10.818   4.309  1.1066  0.0163 -0.3967
  816MOL0     C12507  11.754  10.840   4.448  0.2683  0.6732  0.4703
  816MOL0     C12508  11.904  10.858   4.432  0.0467  0.2111 -0.3518
  816MOL0     C12509  11.983  10.817   4.559  0.2161 -0.1274  0.6284
  816MOL0     C12510  12.128  10.818   4.511  0.1182  0.0149  0.5215
  816MOL0     C12511  12.232  10.768   4.613  0.9166 -0.0168  0.2934
  816MOL0     C12512  12.232  10.845   4.745  0.5903  0.3018 -0.6497
  816MOL0     C12513  12.321  10.767   4.844 -0.1922 -0.2099 -0.2702
  816MOL0     C12514  12.254  10.653   4.918 -0.0530 -0.5390 -0.8743
  816MOL0    Cl12515  12.378  10.590   5.028  0.2105 -0.0049 -0.0909
  816MOL0     C12516  11.557  10.719   4.160 -0.7868 -0.2376 -0.0081
  816MOL0     C12517  11.442  10.647   4.134  1.0379  0.0517  0.0370
  816MOL0     O12518  11.084  10.668   4.282 -0.1357 -0.2786 -0.0693
  816MOL0     C12519  10.871  10.554   4.165  0.4730 -0.9882  0.4986
  816MOL0     C12520  10.764  10.496   4.098  0.3181  0.4737  0.0644
  816MOL0     N12521  10.401   9.726   3.854 -0.6629 -0.0603  1.0275
  816MOL0     N12522  10.311   9.672   3.782  0.1481  0.4150  0.1057
  816MOL0     C12523   9.291   9.197   4.168 -0.4619  0.3414 -0.6690
  816MOL0     C12524   9.169   9.151   4.135 -0.2994  0.0993 -0.1952
  816MOL0     C12525   8.880   8.818   3.936 -0.7133 -0.4211 -0.9554
  816MOL0     C12526   8.828   8.772   3.811  0.7866 -1.1494 -0.0269
  816MOL0     C12527   8.705   8.714   3.806 -0.0628  0.4527  0.6283
  816MOL0     C12528   8.630   8.674   3.916 -0.3898 -1.3007  0.0230
  816MOL0     O12529   8.506   8.609   3.905 -0.3810  0.0335 -0.3153
  816MOL0     C12530   8.501   8.488   3.980 -0.2100  0.3750  0.0590
  816MOL0     C12531   8.440   8.515   4.122  0.5437 -0.4635  0.9071
  816MOL0     C12532   8.335   8.401   4.161 -0.5537 -0.0990 -0.2194
  816MOL0     C12533   8.376   8.255   4.144 -0.5075  0.0720 -0.8039
  816MOL0     C12534   8.302   8.160   4.229 -0.1882 -0.4331  0.3117
  816MOL0     C12535   8.221   8.091   4.290  0.6364 -0.1707  0.3107
  816MOL0     C12536   8.684   8.709   4.042  0.0304 -0.1728  0.0199
  816MOL0     C12537   8.804   8.774   4.057 -0.4403  0.7490  1.6387
  816MOL0     C12538   8.854   8.790   4.199  1.0413 -0.5182 -0.1437
  816MOL0     H12539   9.268   8.876   3.975 -1.1427 -0.7326  0.1532
  816MOL0     H12540   9.489   8.948   4.046  0.0289 -0.5248 -0.6103
  816MOL0     H12541   9.537   9.291   4.316 -3.4539 -2.1004 -0.2242
  816MOL0     H12542   9.495   9.380   4.165  1.2853  0.0572 -0.8317
  816MOL0     H12543   9.711   9.441   4.256 -1.2133 -0.1235  1.4061
  816MOL0     H12544   9.773   9.276   4.232  1.6612 -0.5917 -2.7135
  816MOL0     H12545   9.779   9.304   3.995  0.5897  1.1337 -0.1952
  816MOL0     H12546   9.645   9.431   4.009  0.4890  2.2694 -0.0649
  816MOL0     H12547   9.819   9.593   4.066  1.2532 -0.2346  2.6722
  816MOL0     H12548   9.937   9.461   4.083  1.1766  0.5306 -0.7863
  816MOL0     H12549   9.789   9.506   3.824 -2.1434 -4.5807  1.9937
  816MOL0     H12550   9.939   9.420   3.857  0.8061  1.2031 -1.0100
  816MOL0     H12551   9.902   9.720   3.867 -2.3491 -1.6330 -1.1476
  816MOL0     H12552  10.048   9.652   3.923  1.1567 -0.8242 -0.2700
  816MOL0     H12553   9.924   9.608   3.652 -1.4000  0.3856  2.0050
  816MOL0     H12554  10.074   9.522   3.687 -1.5035 -0.5836  1.2316
  816MOL0     H12555  10.124   9.706   3.557 -2.2548  3.5077 -1.5716
  816MOL0     H12556  10.037   9.823   3.660  1.1336  0.4086  2.2905
  816MOL0     H12557  10.224   9.986   3.777 -1.2583  0.5623  0.8230
  816MOL0     H12558  10.426   9.970   4.043 -1.1691  0.5958  0.4481
  816MOL0     H12559  10.437  10.060   3.893  0.7185  0.8549 -0.2265
  816MOL0     H12560  10.659   9.845   3.959  2.2369  1.5449  4.8408
  816MOL0     H12561  10.639   9.940   3.817 -0.0695  1.4032 -0.1801
  816MOL0     H12562  10.639  10.084   4.094  2.4827  0.5551  0.9502
  816MOL0     H12563  10.780  10.041   4.009 -0.5462  0.4746  0.2061
  816MOL0     H12564  10.759  10.203   3.845 -0.2391 -2.4810 -1.6477
  816MOL0     H12565  10.585  10.191   3.832  0.4603  0.0279 -1.5890
  816MOL0     H12566  10.906  10.211   4.009  1.6081 -0.7770  1.1223
  816MOL0     H12567  11.232  10.319   4.088 -0.2212  0.5934  1.3956
  816MOL0     H12568  11.128  10.191   4.051 -0.0513 -0.6977  0.0674
  816MOL0     H12569  11.148  10.239   4.223  1.9371  1.7261  0.3264
  816MOL0     H12570  11.321  10.635   4.451  0.1356 -0.5196 -0.3041
  816MOL0     H12571  11.500  10.794   4.479  0.6659 -0.1396  0.4181
  816MOL0     H12572  11.692  10.914   4.500  1.2119  0.9243  1.2507
  816MOL0     H12573  11.736  10.748   4.505 -2.1812  0.4748 -0.4695
  816MOL0     H12574  11.932  10.798   4.345 -0.7191  2.5727 -2.3237
  816MOL0     H12575  11.927  10.962   4.409  1.5915 -0.4857 -2.2525
  816MOL0     H12576  11.949  10.719   4.593  0.3153 -0.2765  0.2996
  816MOL0     H12577  11.969  10.893   4.637 -0.6472  2.5173 -1.9097
  816MOL0     H12578  12.160  10.917   4.478 -0.7420  0.1515  0.0822
  816MOL0     H12579  12.130  10.748   4.427 -1.8488 -0.0625  0.5047
  816MOL0     H12580  12.201  10.664   4.627  1.5854 -0.5427 -1.8477
  816MOL0     H12581  12.334  10.771   4.574  0.5395  0.6020 -0.6728
  816MOL0     H12582  12.136  10.880   4.785  0.7262  0.3805 -0.3880
  816MOL0     H12583  12.291  10.934   4.722 -0.4122  1.6536  1.6573
  816MOL0     H12584  12.363  10.834   4.920 -0.6579 -3.3469  3.0480
  816MOL0     H12585  12.397  10.722   4.780 -0.5618  0.9007 -1.5511
  816MOL0     H12586  12.207  10.584   4.847  0.3358  1.2336 -2.9309
  816MOL0     H12587  12.168  10.689   4.976 -1.3737 -4.8124  0.1962
  816MOL0     H12588  11.602  10.760   4.070 -0.3193 -0.1690  0.2543
  816MOL0     H12589  11.412  10.620   4.034 -0.3567 -2.6871  1.0931
  816MOL0     H12590  10.850  10.649   4.213  0.5921 -0.2333 -0.8922
  816MOL0     H12591  10.677  10.559   4.088  0.5679  0.5769 -1.8896
  816MOL0     H12592   9.293   9.299   4.206 -0.2016  0.0309  0.1659
  816MOL0     H12593   9.083   9.207   4.171 -0.8346  0.4754 -1.9691
  816MOL0     H12594   8.880   8.798   3.719 -0.5931 -1.3567 -0.8868
  816MOL0     H12595   8.686   8.666   3.711  2.8144  1.2627 -0.4538
  816MOL0     H12596   8.439   8.412   3.929 -0.6455  0.3908  0.5491
  816MOL0     H12597   8.600   8.443   3.980 -0.0434  0.7223 -0.6540
  816MOL0     H12598   8.412   8.618   4.142  2.3436 -0.2883  2.8581
  816MOL0     H12599   8.523   8.495   4.190  0.0168  1.2998  2.1241
  816MOL0     H12600   8.317   8.413   4.268 -4.3636  3.0716 -0.9706
  816MOL0     H12601   8.236   8.416   4.117 -1.4178  0.7026  1.8929
  816MOL0     H12602   8.478   8.237   4.181 -0.9260 -1.0551 -0.1627
  816MOL0     H12603   8.379   8.231   4.037  1.6424  2.4887 -1.4123
  816MOL0     H12604   8.139   8.043   4.339  1.1343  0.8104  2.1648
  816MOL0     H12605   8.643   8.671   4.135  1.9662 -1.9815  0.2072
  816MOL0     H12606   8.961   8.765   4.204  0.9043 -1.2011 -0.4536
  816MOL0     H12607   8.831   8.894   4.222 -4.3662 -1.8240  1.9392
  816MOL0     H12608   8.788   8.734   4.266 -3.2802  2.2749 -1.6739
  817MOL0     O12609   0.781  10.907   2.201  0.1961 -0.0703 -0.4646
  817MOL0     C12610   0.678  10.841   2.178 -0.0914  0.3511 -0.6377
  817MOL0     O12611   0.577  10.881   2.094  0.0040 -0.1328 -0.0940
  817MOL0     C12612   0.567  11.017   2.084 -0.5209 -1.0648 -0.2835
  817MOL0     C12613   0.600  11.090   1.963 -1.2795 -0.2189 -0.2136
  817MOL0     C12614   0.581  11.227   1.948 -0.5302 -0.0354 -0.1269
  817MOL0     C12615   0.534  11.307   2.050 -0.2018 -0.3467  0.3661
  817MOL0     O12616   0.517  11.447   2.040  0.5826 -0.2602 -0.2487
  817MOL0     C12617   0.628  11.524   1.978  1.4634 -0.5067 -0.5056
  817MOL0     C12618   0.598  11.553   1.829  1.1483 -0.1420  0.2162
  817MOL0     C12619   0.463  11.624   1.800 -0.6675  1.1792 -0.6620
  817MOL0     C12620   0.458  11.718   1.680  0.5600 -0.5133  0.4571
  817MOL0     C12621   0.330  11.797   1.687  0.1580  0.3086 -0.2581
  817MOL0     C12622   0.323  11.898   1.571  0.3627  0.0695  0.7205
  817MOL0     C12623   0.237  11.840   1.446 -0.7665 -0.1829 -0.6821
  817MOL0     C12624   0.264  11.949   1.338  0.0429  0.4026  0.1987
  817MOL0     N12625   0.207  11.926   1.202  0.0396 -0.0343 -1.1444
  817MOL0     C12626   0.074  11.945   1.166 -0.3781 -0.7377 -0.3569
  817MOL0     C12627   0.065  11.900   1.044  0.2966 -0.0187 -0.1142
  817MOL0     C12628  -0.055  11.893   0.957 -0.1597  0.7068  0.6348
  817MOL0     C12629  -0.093  12.033   0.914 -0.0285  0.3833  0.2275
  817MOL0     C12630  -0.225  12.021   0.825  0.0168  0.7630 -0.3756
  817MOL0     C12631  -0.254  12.157   0.758 -0.7075 -0.4550 -0.2720
  817MOL0     O12632  -0.383  12.151   0.680 -0.5978  1.0376 -0.2559
  817MOL0     C12633  -0.433  12.269   0.638 -0.0535 -0.1510 -0.3773
  817MOL0     C12634  -0.569  12.270   0.593 -0.5290 -0.0365 -0.5618
  817MOL0     C12635  -0.641  12.383   0.562 -0.2813 -0.2219 -0.2173
  817MOL0     C12636  -0.769  12.347   0.495  1.4056 -0.0923 -0.7316
  817MOL0     C12637  -0.573  12.508   0.551 -0.2458 -0.8438 -0.8552
  817MOL0     C12638  -0.635  12.637   0.486 -0.7334 -0.4778  0.2671
  817MOL0     O12639  -0.537  12.744   0.452 -0.1827  0.6605 -0.1768
  817MOL0     C12640  -0.564  12.850   0.367 -0.3833 -0.1821 -0.2869
  817MOL0     C12641  -0.674  12.940   0.383  0.0700  1.0395 -0.0437
  817MOL0     C12642  -0.697  13.038   0.280  0.7988 -0.7187 -0.3273
  817MOL0     C12643  -0.627  13.042   0.162 -0.6985 -0.5486 -0.0687
  817MOL0     O12644  -0.639  13.142   0.070  0.1316  0.0165 -0.6014
  817MOL0     C12645  -0.764  13.217   0.059 -0.9516  0.2001  0.3690
  817MOL0     C12646  -0.763  13.335  -0.033  0.2394 -0.4152  0.0826
  817MOL0     C12647  -0.884  13.433  -0.027  1.0802  0.0473 -0.6382
  817MOL0     C12648  -1.009  13.371  -0.083  0.7916 -0.0242 -0.0382
  817MOL0     C12649  -1.118  13.478  -0.115 -0.6528 -0.1895  0.2992
  817MOL0     C12650  -1.224  13.420  -0.208 -0.5658  0.6833 -0.6940
  817MOL0     C12651  -1.303  13.533  -0.278  0.4996 -0.1089 -0.3106
  817MOL0     C12652  -1.350  13.648  -0.183 -0.0304  0.5000  0.5877
  817MOL0    Cl12653  -1.443  13.572  -0.055  0.5331  0.2937 -0.1886
  817MOL0     C12654  -0.527  12.950   0.145 -0.1455  0.0777 -0.9620
  817MOL0     C12655  -0.495  12.859   0.250 -0.7670  0.1071 -0.6898
  817MOL0     O12656  -0.754  12.640   0.470 -0.3688 -0.5597  0.3895
  817MOL0     C12657  -0.439  12.511   0.597  0.1913  0.2822  0.5291
  817MOL0     C12658  -0.368  12.399   0.634 -0.8880 -0.1710 -0.6324
  817MOL0     N12659   0.189  11.864   0.994  1.0630  0.2331  0.2531
  817MOL0     N12660   0.271  11.869   1.096  0.7516 -0.2946  0.7548
  817MOL0     C12661   0.508  11.240   2.168  0.2242  0.5074  0.4918
  817MOL0     C12662   0.530  11.101   2.190 -0.0842  0.0658 -0.3580
  817MOL0     C12663   0.666  10.717   2.265 -0.8091 -0.1940 -0.0036
  817MOL0     C12664   0.600  10.617   2.197  0.2011 -0.0034  0.5049
  817MOL0     C12665   0.588  10.491   2.252  0.9069 -0.6379 -0.6130
  817MOL0     C12666   0.650  10.456   2.376  0.1865 -0.0378 -0.7933
  817MOL0     O12667   0.652  10.328   2.429  0.0811 -0.4808  0.1203
  817MOL0     C12668   0.535  10.281   2.492  0.4843 -0.1341 -0.6757
  817MOL0     C12669   0.564  10.142   2.556 -0.4259 -0.1328  0.2119
  817MOL0     C12670   0.574  10.149   2.713 -0.9881  0.3149  0.6557
  817MOL0     C12671   0.692  10.239   2.752  0.1943 -1.1526 -0.4646
  817MOL0     C12672   0.698  10.255   2.897 -0.1717 -0.3976 -0.1917
  817MOL0     C12673   0.688  10.279   3.016 -0.1482 -0.5617 -0.0229
  817MOL0     C12674   0.713  10.560   2.441 -0.4549 -0.0698  0.7265
  817MOL0     C12675   0.729  10.695   2.390 -0.6496  0.5720  0.2919
  817MOL0     C12676   0.798  10.810   2.467 -0.0128 -0.7724  0.1112
  817MOL0     H12677   0.629  11.027   1.880 -3.4309 -0.1974 -1.0513
  817MOL0     H12678   0.622  11.279   1.862 -1.6362 -3.6185 -3.0435
  817MOL0     H12679   0.728  11.484   2.000  1.4805  0.3086  1.0433
  817MOL0     H12680   0.629  11.620   2.030  0.2480 -0.3186 -0.8063
  817MOL0     H12681   0.682  11.615   1.796  1.5422 -1.0400 -0.5032
  817MOL0     H12682   0.593  11.461   1.770 -2.5300  0.8359 -1.2881
  817MOL0     H12683   0.382  11.550   1.802  0.8509 -0.5696 -0.1839
  817MOL0     H12684   0.452  11.687   1.888 -1.7932 -0.0771  0.1393
  817MOL0     H12685   0.548  11.779   1.686  0.1999 -0.1313  2.6401
  817MOL0     H12686   0.457  11.674   1.580 -1.7821 -1.4753  0.8480
  817MOL0     H12687   0.322  11.854   1.780 -0.4838  0.6188 -0.4925
  817MOL0     H12688   0.238  11.738   1.690 -1.7119  3.0627  0.8291
  817MOL0     H12689   0.281  11.992   1.607  0.7340  1.8802 -3.0404
  817MOL0     H12690   0.424  11.918   1.532 -0.2285 -0.6846 -1.3475
  817MOL0     H12691   0.130  11.828   1.463 -0.6067 -1.2106 -0.3551
  817MOL0     H12692   0.285  11.746   1.416  0.4413 -0.3549  1.5332
  817MOL0     H12693   0.231  12.047   1.375  0.6526  0.9783 -0.7357
  817MOL0     H12694   0.372  11.952   1.318 -0.3101 -3.8937 -4.1664
  817MOL0     H12695  -0.010  11.976   1.227 -1.2638 -4.5083  0.5887
  817MOL0     H12696  -0.131  11.845   1.020  1.7324 -2.5840  0.6229
  817MOL0     H12697  -0.024  11.837   0.869 -1.6456 -1.2660  1.2850
  817MOL0     H12698  -0.123  12.089   1.003 -1.9482  0.3274 -0.3390
  817MOL0     H12699  -0.008  12.081   0.865  1.0752 -0.0741  1.6291
  817MOL0     H12700  -0.228  11.937   0.756 -0.1612  1.3063 -1.0349
  817MOL0     H12701  -0.304  12.009   0.900 -1.7563  1.8680 -1.9609
  817MOL0     H12702  -0.276  12.237   0.830 -0.3866 -2.6345  2.3991
  817MOL0     H12703  -0.173  12.183   0.689 -0.0859 -1.7297 -0.0388
  817MOL0     H12704  -0.616  12.173   0.582 -2.0139  0.8170 -2.0767
  817MOL0     H12705  -0.764  12.348   0.386 -0.2872 -1.1708 -0.8438
  817MOL0     H12706  -0.843  12.421   0.528  0.8116 -0.4417 -1.2685
  817MOL0     H12707  -0.808  12.247   0.516  1.5796 -0.2480 -1.1410
  817MOL0     H12708  -0.733  12.926   0.473  0.4134  0.1836  0.0635
  817MOL0     H12709  -0.778  13.103   0.311 -1.0112 -2.1319 -1.8129
  817MOL0     H12710  -0.843  13.150   0.024 -1.5713  0.8510  0.5104
  817MOL0     H12711  -0.794  13.258   0.155 -2.3447 -3.3595  1.6283
  817MOL0     H12712  -0.680  13.397   0.005 -1.0663  0.9270  0.8544
  817MOL0     H12713  -0.734  13.299  -0.132  3.2281  0.3780  0.5574
  817MOL0     H12714  -0.865  13.526  -0.081  4.7178 -0.5060 -0.5838
  817MOL0     H12715  -0.898  13.452   0.080 -0.2763  3.2014 -1.2841
  817MOL0     H12716  -1.046  13.296  -0.013 -0.3006  0.1782 -0.3789
  817MOL0     H12717  -0.998  13.316  -0.177 -2.7219 -1.8529  0.4484
  817MOL0     H12718  -1.163  13.504  -0.018  0.8838 -1.8617  1.5513
  817MOL0     H12719  -1.071  13.565  -0.160  2.5234 -1.3333  1.1044
  817MOL0     H12720  -1.288  13.341  -0.167  2.2544 -1.0219  0.7284
  817MOL0     H12721  -1.186  13.379  -0.303 -2.3933  1.2024 -1.7060
  817MOL0     H12722  -1.386  13.485  -0.330 -0.9017  0.9801  0.8341
  817MOL0     H12723  -1.240  13.576  -0.356  3.8485 -1.8052  1.2584
  817MOL0     H12724  -1.412  13.715  -0.243 -1.3195 -1.4781 -0.3924
  817MOL0     H12725  -1.272  13.706  -0.134 -0.0749  0.5597  0.5860
  817MOL0     H12726  -0.463  12.958   0.058  3.5945  3.6127  1.7557
  817MOL0     H12727  -0.410  12.793   0.237 -1.1268 -0.6689  0.6921
  817MOL0     H12728  -0.393  12.609   0.607 -0.7140  0.6903  0.7655
  817MOL0     H12729  -0.267  12.408   0.674 -0.9234  2.0545 -0.9288
  817MOL0     H12730   0.465  11.296   2.250 -1.0597 -1.2044  1.0644
  817MOL0     H12731   0.524  11.063   2.291 -0.8368  1.9543  0.3595
  817MOL0     H12732   0.554  10.629   2.100  0.0315  0.2133  0.6107
  817MOL0     H12733   0.533  10.415   2.198 -2.1490  2.0481 -1.5770
  817MOL0     H12734   0.496  10.350   2.567  2.9090  2.3290 -1.5265
  817MOL0     H12735   0.449  10.263   2.426  1.6801 -2.2141 -1.7835
  817MOL0     H12736   0.658  10.108   2.513 -1.1851  0.4323 -2.0303
  817MOL0     H12737   0.492  10.063   2.533 -4.3425  1.7569  4.4464
  817MOL0     H12738   0.483  10.189   2.758 -0.9321 -0.3110  1.3489
  817MOL0     H12739   0.597  10.050   2.753 -0.4268  0.0072 -0.3899
  817MOL0     H12740   0.691  10.339   2.708  1.2852 -0.0519  1.8601
  817MOL0     H12741   0.784  10.190   2.717 -1.0765 -2.8681 -1.5783
  817MOL0     H12742   0.677  10.319   3.115 -0.0169  0.5683 -0.4569
  817MOL0     H12743   0.759  10.538   2.537  0.4071 -2.0002 -0.0755
  817MOL0     H12744   0.790  10.786   2.573  0.6178 -2.0355 -0.1157
  817MOL0     H12745   0.906  10.812   2.454  0.1575 -1.3407  1.3193
  817MOL0     H12746   0.745  10.904   2.448 -3.7036 -1.8113  3.8740
  818MOL0     O12747   2.412   4.026   8.654  0.0180 -0.2595 -0.8882
  818MOL0     C12748   2.404   3.964   8.544  0.3161  0.7341 -0.9158
  818MOL0     O12749   2.498   3.958   8.435  0.7163 -1.1662 -0.0354
  818MOL0     C12750   2.602   4.046   8.434  0.2727 -0.0854  0.5964
  818MOL0     C12751   2.683   4.084   8.542  0.4174  0.8440 -1.0179
  818MOL0     C12752   2.810   4.140   8.533  0.3873 -0.0994 -0.2335
  818MOL0     C12753   2.857   4.192   8.406  0.7217  0.3481 -1.3151
  818MOL0     O12754   2.983   4.250   8.406 -0.4551 -0.5149 -0.0961
  818MOL0     C12755   3.033   4.284   8.277 -0.1809 -0.1219 -0.2619
  818MOL0     C12756   3.169   4.336   8.315 -0.2334 -0.0424  0.3457
  818MOL0     C12757   3.160   4.462   8.402  0.6406 -0.6038 -0.0306
  818MOL0     C12758   3.288   4.534   8.436  0.2111 -0.0068  0.0703
  818MOL0     C12759   3.386   4.459   8.521  0.5267  0.1938  0.4593
  818MOL0     C12760   3.531   4.512   8.490  0.7813  0.5322  1.0982
  818MOL0     C12761   3.634   4.437   8.570  0.7838 -0.8258  0.2409
  818MOL0     C12762   3.638   4.507   8.709 -0.0688  0.2502  0.7731
  818MOL0     N12763   3.727   4.426   8.798  0.6154 -0.1587 -0.3160
  818MOL0     C12764   3.684   4.302   8.856  0.4819 -0.2845  0.3942
  818MOL0     C12765   3.783   4.281   8.945 -0.9467 -0.1689  0.3969
  818MOL0     C12766   3.785   4.167   9.044 -0.9521 -0.6061  0.3801
  818MOL0     C12767   3.917   4.143   9.112 -0.4630  0.4463 -0.3992
  818MOL0     C12768   3.900   4.061   9.244 -0.8915  0.0417 -0.5208
  818MOL0     C12769   4.015   4.056   9.331  0.1517 -0.7412 -0.6768
  818MOL0     O12770   4.036   4.199   9.359  0.4439 -0.0607 -0.1755
  818MOL0     C12771   4.127   4.236   9.458 -0.7849 -0.0278  0.3156
  818MOL0     C12772   4.226   4.151   9.493 -0.3956 -0.0906  0.4558
  818MOL0     C12773   4.318   4.188   9.594 -0.9447  0.4006 -0.3960
  818MOL0     C12774   4.431   4.091   9.623  0.3308  0.1037  0.3347
  818MOL0     C12775   4.305   4.310   9.663  0.6287 -0.4832  0.2478
  818MOL0     C12776   4.393   4.367   9.771  0.8233  0.7053  0.0943
  818MOL0     O12777   4.386   4.496   9.816 -0.0477 -0.5661  0.2396
  818MOL0     C12778   4.481   4.542   9.898  0.3694 -0.2874  0.9867
  818MOL0     C12779   4.482   4.488  10.032 -0.7403  0.3884  0.2411
  818MOL0     C12780   4.558   4.547  10.133 -0.0486  0.7364  0.5513
  818MOL0     C12781   4.629   4.668  10.102  0.2750  0.8324  0.8917
  818MOL0     O12782   4.715   4.726  10.197 -0.9700  1.0939 -0.6443
  818MOL0     C12783   4.747   4.661  10.312 -0.2485  0.6129 -0.2195
  818MOL0     C12784   4.850   4.741  10.399 -0.0884  0.1435 -0.5618
  818MOL0     C12785   4.982   4.786  10.324  0.1231 -0.1758 -0.6798
  818MOL0     C12786   4.971   4.911  10.244  0.2972 -0.1465  0.4282
  818MOL0     C12787   5.086   4.944  10.150 -0.1847 -0.3028 -0.3016
  818MOL0     C12788   5.220   4.977  10.236  0.7520  1.0505 -0.0078
  818MOL0     C12789   5.342   5.024  10.158 -0.2900  0.0318  0.0930
  818MOL0     C12790   5.465   5.061  10.249 -0.1016  0.3798 -0.7256
  818MOL0    Cl12791   5.616   5.037  10.148 -0.2770  0.7918 -0.1202
  818MOL0     C12792   4.619   4.728   9.976  0.0450 -1.5253  0.2560
  818MOL0     C12793   4.540   4.671   9.870  0.5815  0.0997  0.0743
  818MOL0     O12794   4.482   4.292   9.805  0.6537  0.4300 -1.1848
  818MOL0     C12795   4.204   4.405   9.611  1.0417  0.8549  0.3006
  818MOL0     C12796   4.121   4.363   9.509 -0.6342  0.8669 -0.4968
  818MOL0     N12797   3.873   4.391   8.946  0.0334 -0.1982  0.5660
  818MOL0     N12798   3.841   4.472   8.856 -0.1046  0.3100 -0.0090
  818MOL0     C12799   2.770   4.172   8.300  0.1759 -0.0871  0.9215
  818MOL0     C12800   2.654   4.091   8.305 -1.0791  0.0970 -0.3244
  818MOL0     C12801   2.268   3.888   8.540 -0.1936 -0.8156 -0.6921
  818MOL0     C12802   2.164   3.963   8.577  0.6189  0.0327  0.3928
  818MOL0     C12803   2.037   3.915   8.583 -0.7322 -0.2598  0.4884
  818MOL0     C12804   2.020   3.782   8.556  0.1370  0.0918 -0.0225
  818MOL0     O12805   1.893   3.730   8.547  0.1572  0.7132  0.2545
  818MOL0     C12806   1.801   3.752   8.657 -0.3809 -0.2713 -0.1555
  818MOL0     C12807   1.658   3.707   8.604 -0.5324 -0.1585  0.5604
  818MOL0     C12808   1.554   3.714   8.720  0.4033 -0.5864  0.3050
  818MOL0     C12809   1.402   3.720   8.672 -0.1618  0.7594  0.5094
  818MOL0     C12810   1.358   3.848   8.621  0.1408 -0.4713  0.3681
  818MOL0     C12811   1.326   3.955   8.574 -0.2420 -0.2155  0.4057
  818MOL0     C12812   2.124   3.693   8.525  0.3871  0.3470 -0.2330
  818MOL0     C12813   2.249   3.750   8.516 -0.1329 -1.1316  0.3635
  818MOL0     C12814   2.366   3.654   8.495  0.3408 -0.1406 -0.2213
  818MOL0     H12815   2.648   4.050   8.639  0.4232  0.7797 -1.0377
  818MOL0     H12816   2.869   4.154   8.623  0.3044  1.3275 -0.3756
  818MOL0     H12817   2.971   4.362   8.231 -1.0048 -0.7611 -0.2777
  818MOL0     H12818   3.042   4.204   8.203 -0.6498 -0.0846 -0.3623
  818MOL0     H12819   3.238   4.262   8.357  1.7028  1.4862  0.0211
  818MOL0     H12820   3.215   4.362   8.219 -0.5459  1.8783  0.6684
  818MOL0     H12821   3.091   4.533   8.355 -0.3049  1.0594  3.4770
  818MOL0     H12822   3.120   4.438   8.501  2.3111  1.2981  1.2080
  818MOL0     H12823   3.337   4.560   8.342 -0.5088  2.6185  0.3386
  818MOL0     H12824   3.267   4.631   8.483  1.4474  0.5264 -0.4249
  818MOL0     H12825   3.380   4.352   8.500 -2.3912  0.5698 -1.0382
  818MOL0     H12826   3.370   4.473   8.628 -1.6494  2.2619 -0.0586
  818MOL0     H12827   3.560   4.498   8.385 -1.6520  2.7661 -0.0087
  818MOL0     H12828   3.532   4.620   8.510 -0.8915  0.9678 -0.7555
  818MOL0     H12829   3.733   4.441   8.523 -0.5495 -1.6259 -2.8524
  818MOL0     H12830   3.600   4.334   8.576  2.0165 -1.3499 -1.2332
  818MOL0     H12831   3.666   4.612   8.716 -1.3456  0.6914 -0.2541
  818MOL0     H12832   3.544   4.504   8.765 -0.8793 -0.7719 -0.5590
  818MOL0     H12833   3.596   4.244   8.828  2.5254 -3.7097  0.5709
  818MOL0     H12834   3.754   4.073   8.998 -0.1769 -0.7891  0.2094
  818MOL0     H12835   3.708   4.197   9.116 -0.7948 -1.7655  1.0585
  818MOL0     H12836   3.989   4.097   9.044  0.8953 -0.2321  1.4145
  818MOL0     H12837   3.956   4.244   9.121 -1.3120  1.0774 -2.9624
  818MOL0     H12838   3.821   4.105   9.305 -1.1733 -1.5941  0.3560
  818MOL0     H12839   3.883   3.956   9.218  2.1021 -1.1378  1.7585
  818MOL0     H12840   4.000   4.000   9.424 -0.7710  0.5897  0.0103
  818MOL0     H12841   4.101   4.020   9.274  1.7810 -0.9044  1.7165
  818MOL0     H12842   4.243   4.054   9.447  1.4602  0.8428 -0.9107
  818MOL0     H12843   4.433   4.028   9.533 -0.9154 -1.5444  1.4031
  818MOL0     H12844   4.424   4.024   9.709  1.5708 -0.1985  0.2164
  818MOL0     H12845   4.530   4.138   9.626 -0.7936  2.5839  2.1719
  818MOL0     H12846   4.428   4.394  10.042 -0.8163  0.4894  0.7925
  818MOL0     H12847   4.558   4.489  10.224  0.9978 -1.6482 -0.8677
  818MOL0     H12848   4.659   4.642  10.374 -0.3300  0.7168 -0.3007
  818MOL0     H12849   4.792   4.568  10.275  0.5085 -0.3311  2.8481
  818MOL0     H12850   4.798   4.831  10.433  0.4130 -0.3926  1.7930
  818MOL0     H12851   4.879   4.673  10.479  0.0753 -1.2548 -1.7712
  818MOL0     H12852   5.005   4.701  10.259 -2.3146 -0.8677 -0.7470
  818MOL0     H12853   5.057   4.794  10.402 -1.2712 -0.1361  0.7087
  818MOL0     H12854   4.963   4.995  10.314 -1.9794 -0.0064  0.0964
  818MOL0     H12855   4.877   4.907  10.188 -0.0968 -0.4185  1.0929
  818MOL0     H12856   5.102   4.868  10.073 -0.0365  0.2798 -0.8551
  818MOL0     H12857   5.058   5.039  10.103 -1.5942  0.4067  1.8262
  818MOL0     H12858   5.252   4.891  10.294  0.5364  1.1335  0.2379
  818MOL0     H12859   5.188   5.054  10.307 -0.5479  1.2106 -0.7316
  818MOL0     H12860   5.310   5.113  10.103  1.0699  1.5607  1.6553
  818MOL0     H12861   5.372   4.940  10.094 -1.0500  0.5825 -1.0162
  818MOL0     H12862   5.478   4.997  10.337  2.9700  0.7637 -0.7920
  818MOL0     H12863   5.445   5.160  10.292 -2.3989 -0.1324 -0.4742
  818MOL0     H12864   4.677   4.817   9.957 -3.1695  0.5199 -0.8592
  818MOL0     H12865   4.519   4.715   9.773  0.4991 -4.0072 -1.9588
  818MOL0     H12866   4.191   4.503   9.657  0.8096  1.6773 -1.4397
  818MOL0     H12867   4.039   4.424   9.473 -0.7161  0.9518 -0.1693
  818MOL0     H12868   2.803   4.217   8.207 -1.4648  2.2872  1.3881
  818MOL0     H12869   2.597   4.058   8.219  0.5632 -2.9293 -0.3917
  818MOL0     H12870   2.170   4.070   8.597 -2.0387  0.6105 -1.3933
  818MOL0     H12871   1.957   3.986   8.600 -1.1715 -1.2327  2.8814
  818MOL0     H12872   1.829   3.696   8.747  0.0112  0.7513  0.3705
  818MOL0     H12873   1.795   3.855   8.692  0.3971 -1.0005  2.3277
  818MOL0     H12874   1.661   3.605   8.565 -1.1497 -0.8826  2.3287
  818MOL0     H12875   1.623   3.777   8.527 -1.7153 -0.7044  0.5760
  818MOL0     H12876   1.553   3.623   8.781 -0.7333  0.0264  1.2327
  818MOL0     H12877   1.579   3.798   8.785 -1.1761  0.1618 -0.0241
  818MOL0     H12878   1.339   3.710   8.761 -1.0394  0.4454 -0.1340
  818MOL0     H12879   1.380   3.636   8.606  0.2144  2.6070 -2.1612
  818MOL0     H12880   1.287   4.043   8.527 -0.6460 -0.1193  0.9171
  818MOL0     H12881   2.104   3.588   8.511 -0.7314  0.3481  1.0819
  818MOL0     H12882   2.348   3.573   8.567  2.9968  1.8919  3.0185
  818MOL0     H12883   2.365   3.617   8.392 -0.7751 -1.5598  0.2637
  818MOL0     H12884   2.462   3.699   8.520  0.9691 -0.8625 -1.2707
  819MOL0     O12885  11.191   2.829   9.205  0.8029  0.2587  0.1405
  819MOL0     C12886  11.204   2.818   9.325 -0.0349  1.0966  0.1050
  819MOL0     O12887  11.263   2.715   9.390  0.1262  0.0512  0.3113
  819MOL0     C12888  11.342   2.632   9.313  0.9227 -0.0571  0.2042
  819MOL0     C12889  11.476   2.661   9.283  0.8774  0.0951 -0.2900
  819MOL0     C12890  11.549   2.573   9.204  0.5291 -0.5775 -0.1742
  819MOL0     C12891  11.487   2.458   9.151  0.3684  0.7694 -0.0813
  819MOL0     O12892  11.569   2.384   9.069  0.0997  1.0251 -0.1699
  819MOL0     C12893  11.523   2.254   9.021  0.4424  0.5329  0.4167
  819MOL0     C12894  11.540   2.155   9.146 -0.0369  0.5122 -0.2510
  819MOL0     C12895  11.487   2.014   9.113 -0.1770 -0.1779 -0.4887
  819MOL0     C12896  11.586   1.939   9.014  0.0862  0.4829 -0.4281
  819MOL0     C12897  11.534   1.793   8.971  0.0185 -0.3804 -1.0517
  819MOL0     C12898  11.651   1.699   8.981 -0.3234 -0.0426 -0.4283
  819MOL0     C12899  11.623   1.564   8.916  0.1560  0.3086 -0.4495
  819MOL0     C12900  11.727   1.467   8.938  0.0705  0.8179 -0.1624
  819MOL0     N12901  11.758   1.451   9.079 -0.9562 -0.1020  1.1405
  819MOL0     C12902  11.702   1.368   9.157  0.4183  0.1190  0.2770
  819MOL0     C12903  11.774   1.368   9.267  0.1870 -0.2178 -0.7227
  819MOL0     C12904  11.728   1.291   9.388  0.9724 -0.0018 -0.3426
  819MOL0     C12905  11.603   1.359   9.452  0.2709  0.1818  0.3871
  819MOL0     C12906  11.578   1.296   9.594  0.3880 -0.0850  0.1742
  819MOL0     C12907  11.439   1.338   9.633 -0.0153 -0.1687 -0.1224
  819MOL0     O12908  11.350   1.267   9.550 -0.3537  0.0309  1.2263
  819MOL0     C12909  11.219   1.287   9.592 -0.1986  0.6532  0.1779
  819MOL0     C12910  11.159   1.406   9.620 -0.2721 -0.1128 -0.1943
  819MOL0     C12911  11.029   1.424   9.662 -0.2011  0.6454 -0.2092
  819MOL0     C12912  10.966   1.564   9.689  0.3608 -0.1905 -0.3481
  819MOL0     C12913  10.954   1.296   9.685 -0.2856 -0.4893 -0.0161
  819MOL0     C12914  10.824   1.287   9.752 -0.0118  0.9984  0.9816
  819MOL0     O12915  10.787   1.172   9.790  0.1516 -0.2257 -0.1981
  819MOL0     C12916  10.656   1.126   9.793  0.0309 -0.8246 -0.1879
  819MOL0     C12917  10.563   1.186   9.706 -0.1511 -0.5913 -0.4937
  819MOL0     C12918  10.427   1.151   9.718 -1.4058  0.3271  0.5831
  819MOL0     C12919  10.380   1.077   9.829 -1.0593 -0.3169 -0.0277
  819MOL0     O12920  10.248   1.058   9.825  0.1608 -0.0861  0.0233
  819MOL0     C12921  10.197   1.005   9.941  0.7420 -0.5686 -1.1721
  819MOL0     C12922  10.188   1.115  10.054  0.7705 -0.3035  0.5900
  819MOL0     C12923  10.155   1.072  10.195  0.3061 -0.2882 -0.5068
  819MOL0     C12924  10.186   0.932  10.234 -1.1890 -0.5491  0.1623
  819MOL0     C12925  10.177   0.906  10.383 -0.4388  0.1346  0.5906
  819MOL0     C12926  10.314   0.922  10.454  0.4271  0.1544  0.0624
  819MOL0     C12927  10.286   0.864  10.588  0.1048  0.6974 -0.0482
  819MOL0     C12928  10.412   0.850  10.668  0.5716  0.4253 -0.1470
  819MOL0    Cl12929  10.521   0.719  10.610  0.0360  0.0076  0.5314
  819MOL0     C12930  10.473   1.028   9.917  0.1995  1.0874 -0.3523
  819MOL0     C12931  10.613   1.045   9.899  0.5517  0.4089  0.8641
  819MOL0     O12932  10.778   1.391   9.789  0.2251 -0.5723  0.2212
  819MOL0     C12933  11.017   1.181   9.655 -0.4895  0.2987  0.8597
  819MOL0     C12934  11.142   1.173   9.606  0.4033  0.2689 -0.2332
  819MOL0     N12935  11.886   1.450   9.258  0.0597  0.2892  0.1796
  819MOL0     N12936  11.870   1.512   9.144 -0.3894  1.2057  0.3382
  819MOL0     C12937  11.356   2.431   9.180  1.2478 -0.8305 -0.2844
  819MOL0     C12938  11.282   2.521   9.262  0.0524  0.1584 -0.1892
  819MOL0     C12939  11.153   2.921   9.420 -0.3430  0.5993 -0.0263
  819MOL0     C12940  11.251   2.991   9.491  0.2591  0.2814 -0.3843
  819MOL0     C12941  11.210   3.093   9.575  0.4744 -0.0864 -0.6273
  819MOL0     C12942  11.075   3.135   9.585 -0.7381 -0.2820  0.3243
  819MOL0     O12943  11.040   3.233   9.679 -1.0100  0.9766 -0.0455
  819MOL0     C12944  10.905   3.268   9.697  0.1236 -0.7112  0.3244
  819MOL0     C12945  10.903   3.399   9.791 -0.3732  0.7064  0.0856
  819MOL0     C12946  10.764   3.457   9.823 -0.4005  0.8830 -0.0790
  819MOL0     C12947  10.679   3.494   9.697 -0.5453  0.0887  1.1438
  819MOL0     C12948  10.619   3.377   9.621  0.8925 -0.8675 -0.1546
  819MOL0     C12949  10.583   3.273   9.575  0.6689 -0.4275  0.4818
  819MOL0     C12950  10.977   3.056   9.514 -0.9277 -0.8985  0.1257
  819MOL0     C12951  11.018   2.957   9.431  0.6391  0.2252  0.1431
  819MOL0     C12952  10.914   2.896   9.344  0.1809 -0.3302  0.9352
  819MOL0     H12953  11.518   2.752   9.326 -2.1443  0.9797  1.0390
  819MOL0     H12954  11.651   2.598   9.175 -0.8273  0.3017 -5.2796
  819MOL0     H12955  11.592   2.218   8.945  1.4296  0.8044  1.1746
  819MOL0     H12956  11.418   2.261   8.988  0.5246 -1.2053 -0.2893
  819MOL0     H12957  11.641   2.153   9.186  0.7992 -0.2258 -2.2742
  819MOL0     H12958  11.477   2.198   9.225 -0.0043  4.7105 -2.2361
  819MOL0     H12959  11.470   1.950   9.200 -1.0043 -0.7621 -1.0726
  819MOL0     H12960  11.386   2.011   9.072 -0.7537 -0.7604  0.9255
  819MOL0     H12961  11.602   2.001   8.926  4.7210 -0.7950 -0.7798
  819MOL0     H12962  11.686   1.939   9.059  0.9880  1.9397 -2.2832
  819MOL0     H12963  11.490   1.795   8.871 -0.8785  0.5278 -0.6489
  819MOL0     H12964  11.454   1.764   9.039  0.0334 -0.8629 -1.2403
  819MOL0     H12965  11.732   1.746   8.925 -0.3235  1.4957  0.7833
  819MOL0     H12966  11.684   1.689   9.085  0.5408 -2.0572 -0.8634
  819MOL0     H12967  11.586   1.571   8.813  1.4750 -2.2514 -1.1703
  819MOL0     H12968  11.535   1.518   8.963 -0.3602 -0.9221 -2.4722
  819MOL0     H12969  11.694   1.369   8.902 -0.2053  1.6098 -2.2048
  819MOL0     H12970  11.816   1.490   8.879 -1.6142 -0.5658 -3.4833
  819MOL0     H12971  11.608   1.319   9.134 -0.9733  2.6923  0.1158
  819MOL0     H12972  11.805   1.282   9.466 -0.9658 -2.4883  1.4779
  819MOL0     H12973  11.690   1.190   9.366 -0.2608  0.0923  1.1306
  819MOL0     H12974  11.619   1.467   9.456  0.7672  0.2136 -1.4717
  819MOL0     H12975  11.524   1.328   9.383  0.7151 -0.8697  0.3369
  819MOL0     H12976  11.584   1.187   9.593  1.9471 -0.0533 -2.5013
  819MOL0     H12977  11.662   1.329   9.656  1.1677 -1.1786 -0.2763
  819MOL0     H12978  11.435   1.317   9.741  0.7189  0.5760  0.0590
  819MOL0     H12979  11.412   1.443   9.620 -1.1030 -0.2848  0.9390
  819MOL0     H12980  11.209   1.501   9.609 -0.3634 -0.3129 -3.1585
  819MOL0     H12981  11.026   1.639   9.637  1.6276 -2.2360 -2.0052
  819MOL0     H12982  10.949   1.577   9.796 -0.2576 -0.4815 -0.4092
  819MOL0     H12983  10.866   1.583   9.649 -0.1376  1.8212  1.7043
  819MOL0     H12984  10.596   1.242   9.620 -3.2694  0.8508 -0.8940
  819MOL0     H12985  10.359   1.164   9.635 -1.7071 -2.0877  0.3592
  819MOL0     H12986  10.094   0.980   9.915  1.2248 -3.7375 -0.3952
  819MOL0     H12987  10.246   0.920   9.989  0.4167  0.0143  0.2711
  819MOL0     H12988  10.289   1.157  10.067  1.3634 -1.2494 -0.7072
  819MOL0     H12989  10.120   1.192  10.016  1.3025  0.7601  1.7360
  819MOL0     H12990  10.049   1.092  10.214  0.0575 -0.7181 -1.4058
  819MOL0     H12991  10.214   1.137  10.261  3.1786 -2.7250 -0.4598
  819MOL0     H12992  10.284   0.904  10.194 -1.3192 -1.3772  0.3994
  819MOL0     H12993  10.109   0.872  10.185  1.8755 -3.4881 -1.5223
  819MOL0     H12994  10.107   0.975  10.431  1.4944  0.5697  3.0069
  819MOL0     H12995  10.133   0.806  10.390 -2.1998  0.9125  1.3268
  819MOL0     H12996  10.356   1.023  10.452  1.5010 -0.2971 -0.2129
  819MOL0     H12997  10.379   0.862  10.391  4.1116 -0.9324  4.3562
  819MOL0     H12998  10.241   0.767  10.565  0.9338  0.4606 -0.7177
  819MOL0     H12999  10.223   0.932  10.647 -2.5427  0.6557 -2.5561
  819MOL0     H13000  10.383   0.833  10.772  1.5183  0.1075  0.0750
  819MOL0     H13001  10.475   0.939  10.666  0.4878  0.4772 -1.4520
  819MOL0     H13002  10.447   0.959   9.996 -3.1122  1.9089 -0.5689
  819MOL0     H13003  10.700   0.997   9.942  0.6911  2.5312  3.1702
  819MOL0     H13004  10.968   1.086   9.675  0.8712 -0.5954  0.1272
  819MOL0     H13005  11.194   1.081   9.580  3.5658  2.1207 -1.0945
  819MOL0     H13006  11.315   2.340   9.138 -0.3582  0.3382 -1.3487
  819MOL0     H13007  11.175   2.503   9.267 -0.5846  2.0636 -3.8321
  819MOL0     H13008  11.353   2.957   9.504  0.3925  0.2950 -1.3269
  819MOL0     H13009  11.279   3.144   9.640 -0.5777  0.8368 -0.2021
  819MOL0     H13010  10.866   3.295   9.599  1.1313  3.2696  0.8377
  819MOL0     H13011  10.848   3.187   9.743 -0.0957  0.1597  1.6445
  819MOL0     H13012  10.970   3.479   9.757 -0.1378 -0.1666 -1.5986
  819MOL0     H13013  10.950   3.363   9.884 -1.8279  1.6299  1.2099
  819MOL0     H13014  10.708   3.387   9.886 -0.7389  0.0988 -1.2155
  819MOL0     H13015  10.790   3.547   9.879 -1.2351  2.1635 -1.6597
  819MOL0     H13016  10.737   3.561   9.631 -0.1874  0.3715  1.7364
  819MOL0     H13017  10.592   3.558   9.717 -1.0561  1.3559 -3.7122
  819MOL0     H13018  10.559   3.179   9.529 -2.3721  1.0437 -1.2468
  819MOL0     H13019  10.871   3.076   9.514 -1.2459 -1.8958 -3.2709
  819MOL0     H13020  10.951   2.865   9.246  0.9052  0.7257  0.8602
  819MOL0     H13021  10.881   2.801   9.387  2.7171 -0.9428  1.6596
  819MOL0     H13022  10.830   2.966   9.331 -0.0658 -0.6861  0.5645
  820MOL0     O13023   3.733   1.415   5.344  0.3143 -0.4684 -0.0288
  820MOL0     C13024   3.826   1.362   5.286  0.6818 -0.2607 -0.3922
  820MOL0     O13025   3.909   1.266   5.347  0.2149  0.2288 -0.0844
  820MOL0     C13026   3.881   1.240   5.478  0.8375  1.0935  0.3174
  820MOL0     C13027   3.990   1.224   5.556  0.1976 -1.1389 -0.4384
  820MOL0     C13028   3.984   1.204   5.689 -0.3569  0.0780 -0.5056
  820MOL0     C13029   3.860   1.190   5.753 -0.1739  0.9397 -0.0571
  820MOL0     O13030   3.866   1.158   5.889  0.8450 -0.7190 -0.8418
  820MOL0     C13031   3.942   1.255   5.967  0.2766 -0.0555  0.2534
  820MOL0     C13032   3.969   1.223   6.104 -0.1611 -0.2641 -0.0744
  820MOL0     C13033   4.021   1.069   6.124  0.6030 -1.3327 -0.4020
  820MOL0     C13034   4.090   1.065   6.263 -0.3728  0.3213 -0.1293
  820MOL0     C13035   4.170   0.938   6.279 -0.1888 -0.2007  0.2434
  820MOL0     C13036   4.233   0.921   6.415  0.6207 -0.1607 -0.0727
  820MOL0     C13037   4.325   0.801   6.425 -0.0347  0.7943 -0.7667
  820MOL0     C13038   4.323   0.723   6.559  0.3533  0.3747  0.0669
  820MOL0     N13039   4.370   0.800   6.675 -0.3228  0.1414 -0.9421
  820MOL0     C13040   4.312   0.820   6.799 -0.2745  0.0403 -0.8559
  820MOL0     C13041   4.407   0.877   6.880  0.5031 -0.4372 -0.3723
  820MOL0     C13042   4.380   0.913   7.022  0.5484  0.3835 -0.1747
  820MOL0     C13043   4.485   0.974   7.116  0.5499 -1.9243  0.1545
  820MOL0     C13044   4.559   0.854   7.168 -1.3972  0.9371  0.1139
  820MOL0     C13045   4.666   0.897   7.268 -0.7614  0.0867  0.4375
  820MOL0     O13046   4.727   0.788   7.337  0.5462 -0.6072  0.5998
  820MOL0     C13047   4.820   0.808   7.430 -0.3282 -1.0747 -0.7473
  820MOL0     C13048   4.845   0.695   7.508  0.8462  0.5571 -0.6597
  820MOL0     C13049   4.953   0.700   7.595 -0.1395 -0.7592 -0.8903
  820MOL0     C13050   4.991   0.582   7.682 -0.5545 -1.5255 -0.7509
  820MOL0     C13051   5.027   0.824   7.619  0.1946  0.7482  0.4077
  820MOL0     C13052   5.141   0.831   7.719  0.5344 -0.4709 -0.2216
  820MOL0     O13053   5.171   0.948   7.790  0.7256  0.5860  1.1323
  820MOL0     C13054   5.298   0.971   7.823  0.0401 -0.2198 -0.1189
  820MOL0     C13055   5.368   1.054   7.745 -0.6821  1.0503  0.9710
  820MOL0     C13056   5.499   1.097   7.779  0.4939  0.5753 -0.4456
  820MOL0     C13057   5.569   1.036   7.889 -0.0381  0.5402 -0.0645
  820MOL0     O13058   5.695   1.070   7.918  0.7062 -0.8797 -1.0163
  820MOL0     C13059   5.773   1.000   8.017  0.7879  0.0190 -0.8325
  820MOL0     C13060   5.917   1.050   8.027 -0.5109  0.4476 -0.0089
  820MOL0     C13061   6.005   0.952   8.103 -0.1297 -0.4378  0.7198
  820MOL0     C13062   6.152   0.992   8.103 -0.5317  0.6666  0.1176
  820MOL0     C13063   6.238   0.890   8.170 -0.0820 -0.3113 -0.0887
  820MOL0     C13064   6.371   0.934   8.195 -0.3476 -0.2967  0.4091
  820MOL0     C13065   6.447   0.971   8.068  0.2514 -0.8030 -0.0549
  820MOL0     C13066   6.597   0.990   8.095  0.2318 -0.9897  0.0006
  820MOL0    Cl13067   6.692   0.843   8.064  0.1288 -0.0594 -0.2524
  820MOL0     C13068   5.493   0.956   7.975  0.2965  0.3602  0.0239
  820MOL0     C13069   5.357   0.928   7.939 -0.3823  0.0240 -0.4420
  820MOL0     O13070   5.220   0.738   7.706 -0.2355  0.1909  0.1785
  820MOL0     C13071   4.994   0.941   7.547  0.1679  0.3700 -0.1367
  820MOL0     C13072   4.895   0.930   7.449 -0.0472  0.3439  0.6302
  820MOL0     N13073   4.514   0.902   6.796 -0.6094 -0.9392 -0.4766
  820MOL0     N13074   4.490   0.861   6.674 -0.0806 -0.9103 -0.8304
  820MOL0     C13075   3.739   1.181   5.679 -0.0711  0.7495  0.0600
  820MOL0     C13076   3.747   1.207   5.540 -0.5114  0.6413  0.5705
  820MOL0     C13077   3.856   1.412   5.159  0.5987 -0.3258 -0.1989
  820MOL0     C13078   3.991   1.396   5.112  0.1608  0.0511 -1.1257
  820MOL0     C13079   4.036   1.442   4.992  0.6480 -0.5329  0.2018
  820MOL0     C13080   3.947   1.511   4.914 -0.2959 -0.6032  0.8848
  820MOL0     O13081   4.001   1.563   4.795  0.2978  0.0864 -0.4251
  820MOL0     C13082   3.945   1.671   4.719  0.9091 -0.5246 -0.2019
  820MOL0     C13083   3.823   1.626   4.631  0.2270 -0.3676 -0.4587
  820MOL0     C13084   3.803   1.713   4.503 -0.9950 -0.4226  0.0820
  820MOL0     C13085   3.921   1.695   4.413 -0.0934 -0.2794  0.1807
  820MOL0     C13086   3.893   1.723   4.275 -0.3254  0.4854 -0.1759
  820MOL0     C13087   3.904   1.756   4.153  0.2858 -1.0454  0.0175
  820MOL0     C13088   3.812   1.531   4.945  0.8180  0.5225  0.0918
  820MOL0     C13089   3.767   1.477   5.072  0.1662  0.8326  0.3786
  820MOL0     C13090   3.618   1.484   5.084 -0.4672 -0.1947 -0.3867
  820MOL0     H13091   4.091   1.235   5.517  0.7165  2.7562  1.5975
  820MOL0     H13092   4.079   1.191   5.740 -0.9026  1.1684  0.8609
  820MOL0     H13093   3.900   1.355   5.957  0.7339  0.0055 -1.2423
  820MOL0     H13094   4.040   1.267   5.920  0.1812 -0.0655  0.0490
  820MOL0     H13095   4.049   1.292   6.134 -2.3048  2.6608 -0.6429
  820MOL0     H13096   3.882   1.224   6.171  1.8689 -1.6726  2.7833
  820MOL0     H13097   3.926   1.015   6.130 -0.2234  0.1928  1.2403
  820MOL0     H13098   4.080   1.043   6.036 -1.6453 -2.1399 -1.7407
  820MOL0     H13099   4.155   1.153   6.272  1.0063 -0.8364  2.6749
  820MOL0     H13100   4.017   1.081   6.343 -0.6365 -1.7995  0.1288
  820MOL0     H13101   4.246   0.930   6.201 -1.0944  0.8059 -0.7837
  820MOL0     H13102   4.097   0.856   6.275  0.1395 -0.6862  2.6736
  820MOL0     H13103   4.292   1.009   6.442 -0.8983  0.5319  1.1430
  820MOL0     H13104   4.159   0.907   6.494  0.2398  0.4892 -0.3056
  820MOL0     H13105   4.429   0.832   6.422 -0.3415  2.0625  0.4149
  820MOL0     H13106   4.313   0.734   6.339  1.5033 -0.8324  0.2251
  820MOL0     H13107   4.222   0.686   6.580  1.0809 -2.1283 -0.5220
  820MOL0     H13108   4.372   0.629   6.533  1.4367  0.7699  0.6434
  820MOL0     H13109   4.214   0.787   6.832 -0.6766 -2.4702 -4.0380
  820MOL0     H13110   4.349   0.820   7.070  0.7683 -0.1960 -1.1408
  820MOL0     H13111   4.297   0.984   7.019 -1.1444 -1.3068  2.5516
  820MOL0     H13112   4.545   1.040   7.054 -1.0325 -0.7075 -0.1505
  820MOL0     H13113   4.424   1.020   7.194  1.9938  1.7083 -0.6608
  820MOL0     H13114   4.492   0.784   7.218  0.3575 -2.0567 -1.4215
  820MOL0     H13115   4.609   0.804   7.085 -0.2828  1.2200  0.5960
  820MOL0     H13116   4.740   0.951   7.208  1.0846 -0.9060  1.7027
  820MOL0     H13117   4.618   0.966   7.338 -1.7437 -1.6811  1.6025
  820MOL0     H13118   4.774   0.614   7.496 -2.4300  3.1401 -0.1323
  820MOL0     H13119   5.092   0.540   7.668  0.8055  0.8338  1.2721
  820MOL0     H13120   4.910   0.510   7.666 -3.1674  0.3223  2.8705
  820MOL0     H13121   4.986   0.605   7.788  1.0892 -0.5378 -0.8532
  820MOL0     H13122   5.309   1.109   7.672 -0.7485 -1.7321 -1.2212
  820MOL0     H13123   5.532   1.177   7.713 -1.5597  1.9135  0.0718
  820MOL0     H13124   5.713   1.017   8.106  1.6207  1.0380 -0.4376
  820MOL0     H13125   5.772   0.893   7.996  2.4549  0.0716 -1.3556
  820MOL0     H13126   5.956   1.060   7.925 -0.7786  1.2654 -0.0396
  820MOL0     H13127   5.919   1.149   8.074  0.8347  1.5657 -2.2515
  820MOL0     H13128   5.997   0.856   8.050 -0.3949  0.4864 -0.9903
  820MOL0     H13129   5.973   0.948   8.207  0.5036  1.9872  1.0565
  820MOL0     H13130   6.161   1.083   8.164 -1.3823  1.2389 -0.6050
  820MOL0     H13131   6.182   0.997   7.998  2.7896  1.0295  0.9561
  820MOL0     H13132   6.196   0.864   8.267  3.7293  1.3924  2.2386
  820MOL0     H13133   6.255   0.800   8.110  1.7323 -2.2429  3.0990
  820MOL0     H13134   6.427   0.851   8.240  1.4114  0.4515 -0.3053
  820MOL0     H13135   6.369   1.027   8.252  1.1161  0.3528 -0.5532
  820MOL0     H13136   6.407   1.070   8.044 -1.6161 -1.3865  0.4563
  820MOL0     H13137   6.438   0.905   7.981  3.1774 -1.7545  0.2728
  820MOL0     H13138   6.610   1.037   8.193  0.4528  2.0338 -1.3745
  820MOL0     H13139   6.628   1.073   8.031  2.3849 -0.6849  1.3173
  820MOL0     H13140   5.528   0.926   8.073  1.4106 -1.2546 -0.8254
  820MOL0     H13141   5.305   0.857   8.002 -3.1446  2.8283  0.7097
  820MOL0     H13142   5.052   1.027   7.579  2.8900 -1.6500  0.7376
  820MOL0     H13143   4.868   1.019   7.393  1.2197 -0.4633 -1.3773
  820MOL0     H13144   3.645   1.168   5.733 -2.4612 -1.5257 -4.0725
  820MOL0     H13145   3.658   1.199   5.478 -1.2414 -2.5874  1.8131
  820MOL0     H13146   4.057   1.342   5.179 -0.6930  2.1809  1.6405
  820MOL0     H13147   4.136   1.427   4.953  0.0625 -1.3149 -1.0851
  820MOL0     H13148   3.901   1.748   4.782 -0.2921 -1.0998 -0.3039
  820MOL0     H13149   4.014   1.715   4.647 -0.1413 -1.9334 -2.1760
  820MOL0     H13150   3.729   1.639   4.685  0.6766  1.6120 -0.0685
  820MOL0     H13151   3.825   1.521   4.601 -0.5439 -0.4368 -0.2982
  820MOL0     H13152   3.712   1.687   4.448 -0.9102  2.0260 -1.3656
  820MOL0     H13153   3.800   1.821   4.519 -2.6853 -0.1353 -1.7997
  820MOL0     H13154   3.952   1.591   4.410  0.9621  0.0079  0.5986
  820MOL0     H13155   4.001   1.763   4.444 -0.4028 -0.0419  0.4615
  820MOL0     H13156   3.917   1.789   4.052  0.6433  1.0643  0.6910
  820MOL0     H13157   3.746   1.576   4.871 -0.7149 -3.1680 -1.0191
  820MOL0     H13158   3.583   1.579   5.125 -1.4655 -1.3575  1.5971
  820MOL0     H13159   3.562   1.472   4.991 -2.4316  0.1074  0.6988
  820MOL0     H13160   3.581   1.404   5.150  0.0357  1.7265  2.3929
  821MOL0     O13161   7.953   7.255  11.371 -0.1989  0.1713 -0.9015
  821MOL0     C13162   7.859   7.302  11.301  0.8459  1.0775 -0.4846
  821MOL0     O13163   7.884   7.344  11.180 -0.8926 -0.4975 -0.7995
  821MOL0     C13164   7.987   7.314  11.098 -0.6413 -0.5806 -0.6030
  821MOL0     C13165   8.032   7.408  11.004  0.0368  0.0690 -0.0767
  821MOL0     C13166   8.131   7.372  10.918 -0.3582 -0.2654  0.8789
  821MOL0     C13167   8.188   7.244  10.920 -0.0610 -0.4211 -0.2008
  821MOL0     O13168   8.295   7.195  10.837  0.1179 -0.4739  0.1070
  821MOL0     C13169   8.320   7.271  10.718 -0.1741 -0.6463 -0.7452
  821MOL0     C13170   8.440   7.204  10.636  0.2969 -0.2252  0.6102
  821MOL0     C13171   8.572   7.235  10.711  0.2176  0.8665 -0.3576
  821MOL0     C13172   8.688   7.236  10.614  0.9316 -0.3525  0.1927
  821MOL0     C13173   8.817   7.251  10.693 -0.3367  0.1143  0.2433
  821MOL0     C13174   8.957   7.257  10.621 -1.0604  0.4800  0.1096
  821MOL0     C13175   9.008   7.119  10.564  0.2407  0.1445  0.1179
  821MOL0     C13176   9.142   7.130  10.496  0.0905  0.2216 -0.0720
  821MOL0     N13177   9.131   7.180  10.347 -0.2599  0.4037 -0.1098
  821MOL0     C13178   9.118   7.318  10.308 -0.2144  0.4422  0.1709
  821MOL0     C13179   9.114   7.310  10.172 -0.1936 -0.0553  0.6361
  821MOL0     C13180   9.107   7.419  10.062 -0.2681  0.0450  0.1178
  821MOL0     C13181   9.248   7.474  10.041  0.7520  0.5469 -0.4878
  821MOL0     C13182   9.327   7.391   9.939 -0.2636 -0.0165 -0.0156
  821MOL0     C13183   9.463   7.456   9.918  0.2980  0.2158  0.0870
  821MOL0     O13184   9.561   7.392  10.006  0.1951  0.1633  0.0525
  821MOL0     C13185   9.675   7.366   9.942 -0.5709  0.9249 -0.2321
  821MOL0     C13186   9.674   7.254   9.858  0.4586  0.2100 -1.1573
  821MOL0     C13187   9.791   7.222   9.785 -0.3653 -0.3175  0.6054
  821MOL0     C13188   9.773   7.131   9.670  0.6817 -0.2796  0.3932
  821MOL0     C13189   9.912   7.290   9.816 -0.7079 -0.9091  0.1938
  821MOL0     C13190  10.049   7.270   9.750 -0.1629 -0.5338 -0.2699
  821MOL0     O13191  10.154   7.314   9.820 -0.5683 -0.6115 -0.7340
  821MOL0     C13192  10.270   7.319   9.750  0.0807  0.3980 -0.3346
  821MOL0     C13193  10.379   7.241   9.792 -0.6249 -0.5198  1.2236
  821MOL0     C13194  10.499   7.243   9.717 -0.0835  0.1061  0.0365
  821MOL0     C13195  10.518   7.333   9.614 -0.2933  0.0991 -0.8080
  821MOL0     O13196  10.631   7.344   9.539 -0.1611  0.0883 -0.0509
  821MOL0     C13197  10.755   7.359   9.610 -0.0126 -0.0818  0.2391
  821MOL0     C13198  10.875   7.374   9.523 -0.2766  0.9249 -0.0436
  821MOL0     C13199  10.905   7.232   9.467  1.6891 -0.2401 -0.4800
  821MOL0     C13200  11.042   7.233   9.405 -0.2330 -0.0258  0.0135
  821MOL0     C13201  11.045   7.245   9.249  0.0311  0.2323 -0.7572
  821MOL0     C13202  11.198   7.239   9.212  0.7324  0.5005 -0.0589
  821MOL0     C13203  11.223   7.228   9.063 -0.0624 -0.0301  0.1341
  821MOL0     C13204  11.130   7.317   8.975  0.5938  0.0395  0.1219
  821MOL0    Cl13205  11.149   7.257   8.807 -0.2419 -0.6970 -0.2826
  821MOL0     C13206  10.414   7.413   9.585 -0.6581 -0.3638 -0.3856
  821MOL0     C13207  10.282   7.400   9.643 -0.6477 -0.4083 -0.2643
  821MOL0     O13208  10.055   7.193   9.655 -0.1075  0.5136 -0.4166
  821MOL0     C13209   9.907   7.394   9.908 -0.0179 -0.1593 -0.5078
  821MOL0     C13210   9.789   7.434   9.974 -0.1923  0.2733  0.0042
  821MOL0     N13211   9.119   7.173  10.136 -0.7299 -0.7144 -0.0304
  821MOL0     N13212   9.140   7.102  10.237 -0.7354 -0.2301  0.4071
  821MOL0     C13213   8.143   7.149  11.010  0.4215 -0.3305 -0.2641
  821MOL0     C13214   8.036   7.183  11.101 -0.1027 -0.5133  0.1923
  821MOL0     C13215   7.714   7.307  11.342 -0.3658  0.1439  0.1099
  821MOL0     C13216   7.642   7.395  11.259  0.2266  1.0036  0.4394
  821MOL0     C13217   7.506   7.414  11.281 -0.6357  0.0462 -0.6514
  821MOL0     C13218   7.438   7.343  11.386 -0.3534 -0.3535 -0.1863
  821MOL0     O13219   7.313   7.364  11.428 -0.0474  0.3994  0.0675
  821MOL0     C13220   7.230   7.465  11.377  0.5758  0.8844  0.3742
  821MOL0     C13221   7.080   7.467  11.427  0.1079 -0.0861 -0.7586
  821MOL0     C13222   6.997   7.579  11.343  0.5120 -0.0928  0.1376
  821MOL0     C13223   6.860   7.606  11.409  1.0658  0.2936  0.9273
  821MOL0     C13224   6.774   7.487  11.376 -0.0901 -0.3790 -0.1376
  821MOL0     C13225   6.713   7.393  11.347  0.9428 -0.3084  0.3179
  821MOL0     C13226   7.518   7.256  11.462 -0.2652  0.3937  0.6939
  821MOL0     C13227   7.655   7.225  11.436  0.4425 -0.6861 -0.1009
  821MOL0     C13228   7.729   7.117  11.517 -0.6411 -0.8907 -0.5265
  821MOL0     H13229   7.977   7.502  11.003 -0.9116 -0.4435  0.9690
  821MOL0     H13230   8.176   7.444  10.850 -3.2685 -0.6882 -1.7448
  821MOL0     H13231   8.341   7.376  10.738  0.0153 -0.3895 -2.1742
  821MOL0     H13232   8.227   7.271  10.660 -0.2811  1.9268 -0.6766
  821MOL0     H13233   8.433   7.095  10.623 -0.8784  0.0230 -1.2265
  821MOL0     H13234   8.441   7.238  10.532 -1.8388  0.5524  0.8016
  821MOL0     H13235   8.560   7.325  10.772 -1.3790 -1.0025  2.3164
  821MOL0     H13236   8.587   7.155  10.784  5.4705  1.5579 -0.3368
  821MOL0     H13237   8.682   7.141  10.561  0.0003 -1.6031  2.3746
  821MOL0     H13238   8.673   7.328  10.556 -1.8999 -0.4505  0.6373
  821MOL0     H13239   8.826   7.168  10.764  2.2470 -0.3437 -0.5048
  821MOL0     H13240   8.802   7.351  10.734 -0.6783  1.2225 -2.3889
  821MOL0     H13241   8.940   7.325  10.536  0.2474 -1.4655 -1.8145
  821MOL0     H13242   9.020   7.307  10.695  2.7406 -2.9728 -0.3865
  821MOL0     H13243   8.929   7.078  10.500 -1.8374  1.5533  1.6089
  821MOL0     H13244   9.007   7.047  10.647 -0.3187 -0.1388 -0.1280
  821MOL0     H13245   9.211   7.203  10.540  0.8244  0.2651 -1.2448
  821MOL0     H13246   9.178   7.028  10.508 -1.5822 -0.1191  2.7089
  821MOL0     H13247   9.120   7.405  10.373 -0.2735  2.3818 -2.2698
  821MOL0     H13248   9.037   7.497  10.093 -1.0182 -0.8831  0.8262
  821MOL0     H13249   9.053   7.367   9.982 -3.3197  1.6219  1.0035
  821MOL0     H13250   9.219   7.567   9.991 -2.5614 -0.9135 -1.6043
  821MOL0     H13251   9.298   7.499  10.134 -1.2002  2.1749  0.2052
  821MOL0     H13252   9.346   7.291   9.978  0.4070  0.3176  0.5350
  821MOL0     H13253   9.277   7.392   9.842  0.9113 -0.4950 -0.6469
  821MOL0     H13254   9.490   7.448   9.812 -2.4766 -0.2322 -0.6611
  821MOL0     H13255   9.445   7.564   9.926 -4.1809 -0.2484 -0.9670
  821MOL0     H13256   9.586   7.190   9.851  3.5437 -4.6894 -0.4123
  821MOL0     H13257   9.844   7.047   9.673  0.2441 -0.6204  2.3995
  821MOL0     H13258   9.788   7.194   9.582 -3.2388 -1.6872 -1.5610
  821MOL0     H13259   9.675   7.086   9.652  0.3724  1.5217 -3.6656
  821MOL0     H13260  10.380   7.182   9.883  1.5282 -1.3462  0.7122
  821MOL0     H13261  10.583   7.187   9.757  2.0268  3.9137  1.4134
  821MOL0     H13262  10.758   7.444   9.678  1.3866 -0.1820  0.3331
  821MOL0     H13263  10.766   7.275   9.679  2.3946 -1.3660 -1.5382
  821MOL0     H13264  10.860   7.433   9.432 -0.6234  0.7872 -0.0766
  821MOL0     H13265  10.950   7.422   9.587 -0.5485 -1.0272  1.8652
  821MOL0     H13266  10.837   7.217   9.383  0.3415  0.4027  0.4676
  821MOL0     H13267  10.894   7.162   9.551  1.3396  0.1732 -0.1758
  821MOL0     H13268  11.086   7.140   9.440  1.3020  0.4449 -0.5777
  821MOL0     H13269  11.105   7.314   9.442 -1.3823  0.1006  1.8389
  821MOL0     H13270  10.987   7.157   9.220 -1.7887  0.8233  0.8453
  821MOL0     H13271  10.994   7.339   9.225 -3.2021 -1.4910 -1.2308
  821MOL0     H13272  11.253   7.155   9.254  1.0566 -1.4788 -3.9292
  821MOL0     H13273  11.251   7.328   9.244  2.9832 -0.8910  0.2879
  821MOL0     H13274  11.208   7.122   9.039 -0.4590 -0.0316  0.3844
  821MOL0     H13275  11.324   7.266   9.042 -0.4797  0.6611 -0.6731
  821MOL0     H13276  11.166   7.420   8.980 -0.9569  0.5896  0.4575
  821MOL0     H13277  11.023   7.324   8.995  0.2737  3.9111 -1.9708
  821MOL0     H13278  10.434   7.487   9.508 -2.2280 -1.2566 -1.7126
  821MOL0     H13279  10.197   7.458   9.610  1.1075  2.0466 -0.8001
  821MOL0     H13280  10.001   7.444   9.930 -0.2050 -0.7270  1.8303
  821MOL0     H13281   9.793   7.500  10.060 -1.2670 -2.8652  2.6749
  821MOL0     H13282   8.194   7.054  11.025  0.6660 -0.0292  0.8667
  821MOL0     H13283   7.995   7.113  11.173  0.9442 -0.0087  1.3197
  821MOL0     H13284   7.681   7.456  11.178  0.9507 -1.7850 -1.4625
  821MOL0     H13285   7.457   7.495  11.229 -0.9026  0.4546  0.2196
  821MOL0     H13286   7.276   7.557  11.413  2.3448  0.5444 -0.8784
  821MOL0     H13287   7.240   7.465  11.268  2.3934 -2.0275  0.4156
  821MOL0     H13288   7.088   7.493  11.533  1.1922  0.1913 -0.8964
  821MOL0     H13289   7.037   7.368  11.410 -1.2842  0.3931 -0.1830
  821MOL0     H13290   7.051   7.673  11.329  0.3597  0.0131  0.2526
  821MOL0     H13291   6.982   7.540  11.242  0.1684  0.2230  0.0657
  821MOL0     H13292   6.802   7.687  11.363  2.0188  1.5095  1.8181
  821MOL0     H13293   6.881   7.620  11.516  0.6394  1.4897  0.8733
  821MOL0     H13294   6.658   7.302  11.334  1.9456 -1.1322  1.6242
  821MOL0     H13295   7.471   7.190  11.533 -0.0381  1.1100  1.5237
  821MOL0     H13296   7.658   7.039  11.548 -2.4143  0.3767 -1.2624
  821MOL0     H13297   7.802   7.066  11.454  2.0066  1.4522  0.4567
  821MOL0     H13298   7.779   7.161  11.604 -3.1300  1.1734 -0.0103
  822MOL0     O13299  10.855  10.192  10.283  0.5793  0.3399  0.3008
  822MOL0     C13300  10.957  10.213  10.224 -0.1758 -0.6489  0.6590
  822MOL0     O13301  10.992  10.338  10.172  0.1914  0.1663  0.1429
  822MOL0     C13302  10.908  10.446  10.183  0.0743 -0.3527  0.0624
  822MOL0     C13303  10.771  10.441  10.172  0.5382 -0.0192  0.7105
  822MOL0     C13304  10.706  10.565  10.191 -0.5783 -0.2082 -0.5245
  822MOL0     C13305  10.776  10.689  10.202  0.4676  0.3345  0.1185
  822MOL0     O13306  10.707  10.805  10.210  0.2701 -0.2332 -0.1250
  822MOL0     C13307  10.769  10.932  10.248  0.3640  1.6328  0.3622
  822MOL0     C13308  10.673  11.020  10.324  0.0422  0.4789  0.5597
  822MOL0     C13309  10.646  10.981  10.472  0.6107  0.0841  0.1268
  822MOL0     C13310  10.530  11.076  10.519  0.0088  0.4989  0.6250
  822MOL0     C13311  10.490  11.036  10.665  0.0523  0.3948  0.2908
  822MOL0     C13312  10.376  11.128  10.703  0.0403  0.1019 -0.3019
  822MOL0     C13313  10.289  11.082  10.825 -0.2992 -0.3885  0.0629
  822MOL0     C13314  10.365  11.096  10.959 -0.6014 -1.1088  0.2475
  822MOL0     N13315  10.288  11.054  11.070 -0.0699 -0.4617  0.5270
  822MOL0     C13316  10.171  11.097  11.118 -0.3653  0.0662 -0.1834
  822MOL0     C13317  10.130  10.993  11.189  0.0118  0.3328 -1.0228
  822MOL0     C13318  10.002  10.977  11.266  0.0095  1.0521 -0.8353
  822MOL0     C13319   9.873  10.980  11.182 -0.0688  0.2853 -0.1597
  822MOL0     C13320   9.745  11.033  11.250  0.1756 -0.2850  0.4058
  822MOL0     C13321   9.619  10.976  11.184  0.5011 -0.2870 -0.5426
  822MOL0     O13322   9.606  10.828  11.205  0.0707  0.2043 -0.0527
  822MOL0     C13323   9.543  10.765  11.100  0.9725 -0.6419  0.1225
  822MOL0     C13324   9.415  10.714  11.121 -0.5138  0.8288 -0.4058
  822MOL0     C13325   9.334  10.659  11.023  1.0091  0.3961  0.1082
  822MOL0     C13326   9.188  10.628  11.075 -0.3597  0.2301 -0.2098
  822MOL0     C13327   9.388  10.636  10.886 -0.3789 -0.8496  0.6721
  822MOL0     C13328   9.316  10.572  10.771  0.8040 -0.5776 -1.2930
  822MOL0     O13329   9.179  10.551  10.779  0.3258  0.2776 -0.0418
  822MOL0     C13330   9.098  10.494  10.683  0.9082 -0.2064  0.8335
  822MOL0     C13331   9.136  10.466  10.553  0.0827 -0.4335 -0.4409
  822MOL0     C13332   9.044  10.422  10.456 -0.3819 -0.4966  0.4795
  822MOL0     C13333   8.911  10.405  10.498 -0.4180 -0.1503 -0.5397
  822MOL0     O13334   8.808  10.364  10.413  0.1497 -0.4200 -0.5487
  822MOL0     C13335   8.848  10.319  10.284 -0.0902 -0.7313 -0.3259
  822MOL0     C13336   8.747  10.208  10.240  0.3238  0.1011 -0.1173
  822MOL0     C13337   8.742  10.205  10.090 -0.3440 -0.3055 -0.0398
  822MOL0     C13338   8.736  10.048  10.042  0.2305 -0.5659  0.5559
  822MOL0     C13339   8.744  10.042   9.893  0.6015 -0.7439  0.1083
  822MOL0     C13340   8.688   9.917   9.839 -0.4165 -0.2306  0.4282
  822MOL0     C13341   8.709   9.913   9.692 -0.3087  0.1267  0.3184
  822MOL0     C13342   8.861   9.901   9.637  0.2193  0.3893  0.0151
  822MOL0    Cl13343   8.944   9.750   9.670 -0.3156  0.0108 -0.0165
  822MOL0     C13344   8.871  10.440  10.629  0.5616  0.5146  0.8788
  822MOL0     C13345   8.960  10.495  10.722 -0.3906  0.5259  0.1193
  822MOL0     O13346   9.387  10.534  10.684 -0.0763 -0.3491  0.4567
  822MOL0     C13347   9.519  10.686  10.870 -1.1480  0.3081 -0.0724
  822MOL0     C13348   9.595  10.758  10.973  0.0506  0.3373 -0.3440
  822MOL0     N13349  10.222  10.897  11.195 -0.2131  0.2839 -0.5901
  822MOL0     N13350  10.323  10.942  11.129 -0.3273 -0.6430 -0.2440
  822MOL0     C13351  10.911  10.694  10.181 -0.0143  0.6221  0.3076
  822MOL0     C13352  10.975  10.573  10.172  0.6385  0.3069 -0.1173
  822MOL0     C13353  11.049  10.095  10.195  0.8180  0.3618 -1.0199
  822MOL0     C13354  10.990   9.966  10.221  0.3909  0.5740  0.6765
  822MOL0     C13355  11.066   9.852  10.200 -0.5585  0.8836  0.4654
  822MOL0     C13356  11.198   9.859  10.164 -0.1794 -0.2985  0.4403
  822MOL0     O13357  11.275   9.739  10.147  0.5471 -0.0110  1.1777
  822MOL0     C13358  11.387   9.733  10.053  0.2605  0.7393  0.1099
  822MOL0     C13359  11.442   9.596  10.066 -0.1856 -0.2190  0.5009
  822MOL0     C13360  11.570   9.570   9.981  1.0871  0.8594 -0.4776
  822MOL0     C13361  11.524   9.549   9.832 -0.9245  0.1212 -0.1947
  822MOL0     C13362  11.452   9.422   9.800  0.4624 -0.6241  0.1154
  822MOL0     C13363  11.385   9.327   9.760  0.1817 -0.5418  0.7222
  822MOL0     C13364  11.252   9.988  10.148 -0.5875 -0.6088 -0.3775
  822MOL0     C13365  11.186  10.110  10.168 -0.4612 -0.1652  1.0720
  822MOL0     C13366  11.261  10.234  10.137 -0.8498  0.1342 -0.2320
  822MOL0     H13367  10.715  10.351  10.150 -3.2979  2.6243 -1.4812
  822MOL0     H13368  10.599  10.563  10.207 -0.8076  0.7580 -1.7579
  822MOL0     H13369  10.791  10.984  10.154  0.7371  0.5942 -0.1352
  822MOL0     H13370  10.866  10.913  10.296  0.2805 -1.9316 -0.6706
  822MOL0     H13371  10.712  11.122  10.325 -0.9202  0.8690  1.8397
  822MOL0     H13372  10.582  11.024  10.264 -0.4652  1.3316  1.3662
  822MOL0     H13373  10.600  10.882  10.470  0.2693  0.2208 -2.5224
  822MOL0     H13374  10.734  10.985  10.537 -0.1256  2.4483  1.1014
  822MOL0     H13375  10.573  11.177  10.524  1.9753 -0.2744  0.1017
  822MOL0     H13376  10.447  11.066  10.448 -0.7549 -1.4855  1.7118
  822MOL0     H13377  10.573  11.038  10.737 -0.3220  2.5402  0.7303
  822MOL0     H13378  10.458  10.932  10.656  1.7013 -0.0318 -1.3871
  822MOL0     H13379  10.411  11.230  10.721 -0.0535  0.0352  0.2936
  822MOL0     H13380  10.306  11.128  10.619 -1.9489 -2.9063  1.1419
  822MOL0     H13381  10.246  10.982  10.813  1.2528 -1.2878  1.5496
  822MOL0     H13382  10.206  11.152  10.840  1.2626  1.2143  1.6152
  822MOL0     H13383  10.455  11.034  10.963  2.1805  2.4834 -1.0924
  822MOL0     H13384  10.403  11.198  10.968 -1.4843 -0.8070  0.7013
  822MOL0     H13385  10.121  11.193  11.106 -3.6261 -1.2724  1.5474
  822MOL0     H13386   9.997  11.065  11.331 -0.9837  0.5037 -0.1424
  822MOL0     H13387  10.006  10.884  11.322 -0.3954  0.0117 -2.4679
  822MOL0     H13388   9.884  11.040  11.092 -1.0221  0.3035 -0.2721
  822MOL0     H13389   9.850  10.878  11.153  0.7341  0.0285  0.0617
  822MOL0     H13390   9.750  11.027  11.359  0.5620  2.8254  0.6504
  822MOL0     H13391   9.754  11.141  11.238  1.6833 -0.1573  2.1833
  822MOL0     H13392   9.527  11.026  11.215  1.4560  0.4469  1.2488
  822MOL0     H13393   9.627  11.016  11.082 -4.3466  2.5509 -0.0965
  822MOL0     H13394   9.371  10.729  11.219  0.0261  0.5887 -0.1233
  822MOL0     H13395   9.183  10.604  11.181  0.9932 -0.2847 -0.2421
  822MOL0     H13396   9.145  10.545  11.019  0.7338  0.2564 -1.1337
  822MOL0     H13397   9.125  10.714  11.050 -0.0280  0.6817  0.4809
  822MOL0     H13398   9.241  10.466  10.524  0.4928 -2.6506  0.8097
  822MOL0     H13399   9.085  10.416  10.356  1.1309  0.5327  0.9973
  822MOL0     H13400   8.846  10.398  10.209  1.7316  0.4882  0.8279
  822MOL0     H13401   8.949  10.279  10.271  1.3698  1.1077  3.7490
  822MOL0     H13402   8.773  10.109  10.279  3.3003  1.6668  2.2207
  822MOL0     H13403   8.645  10.232  10.273  0.4872 -1.3001  1.5516
  822MOL0     H13404   8.838  10.242  10.051 -1.4263  1.9232 -0.7950
  822MOL0     H13405   8.656  10.266  10.059  0.0197  0.1989 -0.0779
  822MOL0     H13406   8.647  10.008  10.092  0.1801  1.6062  2.3265
  822MOL0     H13407   8.822   9.987  10.071  0.5660 -0.1489  0.4506
  822MOL0     H13408   8.702  10.131   9.843 -1.1407 -0.8771  1.2496
  822MOL0     H13409   8.852  10.052   9.881  1.1359 -1.4902  3.3461
  822MOL0     H13410   8.583   9.904   9.864  0.1202 -1.5062  2.2060
  822MOL0     H13411   8.742   9.830   9.878  1.8146 -0.2265 -2.2753
  822MOL0     H13412   8.666   9.998   9.639  1.9360 -0.8478 -3.4310
  822MOL0     H13413   8.658   9.824   9.653 -1.7777  2.0907 -2.6256
  822MOL0     H13414   8.923   9.986   9.669  0.1723  0.2326  0.5213
  822MOL0     H13415   8.854   9.905   9.528  2.5274  1.2178 -0.1552
  822MOL0     H13416   8.771  10.419  10.665  1.2660 -0.9950  2.0898
  822MOL0     H13417   8.934  10.525  10.823  1.7419 -0.8853  1.1587
  822MOL0     H13418   9.567  10.659  10.777 -0.1263 -0.7106  0.7216
  822MOL0     H13419   9.695  10.798  10.960 -0.2286  1.7507  1.4294
  822MOL0     H13420  10.979  10.775  10.157  1.0657  0.2659  1.9731
  822MOL0     H13421  11.084  10.574  10.167  0.7695  1.1574  1.8757
  822MOL0     H13422  10.882   9.968  10.238  0.5784  0.0744  2.0117
  822MOL0     H13423  11.020   9.755  10.210  0.7627  0.3621  1.7882
  822MOL0     H13424  11.355   9.745   9.949 -0.6734  1.5685  0.4783
  822MOL0     H13425  11.455   9.818  10.066 -1.7419  2.4582 -0.1712
  822MOL0     H13426  11.364   9.525  10.037 -1.4430  1.9945 -1.9892
  822MOL0     H13427  11.465   9.579  10.172  0.5885  2.4473  0.8331
  822MOL0     H13428  11.627   9.663   9.993  1.1393  0.6394  1.1636
  822MOL0     H13429  11.625   9.482  10.016 -2.8079 -2.6642 -2.3020
  822MOL0     H13430  11.619   9.550   9.778 -0.8310 -1.9450 -0.1447
  822MOL0     H13431  11.470   9.635   9.791  0.5897 -0.2885 -3.3352
  822MOL0     H13432  11.341   9.241   9.715 -2.9387  1.6988 -0.8797
  822MOL0     H13433  11.358   9.995  10.130  0.0566 -2.2625  2.3099
  822MOL0     H13434  11.231  10.276  10.041 -1.4138 -0.9981 -0.5649
  822MOL0     H13435  11.245  10.319  10.205  5.4702  0.9559  0.8555
  822MOL0     H13436  11.369  10.223  10.147 -0.7291  2.2060  1.3830
  823MOL0     O13437   1.500   3.575   5.747 -0.0352  0.4609 -0.5213
  823MOL0     C13438   1.463   3.509   5.649  0.5346 -0.0797  0.1039
  823MOL0     O13439   1.522   3.393   5.611  0.5839 -0.2160 -0.2221
  823MOL0     C13440   1.610   3.336   5.698 -0.2277 -0.0184  1.0434
  823MOL0     C13441   1.744   3.310   5.647 -0.5662  0.0330 -0.1638
  823MOL0     C13442   1.837   3.237   5.717  0.1914  0.4029 -0.3285
  823MOL0     C13443   1.812   3.187   5.844 -0.7596 -0.2261  0.0871
  823MOL0     O13444   1.903   3.116   5.921 -0.1145  0.9259 -0.0871
  823MOL0     C13445   1.867   3.059   6.049  0.5724  0.3743 -0.0955
  823MOL0     C13446   2.001   3.038   6.132 -0.2255  0.7143  0.9341
  823MOL0     C13447   2.089   2.923   6.073 -0.1826 -0.4308 -0.0052
  823MOL0     C13448   2.216   2.892   6.153  0.2227  0.1722 -0.0827
  823MOL0     C13449   2.301   2.792   6.080 -0.8078  0.3264  0.1433
  823MOL0     C13450   2.365   2.860   5.964  0.3129  0.5258  0.0290
  823MOL0     C13451   2.488   2.789   5.933  0.4709  0.1812  0.0460
  823MOL0     C13452   2.572   2.875   5.833 -0.0924 -0.4588 -0.9302
  823MOL0     N13453   2.665   2.791   5.762  0.3130 -0.0792  0.3241
  823MOL0     C13454   2.802   2.797   5.760  0.5231  0.1926 -0.2775
  823MOL0     C13455   2.838   2.709   5.664  0.2094 -0.5245  0.1518
  823MOL0     C13456   2.979   2.680   5.621  0.1690 -0.2767 -0.3461
  823MOL0     C13457   3.076   2.642   5.738  0.8645  0.4225  0.0008
  823MOL0     C13458   3.043   2.511   5.808  0.7751 -0.2950  0.1993
  823MOL0     C13459   3.163   2.439   5.871  0.6920 -0.0071  0.2322
  823MOL0     O13460   3.207   2.537   5.968  0.1393 -0.4766 -0.0237
  823MOL0     C13461   3.319   2.514   6.044 -0.4349  0.1309 -0.1806
  823MOL0     C13462   3.340   2.382   6.097  0.3021 -0.6365  0.4982
  823MOL0     C13463   3.446   2.360   6.183 -0.7098  0.0172  0.1629
  823MOL0     C13464   3.454   2.229   6.248  0.0513 -0.5775  0.3826
  823MOL0     C13465   3.545   2.461   6.207 -0.5002  0.1112 -0.2057
  823MOL0     C13466   3.669   2.434   6.278 -0.1834  0.2509  0.1984
  823MOL0     O13467   3.756   2.540   6.290  0.3269 -0.1842  0.5894
  823MOL0     C13468   3.861   2.535   6.371 -1.0776  0.5625 -0.3899
  823MOL0     C13469   3.897   2.432   6.469 -0.4019  0.5483  0.2999
  823MOL0     C13470   4.017   2.448   6.540 -0.3900  0.8554  0.6615
  823MOL0     C13471   4.104   2.553   6.518  0.4689 -0.3670 -0.8802
  823MOL0     O13472   4.222   2.568   6.591  0.1318 -0.1499 -1.0436
  823MOL0     C13473   4.239   2.514   6.732 -0.7559  0.2837  1.3566
  823MOL0     C13474   4.148   2.574   6.841 -0.3746 -0.3345  0.1931
  823MOL0     C13475   4.191   2.533   6.981  0.3721 -0.2780 -0.1368
  823MOL0     C13476   4.099   2.600   7.094 -0.5518  1.3144 -0.9600
  823MOL0     C13477   4.163   2.566   7.236  0.5976 -0.2113  0.0150
  823MOL0     C13478   4.147   2.675   7.341  0.2817  0.0868  0.8309
  823MOL0     C13479   4.199   2.640   7.475 -1.1726 -0.2902  0.3481
  823MOL0     C13480   4.144   2.730   7.587 -0.4276  0.0664  0.3667
  823MOL0    Cl13481   3.966   2.718   7.607  0.2900  0.2864  0.4328
  823MOL0     C13482   4.063   2.647   6.423 -0.0276 -0.9409 -0.3087
  823MOL0     C13483   3.946   2.637   6.346  0.6828 -0.4490 -0.4231
  823MOL0     O13484   3.685   2.326   6.329 -0.1516 -0.1491  0.0444
  823MOL0     C13485   3.526   2.589   6.151 -0.4659  0.6384 -0.4735
  823MOL0     C13486   3.407   2.612   6.081 -0.0931 -0.2207  0.1244
  823MOL0     N13487   2.725   2.637   5.620 -0.0475  0.0454 -0.1645
  823MOL0     N13488   2.622   2.693   5.672 -0.4159 -0.4240  0.1574
  823MOL0     C13489   1.680   3.203   5.884  0.3457 -0.0575 -0.5827
  823MOL0     C13490   1.577   3.277   5.822 -0.8665  0.0281  0.9886
  823MOL0     C13491   1.344   3.553   5.572 -0.0984 -0.5770 -0.6296
  823MOL0     C13492   1.269   3.444   5.523 -1.3238 -0.1594  0.2038
  823MOL0     C13493   1.150   3.459   5.454  0.1268 -0.3488  0.4488
  823MOL0     C13494   1.086   3.587   5.452 -0.3365 -0.6642  0.3633
  823MOL0     O13495   0.960   3.601   5.399  0.3416  0.0942  0.0619
  823MOL0     C13496   0.900   3.728   5.382  0.0755 -0.3602  0.1165
  823MOL0     C13497   0.764   3.696   5.313  1.0994  0.0989 -0.1881
  823MOL0     C13498   0.701   3.837   5.279  0.1910  0.2818  0.7330
  823MOL0     C13499   0.597   3.825   5.167  0.7566  0.4074 -0.7893
  823MOL0     C13500   0.532   3.950   5.138  0.3737 -0.2026  0.0425
  823MOL0     C13501   0.500   4.067   5.106 -0.5681 -0.2204  0.0435
  823MOL0     C13502   1.163   3.696   5.499  0.0515 -0.1925  0.8930
  823MOL0     C13503   1.283   3.679   5.566 -1.0676 -0.3914  0.2095
  823MOL0     C13504   1.352   3.796   5.628  0.7400  0.8022  0.8193
  823MOL0     H13505   1.763   3.361   5.552  3.3351 -0.0691  0.4123
  823MOL0     H13506   1.934   3.213   5.674  2.0161  0.9408  3.0938
  823MOL0     H13507   1.814   2.966   6.024  1.0916 -0.2436  1.0354
  823MOL0     H13508   1.794   3.117   6.107  0.1707  0.2185 -0.4369
  823MOL0     H13509   2.060   3.130   6.139  1.2407 -0.1982  0.8851
  823MOL0     H13510   1.966   2.997   6.227 -2.7487 -3.7855 -1.6221
  823MOL0     H13511   2.020   2.838   6.076 -0.5723 -0.1355 -0.4904
  823MOL0     H13512   2.120   2.951   5.972  1.0583  1.5648  0.8728
  823MOL0     H13513   2.272   2.982   6.179  0.4819  0.5518 -1.8226
  823MOL0     H13514   2.170   2.853   6.245  2.2786  1.0859  1.3995
  823MOL0     H13515   2.239   2.714   6.034  1.6805 -0.7406 -1.6063
  823MOL0     H13516   2.381   2.748   6.141  0.6858  1.2543 -1.0885
  823MOL0     H13517   2.300   2.869   5.876 -0.2129 -0.7522  0.2627
  823MOL0     H13518   2.380   2.963   5.997 -4.2411  0.7756  2.1188
  823MOL0     H13519   2.472   2.688   5.894 -0.9715  0.2319  0.4451
  823MOL0     H13520   2.557   2.776   6.017  0.8272  1.5154 -0.0225
  823MOL0     H13521   2.501   2.918   5.763  0.4013  0.5984 -0.7922
  823MOL0     H13522   2.629   2.957   5.877  0.5671 -1.2523 -0.2792
  823MOL0     H13523   2.873   2.856   5.817  0.1893  2.4206 -2.0411
  823MOL0     H13524   3.028   2.765   5.573 -2.1145  1.6578  0.5325
  823MOL0     H13525   2.972   2.592   5.557  1.5575 -0.5165 -0.2042
  823MOL0     H13526   3.181   2.651   5.707  0.7380 -0.0550 -0.5815
  823MOL0     H13527   3.066   2.720   5.813 -1.7012  1.2914 -1.1443
  823MOL0     H13528   2.963   2.521   5.882 -0.9109  0.3226 -1.6143
  823MOL0     H13529   3.003   2.447   5.728 -0.5934 -0.6958  1.1552
  823MOL0     H13530   3.117   2.350   5.914 -0.2598 -1.3217 -3.1859
  823MOL0     H13531   3.236   2.406   5.797  0.5739  1.9545 -0.8318
  823MOL0     H13532   3.266   2.305   6.080 -0.4256  0.6687 -2.9665
  823MOL0     H13533   3.541   2.180   6.203 -0.1450 -1.0170  0.4721
  823MOL0     H13534   3.364   2.169   6.231 -0.5158  0.4173 -0.1803
  823MOL0     H13535   3.466   2.235   6.356  2.8828  0.3775  0.1038
  823MOL0     H13536   3.844   2.340   6.490  0.6009  0.3708  2.2694
  823MOL0     H13537   4.054   2.370   6.606  0.7297  0.2493 -0.6473
  823MOL0     H13538   4.224   2.406   6.729  2.0277 -0.1490  0.5289
  823MOL0     H13539   4.345   2.535   6.747  0.4359 -1.1491 -3.5220
  823MOL0     H13540   4.159   2.682   6.837 -3.2488  0.1967  2.8048
  823MOL0     H13541   4.042   2.550   6.831 -0.4850 -0.1296  0.8383
  823MOL0     H13542   4.295   2.559   7.005  0.3081 -1.8070  2.1315
  823MOL0     H13543   4.174   2.425   6.990 -1.5212 -0.1804 -1.9084
  823MOL0     H13544   3.993   2.574   7.094 -0.6575  1.2107  2.8713
  823MOL0     H13545   4.096   2.708   7.076 -3.7083  1.0575 -2.7996
  823MOL0     H13546   4.125   2.469   7.269 -1.0466  1.4074  3.4015
  823MOL0     H13547   4.272   2.560   7.232  0.5360 -4.0091  0.4628
  823MOL0     H13548   4.039   2.692   7.347  0.0660  2.5648 -4.4636
  823MOL0     H13549   4.208   2.756   7.302 -0.0246 -0.6880 -1.4321
  823MOL0     H13550   4.307   2.656   7.476 -0.9193 -1.8383 -0.5894
  823MOL0     H13551   4.178   2.534   7.489  1.7696 -0.8040  1.4681
  823MOL0     H13552   4.166   2.837   7.576 -1.4532  0.2541  0.0871
  823MOL0     H13553   4.191   2.695   7.679 -1.4562 -0.9755  0.5081
  823MOL0     H13554   4.130   2.729   6.402  0.8000 -0.8370  2.3972
  823MOL0     H13555   3.919   2.715   6.275 -1.1298  0.3633  1.0800
  823MOL0     H13556   3.589   2.677   6.163 -0.0823  0.6110 -2.1130
  823MOL0     H13557   3.377   2.709   6.044 -0.9538 -0.0657  1.1954
  823MOL0     H13558   1.647   3.161   5.979  0.2084  0.0047 -0.6028
  823MOL0     H13559   1.473   3.275   5.854 -1.5148  0.3155 -0.9823
  823MOL0     H13560   1.313   3.345   5.520  1.3093  0.8181  2.5860
  823MOL0     H13561   1.092   3.375   5.419 -0.8001 -0.0283  1.1748
  823MOL0     H13562   0.873   3.777   5.476  0.8236 -2.1068  1.2888
  823MOL0     H13563   0.955   3.802   5.324  0.3257  0.4932  1.4102
  823MOL0     H13564   0.698   3.633   5.375 -0.4761  1.0619 -0.8156
  823MOL0     H13565   0.782   3.644   5.218  2.6036  1.4074 -0.6564
  823MOL0     H13566   0.667   3.885   5.372 -1.8895 -2.2194  1.4003
  823MOL0     H13567   0.779   3.897   5.231 -1.3886  0.2962 -2.0136
  823MOL0     H13568   0.522   3.749   5.190 -0.0403  1.6919  1.1520
  823MOL0     H13569   0.650   3.796   5.076  1.6286  0.8257 -0.4298
  823MOL0     H13570   0.471   4.168   5.085 -0.0739 -0.1940 -0.5219
  823MOL0     H13571   1.125   3.797   5.487  1.5534  0.0754 -2.5768
  823MOL0     H13572   1.308   3.890   5.596  1.4349  1.3442  1.4214
  823MOL0     H13573   1.349   3.793   5.738 -2.6869  2.7806  0.9014
  823MOL0     H13574   1.452   3.789   5.584  0.3702  0.7765 -0.0375
  824MOL0     O13575   1.371   6.023   2.941  0.1116 -0.9129 -0.4154
  824MOL0     C13576   1.342   5.930   3.021 -0.4808 -0.6545  0.3875
  824MOL0     O13577   1.426   5.873   3.111 -0.2983 -0.4328 -0.0578
  824MOL0     C13578   1.562   5.905   3.102  0.5016  0.0270  0.3105
  824MOL0     C13579   1.639   5.792   3.142 -0.4132  0.1152 -0.3619
  824MOL0     C13580   1.779   5.808   3.159  0.2988 -0.3147  0.2264
  824MOL0     C13581   1.848   5.926   3.119  0.1296 -0.8760  0.2804
  824MOL0     O13582   1.983   5.931   3.125 -0.1606 -0.4789  0.2020
  824MOL0     C13583   2.047   5.900   3.243 -0.9487 -0.7455 -0.1863
  824MOL0     C13584   2.103   6.041   3.291  0.7218  0.7975  0.2868
  824MOL0     C13585   2.226   6.098   3.213  0.1874  0.3692 -0.7271
  824MOL0     C13586   2.307   6.212   3.277  0.2921  0.2453 -0.8691
  824MOL0     C13587   2.414   6.275   3.179 -0.0421  0.7246 -0.7325
  824MOL0     C13588   2.440   6.419   3.210 -0.6770 -0.8309  0.8566
  824MOL0     C13589   2.543   6.484   3.110 -0.3691 -0.3047 -0.7989
  824MOL0     C13590   2.689   6.453   3.157  1.0111  0.2207 -0.2602
  824MOL0     N13591   2.784   6.478   3.045  0.6726  0.6079 -0.2971
  824MOL0     C13592   2.837   6.370   2.982 -0.3972  0.5104  0.3813
  824MOL0     C13593   2.947   6.421   2.914 -0.5732 -0.2197  0.7257
  824MOL0     C13594   3.033   6.346   2.818 -0.0197  0.4830  0.3289
  824MOL0     C13595   2.988   6.405   2.678  0.3736  0.1325  1.1857
  824MOL0     C13596   3.069   6.336   2.567  0.3226  0.3858 -0.4263
  824MOL0     C13597   3.226   6.315   2.588  0.5007  0.4534  0.3263
  824MOL0     O13598   3.259   6.178   2.621  0.1668  0.1039 -1.0511
  824MOL0     C13599   3.388   6.142   2.612 -0.2740 -0.0075  0.4224
  824MOL0     C13600   3.422   6.011   2.564  1.2070 -1.0769  0.2540
  824MOL0     C13601   3.549   5.965   2.567  0.2018 -0.0652  0.0371
  824MOL0     C13602   3.564   5.820   2.533  0.5161 -0.2951  0.1227
  824MOL0     C13603   3.657   6.048   2.615 -0.0597  0.1269 -0.1604
  824MOL0     C13604   3.800   6.010   2.646  0.0379 -0.0689 -0.0559
  824MOL0     O13605   3.881   6.113   2.671  0.1045  0.5729  0.2066
  824MOL0     C13606   3.988   6.121   2.750 -1.2221  0.1960  0.8353
  824MOL0     C13607   4.003   6.032   2.858  0.2103 -0.3370  0.2772
  824MOL0     C13608   4.112   6.035   2.948  0.2398  0.5628  0.5098
  824MOL0     C13609   4.215   6.129   2.915 -0.0683 -0.2703  1.4383
  824MOL0     O13610   4.325   6.146   2.996 -0.4045  0.8073 -0.2509
  824MOL0     C13611   4.346   6.067   3.110 -0.3954  0.9174  0.0161
  824MOL0     C13612   4.461   6.117   3.188 -0.3428  0.2040  0.2904
  824MOL0     C13613   4.592   6.126   3.104  0.3371  0.3880  0.5707
  824MOL0     C13614   4.704   6.158   3.186 -0.7639  0.1350  0.3272
  824MOL0     C13615   4.834   6.157   3.102 -0.4169 -0.3173 -0.3105
  824MOL0     C13616   4.948   6.191   3.198 -0.7283 -0.2732  0.1615
  824MOL0     C13617   5.088   6.190   3.130  0.7148  0.2233 -0.2914
  824MOL0     C13618   5.186   6.261   3.224  0.2995 -0.1175  0.1910
  824MOL0    Cl13619   5.230   6.161   3.350 -0.0713 -0.0434 -0.1180
  824MOL0     C13620   4.201   6.216   2.811 -0.3957  0.3240  0.0616
  824MOL0     C13621   4.090   6.217   2.723  0.0890 -0.1933  0.0511
  824MOL0     O13622   3.841   5.896   2.631  0.1917  0.2212 -0.3514
  824MOL0     C13623   3.621   6.182   2.654  0.1436  0.4173 -0.3467
  824MOL0     C13624   3.489   6.226   2.661  0.1609 -0.5997  0.5342
  824MOL0     N13625   2.961   6.556   2.946 -0.1392  0.8969 -0.7841
  824MOL0     N13626   2.867   6.583   3.028 -0.7771 -0.2874  0.4617
  824MOL0     C13627   1.767   6.028   3.074 -0.1706  0.8318  0.2010
  824MOL0     C13628   1.633   6.019   3.068  0.8900  0.1625 -0.6020
  824MOL0     C13629   1.202   5.896   3.035  0.0955 -0.3491  0.3212
  824MOL0     C13630   1.101   5.977   2.968 -1.4652 -0.0743 -0.3582
  824MOL0     C13631   0.966   5.943   2.967 -0.0946  0.3934 -0.7705
  824MOL0     C13632   0.922   5.823   3.034  0.2283 -0.7397 -0.6538
  824MOL0     O13633   0.789   5.793   3.024  0.0564  0.7568  0.5902
  824MOL0     C13634   0.746   5.656   3.029 -1.0934 -0.5450  0.2707
  824MOL0     C13635   0.603   5.655   2.986 -0.0694 -0.1514  0.5598
  824MOL0     C13636   0.593   5.657   2.830 -0.7492 -1.1642 -0.2013
  824MOL0     C13637   0.453   5.633   2.786 -0.4377 -0.5084  0.8155
  824MOL0     C13638   0.346   5.724   2.845 -0.2178 -0.7026  0.0004
  824MOL0     C13639   0.255   5.790   2.894 -0.1771  0.8001  0.1045
  824MOL0     C13640   1.017   5.754   3.112 -0.0453  0.3257 -0.0139
  824MOL0     C13641   1.154   5.785   3.111 -0.3114 -0.0032 -1.0759
  824MOL0     C13642   1.235   5.709   3.200 -0.4618 -0.5885 -0.4743
  824MOL0     H13643   1.588   5.704   3.182 -2.4507  1.9834  1.3977
  824MOL0     H13644   1.831   5.720   3.196  0.7738  0.6458  1.9343
  824MOL0     H13645   2.121   5.825   3.215 -0.8566 -0.8258  0.2665
  824MOL0     H13646   1.981   5.859   3.321 -1.4444  1.3508  0.5420
  824MOL0     H13647   2.012   6.101   3.292  0.0857 -0.0791  3.0225
  824MOL0     H13648   2.125   6.022   3.396  0.9738  0.7680  0.2303
  824MOL0     H13649   2.298   6.019   3.193  1.6227  1.4520  0.0311
  824MOL0     H13650   2.184   6.113   3.113 -3.0760  2.5717  0.7842
  824MOL0     H13651   2.238   6.294   3.297  0.1790  0.0230 -0.3264
  824MOL0     H13652   2.357   6.170   3.365 -0.5086  0.2866 -0.3812
  824MOL0     H13653   2.394   6.260   3.073  0.1368  2.3603 -1.0215
  824MOL0     H13654   2.509   6.219   3.182  0.1882  0.9171 -2.8511
  824MOL0     H13655   2.344   6.471   3.207  0.6977  1.9126  0.6618
  824MOL0     H13656   2.466   6.436   3.315 -3.0803  1.2306  1.2163
  824MOL0     H13657   2.534   6.593   3.110  1.6195 -0.0297  1.6561
  824MOL0     H13658   2.544   6.432   3.015 -0.3134 -2.5472  0.3693
  824MOL0     H13659   2.700   6.514   3.247 -3.5841  1.6072 -0.3839
  824MOL0     H13660   2.700   6.348   3.186  3.1983  0.2690 -0.7778
  824MOL0     H13661   2.797   6.269   2.980  0.7406  0.0452  0.5101
  824MOL0     H13662   3.013   6.239   2.823 -0.1001  0.2479 -2.7751
  824MOL0     H13663   3.138   6.353   2.845  0.4131 -1.2451 -0.7645
  824MOL0     H13664   2.880   6.395   2.666  0.5851  0.5081 -1.9336
  824MOL0     H13665   2.999   6.514   2.685 -2.8872  0.4201  4.5160
  824MOL0     H13666   3.014   6.248   2.533 -0.7595  0.5016  0.9135
  824MOL0     H13667   3.056   6.402   2.481 -1.5773 -0.5917 -0.9394
  824MOL0     H13668   3.277   6.324   2.491  0.3714  2.3539  0.3983
  824MOL0     H13669   3.271   6.392   2.651  0.3237  1.4232 -0.7085
  824MOL0     H13670   3.342   5.957   2.516  1.8994 -0.1446 -2.0631
  824MOL0     H13671   3.595   5.807   2.429 -2.6900  1.8874 -1.2838
  824MOL0     H13672   3.465   5.774   2.549  0.8102 -0.3265  2.1531
  824MOL0     H13673   3.636   5.769   2.598  0.5454 -1.9957 -1.1688
  824MOL0     H13674   3.929   5.954   2.875 -1.7555  1.1151 -1.1976
  824MOL0     H13675   4.118   5.963   3.029 -2.3644  1.1423  1.2913
  824MOL0     H13676   4.255   6.071   3.171 -0.0063 -1.1389  0.8202
  824MOL0     H13677   4.369   5.962   3.090  1.1919  1.3845 -0.7335
  824MOL0     H13678   4.433   6.214   3.232  1.1826  0.8055 -0.0212
  824MOL0     H13679   4.474   6.052   3.275 -0.0509 -0.9098 -0.5649
  824MOL0     H13680   4.581   6.201   3.025 -0.2056 -0.7210 -0.4416
  824MOL0     H13681   4.610   6.031   3.053 -0.3715  0.6245 -0.1342
  824MOL0     H13682   4.710   6.074   3.255  1.0222 -0.8843 -0.9761
  824MOL0     H13683   4.685   6.257   3.229 -0.1923  0.1834  0.4717
  824MOL0     H13684   4.837   6.051   3.075  1.0637 -0.0503 -1.2975
  824MOL0     H13685   4.827   6.229   3.020 -3.3891  3.7312  3.0677
  824MOL0     H13686   4.957   6.117   3.278  0.7112  1.8005  2.0365
  824MOL0     H13687   4.927   6.293   3.230 -0.4929 -0.2595  0.2814
  824MOL0     H13688   5.069   6.250   3.041  0.3578 -0.4783 -0.7031
  824MOL0     H13689   5.110   6.089   3.093 -2.1509 -1.2222  1.5492
  824MOL0     H13690   5.148   6.358   3.254 -0.4960 -0.3038 -0.1913
  824MOL0     H13691   5.279   6.285   3.171 -0.7043  0.9871 -1.1601
  824MOL0     H13692   4.282   6.287   2.796  0.2017  0.3884  3.0411
  824MOL0     H13693   4.096   6.290   2.643 -1.5008  2.0667  1.8475
  824MOL0     H13694   3.692   6.254   2.694  2.9841 -1.5775 -1.4560
  824MOL0     H13695   3.466   6.319   2.711 -0.7484 -2.3947  3.7023
  824MOL0     H13696   1.815   6.120   3.044  1.5179 -0.5281 -1.5888
  824MOL0     H13697   1.582   6.112   3.045 -1.9840 -1.3981 -1.0290
  824MOL0     H13698   1.137   6.066   2.916 -0.3900 -2.1291 -3.3982
  824MOL0     H13699   0.898   5.996   2.901  0.2308 -0.7008 -2.0187
  824MOL0     H13700   0.800   5.591   2.960 -0.8681 -0.7066  0.5926
  824MOL0     H13701   0.766   5.625   3.132  1.4149 -0.5507 -0.1377
  824MOL0     H13702   0.548   5.740   3.027 -3.9960 -1.8895 -0.5449
  824MOL0     H13703   0.555   5.569   3.035  2.3382 -0.4456  2.6223
  824MOL0     H13704   0.634   5.753   2.797 -0.2694 -1.8902 -1.8479
  824MOL0     H13705   0.662   5.579   2.796 -0.0795  0.3745 -2.5972
  824MOL0     H13706   0.428   5.531   2.820  0.6240 -1.1034 -0.1365
  824MOL0     H13707   0.448   5.628   2.677  1.7688 -1.1571  0.7053
  824MOL0     H13708   0.178   5.856   2.930  1.4951  1.7768  2.1398
  824MOL0     H13709   0.975   5.671   3.168  0.6147  0.1753  0.2622
  824MOL0     H13710   1.284   5.772   3.275  1.8765  0.7145 -2.8754
  824MOL0     H13711   1.178   5.628   3.246 -1.8472 -0.5921 -2.0882
  824MOL0     H13712   1.319   5.663   3.146 -0.8443 -0.7988 -0.8985
  825MOL0     O13713   2.031   8.954   3.024  0.2814 -0.3552 -0.1519
  825MOL0     C13714   2.062   9.021   2.925 -0.8892  0.2375  0.0234
  825MOL0     O13715   2.009   8.994   2.802  0.3372 -0.1293 -0.4410
  825MOL0     C13716   1.898   8.925   2.786  0.2584  0.0262  0.6369
  825MOL0     C13717   1.796   8.947   2.879 -0.4089  0.3684 -0.0247
  825MOL0     C13718   1.675   8.878   2.860  0.5972  0.4344 -0.0938
  825MOL0     C13719   1.655   8.788   2.758  0.7854 -0.1344  0.4907
  825MOL0     O13720   1.546   8.713   2.758 -0.0820 -0.5205  0.1018
  825MOL0     C13721   1.444   8.762   2.666  0.0822 -0.1189 -0.1129
  825MOL0     C13722   1.335   8.859   2.726  0.1975 -0.1086 -0.1582
  825MOL0     C13723   1.299   8.821   2.870 -0.2911  0.0939  0.2672
  825MOL0     C13724   1.245   8.679   2.874 -0.5461 -0.0117 -0.0155
  825MOL0     C13725   1.221   8.648   3.020  0.7086 -0.0184 -0.5384
  825MOL0     C13726   1.339   8.640   3.111 -0.3469  0.3861  0.6614
  825MOL0     C13727   1.460   8.554   3.061  0.1029  0.0165 -0.5954
  825MOL0     C13728   1.560   8.510   3.167  0.3663  0.2072  0.3602
  825MOL0     N13729   1.688   8.473   3.104 -0.2640 -0.4877 -0.3540
  825MOL0     C13730   1.763   8.561   3.017  0.3032  0.9172 -0.7567
  825MOL0     C13731   1.877   8.482   2.996  1.0023 -0.2153 -0.0807
  825MOL0     C13732   1.985   8.516   2.903  0.0309  0.4547 -1.0570
  825MOL0     C13733   2.102   8.594   2.979  0.3045  0.5138  0.2386
  825MOL0     C13734   2.213   8.627   2.882 -0.2163  0.4842 -0.0744
  825MOL0     C13735   2.315   8.733   2.929  0.9734 -0.4392  0.7049
  825MOL0     O13736   2.398   8.756   2.813  0.6615 -0.9582  0.8798
  825MOL0     C13737   2.528   8.789   2.838  0.1829  0.4091  0.2932
  825MOL0     C13738   2.622   8.711   2.771 -0.1502  0.2199  0.8017
  825MOL0     C13739   2.761   8.740   2.786 -0.0380  0.5708 -0.7575
  825MOL0     C13740   2.866   8.648   2.733  0.0413 -0.6863  0.2204
  825MOL0     C13741   2.793   8.861   2.857  0.6598 -0.1846  0.2985
  825MOL0     C13742   2.933   8.896   2.888  0.1342  0.5443  0.2971
  825MOL0     O13743   2.982   9.009   2.845 -0.1929 -1.0361 -0.1780
  825MOL0     C13744   3.115   9.035   2.879 -0.6094 -0.1392  0.2686
  825MOL0     C13745   3.157   9.089   3.003 -0.0010 -0.1606 -0.0740
  825MOL0     C13746   3.293   9.103   3.021 -0.3666  0.2485 -0.8269
  825MOL0     C13747   3.390   9.068   2.918 -0.7786  0.1334 -0.4912
  825MOL0     O13748   3.530   9.078   2.940 -0.0516 -0.0236 -0.0985
  825MOL0     C13749   3.596   9.175   2.859  0.0605  0.0282  0.3017
  825MOL0     C13750   3.750   9.182   2.877  0.4425  0.2125  0.5193
  825MOL0     C13751   3.819   9.083   2.780  0.4645 -0.2797  0.1082
  825MOL0     C13752   3.963   9.055   2.840  0.2858  0.2664  0.1569
  825MOL0     C13753   4.056   9.179   2.851  0.4875 -0.0471  0.3107
  825MOL0     C13754   4.184   9.132   2.918  0.8008  0.5605 -0.3692
  825MOL0     C13755   4.289   9.234   2.958 -0.4992  0.9104  0.2559
  825MOL0     C13756   4.396   9.188   3.057  0.1117 -0.1483 -0.2065
  825MOL0    Cl13757   4.510   9.077   2.976  0.2330  0.3950 -0.1343
  825MOL0     C13758   3.345   9.018   2.792 -0.1251 -0.6527 -0.1587
  825MOL0     C13759   3.211   8.999   2.781  0.2227 -0.3007 -0.7215
  825MOL0     O13760   2.998   8.809   2.949  0.1678  0.0085  0.5163
  825MOL0     C13761   2.694   8.939   2.914  0.5394  0.6500  0.8989
  825MOL0     C13762   2.561   8.901   2.905  0.3903  0.1334  1.1606
  825MOL0     N13763   1.871   8.362   3.075 -0.3124 -0.6809  0.4179
  825MOL0     N13764   1.767   8.368   3.146  0.3463  0.4296 -0.0330
  825MOL0     C13765   1.760   8.771   2.665  0.7933 -1.0960  0.2755
  825MOL0     C13766   1.876   8.845   2.670  0.0496 -0.3444  0.2783
  825MOL0     C13767   2.172   9.123   2.940 -0.6993 -0.1782  0.3656
  825MOL0     C13768   2.269   9.121   2.842  0.5152  0.0225 -0.6313
  825MOL0     C13769   2.363   9.222   2.841  0.0876  1.2410 -0.3359
  825MOL0     C13770   2.363   9.327   2.929 -0.1865  0.6749 -0.4793
  825MOL0     O13771   2.454   9.422   2.937 -1.2882  0.4950  0.2751
  825MOL0     C13772   2.562   9.419   3.039 -0.4536 -0.4246 -0.3413
  825MOL0     C13773   2.658   9.291   3.028 -0.0004 -0.0870  0.2374
  825MOL0     C13774   2.791   9.311   3.107 -0.7243  0.1623  0.7282
  825MOL0     C13775   2.884   9.423   3.054 -0.4696  0.0312 -0.2624
  825MOL0     C13776   3.009   9.432   3.129  0.6230  0.6334  0.0073
  825MOL0     C13777   3.108   9.432   3.202 -0.0871  0.8401  0.3836
  825MOL0     C13778   2.259   9.326   3.027 -0.7866 -0.5021 -0.5625
  825MOL0     C13779   2.165   9.222   3.036 -0.6442  0.6649  0.0477
  825MOL0     C13780   2.060   9.238   3.145  0.5077  0.1805 -0.0482
  825MOL0     H13781   1.811   9.019   2.958  3.1615 -0.1783 -0.0343
  825MOL0     H13782   1.591   8.897   2.925  1.1011 -0.3393  0.8041
  825MOL0     H13783   1.388   8.678   2.622  1.7539 -1.5893  0.4442
  825MOL0     H13784   1.496   8.803   2.579  0.2623 -1.4195 -0.6470
  825MOL0     H13785   1.376   8.960   2.715 -1.3010  0.5290 -0.1263
  825MOL0     H13786   1.241   8.865   2.670 -0.6785  1.7437  1.3808
  825MOL0     H13787   1.385   8.837   2.937 -1.1754  2.2583  0.9741
  825MOL0     H13788   1.220   8.891   2.897 -0.0150  0.4584  0.1450
  825MOL0     H13789   1.145   8.676   2.828 -0.2876 -1.6326 -0.5637
  825MOL0     H13790   1.305   8.602   2.824 -1.6110  0.1015 -1.5402
  825MOL0     H13791   1.168   8.552   3.018  1.1023 -0.2402 -0.4133
  825MOL0     H13792   1.155   8.721   3.068  0.8613  0.1347 -0.5621
  825MOL0     H13793   1.385   8.737   3.134  0.7482  0.6068 -2.0750
  825MOL0     H13794   1.312   8.614   3.213  2.2127  0.8395  1.5336
  825MOL0     H13795   1.511   8.620   2.990  1.3080  1.1530  1.2240
  825MOL0     H13796   1.414   8.464   3.020 -0.5205 -0.4680  1.0818
  825MOL0     H13797   1.593   8.594   3.229  1.8187 -0.1796  0.1558
  825MOL0     H13798   1.523   8.428   3.230  1.3797 -0.0529  0.6472
  825MOL0     H13799   1.728   8.651   2.969 -2.6849  1.5028  2.1110
  825MOL0     H13800   1.947   8.586   2.829 -1.7241 -2.8920 -3.6023
  825MOL0     H13801   2.028   8.433   2.847  0.0938  0.3094 -0.7984
  825MOL0     H13802   2.066   8.688   3.021 -2.2116  0.9207 -2.4965
  825MOL0     H13803   2.141   8.533   3.061  2.6736  2.5528  0.7304
  825MOL0     H13804   2.261   8.537   2.843  0.1636  1.4444 -1.9427
  825MOL0     H13805   2.170   8.672   2.792  1.4541  2.5156  0.0666
  825MOL0     H13806   2.262   8.818   2.974 -1.9655 -1.3598 -0.7397
  825MOL0     H13807   2.362   8.691   3.018 -0.2970 -0.9462  1.1524
  825MOL0     H13808   2.590   8.624   2.716 -0.4822  1.0676 -0.3847
  825MOL0     H13809   2.956   8.705   2.708  0.7187 -2.2291 -1.0466
  825MOL0     H13810   2.835   8.592   2.644  0.4859 -2.2630  1.0111
  825MOL0     H13811   2.889   8.565   2.800 -1.1542 -3.9906 -3.1121
  825MOL0     H13812   3.102   9.127   3.088  4.6407  0.7451  2.8807
  825MOL0     H13813   3.331   9.126   3.120 -0.8071  1.0766 -0.8404
  825MOL0     H13814   3.567   9.169   2.754  2.8148 -1.5852 -0.4807
  825MOL0     H13815   3.557   9.270   2.896 -1.4955 -1.0695  1.6356
  825MOL0     H13816   3.776   9.285   2.853  0.1812  0.4984  1.4336
  825MOL0     H13817   3.767   9.155   2.981 -0.1214 -2.3025  0.0262
  825MOL0     H13818   3.819   9.121   2.677  2.4348 -0.0719  0.1406
  825MOL0     H13819   3.770   8.985   2.776  1.9537 -1.0444 -0.3991
  825MOL0     H13820   4.001   8.964   2.792  0.7129  0.5125  0.0243
  825MOL0     H13821   3.940   9.024   2.942 -1.1108  1.6721  0.3041
  825MOL0     H13822   4.093   9.214   2.754  0.8561  1.2363  0.8880
  825MOL0     H13823   4.001   9.256   2.905 -1.3426 -1.9132  1.2608
  825MOL0     H13824   4.224   9.064   2.843  1.0622  0.6987 -0.3547
  825MOL0     H13825   4.155   9.070   3.004  1.3212  2.3152  1.1382
  825MOL0     H13826   4.230   9.318   2.997  0.4646  1.1302  1.2506
  825MOL0     H13827   4.340   9.253   2.863 -4.2926 -1.8432 -2.6457
  825MOL0     H13828   4.346   9.142   3.143 -3.9963  2.3978 -0.9879
  825MOL0     H13829   4.442   9.281   3.093 -1.7717  0.9459 -0.5015
  825MOL0     H13830   3.417   8.972   2.726 -0.0609 -1.4080  0.4266
  825MOL0     H13831   3.172   8.946   2.695 -0.1674  0.4275 -1.0042
  825MOL0     H13832   2.728   9.023   2.974  2.2039 -0.2711  1.3074
  825MOL0     H13833   2.480   8.953   2.955  0.3291  1.2087  0.0030
  825MOL0     H13834   1.744   8.706   2.580  0.6482  0.5745 -1.0273
  825MOL0     H13835   1.959   8.829   2.601  0.2300 -0.4481  0.5184
  825MOL0     H13836   2.272   9.041   2.769 -0.3094  0.2576 -0.9310
  825MOL0     H13837   2.445   9.224   2.770  0.9442  1.2714  0.6212
  825MOL0     H13838   2.623   9.509   3.030  0.6720 -0.7752  2.6346
  825MOL0     H13839   2.520   9.421   3.141  0.5660  0.1684  0.0816
  825MOL0     H13840   2.683   9.279   2.923  1.2768 -0.0369  0.5128
  825MOL0     H13841   2.599   9.207   3.064 -2.2148  0.1644 -2.5017
  825MOL0     H13842   2.763   9.329   3.211  0.9097  1.1145  1.0435
  825MOL0     H13843   2.859   9.226   3.101  0.3472  1.0427 -0.1301
  825MOL0     H13844   2.835   9.520   3.064  3.6149  2.3785 -0.7755
  825MOL0     H13845   2.903   9.412   2.947 -0.4716  1.8464 -0.4891
  825MOL0     H13846   3.207   9.444   3.242  0.7304  0.2328 -1.3519
  825MOL0     H13847   2.267   9.397   3.109 -0.1637 -2.1293  0.8325
  825MOL0     H13848   2.106   9.227   3.244 -1.6401 -1.0871  0.8618
  825MOL0     H13849   2.036   9.345   3.145 -1.3266 -0.1916  0.3988
  825MOL0     H13850   1.971   9.176   3.133  0.7741 -0.0552 -0.8936
  826MOL0     O13851   3.176   2.096   6.396 -0.0413  0.0082 -0.3129
  826MOL0     C13852   3.103   2.092   6.491  0.3977  0.6724 -0.8731
  826MOL0     O13853   3.131   2.018   6.604 -0.2054 -0.0887  0.0442
  826MOL0     C13854   3.256   1.958   6.612  0.0179 -0.2025  1.8288
  826MOL0     C13855   3.380   2.025   6.581  0.5875  0.6349  0.1707
  826MOL0     C13856   3.501   1.957   6.606 -0.5473 -0.7127 -0.7114
  826MOL0     C13857   3.501   1.827   6.653 -0.5698 -0.2330  0.0255
  826MOL0     O13858   3.616   1.747   6.650  0.3845  0.0766 -0.1309
  826MOL0     C13859   3.731   1.800   6.712  0.0560 -0.2452  0.1731
  826MOL0     C13860   3.788   1.671   6.777 -0.1312  0.3440 -0.0756
  826MOL0     C13861   3.901   1.696   6.880  0.8292 -0.1020 -0.4186
  826MOL0     C13862   3.975   1.562   6.920  0.4760  0.3802 -0.3759
  826MOL0     C13863   4.091   1.578   7.015  0.3781  1.1761  0.1524
  826MOL0     C13864   4.137   1.436   7.040 -1.0410 -0.3725  0.0741
  826MOL0     C13865   4.267   1.431   7.117  0.3220 -0.1250 -0.4122
  826MOL0     C13866   4.291   1.286   7.151 -0.1989  0.0113  0.1807
  826MOL0     N13867   4.414   1.281   7.230 -0.3887  0.0889 -0.6114
  826MOL0     C13868   4.419   1.268   7.366 -0.6464  0.3249  0.1213
  826MOL0     C13869   4.557   1.277   7.381  0.1738 -0.9881  0.3974
  826MOL0     C13870   4.636   1.247   7.507 -0.6940  0.2312  0.6074
  826MOL0     C13871   4.742   1.347   7.549  0.6554 -0.6483  0.1693
  826MOL0     C13872   4.822   1.289   7.663  0.2596  0.5386 -0.5359
  826MOL0     C13873   4.948   1.375   7.694 -0.1838  0.3511 -0.8384
  826MOL0     O13874   5.029   1.313   7.800 -0.2527  0.1271 -0.7674
  826MOL0     C13875   5.159   1.361   7.824  0.8226  0.0479  0.5493
  826MOL0     C13876   5.227   1.311   7.929 -0.4164 -0.1779 -0.3604
  826MOL0     C13877   5.360   1.348   7.961  0.5704  0.2445 -0.4363
  826MOL0     C13878   5.411   1.277   8.080 -0.3845 -0.6154 -0.1436
  826MOL0     C13879   5.428   1.439   7.880  0.9461 -0.2105  0.1218
  826MOL0     C13880   5.571   1.483   7.897  0.5269 -0.6736  0.6550
  826MOL0     O13881   5.622   1.570   7.799 -0.3596  0.4892  0.4640
  826MOL0     C13882   5.743   1.631   7.829  0.5027  0.0132 -0.4394
  826MOL0     C13883   5.752   1.771   7.842 -0.3631  0.2814  0.1916
  826MOL0     C13884   5.876   1.833   7.862  0.7512  0.3008 -0.8142
  826MOL0     C13885   5.991   1.756   7.868  0.4892  0.2283  0.1013
  826MOL0     O13886   6.110   1.811   7.899  0.7647  0.4570  0.5843
  826MOL0     C13887   6.126   1.912   8.003  0.0658  0.0995  0.5565
  826MOL0     C13888   6.259   1.910   8.077 -0.4993 -0.5451  0.2665
  826MOL0     C13889   6.375   1.920   7.965 -0.4680  0.1183 -0.1420
  826MOL0     C13890   6.510   1.930   8.037  0.4418  0.6361 -0.4171
  826MOL0     C13891   6.627   1.935   7.938  1.0672 -0.3242  0.4656
  826MOL0     C13892   6.652   2.085   7.882  0.2107 -0.2795 -0.4048
  826MOL0     C13893   6.740   2.172   7.971 -0.3086  0.5227  0.6659
  826MOL0     C13894   6.780   2.290   7.896  0.9267  0.6626  0.4528
  826MOL0    Cl13895   6.875   2.391   8.014  0.4940  0.2123  0.0012
  826MOL0     C13896   5.985   1.620   7.851 -0.0453 -0.2052 -0.2880
  826MOL0     C13897   5.863   1.559   7.826 -0.2760 -0.4351 -1.1519
  826MOL0     O13898   5.631   1.451   7.994 -0.2865 -0.5101 -0.1915
  826MOL0     C13899   5.356   1.500   7.771 -0.6893  0.2910  0.5826
  826MOL0     C13900   5.224   1.456   7.742  0.2525 -0.4598 -0.2644
  826MOL0     N13901   4.625   1.288   7.264 -0.2222 -0.1631  0.4398
  826MOL0     N13902   4.534   1.283   7.173 -0.6260  0.1489 -0.3408
  826MOL0     C13903   3.379   1.761   6.673  0.1402 -0.2419 -0.5737
  826MOL0     C13904   3.259   1.827   6.654  0.7218  0.6954 -0.9010
  826MOL0     C13905   2.977   2.179   6.490  0.8371 -0.1315  0.1333
  826MOL0     C13906   2.918   2.204   6.621 -0.8637 -0.3048 -0.0410
  826MOL0     C13907   2.814   2.288   6.628  0.2023  0.2502  0.4583
  826MOL0     C13908   2.744   2.331   6.514  0.6776 -0.2913  0.4038
  826MOL0     O13909   2.630   2.411   6.507  0.1020 -0.4792 -0.3732
  826MOL0     C13910   2.590   2.472   6.628  0.7299  0.2747 -0.0927
  826MOL0     C13911   2.485   2.582   6.602  0.5963 -0.5046 -0.1427
  826MOL0     C13912   2.529   2.687   6.493 -0.1298 -0.1790 -0.3745
  826MOL0     C13913   2.401   2.768   6.460  0.0489  0.5670 -0.2021
  826MOL0     C13914   2.366   2.850   6.580  0.3486 -0.9571 -0.3695
  826MOL0     C13915   2.352   2.920   6.684  1.5443  0.3145 -0.1287
  826MOL0     C13916   2.799   2.313   6.388  0.1763  1.0561 -0.3969
  826MOL0     C13917   2.919   2.242   6.370  0.5849 -0.1007 -0.1685
  826MOL0     C13918   2.965   2.220   6.228 -0.5737  0.1492 -1.1807
  826MOL0     H13919   3.366   2.126   6.543 -2.0147  0.9256  1.6642
  826MOL0     H13920   3.594   2.006   6.576 -1.2377  0.6535 -0.6928
  826MOL0     H13921   3.714   1.873   6.793 -0.8988  1.2502 -1.3066
  826MOL0     H13922   3.810   1.832   6.644 -1.5487 -1.8122 -2.5664
  826MOL0     H13923   3.713   1.605   6.823  0.9888 -0.5348  0.5732
  826MOL0     H13924   3.823   1.617   6.689  1.4017  1.1170  0.0374
  826MOL0     H13925   3.967   1.770   6.834 -2.0411 -0.2590 -5.4543
  826MOL0     H13926   3.844   1.742   6.961  2.2364 -0.7252  0.9872
  826MOL0     H13927   3.892   1.508   6.966 -0.3855  0.4466 -1.7806
  826MOL0     H13928   4.018   1.517   6.830  2.8238 -2.0526  1.8160
  826MOL0     H13929   4.066   1.614   7.115 -0.2837 -0.7439  0.7250
  826MOL0     H13930   4.162   1.645   6.966  0.1649  1.1379 -0.2152
  826MOL0     H13931   4.055   1.375   7.081 -1.9702 -0.3983 -1.7351
  826MOL0     H13932   4.164   1.395   6.942  1.7048 -0.2583  0.7014
  826MOL0     H13933   4.256   1.496   7.204 -3.6667  1.3061 -1.7449
  826MOL0     H13934   4.349   1.470   7.057 -0.5624  0.6329 -1.1641
  826MOL0     H13935   4.206   1.250   7.210 -1.2831  3.0540  0.6516
  826MOL0     H13936   4.308   1.228   7.060  2.4836  1.1943 -0.1624
  826MOL0     H13937   4.338   1.249   7.436 -0.2796  0.7000  0.6519
  826MOL0     H13938   4.682   1.151   7.484 -0.9411  0.8234 -3.0177
  826MOL0     H13939   4.567   1.236   7.591 -0.8508  0.0869  0.4609
  826MOL0     H13940   4.814   1.374   7.471 -0.5947  1.3195 -0.3754
  826MOL0     H13941   4.693   1.441   7.574  3.1664  0.5916  0.6953
  826MOL0     H13942   4.753   1.273   7.747  0.2764 -0.7014 -0.7464
  826MOL0     H13943   4.861   1.191   7.638  1.1341  0.0021  2.4547
  826MOL0     H13944   5.006   1.381   7.602 -0.5156 -1.8743 -1.2518
  826MOL0     H13945   4.919   1.476   7.724  1.8101  0.3195  1.4743
  826MOL0     H13946   5.185   1.233   7.990 -1.6412 -0.0842 -1.0467
  826MOL0     H13947   5.359   1.186   8.112  0.8689 -0.3148  3.1860
  826MOL0     H13948   5.425   1.348   8.162 -0.1768 -1.5317  0.6368
  826MOL0     H13949   5.516   1.250   8.061 -0.5321 -1.4430  0.1835
  826MOL0     H13950   5.666   1.831   7.817 -0.3217  0.0475 -0.5169
  826MOL0     H13951   5.886   1.941   7.850  1.5496  0.2560 -0.6508
  826MOL0     H13952   6.113   2.011   7.958  2.2894  0.5653  0.8390
  826MOL0     H13953   6.053   1.887   8.081 -0.5812  0.9352  0.2377
  826MOL0     H13954   6.265   2.001   8.139 -0.3464 -0.9839  0.9071
  826MOL0     H13955   6.278   1.822   8.139 -0.0885 -0.6974 -0.0668
  826MOL0     H13956   6.346   2.005   7.903 -1.4319 -0.8332 -1.0585
  826MOL0     H13957   6.380   1.835   7.895 -1.6155  0.5811 -0.8134
  826MOL0     H13958   6.520   1.843   8.102  0.1408  1.7876  1.2260
  826MOL0     H13959   6.521   2.019   8.100 -0.0352 -0.2488  0.9678
  826MOL0     H13960   6.712   1.900   7.997  1.5392  1.7154  1.0422
  826MOL0     H13961   6.599   1.874   7.852 -3.1554  1.7967  0.0707
  826MOL0     H13962   6.552   2.128   7.874 -0.1555 -0.9570  0.3093
  826MOL0     H13963   6.691   2.074   7.781 -0.7281 -0.8056 -0.7262
  826MOL0     H13964   6.826   2.112   8.002  1.5325  3.2310  1.1473
  826MOL0     H13965   6.671   2.205   8.050 -1.7407  0.8405 -0.6790
  826MOL0     H13966   6.696   2.346   7.853  1.0816  0.3807 -0.2136
  826MOL0     H13967   6.839   2.267   7.807 -0.5888  2.0277 -0.9719
  826MOL0     H13968   6.079   1.568   7.865 -0.2556 -0.7347 -0.7829
  826MOL0     H13969   5.860   1.452   7.809 -0.1126  0.0195 -4.8993
  826MOL0     H13970   5.400   1.570   7.700  1.9102 -0.1732  1.6296
  826MOL0     H13971   5.187   1.494   7.647 -1.1506  3.1515  1.5587
  826MOL0     H13972   3.376   1.665   6.722 -1.5072  0.9252  1.7906
  826MOL0     H13973   3.161   1.782   6.664  1.8517 -1.4084  2.2534
  826MOL0     H13974   2.974   2.179   6.710 -1.5348 -0.7119  0.2776
  826MOL0     H13975   2.789   2.323   6.728 -0.5106 -0.8522  0.6820
  826MOL0     H13976   2.551   2.392   6.690  2.6984  0.2742  1.2344
  826MOL0     H13977   2.678   2.522   6.671  0.5261  1.2143 -0.7237
  826MOL0     H13978   2.487   2.623   6.703  0.4401 -0.5036 -0.1402
  826MOL0     H13979   2.383   2.547   6.580  0.2222  1.8915 -2.6683
  826MOL0     H13980   2.613   2.745   6.533  1.5005 -2.9198  0.5180
  826MOL0     H13981   2.565   2.640   6.401 -2.4103 -1.0972 -0.8570
  826MOL0     H13982   2.320   2.698   6.437 -1.3035  0.5271  3.9188
  826MOL0     H13983   2.409   2.824   6.366 -2.5741  0.8795 -0.3214
  826MOL0     H13984   2.342   2.970   6.777 -4.3347 -3.4620  1.8514
  826MOL0     H13985   2.746   2.342   6.298 -3.7735 -0.4281  1.2094
  826MOL0     H13986   2.893   2.247   6.151  0.8971 -0.7381 -2.9463
  826MOL0     H13987   3.055   2.282   6.228 -2.1588  2.5875  0.2179
  826MOL0     H13988   2.976   2.111   6.217 -2.8479 -0.1628 -0.9167
  827MOL0     O13989   8.909   8.250   9.542  0.3306 -0.4496  0.8970
  827MOL0     C13990   8.940   8.362   9.494  0.0370 -0.3610 -0.4026
  827MOL0     O13991   9.016   8.454   9.540 -0.6947  0.6097  0.5396
  827MOL0     C13992   9.088   8.412   9.646 -1.0043  1.5136 -0.2925
  827MOL0     C13993   9.184   8.302   9.638  1.0476  0.5647 -0.0076
  827MOL0     C13994   9.259   8.270   9.748 -0.3637  0.1495 -0.5787
  827MOL0     C13995   9.265   8.351   9.864  0.3159  0.0215  0.0306
  827MOL0     O13996   9.352   8.343   9.968  0.5615  0.2026  0.7996
  827MOL0     C13997   9.489   8.325   9.959  0.0063 -0.0391 -0.5275
  827MOL0     C13998   9.572   8.438   9.892  0.0502 -1.2841 -0.7837
  827MOL0     C13999   9.719   8.408   9.899  0.3119 -0.0628  0.1479
  827MOL0     C14000   9.796   8.508   9.799  0.0627 -0.8352 -0.6913
  827MOL0     C14001   9.896   8.598   9.877  0.1635  0.5460  0.0380
  827MOL0     C14002   9.974   8.688   9.779 -0.5947  0.1219 -0.1362
  827MOL0     C14003  10.024   8.809   9.849  0.2101 -0.2838  0.4498
  827MOL0     C14004  10.042   8.936   9.755  0.3938 -0.7081  0.0453
  827MOL0     N14005  10.134   8.908   9.645 -0.4654  0.4014  0.0272
  827MOL0     C14006  10.270   8.866   9.652  0.4961  0.2129 -0.0581
  827MOL0     C14007  10.306   8.825   9.523  1.1279 -0.1210 -0.7811
  827MOL0     C14008  10.435   8.767   9.479 -0.0834  1.0575  1.2182
  827MOL0     C14009  10.422   8.626   9.410  0.1752 -0.4169 -0.1018
  827MOL0     C14010  10.407   8.638   9.254  0.0141 -0.5172 -0.6951
  827MOL0     C14011  10.406   8.511   9.181  0.0879  0.0957 -0.3970
  827MOL0     O14012  10.532   8.452   9.193 -0.0759  0.8995 -0.0261
  827MOL0     C14013  10.610   8.440   9.079 -0.2132 -0.4824  0.2936
  827MOL0     C14014  10.568   8.468   8.942 -0.4824 -0.4097 -0.6316
  827MOL0     C14015  10.638   8.412   8.831 -0.3520 -1.0553 -0.3605
  827MOL0     C14016  10.573   8.449   8.698  0.5571 -0.5705  0.5092
  827MOL0     C14017  10.760   8.347   8.849  0.4435  0.0434  0.2962
  827MOL0     C14018  10.844   8.289   8.746  1.0736 -0.7438 -0.6361
  827MOL0     O14019  10.951   8.215   8.794  0.3331  0.1685 -0.3113
  827MOL0     C14020  11.040   8.166   8.709  0.0606 -0.1712  0.0941
  827MOL0     C14021  11.009   8.066   8.613 -0.0816 -0.9478 -0.6074
  827MOL0     C14022  11.096   8.014   8.521  0.5844 -0.0346 -0.5600
  827MOL0     C14023  11.220   8.074   8.515 -0.8403  0.1368 -0.2795
  827MOL0     O14024  11.304   8.034   8.418 -0.8062 -0.7766  0.1669
  827MOL0     C14025  11.286   7.907   8.342  0.8470 -1.0697 -1.7041
  827MOL0     C14026  11.429   7.876   8.278  0.5247  0.0480  0.2186
  827MOL0     C14027  11.452   7.962   8.157 -0.0248  0.0853 -0.1773
  827MOL0     C14028  11.576   7.912   8.086  0.3140 -0.0206  0.9152
  827MOL0     C14029  11.563   7.924   7.932  0.2702 -0.3381  0.9553
  827MOL0     C14030  11.529   8.071   7.888  0.4434  0.8750  0.3424
  827MOL0     C14031  11.607   8.184   7.946 -0.7852  0.2170  0.3393
  827MOL0     C14032  11.587   8.320   7.884  0.1618  0.1616  0.1782
  827MOL0    Cl14033  11.419   8.356   7.945 -0.4695 -0.0225 -0.4178
  827MOL0     C14034  11.265   8.166   8.605  1.2005  0.3883 -0.2669
  827MOL0     C14035  11.175   8.211   8.705  0.6631 -0.2653 -0.0972
  827MOL0     O14036  10.810   8.306   8.629 -0.6673 -0.1699 -0.0339
  827MOL0     C14037  10.802   8.324   8.986  0.0674 -0.1890  0.2008
  827MOL0     C14038  10.725   8.366   9.099 -0.1592  0.4038 -0.4570
  827MOL0     N14039  10.186   8.848   9.445 -0.3181  0.0645 -0.3558
  827MOL0     N14040  10.095   8.904   9.516 -0.0538 -0.0162  0.0139
  827MOL0     C14041   9.176   8.459   9.869 -0.1236  0.7122  0.0382
  827MOL0     C14042   9.090   8.488   9.763 -0.1308 -1.0081  0.1271
  827MOL0     C14043   8.884   8.393   9.364 -0.3732 -0.5396 -0.3504
  827MOL0     C14044   8.875   8.286   9.271 -0.3371  0.8941 -0.8446
  827MOL0     C14045   8.794   8.299   9.159  0.0750  0.1934 -0.5568
  827MOL0     C14046   8.722   8.415   9.135  0.9106 -0.3943  0.6726
  827MOL0     O14047   8.640   8.430   9.016  0.3597 -0.4115 -0.4627
  827MOL0     C14048   8.662   8.324   8.921 -0.2682  0.5191 -0.5435
  827MOL0     C14049   8.576   8.359   8.802  0.4409  0.6523 -0.1974
  827MOL0     C14050   8.634   8.474   8.735 -0.6120 -0.3338  0.5503
  827MOL0     C14051   8.546   8.531   8.625  0.2052 -0.6824  0.5562
  827MOL0     C14052   8.428   8.608   8.660 -0.0065 -0.3245  0.0003
  827MOL0     C14053   8.328   8.672   8.682  1.0286 -0.2865  0.1143
  827MOL0     C14054   8.737   8.516   9.224  0.3294  0.2871  1.0167
  827MOL0     C14055   8.817   8.509   9.338  0.1016 -0.2441 -0.1278
  827MOL0     C14056   8.810   8.625   9.432  0.8889  1.1011 -0.4010
  827MOL0     H14057   9.204   8.252   9.544  1.8836  2.0610 -0.6654
  827MOL0     H14058   9.329   8.187   9.745 -3.7007 -2.9091 -0.8914
  827MOL0     H14059   9.511   8.238   9.896 -0.4933  0.2608 -1.1337
  827MOL0     H14060   9.528   8.307  10.059  0.9139  0.1000 -0.8457
  827MOL0     H14061   9.542   8.449   9.788  2.2140 -0.4158 -1.3568
  827MOL0     H14062   9.559   8.526   9.955  2.1103 -2.7075  1.8508
  827MOL0     H14063   9.749   8.412  10.004 -1.9879 -0.5898  0.8751
  827MOL0     H14064   9.738   8.309   9.858 -2.7880 -0.3309 -0.8915
  827MOL0     H14065   9.860   8.450   9.732 -0.6347 -1.5274 -0.7788
  827MOL0     H14066   9.729   8.564   9.733 -1.1068 -0.4020  0.7903
  827MOL0     H14067   9.957   8.535   9.942 -0.7700  0.3249  0.7234
  827MOL0     H14068   9.846   8.659   9.954  2.9763  1.2259  1.4486
  827MOL0     H14069  10.058   8.632   9.736 -1.1749  0.3762 -1.6844
  827MOL0     H14070   9.918   8.720   9.691 -0.3186  0.9082 -0.0368
  827MOL0     H14071  10.117   8.782   9.900  0.7727 -1.4307 -1.1105
  827MOL0     H14072   9.945   8.834   9.920 -1.7178 -0.5345 -1.4918
  827MOL0     H14073   9.943   8.961   9.716 -0.0036  0.2950  1.6004
  827MOL0     H14074  10.087   9.025   9.800  1.4161 -0.4198 -1.4519
  827MOL0     H14075  10.345   8.855   9.730  0.1512  1.2551  0.4383
  827MOL0     H14076  10.499   8.759   9.567 -1.3685  1.4348  2.2297
  827MOL0     H14077  10.477   8.834   9.403 -1.3580 -0.2967 -0.7967
  827MOL0     H14078  10.516   8.573   9.429  1.3969  1.2462 -1.2054
  827MOL0     H14079  10.341   8.570   9.456 -1.3214 -0.2810 -2.3792
  827MOL0     H14080  10.311   8.684   9.232  0.0742 -0.8700 -1.7595
  827MOL0     H14081  10.482   8.708   9.215 -0.9461  0.3313 -1.0776
  827MOL0     H14082  10.333   8.443   9.226 -0.1795 -1.4717 -2.9621
  827MOL0     H14083  10.375   8.527   9.078  0.2391 -1.2738 -0.6712
  827MOL0     H14084  10.479   8.525   8.919  0.9916  2.0619 -0.4982
  827MOL0     H14085  10.632   8.518   8.637  0.5557  0.1625  1.3225
  827MOL0     H14086  10.477   8.494   8.723  0.1297 -2.1192  1.7950
  827MOL0     H14087  10.546   8.371   8.626 -2.2364  1.6569 -1.0695
  827MOL0     H14088  10.909   8.025   8.613 -0.0229 -1.0937  0.0919
  827MOL0     H14089  11.061   7.931   8.460  1.8830 -2.8053  2.1364
  827MOL0     H14090  11.258   7.830   8.414  0.8747  1.1715  0.8730
  827MOL0     H14091  11.202   7.905   8.272 -1.4503 -3.5713  0.8778
  827MOL0     H14092  11.509   7.897   8.350  0.6208 -1.7324  0.6778
  827MOL0     H14093  11.429   7.767   8.267  2.0926  0.0891 -0.3862
  827MOL0     H14094  11.456   8.068   8.183 -1.8420 -0.0063  0.6626
  827MOL0     H14095  11.369   7.958   8.086 -0.7079  2.8759  0.3373
  827MOL0     H14096  11.607   7.810   8.109 -0.9864 -1.2679 -2.2917
  827MOL0     H14097  11.655   7.980   8.121 -0.9534  1.5267  0.8756
  827MOL0     H14098  11.654   7.891   7.882 -1.3223 -2.1972 -0.8897
  827MOL0     H14099  11.485   7.860   7.890  1.6127 -0.8193 -0.9110
  827MOL0     H14100  11.422   8.080   7.910 -0.4545 -3.8727 -1.1254
  827MOL0     H14101  11.525   8.073   7.779  0.6450 -1.5159  0.2516
  827MOL0     H14102  11.711   8.150   7.948  0.4817  2.5052 -5.4966
  827MOL0     H14103  11.575   8.196   8.050 -0.2093  2.1205  0.3337
  827MOL0     H14104  11.589   8.323   7.775 -1.6240  1.5416  0.1226
  827MOL0     H14105  11.662   8.395   7.909  2.3341 -0.8588 -2.8061
  827MOL0     H14106  11.373   8.163   8.599  1.1492 -3.2688 -2.0833
  827MOL0     H14107  11.204   8.279   8.784 -2.0485  2.1442 -1.0317
  827MOL0     H14108  10.896   8.274   9.008  0.4199 -0.3698 -1.5337
  827MOL0     H14109  10.751   8.348   9.202 -1.8293 -1.5770 -0.3080
  827MOL0     H14110   9.175   8.523   9.957 -2.4246 -1.7413  1.9500
  827MOL0     H14111   9.027   8.576   9.759  0.7248 -0.4070 -0.5192
  827MOL0     H14112   8.922   8.188   9.273  0.6309  1.3717  0.9408
  827MOL0     H14113   8.795   8.213   9.093 -0.0940  1.2041 -1.9299
  827MOL0     H14114   8.768   8.313   8.897  0.6212  1.2169  2.6257
  827MOL0     H14115   8.633   8.226   8.960  2.1781 -1.1936 -2.6240
  827MOL0     H14116   8.475   8.388   8.833  0.6717  0.5124  0.7197
  827MOL0     H14117   8.564   8.278   8.729 -2.6475 -0.1054  0.9853
  827MOL0     H14118   8.665   8.556   8.800 -1.6149 -0.2243  0.9126
  827MOL0     H14119   8.719   8.448   8.671 -1.2653  0.9985 -0.9591
  827MOL0     H14120   8.523   8.452   8.552  0.4325 -0.1678 -0.0824
  827MOL0     H14121   8.599   8.603   8.562 -1.2815  1.0343  1.1747
  827MOL0     H14122   8.234   8.723   8.688  0.1050 -1.8864 -0.1488
  827MOL0     H14123   8.678   8.603   9.196  2.9437  2.0169  0.5023
  827MOL0     H14124   8.731   8.696   9.404  0.3043  0.0245 -1.5826
  827MOL0     H14125   8.786   8.589   9.532 -2.5614  2.7663 -0.4750
  827MOL0     H14126   8.907   8.675   9.432  1.0248  0.8434 -0.7268
  828MOL0     O14127   0.868   5.414   9.730  0.1494 -0.5076  0.1143
  828MOL0     C14128   0.885   5.535   9.705  0.2616 -0.1640 -0.8492
  828MOL0     O14129   0.955   5.586   9.598  0.0573  0.1260 -0.8461
  828MOL0     C14130   1.018   5.503   9.502 -0.3029 -0.1912 -0.6268
  828MOL0     C14131   1.033   5.557   9.379 -0.1613  0.4268 -0.2759
  828MOL0     C14132   1.096   5.493   9.280 -0.4013  0.2616  0.7305
  828MOL0     C14133   1.157   5.371   9.302 -0.1441 -0.1349  0.1164
  828MOL0     O14134   1.219   5.314   9.195 -0.0707 -0.2583 -0.0316
  828MOL0     C14135   1.206   5.173   9.159 -0.3756 -1.1513 -1.1532
  828MOL0     C14136   1.305   5.155   9.046  0.5340  0.6309  0.1364
  828MOL0     C14137   1.316   5.001   9.010 -0.5688  0.2550 -0.3081
  828MOL0     C14138   1.409   4.981   8.889  0.2834 -0.7262 -0.5279
  828MOL0     C14139   1.462   4.835   8.882  0.3058 -0.4573  0.7791
  828MOL0     C14140   1.576   4.829   8.781 -0.2451 -0.1490 -1.3322
  828MOL0     C14141   1.694   4.750   8.839 -0.3763  0.4320 -0.4891
  828MOL0     C14142   1.791   4.714   8.725 -0.2256  0.0891  0.2160
  828MOL0     N14143   1.848   4.583   8.730  0.3098  0.2277 -0.2457
  828MOL0     C14144   1.963   4.549   8.788 -0.2244  0.5567 -0.0879
  828MOL0     C14145   1.974   4.420   8.807 -0.3089  1.0872 -0.2271
  828MOL0     C14146   2.091   4.342   8.860 -0.6308 -0.1134  0.6583
  828MOL0     C14147   2.045   4.307   8.999 -0.2957 -0.3669  0.0564
  828MOL0     C14148   2.160   4.236   9.071 -0.5510  0.5179  0.6272
  828MOL0     C14149   2.161   4.087   9.034 -0.1305 -0.2264 -0.0924
  828MOL0     O14150   2.259   4.020   9.119 -0.0787  0.2654  0.1396
  828MOL0     C14151   2.385   4.063   9.153  0.3503  0.0038  0.0316
  828MOL0     C14152   2.419   4.093   9.289 -0.0766 -0.1620 -0.4376
  828MOL0     C14153   2.560   4.128   9.329  0.1674 -0.0816  0.8190
  828MOL0     C14154   2.597   4.125   9.472  0.5506 -0.0236 -0.1276
  828MOL0     C14155   2.658   4.149   9.225 -0.0661  0.2908  1.0274
  828MOL0     C14156   2.804   4.174   9.237 -0.0785 -0.0763 -0.5716
  828MOL0     O14157   2.837   4.223   9.355 -0.3246  0.4470 -0.0248
  828MOL0     C14158   2.973   4.230   9.399  0.7616 -0.6113 -0.3071
  828MOL0     C14159   2.998   4.316   9.505 -0.9530  0.5439  1.1080
  828MOL0     C14160   3.129   4.350   9.543  1.1834 -0.0245  0.2071
  828MOL0     C14161   3.238   4.297   9.478  0.9343  0.5935 -0.6771
  828MOL0     O14162   3.354   4.346   9.518 -0.1591  0.1649 -0.4612
  828MOL0     C14163   3.473   4.308   9.443  1.0783  0.3016 -0.1730
  828MOL0     C14164   3.604   4.353   9.510  0.1825  0.3950 -0.2099
  828MOL0     C14165   3.603   4.302   9.657  0.0572 -0.9026  0.0930
  828MOL0     C14166   3.727   4.351   9.730  0.3121  0.2424  0.8062
  828MOL0     C14167   3.729   4.302   9.872  0.0174  0.7577 -0.1395
  828MOL0     C14168   3.839   4.363   9.961 -0.6935  0.0209 -0.4057
  828MOL0     C14169   3.971   4.285   9.933  0.0420  0.2399  0.2987
  828MOL0     C14170   4.101   4.341   9.991 -0.0653 -0.3647 -0.2544
  828MOL0    Cl14171   4.098   4.355  10.165  0.1725 -0.3582  0.2085
  828MOL0     C14172   3.216   4.199   9.386  0.3153  0.0901  0.5159
  828MOL0     C14173   3.085   4.162   9.344  0.3850  0.0537 -0.0144
  828MOL0     O14174   2.883   4.147   9.145  0.0936 -0.4313 -0.5558
  828MOL0     C14175   2.610   4.128   9.089  0.1252 -0.4897  0.1090
  828MOL0     C14176   2.484   4.083   9.060 -0.0998  0.4044  0.5562
  828MOL0     N14177   1.855   4.371   8.755 -0.1651  0.2703  0.3698
  828MOL0     N14178   1.779   4.468   8.704  0.3134  0.0608 -0.6305
  828MOL0     C14179   1.139   5.312   9.426 -0.3553  0.5554  0.5228
  828MOL0     C14180   1.082   5.378   9.529  0.7425  0.0897 -0.0167
  828MOL0     C14181   0.812   5.628   9.799 -0.0186  0.4476  0.1330
  828MOL0     C14182   0.731   5.564   9.891  0.4159 -0.0830 -0.2654
  828MOL0     C14183   0.643   5.635   9.971  0.0168 -0.7434 -0.1901
  828MOL0     C14184   0.629   5.773   9.962 -0.2558 -0.2499 -0.9516
  828MOL0     O14185   0.522   5.827  10.023  0.2881  0.0632  0.3292
  828MOL0     C14186   0.401   5.754  10.071 -0.4595 -0.6468  0.3162
  828MOL0     C14187   0.282   5.850  10.085 -0.5749  0.0378  0.2113
  828MOL0     C14188   0.151   5.778  10.113 -0.6979 -0.1060 -0.4804
  828MOL0     C14189   0.139   5.705  10.255 -0.2745 -0.3982 -0.1236
  828MOL0     C14190  -0.001   5.653  10.269  0.0758  0.0353 -0.0554
  828MOL0     C14191  -0.110   5.606  10.287 -0.1410 -0.2500 -0.7570
  828MOL0     C14192   0.727   5.847   9.880 -0.0432  0.4284  0.3696
  828MOL0     C14193   0.816   5.773   9.798 -0.0327  0.0810 -0.1099
  828MOL0     C14194   0.921   5.843   9.707  0.3314  0.6298  0.0577
  828MOL0     H14195   1.003   5.661   9.370 -1.5273  0.1183  0.4399
  828MOL0     H14196   1.093   5.543   9.183  2.8302 -2.2111 -0.8419
  828MOL0     H14197   1.102   5.152   9.130 -1.5665  2.6325 -0.2080
  828MOL0     H14198   1.237   5.105   9.239  0.1558 -2.0369 -2.0893
  828MOL0     H14199   1.266   5.211   8.960  0.1696  2.2092  1.2819
  828MOL0     H14200   1.403   5.184   9.083  0.5984  0.7377 -0.1145
  828MOL0     H14201   1.369   4.962   9.097 -1.3335 -1.3911 -0.5447
  828MOL0     H14202   1.224   4.946   8.990 -1.9916  2.5419 -0.3734
  828MOL0     H14203   1.355   5.018   8.802 -0.7208 -0.1311  0.3259
  828MOL0     H14204   1.495   5.046   8.908 -1.3809  1.1282  1.2020
  828MOL0     H14205   1.389   4.756   8.866  0.1977 -0.7710  2.5529
  828MOL0     H14206   1.501   4.802   8.979  0.5358 -2.5789  0.0259
  828MOL0     H14207   1.545   4.785   8.685  1.9120  1.1583 -2.6942
  828MOL0     H14208   1.613   4.928   8.753 -2.5486  0.4853 -2.4263
  828MOL0     H14209   1.643   4.664   8.882 -3.5000  2.7911  0.9599
  828MOL0     H14210   1.745   4.798   8.924 -1.4343 -0.8406  0.9165
  828MOL0     H14211   1.755   4.732   8.623 -1.1035  1.8225  0.7869
  828MOL0     H14212   1.880   4.777   8.729  1.8876 -2.7908  2.3906
  828MOL0     H14213   2.038   4.618   8.826  1.5178 -1.2575 -0.1148
  828MOL0     H14214   2.180   4.406   8.859  0.1211 -1.1322 -0.2124
  828MOL0     H14215   2.107   4.254   8.796 -0.6621  0.7534 -0.5776
  828MOL0     H14216   2.024   4.401   9.051 -0.3540 -1.5715  2.3198
  828MOL0     H14217   1.952   4.249   9.004  0.4847 -1.6256  0.3129
  828MOL0     H14218   2.253   4.281   9.035 -0.2183  1.1805  2.2226
  828MOL0     H14219   2.150   4.240   9.180 -1.0261  1.9074  0.5516
  828MOL0     H14220   2.061   4.044   9.029 -1.0550  1.9084 -2.5468
  828MOL0     H14221   2.206   4.069   8.935  0.9688  0.1247  0.3228
  828MOL0     H14222   2.347   4.068   9.366 -2.9284 -2.1332 -3.4843
  828MOL0     H14223   2.602   4.228   9.509 -0.4561 -0.0423  0.0878
  828MOL0     H14224   2.694   4.079   9.493  1.7206  2.7137  1.0337
  828MOL0     H14225   2.522   4.067   9.526  0.4961 -1.6172 -1.8341
  828MOL0     H14226   2.911   4.357   9.554 -2.5500 -0.0199 -1.1074
  828MOL0     H14227   3.149   4.433   9.609 -0.5918  0.7580 -0.1734
  828MOL0     H14228   3.488   4.201   9.425 -3.7375 -0.6111 -0.1663
  828MOL0     H14229   3.474   4.350   9.342  1.0957 -2.0268 -1.2171
  828MOL0     H14230   3.692   4.324   9.452  0.3772  1.3110 -0.3868
  828MOL0     H14231   3.609   4.462   9.518 -1.0319  0.5596 -1.2481
  828MOL0     H14232   3.603   4.193   9.650 -1.9811 -0.9512  0.0968
  828MOL0     H14233   3.517   4.338   9.714  0.9717  0.1922  0.8280
  828MOL0     H14234   3.722   4.460   9.717  1.9520  0.1785 -0.8502
  828MOL0     H14235   3.815   4.318   9.674  0.7322 -1.5472  2.4351
  828MOL0     H14236   3.631   4.315   9.920  1.6212  0.9691  3.3731
  828MOL0     H14237   3.754   4.196   9.873  3.2835  1.4289  1.4964
  828MOL0     H14238   3.809   4.328  10.060  0.6895  0.8690  0.3600
  828MOL0     H14239   3.854   4.471   9.951 -1.1398  0.0567 -0.6969
  828MOL0     H14240   3.995   4.281   9.826 -0.7099  1.6478  0.0562
  828MOL0     H14241   3.967   4.177   9.946 -0.0909  0.2079 -0.0037
  828MOL0     H14242   4.127   4.437   9.946  0.4647  0.8922  2.5348
  828MOL0     H14243   4.186   4.279   9.961 -1.9160 -2.5880 -1.2550
  828MOL0     H14244   3.299   4.145   9.339  1.1664  2.5253 -0.9698
  828MOL0     H14245   3.071   4.087   9.266 -0.0945 -1.8116  1.7891
  828MOL0     H14246   2.670   4.145   9.000 -2.7198 -5.2104 -3.1972
  828MOL0     H14247   2.469   4.066   8.954 -0.1149  1.1431  0.4383
  828MOL0     H14248   1.175   5.211   9.439 -0.1085  0.4821 -0.5626
  828MOL0     H14249   1.073   5.329   9.625 -0.6917 -1.5244 -0.9312
  828MOL0     H14250   0.725   5.457   9.908 -0.7440  0.3346  2.5110
  828MOL0     H14251   0.578   5.590  10.045 -0.5932  2.0672  1.1239
  828MOL0     H14252   0.369   5.676  10.002 -0.7024 -0.8370  0.6406
  828MOL0     H14253   0.423   5.719  10.173 -0.5524 -1.1165  0.1762
  828MOL0     H14254   0.280   5.909   9.993  3.0264  0.8567  0.5012
  828MOL0     H14255   0.297   5.916  10.171  0.7846 -0.3740  0.3088
  828MOL0     H14256   0.075   5.857  10.113 -0.0461  0.5402 -1.5049
  828MOL0     H14257   0.124   5.709  10.033  1.3572 -0.7337 -0.6803
  828MOL0     H14258   0.155   5.773  10.339 -0.4347 -1.0285  0.4216
  828MOL0     H14259   0.218   5.630  10.255  1.0559  0.9185  1.8039
  828MOL0     H14260  -0.208   5.569  10.312  0.0792 -0.7569 -0.6285
  828MOL0     H14261   0.732   5.955   9.867  1.2349  0.2902 -0.3345
  828MOL0     H14262   1.016   5.790   9.716 -1.0543 -2.1027 -0.4201
  828MOL0     H14263   0.883   5.837   9.604  1.7813  0.1361 -0.4626
  828MOL0     H14264   0.935   5.948   9.736  1.3954  0.3093  0.7496
  829MOL0     O14265   7.313   2.863   8.591 -0.1278  0.4658  0.7518
  829MOL0     C14266   7.304   2.795   8.487 -0.0870  0.1887 -0.1501
  829MOL0     O14267   7.409   2.763   8.407  0.2998 -0.0914 -0.5329
  829MOL0     C14268   7.509   2.858   8.420 -0.1894 -1.3251  0.8000
  829MOL0     C14269   7.485   2.991   8.386  0.2750 -1.2799 -0.0206
  829MOL0     C14270   7.604   3.074   8.374 -0.4439  0.0138 -0.5048
  829MOL0     C14271   7.729   3.024   8.393 -0.2997 -0.4892  0.4875
  829MOL0     O14272   7.840   3.097   8.415 -0.2892  0.4853  0.2469
  829MOL0     C14273   7.827   3.238   8.420 -1.3761 -0.8106 -0.6762
  829MOL0     C14274   7.966   3.295   8.469  0.6178  0.7864 -0.6129
  829MOL0     C14275   7.963   3.452   8.448 -0.0876  0.3345 -0.0556
  829MOL0     C14276   8.107   3.496   8.497 -0.4964 -0.3217 -0.1416
  829MOL0     C14277   8.126   3.642   8.460  0.3098 -0.0355  0.5012
  829MOL0     C14278   8.244   3.711   8.520 -0.0178 -0.2267 -0.4251
  829MOL0     C14279   8.387   3.676   8.472 -0.3091 -0.0512  0.0771
  829MOL0     C14280   8.500   3.756   8.537  0.0696 -0.5556  0.3545
  829MOL0     N14281   8.523   3.894   8.475 -0.0728  0.4187 -0.7287
  829MOL0     C14282   8.454   4.010   8.514 -0.3738  0.5882 -0.1993
  829MOL0     C14283   8.490   4.110   8.423  1.6328  1.1402  0.2927
  829MOL0     C14284   8.431   4.243   8.438  0.2429 -0.8633 -0.0174
  829MOL0     C14285   8.507   4.362   8.370 -0.4968  0.4161  0.5341
  829MOL0     C14286   8.627   4.404   8.454  0.6524 -0.0414 -0.8906
  829MOL0     C14287   8.744   4.297   8.462 -0.3606  0.4493  0.6541
  829MOL0     O14288   8.846   4.381   8.523  0.5257 -0.0492 -0.3867
  829MOL0     C14289   8.929   4.347   8.626 -0.0338  0.5411 -0.2076
  829MOL0     C14290   8.978   4.217   8.645  0.6232  0.3948  0.1182
  829MOL0     C14291   9.070   4.200   8.739  0.0030 -0.3204 -0.0051
  829MOL0     C14292   9.104   4.057   8.763 -0.3842 -0.0010 -0.6230
  829MOL0     C14293   9.134   4.301   8.804  0.3347 -0.5000 -0.8864
  829MOL0     C14294   9.223   4.286   8.918 -0.1848 -0.0962  0.3266
  829MOL0     O14295   9.337   4.359   8.910 -0.0497 -0.1806 -0.2881
  829MOL0     C14296   9.439   4.323   8.990  0.6310  0.7569  0.4693
  829MOL0     C14297   9.508   4.199   8.975  0.0752  0.0758 -0.0916
  829MOL0     C14298   9.619   4.175   9.057 -0.0676 -0.6739 -0.8961
  829MOL0     C14299   9.659   4.271   9.158  0.2962  0.6012  0.7866
  829MOL0     O14300   9.768   4.243   9.228  0.1025 -0.8302 -0.4063
  829MOL0     C14301   9.738   4.228   9.370 -0.2228  0.7918  0.0051
  829MOL0     C14302   9.860   4.203   9.440 -0.3027  0.5515 -0.1270
  829MOL0     C14303   9.909   4.057   9.444  0.1157 -0.1377 -0.1498
  829MOL0     C14304  10.041   4.066   9.522  0.3423  0.6054 -0.3844
  829MOL0     C14305  10.069   3.917   9.562 -0.8129 -0.0612  0.5188
  829MOL0     C14306  10.188   3.916   9.665  0.0323 -0.2939  0.9067
  829MOL0     C14307  10.188   3.775   9.732 -0.4848 -0.0834 -0.0499
  829MOL0     C14308  10.091   3.742   9.843 -0.4548 -0.4865 -0.1539
  829MOL0    Cl14309   9.920   3.730   9.793 -0.5207  0.4085  0.2100
  829MOL0     C14310   9.585   4.391   9.172  0.2086 -0.1522 -0.0780
  829MOL0     C14311   9.477   4.413   9.081  0.1714 -0.9994  0.4463
  829MOL0     O14312   9.190   4.209   9.009 -0.0885 -0.3742 -0.5283
  829MOL0     C14313   9.084   4.433   8.784 -0.0477  0.3740 -0.1678
  829MOL0     C14314   8.986   4.457   8.690 -0.2333 -0.1079  0.4310
  829MOL0     N14315   8.566   4.056   8.328 -0.9204 -0.3076 -0.5020
  829MOL0     N14316   8.591   3.932   8.360  0.0961 -0.2709  0.5216
  829MOL0     C14317   7.746   2.887   8.413  0.5550 -0.1678 -0.1619
  829MOL0     C14318   7.634   2.805   8.434 -1.2697  0.0672 -0.0293
  829MOL0     C14319   7.172   2.721   8.460  0.2774 -0.0257 -0.3015
  829MOL0     C14320   7.068   2.745   8.555 -0.8829 -0.1485  0.3029
  829MOL0     C14321   6.943   2.686   8.559  0.3495 -0.1941  0.4126
  829MOL0     C14322   6.921   2.594   8.460 -0.4331 -0.4243  0.5806
  829MOL0     O14323   6.801   2.524   8.471 -0.6224 -0.0171 -0.9073
  829MOL0     C14324   6.739   2.480   8.348 -0.4080  0.0170 -0.3983
  829MOL0     C14325   6.597   2.438   8.377  0.2884  0.4394 -0.4188
  829MOL0     C14326   6.588   2.331   8.489 -0.2138  0.1152  1.2531
  829MOL0     C14327   6.466   2.234   8.505  0.0645 -0.7065 -0.0656
  829MOL0     C14328   6.332   2.298   8.503 -0.6002 -0.8603 -0.3478
  829MOL0     C14329   6.222   2.360   8.508 -0.1218 -0.5216  1.1667
  829MOL0     C14330   7.015   2.568   8.358 -0.3370  0.3617 -0.6181
  829MOL0     C14331   7.143   2.639   8.351 -0.5974 -0.8154  0.7054
  829MOL0     C14332   7.240   2.615   8.234 -0.2349  0.0311 -0.5458
  829MOL0     H14333   7.384   3.029   8.380  0.1454 -1.7613 -1.0128
  829MOL0     H14334   7.590   3.179   8.350 -0.6914  0.0737 -0.1084
  829MOL0     H14335   7.756   3.282   8.491 -1.1049  1.0690 -1.5196
  829MOL0     H14336   7.801   3.288   8.326  1.9346  1.0240 -0.7487
  829MOL0     H14337   7.969   3.269   8.575 -2.1484 -0.9755 -0.8589
  829MOL0     H14338   8.048   3.249   8.412 -2.1999 -3.1137 -2.0057
  829MOL0     H14339   7.952   3.469   8.341  1.9571  1.7986 -0.0786
  829MOL0     H14340   7.879   3.488   8.509  1.9352 -0.9719  3.8872
  829MOL0     H14341   8.107   3.484   8.606 -0.2047  1.6161  0.1075
  829MOL0     H14342   8.182   3.433   8.448 -1.3303  1.2903 -3.8603
  829MOL0     H14343   8.038   3.704   8.479 -1.2299 -2.2634  1.0564
  829MOL0     H14344   8.142   3.639   8.352  0.3017 -0.3096  0.5067
  829MOL0     H14345   8.214   3.815   8.506 -2.1831 -0.7101  0.1462
  829MOL0     H14346   8.240   3.689   8.627 -0.9085  0.4782 -0.3005
  829MOL0     H14347   8.392   3.705   8.366  1.8658  0.3713  0.2576
  829MOL0     H14348   8.406   3.569   8.471  4.1123  0.4572  2.4202
  829MOL0     H14349   8.495   3.765   8.646  1.0033  2.2110  0.2488
  829MOL0     H14350   8.591   3.697   8.523  1.2346  1.0106  1.0518
  829MOL0     H14351   8.389   4.028   8.599 -0.4569 -1.7366  0.3096
  829MOL0     H14352   8.411   4.268   8.542  0.5190  0.4034 -0.2422
  829MOL0     H14353   8.337   4.244   8.382  2.0742  1.5194 -3.5133
  829MOL0     H14354   8.536   4.327   8.271 -0.1569 -0.0346  0.7900
  829MOL0     H14355   8.445   4.450   8.350  2.4095  2.3191 -0.8227
  829MOL0     H14356   8.659   4.503   8.421  0.3834  1.5081  2.9790
  829MOL0     H14357   8.590   4.424   8.554  0.7816  1.7056 -1.1582
  829MOL0     H14358   8.710   4.213   8.522 -0.5180  0.9073  1.2189
  829MOL0     H14359   8.775   4.271   8.360  0.1593  0.8743  0.6985
  829MOL0     H14360   8.932   4.135   8.590  1.0053  0.6818 -0.6482
  829MOL0     H14361   9.097   3.994   8.674 -0.1409 -0.2879 -0.4382
  829MOL0     H14362   9.028   4.022   8.834  0.4521  0.7350  0.6695
  829MOL0     H14363   9.202   4.053   8.810 -1.3195  2.0127  1.7422
  829MOL0     H14364   9.467   4.133   8.899 -0.7696  0.5992 -0.1005
  829MOL0     H14365   9.674   4.082   9.065  1.1870  0.1264  0.0898
  829MOL0     H14366   9.685   4.315   9.410 -1.8710  0.3758 -1.1459
  829MOL0     H14367   9.675   4.139   9.380  0.3367  0.2778 -0.9494
  829MOL0     H14368   9.943   4.256   9.392 -0.1111 -2.8640 -4.1028
  829MOL0     H14369   9.838   4.234   9.543 -0.3121  1.1332 -0.2999
  829MOL0     H14370   9.933   4.013   9.347  1.5999  3.2855 -1.4903
  829MOL0     H14371   9.834   4.001   9.500 -0.9969  0.9967 -0.4476
  829MOL0     H14372  10.018   4.124   9.612 -1.4690  0.1742 -0.5376
  829MOL0     H14373  10.122   4.111   9.463  1.0425 -0.4765 -0.2728
  829MOL0     H14374   9.982   3.873   9.612  0.3174  0.8127  3.4756
  829MOL0     H14375  10.092   3.854   9.476 -3.3348  0.8644 -0.9224
  829MOL0     H14376  10.179   3.978   9.755 -0.5054  1.4021 -0.2835
  829MOL0     H14377  10.280   3.938   9.611  1.4853  0.5270  3.5561
  829MOL0     H14378  10.292   3.756   9.757 -0.0230 -0.2655 -2.0023
  829MOL0     H14379  10.172   3.702   9.652  0.5941 -2.8977  2.1332
  829MOL0     H14380  10.107   3.802   9.933  4.9608  0.0651 -1.1288
  829MOL0     H14381  10.126   3.648   9.886 -2.3314 -1.4456 -0.6058
  829MOL0     H14382   9.613   4.479   9.228 -0.2930  1.3254 -2.0312
  829MOL0     H14383   9.416   4.502   9.082 -0.0993 -1.1708  2.0301
  829MOL0     H14384   9.139   4.507   8.843  0.9765 -0.6493  0.1895
  829MOL0     H14385   8.944   4.555   8.667  1.1012  0.3511 -0.1411
  829MOL0     H14386   7.848   2.862   8.440  1.3941  2.0454 -0.9605
  829MOL0     H14387   7.664   2.703   8.455  0.2479  0.3727 -0.6021
  829MOL0     H14388   7.091   2.815   8.634  1.2493 -1.4079  0.8809
  829MOL0     H14389   6.869   2.697   8.638  2.2470 -1.7186  2.5315
  829MOL0     H14390   6.755   2.561   8.277  1.4106  0.6511  0.6721
  829MOL0     H14391   6.790   2.389   8.315  1.0680  1.0014 -0.9126
  829MOL0     H14392   6.554   2.391   8.288  0.5113  0.8081 -0.7251
  829MOL0     H14393   6.531   2.522   8.402  1.2060  0.9941  0.1691
  829MOL0     H14394   6.666   2.255   8.481 -2.2817 -2.4109  3.0175
  829MOL0     H14395   6.609   2.378   8.586  2.5791  1.2298  0.2186
  829MOL0     H14396   6.478   2.185   8.601  3.5911 -0.2029 -0.1358
  829MOL0     H14397   6.471   2.161   8.423  2.5495  0.7161 -1.2950
  829MOL0     H14398   6.140   2.425   8.486 -0.2545 -0.8078  0.7970
  829MOL0     H14399   6.990   2.492   8.284  1.1687  0.3144 -1.1258
  829MOL0     H14400   7.203   2.545   8.159 -0.6921  0.3555 -0.6321
  829MOL0     H14401   7.255   2.712   8.186  0.0800 -0.2797 -1.0754
  829MOL0     H14402   7.328   2.559   8.265 -1.6233 -1.7671  0.3494
  830MOL0     O14403   9.711   3.537   0.588  0.0026 -0.3564 -0.4695
  830MOL0     C14404   9.627   3.574   0.674 -0.0705  0.5738  1.6155
  830MOL0     O14405   9.644   3.601   0.799  0.4551  0.4373  0.5106
  830MOL0     C14406   9.769   3.605   0.866  1.1795  0.6338  0.2812
  830MOL0     C14407   9.895   3.611   0.808  0.0299 -0.4167 -0.5795
  830MOL0     C14408  10.014   3.596   0.889  1.0419 -0.2022  0.4254
  830MOL0     C14409  10.005   3.583   1.023 -0.8211  0.2766  0.0412
  830MOL0     O14410  10.121   3.576   1.100 -0.3488  0.1214 -1.2886
  830MOL0     C14411  10.244   3.646   1.060  0.6756  0.1348 -0.5374
  830MOL0     C14412  10.310   3.695   1.192 -0.0492 -0.4022 -0.5813
  830MOL0     C14413  10.455   3.751   1.184 -0.7022 -0.6941  0.0291
  830MOL0     C14414  10.517   3.755   1.321 -0.4443  0.4899 -1.2708
  830MOL0     C14415  10.653   3.830   1.317 -0.3079 -0.2333  0.7676
  830MOL0     C14416  10.760   3.801   1.420 -0.0471 -0.2752  0.8282
  830MOL0     C14417  10.686   3.795   1.562 -0.7620  0.0147 -0.0563
  830MOL0     C14418  10.776   3.799   1.679  0.2956 -0.0062 -0.3885
  830MOL0     N14419  10.880   3.690   1.684  0.0100  0.2081  0.7695
  830MOL0     C14420  10.872   3.562   1.640  0.7537 -0.1201  0.2887
  830MOL0     C14421  10.988   3.505   1.674 -0.1184 -0.5247 -0.2256
  830MOL0     C14422  11.042   3.369   1.630 -0.4374  0.6862  0.3452
  830MOL0     C14423  11.080   3.380   1.483 -0.6745 -0.3195  0.0795
  830MOL0     C14424  11.090   3.245   1.415  0.9294 -0.1186 -0.2515
  830MOL0     C14425  11.034   3.252   1.269  0.1487 -0.2770  0.3642
  830MOL0     O14426  10.899   3.241   1.278  0.7187 -0.1898  0.1698
  830MOL0     C14427  10.820   3.245   1.163  0.1122 -0.1852  0.3041
  830MOL0     C14428  10.875   3.227   1.032  0.8242 -0.1834 -0.6530
  830MOL0     C14429  10.795   3.218   0.917 -0.3122  0.3927 -1.2443
  830MOL0     C14430  10.864   3.199   0.783 -0.1399  0.4720 -0.5173
  830MOL0     C14431  10.652   3.243   0.934  0.1015 -1.0436 -0.0706
  830MOL0     C14432  10.548   3.227   0.822 -0.2519 -0.0615  0.2594
  830MOL0     O14433  10.424   3.268   0.859 -0.0051 -0.3165  0.3130
  830MOL0     C14434  10.315   3.223   0.790 -1.6617 -0.1163  0.0298
  830MOL0     C14435  10.210   3.278   0.855 -0.6181 -0.2720 -0.1574
  830MOL0     C14436  10.078   3.255   0.815 -0.1759 -1.5958  0.7809
  830MOL0     C14437  10.059   3.162   0.713 -0.8600  0.7465 -0.0468
  830MOL0     O14438   9.929   3.112   0.680  0.3839  0.1308  0.1673
  830MOL0     C14439   9.807   3.196   0.696 -0.0343 -0.3032 -0.8062
  830MOL0     C14440   9.691   3.129   0.625  0.1704 -0.2695 -1.4587
  830MOL0     C14441   9.641   3.017   0.714 -0.5972  0.5861 -0.9630
  830MOL0     C14442   9.565   2.914   0.620 -0.4123  0.0459  0.0150
  830MOL0     C14443   9.516   2.808   0.719 -0.1271  0.7510  0.1464
  830MOL0     C14444   9.416   2.718   0.647 -0.2596 -0.5831 -0.1350
  830MOL0     C14445   9.357   2.615   0.735 -0.5549  0.9230 -0.3125
  830MOL0     C14446   9.323   2.483   0.679  0.3674 -0.3641 -0.0732
  830MOL0    Cl14447   9.167   2.500   0.585  0.2841 -0.2409 -0.3239
  830MOL0     C14448  10.171   3.104   0.649  0.5524 -0.0163 -0.4872
  830MOL0     C14449  10.298   3.134   0.678  0.4116  0.0717 -0.2802
  830MOL0     O14450  10.586   3.183   0.711 -0.2341 -0.3320 -0.0019
  830MOL0     C14451  10.600   3.264   1.068 -0.6787 -0.7313  0.5672
  830MOL0     C14452  10.680   3.252   1.179 -0.1192 -1.1009 -0.7096
  830MOL0     N14453  11.061   3.594   1.749  0.0805 -0.2438  0.2553
  830MOL0     N14454  10.997   3.705   1.754  0.4943  0.1868  0.0988
  830MOL0     C14455   9.875   3.571   1.084  0.3283  0.0739  1.4797
  830MOL0     C14456   9.760   3.585   1.001  0.3088  0.0510 -0.0811
  830MOL0     C14457   9.481   3.568   0.625 -0.6238 -0.4595  0.0110
  830MOL0     C14458   9.455   3.498   0.505  0.4491 -0.5485  0.4531
  830MOL0     C14459   9.328   3.513   0.449 -0.1917 -0.5898  0.0903
  830MOL0     C14460   9.217   3.568   0.514  0.1906  0.5393 -0.2182
  830MOL0     O14461   9.094   3.562   0.455  0.8154  0.5738  0.1641
  830MOL0     C14462   8.995   3.653   0.498  0.3697 -0.3808  1.1120
  830MOL0     C14463   8.908   3.703   0.387  0.8308  0.2728  0.5028
  830MOL0     C14464   8.782   3.754   0.464 -0.9001 -0.2654  0.3915
  830MOL0     C14465   8.694   3.801   0.344 -0.4621  0.8149 -0.1693
  830MOL0     C14466   8.550   3.795   0.381 -0.4146  0.2307  0.9246
  830MOL0     C14467   8.440   3.787   0.420  0.1800 -0.1732  0.5149
  830MOL0     C14468   9.240   3.615   0.644 -0.1133  0.0985 -0.5121
  830MOL0     C14469   9.375   3.623   0.695 -0.5619 -0.4993 -0.3083
  830MOL0     C14470   9.390   3.704   0.821 -0.6632 -0.1922 -0.5363
  830MOL0     H14471   9.911   3.611   0.700  0.8750  2.4468 -0.5415
  830MOL0     H14472  10.112   3.597   0.844 -0.9252  0.9275 -4.5224
  830MOL0     H14473  10.217   3.741   1.012 -0.0602 -0.2120 -0.8338
  830MOL0     H14474  10.319   3.581   1.013  1.1431 -1.7506  2.5675
  830MOL0     H14475  10.247   3.774   1.235 -0.3200 -0.7529 -0.3228
  830MOL0     H14476  10.299   3.615   1.267 -1.1078  0.4611  0.2226
  830MOL0     H14477  10.521   3.699   1.114  1.6909  2.6438 -0.4445
  830MOL0     H14478  10.456   3.856   1.152  0.0726 -1.0155 -1.0529
  830MOL0     H14479  10.450   3.795   1.398  2.8337  1.3932  1.3552
  830MOL0     H14480  10.541   3.657   1.364  2.7412  1.3753 -0.7401
  830MOL0     H14481  10.626   3.936   1.326  0.3700  0.3376 -2.5774
  830MOL0     H14482  10.696   3.814   1.218 -0.5103 -1.1959  0.8274
  830MOL0     H14483  10.820   3.721   1.376  1.0809  2.0871 -2.2712
  830MOL0     H14484  10.833   3.882   1.428 -0.3343 -0.0822  1.6264
  830MOL0     H14485  10.629   3.702   1.573 -0.9695  0.4031  3.0296
  830MOL0     H14486  10.621   3.881   1.576  1.1987  1.5262  0.3064
  830MOL0     H14487  10.831   3.894   1.673  0.9465 -0.4018 -0.9607
  830MOL0     H14488  10.733   3.784   1.778  0.4810 -1.1730 -0.4774
  830MOL0     H14489  10.785   3.525   1.585  0.3659 -1.1177  1.5325
  830MOL0     H14490  10.963   3.295   1.642  2.0976 -2.5088 -1.0749
  830MOL0     H14491  11.124   3.344   1.698  2.3317  0.7436 -2.7285
  830MOL0     H14492  11.012   3.446   1.429 -1.6873  0.2084  1.8947
  830MOL0     H14493  11.181   3.422   1.481 -0.1481 -1.5619 -1.6558
  830MOL0     H14494  11.194   3.209   1.415  0.4208 -1.8336  2.0571
  830MOL0     H14495  11.047   3.166   1.476  0.4013 -0.0990 -0.5946
  830MOL0     H14496  11.058   3.350   1.226 -1.2445  0.7516  1.8072
  830MOL0     H14497  11.082   3.169   1.216  0.4716 -1.4473  2.3964
  830MOL0     H14498  10.983   3.220   1.021  1.1027 -0.7235  1.7815
  830MOL0     H14499  10.826   3.273   0.711 -2.5814 -0.7408 -0.5711
  830MOL0     H14500  10.818   3.108   0.743 -2.7379  0.5163  2.0092
  830MOL0     H14501  10.973   3.209   0.789 -0.1637 -0.2833  3.2794
  830MOL0     H14502  10.213   3.343   0.942 -0.2697  0.8805 -0.9942
  830MOL0     H14503   9.995   3.279   0.881  0.4452  1.8411  0.4753
  830MOL0     H14504   9.790   3.200   0.804  2.1455  0.4848 -0.4507
  830MOL0     H14505   9.816   3.301   0.666 -2.1652  0.5330  1.1904
  830MOL0     H14506   9.624   3.210   0.595 -2.3532 -1.8786 -0.5033
  830MOL0     H14507   9.735   3.086   0.534  2.8452 -2.3722  0.6312
  830MOL0     H14508   9.576   3.051   0.796  2.0199 -0.2839  1.6753
  830MOL0     H14509   9.726   2.965   0.759 -0.6245 -0.1573 -1.7532
  830MOL0     H14510   9.630   2.875   0.541 -1.0580  0.4314 -0.7211
  830MOL0     H14511   9.486   2.974   0.574  0.0976 -0.5236 -1.6864
  830MOL0     H14512   9.602   2.747   0.749 -0.3491 -0.7591 -2.0981
  830MOL0     H14513   9.464   2.849   0.807  1.3066  1.9451  0.4788
  830MOL0     H14514   9.466   2.651   0.576  0.4061  0.8660 -1.0844
  830MOL0     H14515   9.341   2.780   0.596  2.6980  0.6674 -3.3782
  830MOL0     H14516   9.280   2.665   0.796  0.2733  1.0667  0.6469
  830MOL0     H14517   9.444   2.600   0.799 -1.3905 -1.1338  0.4442
  830MOL0     H14518   9.307   2.424   0.769  2.2403  2.7833  2.5539
  830MOL0     H14519   9.400   2.426   0.626  2.0929  1.3907  0.3820
  830MOL0     H14520  10.156   3.027   0.574 -0.4691  1.2299 -1.6149
  830MOL0     H14521  10.379   3.084   0.625 -1.3005 -3.2585 -0.0199
  830MOL0     H14522  10.499   3.299   1.087  0.4430  1.8894  2.3298
  830MOL0     H14523  10.649   3.248   1.283  0.7292  0.0938 -0.3905
  830MOL0     H14524   9.865   3.563   1.192 -1.1103  0.3838  1.3850
  830MOL0     H14525   9.672   3.575   1.064  0.8083  0.0818  0.6306
  830MOL0     H14526   9.537   3.454   0.448  2.0366  0.5069  1.8096
  830MOL0     H14527   9.300   3.471   0.352  0.0408 -0.9825  0.1881
  830MOL0     H14528   8.937   3.603   0.576 -1.3284 -1.0209 -0.4955
  830MOL0     H14529   9.045   3.741   0.540  1.9430  0.0017 -1.3445
  830MOL0     H14530   8.870   3.621   0.326 -0.7726 -0.5211  2.4345
  830MOL0     H14531   8.953   3.781   0.325 -0.7345  0.7822 -0.0546
  830MOL0     H14532   8.725   3.678   0.519 -3.0577  1.5407  0.8035
  830MOL0     H14533   8.798   3.833   0.537 -3.9308  1.3412 -0.4930
  830MOL0     H14534   8.705   3.737   0.256 -0.0116  0.9792 -0.2368
  830MOL0     H14535   8.724   3.904   0.322 -1.9449  1.1240 -0.8190
  830MOL0     H14536   8.338   3.783   0.450  0.3417 -2.2982  0.9146
  830MOL0     H14537   9.156   3.639   0.709 -0.0003 -2.1208  0.5688
  830MOL0     H14538   9.476   3.771   0.809 -0.6378  0.4954  2.5973
  830MOL0     H14539   9.310   3.775   0.840  0.7806  1.3608  0.0151
  830MOL0     H14540   9.387   3.641   0.911  0.5619 -1.9611 -1.6646
  831MOL0     O14541   3.785   3.629   0.579  0.1595  0.0978  0.2180
  831MOL0     C14542   3.846   3.715   0.651  0.7670  0.9789  0.1507
  831MOL0     O14543   3.782   3.822   0.707 -0.2748  0.1953  0.3881
  831MOL0     C14544   3.655   3.855   0.671 -1.3964  0.1731 -0.3525
  831MOL0     C14545   3.562   3.882   0.770 -0.4347 -0.9652 -0.4733
  831MOL0     C14546   3.432   3.925   0.727  0.4409  1.0104  0.7519
  831MOL0     C14547   3.397   3.934   0.592  1.0173  0.0210 -0.3364
  831MOL0     O14548   3.274   3.977   0.558 -0.6124  0.2711 -0.4486
  831MOL0     C14549   3.201   3.887   0.477 -0.0663 -0.0218 -0.1984
  831MOL0     C14550   3.071   3.954   0.457  0.2348  0.3238  0.3643
  831MOL0     C14551   2.973   3.851   0.395  0.4439 -0.6929 -0.0972
  831MOL0     C14552   2.823   3.896   0.403  0.8992 -0.5694 -0.0946
  831MOL0     C14553   2.732   3.820   0.307  0.6120  0.5041 -0.6002
  831MOL0     C14554   2.583   3.860   0.303  0.8177  0.3106  0.7647
  831MOL0     C14555   2.509   3.779   0.191 -0.4624  0.7118  0.2644
  831MOL0     C14556   2.441   3.660   0.251  0.0565  0.6670 -0.2476
  831MOL0     N14557   2.370   3.578   0.147  0.1175 -0.4781 -0.0078
  831MOL0     C14558   2.421   3.556   0.022 -0.2174  0.2408  0.7856
  831MOL0     C14559   2.324   3.481  -0.037  0.2248  0.3405  0.0096
  831MOL0     C14560   2.335   3.435  -0.181 -0.3335  0.7211 -0.8333
  831MOL0     C14561   2.227   3.507  -0.266 -0.4967  0.1433  0.1029
  831MOL0     C14562   2.226   3.662  -0.250 -0.8679  0.4321 -0.3372
  831MOL0     C14563   2.353   3.739  -0.325  0.7470  0.6892 -0.3696
  831MOL0     O14564   2.382   3.869  -0.274 -0.0192  0.2787  0.6136
  831MOL0     C14565   2.495   3.903  -0.202  0.6804 -0.6064 -0.1794
  831MOL0     C14566   2.477   4.008  -0.112  0.0466 -0.6250  1.3115
  831MOL0     C14567   2.586   4.079  -0.066 -0.2636  0.8358 -0.1351
  831MOL0     C14568   2.565   4.203   0.018 -0.3362  0.4021  0.4732
  831MOL0     C14569   2.719   4.023  -0.072 -0.5100 -0.0305  0.3534
  831MOL0     C14570   2.840   4.080  -0.015 -0.1266 -0.2866  0.8522
  831MOL0     O14571   2.927   4.002   0.053 -0.4319  0.3955  0.3698
  831MOL0     C14572   3.043   4.058   0.108  0.1246  0.3054 -1.1588
  831MOL0     C14573   3.163   3.988   0.083  0.1939 -0.0378 -0.0795
  831MOL0     C14574   3.280   4.060   0.109  0.9883  0.2093 -0.4539
  831MOL0     C14575   3.283   4.185   0.170 -0.2820  0.5641  0.5205
  831MOL0     O14576   3.408   4.234   0.189  0.1756 -0.5017 -0.0053
  831MOL0     C14577   3.418   4.354   0.252  0.0534  0.2142 -0.0657
  831MOL0     C14578   3.567   4.376   0.276  0.1778 -0.7461 -0.8424
  831MOL0     C14579   3.632   4.260   0.364  0.0486  0.0457 -0.0971
  831MOL0     C14580   3.778   4.290   0.378 -0.2888 -0.1899 -0.0312
  831MOL0     C14581   3.842   4.172   0.450 -0.4479 -0.0867 -0.5388
  831MOL0     C14582   3.999   4.183   0.450 -0.1744 -0.3646  0.6612
  831MOL0     C14583   4.057   4.052   0.487 -1.5468  0.2619 -0.6610
  831MOL0     C14584   4.211   4.079   0.509 -0.1494 -0.2460 -0.1388
  831MOL0    Cl14585   4.300   4.107   0.345 -0.2685  0.2508  0.0254
  831MOL0     C14586   3.164   4.239   0.211  0.9703 -0.2487  0.0638
  831MOL0     C14587   3.048   4.175   0.178 -0.2845  0.6305 -0.3961
  831MOL0     O14588   2.859   4.194  -0.043  0.5762 -0.5228  0.5411
  831MOL0     C14589   2.727   3.911  -0.166  0.1954 -0.2927 -0.6881
  831MOL0     C14590   2.623   3.858  -0.232  0.7573  0.3815  0.3706
  831MOL0     N14591   2.228   3.447   0.051 -0.6833  0.6205 -0.7612
  831MOL0     N14592   2.251   3.514   0.158 -0.7834 -0.2341 -0.8998
  831MOL0     C14593   3.500   3.917   0.507 -1.1307 -0.7755 -0.6894
  831MOL0     C14594   3.629   3.878   0.542  0.1146 -0.4053  0.4862
  831MOL0     C14595   3.997   3.714   0.668 -0.4469 -0.2425 -0.1530
  831MOL0     C14596   4.061   3.803   0.764  1.1199  0.5377 -0.0490
  831MOL0     C14597   4.197   3.802   0.788  0.5616 -0.5223  0.2651
  831MOL0     C14598   4.282   3.710   0.723  0.2482 -0.2410 -0.2534
  831MOL0     O14599   4.412   3.697   0.767 -0.3718  0.1074  0.6468
  831MOL0     C14600   4.502   3.643   0.669 -0.1980  0.5136  0.7215
  831MOL0     C14601   4.626   3.734   0.661  0.2485 -0.2029  1.2087
  831MOL0     C14602   4.576   3.861   0.601 -0.5100 -0.3297 -0.1765
  831MOL0     C14603   4.694   3.954   0.565  0.6302 -0.1360 -0.0437
  831MOL0     C14604   4.649   4.081   0.527  0.0856 -0.1898 -0.1903
  831MOL0     C14605   4.604   4.183   0.480 -0.7186  0.3457 -0.3242
  831MOL0     C14606   4.216   3.631   0.625 -0.0805  0.3726 -0.2299
  831MOL0     C14607   4.080   3.625   0.601 -0.9092 -0.5822  0.7744
  831MOL0     C14608   4.044   3.511   0.505 -0.4963 -1.4407 -0.6528
  831MOL0     H14609   3.581   3.879   0.877 -1.8352  1.3462 -0.0840
  831MOL0     H14610   3.363   3.950   0.807 -1.3727  1.5950 -0.8990
  831MOL0     H14611   3.200   3.789   0.526 -0.5103 -0.7312 -1.5843
  831MOL0     H14612   3.260   3.872   0.386  1.0429  0.3995  0.4289
  831MOL0     H14613   3.041   3.981   0.558  0.4404  1.8460  0.0350
  831MOL0     H14614   3.072   4.048   0.400 -1.3000 -0.3157 -0.8152
  831MOL0     H14615   2.981   3.838   0.287 -0.1049 -2.7526  0.0585
  831MOL0     H14616   2.996   3.751   0.433 -1.6579 -0.7537  1.2007
  831MOL0     H14617   2.768   3.874   0.495  0.1492 -1.9395 -0.8473
  831MOL0     H14618   2.810   4.004   0.394 -1.6592 -0.8399 -0.1468
  831MOL0     H14619   2.739   3.715   0.338 -1.0169  0.1053 -1.4603
  831MOL0     H14620   2.767   3.825   0.203 -1.4066 -2.4305 -1.5607
  831MOL0     H14621   2.546   3.865   0.405 -1.4867  1.6479 -0.0726
  831MOL0     H14622   2.588   3.964   0.270  0.0256 -0.2649 -1.3827
  831MOL0     H14623   2.586   3.750   0.119 -2.2093 -1.9756 -0.6756
  831MOL0     H14624   2.426   3.839   0.155 -1.4003 -0.6206  0.1325
  831MOL0     H14625   2.515   3.597   0.301 -0.3509  1.8170  1.9470
  831MOL0     H14626   2.379   3.701   0.332  1.2106  0.0953  0.9674
  831MOL0     H14627   2.514   3.596  -0.017 -2.0641  2.5552 -1.6019
  831MOL0     H14628   2.324   3.326  -0.178  1.5566  0.3380  4.9417
  831MOL0     H14629   2.440   3.453  -0.209 -0.3594  2.7222  0.1652
  831MOL0     H14630   2.240   3.485  -0.373  1.3083 -0.7128  0.4457
  831MOL0     H14631   2.126   3.476  -0.238 -1.0741  1.6477 -0.2038
  831MOL0     H14632   2.142   3.708  -0.302  2.8439  3.7939 -4.0685
  831MOL0     H14633   2.224   3.679  -0.142  0.5794 -0.2181 -0.1859
  831MOL0     H14634   2.441   3.676  -0.310 -2.6171 -4.1799  1.2579
  831MOL0     H14635   2.341   3.754  -0.433  1.0173  0.1017 -0.4873
  831MOL0     H14636   2.381   4.052  -0.087 -1.1743 -1.8079 -0.9935
  831MOL0     H14637   2.612   4.190   0.116  0.4122  0.3553  0.1158
  831MOL0     H14638   2.464   4.244   0.017 -0.5292 -0.0181 -1.8042
  831MOL0     H14639   2.617   4.280  -0.039 -2.6396 -1.6033 -4.9287
  831MOL0     H14640   3.166   3.897   0.024  2.1465 -0.5884  0.7877
  831MOL0     H14641   3.364   4.013   0.060  0.7166 -1.8545  0.9615
  831MOL0     H14642   3.382   4.430   0.182 -0.7257  2.0633  2.1990
  831MOL0     H14643   3.359   4.358   0.344 -2.3268  3.2378 -1.5614
  831MOL0     H14644   3.629   4.371   0.186  2.4521  0.0591  0.5701
  831MOL0     H14645   3.581   4.474   0.323  3.9554 -2.3189  1.9231
  831MOL0     H14646   3.628   4.171   0.300 -2.9378  1.6962 -2.4616
  831MOL0     H14647   3.585   4.249   0.462  1.3231 -0.4348  0.4832
  831MOL0     H14648   3.790   4.381   0.437 -3.0804 -0.3189  0.8931
  831MOL0     H14649   3.827   4.308   0.282 -2.5150  1.5901 -0.9453
  831MOL0     H14650   3.803   4.161   0.551  1.0607  0.6201  0.1574
  831MOL0     H14651   3.818   4.078   0.400  0.2829  0.0515 -1.1647
  831MOL0     H14652   4.036   4.253   0.525 -0.9285 -0.5102  1.1808
  831MOL0     H14653   4.038   4.215   0.353  0.3648  2.2794  1.6621
  831MOL0     H14654   4.052   3.973   0.412 -1.5763 -0.2887 -0.0857
  831MOL0     H14655   4.015   4.015   0.581  1.0722  0.6514  0.7711
  831MOL0     H14656   4.252   3.983   0.540  0.3055 -0.1080 -0.3008
  831MOL0     H14657   4.237   4.161   0.576 -0.7648  0.2548 -0.4926
  831MOL0     H14658   3.161   4.339   0.251 -0.3426 -0.4241  0.4268
  831MOL0     H14659   2.953   4.227   0.188 -1.6935 -1.8069 -0.2284
  831MOL0     H14660   2.827   3.872  -0.178  0.5881  0.6343 -0.4666
  831MOL0     H14661   2.632   3.773  -0.299  0.1981 -0.3543  1.2034
  831MOL0     H14662   3.478   3.935   0.402  0.1824 -0.9875 -1.0264
  831MOL0     H14663   3.694   3.865   0.456  1.5526 -0.8940  1.5930
  831MOL0     H14664   4.008   3.868   0.832 -0.2183 -0.7861  0.2107
  831MOL0     H14665   4.227   3.869   0.868 -0.2367 -2.9596  2.7547
  831MOL0     H14666   4.527   3.542   0.701  0.1240  1.4060  3.6213
  831MOL0     H14667   4.466   3.630   0.566  0.4832 -2.9218  0.8032
  831MOL0     H14668   4.698   3.692   0.590 -0.0492  1.2968 -0.0369
  831MOL0     H14669   4.671   3.761   0.756 -0.9553  3.3727  0.9371
  831MOL0     H14670   4.522   3.826   0.512 -1.7864 -0.5278  0.6540
  831MOL0     H14671   4.510   3.911   0.672 -1.7380 -0.7809 -0.9711
  831MOL0     H14672   4.753   3.913   0.483 -2.7966 -1.0468 -2.2535
  831MOL0     H14673   4.764   3.974   0.647  2.5489  3.9424 -2.3506
  831MOL0     H14674   4.552   4.275   0.462 -0.3006  0.9093  1.1653
  831MOL0     H14675   4.278   3.561   0.569  2.0820  1.8460  0.2158
  831MOL0     H14676   4.012   3.428   0.568  1.5451 -0.3041  2.0598
  831MOL0     H14677   3.965   3.537   0.434 -0.2440  0.6558 -0.2343
  831MOL0     H14678   4.134   3.488   0.447  1.4739  1.5903  0.9003
  832MOL0     O14679   6.405   9.804   6.699 -0.2936 -0.0846 -0.7752
  832MOL0     C14680   6.405   9.888   6.787  0.5750 -0.0889 -0.4780
  832MOL0     O14681   6.318   9.886   6.900 -0.0358  0.0684  0.3902
  832MOL0     C14682   6.241   9.786   6.946  0.5456  0.7952  0.5816
  832MOL0     C14683   6.206   9.788   7.081  0.9602  0.2431 -0.4100
  832MOL0     C14684   6.136   9.678   7.140 -0.0645  0.3808  0.3637
  832MOL0     C14685   6.068   9.585   7.059 -0.0686  0.6064 -0.4880
  832MOL0     O14686   5.978   9.494   7.109 -0.2667  0.5777 -0.0147
  832MOL0     C14687   5.980   9.463   7.249 -0.5155 -0.9765  0.4084
  832MOL0     C14688   5.863   9.364   7.277  0.2766  0.0741 -0.4047
  832MOL0     C14689   5.729   9.410   7.222 -1.0932 -0.0234  0.4959
  832MOL0     C14690   5.620   9.304   7.253 -0.4242 -0.1693  0.0610
  832MOL0     C14691   5.496   9.325   7.167  0.3665 -0.8815  0.2548
  832MOL0     C14692   5.402   9.199   7.172 -0.1369 -0.2610  0.7698
  832MOL0     C14693   5.443   9.094   7.074  0.1377 -0.5274  0.1846
  832MOL0     C14694   5.323   9.001   7.039  0.0887 -0.1195 -0.9226
  832MOL0     N14695   5.342   8.932   6.920  0.0974  0.6105 -0.2134
  832MOL0     C14696   5.339   8.993   6.799  0.9329  0.3545 -1.3273
  832MOL0     C14697   5.385   8.902   6.707 -0.8400  0.3940  0.0583
  832MOL0     C14698   5.380   8.929   6.557 -0.8465  0.2021  0.6290
  832MOL0     C14699   5.523   8.950   6.512  0.4114 -0.4969 -0.8376
  832MOL0     C14700   5.526   8.931   6.368 -0.3142  0.2578 -0.4430
  832MOL0     C14701   5.673   8.937   6.315 -0.4101  0.6134  0.0265
  832MOL0     O14702   5.649   8.952   6.169 -1.0183  0.1521  0.4439
  832MOL0     C14703   5.762   8.945   6.097 -0.3785  0.5775 -0.0613
  832MOL0     C14704   5.758   8.945   5.958 -0.5195  0.0309  0.1758
  832MOL0     C14705   5.873   8.938   5.875  0.7966 -0.1727  1.1923
  832MOL0     C14706   5.852   8.953   5.731  0.8497  0.2806 -0.5229
  832MOL0     C14707   5.999   8.897   5.926 -0.1877 -0.5504  0.1560
  832MOL0     C14708   6.129   8.878   5.852  0.2422  0.6276 -0.3404
  832MOL0     O14709   6.231   8.840   5.929 -0.1055  0.2412  0.1496
  832MOL0     C14710   6.343   8.800   5.877  0.1484 -0.3006 -0.2302
  832MOL0     C14711   6.467   8.833   5.943 -0.0005 -0.6371 -0.2513
  832MOL0     C14712   6.581   8.788   5.886 -0.1328 -0.2557 -0.2349
  832MOL0     C14713   6.583   8.728   5.763 -0.1800  0.5030 -0.0174
  832MOL0     O14714   6.704   8.707   5.702 -0.8099  0.8652 -0.4220
  832MOL0     C14715   6.726   8.744   5.563 -0.2595 -0.6119  0.6544
  832MOL0     C14716   6.715   8.895   5.527  0.5818  0.5826  1.2871
  832MOL0     C14717   6.571   8.929   5.493  0.2730 -0.4229 -0.0108
  832MOL0     C14718   6.565   9.062   5.414 -0.5642  0.3764  0.1395
  832MOL0     C14719   6.412   9.096   5.408 -0.1355  0.2067  0.2422
  832MOL0     C14720   6.423   9.248   5.381 -0.7177  0.2306 -0.5647
  832MOL0     C14721   6.285   9.305   5.351  0.4025 -0.0100 -0.5427
  832MOL0     C14722   6.199   9.288   5.483 -0.8668  0.4509  0.8777
  832MOL0    Cl14723   6.074   9.411   5.526  0.1236  0.3089 -0.2820
  832MOL0     C14724   6.463   8.693   5.706  0.7032  0.2197  0.0784
  832MOL0     C14725   6.341   8.716   5.770 -0.3282  0.4251  0.7269
  832MOL0     O14726   6.135   8.910   5.731  0.3325  0.3975 -0.2770
  832MOL0     C14727   6.006   8.904   6.067 -0.3675  0.5440 -0.6942
  832MOL0     C14728   5.893   8.910   6.150 -0.0653  0.8646  0.2579
  832MOL0     N14729   5.424   8.786   6.779 -0.1976  1.1978 -0.0960
  832MOL0     N14730   5.397   8.805   6.911 -0.3090  0.2784 -0.0226
  832MOL0     C14731   6.104   9.587   6.922  0.3761 -0.0247 -0.1372
  832MOL0     C14732   6.190   9.681   6.867  0.3351 -0.2295  0.7403
  832MOL0     C14733   6.511   9.993   6.759  0.1831 -0.0716  0.5344
  832MOL0     C14734   6.612   9.977   6.663  1.0809 -0.4888  0.1762
  832MOL0     C14735   6.723  10.057   6.662 -0.1745 -0.7417  0.6208
  832MOL0     C14736   6.743  10.168   6.741 -0.0077 -0.0009  0.1602
  832MOL0     O14737   6.851  10.255   6.745 -0.1687 -0.4667  0.2361
  832MOL0     C14738   6.947  10.236   6.637  0.4703 -0.0753  0.0205
  832MOL0     C14739   6.910  10.293   6.505  0.1553  0.6045  0.8415
  832MOL0     C14740   6.907  10.443   6.509 -0.4796  1.1487  0.3448
  832MOL0     C14741   6.832  10.499   6.389 -0.9989 -0.2428  0.2651
  832MOL0     C14742   6.925  10.517   6.278  0.1243 -1.1025 -0.0769
  832MOL0     C14743   7.003  10.536   6.184  0.0244 -0.8188 -0.5703
  832MOL0     C14744   6.634  10.198   6.822  0.3095  0.1810 -0.3418
  832MOL0     C14745   6.520  10.108   6.841 -0.1075  0.2554  0.5558
  832MOL0     C14746   6.418  10.146   6.942 -0.2405  0.1704 -1.0390
  832MOL0     H14747   6.233   9.866   7.152  1.5551 -0.2935 -0.0325
  832MOL0     H14748   6.128   9.674   7.248 -0.4733 -0.7537  0.2998
  832MOL0     H14749   5.965   9.545   7.320  3.1627  2.3456 -2.2553
  832MOL0     H14750   6.081   9.430   7.276  0.4814  2.3318  1.1454
  832MOL0     H14751   5.887   9.271   7.225 -1.8294 -0.2594 -0.8412
  832MOL0     H14752   5.856   9.361   7.386 -0.9402  0.5567 -0.4600
  832MOL0     H14753   5.711   9.515   7.247  2.4728  0.8836 -0.3291
  832MOL0     H14754   5.742   9.418   7.114  2.4258  0.9139  0.8771
  832MOL0     H14755   5.655   9.204   7.225 -1.8346 -0.2100 -1.8030
  832MOL0     H14756   5.588   9.299   7.358 -1.2445 -0.0564 -0.1750
  832MOL0     H14757   5.520   9.352   7.064 -3.1054  2.0914  0.0182
  832MOL0     H14758   5.439   9.410   7.207  0.4927 -1.3825  1.5581
  832MOL0     H14759   5.396   9.163   7.276  2.2018 -0.1416  1.0022
  832MOL0     H14760   5.301   9.224   7.139 -0.0621 -1.2595 -0.2745
  832MOL0     H14761   5.520   9.028   7.114  0.0280 -2.0188 -1.8682
  832MOL0     H14762   5.476   9.146   6.984 -0.0979 -2.3625 -1.0297
  832MOL0     H14763   5.310   8.920   7.112  0.7840 -0.4810 -1.1881
  832MOL0     H14764   5.231   9.060   7.044 -1.0593 -1.8527 -0.5163
  832MOL0     H14765   5.302   9.093   6.777  1.0029  0.6323 -0.2056
  832MOL0     H14766   5.323   9.020   6.538  0.1079  0.7178  0.1815
  832MOL0     H14767   5.335   8.851   6.495 -0.9866 -0.1331  1.1429
  832MOL0     H14768   5.550   9.048   6.552  0.4846 -1.0236  0.4388
  832MOL0     H14769   5.591   8.877   6.557 -0.1420  0.9727  2.6791
  832MOL0     H14770   5.479   8.834   6.352  0.4187 -0.5611  1.8980
  832MOL0     H14771   5.457   9.007   6.331  0.1071  1.7806  1.7285
  832MOL0     H14772   5.729   9.023   6.352 -1.3649  1.9273 -1.4403
  832MOL0     H14773   5.727   8.845   6.340  0.1891  1.4004  1.7654
  832MOL0     H14774   5.664   8.965   5.907  1.3202  2.7787 -2.5187
  832MOL0     H14775   5.882   8.866   5.670  0.3972  1.2427 -2.1846
  832MOL0     H14776   5.913   9.034   5.690  0.2470  0.0371 -1.9795
  832MOL0     H14777   5.745   8.965   5.712  0.5604  0.1056  0.8926
  832MOL0     H14778   6.464   8.880   6.041  2.8671  1.7627 -1.1634
  832MOL0     H14779   6.678   8.815   5.924  0.3182 -0.2885 -1.3132
  832MOL0     H14780   6.826   8.707   5.540 -0.1623 -1.2159  1.9398
  832MOL0     H14781   6.662   8.686   5.495 -0.1741 -1.0041  0.9016
  832MOL0     H14782   6.745   8.960   5.609 -3.9038  2.3924  1.8235
  832MOL0     H14783   6.783   8.908   5.443 -0.8560 -0.5850 -0.1287
  832MOL0     H14784   6.517   8.930   5.588 -0.1349 -2.3927 -0.1857
  832MOL0     H14785   6.517   8.851   5.440 -3.5528  2.0132 -0.0730
  832MOL0     H14786   6.616   9.048   5.319 -0.8483  0.3952 -0.0174
  832MOL0     H14787   6.617   9.133   5.479  2.2556 -1.2498 -0.2129
  832MOL0     H14788   6.359   9.044   5.327  1.4037  0.2882 -0.8604
  832MOL0     H14789   6.357   9.078   5.501  0.2689  1.5204  0.7548
  832MOL0     H14790   6.489   9.270   5.296 -1.4692 -0.7031 -1.4209
  832MOL0     H14791   6.470   9.288   5.471 -1.6309  0.5044 -0.2023
  832MOL0     H14792   6.239   9.242   5.274 -0.6320 -0.4598  0.4296
  832MOL0     H14793   6.271   9.408   5.316 -3.3269  0.4567  1.8066
  832MOL0     H14794   6.273   9.279   5.563  1.1097 -5.3518 -1.0491
  832MOL0     H14795   6.148   9.193   5.462 -1.5426  1.6859 -4.4549
  832MOL0     H14796   6.474   8.634   5.615 -1.4236  1.2823 -0.9458
  832MOL0     H14797   6.246   8.695   5.722 -1.0111  1.1214  1.7322
  832MOL0     H14798   6.097   8.873   6.117 -1.0790 -0.6580 -0.0988
  832MOL0     H14799   5.905   8.901   6.257 -1.0502 -4.2962  0.2334
  832MOL0     H14800   6.063   9.509   6.860  1.1685 -0.3487 -0.2629
  832MOL0     H14801   6.215   9.678   6.762 -2.5219 -0.9221 -0.0029
  832MOL0     H14802   6.598   9.894   6.595  2.6893 -0.3608 -0.3519
  832MOL0     H14803   6.797  10.020   6.592  0.0265 -1.6553  1.3028
  832MOL0     H14804   7.036  10.292   6.668  0.0833  0.0948  0.8498
  832MOL0     H14805   6.968  10.130   6.619  0.3120  0.1525 -1.6460
  832MOL0     H14806   6.813  10.257   6.469  1.8894 -0.7006 -3.1978
  832MOL0     H14807   6.977  10.250   6.430  0.7158 -1.3918  2.4209
  832MOL0     H14808   6.855  10.465   6.603 -0.5039  0.4771  0.4890
  832MOL0     H14809   7.006  10.490   6.514  1.8869 -3.2393 -0.3281
  832MOL0     H14810   6.785  10.592   6.423  0.1863 -0.1464  1.7045
  832MOL0     H14811   6.767  10.420   6.351 -0.0109 -0.2738 -1.4822
  832MOL0     H14812   7.076  10.550   6.107 -0.7111 -2.3466 -1.5946
  832MOL0     H14813   6.651  10.285   6.885 -1.0775  0.2079  0.0237
  832MOL0     H14814   6.315  10.142   6.907 -0.8560 -0.3206  0.7312
  832MOL0     H14815   6.427  10.081   7.029 -3.2989 -0.7530 -1.3207
  832MOL0     H14816   6.430  10.248   6.980  0.3296 -0.2412 -0.0656
  833MOL0     O14817   4.055   3.629   5.741  0.5306 -0.2671  0.4962
  833MOL0     C14818   4.019   3.746   5.726  0.2260 -0.1084  0.4988
  833MOL0     O14819   4.101   3.856   5.751  0.0863  0.2259  0.5084
  833MOL0     C14820   4.233   3.831   5.768  0.9196  0.4037 -0.6310
  833MOL0     C14821   4.328   3.813   5.670  0.2115  0.7555 -0.8409
  833MOL0     C14822   4.462   3.804   5.685 -0.1645  0.5748 -0.1395
  833MOL0     C14823   4.512   3.814   5.814  0.3463  0.6640  0.5507
  833MOL0     O14824   4.642   3.810   5.844  0.6438 -0.1710 -0.1470
  833MOL0     C14825   4.737   3.731   5.767 -0.3865  0.1740  0.5941
  833MOL0     C14826   4.867   3.683   5.843 -0.8567 -0.1398 -0.2046
  833MOL0     C14827   4.832   3.632   5.985  0.1211 -0.6916  0.3729
  833MOL0     C14828   4.960   3.629   6.070 -0.1285  0.1125  0.9775
  833MOL0     C14829   4.913   3.598   6.214 -0.0154 -0.4788 -0.0206
  833MOL0     C14830   5.017   3.549   6.314 -0.4167  0.2558  0.0650
  833MOL0     C14831   5.133   3.637   6.324 -0.3368  0.0518 -0.0629
  833MOL0     C14832   5.228   3.600   6.435 -0.7764  0.5136 -0.0143
  833MOL0     N14833   5.314   3.481   6.405 -0.1398  0.1434  0.3590
  833MOL0     C14834   5.427   3.477   6.331  0.2285 -0.2274  0.5726
  833MOL0     C14835   5.469   3.345   6.326 -0.1666  0.1018 -0.5437
  833MOL0     C14836   5.592   3.290   6.265  1.1360 -0.5615  0.2819
  833MOL0     C14837   5.716   3.381   6.281 -1.2403 -0.1689  0.6868
  833MOL0     C14838   5.846   3.301   6.242  0.5124 -0.5972  0.2807
  833MOL0     C14839   5.986   3.350   6.283  0.5386  0.7411 -0.6199
  833MOL0     O14840   6.073   3.243   6.301  0.4158  0.1504  0.7389
  833MOL0     C14841   6.120   3.174   6.195 -0.7173 -1.1752  0.8849
  833MOL0     C14842   6.126   3.218   6.061 -0.2036  0.9345  0.5742
  833MOL0     C14843   6.170   3.131   5.956 -0.0391 -0.2746  0.0491
  833MOL0     C14844   6.166   3.196   5.816 -0.0758  0.5464 -0.2881
  833MOL0     C14845   6.213   3.001   5.985 -0.5565 -0.6016 -1.1219
  833MOL0     C14846   6.271   2.913   5.886 -0.1312 -0.0868  0.0316
  833MOL0     O14847   6.286   2.784   5.924  0.2930 -0.2682 -0.3317
  833MOL0     C14848   6.335   2.699   5.833  0.3999 -0.1375 -0.3838
  833MOL0     C14849   6.250   2.636   5.746 -0.0641 -0.1704  0.3129
  833MOL0     C14850   6.300   2.557   5.647 -0.0716 -0.4945 -0.5377
  833MOL0     C14851   6.444   2.525   5.640 -0.1009  0.8323  0.5031
  833MOL0     O14852   6.501   2.430   5.556 -0.7737  0.4711 -0.8350
  833MOL0     C14853   6.415   2.390   5.448  0.0745  0.1773 -0.0951
  833MOL0     C14854   6.415   2.500   5.338 -0.2058 -0.6589  0.5620
  833MOL0     C14855   6.554   2.524   5.272  0.4079 -0.4123  0.3538
  833MOL0     C14856   6.553   2.617   5.142 -0.1066 -0.0873  0.3972
  833MOL0     C14857   6.677   2.610   5.050  0.1012  0.1321 -0.7408
  833MOL0     C14858   6.651   2.680   4.913 -0.0573  1.5764 -0.6055
  833MOL0     C14859   6.765   2.652   4.809  0.9135 -0.0328 -0.9376
  833MOL0     C14860   6.728   2.731   4.687 -0.5610 -0.9301  0.2227
  833MOL0    Cl14861   6.776   2.891   4.698 -0.1749  0.1769  0.0914
  833MOL0     C14862   6.530   2.584   5.738  0.0740  0.5824  0.3106
  833MOL0     C14863   6.478   2.681   5.823 -0.1954  0.5664  0.3402
  833MOL0     O14864   6.311   2.968   5.781  0.2282 -0.8137  0.2509
  833MOL0     C14865   6.211   2.960   6.124  0.3136  0.1046 -0.2824
  833MOL0     C14866   6.176   3.044   6.216 -0.3491  0.1157 -0.2042
  833MOL0     N14867   5.369   3.267   6.392 -1.0545  0.6686  0.2789
  833MOL0     N14868   5.281   3.351   6.442  0.5676 -0.5734 -0.0193
  833MOL0     C14869   4.422   3.820   5.920 -0.1807 -0.2011  0.7762
  833MOL0     C14870   4.281   3.836   5.896 -0.4534  0.6599 -1.4754
  833MOL0     C14871   3.879   3.774   5.694 -0.7908  0.0972  0.3876
  833MOL0     C14872   3.837   3.899   5.750  0.4432  0.6256  0.7799
  833MOL0     C14873   3.709   3.950   5.722  0.1390  0.1704  0.0917
  833MOL0     C14874   3.636   3.890   5.619 -0.8183  0.5332  0.8504
  833MOL0     O14875   3.513   3.940   5.579  0.2537  0.4883  1.1031
  833MOL0     C14876   3.494   4.079   5.585  0.0287  0.1310 -0.7111
  833MOL0     C14877   3.362   4.095   5.506  0.2622  0.5959 -0.5424
  833MOL0     C14878   3.248   4.001   5.563 -0.2290 -0.4922  0.0489
  833MOL0     C14879   3.120   4.007   5.477 -0.0492 -0.7472  0.6133
  833MOL0     C14880   2.997   3.982   5.568 -1.1969  0.3338  0.6436
  833MOL0     C14881   2.901   3.975   5.643  0.4076  1.1416  0.5295
  833MOL0     C14882   3.675   3.768   5.571 -0.4401  0.1107  0.6209
  833MOL0     C14883   3.793   3.702   5.614 -0.5912 -0.3100 -0.1530
  833MOL0     C14884   3.824   3.562   5.555  0.9916 -0.1590 -0.6286
  833MOL0     H14885   4.286   3.807   5.570 -1.1444  0.0502 -0.2662
  833MOL0     H14886   4.537   3.793   5.607  1.6045  1.6043  1.3366
  833MOL0     H14887   4.770   3.778   5.674  2.7672 -1.2595  0.8491
  833MOL0     H14888   4.690   3.636   5.741 -2.6551  0.7424  2.2931
  833MOL0     H14889   4.922   3.604   5.791  0.0362  0.2807  0.0761
  833MOL0     H14890   4.929   3.772   5.857 -0.6932 -0.3848  0.7134
  833MOL0     H14891   4.756   3.702   6.022  1.8971  1.4103  0.2446
  833MOL0     H14892   4.778   3.537   5.994 -1.5365  0.2805  0.9768
  833MOL0     H14893   5.033   3.552   6.042 -1.6473 -1.0387  0.0514
  833MOL0     H14894   5.005   3.728   6.069  0.9376 -0.3017 -1.6849
  833MOL0     H14895   4.826   3.532   6.214 -0.1809 -0.2645 -0.2448
  833MOL0     H14896   4.871   3.691   6.252 -1.4300 -1.0631 -0.0840
  833MOL0     H14897   4.982   3.542   6.417  2.9040 -3.0435  1.1626
  833MOL0     H14898   5.052   3.448   6.291 -0.3840 -0.4717  3.0025
  833MOL0     H14899   5.098   3.740   6.336 -1.1965 -0.1802 -0.5597
  833MOL0     H14900   5.190   3.628   6.231  1.1773 -0.0436  0.8208
  833MOL0     H14901   5.293   3.686   6.455  2.1040 -1.7372  1.0243
  833MOL0     H14902   5.181   3.579   6.532  0.2680  1.7103  0.7937
  833MOL0     H14903   5.474   3.562   6.282  0.8465  0.2002  1.8633
  833MOL0     H14904   5.575   3.286   6.157  1.1537 -0.5067  0.2774
  833MOL0     H14905   5.611   3.191   6.308 -1.1373 -1.9666 -1.6313
  833MOL0     H14906   5.719   3.474   6.224 -3.1603 -0.3167  0.2806
  833MOL0     H14907   5.737   3.405   6.386  0.0109  1.2485  0.1483
  833MOL0     H14908   5.843   3.209   6.300 -1.2940 -1.8032 -1.5786
  833MOL0     H14909   5.844   3.274   6.136  1.3929 -0.9968  0.3529
  833MOL0     H14910   6.034   3.424   6.219 -0.9571  0.8679 -1.6302
  833MOL0     H14911   5.971   3.405   6.377  2.3956  4.3782 -2.2541
  833MOL0     H14912   6.100   3.317   6.025  1.1730  1.0541 -0.1696
  833MOL0     H14913   6.117   3.133   5.741 -4.1455 -0.1054  2.6153
  833MOL0     H14914   6.262   3.226   5.773  0.1172  0.7109  0.2575
  833MOL0     H14915   6.107   3.287   5.805 -0.8785 -0.1900 -2.7972
  833MOL0     H14916   6.143   2.653   5.742  0.3221  2.5545 -0.3579
  833MOL0     H14917   6.233   2.526   5.567 -2.4716  0.5113  0.9888
  833MOL0     H14918   6.454   2.302   5.396 -0.9906  0.1281 -0.8482
  833MOL0     H14919   6.308   2.369   5.454  0.1706 -1.7530 -3.0740
  833MOL0     H14920   6.341   2.481   5.259  1.4403 -0.0717 -1.2011
  833MOL0     H14921   6.394   2.600   5.378  0.2667  0.0844 -0.9708
  833MOL0     H14922   6.582   2.421   5.248  2.7133  0.0677  0.8253
  833MOL0     H14923   6.621   2.571   5.344  0.3658 -1.2070  0.9364
  833MOL0     H14924   6.543   2.723   5.169  0.9876  0.9943 -2.9238
  833MOL0     H14925   6.474   2.579   5.076  1.9517 -2.0293 -1.0826
  833MOL0     H14926   6.774   2.642   5.089 -0.0680 -1.5364  1.2216
  833MOL0     H14927   6.689   2.502   5.044 -0.9929 -0.0363 -0.2306
  833MOL0     H14928   6.659   2.787   4.936  0.4632  1.6698 -1.2004
  833MOL0     H14929   6.549   2.653   4.886  1.6330 -3.9684 -2.8403
  833MOL0     H14930   6.772   2.546   4.781  0.6197 -0.7888  1.6304
  833MOL0     H14931   6.863   2.684   4.845  1.5121 -2.9611  0.3436
  833MOL0     H14932   6.623   2.728   4.658  0.4149 -1.5655 -3.9231
  833MOL0     H14933   6.777   2.683   4.602  0.8248 -0.2225  0.5906
  833MOL0     H14934   6.637   2.570   5.729 -0.2986 -2.0816 -0.9260
  833MOL0     H14935   6.539   2.752   5.878 -1.7137  0.9001  1.6636
  833MOL0     H14936   6.240   2.860   6.153 -2.0071 -0.8292 -1.0010
  833MOL0     H14937   6.189   3.014   6.320  1.0439  2.8810  0.5012
  833MOL0     H14938   4.471   3.812   6.017  1.1253  1.2640  0.2781
  833MOL0     H14939   4.218   3.858   5.982  1.4675  0.1620  0.1439
  833MOL0     H14940   3.896   3.951   5.824  1.1165  1.8023 -0.5402
  833MOL0     H14941   3.676   4.039   5.773 -0.5149  0.0986 -0.1941
  833MOL0     H14942   3.485   4.122   5.686  0.2589 -1.5341  0.0453
  833MOL0     H14943   3.567   4.138   5.529 -2.3935  2.2076 -1.9136
  833MOL0     H14944   3.377   4.055   5.406  1.4210 -0.2331 -0.0623
  833MOL0     H14945   3.336   4.201   5.496  1.6291  0.9588 -0.4915
  833MOL0     H14946   3.288   3.900   5.574  1.2181 -0.1950 -1.9018
  833MOL0     H14947   3.214   4.035   5.661  1.5459 -1.1222  0.9128
  833MOL0     H14948   3.113   3.930   5.400 -1.6980  1.2596 -1.3538
  833MOL0     H14949   3.096   4.108   5.442 -0.1590 -0.8415  0.4232
  833MOL0     H14950   2.808   3.980   5.695 -0.8254 -2.3468 -1.0433
  833MOL0     H14951   3.614   3.711   5.502  0.2656 -0.5080  0.4958
  833MOL0     H14952   3.925   3.531   5.585  0.7412 -0.0483  0.3553
  833MOL0     H14953   3.750   3.492   5.593  0.4397 -0.4106 -2.0923
  833MOL0     H14954   3.812   3.572   5.446 -0.2201 -0.8582 -0.5757
  834MOL0     O14955   9.021   9.230  10.374  0.1709  0.2978  0.5736
  834MOL0     C14956   8.902   9.202  10.369 -0.1741 -0.2515  0.2998
  834MOL0     O14957   8.850   9.089  10.305  0.1155 -0.2322  0.1497
  834MOL0     C14958   8.936   8.987  10.286  0.1994  0.9684 -0.0009
  834MOL0     C14959   9.009   8.935  10.387  0.1300 -0.4590 -0.3527
  834MOL0     C14960   9.092   8.836  10.364 -0.3280  0.6278  0.2391
  834MOL0     C14961   9.108   8.783  10.230  0.6449  0.2288  0.1071
  834MOL0     O14962   9.207   8.687  10.211  0.5622 -0.6558 -0.2188
  834MOL0     C14963   9.333   8.701  10.274 -0.1744  1.2118 -0.0304
  834MOL0     C14964   9.411   8.581  10.233  0.4132 -0.0459  0.4452
  834MOL0     C14965   9.552   8.571  10.299  0.0241 -0.3821 -0.0910
  834MOL0     C14966   9.645   8.671  10.225 -0.8444  0.3898 -0.2559
  834MOL0     C14967   9.788   8.635  10.280 -0.3650  0.4080 -0.0037
  834MOL0     C14968   9.785   8.667  10.433  0.9521 -0.3001  0.3253
  834MOL0     C14969   9.933   8.667  10.495  0.8809  0.3874  0.5920
  834MOL0     C14970   9.924   8.692  10.650  0.3819  1.0646  0.3442
  834MOL0     N14971   9.905   8.832  10.675  0.6565 -0.2734 -0.3557
  834MOL0     C14972   9.989   8.935  10.641 -0.0298  0.0161 -0.3213
  834MOL0     C14973   9.931   9.053  10.681  0.0999 -0.2560 -0.2223
  834MOL0     C14974   9.977   9.187  10.654 -0.6651  0.6463 -0.1060
  834MOL0     C14975   9.876   9.294  10.654  0.4129  0.3905  1.1363
  834MOL0     C14976   9.931   9.431  10.588 -0.0642 -0.2011 -0.0043
  834MOL0     C14977  10.026   9.507  10.693  0.8148  0.2265 -0.2005
  834MOL0     O14978  10.068   9.631  10.631  0.1007 -0.1483 -0.1408
  834MOL0     C14979  10.148   9.629  10.525 -0.6963  0.9640 -0.2561
  834MOL0     C14980  10.105   9.697  10.417  0.6164  0.2988  0.2667
  834MOL0     C14981  10.190   9.702  10.299  0.5063 -0.0783  0.1245
  834MOL0     C14982  10.137   9.777  10.176  0.2128 -0.6107 -0.1896
  834MOL0     C14983  10.317   9.634  10.307 -0.2135 -0.1257  0.3072
  834MOL0     C14984  10.416   9.636  10.193  0.2953 -0.1156  0.5523
  834MOL0     O14985  10.400   9.731  10.096 -0.0910 -0.1371 -0.3674
  834MOL0     C14986  10.448   9.705   9.973  0.4740 -0.0038  0.1026
  834MOL0     C14987  10.576   9.753   9.935  0.4101  0.3173 -0.8032
  834MOL0     C14988  10.611   9.739   9.809  0.1977 -0.0589  0.7914
  834MOL0     C14989  10.537   9.675   9.713  0.3512  0.1565  0.3235
  834MOL0     O14990  10.585   9.661   9.589 -0.4159 -0.4342 -0.0514
  834MOL0     C14991  10.638   9.784   9.531 -0.0328 -1.0710  0.6449
  834MOL0     C14992  10.670   9.761   9.386 -0.1501  0.1728 -0.4211
  834MOL0     C14993  10.749   9.879   9.330  0.0980 -0.0310 -0.7575
  834MOL0     C14994  10.763   9.853   9.179 -0.8692  0.1323 -0.2341
  834MOL0     C14995  10.880   9.940   9.118  0.2119 -0.4608  0.1856
  834MOL0     C14996  11.018   9.912   9.173  0.5375 -0.2584  0.1488
  834MOL0     C14997  11.082   9.780   9.127  0.3390 -0.5581  0.2145
  834MOL0     C14998  11.241   9.780   9.148 -1.1164 -0.1219  0.0608
  834MOL0    Cl14999  11.341   9.833   9.008  0.6264  0.3790  0.1139
  834MOL0     C15000  10.413   9.616   9.751  0.6035 -0.6021  1.3832
  834MOL0     C15001  10.370   9.639   9.877  0.4979 -0.2135  0.8731
  834MOL0     O15002  10.512   9.562  10.196 -0.8559  0.1788  0.5720
  834MOL0     C15003  10.355   9.569  10.421 -0.4775  0.8544 -0.3074
  834MOL0     C15004  10.273   9.575  10.534 -0.1091  0.0001  0.0095
  834MOL0     N15005   9.817   9.012  10.743  0.6635 -0.3085 -0.2302
  834MOL0     N15006   9.794   8.890  10.739 -0.2969 -0.7457  0.6693
  834MOL0     C15007   9.031   8.829  10.129  0.7890 -0.1862  0.1122
  834MOL0     C15008   8.952   8.938  10.160  0.5695 -0.2938  0.1102
  834MOL0     C15009   8.808   9.304  10.422 -0.6445 -0.9051 -0.1524
  834MOL0     C15010   8.672   9.299  10.382  0.1317 -0.9526  0.1808
  834MOL0     C15011   8.574   9.386  10.428  0.9763  0.9447  0.5625
  834MOL0     C15012   8.600   9.477  10.521 -0.0038 -0.2804 -0.8084
  834MOL0     O15013   8.495   9.552  10.568  0.5548  0.1175  0.0880
  834MOL0     C15014   8.511   9.655  10.664 -0.2696  0.1755 -0.0501
  834MOL0     C15015   8.390   9.745  10.657  0.5999  0.0975 -0.8137
  834MOL0     C15016   8.267   9.679  10.718  0.0198 -0.7236  0.8199
  834MOL0     C15017   8.137   9.751  10.678  0.2628 -0.3505  0.5705
  834MOL0     C15018   8.031   9.669  10.721  0.2557  0.4271 -0.7997
  834MOL0     C15019   7.940   9.590  10.763  0.0592  0.7361  0.7251
  834MOL0     C15020   8.740   9.487  10.559 -0.0446 -0.0353  0.6132
  834MOL0     C15021   8.846   9.406  10.517 -0.1406 -0.1649 -0.1160
  834MOL0     C15022   8.985   9.435  10.562 -1.0119  0.0011 -0.3681
  834MOL0     H15023   8.997   8.965  10.491  1.1911  1.7981 -0.8279
  834MOL0     H15024   9.126   8.797  10.459  0.0627  2.1240  0.7408
  834MOL0     H15025   9.337   8.699  10.383  1.1920 -0.8430 -0.0502
  834MOL0     H15026   9.373   8.798  10.242  1.6440  0.0196 -1.5963
  834MOL0     H15027   9.357   8.491  10.263  1.7653 -0.5149  1.5553
  834MOL0     H15028   9.405   8.575  10.124 -1.3187 -0.1035  0.5188
  834MOL0     H15029   9.538   8.594  10.405 -1.0338  0.6889 -0.4427
  834MOL0     H15030   9.592   8.470  10.287 -2.0222 -1.2061 -0.3124
  834MOL0     H15031   9.644   8.659  10.116  0.5797 -0.9561 -0.1485
  834MOL0     H15032   9.625   8.777  10.242 -0.4852  0.2507  1.1525
  834MOL0     H15033   9.860   8.702  10.232 -1.7933  0.6338 -1.9553
  834MOL0     H15034   9.808   8.530  10.260  2.0887  0.8796 -0.2934
  834MOL0     H15035   9.719   8.752  10.447  0.2308 -0.5604 -1.2682
  834MOL0     H15036   9.735   8.579  10.475 -1.2916 -0.1631 -1.8674
  834MOL0     H15037   9.990   8.748  10.449  0.8549 -0.0160 -0.1620
  834MOL0     H15038   9.981   8.570  10.478 -0.7292 -0.5376  1.1842
  834MOL0     H15039   9.839   8.643  10.698  1.6082 -1.9324 -0.3021
  834MOL0     H15040  10.009   8.648  10.703  1.0758  3.0764  0.9964
  834MOL0     H15041  10.086   8.927  10.594 -1.1324 -2.6310 -2.4744
  834MOL0     H15042  10.025   9.193  10.556 -0.6895  1.4722 -0.0729
  834MOL0     H15043  10.052   9.215  10.729  0.9239 -0.0051 -1.3863
  834MOL0     H15044   9.800   9.252  10.587 -1.6749  0.0680  3.5474
  834MOL0     H15045   9.824   9.314  10.749 -0.3664  0.9949  0.6020
  834MOL0     H15046   9.990   9.410  10.499 -0.7825 -2.1168 -0.0795
  834MOL0     H15047   9.843   9.493  10.567 -0.6282 -1.2475 -0.8854
  834MOL0     H15048   9.965   9.535  10.779 -0.9557 -0.3029 -1.2268
  834MOL0     H15049  10.112   9.447  10.723  0.4912 -0.4846 -0.6342
  834MOL0     H15050  10.007   9.743  10.419 -0.4625 -1.9108  2.4664
  834MOL0     H15051  10.144   9.711  10.089 -0.1223  0.0124 -0.6968
  834MOL0     H15052  10.187   9.871  10.153 -0.2801 -0.8339 -2.4027
  834MOL0     H15053  10.031   9.804  10.187 -0.2583 -0.6906 -3.5561
  834MOL0     H15054  10.641   9.799  10.009  0.5362 -3.4025  1.6682
  834MOL0     H15055  10.714   9.762   9.785  0.4291 -1.7904 -0.0069
  834MOL0     H15056  10.568   9.867   9.545  1.5662  0.8682 -2.0495
  834MOL0     H15057  10.728   9.814   9.586 -0.9506  1.7249  0.7722
  834MOL0     H15058  10.737   9.676   9.372 -0.5563  0.1114 -2.3019
  834MOL0     H15059  10.578   9.759   9.327 -0.9617  0.6416  0.7953
  834MOL0     H15060  10.838   9.869   9.393 -1.6113 -0.1836  1.8034
  834MOL0     H15061  10.706   9.979   9.343 -0.6153 -0.4004 -0.1831
  834MOL0     H15062  10.664   9.877   9.139 -1.1642 -1.8245 -0.7624
  834MOL0     H15063  10.781   9.748   9.157 -2.2263  0.2073 -1.8748
  834MOL0     H15064  10.890   9.935   9.009  1.4781 -0.7802  0.3066
  834MOL0     H15065  10.855  10.040   9.155  1.2725 -0.6031  1.3391
  834MOL0     H15066  11.018   9.920   9.282 -3.5885 -1.1957  0.3612
  834MOL0     H15067  11.074   9.995   9.128  1.1201 -1.2273 -0.9620
  834MOL0     H15068  11.050   9.749   9.027  1.2303 -3.7737  0.8098
  834MOL0     H15069  11.043   9.698   9.187 -1.7172  0.8942  0.9667
  834MOL0     H15070  11.281   9.679   9.161 -2.5716 -0.9852 -1.7884
  834MOL0     H15071  11.258   9.835   9.241  4.2998 -0.3130 -0.5009
  834MOL0     H15072  10.352   9.573   9.673 -0.2194  0.5222  1.3900
  834MOL0     H15073  10.268   9.616   9.906 -0.5885  1.0187 -1.6491
  834MOL0     H15074  10.449   9.516  10.415 -1.3230 -0.6121 -0.8797
  834MOL0     H15075  10.300   9.524  10.626  1.8252 -0.9169 -1.0084
  834MOL0     H15076   9.034   8.790  10.028  0.6407  1.2357 -0.4667
  834MOL0     H15077   8.884   8.976  10.084  0.9408 -1.5253 -0.8767
  834MOL0     H15078   8.640   9.234  10.302 -1.8473  0.4640 -0.2587
  834MOL0     H15079   8.471   9.371  10.398  0.5581 -0.0270  2.3616
  834MOL0     H15080   8.514   9.623  10.768  2.4378 -1.5680 -0.5679
  834MOL0     H15081   8.599   9.719  10.650  2.3806 -3.2179 -0.2140
  834MOL0     H15082   8.380   9.768  10.551  0.4158 -0.8214 -1.0079
  834MOL0     H15083   8.400   9.837  10.715 -0.7872 -0.6019  0.6299
  834MOL0     H15084   8.260   9.581  10.669  1.7155 -1.0357  1.1514
  834MOL0     H15085   8.275   9.664  10.826 -2.8587 -1.6479  0.9951
  834MOL0     H15086   8.124   9.766  10.571  0.6295 -2.0200  0.2735
  834MOL0     H15087   8.137   9.851  10.723  1.6602 -0.1539  0.1990
  834MOL0     H15088   7.869   9.513  10.780  0.4261  0.3519  0.5518
  834MOL0     H15089   8.758   9.570  10.627  2.4704  0.5880 -0.6615
  834MOL0     H15090   9.051   9.453  10.477  0.2542 -0.6021  0.4512
  834MOL0     H15091   8.979   9.528  10.619 -2.3315  0.7486 -1.6740
  834MOL0     H15092   9.023   9.350  10.621  2.0123  0.1831 -1.8893
  835MOL0     O15093   6.320  10.671   6.152  0.1046 -0.3890 -0.0674
  835MOL0     C15094   6.436  10.649   6.195 -0.4683 -0.4842  0.2796
  835MOL0     O15095   6.486  10.523   6.228  0.9207  0.5187 -0.1576
  835MOL0     C15096   6.398  10.434   6.290  0.9865 -0.3786  0.1615
  835MOL0     C15097   6.298  10.370   6.214  0.1420  0.2169  1.4073
  835MOL0     C15098   6.210  10.279   6.271  0.2456 -0.1902  0.2546
  835MOL0     C15099   6.215  10.247   6.406  0.2458 -0.9609  0.2586
  835MOL0     O15100   6.147  10.141   6.464  0.0237  0.2963  0.9115
  835MOL0     C15101   6.180  10.106   6.596 -0.2745  0.8109 -0.6509
  835MOL0     C15102   6.098   9.981   6.630 -0.4770 -0.1057  0.0660
  835MOL0     C15103   5.946  10.004   6.603 -0.3427 -0.6074 -0.1935
  835MOL0     C15104   5.836   9.883   6.604  0.2873 -0.1031 -0.2002
  835MOL0     C15105   5.796   9.828   6.739  0.0818 -0.6475  0.0829
  835MOL0     C15106   5.712   9.700   6.736 -0.2411  0.2286  0.5041
  835MOL0     C15107   5.705   9.614   6.861  0.9071  0.7487  0.7474
  835MOL0     C15108   5.619   9.679   6.968  0.5402 -0.0224  0.2063
  835MOL0     N15109   5.672   9.805   7.028  0.0470  0.0710  0.5509
  835MOL0     C15110   5.800   9.826   7.078  0.8749  0.0513  0.7358
  835MOL0     C15111   5.786   9.955   7.123  0.2732 -0.3927  0.0596
  835MOL0     C15112   5.890  10.043   7.196 -0.3721 -0.3297  0.0741
  835MOL0     C15113   5.970  10.121   7.086 -0.1865  0.1829  0.3100
  835MOL0     C15114   6.045  10.237   7.142  0.3216  0.0157 -0.1702
  835MOL0     C15115   6.157  10.209   7.237  0.5034  0.6353 -0.9326
  835MOL0     O15116   6.228  10.326   7.268  0.0265  0.3510  0.2355
  835MOL0     C15117   6.364  10.334   7.272  0.2895 -0.0968 -0.3291
  835MOL0     C15118   6.415  10.460   7.254  0.2326 -0.4038 -0.4346
  835MOL0     C15119   6.552  10.482   7.241  0.5090 -0.4597 -0.6778
  835MOL0     C15120   6.582  10.626   7.208 -0.1001  0.0436  0.4038
  835MOL0     C15121   6.656  10.381   7.254  0.0448  0.1922 -0.5932
  835MOL0     C15122   6.802  10.395   7.238  0.0936 -0.0074 -0.9472
  835MOL0     O15123   6.867  10.278   7.206 -0.6322  0.1597  0.3613
  835MOL0     C15124   6.992  10.285   7.133  0.6743  0.3108 -0.3925
  835MOL0     C15125   7.007  10.199   7.024  0.1956 -0.5064  0.3454
  835MOL0     C15126   7.127  10.185   6.951  0.4981  0.7118 -0.1554
  835MOL0     C15127   7.228  10.281   6.980 -0.1201 -0.6819 -0.4299
  835MOL0     O15128   7.346  10.287   6.917 -0.2908  0.0001 -0.5059
  835MOL0     C15129   7.380  10.188   6.826  0.0286 -0.3257 -0.2388
  835MOL0     C15130   7.530  10.192   6.801 -1.1686 -0.6010  0.2229
  835MOL0     C15131   7.584  10.329   6.752 -0.1824  0.5711  0.0117
  835MOL0     C15132   7.731  10.327   6.776  0.6426  0.9610 -0.2068
  835MOL0     C15133   7.813  10.441   6.721  0.0246  0.7558  0.3643
  835MOL0     C15134   7.960  10.399   6.744 -0.3167 -0.3360 -0.4526
  835MOL0     C15135   8.056  10.472   6.645  1.0445 -0.3554 -0.4403
  835MOL0     C15136   8.045  10.623   6.656  0.1426 -0.4158  0.0231
  835MOL0    Cl15137   8.167  10.707   6.566  0.0167  0.1914  0.3760
  835MOL0     C15138   7.212  10.375   7.084 -0.3503  0.0346  0.1525
  835MOL0     C15139   7.098  10.370   7.165  0.3568  0.6008  0.2246
  835MOL0     O15140   6.849  10.508   7.245  0.2692 -0.3573  0.2476
  835MOL0     C15141   6.596  10.254   7.276 -0.4328  0.7266 -0.1821
  835MOL0     C15142   6.452  10.231   7.278 -0.4926  0.3508 -0.2146
  835MOL0     N15143   5.669  10.008   7.083  0.2726 -0.8325  0.3166
  835MOL0     N15144   5.602   9.917   7.023  0.5371 -0.5642 -0.2853
  835MOL0     C15145   6.316  10.313   6.482 -0.5372 -0.3357  0.4213
  835MOL0     C15146   6.406  10.404   6.423 -0.2770  1.0478  0.3712
  835MOL0     C15147   6.537  10.760   6.178  0.4780 -0.0252 -0.4724
  835MOL0     C15148   6.667  10.713   6.145  0.1211  0.6596 -0.4581
  835MOL0     C15149   6.775  10.800   6.150  0.4162  0.5874  0.1357
  835MOL0     C15150   6.751  10.935   6.158  1.0106  0.9406 -0.6044
  835MOL0     O15151   6.859  11.020   6.152  0.7810  0.1397 -0.3508
  835MOL0     C15152   6.838  11.150   6.095 -0.2280  0.0004  0.4961
  835MOL0     C15153   6.978  11.222   6.081 -0.0312  1.0099 -0.5211
  835MOL0     C15154   7.084  11.172   6.170 -0.2518 -1.0752 -0.3725
  835MOL0     C15155   7.213  11.245   6.178 -0.0266 -0.4679 -0.0373
  835MOL0     C15156   7.266  11.285   6.052  0.5131 -0.1440 -0.0883
  835MOL0     C15157   7.301  11.310   5.943 -0.4143 -0.4416 -0.1903
  835MOL0     C15158   6.621  10.986   6.184  0.0585 -0.4124  0.4982
  835MOL0     C15159   6.515  10.902   6.190 -0.1839  0.2320  0.5246
  835MOL0     C15160   6.377  10.961   6.208 -0.4690  1.0346  0.7192
  835MOL0     H15161   6.285  10.406   6.112 -0.8908 -0.1232  1.4116
  835MOL0     H15162   6.145  10.213   6.213  0.7403 -0.8168  0.3948
  835MOL0     H15163   6.145  10.179   6.671  0.4778  0.5959 -0.0810
  835MOL0     H15164   6.287  10.093   6.611 -0.4215 -1.1670 -1.1087
  835MOL0     H15165   6.136   9.903   6.563  1.0753  1.1064 -0.5200
  835MOL0     H15166   6.115   9.957   6.736 -0.7315 -0.0283  0.1248
  835MOL0     H15167   5.908  10.072   6.681  0.5755 -1.1710  0.7761
  835MOL0     H15168   5.935  10.050   6.505  0.6931  0.3568  0.1161
  835MOL0     H15169   5.744   9.918   6.557 -0.5283  0.1764  1.5085
  835MOL0     H15170   5.873   9.807   6.535 -3.7005 -1.0899 -1.4764
  835MOL0     H15171   5.740   9.901   6.797 -0.1317 -0.9781  0.2991
  835MOL0     H15172   5.892   9.806   6.788  0.9099 -0.0729 -1.2418
  835MOL0     H15173   5.614   9.729   6.697  0.2198  0.4338 -0.5431
  835MOL0     H15174   5.749   9.636   6.655 -4.0208 -0.0630 -1.2091
  835MOL0     H15175   5.805   9.589   6.897  0.1216 -1.9510  1.2245
  835MOL0     H15176   5.672   9.515   6.828 -0.4361  0.6750  2.2399
  835MOL0     H15177   5.515   9.692   6.939  0.7590 -1.8829 -1.7132
  835MOL0     H15178   5.624   9.613   7.055  1.6757 -0.1044  0.0944
  835MOL0     H15179   5.876   9.749   7.088  0.6836 -0.0935  1.1004
  835MOL0     H15180   5.949   9.971   7.253  0.0812 -2.1043 -2.4633
  835MOL0     H15181   5.853  10.125   7.259  1.7106  1.5081 -0.9520
  835MOL0     H15182   6.041  10.055   7.034  0.8847  1.9849 -0.6145
  835MOL0     H15183   5.906  10.150   7.002  1.5662 -3.9637 -2.8379
  835MOL0     H15184   6.080  10.291   7.054 -0.0691 -1.1282 -1.0588
  835MOL0     H15185   5.974  10.294   7.202 -0.3027 -1.1315  0.2310
  835MOL0     H15186   6.100  10.162   7.318 -2.3129 -0.3438 -3.2677
  835MOL0     H15187   6.223  10.134   7.193  2.0178  1.1459  0.4002
  835MOL0     H15188   6.344  10.542   7.247  1.6076  1.0663  1.5370
  835MOL0     H15189   6.508  10.695   7.249  1.7728 -0.3166  4.9364
  835MOL0     H15190   6.616  10.628   7.104 -2.0577 -1.2934 -0.3178
  835MOL0     H15191   6.671  10.647   7.268 -0.8412 -1.8944  2.2823
  835MOL0     H15192   6.925  10.130   7.005 -2.2715  1.0264  4.2195
  835MOL0     H15193   7.135  10.128   6.859 -0.9834  2.1402 -1.2276
  835MOL0     H15194   7.366  10.090   6.873 -0.0986  0.0927  0.6088
  835MOL0     H15195   7.334  10.192   6.726  0.5477 -0.9404 -0.5076
  835MOL0     H15196   7.581  10.163   6.894 -0.9689  1.1700  0.7104
  835MOL0     H15197   7.564  10.112   6.734 -0.7774  1.5384 -2.3204
  835MOL0     H15198   7.551  10.417   6.808 -0.8026 -0.6756  1.7115
  835MOL0     H15199   7.577  10.342   6.644  2.8355  0.8753 -0.2255
  835MOL0     H15200   7.772  10.234   6.736 -2.0258  0.9441 -3.2276
  835MOL0     H15201   7.745  10.320   6.885  2.5715 -1.4497 -0.5013
  835MOL0     H15202   7.801  10.432   6.613  0.7041  1.8693  0.1737
  835MOL0     H15203   7.797  10.538   6.769 -1.8850 -0.1576  1.7331
  835MOL0     H15204   7.979  10.292   6.745 -0.5589 -0.4320  2.5004
  835MOL0     H15205   7.981  10.415   6.850  2.1081 -2.0163 -0.5952
  835MOL0     H15206   8.025  10.448   6.543  1.8363  0.4439 -0.8838
  835MOL0     H15207   8.157  10.437   6.666  1.3931  0.7895 -0.1110
  835MOL0     H15208   8.047  10.656   6.760  1.8957 -1.6007  0.4160
  835MOL0     H15209   7.946  10.654   6.621  1.2803  2.4824 -0.8803
  835MOL0     H15210   7.292  10.445   7.109  1.0819 -1.3353 -0.4280
  835MOL0     H15211   7.094  10.437   7.250  1.4304 -0.3664  1.0543
  835MOL0     H15212   6.652  10.162   7.290 -0.7146  0.2993 -1.6711
  835MOL0     H15213   6.418  10.128   7.287  0.9342 -0.1714 -0.4682
  835MOL0     H15214   6.336  10.298   6.588  2.4783 -1.4864 -0.2192
  835MOL0     H15215   6.472  10.461   6.488 -0.7622 -1.3814  3.2078
  835MOL0     H15216   6.691  10.608   6.132 -3.6628 -0.6915  1.9092
  835MOL0     H15217   6.873  10.764   6.121  0.2495 -1.6316  2.0192
  835MOL0     H15218   6.788  11.155   5.997  2.3024 -1.2832 -0.9632
  835MOL0     H15219   6.797  11.222   6.166  1.9695  0.9087  0.9231
  835MOL0     H15220   6.962  11.329   6.097  2.8701  1.2734  1.2797
  835MOL0     H15221   7.010  11.210   5.977 -1.4284 -1.1288 -0.7663
  835MOL0     H15222   7.037  11.186   6.268 -0.1859 -0.5042 -0.4212
  835MOL0     H15223   7.111  11.065   6.170  1.0581 -0.8083  1.5124
  835MOL0     H15224   7.292  11.191   6.232  1.2328  1.6590  0.3621
  835MOL0     H15225   7.183  11.336   6.231  0.0957 -1.1363  1.2248
  835MOL0     H15226   7.328  11.330   5.841 -0.5321 -1.5651 -0.4506
  835MOL0     H15227   6.605  11.092   6.199  0.0891  0.2310 -3.1121
  835MOL0     H15228   6.326  10.895   6.280  2.1717 -1.3307  0.6128
  835MOL0     H15229   6.377  11.064   6.244 -0.2000  1.2283  0.1688
  835MOL0     H15230   6.329  10.956   6.110 -1.1609  0.6894  1.0649
  836MOL0     O15231   0.093   1.092   5.446  0.4757  1.1138  0.0524
  836MOL0     C15232   0.202   1.040   5.464 -0.4740 -0.0596  0.4455
  836MOL0     O15233   0.271   1.041   5.576 -0.7730  0.3614 -0.2624
  836MOL0     C15234   0.216   1.098   5.686 -1.1934 -0.9120  0.0793
  836MOL0     C15235   0.205   1.025   5.801 -0.5131 -0.4958  0.9946
  836MOL0     C15236   0.151   1.083   5.919  0.3352  0.5276  0.4233
  836MOL0     C15237   0.099   1.215   5.916  0.8563  0.7495  0.3422
  836MOL0     O15238   0.031   1.264   6.023 -0.2244 -0.3223 -0.7571
  836MOL0     C15239  -0.112   1.308   6.020  0.4429 -0.5373  0.3598
  836MOL0     C15240  -0.207   1.201   6.079  0.2065  0.6109  0.1261
  836MOL0     C15241  -0.359   1.238   6.077 -0.2787 -0.0717  0.4181
  836MOL0     C15242  -0.450   1.118   6.121 -0.3967  0.1871 -0.8819
  836MOL0     C15243  -0.597   1.164   6.121 -0.4448  0.0823 -0.1271
  836MOL0     C15244  -0.692   1.057   6.166 -1.2809 -0.1816 -0.4757
  836MOL0     C15245  -0.841   1.097   6.180  0.3037  0.1333  0.4053
  836MOL0     C15246  -0.920   0.978   6.230 -0.2828  0.1245  0.8393
  836MOL0     N15247  -1.056   1.010   6.235 -0.2363  0.5819 -0.6731
  836MOL0     C15248  -1.145   0.996   6.132 -0.2362 -0.6246 -0.3908
  836MOL0     C15249  -1.265   1.034   6.175  0.9729 -0.3809  0.6329
  836MOL0     C15250  -1.388   1.049   6.086 -0.4838 -0.5390  0.6701
  836MOL0     C15251  -1.507   1.091   6.173  0.6195 -0.7510 -0.3308
  836MOL0     C15252  -1.634   1.106   6.089  0.4708  0.7794  0.1840
  836MOL0     C15253  -1.697   0.971   6.030 -0.1728 -0.6110 -0.7950
  836MOL0     O15254  -1.757   0.886   6.130  0.5109 -0.0544  0.5670
  836MOL0     C15255  -1.894   0.902   6.125  0.0910 -0.0294  0.1081
  836MOL0     C15256  -1.961   1.005   6.193  0.5072 -0.1361 -0.2943
  836MOL0     C15257  -2.101   1.038   6.171 -0.1742 -0.3715  0.1527
  836MOL0     C15258  -2.155   1.159   6.240 -0.7237 -0.2578 -0.1352
  836MOL0     C15259  -2.180   0.957   6.090 -0.6531  0.1431  0.1007
  836MOL0     C15260  -2.323   0.971   6.055 -0.2149  1.1796 -0.2036
  836MOL0     O15261  -2.360   0.876   5.956 -0.1297  0.1483  0.4831
  836MOL0     C15262  -2.497   0.869   5.930 -0.5370 -0.8386  0.6261
  836MOL0     C15263  -2.568   0.741   5.939 -0.3681 -0.3087 -0.1458
  836MOL0     C15264  -2.702   0.731   5.906 -0.4222 -0.0431  0.1855
  836MOL0     C15265  -2.764   0.830   5.829  0.0178  0.0633  0.5673
  836MOL0     O15266  -2.882   0.813   5.762  0.1779 -0.0054 -0.4776
  836MOL0     C15267  -2.944   0.683   5.761  0.2081 -0.2902 -0.0205
  836MOL0     C15268  -3.068   0.693   5.671  0.6603  0.4790  0.0315
  836MOL0     C15269  -3.027   0.700   5.524 -0.7723 -0.4998 -0.0306
  836MOL0     C15270  -3.145   0.676   5.426  0.4295 -0.8664  0.4005
  836MOL0     C15271  -3.120   0.730   5.279 -0.8600  0.8731  0.6952
  836MOL0     C15272  -2.991   0.658   5.222 -0.0530 -0.0997 -0.6806
  836MOL0     C15273  -2.990   0.674   5.073 -0.2548 -0.0028  0.3338
  836MOL0     C15274  -3.077   0.582   4.988 -0.3187 -0.3998  0.3616
  836MOL0    Cl15275  -3.048   0.408   5.014 -0.5339  0.5217 -0.3221
  836MOL0     C15276  -2.698   0.947   5.826  0.1044  0.0591  0.0536
  836MOL0     C15277  -2.568   0.972   5.870  0.1457 -0.0373  0.1687
  836MOL0     O15278  -2.401   1.056   6.097 -0.5605  0.1140 -1.0950
  836MOL0     C15279  -2.107   0.849   6.028  0.1161 -0.2112  0.0117
  836MOL0     C15280  -1.971   0.834   6.034 -0.5465  0.1622  0.0590
  836MOL0     N15281  -1.250   1.084   6.302 -0.6314 -0.4377  0.0016
  836MOL0     N15282  -1.122   1.073   6.336 -0.2828 -0.4653  0.8530
  836MOL0     C15283   0.106   1.283   5.796 -0.4577  0.3385 -0.3833
  836MOL0     C15284   0.162   1.225   5.684 -1.1948 -0.8488  0.6829
  836MOL0     C15285   0.266   0.979   5.342 -0.1361 -0.2190 -0.4056
  836MOL0     C15286   0.411   0.962   5.338  0.7517 -0.9903 -0.0827
  836MOL0     C15287   0.480   0.911   5.230 -0.1920 -0.2179 -0.1408
  836MOL0     C15288   0.396   0.872   5.123 -1.1289  0.3636 -0.6528
  836MOL0     O15289   0.456   0.837   5.006  0.0986  0.0863 -0.0725
  836MOL0     C15290   0.405   0.719   4.944  0.2316  0.1253  0.4066
  836MOL0     C15291   0.418   0.597   5.032  0.5670  0.7145  0.7666
  836MOL0     C15292   0.562   0.567   5.057  0.1064 -0.1221 -0.2774
  836MOL0     C15293   0.592   0.437   5.131 -0.3775 -0.4201  0.2663
  836MOL0     C15294   0.529   0.434   5.258  0.0076 -0.3355  0.2176
  836MOL0     C15295   0.468   0.457   5.360 -0.2074  0.4528 -0.3837
  836MOL0     C15296   0.258   0.891   5.122  0.3604  0.2384 -0.2951
  836MOL0     C15297   0.190   0.947   5.233 -0.7964  0.1111 -0.2242
  836MOL0     C15298   0.035   0.944   5.227  0.4068  0.4632  0.3594
  836MOL0     H15299   0.235   0.920   5.794  0.3387 -0.1726 -4.1587
  836MOL0     H15300   0.152   1.026   6.012  1.3731  0.1407  0.1905
  836MOL0     H15301  -0.150   1.354   5.929 -1.6023 -0.0755  1.3864
  836MOL0     H15302  -0.120   1.391   6.091  2.5505  0.8239 -0.8624
  836MOL0     H15303  -0.196   1.109   6.021  0.0963  2.8968 -3.8773
  836MOL0     H15304  -0.186   1.189   6.186 -1.4713  0.7585  0.4957
  836MOL0     H15305  -0.373   1.326   6.141  1.4013  0.7293 -0.2679
  836MOL0     H15306  -0.389   1.264   5.975  0.6715 -3.4235 -0.8389
  836MOL0     H15307  -0.433   1.034   6.053 -0.5905  1.1575 -2.1925
  836MOL0     H15308  -0.429   1.082   6.222 -1.6154  3.6860  0.7868
  836MOL0     H15309  -0.622   1.218   6.029  2.7906  0.0224 -1.1632
  836MOL0     H15310  -0.594   1.233   6.207 -3.4441  0.9774 -0.6063
  836MOL0     H15311  -0.694   0.992   6.078 -2.0981  0.7201 -1.1383
  836MOL0     H15312  -0.647   1.014   6.256 -1.5681  1.3846  0.4581
  836MOL0     H15313  -0.870   1.149   6.089  1.8315  0.8154  0.2720
  836MOL0     H15314  -0.847   1.180   6.250 -0.0923 -1.0794  1.8762
  836MOL0     H15315  -0.910   0.888   6.169  0.5285  1.5876 -1.2853
  836MOL0     H15316  -0.886   0.947   6.330 -0.5945 -0.7965  0.6726
  836MOL0     H15317  -1.111   0.977   6.030 -1.7307  1.7444 -1.4001
  836MOL0     H15318  -1.410   0.961   6.026 -4.2532  1.0661 -0.5610
  836MOL0     H15319  -1.363   1.135   6.023 -0.8004 -0.8790  0.0811
  836MOL0     H15320  -1.532   1.021   6.253  1.4506  1.0035  1.5364
  836MOL0     H15321  -1.476   1.189   6.209 -0.2552 -0.7373  0.4224
  836MOL0     H15322  -1.708   1.160   6.148 -1.8589 -1.3396 -0.5893
  836MOL0     H15323  -1.611   1.183   6.014  0.0468  1.5838  0.8631
  836MOL0     H15324  -1.767   1.006   5.954 -4.6797  0.7837  3.4292
  836MOL0     H15325  -1.615   0.913   5.988  0.1186 -1.6223  1.0516
  836MOL0     H15326  -1.911   1.075   6.260 -4.3108  2.8262  0.7575
  836MOL0     H15327  -2.219   1.220   6.176 -0.2341 -0.7959 -1.1609
  836MOL0     H15328  -2.071   1.225   6.263 -0.3076 -0.9648  0.4405
  836MOL0     H15329  -2.205   1.143   6.336 -0.1076  0.1215  0.2522
  836MOL0     H15330  -2.517   0.655   5.981  0.3626 -0.1728 -0.7436
  836MOL0     H15331  -2.754   0.636   5.915 -0.9903  0.0970 -1.2821
  836MOL0     H15332  -2.866   0.616   5.724  1.0776  0.8092 -0.2599
  836MOL0     H15333  -2.969   0.656   5.864  0.7719  0.7704  0.4086
  836MOL0     H15334  -3.127   0.602   5.690 -2.0361  2.0698 -0.1526
  836MOL0     H15335  -3.123   0.783   5.699  0.8654  0.3585  0.8354
  836MOL0     H15336  -2.938   0.637   5.511 -0.6973 -0.3770 -0.1149
  836MOL0     H15337  -2.980   0.798   5.519 -0.3694 -0.7326 -1.0335
  836MOL0     H15338  -3.240   0.717   5.463  1.0458  2.2921 -1.1361
  836MOL0     H15339  -3.150   0.567   5.422 -0.7801 -0.8513  1.0754
  836MOL0     H15340  -3.209   0.704   5.221  0.2842  0.9332 -1.1786
  836MOL0     H15341  -3.109   0.839   5.287 -2.8928  1.2154 -0.4426
  836MOL0     H15342  -2.981   0.550   5.237  2.4976  0.0855 -0.7219
  836MOL0     H15343  -2.906   0.713   5.263 -1.3379  2.0073 -0.6854
  836MOL0     H15344  -2.894   0.641   5.032 -0.9776  1.4454 -2.7698
  836MOL0     H15345  -2.994   0.781   5.051  3.4303  0.4039  0.9547
  836MOL0     H15346  -3.050   0.603   4.884 -0.9362 -0.9957  0.0782
  836MOL0     H15347  -3.180   0.607   5.013 -0.2609 -0.2883  0.4955
  836MOL0     H15348  -2.736   1.032   5.771  3.2151  1.1297 -0.6436
  836MOL0     H15349  -2.515   1.061   5.837 -0.0685  0.2780  0.6655
  836MOL0     H15350  -2.161   0.784   5.960  0.2888  0.6480 -0.9696
  836MOL0     H15351  -1.914   0.761   5.977 -0.6847  0.0413  0.0751
  836MOL0     H15352   0.060   1.380   5.782  1.1629  1.8837  3.4855
  836MOL0     H15353   0.164   1.282   5.592 -0.8636  0.9014  1.7250
  836MOL0     H15354   0.474   0.992   5.421 -3.0743  0.5158  2.6048
  836MOL0     H15355   0.587   0.898   5.219 -0.3144 -0.1551 -1.5493
  836MOL0     H15356   0.300   0.729   4.912  0.1219  0.5016  0.8757
  836MOL0     H15357   0.472   0.700   4.860  4.0478  1.4544  2.9154
  836MOL0     H15358   0.373   0.504   4.995  0.9532  0.7724  0.1234
  836MOL0     H15359   0.353   0.613   5.118  1.6337 -0.4365  1.8282
  836MOL0     H15360   0.614   0.544   4.964 -1.2952 -1.2437 -0.8206
  836MOL0     H15361   0.615   0.647   5.111  3.1376  0.0482 -3.2315
  836MOL0     H15362   0.699   0.433   5.151 -0.2757 -1.8776 -0.4490
  836MOL0     H15363   0.575   0.351   5.066  2.2815  0.3163 -1.5427
  836MOL0     H15364   0.423   0.474   5.456 -0.0311 -1.5047  0.0766
  836MOL0     H15365   0.210   0.855   5.031 -0.2160  1.4284 -0.4789
  836MOL0     H15366   0.006   0.895   5.134 -0.3666  2.0434 -0.2611
  836MOL0     H15367  -0.009   0.888   5.311 -0.0722  1.7131  0.9689
  836MOL0     H15368  -0.010   1.044   5.234 -0.2271  0.0814  2.4796
  837MOL0     O15369   5.867   0.390   5.087 -0.9143 -0.3657 -0.2566
  837MOL0     C15370   5.816   0.292   5.137  1.0312  1.2406  0.4852
  837MOL0     O15371   5.888   0.171   5.166  0.1878 -0.1588  0.4694
  837MOL0     C15372   6.020   0.154   5.139 -0.1119 -0.3458  0.1325
  837MOL0     C15373   6.072   0.023   5.142  0.2498 -0.6719 -0.1677
  837MOL0     C15374   6.208   0.002   5.148 -0.3127  1.1346 -0.1652
  837MOL0     C15375   6.302   0.102   5.160  0.1451  0.6609 -0.6394
  837MOL0     O15376   6.435   0.072   5.184  0.3425  0.2136 -0.1296
  837MOL0     C15377   6.526   0.177   5.216 -0.4194  0.1197 -0.2917
  837MOL0     C15378   6.661   0.110   5.235  0.3156  0.5923  0.6666
  837MOL0     C15379   6.775   0.211   5.237 -0.3076 -0.3034 -0.0168
  837MOL0     C15380   6.905   0.127   5.248 -0.4813  0.9394 -0.3066
  837MOL0     C15381   7.024   0.228   5.258 -0.0323  0.3681  0.5813
  837MOL0     C15382   7.156   0.153   5.276  0.2452  0.6794 -0.5935
  837MOL0     C15383   7.264   0.259   5.283 -0.1675 -0.6073  0.3318
  837MOL0     C15384   7.395   0.201   5.332  0.4649 -1.0853  0.8629
  837MOL0     N15385   7.495   0.311   5.347 -0.4013  0.5990  0.3875
  837MOL0     C15386   7.523   0.368   5.464  0.5996 -0.6430  0.7453
  837MOL0     C15387   7.633   0.449   5.437 -0.1744 -0.6186  0.4581
  837MOL0     C15388   7.679   0.548   5.536  0.1988  0.2884 -0.7610
  837MOL0     C15389   7.744   0.493   5.661 -0.3849  0.5213 -0.1057
  837MOL0     C15390   7.866   0.409   5.624  0.1991 -0.3141  0.9217
  837MOL0     C15391   7.941   0.355   5.746 -0.3176  0.1608 -0.2646
  837MOL0     O15392   7.970   0.461   5.834  0.5171 -0.5724 -0.2238
  837MOL0     C15393   8.089   0.464   5.896  0.2983 -0.1536  0.3457
  837MOL0     C15394   8.173   0.347   5.921 -0.2353 -0.9202 -0.0506
  837MOL0     C15395   8.289   0.366   5.993 -0.7438  0.9111 -0.0131
  837MOL0     C15396   8.339   0.241   6.065  0.1989 -0.2295  0.0098
  837MOL0     C15397   8.337   0.490   6.031 -0.4491 -0.4246 -1.0410
  837MOL0     C15398   8.464   0.511   6.077 -0.3067  0.3140 -0.6434
  837MOL0     O15399   8.476   0.595   6.192  0.3166 -0.2920 -0.1527
  837MOL0     C15400   8.602   0.595   6.254  0.7577 -0.0879 -0.1196
  837MOL0     C15401   8.670   0.717   6.239  0.3230 -0.5911 -0.2451
  837MOL0     C15402   8.800   0.727   6.289  0.2752 -0.2180 -0.0067
  837MOL0     C15403   8.855   0.627   6.360  0.5044  0.7559 -0.3829
  837MOL0     O15404   8.974   0.637   6.427 -0.4660  0.3692 -0.0587
  837MOL0     C15405   9.034   0.758   6.457 -0.2317  0.0775  0.2647
  837MOL0     C15406   9.162   0.706   6.525 -0.1441 -1.1106 -0.1151
  837MOL0     C15407   9.254   0.825   6.546  0.9257 -1.3965  0.1227
  837MOL0     C15408   9.391   0.780   6.588  0.1624 -0.2531 -0.4357
  837MOL0     C15409   9.455   0.903   6.649  0.1143 -0.8461  0.3436
  837MOL0     C15410   9.612   0.885   6.658  0.0553 -0.7048  0.4360
  837MOL0     C15411   9.680   0.916   6.523  0.4599  0.2165  0.1444
  837MOL0     C15412   9.834   0.897   6.517  0.1962 -0.8181 -1.5435
  837MOL0    Cl15413   9.888   0.736   6.582  0.2135 -0.0325 -0.5667
  837MOL0     C15414   8.785   0.505   6.376 -0.7871  0.4220 -0.3771
  837MOL0     C15415   8.656   0.491   6.325  0.4289 -0.0522 -0.6204
  837MOL0     O15416   8.563   0.469   6.012 -0.0559  0.1529 -0.3580
  837MOL0     C15417   8.261   0.597   5.998  0.5143 -0.5538  1.3284
  837MOL0     C15418   8.132   0.589   5.941 -0.5138 -0.3906 -0.1473
  837MOL0     N15419   7.659   0.435   5.302  0.5809  0.0821 -0.7760
  837MOL0     N15420   7.575   0.361   5.250  0.0335  0.1885  0.1567
  837MOL0     C15421   6.252   0.236   5.163 -0.4568  0.2249  0.5885
  837MOL0     C15422   6.112   0.259   5.157 -0.3868 -0.0170  0.1043
  837MOL0     C15423   5.665   0.283   5.171  0.5062 -1.4971 -0.5193
  837MOL0     C15424   5.624   0.185   5.266  0.6936 -0.2942 -0.7025
  837MOL0     C15425   5.487   0.168   5.290  0.4298  0.4654 -0.4180
  837MOL0     C15426   5.389   0.243   5.232 -0.5149 -0.1930  0.0554
  837MOL0     O15427   5.255   0.197   5.246 -1.1221 -0.5849 -0.0164
  837MOL0     C15428   5.157   0.293   5.248 -0.5615  0.0395  0.4084
  837MOL0     C15429   5.029   0.220   5.298 -0.1627  0.2971  0.4986
  837MOL0     C15430   5.044   0.120   5.415  0.2879 -0.2407  0.6510
  837MOL0     C15431   5.120   0.170   5.537  0.5278  0.4834  0.8271
  837MOL0     C15432   5.057   0.287   5.600  1.1243  0.3963 -1.2078
  837MOL0     C15433   5.012   0.384   5.659  0.0730  0.0703  0.1538
  837MOL0     C15434   5.432   0.351   5.154 -0.4596 -0.0452  0.2526
  837MOL0     C15435   5.568   0.368   5.123 -0.0685  0.0276 -0.0250
  837MOL0     C15436   5.600   0.481   5.024 -0.1184 -0.3174  0.4949
  837MOL0     H15437   6.016  -0.069   5.145 -0.8113 -0.1484 -2.1981
  837MOL0     H15438   6.242  -0.100   5.132  2.8541  2.2008 -0.8346
  837MOL0     H15439   6.494   0.249   5.291 -1.9087 -0.4484 -0.3410
  837MOL0     H15440   6.541   0.229   5.121  0.2381 -1.6253 -1.1876
  837MOL0     H15441   6.669   0.049   5.325 -0.7711 -1.4567 -0.5558
  837MOL0     H15442   6.669   0.045   5.147 -1.2297 -1.8727  2.2273
  837MOL0     H15443   6.775   0.276   5.150 -1.4283  0.7437  0.7219
  837MOL0     H15444   6.759   0.275   5.325  3.0669 -0.4644  0.8419
  837MOL0     H15445   6.904   0.075   5.344  0.9016 -0.8804 -1.2383
  837MOL0     H15446   6.941   0.062   5.168  1.3109  1.1462  0.2886
  837MOL0     H15447   7.004   0.282   5.351 -1.1496 -0.5460  0.9069
  837MOL0     H15448   7.028   0.297   5.174  0.1582  0.6554  0.8256
  837MOL0     H15449   7.140   0.097   5.369 -4.7808  0.1313 -1.4837
  837MOL0     H15450   7.189   0.087   5.196  0.0592 -0.8915  0.5928
  837MOL0     H15451   7.232   0.327   5.362 -0.7759 -0.4540 -0.0414
  837MOL0     H15452   7.284   0.310   5.189 -0.1283  1.6497  1.5003
  837MOL0     H15453   7.365   0.160   5.429  1.0911  0.8382  1.9125
  837MOL0     H15454   7.436   0.124   5.266  0.3565  0.2697 -0.8506
  837MOL0     H15455   7.459   0.352   5.551  1.1192 -4.3525  0.6294
  837MOL0     H15456   7.593   0.599   5.580  1.1412 -0.6736  2.4743
  837MOL0     H15457   7.751   0.621   5.497  0.1750  1.5278  1.4022
  837MOL0     H15458   7.766   0.575   5.730 -0.5249  0.6377 -0.1982
  837MOL0     H15459   7.668   0.429   5.707 -1.4690  0.6500 -1.6417
  837MOL0     H15460   7.827   0.325   5.567 -2.5387  2.3772 -1.5562
  837MOL0     H15461   7.944   0.469   5.576 -1.9015  2.7442  1.0430
  837MOL0     H15462   7.873   0.291   5.804  1.7066 -1.1356  0.7608
  837MOL0     H15463   8.030   0.298   5.719  0.0146  0.1669  0.7693
  837MOL0     H15464   8.130   0.249   5.904 -2.2159 -0.0294 -0.3982
  837MOL0     H15465   8.330   0.245   6.174  0.7233  0.4569  0.0359
  837MOL0     H15466   8.443   0.244   6.032  0.4791  0.7636  0.9305
  837MOL0     H15467   8.289   0.147   6.040 -1.1170  0.3989  0.1684
  837MOL0     H15468   8.616   0.802   6.200  0.5457 -0.4335 -0.2110
  837MOL0     H15469   8.850   0.823   6.285 -1.3782  0.6689 -0.1637
  837MOL0     H15470   9.045   0.823   6.370 -3.3045  3.5401  2.1726
  837MOL0     H15471   8.970   0.814   6.526  0.0652  0.3485  0.3198
  837MOL0     H15472   9.135   0.679   6.627 -0.5038  1.4705  0.5492
  837MOL0     H15473   9.221   0.635   6.466 -2.1764 -1.4740 -1.8327
  837MOL0     H15474   9.208   0.883   6.626 -0.1477 -1.1491 -0.6414
  837MOL0     H15475   9.256   0.899   6.465 -0.9937  0.6756  1.8577
  837MOL0     H15476   9.449   0.740   6.505 -0.8996 -1.0962 -0.7950
  837MOL0     H15477   9.375   0.704   6.666 -1.8246  1.5319  1.0131
  837MOL0     H15478   9.427   0.991   6.590 -0.5985 -0.7553  0.8056
  837MOL0     H15479   9.419   0.922   6.750 -1.2892  1.2146 -0.4657
  837MOL0     H15480   9.639   0.785   6.693  1.8495 -0.3765  0.1071
  837MOL0     H15481   9.649   0.960   6.728  1.1992  0.2395 -1.1025
  837MOL0     H15482   9.661   1.021   6.501  1.9028  1.1550  2.8782
  837MOL0     H15483   9.645   0.850   6.443 -0.9039  2.9037 -1.6161
  837MOL0     H15484   9.882   0.987   6.556 -2.7274  0.0339  0.4049
  837MOL0     H15485   9.867   0.893   6.412 -1.0468 -0.0959 -1.9868
  837MOL0     H15486   8.823   0.422   6.435  1.4544  0.6271 -1.4056
  837MOL0     H15487   8.614   0.391   6.336  1.1958 -0.1984  1.5441
  837MOL0     H15488   8.293   0.698   6.022 -1.1725  1.8216 -4.5203
  837MOL0     H15489   8.068   0.677   5.938 -0.7815 -0.4686  1.9666
  837MOL0     H15490   6.318   0.318   5.190 -2.4577  1.3282  2.5099
  837MOL0     H15491   6.085   0.363   5.168  2.0096  0.6085  0.6240
  837MOL0     H15492   5.692   0.111   5.308 -0.0260 -0.7323 -0.2992
  837MOL0     H15493   5.446   0.080   5.339 -1.2836  1.1733 -0.5037
  837MOL0     H15494   5.197   0.369   5.316  4.2106 -0.4454 -1.4517
  837MOL0     H15495   5.155   0.337   5.148  1.9796 -3.4035 -1.3585
  837MOL0     H15496   4.986   0.158   5.220  3.3756 -1.7411 -0.0287
  837MOL0     H15497   4.957   0.298   5.324 -0.6823 -0.5983  1.8550
  837MOL0     H15498   4.944   0.083   5.440 -0.0867  0.1919 -0.1860
  837MOL0     H15499   5.103   0.034   5.383  0.4920  0.3222 -0.5202
  837MOL0     H15500   5.223   0.190   5.507  0.4887 -0.9546 -0.3927
  837MOL0     H15501   5.121   0.086   5.607  4.1956 -1.2999 -1.0635
  837MOL0     H15502   4.985   0.479   5.701  1.9613  0.5474  0.3794
  837MOL0     H15503   5.355   0.399   5.095 -2.3706  1.1997  3.4993
  837MOL0     H15504   5.512   0.544   5.008  1.4516  2.6064  2.3623
  837MOL0     H15505   5.675   0.543   5.075 -1.1531  1.5249 -0.1676
  837MOL0     H15506   5.637   0.444   4.928 -2.1324  1.6826 -1.1420
  838MOL0     O15507  10.742  10.972   7.470  0.3447  0.5924 -0.8863
  838MOL0     C15508  10.703  11.082   7.439  0.5401 -0.6759  0.2504
  838MOL0     O15509  10.577  11.144   7.452  0.0293 -0.2788 -0.3389
  838MOL0     C15510  10.459  11.073   7.477 -0.2647  0.1032 -0.6639
  838MOL0     C15511  10.346  11.126   7.555 -0.0256 -0.3736  0.6570
  838MOL0     C15512  10.230  11.048   7.580  0.0397  0.7807  0.1251
  838MOL0     C15513  10.220  10.920   7.525  0.3828 -0.3844 -0.2327
  838MOL0     O15514  10.120  10.830   7.547 -0.0566 -0.7177  0.2530
  838MOL0     C15515  10.026  10.872   7.644 -0.4620  0.2861  0.3605
  838MOL0     C15516   9.919  10.763   7.662 -0.1669 -0.1734 -0.2529
  838MOL0     C15517   9.974  10.636   7.729 -0.1430 -0.8760  0.3139
  838MOL0     C15518  10.059  10.656   7.861  1.0917  0.4212 -0.5380
  838MOL0     C15519  10.082  10.524   7.932 -0.2592  0.4002  0.6054
  838MOL0     C15520   9.990  10.494   8.047  0.4742  0.2960  0.5256
  838MOL0     C15521   9.833  10.485   8.037 -0.0405 -0.0473 -0.1121
  838MOL0     C15522   9.792  10.372   7.950  0.1820  0.1817 -0.0435
  838MOL0     N15523   9.648  10.371   7.919  0.1453 -0.6278 -0.1636
  838MOL0     C15524   9.546  10.365   8.008  0.8394  0.2147 -1.0472
  838MOL0     C15525   9.427  10.352   7.941  0.0504  1.1907  0.6192
  838MOL0     C15526   9.288  10.350   7.991  0.4826 -0.1556  0.1354
  838MOL0     C15527   9.170  10.351   7.882 -0.0524  0.6876  0.0921
  838MOL0     C15528   9.141  10.491   7.817 -0.5007 -0.2260 -0.7254
  838MOL0     C15529   9.120  10.489   7.661  0.6828  0.5475 -0.2570
  838MOL0     O15530   9.086  10.609   7.597  0.0720 -0.7755 -0.3980
  838MOL0     C15531   9.191  10.696   7.571 -0.6831  0.2396 -0.1164
  838MOL0     C15532   9.319  10.684   7.620 -0.0113 -0.5839  0.2816
  838MOL0     C15533   9.419  10.780   7.611  0.0812  0.1787 -0.3785
  838MOL0     C15534   9.546  10.752   7.686  0.9050  0.1790  0.2754
  838MOL0     C15535   9.398  10.879   7.510 -0.3384 -0.3823 -0.1561
  838MOL0     C15536   9.506  10.981   7.465  0.0968 -1.2998 -0.5452
  838MOL0     O15537   9.637  10.963   7.506  0.4445  0.8365  0.2989
  838MOL0     C15538   9.716  11.069   7.479  0.1098 -0.7898  0.4514
  838MOL0     C15539   9.713  11.187   7.556 -0.1765  0.6733  0.2666
  838MOL0     C15540   9.800  11.297   7.521 -0.1810  0.3195  1.0397
  838MOL0     C15541   9.892  11.288   7.418  0.2423  0.1189 -0.0591
  838MOL0     O15542   9.968  11.397   7.371 -0.1057  0.0920  0.3403
  838MOL0     C15543  10.002  11.504   7.457  0.6974 -0.8677 -1.9777
  838MOL0     C15544  10.144  11.551   7.442 -0.3513 -0.6836 -0.1389
  838MOL0     C15545  10.181  11.686   7.506 -0.3168  0.4090  0.7123
  838MOL0     C15546  10.321  11.726   7.457  0.9944 -0.0634  0.2432
  838MOL0     C15547  10.315  11.782   7.319 -0.0915  0.5822 -0.2252
  838MOL0     C15548  10.448  11.843   7.281 -0.4469  0.5121 -0.4272
  838MOL0     C15549  10.440  11.916   7.147  0.3025 -0.1672 -0.6250
  838MOL0     C15550  10.559  11.994   7.108 -0.7858 -0.0690 -0.5917
  838MOL0    Cl15551  10.597  12.125   7.223  0.1443  0.1260 -0.0548
  838MOL0     C15552   9.900  11.166   7.356 -0.5068 -0.7615  0.5735
  838MOL0     C15553   9.811  11.056   7.379 -0.3271  0.2136  0.2272
  838MOL0     O15554   9.465  11.070   7.381  0.3869 -0.2473 -1.0051
  838MOL0     C15555   9.276  10.895   7.452 -0.2922  0.9031  0.7356
  838MOL0     C15556   9.168  10.802   7.489 -0.0772  0.1330  0.4621
  838MOL0     N15557   9.463  10.352   7.808  0.1384 -0.1888 -0.5267
  838MOL0     N15558   9.588  10.361   7.792 -0.6295  0.3609  0.2768
  838MOL0     C15559  10.330  10.869   7.459 -0.2845  0.4425  0.2151
  838MOL0     C15560  10.450  10.942   7.437  0.0536  0.3277  0.6138
  838MOL0     C15561  10.805  11.157   7.369 -0.0873  0.5143 -0.2545
  838MOL0     C15562  10.768  11.227   7.255 -0.6525  0.1579 -1.2271
  838MOL0     C15563  10.864  11.286   7.177 -0.8036  0.0206 -0.3364
  838MOL0     C15564  11.003  11.293   7.209 -0.5488  1.2354  0.8504
  838MOL0     O15565  11.101  11.354   7.130 -0.0773 -0.0914 -0.7861
  838MOL0     C15566  11.077  11.390   6.991  1.0185 -0.0695 -0.5314
  838MOL0     C15567  11.201  11.413   6.903  0.4746 -0.3805 -0.1254
  838MOL0     C15568  11.289  11.293   6.882  0.3816 -0.4298 -1.0575
  838MOL0     C15569  11.304  11.225   6.749  0.1616  0.0060 -0.5994
  838MOL0     C15570  11.177  11.235   6.676  0.6256 -0.7213 -0.7226
  838MOL0     C15571  11.077  11.241   6.615 -0.3329 -0.0975 -0.3142
  838MOL0     C15572  11.038  11.217   7.323 -0.4836 -0.3376 -0.6231
  838MOL0     C15573  10.944  11.158   7.406  0.5771 -0.1236 -0.1104
  838MOL0     C15574  11.004  11.113   7.547  0.0282 -0.4445  0.1224
  838MOL0     H15575  10.340  11.233   7.574 -0.2543 -0.1018 -0.8380
  838MOL0     H15576  10.148  11.099   7.631 -0.2253  0.7194 -0.2355
  838MOL0     H15577   9.984  10.967   7.610 -0.9266  0.3883  1.1834
  838MOL0     H15578  10.066  10.889   7.745  0.1131  1.4008 -0.0426
  838MOL0     H15579   9.845  10.809   7.729 -0.7647 -0.6009 -0.6175
  838MOL0     H15580   9.868  10.753   7.566 -1.9574 -0.8180  0.7111
  838MOL0     H15581   9.893  10.566   7.750 -0.9290  0.1746  0.9107
  838MOL0     H15582  10.038  10.581   7.660  1.5588 -0.0584  1.1670
  838MOL0     H15583  10.154  10.692   7.821  0.6361 -1.6088 -3.8280
  838MOL0     H15584  10.006  10.721   7.932  1.7338 -1.2453  1.5541
  838MOL0     H15585  10.177  10.532   7.986 -0.2500 -2.8748  1.2839
  838MOL0     H15586  10.100  10.446   7.859 -0.6041  1.0828 -0.2272
  838MOL0     H15587  10.024  10.398   8.087 -1.5957 -0.7400 -0.0456
  838MOL0     H15588  10.012  10.565   8.127  0.1455  1.4376 -0.3788
  838MOL0     H15589   9.804  10.583   7.998  1.8455 -0.7851 -3.8170
  838MOL0     H15590   9.789  10.480   8.137  0.9951 -1.0969  0.3106
  838MOL0     H15591   9.843  10.355   7.855 -2.3595 -0.4944 -1.3939
  838MOL0     H15592   9.803  10.281   8.009 -1.1192  0.1157  0.1371
  838MOL0     H15593   9.550  10.379   8.116 -1.7983  1.5724 -1.0569
  838MOL0     H15594   9.269  10.440   8.050  1.7858  0.3064 -0.1112
  838MOL0     H15595   9.277  10.255   8.042 -0.7003 -0.6748 -1.0340
  838MOL0     H15596   9.194  10.282   7.800  1.3674  1.9388 -0.5917
  838MOL0     H15597   9.080  10.312   7.929  0.7049 -1.4004 -0.0593
  838MOL0     H15598   9.042  10.523   7.849 -1.2164 -3.0366  0.1635
  838MOL0     H15599   9.212  10.567   7.850  0.8892 -2.2008  1.1343
  838MOL0     H15600   9.200  10.425   7.623  0.3894 -0.7697  1.2295
  838MOL0     H15601   9.031  10.425   7.662  0.9350  0.1371  2.2434
  838MOL0     H15602   9.342  10.607   7.692 -2.3615 -0.7279  0.9558
  838MOL0     H15603   9.612  10.688   7.627 -0.9560 -0.5445 -1.1216
  838MOL0     H15604   9.536  10.684   7.772  0.0979 -2.2679 -1.6545
  838MOL0     H15605   9.594  10.843   7.723 -0.7336  0.8478  0.8436
  838MOL0     H15606   9.654  11.194   7.646  1.2436  0.3914  1.2513
  838MOL0     H15607   9.793  11.394   7.569 -0.8991  1.0109 -0.4082
  838MOL0     H15608   9.938  11.592   7.449 -1.2019 -1.6468  1.9561
  838MOL0     H15609   9.990  11.472   7.561 -2.1537 -0.0433 -1.9497
  838MOL0     H15610  10.209  11.468   7.473  0.9731 -0.6900 -2.6835
  838MOL0     H15611  10.152  11.565   7.334  1.0103  1.9805  0.2146
  838MOL0     H15612  10.185  11.676   7.614  2.0902  0.0541  0.6420
  838MOL0     H15613  10.107  11.763   7.487  0.8572  1.2945 -0.4938
  838MOL0     H15614  10.392  11.643   7.467 -1.2627 -2.4371 -2.0238
  838MOL0     H15615  10.352  11.803   7.528 -3.3136  0.8142  1.4367
  838MOL0     H15616  10.281  11.699   7.256  1.5684  0.6676 -1.3149
  838MOL0     H15617  10.233  11.854   7.306  0.3700  0.6670 -3.6145
  838MOL0     H15618  10.532  11.773   7.278  0.9036  1.8289  2.4974
  838MOL0     H15619  10.471  11.923   7.352  1.5332 -0.1301 -0.2756
  838MOL0     H15620  10.344  11.964   7.126 -2.3935 -4.4471  0.7203
  838MOL0     H15621  10.434  11.836   7.073 -1.6968 -0.1502 -0.5219
  838MOL0     H15622  10.545  12.042   7.010 -1.7438 -0.6616 -0.7488
  838MOL0     H15623  10.646  11.929   7.102 -0.2272  0.7141 -1.2373
  838MOL0     H15624   9.967  11.151   7.272 -0.1620 -3.3142  1.2096
  838MOL0     H15625   9.821  10.969   7.315  4.8915 -0.1450  1.0881
  838MOL0     H15626   9.257  10.976   7.383  2.2711  0.0721 -1.0814
  838MOL0     H15627   9.067  10.814   7.451 -0.0406  0.7871  0.5719
  838MOL0     H15628  10.314  10.775   7.406  1.2887  0.5240 -0.4774
  838MOL0     H15629  10.530  10.896   7.380 -0.9436  0.1449 -0.6947
  838MOL0     H15630  10.670  11.230   7.208 -1.2902  0.6699  0.1054
  838MOL0     H15631  10.823  11.338   7.091 -0.6174  2.8144  1.1478
  838MOL0     H15632  11.014  11.314   6.943  1.7419 -1.2335  0.3029
  838MOL0     H15633  11.018  11.482   6.996  2.1992  0.6567  1.7848
  838MOL0     H15634  11.250  11.505   6.936 -0.9747 -0.5708  2.8705
  838MOL0     H15635  11.153  11.445   6.810 -2.3579 -1.7954  0.7511
  838MOL0     H15636  11.392  11.319   6.907  0.2125 -0.5516 -0.1949
  838MOL0     H15637  11.245  11.221   6.952 -3.2542  0.4036 -2.2638
  838MOL0     H15638  11.336  11.123   6.773 -3.2453 -1.0157  0.1926
  838MOL0     H15639  11.381  11.275   6.690 -0.0561  2.0712  0.7621
  838MOL0     H15640  10.978  11.242   6.575 -0.0021 -1.2055 -1.2087
  838MOL0     H15641  11.143  11.223   7.350 -0.9262  1.9367  0.8571
  838MOL0     H15642  11.073  11.030   7.529  1.8171  0.8548  0.7222
  838MOL0     H15643  11.061  11.194   7.594  0.4170 -0.0369 -1.0222
  838MOL0     H15644  10.925  11.091   7.619 -2.0092  1.2519 -1.4381
  839MOL0     O15645   0.403   0.155   9.403  0.5047 -0.6304 -0.7644
  839MOL0     C15646   0.326   0.201   9.486 -0.8670 -0.5421  1.2427
  839MOL0     O15647   0.232   0.295   9.463  0.6537 -0.3391 -0.6251
  839MOL0     C15648   0.244   0.374   9.354  0.8501  0.1011 -0.2954
  839MOL0     C15649   0.215   0.333   9.220  0.5437  1.4880  0.7258
  839MOL0     C15650   0.228   0.413   9.112 -1.0120  0.3095  0.2622
  839MOL0     C15651   0.253   0.537   9.141  0.1728  0.2032  0.4331
  839MOL0     O15652   0.258   0.618   9.029  0.1738 -0.8644 -0.1991
  839MOL0     C15653   0.317   0.563   8.905  0.2771  0.0215 -0.4002
  839MOL0     C15654   0.366   0.688   8.815 -0.3347  0.0050 -0.0243
  839MOL0     C15655   0.392   0.628   8.666  0.7371 -0.4919  0.6000
  839MOL0     C15656   0.490   0.723   8.592  1.1599  0.4857  0.9036
  839MOL0     C15657   0.539   0.664   8.463 -0.0870  1.2966 -0.1328
  839MOL0     C15658   0.638   0.760   8.396  0.1010 -0.1518  0.5223
  839MOL0     C15659   0.699   0.701   8.270  0.5530  1.1135 -0.1648
  839MOL0     C15660   0.798   0.800   8.213 -1.1143  0.0351 -0.1573
  839MOL0     N15661   0.827   0.754   8.071  0.6734 -0.2009 -0.2664
  839MOL0     C15662   0.748   0.775   7.957 -1.5273 -0.4107  0.7217
  839MOL0     C15663   0.826   0.742   7.855  0.3823 -0.4684  1.2443
  839MOL0     C15664   0.772   0.740   7.704 -0.3497 -0.4952 -0.0325
  839MOL0     C15665   0.875   0.782   7.596  0.4268  0.7845 -0.0490
  839MOL0     C15666   0.925   0.925   7.630 -0.1395 -0.1996 -0.2089
  839MOL0     C15667   1.040   0.968   7.537  0.4937  0.2909  0.3596
  839MOL0     O15668   0.988   0.976   7.396 -0.1544  0.1221  0.4376
  839MOL0     C15669   1.082   1.027   7.297  0.6160 -0.0675  0.0384
  839MOL0     C15670   1.208   1.098   7.321  0.9337 -0.0903  0.2582
  839MOL0     C15671   1.276   1.164   7.218  0.2298  0.0410 -0.1834
  839MOL0     C15672   1.405   1.242   7.264 -0.7503 -0.4970 -0.4239
  839MOL0     C15673   1.240   1.136   7.081 -0.4203  0.9100  0.3966
  839MOL0     C15674   1.323   1.182   6.966 -0.5028 -0.8907 -0.5510
  839MOL0     O15675   1.285   1.139   6.845  0.1262  0.4287 -0.1249
  839MOL0     C15676   1.360   1.168   6.733  0.5128  0.0310 -1.1833
  839MOL0     C15677   1.313   1.248   6.626  0.5636  0.2407 -0.5292
  839MOL0     C15678   1.383   1.260   6.513 -0.5250 -0.8251  0.1802
  839MOL0     C15679   1.515   1.209   6.498 -0.3576 -0.4052 -0.7123
  839MOL0     O15680   1.582   1.221   6.381 -0.4472  0.4608  0.4576
  839MOL0     C15681   1.702   1.295   6.395 -0.4157  0.8456 -0.7826
  839MOL0     C15682   1.822   1.237   6.316  0.5814 -0.2391 -0.7125
  839MOL0     C15683   1.877   1.124   6.398 -0.7023 -0.1618 -0.2324
  839MOL0     C15684   2.009   1.069   6.340  0.6187 -0.3189  0.0011
  839MOL0     C15685   2.128   1.100   6.447  0.5909  0.2000  0.0766
  839MOL0     C15686   2.276   1.092   6.389  0.1422  0.0075  0.1041
  839MOL0     C15687   2.304   0.963   6.308 -0.3932  0.6969 -0.3239
  839MOL0     C15688   2.456   0.939   6.292  0.2957 -0.2581  0.0946
  839MOL0    Cl15689   2.489   0.793   6.201  0.4120  0.0708 -0.2378
  839MOL0     C15690   1.571   1.139   6.615  0.1789 -0.4283  1.1292
  839MOL0     C15691   1.493   1.114   6.727  0.1623 -0.5011 -0.9913
  839MOL0     O15692   1.425   1.252   6.992  0.2984 -0.0894  0.2460
  839MOL0     C15693   1.123   1.055   7.060 -1.3200  0.0375  0.2967
  839MOL0     C15694   1.048   1.006   7.164 -0.5431  0.8490 -0.2087
  839MOL0     N15695   0.945   0.695   7.905 -0.5346  0.2697  0.6422
  839MOL0     N15696   0.944   0.700   8.032 -0.7760  0.2390 -0.2091
  839MOL0     C15697   0.266   0.589   9.267 -0.2131 -0.3592  0.4004
  839MOL0     C15698   0.256   0.508   9.376  0.4656 -0.0048  0.0029
  839MOL0     C15699   0.302   0.116   9.609 -0.0976 -0.5206  0.6024
  839MOL0     C15700   0.186   0.143   9.678  0.8488  0.4396 -0.2474
  839MOL0     C15701   0.144   0.075   9.788 -0.4046  0.5577 -0.4894
  839MOL0     C15702   0.232  -0.009   9.853  0.6725  0.2243  0.1946
  839MOL0     O15703   0.195  -0.052   9.976  0.1840  0.2887 -0.3272
  839MOL0     C15704   0.295  -0.094  10.072  0.0167 -0.3378  0.0033
  839MOL0     C15705   0.232  -0.102  10.211  1.2049 -0.0238  0.4757
  839MOL0     C15706   0.185   0.037  10.260  0.2222  0.5022 -0.1781
  839MOL0     C15707   0.292   0.152  10.256 -0.8834  0.1372 -0.4073
  839MOL0     C15708   0.407   0.119  10.345 -1.0244  0.1209  0.2030
  839MOL0     C15709   0.497   0.092  10.427  0.8117  0.2897  0.3674
  839MOL0     C15710   0.349  -0.050   9.788  0.0466 -0.1678  0.1618
  839MOL0     C15711   0.388   0.021   9.669 -0.2568 -0.4744 -0.0349
  839MOL0     C15712   0.519  -0.021   9.612 -0.5629  0.1147  0.2027
  839MOL0     H15713   0.181   0.232   9.198  2.1286  1.3824 -1.6464
  839MOL0     H15714   0.205   0.379   9.011 -0.6137 -2.1125  0.9201
  839MOL0     H15715   0.241   0.505   8.851 -0.1703  0.1391  0.0975
  839MOL0     H15716   0.400   0.496   8.929  0.0001 -0.7025 -1.3663
  839MOL0     H15717   0.281   0.756   8.805 -1.2512 -0.9556  0.9082
  839MOL0     H15718   0.452   0.741   8.855 -0.4297 -0.0612  0.2729
  839MOL0     H15719   0.456   0.539   8.670  2.3570  0.5813 -0.1611
  839MOL0     H15720   0.307   0.618   8.598  1.9255  0.3593 -1.0808
  839MOL0     H15721   0.459   0.825   8.565  2.1491  0.5959  0.1712
  839MOL0     H15722   0.576   0.733   8.658  0.7993  0.3912  1.3976
  839MOL0     H15723   0.451   0.648   8.402 -0.5938 -1.7262  1.2099
  839MOL0     H15724   0.593   0.572   8.488 -3.7218 -0.8033  0.7267
  839MOL0     H15725   0.587   0.853   8.371 -0.3955 -1.5559 -4.8824
  839MOL0     H15726   0.720   0.776   8.466 -1.7186 -2.1910  3.3739
  839MOL0     H15727   0.624   0.678   8.194  0.0989 -1.8928  1.0565
  839MOL0     H15728   0.749   0.605   8.288 -3.1082 -0.9323  0.0691
  839MOL0     H15729   0.773   0.906   8.216 -3.9136 -0.5111 -1.3863
  839MOL0     H15730   0.898   0.793   8.256 -0.1647  0.7067 -2.1469
  839MOL0     H15731   0.650   0.821   7.955 -1.9517 -1.2999 -0.4226
  839MOL0     H15732   0.690   0.811   7.692 -0.8869 -0.9709  0.7402
  839MOL0     H15733   0.731   0.640   7.687  0.3124 -0.5308 -1.6107
  839MOL0     H15734   0.959   0.712   7.609 -1.2614 -0.7758  4.7712
  839MOL0     H15735   0.826   0.782   7.499  1.0150  2.1449 -0.3804
  839MOL0     H15736   0.841   0.992   7.615 -0.3740  0.2537  2.6398
  839MOL0     H15737   0.957   0.919   7.734 -1.4383 -2.3586  0.1268
  839MOL0     H15738   1.072   1.068   7.566  1.3741 -0.1860  1.0874
  839MOL0     H15739   1.127   0.903   7.550  1.4351  2.0059  3.5765
  839MOL0     H15740   1.231   1.126   7.423  0.5792 -0.9958  0.5979
  839MOL0     H15741   1.407   1.249   7.373 -2.3166  2.7782 -0.4828
  839MOL0     H15742   1.404   1.343   7.223 -0.3040 -1.0135 -1.7553
  839MOL0     H15743   1.500   1.195   7.238  1.7662  3.4325  0.7567
  839MOL0     H15744   1.216   1.296   6.625 -0.1478 -1.1118  0.4889
  839MOL0     H15745   1.339   1.331   6.444  1.3668  1.2544  0.9667
  839MOL0     H15746   1.680   1.392   6.350 -0.0118  1.6454  0.6760
  839MOL0     H15747   1.727   1.313   6.500 -1.1319  0.4168 -0.5299
  839MOL0     H15748   1.803   1.195   6.217  1.8181 -0.8919 -0.6881
  839MOL0     H15749   1.900   1.314   6.308  1.0884 -0.5118  1.1834
  839MOL0     H15750   1.805   1.044   6.383 -3.6038  2.6882 -3.0868
  839MOL0     H15751   1.900   1.150   6.502  1.8936  0.3119 -0.8493
  839MOL0     H15752   2.016   1.132   6.251 -3.6893 -0.5599 -0.6938
  839MOL0     H15753   1.983   0.964   6.324 -3.4593  0.5398  0.0418
  839MOL0     H15754   2.109   1.205   6.471 -0.3946 -0.2591  1.4563
  839MOL0     H15755   2.117   1.027   6.527 -1.4967  0.1258 -0.2182
  839MOL0     H15756   2.351   1.122   6.462 -0.8605  1.7862  0.4820
  839MOL0     H15757   2.289   1.177   6.321 -0.9417  0.1503  0.0528
  839MOL0     H15758   2.255   0.974   6.211 -0.5264  1.6062 -0.1658
  839MOL0     H15759   2.259   0.874   6.353 -0.4054  0.5428 -0.6362
  839MOL0     H15760   2.486   0.926   6.396 -0.5527  2.7057  0.7808
  839MOL0     H15761   2.510   1.024   6.250 -0.1914  0.2557  0.4959
  839MOL0     H15762   1.667   1.090   6.603  1.0709  0.7776  2.9878
  839MOL0     H15763   1.519   1.056   6.815  0.5170 -1.3788 -1.6610
  839MOL0     H15764   1.088   1.041   6.958  1.3762  0.5462 -0.7847
  839MOL0     H15765   0.961   0.944   7.147  0.2338 -0.6079  0.9254
  839MOL0     H15766   0.281   0.694   9.289 -2.1067 -0.3740  2.0944
  839MOL0     H15767   0.270   0.554   9.474  0.0638  1.2107 -0.4935
  839MOL0     H15768   0.127   0.231   9.653 -0.8693 -0.5105  0.3284
  839MOL0     H15769   0.049   0.098   9.836 -1.7278 -3.2145 -0.9074
  839MOL0     H15770   0.350  -0.182  10.038  3.9616  2.5485 -1.9206
  839MOL0     H15771   0.376  -0.021  10.075  1.4330 -1.7462 -1.6674
  839MOL0     H15772   0.312  -0.119  10.284  1.4304  1.8578  0.7072
  839MOL0     H15773   0.151  -0.172  10.232 -0.2032  2.0417  2.3809
  839MOL0     H15774   0.097   0.066  10.202 -0.3461  1.3391  1.0575
  839MOL0     H15775   0.160   0.022  10.365  2.8626 -2.2574  0.1857
  839MOL0     H15776   0.250   0.243  10.299 -0.3344 -0.8943  2.4954
  839MOL0     H15777   0.325   0.169  10.152 -3.7668  2.7642 -1.0464
  839MOL0     H15778   0.563   0.068  10.507  0.8447  0.8933  0.5293
  839MOL0     H15779   0.415  -0.123   9.833 -1.5060 -1.7971 -0.0903
  839MOL0     H15780   0.575   0.061   9.566 -3.4957  0.7241 -2.6254
  839MOL0     H15781   0.586  -0.070   9.683 -0.5701  1.3580  1.1062
  839MOL0     H15782   0.505  -0.096   9.535  0.8090 -2.2797  2.1318
  840MOL0     O15783   5.030   1.234   4.389 -0.3483 -0.3783  0.2644
  840MOL0     C15784   5.047   1.236   4.511  0.0782 -0.3164 -0.5069
  840MOL0     O15785   5.173   1.245   4.570  0.3041  0.4665 -0.6300
  840MOL0     C15786   5.293   1.242   4.498  0.0258 -0.1735 -0.5179
  840MOL0     C15787   5.301   1.315   4.385  0.5749 -0.2981 -0.2288
  840MOL0     C15788   5.422   1.324   4.317 -0.6337 -0.3684 -0.6046
  840MOL0     C15789   5.534   1.258   4.364 -0.4323 -0.5523 -0.1583
  840MOL0     O15790   5.651   1.278   4.299 -0.0070 -0.2337  0.1054
  840MOL0     C15791   5.757   1.187   4.329 -1.0022 -0.1519 -0.3223
  840MOL0     C15792   5.879   1.216   4.233 -0.6167  0.0197  0.0063
  840MOL0     C15793   5.944   1.357   4.252  0.2299  0.2138  0.2850
  840MOL0     C15794   5.999   1.368   4.399  1.1214  0.2154  1.0200
  840MOL0     C15795   6.158   1.388   4.392  0.5787 -0.0477 -1.2432
  840MOL0     C15796   6.229   1.417   4.523 -0.3449  0.6944 -0.0533
  840MOL0     C15797   6.373   1.407   4.517  0.2804  0.8891  0.0885
  840MOL0     C15798   6.432   1.438   4.652 -0.3541  0.7193 -0.9161
  840MOL0     N15799   6.424   1.579   4.688 -0.0948  0.0528  0.4272
  840MOL0     C15800   6.324   1.614   4.768  0.1091  0.1090 -0.6618
  840MOL0     C15801   6.363   1.741   4.805  0.4540  0.5213  0.6936
  840MOL0     C15802   6.285   1.811   4.919  0.6802  0.8489  0.1849
  840MOL0     C15803   6.256   1.961   4.890 -0.1025  0.8407  0.2620
  840MOL0     C15804   6.366   2.064   4.858  0.0396  0.0976  0.3769
  840MOL0     C15805   6.488   2.050   4.954 -0.1738  1.3088 -0.1412
  840MOL0     O15806   6.435   2.071   5.083 -0.0767  0.1433 -0.5067
  840MOL0     C15807   6.527   2.045   5.179 -0.3452 -0.7740  0.1935
  840MOL0     C15808   6.503   1.935   5.266  0.1507  0.4689 -0.1861
  840MOL0     C15809   6.569   1.906   5.384 -0.1769 -0.3266  1.1676
  840MOL0     C15810   6.516   1.815   5.485  0.0794  0.9548  0.5696
  840MOL0     C15811   6.687   1.979   5.397 -0.2050 -0.1862 -0.5294
  840MOL0     C15812   6.777   1.962   5.514 -0.7479 -0.0565 -0.5049
  840MOL0     O15813   6.868   2.072   5.537 -0.3457  0.2234  0.3210
  840MOL0     C15814   6.971   2.070   5.632 -0.4606  0.7178 -0.5880
  840MOL0     C15815   7.078   2.158   5.627  0.5587 -1.0439  0.4366
  840MOL0     C15816   7.182   2.164   5.720  0.0580  0.6869 -0.3586
  840MOL0     C15817   7.189   2.070   5.825  0.1655  0.4254  0.0396
  840MOL0     O15818   7.282   2.060   5.920  0.6661 -0.7631 -0.0201
  840MOL0     C15819   7.400   2.131   5.902  0.6839 -0.4776  0.4456
  840MOL0     C15820   7.484   2.128   6.036  0.4531 -0.6285  0.1788
  840MOL0     C15821   7.592   2.239   6.042  0.1426 -0.2088  0.1422
  840MOL0     C15822   7.668   2.241   6.175 -0.6267 -1.2141 -0.5884
  840MOL0     C15823   7.753   2.363   6.192 -0.4052 -0.7703 -0.5179
  840MOL0     C15824   7.873   2.370   6.113 -0.4999 -1.3325  0.2904
  840MOL0     C15825   7.956   2.507   6.133  0.9492  0.5298 -0.1616
  840MOL0     C15826   7.892   2.622   6.057 -0.3670  0.7363 -0.7091
  840MOL0    Cl15827   7.976   2.773   6.076 -0.0929  0.0966  0.1847
  840MOL0     C15828   7.084   1.979   5.833  0.8283  1.0626 -1.3322
  840MOL0     C15829   6.978   1.983   5.744  0.0910 -0.1713 -0.6979
  840MOL0     O15830   6.790   1.851   5.552 -0.4158  0.8791 -0.2382
  840MOL0     C15831   6.730   2.081   5.302 -0.6146  0.1254  0.0528
  840MOL0     C15832   6.645   2.122   5.201 -0.2401 -0.4767 -0.4985
  840MOL0     N15833   6.481   1.773   4.736 -0.5898  0.0162 -0.5958
  840MOL0     N15834   6.516   1.676   4.664 -1.2021 -0.1199 -0.1326
  840MOL0     C15835   5.516   1.185   4.477  0.1659  0.3211 -0.0899
  840MOL0     C15836   5.395   1.173   4.542  0.6095  0.1708  0.4978
  840MOL0     C15837   4.927   1.240   4.588  0.3199  0.4287 -1.2845
  840MOL0     C15838   4.937   1.249   4.738 -0.2770  0.6428 -0.0442
  840MOL0     C15839   4.827   1.253   4.821 -0.4482  0.6087 -1.3551
  840MOL0     C15840   4.697   1.273   4.770  0.0584  0.2729 -0.0958
  840MOL0     O15841   4.583   1.277   4.848  0.9072 -0.7048 -0.3330
  840MOL0     C15842   4.573   1.364   4.967 -0.4164 -0.0386  0.1870
  840MOL0     C15843   4.581   1.277   5.091 -0.0222  0.7809 -0.2444
  840MOL0     C15844   4.443   1.243   5.122 -0.2847  0.8272  0.6794
  840MOL0     C15845   4.438   1.161   5.256 -0.4401  0.2177 -0.3435
  840MOL0     C15846   4.289   1.140   5.280 -0.1741  0.0689 -0.1618
  840MOL0     C15847   4.178   1.107   5.293  0.5731 -0.0501 -0.9498
  840MOL0     C15848   4.680   1.263   4.635 -0.7247 -0.3956  1.2117
  840MOL0     C15849   4.786   1.245   4.545 -0.5910  0.0164 -0.0116
  840MOL0     C15850   4.741   1.242   4.402 -0.3099 -0.0044  1.3281
  840MOL0     H15851   5.219   1.378   4.352  1.2416 -0.1553 -1.7097
  840MOL0     H15852   5.431   1.369   4.218  1.0996  2.1238  0.5590
  840MOL0     H15853   5.721   1.084   4.327 -1.7214 -0.0130  2.1689
  840MOL0     H15854   5.798   1.196   4.430  3.1467 -0.3174 -1.8049
  840MOL0     H15855   5.944   1.130   4.252 -1.3348 -0.6379 -0.4404
  840MOL0     H15856   5.859   1.226   4.126  0.7564 -1.2119 -0.3960
  840MOL0     H15857   6.024   1.377   4.180 -0.2901 -0.0058 -0.3711
  840MOL0     H15858   5.870   1.437   4.243  2.2777  2.6193  3.0617
  840MOL0     H15859   5.947   1.456   4.438  0.2031  0.0829  0.1407
  840MOL0     H15860   5.975   1.283   4.464 -4.1397  0.7918  0.2885
  840MOL0     H15861   6.179   1.468   4.320  1.2211  0.7293 -0.2281
  840MOL0     H15862   6.193   1.292   4.355 -4.6127 -2.2996 -1.2020
  840MOL0     H15863   6.199   1.520   4.545  1.4908  0.9493  1.4506
  840MOL0     H15864   6.192   1.348   4.600 -0.5692  1.2980  0.3867
  840MOL0     H15865   6.408   1.488   4.452 -3.0943  1.3361 -1.3774
  840MOL0     H15866   6.400   1.308   4.480 -2.8869 -0.0183 -0.0782
  840MOL0     H15867   6.395   1.375   4.733  0.2940  1.2997 -0.1525
  840MOL0     H15868   6.538   1.410   4.650 -0.5855 -0.1932 -0.7511
  840MOL0     H15869   6.246   1.552   4.812 -1.2046  0.1158 -2.8138
  840MOL0     H15870   6.344   1.808   5.011  0.6399  1.6623  0.2451
  840MOL0     H15871   6.191   1.763   4.948  2.3678 -1.2073  2.7756
  840MOL0     H15872   6.173   1.970   4.819 -1.9797 -2.0696  1.8685
  840MOL0     H15873   6.212   2.000   4.982  2.1065 -0.3255  1.8919
  840MOL0     H15874   6.392   2.069   4.752 -1.0745  2.2958  0.1422
  840MOL0     H15875   6.332   2.168   4.860  0.1128  0.3437 -3.8430
  840MOL0     H15876   6.531   1.950   4.942 -1.7187  0.7167 -0.9506
  840MOL0     H15877   6.566   2.122   4.928 -1.8838  2.0185 -3.9709
  840MOL0     H15878   6.418   1.870   5.247 -1.1411  1.9668  0.2700
  840MOL0     H15879   6.435   1.762   5.434  0.5580  1.5169 -0.8167
  840MOL0     H15880   6.483   1.864   5.577  1.5988 -0.0451  1.6796
  840MOL0     H15881   6.593   1.745   5.520  0.6883  0.8383 -0.9321
  840MOL0     H15882   7.093   2.232   5.549  0.2553 -1.0446  0.3752
  840MOL0     H15883   7.238   2.257   5.715 -3.0290  2.5857 -1.9452
  840MOL0     H15884   7.461   2.099   5.817  0.3464  1.4539 -0.5616
  840MOL0     H15885   7.368   2.233   5.881  1.1804 -0.4805 -0.3560
  840MOL0     H15886   7.423   2.145   6.126 -0.4161  2.3446 -0.8444
  840MOL0     H15887   7.529   2.029   6.044  0.4866 -0.9606 -3.0208
  840MOL0     H15888   7.547   2.338   6.031 -1.0326 -0.5095  1.8411
  840MOL0     H15889   7.663   2.217   5.962  2.1971  0.2632  1.7585
  840MOL0     H15890   7.731   2.152   6.175 -0.3793 -1.0497 -1.1900
  840MOL0     H15891   7.603   2.235   6.262  1.2563  1.1258  1.1185
  840MOL0     H15892   7.691   2.450   6.167 -0.0941 -0.5742 -0.6070
  840MOL0     H15893   7.776   2.382   6.297 -0.5828  0.1811 -0.6415
  840MOL0     H15894   7.832   2.371   6.012 -1.1811  1.7052  0.4827
  840MOL0     H15895   7.929   2.285   6.151  1.7753 -0.7405 -1.4854
  840MOL0     H15896   8.050   2.468   6.094  1.5386 -0.1144  1.8245
  840MOL0     H15897   7.960   2.539   6.237  2.1416  4.2653 -1.1912
  840MOL0     H15898   7.788   2.622   6.092  0.1797 -0.9171  1.1343
  840MOL0     H15899   7.889   2.605   5.949 -1.3584 -0.3933 -0.5312
  840MOL0     H15900   7.082   1.906   5.913 -0.7929  1.3332 -1.0970
  840MOL0     H15901   6.898   1.912   5.763  0.6979  0.1246  4.1465
  840MOL0     H15902   6.826   2.132   5.304  1.1854 -3.0104  0.9915
  840MOL0     H15903   6.677   2.205   5.139 -1.8490 -0.3649 -1.2252
  840MOL0     H15904   5.596   1.127   4.521  0.5437  0.8435 -0.0797
  840MOL0     H15905   5.379   1.106   4.627  2.9155 -0.2323  0.6753
  840MOL0     H15906   5.026   1.240   4.799 -0.3925  1.9474  0.3433
  840MOL0     H15907   4.849   1.250   4.927  0.6440 -0.2338 -1.5892
  840MOL0     H15908   4.665   1.423   4.974 -1.2586  1.3895 -0.3825
  840MOL0     H15909   4.485   1.429   4.965 -1.1425 -1.0181 -0.2740
  840MOL0     H15910   4.629   1.326   5.176 -0.0329 -0.4449  0.4914
  840MOL0     H15911   4.635   1.186   5.063 -2.8688 -1.0820 -0.1324
  840MOL0     H15912   4.385   1.336   5.131 -0.1637  1.2262 -1.7733
  840MOL0     H15913   4.406   1.180   5.041  1.8023 -0.9546  1.0308
  840MOL0     H15914   4.485   1.207   5.344  2.7187 -1.0120 -1.2918
  840MOL0     H15915   4.484   1.062   5.252 -0.8758  0.0023 -0.1483
  840MOL0     H15916   4.079   1.072   5.311  1.3322 -2.6744 -1.4872
  840MOL0     H15917   4.580   1.262   4.592 -0.4073 -2.0172  0.4312
  840MOL0     H15918   4.761   1.339   4.356 -0.5527 -0.6038 -0.1158
  840MOL0     H15919   4.786   1.158   4.349  0.7684 -1.1817  3.9597
  840MOL0     H15920   4.639   1.208   4.379  0.3928 -0.5725 -1.4010
  841MOL0     O15921   0.274   2.722   0.305 -0.2568 -0.0798 -0.2869
  841MOL0     C15922   0.396   2.742   0.306 -0.5678 -0.8655  0.2041
  841MOL0     O15923   0.490   2.658   0.357 -0.6828  1.2400  0.0717
  841MOL0     C15924   0.457   2.524   0.372  0.5784 -0.7261 -0.5070
  841MOL0     C15925   0.505   2.455   0.490 -0.3859 -0.6177 -0.2851
  841MOL0     C15926   0.464   2.325   0.518 -1.0259 -0.4638  0.1982
  841MOL0     C15927   0.381   2.259   0.430  0.0859 -0.2692  0.3420
  841MOL0     O15928   0.333   2.128   0.437 -0.0369 -0.3118 -0.2146
  841MOL0     C15929   0.375   2.043   0.544 -1.0396 -0.7465 -0.1444
  841MOL0     C15930   0.300   1.917   0.514  0.0101 -0.3776 -0.7747
  841MOL0     C15931   0.306   1.810   0.626 -0.0936 -0.1088  0.3608
  841MOL0     C15932   0.202   1.699   0.613 -0.5419 -0.2191 -0.0213
  841MOL0     C15933   0.077   1.731   0.698 -0.4467 -1.0453 -0.3597
  841MOL0     C15934  -0.039   1.628   0.693 -1.1227  0.0010  0.5463
  841MOL0     C15935  -0.116   1.640   0.564 -0.3756  0.8214  0.8473
  841MOL0     C15936  -0.224   1.532   0.551  0.0556 -0.3215 -0.4355
  841MOL0     N15937  -0.182   1.394   0.568 -0.0934  0.2303 -0.2458
  841MOL0     C15938  -0.104   1.328   0.475  0.1897 -0.5594 -0.2462
  841MOL0     C15939  -0.071   1.211   0.532 -0.2794 -0.3028 -0.2623
  841MOL0     C15940   0.011   1.098   0.476  0.0936  0.4518  0.0103
  841MOL0     C15941   0.112   1.056   0.570  0.1180  0.2571 -0.6373
  841MOL0     C15942   0.245   1.131   0.573  0.3278 -0.5859  0.3066
  841MOL0     C15943   0.310   1.117   0.711 -0.1587 -0.1167 -0.2485
  841MOL0     O15944   0.374   1.235   0.758 -0.4074  0.2246  0.5367
  841MOL0     C15945   0.308   1.330   0.830  0.2432 -0.6651 -1.2426
  841MOL0     C15946   0.376   1.446   0.881 -0.6511 -0.8259 -0.1647
  841MOL0     C15947   0.309   1.536   0.959  0.0336 -0.0584 -0.0584
  841MOL0     C15948   0.398   1.657   0.998 -0.7981 -0.6065  0.5245
  841MOL0     C15949   0.174   1.523   0.989 -0.4980  0.4616  0.6194
  841MOL0     C15950   0.094   1.607   1.071  0.9676  0.1849 -0.3069
  841MOL0     O15951  -0.034   1.638   1.022  0.1695  0.1300 -0.7973
  841MOL0     C15952  -0.118   1.718   1.092  0.2839  1.2896 -0.3371
  841MOL0     C15953  -0.201   1.806   1.022 -0.6713 -0.0516  0.0389
  841MOL0     C15954  -0.299   1.887   1.070  0.5645 -0.0833  0.3224
  841MOL0     C15955  -0.330   1.877   1.209 -0.5557  0.8538  0.3585
  841MOL0     O15956  -0.440   1.942   1.259 -0.3991 -0.0980  0.3047
  841MOL0     C15957  -0.440   1.975   1.398 -0.5968 -0.1277  0.5797
  841MOL0     C15958  -0.535   2.092   1.406  0.5250 -0.7928  0.5687
  841MOL0     C15959  -0.565   2.131   1.547 -0.5874  0.0408 -0.3678
  841MOL0     C15960  -0.699   2.205   1.553  0.0300 -0.2294 -0.6291
  841MOL0     C15961  -0.738   2.245   1.693 -0.2225 -0.0503 -0.6060
  841MOL0     C15962  -0.887   2.316   1.683 -0.4895  0.1011  0.1165
  841MOL0     C15963  -0.946   2.328   1.817  1.0196  0.3472  0.0142
  841MOL0     C15964  -1.082   2.394   1.830 -0.0279 -0.9061 -0.7041
  841MOL0    Cl15965  -1.204   2.273   1.815  0.4045 -0.1888  0.2442
  841MOL0     C15966  -0.257   1.785   1.287  0.4445 -0.0341  0.0505
  841MOL0     C15967  -0.148   1.715   1.228 -0.3179  0.0533 -0.4828
  841MOL0     O15968   0.140   1.637   1.177  0.3687 -0.5005 -0.5942
  841MOL0     C15969   0.109   1.406   0.953  0.1372  0.4773 -1.0145
  841MOL0     C15970   0.167   1.313   0.864  0.0904  0.5007  0.0769
  841MOL0     N15971  -0.127   1.211   0.661 -0.6037  0.9274  0.0596
  841MOL0     N15972  -0.198   1.317   0.674 -0.0168  0.1615 -0.0065
  841MOL0     C15973   0.332   2.321   0.318 -0.7529 -0.4006 -0.5900
  841MOL0     C15974   0.363   2.458   0.288 -0.9726 -0.7764  0.3343
  841MOL0     C15975   0.450   2.869   0.262 -0.6229  0.8644  0.3421
  841MOL0     C15976   0.556   2.927   0.337  0.0095  0.2147 -0.1670
  841MOL0     C15977   0.606   3.049   0.307 -0.0119  0.5300 -0.3975
  841MOL0     C15978   0.565   3.124   0.190 -0.5680  0.9533  0.1696
  841MOL0     O15979   0.620   3.245   0.153  0.2330  0.1502  0.0887
  841MOL0     C15980   0.731   3.231   0.063 -0.0969 -0.8042  0.1121
  841MOL0     C15981   0.772   3.381   0.052 -0.3308  0.3752  0.8219
  841MOL0     C15982   0.896   3.398  -0.035 -0.0980  0.9943 -0.4368
  841MOL0     C15983   0.942   3.541  -0.042  0.3328 -0.1285 -0.2379
  841MOL0     C15984   1.066   3.552  -0.127 -1.0761  0.0660  0.1702
  841MOL0     C15985   1.159   3.552  -0.208  0.1296 -0.5168 -0.1304
  841MOL0     C15986   0.468   3.068   0.116  0.1244  0.2276  0.7891
  841MOL0     C15987   0.406   2.947   0.148 -0.8253 -0.0112  0.2258
  841MOL0     C15988   0.270   2.925   0.070 -0.6060 -0.5862  0.0516
  841MOL0     H15989   0.577   2.507   0.553 -1.0139 -0.4878  0.3407
  841MOL0     H15990   0.503   2.267   0.601 -0.7821 -3.4662 -1.8550
  841MOL0     H15991   0.345   2.092   0.637  0.0917  0.8292 -0.5508
  841MOL0     H15992   0.483   2.027   0.550 -1.2126 -1.6983  0.5195
  841MOL0     H15993   0.198   1.945   0.489 -0.0624 -1.0574 -1.2747
  841MOL0     H15994   0.333   1.869   0.421 -0.9971 -0.2468 -1.2155
  841MOL0     H15995   0.405   1.764   0.619 -0.8453 -1.9429  1.1558
  841MOL0     H15996   0.311   1.857   0.725  0.5582  1.4304 -0.3642
  841MOL0     H15997   0.186   1.680   0.507 -0.4024 -0.8766  0.0683
  841MOL0     H15998   0.242   1.604   0.650 -0.4241 -0.0290  0.3509
  841MOL0     H15999   0.038   1.821   0.652  1.0264  0.3266  0.9382
  841MOL0     H16000   0.103   1.756   0.802 -1.4695  2.9823 -0.9124
  841MOL0     H16001  -0.014   1.525   0.719 -2.1526 -0.0552  1.3923
  841MOL0     H16002  -0.125   1.649   0.757 -1.2535 -1.1959  0.7870
  841MOL0     H16003  -0.050   1.625   0.479 -1.6134  2.5587 -0.4808
  841MOL0     H16004  -0.148   1.744   0.558  0.8596  1.1557 -0.4250
  841MOL0     H16005  -0.305   1.546   0.623 -0.6391 -0.0433 -1.2651
  841MOL0     H16006  -0.281   1.540   0.458 -0.8835  2.4452  0.2882
  841MOL0     H16007  -0.072   1.368   0.379  0.2241  0.9079  0.3567
  841MOL0     H16008   0.065   1.126   0.385  3.9611  1.8120  2.4388
  841MOL0     H16009  -0.061   1.020   0.453  0.3898  0.1642  0.0453
  841MOL0     H16010   0.078   1.029   0.670  0.6933 -4.0305 -1.4023
  841MOL0     H16011   0.156   0.960   0.543  2.1226 -0.5976  4.5076
  841MOL0     H16012   0.303   1.085   0.493  1.0101 -0.8512  0.9490
  841MOL0     H16013   0.230   1.236   0.545  2.3696 -0.2306  0.4301
  841MOL0     H16014   0.247   1.080   0.793 -0.0182  3.3896  1.6152
  841MOL0     H16015   0.388   1.040   0.707 -1.2033 -1.4035  1.9965
  841MOL0     H16016   0.479   1.472   0.860 -0.7552  1.1192  1.3933
  841MOL0     H16017   0.501   1.631   1.026 -0.1641 -0.8611 -1.8053
  841MOL0     H16018   0.360   1.710   1.085  1.0438  1.8186 -0.0372
  841MOL0     H16019   0.406   1.718   0.907  2.5755  0.7904  1.6079
  841MOL0     H16020  -0.173   1.826   0.919  0.2048  1.1227  0.4940
  841MOL0     H16021  -0.369   1.948   1.014  0.6868 -0.9626 -0.8075
  841MOL0     H16022  -0.472   1.893   1.462 -1.3479  2.0211  3.1418
  841MOL0     H16023  -0.339   2.004   1.429  0.3631 -0.5084 -1.9371
  841MOL0     H16024  -0.501   2.177   1.345 -2.2396  1.2632  1.7182
  841MOL0     H16025  -0.627   2.056   1.359 -0.4873  0.5883  1.4314
  841MOL0     H16026  -0.484   2.191   1.590 -0.0896 -0.4256 -0.6369
  841MOL0     H16027  -0.562   2.042   1.610  0.2854 -0.7591 -1.4879
  841MOL0     H16028  -0.768   2.129   1.517 -0.5029 -0.1839  0.2626
  841MOL0     H16029  -0.712   2.287   1.482 -1.9042 -0.4815 -0.6101
  841MOL0     H16030  -0.728   2.161   1.762  2.5494  1.4295  0.9810
  841MOL0     H16031  -0.660   2.315   1.724  0.5633 -1.6287  1.1840
  841MOL0     H16032  -0.957   2.257   1.624 -2.3951  0.5850  1.7755
  841MOL0     H16033  -0.868   2.414   1.640  0.2832  0.1656  0.5757
  841MOL0     H16034  -0.877   2.388   1.877 -1.2374  0.8463  2.2768
  841MOL0     H16035  -0.956   2.232   1.869 -0.9928  0.5792  0.1269
  841MOL0     H16036  -1.103   2.487   1.776 -2.0995 -0.0657  1.3499
  841MOL0     H16037  -1.086   2.429   1.934 -1.7424  1.2560 -1.4102
  841MOL0     H16038  -0.285   1.776   1.392 -0.5789 -1.9876 -0.3371
  841MOL0     H16039  -0.096   1.637   1.284 -2.8807 -0.3971  1.4693
  841MOL0     H16040   0.008   1.372   0.974  1.3360 -4.0927 -1.4685
  841MOL0     H16041   0.109   1.226   0.836  1.2644  0.4139 -2.3693
  841MOL0     H16042   0.268   2.270   0.247 -3.3838  2.7124 -0.7075
  841MOL0     H16043   0.326   2.501   0.194 -0.9378  1.6688  1.3481
  841MOL0     H16044   0.580   2.881   0.432  1.3823 -0.6776 -0.9152
  841MOL0     H16045   0.675   3.099   0.375  0.4431 -0.2177 -0.2976
  841MOL0     H16046   0.808   3.167   0.107 -0.9217 -2.0589 -0.2242
  841MOL0     H16047   0.710   3.197  -0.039 -0.1269 -0.3701 -0.0280
  841MOL0     H16048   0.792   3.420   0.152  3.6071 -1.7896  1.0819
  841MOL0     H16049   0.696   3.439  -0.001 -0.8476 -0.9294  0.0754
  841MOL0     H16050   0.978   3.338   0.007 -0.4165  0.6058 -0.3666
  841MOL0     H16051   0.876   3.355  -0.133  0.1329  0.8120 -0.4067
  841MOL0     H16052   0.964   3.591   0.052 -1.5076  2.0102 -0.8721
  841MOL0     H16053   0.867   3.609  -0.083  1.0897  1.1492  0.4528
  841MOL0     H16054   1.250   3.551  -0.263 -0.2745 -0.1636 -0.8206
  841MOL0     H16055   0.429   3.117   0.028 -1.1343 -0.0970  1.1444
  841MOL0     H16056   0.236   2.823   0.047  0.0561 -0.7730 -0.1227
  841MOL0     H16057   0.195   2.975   0.131 -0.5454 -0.1208 -0.2549
  841MOL0     H16058   0.263   2.976  -0.026 -2.4138 -2.6424 -0.9945
  842MOL0     O16059   8.527   2.254   7.333  0.0163  0.4906  0.5337
  842MOL0     C16060   8.475   2.206   7.233 -0.5038 -0.0174 -0.8827
  842MOL0     O16061   8.515   2.230   7.105 -0.8573 -0.6602 -0.1748
  842MOL0     C16062   8.629   2.318   7.088  0.6589  0.8000  0.5322
  842MOL0     C16063   8.622   2.457   7.087  0.3660 -0.1088 -0.2565
  842MOL0     C16064   8.737   2.535   7.098 -0.8916  0.5531  0.0548
  842MOL0     C16065   8.865   2.474   7.093  0.3328  0.5278 -0.0483
  842MOL0     O16066   8.972   2.559   7.110  0.0615 -0.7069 -0.3449
  842MOL0     C16067   9.086   2.529   7.038 -0.8393  0.0970  1.4087
  842MOL0     C16068   9.199   2.633   7.059  0.2902 -0.3909  0.4534
  842MOL0     C16069   9.324   2.587   6.987  0.1233  0.3218 -0.5066
  842MOL0     C16070   9.308   2.607   6.834  0.2975 -0.1216 -0.2895
  842MOL0     C16071   9.430   2.544   6.766  0.3025  0.0796  0.1709
  842MOL0     C16072   9.383   2.495   6.627 -0.7997 -0.6981 -0.3867
  842MOL0     C16073   9.479   2.397   6.562  0.7067 -0.1767 -0.1782
  842MOL0     C16074   9.614   2.444   6.515 -0.1453 -0.4417  0.2651
  842MOL0     N16075   9.683   2.331   6.447 -0.2690 -0.2999  0.1675
  842MOL0     C16076   9.647   2.283   6.324 -0.3602  0.0471 -0.1218
  842MOL0     C16077   9.732   2.185   6.293  1.3878 -0.0209  0.2057
  842MOL0     C16078   9.733   2.118   6.159 -0.8339 -0.0054  0.7588
  842MOL0     C16079   9.832   2.165   6.053  0.0438 -0.9063  0.0736
  842MOL0     C16080   9.978   2.144   6.104 -0.8439  0.6386 -0.4658
  842MOL0     C16081  10.088   2.212   6.004  0.2098 -0.3061 -0.4817
  842MOL0     O16082  10.067   2.352   6.015  0.0125 -0.0864 -0.1623
  842MOL0     C16083  10.169   2.431   5.981  0.0439  0.5149  0.3788
  842MOL0     C16084  10.190   2.553   6.046 -0.4426 -0.5619  0.4825
  842MOL0     C16085  10.307   2.627   6.021  0.0641  0.2380 -0.0445
  842MOL0     C16086  10.341   2.733   6.125 -0.5424  0.3066 -0.1127
  842MOL0     C16087  10.401   2.579   5.919 -0.7959 -0.4706 -1.1407
  842MOL0     C16088  10.540   2.637   5.915 -0.0652 -0.3504 -0.0022
  842MOL0     O16089  10.646   2.552   5.930  0.4640 -0.6471  1.1741
  842MOL0     C16090  10.778   2.576   5.911 -0.2904 -0.8098 -0.6497
  842MOL0     C16091  10.840   2.697   5.957  0.5833 -0.7352  0.1778
  842MOL0     C16092  10.975   2.722   5.937 -0.4882  1.2871 -0.6347
  842MOL0     C16093  11.063   2.618   5.888 -0.3776  0.4539 -0.6635
  842MOL0     O16094  11.195   2.649   5.876 -1.0521 -0.3484  0.1754
  842MOL0     C16095  11.294   2.547   5.869 -0.3690 -0.0546 -0.1812
  842MOL0     C16096  11.433   2.607   5.914  0.7856  0.8253 -0.3537
  842MOL0     C16097  11.535   2.490   5.923  0.1911 -0.9415 -0.2549
  842MOL0     C16098  11.660   2.519   6.005 -0.3727 -0.4895  0.1127
  842MOL0     C16099  11.779   2.432   5.962 -0.5289  0.0427  0.2428
  842MOL0     C16100  11.911   2.492   6.007 -0.0461 -0.0129 -0.5570
  842MOL0     C16101  11.962   2.601   5.918 -0.5992  0.0686  0.3835
  842MOL0     C16102  12.087   2.680   5.974 -0.0652 -0.5198  0.0550
  842MOL0    Cl16103  12.230   2.576   5.978 -0.0149  0.7213 -0.0818
  842MOL0     C16104  11.004   2.494   5.844  0.1182 -0.2757 -0.4449
  842MOL0     C16105  10.865   2.477   5.856 -0.3409  0.7811  0.2182
  842MOL0     O16106  10.553   2.753   5.881  0.3448  0.7534  0.4398
  842MOL0     C16107  10.373   2.462   5.847 -0.5525  0.6596 -0.3227
  842MOL0     C16108  10.255   2.392   5.875 -0.1767  0.7002  0.0125
  842MOL0     N16109   9.822   2.174   6.398 -0.2135  0.5676 -0.2749
  842MOL0     N16110   9.787   2.262   6.488 -0.3674 -0.2676 -0.1438
  842MOL0     C16111   8.871   2.334   7.097 -0.5743 -0.2607 -0.5939
  842MOL0     C16112   8.755   2.255   7.088  0.7994 -0.1758 -0.3295
  842MOL0     C16113   8.364   2.104   7.246 -0.8627  0.4790 -0.4983
  842MOL0     C16114   8.372   1.974   7.182 -0.5173 -1.1365 -0.3672
  842MOL0     C16115   8.279   1.872   7.202 -0.0218 -0.7437 -0.0278
  842MOL0     C16116   8.166   1.891   7.287 -0.8383 -0.2824 -0.2523
  842MOL0     O16117   8.076   1.793   7.309 -0.1434  0.1706  0.0472
  842MOL0     C16118   8.107   1.656   7.284  0.6335 -0.6186  0.9650
  842MOL0     C16119   7.978   1.585   7.338  0.1147 -0.7635 -0.0147
  842MOL0     C16120   7.855   1.585   7.258  0.5739  0.1329  0.9802
  842MOL0     C16121   7.735   1.490   7.290  0.5018  0.1312 -0.1376
  842MOL0     C16122   7.623   1.509   7.186 -0.4651 -0.0771 -0.4754
  842MOL0     C16123   7.546   1.520   7.098  0.1674 -0.0144  0.8749
  842MOL0     C16124   8.160   2.012   7.356  0.4683  0.2174  0.4272
  842MOL0     C16125   8.248   2.112   7.331 -0.8876 -0.2906  0.1190
  842MOL0     C16126   8.227   2.240   7.410 -0.4728  0.4164  0.0777
  842MOL0     H16127   8.532   2.516   7.071  0.9512  0.8001 -0.2414
  842MOL0     H16128   8.724   2.641   7.114 -3.4692  0.5371 -1.4007
  842MOL0     H16129   9.057   2.544   6.933 -1.0943  2.3079  1.7385
  842MOL0     H16130   9.125   2.428   7.055  0.9622  0.5628  0.3618
  842MOL0     H16131   9.179   2.740   7.048 -0.1739 -0.3732  1.3637
  842MOL0     H16132   9.219   2.633   7.167  0.0977 -0.8563  0.4908
  842MOL0     H16133   9.403   2.653   7.024 -0.1575 -0.3596  1.4430
  842MOL0     H16134   9.354   2.484   7.003  1.0843  0.4597 -1.3686
  842MOL0     H16135   9.217   2.560   6.796 -0.0638 -0.0196  0.4366
  842MOL0     H16136   9.304   2.712   6.806 -0.8962  0.0944  0.5892
  842MOL0     H16137   9.469   2.463   6.829  0.0936  0.6275  1.0126
  842MOL0     H16138   9.523   2.602   6.768  0.9827 -0.9329 -0.6434
  842MOL0     H16139   9.298   2.432   6.654  2.4191 -4.6031  1.8614
  842MOL0     H16140   9.347   2.576   6.563 -2.9388  1.8478  3.6221
  842MOL0     H16141   9.438   2.360   6.468  0.3289  2.4190 -1.1061
  842MOL0     H16142   9.495   2.308   6.624  0.6384 -1.1354 -1.4831
  842MOL0     H16143   9.605   2.527   6.445 -2.1895  0.0812  1.0527
  842MOL0     H16144   9.676   2.465   6.603 -0.0708 -4.1438  1.2749
  842MOL0     H16145   9.564   2.323   6.265  0.3398  1.5373 -0.1408
  842MOL0     H16146   9.628   2.126   6.130 -0.3720 -0.6540 -1.2242
  842MOL0     H16147   9.753   2.013   6.181 -1.2681 -0.6576 -1.6333
  842MOL0     H16148   9.818   2.099   5.967 -0.0861 -2.3631  1.1624
  842MOL0     H16149   9.812   2.270   6.028 -1.9825 -1.5066 -1.0325
  842MOL0     H16150   9.989   2.189   6.203 -0.3766 -0.3873 -0.0396
  842MOL0     H16151   9.994   2.036   6.108  1.1749  0.6254 -4.1858
  842MOL0     H16152  10.186   2.169   6.025 -0.2227 -1.4184 -0.6737
  842MOL0     H16153  10.075   2.183   5.899  2.4998 -1.8190 -0.4313
  842MOL0     H16154  10.110   2.579   6.114  2.8084  0.6803  4.2150
  842MOL0     H16155  10.430   2.690   6.173 -2.0943 -2.5600  0.4091
  842MOL0     H16156  10.260   2.741   6.199 -0.1524  1.5485  0.2020
  842MOL0     H16157  10.363   2.826   6.071  1.8004  0.6997  1.3474
  842MOL0     H16158  10.780   2.774   6.005 -2.1442 -0.9404 -2.5722
  842MOL0     H16159  11.016   2.817   5.970 -0.4394  0.8872  0.4852
  842MOL0     H16160  11.261   2.465   5.933 -0.3839 -1.1992 -1.6118
  842MOL0     H16161  11.306   2.504   5.770 -0.2496  5.0236 -2.6654
  842MOL0     H16162  11.473   2.674   5.838  1.5388  2.6882  1.5807
  842MOL0     H16163  11.413   2.660   6.008 -0.9981  0.4032 -0.4549
  842MOL0     H16164  11.566   2.466   5.821 -1.3990  0.7950 -1.2123
  842MOL0     H16165  11.488   2.407   5.977  0.3761  0.8196  2.9065
  842MOL0     H16166  11.638   2.502   6.110 -2.5880 -3.1620 -0.6876
  842MOL0     H16167  11.691   2.624   6.005 -0.0598 -0.4988 -2.7985
  842MOL0     H16168  11.759   2.339   6.017  1.3920 -1.1530 -0.9707
  842MOL0     H16169  11.786   2.396   5.859 -1.5557 -1.4752  0.6631
  842MOL0     H16170  11.987   2.414   6.004 -0.0703 -0.0223 -1.1620
  842MOL0     H16171  11.899   2.534   6.107  1.0018  0.3223 -0.5647
  842MOL0     H16172  11.881   2.672   5.901 -0.0843  0.5370 -0.1319
  842MOL0     H16173  11.988   2.561   5.820 -1.8200 -0.3099  0.1948
  842MOL0     H16174  12.068   2.716   6.075 -2.1978  1.6336 -1.0061
  842MOL0     H16175  12.104   2.763   5.905  1.7469  1.2411  2.4685
  842MOL0     H16176  11.076   2.423   5.804  0.4091  0.3874 -1.1217
  842MOL0     H16177  10.820   2.384   5.823  0.4694  0.4734 -0.0417
  842MOL0     H16178  10.453   2.418   5.788 -0.9675  2.5253 -2.4257
  842MOL0     H16179  10.251   2.294   5.830  0.4134  0.9816 -0.6616
  842MOL0     H16180   8.968   2.285   7.095  0.5797  1.7705  0.9211
  842MOL0     H16181   8.762   2.147   7.094  1.2755 -0.0439  3.1364
  842MOL0     H16182   8.460   1.969   7.119 -0.4332  0.4686 -0.4254
  842MOL0     H16183   8.286   1.776   7.152  1.0366 -0.7402  0.0885
  842MOL0     H16184   8.116   1.643   7.176  0.9228  1.1071  0.7509
  842MOL0     H16185   8.203   1.622   7.324  3.0366  2.3196 -1.7472
  842MOL0     H16186   7.958   1.630   7.435 -0.0119 -1.0243  0.0813
  842MOL0     H16187   7.996   1.479   7.358 -1.4163 -1.5592 -2.3492
  842MOL0     H16188   7.826   1.690   7.264  1.4040  0.4354  0.0602
  842MOL0     H16189   7.886   1.550   7.159  0.0196 -2.3756  1.6109
  842MOL0     H16190   7.696   1.496   7.392 -0.7101  0.5481 -0.6089
  842MOL0     H16191   7.781   1.392   7.274  2.5300  1.2080 -1.3051
  842MOL0     H16192   7.487   1.539   7.011  0.7883 -1.4230  0.1137
  842MOL0     H16193   8.067   2.036   7.407 -2.2546 -1.5394 -3.2170
  842MOL0     H16194   8.179   2.312   7.342 -0.9514  0.9115  0.9172
  842MOL0     H16195   8.166   2.221   7.499  1.9844  0.4313  1.8636
  842MOL0     H16196   8.319   2.276   7.457  1.1239 -2.1821 -0.8780
  843MOL0     O16197   3.454   6.999   7.508  0.1981  0.0115  0.3513
  843MOL0     C16198   3.494   6.961   7.620  0.1581 -0.3864 -0.2026
  843MOL0     O16199   3.440   6.852   7.688 -0.2760 -0.6354 -0.2102
  843MOL0     C16200   3.369   6.744   7.650 -0.4954  0.4462  0.3912
  843MOL0     C16201   3.290   6.680   7.749  0.7007  0.4209  0.1728
  843MOL0     C16202   3.214   6.568   7.716 -0.0641 -0.2612 -0.3930
  843MOL0     C16203   3.208   6.517   7.590 -0.2855  0.1066 -0.1821
  843MOL0     O16204   3.145   6.400   7.559  0.7813 -0.4431  0.4240
  843MOL0     C16205   3.085   6.388   7.433 -0.0919 -0.0075  0.3729
  843MOL0     C16206   3.016   6.251   7.420  0.3507  0.0280 -0.9314
  843MOL0     C16207   2.910   6.219   7.525  0.4726 -0.2277 -0.2704
  843MOL0     C16208   2.853   6.339   7.605 -0.8285 -0.5907  1.1092
  843MOL0     C16209   2.725   6.322   7.679  0.5684  0.6720 -0.2549
  843MOL0     C16210   2.670   6.453   7.726  0.4567  1.0061 -0.3649
  843MOL0     C16211   2.716   6.483   7.865  0.6155 -0.9552  0.4826
  843MOL0     C16212   2.681   6.626   7.907 -0.3803  0.4569  0.3855
  843MOL0     N16213   2.741   6.729   7.820  0.1075 -0.1918  0.8310
  843MOL0     C16214   2.852   6.714   7.734  0.2037  0.5842 -0.7679
  843MOL0     C16215   2.875   6.836   7.684 -0.2756  0.1482  0.5501
  843MOL0     C16216   2.970   6.875   7.580 -0.2839 -0.0133  0.2372
  843MOL0     C16217   3.094   6.952   7.634  0.3606  0.4790 -0.5188
  843MOL0     C16218   3.060   7.057   7.741 -0.3688  0.0734  0.4524
  843MOL0     C16219   3.051   7.023   7.891  0.1316  0.1265 -1.0969
  843MOL0     O16220   3.166   6.960   7.935  0.3758  0.0674  0.2183
  843MOL0     C16221   3.230   7.023   8.040 -0.1024 -0.7295 -0.7699
  843MOL0     C16222   3.322   7.124   8.017  0.1506 -0.2677 -0.1723
  843MOL0     C16223   3.391   7.193   8.119  0.2346 -1.0165 -0.1379
  843MOL0     C16224   3.480   7.312   8.083 -0.3132  0.3186 -0.2598
  843MOL0     C16225   3.357   7.160   8.256 -0.0439 -0.8356  1.1558
  843MOL0     C16226   3.400   7.237   8.377 -1.3042  0.3542 -1.2057
  843MOL0     O16227   3.496   7.338   8.355  0.3586 -0.4266  0.1014
  843MOL0     C16228   3.564   7.409   8.449  0.2197 -0.7754  0.4967
  843MOL0     C16229   3.614   7.539   8.409  0.6566  0.7452 -0.3351
  843MOL0     C16230   3.675   7.620   8.504  0.2829 -0.1255 -0.4402
  843MOL0     C16231   3.694   7.578   8.637  0.3183  0.2067 -0.3896
  843MOL0     O16232   3.754   7.660   8.730  0.0302  0.0235  0.0837
  843MOL0     C16233   3.870   7.736   8.684  0.5245  0.3333  0.7104
  843MOL0     C16234   3.843   7.887   8.663 -0.1088 -0.1209 -0.5121
  843MOL0     C16235   3.788   7.961   8.786 -0.1187 -0.4283 -0.2756
  843MOL0     C16236   3.796   8.108   8.778 -0.3159 -0.5155  0.3763
  843MOL0     C16237   3.735   8.169   8.906  0.8390 -0.0613  0.9668
  843MOL0     C16238   3.694   8.321   8.893  0.0031 -0.4086 -0.1382
  843MOL0     C16239   3.796   8.397   8.805 -0.0544  1.1437 -0.3632
  843MOL0     C16240   3.911   8.462   8.877 -0.6336  0.2469  0.0174
  843MOL0    Cl16241   3.837   8.598   8.997  0.1071 -0.1551  0.3293
  843MOL0     C16242   3.654   7.448   8.672  0.0341  0.0680  0.5057
  843MOL0     C16243   3.598   7.360   8.574  0.0053 -0.4574 -0.1131
  843MOL0     O16244   3.364   7.195   8.493  0.3026 -0.0155 -0.0221
  843MOL0     C16245   3.261   7.059   8.275  0.5665  0.5721  0.5661
  843MOL0     C16246   3.196   6.995   8.171  0.0855 -0.4820  0.0037
  843MOL0     N16247   2.784   6.925   7.734  0.2631  0.4309  0.0246
  843MOL0     N16248   2.702   6.866   7.813  0.0755  0.2177  0.1187
  843MOL0     C16249   3.303   6.572   7.490  0.0166  0.4256 -0.2143
  843MOL0     C16250   3.375   6.688   7.522  0.1704 -0.4039 -0.3955
  843MOL0     C16251   3.604   7.033   7.693 -0.0520 -0.0000 -0.9576
  843MOL0     C16252   3.651   6.971   7.817 -1.1106  0.4857  0.9368
  843MOL0     C16253   3.748   7.035   7.899  0.0657 -1.0156  0.0397
  843MOL0     C16254   3.794   7.164   7.868 -0.1590  0.5267  0.1764
  843MOL0     O16255   3.880   7.225   7.964  0.4035  0.9846  0.3376
  843MOL0     C16256   3.919   7.359   7.958  0.4129  0.5514 -0.3415
  843MOL0     C16257   3.990   7.408   8.077 -0.4458  0.6910  0.4622
  843MOL0     C16258   4.092   7.306   8.139  0.3627  0.0189  0.1460
  843MOL0     C16259   4.141   7.359   8.271  0.2495  0.2513 -0.3484
  843MOL0     C16260   4.212   7.484   8.272 -0.5534 -0.0411 -0.0610
  843MOL0     C16261   4.274   7.585   8.257 -0.7048 -0.2043 -0.8465
  843MOL0     C16262   3.747   7.225   7.752  0.1389 -0.4442  0.7275
  843MOL0     C16263   3.658   7.160   7.660  0.4592  0.8271 -1.2736
  843MOL0     C16264   3.597   7.244   7.557 -0.3703 -0.3256  0.1424
  843MOL0     H16265   3.305   6.712   7.852  2.7208  0.2028 -0.0087
  843MOL0     H16266   3.170   6.504   7.792 -0.7722  0.7911  0.1050
  843MOL0     H16267   3.153   6.386   7.347  0.0444 -3.0082  0.4360
  843MOL0     H16268   3.009   6.464   7.412  1.5170  2.2781  2.2591
  843MOL0     H16269   2.967   6.233   7.324 -3.1332  1.3012  0.4696
  843MOL0     H16270   3.096   6.177   7.434  1.4730  1.4431  0.5758
  843MOL0     H16271   2.826   6.172   7.473  0.9884 -0.2665 -1.0774
  843MOL0     H16272   2.957   6.147   7.593  2.5344  1.6894  0.4653
  843MOL0     H16273   2.929   6.381   7.671 -0.3255 -1.3639  1.0342
  843MOL0     H16274   2.837   6.411   7.524  1.1151 -3.3108 -1.9923
  843MOL0     H16275   2.736   6.251   7.762  0.1544 -1.3567 -1.8506
  843MOL0     H16276   2.641   6.285   7.619 -1.4566  1.2434  2.0762
  843MOL0     H16277   2.704   6.531   7.658  0.7551  1.8451  0.7092
  843MOL0     H16278   2.561   6.444   7.735 -0.1523  3.5066 -3.5574
  843MOL0     H16279   2.821   6.452   7.865  0.1550 -2.6480  0.1225
  843MOL0     H16280   2.675   6.415   7.940 -0.6197 -0.7339  0.0291
  843MOL0     H16281   2.572   6.630   7.914 -0.6006 -1.9724 -0.7159
  843MOL0     H16282   2.717   6.645   8.009  0.3680  0.2615  0.1637
  843MOL0     H16283   2.897   6.617   7.718 -1.0446  0.2247 -2.3810
  843MOL0     H16284   2.915   6.932   7.505  0.9773  0.7043 -0.1747
  843MOL0     H16285   3.018   6.786   7.537  1.0360  0.6336  0.3491
  843MOL0     H16286   3.163   6.882   7.682  0.4493 -0.5100 -2.0161
  843MOL0     H16287   3.145   7.008   7.555 -0.1250  4.0875  1.4775
  843MOL0     H16288   3.134   7.138   7.734 -2.1601  1.7622 -0.0485
  843MOL0     H16289   2.975   7.107   7.693 -1.0620 -0.9322  0.6045
  843MOL0     H16290   3.040   7.114   7.950 -0.0245  1.1722 -2.6796
  843MOL0     H16291   2.970   6.953   7.916  1.4739 -2.5295 -3.5744
  843MOL0     H16292   3.349   7.151   7.916  0.5663  0.9500  0.2391
  843MOL0     H16293   3.512   7.319   7.978  2.7441 -1.5718  0.4157
  843MOL0     H16294   3.572   7.312   8.141  0.7790 -1.1216 -1.9008
  843MOL0     H16295   3.426   7.404   8.108 -1.2316 -1.1268  3.9487
  843MOL0     H16296   3.592   7.571   8.308  0.3842  0.8002 -0.2594
  843MOL0     H16297   3.714   7.720   8.487  0.3984 -0.2835 -1.1034
  843MOL0     H16298   3.963   7.722   8.740  2.0494 -0.3541 -1.8095
  843MOL0     H16299   3.911   7.702   8.588 -0.7379  1.8748 -0.4330
  843MOL0     H16300   3.945   7.927   8.658 -0.2506  0.1805 -1.0981
  843MOL0     H16301   3.781   7.912   8.577 -2.1984  1.9346  1.4377
  843MOL0     H16302   3.859   7.929   8.864  0.7909 -1.4128 -1.4685
  843MOL0     H16303   3.682   7.939   8.801 -0.1979 -0.6790 -1.1876
  843MOL0     H16304   3.733   8.144   8.696 -2.1312  0.8395  2.2705
  843MOL0     H16305   3.900   8.135   8.755 -1.2152 -0.1896 -4.3523
  843MOL0     H16306   3.640   8.116   8.923  1.3080 -1.2341  0.1136
  843MOL0     H16307   3.798   8.160   8.995  1.7576  1.2200  0.4709
  843MOL0     H16308   3.676   8.366   8.991 -0.3886 -2.7484  0.9558
  843MOL0     H16309   3.602   8.325   8.834 -1.2047 -2.4199  1.4620
  843MOL0     H16310   3.739   8.473   8.751 -0.1840  0.6882 -0.8826
  843MOL0     H16311   3.826   8.340   8.716 -0.0768 -0.5802  0.6876
  843MOL0     H16312   3.968   8.520   8.805 -0.3456 -0.0574 -0.0001
  843MOL0     H16313   3.980   8.394   8.928 -0.2978 -1.0562 -2.0762
  843MOL0     H16314   3.673   7.409   8.772  2.0878  1.4660  0.7245
  843MOL0     H16315   3.557   7.272   8.623  2.1262 -0.8995  0.9820
  843MOL0     H16316   3.240   7.040   8.380  1.3179  0.0420  0.6347
  843MOL0     H16317   3.124   6.914   8.183 -0.9978 -0.1185 -3.1327
  843MOL0     H16318   3.310   6.545   7.385 -2.3140  1.4234 -0.6951
  843MOL0     H16319   3.423   6.736   7.437  0.5208  1.2356  0.6886
  843MOL0     H16320   3.611   6.880   7.860 -1.5552 -1.2256 -2.6798
  843MOL0     H16321   3.760   6.990   7.998  0.7578 -1.6159 -0.3039
  843MOL0     H16322   3.967   7.391   7.865 -2.6762  1.5778 -1.7169
  843MOL0     H16323   3.830   7.421   7.962 -0.7361 -1.0220 -0.5107
  843MOL0     H16324   3.901   7.428   8.138 -1.0137  2.6026 -0.9219
  843MOL0     H16325   4.032   7.509   8.075  0.9040  0.1459 -0.4249
  843MOL0     H16326   4.042   7.212   8.163  0.4440 -0.0704 -0.0341
  843MOL0     H16327   4.175   7.279   8.074  2.0757 -0.7421  2.5041
  843MOL0     H16328   4.199   7.279   8.317  1.3672  1.2257 -0.0130
  843MOL0     H16329   4.054   7.385   8.332 -0.6844 -1.3159 -0.9486
  843MOL0     H16330   4.332   7.675   8.262 -0.4353 -0.2783 -2.2933
  843MOL0     H16331   3.761   7.332   7.736  2.4162 -1.1810 -3.6286
  843MOL0     H16332   3.491   7.269   7.571  0.1807  1.5365  1.2962
  843MOL0     H16333   3.647   7.339   7.537  2.2473 -1.8869 -1.2838
  843MOL0     H16334   3.594   7.187   7.463  1.6455 -2.3545  1.2173
  844MOL0     O16335   4.760   5.542   6.681  1.0740  0.1150 -0.4041
  844MOL0     C16336   4.761   5.501   6.795 -0.4341 -0.7598  0.0854
  844MOL0     O16337   4.655   5.465   6.862  0.7373 -0.2452 -0.3051
  844MOL0     C16338   4.534   5.434   6.800 -0.8849 -0.1541  0.5522
  844MOL0     C16339   4.522   5.377   6.669 -0.0613 -0.2916 -0.9688
  844MOL0     C16340   4.399   5.330   6.618  0.5406  0.2743 -0.5120
  844MOL0     C16341   4.283   5.343   6.688 -0.2959  0.3576  0.6113
  844MOL0     O16342   4.164   5.292   6.631 -0.3415 -0.1341 -0.8782
  844MOL0     C16343   4.044   5.362   6.665  0.4311  0.3545  0.1738
  844MOL0     C16344   3.967   5.368   6.532 -0.2292 -1.0224  0.2030
  844MOL0     C16345   3.884   5.500   6.534 -0.3113 -0.3986 -0.0142
  844MOL0     C16346   3.761   5.500   6.626  0.0375  0.2604 -0.7089
  844MOL0     C16347   3.688   5.628   6.600  0.1406  0.2730 -0.4710
  844MOL0     C16348   3.582   5.655   6.707 -0.3700 -0.2006  0.6318
  844MOL0     C16349   3.512   5.785   6.671 -0.5292  0.1461  0.0765
  844MOL0     C16350   3.410   5.826   6.771  0.1669  0.5972  0.7135
  844MOL0     N16351   3.344   5.951   6.720 -0.2956  0.1938  0.9095
  844MOL0     C16352   3.385   6.082   6.725  0.5767 -0.1478  0.1861
  844MOL0     C16353   3.281   6.162   6.701 -0.0698  0.0987 -0.7166
  844MOL0     C16354   3.278   6.310   6.693 -0.3158 -0.2658 -1.1614
  844MOL0     C16355   3.263   6.366   6.551 -1.0847  0.0744 -0.5675
  844MOL0     C16356   3.394   6.349   6.466  0.5828 -0.1919 -0.8038
  844MOL0     C16357   3.518   6.420   6.518  0.1774 -0.6068 -0.2142
  844MOL0     O16358   3.566   6.355   6.635 -0.4275 -0.4140 -0.0184
  844MOL0     C16359   3.704   6.368   6.658 -0.1841  0.0556 -0.4972
  844MOL0     C16360   3.758   6.265   6.740  0.1763 -0.4372  0.1075
  844MOL0     C16361   3.889   6.278   6.780  0.4587  0.1020  1.1879
  844MOL0     C16362   3.933   6.167   6.872  0.4960 -0.8793 -0.3178
  844MOL0     C16363   3.966   6.387   6.745 -0.0983 -0.6472  0.2576
  844MOL0     C16364   4.102   6.417   6.786 -0.6984  0.4717 -0.4560
  844MOL0     O16365   4.170   6.327   6.846 -1.1168 -0.2819 -0.3211
  844MOL0     C16366   4.286   6.357   6.908  1.3070 -0.7502 -0.5418
  844MOL0     C16367   4.395   6.267   6.899  0.9492 -0.0281 -0.5577
  844MOL0     C16368   4.507   6.279   6.986 -0.4859  0.2823  0.7428
  844MOL0     C16369   4.494   6.361   7.096 -0.6409  1.4119  0.5264
  844MOL0     O16370   4.595   6.392   7.184  0.1772 -0.1237  0.7219
  844MOL0     C16371   4.711   6.472   7.135  0.8016  0.5521  0.1170
  844MOL0     C16372   4.831   6.456   7.225  0.3356 -0.4467 -0.4908
  844MOL0     C16373   4.860   6.569   7.324  0.3073 -0.0938 -0.0209
  844MOL0     C16374   4.939   6.519   7.448  1.1998  0.3373  0.2958
  844MOL0     C16375   4.979   6.638   7.547  0.1789  0.1265  0.3166
  844MOL0     C16376   5.055   6.567   7.657 -0.4578 -0.1127  0.0393
  844MOL0     C16377   4.982   6.465   7.753  0.2542  0.5439  0.7471
  844MOL0     C16378   4.908   6.544   7.868 -0.6903  0.1344 -0.0049
  844MOL0    Cl16379   5.017   6.651   7.971 -0.1073  0.6535  0.3595
  844MOL0     C16380   4.386   6.438   7.109 -0.0571 -0.6797 -0.0629
  844MOL0     C16381   4.281   6.443   7.013 -0.9280  0.6818  0.1262
  844MOL0     O16382   4.157   6.515   6.737 -0.3460 -0.5847 -1.0804
  844MOL0     C16383   3.904   6.485   6.672 -0.0925 -0.5246  1.2882
  844MOL0     C16384   3.780   6.475   6.626 -0.0250  0.1634  0.3066
  844MOL0     N16385   3.176   6.085   6.684  0.6162  0.9457 -0.4342
  844MOL0     N16386   3.212   5.955   6.688  0.3505  0.1042  0.3099
  844MOL0     C16387   4.294   5.391   6.823  0.7839  0.5248 -0.3618
  844MOL0     C16388   4.419   5.439   6.876  0.0403 -0.5468 -0.1853
  844MOL0     C16389   4.892   5.486   6.869  0.8960 -0.1512  0.2088
  844MOL0     C16390   4.893   5.442   7.007  0.4774 -1.4992  0.3773
  844MOL0     C16391   5.013   5.460   7.071  0.2535 -0.7770 -0.9347
  844MOL0     C16392   5.134   5.505   7.005  0.4241 -0.3013 -0.8196
  844MOL0     O16393   5.251   5.518   7.076 -0.3113 -0.0366 -0.3335
  844MOL0     C16394   5.367   5.460   7.022 -0.2672  0.2553  0.7341
  844MOL0     C16395   5.458   5.438   7.142 -0.2610  0.4609 -0.6598
  844MOL0     C16396   5.406   5.331   7.246 -0.2825 -0.5490  0.5987
  844MOL0     C16397   5.336   5.206   7.183  0.0929 -0.0189  0.1806
  844MOL0     C16398   5.429   5.129   7.106  0.0731  0.1481  0.3061
  844MOL0     C16399   5.496   5.068   7.030 -0.2503  0.0272 -0.6422
  844MOL0     C16400   5.133   5.523   6.869 -0.1389 -0.0707  0.2009
  844MOL0     C16401   5.016   5.506   6.802  0.1383  0.5592 -0.3515
  844MOL0     C16402   5.044   5.518   6.651 -0.5884 -0.2778 -0.4803
  844MOL0     H16403   4.615   5.367   6.615  0.3374 -0.7074 -0.2248
  844MOL0     H16404   4.394   5.274   6.526  2.4644 -0.7084 -0.0621
  844MOL0     H16405   4.067   5.457   6.715  1.6979 -0.2480  0.7759
  844MOL0     H16406   3.997   5.294   6.737  2.4697  0.8941  2.1357
  844MOL0     H16407   4.034   5.373   6.445 -2.0581 -3.8317 -1.5317
  844MOL0     H16408   3.890   5.292   6.517 -1.3210  0.1319 -0.2539
  844MOL0     H16409   3.945   5.585   6.565 -1.8804 -0.6306  4.4943
  844MOL0     H16410   3.851   5.526   6.433 -0.0352  2.3462  0.5202
  844MOL0     H16411   3.698   5.414   6.600 -2.7821  2.2778 -1.0057
  844MOL0     H16412   3.779   5.484   6.733 -0.8117 -1.2318 -0.7557
  844MOL0     H16413   3.642   5.630   6.501  0.8011  0.0352 -0.7861
  844MOL0     H16414   3.762   5.709   6.599  1.0151 -0.4842  0.5457
  844MOL0     H16415   3.514   5.569   6.711  0.7762 -1.8486 -5.3070
  844MOL0     H16416   3.639   5.666   6.800 -0.5686  2.8784  0.4937
  844MOL0     H16417   3.462   5.767   6.576  0.7121 -0.6323 -0.4474
  844MOL0     H16418   3.582   5.868   6.660 -0.9223  0.2507 -2.0207
  844MOL0     H16419   3.349   5.737   6.790  2.6668 -1.7392 -1.4610
  844MOL0     H16420   3.454   5.849   6.868 -1.6908  4.8198  0.7780
  844MOL0     H16421   3.481   6.124   6.753  0.7710 -0.9397  0.7245
  844MOL0     H16422   3.354   6.353   6.758 -1.8986 -0.9835  1.3167
  844MOL0     H16423   3.186   6.350   6.738 -0.8529 -2.4880 -0.1059
  844MOL0     H16424   3.183   6.314   6.498 -0.3162 -0.2543 -1.4367
  844MOL0     H16425   3.227   6.469   6.540 -0.9178  0.2236  0.2034
  844MOL0     H16426   3.417   6.244   6.444  3.5436  0.4984 -1.4624
  844MOL0     H16427   3.371   6.391   6.367  0.3722  1.3637 -0.1142
  844MOL0     H16428   3.594   6.412   6.441 -0.7600  1.7598 -1.4896
  844MOL0     H16429   3.505   6.527   6.535  1.4017 -0.5702  0.6037
  844MOL0     H16430   3.685   6.195   6.779 -2.3240  2.9451  2.0387
  844MOL0     H16431   4.036   6.134   6.853  1.7683  2.3120  0.4819
  844MOL0     H16432   3.863   6.084   6.864 -1.1603  0.4737 -0.3114
  844MOL0     H16433   3.934   6.204   6.975 -1.6348 -3.1895  0.6465
  844MOL0     H16434   4.400   6.191   6.821 -1.4223  1.3555 -2.2078
  844MOL0     H16435   4.596   6.219   6.967 -2.6618 -2.8254 -0.3650
  844MOL0     H16436   4.739   6.434   7.036 -0.8095  1.9035 -0.9349
  844MOL0     H16437   4.685   6.578   7.131  3.4587  1.2566 -1.7831
  844MOL0     H16438   4.818   6.361   7.277  0.9707 -0.4569 -0.3461
  844MOL0     H16439   4.927   6.437   7.175  0.8312  0.1308  0.2350
  844MOL0     H16440   4.772   6.625   7.357 -1.5324 -1.2201 -2.7538
  844MOL0     H16441   4.915   6.644   7.265 -1.2006  1.6147  0.6537
  844MOL0     H16442   5.030   6.465   7.424 -0.0138 -0.2368 -3.6967
  844MOL0     H16443   4.878   6.447   7.503  1.8704 -0.7912 -0.4191
  844MOL0     H16444   5.046   6.712   7.501  2.7597 -0.2567  3.1170
  844MOL0     H16445   4.888   6.689   7.578  0.3079  0.3642  0.3142
  844MOL0     H16446   5.103   6.643   7.718 -0.5910 -0.6225  0.7965
  844MOL0     H16447   5.141   6.521   7.607 -0.7657 -1.1210  0.4026
  844MOL0     H16448   5.057   6.401   7.801  1.0259  1.1199  0.3258
  844MOL0     H16449   4.919   6.393   7.700  0.1798  1.2021 -0.0767
  844MOL0     H16450   4.855   6.464   7.920  0.2105 -0.8131 -0.5080
  844MOL0     H16451   4.831   6.603   7.818 -0.6825 -0.3918 -0.6389
  844MOL0     H16452   4.374   6.500   7.198  3.0965  4.8280 -2.9042
  844MOL0     H16453   4.204   6.516   7.034  0.5416  2.4053 -0.2313
  844MOL0     H16454   3.959   6.575   6.647 -0.3344 -0.7710 -0.2121
  844MOL0     H16455   3.744   6.566   6.578  0.8050  1.1691  1.5212
  844MOL0     H16456   4.209   5.408   6.887  2.8384  0.7923  2.5079
  844MOL0     H16457   4.433   5.491   6.970 -2.1258  1.5933 -0.9338
  844MOL0     H16458   4.803   5.410   7.058  0.8387 -3.0889  0.0676
  844MOL0     H16459   5.013   5.446   7.178 -0.8188 -0.8063 -0.9364
  844MOL0     H16460   5.332   5.371   6.969  0.2139  1.5191 -1.8424
  844MOL0     H16461   5.420   5.525   6.951  0.2743 -1.2936 -0.3326
  844MOL0     H16462   5.477   5.537   7.186 -0.2493  0.4282 -0.5908
  844MOL0     H16463   5.556   5.402   7.110  1.1322 -0.6921  4.0658
  844MOL0     H16464   5.487   5.299   7.311 -0.4867 -1.9742  0.1886
  844MOL0     H16465   5.343   5.386   7.316 -2.2544  1.9343 -2.7932
  844MOL0     H16466   5.249   5.232   7.122 -1.7938 -0.4068  2.5617
  844MOL0     H16467   5.310   5.146   7.271 -0.3705 -1.7831 -1.1259
  844MOL0     H16468   5.543   5.011   6.952 -3.0609 -0.5300 -2.0738
  844MOL0     H16469   5.230   5.551   6.828 -0.5251  2.3461  0.7524
  844MOL0     H16470   5.150   5.510   6.627 -0.6516  0.0435 -0.8744
  844MOL0     H16471   4.994   5.435   6.601 -1.6302 -1.6842  2.6523
  844MOL0     H16472   4.995   5.605   6.606 -0.4923 -0.3052 -0.6359
  845MOL0     O16473   7.884   5.808  10.972  0.6927  0.4916  0.4933
  845MOL0     C16474   7.859   5.758  10.864 -0.0269 -0.1513 -0.1486
  845MOL0     O16475   7.786   5.817  10.769  0.5415  0.0099  0.0214
  845MOL0     C16476   7.757   5.948  10.781 -0.1250  0.3831 -0.0623
  845MOL0     C16477   7.840   6.054  10.805  0.5941 -0.0622  0.2064
  845MOL0     C16478   7.796   6.180  10.818  0.1579  0.2427  0.6483
  845MOL0     C16479   7.661   6.204  10.813 -0.0277 -0.0028  1.2586
  845MOL0     O16480   7.611   6.331  10.830  0.4321  0.7297  0.6456
  845MOL0     C16481   7.693   6.423  10.894 -0.4726  0.3173  0.5031
  845MOL0     C16482   7.611   6.516  10.976 -0.4470 -0.2990 -0.0344
  845MOL0     C16483   7.691   6.627  11.031  0.6359 -0.3361  0.0068
  845MOL0     C16484   7.605   6.718  11.123 -0.3773 -0.1305 -0.0521
  845MOL0     C16485   7.664   6.861  11.140  0.2923  0.2232 -0.2733
  845MOL0     C16486   7.616   6.941  11.012 -0.2863 -0.5146 -0.1723
  845MOL0     C16487   7.687   7.077  11.023 -0.0315  0.1627  0.4620
  845MOL0     C16488   7.664   7.149  10.884  0.3434  1.4288  0.7225
  845MOL0     N16489   7.725   7.077  10.776 -0.0620 -0.5486  0.8193
  845MOL0     C16490   7.867   7.073  10.763  0.2995  0.4696  0.4838
  845MOL0     C16491   7.885   6.992  10.657  0.9249  0.0319 -0.2856
  845MOL0     C16492   8.020   6.973  10.586 -0.2927  0.3203  0.2107
  845MOL0     C16493   8.041   6.824  10.562 -0.9117  0.3771 -0.4519
  845MOL0     C16494   8.196   6.798  10.562 -0.2603 -0.2105  0.5443
  845MOL0     C16495   8.225   6.665  10.496 -0.1947 -0.2576  0.4908
  845MOL0     O16496   8.195   6.561  10.586  0.5681  0.2491  0.4335
  845MOL0     C16497   8.291   6.511  10.670 -0.5878  0.7487 -0.0076
  845MOL0     C16498   8.251   6.409  10.751 -0.1347  0.7971  0.1698
  845MOL0     C16499   8.334   6.334  10.841 -0.7010  0.7952 -0.1312
  845MOL0     C16500   8.279   6.218  10.910 -0.5590  0.3851 -0.3645
  845MOL0     C16501   8.472   6.370  10.849 -0.4847 -0.2296  0.0663
  845MOL0     C16502   8.572   6.312  10.939  1.0469  0.5690  0.1672
  845MOL0     O16503   8.699   6.339  10.911 -0.9832  0.3564  0.5207
  845MOL0     C16504   8.777   6.324  11.014 -0.1357  0.3322 -1.1669
  845MOL0     C16505   8.854   6.431  11.060  0.6730 -0.1236 -0.4057
  845MOL0     C16506   8.955   6.422  11.160  0.1678  0.6091  0.6760
  845MOL0     C16507   8.999   6.293  11.204 -0.5971 -0.5102  0.6211
  845MOL0     O16508   9.105   6.275  11.296  0.3623  0.4374  0.2762
  845MOL0     C16509   9.164   6.390  11.363  0.5615  0.3921 -0.2578
  845MOL0     C16510   9.249   6.354  11.480  0.6665  0.2966  0.4634
  845MOL0     C16511   9.272   6.463  11.581 -0.3577 -0.2554  0.1733
  845MOL0     C16512   9.369   6.563  11.526  0.2589 -0.3370 -0.3648
  845MOL0     C16513   9.411   6.652  11.636 -0.5178 -0.2513 -0.4144
  845MOL0     C16514   9.477   6.789  11.616 -0.5683  0.0634  0.5234
  845MOL0     C16515   9.614   6.771  11.542 -0.1956  0.0855  0.0947
  845MOL0     C16516   9.665   6.908  11.504 -1.1167 -0.1391  0.4999
  845MOL0    Cl16517   9.815   6.913  11.412 -0.3443  0.0025 -0.1363
  845MOL0     C16518   8.931   6.183  11.150 -0.3418 -1.7386  0.1710
  845MOL0     C16519   8.828   6.198  11.055 -0.3620  0.1499 -0.0132
  845MOL0     O16520   8.529   6.245  11.037  0.6022  0.2425  0.8178
  845MOL0     C16521   8.512   6.479  10.769 -0.0479  0.7511  0.0483
  845MOL0     C16522   8.427   6.546  10.680 -0.3738  0.2076 -0.3785
  845MOL0     N16523   7.759   6.935  10.621  0.4334  0.7070  0.6902
  845MOL0     N16524   7.669   6.989  10.690  0.2793  0.3123  0.0149
  845MOL0     C16525   7.573   6.107  10.783 -0.0820 -0.2046  0.2531
  845MOL0     C16526   7.622   5.979  10.770 -0.2590  0.0966 -0.2514
  845MOL0     C16527   7.905   5.617  10.843 -0.2837 -0.3140 -0.7946
  845MOL0     C16528   7.841   5.529  10.749  1.0804  0.8637 -0.6089
  845MOL0     C16529   7.882   5.398  10.724  0.8176  0.7982  0.5004
  845MOL0     C16530   7.982   5.340  10.796  0.9070  0.1327 -0.5992
  845MOL0     O16531   8.014   5.208  10.782  0.2449 -0.0908  0.0936
  845MOL0     C16532   7.966   5.146  10.661 -0.0419  0.0225 -0.6766
  845MOL0     C16533   8.038   5.015  10.647 -0.1427 -0.1609 -0.6005
  845MOL0     C16534   8.019   4.919  10.765  0.3822  0.1756 -0.3571
  845MOL0     C16535   8.128   4.808  10.754  0.6957 -0.0199 -0.0112
  845MOL0     C16536   8.099   4.712  10.645  0.3262 -0.2677 -0.8341
  845MOL0     C16537   8.068   4.636  10.558 -0.2506  0.3760 -0.6675
  845MOL0     C16538   8.043   5.421  10.889 -0.2068 -0.2343 -0.4236
  845MOL0     C16539   8.012   5.556  10.915  0.5117 -0.3736  0.2840
  845MOL0     C16540   8.079   5.626  11.027  0.6856 -1.2434  0.4389
  845MOL0     H16541   7.946   6.030  10.813  0.8237  0.9217  0.2787
  845MOL0     H16542   7.864   6.261  10.842 -0.9372  0.2962  4.0592
  845MOL0     H16543   7.741   6.480  10.814 -0.1653  0.8354  1.0599
  845MOL0     H16544   7.771   6.391  10.962  1.0895 -0.2788 -1.4730
  845MOL0     H16545   7.530   6.552  10.911 -2.6091 -1.1829  2.0089
  845MOL0     H16546   7.546   6.456  11.040 -3.7445  0.2740 -2.5397
  845MOL0     H16547   7.771   6.584  11.092  0.6096  1.2313  1.1960
  845MOL0     H16548   7.735   6.681  10.947 -3.2894  0.8546 -1.5201
  845MOL0     H16549   7.502   6.727  11.088 -0.7643  0.1748  1.1371
  845MOL0     H16550   7.600   6.671  11.221 -1.8227 -2.4199 -1.1443
  845MOL0     H16551   7.773   6.855  11.150  0.0825 -2.0832  1.4832
  845MOL0     H16552   7.623   6.910  11.229  2.1543  1.2309  0.0887
  845MOL0     H16553   7.666   6.895  10.927  1.9371  1.9920 -0.3603
  845MOL0     H16554   7.508   6.941  10.995 -0.0268  1.0969 -2.2811
  845MOL0     H16555   7.793   7.074  11.048  0.3835  0.9276 -1.0811
  845MOL0     H16556   7.649   7.144  11.100 -0.7469  0.2593  0.0369
  845MOL0     H16557   7.556   7.163  10.871 -0.0016 -1.1861  0.1626
  845MOL0     H16558   7.719   7.243  10.876  3.8191 -0.5503 -0.6734
  845MOL0     H16559   7.951   7.121  10.813  1.8235 -1.3367 -0.2299
  845MOL0     H16560   8.096   7.004  10.658  1.3934 -0.5567 -1.1233
  845MOL0     H16561   8.033   7.037  10.498  3.3899  0.5512  0.7594
  845MOL0     H16562   7.985   6.768  10.638 -2.5292  0.7654 -1.3227
  845MOL0     H16563   8.004   6.788  10.465 -1.0923  1.2931 -0.7332
  845MOL0     H16564   8.235   6.876  10.495 -2.1418  2.0466  1.9195
  845MOL0     H16565   8.237   6.806  10.663  1.7372 -1.3713 -0.1072
  845MOL0     H16566   8.161   6.651  10.409  1.4169  0.8779 -0.9451
  845MOL0     H16567   8.330   6.667  10.465 -1.0479 -1.8227 -2.9965
  845MOL0     H16568   8.148   6.378  10.736 -0.1531  0.9455 -0.0163
  845MOL0     H16569   8.340   6.129  10.892 -1.1510  0.2031 -1.5887
  845MOL0     H16570   8.181   6.203  10.863 -1.7494 -0.9678  2.3627
  845MOL0     H16571   8.279   6.244  11.016  1.7030 -0.5946 -0.0656
  845MOL0     H16572   8.837   6.529  11.016  1.4318 -0.6483 -1.9048
  845MOL0     H16573   8.988   6.515  11.204  1.2018  1.0123 -0.8688
  845MOL0     H16574   9.229   6.443  11.293 -0.2477  1.9380  0.1256
  845MOL0     H16575   9.084   6.454  11.401  2.0974  2.6733 -0.6528
  845MOL0     H16576   9.204   6.268  11.530 -0.9432  0.2250 -0.9930
  845MOL0     H16577   9.346   6.328  11.438 -1.2109 -2.6096 -2.6258
  845MOL0     H16578   9.312   6.425  11.676  0.6392  3.0356  1.2276
  845MOL0     H16579   9.187   6.520  11.621 -3.2961 -2.8848 -1.8251
  845MOL0     H16580   9.326   6.619  11.442 -1.2176 -1.0167 -0.0786
  845MOL0     H16581   9.468   6.522  11.500 -0.4565 -2.0411 -0.5229
  845MOL0     H16582   9.326   6.666  11.703  0.3258 -1.3024  0.9276
  845MOL0     H16583   9.485   6.598  11.695  1.4449  1.9935 -0.6682
  845MOL0     H16584   9.499   6.849  11.705 -0.8073 -0.0335  0.6495
  845MOL0     H16585   9.407   6.852  11.561  0.6236  0.0145 -1.1227
  845MOL0     H16586   9.602   6.710  11.452 -2.2216  1.4318 -0.6360
  845MOL0     H16587   9.680   6.716  11.609  0.3881 -0.7103 -1.0940
  845MOL0     H16588   9.657   6.970  11.594 -2.8910  1.4683 -0.6630
  845MOL0     H16589   9.588   6.946  11.435 -0.9613 -0.7556 -0.0200
  845MOL0     H16590   8.966   6.084  11.179  2.1102 -0.5139  1.6895
  845MOL0     H16591   8.789   6.105  11.015  0.4597  0.4831 -1.6724
  845MOL0     H16592   8.618   6.502  10.759 -0.2846  1.3121 -1.3547
  845MOL0     H16593   8.477   6.623  10.621 -0.0667 -0.6899 -1.3294
  845MOL0     H16594   7.466   6.119  10.772 -0.3064  3.2009  3.9100
  845MOL0     H16595   7.549   5.899  10.758  2.5359 -2.8805  0.8885
  845MOL0     H16596   7.759   5.562  10.686 -0.3526 -2.6643 -0.8540
  845MOL0     H16597   7.824   5.353  10.644 -1.4084  3.8178  0.2298
  845MOL0     H16598   7.858   5.136  10.670  0.1569 -0.1672  2.4550
  845MOL0     H16599   7.990   5.209  10.574  0.8606  1.5350  0.6153
  845MOL0     H16600   8.145   5.035  10.636  0.0684  1.1931  2.8124
  845MOL0     H16601   8.007   4.964  10.555 -0.6717 -0.0395 -0.4977
  845MOL0     H16602   8.058   4.964  10.856  1.0902  0.6090 -0.8658
  845MOL0     H16603   7.919   4.875  10.779  1.7434 -2.0879  3.9717
  845MOL0     H16604   8.131   4.753  10.849  0.4430 -0.2467 -0.1340
  845MOL0     H16605   8.227   4.852  10.746  1.4754 -1.7232 -0.3006
  845MOL0     H16606   8.038   4.571  10.479  2.9671  1.0399 -2.6510
  845MOL0     H16607   8.129   5.372  10.934 -0.9443 -0.0715  1.2613
  845MOL0     H16608   8.106   5.729  11.000  1.1314 -1.8778 -1.6135
  845MOL0     H16609   8.021   5.654  11.116  0.2831  3.6767 -1.0842
  845MOL0     H16610   8.173   5.577  11.051  2.4200  1.7658  0.2976
  846MOL0     O16611   7.285   8.511   5.135  0.2398 -0.3976  0.1530
  846MOL0     C16612   7.276   8.446   5.026 -0.1920 -0.1452  0.2155
  846MOL0     O16613   7.332   8.486   4.909  0.2134 -0.0850  0.4053
  846MOL0     C16614   7.437   8.572   4.915 -0.8570  0.0702  0.0414
  846MOL0     C16615   7.568   8.519   4.949 -0.0086  0.7473 -0.0104
  846MOL0     C16616   7.674   8.601   4.921  0.0183 -0.2869 -0.3067
  846MOL0     C16617   7.668   8.734   4.863 -0.2807  0.1098  0.0792
  846MOL0     O16618   7.789   8.802   4.833 -0.1622  0.0098  0.2304
  846MOL0     C16619   7.766   8.942   4.811  0.2153 -0.2959  0.6677
  846MOL0     C16620   7.903   9.014   4.782 -0.2219  0.0245 -0.8441
  846MOL0     C16621   8.008   8.995   4.894  0.8256 -0.1457 -0.0534
  846MOL0     C16622   8.024   9.119   4.993  1.0782  0.1663 -0.3041
  846MOL0     C16623   8.170   9.113   5.060  0.0818 -0.1489 -0.4164
  846MOL0     C16624   8.199   9.231   5.143 -0.3389 -0.6429 -0.0972
  846MOL0     C16625   8.338   9.229   5.208 -0.2593  0.5521 -0.5618
  846MOL0     C16626   8.446   9.255   5.104  0.3183  0.0425  0.1326
  846MOL0     N16627   8.571   9.294   5.164  0.4973 -0.5363 -0.4407
  846MOL0     C16628   8.653   9.236   5.256 -0.2050  0.2712 -0.4544
  846MOL0     C16629   8.762   9.315   5.273 -0.1541 -0.5818  0.4725
  846MOL0     C16630   8.881   9.268   5.354 -0.4400  0.3242 -0.1657
  846MOL0     C16631   8.991   9.192   5.281  0.6463  0.1622  0.5929
  846MOL0     C16632   9.117   9.199   5.367 -0.6295 -1.0545 -0.2477
  846MOL0     C16633   9.246   9.136   5.300  0.2926 -1.0935 -0.2626
  846MOL0     O16634   9.349   9.129   5.402  0.7605 -0.2677  0.6753
  846MOL0     C16635   9.464   9.061   5.370  0.2972 -0.2423 -0.5016
  846MOL0     C16636   9.506   9.035   5.236 -0.3673 -0.1321 -0.4405
  846MOL0     C16637   9.637   8.994   5.208  1.4358 -0.3410 -0.4024
  846MOL0     C16638   9.671   9.000   5.059 -0.2168 -0.8914  0.3277
  846MOL0     C16639   9.729   8.979   5.312  1.0080 -0.4651 -1.1329
  846MOL0     C16640   9.873   8.955   5.295 -0.0738 -0.2513  1.0654
  846MOL0     O16641   9.957   8.990   5.399 -0.3937 -0.8124 -0.7493
  846MOL0     C16642  10.096   8.972   5.396  0.0257 -0.7193  0.6512
  846MOL0     C16643  10.168   8.878   5.324 -0.3461 -0.4878  0.1723
  846MOL0     C16644  10.312   8.880   5.324  0.3271  1.2073 -0.3704
  846MOL0     C16645  10.388   8.961   5.402  0.5211 -0.1502 -0.6233
  846MOL0     O16646  10.513   8.962   5.421 -0.8718 -2.0041 -0.7346
  846MOL0     C16647  10.604   8.867   5.370 -0.1612  0.0220  0.3398
  846MOL0     C16648  10.749   8.908   5.389 -0.5447  0.5948  0.0942
  846MOL0     C16649  10.789   9.004   5.280 -0.1286  0.0057  0.1880
  846MOL0     C16650  10.941   9.023   5.272  0.4674  0.6494  0.1238
  846MOL0     C16651  10.980   9.134   5.175 -0.0863 -0.0962 -0.0757
  846MOL0     C16652  11.128   9.105   5.129 -0.1791 -0.2977 -0.1904
  846MOL0     C16653  11.199   9.239   5.087  0.6559  0.4848 -0.3146
  846MOL0     C16654  11.339   9.229   5.024 -0.0996  0.3817 -0.3842
  846MOL0    Cl16655  11.430   9.101   5.110  0.0579 -0.1921  0.3406
  846MOL0     C16656  10.312   9.053   5.474 -0.0747 -0.1013 -0.7614
  846MOL0     C16657  10.173   9.052   5.475 -0.2139  0.5582 -0.3519
  846MOL0     O16658   9.909   8.910   5.188 -0.0767 -0.0731 -0.4183
  846MOL0     C16659   9.681   9.013   5.438  0.4281 -0.4528 -0.3460
  846MOL0     C16660   9.551   9.044   5.472 -0.4110  0.3658 -0.0646
  846MOL0     N16661   8.744   9.431   5.189  0.4590 -1.1830 -0.2805
  846MOL0     N16662   8.629   9.414   5.133 -0.6951 -0.1674  0.2447
  846MOL0     C16663   7.535   8.791   4.849 -0.4404 -0.0463  0.2827
  846MOL0     C16664   7.431   8.706   4.875  0.4595  0.2679  0.6662
  846MOL0     C16665   7.193   8.321   5.034  0.5705  0.2080  0.5949
  846MOL0     C16666   7.226   8.217   5.123 -1.1365 -0.5195  0.1303
  846MOL0     C16667   7.147   8.110   5.134 -0.2488 -0.9516  0.1605
  846MOL0     C16668   7.054   8.070   5.037  0.6729 -0.7880  0.3145
  846MOL0     O16669   6.966   7.968   5.046  0.3929 -0.6162 -0.0819
  846MOL0     C16670   7.006   7.857   5.112 -0.6115  0.1709  0.2940
  846MOL0     C16671   6.957   7.862   5.252  0.0800  0.9409 -0.1463
  846MOL0     C16672   6.808   7.822   5.263 -0.5624  0.0363 -0.8566
  846MOL0     C16673   6.763   7.815   5.412  0.1140 -0.7382  0.1790
  846MOL0     C16674   6.623   7.780   5.436  0.1980  0.6567 -0.1405
  846MOL0     C16675   6.515   7.720   5.457 -0.2539 -0.5812 -0.7387
  846MOL0     C16676   7.027   8.170   4.940  0.3015  0.7271  0.2386
  846MOL0     C16677   7.091   8.293   4.942 -0.3145  0.4812 -0.1861
  846MOL0     C16678   7.054   8.388   4.834 -0.2916 -0.0157  0.1325
  846MOL0     H16679   7.596   8.421   4.986  3.1725  1.9794  1.2652
  846MOL0     H16680   7.766   8.554   4.953 -0.0130 -0.2491 -0.1622
  846MOL0     H16681   7.713   8.983   4.898 -0.2796  2.1587 -0.7138
  846MOL0     H16682   7.704   8.952   4.722 -0.8193  0.0507  1.4119
  846MOL0     H16683   7.944   8.974   4.689  1.7293 -3.3346  1.2910
  846MOL0     H16684   7.883   9.122   4.774  1.7721  0.4598 -0.3296
  846MOL0     H16685   7.982   8.903   4.946  1.7403 -0.4637 -0.1300
  846MOL0     H16686   8.103   8.988   4.839 -0.7579 -2.9300 -2.6770
  846MOL0     H16687   8.013   9.216   4.943 -0.2267  1.6158  2.5603
  846MOL0     H16688   7.948   9.122   5.072  2.7548  1.2041  1.3433
  846MOL0     H16689   8.244   9.117   4.979 -3.3144  2.8119 -3.7577
  846MOL0     H16690   8.180   9.021   5.118 -2.0700 -0.6410 -0.7259
  846MOL0     H16691   8.186   9.314   5.073 -1.0026 -2.0130 -1.6424
  846MOL0     H16692   8.119   9.243   5.217  0.3430  0.2286  0.5296
  846MOL0     H16693   8.355   9.135   5.261  1.8209  1.0868 -0.1565
  846MOL0     H16694   8.347   9.305   5.286 -2.5141 -0.6587  0.9924
  846MOL0     H16695   8.457   9.173   5.032 -3.6926  0.8781 -1.7006
  846MOL0     H16696   8.415   9.335   5.037 -2.4876 -2.2105 -1.4828
  846MOL0     H16697   8.639   9.140   5.305  1.3385  0.2501  0.0033
  846MOL0     H16698   8.845   9.210   5.439 -2.2131  1.2322 -0.2560
  846MOL0     H16699   8.924   9.357   5.400  1.7766  0.2822 -1.9202
  846MOL0     H16700   8.963   9.087   5.267 -1.7151  0.4623  2.3567
  846MOL0     H16701   8.990   9.248   5.188  0.4466 -1.8873 -0.6942
  846MOL0     H16702   9.145   9.304   5.375 -1.6662 -0.8218  0.5282
  846MOL0     H16703   9.098   9.158   5.467 -0.0555 -0.7527 -0.0076
  846MOL0     H16704   9.213   9.041   5.257  2.0216 -1.6321 -0.4859
  846MOL0     H16705   9.277   9.186   5.208  0.0407 -1.9483 -0.8216
  846MOL0     H16706   9.433   9.038   5.155 -0.2328  0.4034 -0.5440
  846MOL0     H16707   9.616   9.079   5.007  0.9802 -0.5476 -0.4703
  846MOL0     H16708   9.642   8.903   5.019  0.5235 -0.5552 -1.1150
  846MOL0     H16709   9.776   9.019   5.032  0.3559 -1.1992  2.2212
  846MOL0     H16710  10.119   8.807   5.259  2.0972 -2.9518  0.7841
  846MOL0     H16711  10.355   8.806   5.257 -2.6428 -2.5966  1.5750
  846MOL0     H16712  10.572   8.772   5.415 -0.2759 -0.9841 -1.7291
  846MOL0     H16713  10.597   8.860   5.261 -0.5267 -0.2152  0.3741
  846MOL0     H16714  10.761   8.960   5.484  1.1403 -2.3252  1.6399
  846MOL0     H16715  10.817   8.822   5.380  1.2903  2.0126 -0.3703
  846MOL0     H16716  10.750   9.106   5.286  0.0392  0.5723 -4.7228
  846MOL0     H16717  10.765   8.965   5.181  0.5455  1.0120 -0.3930
  846MOL0     H16718  10.990   8.930   5.244  0.7709  0.9228 -0.2701
  846MOL0     H16719  10.993   9.050   5.364 -0.3038  2.4334  0.0831
  846MOL0     H16720  10.914   9.138   5.088  1.4691  0.7006 -1.2888
  846MOL0     H16721  10.977   9.234   5.218  0.1620 -1.9272  4.7692
  846MOL0     H16722  11.119   9.035   5.045 -0.2542 -0.0205 -0.4164
  846MOL0     H16723  11.187   9.054   5.205  1.7772  2.3689  0.2430
  846MOL0     H16724  11.208   9.292   5.182 -0.3034 -0.6086  0.4161
  846MOL0     H16725  11.133   9.287   5.014 -1.3810 -0.9218  0.4923
  846MOL0     H16726  11.390   9.324   5.043  1.4633 -0.5385  0.2242
  846MOL0     H16727  11.339   9.204   4.917 -1.7504 -0.4805 -0.2111
  846MOL0     H16728  10.372   9.110   5.544 -2.1610  1.7803 -0.4006
  846MOL0     H16729  10.122   9.113   5.549  1.2477  1.0803  0.2746
  846MOL0     H16730   9.750   8.991   5.519 -1.7433 -1.0259  1.4665
  846MOL0     H16731   9.519   9.056   5.575  1.0227  0.5324  0.3946
  846MOL0     H16732   7.513   8.892   4.818  1.2102 -0.1868 -1.4996
  846MOL0     H16733   7.340   8.767   4.874  1.6284  2.3207 -3.0425
  846MOL0     H16734   7.298   8.243   5.199 -0.6893 -0.4078 -0.3214
  846MOL0     H16735   7.168   8.044   5.217  6.6458  0.2289 -0.1036
  846MOL0     H16736   6.970   7.767   5.061 -1.1853  0.7439 -0.3311
  846MOL0     H16737   7.115   7.848   5.111 -0.4206  1.1203  3.2896
  846MOL0     H16738   6.959   7.967   5.284  0.7796  2.1233 -3.6149
  846MOL0     H16739   7.021   7.805   5.319  1.5683  1.5055 -1.0352
  846MOL0     H16740   6.749   7.889   5.200 -0.0131  2.6533  1.2095
  846MOL0     H16741   6.803   7.717   5.233 -0.8447 -0.0211 -0.6100
  846MOL0     H16742   6.787   7.907   5.467  1.8583 -2.6623  2.8605
  846MOL0     H16743   6.817   7.744   5.475  0.4528 -0.4448  0.2194
  846MOL0     H16744   6.421   7.675   5.483 -1.3116  0.8332 -1.9348
  846MOL0     H16745   6.944   8.159   4.871  1.4806  0.2972 -1.1795
  846MOL0     H16746   7.145   8.412   4.779  1.0073 -1.2457  1.6368
  846MOL0     H16747   6.968   8.365   4.770  0.4156  3.8646 -2.5956
  846MOL0     H16748   7.018   8.478   4.885  1.9506 -0.2917  2.3737
  847MOL0     O16749   4.124  10.018   2.892  0.5383  0.3482  0.0706
  847MOL0     C16750   4.080  10.130   2.876  0.3923  0.9966 -0.6161
  847MOL0     O16751   4.111  10.236   2.950  0.4017 -0.4800  0.9207
  847MOL0     C16752   4.229  10.231   3.014  0.4277 -0.1213 -0.4727
  847MOL0     C16753   4.336  10.321   2.995  0.4042 -0.1063 -0.4492
  847MOL0     C16754   4.457  10.301   3.062  0.1065  0.3417 -0.6751
  847MOL0     C16755   4.479  10.189   3.147 -0.3675  0.2528 -0.1752
  847MOL0     O16756   4.597  10.181   3.217  0.6518  0.1155  0.1088
  847MOL0     C16757   4.656  10.055   3.227 -0.0832 -0.1835 -0.2786
  847MOL0     C16758   4.786  10.070   3.300  0.1932  0.4867  0.4470
  847MOL0     C16759   4.854   9.933   3.310  0.0701  0.3684  0.0745
  847MOL0     C16760   4.997   9.938   3.368  0.0863 -0.4863 -0.3550
  847MOL0     C16761   5.054   9.791   3.357 -0.6272 -0.4719 -0.2598
  847MOL0     C16762   5.209   9.791   3.343  0.4784 -0.2200 -0.3505
  847MOL0     C16763   5.258   9.654   3.339 -0.0576  0.0408  0.8754
  847MOL0     C16764   5.368   9.640   3.235 -1.2156  0.9374 -0.1884
  847MOL0     N16765   5.441   9.507   3.237 -0.0679  0.2543 -0.3171
  847MOL0     C16766   5.454   9.426   3.348 -0.0464 -0.8892 -0.0508
  847MOL0     C16767   5.502   9.315   3.297 -0.3002 -0.0599  0.1194
  847MOL0     C16768   5.535   9.189   3.376 -0.2571 -1.0281  0.7709
  847MOL0     C16769   5.684   9.172   3.407  0.1333 -0.3082  0.6763
  847MOL0     C16770   5.769   9.136   3.281  0.1276  0.7112 -0.0597
  847MOL0     C16771   5.917   9.116   3.319 -0.3894 -0.6992 -0.0808
  847MOL0     O16772   5.976   9.233   3.387 -0.0576 -0.0393  0.4051
  847MOL0     C16773   6.072   9.309   3.321  0.1852  0.5349 -0.6610
  847MOL0     C16774   6.114   9.425   3.393 -0.9889  0.4329 -1.2817
  847MOL0     C16775   6.213   9.515   3.356 -0.6700 -0.5592 -0.0479
  847MOL0     C16776   6.255   9.629   3.445 -1.0146  0.0489 -0.4287
  847MOL0     C16777   6.268   9.501   3.224 -0.3582  0.1778 -0.2755
  847MOL0     C16778   6.371   9.591   3.161 -0.0971 -0.6514 -0.3080
  847MOL0     O16779   6.466   9.529   3.088 -0.2085 -0.5810  0.1886
  847MOL0     C16780   6.573   9.599   3.033  0.9147  0.6223 -0.3216
  847MOL0     C16781   6.609   9.557   2.909  0.0674 -0.4480  1.0343
  847MOL0     C16782   6.707   9.619   2.833  0.1578 -0.1706 -0.5601
  847MOL0     C16783   6.781   9.728   2.900 -1.4671  0.0220  0.1600
  847MOL0     O16784   6.886   9.796   2.847 -0.1486  0.0784 -1.0448
  847MOL0     C16785   6.848   9.861   2.721  0.3684  0.1623  0.4514
  847MOL0     C16786   6.945   9.977   2.710  0.4087  0.1231  0.0374
  847MOL0     C16787   6.961  10.040   2.573  0.5413 -0.5353  0.1005
  847MOL0     C16788   7.047  10.172   2.575 -0.4655 -0.0362  0.2523
  847MOL0     C16789   7.195  10.149   2.623  0.1308  0.7189 -0.4833
  847MOL0     C16790   7.262  10.063   2.514 -0.0809  0.0334 -0.2221
  847MOL0     C16791   7.415  10.057   2.532  0.5727  0.0921 -0.4005
  847MOL0     C16792   7.478   9.931   2.474  0.4900 -0.5969 -0.4998
  847MOL0    Cl16793   7.396   9.781   2.520  0.1765  0.1669  0.1891
  847MOL0     C16794   6.750   9.758   3.018 -0.2537 -1.3726  0.9574
  847MOL0     C16795   6.649   9.697   3.089  0.0963  0.5118  0.1695
  847MOL0     O16796   6.379   9.710   3.190  0.5002 -0.2671  0.2876
  847MOL0     C16797   6.240   9.373   3.154  0.5118  0.0400 -0.1140
  847MOL0     C16798   6.135   9.290   3.197 -0.5730  0.2014  0.1405
  847MOL0     N16799   5.503   9.325   3.161  0.6431 -0.4961 -0.3258
  847MOL0     N16800   5.476   9.442   3.116  0.4402 -0.0560  0.4055
  847MOL0     C16801   4.371  10.102   3.171 -0.3216  0.2665 -0.1750
  847MOL0     C16802   4.245  10.130   3.110 -0.2873  0.0170 -0.0966
  847MOL0     C16803   3.983  10.141   2.768 -0.0099  0.4879  0.0098
  847MOL0     C16804   3.976  10.264   2.704 -0.5611  0.3710  0.5899
  847MOL0     C16805   3.887  10.285   2.599  1.1313  0.2068 -0.5221
  847MOL0     C16806   3.790  10.192   2.559  0.7956  0.8024  0.7072
  847MOL0     O16807   3.697  10.215   2.452 -0.5436  0.1350  0.2715
  847MOL0     C16808   3.669  10.352   2.422 -0.2145  0.6688  0.1820
  847MOL0     C16809   3.546  10.388   2.333 -0.6157 -0.2157 -0.3406
  847MOL0     C16810   3.409  10.347   2.399 -0.8335 -0.2746  0.5962
  847MOL0     C16811   3.289  10.416   2.339 -0.9965  0.1615 -0.4125
  847MOL0     C16812   3.273  10.386   2.192  0.3586  0.3321 -0.3579
  847MOL0     C16813   3.264  10.360   2.074 -0.2349  0.5383 -0.3373
  847MOL0     C16814   3.799  10.064   2.613 -0.1142  0.5068  0.4278
  847MOL0     C16815   3.888  10.037   2.715  0.0125 -0.5581 -0.1694
  847MOL0     C16816   3.874   9.891   2.765 -0.9929 -1.3702 -0.4366
  847MOL0     H16817   4.318  10.417   2.947 -0.9318  0.3478  0.8878
  847MOL0     H16818   4.538  10.373   3.062  2.5490 -2.0906  2.6315
  847MOL0     H16819   4.685  10.013   3.130  2.1383  1.2092 -0.3089
  847MOL0     H16820   4.593   9.983   3.280 -1.1488  0.2613 -0.9091
  847MOL0     H16821   4.846  10.141   3.242 -0.3857 -1.2257 -2.4434
  847MOL0     H16822   4.767  10.113   3.399 -0.8260  1.6325 -0.2183
  847MOL0     H16823   4.799   9.870   3.380 -0.6053 -2.0942 -2.4895
  847MOL0     H16824   4.847   9.872   3.220 -1.6253  0.4637  0.1205
  847MOL0     H16825   5.072   9.997   3.314  0.3400  0.0784  0.5893
  847MOL0     H16826   5.005   9.978   3.469 -0.2619  1.5646 -1.0675
  847MOL0     H16827   5.013   9.730   3.277  1.2899 -2.9305  0.5343
  847MOL0     H16828   5.036   9.729   3.446  1.6182 -2.4018 -1.0569
  847MOL0     H16829   5.234   9.852   3.256 -0.0324  2.4188  1.2558
  847MOL0     H16830   5.260   9.841   3.425  0.9362  0.9193 -1.3030
  847MOL0     H16831   5.178   9.593   3.295 -0.8061  1.2040  0.5673
  847MOL0     H16832   5.291   9.620   3.437  0.9862 -4.0506 -0.7021
  847MOL0     H16833   5.329   9.657   3.134  2.9890  0.2500 -2.1442
  847MOL0     H16834   5.439   9.720   3.257 -2.3130  1.7297  0.6277
  847MOL0     H16835   5.428   9.452   3.450  0.1728 -1.1152  0.0618
  847MOL0     H16836   5.505   9.104   3.314 -1.2193  0.4618 -0.8817
  847MOL0     H16837   5.488   9.192   3.475 -0.8930  1.2458  0.4684
  847MOL0     H16838   5.723   9.264   3.452 -4.2240  2.0360  0.1406
  847MOL0     H16839   5.699   9.086   3.473  0.5454 -0.0353  0.9467
  847MOL0     H16840   5.723   9.048   3.234  0.0585  1.3271 -1.1806
  847MOL0     H16841   5.757   9.209   3.201  0.5996  0.5944 -0.2390
  847MOL0     H16842   5.932   9.042   3.399  1.1450 -0.5270 -0.1870
  847MOL0     H16843   5.971   9.078   3.232  1.1695 -1.0827  1.0087
  847MOL0     H16844   6.062   9.441   3.487  0.2809 -2.2437  0.0125
  847MOL0     H16845   6.239   9.602   3.550  0.6838  1.4752  0.2471
  847MOL0     H16846   6.208   9.727   3.432  1.3959  1.6345  1.7582
  847MOL0     H16847   6.363   9.641   3.430 -0.8672 -2.1761 -1.5179
  847MOL0     H16848   6.553   9.485   2.850 -2.1175  2.3064 -0.4992
  847MOL0     H16849   6.717   9.574   2.735  0.2082  0.4252 -0.8321
  847MOL0     H16850   6.857   9.786   2.642 -0.3320 -2.2407  2.5144
  847MOL0     H16851   6.744   9.896   2.729  0.9129  1.5201  2.4654
  847MOL0     H16852   6.912  10.061   2.773  0.2310 -1.2597  1.8694
  847MOL0     H16853   7.041   9.943   2.748  1.3776 -1.8928 -3.7928
  847MOL0     H16854   6.868  10.077   2.527  0.7549 -0.1876 -0.0517
  847MOL0     H16855   7.009   9.970   2.505  0.0690 -1.0352  0.2675
  847MOL0     H16856   7.002  10.245   2.643  1.4139  0.8802  0.5897
  847MOL0     H16857   7.060  10.229   2.483  0.0600 -0.4025  0.0910
  847MOL0     H16858   7.252  10.242   2.620  1.1074  0.1295 -0.4926
  847MOL0     H16859   7.223  10.107   2.720  3.3297  1.4202 -0.9846
  847MOL0     H16860   7.243  10.092   2.410 -0.3199  0.1286 -0.1534
  847MOL0     H16861   7.215   9.966   2.533 -0.4660 -0.1198 -1.7939
  847MOL0     H16862   7.451  10.084   2.632  1.9471  4.3012 -1.8215
  847MOL0     H16863   7.458  10.145   2.484  0.6257  0.7491  0.8079
  847MOL0     H16864   7.581   9.911   2.503 -0.1777 -0.6754  2.0776
  847MOL0     H16865   7.464   9.934   2.365 -1.7658  1.4268 -0.2499
  847MOL0     H16866   6.817   9.828   3.066 -1.9598  0.2414  1.0891
  847MOL0     H16867   6.641   9.738   3.189  3.7685  0.9659  0.3915
  847MOL0     H16868   6.283   9.354   3.056  1.5884 -0.1689  0.3773
  847MOL0     H16869   6.124   9.198   3.141  3.9196 -0.5814  0.1265
  847MOL0     H16870   4.385  10.028   3.250  1.4533  1.5024  0.7444
  847MOL0     H16871   4.157  10.068   3.129  0.6400 -2.1812 -2.3990
  847MOL0     H16872   4.040  10.346   2.736  0.1652 -0.3044  0.9204
  847MOL0     H16873   3.888  10.386   2.560  1.2313  0.3242 -0.2207
  847MOL0     H16874   3.659  10.403   2.519  3.8325 -1.6985  2.1050
  847MOL0     H16875   3.755  10.402   2.377 -0.1172  0.9547  0.6666
  847MOL0     H16876   3.564  10.336   2.239 -1.9332 -0.1636 -0.6350
  847MOL0     H16877   3.545  10.496   2.316  2.4688  0.3548  2.1975
  847MOL0     H16878   3.398  10.238   2.392  0.6662 -0.4246  0.2080
  847MOL0     H16879   3.420  10.379   2.503  0.3364 -0.0149  0.4022
  847MOL0     H16880   3.293  10.524   2.353  0.9459  0.1701 -0.8329
  847MOL0     H16881   3.201  10.379   2.393 -0.7297 -0.0533 -0.1179
  847MOL0     H16882   3.270  10.328   1.972 -0.6116 -1.4869  0.2334
  847MOL0     H16883   3.718   9.998   2.582 -0.7116  1.4400 -0.0379
  847MOL0     H16884   3.961   9.827   2.748 -1.9646 -2.9457  0.2621
  847MOL0     H16885   3.879   9.900   2.874 -0.7078  0.2645 -0.5528
  847MOL0     H16886   3.782   9.835   2.746  0.0827 -3.6216  0.5466
  848MOL0     O16887   5.985   9.528   8.414  0.6334  0.6017  0.5017
  848MOL0     C16888   5.974   9.504   8.289  0.0025  0.3012 -0.7820
  848MOL0     O16889   5.866   9.450   8.225  0.3468 -0.1220 -0.2065
  848MOL0     C16890   5.748   9.423   8.290  0.9156 -0.0807 -0.6257
  848MOL0     C16891   5.686   9.296   8.277  0.3008 -0.2884 -0.4734
  848MOL0     C16892   5.568   9.257   8.349 -0.6343  0.8081  0.3764
  848MOL0     C16893   5.511   9.347   8.444  0.1447  1.1908  0.0698
  848MOL0     O16894   5.383   9.315   8.499 -0.3829  0.2956  0.0239
  848MOL0     C16895   5.299   9.415   8.560 -0.5958  0.2321 -0.4424
  848MOL0     C16896   5.235   9.503   8.461  0.3880 -0.4183 -0.0006
  848MOL0     C16897   5.109   9.572   8.526 -0.1946  0.6287  1.1619
  848MOL0     C16898   5.107   9.731   8.500 -0.5450  0.8174 -0.4460
  848MOL0     C16899   4.973   9.792   8.559 -0.4020  0.7041 -0.5498
  848MOL0     C16900   4.964   9.937   8.525 -0.1386 -0.3825  0.0200
  848MOL0     C16901   4.826  10.002   8.568 -0.2450  0.5995 -1.0951
  848MOL0     C16902   4.799  10.028   8.725 -0.1864  0.3709  0.0688
  848MOL0     N16903   4.910  10.111   8.778  0.2376  0.4172  0.5639
  848MOL0     C16904   4.920  10.246   8.781 -0.5754 -0.6647 -0.2778
  848MOL0     C16905   5.036  10.276   8.844  0.4334 -0.0009 -0.5652
  848MOL0     C16906   5.093  10.412   8.855 -0.3075 -0.5616  0.3516
  848MOL0     C16907   5.154  10.436   8.987  0.9589 -0.1455 -0.3327
  848MOL0     C16908   5.230  10.567   9.004 -0.0187 -0.1232  0.1741
  848MOL0     C16909   5.302  10.568   9.142  0.0210 -0.4743 -0.0169
  848MOL0     O16910   5.425  10.486   9.143  0.2800 -0.6398  0.2762
  848MOL0     C16911   5.544  10.542   9.101  0.7821 -0.0509  0.0563
  848MOL0     C16912   5.558  10.675   9.042 -0.2473 -0.4149 -1.0579
  848MOL0     C16913   5.686  10.734   9.021  0.0979 -0.4203  0.5200
  848MOL0     C16914   5.683  10.868   8.949 -0.4180 -0.1819  0.0573
  848MOL0     C16915   5.802  10.654   9.055 -0.6833 -0.2839 -0.0743
  848MOL0     C16916   5.944  10.707   9.053 -0.5428 -0.0788 -0.0514
  848MOL0     O16917   6.046  10.625   9.093  0.1526  0.1778 -0.0858
  848MOL0     C16918   6.168  10.680   9.132  0.1481  0.3414  0.9055
  848MOL0     C16919   6.192  10.787   9.209 -0.3103 -0.9812  0.4082
  848MOL0     C16920   6.314  10.823   9.245 -0.3643  0.0048  0.1650
  848MOL0     C16921   6.428  10.748   9.224 -0.0302  0.1567 -0.2619
  848MOL0     O16922   6.549  10.787   9.279  0.1112  0.2793 -1.0058
  848MOL0     C16923   6.623  10.672   9.337  0.0528 -0.2904  0.1728
  848MOL0     C16924   6.751  10.630   9.266 -0.1291 -0.2921  0.4423
  848MOL0     C16925   6.839  10.556   9.371 -0.5106  0.1430 -0.2340
  848MOL0     C16926   6.956  10.481   9.299  1.0872  0.5575 -0.5646
  848MOL0     C16927   6.909  10.347   9.247  0.4311  0.0368 -0.1179
  848MOL0     C16928   7.035  10.260   9.203  0.1068  0.2662 -0.0490
  848MOL0     C16929   7.133  10.336   9.119  0.5193 -0.1265  0.0453
  848MOL0     C16930   7.208  10.251   9.032 -0.1529  0.2222  0.0755
  848MOL0    Cl16931   7.311  10.347   8.921 -0.3168  0.1702 -0.0615
  848MOL0     C16932   6.409  10.644   9.135  0.1520 -0.0037 -0.0390
  848MOL0     C16933   6.282  10.607   9.084  0.2524  0.3919  0.3872
  848MOL0     O16934   5.959  10.825   9.029  0.0799 -0.2690 -0.0276
  848MOL0     C16935   5.787  10.523   9.104 -0.5738 -0.2693  0.0297
  848MOL0     C16936   5.660  10.472   9.133  0.0326 -0.6963  1.3215
  848MOL0     N16937   5.106  10.153   8.862 -0.4930 -0.8049 -0.2138
  848MOL0     N16938   5.026  10.054   8.831  0.1396  0.4107  0.8561
  848MOL0     C16939   5.569   9.478   8.452 -1.1385 -0.2993 -0.2060
  848MOL0     C16940   5.684   9.509   8.383 -0.3288 -0.5773  0.5225
  848MOL0     C16941   6.092   9.527   8.202  0.0924  0.0171 -0.2374
  848MOL0     C16942   6.087   9.483   8.069 -0.2188  0.3058 -0.3380
  848MOL0     C16943   6.190   9.506   7.977  0.7549 -0.3521  0.0017
  848MOL0     C16944   6.309   9.566   8.013  0.3233  0.8052 -0.4900
  848MOL0     O16945   6.417   9.572   7.923  0.5520  0.4093 -0.3105
  848MOL0     C16946   6.512   9.668   7.945  0.0574 -0.0869 -0.4530
  848MOL0     C16947   6.596   9.714   7.836 -0.6144 -0.8736  0.1022
  848MOL0     C16948   6.704   9.614   7.809  0.3113 -0.6392 -0.3469
  848MOL0     C16949   6.798   9.660   7.699  0.1100 -0.1567  1.4915
  848MOL0     C16950   6.936   9.597   7.692  0.2820 -0.0577  0.4988
  848MOL0     C16951   7.034   9.528   7.687  0.7642  0.0839  0.5176
  848MOL0     C16952   6.315   9.615   8.147 -1.0617 -0.3529 -0.6784
  848MOL0     C16953   6.206   9.600   8.236 -0.2153  0.5507 -0.3061
  848MOL0     C16954   6.222   9.672   8.364  0.5206 -0.7272 -0.6265
  848MOL0     H16955   5.726   9.217   8.214 -0.3198  0.0760 -1.3451
  848MOL0     H16956   5.529   9.156   8.342 -0.6275  0.7179  1.4200
  848MOL0     H16957   5.333   9.467   8.650  0.5866  1.2273 -1.4424
  848MOL0     H16958   5.219   9.354   8.602  2.6934 -4.0891  0.2311
  848MOL0     H16959   5.309   9.578   8.431 -2.2387  2.1193 -0.6808
  848MOL0     H16960   5.201   9.442   8.376  3.2324 -1.0381 -0.7941
  848MOL0     H16961   5.011   9.538   8.492  0.2348 -1.4836  1.8218
  848MOL0     H16962   5.118   9.560   8.635  3.9061 -4.5103  0.6757
  848MOL0     H16963   5.201   9.775   8.535 -0.6485  1.5692 -1.0909
  848MOL0     H16964   5.109   9.747   8.392 -2.1471 -0.2982 -0.6683
  848MOL0     H16965   4.968   9.786   8.668 -1.5629  1.8560 -0.5242
  848MOL0     H16966   4.891   9.728   8.527  0.6418 -1.0001  0.0212
  848MOL0     H16967   5.049   9.991   8.567  1.7239 -0.9967 -2.7431
  848MOL0     H16968   4.958   9.948   8.417 -1.3102  0.7520  0.1714
  848MOL0     H16969   4.746   9.934   8.539  1.3235 -1.4955 -0.7246
  848MOL0     H16970   4.821  10.098   8.515  1.9636  0.4588 -1.6577
  848MOL0     H16971   4.696  10.060   8.745 -1.0159 -1.3676 -1.1147
  848MOL0     H16972   4.804   9.937   8.784  1.1880 -0.4646 -1.2577
  848MOL0     H16973   4.845  10.313   8.741  0.1804  0.4586  0.1148
  848MOL0     H16974   5.012  10.483   8.833  1.5337  1.4680 -0.2708
  848MOL0     H16975   5.175  10.412   8.782  0.5345  1.3625  1.2362
  848MOL0     H16976   5.072  10.445   9.059  0.2905 -1.4357 -0.8935
  848MOL0     H16977   5.224  10.357   9.016 -0.1410 -0.3609  2.0180
  848MOL0     H16978   5.298  10.579   8.919 -1.0589 -1.5407 -0.9266
  848MOL0     H16979   5.168  10.656   8.990  0.2813 -0.2378 -2.2348
  848MOL0     H16980   5.335  10.671   9.163  2.1416 -0.9047 -0.9135
  848MOL0     H16981   5.223  10.554   9.216 -0.7767 -1.2953 -1.0067
  848MOL0     H16982   5.474  10.736   9.011 -0.7778 -0.6171 -0.0852
  848MOL0     H16983   5.776  10.897   8.899  1.8311  1.6319  4.7769
  848MOL0     H16984   5.663  10.959   9.005 -0.6518  0.2114 -0.6568
  848MOL0     H16985   5.600  10.869   8.877  1.2546 -3.2341 -2.1463
  848MOL0     H16986   6.115  10.842   9.263 -0.4231  0.2047 -0.9156
  848MOL0     H16987   6.333  10.903   9.316 -2.4377 -1.3494  2.4286
  848MOL0     H16988   6.661  10.711   9.432  0.4288  1.4271 -0.6490
  848MOL0     H16989   6.562  10.587   9.368 -0.7243  0.1467 -0.1330
  848MOL0     H16990   6.725  10.565   9.182 -1.9450 -1.5008  1.8638
  848MOL0     H16991   6.806  10.711   9.218  1.7521 -0.4949  2.1146
  848MOL0     H16992   6.789  10.487   9.439  1.0690  0.3797  1.2497
  848MOL0     H16993   6.882  10.639   9.429  0.4756 -0.2707 -0.3431
  848MOL0     H16994   7.037  10.466   9.370  1.1290 -1.3403 -0.9542
  848MOL0     H16995   6.992  10.541   9.216  2.0232  0.4410 -0.2561
  848MOL0     H16996   6.843  10.294   9.316 -2.1764 -0.2571 -2.6193
  848MOL0     H16997   6.844  10.364   9.160 -1.0605 -1.7987  0.5709
  848MOL0     H16998   6.992  10.171   9.156 -1.1285  1.6798 -1.7192
  848MOL0     H16999   7.086  10.217   9.290 -4.0357 -1.3494  1.8604
  848MOL0     H17000   7.202  10.396   9.179  0.8916 -1.0872  0.6078
  848MOL0     H17001   7.082  10.416   9.065  0.3396  1.3157  2.2578
  848MOL0     H17002   7.142  10.184   8.977  1.0665 -2.2528  1.4761
  848MOL0     H17003   7.268  10.183   9.093 -1.9803 -1.2175  0.3606
  848MOL0     H17004   6.495  10.582   9.112  0.2911  0.1067  0.1878
  848MOL0     H17005   6.280  10.520   9.019  3.9160  0.7069 -0.3807
  848MOL0     H17006   5.870  10.457   9.128 -2.0303 -2.2590 -0.1597
  848MOL0     H17007   5.651  10.370   9.170  2.5236 -0.6496  2.2511
  848MOL0     H17008   5.533   9.557   8.517  2.1642  0.9974  0.2480
  848MOL0     H17009   5.727   9.608   8.395 -0.1361 -0.5247 -0.5396
  848MOL0     H17010   5.994   9.438   8.035 -0.3356  1.4734 -1.6672
  848MOL0     H17011   6.159   9.483   7.876 -0.6798 -0.5665  0.4744
  848MOL0     H17012   6.465   9.759   7.984  1.7387 -0.1666  1.9976
  848MOL0     H17013   6.577   9.634   8.026 -0.6764  3.2140  1.7409
  848MOL0     H17014   6.640   9.811   7.862 -0.2608 -1.8142  3.4802
  848MOL0     H17015   6.525   9.718   7.753 -2.0210 -0.0943  1.3056
  848MOL0     H17016   6.761   9.601   7.902 -2.4902 -0.1879  1.5745
  848MOL0     H17017   6.672   9.512   7.786  5.1844 -2.9842  1.7201
  848MOL0     H17018   6.818   9.767   7.711  1.2929 -0.1467 -0.1389
  848MOL0     H17019   6.752   9.651   7.600  3.9417  1.6315 -0.7174
  848MOL0     H17020   7.120   9.468   7.665  0.6606 -0.5867  1.8360
  848MOL0     H17021   6.405   9.668   8.175 -0.8177 -0.0316 -2.0069
  848MOL0     H17022   6.319   9.723   8.363  0.5763 -0.8331 -0.5845
  848MOL0     H17023   6.138   9.740   8.381  2.0416  0.9956  0.3486
  848MOL0     H17024   6.233   9.599   8.444 -1.0033  0.0758  0.3678
  849MOL0     O17025  11.372   4.190   0.382 -0.7820 -0.1728 -0.3090
  849MOL0     C17026  11.306   4.284   0.339  0.1152  0.9545  0.2515
  849MOL0     O17027  11.276   4.310   0.214 -0.4823  0.6101  0.3587
  849MOL0     C17028  11.335   4.228   0.124 -0.2807  0.2272 -0.2893
  849MOL0     C17029  11.469   4.245   0.085 -0.8956 -0.9491  0.8272
  849MOL0     C17030  11.533   4.163  -0.010 -0.1158 -0.6373 -0.3963
  849MOL0     C17031  11.463   4.057  -0.076  0.8258  0.2699  0.2769
  849MOL0     O17032  11.517   3.967  -0.164 -0.3520  0.0209 -0.5266
  849MOL0     C17033  11.639   3.901  -0.122 -0.0908 -0.3196  0.7164
  849MOL0     C17034  11.738   3.900  -0.243  0.4099  0.4955 -0.0258
  849MOL0     C17035  11.785   4.035  -0.280 -0.5172 -0.3561  0.1513
  849MOL0     C17036  11.913   4.040  -0.365  0.4498  0.4945 -0.2256
  849MOL0     C17037  11.898   3.967  -0.495 -0.1497 -0.1346  0.1062
  849MOL0     C17038  12.030   3.922  -0.562 -0.4943  0.0446  0.0824
  849MOL0     C17039  12.020   3.897  -0.716  0.3314  0.2179  0.3098
  849MOL0     C17040  11.901   3.812  -0.762  0.9521  0.5670  0.1988
  849MOL0     N17041  11.875   3.792  -0.903 -0.1843  0.0148 -0.1453
  849MOL0     C17042  11.968   3.750  -0.997  0.3099  0.1711  0.6589
  849MOL0     C17043  11.907   3.762  -1.116  0.2635  0.3552  0.4490
  849MOL0     C17044  11.984   3.732  -1.253 -0.8656  0.9774 -0.5106
  849MOL0     C17045  12.031   3.578  -1.253  0.3052 -0.6111  0.2672
  849MOL0     C17046  12.042   3.513  -1.392  0.4545  0.7296 -1.0087
  849MOL0     C17047  12.048   3.358  -1.387  0.6189 -0.2296 -0.5977
  849MOL0     O17048  12.156   3.313  -1.308  0.4745 -1.0854  0.0315
  849MOL0     C17049  12.152   3.188  -1.262 -0.4366 -0.0180  0.2392
  849MOL0     C17050  12.233   3.161  -1.154 -0.2465  0.0735 -0.6085
  849MOL0     C17051  12.240   3.037  -1.092  0.3139  0.6377  0.6125
  849MOL0     C17052  12.342   3.029  -0.975  0.3569  0.7054  1.0725
  849MOL0     C17053  12.142   2.937  -1.131  0.2739 -0.1488  0.2252
  849MOL0     C17054  12.137   2.806  -1.072  0.3292  0.8151  0.3579
  849MOL0     O17055  12.120   2.780  -0.940  0.5962  0.0005 -0.7569
  849MOL0     C17056  12.086   2.654  -0.904  0.7917 -0.1112  1.1723
  849MOL0     C17057  12.130   2.611  -0.777 -0.3038  0.4606 -0.9479
  849MOL0     C17058  12.080   2.497  -0.715  0.0063  0.3334 -0.5450
  849MOL0     C17059  11.990   2.419  -0.780  0.9510  0.4184 -0.2864
  849MOL0     O17060  11.943   2.306  -0.713 -0.8773 -0.1749 -0.6313
  849MOL0     C17061  11.803   2.277  -0.740 -0.2660  0.8725  0.2347
  849MOL0     C17062  11.753   2.174  -0.638  0.2207  0.5979  0.2920
  849MOL0     C17063  11.767   2.227  -0.492  0.0533  0.2040 -0.6640
  849MOL0     C17064  11.719   2.115  -0.401  0.0195 -0.1775 -0.0294
  849MOL0     C17065  11.702   2.164  -0.251  0.1253 -0.5726 -0.3299
  849MOL0     C17066  11.581   2.262  -0.237  0.3426  0.0236  0.3735
  849MOL0     C17067  11.560   2.289  -0.091  0.5098 -0.5627 -0.1175
  849MOL0     C17068  11.466   2.415  -0.071 -0.0143  0.5872 -0.0782
  849MOL0    Cl17069  11.570   2.553  -0.126 -0.7447 -0.1916 -0.3282
  849MOL0     C17070  11.941   2.453  -0.911 -0.0125 -0.2463 -0.2916
  849MOL0     C17071  11.997   2.568  -0.970 -0.3179  0.7406  0.1222
  849MOL0     O17072  12.153   2.716  -1.163 -0.1515  0.0828 -0.0265
  849MOL0     C17073  12.058   2.961  -1.243  0.2143  0.0971  0.1223
  849MOL0     C17074  12.067   3.089  -1.303  0.9396 -0.0984  0.4457
  849MOL0     N17075  11.782   3.812  -1.094 -0.1673  0.1810  1.2625
  849MOL0     N17076  11.766   3.826  -0.968  0.2266 -0.7394 -0.4060
  849MOL0     C17077  11.326   4.038  -0.027 -0.3473  0.5776  0.7889
  849MOL0     C17078  11.260   4.131   0.061 -0.7513  0.6310  0.2713
  849MOL0     C17079  11.255   4.388   0.431  0.8221  0.0605  0.9716
  849MOL0     C17080  11.129   4.432   0.401  0.5073 -0.2828 -0.5004
  849MOL0     C17081  11.076   4.529   0.472 -0.9887 -0.8077 -0.4230
  849MOL0     C17082  11.142   4.581   0.576 -0.6394  0.0607 -0.5134
  849MOL0     O17083  11.073   4.686   0.632 -0.9898 -0.2716 -0.1933
  849MOL0     C17084  11.106   4.733   0.764 -0.8394 -0.0606  0.6913
  849MOL0     C17085  10.987   4.805   0.809  1.2073 -0.1645 -0.4806
  849MOL0     C17086  11.011   4.867   0.946 -0.5861 -0.1733 -1.0215
  849MOL0     C17087  10.895   4.970   0.990 -0.6877  0.7869  0.0157
  849MOL0     C17088  10.937   5.066   1.093 -0.0395 -0.7520  0.1291
  849MOL0     C17089  10.962   5.147   1.184  0.1272  0.3296  1.3412
  849MOL0     C17090  11.271   4.538   0.617  0.4821  0.7426 -0.1689
  849MOL0     C17091  11.332   4.441   0.537  0.3997  0.9561  1.1144
  849MOL0     C17092  11.465   4.379   0.569 -0.9815 -0.2029 -0.2454
  849MOL0     H17093  11.524   4.331   0.120 -0.5055 -1.8883  2.6299
  849MOL0     H17094  11.637   4.183  -0.033  0.5316 -2.9671  0.1223
  849MOL0     H17095  11.615   3.795  -0.116 -1.3519 -0.2758 -2.0039
  849MOL0     H17096  11.692   3.936  -0.033 -0.5259 -0.2477  0.9533
  849MOL0     H17097  11.814   3.833  -0.202  0.0541  1.0533  1.6665
  849MOL0     H17098  11.689   3.859  -0.332  0.1517 -0.1788  0.4163
  849MOL0     H17099  11.712   4.088  -0.341  0.3298  0.6613 -0.0070
  849MOL0     H17100  11.802   4.094  -0.190 -3.5289 -1.4508  1.5851
  849MOL0     H17101  11.956   4.139  -0.379  0.9886  0.0954 -1.6322
  849MOL0     H17102  11.994   3.980  -0.323  1.4043 -0.2040 -2.8790
  849MOL0     H17103  11.844   4.037  -0.559 -0.4948  0.7983  1.3669
  849MOL0     H17104  11.842   3.874  -0.479 -0.3515  0.0662  0.5855
  849MOL0     H17105  12.097   4.008  -0.560  0.3070 -0.5882  1.2664
  849MOL0     H17106  12.075   3.838  -0.509  2.0981 -0.2370 -2.3171
  849MOL0     H17107  12.114   3.850  -0.748 -0.0249 -1.2889  1.3105
  849MOL0     H17108  12.015   3.991  -0.771 -0.0201  0.5705  0.9352
  849MOL0     H17109  11.899   3.712  -0.718 -0.3550 -0.0667 -1.2254
  849MOL0     H17110  11.805   3.855  -0.733 -1.1259 -2.8333 -1.0795
  849MOL0     H17111  12.071   3.717  -0.982 -0.3176 -2.2008  0.1180
  849MOL0     H17112  12.079   3.787  -1.249 -1.4238  1.9553 -0.3243
  849MOL0     H17113  11.926   3.770  -1.338 -0.7840  0.6846 -0.6976
  849MOL0     H17114  12.126   3.565  -1.198  0.5541 -2.8141 -0.5607
  849MOL0     H17115  11.969   3.515  -1.188  0.4325 -0.8015  0.2056
  849MOL0     H17116  11.955   3.534  -1.455 -1.0788 -0.1499  0.7351
  849MOL0     H17117  12.130   3.553  -1.444  0.2227 -0.8641 -2.7015
  849MOL0     H17118  11.961   3.319  -1.333  0.3751  1.3766  0.2199
  849MOL0     H17119  12.055   3.329  -1.493 -0.2214  1.0005 -1.0114
  849MOL0     H17120  12.304   3.238  -1.128 -0.4454  0.3735 -0.9538
  849MOL0     H17121  12.425   3.097  -0.996 -0.1435  0.8643 -0.5616
  849MOL0     H17122  12.371   2.925  -0.961 -1.7378  0.0319  0.7731
  849MOL0     H17123  12.281   3.069  -0.893 -1.3963  3.5696 -1.3897
  849MOL0     H17124  12.204   2.676  -0.731  1.0410 -0.6675 -1.4342
  849MOL0     H17125  12.109   2.474  -0.613  0.2577  0.5205 -0.5757
  849MOL0     H17126  11.735   2.363  -0.743 -2.1640 -0.5516  0.4644
  849MOL0     H17127  11.804   2.231  -0.839 -2.4960  1.1204  0.0500
  849MOL0     H17128  11.650   2.152  -0.667  0.3453 -1.0168  0.9932
  849MOL0     H17129  11.821   2.089  -0.642  0.7630  1.0209  0.3660
  849MOL0     H17130  11.712   2.320  -0.475  1.4384  0.4784  3.2801
  849MOL0     H17131  11.874   2.244  -0.478 -0.4872  2.5508  1.1007
  849MOL0     H17132  11.799   2.042  -0.402  1.0799  0.9516 -0.6548
  849MOL0     H17133  11.624   2.077  -0.440  0.5510 -1.2151 -0.3375
  849MOL0     H17134  11.700   2.072  -0.192 -1.2757 -0.0136  0.5395
  849MOL0     H17135  11.791   2.224  -0.227 -1.7948  2.2558  0.2042
  849MOL0     H17136  11.499   2.207  -0.284  2.4068 -1.2614 -1.9993
  849MOL0     H17137  11.592   2.356  -0.290  0.6334 -1.2893 -2.0386
  849MOL0     H17138  11.651   2.303  -0.032  1.7310  0.5315 -2.1568
  849MOL0     H17139  11.505   2.202  -0.054 -1.3996  0.5441 -0.2368
  849MOL0     H17140  11.439   2.423   0.034  4.0105 -2.9162  1.5438
  849MOL0     H17141  11.375   2.397  -0.129  1.6318  0.3663 -2.7786
  849MOL0     H17142  11.877   2.393  -0.975  2.5695 -3.5350 -0.0601
  849MOL0     H17143  11.965   2.597  -1.070  0.7676  0.7040 -0.2490
  849MOL0     H17144  11.984   2.888  -1.275  1.3565 -1.3236  0.6158
  849MOL0     H17145  11.997   3.104  -1.385 -0.2523 -1.2180  1.2160
  849MOL0     H17146  11.273   3.963  -0.085  0.9125  0.9528 -0.9249
  849MOL0     H17147  11.152   4.121   0.069 -0.7791  1.0152  0.3865
  849MOL0     H17148  11.067   4.383   0.325  0.8922  0.8426 -1.5701
  849MOL0     H17149  10.985   4.584   0.451  0.6223  2.4306  0.4400
  849MOL0     H17150  11.132   4.649   0.830  2.6752 -0.4367 -0.9697
  849MOL0     H17151  11.186   4.806   0.750 -1.2775  0.0583 -1.5162
  849MOL0     H17152  10.901   4.740   0.797 -2.5410  3.6021  2.8899
  849MOL0     H17153  10.959   4.881   0.736 -2.2442 -0.5912  0.2606
  849MOL0     H17154  11.023   4.793   1.025  1.7734  1.1126 -0.0741
  849MOL0     H17155  11.107   4.919   0.932 -0.6782 -0.2772 -2.2125
  849MOL0     H17156  10.817   4.907   1.035 -1.4737  2.0692  0.5142
  849MOL0     H17157  10.855   5.030   0.908 -0.0274  0.0643 -0.8516
  849MOL0     H17158  10.999   5.210   1.262  1.1647  1.8587 -0.3107
  849MOL0     H17159  11.336   4.578   0.695  2.4274  2.6904 -2.5872
  849MOL0     H17160  11.455   4.288   0.630  0.9403 -0.3571 -0.1099
  849MOL0     H17161  11.531   4.354   0.485 -2.0945 -0.6753 -1.0178
  849MOL0     H17162  11.520   4.452   0.628 -0.2465 -0.7021 -0.2998
  850MOL0     O17163  11.435   3.197   2.206  0.0559 -0.4896 -0.0893
  850MOL0     C17164  11.341   3.209   2.289  0.5793 -0.1726  0.1333
  850MOL0     O17165  11.322   3.133   2.402  0.2841 -0.0183  0.1532
  850MOL0     C17166  11.427   3.051   2.444  0.3153  0.4223 -0.4622
  850MOL0     C17167  11.463   2.946   2.364  0.3787 -0.9636  1.1738
  850MOL0     C17168  11.552   2.855   2.420 -0.2429  0.7682  0.1317
  850MOL0     C17169  11.612   2.868   2.539 -0.0262  0.8265 -0.5747
  850MOL0     O17170  11.681   2.763   2.597 -0.0891  0.3111  0.1591
  850MOL0     C17171  11.756   2.674   2.502  0.2124 -0.3770 -0.1194
  850MOL0     C17172  11.878   2.611   2.571 -0.1618 -0.2259 -0.5473
  850MOL0     C17173  11.996   2.704   2.585 -0.5608  0.5130  0.5905
  850MOL0     C17174  12.116   2.645   2.651  0.4886 -1.4026  0.9978
  850MOL0     C17175  12.232   2.737   2.623 -0.2648  0.3825  0.9683
  850MOL0     C17176  12.365   2.703   2.683  0.0648  0.1966  0.2546
  850MOL0     C17177  12.475   2.804   2.639 -0.5899 -0.1542  0.7129
  850MOL0     C17178  12.504   2.914   2.738  0.1025 -0.8702  0.1536
  850MOL0     N17179  12.633   2.978   2.702 -0.4653  0.2318 -0.2881
  850MOL0     C17180  12.757   2.926   2.743  1.7653 -0.2292 -0.4195
  850MOL0     C17181  12.843   3.001   2.680  0.4951  0.9200  0.0940
  850MOL0     C17182  12.987   2.991   2.684 -0.6058 -0.1236  0.1512
  850MOL0     C17183  13.049   3.084   2.797 -0.9458 -0.2562 -0.8093
  850MOL0     C17184  13.192   3.028   2.842  0.6675  0.4574  0.3098
  850MOL0     C17185  13.272   3.105   2.939 -0.1702 -0.2600 -0.6314
  850MOL0     O17186  13.372   3.019   3.002 -0.9993  0.5681 -0.3762
  850MOL0     C17187  13.495   3.084   3.005  0.0564  0.6593 -1.2104
  850MOL0     C17188  13.524   3.213   3.039  0.1353 -0.1200  0.4703
  850MOL0     C17189  13.652   3.270   3.016  0.0505  0.4044 -0.5757
  850MOL0     C17190  13.651   3.412   3.049 -0.2868 -0.7403 -0.2729
  850MOL0     C17191  13.759   3.190   2.963 -0.1367 -0.4871 -0.3001
  850MOL0     C17192  13.889   3.251   2.953 -0.1558  0.0665 -0.2960
  850MOL0     O17193  13.968   3.228   2.843  0.4302  0.0744 -0.2222
  850MOL0     C17194  14.079   3.301   2.829 -0.6116 -0.7949  0.0713
  850MOL0     C17195  14.212   3.252   2.846 -0.0362  0.6843  0.2749
  850MOL0     C17196  14.317   3.342   2.837 -0.8175 -0.2978  0.5642
  850MOL0     C17197  14.302   3.482   2.827  0.6011  0.9310  0.4121
  850MOL0     O17198  14.414   3.556   2.817 -0.4572 -0.7767 -0.7494
  850MOL0     C17199  14.406   3.697   2.851 -0.1447  0.4316 -0.2420
  850MOL0     C17200  14.421   3.780   2.724  0.0312  0.7228  0.4227
  850MOL0     C17201  14.364   3.917   2.750  0.2438  0.2721 -0.2809
  850MOL0     C17202  14.381   4.006   2.628  0.0150  0.1722  0.0852
  850MOL0     C17203  14.282   4.126   2.607 -0.5373 -0.0736 -0.1526
  850MOL0     C17204  14.343   4.269   2.640 -0.2849  0.5800  0.5466
  850MOL0     C17205  14.398   4.291   2.780 -0.7814 -0.1154 -0.7249
  850MOL0     C17206  14.301   4.380   2.862 -0.0267  0.0991 -1.0039
  850MOL0    Cl17207  14.276   4.537   2.774  0.0420 -0.3407  0.0599
  850MOL0     C17208  14.169   3.533   2.815 -0.3194 -0.1761 -0.0439
  850MOL0     C17209  14.059   3.438   2.808 -0.4477 -0.0372  1.0506
  850MOL0     O17210  13.932   3.285   3.060  0.2928  0.7706 -0.4538
  850MOL0     C17211  13.736   3.055   2.922  0.1084 -0.1212  0.2378
  850MOL0     C17212  13.602   3.010   2.949 -0.9132 -0.6699  0.1908
  850MOL0     N17213  12.779   3.088   2.601  0.0307 -0.6352 -0.0600
  850MOL0     N17214  12.653   3.089   2.615  0.3643 -0.3510  0.3580
  850MOL0     C17215  11.575   2.969   2.612  0.1454  0.0088  0.2734
  850MOL0     C17216  11.481   3.064   2.567 -0.2243 -0.0697  0.9671
  850MOL0     C17217  11.243   3.318   2.264 -0.1467  0.1435 -0.1439
  850MOL0     C17218  11.199   3.391   2.373  0.4132  0.1154  0.1209
  850MOL0     C17219  11.094   3.484   2.356 -0.3178 -0.6046  0.1019
  850MOL0     C17220  11.035   3.504   2.234 -0.7314  0.3734 -0.3065
  850MOL0     O17221  10.923   3.582   2.238  0.0596  0.1583 -0.0258
  850MOL0     C17222  10.847   3.629   2.129 -0.3019 -0.0137  0.7637
  850MOL0     C17223  10.723   3.531   2.104  0.3850 -0.2042  0.0446
  850MOL0     C17224  10.607   3.564   2.193  0.4483  0.3268 -0.2024
  850MOL0     C17225  10.483   3.477   2.177  0.2194  0.3056  0.1775
  850MOL0     C17226  10.387   3.554   2.105  0.0072  1.5509 -0.3491
  850MOL0     C17227  10.312   3.607   2.030  0.0827  0.3793  1.2156
  850MOL0     C17228  11.095   3.448   2.116 -0.7111 -0.1876 -0.5996
  850MOL0     C17229  11.197   3.354   2.134 -0.7178  0.3497 -0.3593
  850MOL0     C17230  11.249   3.286   2.009 -0.0249 -0.1034 -0.8410
  850MOL0     H17231  11.404   2.932   2.274 -0.7606  2.2552  1.2817
  850MOL0     H17232  11.568   2.766   2.361 -2.1383  0.2042  0.4031
  850MOL0     H17233  11.788   2.737   2.418 -2.8381  1.1137 -0.3003
  850MOL0     H17234  11.697   2.589   2.467 -0.0329 -1.0518  1.8613
  850MOL0     H17235  11.845   2.602   2.675 -1.1635  2.2737 -0.5912
  850MOL0     H17236  11.908   2.517   2.523 -1.7476  0.7633 -3.8265
  850MOL0     H17237  12.033   2.758   2.497  3.3453 -0.8831  1.1929
  850MOL0     H17238  11.952   2.779   2.650  0.2574  0.5370  1.1296
  850MOL0     H17239  12.083   2.631   2.755 -3.6264  0.4665  0.1446
  850MOL0     H17240  12.145   2.548   2.610 -1.8267 -1.8483  0.3300
  850MOL0     H17241  12.213   2.844   2.638  0.8116  0.3866  2.4371
  850MOL0     H17242  12.256   2.732   2.516  0.1361  0.3537  1.0610
  850MOL0     H17243  12.353   2.708   2.791 -4.8884 -3.2895  0.2254
  850MOL0     H17244  12.402   2.608   2.642  2.2490  1.2901 -0.4725
  850MOL0     H17245  12.452   2.856   2.546  1.0586  1.4617  1.1491
  850MOL0     H17246  12.571   2.753   2.623 -0.5908 -0.0755  0.4506
  850MOL0     H17247  12.432   2.996   2.738 -0.7353 -1.5550  1.7906
  850MOL0     H17248  12.514   2.864   2.835  3.3081 -2.0241 -0.6369
  850MOL0     H17249  12.774   2.837   2.802 -0.0288 -1.1521 -1.2140
  850MOL0     H17250  13.022   3.023   2.586  0.5642  0.1323  0.6366
  850MOL0     H17251  13.027   2.890   2.698 -1.0578 -0.3276 -0.0129
  850MOL0     H17252  13.056   3.189   2.768 -4.3492  0.1301 -0.5864
  850MOL0     H17253  12.982   3.074   2.883  0.1911  0.0164  0.1517
  850MOL0     H17254  13.184   2.929   2.887 -1.3886 -0.1348 -1.2245
  850MOL0     H17255  13.245   3.025   2.747  1.1144  2.3301  0.4571
  850MOL0     H17256  13.320   3.188   2.887  0.8063 -0.1561  0.3961
  850MOL0     H17257  13.207   3.152   3.013  1.8263  1.0864  0.3375
  850MOL0     H17258  13.436   3.269   3.067 -0.7532 -0.8911 -0.6811
  850MOL0     H17259  13.748   3.444   3.088  0.2579  2.6576 -3.6628
  850MOL0     H17260  13.578   3.438   3.126  1.5190 -1.0979  1.6528
  850MOL0     H17261  13.630   3.469   2.958 -1.3679 -0.8446 -0.0952
  850MOL0     H17262  14.231   3.145   2.848  1.7030  0.9330 -0.7282
  850MOL0     H17263  14.416   3.302   2.854 -0.3455  1.4139  2.0830
  850MOL0     H17264  14.315   3.723   2.906 -0.8041 -2.4101  0.1702
  850MOL0     H17265  14.491   3.714   2.918 -0.7611  0.5604  0.5208
  850MOL0     H17266  14.527   3.784   2.694 -0.3834  1.4265 -1.0634
  850MOL0     H17267  14.364   3.737   2.641 -1.4142  1.6280  0.9240
  850MOL0     H17268  14.402   3.949   2.848 -0.4532  1.0613 -0.2595
  850MOL0     H17269  14.256   3.905   2.757 -0.3521  3.2999 -2.4218
  850MOL0     H17270  14.373   3.938   2.544 -1.9415 -0.4653  0.7278
  850MOL0     H17271  14.485   4.036   2.643  0.6743  0.1857 -3.5399
  850MOL0     H17272  14.263   4.129   2.499  2.8284  0.0123 -0.8495
  850MOL0     H17273  14.190   4.112   2.664 -1.3228  0.3832 -1.2484
  850MOL0     H17274  14.261   4.334   2.605  0.0667  0.0269 -1.4340
  850MOL0     H17275  14.422   4.278   2.565 -1.6698 -1.9999 -1.3957
  850MOL0     H17276  14.497   4.337   2.770  0.7751 -3.4436 -2.2934
  850MOL0     H17277  14.411   4.196   2.832  0.2664 -1.4484 -3.2092
  850MOL0     H17278  14.336   4.394   2.965  3.1856 -0.3314 -1.9413
  850MOL0     H17279  14.202   4.336   2.874 -1.0525  1.4894 -3.6124
  850MOL0     H17280  14.149   3.639   2.802 -1.0284 -0.4850 -1.7960
  850MOL0     H17281  13.963   3.488   2.796  0.2632  1.3894  1.0836
  850MOL0     H17282  13.808   3.001   2.862  2.1333  0.7195  1.7751
  850MOL0     H17283  13.569   2.911   2.921  2.1262 -1.5962 -0.5039
  850MOL0     H17284  11.619   2.962   2.710  1.6970 -1.8611 -0.4905
  850MOL0     H17285  11.444   3.150   2.622 -0.1142 -0.3523  1.4934
  850MOL0     H17286  11.225   3.359   2.473 -0.1959  1.6854  0.7993
  850MOL0     H17287  11.041   3.527   2.440 -2.5813 -0.3404 -1.3517
  850MOL0     H17288  10.808   3.729   2.147  1.9077  0.7466  1.6657
  850MOL0     H17289  10.906   3.635   2.038  0.9977 -1.5314  1.4438
  850MOL0     H17290  10.754   3.426   2.111  2.5052  0.4572  3.5637
  850MOL0     H17291  10.683   3.540   2.003 -2.7704 -0.1095  1.1951
  850MOL0     H17292  10.641   3.539   2.294 -1.0452 -1.4809 -0.0795
  850MOL0     H17293  10.567   3.665   2.188 -1.3783 -0.3090  0.6053
  850MOL0     H17294  10.442   3.445   2.273 -3.7913  0.8273 -1.1835
  850MOL0     H17295  10.511   3.391   2.114  0.7131 -0.2502  1.1300
  850MOL0     H17296  10.240   3.647   1.961  0.3811 -2.0778 -0.6386
  850MOL0     H17297  11.047   3.472   2.022  2.3143  2.5794 -1.6308
  850MOL0     H17298  11.251   3.176   2.014  1.6296 -0.0889 -0.4355
  850MOL0     H17299  11.193   3.300   1.916 -0.1131 -2.9950 -1.3277
  850MOL0     H17300  11.351   3.308   1.975  0.3167 -2.3683 -1.4541
  851MOL0     O17301   6.326   9.891   0.218  0.2734 -0.0311  0.3136
  851MOL0     C17302   6.284   9.935   0.326 -0.8567 -0.0001  0.3328
  851MOL0     O17303   6.352   9.922   0.442 -0.6016  0.1712 -0.3512
  851MOL0     C17304   6.469   9.855   0.434 -0.5268  0.3031 -0.2578
  851MOL0     C17305   6.484   9.721   0.446 -0.4190  0.2157  0.4795
  851MOL0     C17306   6.606   9.656   0.438  0.0819  0.8097  0.1303
  851MOL0     C17307   6.725   9.721   0.427 -0.4081 -0.6339  0.2220
  851MOL0     O17308   6.846   9.660   0.414 -1.1171  0.0521 -0.4774
  851MOL0     C17309   6.958   9.710   0.490 -0.6347 -0.3402  0.2191
  851MOL0     C17310   7.057   9.599   0.500 -0.7875 -0.4740 -0.0110
  851MOL0     C17311   7.019   9.502   0.608  0.4675  0.8391 -0.0492
  851MOL0     C17312   7.138   9.416   0.652  0.9307 -0.2154  0.0309
  851MOL0     C17313   7.100   9.337   0.780 -0.3064 -0.1135  0.4933
  851MOL0     C17314   7.205   9.241   0.815  0.2026 -0.2057 -0.1616
  851MOL0     C17315   7.202   9.198   0.958  0.3812 -0.2601  0.0176
  851MOL0     C17316   7.292   9.077   0.971 -0.4028  0.2519  0.0657
  851MOL0     N17317   7.333   9.043   1.109  0.4140  0.6040 -0.5751
  851MOL0     C17318   7.419   9.111   1.195  0.6295 -0.6602 -0.0610
  851MOL0     C17319   7.430   9.038   1.306  0.8248 -0.5646 -0.4810
  851MOL0     C17320   7.515   9.079   1.420 -0.1723 -0.3381  0.2975
  851MOL0     C17321   7.504   9.229   1.460 -0.5153  0.8053 -0.0233
  851MOL0     C17322   7.594   9.249   1.578  0.2299 -0.1018 -0.3635
  851MOL0     C17323   7.621   9.397   1.605 -0.1477  0.2923  0.5355
  851MOL0     O17324   7.504   9.475   1.615  0.8713 -0.3913 -0.0257
  851MOL0     C17325   7.417   9.459   1.717  0.9179 -0.4959  0.7347
  851MOL0     C17326   7.436   9.392   1.834 -0.5456 -0.9908  0.5214
  851MOL0     C17327   7.336   9.416   1.940  0.1130 -0.0380 -0.6234
  851MOL0     C17328   7.374   9.351   2.074  0.3196 -0.1814  0.0200
  851MOL0     C17329   7.202   9.469   1.915 -1.0972 -0.2187  0.0206
  851MOL0     C17330   7.085   9.471   2.008 -0.3858  0.5929 -0.4063
  851MOL0     O17331   6.982   9.552   1.973  0.1174  0.2341  0.0247
  851MOL0     C17332   6.867   9.542   2.039 -0.0715  0.5879  0.3456
  851MOL0     C17333   6.752   9.501   1.973 -0.3568 -0.0076  0.1909
  851MOL0     C17334   6.628   9.490   2.042 -0.0263 -0.1806  0.9884
  851MOL0     C17335   6.611   9.509   2.172 -0.3138 -0.7872 -0.7209
  851MOL0     O17336   6.491   9.505   2.237  0.2015 -0.8594  0.1125
  851MOL0     C17337   6.376   9.456   2.172  0.3254  0.1272  0.4959
  851MOL0     C17338   6.255   9.434   2.263  0.3916  0.8410 -0.3490
  851MOL0     C17339   6.189   9.563   2.322 -0.4006  0.3146 -0.5366
  851MOL0     C17340   6.061   9.527   2.389  0.6028 -0.3170 -0.7581
  851MOL0     C17341   6.010   9.642   2.469  0.2458  0.1872 -0.0030
  851MOL0     C17342   5.893   9.619   2.567  0.0997  1.4087 -0.4116
  851MOL0     C17343   5.771   9.564   2.495 -0.3503 -0.2231 -0.2984
  851MOL0     C17344   5.660   9.557   2.595  0.1564  0.1651  0.2661
  851MOL0    Cl17345   5.591   9.720   2.620 -0.1138  0.0651 -0.2164
  851MOL0     C17346   6.727   9.549   2.245  0.1203  0.2211 -0.2184
  851MOL0     C17347   6.854   9.563   2.179 -0.1433 -0.1424 -0.3094
  851MOL0     O17348   7.087   9.390   2.106  0.1366 -0.4174 -0.2424
  851MOL0     C17349   7.188   9.523   1.786 -0.1073 -0.4699  0.4726
  851MOL0     C17350   7.293   9.523   1.695  0.2183  0.0325  0.0344
  851MOL0     N17351   7.363   8.918   1.281 -0.5821  0.7980  0.5068
  851MOL0     N17352   7.307   8.920   1.170  0.4821 -0.1910  0.9322
  851MOL0     C17353   6.724   9.857   0.429 -0.3855 -0.4538 -0.2669
  851MOL0     C17354   6.600   9.923   0.426  0.7587  0.5599 -0.2872
  851MOL0     C17355   6.167  10.022   0.329  0.7623 -0.6455 -0.0678
  851MOL0     C17356   6.058   9.982   0.250 -0.6970 -0.1580 -0.2653
  851MOL0     C17357   5.935  10.050   0.244  0.6369 -0.5160  0.8471
  851MOL0     C17358   5.922  10.167   0.321  0.5569 -0.5043 -0.8787
  851MOL0     O17359   5.803  10.227   0.340  0.6185 -0.3731  0.7648
  851MOL0     C17360   5.699  10.234   0.232  0.3256 -0.5885 -0.1814
  851MOL0     C17361   5.734  10.329   0.119  0.0973  0.3581  0.0190
  851MOL0     C17362   5.768  10.471   0.170  0.5959  0.0845 -0.0633
  851MOL0     C17363   5.676  10.515   0.294  0.7763 -0.2229  0.8305
  851MOL0     C17364   5.684  10.659   0.321 -0.4815  0.0821 -0.2552
  851MOL0     C17365   5.678  10.781   0.336  0.7577 -0.4334  0.1882
  851MOL0     C17366   6.027  10.205   0.408  0.7811 -1.1804 -0.1753
  851MOL0     C17367   6.153  10.140   0.407 -0.7085 -0.1792 -0.2683
  851MOL0     C17368   6.264  10.186   0.499 -0.6554 -0.0192 -0.0875
  851MOL0     H17369   6.386   9.675   0.455 -1.1149  1.6244  0.3955
  851MOL0     H17370   6.600   9.548   0.435 -3.7644  0.9026 -1.6250
  851MOL0     H17371   6.916   9.753   0.582  1.7337  1.5864  0.5097
  851MOL0     H17372   7.007   9.799   0.449  2.3373 -1.4192  1.1990
  851MOL0     H17373   7.071   9.542   0.407 -0.3555 -1.6915  0.7793
  851MOL0     H17374   7.155   9.637   0.529 -0.6608 -1.9206  1.5712
  851MOL0     H17375   6.991   9.558   0.698  0.1859  2.5137 -1.1247
  851MOL0     H17376   6.931   9.442   0.583  1.9835 -1.2992 -0.4909
  851MOL0     H17377   7.179   9.355   0.571  1.3751 -0.2865  0.3036
  851MOL0     H17378   7.222   9.481   0.681  2.0753 -2.9992  3.6767
  851MOL0     H17379   7.009   9.275   0.781  0.3144 -1.0574  2.0782
  851MOL0     H17380   7.085   9.410   0.860  1.3011  3.5306 -2.2548
  851MOL0     H17381   7.192   9.152   0.752  0.9331 -0.1119 -0.4578
  851MOL0     H17382   7.304   9.285   0.799  1.1283 -2.0488  0.1685
  851MOL0     H17383   7.102   9.180   1.000  0.5056  1.8776  1.4065
  851MOL0     H17384   7.256   9.272   1.018  0.7483 -2.5740  2.7305
  851MOL0     H17385   7.234   8.993   0.931  0.8769 -0.6213 -0.0277
  851MOL0     H17386   7.385   9.083   0.913 -1.1060  0.8925 -1.0062
  851MOL0     H17387   7.475   9.200   1.167  0.7700 -0.7345 -0.0178
  851MOL0     H17388   7.614   9.055   1.380  0.2803 -2.6353  2.5619
  851MOL0     H17389   7.493   9.011   1.503 -0.5537 -0.7876 -0.1698
  851MOL0     H17390   7.520   9.292   1.372 -2.0712  1.5964  0.2079
  851MOL0     H17391   7.397   9.251   1.475 -0.4618  4.3334 -3.2528
  851MOL0     H17392   7.557   9.189   1.662  2.8231 -1.7695 -0.3187
  851MOL0     H17393   7.686   9.194   1.560 -0.9913 -3.0001  1.4025
  851MOL0     H17394   7.683   9.409   1.694  1.6726  0.6464 -0.7243
  851MOL0     H17395   7.680   9.422   1.517  0.5964 -0.7595  0.7092
  851MOL0     H17396   7.532   9.344   1.849 -0.2659 -0.2002  1.3287
  851MOL0     H17397   7.305   9.268   2.095 -0.9728  0.8217 -0.1473
  851MOL0     H17398   7.362   9.426   2.152  2.1345  0.1306  0.0309
  851MOL0     H17399   7.477   9.315   2.071  0.2123 -0.5663  0.7035
  851MOL0     H17400   6.759   9.472   1.869  1.9735 -2.0440  0.8218
  851MOL0     H17401   6.551   9.459   1.971  1.3936 -1.4252 -0.0882
  851MOL0     H17402   6.333   9.527   2.100 -0.8058 -0.9664  0.0640
  851MOL0     H17403   6.386   9.358   2.126 -1.1350  0.5486 -0.8199
  851MOL0     H17404   6.185   9.380   2.198  0.8788  0.8599 -0.9040
  851MOL0     H17405   6.278   9.358   2.338 -1.2149 -1.0049 -1.6290
  851MOL0     H17406   6.167   9.641   2.249  4.6567  2.6841  0.0406
  851MOL0     H17407   6.259   9.608   2.393  0.8967 -1.0293 -0.9028
  851MOL0     H17408   6.062   9.429   2.438  0.4569 -1.8385 -3.6018
  851MOL0     H17409   5.992   9.512   2.305 -2.3842 -1.5983  1.7427
  851MOL0     H17410   6.091   9.688   2.527  0.3867 -0.5589  0.4037
  851MOL0     H17411   5.968   9.714   2.398  0.4104 -1.1945 -1.5518
  851MOL0     H17412   5.866   9.713   2.617  0.0056  1.2317 -0.1321
  851MOL0     H17413   5.922   9.561   2.655 -0.7415  0.1609 -0.9420
  851MOL0     H17414   5.796   9.474   2.437  0.1445  0.1033 -0.5931
  851MOL0     H17415   5.737   9.625   2.411  0.0657  0.3711 -0.0431
  851MOL0     H17416   5.700   9.514   2.687 -0.9281 -2.1522 -0.2636
  851MOL0     H17417   5.588   9.486   2.553  0.3343 -0.2015  0.5754
  851MOL0     H17418   6.715   9.560   2.352 -3.0964 -1.0448 -0.3560
  851MOL0     H17419   6.937   9.589   2.244  2.7705  0.7532 -3.9670
  851MOL0     H17420   7.095   9.564   1.750 -1.3028 -2.1454  1.4755
  851MOL0     H17421   7.270   9.587   1.610 -1.3070  1.0426  1.1468
  851MOL0     H17422   6.812   9.920   0.420 -0.3710 -0.3928  0.2698
  851MOL0     H17423   6.587  10.031   0.427 -3.1508  0.3511  3.7175
  851MOL0     H17424   6.061   9.895   0.185 -0.9028  0.1489 -0.6920
  851MOL0     H17425   5.853  10.027   0.178  0.1052  1.1032  0.8818
  851MOL0     H17426   5.673  10.136   0.192 -0.2417  0.0178 -1.3608
  851MOL0     H17427   5.612  10.274   0.285  1.2323 -0.1076  1.0017
  851MOL0     H17428   5.646  10.315   0.055 -0.2989 -1.0547  0.8031
  851MOL0     H17429   5.824  10.292   0.069  0.8803  1.9199  0.2297
  851MOL0     H17430   5.874  10.472   0.197 -0.0164  0.4993  2.6194
  851MOL0     H17431   5.757  10.546   0.092 -1.5008 -1.0541 -0.9526
  851MOL0     H17432   5.714  10.460   0.380  1.4935  0.8938  1.2546
  851MOL0     H17433   5.568  10.503   0.290  0.6575  0.8532  0.3821
  851MOL0     H17434   5.668  10.887   0.350 -1.6624 -0.6389  0.4567
  851MOL0     H17435   6.008  10.286   0.478 -1.1776 -1.6423 -0.1168
  851MOL0     H17436   6.267  10.130   0.592 -2.6214 -0.5446 -0.2954
  851MOL0     H17437   6.362  10.174   0.452 -1.3114  1.0481 -1.8274
  851MOL0     H17438   6.266  10.294   0.514 -0.6841 -0.3130  2.3880
  852MOL0     O17439   2.027   3.255   4.793  0.4758  0.5073 -0.5382
  852MOL0     C17440   1.917   3.295   4.835  0.5189  0.2633 -0.1905
  852MOL0     O17441   1.893   3.411   4.902 -0.2865 -0.0340  0.1139
  852MOL0     C17442   1.993   3.502   4.906  0.2839  0.3745  0.1135
  852MOL0     C17443   2.121   3.471   4.946 -0.0185  0.0751  0.0022
  852MOL0     C17444   2.212   3.577   4.965  0.0931 -0.0779 -0.3439
  852MOL0     C17445   2.191   3.707   4.923 -0.2442  0.9440  0.8113
  852MOL0     O17446   2.291   3.800   4.926 -0.3047  0.0247  0.1472
  852MOL0     C17447   2.311   3.877   4.812 -0.0379 -0.3065  0.7241
  852MOL0     C17448   2.359   4.020   4.856 -0.0034  0.4234  0.9990
  852MOL0     C17449   2.508   4.036   4.882 -0.3206  0.2372  0.0127
  852MOL0     C17450   2.536   4.135   4.997 -0.3091 -0.5740  0.1560
  852MOL0     C17451   2.683   4.184   5.006 -0.3823 -1.0406  0.5304
  852MOL0     C17452   2.735   4.241   5.131  0.7504 -0.3835 -0.7786
  852MOL0     C17453   2.890   4.281   5.123 -0.1138 -0.5296 -0.8061
  852MOL0     C17454   2.951   4.344   5.259 -0.6009 -0.2775  1.2871
  852MOL0     N17455   3.092   4.369   5.238  0.0234  0.5723  0.1159
  852MOL0     C17456   3.145   4.487   5.180  0.3056 -0.8558 -1.0588
  852MOL0     C17457   3.277   4.460   5.192  0.1211 -0.4939 -0.6571
  852MOL0     C17458   3.378   4.556   5.137 -0.0137 -0.2446  0.0185
  852MOL0     C17459   3.402   4.675   5.229 -0.4460 -1.1390 -0.2908
  852MOL0     C17460   3.477   4.781   5.152 -0.9204 -0.4782 -0.2988
  852MOL0     C17461   3.463   4.912   5.236  0.6082  0.1077  0.4872
  852MOL0     O17462   3.499   4.899   5.373 -0.2898 -0.2945 -0.0289
  852MOL0     C17463   3.629   4.868   5.405  0.1867  0.0236 -0.4087
  852MOL0     C17464   3.741   4.888   5.321  0.1693 -0.2917  0.2753
  852MOL0     C17465   3.870   4.852   5.366 -0.4062 -0.0501 -0.4325
  852MOL0     C17466   3.971   4.884   5.268 -0.3741 -0.1617  0.5260
  852MOL0     C17467   3.899   4.798   5.494  0.3660 -0.0412 -0.5449
  852MOL0     C17468   4.036   4.775   5.550  0.3883  0.3748  0.5840
  852MOL0     O17469   4.063   4.651   5.596  0.3945 -0.6529 -0.6014
  852MOL0     C17470   4.167   4.648   5.686 -0.3509  0.9682  0.8580
  852MOL0     C17471   4.142   4.639   5.817  0.6285 -0.1063  0.2232
  852MOL0     C17472   4.246   4.623   5.905  0.9234  0.0518  0.3414
  852MOL0     C17473   4.380   4.607   5.862  0.0759 -0.1358  0.5605
  852MOL0     O17474   4.481   4.587   5.950 -0.6408 -0.0586  0.5290
  852MOL0     C17475   4.502   4.456   6.003  0.1863  0.1349  0.7093
  852MOL0     C17476   4.634   4.467   6.081  0.0613  0.1994 -0.2193
  852MOL0     C17477   4.755   4.487   5.993  1.2338 -0.5357  0.0347
  852MOL0     C17478   4.883   4.447   6.082 -0.1131  0.2450 -1.1633
  852MOL0     C17479   5.008   4.471   5.992  0.7382  0.3323 -0.6312
  852MOL0     C17480   5.060   4.612   5.970  0.5466  0.2388 -0.0319
  852MOL0     C17481   5.166   4.606   5.856  0.0283 -0.8100  0.0938
  852MOL0     C17482   5.236   4.741   5.822  0.2937  0.2624  0.0505
  852MOL0    Cl17483   5.290   4.826   5.973  0.3057 -0.1170 -0.2427
  852MOL0     C17484   4.398   4.614   5.722  0.2054 -0.3319  0.3260
  852MOL0     C17485   4.295   4.634   5.632 -0.5671  0.0902 -0.2764
  852MOL0     O17486   4.111   4.874   5.550  0.5131  0.1295 -0.2963
  852MOL0     C17487   3.790   4.772   5.572 -0.3971 -0.3957  0.5479
  852MOL0     C17488   3.660   4.803   5.526 -0.3515 -0.4669 -0.2358
  852MOL0     N17489   3.305   4.331   5.233  0.7362 -0.0018 -0.4889
  852MOL0     N17490   3.192   4.280   5.269  0.5182  0.1491 -0.6425
  852MOL0     C17491   2.055   3.738   4.879 -0.2642  0.8114 -0.6278
  852MOL0     C17492   1.963   3.635   4.882 -0.0483  0.2164  1.0872
  852MOL0     C17493   1.794   3.204   4.821 -0.5026  0.4299  0.3855
  852MOL0     C17494   1.699   3.186   4.923 -0.3662  0.0684  0.7330
  852MOL0     C17495   1.613   3.086   4.926  0.7261  0.2942 -0.2199
  852MOL0     C17496   1.592   3.004   4.806  0.1788  0.1538 -0.0500
  852MOL0     O17497   1.517   2.897   4.786  0.1738 -0.3620  0.6139
  852MOL0     C17498   1.431   2.845   4.886 -0.0950 -0.8971  0.3509
  852MOL0     C17499   1.410   2.701   4.871 -0.0839  0.0573  0.5444
  852MOL0     C17500   1.372   2.650   4.729 -0.1313  0.5808 -0.3083
  852MOL0     C17501   1.271   2.742   4.657 -0.1781  0.9847 -0.1458
  852MOL0     C17502   1.147   2.752   4.732  0.2670 -0.1960 -0.2480
  852MOL0     C17503   1.040   2.763   4.787  0.3899  0.2068 -0.2484
  852MOL0     C17504   1.673   3.042   4.702  0.2270 -0.0345  0.5600
  852MOL0     C17505   1.781   3.130   4.707  0.9959  0.2664  1.3129
  852MOL0     C17506   1.872   3.128   4.587  0.3673 -0.3959 -0.2899
  852MOL0     H17507   2.159   3.371   4.968  1.2026  0.3657 -0.7473
  852MOL0     H17508   2.311   3.548   5.001  0.3672  1.6222  0.3514
  852MOL0     H17509   2.219   3.891   4.753  0.5190 -1.4894 -0.4912
  852MOL0     H17510   2.388   3.828   4.752 -0.3411 -2.9521  2.3506
  852MOL0     H17511   2.344   4.090   4.773  0.5566 -0.8175 -0.1794
  852MOL0     H17512   2.294   4.055   4.937 -1.4831  0.6129 -0.2254
  852MOL0     H17513   2.552   3.936   4.889 -1.6988 -0.7744 -3.5579
  852MOL0     H17514   2.559   4.073   4.793  0.0809 -0.1982  0.0569
  852MOL0     H17515   2.469   4.219   4.977 -1.8575 -1.7590  0.1194
  852MOL0     H17516   2.503   4.091   5.092  1.5821 -1.5111  0.4305
  852MOL0     H17517   2.702   4.254   4.924 -3.9324  1.8030  1.8829
  852MOL0     H17518   2.748   4.097   4.994  0.8516 -0.4591  2.4182
  852MOL0     H17519   2.682   4.335   5.150 -1.0496 -1.6990  1.2379
  852MOL0     H17520   2.708   4.175   5.214  1.1016  3.6795  2.9549
  852MOL0     H17521   2.906   4.356   5.045  0.1941  0.1270 -0.1342
  852MOL0     H17522   2.944   4.192   5.089 -0.9716 -2.0680  1.5810
  852MOL0     H17523   2.903   4.440   5.278 -2.2669  0.5324 -4.8370
  852MOL0     H17524   2.929   4.266   5.333 -1.7565  1.8331  3.3004
  852MOL0     H17525   3.095   4.574   5.137  0.7081 -0.2576 -0.3368
  852MOL0     H17526   3.357   4.596   5.037  3.1291  1.9310  0.0752
  852MOL0     H17527   3.469   4.497   5.125 -0.5988 -0.6876 -3.7929
  852MOL0     H17528   3.306   4.712   5.269  0.5091  0.9970  0.1913
  852MOL0     H17529   3.461   4.647   5.317 -1.1808 -2.0319 -0.0646
  852MOL0     H17530   3.579   4.741   5.141 -0.6103 -0.4398  2.0282
  852MOL0     H17531   3.421   4.794   5.059 -1.6299  2.2642  0.4076
  852MOL0     H17532   3.520   4.990   5.185  0.2640 -1.6655 -2.9308
  852MOL0     H17533   3.358   4.944   5.233  1.2491  2.4403  0.8820
  852MOL0     H17534   3.732   4.931   5.222  3.8616  0.3074  0.0401
  852MOL0     H17535   4.056   4.815   5.261  0.9320  1.4582 -0.3105
  852MOL0     H17536   4.012   4.984   5.284  1.8541 -1.2629  2.2437
  852MOL0     H17537   3.929   4.864   5.169  1.3546  0.4471 -0.3769
  852MOL0     H17538   4.041   4.640   5.857  0.7257 -2.5484  0.6780
  852MOL0     H17539   4.238   4.607   6.012 -0.0918 -0.0069  0.2679
  852MOL0     H17540   4.414   4.424   6.060 -1.9262  1.1629 -1.7411
  852MOL0     H17541   4.518   4.382   5.924  0.8909  0.8330  0.1863
  852MOL0     H17542   4.624   4.534   6.166 -0.1426 -1.5800  1.2266
  852MOL0     H17543   4.655   4.374   6.135 -0.1284  0.1150 -0.2880
  852MOL0     H17544   4.772   4.591   5.964  1.9437 -0.5654  0.3218
  852MOL0     H17545   4.740   4.432   5.900 -0.1342 -1.4566  0.7607
  852MOL0     H17546   4.876   4.343   6.112 -1.7738  0.7129  0.2286
  852MOL0     H17547   4.886   4.508   6.173  0.6445  1.7709 -2.1584
  852MOL0     H17548   5.100   4.429   6.032 -0.9452 -1.4502  1.6541
  852MOL0     H17549   4.975   4.428   5.896 -1.3441 -1.7679  0.9039
  852MOL0     H17550   5.109   4.642   6.063  2.9586  1.9468 -1.7324
  852MOL0     H17551   4.971   4.668   5.936 -0.7121 -0.1451  2.4491
  852MOL0     H17552   5.109   4.578   5.768 -0.5983 -1.2963  0.6443
  852MOL0     H17553   5.248   4.535   5.871  1.0772 -0.2381 -2.5166
  852MOL0     H17554   5.174   4.818   5.775  1.4711  1.9897  1.2018
  852MOL0     H17555   5.322   4.722   5.757 -1.3503 -0.6889 -1.9636
  852MOL0     H17556   4.496   4.593   5.679 -1.1829 -0.7100 -2.9347
  852MOL0     H17557   4.321   4.635   5.526 -0.2057  0.9268 -0.1869
  852MOL0     H17558   3.809   4.716   5.664 -2.8937  1.1181  2.0824
  852MOL0     H17559   3.589   4.769   5.601 -3.3585  1.5799 -1.8802
  852MOL0     H17560   2.025   3.837   4.849  2.1229  1.4965 -0.9766
  852MOL0     H17561   1.863   3.660   4.847 -0.3538 -1.9026  0.3535
  852MOL0     H17562   1.711   3.242   5.015  1.8238 -1.0477  1.1899
  852MOL0     H17563   1.547   3.079   5.012  0.1565 -1.1201 -0.7476
  852MOL0     H17564   1.479   2.855   4.983  1.1772 -2.5817 -0.0566
  852MOL0     H17565   1.333   2.892   4.874 -0.5724 -2.0906 -0.6797
  852MOL0     H17566   1.346   2.651   4.944  1.5525 -2.9806  0.0900
  852MOL0     H17567   1.509   2.657   4.881 -0.3726 -0.6130  0.5411
  852MOL0     H17568   1.463   2.658   4.669  0.5793  0.1899  0.6833
  852MOL0     H17569   1.334   2.548   4.732  1.1975 -0.0208 -2.0720
  852MOL0     H17570   1.240   2.684   4.570  5.2722 -4.0767  0.6039
  852MOL0     H17571   1.312   2.840   4.631  1.7978 -0.4457 -3.0985
  852MOL0     H17572   0.946   2.788   4.833  0.6540 -2.0051  1.7296
  852MOL0     H17573   1.666   2.976   4.616 -2.2631 -1.1396  1.5145
  852MOL0     H17574   1.947   3.050   4.600  1.3447  0.7881  1.6842
  852MOL0     H17575   1.810   3.106   4.499 -1.2729  0.8099  0.5039
  852MOL0     H17576   1.921   3.224   4.567 -1.6576  1.3061  2.2042
  853MOL0     O17577   1.205   8.819   7.760 -0.1779 -0.4133 -0.0277
  853MOL0     C17578   1.205   8.884   7.656  0.5825 -0.2286  0.1904
  853MOL0     O17579   1.263   9.003   7.634 -0.1237  0.2750 -0.4136
  853MOL0     C17580   1.333   9.055   7.742 -0.1642  0.6214 -0.7839
  853MOL0     C17581   1.277   9.135   7.841 -0.0390  0.3585 -0.6259
  853MOL0     C17582   1.352   9.186   7.947  0.3832 -0.0481  0.0685
  853MOL0     C17583   1.493   9.150   7.960 -0.4800 -0.0544  0.1270
  853MOL0     O17584   1.562   9.206   8.070 -0.3344  0.5899 -0.4679
  853MOL0     C17585   1.705   9.203   8.065 -0.9649  0.2145 -0.2486
  853MOL0     C17586   1.756   9.293   8.176  0.7042  0.4019  0.1881
  853MOL0     C17587   1.902   9.327   8.168  0.0352 -0.2189  0.6321
  853MOL0     C17588   1.959   9.395   8.292  1.2058 -0.6795 -0.3255
  853MOL0     C17589   2.100   9.444   8.275  0.6472 -0.8686  0.0259
  853MOL0     C17590   2.161   9.506   8.401 -0.4149 -0.1240  0.4097
  853MOL0     C17591   2.306   9.558   8.358 -0.2255 -0.5335 -0.0860
  853MOL0     C17592   2.412   9.445   8.345  0.2707  0.0549 -0.0078
  853MOL0     N17593   2.533   9.486   8.289 -0.2865 -0.0644  1.2558
  853MOL0     C17594   2.623   9.569   8.357  0.3418 -0.1480  0.1557
  853MOL0     C17595   2.707   9.628   8.268  0.0903  0.4905 -0.9983
  853MOL0     C17596   2.811   9.727   8.313  0.7788  0.0873 -0.2634
  853MOL0     C17597   2.756   9.858   8.378  0.3540  1.1845 -0.2238
  853MOL0     C17598   2.664   9.953   8.295  1.1143  0.4906 -0.2887
  853MOL0     C17599   2.637  10.090   8.352 -0.5716  0.4702 -0.3452
  853MOL0     O17600   2.594  10.074   8.485  0.1292  0.4109 -0.9689
  853MOL0     C17601   2.543  10.182   8.544  0.0080 -0.3334  0.2297
  853MOL0     C17602   2.449  10.167   8.648 -0.2810  1.1521  0.7566
  853MOL0     C17603   2.385  10.273   8.713  0.1681 -0.1573  0.1768
  853MOL0     C17604   2.288  10.230   8.824 -0.0276 -0.3705 -0.7439
  853MOL0     C17605   2.408  10.402   8.659  0.2785 -0.4877  0.2138
  853MOL0     C17606   2.348  10.524   8.719  0.5739  0.2403  0.1517
  853MOL0     O17607   2.359  10.636   8.642 -0.1729 -0.6875 -0.7740
  853MOL0     C17608   2.354  10.749   8.728  0.4316 -0.1833  0.4850
  853MOL0     C17609   2.229  10.825   8.730  0.2209  0.5886 -0.8178
  853MOL0     C17610   2.233  10.940   8.799  0.8741  0.0013 -1.2726
  853MOL0     C17611   2.336  10.987   8.879  0.0410 -0.4195  0.3221
  853MOL0     O17612   2.326  11.109   8.943 -0.2908  0.3479  0.3188
  853MOL0     C17613   2.397  11.104   9.070 -0.0326 -0.0345 -0.4691
  853MOL0     C17614   2.387  11.240   9.143  0.4724  0.5680  0.8194
  853MOL0     C17615   2.472  11.245   9.269  0.2654  0.2394 -0.9433
  853MOL0     C17616   2.465  11.383   9.341 -0.3561  0.3155  0.9037
  853MOL0     C17617   2.318  11.421   9.372  0.0949 -1.2463 -0.1287
  853MOL0     C17618   2.301  11.552   9.459  0.3674  0.4293 -0.3002
  853MOL0     C17619   2.152  11.580   9.480  0.4233  0.0399 -0.7757
  853MOL0     C17620   2.127  11.716   9.532  0.1903  0.2444  0.7212
  853MOL0    Cl17621   2.178  11.724   9.699 -0.0539  0.2022 -0.0481
  853MOL0     C17622   2.457  10.907   8.875  0.3858  0.3900 -0.3793
  853MOL0     C17623   2.463  10.796   8.798 -0.3479  0.5271  0.8090
  853MOL0     O17624   2.286  10.513   8.825 -0.1466 -0.6937  0.2743
  853MOL0     C17625   2.509  10.417   8.559 -0.3419  0.2821  0.1529
  853MOL0     C17626   2.580  10.315   8.505 -0.4768  1.0516 -0.6940
  853MOL0     N17627   2.671   9.577   8.148 -0.1185  1.0705  0.5565
  853MOL0     N17628   2.566   9.495   8.155  0.0510 -0.0862 -0.1776
  853MOL0     C17629   1.551   9.069   7.862 -0.3507 -0.0524 -0.4000
  853MOL0     C17630   1.470   9.026   7.754  0.1491  0.1377  0.5055
  853MOL0     C17631   1.133   8.822   7.538  0.1794 -0.3314  0.4739
  853MOL0     C17632   1.087   8.691   7.556 -0.6825 -0.4289 -0.0259
  853MOL0     C17633   0.998   8.624   7.469 -0.9449 -0.9753  0.1540
  853MOL0     C17634   0.977   8.686   7.340  0.4569 -0.3065 -0.8132
  853MOL0     O17635   0.888   8.646   7.247  0.8354  0.2039  0.1283
  853MOL0     C17636   0.808   8.531   7.271 -0.2913 -1.1113  0.1624
  853MOL0     C17637   0.734   8.497   7.137  0.1472 -0.3137  0.1324
  853MOL0     C17638   0.610   8.404   7.148  0.1305 -0.9350 -0.6524
  853MOL0     C17639   0.512   8.408   7.021 -0.1434 -0.1513 -0.1247
  853MOL0     C17640   0.375   8.399   7.067 -0.0795  0.3359  1.0599
  853MOL0     C17641   0.258   8.391   7.091  0.2386 -0.6216  0.4721
  853MOL0     C17642   1.040   8.810   7.312  0.2700 -0.0108  0.5206
  853MOL0     C17643   1.110   8.883   7.412  0.7519  0.1703  0.0652
  853MOL0     C17644   1.165   9.017   7.360 -0.5948 -0.9762 -0.3392
  853MOL0     H17645   1.171   9.155   7.856 -0.1106 -1.2399  1.6171
  853MOL0     H17646   1.308   9.246   8.025  0.6906 -2.4522  2.2226
  853MOL0     H17647   1.727   9.256   7.971 -2.9256 -0.7648 -1.3147
  853MOL0     H17648   1.754   9.105   8.060 -3.0624 -0.8406 -3.9367
  853MOL0     H17649   1.695   9.384   8.175 -0.7558 -0.5496  0.3818
  853MOL0     H17650   1.739   9.242   8.272  2.0754  0.5110  0.5101
  853MOL0     H17651   1.953   9.233   8.142  1.3111  0.1563  1.7264
  853MOL0     H17652   1.904   9.405   8.091 -0.9233 -0.9554 -0.1744
  853MOL0     H17653   1.889   9.478   8.310  2.1917  0.1313 -0.1125
  853MOL0     H17654   1.927   9.332   8.375 -3.0268  0.9007 -0.4741
  853MOL0     H17655   2.102   9.523   8.199  0.0464  0.9089  1.7940
  853MOL0     H17656   2.154   9.353   8.245 -2.5968 -4.2820  3.3811
  853MOL0     H17657   2.099   9.588   8.437 -3.8524 -1.4650 -1.8575
  853MOL0     H17658   2.154   9.444   8.491  0.3772 -2.2240 -0.8866
  853MOL0     H17659   2.345   9.626   8.435  0.4858  0.3710 -1.2110
  853MOL0     H17660   2.296   9.616   8.266  0.5890  0.5277  0.4641
  853MOL0     H17661   2.433   9.406   8.445 -2.9710  0.3636  0.9159
  853MOL0     H17662   2.378   9.360   8.286  0.9319  1.1658 -2.0678
  853MOL0     H17663   2.621   9.575   8.465 -0.0181 -1.7559  0.2622
  853MOL0     H17664   2.874   9.756   8.228  0.3860 -2.9350 -1.7510
  853MOL0     H17665   2.874   9.673   8.384 -1.0561  0.3662  1.6752
  853MOL0     H17666   2.718   9.844   8.479  2.7534  0.8359  0.6894
  853MOL0     H17667   2.848   9.907   8.412 -0.8460  1.1510  3.5209
  853MOL0     H17668   2.708   9.961   8.195  3.2757 -0.9791  0.4713
  853MOL0     H17669   2.571   9.895   8.282  1.4263 -0.7113  2.2682
  853MOL0     H17670   2.735  10.138   8.350  0.3888 -1.3763 -2.2713
  853MOL0     H17671   2.564  10.146   8.293 -3.0361 -1.4553  0.6847
  853MOL0     H17672   2.413  10.065   8.658  0.2869  0.9893  1.2550
  853MOL0     H17673   2.290  10.123   8.848 -1.1539 -0.7457 -2.1790
  853MOL0     H17674   2.184  10.236   8.790 -0.3170 -1.6076 -0.1608
  853MOL0     H17675   2.299  10.279   8.921 -1.3915 -1.5166  0.0328
  853MOL0     H17676   2.142  10.803   8.668  2.2263 -2.9693 -2.7407
  853MOL0     H17677   2.148  11.007   8.803  1.7768  1.1319  2.1262
  853MOL0     H17678   2.342  11.040   9.140 -0.6895  2.3498  1.3192
  853MOL0     H17679   2.505  11.091   9.056  0.2431  1.0870  0.4698
  853MOL0     H17680   2.414  11.329   9.085 -1.7697  1.2402  0.6925
  853MOL0     H17681   2.283  11.256   9.172 -0.2950 -2.6894  0.2618
  853MOL0     H17682   2.576  11.219   9.247  0.3413 -0.6193  0.3037
  853MOL0     H17683   2.452  11.166   9.342  0.3572  1.2809  0.2538
  853MOL0     H17684   2.508  11.459   9.275  1.4065 -0.8274  0.6802
  853MOL0     H17685   2.533  11.384   9.427  1.6349  1.5898 -0.5942
  853MOL0     H17686   2.264  11.444   9.280  1.5939 -0.1129 -0.7740
  853MOL0     H17687   2.275  11.331   9.418 -2.0531 -0.1495  0.1289
  853MOL0     H17688   2.354  11.638   9.416  0.3825  0.1875 -0.7724
  853MOL0     H17689   2.350  11.528   9.553  0.4313  2.0828  0.1222
  853MOL0     H17690   2.115  11.515   9.559  0.2503  1.2023  0.1296
  853MOL0     H17691   2.107  11.575   9.380  2.9132 -0.9032 -1.9371
  853MOL0     H17692   2.029  11.763   9.515  1.7095  2.8207 -1.9390
  853MOL0     H17693   2.199  11.778   9.477 -0.9788  0.7614 -0.2935
  853MOL0     H17694   2.549  10.938   8.924  0.5510  1.8745 -1.5400
  853MOL0     H17695   2.551  10.734   8.789 -1.5253 -1.0175 -1.0546
  853MOL0     H17696   2.544  10.518   8.539 -0.3736  0.5405  1.3225
  853MOL0     H17697   2.658  10.337   8.432 -0.4114  1.1026 -0.6092
  853MOL0     H17698   1.652   9.029   7.862  0.5350  2.0203 -1.6280
  853MOL0     H17699   1.517   8.958   7.683 -0.7169  0.5399 -0.4775
  853MOL0     H17700   1.110   8.637   7.648 -1.3447 -0.4176  0.1518
  853MOL0     H17701   0.939   8.536   7.492 -1.9834  0.3122  2.8969
  853MOL0     H17702   0.863   8.442   7.303  0.5207 -0.4906  0.5390
  853MOL0     H17703   0.728   8.550   7.343 -1.0016  1.3810 -1.1623
  853MOL0     H17704   0.814   8.469   7.068  1.0080  0.3472  0.8306
  853MOL0     H17705   0.688   8.591   7.107  1.0052  0.2529  0.5377
  853MOL0     H17706   0.646   8.302   7.159  2.3198 -0.5110 -2.9160
  853MOL0     H17707   0.554   8.440   7.235  3.3956 -3.1948  2.7437
  853MOL0     H17708   0.534   8.330   6.949  1.6923 -0.5764  0.8243
  853MOL0     H17709   0.529   8.510   6.984 -4.6525  1.5401  1.7187
  853MOL0     H17710   0.153   8.372   7.087 -0.2964  2.0663 -2.2618
  853MOL0     H17711   1.025   8.858   7.216  0.0606  1.4849  1.2751
  853MOL0     H17712   1.132   9.086   7.439  0.5449 -2.2642  1.3374
  853MOL0     H17713   1.273   9.011   7.371 -0.9074 -5.3625  3.6560
  853MOL0     H17714   1.139   9.059   7.262  0.2431  1.3358  0.3710
  854MOL0     O17715  10.925   3.029   2.779  0.2039  0.6313  0.6421
  854MOL0     C17716  11.001   3.122   2.755 -0.2791 -0.2849 -0.3597
  854MOL0     O17717  11.137   3.107   2.723 -1.1673 -0.3541 -0.3197
  854MOL0     C17718  11.182   2.975   2.738 -0.0509  0.3488 -0.3987
  854MOL0     C17719  11.203   2.925   2.863 -0.0584 -0.3335  0.0562
  854MOL0     C17720  11.251   2.792   2.885  0.9596 -0.2067 -0.1518
  854MOL0     C17721  11.280   2.702   2.779 -0.5993 -1.4336 -0.5026
  854MOL0     O17722  11.308   2.567   2.794 -0.4253  0.0042  0.0411
  854MOL0     C17723  11.445   2.541   2.813 -0.7118  0.1087 -0.3194
  854MOL0     C17724  11.486   2.401   2.767 -0.2619  0.6970  0.7448
  854MOL0     C17725  11.492   2.385   2.613 -0.1446 -0.4113 -0.3154
  854MOL0     C17726  11.533   2.238   2.581  0.4673 -0.6110  0.1536
  854MOL0     C17727  11.537   2.221   2.424 -0.1017 -0.1573  0.5113
  854MOL0     C17728  11.663   2.272   2.355 -0.4813  0.5048 -0.2007
  854MOL0     C17729  11.666   2.251   2.206  0.4951  0.7178 -0.4236
  854MOL0     C17730  11.790   2.320   2.145 -0.5166 -0.7187 -0.0300
  854MOL0     N17731  11.911   2.233   2.144  0.3812  1.0497  0.8081
  854MOL0     C17732  11.931   2.136   2.047 -0.3042  0.0550 -0.4552
  854MOL0     C17733  12.043   2.083   2.081 -0.2967 -0.1731 -0.2530
  854MOL0     C17734  12.120   1.991   1.990 -0.3637 -0.1162  0.4104
  854MOL0     C17735  12.224   2.073   1.909  0.2235 -0.2849 -0.0353
  854MOL0     C17736  12.314   1.983   1.822 -0.5159  0.2204 -0.3194
  854MOL0     C17737  12.410   2.069   1.739  0.2722  0.1697 -0.2629
  854MOL0     O17738  12.523   2.121   1.810 -1.0643 -0.2795 -0.0787
  854MOL0     C17739  12.615   2.203   1.744  0.3226  0.2250  0.1772
  854MOL0     C17740  12.616   2.219   1.604  0.8509  0.1872  0.1259
  854MOL0     C17741  12.711   2.291   1.530  0.7287 -0.1733 -0.9501
  854MOL0     C17742  12.712   2.279   1.386 -0.3052  0.5601 -0.4464
  854MOL0     C17743  12.792   2.386   1.603 -0.3914 -0.0024 -0.2616
  854MOL0     C17744  12.908   2.471   1.544 -0.9433  0.2911 -0.3848
  854MOL0     O17745  12.920   2.483   1.405 -0.2862  0.6693 -0.1490
  854MOL0     C17746  12.987   2.589   1.363 -0.1326 -0.2532 -0.5865
  854MOL0     C17747  13.098   2.575   1.281 -0.5567 -0.1701 -0.2062
  854MOL0     C17748  13.181   2.684   1.246  0.8603  0.0324 -0.4937
  854MOL0     C17749  13.140   2.813   1.281  0.3522 -0.3236 -0.2305
  854MOL0     O17750  13.223   2.916   1.240 -0.0935  0.0034 -0.5787
  854MOL0     C17751  13.175   3.047   1.200  0.2171  1.0079 -0.3846
  854MOL0     C17752  13.298   3.116   1.150 -0.4153 -0.5779 -0.0899
  854MOL0     C17753  13.262   3.257   1.097 -0.8389 -0.9844  0.0360
  854MOL0     C17754  13.380   3.316   1.027 -0.1619  0.1679 -0.0074
  854MOL0     C17755  13.372   3.468   1.020 -0.4085  0.2610  0.6468
  854MOL0     C17756  13.493   3.531   0.953 -0.3885 -0.8497 -0.0734
  854MOL0     C17757  13.475   3.682   0.941  0.6002  0.1631 -0.1831
  854MOL0     C17758  13.492   3.726   0.802 -0.2256 -0.1328 -0.4663
  854MOL0    Cl17759  13.642   3.676   0.727 -0.0067 -0.4627  0.4819
  854MOL0     C17760  13.012   2.831   1.341 -0.5560 -0.3566 -0.3385
  854MOL0     C17761  12.943   2.720   1.387  0.5867  1.2329  0.0048
  854MOL0     O17762  12.997   2.498   1.622 -0.8882 -0.6266  0.3731
  854MOL0     C17763  12.783   2.382   1.743  0.5225 -0.0972 -0.1350
  854MOL0     C17764  12.703   2.286   1.807  0.8520  0.1658 -1.1713
  854MOL0     N17765  12.084   2.135   2.208 -0.0040  1.0961  0.2794
  854MOL0     N17766  11.999   2.219   2.247 -0.3347 -0.2935  0.0135
  854MOL0     C17767  11.263   2.754   2.651  0.0193 -0.1378  0.4924
  854MOL0     C17768  11.210   2.885   2.627  0.0091  0.3773 -0.2070
  854MOL0     C17769  10.944   3.260   2.769  1.3886 -0.4924  1.1001
  854MOL0     C17770  10.815   3.282   2.806  0.9208 -0.2877 -0.5433
  854MOL0     C17771  10.754   3.407   2.816  1.0473 -0.1701 -0.1510
  854MOL0     C17772  10.830   3.520   2.805 -0.3489 -0.3588  0.1979
  854MOL0     O17773  10.774   3.647   2.815 -0.2224  0.2103  0.0854
  854MOL0     C17774  10.769   3.717   2.692  0.4819  0.1836  0.1992
  854MOL0     C17775  10.660   3.661   2.605 -0.5961  0.1115  0.0938
  854MOL0     C17776  10.522   3.670   2.678  0.2054  0.5266  0.0220
  854MOL0     C17777  10.406   3.609   2.601 -0.6395  0.9387 -0.8484
  854MOL0     C17778  10.418   3.463   2.586 -1.2911  0.8989 -0.7542
  854MOL0     C17779  10.406   3.343   2.560 -0.0686 -1.0844  1.1076
  854MOL0     C17780  10.962   3.506   2.772  0.4669  0.3664  0.4323
  854MOL0     C17781  11.022   3.380   2.759  0.8268 -0.3200  1.1080
  854MOL0     C17782  11.175   3.394   2.758  0.1032  0.4561  0.3397
  854MOL0     H17783  11.205   3.002   2.940 -0.0247  0.4621 -0.7164
  854MOL0     H17784  11.279   2.756   2.984  2.2986  0.0432 -0.4203
  854MOL0     H17785  11.466   2.542   2.920 -1.3999 -0.4239 -0.1775
  854MOL0     H17786  11.508   2.619   2.768 -0.8026  1.2816  1.4715
  854MOL0     H17787  11.583   2.382   2.815 -0.4954  0.8030  1.2699
  854MOL0     H17788  11.417   2.326   2.806  3.3564 -1.7087  3.1534
  854MOL0     H17789  11.392   2.414   2.580 -0.5387 -0.3778  0.8368
  854MOL0     H17790  11.556   2.461   2.567 -0.8315  0.8414  0.7210
  854MOL0     H17791  11.630   2.210   2.623  0.4847  2.0553  2.1751
  854MOL0     H17792  11.458   2.175   2.630 -0.8932 -0.3559 -1.4831
  854MOL0     H17793  11.446   2.260   2.377  0.9740  0.5846 -1.0310
  854MOL0     H17794  11.539   2.114   2.398 -0.9865  0.2911 -1.6188
  854MOL0     H17795  11.673   2.376   2.388  0.1232  0.0907  0.9748
  854MOL0     H17796  11.752   2.221   2.394 -0.0302  0.9174 -0.6705
  854MOL0     H17797  11.573   2.295   2.170  0.1780  3.4288  3.1089
  854MOL0     H17798  11.667   2.148   2.170 -1.2733 -0.6509  2.9661
  854MOL0     H17799  11.768   2.351   2.042 -0.2856  0.1858  0.1828
  854MOL0     H17800  11.815   2.408   2.204  2.2257 -1.6651  0.3919
  854MOL0     H17801  11.870   2.111   1.960  0.9060  0.0391 -1.3187
  854MOL0     H17802  12.045   1.940   1.929 -1.3934  0.7244  0.9221
  854MOL0     H17803  12.178   1.919   2.048  1.8683  2.0905  1.0854
  854MOL0     H17804  12.181   2.162   1.862 -2.4336 -1.3159  0.2561
  854MOL0     H17805  12.297   2.112   1.981  0.6074  1.0361 -1.1076
  854MOL0     H17806  12.365   1.905   1.879  1.0483  2.4161  1.4231
  854MOL0     H17807  12.259   1.939   1.738  2.2239  0.7707 -2.5459
  854MOL0     H17808  12.449   2.001   1.663  1.6911  0.4033  0.2177
  854MOL0     H17809  12.349   2.145   1.689  0.1556  0.5534  0.4486
  854MOL0     H17810  12.549   2.149   1.556 -0.3143  0.4085  1.3890
  854MOL0     H17811  12.676   2.369   1.335 -2.2782 -0.1982 -0.4822
  854MOL0     H17812  12.643   2.197   1.361  1.1316 -0.9472  0.3651
  854MOL0     H17813  12.815   2.260   1.355  0.3582  1.9997  0.7503
  854MOL0     H17814  13.138   2.476   1.262  2.7728  1.0488 -0.1502
  854MOL0     H17815  13.274   2.666   1.193  1.6379 -3.0242  1.6326
  854MOL0     H17816  13.104   3.053   1.116  1.0413  2.5948 -1.0168
  854MOL0     H17817  13.131   3.102   1.283 -1.4014  3.0774 -2.4589
  854MOL0     H17818  13.375   3.128   1.227  0.2520  0.8776 -0.9440
  854MOL0     H17819  13.336   3.065   1.061  1.1954  3.0474 -1.6988
  854MOL0     H17820  13.226   3.320   1.179  0.3583  2.5991 -2.0041
  854MOL0     H17821  13.185   3.243   1.020 -1.0697 -0.1889  0.1112
  854MOL0     H17822  13.374   3.272   0.927 -2.1290 -1.4169  0.7294
  854MOL0     H17823  13.474   3.292   1.077 -0.7257  1.7976  1.9525
  854MOL0     H17824  13.281   3.492   0.964 -1.6600 -2.1738  1.4601
  854MOL0     H17825  13.347   3.520   1.113 -2.0798 -0.5213  0.6737
  854MOL0     H17826  13.539   3.483   0.866  1.1112 -0.9231  0.7311
  854MOL0     H17827  13.573   3.510   1.025 -0.0808 -2.7495 -0.9160
  854MOL0     H17828  13.534   3.741   1.011 -4.3085  4.2542  1.1321
  854MOL0     H17829  13.374   3.717   0.966  0.7728  0.3127  0.3171
  854MOL0     H17830  13.499   3.835   0.809  0.3807 -0.2887  2.4357
  854MOL0     H17831  13.398   3.706   0.751 -1.7022  1.8699  1.2757
  854MOL0     H17832  12.953   2.920   1.359 -2.5245 -1.8694  1.1407
  854MOL0     H17833  12.847   2.732   1.435 -0.6163  0.3769 -2.0600
  854MOL0     H17834  12.846   2.444   1.806 -1.3021  1.2731  0.4248
  854MOL0     H17835  12.706   2.271   1.915  1.7001  0.5625 -1.1308
  854MOL0     H17836  11.277   2.690   2.564  1.7569  2.2584 -1.1051
  854MOL0     H17837  11.177   2.917   2.529 -0.3113  2.3024  0.4824
  854MOL0     H17838  10.753   3.197   2.835 -2.7336  1.3572 -2.7759
  854MOL0     H17839  10.651   3.427   2.842  0.6460  3.5874 -3.5459
  854MOL0     H17840  10.745   3.822   2.711 -0.0830  0.0845  0.0495
  854MOL0     H17841  10.866   3.710   2.643 -0.1861  1.2805 -1.3521
  854MOL0     H17842  10.683   3.559   2.575 -3.4751 -0.7249  0.4506
  854MOL0     H17843  10.651   3.720   2.514  2.4182  0.2192 -0.2467
  854MOL0     H17844  10.527   3.619   2.775  0.5278  2.9979  1.3982
  854MOL0     H17845  10.506   3.777   2.696  0.2085  0.3521  1.1502
  854MOL0     H17846  10.396   3.658   2.504  0.4413  0.8279 -1.0202
  854MOL0     H17847  10.311   3.627   2.654 -0.8409 -1.4881 -0.2994
  854MOL0     H17848  10.376   3.247   2.524 -1.0849 -0.2708 -0.3065
  854MOL0     H17849  11.014   3.602   2.779  2.8804 -0.9195  1.3617
  854MOL0     H17850  11.221   3.351   2.847 -0.6696  1.4073  1.2288
  854MOL0     H17851  11.232   3.344   2.679  0.5457  1.2344  0.1520
  854MOL0     H17852  11.202   3.500   2.756 -0.8060  0.6977 -0.1381
  855MOL0     O17853   4.938  10.411   5.421 -0.4227 -0.6359  0.1061
  855MOL0     C17854   5.029  10.327   5.437  0.7630 -0.7158  0.8446
  855MOL0     O17855   5.160  10.358   5.446 -0.7310  0.1159  0.2696
  855MOL0     C17856   5.206  10.443   5.356  0.4728 -0.3459  0.4820
  855MOL0     C17857   5.161  10.449   5.224 -0.4917  0.3123  0.2160
  855MOL0     C17858   5.223  10.535   5.133 -0.2168 -0.1352  0.2576
  855MOL0     C17859   5.322  10.621   5.169 -0.2869 -0.3768  0.3441
  855MOL0     O17860   5.370  10.713   5.074  0.1425 -0.4557 -0.0673
  855MOL0     C17861   5.487  10.792   5.102 -0.5017 -0.0395 -0.1548
  855MOL0     C17862   5.527  10.869   4.976  0.6641  0.2473  0.0241
  855MOL0     C17863   5.662  10.934   5.007  0.3934  0.2218 -0.5416
  855MOL0     C17864   5.701  11.010   4.887  1.2832 -0.2566 -0.7778
  855MOL0     C17865   5.840  11.076   4.907  0.1528 -0.6664  0.5223
  855MOL0     C17866   5.966  10.982   4.933 -0.3973 -0.0062 -0.3032
  855MOL0     C17867   5.998  10.893   4.810 -0.1709  0.1798 -0.1052
  855MOL0     C17868   6.147  10.836   4.828  0.3320 -0.6716  1.9585
  855MOL0     N17869   6.258  10.932   4.848  0.7129 -0.0117 -0.2209
  855MOL0     C17870   6.286  11.042   4.773  0.0588  0.2591  0.6802
  855MOL0     C17871   6.394  11.110   4.828 -0.2343 -0.1583  0.6215
  855MOL0     C17872   6.447  11.239   4.781  0.5848  0.5682 -0.6109
  855MOL0     C17873   6.401  11.351   4.869 -0.1414 -1.1766  0.1371
  855MOL0     C17874   6.420  11.497   4.806  0.8171 -0.3291 -0.3943
  855MOL0     C17875   6.561  11.549   4.774  0.4411  0.2043  1.8794
  855MOL0     O17876   6.638  11.565   4.884  0.1393 -0.5750 -0.6427
  855MOL0     C17877   6.768  11.603   4.858  0.2261 -0.3350 -0.1343
  855MOL0     C17878   6.866  11.511   4.871 -0.4211  0.2009 -0.1139
  855MOL0     C17879   7.007  11.552   4.854  0.1031  0.9813  0.3459
  855MOL0     C17880   7.105  11.442   4.878 -0.3365  0.0585 -1.2292
  855MOL0     C17881   7.042  11.680   4.823 -0.2840  0.5742  0.8692
  855MOL0     C17882   7.182  11.730   4.815 -0.3803 -0.4269  0.5767
  855MOL0     O17883   7.283  11.681   4.896  0.0643  0.6151 -0.1160
  855MOL0     C17884   7.414  11.699   4.856  0.8048  0.2615 -0.7662
  855MOL0     C17885   7.454  11.649   4.728  0.0861 -0.2954 -0.7638
  855MOL0     C17886   7.580  11.688   4.687 -0.6494  0.1726 -0.3221
  855MOL0     C17887   7.662  11.778   4.760 -0.4307 -0.7490 -0.1442
  855MOL0     O17888   7.772  11.827   4.699 -0.0157 -0.1851 -0.2517
  855MOL0     C17889   7.879  11.741   4.661  0.4882  0.3767  0.8141
  855MOL0     C17890   7.949  11.726   4.794 -0.3682  0.2690  0.3836
  855MOL0     C17891   8.071  11.639   4.785  1.0277 -0.7230 -0.8494
  855MOL0     C17892   8.195  11.710   4.729  0.2542  0.2889  0.6957
  855MOL0     C17893   8.314  11.609   4.734 -0.4090 -0.3259 -0.5338
  855MOL0     C17894   8.306  11.499   4.626  0.2340  0.2933 -0.8164
  855MOL0     C17895   8.293  11.348   4.679  0.0794 -0.1796  0.5847
  855MOL0     C17896   8.221  11.269   4.572 -0.2354  0.2346 -0.7908
  855MOL0    Cl17897   8.065  11.332   4.513  0.3213  0.3871 -1.0882
  855MOL0     C17898   7.619  11.830   4.885  0.7311  0.1137  0.2150
  855MOL0     C17899   7.497  11.786   4.932 -0.6036  0.0699 -0.1520
  855MOL0     O17900   7.202  11.805   4.724  0.0972 -0.8038 -0.3769
  855MOL0     C17901   6.937  11.769   4.799  0.9594 -0.0658 -0.8619
  855MOL0     C17902   6.800  11.726   4.811  0.5163 -0.7129  0.3023
  855MOL0     N17903   6.442  11.037   4.929 -0.6560  0.6700  0.2295
  855MOL0     N17904   6.357  10.930   4.940 -0.0384 -0.5613  0.0447
  855MOL0     C17905   5.368  10.616   5.300 -0.2086  0.7500  0.1272
  855MOL0     C17906   5.318  10.519   5.386  0.0067 -1.3180  0.2796
  855MOL0     C17907   4.994  10.189   5.481 -0.7760 -0.1917 -0.1968
  855MOL0     C17908   5.096  10.109   5.541  0.2022  0.4301 -0.4302
  855MOL0     C17909   5.063   9.993   5.608 -0.6761  0.2570 -0.2111
  855MOL0     C17910   4.935   9.943   5.620 -0.5195 -0.5027  0.0543
  855MOL0     O17911   4.899   9.827   5.684 -0.1140  0.0012  0.0058
  855MOL0     C17912   4.997   9.721   5.681  0.5367  0.5620  0.0415
  855MOL0     C17913   4.926   9.597   5.739 -0.2548 -0.1361 -0.9122
  855MOL0     C17914   4.990   9.471   5.677 -0.1667 -0.5453 -0.7737
  855MOL0     C17915   4.912   9.345   5.716 -0.1413  0.0095  0.1486
  855MOL0     C17916   4.978   9.218   5.691  0.3247 -0.3711 -0.4160
  855MOL0     C17917   5.039   9.123   5.658  0.6157  0.1175 -0.8626
  855MOL0     C17918   4.842  10.007   5.547 -0.3083  0.1647  0.4526
  855MOL0     C17919   4.865  10.127   5.481  0.0804 -0.5028  0.1819
  855MOL0     C17920   4.744  10.205   5.435 -0.6428  0.0548  0.9454
  855MOL0     H17921   5.086  10.382   5.183 -0.3747  1.0306 -1.2186
  855MOL0     H17922   5.200  10.535   5.027  2.9115  1.3890 -0.5437
  855MOL0     H17923   5.567  10.726   5.136 -1.4365 -0.8040  0.6600
  855MOL0     H17924   5.471  10.867   5.180  0.4344  0.5014 -0.4841
  855MOL0     H17925   5.539  10.821   4.879  1.0132 -0.5442  0.4458
  855MOL0     H17926   5.442  10.934   4.953 -0.4137 -1.3600 -0.7101
  855MOL0     H17927   5.639  10.984   5.101 -0.8505 -1.2725 -0.0231
  855MOL0     H17928   5.740  10.862   5.032 -1.2167 -0.3622  3.5256
  855MOL0     H17929   5.699  10.943   4.801 -1.8976  1.2758 -2.0591
  855MOL0     H17930   5.628  11.084   4.854  2.8288  1.2336 -1.0233
  855MOL0     H17931   5.835  11.162   4.975  0.2289  1.0068 -1.4817
  855MOL0     H17932   5.850  11.118   4.807  1.1908  1.5633  1.4976
  855MOL0     H17933   6.051  11.045   4.962  0.2541 -0.2110 -1.6906
  855MOL0     H17934   5.946  10.927   5.026 -0.3451  0.9787  0.3060
  855MOL0     H17935   5.990  10.956   4.722  1.9892  3.6966  1.9764
  855MOL0     H17936   5.923  10.814   4.817 -2.4808  2.0921 -1.8203
  855MOL0     H17937   6.131  10.761   4.906 -1.1545 -0.9558  1.4070
  855MOL0     H17938   6.169  10.785   4.735 -1.8692  1.3779  0.1841
  855MOL0     H17939   6.239  11.087   4.686 -0.4421  0.4617  1.0570
  855MOL0     H17940   6.421  11.265   4.678  2.5563  0.6065 -1.1340
  855MOL0     H17941   6.556  11.234   4.772  0.8709  2.5332  0.9804
  855MOL0     H17942   6.297  11.326   4.888 -0.3296 -1.3539 -1.0515
  855MOL0     H17943   6.453  11.345   4.965  0.2176  0.4295  0.0816
  855MOL0     H17944   6.364  11.497   4.712  1.2409 -0.0294 -0.6519
  855MOL0     H17945   6.369  11.565   4.874 -0.2157  0.5364 -1.9570
  855MOL0     H17946   6.606  11.480   4.702 -3.5668  0.0203 -0.8305
  855MOL0     H17947   6.544  11.633   4.705 -1.1816 -3.3797 -2.5949
  855MOL0     H17948   6.845  11.409   4.901  0.0066  0.6999  2.0760
  855MOL0     H17949   7.138  11.439   4.983  1.6951 -2.2298 -1.8227
  855MOL0     H17950   7.197  11.460   4.822 -0.1332 -2.3915 -1.8075
  855MOL0     H17951   7.076  11.339   4.856 -1.6368 -0.1126  0.9436
  855MOL0     H17952   7.383  11.595   4.667 -0.4509  2.2257 -2.5425
  855MOL0     H17953   7.613  11.651   4.590  2.2147  1.5149  0.0404
  855MOL0     H17954   7.846  11.649   4.612  0.6215  0.7920 -0.0788
  855MOL0     H17955   7.955  11.798   4.606  1.3098 -1.1298  0.3104
  855MOL0     H17956   7.979  11.823   4.836  0.5619  0.3836 -0.5012
  855MOL0     H17957   7.892  11.666   4.865 -1.5215 -3.3927 -3.2866
  855MOL0     H17958   8.048  11.552   4.722  3.4384 -0.7945 -1.7519
  855MOL0     H17959   8.095  11.619   4.890 -0.2527  0.2786 -0.3387
  855MOL0     H17960   8.216  11.793   4.797 -3.3058  0.9801  1.1326
  855MOL0     H17961   8.183  11.746   4.627  3.7730  2.0343  0.7525
  855MOL0     H17962   8.402  11.670   4.707 -0.3052 -0.8539 -1.4377
  855MOL0     H17963   8.328  11.565   4.833  1.8635  0.4592 -0.4227
  855MOL0     H17964   8.396  11.503   4.564 -0.5181  2.0855 -1.8906
  855MOL0     H17965   8.215  11.511   4.566  1.1934  0.8228 -2.2276
  855MOL0     H17966   8.242  11.343   4.776  3.6132 -0.2042  2.6468
  855MOL0     H17967   8.396  11.314   4.695  0.9805  2.6245  1.4556
  855MOL0     H17968   8.206  11.171   4.617 -3.1049  0.5092 -1.0104
  855MOL0     H17969   8.283  11.266   4.482  1.3777 -0.0750  0.2906
  855MOL0     H17970   7.681  11.906   4.931  1.0280  0.6366 -1.0134
  855MOL0     H17971   7.457  11.832   5.023 -1.1136 -0.6446 -0.0028
  855MOL0     H17972   6.967  11.870   4.775  0.8990 -0.0433 -0.8415
  855MOL0     H17973   6.719  11.790   4.779 -0.1437 -1.3084  0.7330
  855MOL0     H17974   5.435  10.695   5.331  0.7319 -0.1731  0.5210
  855MOL0     H17975   5.372  10.508   5.480  1.0889  0.1639 -0.1395
  855MOL0     H17976   5.198  10.147   5.544  0.0717  1.0126 -2.1425
  855MOL0     H17977   5.146   9.943   5.657 -0.8067  1.6400  1.5649
  855MOL0     H17978   5.036   9.717   5.579 -1.3545  0.2964 -0.7077
  855MOL0     H17979   5.084   9.739   5.744  2.1638  2.1106 -2.4696
  855MOL0     H17980   4.819   9.592   5.713 -0.4453 -0.3912 -0.0962
  855MOL0     H17981   4.927   9.599   5.848  0.0924  0.2343 -0.9216
  855MOL0     H17982   4.992   9.477   5.567 -2.7550  0.3493 -0.8631
  855MOL0     H17983   5.090   9.455   5.717 -0.8472  0.4893  1.4962
  855MOL0     H17984   4.823   9.340   5.653 -0.1079  2.4297 -0.1874
  855MOL0     H17985   4.866   9.349   5.816 -0.5241  0.5782 -0.0499
  855MOL0     H17986   5.099   9.040   5.628 -0.9753 -0.2665 -3.1985
  855MOL0     H17987   4.747   9.954   5.549 -0.0345 -0.4128 -0.6642
  855MOL0     H17988   4.769  10.235   5.333  0.6844 -0.4755  1.1008
  855MOL0     H17989   4.658  10.138   5.437  1.2063 -2.5412 -0.4475
  855MOL0     H17990   4.731  10.290   5.502 -4.1567 -0.1324  0.7247
  856MOL0     O17991   4.737   5.335   0.666 -0.2170 -0.0425 -0.4686
  856MOL0     C17992   4.669   5.239   0.666 -0.6048  0.3711  1.4038
  856MOL0     O17993   4.705   5.127   0.596  0.0642 -0.2665  0.3760
  856MOL0     C17994   4.829   5.087   0.560 -0.6266 -0.4912  0.1563
  856MOL0     C17995   4.834   4.986   0.470 -0.5616  0.2782 -0.0282
  856MOL0     C17996   4.958   4.940   0.427 -0.0070  0.0938 -0.4137
  856MOL0     C17997   5.076   4.994   0.474 -0.4235 -0.2399  0.2592
  856MOL0     O17998   5.196   4.939   0.431  0.7637  0.1796 -1.3911
  856MOL0     C17999   5.258   5.037   0.352 -0.8654  0.1213  0.6619
  856MOL0     C18000   5.410   5.014   0.358  0.2777  0.4875  0.1713
  856MOL0     C18001   5.472   5.087   0.242 -0.0688 -1.0960 -0.2788
  856MOL0     C18002   5.623   5.095   0.273 -0.5189  0.4519 -0.4486
  856MOL0     C18003   5.701   5.137   0.146 -0.2645  0.1572  0.5692
  856MOL0     C18004   5.846   5.139   0.191  0.1495 -0.0827  0.8649
  856MOL0     C18005   5.879   5.274   0.250  0.1258 -0.8907  0.5785
  856MOL0     C18006   6.030   5.278   0.285  1.0066 -0.4236 -0.5190
  856MOL0     N18007   6.119   5.359   0.197 -0.1519  0.6760 -0.0941
  856MOL0     C18008   6.143   5.320   0.071  0.1649  0.3740  0.2027
  856MOL0     C18009   6.249   5.403   0.027 -0.7343  1.1038  0.3918
  856MOL0     C18010   6.330   5.405  -0.105  0.2148 -0.0667  0.4832
  856MOL0     C18011   6.421   5.288  -0.131 -0.1541  0.3363  0.6569
  856MOL0     C18012   6.539   5.279  -0.025 -0.4490  0.1950  0.0432
  856MOL0     C18013   6.626   5.400  -0.025 -0.5290  0.1907  0.0033
  856MOL0     O18014   6.751   5.391   0.053  0.2587  0.0990  0.6088
  856MOL0     C18015   6.746   5.425   0.190 -0.0136  0.5412  0.3642
  856MOL0     C18016   6.629   5.425   0.266 -0.0399 -0.8849  0.5693
  856MOL0     C18017   6.632   5.455   0.402  0.6852 -0.0700  0.3048
  856MOL0     C18018   6.507   5.444   0.478  0.0021 -0.4273 -0.5298
  856MOL0     C18019   6.753   5.487   0.470 -0.3239 -0.0467  0.6126
  856MOL0     C18020   6.785   5.521   0.611  0.0156 -0.2211 -1.0251
  856MOL0     O18021   6.716   5.451   0.697 -0.2087  0.2036 -0.5067
  856MOL0     C18022   6.729   5.479   0.832 -0.0456 -0.6300  0.1650
  856MOL0     C18023   6.615   5.498   0.918 -0.0235 -0.4253  0.4923
  856MOL0     C18024   6.633   5.529   1.056  0.0650  0.3555 -0.4726
  856MOL0     C18025   6.754   5.536   1.115 -0.1167  0.2041 -0.3632
  856MOL0     O18026   6.746   5.575   1.243 -0.2698  0.3276  0.1585
  856MOL0     C18027   6.864   5.575   1.328 -0.0110  0.2723  0.5491
  856MOL0     C18028   6.808   5.608   1.468  0.1390 -0.0343 -0.0787
  856MOL0     C18029   6.730   5.485   1.514 -0.1097 -0.1902 -0.1708
  856MOL0     C18030   6.675   5.518   1.655  0.2798  1.5389  0.0885
  856MOL0     C18031   6.612   5.391   1.730 -0.2698  0.2627  0.3584
  856MOL0     C18032   6.492   5.326   1.654 -0.4699 -0.4518  0.1417
  856MOL0     C18033   6.360   5.396   1.673  0.2194 -0.6511  0.1245
  856MOL0     C18034   6.285   5.353   1.795 -0.5350  0.0131 -0.3423
  856MOL0    Cl18035   6.114   5.398   1.775  0.0666 -0.2829 -0.3070
  856MOL0     C18036   6.871   5.522   1.035  0.3726  0.5139 -0.5791
  856MOL0     C18037   6.853   5.486   0.899  0.2140  0.5131  0.1284
  856MOL0     O18038   6.863   5.618   0.639 -0.2745 -0.4223 -0.2529
  856MOL0     C18039   6.866   5.495   0.384 -0.2151 -0.1647 -0.2704
  856MOL0     C18040   6.863   5.462   0.247  0.7221 -0.4418  0.5274
  856MOL0     N18041   6.284   5.488   0.134  0.8185  0.4214 -0.1414
  856MOL0     N18042   6.198   5.462   0.230 -0.3937  0.3212  0.0183
  856MOL0     C18043   5.077   5.097   0.576  0.0877 -0.2094  0.5157
  856MOL0     C18044   4.953   5.143   0.617  0.2359  0.7666  0.1952
  856MOL0     C18045   4.532   5.241   0.714 -0.5968 -1.0539 -0.3122
  856MOL0     C18046   4.434   5.142   0.677  0.0974  0.6019 -0.0860
  856MOL0     C18047   4.304   5.150   0.707 -0.1407  0.5954  0.2344
  856MOL0     C18048   4.260   5.243   0.800  0.1848 -0.3302 -0.3667
  856MOL0     O18049   4.130   5.250   0.836 -0.8998 -0.4890  0.0732
  856MOL0     C18050   4.075   5.284   0.957  0.4301  1.2509 -0.2446
  856MOL0     C18051   3.926   5.264   0.956 -0.1288  0.8740 -0.1837
  856MOL0     C18052   3.869   5.293   1.088  0.3925 -0.6231  0.3605
  856MOL0     C18053   3.724   5.241   1.091 -0.0419 -0.0218 -0.0877
  856MOL0     C18054   3.641   5.293   0.982  0.2453 -0.1485  1.1285
  856MOL0     C18055   3.566   5.336   0.893  0.4042 -0.3593 -0.2398
  856MOL0     C18056   4.357   5.330   0.853 -0.4826  0.0538 -0.1329
  856MOL0     C18057   4.492   5.338   0.807 -0.0817  0.3994 -0.0300
  856MOL0     C18058   4.576   5.454   0.866  0.7277  0.0823  0.0734
  856MOL0     H18059   4.739   4.947   0.435  0.1934 -0.6083 -1.1725
  856MOL0     H18060   4.967   4.866   0.349 -0.7783 -0.9686  0.4760
  856MOL0     H18061   5.232   5.142   0.363  1.5376  1.0262 -1.4483
  856MOL0     H18062   5.226   5.016   0.250 -1.2454 -1.3791  1.0662
  856MOL0     H18063   5.445   5.055   0.453  2.6791  0.0067 -0.4497
  856MOL0     H18064   5.439   4.910   0.375 -1.0085  0.5464  3.3232
  856MOL0     H18065   5.443   5.034   0.151 -2.8993 -0.2058  0.0268
  856MOL0     H18066   5.427   5.186   0.226 -1.0268 -1.8774 -2.8215
  856MOL0     H18067   5.626   5.171   0.351 -2.5647  0.4477 -0.3202
  856MOL0     H18068   5.643   4.992   0.305 -2.3088  0.3092  0.3080
  856MOL0     H18069   5.668   5.235   0.110 -1.6483  0.4679  2.5214
  856MOL0     H18070   5.683   5.065   0.066 -1.9282 -0.2376  1.2646
  856MOL0     H18071   5.863   5.068   0.272 -1.5884 -0.1208  1.2313
  856MOL0     H18072   5.909   5.127   0.102 -1.1455  0.3624 -0.1411
  856MOL0     H18073   5.822   5.297   0.341 -1.3435 -1.6767 -0.1100
  856MOL0     H18074   5.853   5.349   0.175  3.6329 -1.5006 -1.4300
  856MOL0     H18075   6.037   5.313   0.388 -1.7139  1.5032 -0.8717
  856MOL0     H18076   6.071   5.178   0.297  0.1718 -0.6762  0.3238
  856MOL0     H18077   6.084   5.251   0.012  1.7724  0.6670 -1.8440
  856MOL0     H18078   6.385   5.499  -0.104 -0.1000  0.1308  2.2127
  856MOL0     H18079   6.263   5.420  -0.190  0.8400 -0.0559 -0.0211
  856MOL0     H18080   6.354   5.201  -0.132 -2.7309  2.1279 -1.9817
  856MOL0     H18081   6.465   5.297  -0.231 -1.7106  0.2731 -0.0663
  856MOL0     H18082   6.490   5.268   0.072 -0.3555  2.2705  0.3690
  856MOL0     H18083   6.601   5.188  -0.027  1.3204  1.2463  2.2669
  856MOL0     H18084   6.636   5.429  -0.130 -0.8438 -2.7466 -0.9387
  856MOL0     H18085   6.576   5.490   0.013 -2.0819  0.4478 -2.4304
  856MOL0     H18086   6.532   5.404   0.221 -0.2980 -1.2115  1.2655
  856MOL0     H18087   6.500   5.528   0.548 -2.9158 -1.4940  0.5949
  856MOL0     H18088   6.491   5.347   0.525 -5.3050  2.0067  3.7788
  856MOL0     H18089   6.429   5.471   0.406 -0.3014  0.9925  0.3041
  856MOL0     H18090   6.514   5.488   0.882 -0.0647  1.0909  0.0869
  856MOL0     H18091   6.548   5.541   1.123  2.6597 -0.1073  3.1813
  856MOL0     H18092   6.907   5.475   1.338 -0.7778  0.0294  1.5588
  856MOL0     H18093   6.941   5.647   1.298  1.6312 -1.1951  1.0361
  856MOL0     H18094   6.887   5.640   1.538  1.3081 -1.5501 -0.6466
  856MOL0     H18095   6.732   5.686   1.461  1.0283  0.8827  0.1536
  856MOL0     H18096   6.805   5.406   1.518 -0.6471 -0.6449  1.9764
  856MOL0     H18097   6.660   5.448   1.438  0.4581 -1.4524 -0.1011
  856MOL0     H18098   6.586   5.580   1.640 -1.9111 -1.3332  0.1661
  856MOL0     H18099   6.748   5.572   1.715  0.9689  0.1007  0.5985
  856MOL0     H18100   6.699   5.324   1.735  0.6996  1.2610 -1.9469
  856MOL0     H18101   6.581   5.415   1.833 -0.5502  1.3778  0.0261
  856MOL0     H18102   6.485   5.224   1.691 -1.5865  0.7304  3.5661
  856MOL0     H18103   6.508   5.329   1.546  3.2109 -0.1120  0.5505
  856MOL0     H18104   6.299   5.355   1.593  1.2994 -2.1516  0.0286
  856MOL0     H18105   6.367   5.505   1.668  0.3197 -0.4804  2.5276
  856MOL0     H18106   6.334   5.387   1.886 -1.2927  2.3230 -0.7265
  856MOL0     H18107   6.286   5.244   1.804 -0.6124 -0.1458 -1.9583
  856MOL0     H18108   6.969   5.532   1.079 -0.5359 -1.8133  2.2603
  856MOL0     H18109   6.945   5.476   0.843 -0.0662 -1.1692 -0.0859
  856MOL0     H18110   6.965   5.525   0.417 -0.3062 -0.2294  0.0651
  856MOL0     H18111   6.956   5.471   0.192  0.4550 -0.9732 -0.0342
  856MOL0     H18112   5.174   5.137   0.603 -0.0657 -0.2865  1.1900
  856MOL0     H18113   4.953   5.233   0.678  3.0364  1.2159 -0.3392
  856MOL0     H18114   4.451   5.062   0.606 -2.2185  0.6402 -0.7597
  856MOL0     H18115   4.232   5.075   0.675  1.6494 -2.3435  2.5708
  856MOL0     H18116   4.126   5.223   1.033 -1.0008  1.6191  1.0577
  856MOL0     H18117   4.099   5.389   0.975 -0.1715  1.5591 -1.2325
  856MOL0     H18118   3.899   5.163   0.923 -1.1198  0.8268  0.7113
  856MOL0     H18119   3.882   5.338   0.888 -2.9578  0.5669  1.1717
  856MOL0     H18120   3.926   5.254   1.173  1.4976  1.8686  0.8383
  856MOL0     H18121   3.865   5.401   1.099 -0.0942 -0.4575 -1.2408
  856MOL0     H18122   3.675   5.256   1.187  4.2819 -0.1574  2.4030
  856MOL0     H18123   3.728   5.133   1.075  0.4968 -0.0461  0.1866
  856MOL0     H18124   3.507   5.383   0.816  0.0412 -1.0025 -0.3674
  856MOL0     H18125   4.328   5.399   0.932  0.3617  2.3724 -1.7472
  856MOL0     H18126   4.509   5.519   0.923 -0.5926  1.6546 -3.0163
  856MOL0     H18127   4.639   5.398   0.935  1.8595  2.7739  1.3608
  856MOL0     H18128   4.625   5.517   0.792 -0.3654 -0.1288 -0.8585
  857MOL0     O18129  10.469   4.930   8.562 -0.7315  0.2225  0.2857
  857MOL0     C18130  10.427   4.895   8.672 -0.5944  0.1642  0.4226
  857MOL0     O18131  10.502   4.850   8.770  0.2771 -0.8849  0.1412
  857MOL0     C18132  10.644   4.845   8.761 -0.1852  0.3317 -0.0099
  857MOL0     C18133  10.714   4.769   8.669 -0.4186 -0.2623 -0.6360
  857MOL0     C18134  10.855   4.763   8.665  0.1439  0.1960 -0.4674
  857MOL0     C18135  10.931   4.845   8.745  0.6478  0.6330 -0.0225
  857MOL0     O18136  11.067   4.840   8.753  0.3859  0.3529  0.8428
  857MOL0     C18137  11.154   4.768   8.657  0.8055 -0.1798  0.3787
  857MOL0     C18138  11.168   4.833   8.517 -0.4064 -0.4048 -0.2517
  857MOL0     C18139  11.231   4.969   8.545 -0.2181  0.5713  0.0728
  857MOL0     C18140  11.260   5.028   8.414 -0.1232  0.3385  0.2189
  857MOL0     C18141  11.342   5.161   8.407 -0.0112 -0.6474 -0.3298
  857MOL0     C18142  11.490   5.143   8.446 -0.5666  0.2659  0.1554
  857MOL0     C18143  11.578   5.048   8.384 -0.0579  0.2069 -0.4318
  857MOL0     C18144  11.732   5.076   8.383  0.1745  0.2881 -0.0589
  857MOL0     N18145  11.779   5.156   8.260 -0.3367 -0.0778  0.4465
  857MOL0     C18146  11.782   5.116   8.122  0.5382 -0.2295 -0.1304
  857MOL0     C18147  11.885   5.188   8.066  0.6772  0.5221 -0.8781
  857MOL0     C18148  11.923   5.181   7.922 -0.3176  0.1129 -0.5906
  857MOL0     C18149  12.026   5.069   7.893  0.4443 -0.3546 -0.4629
  857MOL0     C18150  12.083   5.070   7.748  0.1285  1.0050  0.4137
  857MOL0     C18151  12.201   5.160   7.719 -0.4416 -0.8222 -0.1460
  857MOL0     O18152  12.312   5.122   7.800 -0.1062  0.7511  0.9014
  857MOL0     C18153  12.427   5.190   7.784 -1.1395 -0.0280 -0.4146
  857MOL0     C18154  12.532   5.148   7.868 -0.2498 -0.5889  0.2171
  857MOL0     C18155  12.651   5.217   7.887  0.1087 -1.0045  0.3630
  857MOL0     C18156  12.741   5.174   8.007  0.4533  0.6313  0.8015
  857MOL0     C18157  12.679   5.327   7.799  0.1637  0.4175  0.1349
  857MOL0     C18158  12.802   5.413   7.791 -0.4175 -0.3188  1.1687
  857MOL0     O18159  12.789   5.544   7.750  0.0983  0.8889  0.6994
  857MOL0     C18160  12.891   5.630   7.771  0.2864 -0.9393  0.6754
  857MOL0     C18161  12.907   5.677   7.905 -0.2584  0.9134  0.8178
  857MOL0     C18162  13.018   5.759   7.931  0.7397 -0.0844  0.8369
  857MOL0     C18163  13.115   5.781   7.833 -0.9480  0.5170 -0.9025
  857MOL0     O18164  13.233   5.852   7.861  0.1481  0.3362 -1.0141
  857MOL0     C18165  13.331   5.874   7.763  0.4215 -0.6937  0.0080
  857MOL0     C18166  13.433   5.955   7.839  0.1969  0.5091  1.1818
  857MOL0     C18167  13.555   5.974   7.745 -0.2001  0.0021  0.5323
  857MOL0     C18168  13.668   6.054   7.815  0.2404  0.5750  0.0061
  857MOL0     C18169  13.790   6.083   7.718  0.3403  0.7175  0.4978
  857MOL0     C18170  13.848   5.960   7.656 -0.7289 -0.3624 -0.1238
  857MOL0     C18171  13.982   5.994   7.589 -0.9104  0.0544  0.5228
  857MOL0     C18172  14.041   5.865   7.533  0.3523 -0.0613 -0.7311
  857MOL0    Cl18173  14.202   5.875   7.464 -0.1632 -0.2324 -0.0817
  857MOL0     C18174  13.101   5.720   7.704 -0.5533 -0.2149  0.2747
  857MOL0     C18175  12.980   5.654   7.673 -0.0234  0.5774  0.3435
  857MOL0     O18176  12.912   5.365   7.834 -0.4034 -1.0170  0.0722
  857MOL0     C18177  12.587   5.358   7.706 -0.3997 -0.0448  0.0563
  857MOL0     C18178  12.457   5.294   7.703 -0.3946 -1.0684  0.3224
  857MOL0     N18179  11.928   5.278   8.165  0.2886  0.5692 -0.0710
  857MOL0     N18180  11.872   5.260   8.280  0.0737  0.0088  0.3760
  857MOL0     C18181  10.858   4.930   8.833 -0.7207  0.9468  0.3606
  857MOL0     C18182  10.720   4.929   8.842 -0.0042  0.0798 -0.5963
  857MOL0     C18183  10.279   4.892   8.691 -0.3786 -0.0266 -0.1815
  857MOL0     C18184  10.237   4.916   8.823 -0.3742 -0.0967 -0.5968
  857MOL0     C18185  10.102   4.936   8.853 -0.1426  0.6143  0.5655
  857MOL0     C18186  10.007   4.910   8.755 -0.1928  0.9757 -0.0295
  857MOL0     O18187   9.879   4.902   8.812 -0.4929  0.9405 -0.1341
  857MOL0     C18188   9.784   4.802   8.755  0.1698  0.9855  0.0877
  857MOL0     C18189   9.705   4.738   8.867  0.5539 -0.2251  0.4541
  857MOL0     C18190   9.797   4.647   8.952  0.4327 -0.3450  1.0441
  857MOL0     C18191   9.838   4.702   9.084 -0.8836 -0.7297  0.3564
  857MOL0     C18192   9.939   4.615   9.146 -0.0666  0.0146  0.1700
  857MOL0     C18193  10.004   4.540   9.210 -0.5964 -0.1952 -0.7107
  857MOL0     C18194  10.043   4.884   8.628  0.8082  0.6119 -0.3437
  857MOL0     C18195  10.178   4.869   8.594  0.4149  0.7212  0.3952
  857MOL0     C18196  10.204   4.837   8.452  0.6852  0.3848  0.8850
  857MOL0     H18197  10.655   4.695   8.616 -0.7425  1.8663 -3.4597
  857MOL0     H18198  10.915   4.691   8.609  0.9688  1.4611 -1.2563
  857MOL0     H18199  11.120   4.666   8.638 -2.2805  0.0191  3.6528
  857MOL0     H18200  11.258   4.767   8.689  0.8534  1.5545  0.3828
  857MOL0     H18201  11.244   4.779   8.461 -0.2685 -2.0869  1.4620
  857MOL0     H18202  11.073   4.831   8.463 -0.5040 -1.8005 -0.0605
  857MOL0     H18203  11.167   5.041   8.596  0.9447  0.8233  1.2313
  857MOL0     H18204  11.326   4.951   8.598  0.9588 -1.1807 -2.4164
  857MOL0     H18205  11.314   4.953   8.356  0.0766  1.0386 -0.5174
  857MOL0     H18206  11.161   5.040   8.370  0.3881 -0.7324 -1.2869
  857MOL0     H18207  11.296   5.249   8.455 -0.9523 -1.2603 -0.0706
  857MOL0     H18208  11.344   5.203   8.306 -2.0518 -0.8954 -0.5296
  857MOL0     H18209  11.539   5.240   8.448 -0.8250  0.3874  1.6772
  857MOL0     H18210  11.492   5.116   8.552 -0.8804  1.6084  0.5160
  857MOL0     H18211  11.543   5.029   8.282 -0.4672  1.3481 -0.5153
  857MOL0     H18212  11.567   4.955   8.441 -2.1354  1.3961  1.2302
  857MOL0     H18213  11.743   5.137   8.474 -1.5250 -1.5679  1.4838
  857MOL0     H18214  11.786   4.983   8.398 -0.6098 -0.3431 -1.0180
  857MOL0     H18215  11.724   5.033   8.083  2.4746 -1.2800 -0.9170
  857MOL0     H18216  11.966   5.278   7.895 -1.4501  1.2346  1.4098
  857MOL0     H18217  11.838   5.168   7.855  0.2657  1.7258 -1.7077
  857MOL0     H18218  12.109   5.086   7.963  1.0625  2.8045 -1.8180
  857MOL0     H18219  11.964   4.979   7.901 -1.3415  0.9816  2.6287
  857MOL0     H18220  12.105   4.965   7.731 -1.3510  0.7748 -0.2738
  857MOL0     H18221  11.997   5.096   7.686 -1.5726  1.4219  2.7875
  857MOL0     H18222  12.238   5.142   7.618  0.7439  0.3362  0.0519
  857MOL0     H18223  12.183   5.267   7.733  5.7178  0.3243  1.8437
  857MOL0     H18224  12.513   5.069   7.940 -1.2129  1.4331  2.3427
  857MOL0     H18225  12.716   5.073   8.040  0.8569  0.4980  0.6949
  857MOL0     H18226  12.701   5.233   8.090 -3.0342 -0.5950  0.1679
  857MOL0     H18227  12.848   5.183   7.990  0.5082  2.1848  1.7809
  857MOL0     H18228  12.826   5.648   7.972 -2.1810  2.1342 -0.8855
  857MOL0     H18229  13.028   5.821   8.020 -1.3189  1.2879  0.2060
  857MOL0     H18230  13.374   5.790   7.708 -0.2086 -0.7886 -0.3422
  857MOL0     H18231  13.289   5.927   7.677  1.0747 -3.1227 -1.9565
  857MOL0     H18232  13.388   6.054   7.849  0.0253  1.1124 -3.5083
  857MOL0     H18233  13.467   5.895   7.924  2.7736  0.7126  0.3713
  857MOL0     H18234  13.525   6.028   7.655  2.1660 -1.1838 -1.0491
  857MOL0     H18235  13.594   5.876   7.715 -0.0458 -0.2022  1.3783
  857MOL0     H18236  13.710   6.000   7.900 -0.2742  1.1723  0.6552
  857MOL0     H18237  13.618   6.144   7.852  0.4874  0.2979  1.0407
  857MOL0     H18238  13.759   6.142   7.631 -0.7799 -0.2503  0.2251
  857MOL0     H18239  13.860   6.145   7.776  1.6935 -0.8170  0.5725
  857MOL0     H18240  13.785   5.920   7.576  0.0437 -0.8286 -0.5180
  857MOL0     H18241  13.872   5.897   7.742 -1.2042 -0.1601  0.1596
  857MOL0     H18242  14.054   6.034   7.661 -0.8302 -1.5198  1.3413
  857MOL0     H18243  13.971   6.075   7.515  0.1186  1.6661  2.0497
  857MOL0     H18244  13.968   5.815   7.469  0.1653 -2.5047  1.2559
  857MOL0     H18245  14.042   5.801   7.621 -2.2777 -1.0898 -1.3601
  857MOL0     H18246  13.167   5.743   7.621 -0.1376  0.3370  0.7520
  857MOL0     H18247  12.955   5.627   7.571 -2.3806  0.4128  0.8967
  857MOL0     H18248  12.588   5.441   7.636 -1.0417  0.0376  0.1350
  857MOL0     H18249  12.383   5.351   7.647 -0.8263  2.3163  3.9040
  857MOL0     H18250  10.920   4.983   8.905  0.6918 -1.4506  1.0156
  857MOL0     H18251  10.667   4.997   8.908  0.5566 -0.6771  0.6784
  857MOL0     H18252  10.313   4.927   8.900  0.4475 -2.2382 -1.0472
  857MOL0     H18253  10.066   4.955   8.953 -0.3039  2.3648  0.2010
  857MOL0     H18254   9.714   4.855   8.690 -0.4591  0.9571  0.7164
  857MOL0     H18255   9.845   4.731   8.698  2.7566  2.8315  0.3981
  857MOL0     H18256   9.624   4.677   8.827  1.2735 -0.8319 -0.1055
  857MOL0     H18257   9.656   4.808   8.936 -1.4190 -0.8425 -0.2792
  857MOL0     H18258   9.743   4.555   8.974 -2.5660  0.6644 -1.3574
  857MOL0     H18259   9.884   4.615   8.893  0.0377  2.2084 -1.1513
  857MOL0     H18260   9.749   4.700   9.148  1.7308 -0.1056  4.3677
  857MOL0     H18261   9.876   4.805   9.079 -0.7677 -0.7653  0.5167
  857MOL0     H18262  10.061   4.457   9.246 -3.6495 -2.7733 -1.3508
  857MOL0     H18263   9.967   4.854   8.557  1.0868  0.6442 -0.6585
  857MOL0     H18264  10.126   4.781   8.400  0.4575  2.4103 -1.1046
  857MOL0     H18265  10.229   4.927   8.395 -1.9880  0.9039  0.3757
  857MOL0     H18266  10.295   4.776   8.456  0.0115 -0.5918  3.8331
  858MOL0     O18267   9.571   0.599   5.230 -0.4156  0.1075 -0.3720
  858MOL0     C18268   9.496   0.526   5.155 -1.0828 -1.3630 -0.6944
  858MOL0     O18269   9.541   0.447   5.052 -0.1392 -0.1552  0.8669
  858MOL0     C18270   9.672   0.439   5.027 -1.1138  0.8457 -0.2668
  858MOL0     C18271   9.746   0.324   5.078  0.6499 -0.7208  0.0088
  858MOL0     C18272   9.883   0.320   5.055 -0.9083 -0.6687 -0.2211
  858MOL0     C18273   9.952   0.415   4.974  0.6814  0.6672  0.1777
  858MOL0     O18274  10.086   0.408   4.962 -0.6512  0.0025  0.5403
  858MOL0     C18275  10.159   0.525   5.002  0.7975  0.1083  0.7052
  858MOL0     C18276  10.171   0.503   5.154 -0.1377 -0.7723  0.2829
  858MOL0     C18277  10.293   0.572   5.210  0.6268 -0.6274  0.0856
  858MOL0     C18278  10.425   0.507   5.178  0.3742 -0.0412 -0.3238
  858MOL0     C18279  10.542   0.534   5.267 -0.1999  0.5019  0.8562
  858MOL0     C18280  10.591   0.680   5.267 -0.4304  0.5695  0.0140
  858MOL0     C18281  10.649   0.716   5.406 -0.2831  0.1344  0.0149
  858MOL0     C18282  10.685   0.868   5.413  0.1215 -0.2887 -0.3388
  858MOL0     N18283  10.815   0.896   5.363 -0.1482  0.5054 -0.2118
  858MOL0     C18284  10.935   0.872   5.419 -0.4543 -0.5318  0.0092
  858MOL0     C18285  11.029   0.932   5.343  0.1247 -0.1524 -0.2896
  858MOL0     C18286  11.173   0.923   5.367 -0.0960  0.7305  0.1096
  858MOL0     C18287  11.210   0.942   5.512  0.1840  0.3969  0.7278
  858MOL0     C18288  11.170   1.081   5.565  0.0049 -0.2048  0.2801
  858MOL0     C18289  11.185   1.116   5.716  0.5414  0.2244 -0.4430
  858MOL0     O18290  11.114   1.025   5.799 -0.3320  0.2835  0.7133
  858MOL0     C18291  10.980   1.001   5.805  0.3967 -0.4243 -0.2745
  858MOL0     C18292  10.893   1.108   5.765 -0.6823  0.1692  0.5502
  858MOL0     C18293  10.754   1.079   5.754  0.5962  0.0671  0.2325
  858MOL0     C18294  10.673   1.204   5.736 -0.8838  0.1168 -0.6890
  858MOL0     C18295  10.702   0.956   5.792 -0.2630  0.1121  0.3616
  858MOL0     C18296  10.560   0.925   5.791 -0.4754 -0.2620  0.1960
  858MOL0     O18297  10.490   0.920   5.669  0.9342 -0.1514  0.2319
  858MOL0     C18298  10.356   0.892   5.670  0.2958  0.2281 -0.9218
  858MOL0     C18299  10.317   0.760   5.679  0.2571 -0.2170  0.0340
  858MOL0     C18300  10.186   0.721   5.684 -0.0872 -1.4665 -0.3210
  858MOL0     C18301  10.087   0.816   5.688 -0.8909 -0.5324 -0.4660
  858MOL0     O18302   9.956   0.768   5.681 -0.3700  0.4841  0.2267
  858MOL0     C18303   9.843   0.862   5.679 -0.1830  0.1466  0.6737
  858MOL0     C18304   9.714   0.787   5.714  0.1209 -0.2597 -0.2778
  858MOL0     C18305   9.587   0.872   5.686 -0.4466 -0.9135  0.1734
  858MOL0     C18306   9.464   0.792   5.647 -0.1926 -0.2336 -0.2396
  858MOL0     C18307   9.350   0.904   5.614  0.8134 -0.0542 -1.2524
  858MOL0     C18308   9.222   0.828   5.623  0.2434 -0.6250  0.0788
  858MOL0     C18309   9.105   0.893   5.529 -1.2393  0.3370 -0.5185
  858MOL0     C18310   8.991   0.800   5.540 -0.4211 -0.0637  0.3574
  858MOL0    Cl18311   8.860   0.879   5.451  0.0178 -0.0013  0.1138
  858MOL0     C18312  10.128   0.951   5.671 -0.0087  0.2970  0.0503
  858MOL0     C18313  10.263   0.994   5.666  0.5838  0.3585 -0.1283
  858MOL0     O18314  10.512   0.927   5.900 -0.4287  0.0887 -0.7704
  858MOL0     C18315  10.793   0.853   5.814 -0.7328 -1.1821 -0.8082
  858MOL0     C18316  10.925   0.878   5.837  0.0206 -0.2880  1.1741
  858MOL0     N18317  10.965   0.989   5.238  0.5169 -0.4484  1.1475
  858MOL0     N18318  10.835   0.979   5.256  0.5072 -0.2734 -0.2213
  858MOL0     C18319   9.876   0.523   4.925 -0.0031 -0.2900  0.4796
  858MOL0     C18320   9.741   0.538   4.960 -0.2212  0.6889 -0.6123
  858MOL0     C18321   9.354   0.523   5.187 -0.6103  0.0143 -0.5982
  858MOL0     C18322   9.256   0.581   5.107  0.3096  0.0639 -0.0344
  858MOL0     C18323   9.120   0.579   5.125  0.2889  0.3026 -0.0766
  858MOL0     C18324   9.074   0.521   5.242  0.5738  0.6351 -0.1696
  858MOL0     O18325   8.941   0.502   5.261  0.1010 -0.1818  0.1187
  858MOL0     C18326   8.891   0.415   5.364  0.2108  0.4610 -1.0694
  858MOL0     C18327   8.752   0.372   5.314 -0.3234 -0.2023 -0.1823
  858MOL0     C18328   8.710   0.246   5.394 -0.7101 -0.1419  0.2196
  858MOL0     C18329   8.566   0.199   5.359  0.6730  0.6566 -0.1088
  858MOL0     C18330   8.461   0.276   5.436  0.5752  0.4205 -0.0902
  858MOL0     C18331   8.384   0.325   5.524 -0.0408 -0.5471  0.7506
  858MOL0     C18332   9.172   0.469   5.330  1.6798  0.4620  0.2789
  858MOL0     C18333   9.305   0.462   5.305 -0.0962  0.1687 -0.5232
  858MOL0     C18334   9.404   0.413   5.406  1.0314 -0.0967  0.3765
  858MOL0     H18335   9.695   0.241   5.127  2.0558 -0.6318  1.7224
  858MOL0     H18336   9.942   0.233   5.085  3.2632  1.7405 -0.6941
  858MOL0     H18337  10.116   0.619   4.967  0.8476 -0.3908 -0.7831
  858MOL0     H18338  10.250   0.521   4.942 -0.2750 -0.5956 -0.9537
  858MOL0     H18339  10.080   0.539   5.202  1.3950 -0.7099  3.4293
  858MOL0     H18340  10.186   0.397   5.178 -0.2264 -0.6385  0.9447
  858MOL0     H18341  10.286   0.680   5.196 -0.9391 -0.9559 -2.3399
  858MOL0     H18342  10.291   0.558   5.318 -0.0704  2.8564  0.6458
  858MOL0     H18343  10.419   0.398   5.177  2.8751 -0.2733  1.0194
  858MOL0     H18344  10.455   0.537   5.077  2.6955  1.5136  0.7342
  858MOL0     H18345  10.622   0.463   5.247  0.8132  1.6760  0.5888
  858MOL0     H18346  10.525   0.511   5.373  1.3267  1.5189  1.3655
  858MOL0     H18347  10.672   0.697   5.195  1.2075 -4.8373  0.1563
  858MOL0     H18348  10.500   0.741   5.261 -1.5039 -0.9374  0.4900
  858MOL0     H18349  10.739   0.658   5.429  0.0963  0.7542  0.1003
  858MOL0     H18350  10.586   0.693   5.492  0.6781  1.3748  1.0847
  858MOL0     H18351  10.615   0.934   5.360  2.6337  1.2103 -2.0029
  858MOL0     H18352  10.675   0.890   5.520 -0.3591  0.6618 -0.5626
  858MOL0     H18353  10.962   0.834   5.517  0.5304 -0.4392 -0.2119
  858MOL0     H18354  11.219   0.997   5.301  0.8737  0.3219  0.3124
  858MOL0     H18355  11.202   0.823   5.334 -1.4345  0.3667 -0.0105
  858MOL0     H18356  11.166   0.864   5.575 -1.3542 -0.4691 -1.2977
  858MOL0     H18357  11.319   0.929   5.507  0.0362 -0.7581  0.0244
  858MOL0     H18358  11.228   1.156   5.512 -0.0254 -0.6380 -0.3758
  858MOL0     H18359  11.065   1.101   5.539  0.6220  1.3686 -1.1606
  858MOL0     H18360  11.293   1.119   5.732  0.7288 -2.0396 -0.8913
  858MOL0     H18361  11.151   1.217   5.737 -1.2431  0.0382 -2.1604
  858MOL0     H18362  10.935   1.204   5.738 -0.0163  0.0997  1.2832
  858MOL0     H18363  10.614   1.203   5.643 -1.2863 -0.7731 -0.4263
  858MOL0     H18364  10.738   1.292   5.730  0.4607 -0.6739  1.3901
  858MOL0     H18365  10.609   1.220   5.823  0.2107 -3.1993  0.8736
  858MOL0     H18366  10.399   0.689   5.688  2.6210  2.4384  0.6100
  858MOL0     H18367  10.182   0.613   5.672  1.6511 -1.8120  1.7080
  858MOL0     H18368   9.861   0.949   5.743 -0.6515 -0.2361  1.3396
  858MOL0     H18369   9.843   0.903   5.578  4.7289  1.3786  0.9326
  858MOL0     H18370   9.713   0.693   5.657  0.2972 -0.6013  0.2704
  858MOL0     H18371   9.706   0.761   5.820 -2.7267  2.0132  0.2112
  858MOL0     H18372   9.604   0.947   5.608 -2.3701 -1.6904 -1.0572
  858MOL0     H18373   9.566   0.933   5.774 -2.2477 -0.3504 -0.6027
  858MOL0     H18374   9.444   0.721   5.728  0.0728  1.1302  1.0716
  858MOL0     H18375   9.477   0.722   5.564 -0.0502 -0.1052 -0.3248
  858MOL0     H18376   9.352   0.990   5.682  1.1989 -0.0777 -1.2329
  858MOL0     H18377   9.359   0.946   5.514 -0.4141 -1.2006 -1.8808
  858MOL0     H18378   9.190   0.817   5.726  1.5276 -2.1933  0.3448
  858MOL0     H18379   9.240   0.727   5.585  1.6237 -1.1608  2.0187
  858MOL0     H18380   9.142   0.911   5.427  0.0609  0.2995 -0.0783
  858MOL0     H18381   9.076   0.990   5.571  0.3375  1.6062 -2.1333
  858MOL0     H18382   8.964   0.784   5.644 -0.2469 -0.6155  0.3239
  858MOL0     H18383   9.015   0.703   5.495 -3.1950 -0.3297 -0.7403
  858MOL0     H18384  10.070   1.042   5.679  3.2002  2.5563 -0.2966
  858MOL0     H18385  10.304   1.095   5.662  0.1148  0.6650  1.6074
  858MOL0     H18386  10.758   0.755   5.845  2.5335 -2.3312 -0.3437
  858MOL0     H18387  10.984   0.791   5.862  0.3060 -0.7272 -0.8671
  858MOL0     H18388   9.922   0.594   4.857 -0.4584 -1.2995 -0.9138
  858MOL0     H18389   9.682   0.623   4.927  0.1276  0.9136 -0.6752
  858MOL0     H18390   9.276   0.636   5.015 -2.2501  0.3600 -0.4786
  858MOL0     H18391   9.053   0.625   5.053 -2.0580 -1.2260  0.9614
  858MOL0     H18392   8.960   0.332   5.383 -0.6740 -0.8917 -3.3863
  858MOL0     H18393   8.876   0.471   5.456  0.1526  0.6913 -1.2172
  858MOL0     H18394   8.758   0.341   5.209 -0.5416 -1.9132  0.2849
  858MOL0     H18395   8.684   0.456   5.331  0.5365  0.8822 -1.7114
  858MOL0     H18396   8.784   0.171   5.365  2.3164  3.1369 -1.2671
  858MOL0     H18397   8.717   0.261   5.502 -0.9775  2.3514 -0.0494
  858MOL0     H18398   8.555   0.092   5.382 -0.3672  0.9010  0.6225
  858MOL0     H18399   8.544   0.218   5.254 -2.8901 -1.3726  0.0959
  858MOL0     H18400   8.324   0.358   5.606 -0.2576 -1.1614  0.8361
  858MOL0     H18401   9.129   0.428   5.421 -0.4523 -2.3777 -1.7970
  858MOL0     H18402   9.442   0.494   5.468  2.5069  1.0813 -1.9196
  858MOL0     H18403   9.344   0.345   5.469 -1.7941  0.0810 -1.8838
  858MOL0     H18404   9.485   0.358   5.358  1.5666  1.5336 -0.6278
  859MOL0     O18405   7.748   1.564  10.957 -0.0333 -0.3620 -0.4259
  859MOL0     C18406   7.718   1.450  10.937 -0.3286  0.6034  0.4431
  859MOL0     O18407   7.809   1.347  10.916  0.3566 -0.1187 -0.6988
  859MOL0     C18408   7.939   1.371  10.932  0.2084 -0.2065  0.2616
  859MOL0     C18409   8.004   1.345  11.054 -0.1388  0.4373  0.2517
  859MOL0     C18410   8.143   1.376  11.059 -0.6568  0.6766 -0.2028
  859MOL0     C18411   8.215   1.429  10.955 -0.0177 -0.5094 -0.3318
  859MOL0     O18412   8.352   1.449  10.950  0.0790 -0.3707  0.1313
  859MOL0     C18413   8.425   1.402  11.063 -0.4168 -0.1173  0.3692
  859MOL0     C18414   8.573   1.438  11.033  0.5200 -0.7287 -0.0874
  859MOL0     C18415   8.659   1.349  11.129  0.0039 -0.2282  0.7371
  859MOL0     C18416   8.804   1.387  11.131 -0.2857 -0.1785  0.9288
  859MOL0     C18417   8.869   1.274  11.209 -0.1019 -0.4270 -0.8592
  859MOL0     C18418   9.023   1.310  11.213 -0.0555 -0.9511  0.2659
  859MOL0     C18419   9.108   1.229  11.310  0.9998  0.1765 -0.0123
  859MOL0     C18420   9.245   1.289  11.318 -0.2269 -0.9839 -0.4312
  859MOL0     N18421   9.323   1.231  11.433 -0.5188 -0.0477  0.4903
  859MOL0     C18422   9.304   1.126  11.510 -0.5234 -0.0226 -0.5806
  859MOL0     C18423   9.407   1.118  11.594  0.1392 -0.8611 -0.2240
  859MOL0     C18424   9.432   1.022  11.705 -0.6427  0.3645  1.1542
  859MOL0     C18425   9.495   0.895  11.650 -0.5303 -0.3414 -0.5461
  859MOL0     C18426   9.648   0.927  11.620 -0.0049  0.6695 -0.1879
  859MOL0     C18427   9.719   0.812  11.551 -0.3559  0.4997 -0.7797
  859MOL0     O18428   9.782   0.717  11.641 -0.1586  0.0131  0.1720
  859MOL0     C18429   9.882   0.650  11.582  0.3704  0.9569 -0.5582
  859MOL0     C18430   9.897   0.619  11.446 -1.2838 -0.2974 -0.5704
  859MOL0     C18431  10.003   0.540  11.401 -0.9709  0.2194 -0.4298
  859MOL0     C18432  10.022   0.533  11.250 -0.7581 -0.3859  0.2624
  859MOL0     C18433  10.092   0.469  11.483 -0.8626  0.3166 -0.7787
  859MOL0     C18434  10.184   0.357  11.440 -0.6856  0.6012 -0.6878
  859MOL0     O18435  10.265   0.310  11.541  0.4110  0.3624 -0.3400
  859MOL0     C18436  10.387   0.277  11.496 -0.2027  0.1357  0.6397
  859MOL0     C18437  10.451   0.152  11.540  1.2154 -0.0347  0.1515
  859MOL0     C18438  10.590   0.134  11.501  0.1047 -0.0891 -0.2717
  859MOL0     C18439  10.655   0.225  11.423 -0.2530  1.2461  0.1545
  859MOL0     O18440  10.791   0.223  11.386 -0.0395 -0.0573  0.4395
  859MOL0     C18441  10.864   0.107  11.424 -0.4846 -0.4877 -0.0462
  859MOL0     C18442  11.011   0.114  11.391 -0.2049  0.3200  1.1716
  859MOL0     C18443  11.092   0.223  11.448 -0.5923 -0.1944  0.2362
  859MOL0     C18444  11.233   0.184  11.446 -0.5349  0.3126  0.3768
  859MOL0     C18445  11.319   0.271  11.538  0.6697 -0.0510 -0.1883
  859MOL0     C18446  11.472   0.237  11.526 -1.6352 -0.9741 -0.6979
  859MOL0     C18447  11.568   0.318  11.617  0.5761  0.2845  0.2541
  859MOL0     C18448  11.701   0.252  11.606 -0.1491  0.4472  1.2145
  859MOL0    Cl18449  11.805   0.345  11.713  0.0102  0.0389  0.6408
  859MOL0     C18450  10.589   0.340  11.382 -0.3345 -0.3897 -0.5579
  859MOL0     C18451  10.456   0.365  11.418 -0.4420 -0.1902  0.5484
  859MOL0     O18452  10.174   0.304  11.330 -0.5529 -0.5070  0.1252
  859MOL0     C18453  10.062   0.489  11.624  0.2406  0.0444 -0.1301
  859MOL0     C18454   9.961   0.576  11.672  0.2410  0.3021  0.0226
  859MOL0     N18455   9.498   1.220  11.560  0.9149  0.2724 -0.7213
  859MOL0     N18456   9.445   1.286  11.460  0.7587 -0.5157 -0.4389
  859MOL0     C18457   8.149   1.471  10.841  0.1465  0.1288 -1.1272
  859MOL0     C18458   8.011   1.445  10.832  0.6016  0.2090 -0.4546
  859MOL0     C18459   7.573   1.419  10.935 -0.1534  0.2357  0.1987
  859MOL0     C18460   7.542   1.293  10.881 -0.2599  0.0075  0.9692
  859MOL0     C18461   7.413   1.245  10.862  0.4004 -0.6130  0.3228
  859MOL0     C18462   7.305   1.324  10.911  0.6172 -0.2446  0.3843
  859MOL0     O18463   7.176   1.288  10.891  0.3306  0.1528  0.0275
  859MOL0     C18464   7.135   1.173  10.813 -0.1440  0.8004  0.0784
  859MOL0     C18465   6.987   1.180  10.765  0.0226  0.4629 -1.0313
  859MOL0     C18466   6.930   1.035  10.742  0.7035 -1.4862  0.1546
  859MOL0     C18467   6.775   1.037  10.726  0.5423  0.7109 -0.7529
  859MOL0     C18468   6.703   1.040  10.858 -0.8501  0.6555  0.2703
  859MOL0     C18469   6.638   1.044  10.961  0.0401 -0.2462 -0.4133
  859MOL0     C18470   7.329   1.447  10.968 -0.3628  0.8158  0.1242
  859MOL0     C18471   7.462   1.493  10.973 -0.1273 -1.1498  0.1911
  859MOL0     C18472   7.476   1.633  11.024  0.0955 -0.1878 -0.3640
  859MOL0     H18473   7.937   1.309  11.132 -0.3567 -1.4038 -0.7194
  859MOL0     H18474   8.187   1.346  11.154  1.6473  1.1743 -1.0356
  859MOL0     H18475   8.414   1.294  11.061  0.8741 -0.2793  0.8968
  859MOL0     H18476   8.392   1.437  11.162 -1.4241  0.0595 -0.0168
  859MOL0     H18477   8.603   1.419  10.930 -1.8031 -0.0156 -0.9331
  859MOL0     H18478   8.579   1.546  11.047 -5.0958  0.5266 -4.0761
  859MOL0     H18479   8.614   1.362  11.227 -4.0540  0.1491 -0.9846
  859MOL0     H18480   8.641   1.243  11.107 -2.1409  0.1468  0.5207
  859MOL0     H18481   8.835   1.386  11.026 -0.4536 -1.0289  0.8795
  859MOL0     H18482   8.820   1.489  11.165 -1.2664  2.1980 -4.6605
  859MOL0     H18483   8.868   1.183  11.149 -2.0210 -1.2489  0.3528
  859MOL0     H18484   8.818   1.262  11.305  3.1720 -1.3759  0.9320
  859MOL0     H18485   9.065   1.311  11.111 -1.4349 -1.9367 -0.3429
  859MOL0     H18486   9.018   1.414  11.244 -0.4850 -0.5073 -1.1871
  859MOL0     H18487   9.119   1.129  11.267 -0.4279  1.1712 -2.9903
  859MOL0     H18488   9.062   1.210  11.407 -0.1467  1.6842 -0.2283
  859MOL0     H18489   9.286   1.271  11.218 -0.4374 -1.3194 -0.4588
  859MOL0     H18490   9.226   1.394  11.340  3.4897 -0.4411  0.8704
  859MOL0     H18491   9.216   1.064  11.522  1.1297 -1.9497  3.5025
  859MOL0     H18492   9.332   1.002  11.744 -2.5621  0.1895 -3.2641
  859MOL0     H18493   9.493   1.071  11.781  0.6711  0.7319 -0.0932
  859MOL0     H18494   9.490   0.819  11.729 -0.9132 -0.8015 -1.0125
  859MOL0     H18495   9.447   0.872  11.555  0.1672 -0.1437 -0.9513
  859MOL0     H18496   9.652   1.014  11.554 -1.6579 -0.4242 -1.8442
  859MOL0     H18497   9.697   0.955  11.714 -0.3047 -3.3081  1.3623
  859MOL0     H18498   9.644   0.761  11.491 -1.2931  1.5070 -0.5075
  859MOL0     H18499   9.799   0.862  11.496 -0.1119 -3.1333 -4.2137
  859MOL0     H18500   9.838   0.666  11.367 -0.2514 -0.3530 -1.3980
  859MOL0     H18501  10.127   0.541  11.223 -1.3801 -1.6413 -2.9586
  859MOL0     H18502   9.965   0.610  11.196  0.4156  0.0968 -0.3138
  859MOL0     H18503   9.983   0.434  11.224 -3.3796  0.7907 -0.6198
  859MOL0     H18504  10.390   0.088  11.602  0.7489  1.9930  1.9019
  859MOL0     H18505  10.642   0.049  11.543 -1.1443 -0.9445 -0.4017
  859MOL0     H18506  10.852   0.094  11.532  4.4702 -1.0392  0.6686
  859MOL0     H18507  10.832   0.014  11.376 -1.0129  0.0892 -0.8294
  859MOL0     H18508  11.049   0.018  11.427 -0.8631  0.1441  1.4074
  859MOL0     H18509  11.003   0.126  11.282  1.4551 -4.5654  0.2546
  859MOL0     H18510  11.062   0.245  11.551  0.1707 -3.1726  1.2137
  859MOL0     H18511  11.074   0.321  11.403  1.4274  1.7884  3.4084
  859MOL0     H18512  11.274   0.202  11.346  0.9561  2.3265  1.3030
  859MOL0     H18513  11.255   0.085  11.487  0.2266  0.5427  0.5404
  859MOL0     H18514  11.308   0.377  11.516 -0.7926 -0.2376 -0.4692
  859MOL0     H18515  11.293   0.251  11.642  2.2911  1.3823  0.5495
  859MOL0     H18516  11.493   0.265  11.423 -1.4973  0.6083 -0.2661
  859MOL0     H18517  11.484   0.128  11.529  1.3138 -0.6954  0.2667
  859MOL0     H18518  11.528   0.300  11.717 -3.0622 -1.6795 -1.3581
  859MOL0     H18519  11.561   0.426  11.597  0.8739 -0.0427 -1.8467
  859MOL0     H18520  11.733   0.254  11.501 -1.2423 -1.9532  0.7720
  859MOL0     H18521  11.710   0.151  11.647  0.8391 -1.0843 -2.3602
  859MOL0     H18522  10.648   0.412  11.327  0.6647  0.3763  1.4346
  859MOL0     H18523  10.419   0.455  11.368  1.2107 -1.8528 -4.2800
  859MOL0     H18524  10.119   0.421  11.687 -2.6346 -3.2373 -0.7271
  859MOL0     H18525   9.947   0.567  11.780  1.1130  3.5819  0.5403
  859MOL0     H18526   8.206   1.522  10.765 -2.1508 -0.3678 -3.3530
  859MOL0     H18527   7.960   1.476  10.741  2.4277 -0.9094 -1.9361
  859MOL0     H18528   7.623   1.234  10.838 -0.9661  0.0542 -0.4659
  859MOL0     H18529   7.387   1.152  10.814 -0.9857 -0.8017  1.4044
  859MOL0     H18530   7.197   1.177  10.723  0.2569 -1.5960  0.1743
  859MOL0     H18531   7.155   1.077  10.862  0.1172  1.1395  0.6447
  859MOL0     H18532   6.982   1.226  10.667 -1.6588  1.5423 -0.4851
  859MOL0     H18533   6.931   1.246  10.832  1.9611  3.2467 -1.9716
  859MOL0     H18534   6.973   0.989  10.653 -0.8404 -0.8288 -0.9859
  859MOL0     H18535   6.959   0.959  10.816  0.6515 -2.0428 -0.3834
  859MOL0     H18536   6.744   0.947  10.672  0.4742  2.3807 -3.7215
  859MOL0     H18537   6.744   1.130  10.679  0.4151  1.4730  0.7879
  859MOL0     H18538   6.579   1.049  11.051 -1.1913  1.0644 -1.2458
  859MOL0     H18539   7.251   1.517  10.995  0.3883  1.4319  0.7680
  859MOL0     H18540   7.547   1.635  11.107  0.7691 -1.2536 -0.8846
  859MOL0     H18541   7.516   1.695  10.944 -1.5606 -0.6878 -1.6357
  859MOL0     H18542   7.383   1.681  11.055  0.2340 -1.1245  1.6765
  860MOL0     O18543  10.898  10.042   3.634  0.4649  0.0795  0.0552
  860MOL0     C18544  10.879   9.924   3.644  1.0704 -0.1550 -0.3901
  860MOL0     O18545  10.947   9.834   3.722  0.2575 -0.3738  0.1027
  860MOL0     C18546  11.047   9.871   3.810  0.7231  0.5699  0.7181
  860MOL0     C18547  11.021   9.854   3.948  0.1950 -0.1403 -0.4335
  860MOL0     C18548  11.111   9.890   4.044 -0.5233 -0.1474 -0.5292
  860MOL0     C18549  11.231   9.955   4.003  0.1507  0.2238  0.4693
  860MOL0     O18550  11.324   9.997   4.093  0.1572  0.2994  0.2245
  860MOL0     C18551  11.433  10.089   4.054 -0.1283 -0.0286  0.9410
  860MOL0     C18552  11.501  10.140   4.186  0.0642  0.2858  0.4561
  860MOL0     C18553  11.568  10.281   4.163 -0.1576  0.3048 -0.7187
  860MOL0     C18554  11.681  10.260   4.065  0.9295  0.7163 -0.5396
  860MOL0     C18555  11.740  10.402   4.022 -0.0464 -0.2735  0.6321
  860MOL0     C18556  11.655  10.452   3.899 -0.2082  0.1330 -0.2059
  860MOL0     C18557  11.719  10.402   3.768  0.2044  0.7039  0.6402
  860MOL0     C18558  11.632  10.419   3.638 -0.7439  0.3402  0.3598
  860MOL0     N18559  11.517  10.329   3.642  0.2397 -0.4522  0.3570
  860MOL0     C18560  11.384  10.366   3.625  0.1953 -0.2861  0.3933
  860MOL0     C18561  11.322  10.248   3.613 -0.7688 -0.1694 -0.1688
  860MOL0     C18562  11.177  10.219   3.576  0.0307 -0.1683  0.5052
  860MOL0     C18563  11.113  10.288   3.448  0.0630 -0.5199  0.0874
  860MOL0     C18564  11.036  10.420   3.480  0.0902 -0.9369  0.3179
  860MOL0     C18565  10.900  10.389   3.538  0.3889  0.6159 -0.3908
  860MOL0     O18566  10.806  10.332   3.438  0.2269  0.1731 -0.0280
  860MOL0     C18567  10.669  10.315   3.462  0.0514  0.2216 -0.4524
  860MOL0     C18568  10.600  10.343   3.579  0.3032  0.2298 -0.8423
  860MOL0     C18569  10.456  10.325   3.583  0.5129 -0.3674 -0.1584
  860MOL0     C18570  10.393  10.370   3.713  0.4063 -0.0336  0.7746
  860MOL0     C18571  10.388  10.277   3.468  0.5777  0.5801 -0.5063
  860MOL0     C18572  10.240  10.241   3.468  0.6921 -0.2351 -0.7638
  860MOL0     O18573  10.176  10.232   3.348 -0.5249  0.4138 -0.0030
  860MOL0     C18574  10.050  10.177   3.334  1.4052 -0.5724  0.5098
  860MOL0     C18575  10.005  10.056   3.376  1.0388 -0.4932 -0.0028
  860MOL0     C18576   9.873  10.016   3.345 -1.0274 -0.0137  0.4428
  860MOL0     C18577   9.783  10.099   3.274  0.5940  0.1586 -0.1556
  860MOL0     O18578   9.665  10.050   3.240  0.6084 -0.4244  0.4048
  860MOL0     C18579   9.567  10.089   3.336  0.5358  0.0282  0.1587
  860MOL0     C18580   9.432  10.033   3.291  0.3760 -0.2570 -0.7929
  860MOL0     C18581   9.313  10.101   3.365 -0.4199  1.5335 -0.2685
  860MOL0     C18582   9.176  10.066   3.299 -0.0231  0.3205 -0.1399
  860MOL0     C18583   9.073  10.162   3.355 -0.8921  0.2025 -0.5371
  860MOL0     C18584   9.038  10.145   3.507 -0.4810  0.0402  0.1486
  860MOL0     C18585   9.004  10.006   3.553 -0.6364  0.0663  0.4823
  860MOL0     C18586   8.868   9.958   3.493 -0.2015 -0.3475 -0.5077
  860MOL0    Cl18587   8.798   9.831   3.594 -0.2573  0.2615  0.1733
  860MOL0     C18588   9.827  10.220   3.237 -0.0875 -0.3821  0.2762
  860MOL0     C18589   9.962  10.263   3.259  0.5737 -0.0049  0.0206
  860MOL0     O18590  10.197  10.203   3.581  0.3307 -0.5704  0.2721
  860MOL0     C18591  10.458  10.253   3.352  0.0064  0.7511 -0.6144
  860MOL0     C18592  10.594  10.276   3.353 -0.9254 -0.1755  0.2948
  860MOL0     N18593  11.406  10.147   3.640 -0.4148  0.5913 -0.3273
  860MOL0     N18594  11.517  10.195   3.658 -0.6147  0.1623  0.6767
  860MOL0     C18595  11.263   9.948   3.866 -0.4347 -0.3401  0.2388
  860MOL0     C18596  11.173   9.915   3.771  0.1347  0.1714  0.0943
  860MOL0     C18597  10.754   9.874   3.569 -0.7183  0.3243  0.7314
  860MOL0     C18598  10.645   9.961   3.542 -0.0248 -0.6424 -0.5027
  860MOL0     C18599  10.528   9.930   3.483 -0.6080 -0.2877 -0.6869
  860MOL0     C18600  10.504   9.802   3.434 -0.2886  0.1925 -0.2528
  860MOL0     O18601  10.388   9.790   3.361  0.0135 -0.6607 -0.6016
  860MOL0     C18602  10.378   9.676   3.274  0.1445  0.1583  0.4818
  860MOL0     C18603  10.257   9.702   3.177  0.0162 -0.0911  0.4870
  860MOL0     C18604  10.168   9.574   3.171 -0.1730  0.7429 -0.0310
  860MOL0     C18605  10.086   9.568   3.046 -0.2584 -0.2052 -0.0200
  860MOL0     C18606   9.993   9.683   3.029 -0.2979  0.0905 -0.2590
  860MOL0     C18607   9.927   9.785   3.039  1.2533  0.9680 -0.0161
  860MOL0     C18608  10.599   9.704   3.468 -0.1208 -0.2539  0.0720
  860MOL0     C18609  10.724   9.735   3.535  0.4308  0.2849 -0.0064
  860MOL0     C18610  10.819   9.618   3.566  0.5864  0.7545 -0.2451
  860MOL0     H18611  10.932   9.801   3.981 -1.0561  2.2386  0.2524
  860MOL0     H18612  11.093   9.884   4.151 -0.9333  0.8223 -0.5315
  860MOL0     H18613  11.375  10.171   4.011  1.4919 -0.3062 -2.0782
  860MOL0     H18614  11.496  10.043   3.977 -1.2217  0.1527 -0.0953
  860MOL0     H18615  11.422  10.159   4.258  0.6199  2.7321  0.5181
  860MOL0     H18616  11.574  10.062   4.212 -0.6590 -0.6024 -0.1025
  860MOL0     H18617  11.492  10.355   4.138 -1.4115 -0.6229  0.2119
  860MOL0     H18618  11.620  10.318   4.252  0.4971  0.2953 -1.0889
  860MOL0     H18619  11.767  10.204   4.102  0.2925 -0.8362 -1.3389
  860MOL0     H18620  11.644  10.213   3.973 -0.0859  2.7263 -1.2406
  860MOL0     H18621  11.848  10.404   4.008  0.1013  0.7324  1.7621
  860MOL0     H18622  11.716  10.459   4.113 -1.2413  0.1218  0.1025
  860MOL0     H18623  11.556  10.405   3.906 -0.1654  0.2112  1.1710
  860MOL0     H18624  11.644  10.561   3.901  0.9570  0.2549  0.8544
  860MOL0     H18625  11.745  10.296   3.774 -1.9860  0.0257 -0.6839
  860MOL0     H18626  11.815  10.451   3.751  0.9218 -1.0432 -0.6565
  860MOL0     H18627  11.602  10.523   3.622  1.4994  0.8578 -1.0964
  860MOL0     H18628  11.697  10.390   3.554  1.2246 -0.2497  1.9885
  860MOL0     H18629  11.333  10.461   3.614 -2.3540 -1.5942  0.1694
  860MOL0     H18630  11.110  10.237   3.660 -1.2306 -0.8346 -0.3272
  860MOL0     H18631  11.176  10.110   3.561  0.0130 -0.1744  0.5512
  860MOL0     H18632  11.193  10.305   3.375 -1.0731  1.4577 -0.7751
  860MOL0     H18633  11.048  10.217   3.395  2.6288 -1.9730 -1.3330
  860MOL0     H18634  11.091  10.473   3.558 -1.9603 -0.7375  1.7035
  860MOL0     H18635  11.014  10.489   3.398 -4.3037 -0.9766  1.1990
  860MOL0     H18636  10.909  10.311   3.614  0.1317 -1.7205 -2.6617
  860MOL0     H18637  10.851  10.480   3.576 -2.5960 -1.3917  0.9912
  860MOL0     H18638  10.649  10.403   3.654 -2.7539  1.3914  0.3853
  860MOL0     H18639  10.308  10.437   3.697  1.9864  1.9415  0.2770
  860MOL0     H18640  10.464  10.426   3.775  0.0529 -0.4469  1.5802
  860MOL0     H18641  10.374  10.280   3.772  2.0926 -0.9022  0.0460
  860MOL0     H18642  10.067   9.985   3.430 -1.6270 -3.0093 -0.0111
  860MOL0     H18643   9.842   9.915   3.368 -2.1500 -0.5246 -2.7405
  860MOL0     H18644   9.590  10.041   3.432  0.5660  0.6057  0.4406
  860MOL0     H18645   9.563  10.198   3.332  2.2894  0.4436  4.1585
  860MOL0     H18646   9.423  10.045   3.182 -0.6013  3.5582 -0.4135
  860MOL0     H18647   9.432   9.929   3.325 -1.7949 -0.5275 -1.4753
  860MOL0     H18648   9.335  10.209   3.363  0.9163  1.4063  2.5597
  860MOL0     H18649   9.299  10.058   3.465 -2.7064  1.1644 -0.6937
  860MOL0     H18650   9.162   9.960   3.324  1.4142 -0.1324 -1.1491
  860MOL0     H18651   9.196  10.074   3.191  1.4214 -2.7538 -0.2122
  860MOL0     H18652   9.111  10.264   3.342  1.4884 -0.6470 -0.7148
  860MOL0     H18653   8.984  10.143   3.294 -0.1592 -2.3470 -0.9268
  860MOL0     H18654   8.954  10.209   3.536  1.1123  0.9852  3.0680
  860MOL0     H18655   9.113  10.183   3.577 -2.7893 -1.1056  3.4589
  860MOL0     H18656   8.995  10.010   3.662  0.6634 -1.5891  0.6968
  860MOL0     H18657   9.086   9.935   3.541  1.9201  3.1546 -2.1823
  860MOL0     H18658   8.886   9.918   3.393  2.0129  1.6233 -0.9901
  860MOL0     H18659   8.805  10.047   3.486  1.4570  1.0224  1.1420
  860MOL0     H18660   9.762  10.279   3.172  2.1569  2.0738  0.0865
  860MOL0     H18661  10.015  10.354   3.230  0.9488  0.0920  0.9899
  860MOL0     H18662  10.422  10.223   3.253  1.3830 -0.7806 -0.6909
  860MOL0     H18663  10.629  10.263   3.251 -4.1950  3.1637 -1.4561
  860MOL0     H18664  11.359   9.987   3.831 -1.1169  2.4250  1.2378
  860MOL0     H18665  11.190   9.933   3.665 -0.5042  1.2500  0.1534
  860MOL0     H18666  10.639  10.059   3.589 -3.2874 -0.2777 -1.4490
  860MOL0     H18667  10.446  10.000   3.470  0.7561  1.2357 -1.4885
  860MOL0     H18668  10.475   9.675   3.224  1.5865 -1.7603  3.0714
  860MOL0     H18669  10.351   9.589   3.335 -0.8085 -0.7169 -1.1354
  860MOL0     H18670  10.292   9.733   3.078 -0.5164  4.1284  1.4137
  860MOL0     H18671  10.198   9.786   3.216 -2.3290 -0.9291 -1.0212
  860MOL0     H18672  10.232   9.485   3.163 -1.1807 -0.1660  1.5668
  860MOL0     H18673  10.112   9.570   3.264 -0.8021  2.4054 -0.3075
  860MOL0     H18674  10.034   9.473   3.036 -0.0387 -0.1945 -1.4766
  860MOL0     H18675  10.151   9.549   2.960  1.4877 -0.5515  1.3053
  860MOL0     H18676   9.857   9.867   3.039  0.0751  0.0593  2.3133
  860MOL0     H18677  10.593   9.600   3.437 -0.2713 -0.6993  1.5197
  860MOL0     H18678  10.923   9.649   3.554  0.6632  0.1335 -1.3378
  860MOL0     H18679  10.817   9.594   3.672  2.3526  3.2700  0.4510
  860MOL0     H18680  10.802   9.533   3.499 -1.4182  0.8522  0.0743
  861MOL0     O18681   2.780   5.273   0.478 -0.1697 -0.5863  0.0001
  861MOL0     C18682   2.764   5.328   0.368  0.4871  0.2105 -0.0449
  861MOL0     O18683   2.870   5.382   0.299 -0.0823  0.4059  0.4925
  861MOL0     C18684   3.002   5.373   0.336  0.3201 -0.1792 -0.4502
  861MOL0     C18685   3.059   5.477   0.411  0.8748  0.4046 -0.1914
  861MOL0     C18686   3.192   5.459   0.459 -0.5019  0.1842 -0.2614
  861MOL0     C18687   3.257   5.343   0.432 -0.4550 -0.1585  0.8967
  861MOL0     O18688   3.392   5.339   0.483 -0.2392  0.2907  0.2433
  861MOL0     C18689   3.476   5.248   0.408  0.1709  0.4151 -0.2489
  861MOL0     C18690   3.614   5.246   0.466 -0.2132  0.0840  0.1100
  861MOL0     C18691   3.687   5.382   0.456  0.7386  0.0238  0.4527
  861MOL0     C18692   3.804   5.386   0.556  0.2666 -0.0871 -0.5779
  861MOL0     C18693   3.939   5.334   0.507 -0.3541  0.6882 -0.0197
  861MOL0     C18694   3.989   5.382   0.367 -0.0793  0.4364  0.7598
  861MOL0     C18695   4.134   5.343   0.338 -0.0475 -0.0585 -0.4706
  861MOL0     C18696   4.228   5.423   0.420 -2.0678 -0.2655  0.3283
  861MOL0     N18697   4.359   5.454   0.352  0.6946  0.7770 -0.3328
  861MOL0     C18698   4.455   5.366   0.341 -1.4416  0.1049  0.4704
  861MOL0     C18699   4.547   5.425   0.263  0.3164 -0.7917  0.4243
  861MOL0     C18700   4.683   5.368   0.231  0.5067 -0.1488  0.1670
  861MOL0     C18701   4.795   5.443   0.315 -0.0703  0.0702 -0.8994
  861MOL0     C18702   4.938   5.384   0.310  1.2409  0.1142  0.0812
  861MOL0     C18703   5.046   5.488   0.362 -0.1457 -0.1717 -0.4595
  861MOL0     O18704   5.081   5.588   0.271  0.1557  0.3106  1.0129
  861MOL0     C18705   5.178   5.572   0.182 -0.9606  0.1243 -0.5499
  861MOL0     C18706   5.215   5.688   0.111  0.3023 -0.0922 -0.8483
  861MOL0     C18707   5.326   5.688   0.026  0.1122  0.7832  0.4656
  861MOL0     C18708   5.367   5.812  -0.034 -0.9845 -0.9638  0.0586
  861MOL0     C18709   5.392   5.570   0.000 -0.0385 -0.0923 -0.4476
  861MOL0     C18710   5.508   5.546  -0.090  1.4686  1.1704  0.7513
  861MOL0     O18711   5.521   5.426  -0.138  0.3122  0.3923 -0.3714
  861MOL0     C18712   5.635   5.379  -0.194  0.3421 -0.5232  0.2163
  861MOL0     C18713   5.612   5.254  -0.246 -0.6156  0.0215 -1.3318
  861MOL0     C18714   5.719   5.192  -0.312 -0.2350  0.3253  0.3401
  861MOL0     C18715   5.842   5.243  -0.325 -0.5884  0.1347  0.0152
  861MOL0     O18716   5.949   5.187  -0.384  0.1690 -0.3996 -0.7873
  861MOL0     C18717   5.938   5.049  -0.424  0.6123  0.3100 -0.3469
  861MOL0     C18718   6.066   5.002  -0.495  0.0337 -0.1553  0.4036
  861MOL0     C18719   6.052   4.932  -0.624 -1.0453 -0.4627 -0.4411
  861MOL0     C18720   6.188   4.927  -0.706  0.3523 -0.8796  0.8653
  861MOL0     C18721   6.273   4.813  -0.669 -0.4095  0.2784  0.0724
  861MOL0     C18722   6.408   4.815  -0.744 -0.0048 -0.1981 -0.1563
  861MOL0     C18723   6.400   4.840  -0.898 -0.1201  0.3282 -0.1798
  861MOL0     C18724   6.534   4.830  -0.970  0.4949 -0.1018 -0.4394
  861MOL0    Cl18725   6.658   4.941  -0.904  0.0934  0.1354 -0.1512
  861MOL0     C18726   5.865   5.361  -0.253  0.3700  0.5012 -0.5692
  861MOL0     C18727   5.763   5.433  -0.187  0.1276 -0.2155 -0.7801
  861MOL0     O18728   5.580   5.641  -0.124  0.2428 -0.3048 -0.4733
  861MOL0     C18729   5.360   5.452   0.076  0.4905  0.2532  0.1518
  861MOL0     C18730   5.260   5.456   0.169  0.1552  0.0441  0.1047
  861MOL0     N18731   4.508   5.553   0.231  0.5163 -0.2845 -0.5390
  861MOL0     N18732   4.395   5.569   0.290  0.8879  0.7837 -0.3048
  861MOL0     C18733   3.199   5.239   0.363  0.6178 -1.3076  0.1281
  861MOL0     C18734   3.073   5.260   0.309 -0.2241  0.2598  0.2659
  861MOL0     C18735   2.625   5.325   0.324 -0.1676  0.7763  0.2744
  861MOL0     C18736   2.523   5.305   0.416 -0.6216 -0.4569 -0.0350
  861MOL0     C18737   2.397   5.284   0.373  0.4597 -0.7643 -0.3897
  861MOL0     C18738   2.361   5.313   0.242 -0.3322  0.4135 -0.2653
  861MOL0     O18739   2.222   5.313   0.202 -0.1423  0.4340  1.0495
  861MOL0     C18740   2.153   5.428   0.244 -0.0700 -1.1164  0.3783
  861MOL0     C18741   2.014   5.374   0.289 -0.2668 -0.5413 -0.1856
  861MOL0     C18742   1.935   5.486   0.358 -0.3941  0.5011  0.1392
  861MOL0     C18743   1.792   5.449   0.398  0.0072  0.1559  0.4312
  861MOL0     C18744   1.797   5.381   0.527 -0.4682 -0.1433 -0.5154
  861MOL0     C18745   1.804   5.323   0.630  0.3966 -0.8409 -0.4689
  861MOL0     C18746   2.462   5.336   0.156  0.4395  0.1628 -0.0629
  861MOL0     C18747   2.594   5.331   0.189 -1.0079  0.2449 -0.1155
  861MOL0     C18748   2.697   5.356   0.080  0.2876 -0.0465  0.5199
  861MOL0     H18749   3.001   5.560   0.449 -0.1964 -1.0626  1.4828
  861MOL0     H18750   3.250   5.519   0.529  0.4010  0.0881 -0.9054
  861MOL0     H18751   3.469   5.280   0.303  2.2863  2.3503  0.1259
  861MOL0     H18752   3.438   5.146   0.416 -0.4867  0.7525  1.3496
  861MOL0     H18753   3.624   5.217   0.571  0.1063  0.6736  0.2520
  861MOL0     H18754   3.666   5.174   0.404  0.5087 -0.6218  1.4845
  861MOL0     H18755   3.728   5.401   0.356 -0.4281 -2.5225 -0.5812
  861MOL0     H18756   3.616   5.460   0.484  0.3175  0.4710 -1.6780
  861MOL0     H18757   3.828   5.489   0.582  0.0446  0.0680 -0.9877
  861MOL0     H18758   3.773   5.344   0.653 -2.1814 -4.4019 -2.9163
  861MOL0     H18759   3.940   5.226   0.524 -0.5991  0.7415  0.3494
  861MOL0     H18760   4.014   5.367   0.580 -2.9588  0.1563  3.1084
  861MOL0     H18761   3.930   5.327   0.292  1.2569 -3.4060  2.2729
  861MOL0     H18762   3.973   5.489   0.351  1.4936  0.3324 -2.4753
  861MOL0     H18763   4.150   5.369   0.233  3.4962 -4.1720 -1.2187
  861MOL0     H18764   4.149   5.235   0.347 -0.2224  0.0726  2.1432
  861MOL0     H18765   4.190   5.523   0.446 -0.2747  0.6524 -0.4078
  861MOL0     H18766   4.252   5.371   0.513 -0.7284  0.4239  0.3889
  861MOL0     H18767   4.467   5.270   0.390 -0.4038 -0.0102  0.0288
  861MOL0     H18768   4.697   5.373   0.123  5.6522  1.2951  0.6501
  861MOL0     H18769   4.692   5.260   0.251  0.2470 -0.8558 -2.9915
  861MOL0     H18770   4.805   5.546   0.279  1.5807  0.6959  1.1352
  861MOL0     H18771   4.771   5.444   0.422  1.6608  1.2471 -0.4680
  861MOL0     H18772   4.937   5.298   0.377  2.2784  0.3833  0.4652
  861MOL0     H18773   4.956   5.357   0.206  0.0548 -1.3941  0.2394
  861MOL0     H18774   5.012   5.537   0.454 -1.1291 -1.9967  0.1959
  861MOL0     H18775   5.138   5.443   0.401 -1.4313 -0.8266  2.0309
  861MOL0     H18776   5.162   5.781   0.133 -1.4140 -1.3852  0.8538
  861MOL0     H18777   5.398   5.804  -0.139  3.2095  2.3759  0.7554
  861MOL0     H18778   5.450   5.854   0.024 -0.4863  2.5823 -2.8540
  861MOL0     H18779   5.285   5.883  -0.043 -1.6893 -1.9285 -1.4082
  861MOL0     H18780   5.516   5.205  -0.235 -1.0163  0.9149 -0.7417
  861MOL0     H18781   5.686   5.091  -0.336 -0.7792  0.9380 -1.6000
  861MOL0     H18782   5.914   4.987  -0.337  2.4831 -0.4383 -0.3053
  861MOL0     H18783   5.858   5.043  -0.499 -1.7515 -1.0355  2.1060
  861MOL0     H18784   6.140   5.082  -0.500  0.4735 -0.5806  0.0963
  861MOL0     H18785   6.122   4.939  -0.426  0.9187 -1.4423 -1.4132
  861MOL0     H18786   5.985   4.990  -0.688  0.4134 -0.3294 -1.9147
  861MOL0     H18787   6.006   4.835  -0.605 -0.4843 -0.1588  3.0637
  861MOL0     H18788   6.253   5.015  -0.713  0.4846 -1.0987 -2.9047
  861MOL0     H18789   6.165   4.926  -0.813  2.4966  1.7764  0.2717
  861MOL0     H18790   6.296   4.810  -0.562  1.9489 -2.2631 -0.3910
  861MOL0     H18791   6.218   4.721  -0.688 -2.9955  1.5380  1.0011
  861MOL0     H18792   6.456   4.717  -0.731 -2.4175 -1.4219  0.1522
  861MOL0     H18793   6.464   4.890  -0.688  0.8479 -1.5905  0.9372
  861MOL0     H18794   6.366   4.943  -0.910 -1.1738  0.1684  1.1744
  861MOL0     H18795   6.316   4.781  -0.937 -0.0185 -1.2120  1.7928
  861MOL0     H18796   6.512   4.859  -1.073  0.1449  0.0781 -0.3152
  861MOL0     H18797   6.560   4.724  -0.973  0.5177 -0.0991 -3.6486
  861MOL0     H18798   5.967   5.398  -0.259  1.4977 -1.8990  1.9086
  861MOL0     H18799   5.794   5.529  -0.147  0.3585 -0.0777 -1.2820
  861MOL0     H18800   5.421   5.362   0.071 -0.7171 -0.5080 -2.6834
  861MOL0     H18801   5.258   5.377   0.243  2.5902  1.0943  1.3890
  861MOL0     H18802   3.252   5.147   0.337  3.4793  0.5622 -1.1674
  861MOL0     H18803   3.039   5.177   0.247 -1.7395 -0.2720  1.7496
  861MOL0     H18804   2.534   5.304   0.524 -3.5904  0.5594  0.3871
  861MOL0     H18805   2.322   5.262   0.449  0.6887  2.4081  0.9133
  861MOL0     H18806   2.198   5.474   0.333  1.0526 -2.6238  0.6212
  861MOL0     H18807   2.139   5.504   0.167 -1.6250 -0.2256  1.4813
  861MOL0     H18808   2.030   5.284   0.349  0.4078 -0.9571 -0.9758
  861MOL0     H18809   1.943   5.353   0.209 -0.2846 -5.2293  0.7843
  861MOL0     H18810   1.988   5.533   0.441 -1.1037 -0.9189  1.4606
  861MOL0     H18811   1.919   5.563   0.282  5.0506  0.5508 -1.3768
  861MOL0     H18812   1.750   5.384   0.320  0.9221 -0.7719  0.6893
  861MOL0     H18813   1.747   5.549   0.405  0.5336  0.3260  1.4427
  861MOL0     H18814   1.813   5.267   0.720 -1.6387 -0.5239 -0.0067
  861MOL0     H18815   2.431   5.353   0.054  2.2098 -1.2664 -0.8920
  861MOL0     H18816   2.722   5.462   0.093 -1.6398  1.1649 -3.6700
  861MOL0     H18817   2.785   5.292   0.080  1.6043  1.5890 -1.7779
  861MOL0     H18818   2.652   5.352  -0.020  0.0553  2.2142  0.4730
  862MOL0     O18819   6.325   4.937   3.603  0.1718  0.4662  0.2628
  862MOL0     C18820   6.282   4.836   3.547 -0.8892 -0.0763 -0.1951
  862MOL0     O18821   6.366   4.716   3.518  0.2314  0.4657 -0.9162
  862MOL0     C18822   6.501   4.713   3.559  1.1928  0.7660  0.5101
  862MOL0     C18823   6.534   4.732   3.696  0.1269  0.0560 -0.3795
  862MOL0     C18824   6.674   4.725   3.732 -0.0509  0.0080  0.7920
  862MOL0     C18825   6.770   4.681   3.633  0.3714  0.3709  0.1222
  862MOL0     O18826   6.894   4.660   3.684 -0.6745 -0.6170  0.8650
  862MOL0     C18827   7.006   4.652   3.587  0.1598 -0.5414 -0.4508
  862MOL0     C18828   7.137   4.596   3.657 -0.8970 -0.1126 -0.1567
  862MOL0     C18829   7.249   4.583   3.555  0.0825 -0.2226  0.8474
  862MOL0     C18830   7.388   4.526   3.605 -0.1725 -0.6870 -0.4863
  862MOL0     C18831   7.467   4.487   3.485 -0.4185  0.0894 -0.6717
  862MOL0     C18832   7.614   4.446   3.522  0.1558  0.1870  0.1466
  862MOL0     C18833   7.699   4.392   3.405  0.1010 -0.7886  0.2331
  862MOL0     C18834   7.646   4.252   3.356  0.1140 -0.2753 -0.2542
  862MOL0     N18835   7.702   4.223   3.228 -0.0142  0.5164 -0.4720
  862MOL0     C18836   7.793   4.128   3.194 -0.2840  0.6282 -0.1908
  862MOL0     C18837   7.836   4.165   3.065  0.1382  0.2385  0.0484
  862MOL0     C18838   7.951   4.114   2.982  0.8637 -0.1753 -0.2324
  862MOL0     C18839   8.080   4.190   3.001  0.2027  0.4149  0.5768
  862MOL0     C18840   8.183   4.138   2.894 -0.4138  0.6659 -0.4508
  862MOL0     C18841   8.321   4.171   2.941  0.8600 -0.0033  0.1443
  862MOL0     O18842   8.383   4.051   2.997 -0.0186 -0.0599  0.5400
  862MOL0     C18843   8.521   4.043   3.015 -0.3445  0.0821 -0.2692
  862MOL0     C18844   8.568   3.931   3.086  0.0728  1.1451  0.3287
  862MOL0     C18845   8.705   3.914   3.114  0.1550 -0.1954  0.2382
  862MOL0     C18846   8.746   3.797   3.205 -0.1307  0.2233  0.5858
  862MOL0     C18847   8.801   4.023   3.071 -0.7126  0.5160  0.7405
  862MOL0     C18848   8.941   4.030   3.118  0.3160  0.5887  0.2364
  862MOL0     O18849   9.014   4.128   3.054  0.0013 -0.3338  0.3348
  862MOL0     C18850   9.123   4.183   3.116  0.2359  1.0780  0.1044
  862MOL0     C18851   9.215   4.233   3.028  0.2268 -0.0842  0.4811
  862MOL0     C18852   9.333   4.296   3.074 -0.2003  0.6601 -0.0438
  862MOL0     C18853   9.357   4.300   3.207 -0.3429  0.1996  0.6739
  862MOL0     O18854   9.460   4.376   3.250  0.2317 -0.0251  1.0912
  862MOL0     C18855   9.498   4.348   3.395 -0.0159 -0.4209  1.0778
  862MOL0     C18856   9.639   4.403   3.412  0.1068 -0.1713 -0.7022
  862MOL0     C18857   9.668   4.387   3.565  0.7857  0.6048 -1.0310
  862MOL0     C18858   9.815   4.403   3.578 -0.1247  0.5029 -0.5662
  862MOL0     C18859   9.867   4.392   3.724 -0.7899  0.4637 -0.2836
  862MOL0     C18860  10.024   4.381   3.718  0.1140  0.4467 -0.0826
  862MOL0     C18861  10.087   4.487   3.799  0.1321 -0.6242 -0.2543
  862MOL0     C18862  10.237   4.474   3.831  0.0702 -0.5213  0.2883
  862MOL0    Cl18863  10.313   4.609   3.927  0.1209 -0.2104  0.8194
  862MOL0     C18864   9.258   4.254   3.295 -0.5702  0.2836 -0.4745
  862MOL0     C18865   9.144   4.182   3.252 -0.8057 -0.2032 -0.2794
  862MOL0     O18866   8.982   3.954   3.207  0.2923 -0.3191  0.3879
  862MOL0     C18867   8.747   4.121   2.985 -0.5359 -0.7124 -0.0840
  862MOL0     C18868   8.616   4.138   2.967  0.8526  0.3943  0.3636
  862MOL0     N18869   7.750   4.263   3.026  0.1863  0.1659 -0.5711
  862MOL0     N18870   7.679   4.308   3.129 -0.1604  0.7486  0.4131
  862MOL0     C18871   6.725   4.648   3.506  0.6134 -1.0837 -0.2035
  862MOL0     C18872   6.591   4.670   3.465 -0.4721  0.2787  0.0222
  862MOL0     C18873   6.142   4.830   3.508 -0.1474  0.1024 -0.6104
  862MOL0     C18874   6.099   4.715   3.430  0.2963 -0.3805  0.4204
  862MOL0     C18875   5.961   4.703   3.394 -0.2440  0.2036  0.3732
  862MOL0     C18876   5.866   4.792   3.452 -0.0319 -0.1448  1.0270
  862MOL0     O18877   5.732   4.782   3.451 -0.0875  0.1574 -0.3091
  862MOL0     C18878   5.669   4.696   3.360  1.0358 -0.0755  0.2180
  862MOL0     C18879   5.623   4.570   3.437 -0.4081  0.2962 -0.1300
  862MOL0     C18880   5.548   4.473   3.359  0.3544 -0.1402  0.7555
  862MOL0     C18881   5.412   4.516   3.316 -0.1250 -0.0763  0.0251
  862MOL0     C18882   5.311   4.518   3.418  0.0823  0.3751 -0.6795
  862MOL0     C18883   5.226   4.516   3.501  0.0970 -0.0982 -0.3385
  862MOL0     C18884   5.908   4.900   3.518  0.1981 -0.4893 -0.0658
  862MOL0     C18885   6.041   4.931   3.540 -0.0677  0.5020  0.0513
  862MOL0     C18886   6.063   5.059   3.602 -0.4490  0.5252 -0.1675
  862MOL0     H18887   6.456   4.767   3.762  3.2507  0.4475  3.4598
  862MOL0     H18888   6.707   4.759   3.830  2.1180  0.4491 -0.0498
  862MOL0     H18889   7.021   4.752   3.546  0.7049  0.4104  1.9000
  862MOL0     H18890   6.988   4.580   3.507  3.3191 -0.7175 -1.1399
  862MOL0     H18891   7.169   4.663   3.737  1.7704 -0.6392 -0.6875
  862MOL0     H18892   7.112   4.499   3.702  0.0145  0.6652  2.1827
  862MOL0     H18893   7.212   4.533   3.466 -0.4712 -1.6905  1.8605
  862MOL0     H18894   7.267   4.681   3.510  1.6237 -1.5062 -1.5290
  862MOL0     H18895   7.430   4.594   3.680  0.1694  1.5445 -2.5841
  862MOL0     H18896   7.376   4.433   3.661  1.7877 -1.4207 -1.2016
  862MOL0     H18897   7.463   4.571   3.414 -0.5440  0.6959  0.0326
  862MOL0     H18898   7.421   4.401   3.437 -0.7613  0.5023 -1.1012
  862MOL0     H18899   7.672   4.529   3.564  2.7015 -0.9172 -1.0185
  862MOL0     H18900   7.608   4.359   3.589  0.6922  0.2376  0.2630
  862MOL0     H18901   7.803   4.393   3.439  0.5167 -0.1856 -0.9936
  862MOL0     H18902   7.696   4.466   3.324  3.2033  0.2686  0.9447
  862MOL0     H18903   7.667   4.168   3.422 -0.5612 -0.1095  0.1778
  862MOL0     H18904   7.537   4.259   3.343  0.4710  2.3165 -3.0734
  862MOL0     H18905   7.827   4.044   3.253 -2.4576 -0.3866 -0.2738
  862MOL0     H18906   7.922   4.130   2.877 -0.5159  0.3465  0.1998
  862MOL0     H18907   7.965   4.008   3.004 -2.6852 -1.2882 -2.5050
  862MOL0     H18908   8.069   4.297   2.981  2.8384  0.8049  0.8722
  862MOL0     H18909   8.111   4.180   3.106 -1.7973  0.6163  1.2466
  862MOL0     H18910   8.186   4.029   2.889 -0.8944  0.6868 -1.2861
  862MOL0     H18911   8.160   4.187   2.799  0.7782 -1.4383 -1.8938
  862MOL0     H18912   8.364   4.205   2.846 -0.0465  1.2680  0.1598
  862MOL0     H18913   8.326   4.254   3.013  1.2104 -0.7621  1.0095
  862MOL0     H18914   8.483   3.880   3.130  1.0823 -1.0912 -0.2197
  862MOL0     H18915   8.765   3.822   3.310 -0.1112  1.0462  0.3950
  862MOL0     H18916   8.832   3.743   3.166  0.3385  1.6790 -0.4855
  862MOL0     H18917   8.661   3.728   3.214  1.7220 -1.9971  2.6302
  862MOL0     H18918   9.197   4.232   2.921 -1.6509  0.0004  0.7654
  862MOL0     H18919   9.403   4.337   3.002 -0.8443  2.1803  0.1619
  862MOL0     H18920   9.425   4.401   3.458 -1.9954 -0.4327 -1.0645
  862MOL0     H18921   9.502   4.242   3.423  0.0492 -0.7283 -0.0433
  862MOL0     H18922   9.717   4.353   3.354  0.4740  0.7513 -1.0126
  862MOL0     H18923   9.623   4.509   3.392 -3.7682 -0.1221  1.5913
  862MOL0     H18924   9.639   4.286   3.596 -0.3287 -0.0791 -3.9754
  862MOL0     H18925   9.605   4.463   3.611  2.5172  3.1183 -2.5691
  862MOL0     H18926   9.854   4.497   3.539  4.4858 -1.6835 -1.9443
  862MOL0     H18927   9.867   4.324   3.522  0.4645  0.8326 -0.4962
  862MOL0     H18928   9.835   4.486   3.770 -0.1038  2.5658 -3.7439
  862MOL0     H18929   9.828   4.306   3.780  0.9311  0.4469  0.9632
  862MOL0     H18930  10.056   4.396   3.614 -2.0405 -0.9696 -1.0311
  862MOL0     H18931  10.060   4.286   3.757  0.5950  0.8604  0.4961
  862MOL0     H18932  10.034   4.496   3.894 -1.1989 -0.3501 -0.9866
  862MOL0     H18933  10.079   4.582   3.745  0.1454  0.8893  2.2664
  862MOL0     H18934  10.294   4.487   3.739  1.5307  1.7815  1.4117
  862MOL0     H18935  10.264   4.374   3.865  1.8165  0.6013  2.5024
  862MOL0     H18936   9.263   4.258   3.404 -1.4488 -0.0211 -0.4172
  862MOL0     H18937   9.072   4.146   3.325  0.8842 -1.1354  0.9975
  862MOL0     H18938   8.811   4.204   2.956 -1.1420 -0.2455 -0.1061
  862MOL0     H18939   8.566   4.217   2.911 -0.4595 -0.4300  0.3324
  862MOL0     H18940   6.795   4.610   3.432  0.6565 -1.5072  0.0527
  862MOL0     H18941   6.566   4.660   3.360 -1.6451  2.9821 -0.0349
  862MOL0     H18942   6.178   4.654   3.387  0.0329 -0.3282 -0.1425
  862MOL0     H18943   5.916   4.623   3.338 -2.5021  1.4313  0.3042
  862MOL0     H18944   5.582   4.754   3.327 -0.1965 -1.1645  1.4537
  862MOL0     H18945   5.720   4.671   3.267 -0.9605 -0.5742 -0.8077
  862MOL0     H18946   5.574   4.604   3.529  0.0943 -0.3945  0.4117
  862MOL0     H18947   5.720   4.528   3.464 -0.1238  0.7402 -0.4562
  862MOL0     H18948   5.595   4.440   3.266 -1.2753 -0.0959 -0.1221
  862MOL0     H18949   5.538   4.379   3.415  1.8754  1.7926  4.6965
  862MOL0     H18950   5.376   4.438   3.249  1.0082 -2.5888  2.1616
  862MOL0     H18951   5.412   4.611   3.261 -3.1403  1.1769  1.9331
  862MOL0     H18952   5.165   4.520   3.589  0.3512 -0.5261 -0.1363
  862MOL0     H18953   5.829   4.966   3.552  0.7927  0.2073 -0.0310
  862MOL0     H18954   6.129   5.113   3.533 -0.0773 -0.0040 -0.2355
  862MOL0     H18955   5.975   5.120   3.625 -0.6777  0.2128 -0.2170
  862MOL0     H18956   6.124   5.052   3.693 -1.7972 -0.8202  0.6594
  863MOL0     O18957   5.140   4.024   1.781  0.1077  0.4686 -0.0158
  863MOL0     C18958   5.063   3.935   1.752  0.5263  0.3963  0.1415
  863MOL0     O18959   5.081   3.800   1.767 -0.0230 -0.4514  0.3818
  863MOL0     C18960   5.199   3.757   1.822 -1.0626  0.2839  0.0562
  863MOL0     C18961   5.332   3.815   1.811  0.3791  0.1411 -0.0623
  863MOL0     C18962   5.440   3.751   1.865 -0.4113  0.3363 -0.3510
  863MOL0     C18963   5.430   3.631   1.938  0.3894  0.2745 -0.6221
  863MOL0     O18964   5.539   3.576   1.996  0.7260 -0.5251 -0.0729
  863MOL0     C18965   5.519   3.459   2.077  0.2278  0.0417  0.1114
  863MOL0     C18966   5.642   3.396   2.144 -0.5643  0.5331  0.2627
  863MOL0     C18967   5.721   3.310   2.045 -0.9261  0.3574 -1.1090
  863MOL0     C18968   5.868   3.306   2.090 -0.8374 -1.3876 -0.4074
  863MOL0     C18969   5.971   3.257   1.993  0.1837 -0.1164 -0.6496
  863MOL0     C18970   6.101   3.237   2.073  0.1640  0.4605  0.5633
  863MOL0     C18971   6.219   3.224   1.984  1.0670  0.5618 -0.3906
  863MOL0     C18972   6.217   3.093   1.891 -0.7546 -0.5251 -0.4948
  863MOL0     N18973   6.346   3.080   1.830 -0.0190 -0.2802  0.8821
  863MOL0     C18974   6.466   3.053   1.901  0.3814 -0.3205 -0.5802
  863MOL0     C18975   6.564   3.095   1.821 -0.0003  0.1290  0.1613
  863MOL0     C18976   6.708   3.081   1.860  0.9182 -0.8361  0.3910
  863MOL0     C18977   6.733   2.926   1.847  0.5874  0.3773 -0.1986
  863MOL0     C18978   6.835   2.879   1.948  0.1166 -0.1807  1.0240
  863MOL0     C18979   6.862   2.728   1.923 -0.7783  0.1282 -0.8016
  863MOL0     O18980   6.987   2.699   1.994  0.7027  0.1575 -0.1775
  863MOL0     C18981   6.976   2.667   2.127 -0.3684  0.1370 -0.4569
  863MOL0     C18982   6.859   2.666   2.203 -0.0790  0.1438 -0.6669
  863MOL0     C18983   6.859   2.624   2.336  0.8705  0.7661  0.3244
  863MOL0     C18984   6.727   2.624   2.400 -0.1997  0.4363 -0.4344
  863MOL0     C18985   6.978   2.577   2.387 -0.4011 -0.0274 -1.0234
  863MOL0     C18986   6.998   2.512   2.536  0.0314 -0.1464 -0.4338
  863MOL0     O18987   7.123   2.474   2.577 -0.0647  0.3033 -0.8232
  863MOL0     C18988   7.134   2.428   2.705  0.4080  0.9997 -0.6917
  863MOL0     C18989   7.199   2.516   2.792  0.4361  0.5520 -0.3486
  863MOL0     C18990   7.216   2.469   2.923 -0.0132 -0.4218 -0.5804
  863MOL0     C18991   7.181   2.339   2.961  0.6746  0.1534 -1.2728
  863MOL0     O18992   7.199   2.300   3.092  0.0934  0.1013 -0.3091
  863MOL0     C18993   7.263   2.172   3.109 -0.4364  0.4603  0.2266
  863MOL0     C18994   7.390   2.169   3.198  0.3706 -0.0365  0.4781
  863MOL0     C18995   7.510   2.209   3.118 -0.1037  0.3214  0.3992
  863MOL0     C18996   7.634   2.201   3.209  0.7807 -0.2379  0.2622
  863MOL0     C18997   7.742   2.287   3.143 -0.0146 -0.6797 -0.5660
  863MOL0     C18998   7.877   2.295   3.229 -0.9663 -1.1514 -0.1970
  863MOL0     C18999   7.955   2.402   3.154 -0.6847 -0.2043  0.1195
  863MOL0     C19000   8.113   2.395   3.166  0.2751  0.0665 -0.3299
  863MOL0    Cl19001   8.139   2.471   3.321  0.5488  0.5049 -0.0967
  863MOL0     C19002   7.124   2.256   2.867 -0.4118  0.0895 -0.7454
  863MOL0     C19003   7.103   2.296   2.740 -0.1951 -0.8798 -0.2380
  863MOL0     O19004   6.899   2.513   2.607  0.2284  0.2683  0.0811
  863MOL0     C19005   7.096   2.588   2.311  0.5229 -0.6918 -0.7670
  863MOL0     C19006   7.091   2.631   2.180  0.3486 -0.6462 -0.0385
  863MOL0     N19007   6.515   3.129   1.698  0.9364 -0.1542 -0.5708
  863MOL0     N19008   6.383   3.112   1.705 -0.2456 -0.1166  0.5579
  863MOL0     C19009   5.298   3.585   1.957  0.0210  0.0625  0.0619
  863MOL0     C19010   5.185   3.645   1.913 -0.8907 -0.3258  0.0470
  863MOL0     C19011   4.920   3.977   1.732 -0.2053 -0.3874  0.2629
  863MOL0     C19012   4.818   3.882   1.757  0.2474 -0.4962  0.5460
  863MOL0     C19013   4.684   3.917   1.749 -0.4146 -0.4183  0.0086
  863MOL0     C19014   4.644   4.033   1.698  1.0585  0.4119 -0.0267
  863MOL0     O19015   4.520   4.075   1.666  0.1496  0.1077 -0.1752
  863MOL0     C19016   4.416   3.979   1.670 -0.2169  0.1776  0.5145
  863MOL0     C19017   4.280   4.052   1.667 -0.1581  0.1308  0.7609
  863MOL0     C19018   4.149   3.961   1.667  0.0672 -0.5790 -0.5390
  863MOL0     C19019   4.040   4.044   1.735  0.8728  0.6405  0.7038
  863MOL0     C19020   4.003   4.158   1.655  0.5728  1.3136  0.3018
  863MOL0     C19021   4.005   4.235   1.570  0.9396 -0.8529  0.2145
  863MOL0     C19022   4.739   4.130   1.662 -0.1219 -0.1822  0.0953
  863MOL0     C19023   4.880   4.101   1.680  0.7826  0.3253  0.1934
  863MOL0     C19024   4.979   4.197   1.628  0.0302 -0.2367  0.6763
  863MOL0     H19025   5.353   3.914   1.770  1.2184  0.1422  0.3515
  863MOL0     H19026   5.544   3.782   1.856 -0.8696  1.4364 -2.4642
  863MOL0     H19027   5.485   3.373   2.019  2.6121 -2.3864  2.0268
  863MOL0     H19028   5.453   3.493   2.156 -0.6082  0.2354 -0.6586
  863MOL0     H19029   5.717   3.466   2.181  0.6011 -0.3464 -0.3760
  863MOL0     H19030   5.597   3.340   2.227  1.5672 -0.6295  0.6956
  863MOL0     H19031   5.684   3.207   2.044 -0.9215  0.3575 -1.4825
  863MOL0     H19032   5.716   3.363   1.950 -0.5884  2.4729 -0.0020
  863MOL0     H19033   5.904   3.409   2.097 -1.1268 -1.1991 -1.5828
  863MOL0     H19034   5.875   3.259   2.189 -2.1938  0.8531  0.8219
  863MOL0     H19035   5.978   3.339   1.920  2.2036  0.3333 -0.0239
  863MOL0     H19036   5.933   3.166   1.946  2.4650 -1.4774  0.0271
  863MOL0     H19037   6.125   3.327   2.130  1.7715  0.1045  0.5069
  863MOL0     H19038   6.101   3.152   2.142  1.7933  0.8694  1.1100
  863MOL0     H19039   6.302   3.224   2.054 -0.1057  2.7184  1.1187
  863MOL0     H19040   6.238   3.313   1.923  0.8472  2.1387  1.7600
  863MOL0     H19041   6.208   3.013   1.965 -1.1909 -1.3648 -1.4384
  863MOL0     H19042   6.136   3.101   1.818 -0.3036 -0.2736 -0.9710
  863MOL0     H19043   6.475   3.019   2.004  2.1003  4.4943  1.1149
  863MOL0     H19044   6.721   3.131   1.957 -0.7150  3.3159 -1.3024
  863MOL0     H19045   6.763   3.137   1.784 -0.2729  0.7889  0.6681
  863MOL0     H19046   6.644   2.875   1.885  2.0430 -0.9996  1.5587
  863MOL0     H19047   6.753   2.891   1.745 -1.1816 -0.8818 -0.1619
  863MOL0     H19048   6.932   2.925   1.933  0.5462 -0.6994  2.1166
  863MOL0     H19049   6.814   2.888   2.055  4.8765  1.4389  2.0281
  863MOL0     H19050   6.778   2.671   1.964  1.2574 -2.1368  0.4979
  863MOL0     H19051   6.883   2.711   1.818  1.8374 -1.3069 -0.1161
  863MOL0     H19052   6.767   2.703   2.159 -0.9781 -1.8985 -0.6241
  863MOL0     H19053   6.650   2.651   2.327 -0.9624  1.1307  0.5949
  863MOL0     H19054   6.722   2.686   2.491  2.1490  0.6650 -0.4111
  863MOL0     H19055   6.704   2.522   2.433  0.3016  0.1902 -0.8436
  863MOL0     H19056   7.214   2.622   2.773  1.7247  0.4372 -0.0804
  863MOL0     H19057   7.270   2.526   2.998  0.8373 -1.7808 -0.1285
  863MOL0     H19058   7.198   2.097   3.154 -0.7213 -0.0222 -0.9621
  863MOL0     H19059   7.294   2.131   3.012 -0.9134 -1.1504  0.7193
  863MOL0     H19060   7.376   2.238   3.282  0.1396 -1.4886  1.6712
  863MOL0     H19061   7.400   2.071   3.245 -0.9618 -0.2188  0.4253
  863MOL0     H19062   7.496   2.309   3.078 -0.6150 -0.1686 -0.6815
  863MOL0     H19063   7.506   2.135   3.037 -0.1474 -1.3501  1.8637
  863MOL0     H19064   7.669   2.099   3.227  2.1575  0.4008  1.4267
  863MOL0     H19065   7.612   2.234   3.311  0.5591 -1.0533  0.4841
  863MOL0     H19066   7.761   2.260   3.039 -1.7750  0.1004 -1.1320
  863MOL0     H19067   7.702   2.388   3.133 -0.1825 -0.7840 -0.9749
  863MOL0     H19068   7.917   2.194   3.215  0.9851 -0.6987  1.6147
  863MOL0     H19069   7.854   2.314   3.334  1.5755  1.8302 -0.0327
  863MOL0     H19070   7.917   2.503   3.171  1.1418  0.6117 -0.4566
  863MOL0     H19071   7.933   2.375   3.050  1.2550  1.2313 -0.7069
  863MOL0     H19072   8.155   2.450   3.081 -0.7415  2.1920  0.4737
  863MOL0     H19073   8.146   2.291   3.172 -1.4297 -0.8635 -3.9706
  863MOL0     H19074   7.097   2.153   2.886 -1.6007  0.0190 -2.5139
  863MOL0     H19075   7.070   2.229   2.661 -3.0086 -1.6836  1.4703
  863MOL0     H19076   7.192   2.580   2.363 -0.7845  0.2909  1.9771
  863MOL0     H19077   7.179   2.645   2.117 -2.1876  1.8449 -3.3884
  863MOL0     H19078   5.272   3.496   2.014 -3.4312 -0.6064 -2.2472
  863MOL0     H19079   5.087   3.605   1.938 -0.4200 -1.2958  0.3638
  863MOL0     H19080   4.836   3.786   1.803  2.3541 -0.5090 -0.2131
  863MOL0     H19081   4.609   3.848   1.785  1.2848 -1.9702  0.7338
  863MOL0     H19082   4.420   3.900   1.595  0.9428  1.3234 -0.6836
  863MOL0     H19083   4.408   3.933   1.769 -1.5475 -4.2613 -1.3998
  863MOL0     H19084   4.287   4.112   1.576  2.4268 -0.3120  0.5919
  863MOL0     H19085   4.282   4.128   1.745  0.5548 -0.4999  1.3651
  863MOL0     H19086   4.138   3.942   1.560  3.2569  1.3985 -1.3384
  863MOL0     H19087   4.162   3.870   1.727  0.7362  0.9365  1.7393
  863MOL0     H19088   4.067   4.066   1.839 -2.0648 -1.1224  1.9492
  863MOL0     H19089   3.956   3.975   1.749  2.0748 -0.4252  3.5082
  863MOL0     H19090   4.022   4.306   1.491 -0.1844  0.2139  0.8754
  863MOL0     H19091   4.705   4.228   1.631  2.1743  0.3868 -0.8371
  863MOL0     H19092   4.933   4.257   1.548  1.0644  0.1745  0.3680
  863MOL0     H19093   5.010   4.272   1.701  0.3329 -1.5925  1.9840
  863MOL0     H19094   5.069   4.157   1.581  1.0241  1.4881  1.0356
  864MOL0     O19095   9.394   9.256   3.281 -0.2868 -0.0873 -0.7102
  864MOL0     C19096   9.331   9.159   3.311  1.2359 -0.7919 -0.1787
  864MOL0     O19097   9.203   9.134   3.268 -0.0822  0.5871  0.3589
  864MOL0     C19098   9.159   9.205   3.161  1.5082  0.3502  0.3046
  864MOL0     C19099   9.194   9.180   3.030 -0.2216 -0.5340 -0.2176
  864MOL0     C19100   9.133   9.241   2.921 -0.7142  0.1996 -1.4039
  864MOL0     C19101   9.017   9.315   2.940 -0.7372  0.2188 -0.4484
  864MOL0     O19102   8.952   9.376   2.838 -0.2580  0.1920 -0.0606
  864MOL0     C19103   8.952   9.298   2.719 -0.8339  0.6052  0.2181
  864MOL0     C19104   8.857   9.366   2.623  0.2745 -0.3880  0.3608
  864MOL0     C19105   8.913   9.503   2.568  1.3817 -0.7612  0.6195
  864MOL0     C19106   9.023   9.497   2.467  0.1878  0.0387 -0.8851
  864MOL0     C19107   9.101   9.628   2.455 -0.1042  0.4552  0.0146
  864MOL0     C19108   9.169   9.635   2.319  0.8208  0.5843  0.5509
  864MOL0     C19109   9.248   9.759   2.291  0.1965 -0.1707 -0.4192
  864MOL0     C19110   9.372   9.766   2.368 -0.9037  0.0342  0.1884
  864MOL0     N19111   9.477   9.683   2.309  0.0203  0.1759  0.4680
  864MOL0     C19112   9.571   9.737   2.227 -0.6152 -0.0104 -0.0898
  864MOL0     C19113   9.654   9.630   2.204  0.5630  0.3282 -0.5132
  864MOL0     C19114   9.776   9.631   2.106 -0.3956  1.0281 -0.5096
  864MOL0     C19115   9.902   9.599   2.194 -0.3807  0.1752  0.3904
  864MOL0     C19116  10.022   9.629   2.112 -0.0534  1.0306 -0.1098
  864MOL0     C19117  10.140   9.560   2.178 -0.1319 -0.2945 -0.4538
  864MOL0     O19118  10.121   9.416   2.169 -0.5111  0.4158  0.5830
  864MOL0     C19119  10.196   9.326   2.247 -0.8746 -0.5266 -0.0343
  864MOL0     C19120  10.313   9.368   2.315 -0.6855 -0.2362  0.1213
  864MOL0     C19121  10.391   9.276   2.393  0.6875 -0.5209 -0.7384
  864MOL0     C19122  10.509   9.338   2.467 -0.9905  0.2945 -0.3353
  864MOL0     C19123  10.353   9.134   2.392 -1.5168 -0.2486 -0.7725
  864MOL0     C19124  10.405   9.030   2.479 -1.1698  0.7557 -1.1018
  864MOL0     O19125  10.404   8.895   2.439  0.1910 -0.8051 -0.9497
  864MOL0     C19126  10.429   8.801   2.528 -0.3071  0.0361  0.6343
  864MOL0     C19127  10.362   8.780   2.647  0.0472  0.4246 -0.7838
  864MOL0     C19128  10.405   8.674   2.727  0.7545  0.3575  0.3600
  864MOL0     C19129  10.496   8.577   2.680 -0.3047  0.5419 -1.1359
  864MOL0     O19130  10.504   8.463   2.759 -0.1775  0.0712 -0.1106
  864MOL0     C19131  10.572   8.349   2.713  0.2460 -1.5126 -0.3700
  864MOL0     C19132  10.718   8.357   2.751  0.0082 -0.2060 -1.0776
  864MOL0     C19133  10.749   8.429   2.883 -0.7475  0.0581  0.7316
  864MOL0     C19134  10.675   8.386   3.010  0.3884 -0.0532 -0.2552
  864MOL0     C19135  10.765   8.417   3.135  0.0543  0.0750 -0.3580
  864MOL0     C19136  10.708   8.351   3.263 -0.4441 -0.2826  0.0561
  864MOL0     C19137  10.769   8.411   3.393  0.1111  0.8085 -0.8398
  864MOL0     C19138  10.718   8.336   3.518  0.6261  0.3078 -0.1208
  864MOL0    Cl19139  10.796   8.171   3.519  0.3808 -0.2705  0.2126
  864MOL0     C19140  10.560   8.606   2.559 -0.0543 -0.4631 -0.2618
  864MOL0     C19141  10.527   8.716   2.480  0.5041  0.3753  0.5648
  864MOL0     O19142  10.455   9.070   2.588  0.6872 -0.3061 -0.2792
  864MOL0     C19143  10.239   9.099   2.325  0.4706 -0.3723  0.2945
  864MOL0     C19144  10.171   9.194   2.251 -0.3603  0.4808  0.1352
  864MOL0     N19145   9.600   9.515   2.267  0.2311  0.4725  0.2916
  864MOL0     N19146   9.492   9.551   2.325 -0.2521  0.2537 -0.1693
  864MOL0     C19147   8.979   9.339   3.072 -0.3429  0.4780  0.6951
  864MOL0     C19148   9.041   9.279   3.179  0.3713  0.3116 -0.0545
  864MOL0     C19149   9.409   9.057   3.394  0.2914  0.0558  0.2449
  864MOL0     C19150   9.540   9.035   3.355 -0.3745 -0.0418  0.0694
  864MOL0     C19151   9.621   8.941   3.423 -0.3776 -0.3025 -0.2004
  864MOL0     C19152   9.568   8.852   3.517 -0.5261 -0.0172  0.1273
  864MOL0     O19153   9.661   8.774   3.583 -0.4500 -0.1440  0.1066
  864MOL0     C19154   9.620   8.647   3.651 -0.0755 -0.2437 -0.8265
  864MOL0     C19155   9.669   8.649   3.793  0.0285  0.4799 -0.6695
  864MOL0     C19156   9.823   8.673   3.807  0.8074 -0.0420  0.9641
  864MOL0     C19157   9.883   8.682   3.947  0.2200 -0.0482 -0.4100
  864MOL0     C19158   9.823   8.598   4.043 -0.1114 -0.0007 -0.1333
  864MOL0     C19159   9.759   8.538   4.137 -0.0889  0.0500  0.3619
  864MOL0     C19160   9.432   8.859   3.539 -0.1108 -0.3080 -0.6063
  864MOL0     C19161   9.352   8.959   3.472  0.1560  0.4071  0.1407
  864MOL0     C19162   9.203   8.938   3.489  0.1405  0.9190 -0.7856
  864MOL0     H19163   9.273   9.106   3.027  0.8367  0.4506  1.4832
  864MOL0     H19164   9.175   9.231   2.821 -1.8024  2.7241 -2.1835
  864MOL0     H19165   8.926   9.194   2.739  1.0037 -0.2311 -1.3689
  864MOL0     H19166   9.055   9.292   2.681 -0.0158  4.7515  1.3058
  864MOL0     H19167   8.841   9.300   2.538  1.5880  0.0322 -0.2501
  864MOL0     H19168   8.769   9.390   2.684  0.9681  1.8867  0.5772
  864MOL0     H19169   8.833   9.559   2.519 -0.0447 -2.1724  1.2554
  864MOL0     H19170   8.951   9.567   2.648  2.3574  1.0111 -1.1919
  864MOL0     H19171   9.089   9.418   2.503 -0.6125 -0.5941 -0.7643
  864MOL0     H19172   8.981   9.481   2.367  2.7811 -0.3714 -1.9842
  864MOL0     H19173   9.169   9.638   2.540  1.9667 -0.8745 -1.3774
  864MOL0     H19174   9.024   9.705   2.450 -2.1785 -1.5662 -0.7879
  864MOL0     H19175   9.232   9.546   2.305 -0.4600 -0.0167 -1.9162
  864MOL0     H19176   9.094   9.628   2.240  0.9079 -4.1639  0.6091
  864MOL0     H19177   9.188   9.850   2.305  0.5434 -0.0114  0.0491
  864MOL0     H19178   9.264   9.741   2.184  1.9029  0.4488 -0.3091
  864MOL0     H19179   9.414   9.867   2.371 -1.4762  0.3508 -1.5603
  864MOL0     H19180   9.363   9.722   2.468  1.4685  0.5995  0.7312
  864MOL0     H19181   9.579   9.839   2.192  2.4735 -0.3736 -0.6563
  864MOL0     H19182   9.788   9.728   2.056  0.9546  1.3030  0.2887
  864MOL0     H19183   9.744   9.556   2.034 -0.8633  0.5608  0.1816
  864MOL0     H19184   9.899   9.667   2.280 -2.0149 -1.0436  1.3598
  864MOL0     H19185   9.890   9.496   2.228 -0.7767  1.0259  3.0488
  864MOL0     H19186  10.008   9.591   2.010 -1.4936  0.8652  0.1223
  864MOL0     H19187  10.047   9.736   2.107  1.9902  0.7277  2.1006
  864MOL0     H19188  10.234   9.574   2.123  0.9890 -1.3922  1.1118
  864MOL0     H19189  10.146   9.583   2.284  0.8991  2.4582 -1.0396
  864MOL0     H19190  10.345   9.472   2.319 -0.7530 -0.2126  0.0507
  864MOL0     H19191  10.547   9.429   2.421  0.1839 -0.8949 -1.8221
  864MOL0     H19192  10.594   9.269   2.461  0.6932  2.3467 -1.4870
  864MOL0     H19193  10.488   9.358   2.573  0.2858 -2.1595  0.4775
  864MOL0     H19194  10.284   8.846   2.683 -0.2732 -1.7137  2.9699
  864MOL0     H19195  10.342   8.650   2.811 -1.7009  0.9638 -1.1916
  864MOL0     H19196  10.522   8.263   2.758  1.3051 -0.9603  1.9867
  864MOL0     H19197  10.551   8.348   2.605 -0.2843 -0.0866 -0.3028
  864MOL0     H19198  10.744   8.252   2.760 -0.5097 -0.2118  0.7497
  864MOL0     H19199  10.777   8.410   2.675 -3.3343  1.4877 -2.7158
  864MOL0     H19200  10.728   8.536   2.872 -0.5274  0.4581  3.4709
  864MOL0     H19201  10.857   8.434   2.898 -0.5499 -0.1245 -0.5311
  864MOL0     H19202  10.633   8.285   3.010 -1.9207  0.8271 -1.2874
  864MOL0     H19203  10.585   8.449   3.010  0.4334  0.0627 -2.0821
  864MOL0     H19204  10.869   8.387   3.117 -0.6034 -2.6105 -0.1734
  864MOL0     H19205  10.760   8.525   3.152 -0.1598 -0.1305  0.9704
  864MOL0     H19206  10.723   8.243   3.259  0.6451 -0.1215 -3.3812
  864MOL0     H19207  10.602   8.375   3.251 -0.4087 -0.1302  0.0329
  864MOL0     H19208  10.755   8.517   3.414  2.1470  0.9891 -0.1660
  864MOL0     H19209  10.876   8.388   3.388 -0.0579 -0.8004  1.3990
  864MOL0     H19210  10.609   8.334   3.512  0.5219 -1.5909  1.4889
  864MOL0     H19211  10.744   8.385   3.613  1.4128 -0.6275  0.1616
  864MOL0     H19212  10.636   8.536   2.526  4.0224  1.1880  4.4886
  864MOL0     H19213  10.577   8.731   2.384  1.2541 -0.9852  0.7286
  864MOL0     H19214  10.193   9.002   2.342 -0.5495  0.1276  0.4308
  864MOL0     H19215  10.079   9.169   2.199 -1.4659  3.0138  0.7192
  864MOL0     H19216   8.895   9.406   3.078  0.6059  1.6242  2.0734
  864MOL0     H19217   9.002   9.294   3.279 -0.1492 -2.4115  0.2336
  864MOL0     H19218   9.599   9.092   3.285 -0.6799 -2.8109 -2.6660
  864MOL0     H19219   9.721   8.925   3.384 -2.4417 -1.8342 -5.7641
  864MOL0     H19220   9.514   8.618   3.654 -0.2549  0.4918  1.0149
  864MOL0     H19221   9.678   8.579   3.587  3.5343  1.1735  0.6750
  864MOL0     H19222   9.641   8.557   3.844  0.0602  0.4923 -0.6293
  864MOL0     H19223   9.624   8.734   3.845  0.7667  1.2941 -1.3300
  864MOL0     H19224   9.866   8.584   3.761  3.2438  2.3545 -1.8859
  864MOL0     H19225   9.856   8.760   3.749  0.0900  0.3045  1.0600
  864MOL0     H19226   9.870   8.781   3.993 -0.3278 -0.3412  0.0839
  864MOL0     H19227   9.988   8.656   3.936  0.2733 -0.3024  0.6197
  864MOL0     H19228   9.702   8.492   4.216  3.4045 -0.7056  2.6939
  864MOL0     H19229   9.386   8.796   3.615  1.2289  0.8303  1.2219
  864MOL0     H19230   9.173   8.887   3.581  1.2241  0.4059 -0.6957
  864MOL0     H19231   9.149   9.032   3.492  1.2673  1.5716 -0.3673
  864MOL0     H19232   9.155   8.885   3.406 -2.2086  0.0706  1.0013
  865MOL0     O19233   3.278   5.261   6.447  0.3183 -0.6150  0.1556
  865MOL0     C19234   3.212   5.333   6.522  0.1316 -0.2195 -0.2642
  865MOL0     O19235   3.242   5.361   6.653  0.6784  0.1187 -0.2442
  865MOL0     C19236   3.346   5.310   6.728 -0.0893  0.1144  0.5725
  865MOL0     C19237   3.321   5.316   6.866  0.9860 -0.2739  0.0069
  865MOL0     C19238   3.415   5.268   6.954 -0.3290  0.6714  0.2525
  865MOL0     C19239   3.547   5.232   6.903 -0.1664 -0.2797  0.3639
  865MOL0     O19240   3.645   5.189   6.986  0.0983 -0.0469  0.1942
  865MOL0     C19241   3.653   5.227   7.128  0.4534  0.4654  0.3696
  865MOL0     C19242   3.779   5.171   7.186  0.0032 -0.3487 -0.4510
  865MOL0     C19243   3.902   5.210   7.109 -0.3738 -0.4409  0.5665
  865MOL0     C19244   4.020   5.219   7.200 -0.4730  0.2321  0.4102
  865MOL0     C19245   4.154   5.224   7.120  0.2669 -0.7905 -0.2153
  865MOL0     C19246   4.259   5.215   7.237 -0.2482 -0.0724 -0.6763
  865MOL0     C19247   4.400   5.177   7.174 -0.3251  0.1236 -0.3160
  865MOL0     C19248   4.495   5.106   7.271  0.5575 -0.0800 -0.1912
  865MOL0     N19249   4.630   5.115   7.234 -0.2998  1.3794 -0.3196
  865MOL0     C19250   4.717   5.021   7.188  0.1351 -0.4198  0.5802
  865MOL0     C19251   4.841   5.076   7.175 -1.3814 -0.0094  0.4048
  865MOL0     C19252   4.957   5.013   7.110  0.7765 -0.1053 -0.8383
  865MOL0     C19253   5.033   4.936   7.218 -0.4168  0.6743  0.2397
  865MOL0     C19254   5.147   4.855   7.160 -0.3543 -0.8234 -0.8911
  865MOL0     C19255   5.214   4.771   7.266 -0.4498 -0.1853 -0.6026
  865MOL0     O19256   5.119   4.688   7.326  0.5620 -0.1021 -1.1512
  865MOL0     C19257   5.147   4.675   7.462  0.3443  0.3313 -0.8176
  865MOL0     C19258   5.089   4.767   7.552  0.5831 -0.4364  0.2850
  865MOL0     C19259   5.104   4.748   7.688 -1.1574 -0.1084  0.4484
  865MOL0     C19260   5.031   4.853   7.777 -0.2689  0.6016 -0.4373
  865MOL0     C19261   5.173   4.634   7.741 -0.4372 -0.6953 -0.6414
  865MOL0     C19262   5.186   4.598   7.882 -0.1692 -0.6169  0.9190
  865MOL0     O19263   5.205   4.464   7.914  0.4283 -0.2533 -0.7022
  865MOL0     C19264   5.233   4.444   8.047  0.3494  0.5325 -0.2486
  865MOL0     C19265   5.145   4.370   8.127 -0.4745  0.4132  0.1029
  865MOL0     C19266   5.181   4.353   8.261 -0.1896  0.5176  0.6933
  865MOL0     C19267   5.298   4.406   8.319 -0.6164 -0.2565  0.3409
  865MOL0     O19268   5.319   4.388   8.455 -0.7808  0.1255  0.5529
  865MOL0     C19269   5.364   4.250   8.488  0.1229  0.5817  0.4100
  865MOL0     C19270   5.455   4.229   8.606  0.1265  0.2388  0.3871
  865MOL0     C19271   5.579   4.316   8.600 -0.0140 -0.5715 -0.5524
  865MOL0     C19272   5.645   4.322   8.739 -0.5690 -0.9613  0.3994
  865MOL0     C19273   5.741   4.436   8.762  0.5880 -0.4072  0.6553
  865MOL0     C19274   5.675   4.554   8.818 -0.4360 -0.1162 -0.2286
  865MOL0     C19275   5.781   4.653   8.862 -0.5319 -0.4322  0.6186
  865MOL0     C19276   5.753   4.745   8.985  0.1542 -0.1146 -0.3591
  865MOL0    Cl19277   5.900   4.766   9.077  0.1149  0.2117  0.1665
  865MOL0     C19278   5.382   4.485   8.245 -0.1019 -0.0414  0.3814
  865MOL0     C19279   5.354   4.496   8.101  0.8606  0.1285  0.5174
  865MOL0     O19280   5.172   4.693   7.960 -0.9339 -0.2813  0.3026
  865MOL0     C19281   5.218   4.540   7.643 -0.3898 -0.6870 -0.8519
  865MOL0     C19282   5.203   4.556   7.505 -1.7313  0.1038 -0.9657
  865MOL0     N19283   4.839   5.204   7.230  0.5278 -0.2840 -0.5848
  865MOL0     N19284   4.712   5.229   7.265  0.6461  0.3557 -0.7210
  865MOL0     C19285   3.563   5.225   6.767 -0.3855  0.0267 -0.2355
  865MOL0     C19286   3.464   5.267   6.675  0.5222 -0.8276 -0.3756
  865MOL0     C19287   3.087   5.396   6.458 -0.2730  0.3307  0.0672
  865MOL0     C19288   3.041   5.353   6.334  0.6264 -0.0311  0.6521
  865MOL0     C19289   2.928   5.409   6.271  0.5021  0.3082  0.1697
  865MOL0     C19290   2.853   5.517   6.330  0.3067 -0.0921 -0.6115
  865MOL0     O19291   2.747   5.581   6.275  0.4249 -0.4133 -1.2140
  865MOL0     C19292   2.621   5.528   6.325  0.2553 -0.3217  0.7375
  865MOL0     C19293   2.528   5.645   6.375  0.2829  0.3618  0.2681
  865MOL0     C19294   2.588   5.729   6.485  0.8998  0.0612 -0.1584
  865MOL0     C19295   2.576   5.660   6.623  0.4398  0.3293 -0.1762
  865MOL0     C19296   2.644   5.739   6.719 -0.8875  0.2027 -0.0379
  865MOL0     C19297   2.696   5.804   6.804  0.1131  0.4925 -0.3855
  865MOL0     C19298   2.907   5.564   6.451  0.0607  0.8218 -0.3076
  865MOL0     C19299   3.018   5.509   6.509 -0.3120  0.6168 -0.9352
  865MOL0     C19300   3.072   5.581   6.631 -0.3295 -0.6543 -0.2322
  865MOL0     H19301   3.229   5.360   6.905  0.7832 -1.1473  0.5226
  865MOL0     H19302   3.395   5.258   7.060 -2.0147  0.1569 -0.0790
  865MOL0     H19303   3.564   5.194   7.183 -0.3222  2.4625  0.3961
  865MOL0     H19304   3.658   5.336   7.140  0.3570  0.3273  1.9657
  865MOL0     H19305   3.791   5.220   7.283  1.6372  1.7440 -1.6408
  865MOL0     H19306   3.778   5.061   7.194  1.3615 -0.4955 -1.7983
  865MOL0     H19307   3.917   5.140   7.026 -1.1802  0.3154 -0.2446
  865MOL0     H19308   3.886   5.310   7.065 -0.6266 -0.5245  0.4697
  865MOL0     H19309   4.009   5.307   7.265  0.6411  0.3963  0.4034
  865MOL0     H19310   4.020   5.136   7.270  1.3242  1.5380  2.0897
  865MOL0     H19311   4.155   5.319   7.066 -2.7197 -0.7057 -0.2929
  865MOL0     H19312   4.167   5.150   7.040  2.9064  2.4606 -3.0853
  865MOL0     H19313   4.267   5.313   7.285 -1.9826 -0.6182  0.8270
  865MOL0     H19314   4.250   5.135   7.310  0.9554 -1.5033 -2.0239
  865MOL0     H19315   4.452   5.264   7.133  0.0764 -0.5740 -1.3286
  865MOL0     H19316   4.384   5.112   7.087 -1.1659 -1.5190  1.0074
  865MOL0     H19317   4.486   5.167   7.361  3.0179 -0.5757  0.4611
  865MOL0     H19318   4.452   5.006   7.284 -2.2945  1.0403 -0.2720
  865MOL0     H19319   4.690   4.918   7.165  3.0612 -1.2397  0.4172
  865MOL0     H19320   5.016   5.092   7.063  1.0099  0.8027  0.9060
  865MOL0     H19321   4.918   4.950   7.031 -0.9392 -2.1663  1.4900
  865MOL0     H19322   5.073   5.001   7.296  0.4300  1.0394 -0.4745
  865MOL0     H19323   4.968   4.861   7.264  1.2686  0.7290  2.9543
  865MOL0     H19324   5.108   4.798   7.075  1.8967  0.2165 -2.7294
  865MOL0     H19325   5.223   4.927   7.128 -2.4187  1.9833  0.2118
  865MOL0     H19326   5.296   4.711   7.225  0.9921  1.8528 -0.8406
  865MOL0     H19327   5.249   4.841   7.342 -2.7653 -0.2128  0.5567
  865MOL0     H19328   5.040   4.853   7.508 -0.7634  1.7441  5.3034
  865MOL0     H19329   4.963   4.919   7.722 -0.2120  2.9028  2.0526
  865MOL0     H19330   5.092   4.921   7.838 -0.4359  2.3426 -2.1183
  865MOL0     H19331   4.966   4.797   7.845  2.5595 -0.6140  1.4601
  865MOL0     H19332   5.052   4.345   8.077 -0.6801 -1.5552  1.3992
  865MOL0     H19333   5.114   4.307   8.333  0.7788 -0.6559  0.8617
  865MOL0     H19334   5.274   4.189   8.502 -0.8415  1.5689 -1.1871
  865MOL0     H19335   5.420   4.212   8.402 -0.3820 -1.9474  1.1091
  865MOL0     H19336   5.395   4.268   8.689 -1.4619 -0.5153 -0.3514
  865MOL0     H19337   5.490   4.126   8.616  2.1252  0.8745  0.3700
  865MOL0     H19338   5.552   4.416   8.564 -0.5627 -0.6144 -0.2641
  865MOL0     H19339   5.648   4.272   8.527 -0.9931 -2.8197 -0.1797
  865MOL0     H19340   5.707   4.235   8.762 -0.3401 -1.0288 -0.4165
  865MOL0     H19341   5.566   4.325   8.815 -0.9006  1.6738  0.0568
  865MOL0     H19342   5.815   4.408   8.837  2.4713  2.5654  0.0852
  865MOL0     H19343   5.802   4.460   8.675 -0.9462  1.0385 -0.0883
  865MOL0     H19344   5.611   4.527   8.902 -1.8787 -0.2705 -1.3462
  865MOL0     H19345   5.614   4.597   8.738 -6.0670 -0.8991  3.1448
  865MOL0     H19346   5.815   4.713   8.777  1.8792 -3.4201 -0.7655
  865MOL0     H19347   5.863   4.588   8.893  0.7886  2.0251  2.6459
  865MOL0     H19348   5.679   4.681   9.034  0.9269 -1.9562 -1.4955
  865MOL0     H19349   5.712   4.843   8.961  1.1805  0.8025  1.3926
  865MOL0     H19350   5.472   4.525   8.291 -0.8329 -0.2713  2.0700
  865MOL0     H19351   5.423   4.530   8.025 -0.0628 -0.6241 -0.6931
  865MOL0     H19352   5.270   4.453   7.681  0.2299  0.9337  2.2830
  865MOL0     H19353   5.236   4.476   7.439 -0.6839 -1.1151  0.9303
  865MOL0     H19354   3.661   5.204   6.725 -1.0367  0.6321 -2.1478
  865MOL0     H19355   3.479   5.257   6.568 -1.1750  2.7492 -1.0885
  865MOL0     H19356   3.092   5.271   6.284  0.5193  1.2017 -1.6182
  865MOL0     H19357   2.881   5.373   6.179 -2.7270  2.1643  0.9382
  865MOL0     H19358   2.571   5.469   6.248 -0.9114 -1.7372  2.4696
  865MOL0     H19359   2.639   5.452   6.402 -1.0747 -0.1803  1.2160
  865MOL0     H19360   2.436   5.596   6.408  0.0807 -0.8852 -1.9389
  865MOL0     H19361   2.501   5.705   6.288  1.3827  2.4121  1.2825
  865MOL0     H19362   2.686   5.766   6.456  0.6142  1.5944  0.7526
  865MOL0     H19363   2.521   5.815   6.480  0.8307  0.0287  0.1773
  865MOL0     H19364   2.620   5.559   6.623  1.8552  0.8805 -1.8160
  865MOL0     H19365   2.471   5.646   6.651  0.5882 -0.9470 -0.1787
  865MOL0     H19366   2.752   5.857   6.879  1.7656  1.2956 -2.1262
  865MOL0     H19367   2.849   5.640   6.503 -0.7461 -1.2882  2.1047
  865MOL0     H19368   3.169   5.630   6.619 -0.1049 -1.0847 -0.2002
  865MOL0     H19369   3.004   5.663   6.654  0.8957  0.1491  0.6356
  865MOL0     H19370   3.084   5.515   6.718  1.9904  0.6425  0.5084
  866MOL0     O19371   2.824   6.454   3.479 -0.1139  0.3696  0.3881
  866MOL0     C19372   2.852   6.538   3.563 -0.2890 -0.3165 -0.7207
  866MOL0     O19373   2.976   6.566   3.603  0.4923  0.2173  0.7731
  866MOL0     C19374   3.069   6.508   3.521  0.3352  0.0332 -0.0796
  866MOL0     C19375   3.097   6.568   3.399 -0.1820  0.5295 -0.0292
  866MOL0     C19376   3.157   6.493   3.295 -0.2538 -0.1947 -0.6161
  866MOL0     C19377   3.213   6.372   3.335  0.0576  1.2213  1.6027
  866MOL0     O19378   3.283   6.286   3.255 -0.8557 -0.1668  0.2279
  866MOL0     C19379   3.241   6.283   3.119  0.4898 -0.1247  0.4998
  866MOL0     C19380   3.289   6.169   3.033  0.2059  0.2750  0.9984
  866MOL0     C19381   3.426   6.187   2.985 -0.3763 -0.3610  0.6168
  866MOL0     C19382   3.542   6.189   3.093  0.1734  0.2518  0.5561
  866MOL0     C19383   3.677   6.149   3.031 -0.6620 -0.2192  0.4797
  866MOL0     C19384   3.784   6.148   3.144 -0.1028 -0.3216 -0.0782
  866MOL0     C19385   3.839   6.283   3.179  0.7075  1.0327 -0.5879
  866MOL0     C19386   3.936   6.330   3.074  0.3046 -0.4880 -1.0956
  866MOL0     N19387   4.001   6.449   3.119 -0.3684 -0.2513 -0.5764
  866MOL0     C19388   4.136   6.477   3.112  0.0240 -0.0084  0.3250
  866MOL0     C19389   4.153   6.598   3.178  0.7093 -0.1118 -0.3536
  866MOL0     C19390   4.276   6.658   3.219  0.1285 -0.4506 -0.0612
  866MOL0     C19391   4.366   6.581   3.313 -0.6002  0.2184 -0.4706
  866MOL0     C19392   4.487   6.663   3.362  0.7885  0.3512  0.0343
  866MOL0     C19393   4.603   6.685   3.266  0.3053  0.1910 -0.5991
  866MOL0     O19394   4.688   6.782   3.333  0.3804 -0.4895 -0.9566
  866MOL0     C19395   4.791   6.732   3.415  0.0643  0.7271  0.2181
  866MOL0     C19396   4.809   6.602   3.450 -0.0095 -0.2553 -0.3134
  866MOL0     C19397   4.914   6.564   3.535  0.3687  1.0154  0.5627
  866MOL0     C19398   4.928   6.408   3.549  0.3712 -0.5531  0.7221
  866MOL0     C19399   5.005   6.664   3.596 -0.2625  0.2544  0.2253
  866MOL0     C19400   5.111   6.627   3.696 -0.1414  0.1827  0.8496
  866MOL0     O19401   5.091   6.516   3.773  0.0594 -0.3855 -1.1948
  866MOL0     C19402   5.187   6.477   3.864 -0.5466  0.4389  0.0143
  866MOL0     C19403   5.239   6.343   3.858  0.4132 -0.5781  0.8810
  866MOL0     C19404   5.352   6.314   3.940  0.5434 -0.0246  0.3094
  866MOL0     C19405   5.401   6.400   4.031  0.4561  0.3990 -0.6642
  866MOL0     O19406   5.496   6.363   4.120  0.0791  0.3850 -0.4774
  866MOL0     C19407   5.469   6.251   4.207 -0.6954  1.0203  0.7128
  866MOL0     C19408   5.543   6.132   4.146 -0.7501 -0.5781 -0.4786
  866MOL0     C19409   5.690   6.161   4.144  0.6827  0.7876  0.0319
  866MOL0     C19410   5.738   6.212   4.006 -0.4371  0.4005  0.0587
  866MOL0     C19411   5.885   6.202   3.976 -0.1321 -1.0935  0.0687
  866MOL0     C19412   5.969   6.292   4.063 -0.6711  0.4988 -1.0416
  866MOL0     C19413   6.114   6.289   4.005 -0.3708 -0.6192 -0.3909
  866MOL0     C19414   6.197   6.400   4.066 -0.5110  0.7251  0.2303
  866MOL0    Cl19415   6.187   6.402   4.242  0.0496  0.5716  0.6157
  866MOL0     C19416   5.343   6.524   4.044 -0.3802 -0.3375  0.1395
  866MOL0     C19417   5.238   6.560   3.966  0.4663 -0.4002  1.0563
  866MOL0     O19418   5.213   6.697   3.686 -0.2187 -0.2188 -0.3885
  866MOL0     C19419   4.985   6.800   3.552 -1.3377  0.8321  0.0669
  866MOL0     C19420   4.876   6.832   3.468 -0.5132  0.0419  0.0664
  866MOL0     N19421   4.026   6.648   3.189  0.5492  0.7059  0.1254
  866MOL0     N19422   3.934   6.560   3.167  0.0075 -0.1052 -0.2146
  866MOL0     C19423   3.200   6.319   3.458  0.5642  0.4677  0.1489
  866MOL0     C19424   3.124   6.381   3.554 -0.4491  0.1877 -0.2791
  866MOL0     C19425   2.735   6.619   3.615 -0.5501  0.6610 -0.0511
  866MOL0     C19426   2.752   6.749   3.647  0.9762 -0.9245 -1.2763
  866MOL0     C19427   2.656   6.822   3.718  0.6005  0.2965 -0.0017
  866MOL0     C19428   2.533   6.766   3.752  0.2236 -0.0028  0.1746
  866MOL0     O19429   2.432   6.830   3.817  0.0152  0.2270  0.0770
  866MOL0     C19430   2.418   6.969   3.794  0.4950 -0.1859  0.0082
  866MOL0     C19431   2.296   7.001   3.887  0.1888 -0.6655  0.3387
  866MOL0     C19432   2.166   6.958   3.809 -0.6462  1.0821  0.4681
  866MOL0     C19433   2.039   6.972   3.896 -0.3175  0.0033 -0.4867
  866MOL0     C19434   2.025   7.105   3.963  0.1479  0.0443 -0.7673
  866MOL0     C19435   2.004   7.213   4.020  0.7429 -0.6744  0.6024
  866MOL0     C19436   2.506   6.637   3.708  0.1822  0.8896 -0.2029
  866MOL0     C19437   2.605   6.563   3.637 -0.4137 -0.2988  0.0253
  866MOL0     C19438   2.571   6.417   3.612 -0.9569  0.2579  0.8565
  866MOL0     H19439   3.062   6.666   3.369  0.3123  0.5814 -0.4585
  866MOL0     H19440   3.149   6.536   3.195  1.7543  0.4667 -0.5596
  866MOL0     H19441   3.268   6.375   3.067  0.0853 -1.1832 -1.6927
  866MOL0     H19442   3.133   6.269   3.116  0.6817 -1.8348 -2.5285
  866MOL0     H19443   3.299   6.079   3.095  2.8270 -1.9269 -2.2911
  866MOL0     H19444   3.220   6.139   2.954  0.2880  0.6616  0.7763
  866MOL0     H19445   3.445   6.110   2.910 -2.1900  0.0493 -0.3368
  866MOL0     H19446   3.427   6.280   2.927  0.9827 -2.1259 -2.4183
  866MOL0     H19447   3.545   6.290   3.134  0.1353  0.7601 -0.6569
  866MOL0     H19448   3.509   6.119   3.170 -1.6627  2.6496  2.0869
  866MOL0     H19449   3.714   6.214   2.952 -1.8262  2.1870  1.8020
  866MOL0     H19450   3.656   6.057   2.976  2.5316  0.7831 -2.7877
  866MOL0     H19451   3.741   6.098   3.232  1.2972 -2.9328 -0.7926
  866MOL0     H19452   3.868   6.084   3.116  1.0962  1.5219 -0.9158
  866MOL0     H19453   3.882   6.265   3.278 -2.7102 -0.0565  0.8618
  866MOL0     H19454   3.755   6.354   3.186 -1.5151 -1.0054 -3.8794
  866MOL0     H19455   4.021   6.261   3.079  1.2965  0.7552 -0.0051
  866MOL0     H19456   3.893   6.331   2.973  1.5797 -3.6491 -1.7848
  866MOL0     H19457   4.213   6.411   3.075  0.0697  0.6185 -0.7531
  866MOL0     H19458   4.241   6.753   3.261  0.5118  0.9794 -2.7024
  866MOL0     H19459   4.338   6.672   3.129 -2.0960 -2.3858 -2.0222
  866MOL0     H19460   4.298   6.555   3.395 -2.2021  1.2210 -1.4213
  866MOL0     H19461   4.403   6.489   3.267  2.7731  2.6795 -3.2488
  866MOL0     H19462   4.454   6.764   3.389  1.3518  0.5924 -0.1494
  866MOL0     H19463   4.519   6.622   3.458  0.8285  0.3676  0.0280
  866MOL0     H19464   4.651   6.590   3.241 -1.1283 -0.3819 -1.2895
  866MOL0     H19465   4.565   6.716   3.168  0.2359 -2.4113 -1.4919
  866MOL0     H19466   4.739   6.525   3.422 -2.0931  1.6258 -0.5592
  866MOL0     H19467   5.030   6.378   3.525  0.8232  1.2531  0.2113
  866MOL0     H19468   4.859   6.346   3.492 -2.6980  0.8826  2.5633
  866MOL0     H19469   4.914   6.384   3.655 -0.3369 -0.2171  0.7159
  866MOL0     H19470   5.199   6.269   3.789  2.1796 -1.7005  0.9899
  866MOL0     H19471   5.399   6.217   3.929  0.3785 -0.1062  0.3191
  866MOL0     H19472   5.490   6.281   4.310 -2.9151  1.6226  1.0512
  866MOL0     H19473   5.362   6.230   4.204 -0.7200  1.2064 -0.4171
  866MOL0     H19474   5.533   6.050   4.217  1.8605  0.6205  1.4308
  866MOL0     H19475   5.504   6.098   4.050  0.4666 -1.6780 -0.6090
  866MOL0     H19476   5.735   6.065   4.171 -0.5194 -0.5839 -2.4651
  866MOL0     H19477   5.726   6.235   4.216  0.6552  2.1047 -1.2655
  866MOL0     H19478   5.716   6.317   3.987  1.5717  0.8386 -0.0742
  866MOL0     H19479   5.678   6.162   3.929  0.5089  0.7551 -0.9315
  866MOL0     H19480   5.922   6.099   3.986  0.6086 -1.0726 -1.9743
  866MOL0     H19481   5.908   6.234   3.874  0.1801  1.7198  0.9374
  866MOL0     H19482   5.965   6.252   4.165  2.0904  0.8135 -0.7326
  866MOL0     H19483   5.923   6.392   4.069 -0.1402  0.7904 -1.6609
  866MOL0     H19484   6.123   6.297   3.896  0.5144  3.6796 -0.1864
  866MOL0     H19485   6.172   6.199   4.027  3.4699  2.0448  1.5221
  866MOL0     H19486   6.168   6.502   4.038 -0.3442  0.5484 -0.6041
  866MOL0     H19487   6.298   6.400   4.024  0.2076  2.3857  1.7897
  866MOL0     H19488   5.383   6.592   4.118  3.3246  1.2618 -3.0381
  866MOL0     H19489   5.191   6.657   3.978  1.4958  0.0323  1.7883
  866MOL0     H19490   5.057   6.877   3.581  1.0467 -1.5400  0.8046
  866MOL0     H19491   4.863   6.935   3.437  2.5826  0.4648 -0.1492
  866MOL0     H19492   3.242   6.220   3.471  4.0099  1.3397 -2.6471
  866MOL0     H19493   3.126   6.344   3.656 -1.6956  4.0041  1.3008
  866MOL0     H19494   2.845   6.802   3.631  0.3640  1.6498  2.4142
  866MOL0     H19495   2.687   6.920   3.752  2.8743 -1.2858  3.0031
  866MOL0     H19496   2.502   7.022   3.840 -0.2367  2.0044 -1.0280
  866MOL0     H19497   2.392   7.011   3.697 -2.6512  0.9769  1.2127
  866MOL0     H19498   2.300   7.106   3.914  1.3815 -0.6994  0.3789
  866MOL0     H19499   2.308   6.952   3.984  0.0927  1.6741  1.5795
  866MOL0     H19500   2.159   7.013   3.714 -1.9136  1.3159  0.6802
  866MOL0     H19501   2.173   6.853   3.777  0.6839  1.1586  0.4373
  866MOL0     H19502   2.044   6.899   3.977  2.9585  3.2201  2.5732
  866MOL0     H19503   1.949   6.962   3.835 -2.2206  0.8047  2.0471
  866MOL0     H19504   1.979   7.311   4.056  1.3501 -0.2553 -0.0737
  866MOL0     H19505   2.407   6.596   3.729  0.5410  1.4434  3.1035
  866MOL0     H19506   2.645   6.362   3.671  1.8007  3.5457  0.7262
  866MOL0     H19507   2.470   6.391   3.645 -0.2941 -4.1430  0.1239
  866MOL0     H19508   2.588   6.380   3.510  3.8972 -1.3471  2.0062
  867MOL0     O19509   4.853   8.594   9.066 -0.3956  0.3995  1.1712
  867MOL0     C19510   4.778   8.628   8.977 -0.2816 -0.5394  0.2282
  867MOL0     O19511   4.789   8.745   8.911 -0.3294 -0.3443 -0.4228
  867MOL0     C19512   4.877   8.839   8.963 -0.5335 -0.3513 -0.5387
  867MOL0     C19513   4.853   8.934   9.061 -0.3717 -0.5696  0.2286
  867MOL0     C19514   4.958   9.023   9.086  0.7886 -1.5457  0.6631
  867MOL0     C19515   5.088   9.014   9.028 -0.1947 -0.2852  0.3635
  867MOL0     O19516   5.178   9.112   9.054  0.0429  0.7977  0.3491
  867MOL0     C19517   5.274   9.134   8.954  0.2422  1.1083 -0.2048
  867MOL0     C19518   5.413   9.090   9.017  0.0435 -0.7706  0.6858
  867MOL0     C19519   5.540   9.146   8.941  0.0613  0.9668  0.1338
  867MOL0     C19520   5.558   9.055   8.809 -0.0128  0.3677 -0.9735
  867MOL0     C19521   5.688   9.055   8.743 -0.0362  0.5237 -0.4934
  867MOL0     C19522   5.713   9.195   8.689  0.5868 -0.1044 -0.1863
  867MOL0     C19523   5.814   9.194   8.576  0.7146 -0.0576 -0.1872
  867MOL0     C19524   5.947   9.148   8.622 -0.3627 -0.4372  1.1357
  867MOL0     N19525   6.035   9.123   8.507  0.7508  0.0481  0.2438
  867MOL0     C19526   6.166   9.168   8.497 -0.7034  0.4267  0.1770
  867MOL0     C19527   6.211   9.108   8.383  0.6763 -0.4171 -0.4489
  867MOL0     C19528   6.345   9.115   8.308  0.1564 -0.0221  0.1788
  867MOL0     C19529   6.400   9.257   8.292  0.7105 -0.0142  0.7413
  867MOL0     C19530   6.525   9.283   8.208 -0.1658  0.4291 -0.0722
  867MOL0     C19531   6.499   9.251   8.053 -0.5980 -0.2486 -0.6989
  867MOL0     O19532   6.615   9.284   7.981 -0.0692 -0.5722 -0.4445
  867MOL0     C19533   6.651   9.229   7.864  0.1096 -0.2327  0.2478
  867MOL0     C19534   6.569   9.144   7.777  0.1289  0.2088 -0.9829
  867MOL0     C19535   6.629   9.088   7.665 -0.8114 -0.7016 -0.0556
  867MOL0     C19536   6.563   9.004   7.580  0.3224  0.6758  1.0713
  867MOL0     C19537   6.773   9.096   7.647 -0.0692  0.2408 -0.3474
  867MOL0     C19538   6.847   9.029   7.536  0.1803  0.8650 -0.3092
  867MOL0     O19539   6.975   8.994   7.564 -0.5889  0.4081  0.4922
  867MOL0     C19540   7.067   9.007   7.465  0.0014  0.5840  0.1036
  867MOL0     C19541   7.094   8.900   7.376  0.0503 -0.1885  0.5964
  867MOL0     C19542   7.181   8.917   7.269  0.1348  0.2628 -0.9618
  867MOL0     C19543   7.256   9.031   7.255 -0.1897 -0.2693  1.0247
  867MOL0     O19544   7.339   9.038   7.142 -0.0144  0.8327  0.3491
  867MOL0     C19545   7.417   9.148   7.108 -0.0491 -0.1917  0.2690
  867MOL0     C19546   7.505   9.118   6.996  0.9670 -0.9206  0.1185
  867MOL0     C19547   7.562   9.249   6.927 -0.1197  0.2729  0.0400
  867MOL0     C19548   7.662   9.217   6.825 -0.4253 -0.6667  0.3523
  867MOL0     C19549   7.618   9.285   6.696  0.3386  0.3236  0.4215
  867MOL0     C19550   7.708   9.255   6.587 -0.1454  0.0959  0.1263
  867MOL0     C19551   7.671   9.122   6.512 -0.1304  0.3446 -0.0451
  867MOL0     C19552   7.775   9.080   6.410  0.3349  0.1941 -0.7494
  867MOL0    Cl19553   7.798   9.205   6.281 -0.1530 -0.3109  0.3791
  867MOL0     C19554   7.233   9.144   7.342  0.5388  0.1000  0.8497
  867MOL0     C19555   7.135   9.129   7.450 -0.6767  0.1229  0.2486
  867MOL0     O19556   6.797   9.027   7.423  0.8133 -0.2736 -0.0550
  867MOL0     C19557   6.848   9.172   7.737  0.1574 -0.7954  0.4219
  867MOL0     C19558   6.792   9.255   7.834  0.2135 -0.0583 -0.0221
  867MOL0     N19559   6.106   9.044   8.320  0.2468  0.5337 -0.6276
  867MOL0     N19560   6.003   9.059   8.392  0.0953  0.1489 -0.5376
  867MOL0     C19561   5.104   8.907   8.940 -0.4961  0.7889  0.6173
  867MOL0     C19562   4.999   8.826   8.905  1.6159  0.0016  0.1821
  867MOL0     C19563   4.686   8.527   8.927  0.0267  0.2171  0.1163
  867MOL0     C19564   4.655   8.541   8.790  0.9361  0.1640 -0.7748
  867MOL0     C19565   4.564   8.453   8.725 -0.3378 -0.0947 -0.3366
  867MOL0     C19566   4.513   8.345   8.796 -0.0721  0.1446 -0.1974
  867MOL0     O19567   4.427   8.262   8.734  0.3227  0.3247 -0.4628
  867MOL0     C19568   4.345   8.178   8.814  0.4568  0.0998  0.3438
  867MOL0     C19569   4.245   8.099   8.731 -0.2104 -0.1407  0.0125
  867MOL0     C19570   4.304   8.052   8.598 -0.8485 -0.2019  0.1677
  867MOL0     C19571   4.436   7.961   8.608 -0.6806  0.3757  0.0775
  867MOL0     C19572   4.421   7.841   8.699 -0.6029  0.2188  0.1616
  867MOL0     C19573   4.389   7.743   8.761  0.2017 -0.3102  0.6076
  867MOL0     C19574   4.552   8.321   8.928  0.8707 -0.9058  1.3805
  867MOL0     C19575   4.627   8.415   8.998  0.5747  0.5684 -0.2471
  867MOL0     C19576   4.656   8.386   9.144 -0.5374 -0.1047 -1.3673
  867MOL0     H19577   4.758   8.953   9.111  0.7350 -1.8587  3.0439
  867MOL0     H19578   4.941   9.111   9.147  0.7329 -0.3610 -0.9783
  867MOL0     H19579   5.284   9.242   8.937  4.8262  0.8653 -0.5111
  867MOL0     H19580   5.251   9.077   8.864  0.7634  1.4176 -0.5429
  867MOL0     H19581   5.413   9.157   9.103  0.1847  1.9514 -1.2920
  867MOL0     H19582   5.414   8.982   9.032 -2.9625 -0.8989  0.5883
  867MOL0     H19583   5.546   9.252   8.917 -0.7833  1.1831  0.8220
  867MOL0     H19584   5.637   9.134   8.990  0.6125  3.1005 -0.3468
  867MOL0     H19585   5.538   8.950   8.831 -0.4859  0.0892 -2.6005
  867MOL0     H19586   5.478   9.079   8.739 -0.6015 -1.2249 -0.8865
  867MOL0     H19587   5.682   8.979   8.664  0.6561 -1.3840  1.2002
  867MOL0     H19588   5.767   9.028   8.814 -0.8899 -0.8159 -0.0276
  867MOL0     H19589   5.616   9.228   8.651  0.2574  1.4164  1.7682
  867MOL0     H19590   5.729   9.262   8.774  0.4121  1.3832 -1.2898
  867MOL0     H19591   5.825   9.295   8.535  2.4334  0.5359  1.5727
  867MOL0     H19592   5.788   9.125   8.496 -2.4320 -0.0709  0.6767
  867MOL0     H19593   5.978   9.224   8.694 -1.2504 -0.7414  1.8605
  867MOL0     H19594   5.946   9.054   8.677 -0.4309 -1.0071  0.1785
  867MOL0     H19595   6.212   9.238   8.567 -0.2652  1.3370 -0.9854
  867MOL0     H19596   6.338   9.063   8.211  2.3855 -0.4339  0.1868
  867MOL0     H19597   6.422   9.060   8.363  0.5279  0.3411  0.0335
  867MOL0     H19598   6.324   9.321   8.245 -0.3533 -0.8365  1.3117
  867MOL0     H19599   6.414   9.299   8.392  2.3517 -0.5423  0.7571
  867MOL0     H19600   6.552   9.387   8.226  0.1806  0.1300  1.2259
  867MOL0     H19601   6.606   9.226   8.255  1.1385  1.2118 -1.2754
  867MOL0     H19602   6.479   9.145   8.037  1.2739 -0.8347  0.4942
  867MOL0     H19603   6.404   9.296   8.022 -0.4548  0.8551  0.3775
  867MOL0     H19604   6.462   9.142   7.794  0.0168  1.4987 -1.4112
  867MOL0     H19605   6.548   9.057   7.485 -2.7220  0.0359  1.0910
  867MOL0     H19606   6.465   8.970   7.614 -1.4677  2.1271 -2.1352
  867MOL0     H19607   6.633   8.922   7.565 -0.8072  0.1581 -2.0971
  867MOL0     H19608   7.037   8.808   7.381  0.4118 -0.3560  2.8333
  867MOL0     H19609   7.193   8.833   7.202  0.5123  0.7576 -1.5222
  867MOL0     H19610   7.343   9.221   7.076  1.4492  2.3469  2.2049
  867MOL0     H19611   7.468   9.186   7.197 -1.1278 -0.5322  1.0598
  867MOL0     H19612   7.588   9.054   7.027  2.0893  0.2551 -0.3548
  867MOL0     H19613   7.455   9.066   6.914  0.7717  2.6328 -2.2391
  867MOL0     H19614   7.614   9.304   7.005 -1.2740 -0.1214  1.1106
  867MOL0     H19615   7.472   9.297   6.887 -0.0188 -0.6216 -1.3566
  867MOL0     H19616   7.676   9.109   6.826 -2.9286 -1.0341  0.7408
  867MOL0     H19617   7.760   9.252   6.860 -1.4744  1.1942  1.6285
  867MOL0     H19618   7.522   9.251   6.656  1.8558 -2.6368 -1.0126
  867MOL0     H19619   7.620   9.390   6.725  1.6488 -0.4940  3.7457
  867MOL0     H19620   7.810   9.252   6.627 -1.2759 -0.2429  3.2408
  867MOL0     H19621   7.708   9.332   6.510  1.7457 -2.8622 -3.1458
  867MOL0     H19622   7.576   9.135   6.460  1.5353  1.0485 -3.1498
  867MOL0     H19623   7.660   9.043   6.587 -1.9584 -0.7322 -1.3748
  867MOL0     H19624   7.744   8.979   6.382 -1.4805 -0.0765  1.8110
  867MOL0     H19625   7.872   9.066   6.459 -0.7250 -3.9244  0.6073
  867MOL0     H19626   7.288   9.236   7.323  0.6157 -0.4533 -2.0842
  867MOL0     H19627   7.121   9.208   7.523  0.4218 -0.2607  0.8986
  867MOL0     H19628   6.956   9.180   7.732  0.2002  1.7368  2.7394
  867MOL0     H19629   6.850   9.323   7.895  0.0680  0.6602 -0.6706
  867MOL0     H19630   5.205   8.902   8.900 -0.4406  5.9638 -0.6599
  867MOL0     H19631   5.022   8.744   8.838 -2.3086  0.8337 -2.4903
  867MOL0     H19632   4.688   8.627   8.733 -2.1544  2.1000  0.1190
  867MOL0     H19633   4.541   8.466   8.620  2.3384 -0.3772 -1.0311
  867MOL0     H19634   4.413   8.102   8.853  0.3973 -1.1792 -1.8741
  867MOL0     H19635   4.293   8.231   8.894  1.3507 -2.1617  2.5493
  867MOL0     H19636   4.155   8.156   8.711 -0.5563 -0.4440  0.6608
  867MOL0     H19637   4.210   8.010   8.785 -1.7954 -0.9870 -2.2847
  867MOL0     H19638   4.233   7.993   8.540 -0.1582  1.1297 -2.1615
  867MOL0     H19639   4.325   8.141   8.538 -1.9574 -0.0470 -0.0028
  867MOL0     H19640   4.515   8.030   8.639 -0.7110  0.6583 -0.4677
  867MOL0     H19641   4.463   7.922   8.510 -0.2137 -2.5008  1.2308
  867MOL0     H19642   4.364   7.657   8.820  2.8172 -1.7136 -0.1757
  867MOL0     H19643   4.524   8.227   8.974 -0.7758 -1.4457 -0.5783
  867MOL0     H19644   4.744   8.322   9.137  0.2655  0.6966  0.5598
  867MOL0     H19645   4.679   8.477   9.201  2.6834 -1.3162 -0.5208
  867MOL0     H19646   4.574   8.337   9.198  0.3701  0.5500  0.7189
  868MOL0     O19647   2.193   1.143  10.943  0.3838  1.3267 -0.0621
  868MOL0     C19648   2.201   1.021  10.926 -0.2807  0.3082  0.1196
  868MOL0     O19649   2.307   0.948  10.959  0.2976  0.0681  1.2421
  868MOL0     C19650   2.415   1.011  11.026  0.1356 -0.5614 -0.4029
  868MOL0     C19651   2.447   0.967  11.154  0.0973 -0.1004  0.3624
  868MOL0     C19652   2.564   1.006  11.222 -0.4838  0.0429  0.1018
  868MOL0     C19653   2.642   1.101  11.158 -0.7210 -0.5031  0.5927
  868MOL0     O19654   2.745   1.148  11.239 -0.1113 -0.3641 -0.0321
  868MOL0     C19655   2.855   1.067  11.276  0.2759 -0.2079 -0.4125
  868MOL0     C19656   2.954   1.038  11.175  0.0235 -0.4736  0.5378
  868MOL0     C19657   3.078   0.986  11.234 -0.0547  0.2030  0.3147
  868MOL0     C19658   3.168   0.923  11.125 -0.6170  0.6391  0.3297
  868MOL0     C19659   3.286   0.822  11.177  0.9725  0.0367  0.5667
  868MOL0     C19660   3.400   0.904  11.235 -0.0535  0.2652 -0.2977
  868MOL0     C19661   3.522   0.829  11.301 -0.0606 -0.1607  0.4280
  868MOL0     C19662   3.637   0.923  11.336  0.1084  0.2784 -0.3271
  868MOL0     N19663   3.746   0.862  11.415 -0.0723  0.0959  0.5027
  868MOL0     C19664   3.840   0.765  11.376  0.5325  1.0562  0.5149
  868MOL0     C19665   3.907   0.731  11.490  0.8368  0.4677  0.8338
  868MOL0     C19666   4.015   0.631  11.496 -0.4639 -0.4323  0.1759
  868MOL0     C19667   4.151   0.695  11.466 -0.4705  0.6922 -0.9532
  868MOL0     C19668   4.173   0.721  11.317 -0.2597 -0.4921 -0.1509
  868MOL0     C19669   4.309   0.797  11.312  0.3611  0.8004  0.0540
  868MOL0     O19670   4.340   0.782  11.170 -0.4654  0.4690  0.9273
  868MOL0     C19671   4.466   0.811  11.132  0.3364 -0.3463  0.5691
  868MOL0     C19672   4.499   0.754  11.005 -0.3665  0.4886 -0.6662
  868MOL0     C19673   4.619   0.798  10.939 -0.0534  0.3183  0.0611
  868MOL0     C19674   4.653   0.729  10.811 -0.0599 -0.7936 -0.2068
  868MOL0     C19675   4.709   0.881  11.014 -0.1623  0.4782 -0.2890
  868MOL0     C19676   4.840   0.927  10.966 -1.0118  1.0957 -0.6175
  868MOL0     O19677   4.876   0.922  10.835 -0.3027  0.0583  0.2811
  868MOL0     C19678   4.990   0.981  10.798 -0.2958  0.2111  0.1930
  868MOL0     C19679   5.118   0.919  10.814  0.5738 -0.2660 -0.1318
  868MOL0     C19680   5.240   0.986  10.777  0.6152  0.3863  0.7442
  868MOL0     C19681   5.232   1.107  10.719  0.4024 -0.1084  0.3191
  868MOL0     O19682   5.336   1.189  10.675  0.1948  0.3229 -0.3166
  868MOL0     C19683   5.471   1.150  10.657 -0.3438 -0.0454 -0.4409
  868MOL0     C19684   5.549   1.265  10.606  0.1965  0.2752 -0.0355
  868MOL0     C19685   5.491   1.335  10.475  0.0360  1.2303 -1.2841
  868MOL0     C19686   5.611   1.393  10.396 -0.2490 -0.2994  0.3185
  868MOL0     C19687   5.555   1.487  10.285 -0.6590 -0.6548 -0.3495
  868MOL0     C19688   5.644   1.491  10.160  0.8440 -0.0935 -0.1983
  868MOL0     C19689   5.596   1.594  10.058  0.0048  0.4969  0.2136
  868MOL0     C19690   5.686   1.573   9.933  0.0261 -0.1069 -0.0910
  868MOL0    Cl19691   5.861   1.580   9.974  0.3933  0.3954 -0.4716
  868MOL0     C19692   5.108   1.170  10.709  0.1488 -0.1961  0.6576
  868MOL0     C19693   4.990   1.113  10.749 -0.2417 -0.8740  0.7084
  868MOL0     O19694   4.918   0.969  11.052 -0.4679 -0.9525  0.1184
  868MOL0     C19695   4.669   0.928  11.139 -0.5998  0.1245 -0.5761
  868MOL0     C19696   4.551   0.898  11.197  0.3561 -0.0588 -0.6411
  868MOL0     N19697   3.850   0.807  11.593 -0.4969  0.9095 -0.6153
  868MOL0     N19698   3.745   0.866  11.554 -0.1579  0.4787 -0.7725
  868MOL0     C19699   2.599   1.164  11.038 -0.3939 -0.3875 -0.0882
  868MOL0     C19700   2.490   1.115  10.967  0.6047  0.0751 -0.1153
  868MOL0     C19701   2.100   0.962  10.839  0.8451  0.3712  0.0676
  868MOL0     C19702   2.062   1.025  10.724 -0.3966  0.1194 -0.0179
  868MOL0     C19703   1.959   0.980  10.648  0.8647  0.2793  0.4277
  868MOL0     C19704   1.884   0.870  10.681 -0.4541  0.4193  0.7235
  868MOL0     O19705   1.782   0.831  10.598  0.8224 -1.3242 -0.1590
  868MOL0     C19706   1.678   0.751  10.650  0.8099  0.8659  1.1124
  868MOL0     C19707   1.597   0.807  10.766 -0.9213 -1.0201 -0.5186
  868MOL0     C19708   1.534   0.945  10.737  0.2306  0.2604 -0.9918
  868MOL0     C19709   1.393   0.953  10.661 -0.3928  0.8255 -0.2148
  868MOL0     C19710   1.385   0.897  10.522 -0.2523  0.5666  0.2665
  868MOL0     C19711   1.376   0.859  10.410 -0.2762  1.1295  0.7195
  868MOL0     C19712   1.922   0.804  10.791  2.1497 -0.3213 -0.2688
  868MOL0     C19713   2.032   0.846  10.873  0.0731  0.2874  0.2405
  868MOL0     C19714   2.060   0.767  11.001  0.0057  0.3035 -0.5375
  868MOL0     H19715   2.375   0.899  11.197 -2.0092  2.6133  1.4031
  868MOL0     H19716   2.573   0.974  11.325 -3.3262 -1.5865 -0.0613
  868MOL0     H19717   2.811   0.976  11.318 -0.4957 -1.0184 -2.8036
  868MOL0     H19718   2.919   1.119  11.347  1.3145 -1.8805 -0.0711
  868MOL0     H19719   2.914   0.966  11.103  3.8749 -0.1473 -2.2674
  868MOL0     H19720   2.972   1.127  11.114 -0.5462 -1.2504 -0.8082
  868MOL0     H19721   3.129   1.064  11.292 -1.2938 -2.3305  5.3311
  868MOL0     H19722   3.051   0.910  11.308  1.5984 -0.0891  0.6767
  868MOL0     H19723   3.103   0.867  11.057  2.1568 -1.8875 -0.4247
  868MOL0     H19724   3.216   0.997  11.060  0.6995 -0.6934 -0.2724
  868MOL0     H19725   3.320   0.764  11.091  2.0752 -0.7095  1.4698
  868MOL0     H19726   3.258   0.755  11.258  1.0149  1.1930  1.5698
  868MOL0     H19727   3.439   0.968  11.156 -2.5137  1.6190 -0.4846
  868MOL0     H19728   3.351   0.965  11.312 -2.5766 -0.7927 -0.9570
  868MOL0     H19729   3.561   0.751  11.235 -1.6405 -1.6209  1.1591
  868MOL0     H19730   3.484   0.773  11.386  0.7246  0.0844  0.9547
  868MOL0     H19731   3.681   0.970  11.248  0.3718  1.6323  0.4953
  868MOL0     H19732   3.591   1.003  11.396 -2.0688  0.0518 -1.5807
  868MOL0     H19733   3.851   0.733  11.273 -3.0751  1.7690 -0.2193
  868MOL0     H19734   3.995   0.546  11.430 -0.4303 -0.1041 -0.2597
  868MOL0     H19735   4.022   0.593  11.598 -0.8550 -0.1580  0.3062
  868MOL0     H19736   4.145   0.798  11.502 -1.3215  1.3453 -2.8346
  868MOL0     H19737   4.226   0.631  11.512  0.1585  0.0853 -2.7557
  868MOL0     H19738   4.191   0.632  11.257  3.1681 -0.5004  0.6560
  868MOL0     H19739   4.089   0.782  11.283  0.5111  2.1093  2.2254
  868MOL0     H19740   4.301   0.904  11.332  1.2856  1.6999 -3.6873
  868MOL0     H19741   4.394   0.754  11.366  2.9485  2.7478 -2.2260
  868MOL0     H19742   4.426   0.681  10.972  2.0483 -1.1876 -2.6772
  868MOL0     H19743   4.644   0.796  10.725  0.1573  0.2135  0.5296
  868MOL0     H19744   4.583   0.646  10.801 -0.2031 -0.8476  1.0654
  868MOL0     H19745   4.748   0.676  10.802 -0.4472 -1.2764 -1.6861
  868MOL0     H19746   5.115   0.821  10.860  2.3715 -1.1722 -1.8077
  868MOL0     H19747   5.339   0.942  10.777 -0.0233 -1.1518 -0.2102
  868MOL0     H19748   5.501   1.129  10.760 -1.8315 -1.6091 -0.2805
  868MOL0     H19749   5.482   1.063  10.592 -2.5442 -2.6713  2.3804
  868MOL0     H19750   5.561   1.342  10.683 -1.0993 -0.6408  1.1409
  868MOL0     H19751   5.651   1.230  10.588 -0.9533 -3.7136  0.1645
  868MOL0     H19752   5.420   1.407  10.517 -0.1022  0.0551  0.5937
  868MOL0     H19753   5.432   1.261  10.421  0.0383  0.3434 -0.1129
  868MOL0     H19754   5.669   1.312  10.352  0.6096 -0.5717  1.8670
  868MOL0     H19755   5.678   1.451  10.460  0.3656  2.1321 -2.3548
  868MOL0     H19756   5.455   1.470  10.244 -0.7568 -1.7973  0.3393
  868MOL0     H19757   5.555   1.585  10.332  2.8541  0.3035 -1.9510
  868MOL0     H19758   5.648   1.394  10.110 -2.7310  0.5389 -2.0482
  868MOL0     H19759   5.738   1.530  10.201  0.6651 -0.7135  0.8230
  868MOL0     H19760   5.584   1.690  10.110 -4.4925  1.0915 -1.4759
  868MOL0     H19761   5.493   1.569  10.031 -0.2148  1.3158  0.2741
  868MOL0     H19762   5.657   1.662   9.876 -2.2692  0.3840  1.6649
  868MOL0     H19763   5.654   1.484   9.878 -1.3154  0.8641 -0.9472
  868MOL0     H19764   5.103   1.261  10.651 -0.3364 -1.4564 -1.3867
  868MOL0     H19765   4.902   1.171  10.722  0.2739  0.0432  0.9413
  868MOL0     H19766   4.729   0.998  11.195 -0.4355 -0.3092 -0.2019
  868MOL0     H19767   4.515   0.949  11.286  1.1591  3.6549 -2.2376
  868MOL0     H19768   2.663   1.246  11.004 -0.9563  1.3210  2.6374
  868MOL0     H19769   2.456   1.146  10.868 -0.8849 -1.5183 -0.1421
  868MOL0     H19770   2.126   1.108  10.696  0.1633  0.2562  1.5844
  868MOL0     H19771   1.936   1.032  10.555  0.9324 -3.0386 -1.5822
  868MOL0     H19772   1.609   0.731  10.567  3.3271  0.8669 -1.0911
  868MOL0     H19773   1.715   0.652  10.677 -3.1295 -0.2281  3.3908
  868MOL0     H19774   1.653   0.826  10.858 -0.0504 -0.5798 -1.1270
  868MOL0     H19775   1.526   0.733  10.804  2.5215 -4.2598  0.1586
  868MOL0     H19776   1.537   1.003  10.830  0.6025 -0.2942 -0.6505
  868MOL0     H19777   1.610   0.993  10.674  2.8969 -1.9400  0.3165
  868MOL0     H19778   1.373   1.060  10.657  2.9005  1.4847 -2.4398
  868MOL0     H19779   1.316   0.901  10.720 -0.9348  2.6339  0.7730
  868MOL0     H19780   1.373   0.827  10.308  2.2758 -0.4981  1.0768
  868MOL0     H19781   1.876   0.713  10.827 -2.6679  0.8429 -2.5944
  868MOL0     H19782   2.043   0.808  11.101 -1.6315 -1.6570  0.0583
  868MOL0     H19783   2.004   0.674  10.988  1.5644 -0.6567 -0.5782
  868MOL0     H19784   2.163   0.733  10.993  0.0881  0.9174 -2.6027
  869MOL0     O19785   8.988   9.831  10.503  1.0606 -0.2818  0.3779
  869MOL0     C19786   8.899   9.904  10.555  0.1000  1.4864  0.0965
  869MOL0     O19787   8.917   9.990  10.654 -0.8037 -0.2439 -0.4176
  869MOL0     C19788   9.050   9.999  10.686 -0.4656 -0.3883 -0.2181
  869MOL0     C19789   9.130   9.905  10.756  1.4930 -0.9650  0.9033
  869MOL0     C19790   9.259   9.926  10.776 -1.4764 -0.6085 -0.5740
  869MOL0     C19791   9.322  10.045  10.738  0.4799  0.0615  0.4607
  869MOL0     O19792   9.451  10.063  10.779 -0.3009 -0.2926  0.4288
  869MOL0     C19793   9.516  10.189  10.761 -0.1512  0.3960  0.7844
  869MOL0     C19794   9.648  10.184  10.826  0.2116  0.4469  0.4728
  869MOL0     C19795   9.641  10.166  10.975  0.2483 -0.3521 -0.0649
  869MOL0     C19796   9.776  10.124  11.028  0.6943  0.4518 -0.2307
  869MOL0     C19797   9.781  10.117  11.184 -0.2405 -0.4333  0.8145
  869MOL0     C19798   9.908  10.047  11.219  0.2610  0.4621 -0.1185
  869MOL0     C19799   9.923  10.018  11.366 -0.0070  0.6587  0.6140
  869MOL0     C19800  10.026   9.922  11.412  0.2986 -0.4502 -0.3685
  869MOL0     N19801  10.106   9.951  11.530  0.6568 -0.0702  1.2062
  869MOL0     C19802  10.229  10.005  11.531  0.3088  0.0278  0.0321
  869MOL0     C19803  10.257  10.016  11.668  0.7256 -0.4567  0.1712
  869MOL0     C19804  10.390  10.049  11.719  0.3290  0.8581 -0.4061
  869MOL0     C19805  10.493   9.952  11.667 -0.3442 -0.1693 -0.1903
  869MOL0     C19806  10.476   9.817  11.734  0.5134 -0.2885  0.5062
  869MOL0     C19807  10.598   9.722  11.718  0.7081 -0.1419  0.4023
  869MOL0     O19808  10.706   9.775  11.798  0.7032 -0.1399 -1.1625
  869MOL0     C19809  10.826   9.706  11.815  0.0366 -1.6317  0.4493
  869MOL0     C19810  10.821   9.576  11.866  0.0232 -0.4159  0.9678
  869MOL0     C19811  10.943   9.508  11.896 -0.1297 -0.0221  0.2969
  869MOL0     C19812  10.937   9.368  11.935 -0.3236 -0.2265 -0.1267
  869MOL0     C19813  11.073   9.580  11.885  0.9891 -0.6364 -0.4270
  869MOL0     C19814  11.210   9.520  11.928 -0.1635 -0.7247 -0.1402
  869MOL0     O19815  11.322   9.599  11.910  0.2180 -0.4504  0.3523
  869MOL0     C19816  11.447   9.540  11.937  0.0044 -0.4262  0.2219
  869MOL0     C19817  11.491   9.416  11.896 -0.0957 -0.0004  0.5731
  869MOL0     C19818  11.621   9.374  11.928 -0.1187  0.4483  0.0385
  869MOL0     C19819  11.713   9.459  11.996 -0.3372  0.5507  0.0810
  869MOL0     O19820  11.847   9.425  12.002  0.4744  0.3069  0.1004
  869MOL0     C19821  11.888   9.286  12.011 -0.2554  0.4243  0.1933
  869MOL0     C19822  12.029   9.258  12.070 -1.0834  0.0179 -1.7736
  869MOL0     C19823  12.069   9.346  12.191  0.1450  1.1346  0.2503
  869MOL0     C19824  12.075   9.273  12.326 -0.1264  0.6352 -0.5233
  869MOL0     C19825  12.088   9.376  12.443 -0.1153  0.2194 -0.5275
  869MOL0     C19826  12.213   9.465  12.470  0.7261 -0.3326  0.6536
  869MOL0     C19827  12.345   9.387  12.477 -0.0651  0.3057 -0.5937
  869MOL0     C19828  12.456   9.478  12.491 -0.7427 -0.2618  0.3637
  869MOL0    Cl19829  12.577   9.417  12.606 -0.4656  0.2363  0.1405
  869MOL0     C19830  11.671   9.587  12.031  0.8422 -1.0035 -0.5741
  869MOL0     C19831  11.542   9.628  12.001 -0.0607 -0.5791  0.5088
  869MOL0     O19832  11.214   9.414  11.984 -0.3816 -0.0445 -0.2027
  869MOL0     C19833  11.067   9.712  11.835  1.1545 -0.4883  0.2221
  869MOL0     C19834  10.948   9.774  11.818 -0.0181  0.0551  0.1301
  869MOL0     N19835  10.143   9.996  11.733  0.3857 -0.0863  0.9482
  869MOL0     N19836  10.050   9.954  11.651  0.8159  0.6266 -0.1749
  869MOL0     C19837   9.239  10.148  10.681 -0.4522 -0.3780  0.5563
  869MOL0     C19838   9.103  10.122  10.663 -0.2487 -0.5352 -0.0463
  869MOL0     C19839   8.767   9.891  10.480 -0.1596 -1.1853 -0.1348
  869MOL0     C19840   8.744   9.790  10.387  0.2698 -0.1131  0.0104
  869MOL0     C19841   8.621   9.763  10.317 -0.6963 -0.1393 -0.1845
  869MOL0     C19842   8.514   9.849  10.348 -0.0190 -0.0556  0.8113
  869MOL0     O19843   8.380   9.839  10.303 -0.5787  0.2660 -0.5068
  869MOL0     C19844   8.340   9.734  10.212  0.1004 -0.8747 -0.3056
  869MOL0     C19845   8.394   9.785  10.071  0.6344 -0.4671 -0.1207
  869MOL0     C19846   8.320   9.697   9.962  0.7840 -0.1313 -0.7352
  869MOL0     C19847   8.173   9.736   9.945 -0.5850  0.6137  0.1733
  869MOL0     C19848   8.116   9.686   9.818  0.6241  0.0487 -0.5753
  869MOL0     C19849   8.046   9.636   9.735 -0.3986 -0.2287  0.4439
  869MOL0     C19850   8.539   9.956  10.436 -0.2385  0.6657  0.6571
  869MOL0     C19851   8.660   9.979  10.500 -0.0384 -0.1270  0.6643
  869MOL0     C19852   8.658  10.096  10.589 -1.0954 -0.0095 -0.9513
  869MOL0     H19853   9.076   9.814  10.781 -2.5858  0.5742 -1.2254
  869MOL0     H19854   9.314   9.856  10.837  0.0943  0.4602 -0.6952
  869MOL0     H19855   9.452  10.272  10.794 -2.4759 -1.5552  1.4654
  869MOL0     H19856   9.525  10.209  10.654 -2.1521  1.3414  0.7431
  869MOL0     H19857   9.694  10.093  10.786 -0.9360  0.4511 -0.9225
  869MOL0     H19858   9.705  10.271  10.792 -2.6353  1.8627 -0.9470
  869MOL0     H19859   9.596  10.247  11.033  1.2181 -1.0214  1.6917
  869MOL0     H19860   9.567  10.088  10.991  2.4044 -3.2066 -2.7215
  869MOL0     H19861   9.815  10.034  10.981  0.3326  0.0547  0.2264
  869MOL0     H19862   9.852  10.197  10.997 -0.5888  1.7578 -0.3969
  869MOL0     H19863   9.700  10.050  11.212 -2.6090  1.2164 -1.6023
  869MOL0     H19864   9.777  10.219  11.225 -1.4735  0.8630 -2.2405
  869MOL0     H19865   9.911   9.947  11.174  0.1706 -0.5269  1.9527
  869MOL0     H19866   9.998  10.095  11.180  2.8947 -2.1638  2.2643
  869MOL0     H19867   9.829   9.975  11.402 -1.3920  2.9553 -0.0450
  869MOL0     H19868   9.943  10.115  11.411 -0.3328  0.3478  1.4590
  869MOL0     H19869   9.972   9.829  11.436 -0.9454  0.4186  0.3273
  869MOL0     H19870  10.094   9.905  11.328  3.4980  2.7566  1.3056
  869MOL0     H19871  10.302  10.015  11.452  1.5298  0.8627  1.2243
  869MOL0     H19872  10.387  10.058  11.828 -0.0459  3.3062 -0.5640
  869MOL0     H19873  10.418  10.146  11.678  1.9679  0.4686 -0.2440
  869MOL0     H19874  10.477   9.935  11.560 -4.3007  1.2584  0.0060
  869MOL0     H19875  10.592   9.998  11.675 -0.8785  0.8783  0.6940
  869MOL0     H19876  10.468   9.837  11.841 -1.7416 -2.4896  0.8619
  869MOL0     H19877  10.380   9.767  11.717  0.7793 -0.1258 -1.6894
  869MOL0     H19878  10.556   9.627  11.751  0.6530 -0.2570  0.0014
  869MOL0     H19879  10.627   9.703  11.614 -0.7963 -2.9775  0.4327
  869MOL0     H19880  10.726   9.526  11.878 -0.8367  0.4097 -1.8316
  869MOL0     H19881  11.005   9.301  11.882 -1.6462 -0.6492 -1.3683
  869MOL0     H19882  10.834   9.334  11.915 -0.4260 -0.3965  0.6618
  869MOL0     H19883  10.964   9.362  12.040  2.3279 -1.1475 -0.7961
  869MOL0     H19884  11.411   9.362  11.848  0.0399  2.0071 -2.1485
  869MOL0     H19885  11.651   9.270  11.914 -2.1768  0.0711 -2.1851
  869MOL0     H19886  11.822   9.227  12.074  0.2628 -1.6372 -1.0979
  869MOL0     H19887  11.879   9.235  11.915  0.2977  0.2000  0.2564
  869MOL0     H19888  12.039   9.152  12.092  1.3265  0.1426 -1.9973
  869MOL0     H19889  12.111   9.278  12.000  0.9552  0.7034  0.6289
  869MOL0     H19890  12.007   9.436  12.195  0.5363  1.3871  0.7341
  869MOL0     H19891  12.170   9.384  12.175 -0.3167  2.9184  1.2810
  869MOL0     H19892  12.169   9.216  12.327 -0.6855 -0.5932 -3.7473
  869MOL0     H19893  11.992   9.203  12.342  0.5931 -1.0283 -3.3511
  869MOL0     H19894  11.994   9.432  12.445  0.0296  0.4504 -0.0451
  869MOL0     H19895  12.085   9.316  12.534  1.4109 -0.4462 -0.8700
  869MOL0     H19896  12.190   9.529  12.556 -3.0698 -1.2744  0.5130
  869MOL0     H19897  12.229   9.526  12.381 -0.5279 -2.8713 -1.4545
  869MOL0     H19898  12.352   9.319  12.392  4.0325 -0.5753  0.2599
  869MOL0     H19899  12.348   9.313  12.558  1.5624  1.4745  0.4785
  869MOL0     H19900  12.424   9.578  12.519  3.4328  2.0571 -2.0551
  869MOL0     H19901  12.506   9.490  12.394  0.7137 -0.2459  1.0799
  869MOL0     H19902  11.731   9.657  12.088 -0.3235 -0.7814  0.4387
  869MOL0     H19903  11.505   9.725  12.031 -1.4952 -0.3118 -1.8710
  869MOL0     H19904  11.159   9.764  11.812  1.8792 -0.9002  1.9793
  869MOL0     H19905  10.953   9.879  11.789  0.2046  0.9207  2.9838
  869MOL0     H19906   9.285  10.239  10.645  4.7235 -2.4625  1.0403
  869MOL0     H19907   9.051  10.206  10.618  0.9446 -0.8415 -2.0941
  869MOL0     H19908   8.817   9.711  10.373 -0.3110 -0.9546  1.5347
  869MOL0     H19909   8.619   9.678  10.250  2.0590 -1.0021  0.6819
  869MOL0     H19910   8.372   9.634  10.241  1.4806 -0.0408  1.2352
  869MOL0     H19911   8.232   9.738  10.203 -0.4989 -3.5742  3.4583
  869MOL0     H19912   8.501   9.771  10.055  0.6812  2.4684 -3.8340
  869MOL0     H19913   8.381   9.893  10.058 -1.9594 -0.9188 -2.1196
  869MOL0     H19914   8.374   9.694   9.866 -0.0777  0.1000 -1.2383
  869MOL0     H19915   8.320   9.598  10.009 -0.6464 -2.6232 -5.3173
  869MOL0     H19916   8.151   9.842   9.959 -0.8966  0.6295 -0.4184
  869MOL0     H19917   8.117   9.673  10.015 -0.1170 -2.0246 -1.6472
  869MOL0     H19918   7.978   9.602   9.660  0.7727  0.8480 -1.1805
  869MOL0     H19919   8.458  10.028  10.438 -0.1803  0.7948 -0.7123
  869MOL0     H19920   8.586  10.172  10.557 -1.3016 -0.3585 -1.3071
  869MOL0     H19921   8.653  10.071  10.696  2.3677  4.6428  0.6619
  869MOL0     H19922   8.751  10.154  10.591  0.5115 -2.4542 -0.0675
  870MOL0     O19923   1.022   2.997  10.991 -0.8738  0.4393  0.0092
  870MOL0     C19924   0.908   2.983  10.946  0.0186 -0.1680 -0.0865
  870MOL0     O19925   0.847   2.864  10.909  0.1409 -0.4929 -0.3356
  870MOL0     C19926   0.928   2.767  10.868 -0.3909 -0.7356 -0.3551
  870MOL0     C19927   0.928   2.642  10.941 -0.1759  0.3680 -0.6072
  870MOL0     C19928   1.006   2.532  10.891  0.1681  0.0801 -0.3669
  870MOL0     C19929   1.094   2.554  10.779  0.5853  0.0701  1.0382
  870MOL0     O19930   1.145   2.438  10.725  0.1761 -0.1994 -0.0928
  870MOL0     C19931   1.258   2.457  10.630 -0.0266  0.2423  0.4751
  870MOL0     C19932   1.303   2.311  10.590  0.3926  0.1578 -0.3614
  870MOL0     C19933   1.199   2.242  10.503 -0.5431  0.5437  0.2280
  870MOL0     C19934   1.241   2.089  10.469  0.3758 -0.2717 -0.9699
  870MOL0     C19935   1.337   2.076  10.351 -0.4912 -0.6608  0.3001
  870MOL0     C19936   1.385   1.935  10.329 -0.1441  0.6054 -0.2756
  870MOL0     C19937   1.516   1.937  10.251 -0.1317 -0.7098  0.3060
  870MOL0     C19938   1.550   1.793  10.217 -0.0378 -0.0013 -0.3062
  870MOL0     N19939   1.692   1.787  10.186 -0.0654  0.1750  0.1449
  870MOL0     C19940   1.779   1.713  10.258 -0.8084  0.2638  0.1113
  870MOL0     C19941   1.903   1.752  10.221 -0.2636 -0.7109 -0.5890
  870MOL0     C19942   2.029   1.706  10.278  0.6640  0.5212  0.1200
  870MOL0     C19943   2.147   1.761  10.202  0.0173  0.7264  0.2717
  870MOL0     C19944   2.197   1.674  10.082 -0.7152 -0.3371  0.2997
  870MOL0     C19945   2.109   1.643   9.962 -0.3808 -0.0434 -0.5777
  870MOL0     O19946   2.198   1.606   9.857  0.2872  0.1162  0.3486
  870MOL0     C19947   2.147   1.553   9.744  0.0309 -0.2084 -0.3999
  870MOL0     C19948   2.015   1.552   9.712  0.0040  0.5203  0.8908
  870MOL0     C19949   1.961   1.500   9.592 -0.5609  0.7508  0.1371
  870MOL0     C19950   1.816   1.466   9.587  0.0449  0.3949  0.4383
  870MOL0     C19951   2.055   1.457   9.489 -0.3301  0.4383  0.2442
  870MOL0     C19952   2.008   1.422   9.361  0.8815  0.2880  0.1163
  870MOL0     O19953   2.086   1.341   9.284  0.6190 -0.5051  0.0854
  870MOL0     C19954   2.058   1.293   9.170  0.2595  0.3336  0.0356
  870MOL0     C19955   2.036   1.367   9.060  0.5735 -0.1918  0.4962
  870MOL0     C19956   2.019   1.301   8.934  0.2035 -0.3826 -0.2921
  870MOL0     C19957   2.019   1.165   8.915  0.2618  0.1325  0.4067
  870MOL0     O19958   2.006   1.119   8.780 -1.5600 -0.1582 -0.2639
  870MOL0     C19959   1.924   1.004   8.757 -0.2424 -1.0342 -1.4753
  870MOL0     C19960   1.835   1.019   8.629 -0.4765 -0.2647 -0.1873
  870MOL0     C19961   1.687   0.995   8.659  0.3126  0.3241  0.9309
  870MOL0     C19962   1.601   1.093   8.747  0.0573  0.0328 -0.2688
  870MOL0     C19963   1.450   1.054   8.770 -0.0719  0.4029 -0.4255
  870MOL0     C19964   1.369   1.162   8.834  0.0815  0.1556 -0.0259
  870MOL0     C19965   1.227   1.108   8.853  0.1201  0.0441  0.3525
  870MOL0     C19966   1.149   1.216   8.941  0.0712 -0.1421  0.1893
  870MOL0    Cl19967   0.973   1.158   8.956  0.2171 -0.1289 -0.2285
  870MOL0     C19968   2.020   1.084   9.033 -0.1328  0.0125 -0.0967
  870MOL0     C19969   2.052   1.150   9.156  0.1144 -0.2073 -0.1541
  870MOL0     O19970   1.900   1.467   9.319  0.5039  0.1590 -0.2522
  870MOL0     C19971   2.189   1.444   9.530 -0.2406  0.0369 -0.4002
  870MOL0     C19972   2.232   1.498   9.652  0.2745 -0.1911 -0.4134
  870MOL0     N19973   1.876   1.850  10.127 -0.4588  0.3275  0.4719
  870MOL0     N19974   1.750   1.863  10.096 -0.1332  0.1195  0.4331
  870MOL0     C19975   1.087   2.682  10.707  0.0089  0.4389  0.0288
  870MOL0     C19976   1.010   2.785  10.758 -0.8921  0.2375  0.6631
  870MOL0     C19977   0.815   3.098  10.969 -0.0904 -0.4032 -0.3245
  870MOL0     C19978   0.680   3.077  10.953  0.1611 -0.2318 -0.1511
  870MOL0     C19979   0.590   3.178  10.981  0.8746  0.6187 -0.3581
  870MOL0     C19980   0.628   3.308  11.010 -1.0814 -0.2235  1.4172
  870MOL0     O19981   0.552   3.423  11.028  0.2391 -0.4693 -0.1173
  870MOL0     C19982   0.402   3.412  11.026 -0.2424 -0.4068 -0.3960
  870MOL0     C19983   0.333   3.366  11.161 -0.3897 -0.0928 -0.2241
  870MOL0     C19984   0.373   3.474  11.276 -0.0466 -1.0903 -0.3178
  870MOL0     C19985   0.383   3.418  11.417 -0.5019 -0.7605  0.2401
  870MOL0     C19986   0.265   3.346  11.448  0.1930  0.9455  0.2758
  870MOL0     C19987   0.160   3.289  11.478 -0.7443 -0.1542  0.1318
  870MOL0     C19988   0.765   3.331  11.024 -0.0537  0.1011  0.0325
  870MOL0     C19989   0.859   3.227  11.005 -0.6278 -0.6173  0.2557
  870MOL0     C19990   1.006   3.270  11.032  0.8014  0.8240 -0.3663
  870MOL0     H19991   0.860   2.633  11.026 -0.4837  1.4733 -0.7194
  870MOL0     H19992   1.008   2.434  10.938  5.0090 -0.7986 -1.7879
  870MOL0     H19993   1.336   2.522  10.672 -1.1913  1.2663  1.1495
  870MOL0     H19994   1.227   2.514  10.542 -1.2116 -1.9231 -0.5728
  870MOL0     H19995   1.400   2.318  10.539  1.0976 -0.8123  0.7762
  870MOL0     H19996   1.323   2.243  10.674  0.7520  0.5981 -0.0855
  870MOL0     H19997   1.105   2.245  10.557 -0.1552  2.5936  0.9009
  870MOL0     H19998   1.193   2.298  10.409  0.3446 -1.3115 -0.9905
  870MOL0     H19999   1.287   2.045  10.558  1.6106  1.8569 -0.4703
  870MOL0     H20000   1.150   2.032  10.454 -0.2231  0.3902 -0.0096
  870MOL0     H20001   1.419   2.148  10.359  0.1826 -1.3788 -0.0564
  870MOL0     H20002   1.293   2.116  10.260 -0.6230  1.1536  1.1218
  870MOL0     H20003   1.407   1.887  10.425  2.7751  1.8773 -0.2044
  870MOL0     H20004   1.307   1.877  10.280 -0.4071  0.7696 -0.0511
  870MOL0     H20005   1.591   1.980  10.317 -2.5713  0.7810  2.2757
  870MOL0     H20006   1.500   1.996  10.160  3.5401  0.7104  0.3893
  870MOL0     H20007   1.529   1.722  10.297  0.6690 -1.5510 -1.4420
  870MOL0     H20008   1.494   1.776  10.124  0.3296  1.9168 -0.9388
  870MOL0     H20009   1.759   1.631  10.326 -0.1538  0.2410  0.2868
  870MOL0     H20010   2.015   1.598  10.274 -3.7005  0.9405 -2.0006
  870MOL0     H20011   2.044   1.743  10.380  0.3283  1.1284 -0.0474
  870MOL0     H20012   2.127   1.863  10.170  1.3443  1.2085  0.8902
  870MOL0     H20013   2.229   1.768  10.275  0.0603 -1.9255  0.5924
  870MOL0     H20014   2.287   1.717  10.037  1.1190 -2.8754  1.2649
  870MOL0     H20015   2.234   1.578  10.120  0.1266  0.2747  1.0542
  870MOL0     H20016   2.037   1.561   9.974 -1.6944  1.2586  0.9307
  870MOL0     H20017   2.057   1.736   9.935 -3.5502 -1.5554 -0.1346
  870MOL0     H20018   1.942   1.608   9.771 -1.5913  1.1133 -1.4730
  870MOL0     H20019   1.763   1.554   9.548 -2.2033  0.4435  3.3248
  870MOL0     H20020   1.780   1.441   9.687 -2.9261  0.9895 -0.3678
  870MOL0     H20021   1.800   1.370   9.537 -0.1472 -1.7533  4.3143
  870MOL0     H20022   2.039   1.475   9.073 -1.3491 -0.0911  0.3198
  870MOL0     H20023   1.989   1.371   8.857 -0.8230  1.8374  1.9834
  870MOL0     H20024   1.978   0.910   8.762 -2.6882 -2.4855  1.1053
  870MOL0     H20025   1.857   0.994   8.843  2.7075  0.7231  1.2589
  870MOL0     H20026   1.841   1.121   8.589  0.8241 -0.4471 -0.5024
  870MOL0     H20027   1.879   0.966   8.544 -1.0835  0.3835 -0.9292
  870MOL0     H20028   1.668   0.897   8.705  0.2927 -0.7358 -1.1734
  870MOL0     H20029   1.646   0.974   8.559  2.7945 -3.0534  0.4406
  870MOL0     H20030   1.601   1.191   8.699  1.3666 -0.0654 -0.5080
  870MOL0     H20031   1.642   1.113   8.846 -1.4688  1.7945  0.0729
  870MOL0     H20032   1.407   1.019   8.676 -1.4829  0.2924  0.2422
  870MOL0     H20033   1.448   0.964   8.832 -0.5053 -0.8508 -2.1763
  870MOL0     H20034   1.362   1.247   8.765  1.2161  0.6098  0.3881
  870MOL0     H20035   1.415   1.187   8.930  0.8948 -0.6869 -0.1854
  870MOL0     H20036   1.236   1.014   8.909  2.8707  1.3614  2.3556
  870MOL0     H20037   1.174   1.107   8.757  0.2118  3.0050  0.2003
  870MOL0     H20038   1.167   1.316   8.901  3.6414 -1.9461 -3.4159
  870MOL0     H20039   1.187   1.219   9.044 -3.5081  0.8114  1.6634
  870MOL0     H20040   2.022   0.977   9.011  1.4163  0.2860 -1.4861
  870MOL0     H20041   2.087   1.088   9.238 -1.7223 -3.4354 -1.6277
  870MOL0     H20042   2.267   1.404   9.467  2.9765  0.8897  2.7524
  870MOL0     H20043   2.336   1.498   9.684 -0.2763 -1.3321  1.6105
  870MOL0     H20044   1.134   2.690  10.610 -0.3954 -0.4136 -0.2503
  870MOL0     H20045   1.002   2.876  10.699 -2.1949  1.6082  2.8098
  870MOL0     H20046   0.646   2.975  10.935  1.8756 -0.6890 -0.9382
  870MOL0     H20047   0.484   3.159  10.971  0.7992 -0.6397  1.9922
  870MOL0     H20048   0.369   3.513  11.000  1.5447  0.1296 -0.7518
  870MOL0     H20049   0.373   3.353  10.938  2.1859 -1.7889 -0.3718
  870MOL0     H20050   0.354   3.261  11.182  0.2888  0.3357  1.4362
  870MOL0     H20051   0.224   3.366  11.151 -0.4281 -0.8965  0.1086
  870MOL0     H20052   0.469   3.519  11.248 -1.3194  2.0914 -0.0205
  870MOL0     H20053   0.302   3.557  11.277  1.5495  0.3392 -0.6456
  870MOL0     H20054   0.391   3.502  11.487  1.8151 -1.2717  0.6679
  870MOL0     H20055   0.472   3.354  11.415  1.0280  1.0595 -4.8352
  870MOL0     H20056   0.069   3.254  11.523 -1.4313  2.9713  1.4309
  870MOL0     H20057   0.798   3.434  11.035 -0.2498  0.0932  0.6986
  870MOL0     H20058   1.030   3.372  11.061 -0.5729  0.3832  2.8140
  870MOL0     H20059   1.038   3.212  11.119 -1.0505 -0.5894 -0.5513
  870MOL0     H20060   1.074   3.238  10.952  2.1698 -3.3194  2.1021
  871MOL0     O20061   7.256   4.862   6.175  0.0804  0.5047  0.9733
  871MOL0     C20062   7.194   4.967   6.185  0.3454  0.2558 -1.1190
  871MOL0     O20063   7.224   5.063   6.266 -0.0615 -0.1646 -0.3235
  871MOL0     C20064   7.331   5.062   6.348  0.0401 -0.5083  0.6358
  871MOL0     C20065   7.469   5.039   6.314  0.2675 -0.0443 -0.4158
  871MOL0     C20066   7.579   5.049   6.409  0.3484  0.3477  0.2829
  871MOL0     C20067   7.555   5.088   6.543 -0.3796  0.5274  0.1012
  871MOL0     O20068   7.654   5.123   6.642 -0.0340 -0.7776  0.3570
  871MOL0     C20069   7.777   5.052   6.630  0.2193  0.5634 -0.0000
  871MOL0     C20070   7.867   5.092   6.761  0.3430  0.6563 -0.7039
  871MOL0     C20071   8.015   5.068   6.734  0.3938 -0.1998  0.5486
  871MOL0     C20072   8.049   4.916   6.747  0.7397  0.2883  0.0219
  871MOL0     C20073   8.193   4.873   6.718  0.0718  0.8047  0.1397
  871MOL0     C20074   8.227   4.720   6.717 -0.6265  0.3494 -0.0377
  871MOL0     C20075   8.354   4.693   6.639 -0.1116 -0.5445 -0.0965
  871MOL0     C20076   8.460   4.792   6.679  0.3830 -0.4679  0.2473
  871MOL0     N20077   8.585   4.738   6.626  0.6265 -0.3535 -0.6097
  871MOL0     C20078   8.612   4.721   6.493  0.7156 -0.1162 -0.6504
  871MOL0     C20079   8.739   4.703   6.489 -0.5682  0.0381 -0.0458
  871MOL0     C20080   8.812   4.704   6.361 -0.1820 -0.0328  0.2101
  871MOL0     C20081   8.955   4.743   6.367  0.5942 -0.5094  0.1847
  871MOL0     C20082   9.029   4.701   6.240 -0.3007  0.2505  0.3096
  871MOL0     C20083   9.174   4.730   6.261  0.3461 -0.0715 -0.1756
  871MOL0     O20084   9.209   4.866   6.265  0.5324  0.6130  0.5041
  871MOL0     C20085   9.318   4.907   6.336  0.3057  0.3436 -0.4289
  871MOL0     C20086   9.337   5.041   6.325 -0.2976 -0.0775  0.5013
  871MOL0     C20087   9.452   5.103   6.367 -0.4909 -0.2981 -0.3653
  871MOL0     C20088   9.454   5.248   6.359 -0.3746  0.0232  0.0795
  871MOL0     C20089   9.563   5.033   6.424  0.3809 -0.4935  0.1432
  871MOL0     C20090   9.681   5.096   6.488  0.0910  0.7437 -0.5581
  871MOL0     O20091   9.781   5.009   6.521 -0.0920  0.1137 -0.3686
  871MOL0     C20092   9.876   5.047   6.605 -0.1517  0.1317 -0.7601
  871MOL0     C20093   9.849   5.098   6.726 -0.3124  0.2518 -0.4083
  871MOL0     C20094   9.953   5.146   6.806  1.1109 -0.5885 -0.0490
  871MOL0     C20095  10.087   5.157   6.764  0.1845 -0.7592  0.1492
  871MOL0     O20096  10.188   5.219   6.838 -0.3428 -0.0802  0.7238
  871MOL0     C20097  10.152   5.336   6.912  0.6369  0.2146  0.0824
  871MOL0     C20098  10.285   5.410   6.951  0.1075 -0.7530 -0.2655
  871MOL0     C20099  10.296   5.532   6.859  0.0899 -0.0792  0.1371
  871MOL0     C20100  10.382   5.635   6.934 -0.4923 -0.7104  0.1372
  871MOL0     C20101  10.450   5.740   6.837  0.5327 -0.5326 -1.0108
  871MOL0     C20102  10.408   5.881   6.878  0.1464  0.4659  0.6368
  871MOL0     C20103  10.467   5.977   6.777 -1.0826  0.8035  0.2427
  871MOL0     C20104  10.610   6.008   6.796 -0.0218 -0.2541  0.1359
  871MOL0    Cl20105  10.665   6.119   6.659  0.0587  0.1464 -0.3621
  871MOL0     C20106  10.113   5.100   6.641 -0.0104  0.3735  0.1172
  871MOL0     C20107  10.005   5.056   6.567 -0.4037  0.3206 -0.2847
  871MOL0     O20108   9.675   5.214   6.527  0.0119 -0.0423 -0.3480
  871MOL0     C20109   9.543   4.891   6.427 -0.8736  0.0331  0.4219
  871MOL0     C20110   9.424   4.830   6.388  0.9466  0.5595  0.0515
  871MOL0     N20111   8.793   4.698   6.613 -0.8765 -0.2737 -0.7637
  871MOL0     N20112   8.701   4.719   6.693 -0.1710  0.0114 -0.7664
  871MOL0     C20113   7.421   5.103   6.575  0.2055 -0.0838 -0.1879
  871MOL0     C20114   7.309   5.095   6.486 -0.3040 -0.5521  0.0566
  871MOL0     C20115   7.076   4.993   6.107 -0.0034 -1.1667 -0.8723
  871MOL0     C20116   7.067   4.950   5.972  0.5389 -0.0108  0.1687
  871MOL0     C20117   6.945   4.951   5.902  0.5803 -0.9110  0.4067
  871MOL0     C20118   6.831   5.012   5.965 -0.6856  0.3829 -0.8747
  871MOL0     O20119   6.704   4.997   5.910  0.2364 -0.5548  0.4835
  871MOL0     C20120   6.692   5.064   5.789  0.0973  0.6054 -0.2586
  871MOL0     C20121   6.609   5.193   5.827 -0.2108  0.3041  0.2603
  871MOL0     C20122   6.462   5.162   5.861  0.2136 -0.2221  0.3548
  871MOL0     C20123   6.381   5.107   5.750  0.5093 -0.2834  0.0201
  871MOL0     C20124   6.238   5.082   5.776  0.1727  0.7657  0.2007
  871MOL0     C20125   6.121   5.046   5.782 -0.4538 -0.9774  0.6870
  871MOL0     C20126   6.834   5.055   6.095 -0.9859 -0.8941 -0.1405
  871MOL0     C20127   6.952   5.040   6.171 -0.1978  0.5325  0.3825
  871MOL0     C20128   6.942   5.087   6.306  0.6258  0.1430  0.2212
  871MOL0     H20129   7.494   5.020   6.211 -2.8643  1.3472 -1.5534
  871MOL0     H20130   7.679   5.031   6.370 -0.2442 -0.5264 -0.8918
  871MOL0     H20131   7.821   5.101   6.542 -3.6544  1.4446 -1.6970
  871MOL0     H20132   7.769   4.943   6.628  1.8826  0.3736  1.5787
  871MOL0     H20133   7.841   5.197   6.776  2.1397  1.0536 -0.0640
  871MOL0     H20134   7.829   5.033   6.845 -1.8453  3.3023  0.2816
  871MOL0     H20135   8.038   5.112   6.636 -0.7958  0.3665  0.5071
  871MOL0     H20136   8.078   5.122   6.806 -0.2859  0.6397  0.5239
  871MOL0     H20137   8.030   4.910   6.855 -3.0248 -1.2747 -0.5900
  871MOL0     H20138   7.973   4.858   6.694  0.9865 -0.9150  0.9539
  871MOL0     H20139   8.245   4.921   6.802 -1.4293  1.3098  0.8098
  871MOL0     H20140   8.214   4.918   6.621 -0.6884  1.3878  0.2408
  871MOL0     H20141   8.231   4.689   6.822 -0.3048  1.9096  0.4486
  871MOL0     H20142   8.143   4.665   6.672 -0.2665 -0.1204 -0.1439
  871MOL0     H20143   8.332   4.705   6.532 -2.8775  1.1847  0.5821
  871MOL0     H20144   8.391   4.592   6.660  0.5108  0.1580  2.6369
  871MOL0     H20145   8.439   4.881   6.619  0.1161 -1.1086 -0.6359
  871MOL0     H20146   8.457   4.813   6.786 -1.2779  3.1013 -0.3354
  871MOL0     H20147   8.546   4.747   6.411  0.2712  0.7005 -0.0453
  871MOL0     H20148   8.770   4.783   6.298 -0.5599 -1.5300 -1.5081
  871MOL0     H20149   8.794   4.603   6.324 -2.7563  0.0051  1.2081
  871MOL0     H20150   8.967   4.849   6.390  0.0981  0.5486 -3.7361
  871MOL0     H20151   8.992   4.689   6.455  2.1435 -1.0662 -0.7720
  871MOL0     H20152   9.022   4.591   6.237 -0.6271  0.2608  0.6420
  871MOL0     H20153   8.999   4.740   6.142  5.0740 -0.3840 -1.9446
  871MOL0     H20154   9.215   4.683   6.350  0.8642 -2.9269 -1.7896
  871MOL0     H20155   9.230   4.694   6.174 -0.4707 -1.6791 -0.0657
  871MOL0     H20156   9.260   5.110   6.290  0.8820  0.8578 -0.3096
  871MOL0     H20157   9.551   5.281   6.319 -1.9919  2.8820 -1.8532
  871MOL0     H20158   9.436   5.290   6.459 -2.4625 -1.2740  0.3157
  871MOL0     H20159   9.384   5.291   6.287  2.8120  1.7182 -2.2561
  871MOL0     H20160   9.748   5.114   6.761 -1.3675 -0.6862 -2.8367
  871MOL0     H20161   9.931   5.174   6.909  1.2208  1.1471 -0.4703
  871MOL0     H20162  10.087   5.402   6.854  1.0561  0.8399  0.3120
  871MOL0     H20163  10.104   5.318   7.009 -1.4635  0.3399 -0.8649
  871MOL0     H20164  10.279   5.447   7.054 -0.0430  2.1002 -1.2109
  871MOL0     H20165  10.368   5.339   6.942  0.6996 -0.1129 -0.0039
  871MOL0     H20166  10.195   5.572   6.844  0.2450  0.2294 -0.0951
  871MOL0     H20167  10.340   5.514   6.760 -1.2975  0.1489 -0.5463
  871MOL0     H20168  10.461   5.577   6.982 -1.7068 -1.4827  1.2973
  871MOL0     H20169  10.329   5.697   7.008  0.1675  0.1435 -0.0918
  871MOL0     H20170  10.558   5.736   6.851  0.1249 -1.9757  2.7819
  871MOL0     H20171  10.408   5.721   6.738  1.4337  1.6644 -1.8637
  871MOL0     H20172  10.443   5.905   6.978  2.9550  3.4382 -0.8755
  871MOL0     H20173  10.301   5.900   6.865  0.2477  0.8812  0.3760
  871MOL0     H20174  10.405   6.067   6.775 -0.7197  1.1035  1.8695
  871MOL0     H20175  10.455   5.924   6.682  3.4688 -2.3215  1.1297
  871MOL0     H20176  10.678   5.923   6.810  1.1333  0.1634 -2.3727
  871MOL0     H20177  10.630   6.075   6.880  1.7992  0.1887 -0.6007
  871MOL0     H20178  10.212   5.088   6.599 -0.2272 -0.1374 -0.2678
  871MOL0     H20179  10.031   5.002   6.476 -0.6886 -1.5931  0.7156
  871MOL0     H20180   9.613   4.823   6.475 -0.8487  2.4911  4.2900
  871MOL0     H20181   9.419   4.722   6.388  1.0127  0.5394 -1.2734
  871MOL0     H20182   7.416   5.117   6.682 -1.1227 -0.1109 -0.2293
  871MOL0     H20183   7.208   5.114   6.521 -0.0710  0.3991  0.2446
  871MOL0     H20184   7.148   4.897   5.924  1.7347  1.9313 -0.0600
  871MOL0     H20185   6.923   4.905   5.806 -1.7448 -1.2311  1.0409
  871MOL0     H20186   6.784   5.079   5.730 -1.5488 -0.9277 -3.5070
  871MOL0     H20187   6.635   4.999   5.722  1.3991 -1.6693  0.7081
  871MOL0     H20188   6.607   5.258   5.739 -2.1151 -2.3674 -1.8317
  871MOL0     H20189   6.672   5.248   5.898  1.6966  4.4619 -4.0693
  871MOL0     H20190   6.461   5.105   5.954  0.8318  1.3726  1.3849
  871MOL0     H20191   6.410   5.254   5.889 -0.4394 -0.2750 -0.6457
  871MOL0     H20192   6.418   5.012   5.711 -0.4995  0.3176 -2.5999
  871MOL0     H20193   6.388   5.173   5.663  1.4704 -1.1436 -0.5751
  871MOL0     H20194   6.018   5.022   5.800 -0.3207 -1.9834  0.1962
  871MOL0     H20195   6.740   5.093   6.134 -0.6345  0.0849 -0.2232
  871MOL0     H20196   6.980   5.006   6.369  4.9941 -0.2202 -2.4189
  871MOL0     H20197   7.003   5.178   6.313 -1.2385  1.3744  1.2072
  871MOL0     H20198   6.847   5.130   6.338  1.0953  2.3447 -1.1246
  872MOL0     O20199   0.307   7.334   8.241  0.2300  0.8115  0.3459
  872MOL0     C20200   0.183   7.358   8.244 -0.5587  0.6644  0.4870
  872MOL0     O20201   0.089   7.285   8.172 -0.3345 -0.1747  0.0680
  872MOL0     C20202   0.124   7.176   8.099 -0.2332 -0.3437  0.6419
  872MOL0     C20203   0.084   7.052   8.150 -0.9314  0.2255  0.3391
  872MOL0     C20204   0.146   6.941   8.092 -0.1184 -0.0408 -0.2422
  872MOL0     C20205   0.246   6.953   7.991  1.0344 -0.4075 -0.8614
  872MOL0     O20206   0.287   6.837   7.937  0.9102 -0.1527  0.5865
  872MOL0     C20207   0.428   6.818   7.962 -0.3960 -0.4561 -0.1590
  872MOL0     C20208   0.497   6.743   7.854  0.1602  0.1542 -0.1042
  872MOL0     C20209   0.544   6.830   7.734  0.3761 -0.1258 -0.2446
  872MOL0     C20210   0.559   6.745   7.602 -0.3728  0.5349 -0.3538
  872MOL0     C20211   0.688   6.659   7.626  0.3016  0.4521 -0.3705
  872MOL0     C20212   0.689   6.544   7.519 -0.1817 -0.6594 -0.0939
  872MOL0     C20213   0.765   6.416   7.558 -0.2525 -0.3333  0.0482
  872MOL0     C20214   0.917   6.433   7.582  0.0668 -0.0427  1.0967
  872MOL0     N20215   0.989   6.457   7.460  0.1536 -0.2205  0.1157
  872MOL0     C20216   1.064   6.358   7.396  0.1745 -0.4747  0.0139
  872MOL0     C20217   1.147   6.429   7.317  0.4174  0.9171  0.0073
  872MOL0     C20218   1.255   6.375   7.224  0.8229  0.2617  0.8581
  872MOL0     C20219   1.384   6.341   7.292 -0.8058 -0.1298 -0.5292
  872MOL0     C20220   1.516   6.340   7.217  0.3328 -0.0999  0.2615
  872MOL0     C20221   1.559   6.200   7.170  0.0939  0.5440 -0.1762
  872MOL0     O20222   1.493   6.159   7.042  0.0465 -0.3549 -0.6769
  872MOL0     C20223   1.570   6.145   6.932  0.6321 -0.0810  0.0654
  872MOL0     C20224   1.565   6.031   6.853  0.7376  0.3566  0.5309
  872MOL0     C20225   1.631   6.025   6.732  0.1569 -0.8712  0.1553
  872MOL0     C20226   1.611   5.901   6.654 -0.2170  0.6208 -0.5130
  872MOL0     C20227   1.703   6.131   6.698 -0.2903 -0.3875  0.5659
  872MOL0     C20228   1.790   6.126   6.579  0.1837  0.0626  0.5660
  872MOL0     O20229   1.737   6.084   6.457  0.1087 -0.0528  0.2282
  872MOL0     C20230   1.805   6.084   6.337  1.2525 -0.1444  0.4865
  872MOL0     C20231   1.757   6.150   6.224  0.1801  0.3897  0.0179
  872MOL0     C20232   1.825   6.160   6.101  0.6723 -1.0727 -0.6491
  872MOL0     C20233   1.949   6.102   6.085 -0.0869 -1.0978 -0.3688
  872MOL0     O20234   2.000   6.115   5.961  1.0847  0.2173  0.0979
  872MOL0     C20235   2.127   6.055   5.925  0.6101  0.9310  0.6964
  872MOL0     C20236   2.099   5.928   5.835 -0.0100 -0.5626 -0.1633
  872MOL0     C20237   2.234   5.887   5.762  0.7481 -1.0657 -0.2171
  872MOL0     C20238   2.178   5.799   5.639  0.3777  0.6216  1.0201
  872MOL0     C20239   2.278   5.739   5.532 -0.7468 -0.2530 -0.6808
  872MOL0     C20240   2.339   5.844   5.438 -0.4987 -0.6185 -0.6024
  872MOL0     C20241   2.444   5.796   5.332  0.3988  0.3101 -0.9603
  872MOL0     C20242   2.382   5.722   5.215  0.7708 -0.5856  0.5746
  872MOL0    Cl20243   2.523   5.627   5.148 -0.0781  0.2903 -0.1251
  872MOL0     C20244   1.998   6.025   6.191  0.4355  0.0007  0.5316
  872MOL0     C20245   1.928   6.016   6.312  0.2750 -0.3922 -0.5174
  872MOL0     O20246   1.903   6.172   6.593  0.3328 -0.0226 -0.6493
  872MOL0     C20247   1.700   6.255   6.772 -0.5427  0.7416  1.0747
  872MOL0     C20248   1.638   6.255   6.896 -0.2786  0.1033  0.5729
  872MOL0     N20249   1.139   6.567   7.346  0.2287 -0.2601  0.1950
  872MOL0     N20250   1.050   6.582   7.434  0.5785 -0.3447 -0.1369
  872MOL0     C20251   0.268   7.079   7.941 -0.1605 -0.9986  0.2566
  872MOL0     C20252   0.217   7.192   8.002 -0.1779 -0.2830  0.2132
  872MOL0     C20253   0.137   7.463   8.342 -1.4003  0.7096  0.3023
  872MOL0     C20254   0.017   7.452   8.404  0.1225  0.1128 -0.8444
  872MOL0     C20255  -0.035   7.552   8.486  0.2746 -0.4692  0.0705
  872MOL0     C20256   0.044   7.662   8.520  0.7686 -0.0174  0.3588
  872MOL0     O20257   0.008   7.762   8.604 -0.2718  0.1357  0.1175
  872MOL0     C20258   0.033   7.723   8.742 -0.0350  0.7121 -0.4680
  872MOL0     C20259  -0.074   7.788   8.828  0.4599  0.7417 -0.2374
  872MOL0     C20260  -0.212   7.718   8.786 -0.4754  0.3532 -0.4438
  872MOL0     C20261  -0.334   7.771   8.870 -0.5370  0.0976 -0.6854
  872MOL0     C20262  -0.444   7.673   8.888 -0.0694  0.0100  0.6662
  872MOL0     C20263  -0.542   7.613   8.910 -0.3086  0.4738  0.3204
  872MOL0     C20264   0.169   7.667   8.468  0.0149 -0.0049  0.3001
  872MOL0     C20265   0.217   7.582   8.363  0.1620  0.0283  0.2862
  872MOL0     C20266   0.360   7.605   8.298 -0.3422 -0.0350  0.7274
  872MOL0     H20267   0.021   7.037   8.237  0.7214 -0.0730  1.5201
  872MOL0     H20268   0.128   6.839   8.125  0.4556  0.5539  2.1130
  872MOL0     H20269   0.455   6.762   8.052  2.5555  1.4034  0.2646
  872MOL0     H20270   0.479   6.915   7.971  2.1291 -1.7241  0.1856
  872MOL0     H20271   0.587   6.699   7.899  2.0902  2.4564 -1.4933
  872MOL0     H20272   0.431   6.663   7.820 -0.9216  1.6259 -1.6284
  872MOL0     H20273   0.463   6.899   7.708 -0.2284 -0.7767 -0.1170
  872MOL0     H20274   0.628   6.895   7.757 -1.2871  2.1142 -0.2000
  872MOL0     H20275   0.462   6.695   7.590 -1.3328  2.2679 -0.1850
  872MOL0     H20276   0.576   6.804   7.512  0.9667 -1.2064 -1.3123
  872MOL0     H20277   0.700   6.618   7.726  0.1042  4.1655  1.3150
  872MOL0     H20278   0.773   6.725   7.607 -0.2062  1.2297  0.0065
  872MOL0     H20279   0.588   6.510   7.494 -0.2081  0.7316 -2.1052
  872MOL0     H20280   0.725   6.594   7.428  1.7973 -0.0711  0.9612
  872MOL0     H20281   0.759   6.358   7.465  0.5002  0.0281 -0.2362
  872MOL0     H20282   0.711   6.371   7.642  0.4613  0.0400  0.7185
  872MOL0     H20283   0.926   6.524   7.642 -3.1479  0.8398  0.4407
  872MOL0     H20284   0.952   6.342   7.632 -1.8214 -1.2730  0.3001
  872MOL0     H20285   1.047   6.251   7.401 -1.7501 -0.1827  0.1010
  872MOL0     H20286   1.273   6.445   7.142 -1.5999  1.1685  1.0068
  872MOL0     H20287   1.225   6.278   7.184 -2.3822  1.3380  0.3852
  872MOL0     H20288   1.400   6.406   7.378 -0.4402 -3.1364  1.8268
  872MOL0     H20289   1.378   6.241   7.336  1.5025 -0.6666 -1.2914
  872MOL0     H20290   1.510   6.403   7.128  0.7078  1.3760  1.2457
  872MOL0     H20291   1.600   6.379   7.275  1.7268 -0.7280 -1.2303
  872MOL0     H20292   1.666   6.208   7.150  0.3131 -0.5542  0.4803
  872MOL0     H20293   1.548   6.118   7.241 -1.2724 -1.9477 -3.0511
  872MOL0     H20294   1.491   5.956   6.879  0.3961  0.2079 -0.7908
  872MOL0     H20295   1.555   5.911   6.561 -0.6774  0.1396 -0.2954
  872MOL0     H20296   1.552   5.835   6.718  1.3274  2.5923  3.2843
  872MOL0     H20297   1.705   5.850   6.629 -1.9927 -2.7652 -0.8939
  872MOL0     H20298   1.662   6.201   6.238  0.7556  1.6698 -0.5104
  872MOL0     H20299   1.790   6.235   6.031 -2.3105 -2.1249 -0.4118
  872MOL0     H20300   2.167   6.140   5.869 -2.4201  0.5892 -2.3630
  872MOL0     H20301   2.203   6.036   6.002  0.7620  0.0667  0.3373
  872MOL0     H20302   2.062   5.853   5.905  1.4771 -1.6216 -0.4603
  872MOL0     H20303   2.019   5.963   5.770  1.0034  0.2450 -1.0126
  872MOL0     H20304   2.298   5.834   5.833 -1.3692 -3.9325 -0.2772
  872MOL0     H20305   2.273   5.982   5.724  0.1023 -0.0015  1.6810
  872MOL0     H20306   2.109   5.853   5.574  1.1127 -0.1809 -0.4919
  872MOL0     H20307   2.125   5.716   5.687  1.2144  0.3212  1.4406
  872MOL0     H20308   2.365   5.687   5.573 -0.9347 -0.8344 -1.0039
  872MOL0     H20309   2.223   5.662   5.477 -1.9547 -0.5313  0.8571
  872MOL0     H20310   2.395   5.918   5.495  0.9795 -1.0483 -1.4325
  872MOL0     H20311   2.250   5.886   5.390  1.0964  0.3170 -2.9462
  872MOL0     H20312   2.509   5.735   5.394 -0.8522 -1.3342 -1.2054
  872MOL0     H20313   2.503   5.883   5.301  1.2687  0.8102  1.8302
  872MOL0     H20314   2.327   5.797   5.159 -0.2233 -0.5105  1.6240
  872MOL0     H20315   2.306   5.648   5.243 -1.4433 -0.3977 -4.0495
  872MOL0     H20316   2.087   5.966   6.174  1.7499  1.9621  0.3374
  872MOL0     H20317   1.979   5.975   6.398  1.6967  1.2213 -0.5417
  872MOL0     H20318   1.748   6.343   6.730 -0.5638  1.1792  1.9393
  872MOL0     H20319   1.648   6.344   6.957  1.1128  1.2256 -1.1949
  872MOL0     H20320   0.334   7.090   7.855  0.0198  2.9519  0.7371
  872MOL0     H20321   0.243   7.290   7.964 -1.5736  0.9877  2.3786
  872MOL0     H20322  -0.046   7.364   8.391 -3.4223  2.6613 -2.5356
  872MOL0     H20323  -0.137   7.546   8.525  0.2499  0.6401  0.2091
  872MOL0     H20324   0.026   7.614   8.745 -0.3490  0.7112  3.1794
  872MOL0     H20325   0.138   7.738   8.767  0.0616  1.0035 -1.0325
  872MOL0     H20326  -0.076   7.896   8.813 -0.4192  0.7781  0.1275
  872MOL0     H20327  -0.051   7.766   8.933  2.5597  0.5532 -0.6868
  872MOL0     H20328  -0.248   7.738   8.685  0.2748  0.1360 -0.7634
  872MOL0     H20329  -0.193   7.612   8.806  1.8351  0.9589  1.0162
  872MOL0     H20330  -0.370   7.863   8.823  0.1582 -0.1975 -1.8498
  872MOL0     H20331  -0.305   7.787   8.975  0.1003 -0.8331 -0.7056
  872MOL0     H20332  -0.616   7.542   8.941 -0.8523  0.9903  0.2277
  872MOL0     H20333   0.229   7.753   8.496  0.0805  0.4177 -1.0625
  872MOL0     H20334   0.352   7.565   8.196  1.3387  0.0192  0.5422
  872MOL0     H20335   0.396   7.708   8.303 -0.7308  0.2211 -1.0065
  872MOL0     H20336   0.431   7.544   8.354  1.0672  2.4144  1.7660
  873MOL0     O20337   6.259   8.496   7.228  0.1093 -0.6157 -0.0660
  873MOL0     C20338   6.289   8.507   7.348 -0.4900 -0.3960 -0.0065
  873MOL0     O20339   6.420   8.519   7.394  0.5119  0.5558 -0.2701
  873MOL0     C20340   6.522   8.546   7.315  0.1840  0.3657  0.0860
  873MOL0     C20341   6.576   8.674   7.329 -0.2286 -0.2637 -0.8983
  873MOL0     C20342   6.673   8.718   7.241  0.1681  0.1589  0.5577
  873MOL0     C20343   6.725   8.631   7.137 -0.0709 -0.3865  0.1965
  873MOL0     O20344   6.824   8.663   7.049 -0.8214  0.5315  0.4440
  873MOL0     C20345   6.912   8.773   7.077  0.5884  0.3347  0.0146
  873MOL0     C20346   7.017   8.789   6.961  0.4725  0.6674 -0.2051
  873MOL0     C20347   7.087   8.650   6.922  0.6752  0.7573  0.3291
  873MOL0     C20348   7.198   8.676   6.825  0.7783 -0.6620 -0.6731
  873MOL0     C20349   7.325   8.738   6.891 -0.8964  0.6667 -0.1514
  873MOL0     C20350   7.451   8.700   6.802  0.6255 -0.2740  0.6522
  873MOL0     C20351   7.578   8.775   6.849 -0.8006  0.4815 -0.1622
  873MOL0     C20352   7.697   8.700   6.790  0.7803 -0.1375  0.3939
  873MOL0     N20353   7.827   8.762   6.820  0.6800  1.2023 -0.0377
  873MOL0     C20354   7.936   8.699   6.862 -0.4801 -0.8144 -0.1308
  873MOL0     C20355   8.040   8.796   6.851  0.3526 -0.2150 -0.5996
  873MOL0     C20356   8.176   8.767   6.891  0.3234 -0.5558  0.4663
  873MOL0     C20357   8.205   8.808   7.035  0.0896  0.5759 -0.1660
  873MOL0     C20358   8.348   8.774   7.072  0.0740  0.7444  0.1769
  873MOL0     C20359   8.362   8.790   7.224 -0.9170  0.0132 -0.1685
  873MOL0     O20360   8.490   8.745   7.260  0.1174  0.6827  0.3459
  873MOL0     C20361   8.596   8.820   7.222 -0.1498  0.2264  0.3795
  873MOL0     C20362   8.682   8.768   7.126 -0.0658 -0.1186 -0.8957
  873MOL0     C20363   8.803   8.839   7.102 -0.0541  0.7971 -0.0836
  873MOL0     C20364   8.902   8.762   7.008 -0.1332 -0.0568  0.5083
  873MOL0     C20365   8.825   8.965   7.162  0.4262  0.4989 -0.0588
  873MOL0     C20366   8.944   9.052   7.143 -0.0187  0.8094  0.1501
  873MOL0     O20367   8.977   9.143   7.241 -0.8054  0.0411  0.2426
  873MOL0     C20368   9.073   9.239   7.216  0.6913 -0.3193  0.3153
  873MOL0     C20369   9.200   9.199   7.164  0.4956 -0.4597 -0.0656
  873MOL0     C20370   9.291   9.298   7.152 -0.1333 -0.1024 -0.1960
  873MOL0     C20371   9.264   9.435   7.181 -0.0844  0.0506 -1.0028
  873MOL0     O20372   9.358   9.526   7.150  0.7634  0.2885 -0.5607
  873MOL0     C20373   9.466   9.537   7.246  0.5944 -0.2619  0.1168
  873MOL0     C20374   9.565   9.651   7.209  0.1045  0.4761 -0.4874
  873MOL0     C20375   9.495   9.799   7.214  0.1364 -0.4853 -1.1061
  873MOL0     C20376   9.430   9.833   7.347  0.0292  0.1374  0.1547
  873MOL0     C20377   9.391   9.984   7.348  0.4263 -0.3467  0.1649
  873MOL0     C20378   9.315  10.032   7.464  0.6937 -0.1685  0.4544
  873MOL0     C20379   9.169   9.966   7.480 -0.0139  0.3352  0.3857
  873MOL0     C20380   9.097  10.008   7.596 -0.5935 -1.1920 -0.6486
  873MOL0    Cl20381   9.165   9.952   7.755  0.5603 -0.0587  0.1299
  873MOL0     C20382   9.145   9.469   7.250 -0.0793 -0.5038 -0.9338
  873MOL0     C20383   9.055   9.372   7.260  0.3679  0.0100 -0.2779
  873MOL0     O20384   8.997   9.045   7.035 -0.5737 -0.1063  0.0055
  873MOL0     C20385   8.722   9.015   7.249  1.4752 -0.2648 -0.8434
  873MOL0     C20386   8.611   8.935   7.289 -0.0349  0.3397  0.2929
  873MOL0     N20387   7.991   8.914   6.806 -0.3493 -0.0512  0.0268
  873MOL0     N20388   7.870   8.884   6.780  0.5828  0.6722 -0.1660
  873MOL0     C20389   6.664   8.500   7.131 -0.2413 -0.2827 -0.1074
  873MOL0     C20390   6.563   8.458   7.212  0.4497  0.0301 -1.0595
  873MOL0     C20391   6.177   8.491   7.440 -0.2204 -0.5940 -0.6507
  873MOL0     C20392   6.059   8.548   7.408 -0.1288  0.3865  0.0466
  873MOL0     C20393   5.944   8.545   7.495  0.8768  0.6884 -0.1102
  873MOL0     C20394   5.954   8.475   7.612 -0.1112 -0.2825 -0.0492
  873MOL0     O20395   5.839   8.465   7.678  0.3574 -0.1316  0.6658
  873MOL0     C20396   5.807   8.337   7.733  0.1204 -0.9776 -0.2488
  873MOL0     C20397   5.656   8.317   7.712 -0.8542 -0.0399 -1.2285
  873MOL0     C20398   5.617   8.301   7.563  0.9711 -0.5942 -0.2042
  873MOL0     C20399   5.494   8.211   7.562 -0.1175  1.2450  0.9034
  873MOL0     C20400   5.460   8.167   7.424  0.0280  0.4104 -0.1488
  873MOL0     C20401   5.426   8.149   7.312  0.2148  0.0836 -0.3892
  873MOL0     C20402   6.081   8.415   7.651 -0.2547 -0.7138 -0.3959
  873MOL0     C20403   6.193   8.429   7.567 -0.4054 -0.3372  0.6153
  873MOL0     C20404   6.320   8.359   7.618  0.6362  0.0214 -0.5905
  873MOL0     H20405   6.528   8.742   7.399 -0.0270 -0.2411 -0.7797
  873MOL0     H20406   6.713   8.817   7.262  2.2730 -0.5899  0.3186
  873MOL0     H20407   6.950   8.773   7.180  1.7329  2.4481 -0.3472
  873MOL0     H20408   6.844   8.858   7.067  0.0583 -0.0329  0.4196
  873MOL0     H20409   6.971   8.828   6.870 -2.6516 -0.0777  0.9175
  873MOL0     H20410   7.092   8.860   6.997 -1.4653  2.2661  0.9295
  873MOL0     H20411   7.133   8.615   7.015  1.1515  0.6282  0.0450
  873MOL0     H20412   7.011   8.582   6.884  0.4360  0.5915  1.0878
  873MOL0     H20413   7.220   8.580   6.777 -1.1867 -2.3271  1.5188
  873MOL0     H20414   7.165   8.739   6.743  0.6266 -3.0281 -2.5441
  873MOL0     H20415   7.359   8.689   6.982  1.9203  2.0333 -0.3476
  873MOL0     H20416   7.311   8.846   6.903  1.3202  0.8384  1.5205
  873MOL0     H20417   7.477   8.594   6.802  2.2033  0.0912 -0.1545
  873MOL0     H20418   7.413   8.724   6.702 -1.4498 -2.6729  0.7673
  873MOL0     H20419   7.575   8.782   6.958  0.6179  3.3069 -0.1995
  873MOL0     H20420   7.569   8.877   6.811 -6.5613 -0.9237 -3.9851
  873MOL0     H20421   7.704   8.595   6.817 -0.2529 -1.3562 -3.4845
  873MOL0     H20422   7.694   8.709   6.681 -0.8506  5.0606  0.5968
  873MOL0     H20423   7.939   8.601   6.907 -1.6966 -1.4307 -1.3411
  873MOL0     H20424   8.251   8.826   6.838 -0.6770 -0.4187 -0.8512
  873MOL0     H20425   8.191   8.661   6.866  2.1175 -0.6415  1.6970
  873MOL0     H20426   8.182   8.915   7.036  0.1431  0.6831  3.4527
  873MOL0     H20427   8.130   8.764   7.102  0.9127 -0.5757  0.0369
  873MOL0     H20428   8.367   8.670   7.044  0.7606  0.5286  1.3500
  873MOL0     H20429   8.410   8.847   7.019  0.0186  0.2824 -0.5335
  873MOL0     H20430   8.358   8.896   7.252  2.5199 -0.6027  3.6475
  873MOL0     H20431   8.291   8.721   7.271  0.5425 -0.9716  0.6676
  873MOL0     H20432   8.654   8.669   7.093 -2.9592  0.4749 -0.5518
  873MOL0     H20433   8.999   8.813   7.007 -0.2148  0.1162  0.9510
  873MOL0     H20434   8.863   8.756   6.906 -0.2258  3.3760  0.2198
  873MOL0     H20435   8.919   8.659   7.038 -2.1740  0.0151  2.1285
  873MOL0     H20436   9.208   9.095   7.134 -3.8298 -0.9755  0.0538
  873MOL0     H20437   9.390   9.280   7.109 -0.0389 -3.7966  1.2310
  873MOL0     H20438   9.427   9.567   7.343 -0.7645  1.4258 -0.9086
  873MOL0     H20439   9.512   9.437   7.237 -1.2676 -0.9493 -3.5508
  873MOL0     H20440   9.645   9.636   7.282  0.5984  0.4865 -1.0267
  873MOL0     H20441   9.609   9.632   7.111  0.8961 -1.4884  0.2033
  873MOL0     H20442   9.425   9.805   7.131  0.8110 -3.0180 -1.9429
  873MOL0     H20443   9.560   9.883   7.190  0.0399 -0.9905 -3.2944
  873MOL0     H20444   9.500   9.818   7.430  0.8559 -1.6776 -0.8305
  873MOL0     H20445   9.340   9.772   7.364  1.4514 -2.0443  0.2150
  873MOL0     H20446   9.475  10.052   7.362 -0.0021  0.7505 -2.2281
  873MOL0     H20447   9.334  10.014   7.260 -1.6556 -1.5205  1.0229
  873MOL0     H20448   9.298  10.140   7.458  2.0414 -0.0078 -3.3743
  873MOL0     H20449   9.372  10.011   7.555  1.5026  0.6343  0.1535
  873MOL0     H20450   9.179   9.858   7.491  1.4582  0.3457 -0.5234
  873MOL0     H20451   9.106   9.983   7.392  3.3272  0.2982 -2.2098
  873MOL0     H20452   8.998   9.965   7.583 -2.1895  2.6385 -2.9526
  873MOL0     H20453   9.092  10.117   7.581  2.9257 -1.0939 -2.1003
  873MOL0     H20454   9.114   9.570   7.276 -1.3351 -0.7375 -1.4252
  873MOL0     H20455   8.958   9.399   7.300  0.3149  1.6892 -1.4445
  873MOL0     H20456   8.721   9.117   7.284  0.6733 -0.9586  1.3153
  873MOL0     H20457   8.555   8.964   7.378 -0.5332  0.6045 -0.1012
  873MOL0     H20458   6.707   8.437   7.054  1.2266  0.7293 -0.1753
  873MOL0     H20459   6.517   8.364   7.184 -0.5229  1.3012 -4.1898
  873MOL0     H20460   6.037   8.592   7.311 -3.4234 -0.5015  0.2716
  873MOL0     H20461   5.859   8.592   7.447 -0.2914 -2.3361 -1.2239
  873MOL0     H20462   5.874   8.263   7.690 -0.1331  0.6576 -3.8583
  873MOL0     H20463   5.828   8.343   7.840  0.9625 -1.0804 -0.4005
  873MOL0     H20464   5.600   8.394   7.766 -0.9670 -1.5367  0.8790
  873MOL0     H20465   5.643   8.222   7.764  1.2376 -0.3048 -1.1068
  873MOL0     H20466   5.608   8.403   7.524  0.4265 -0.8602 -0.7966
  873MOL0     H20467   5.693   8.246   7.507  1.5413 -0.8558  0.8017
  873MOL0     H20468   5.406   8.259   7.606 -0.6615 -0.4905  1.8228
  873MOL0     H20469   5.522   8.120   7.616 -0.6558 -0.1285 -1.0342
  873MOL0     H20470   5.397   8.160   7.210 -0.9397 -0.4226 -0.1297
  873MOL0     H20471   6.088   8.361   7.745  1.5483 -1.9846 -1.2173
  873MOL0     H20472   6.304   8.270   7.680 -2.0929  1.3181  0.7574
  873MOL0     H20473   6.376   8.312   7.537  0.8226 -0.8720  0.0403
  873MOL0     H20474   6.379   8.430   7.677 -0.5107  1.2309 -0.8361
  874MOL0     O20475   1.657   8.770   3.869 -0.0694  0.4859  0.0666
  874MOL0     C20476   1.685   8.823   3.975 -0.3595  0.3586 -0.5732
  874MOL0     O20477   1.819   8.812   4.028 -0.3664  0.4061  0.3008
  874MOL0     C20478   1.920   8.761   3.950  0.5805 -0.3608 -0.4763
  874MOL0     C20479   1.941   8.797   3.822  0.2439 -0.4252 -0.4682
  874MOL0     C20480   2.050   8.746   3.748  0.8579  0.4198  1.1557
  874MOL0     C20481   2.142   8.664   3.814  0.4052 -0.0728  0.7476
  874MOL0     O20482   2.252   8.626   3.740 -0.2923 -0.2019  0.1091
  874MOL0     C20483   2.371   8.642   3.818 -0.0854 -0.2314 -0.4253
  874MOL0     C20484   2.492   8.621   3.725 -0.0492  0.4210 -0.1157
  874MOL0     C20485   2.622   8.644   3.802  0.3903 -0.3074 -1.3506
  874MOL0     C20486   2.751   8.605   3.738 -0.3296  0.0959  0.3878
  874MOL0     C20487   2.861   8.693   3.792  0.3468  0.0781 -0.9051
  874MOL0     C20488   2.993   8.654   3.749 -0.5016  0.2052  0.0782
  874MOL0     C20489   3.113   8.745   3.780  0.3009  0.1415  0.0671
  874MOL0     C20490   3.150   8.749   3.923 -0.4356 -0.6146 -0.7286
  874MOL0     N20491   3.301   8.768   3.928 -0.2147 -1.1890 -0.0298
  874MOL0     C20492   3.392   8.665   3.939  0.1877  0.1501  0.3379
  874MOL0     C20493   3.519   8.722   3.940  0.0620 -0.2381 -0.9198
  874MOL0     C20494   3.643   8.646   3.933  0.2526  0.0203 -0.3037
  874MOL0     C20495   3.756   8.741   3.911 -0.3068  0.6993 -0.1803
  874MOL0     C20496   3.799   8.801   4.045  0.1341  0.1679 -0.6780
  874MOL0     C20497   3.942   8.849   4.047 -0.6963 -0.1517 -0.4949
  874MOL0     O20498   4.046   8.757   3.994  0.5689 -0.2625  0.3601
  874MOL0     C20499   4.169   8.775   4.051  0.7509  0.3938  0.7752
  874MOL0     C20500   4.212   8.873   4.141  0.1006 -0.7403 -0.4417
  874MOL0     C20501   4.344   8.877   4.194  0.1413  0.9142 -0.1678
  874MOL0     C20502   4.370   8.955   4.318 -0.6819 -1.2201  0.4807
  874MOL0     C20503   4.443   8.784   4.148  0.0846  0.1516 -0.1537
  874MOL0     C20504   4.581   8.777   4.205 -0.0472  0.3436 -0.2895
  874MOL0     O20505   4.622   8.647   4.213 -0.6170 -0.6449  0.0294
  874MOL0     C20506   4.749   8.613   4.263 -0.1913 -0.5871  0.2415
  874MOL0     C20507   4.801   8.501   4.215  0.7044  0.3661  0.1373
  874MOL0     C20508   4.921   8.450   4.253 -0.1100  0.2437  0.0430
  874MOL0     C20509   5.006   8.523   4.336  0.3600  0.0355 -0.8738
  874MOL0     O20510   5.122   8.469   4.369  0.1771  0.0144 -0.2413
  874MOL0     C20511   5.219   8.523   4.460  0.0010  0.5288  1.0540
  874MOL0     C20512   5.352   8.437   4.446  0.6907 -0.0675 -0.1453
  874MOL0     C20513   5.432   8.462   4.317 -0.2821  0.8203 -1.2902
  874MOL0     C20514   5.565   8.380   4.318  0.0202 -0.9768  0.7799
  874MOL0     C20515   5.675   8.435   4.420  0.9482  0.2420 -0.0434
  874MOL0     C20516   5.802   8.343   4.426  0.2546 -0.0575 -0.7361
  874MOL0     C20517   5.870   8.336   4.293 -0.3416  0.5804 -0.0579
  874MOL0     C20518   6.016   8.288   4.293  0.0568 -0.4498 -0.1136
  874MOL0    Cl20519   6.135   8.409   4.348 -0.1944  0.1523 -0.3722
  874MOL0     C20520   4.956   8.646   4.390  0.0574  0.7876 -0.3468
  874MOL0     C20521   4.823   8.685   4.361 -0.3338 -0.3947  0.2326
  874MOL0     O20522   4.646   8.878   4.214  0.1023 -0.0274 -0.1101
  874MOL0     C20523   4.398   8.694   4.037 -0.2863 -0.3723 -1.1835
  874MOL0     C20524   4.266   8.697   3.989  0.2145  0.1374  0.4750
  874MOL0     N20525   3.499   8.859   3.934 -0.9766 -0.2832 -0.1906
  874MOL0     N20526   3.375   8.882   3.943 -0.2969 -0.1904 -0.6564
  874MOL0     C20527   2.129   8.635   3.950  0.0589  0.0658  0.2205
  874MOL0     C20528   2.015   8.682   4.021  0.5911 -0.3261  0.2705
  874MOL0     C20529   1.579   8.873   4.064 -0.2280  0.5198  0.1786
  874MOL0     C20530   1.591   8.845   4.200 -0.3500  0.1169  0.1429
  874MOL0     C20531   1.475   8.868   4.284 -0.7937 -0.2327  0.3038
  874MOL0     C20532   1.359   8.939   4.245 -0.2680  0.0313  0.7901
  874MOL0     O20533   1.250   8.965   4.325 -0.3587  0.2894 -0.4389
  874MOL0     C20534   1.217   8.853   4.413  0.4508  0.3356 -0.3822
  874MOL0     C20535   1.061   8.842   4.425 -0.5206 -0.0725  0.9018
  874MOL0     C20536   1.033   8.701   4.482 -0.4750 -0.5515 -0.5762
  874MOL0     C20537   1.037   8.711   4.631 -0.3082 -0.5525 -0.1401
  874MOL0     C20538   0.976   8.594   4.681  0.1980  0.8261  0.1722
  874MOL0     C20539   0.939   8.483   4.724  0.4845  0.3049 -0.5302
  874MOL0     C20540   1.358   8.966   4.107 -0.5715 -0.6500  0.4415
  874MOL0     C20541   1.464   8.933   4.018 -0.7210  0.2356  0.2832
  874MOL0     C20542   1.436   8.965   3.875 -0.0292  0.2716 -0.6677
  874MOL0     H20543   1.877   8.875   3.781 -0.2055 -1.2810 -1.4608
  874MOL0     H20544   2.054   8.785   3.647 -0.7785 -0.0836  0.8631
  874MOL0     H20545   2.380   8.577   3.906 -0.6539 -0.7894 -0.7689
  874MOL0     H20546   2.364   8.744   3.858  0.7338 -1.3774  2.9582
  874MOL0     H20547   2.493   8.516   3.694 -0.0069 -0.1824  1.8100
  874MOL0     H20548   2.478   8.689   3.640 -2.2129  0.0994 -0.0780
  874MOL0     H20549   2.618   8.743   3.848 -2.0900 -1.4985  1.2579
  874MOL0     H20550   2.625   8.586   3.894  0.5006  3.4148  1.1999
  874MOL0     H20551   2.772   8.500   3.759 -2.3808 -0.5591 -0.5747
  874MOL0     H20552   2.734   8.627   3.632  2.8902  2.1815  0.1399
  874MOL0     H20553   2.845   8.695   3.901 -3.8567  2.3106 -1.3321
  874MOL0     H20554   2.842   8.797   3.764  0.1008  0.8681  1.8784
  874MOL0     H20555   3.013   8.555   3.790  2.1677  0.9732  0.8087
  874MOL0     H20556   3.000   8.638   3.641  2.1485 -0.8419  0.3265
  874MOL0     H20557   3.104   8.843   3.732  1.0502  0.7611  1.1526
  874MOL0     H20558   3.193   8.689   3.731  0.8853 -0.2950  1.4472
  874MOL0     H20559   3.113   8.832   3.984  0.8613 -0.4571 -0.1264
  874MOL0     H20560   3.115   8.659   3.973  1.2538 -0.2191  1.3024
  874MOL0     H20561   3.378   8.557   3.939  0.5067  0.0900  1.6164
  874MOL0     H20562   3.639   8.571   3.854  2.2675  1.5667 -1.9628
  874MOL0     H20563   3.655   8.594   4.029 -3.9004  0.2788  0.5669
  874MOL0     H20564   3.840   8.679   3.877 -1.2904 -0.0799 -1.2962
  874MOL0     H20565   3.734   8.822   3.841 -2.0788 -1.2207 -2.0027
  874MOL0     H20566   3.739   8.892   4.054  1.6670  1.1295  0.1840
  874MOL0     H20567   3.777   8.733   4.128 -1.4194  2.2664  0.7308
  874MOL0     H20568   3.950   8.937   3.982 -0.7417 -0.3802 -0.8131
  874MOL0     H20569   3.957   8.876   4.151 -1.2588  0.4462 -0.5618
  874MOL0     H20570   4.137   8.939   4.183 -1.0690  0.5440 -4.1450
  874MOL0     H20571   4.417   8.894   4.395  3.4928  0.5689 -0.3612
  874MOL0     H20572   4.277   8.993   4.359 -0.1192  1.3594 -0.4614
  874MOL0     H20573   4.448   9.031   4.309 -0.7836 -0.5002  4.2824
  874MOL0     H20574   4.736   8.460   4.139 -0.6497  4.1686 -0.9995
  874MOL0     H20575   4.957   8.355   4.215 -0.0396  0.2551  0.0803
  874MOL0     H20576   5.234   8.626   4.426 -0.2022  0.9101  2.0983
  874MOL0     H20577   5.184   8.530   4.563 -2.6395  2.2042  0.1573
  874MOL0     H20578   5.417   8.468   4.529  0.1129  1.4195 -0.2117
  874MOL0     H20579   5.331   8.330   4.458  0.3073  0.1960  2.0087
  874MOL0     H20580   5.456   8.568   4.315  2.6778  0.2094 -2.2524
  874MOL0     H20581   5.377   8.446   4.224 -0.8372 -1.5555 -0.6415
  874MOL0     H20582   5.603   8.403   4.218  4.5970 -1.7529  2.0942
  874MOL0     H20583   5.554   8.271   4.323 -1.5914 -0.9433 -0.9715
  874MOL0     H20584   5.714   8.534   4.394 -0.1095  0.5258 -0.5757
  874MOL0     H20585   5.621   8.440   4.515  0.9819  3.7160 -0.1039
  874MOL0     H20586   5.761   8.246   4.455  0.1437  1.0858  3.8082
  874MOL0     H20587   5.878   8.373   4.499 -0.3823 -2.4802  1.0660
  874MOL0     H20588   5.865   8.432   4.240 -4.3018 -1.4054 -3.9201
  874MOL0     H20589   5.806   8.270   4.234 -0.6159 -1.1699  2.0817
  874MOL0     H20590   6.043   8.259   4.191 -1.1827  1.5928 -1.0938
  874MOL0     H20591   6.021   8.196   4.351 -1.4940  0.2146  1.1870
  874MOL0     H20592   5.024   8.704   4.451 -1.3971  1.5941  0.5568
  874MOL0     H20593   4.793   8.785   4.392 -0.2615 -0.7370  1.4509
  874MOL0     H20594   4.461   8.613   4.003  0.6938 -1.0236  1.8733
  874MOL0     H20595   4.235   8.623   3.916 -1.1347  1.6428 -0.5255
  874MOL0     H20596   2.183   8.559   4.006 -1.3408  1.2514  3.4113
  874MOL0     H20597   1.997   8.673   4.127 -0.8179  3.6764  0.5735
  874MOL0     H20598   1.669   8.788   4.249 -1.5755 -1.7703 -0.0136
  874MOL0     H20599   1.485   8.838   4.388  1.6092 -0.9688 -0.0787
  874MOL0     H20600   1.253   8.756   4.376  1.6890  0.9001 -0.7243
  874MOL0     H20601   1.254   8.880   4.513 -2.2966  2.3507  0.1958
  874MOL0     H20602   1.019   8.858   4.326 -0.6931 -0.7423  0.8611
  874MOL0     H20603   1.020   8.919   4.491  0.2958  2.1971 -1.1289
  874MOL0     H20604   0.931   8.670   4.457  0.1430 -3.6380  0.3090
  874MOL0     H20605   1.094   8.619   4.443 -0.4253 -0.2046 -1.2441
  874MOL0     H20606   0.979   8.796   4.670  0.1251 -0.5277  0.4598
  874MOL0     H20607   1.140   8.710   4.667 -1.3362  0.0039  3.1076
  874MOL0     H20608   0.905   8.405   4.788 -0.8816  0.9089 -0.4791
  874MOL0     H20609   1.277   9.022   4.061  1.5757 -0.9204 -4.2009
  874MOL0     H20610   1.364   9.047   3.867  0.8257  1.1267  0.1368
  874MOL0     H20611   1.515   9.016   3.819  0.0743  0.5015 -0.3167
  874MOL0     H20612   1.402   8.876   3.821 -0.6865  1.9954 -3.3040
  875MOL0     O20613   0.885  11.114   3.534  0.0517  0.0193  0.6476
  875MOL0     C20614   0.815  11.127   3.427 -0.2709 -0.2598 -0.0739
  875MOL0     O20615   0.859  11.089   3.299 -0.0815 -0.3825 -0.1058
  875MOL0     C20616   0.970  11.008   3.293 -0.3081  0.4780 -0.4863
  875MOL0     C20617   0.962  10.872   3.269 -0.2168  0.6750  0.0263
  875MOL0     C20618   1.073  10.789   3.252 -0.1815 -0.0630  0.1788
  875MOL0     C20619   1.203  10.845   3.268 -0.0817 -0.5772  0.1275
  875MOL0     O20620   1.318  10.774   3.251  0.0124  0.6380 -0.1702
  875MOL0     C20621   1.411  10.827   3.156  0.6491  0.0624  0.4964
  875MOL0     C20622   1.503  10.716   3.096 -0.7389 -0.4889 -0.4646
  875MOL0     C20623   1.431  10.588   3.074 -0.2956 -0.9939  0.2654
  875MOL0     C20624   1.514  10.473   3.031  0.3974 -1.2422  0.0754
  875MOL0     C20625   1.436  10.342   3.051  0.4470  0.0551 -0.3838
  875MOL0     C20626   1.350  10.300   2.926  0.3902 -0.2827 -0.4374
  875MOL0     C20627   1.227  10.210   2.969 -0.5305  0.1890  0.1782
  875MOL0     C20628   1.117  10.292   3.042 -0.1494 -0.0595 -0.5387
  875MOL0     N20629   1.039  10.377   2.945 -0.5104 -0.3627 -1.0167
  875MOL0     C20630   0.988  10.499   2.986  0.1605 -0.5370 -0.6319
  875MOL0     C20631   0.943  10.567   2.877  0.0277  0.5844  0.6252
  875MOL0     C20632   0.871  10.697   2.858  0.0462 -0.2569 -0.6700
  875MOL0     C20633   0.722  10.671   2.860  0.9060 -0.3078 -0.3039
  875MOL0     C20634   0.639  10.795   2.816 -0.0876 -0.8476 -0.1919
  875MOL0     C20635   0.518  10.740   2.739 -0.2027  0.5038 -0.0801
  875MOL0     O20636   0.424  10.841   2.740  0.1629 -0.1548  0.2543
  875MOL0     C20637   0.334  10.856   2.841 -0.0901  0.1027 -0.0637
  875MOL0     C20638   0.281  10.977   2.876  0.4977 -0.1502 -0.2029
  875MOL0     C20639   0.162  10.994   2.963  0.0303 -0.6723  0.1451
  875MOL0     C20640   0.123  11.146   2.992  0.4590  0.3976 -0.3677
  875MOL0     C20641   0.105  10.878   3.006  0.1449  0.1103 -0.1306
  875MOL0     C20642  -0.012  10.879   3.092  0.5475 -0.4050 -0.2095
  875MOL0     O20643  -0.057  10.759   3.130 -0.0259  0.4054  0.5480
  875MOL0     C20644  -0.172  10.774   3.208  0.4085  0.0527 -0.1442
  875MOL0     C20645  -0.297  10.776   3.142 -0.0008 -0.1212 -0.5038
  875MOL0     C20646  -0.416  10.793   3.214  0.3419  0.1646  0.6388
  875MOL0     C20647  -0.403  10.816   3.347  1.2304  0.1454  0.4711
  875MOL0     O20648  -0.517  10.840   3.423  0.3379 -0.0165  0.2470
  875MOL0     C20649  -0.635  10.756   3.407 -0.8500 -0.3394 -0.1531
  875MOL0     C20650  -0.741  10.829   3.330  0.0868 -0.1408 -0.6080
  875MOL0     C20651  -0.864  10.742   3.287 -0.2297 -0.3643  0.6813
  875MOL0     C20652  -0.975  10.726   3.393  0.0636 -0.5108 -0.0392
  875MOL0     C20653  -1.078  10.625   3.359  0.7610 -0.3155 -0.2738
  875MOL0     C20654  -1.182  10.678   3.259  0.4031  0.2643  0.2471
  875MOL0     C20655  -1.274  10.577   3.205  0.3374  0.2098  0.1898
  875MOL0     C20656  -1.277  10.569   3.050  0.0805  0.5811 -1.0405
  875MOL0    Cl20657  -1.360  10.712   2.982  0.2191  0.4679  0.0414
  875MOL0     C20658  -0.281  10.807   3.412 -0.4734  0.2505 -0.8940
  875MOL0     C20659  -0.162  10.783   3.342  0.3837 -0.4994 -0.1611
  875MOL0     O20660  -0.062  10.986   3.129 -0.5546  0.9407  0.9093
  875MOL0     C20661   0.163  10.756   2.965 -0.7131  0.1150 -0.3553
  875MOL0     C20662   0.266  10.744   2.872 -0.3638 -0.4161 -0.4263
  875MOL0     N20663   0.953  10.478   2.772 -0.6596 -0.1264  0.0356
  875MOL0     N20664   1.019  10.381   2.810  0.5238 -0.1463  0.0717
  875MOL0     C20665   1.205  10.983   3.284  0.4372 -0.4572 -0.3488
  875MOL0     C20666   1.094  11.065   3.282  0.7831 -0.0385  0.8576
  875MOL0     C20667   0.689  11.200   3.443  0.5015 -0.7376  0.3675
  875MOL0     C20668   0.705  11.327   3.489 -0.3539 -0.4442  0.6212
  875MOL0     C20669   0.592  11.404   3.522 -0.3240  0.2908 -0.0438
  875MOL0     C20670   0.464  11.355   3.502  0.6433  0.2733 -0.1395
  875MOL0     O20671   0.351  11.426   3.528 -0.2268 -0.2281 -0.4821
  875MOL0     C20672   0.358  11.566   3.564 -0.1785  0.0367  0.3432
  875MOL0     C20673   0.223  11.633   3.613 -0.8547 -0.7582  0.5286
  875MOL0     C20674   0.128  11.642   3.492 -0.9912  0.1535 -0.8049
  875MOL0     C20675  -0.011  11.671   3.554 -0.0164  0.7382  0.7225
  875MOL0     C20676  -0.123  11.651   3.451 -0.1211  0.5156 -0.8895
  875MOL0     C20677  -0.210  11.638   3.373 -0.1842  0.7488  0.4627
  875MOL0     C20678   0.448  11.228   3.447  0.0615 -0.7000  0.2741
  875MOL0     C20679   0.561  11.147   3.415  1.0059  0.2375 -0.0623
  875MOL0     C20680   0.525  11.013   3.348 -1.0557  0.0756  0.4210
  875MOL0     H20681   0.865  10.827   3.252  1.2805 -1.9235 -2.6642
  875MOL0     H20682   1.058  10.689   3.215 -2.1115  0.9809 -2.1184
  875MOL0     H20683   1.475  10.906   3.197  0.3284  1.2589 -1.1915
  875MOL0     H20684   1.356  10.870   3.072  2.9394  3.2613  0.4460
  875MOL0     H20685   1.549  10.751   3.003 -0.4458  1.0868  0.2328
  875MOL0     H20686   1.580  10.701   3.172 -0.6782 -0.5896 -0.5457
  875MOL0     H20687   1.372  10.560   3.162 -3.4185  0.4072 -1.2212
  875MOL0     H20688   1.358  10.604   2.994  0.9416 -0.7766 -0.8709
  875MOL0     H20689   1.539  10.505   2.929  2.4296  1.1011  1.2324
  875MOL0     H20690   1.606  10.471   3.090  0.6164  0.7026 -0.1601
  875MOL0     H20691   1.362  10.341   3.131 -1.8980 -1.4970 -2.4378
  875MOL0     H20692   1.508  10.262   3.066  1.0213  0.8617  1.4431
  875MOL0     H20693   1.321  10.380   2.858 -0.0066 -0.1490 -0.1146
  875MOL0     H20694   1.417  10.244   2.859 -0.1295 -0.0788 -1.1378
  875MOL0     H20695   1.254  10.142   3.050 -0.4830  1.7201  1.5040
  875MOL0     H20696   1.185  10.158   2.882  0.4301 -1.8037  0.8532
  875MOL0     H20697   1.051  10.226   3.098 -2.4239  1.7037 -1.0081
  875MOL0     H20698   1.164  10.356   3.118  1.2355 -0.4877 -1.0076
  875MOL0     H20699   0.993  10.523   3.092  4.8586 -1.5853 -0.3729
  875MOL0     H20700   0.888  10.734   2.756 -2.3911 -1.0746 -1.4414
  875MOL0     H20701   0.897  10.765   2.939  0.2958  1.0627 -1.8236
  875MOL0     H20702   0.713  10.591   2.786 -5.1525 -0.6469  0.2824
  875MOL0     H20703   0.684  10.628   2.953  0.9587 -1.3097 -0.7339
  875MOL0     H20704   0.604  10.852   2.902 -0.7046 -0.6695 -0.5598
  875MOL0     H20705   0.699  10.868   2.761 -0.4631  1.6711  2.4862
  875MOL0     H20706   0.543  10.733   2.632 -0.8980 -1.0998 -0.1609
  875MOL0     H20707   0.479  10.645   2.777  0.2075  0.6824  0.8259
  875MOL0     H20708   0.332  11.054   2.820  2.2744 -1.1863 -0.0890
  875MOL0     H20709   0.024  11.177   2.955 -0.4281 -1.0815  0.6857
  875MOL0     H20710   0.201  11.206   2.945  3.0538 -2.2274  0.3159
  875MOL0     H20711   0.127  11.164   3.100 -0.1973 -2.1100  0.1308
  875MOL0     H20712  -0.289  10.760   3.035  0.2286  1.5299 -0.7576
  875MOL0     H20713  -0.515  10.793   3.167  0.4473 -1.9536  0.3080
  875MOL0     H20714  -0.608  10.656   3.370 -0.6115  0.3279 -1.8801
  875MOL0     H20715  -0.679  10.745   3.507  0.2652 -3.9170  0.0788
  875MOL0     H20716  -0.787  10.907   3.391  0.9439 -1.1603  1.4840
  875MOL0     H20717  -0.698  10.872   3.240 -1.2486  1.2743 -0.5993
  875MOL0     H20718  -0.831  10.640   3.262 -2.0336 -1.0739  1.0198
  875MOL0     H20719  -0.913  10.793   3.203 -4.8261  1.6415  4.1057
  875MOL0     H20720  -1.008  10.829   3.411 -0.6533 -0.5585 -0.9503
  875MOL0     H20721  -0.931  10.688   3.486 -0.4050 -1.8026 -0.3116
  875MOL0     H20722  -1.027  10.535   3.323 -0.2819 -0.2922 -1.9295
  875MOL0     H20723  -1.126  10.588   3.449  0.9390 -0.5169 -0.2602
  875MOL0     H20724  -1.122  10.734   3.188  3.6932 -0.7738  2.0247
  875MOL0     H20725  -1.240  10.750   3.317 -0.2082 -0.9208  1.1594
  875MOL0     H20726  -1.376  10.588   3.244  0.8635 -0.2809  1.7923
  875MOL0     H20727  -1.227  10.483   3.235 -0.3623 -0.1658  0.1346
  875MOL0     H20728  -1.323  10.473   3.026  2.7448 -1.5899  1.6869
  875MOL0     H20729  -1.174  10.549   3.018 -0.5686 -2.0050 -1.7460
  875MOL0     H20730  -0.280  10.833   3.517  0.9342 -2.7158 -0.0775
  875MOL0     H20731  -0.067  10.781   3.395  0.4035  1.7014 -0.0434
  875MOL0     H20732   0.113  10.672   3.011 -1.7951  2.7233  3.7822
  875MOL0     H20733   0.278  10.645   2.830  0.7399  0.2871 -1.8564
  875MOL0     H20734   1.301  11.033   3.296 -0.5586  1.4083  0.2874
  875MOL0     H20735   1.102  11.173   3.290  0.2494  0.0556  0.2046
  875MOL0     H20736   0.805  11.367   3.493  0.0321 -1.3033 -0.0598
  875MOL0     H20737   0.608  11.503   3.563 -1.2511  0.2704  0.3899
  875MOL0     H20738   0.428  11.574   3.648  2.7632  0.5593 -1.9813
  875MOL0     H20739   0.400  11.622   3.480 -0.6540 -1.0648 -0.6620
  875MOL0     H20740   0.250  11.729   3.657 -2.5047 -0.2257  0.4578
  875MOL0     H20741   0.179  11.569   3.691  0.4599  0.3004  2.2105
  875MOL0     H20742   0.165  11.726   3.432 -0.1494  1.4444  1.4003
  875MOL0     H20743   0.133  11.548   3.436 -0.2145 -2.2790  2.9446
  875MOL0     H20744  -0.029  11.777   3.574 -0.7562  1.1701 -1.7808
  875MOL0     H20745  -0.021  11.607   3.642  1.5194 -1.2594 -0.4651
  875MOL0     H20746  -0.290  11.632   3.302 -1.5099  1.9177  1.7986
  875MOL0     H20747   0.346  11.196   3.429 -1.1382  1.4306  2.6534
  875MOL0     H20748   0.605  10.946   3.381  1.0245  3.5769  3.1482
  875MOL0     H20749   0.434  10.975   3.395 -1.6129  0.5605 -0.2504
  875MOL0     H20750   0.520  11.018   3.239  1.8102  1.8123  0.2590
  876MOL0     O20751   6.836   6.039   6.072 -0.1379 -0.1615 -0.0764
  876MOL0     C20752   6.786   6.086   5.971 -0.4136 -0.2014 -0.1353
  876MOL0     O20753   6.857   6.121   5.853 -0.1721 -0.0998 -0.2638
  876MOL0     C20754   6.989   6.075   5.831 -0.1939 -0.4498 -0.2426
  876MOL0     C20755   7.047   6.126   5.714 -0.3732  1.0561 -1.0048
  876MOL0     C20756   7.175   6.085   5.668 -0.8885 -0.0041  0.0860
  876MOL0     C20757   7.242   5.987   5.740 -0.1187 -0.1311  0.0004
  876MOL0     O20758   7.358   5.933   5.701  0.4914  0.0180  0.4056
  876MOL0     C20759   7.425   6.000   5.601  0.7157 -0.7485  0.0379
  876MOL0     C20760   7.576   5.945   5.600  1.1793 -0.1794 -0.0289
  876MOL0     C20761   7.663   6.042   5.531 -0.3801 -1.0748 -0.2408
  876MOL0     C20762   7.749   6.133   5.632 -0.4435 -0.6790 -0.2035
  876MOL0     C20763   7.784   6.262   5.551  0.4673  0.5148 -0.0391
  876MOL0     C20764   7.880   6.236   5.432  0.1515  0.4553  0.7918
  876MOL0     C20765   7.916   6.359   5.355 -0.1086 -0.1927 -0.2604
  876MOL0     C20766   7.965   6.336   5.205  0.1147  1.2713 -0.3002
  876MOL0     N20767   8.103   6.275   5.184  0.7745  1.3677 -0.4880
  876MOL0     C20768   8.218   6.333   5.225 -0.1497 -0.7390 -0.2170
  876MOL0     C20769   8.321   6.259   5.176 -0.0789 -0.6656  1.0201
  876MOL0     C20770   8.466   6.287   5.178 -0.6170  0.5573 -0.0231
  876MOL0     C20771   8.529   6.219   5.305 -0.8825 -0.0642 -0.0916
  876MOL0     C20772   8.518   6.302   5.439 -0.6051  0.1565  0.5634
  876MOL0     C20773   8.398   6.264   5.524 -0.8231 -0.1969  0.4773
  876MOL0     O20774   8.331   6.384   5.576 -0.2689  0.0461  0.4354
  876MOL0     C20775   8.224   6.357   5.660  0.9743 -0.1672  0.9097
  876MOL0     C20776   8.160   6.463   5.721  0.3688 -0.2209 -0.6642
  876MOL0     C20777   8.040   6.446   5.807 -0.1196  0.8781 -0.0443
  876MOL0     C20778   7.998   6.566   5.886  0.0175 -1.3453  0.2425
  876MOL0     C20779   7.996   6.313   5.828 -0.4824 -0.0618  1.5334
  876MOL0     C20780   7.884   6.280   5.915  0.2027  1.1576  0.2193
  876MOL0     O20781   7.880   6.155   5.959  0.1531 -0.8449 -0.6957
  876MOL0     C20782   7.771   6.116   6.041 -0.0946  0.0306 -0.2904
  876MOL0     C20783   7.633   6.110   6.004  0.8921 -0.0946 -0.2375
  876MOL0     C20784   7.537   6.071   6.101  0.1647  0.0058  0.5575
  876MOL0     C20785   7.572   6.031   6.227  0.6114  0.1930 -0.4521
  876MOL0     O20786   7.488   6.010   6.337  0.2911  0.0684 -0.4226
  876MOL0     C20787   7.342   5.992   6.310 -0.3567 -0.4963  0.1134
  876MOL0     C20788   7.265   5.951   6.437 -0.0795  0.0827  0.4069
  876MOL0     C20789   7.159   5.837   6.411 -0.7152  0.2736 -0.4771
  876MOL0     C20790   7.055   5.863   6.294 -0.0623 -0.6739  0.3972
  876MOL0     C20791   6.932   5.770   6.268 -0.8104  0.2179  0.0395
  876MOL0     C20792   6.820   5.757   6.373  0.2958  0.3918  0.2386
  876MOL0     C20793   6.708   5.675   6.326 -0.8558 -0.5992  0.6748
  876MOL0     C20794   6.618   5.644   6.448 -0.2536 -0.6171 -0.0839
  876MOL0    Cl20795   6.520   5.775   6.518  0.3672 -0.1011 -0.4650
  876MOL0     C20796   7.705   6.027   6.261 -0.1567 -0.2609 -0.7556
  876MOL0     C20797   7.805   6.072   6.172  0.2686 -0.1154  0.4021
  876MOL0     O20798   7.790   6.358   5.927  0.9593  0.2284 -0.0273
  876MOL0     C20799   8.073   6.205   5.779  0.1519 -0.3516  0.3198
  876MOL0     C20800   8.188   6.223   5.701 -0.5468 -0.6172 -0.3536
  876MOL0     N20801   8.265   6.146   5.113  0.9286 -0.0318  0.3019
  876MOL0     N20802   8.137   6.159   5.115 -0.7348 -0.1488  0.5346
  876MOL0     C20803   7.196   5.945   5.865  0.0359  0.1743  0.1233
  876MOL0     C20804   7.063   5.979   5.904 -0.1877  0.2021  0.3283
  876MOL0     C20805   6.646   6.124   5.991  0.3911  0.1707 -0.1228
  876MOL0     C20806   6.580   6.176   5.878 -1.0351 -1.4930 -0.5364
  876MOL0     C20807   6.443   6.195   5.875 -0.9328  0.7089 -0.2597
  876MOL0     C20808   6.368   6.183   5.987 -0.4464 -0.3278 -0.0405
  876MOL0     O20809   6.238   6.207   5.950 -0.6819  0.2637 -0.7038
  876MOL0     C20810   6.140   6.164   6.045 -0.3158 -0.8260  0.1799
  876MOL0     C20811   6.130   6.012   6.068 -0.3941 -0.0452  0.0094
  876MOL0     C20812   6.008   5.952   5.984  0.6222 -1.4988 -0.1297
  876MOL0     C20813   5.861   5.967   6.039 -0.2376  0.6670 -0.2609
  876MOL0     C20814   5.816   6.108   6.023  0.1384 -0.1591  0.3237
  876MOL0     C20815   5.761   6.210   6.000  0.6715  0.0401  0.2772
  876MOL0     C20816   6.424   6.138   6.105  0.1070  0.9478 -0.5150
  876MOL0     C20817   6.568   6.112   6.112  0.8330 -0.1698 -0.5139
  876MOL0     C20818   6.601   6.036   6.238  0.7427 -0.4335  0.6952
  876MOL0     H20819   6.991   6.199   5.656 -2.2234  1.0857  0.7475
  876MOL0     H20820   7.215   6.122   5.575 -0.5331 -0.4124  0.0707
  876MOL0     H20821   7.420   6.105   5.631  1.1619 -1.0898  1.4029
  876MOL0     H20822   7.377   5.993   5.503  0.1192  1.0866  0.1586
  876MOL0     H20823   7.621   5.920   5.696 -1.1308  3.9151  2.4394
  876MOL0     H20824   7.569   5.855   5.539  2.6029 -0.9662  0.9323
  876MOL0     H20825   7.730   5.991   5.462  0.5350  0.9243 -0.9091
  876MOL0     H20826   7.611   6.112   5.465 -0.4889  0.8937  1.7848
  876MOL0     H20827   7.695   6.155   5.724  1.5377  1.7137  0.4788
  876MOL0     H20828   7.838   6.088   5.677  0.7534  1.3383 -0.4488
  876MOL0     H20829   7.834   6.330   5.620  4.8124 -1.3881 -1.0046
  876MOL0     H20830   7.690   6.309   5.519  0.1925  2.0499  2.6541
  876MOL0     H20831   7.969   6.180   5.463  0.6800  0.5113 -0.5368
  876MOL0     H20832   7.829   6.179   5.353 -2.7240  1.2655  1.9291
  876MOL0     H20833   8.001   6.406   5.405 -0.8894 -0.9742  1.8968
  876MOL0     H20834   7.825   6.419   5.343  0.9076  1.2176 -1.2746
  876MOL0     H20835   7.894   6.283   5.141  0.2686  0.6462  0.0410
  876MOL0     H20836   7.973   6.438   5.166 -0.4762  0.6271 -2.2053
  876MOL0     H20837   8.228   6.425   5.282 -2.9432  0.9721 -2.2176
  876MOL0     H20838   8.495   6.392   5.178  1.9855 -0.0863 -0.6688
  876MOL0     H20839   8.513   6.256   5.084  0.3494 -0.9195  0.9042
  876MOL0     H20840   8.498   6.115   5.317  0.9011 -0.7793 -1.2032
  876MOL0     H20841   8.636   6.221   5.284 -0.9116 -1.0408 -0.4150
  876MOL0     H20842   8.602   6.277   5.504 -0.8948 -1.9147  0.2127
  876MOL0     H20843   8.513   6.409   5.414 -2.4967  0.1237  0.6152
  876MOL0     H20844   8.331   6.211   5.456 -1.2084  0.7169  0.1335
  876MOL0     H20845   8.439   6.198   5.601  0.2646 -3.0664 -2.3329
  876MOL0     H20846   8.200   6.561   5.696 -0.5042  0.2957 -0.1135
  876MOL0     H20847   8.047   6.581   5.982 -0.5651  1.0960  0.2198
  876MOL0     H20848   7.892   6.569   5.912  0.3638 -1.5044  1.7476
  876MOL0     H20849   8.024   6.655   5.827 -1.1112 -1.5016 -0.5326
  876MOL0     H20850   7.602   6.132   5.902 -1.5508 -1.6241  0.0855
  876MOL0     H20851   7.431   6.071   6.079  0.7785 -1.2743 -3.0692
  876MOL0     H20852   7.309   6.094   6.288 -0.1670 -0.3144  0.6523
  876MOL0     H20853   7.322   5.917   6.233 -2.1451 -1.3808  1.3598
  876MOL0     H20854   7.326   5.909   6.517 -3.0699 -2.6680  1.4867
  876MOL0     H20855   7.205   6.035   6.474 -1.9735 -1.5954  1.3576
  876MOL0     H20856   7.089   5.836   6.494 -1.4337 -0.9699 -1.0672
  876MOL0     H20857   7.214   5.743   6.401  0.3649  0.6529  1.4628
  876MOL0     H20858   7.114   5.853   6.203  0.6829  1.5204  0.5776
  876MOL0     H20859   7.017   5.965   6.303  2.4193  0.1584  2.4566
  876MOL0     H20860   6.877   5.803   6.179 -0.5296  2.2207  0.5761
  876MOL0     H20861   6.978   5.672   6.247  0.0612  1.2068 -3.3740
  876MOL0     H20862   6.774   5.854   6.396  0.5493  1.2705 -2.6500
  876MOL0     H20863   6.869   5.718   6.463 -0.1970  0.0368  0.3554
  876MOL0     H20864   6.743   5.576   6.293 -2.0256 -0.8271  0.0493
  876MOL0     H20865   6.659   5.718   6.238  0.7492  0.3554  0.2028
  876MOL0     H20866   6.675   5.602   6.531 -3.0931 -2.9343  0.8425
  876MOL0     H20867   6.544   5.570   6.418 -1.4734  0.6385 -0.2686
  876MOL0     H20868   7.739   6.003   6.361 -2.3957 -2.2771 -0.3924
  876MOL0     H20869   7.909   6.068   6.202  0.3174 -0.8803  0.1355
  876MOL0     H20870   8.040   6.105   5.802 -0.8849 -0.1040 -0.0364
  876MOL0     H20871   8.234   6.131   5.664  0.4825  0.1021 -0.9132
  876MOL0     H20872   7.256   5.874   5.921  0.7227  0.4172 -0.2934
  876MOL0     H20873   7.020   5.944   5.998  1.8310 -1.9773  0.5286
  876MOL0     H20874   6.618   6.161   5.778  0.7513  0.3936 -0.1907
  876MOL0     H20875   6.392   6.217   5.782 -2.7291  0.0619  0.5323
  876MOL0     H20876   6.172   6.208   6.140  0.8405 -2.2111  0.4759
  876MOL0     H20877   6.046   6.217   6.027 -1.6681 -3.6032 -1.6627
  876MOL0     H20878   6.106   5.997   6.174 -1.3132 -1.3942 -0.3670
  876MOL0     H20879   6.227   5.969   6.043 -0.2929 -1.1178  1.9964
  876MOL0     H20880   6.010   5.984   5.879 -1.0297 -0.1726  0.2015
  876MOL0     H20881   6.036   5.846   5.988 -0.7963 -1.8509  2.8544
  876MOL0     H20882   5.867   5.947   6.147  0.6712  1.7178 -0.1004
  876MOL0     H20883   5.792   5.899   5.988 -0.8081 -0.5288  1.9787
  876MOL0     H20884   5.712   6.303   5.979 -0.3770 -0.3987  0.7151
  876MOL0     H20885   6.363   6.122   6.193 -2.2661  0.5586 -2.1592
  876MOL0     H20886   6.517   6.015   6.305  1.6792 -0.8945  1.7812
  876MOL0     H20887   6.651   5.944   6.207  2.0281  0.7851 -1.0663
  876MOL0     H20888   6.686   6.080   6.292  0.6506  0.0653  0.4409
  877MOL0     O20889   8.584   4.457   9.962 -0.0309 -0.1456  0.1041
  877MOL0     C20890   8.601   4.441   9.832  0.7857  1.0241 -0.1747
  877MOL0     O20891   8.543   4.514   9.729  0.0396 -0.2471 -0.4432
  877MOL0     C20892   8.476   4.629   9.755  0.1704  0.1123  0.1010
  877MOL0     C20893   8.531   4.747   9.813 -0.3076  0.5636  0.1453
  877MOL0     C20894   8.454   4.863   9.835  0.2796 -0.1353  0.1294
  877MOL0     C20895   8.322   4.869   9.801  0.5042  0.0870 -0.0335
  877MOL0     O20896   8.235   4.971   9.826 -0.6450  0.0305 -0.1988
  877MOL0     C20897   8.254   5.085   9.745 -0.1327 -0.2494  0.9927
  877MOL0     C20898   8.168   5.206   9.792 -0.3544 -0.0666  0.5117
  877MOL0     C20899   8.198   5.241   9.941 -0.3836 -0.0111  1.3281
  877MOL0     C20900   8.335   5.303   9.970 -0.7569  0.5226  1.0015
  877MOL0     C20901   8.339   5.334  10.118 -0.1615 -0.8327 -0.2273
  877MOL0     C20902   8.468   5.414  10.155  0.9523  0.2291 -0.0818
  877MOL0     C20903   8.479   5.439  10.310  0.4321  0.6559  0.2439
  877MOL0     C20904   8.614   5.487  10.352 -0.8576 -0.0689  0.3387
  877MOL0     N20905   8.698   5.372  10.397  0.0743  0.5239 -0.2615
  877MOL0     C20906   8.761   5.370  10.517  0.2943 -0.0405 -0.5402
  877MOL0     C20907   8.846   5.263  10.507 -0.2239  0.1529 -0.0469
  877MOL0     C20908   8.932   5.218  10.621  0.5088 -0.4806  0.0009
  877MOL0     C20909   9.024   5.103  10.585  0.6375  1.2432 -0.5130
  877MOL0     C20910   9.156   5.129  10.512 -0.3617 -0.6061 -0.2326
  877MOL0     C20911   9.186   5.004  10.431 -0.2403  0.4011 -0.0928
  877MOL0     O20912   9.285   5.041  10.337 -0.2691  0.9683 -0.4597
  877MOL0     C20913   9.419   5.039  10.372 -0.3581  0.5878  0.0463
  877MOL0     C20914   9.472   5.037  10.499  0.5862  0.1782 -0.1036
  877MOL0     C20915   9.599   5.089  10.527  0.2319  0.0154  1.4572
  877MOL0     C20916   9.647   5.107  10.670 -0.0017 -0.7852  0.1610
  877MOL0     C20917   9.688   5.107  10.413 -0.0431  0.8870  0.2260
  877MOL0     C20918   9.838   5.132  10.429  0.7169  0.6701  0.5843
  877MOL0     O20919   9.899   5.070  10.535  0.0229  0.1115 -0.3973
  877MOL0     C20920  10.034   5.044  10.525  0.7718 -0.5652 -0.1212
  877MOL0     C20921  10.077   4.913  10.555  0.3430 -0.2504  0.1997
  877MOL0     C20922  10.217   4.889  10.559  0.6770  0.8181  0.3109
  877MOL0     C20923  10.310   4.988  10.534  0.1156  0.0651  0.3197
  877MOL0     O20924  10.440   4.965  10.565 -0.5097 -0.4511 -0.1099
  877MOL0     C20925  10.548   5.030  10.501 -0.2135  0.0972  0.0033
  877MOL0     C20926  10.678   4.940  10.482 -0.1624 -0.3286  0.1124
  877MOL0     C20927  10.636   4.787  10.470 -0.1256  0.3502 -0.3661
  877MOL0     C20928  10.750   4.711  10.410  0.3050  0.0052 -0.0703
  877MOL0     C20929  10.706   4.569  10.402 -0.6865  0.1823 -0.6882
  877MOL0     C20930  10.815   4.468  10.348  0.5847  0.2619 -0.6718
  877MOL0     C20931  10.943   4.473  10.427  0.0489  0.1353  0.2982
  877MOL0     C20932  11.036   4.347  10.400  0.3608  0.1375 -0.5434
  877MOL0    Cl20933  10.977   4.214  10.492  0.2184  0.0961  0.0363
  877MOL0     C20934  10.258   5.114  10.496 -1.3316 -0.5550 -0.4428
  877MOL0     C20935  10.121   5.147  10.499 -0.0979  0.6880 -0.0493
  877MOL0     O20936   9.889   5.210  10.351  0.9018 -0.0359 -0.0835
  877MOL0     C20937   9.633   5.094  10.281 -0.2672  0.7051  0.0220
  877MOL0     C20938   9.495   5.061  10.267 -1.2600 -0.3108 -0.3037
  877MOL0     N20939   8.835   5.214  10.381 -0.9448  0.0019  0.6051
  877MOL0     N20940   8.753   5.283  10.312 -0.5357 -0.4383 -0.4183
  877MOL0     C20941   8.272   4.754   9.745 -0.2935  0.7655 -0.1951
  877MOL0     C20942   8.343   4.640   9.717  0.0154  0.5966  0.2962
  877MOL0     C20943   8.694   4.328   9.803 -0.2592  0.0150  0.0844
  877MOL0     C20944   8.707   4.228   9.903 -0.6198  0.2051 -0.3197
  877MOL0     C20945   8.793   4.120   9.883 -0.3691 -0.0243  0.0897
  877MOL0     C20946   8.868   4.106   9.771 -0.2925 -0.0964  0.0865
  877MOL0     O20947   8.958   4.007   9.772  0.2473  0.3090 -0.5586
  877MOL0     C20948   9.050   4.000   9.658  0.5241  0.2202 -0.3051
  877MOL0     C20949   9.153   3.890   9.687  0.0493  1.1984  0.7227
  877MOL0     C20950   9.218   3.898   9.827  0.0629  0.0599  0.3417
  877MOL0     C20951   9.318   3.786   9.857  0.3276 -0.2825 -0.4173
  877MOL0     C20952   9.425   3.777   9.754 -0.1697 -0.0428  0.0410
  877MOL0     C20953   9.521   3.753   9.680  0.3436  0.3068 -0.0046
  877MOL0     C20954   8.860   4.207   9.670 -0.2906  0.6585  0.0149
  877MOL0     C20955   8.766   4.315   9.687  0.2784  0.0184  0.3584
  877MOL0     C20956   8.772   4.420   9.584 -0.2753 -0.2590 -0.0245
  877MOL0     H20957   8.631   4.727   9.849  0.0132 -0.2451 -1.1281
  877MOL0     H20958   8.501   4.954   9.871 -0.2324 -0.0292  0.5370
  877MOL0     H20959   8.227   5.057   9.643 -1.5673 -2.8246  1.9856
  877MOL0     H20960   8.357   5.122   9.753  0.0844 -1.3090  5.0212
  877MOL0     H20961   8.190   5.279   9.714 -1.3042 -2.1109 -1.7633
  877MOL0     H20962   8.063   5.175   9.790 -0.7302  1.1773 -1.0742
  877MOL0     H20963   8.121   5.309   9.978 -3.1971 -2.3189  0.1668
  877MOL0     H20964   8.194   5.144   9.991  0.5266 -0.5119  0.4753
  877MOL0     H20965   8.413   5.226   9.969 -1.7605 -0.5290  1.1159
  877MOL0     H20966   8.348   5.382   9.895 -1.8383  1.2913  1.5899
  877MOL0     H20967   8.327   5.242  10.175 -1.7798  0.0418  0.9357
  877MOL0     H20968   8.258   5.403  10.144  2.6993  3.0856 -0.7831
  877MOL0     H20969   8.554   5.363  10.111  1.0063 -1.6729  2.0450
  877MOL0     H20970   8.454   5.511  10.106  0.4251 -0.1224 -0.6474
  877MOL0     H20971   8.450   5.358  10.378  3.2611 -0.4378  0.3113
  877MOL0     H20972   8.401   5.514  10.326  0.6621  0.7076  1.1733
  877MOL0     H20973   8.654   5.550  10.272 -0.0142  1.2018  1.7176
  877MOL0     H20974   8.608   5.555  10.437 -3.9427  2.5291 -1.6920
  877MOL0     H20975   8.762   5.433  10.606 -1.4689 -0.7701  0.0570
  877MOL0     H20976   8.865   5.191  10.703 -1.4264 -0.7465 -1.5852
  877MOL0     H20977   8.987   5.308  10.650 -0.8340  0.9582 -1.6921
  877MOL0     H20978   9.046   5.045  10.676 -2.7382  2.0122  0.9384
  877MOL0     H20979   8.964   5.032  10.528  1.5374  1.1638 -1.4010
  877MOL0     H20980   9.144   5.218  10.450  0.4481  0.1872  0.7206
  877MOL0     H20981   9.246   5.158  10.568 -0.6501  0.9263 -0.5299
  877MOL0     H20982   9.207   4.912  10.487  1.4529  1.0441  0.4059
  877MOL0     H20983   9.104   4.974  10.366  0.3041  0.5808 -0.8777
  877MOL0     H20984   9.419   5.017  10.592  4.5892 -0.0668  2.3797
  877MOL0     H20985   9.707   5.198  10.683 -2.9619  1.5440 -1.2609
  877MOL0     H20986   9.715   5.026  10.701  1.5629  1.1287  2.0930
  877MOL0     H20987   9.568   5.114  10.746  2.5175 -0.8619  2.9959
  877MOL0     H20988  10.005   4.839  10.587  1.9183 -1.2203  1.6865
  877MOL0     H20989  10.248   4.786  10.579 -0.0997  0.5993  0.4015
  877MOL0     H20990  10.523   5.075  10.405  0.3793 -1.7444 -1.0620
  877MOL0     H20991  10.589   5.115  10.557 -1.0038  0.4745  0.0195
  877MOL0     H20992  10.721   4.978  10.389 -2.4820 -0.9317 -1.2690
  877MOL0     H20993  10.751   4.957  10.562  0.0892 -0.9710  0.0245
  877MOL0     H20994  10.551   4.789  10.402 -0.5439 -2.7476 -0.0704
  877MOL0     H20995  10.609   4.747  10.568 -0.8068  3.0700  0.6634
  877MOL0     H20996  10.839   4.716  10.473  1.4880 -2.1332 -1.4439
  877MOL0     H20997  10.786   4.735  10.309  1.6656 -2.3065 -0.2034
  877MOL0     H20998  10.682   4.550  10.507 -0.2654  2.6581 -0.0972
  877MOL0     H20999  10.618   4.560  10.338 -1.3517 -2.4110  0.4454
  877MOL0     H21000  10.839   4.483  10.243 -0.8759  1.5405 -0.8590
  877MOL0     H21001  10.770   4.368  10.354 -0.8249  0.5647 -3.9747
  877MOL0     H21002  10.925   4.475  10.535  0.7247 -1.7458  0.4795
  877MOL0     H21003  10.993   4.569  10.411 -3.8994  2.5571  0.9787
  877MOL0     H21004  11.140   4.367  10.428  0.4050  1.2423 -1.4193
  877MOL0     H21005  11.049   4.318  10.296  2.6689 -0.8863 -0.0160
  877MOL0     H21006  10.326   5.198  10.486 -2.8495  0.6138 -1.3611
  877MOL0     H21007  10.086   5.244  10.463 -0.7067  0.0536 -1.2298
  877MOL0     H21008   9.692   5.125  10.195 -1.8328 -0.9189 -1.7381
  877MOL0     H21009   9.449   5.068  10.169  0.6841  0.6132 -1.2043
  877MOL0     H21010   8.167   4.758   9.718 -0.4479 -0.9128  0.0223
  877MOL0     H21011   8.298   4.561   9.658 -0.7817  1.8700 -0.8519
  877MOL0     H21012   8.645   4.220   9.992  0.3107  0.1132  0.3372
  877MOL0     H21013   8.794   4.040   9.957  1.7846 -0.2188 -0.0816
  877MOL0     H21014   9.002   3.992   9.560  1.0967  1.3201 -0.7000
  877MOL0     H21015   9.102   4.096   9.662 -2.1212  1.7332  1.4575
  877MOL0     H21016   9.225   3.895   9.604 -0.0108 -0.2922  0.5563
  877MOL0     H21017   9.091   3.800   9.684 -2.6312  2.9601 -0.6832
  877MOL0     H21018   9.277   3.990   9.821  1.1499 -0.5980  0.7361
  877MOL0     H21019   9.144   3.894   9.908  0.4559 -2.6556  0.6550
  877MOL0     H21020   9.276   3.685   9.865 -1.7517  0.6860  2.2282
  877MOL0     H21021   9.356   3.814   9.955 -2.2910  1.5263  0.1885
  877MOL0     H21022   9.601   3.723   9.616 -0.5688  2.5194 -2.3108
  877MOL0     H21023   8.916   4.201   9.577 -0.0665 -3.0033  0.2451
  877MOL0     H21024   8.805   4.512   9.635 -0.9539 -1.2019  2.2748
  877MOL0     H21025   8.838   4.399   9.500  2.3896  1.4555  1.5014
  877MOL0     H21026   8.670   4.436   9.546  0.9031 -0.2616 -3.4515
  878MOL0     O21027   1.789   3.431   0.707 -0.6730 -0.3231 -0.1378
  878MOL0     C21028   1.755   3.504   0.616  0.3880  0.2695  0.3858
  878MOL0     O21029   1.647   3.593   0.631 -0.5973  0.3009 -0.1868
  878MOL0     C21030   1.604   3.621   0.756  0.7593 -0.0660 -0.2250
  878MOL0     C21031   1.542   3.534   0.830 -0.5940  0.3496 -0.5725
  878MOL0     C21032   1.503   3.553   0.961  0.7363 -0.4526 -0.0287
  878MOL0     C21033   1.531   3.684   1.017 -0.5216 -0.4309 -0.3265
  878MOL0     O21034   1.515   3.705   1.155 -0.2646 -0.5261  0.3897
  878MOL0     C21035   1.633   3.654   1.225  0.9285 -0.2038  0.4085
  878MOL0     C21036   1.689   3.751   1.318 -0.6646 -0.3915 -0.1293
  878MOL0     C21037   1.837   3.737   1.338  0.5692 -0.0181 -0.4519
  878MOL0     C21038   1.885   3.606   1.397  0.7463 -0.0665  0.3326
  878MOL0     C21039   2.013   3.612   1.471 -0.3095  0.4289  0.5677
  878MOL0     C21040   2.052   3.480   1.543 -0.0331  0.3425 -0.2809
  878MOL0     C21041   2.101   3.380   1.431  0.1081 -0.5135 -0.6986
  878MOL0     C21042   2.192   3.274   1.495  0.1448 -0.4307  0.0077
  878MOL0     N21043   2.197   3.162   1.402  0.4916  0.2806  0.1103
  878MOL0     C21044   2.271   3.167   1.287 -0.7313  0.1722  0.0569
  878MOL0     C21045   2.241   3.061   1.206 -0.2748  0.1775  0.6115
  878MOL0     C21046   2.293   3.024   1.065  0.6728  0.3897 -0.4659
  878MOL0     C21047   2.392   3.128   1.009  0.3022 -0.1282  0.0984
  878MOL0     C21048   2.331   3.261   0.964 -0.2770  0.2840  0.3077
  878MOL0     C21049   2.294   3.268   0.810  0.1397 -0.7510 -0.4059
  878MOL0     O21050   2.402   3.248   0.718  0.0637 -1.0979  0.7892
  878MOL0     C21051   2.505   3.341   0.726 -0.4483  0.2480  0.2149
  878MOL0     C21052   2.495   3.474   0.762 -0.1220  0.2501 -0.4584
  878MOL0     C21053   2.605   3.551   0.790 -0.3734  0.7498  0.1949
  878MOL0     C21054   2.580   3.675   0.864 -0.1975 -0.1627  0.0538
  878MOL0     C21055   2.736   3.501   0.754 -0.2517 -0.0601  0.2575
  878MOL0     C21056   2.869   3.569   0.782 -0.5971  0.4685 -0.6833
  878MOL0     O21057   2.869   3.702   0.796 -0.0835 -0.1917  0.4856
  878MOL0     C21058   2.977   3.780   0.847 -0.1527 -0.3728  0.2991
  878MOL0     C21059   3.096   3.743   0.900 -0.0134 -0.0608 -0.1116
  878MOL0     C21060   3.186   3.834   0.960 -0.0792 -0.2907  0.2290
  878MOL0     C21061   3.156   3.976   0.972  0.5579  0.1561  0.1506
  878MOL0     O21062   3.238   4.070   1.040  0.0697 -0.0371 -0.2345
  878MOL0     C21063   3.161   4.175   1.124 -1.1001  0.1606  0.3333
  878MOL0     C21064   3.268   4.251   1.199  0.4807  0.6299 -0.2898
  878MOL0     C21065   3.363   4.167   1.302 -0.2360 -0.0871  0.5436
  878MOL0     C21066   3.476   4.258   1.358  0.1707 -0.4139  0.4603
  878MOL0     C21067   3.560   4.188   1.461 -0.2173 -0.2313  1.2607
  878MOL0     C21068   3.626   4.057   1.420 -1.1235  0.8836  0.6153
  878MOL0     C21069   3.702   3.985   1.533 -0.1387 -0.0960  0.3566
  878MOL0     C21070   3.598   3.915   1.627 -0.3618 -0.0791  0.2228
  878MOL0    Cl21071   3.516   3.778   1.547  0.2791 -0.0463  0.6146
  878MOL0     C21072   3.034   4.014   0.922  1.0618 -0.4342  0.5396
  878MOL0     C21073   2.945   3.921   0.864  0.2836 -0.0562  0.2536
  878MOL0     O21074   2.967   3.501   0.803 -0.4830 -0.3932 -0.2967
  878MOL0     C21075   2.742   3.366   0.707 -0.4491 -0.1814 -0.8229
  878MOL0     C21076   2.634   3.292   0.701 -0.0399  0.3477 -0.4054
  878MOL0     N21077   2.157   2.980   1.275  1.4390 -0.3785  0.3672
  878MOL0     N21078   2.120   3.049   1.381 -0.0157 -0.1491 -0.5933
  878MOL0     C21079   1.588   3.789   0.943 -0.0415  0.0677  0.4525
  878MOL0     C21080   1.627   3.751   0.811  0.0293  1.3414 -0.1229
  878MOL0     C21081   1.792   3.463   0.481  0.4157 -0.5151  0.0013
  878MOL0     C21082   1.694   3.481   0.383  1.1559  0.1209  0.2628
  878MOL0     C21083   1.709   3.422   0.253  0.9588  0.5043 -0.4533
  878MOL0     C21084   1.827   3.359   0.215  0.1625  0.8062 -0.0401
  878MOL0     O21085   1.843   3.315   0.088 -0.3027 -0.2078  0.7267
  878MOL0     C21086   1.942   3.216   0.056 -0.8241  0.1451 -0.1412
  878MOL0     C21087   1.901   3.069   0.115 -0.4562 -0.3027  0.7806
  878MOL0     C21088   1.754   3.053   0.136 -0.0867 -0.0584  0.6281
  878MOL0     C21089   1.727   2.947   0.235 -0.9306 -0.4219  0.1242
  878MOL0     C21090   1.591   2.911   0.246 -0.5383 -0.2226 -0.5583
  878MOL0     C21091   1.486   2.853   0.267 -0.2513 -0.4311 -0.4411
  878MOL0     C21092   1.926   3.353   0.319  0.8259  0.8122 -0.5974
  878MOL0     C21093   1.914   3.405   0.446 -0.0425  0.7875  0.1713
  878MOL0     C21094   2.027   3.386   0.548  0.2322 -0.5638  0.0302
  878MOL0     H21095   1.528   3.430   0.804 -0.1156  0.3437 -0.8112
  878MOL0     H21096   1.446   3.482   1.019 -0.2942 -1.2659 -1.9247
  878MOL0     H21097   1.717   3.620   1.164  1.8969 -2.8796  2.9883
  878MOL0     H21098   1.604   3.569   1.288 -0.7879  0.8097  1.0560
  878MOL0     H21099   1.683   3.856   1.288  0.2851 -0.5124 -0.7932
  878MOL0     H21100   1.629   3.732   1.408  1.2432  2.6598  1.9799
  878MOL0     H21101   1.885   3.756   1.241  1.1288 -0.4908 -0.2672
  878MOL0     H21102   1.858   3.812   1.415 -1.4348 -0.2677  0.4070
  878MOL0     H21103   1.804   3.571   1.462  0.4514 -1.0342 -0.5458
  878MOL0     H21104   1.880   3.528   1.322 -1.8219 -0.5939  0.9423
  878MOL0     H21105   2.010   3.695   1.542  2.7744  0.3690  0.9141
  878MOL0     H21106   2.094   3.631   1.400 -0.7637 -1.3476 -0.4881
  878MOL0     H21107   2.132   3.502   1.614  1.1125  0.4303 -1.5533
  878MOL0     H21108   1.956   3.444   1.581 -0.4577 -1.0647 -2.5168
  878MOL0     H21109   2.150   3.421   1.342 -2.1837  1.5155 -1.1046
  878MOL0     H21110   2.013   3.326   1.395 -1.8253  2.4394 -0.7222
  878MOL0     H21111   2.293   3.311   1.517  0.5214 -1.3117 -0.1708
  878MOL0     H21112   2.154   3.246   1.593  2.0134  2.0273  1.5552
  878MOL0     H21113   2.339   3.248   1.261  0.6095 -0.9875 -0.1463
  878MOL0     H21114   2.202   3.009   1.006  1.1876  0.1163 -1.2069
  878MOL0     H21115   2.348   2.930   1.072 -0.7472 -0.5550 -1.5969
  878MOL0     H21116   2.461   3.145   1.092  1.0767  1.7092 -0.8645
  878MOL0     H21117   2.441   3.088   0.919 -1.0691 -1.2631 -0.1842
  878MOL0     H21118   2.236   3.275   1.016 -0.6259  2.5844 -0.8382
  878MOL0     H21119   2.398   3.339   1.002  0.4370  0.0660 -0.4841
  878MOL0     H21120   2.210   3.203   0.785 -0.6786  0.7744 -1.7691
  878MOL0     H21121   2.269   3.374   0.803  2.0208  0.1429  3.4418
  878MOL0     H21122   2.399   3.519   0.786 -0.9700 -2.6499  2.2127
  878MOL0     H21123   2.645   3.680   0.952 -1.5231 -0.7949  1.1032
  878MOL0     H21124   2.476   3.678   0.898 -0.5567 -2.0356 -0.7599
  878MOL0     H21125   2.588   3.764   0.801 -0.4308  1.7097  2.5246
  878MOL0     H21126   3.142   3.646   0.888  0.1975  0.2616 -2.4212
  878MOL0     H21127   3.282   3.819   1.007 -0.4981 -0.1982  1.1368
  878MOL0     H21128   3.116   4.248   1.056 -2.0075  0.0959  0.8582
  878MOL0     H21129   3.097   4.131   1.201 -0.3979 -0.0161  0.8235
  878MOL0     H21130   3.328   4.291   1.117  0.5606 -1.3509 -1.2592
  878MOL0     H21131   3.215   4.332   1.251 -0.4060  1.1444 -1.8902
  878MOL0     H21132   3.404   4.090   1.236  1.9435 -1.8024  3.6524
  878MOL0     H21133   3.317   4.116   1.387 -0.7305  2.4784  1.9311
  878MOL0     H21134   3.439   4.354   1.395  4.5691  1.7382 -0.0719
  878MOL0     H21135   3.545   4.285   1.277  0.2389 -0.7758  0.3923
  878MOL0     H21136   3.638   4.262   1.482 -2.0125  1.8702  0.8964
  878MOL0     H21137   3.494   4.172   1.547 -1.5030 -2.6006 -0.0648
  878MOL0     H21138   3.712   4.078   1.357 -0.3936 -1.9042  0.5328
  878MOL0     H21139   3.554   3.991   1.371 -0.7374 -0.8123  2.1867
  878MOL0     H21140   3.762   4.061   1.585  0.9876  0.2771 -1.4158
  878MOL0     H21141   3.771   3.911   1.491 -0.0958 -0.3329  0.8344
  878MOL0     H21142   3.518   3.983   1.659 -0.1887 -0.2505  1.0639
  878MOL0     H21143   3.648   3.878   1.717  1.7657  0.0038 -0.8689
  878MOL0     H21144   3.001   4.117   0.933 -0.3411 -0.8131  0.0691
  878MOL0     H21145   2.846   3.948   0.828 -1.2387 -2.0323  2.5913
  878MOL0     H21146   2.840   3.324   0.682  0.3413 -2.3916  4.6001
  878MOL0     H21147   2.639   3.187   0.674  0.9792  0.0030  1.0300
  878MOL0     H21148   1.604   3.888   0.985 -0.4699  0.5994 -0.5987
  878MOL0     H21149   1.669   3.821   0.740 -0.4362 -0.7898 -2.6470
  878MOL0     H21150   1.599   3.523   0.414  0.5271 -1.8421  1.1735
  878MOL0     H21151   1.627   3.449   0.188  0.3611  1.8607  0.8048
  878MOL0     H21152   1.955   3.217  -0.052  2.7068  0.8812  0.1659
  878MOL0     H21153   2.037   3.251   0.098 -1.1308  1.5512 -0.5936
  878MOL0     H21154   1.943   3.063   0.215  1.3588  3.7400  0.4488
  878MOL0     H21155   1.936   2.982   0.059 -1.2802 -1.6784  2.3115
  878MOL0     H21156   1.694   3.138   0.169  0.2842  1.0677 -1.4018
  878MOL0     H21157   1.711   3.033   0.037  1.3065 -0.2776  0.0425
  878MOL0     H21158   1.755   2.985   0.334  2.2770  1.4054 -1.3374
  878MOL0     H21159   1.776   2.853   0.210 -1.5611 -0.7433  0.0727
  878MOL0     H21160   1.393   2.818   0.306  0.3085 -0.7130  0.6776
  878MOL0     H21161   2.027   3.319   0.296 -0.3168 -1.5618 -2.5335
  878MOL0     H21162   2.124   3.380   0.498  2.1817  0.3406  3.3865
  878MOL0     H21163   2.035   3.465   0.623  0.3068 -0.4324 -0.1173
  878MOL0     H21164   2.010   3.288   0.594 -2.7366  0.7337  2.0177
  879MOL0     O21165   7.108  10.672   0.821  0.1925 -0.3324  0.4057
  879MOL0     C21166   7.131  10.647   0.935  0.0794 -0.4212  1.1437
  879MOL0     O21167   7.246  10.580   0.980  0.4965 -0.2913 -0.1410
  879MOL0     C21168   7.310  10.504   0.892  0.1337  0.5282 -0.1400
  879MOL0     C21169   7.250  10.398   0.824 -0.2911 -1.1658 -1.2498
  879MOL0     C21170   7.315  10.327   0.729  0.1748 -0.1583  0.1165
  879MOL0     C21171   7.453  10.358   0.705 -0.2028 -0.5263 -0.1082
  879MOL0     O21172   7.529  10.275   0.622  0.3825  0.5917  0.4183
  879MOL0     C21173   7.522  10.132   0.644 -0.0265  0.0771 -0.6692
  879MOL0     C21174   7.621  10.090   0.753 -0.1537  0.4510  0.4262
  879MOL0     C21175   7.587  10.107   0.906 -0.6096  0.6515 -0.2973
  879MOL0     C21176   7.693  10.049   0.992 -0.6141 -0.8043 -1.0801
  879MOL0     C21177   7.810  10.147   1.001 -0.2136 -0.6523  0.4443
  879MOL0     C21178   7.907  10.106   1.114 -0.1481  0.2381  0.1750
  879MOL0     C21179   7.994  10.224   1.160  0.4886 -0.1017 -0.7981
  879MOL0     C21180   8.082  10.283   1.047 -0.5479 -0.3455  0.5453
  879MOL0     N21181   8.189  10.367   1.105  0.7005 -0.5785 -0.4049
  879MOL0     C21182   8.303  10.316   1.153 -0.2068  1.0112  0.0257
  879MOL0     C21183   8.373  10.417   1.210  0.4992 -0.3684 -0.1687
  879MOL0     C21184   8.503  10.402   1.279 -0.6487 -0.6576  0.0527
  879MOL0     C21185   8.484  10.434   1.428  0.4808 -0.8640 -0.2628
  879MOL0     C21186   8.598  10.390   1.514  0.0083 -0.5751 -0.6166
  879MOL0     C21187   8.706  10.494   1.498  0.6420 -0.0734  0.5091
  879MOL0     O21188   8.669  10.612   1.555 -0.3220 -0.2877  0.4399
  879MOL0     C21189   8.765  10.709   1.537  0.8639 -0.2251  0.0493
  879MOL0     C21190   8.900  10.692   1.492  0.1427 -0.1144  0.0682
  879MOL0     C21191   8.980  10.809   1.485 -0.1618  0.0342 -0.5290
  879MOL0     C21192   9.124  10.773   1.456 -0.0779 -1.1168  0.3656
  879MOL0     C21193   8.930  10.941   1.507  0.0295  0.5579 -0.7204
  879MOL0     C21194   9.010  11.065   1.487  0.8615  0.4761  0.2091
  879MOL0     O21195   9.147  11.057   1.487 -0.3799  0.2217  0.2538
  879MOL0     C21196   9.231  11.158   1.451  0.4043 -0.3822  0.4594
  879MOL0     C21197   9.217  11.250   1.337 -0.3776 -0.3238  0.1418
  879MOL0     C21198   9.321  11.329   1.287 -0.2994 -0.9618  0.9426
  879MOL0     C21199   9.446  11.324   1.354  0.6618 -0.3302  0.0347
  879MOL0     O21200   9.568  11.382   1.322 -0.0118  1.0023  0.1394
  879MOL0     C21201   9.569  11.471   1.206  0.2632  0.3489 -0.8657
  879MOL0     C21202   9.706  11.553   1.207  0.9102  0.3485 -0.6423
  879MOL0     C21203   9.706  11.657   1.322 -0.1256 -0.8733  0.2720
  879MOL0     C21204   9.754  11.794   1.271 -0.0482 -0.7610  0.3047
  879MOL0     C21205   9.900  11.804   1.224  0.1065 -0.2396  0.5872
  879MOL0     C21206   9.984  11.846   1.344 -1.5291  0.3346  0.0546
  879MOL0     C21207  10.132  11.868   1.302  0.2368  0.5805  0.8755
  879MOL0     C21208  10.222  11.873   1.421 -0.8974 -0.2787 -0.4966
  879MOL0    Cl21209  10.219  12.040   1.483 -0.4989  0.1282 -0.2487
  879MOL0     C21210   9.460  11.228   1.455  0.3276 -0.1471  0.7806
  879MOL0     C21211   9.354  11.151   1.504  0.1448  0.3990 -0.5323
  879MOL0     O21212   8.947  11.165   1.474 -0.5304 -0.0754  0.3133
  879MOL0     C21213   8.800  10.953   1.556  1.1024 -0.1973  0.3749
  879MOL0     C21214   8.722  10.839   1.579  0.2070 -0.2843  0.1540
  879MOL0     N21215   8.288  10.530   1.199 -0.5143 -0.6377  0.2342
  879MOL0     N21216   8.179  10.498   1.134  0.2187 -0.2217 -0.0303
  879MOL0     C21217   7.520  10.464   0.768  0.2050  0.3330  0.1623
  879MOL0     C21218   7.448  10.531   0.869 -0.4476 -0.0018  0.2900
  879MOL0     C21219   7.020  10.682   1.035  0.3653  0.4159 -0.0414
  879MOL0     C21220   7.011  10.609   1.157 -0.3762 -0.2479  0.7213
  879MOL0     C21221   6.929  10.655   1.255 -0.5159  0.6480  0.2864
  879MOL0     C21222   6.817  10.736   1.229  0.9131 -0.2996 -0.9384
  879MOL0     O21223   6.713  10.759   1.321 -0.1753 -0.3530  0.2618
  879MOL0     C21224   6.730  10.722   1.456 -0.2138 -0.4593  0.0513
  879MOL0     C21225   6.638  10.797   1.557  0.6265  0.0465  0.0738
  879MOL0     C21226   6.676  10.760   1.707  0.6627  0.4668 -0.4631
  879MOL0     C21227   6.572  10.804   1.806  0.2353 -0.6084  0.3552
  879MOL0     C21228   6.568  10.759   1.946 -0.5200  0.3291 -0.1856
  879MOL0     C21229   6.543  10.709   2.055 -0.1989  0.4930 -0.2061
  879MOL0     C21230   6.813  10.795   1.096 -0.4152 -0.3177 -0.5158
  879MOL0     C21231   6.913  10.777   1.008 -0.7957  0.4091 -0.1800
  879MOL0     C21232   6.902  10.854   0.868 -0.7831  0.8195 -0.4593
  879MOL0     H21233   7.148  10.366   0.842 -0.6717  0.1837 -0.9053
  879MOL0     H21234   7.264  10.246   0.678 -0.4479 -0.1716  0.7555
  879MOL0     H21235   7.557  10.090   0.549 -0.5111 -1.1761 -0.3133
  879MOL0     H21236   7.421  10.092   0.657  0.3972 -0.8087  0.0143
  879MOL0     H21237   7.627   9.981   0.743  0.6515  0.5498 -0.2893
  879MOL0     H21238   7.722  10.125   0.729  0.4145 -1.5059 -0.1966
  879MOL0     H21239   7.567  10.211   0.933  1.4122  1.3602 -1.2675
  879MOL0     H21240   7.500  10.048   0.935  0.6718 -1.2026 -0.0412
  879MOL0     H21241   7.646  10.027   1.089 -1.1004  1.8408 -0.6320
  879MOL0     H21242   7.734   9.959   0.946  4.0659 -0.4070  1.6216
  879MOL0     H21243   7.766  10.247   1.009  2.5688  0.6813  0.2749
  879MOL0     H21244   7.858  10.179   0.908 -5.1561  0.7176 -1.9920
  879MOL0     H21245   7.838  10.078   1.194 -1.0132  2.3996  0.2343
  879MOL0     H21246   7.976  10.027   1.083 -1.4958 -1.2525  0.8438
  879MOL0     H21247   8.067  10.180   1.228  0.4491  2.5028  1.0634
  879MOL0     H21248   7.931  10.292   1.217  0.5433 -0.5087 -0.2450
  879MOL0     H21249   8.130  10.209   0.982 -0.5436  0.6043 -0.5602
  879MOL0     H21250   8.028  10.354   0.983  0.7364 -1.8886 -2.4970
  879MOL0     H21251   8.327  10.211   1.164  0.5217  1.4167  3.5852
  879MOL0     H21252   8.576  10.462   1.225 -0.4486 -0.5755  0.4154
  879MOL0     H21253   8.535  10.298   1.268  2.0381 -0.2599  2.7416
  879MOL0     H21254   8.457  10.539   1.438  0.4447 -0.8522 -0.4790
  879MOL0     H21255   8.394  10.388   1.469 -0.8339  0.5177 -1.4781
  879MOL0     H21256   8.570  10.379   1.619  0.5581  4.3608  0.2885
  879MOL0     H21257   8.634  10.291   1.483  0.3501 -1.7093  2.9286
  879MOL0     H21258   8.789  10.462   1.562 -0.3355 -0.3379  1.6719
  879MOL0     H21259   8.739  10.509   1.395 -0.9575  2.6995  0.3075
  879MOL0     H21260   8.938  10.592   1.477 -0.1415 -0.1578 -0.3711
  879MOL0     H21261   9.136  10.670   1.422 -0.1625 -1.0767  0.2100
  879MOL0     H21262   9.186  10.796   1.543 -0.9579 -1.6041  1.1326
  879MOL0     H21263   9.151  10.846   1.378  0.3522  1.8956  3.1057
  879MOL0     H21264   9.122  11.249   1.284  0.3810 -0.4878 -1.2622
  879MOL0     H21265   9.309  11.401   1.206  3.1430 -1.0885  0.1781
  879MOL0     H21266   9.561  11.409   1.116 -0.3766 -0.2311 -0.4177
  879MOL0     H21267   9.482  11.537   1.203 -0.9799 -1.1750  0.2077
  879MOL0     H21268   9.782  11.478   1.232 -0.3932 -1.1765 -1.0846
  879MOL0     H21269   9.736  11.598   1.111 -0.0795 -1.2681 -1.7549
  879MOL0     H21270   9.768  11.613   1.400 -0.9277 -4.3605 -0.8959
  879MOL0     H21271   9.611  11.673   1.374 -0.4429  0.6124 -0.6985
  879MOL0     H21272   9.749  11.859   1.359  0.6543 -1.1168  0.6130
  879MOL0     H21273   9.679  11.839   1.205 -0.3406  0.8839  1.6902
  879MOL0     H21274   9.940  11.713   1.177  0.7153  0.2094  0.2251
  879MOL0     H21275   9.910  11.879   1.145 -1.0456  0.3988  1.0240
  879MOL0     H21276   9.994  11.759   1.410  1.6058 -0.4318 -1.2607
  879MOL0     H21277   9.959  11.930   1.410  2.1069 -0.8743  3.3987
  879MOL0     H21278  10.142  11.957   1.239  2.1881 -0.4585 -0.3930
  879MOL0     H21279  10.154  11.783   1.236 -0.5682 -0.8891  2.4315
  879MOL0     H21280  10.324  11.851   1.389 -0.7085  0.4909 -0.4495
  879MOL0     H21281  10.197  11.800   1.498 -0.3576  1.6039  1.5693
  879MOL0     H21282   9.554  11.218   1.509  0.5231 -0.4547  0.3889
  879MOL0     H21283   9.376  11.067   1.570  0.9690  0.1007 -1.1655
  879MOL0     H21284   8.748  11.047   1.572  1.5619 -0.1234  1.5616
  879MOL0     H21285   8.624  10.847   1.624  0.8836 -0.9265  1.8026
  879MOL0     H21286   7.623  10.489   0.744 -0.1081  1.3848 -0.1144
  879MOL0     H21287   7.502  10.613   0.916  2.3201 -2.3430  1.4644
  879MOL0     H21288   7.082  10.536   1.195  0.8010  0.2573 -0.4425
  879MOL0     H21289   6.942  10.609   1.353 -3.4897  2.2988  1.5916
  879MOL0     H21290   6.720  10.613   1.464  2.2879 -0.7473  0.1480
  879MOL0     H21291   6.832  10.749   1.486  0.2088 -1.1498 -0.7339
  879MOL0     H21292   6.533  10.780   1.532  0.2670  1.4603  0.5255
  879MOL0     H21293   6.654  10.905   1.547  0.7781  0.0628  0.4480
  879MOL0     H21294   6.682  10.651   1.716 -0.6168  0.5299  1.8807
  879MOL0     H21295   6.773  10.793   1.745  0.5276  0.4264 -0.0864
  879MOL0     H21296   6.469  10.791   1.771 -0.2273 -1.5379  1.9466
  879MOL0     H21297   6.580  10.912   1.821 -1.4664 -0.3711 -0.2503
  879MOL0     H21298   6.526  10.682   2.157  1.1521  0.0652 -0.0748
  879MOL0     H21299   6.725  10.850   1.066 -0.5401  0.0123  0.4240
  879MOL0     H21300   6.995  10.893   0.826 -0.8383  2.5862  0.9437
  879MOL0     H21301   6.851  10.790   0.796 -3.5984  0.4821  1.6450
  879MOL0     H21302   6.846  10.946   0.884 -2.1756 -0.3630  2.2652
  880MOL0     O21303  10.579   7.701   7.403  0.8422 -0.1705  0.0449
  880MOL0     C21304  10.697   7.679   7.434 -0.1641 -0.1288  0.0469
  880MOL0     O21305  10.803   7.773   7.425  0.3438 -0.0637 -0.4393
  880MOL0     C21306  10.780   7.905   7.398  0.1340 -0.3118 -1.2545
  880MOL0     C21307  10.683   7.979   7.460  0.4931 -0.4901  0.0770
  880MOL0     C21308  10.678   8.119   7.440  0.4754 -0.0007  0.2471
  880MOL0     C21309  10.779   8.190   7.372 -0.7336  0.0361  0.4923
  880MOL0     O21310  10.774   8.328   7.353  0.3140 -0.2752 -0.3195
  880MOL0     C21311  10.820   8.377   7.231  0.1835  0.0010 -0.0934
  880MOL0     C21312  10.777   8.513   7.207  0.3396 -0.6444  0.4154
  880MOL0     C21313  10.858   8.566   7.087 -1.3123 -0.8798 -0.0084
  880MOL0     C21314  10.833   8.715   7.062  0.4723  0.3913 -0.8361
  880MOL0     C21315  10.709   8.742   6.979  0.6474 -0.5479  0.0270
  880MOL0     C21316  10.686   8.889   6.958 -0.5982 -0.4328  1.1384
  880MOL0     C21317  10.540   8.904   6.900 -0.3866  0.2756 -0.2008
  880MOL0     C21318  10.514   9.046   6.857 -0.3885  0.2709  0.8363
  880MOL0     N21319  10.377   9.062   6.818  0.3909  0.4009 -0.0800
  880MOL0     C21320  10.283   9.106   6.904  0.1898 -0.6308  0.1265
  880MOL0     C21321  10.167   9.077   6.834  0.0409  0.3149  0.5925
  880MOL0     C21322  10.027   9.113   6.881  0.2880  0.4533 -0.0800
  880MOL0     C21323  10.000   9.051   7.018 -0.2171 -0.9091  0.3359
  880MOL0     C21324  10.002   8.891   7.028 -0.0425 -0.0253 -0.2095
  880MOL0     C21325   9.893   8.820   6.957  0.9337 -0.3155  0.1922
  880MOL0     O21326   9.889   8.685   6.997  0.3890 -0.4765  0.0806
  880MOL0     C21327   9.836   8.595   6.904  0.1896 -0.2512  0.3364
  880MOL0     C21328   9.894   8.469   6.899  0.3935 -0.7273  0.3595
  880MOL0     C21329   9.834   8.363   6.816  0.3986 -0.0852 -0.3532
  880MOL0     C21330   9.918   8.243   6.794 -0.4275  0.0918 -0.2871
  880MOL0     C21331   9.708   8.381   6.749  0.8045 -0.8384 -1.0139
  880MOL0     C21332   9.640   8.266   6.681  0.3178 -0.9036  0.2360
  880MOL0     O21333   9.525   8.303   6.612 -0.2284  0.1115  0.3261
  880MOL0     C21334   9.425   8.204   6.583 -0.5115  1.0090  1.0856
  880MOL0     C21335   9.381   8.107   6.678  0.7037  0.4433 -0.1879
  880MOL0     C21336   9.283   8.015   6.642  0.6807  0.4333  0.3835
  880MOL0     C21337   9.227   8.013   6.510  0.9026 -0.0587  1.3389
  880MOL0     O21338   9.140   7.908   6.485 -0.3668 -0.6736 -0.5351
  880MOL0     C21339   9.004   7.947   6.501 -0.0843 -0.2890 -0.1446
  880MOL0     C21340   8.907   7.828   6.473 -0.3389 -0.3186 -0.3558
  880MOL0     C21341   8.920   7.714   6.578 -0.5228 -1.2278 -0.2448
  880MOL0     C21342   8.837   7.751   6.703 -0.4711  0.8395  1.3107
  880MOL0     C21343   8.895   7.684   6.833 -0.2564 -0.0285  0.2021
  880MOL0     C21344   9.010   7.760   6.878  0.3942 -0.9573 -0.0311
  880MOL0     C21345   9.060   7.725   7.018  1.1890 -0.1035 -0.2299
  880MOL0     C21346   9.172   7.808   7.059 -0.2792 -0.4155  0.1306
  880MOL0    Cl21347   9.329   7.764   6.987  0.2237  0.2425  0.1904
  880MOL0     C21348   9.271   8.110   6.420 -0.1072 -0.2628  0.0375
  880MOL0     C21349   9.365   8.204   6.458 -0.8378 -0.6597  0.1098
  880MOL0     O21350   9.676   8.150   6.696  0.9938  0.7870 -0.4974
  880MOL0     C21351   9.651   8.511   6.760  0.1833 -0.6060 -0.0084
  880MOL0     C21352   9.712   8.617   6.832  0.9291 -0.1937  0.0092
  880MOL0     N21353  10.198   9.006   6.717  1.1133  0.9446 -0.1351
  880MOL0     N21354  10.327   9.001   6.710  0.0664 -1.0762  0.3971
  880MOL0     C21355  10.892   8.111   7.320  0.7161 -0.8274  0.7158
  880MOL0     C21356  10.884   7.968   7.334  0.1974 -1.2056  0.5093
  880MOL0     C21357  10.726   7.541   7.489  0.6775 -0.3581 -0.4962
  880MOL0     C21358  10.862   7.503   7.494 -0.8712  0.2454 -1.0768
  880MOL0     C21359  10.907   7.392   7.568  0.2922 -0.5997 -0.4997
  880MOL0     C21360  10.809   7.314   7.630  1.1844  0.0840 -0.0069
  880MOL0     O21361  10.827   7.211   7.714 -0.4846  0.2255  0.0231
  880MOL0     C21362  10.917   7.109   7.670  0.2395  0.7288  0.9224
  880MOL0     C21363  11.044   7.125   7.752 -0.6023 -0.5918  0.6073
  880MOL0     C21364  11.138   7.004   7.758 -0.4945 -0.3647 -0.5898
  880MOL0     C21365  11.283   7.064   7.757 -0.0852 -0.5852  0.0453
  880MOL0     C21366  11.304   7.126   7.626 -0.3992 -0.1157  0.0383
  880MOL0     C21367  11.312   7.173   7.520  0.0089 -0.2990  0.5456
  880MOL0     C21368  10.671   7.333   7.597  0.0453  0.4378  0.3346
  880MOL0     C21369  10.629   7.452   7.544 -0.3348  0.1514  0.9383
  880MOL0     C21370  10.485   7.481   7.569  0.1372  0.7182 -0.1112
  880MOL0     H21371  10.602   7.932   7.516 -1.2967  2.0869 -0.1491
  880MOL0     H21372  10.604   8.187   7.480 -0.7669 -0.6574 -0.8738
  880MOL0     H21373  10.781   8.311   7.152  0.5874 -1.2592  0.7380
  880MOL0     H21374  10.929   8.369   7.221  0.3154 -0.4781  1.4695
  880MOL0     H21375  10.673   8.502   7.174 -0.0330 -4.2440  2.3316
  880MOL0     H21376  10.774   8.582   7.292  1.7989  2.2331 -1.7077
  880MOL0     H21377  10.965   8.554   7.107 -0.7383 -0.6683 -2.5683
  880MOL0     H21378  10.837   8.510   6.996 -1.5374  1.0967 -1.2397
  880MOL0     H21379  10.826   8.766   7.159  0.6132 -0.1361 -0.5429
  880MOL0     H21380  10.915   8.750   6.999 -0.3409 -1.1868 -2.8688
  880MOL0     H21381  10.632   8.696   7.041  1.3867 -1.4119  0.3284
  880MOL0     H21382  10.720   8.696   6.880  0.3941  0.7908 -0.6461
  880MOL0     H21383  10.702   8.940   7.054 -1.7522 -3.5561  3.1341
  880MOL0     H21384  10.759   8.920   6.882 -1.4904  0.4893  0.6314
  880MOL0     H21385  10.465   8.879   6.976 -2.3571 -0.6193 -2.3244
  880MOL0     H21386  10.516   8.835   6.819 -0.8743 -1.4952  1.3756
  880MOL0     H21387  10.536   9.118   6.936 -0.5651  0.8796  0.3423
  880MOL0     H21388  10.575   9.065   6.768 -1.1687 -1.5039 -0.1412
  880MOL0     H21389  10.303   9.177   6.984  1.1440 -1.6484  0.8328
  880MOL0     H21390   9.951   9.070   6.814  1.3528 -1.1859 -0.2840
  880MOL0     H21391  10.025   9.222   6.878  2.5427  0.5520  0.6538
  880MOL0     H21392  10.073   9.093   7.088  0.1997 -0.3019 -0.4555
  880MOL0     H21393   9.898   9.086   7.037 -0.8335 -0.4641 -3.2177
  880MOL0     H21394  10.096   8.847   6.994 -0.4365 -1.4085  0.4252
  880MOL0     H21395   9.992   8.866   7.134 -1.0409 -2.3161 -0.7859
  880MOL0     H21396   9.801   8.871   6.988  1.5299  0.6739  0.3754
  880MOL0     H21397   9.906   8.836   6.849  2.7542 -0.2396  0.3974
  880MOL0     H21398   9.987   8.448   6.950 -0.3070 -2.8457  0.8599
  880MOL0     H21399   9.930   8.222   6.688 -1.7361 -1.8089 -0.1000
  880MOL0     H21400   9.873   8.154   6.839 -2.7094  2.2551  2.0500
  880MOL0     H21401  10.018   8.261   6.836 -0.4293 -2.0676  0.7859
  880MOL0     H21402   9.419   8.110   6.779 -0.0311 -3.6777  0.3813
  880MOL0     H21403   9.250   7.944   6.718  0.3094  0.1987  0.0117
  880MOL0     H21404   8.989   7.972   6.606  0.2700 -1.8136  0.2981
  880MOL0     H21405   8.976   8.029   6.435 -0.6532 -2.4331 -2.7382
  880MOL0     H21406   8.803   7.861   6.464 -0.0502  0.5335 -0.7114
  880MOL0     H21407   8.944   7.795   6.376  2.4400  2.7893 -0.5578
  880MOL0     H21408   9.025   7.701   6.606 -1.1063  0.4489  3.2954
  880MOL0     H21409   8.883   7.617   6.543 -0.0703 -2.4648  2.4222
  880MOL0     H21410   8.739   7.708   6.681  1.2590 -5.1347  3.2800
  880MOL0     H21411   8.824   7.860   6.713  0.8066  1.1557 -0.1075
  880MOL0     H21412   8.825   7.666   6.915  1.5266  1.1487  2.0689
  880MOL0     H21413   8.931   7.588   6.794  0.9539  0.3096  0.4430
  880MOL0     H21414   8.984   7.866   6.874  0.4038 -0.9881 -1.4239
  880MOL0     H21415   9.094   7.745   6.810  0.6040 -1.0827  0.2567
  880MOL0     H21416   9.091   7.621   7.024  0.9390 -0.2712 -1.6420
  880MOL0     H21417   8.983   7.746   7.094  4.3138 -1.7710  3.7925
  880MOL0     H21418   9.178   7.819   7.168 -1.1684 -0.9005  0.2377
  880MOL0     H21419   9.145   7.910   7.028 -0.0124 -0.6031 -0.7490
  880MOL0     H21420   9.226   8.100   6.322 -2.3579  1.2492  0.8505
  880MOL0     H21421   9.380   8.285   6.387  0.5037 -0.8184  0.1784
  880MOL0     H21422   9.556   8.533   6.713  0.2750 -0.0147  0.0706
  880MOL0     H21423   9.675   8.718   6.842  3.2846  0.6156  1.5923
  880MOL0     H21424  10.979   8.163   7.282  2.3755 -0.5253  4.4862
  880MOL0     H21425  10.946   7.898   7.280  0.0189 -1.2037  0.3024
  880MOL0     H21426  10.934   7.561   7.437 -0.1031  1.5591  1.1382
  880MOL0     H21427  11.014   7.387   7.584  0.4991 -0.2342 -1.6544
  880MOL0     H21428  10.877   7.008   7.665  0.9749  0.4852 -0.4708
  880MOL0     H21429  10.934   7.123   7.563 -1.0679 -0.2796  0.5631
  880MOL0     H21430  11.012   7.133   7.856 -0.6876  1.9075  0.4556
  880MOL0     H21431  11.086   7.220   7.717  2.7273 -1.4778  1.8744
  880MOL0     H21432  11.122   6.944   7.848 -0.8001 -0.2896 -0.5945
  880MOL0     H21433  11.132   6.938   7.671  1.7971  0.8759 -1.7899
  880MOL0     H21434  11.355   6.982   7.773 -0.5477 -1.7420 -3.0283
  880MOL0     H21435  11.296   7.137   7.838 -0.1158 -0.7814  0.2282
  880MOL0     H21436  11.315   7.199   7.416 -1.0351 -2.0679  0.0245
  880MOL0     H21437  10.599   7.272   7.652  0.5281  1.0393  1.6845
  880MOL0     H21438  10.434   7.385   7.576  1.9658 -0.4360 -1.5461
  880MOL0     H21439  10.479   7.527   7.668 -1.9920 -0.3248  0.3106
  880MOL0     H21440  10.439   7.549   7.496  4.9315  2.9342 -1.4560
  881MOL0     O21441   6.046   1.300   6.871  0.1737  0.8984  1.0904
  881MOL0     C21442   6.129   1.301   6.776  0.3836  0.0403  0.0466
  881MOL0     O21443   6.092   1.287   6.648 -0.2595  0.3734 -0.3306
  881MOL0     C21444   5.958   1.282   6.611 -0.5635  0.3889  0.2895
  881MOL0     C21445   5.923   1.381   6.517 -0.0151  0.5636 -0.5118
  881MOL0     C21446   5.790   1.376   6.476 -0.3314  0.0698  0.3926
  881MOL0     C21447   5.699   1.282   6.525 -0.5013 -0.6589  0.4137
  881MOL0     O21448   5.574   1.299   6.481  0.2177 -0.6772 -0.1104
  881MOL0     C21449   5.457   1.245   6.543 -0.1763  0.4527  0.1511
  881MOL0     C21450   5.345   1.330   6.479 -0.9769  0.5762  0.1037
  881MOL0     C21451   5.221   1.249   6.475  0.4263 -0.1838 -0.1478
  881MOL0     C21452   5.136   1.268   6.595  0.7020  0.1286  0.0364
  881MOL0     C21453   5.011   1.175   6.601 -0.8431 -0.5653  0.0920
  881MOL0     C21454   4.897   1.221   6.516 -0.0907  0.2657  0.0649
  881MOL0     C21455   4.771   1.125   6.523 -0.0886 -0.0611  0.9615
  881MOL0     C21456   4.796   1.009   6.423 -0.2907 -0.3687 -0.1562
  881MOL0     N21457   4.743   1.028   6.284  0.2269  1.1349  0.5926
  881MOL0     C21458   4.615   0.978   6.241 -0.7950 -0.2650 -0.3557
  881MOL0     C21459   4.613   1.020   6.115 -0.9184 -0.0505 -0.9537
  881MOL0     C21460   4.494   1.007   6.032 -0.3287 -0.0197  0.7447
  881MOL0     C21461   4.519   0.919   5.902 -1.3251  0.3716  0.1744
  881MOL0     C21462   4.391   0.906   5.817 -0.9730  0.6324 -0.1363
  881MOL0     C21463   4.418   0.902   5.670 -0.2573 -0.0471  0.0815
  881MOL0     O21464   4.302   0.926   5.591 -0.0816  0.2135 -0.0394
  881MOL0     C21465   4.223   0.808   5.577  0.1675  0.2166 -0.5819
  881MOL0     C21466   4.101   0.837   5.527  0.0307  0.2772 -0.5658
  881MOL0     C21467   4.003   0.738   5.504  0.0951  0.0570 -0.2898
  881MOL0     C21468   3.868   0.776   5.455  0.2019  0.2033 -0.2230
  881MOL0     C21469   4.033   0.607   5.536  0.4944  0.7889 -0.1539
  881MOL0     C21470   3.936   0.503   5.529  0.0466  0.1879 -0.0975
  881MOL0     O21471   3.938   0.411   5.629 -0.5800 -0.6714 -0.3564
  881MOL0     C21472   3.828   0.323   5.655  0.7467 -0.8171 -0.6740
  881MOL0     C21473   3.741   0.345   5.771 -1.2489  0.2442  0.8310
  881MOL0     C21474   3.646   0.245   5.815  0.6728 -0.7584  0.8803
  881MOL0     C21475   3.619   0.128   5.735 -0.5500 -1.0577  0.0447
  881MOL0     O21476   3.521   0.046   5.778 -0.4543 -0.9840 -0.6394
  881MOL0     C21477   3.502  -0.079   5.709 -0.4790 -0.6819 -0.5720
  881MOL0     C21478   3.419  -0.184   5.790 -0.1407 -0.2097  0.2059
  881MOL0     C21479   3.473  -0.209   5.941  0.8052 -0.1418 -0.7987
  881MOL0     C21480   3.461  -0.351   5.988  0.1478  0.2570  0.6507
  881MOL0     C21481   3.309  -0.382   5.997  0.1658 -0.0096  0.3830
  881MOL0     C21482   3.294  -0.518   6.072  0.0305  0.1207 -0.2194
  881MOL0     C21483   3.292  -0.623   5.967 -0.8028  0.0635 -0.1523
  881MOL0     C21484   3.165  -0.630   5.888 -0.5497  0.1888  0.0365
  881MOL0    Cl21485   3.088  -0.789   5.903 -0.1552 -0.0017  0.0482
  881MOL0     C21486   3.693   0.113   5.620 -0.0084  0.1282  0.4333
  881MOL0     C21487   3.800   0.205   5.586  0.2522 -0.6655  0.6424
  881MOL0     O21488   3.866   0.491   5.426  0.8343  0.0127 -0.5358
  881MOL0     C21489   4.166   0.575   5.578  0.3476 -0.0327 -0.0980
  881MOL0     C21490   4.258   0.679   5.601  0.0485  0.4243  0.2320
  881MOL0     N21491   4.735   1.078   6.077 -0.6363  0.4098 -0.3928
  881MOL0     N21492   4.803   1.103   6.182 -0.4819  0.1637  0.7286
  881MOL0     C21493   5.740   1.185   6.605  0.2507 -0.8271 -0.3074
  881MOL0     C21494   5.873   1.180   6.651  0.6460  0.9589  1.0448
  881MOL0     C21495   6.267   1.338   6.818  0.2679 -1.1740  0.3823
  881MOL0     C21496   6.306   1.334   6.956 -0.0492  0.0550 -0.2170
  881MOL0     C21497   6.430   1.386   7.005  0.1204  0.1062 -0.1542
  881MOL0     C21498   6.520   1.435   6.913  0.4072  0.1634  0.4987
  881MOL0     O21499   6.633   1.491   6.969 -0.1532  0.2465  0.7218
  881MOL0     C21500   6.743   1.522   6.884  0.3213 -0.0510  0.3661
  881MOL0     C21501   6.812   1.403   6.817  0.5886 -0.1780  0.2348
  881MOL0     C21502   6.879   1.303   6.920  0.6882  0.6178  0.1999
  881MOL0     C21503   6.967   1.377   7.025  0.5405  0.0608 -0.1690
  881MOL0     C21504   7.086   1.423   6.959 -0.2050  0.0022  0.3356
  881MOL0     C21505   7.176   1.485   6.909  0.4047  0.4012 -0.2842
  881MOL0     C21506   6.490   1.438   6.777  0.0992  0.1616  0.2110
  881MOL0     C21507   6.376   1.382   6.725  0.2906  0.8469 -0.5072
  881MOL0     C21508   6.350   1.392   6.576  0.1137  0.4050 -0.7143
  881MOL0     H21509   6.000   1.437   6.464  2.9992 -0.3453  2.5816
  881MOL0     H21510   5.756   1.444   6.399 -1.3766  0.2059  0.9576
  881MOL0     H21511   5.456   1.246   6.653  0.3258  0.9169  0.1542
  881MOL0     H21512   5.447   1.141   6.511 -0.7939  1.3068 -2.6481
  881MOL0     H21513   5.335   1.416   6.545 -3.2218 -1.7443  3.0823
  881MOL0     H21514   5.372   1.370   6.381 -0.5348  1.3274  0.5251
  881MOL0     H21515   5.175   1.293   6.386  0.8348  0.7579  0.0925
  881MOL0     H21516   5.239   1.145   6.447 -0.8277 -0.2579 -0.7412
  881MOL0     H21517   5.201   1.246   6.680 -0.2950 -1.2243  0.4892
  881MOL0     H21518   5.114   1.375   6.586  3.4425  0.6608 -1.1134
  881MOL0     H21519   4.977   1.160   6.704 -1.5111  1.4576  0.2037
  881MOL0     H21520   5.035   1.071   6.575 -0.4965 -0.8348  1.3990
  881MOL0     H21521   4.861   1.321   6.541  0.0199  0.2112  0.4588
  881MOL0     H21522   4.929   1.227   6.412 -3.1701 -0.1366 -0.9862
  881MOL0     H21523   4.679   1.173   6.489  0.5208  0.2585 -0.3123
  881MOL0     H21524   4.749   1.087   6.623 -0.2255 -2.5662  0.0452
  881MOL0     H21525   4.903   0.984   6.414 -0.0226  0.4558  0.6023
  881MOL0     H21526   4.755   0.916   6.462 -0.2387 -1.2258 -2.0103
  881MOL0     H21527   4.540   0.916   6.288 -0.5467 -1.2060 -1.1650
  881MOL0     H21528   4.480   1.109   5.997  1.0290 -1.0603 -3.4707
  881MOL0     H21529   4.408   0.971   6.089  0.6564  0.6150  2.7025
  881MOL0     H21530   4.607   0.963   5.853 -1.2468  0.6081  0.5192
  881MOL0     H21531   4.543   0.814   5.920  0.7874  0.4940 -1.5399
  881MOL0     H21532   4.327   0.823   5.847  0.6699 -0.8382 -0.5190
  881MOL0     H21533   4.334   0.999   5.828  0.2899  1.5038 -0.6723
  881MOL0     H21534   4.493   0.975   5.638 -0.5846  0.8810  1.3408
  881MOL0     H21535   4.472   0.810   5.643  0.0738 -0.9901  3.4799
  881MOL0     H21536   4.085   0.943   5.511  0.9501  0.8005  1.5787
  881MOL0     H21537   3.841   0.872   5.498  1.7828  0.7144 -0.2927
  881MOL0     H21538   3.789   0.719   5.505 -1.6451  2.5922 -0.2871
  881MOL0     H21539   3.867   0.778   5.346  2.6548 -2.3086 -0.4200
  881MOL0     H21540   3.761   0.430   5.836 -0.4309 -0.3701  1.3926
  881MOL0     H21541   3.600   0.266   5.911  3.1518  0.0273  1.9660
  881MOL0     H21542   3.446  -0.050   5.620 -0.7446  0.7088  0.0322
  881MOL0     H21543   3.595  -0.124   5.673  0.4260  2.2114 -2.1781
  881MOL0     H21544   3.312  -0.159   5.794 -0.8207 -2.7339 -0.5814
  881MOL0     H21545   3.412  -0.278   5.735  1.1120  0.2533 -0.7885
  881MOL0     H21546   3.405  -0.148   6.001  0.5574 -1.3124  0.1456
  881MOL0     H21547   3.571  -0.162   5.952  0.4359  1.1944 -2.6866
  881MOL0     H21548   3.510  -0.366   6.084  1.0532  2.6999  0.6466
  881MOL0     H21549   3.505  -0.426   5.922  1.6768  1.0649  0.7042
  881MOL0     H21550   3.272  -0.303   6.063 -0.4453 -0.3126  0.4094
  881MOL0     H21551   3.253  -0.376   5.903 -1.1176  0.2242  1.1547
  881MOL0     H21552   3.201  -0.533   6.128  0.4271 -0.8319  0.1875
  881MOL0     H21553   3.374  -0.544   6.142 -3.0778 -2.2186  2.7717
  881MOL0     H21554   3.326  -0.717   6.010 -3.0543  0.0105  1.7158
  881MOL0     H21555   3.369  -0.595   5.895  2.5109 -2.7938  1.9877
  881MOL0     H21556   3.185  -0.608   5.782 -1.7975 -3.5783 -1.1453
  881MOL0     H21557   3.090  -0.559   5.923 -0.0874 -0.1297  1.7462
  881MOL0     H21558   3.680   0.024   5.559  3.2656  1.6054 -2.8168
  881MOL0     H21559   3.854   0.177   5.497 -0.2841  3.1965 -1.1153
  881MOL0     H21560   4.204   0.474   5.596 -0.5518 -0.5459 -1.0054
  881MOL0     H21561   4.357   0.648   5.630  0.3153  1.1377  0.1071
  881MOL0     H21562   5.666   1.110   6.630 -0.5377  0.3106  0.9203
  881MOL0     H21563   5.903   1.097   6.715 -2.3009 -0.3042  0.9332
  881MOL0     H21564   6.225   1.310   7.024 -0.5695  1.4820 -0.3078
  881MOL0     H21565   6.454   1.390   7.110 -1.4664 -1.0175  0.2883
  881MOL0     H21566   6.717   1.590   6.802 -4.7645 -0.0730  1.6000
  881MOL0     H21567   6.815   1.582   6.939 -0.8803  2.8028 -1.0130
  881MOL0     H21568   6.896   1.437   6.756 -2.1911  0.0970 -3.7948
  881MOL0     H21569   6.748   1.355   6.743 -0.6077 -1.7676  2.1693
  881MOL0     H21570   6.799   1.253   6.976  1.3176  0.4571  0.9828
  881MOL0     H21571   6.942   1.229   6.870  0.1557  0.6111 -0.4751
  881MOL0     H21572   7.000   1.304   7.099 -0.4909 -0.4641 -0.2060
  881MOL0     H21573   6.919   1.450   7.090  1.2676 -0.0507  0.5077
  881MOL0     H21574   7.255   1.539   6.861  2.2595 -0.5045  1.5902
  881MOL0     H21575   6.563   1.455   6.699  1.3976 -1.1703  1.0881
  881MOL0     H21576   6.246   1.420   6.556 -0.6375 -0.5004  1.6657
  881MOL0     H21577   6.425   1.457   6.528  0.1606  1.8564  1.2166
  881MOL0     H21578   6.356   1.294   6.527 -2.8118 -0.1355 -0.1789
  882MOL0     O21579   9.748   2.122   1.244  0.2455  0.0168  0.5152
  882MOL0     C21580   9.750   2.242   1.239 -0.7261 -0.4824  0.8687
  882MOL0     O21581   9.783   2.325   1.343 -0.1364 -0.1476 -0.1352
  882MOL0     C21582   9.791   2.267   1.465 -0.0733  0.5236 -0.6985
  882MOL0     C21583   9.910   2.292   1.542 -0.1998  0.3912 -0.3449
  882MOL0     C21584   9.909   2.273   1.683  0.2819  0.2893 -0.4742
  882MOL0     C21585   9.797   2.220   1.750  0.6639 -0.6746 -0.4923
  882MOL0     O21586   9.809   2.200   1.882 -0.1783 -0.1048 -0.2880
  882MOL0     C21587   9.699   2.132   1.938 -0.3737 -0.4979  0.0532
  882MOL0     C21588   9.721   2.137   2.090  0.4127  0.9950  0.9751
  882MOL0     C21589   9.610   2.056   2.155  0.6269  0.5276  1.1528
  882MOL0     C21590   9.667   1.914   2.183 -0.7771  0.1720  0.2908
  882MOL0     C21591   9.559   1.822   2.230 -0.4612  0.2636  0.1678
  882MOL0     C21592   9.589   1.673   2.209  0.4241  0.9119 -0.2785
  882MOL0     C21593   9.468   1.572   2.246 -0.1868  0.4514  0.5021
  882MOL0     C21594   9.484   1.419   2.211 -0.1244 -0.2357  0.0658
  882MOL0     N21595   9.587   1.391   2.118 -1.5152 -0.1714 -0.3241
  882MOL0     C21596   9.705   1.321   2.137  0.6959 -1.4623  0.5917
  882MOL0     C21597   9.758   1.310   2.005 -0.1737  0.1660  0.3314
  882MOL0     C21598   9.883   1.232   1.955 -0.9519 -0.1484  0.1563
  882MOL0     C21599   9.827   1.143   1.839  0.0831 -0.3644 -0.4457
  882MOL0     C21600   9.925   1.031   1.799  0.2503 -0.3386  0.4691
  882MOL0     C21601  10.041   1.089   1.725 -1.3817 -0.1122  0.8843
  882MOL0     O21602  10.132   0.978   1.683  0.5255  0.1681 -0.6831
  882MOL0     C21603  10.269   1.006   1.677 -0.3542 -0.6148  0.0725
  882MOL0     C21604  10.356   0.904   1.704 -0.2432  0.1823  0.5401
  882MOL0     C21605  10.505   0.924   1.678  0.9011  0.0681  0.0030
  882MOL0     C21606  10.586   0.794   1.688  0.5057  0.5636  0.2262
  882MOL0     C21607  10.546   1.046   1.621  0.3079 -0.5261 -0.3773
  882MOL0     C21608  10.689   1.078   1.593  0.0747 -0.1416 -0.7939
  882MOL0     O21609  10.702   1.202   1.530  0.0371  0.6435 -0.2156
  882MOL0     C21610  10.827   1.236   1.487 -0.0524  0.0616  0.7632
  882MOL0     C21611  10.900   1.167   1.394 -0.2444  0.6563 -0.1900
  882MOL0     C21612  11.029   1.199   1.353  0.2327 -0.4376 -0.2004
  882MOL0     C21613  11.088   1.315   1.417 -0.7088 -0.1570  0.6262
  882MOL0     O21614  11.217   1.359   1.392  0.2720 -0.2987  0.2711
  882MOL0     C21615  11.298   1.285   1.308 -1.4805 -0.1878  0.4458
  882MOL0     C21616  11.437   1.348   1.324  1.4024 -0.1543  1.5688
  882MOL0     C21617  11.547   1.242   1.309 -0.0534  0.5666 -0.6887
  882MOL0     C21618  11.678   1.309   1.300 -0.1942  0.1341 -0.4151
  882MOL0     C21619  11.779   1.203   1.252  0.4466  0.1100  0.3466
  882MOL0     C21620  11.922   1.236   1.297  0.0862  0.0545 -0.2024
  882MOL0     C21621  11.980   1.355   1.234  0.4954  0.3692 -0.2292
  882MOL0     C21622  12.127   1.343   1.230  0.0205 -0.1973 -0.8295
  882MOL0    Cl21623  12.200   1.324   1.386 -0.3117  0.3261  0.3481
  882MOL0     C21624  11.017   1.383   1.511 -0.9034 -0.1806  0.4601
  882MOL0     C21625  10.892   1.347   1.544  0.8216 -0.8818  0.2008
  882MOL0     O21626  10.780   0.995   1.615 -0.5601 -0.0934  0.0937
  882MOL0     C21627  10.445   1.154   1.609  0.2002  0.7400 -0.6130
  882MOL0     C21628  10.312   1.128   1.625 -0.4057  0.4540  0.2978
  882MOL0     N21629   9.674   1.382   1.925 -0.1470  0.1982  0.8409
  882MOL0     N21630   9.568   1.407   1.992  0.2741 -0.5770  0.0926
  882MOL0     C21631   9.681   2.195   1.670 -0.7324  0.1918  1.8480
  882MOL0     C21632   9.678   2.211   1.532 -0.3469 -0.9231  0.2339
  882MOL0     C21633   9.730   2.296   1.102 -0.0020 -0.0420 -0.4260
  882MOL0     C21634   9.691   2.217   0.989 -0.4438  0.2287 -0.0856
  882MOL0     C21635   9.676   2.280   0.866 -0.8413  0.3557  0.4075
  882MOL0     C21636   9.693   2.418   0.843  0.0427 -0.1434  0.6568
  882MOL0     O21637   9.664   2.465   0.717 -0.2581 -0.3916 -0.8148
  882MOL0     C21638   9.764   2.430   0.617  0.0439  0.3683  0.6669
  882MOL0     C21639   9.911   2.472   0.653  0.6241 -1.5536 -0.1728
  882MOL0     C21640   9.917   2.620   0.626  0.6162 -0.8843 -0.4196
  882MOL0     C21641  10.046   2.686   0.682  0.1572  0.4679 -0.0691
  882MOL0     C21642  10.004   2.771   0.791  0.1173 -0.0484  0.0473
  882MOL0     C21643   9.956   2.850   0.877  0.6787 -0.7583  0.9988
  882MOL0     C21644   9.749   2.495   0.944 -0.1233  0.6608  0.5797
  882MOL0     C21645   9.769   2.435   1.070 -0.4436  0.0205  1.0558
  882MOL0     C21646   9.842   2.526   1.167 -0.7799 -0.1180  1.0054
  882MOL0     H21647   9.992   2.331   1.483 -2.3842  0.1113 -3.8649
  882MOL0     H21648  10.004   2.276   1.734  1.3900 -1.0169 -2.3345
  882MOL0     H21649   9.686   2.031   1.897 -2.3095  0.1989 -1.2119
  882MOL0     H21650   9.610   2.194   1.925 -0.6477 -0.2175  2.6606
  882MOL0     H21651   9.816   2.084   2.101  0.6559  1.4300  0.9940
  882MOL0     H21652   9.727   2.242   2.120  1.1516  1.2937 -0.1224
  882MOL0     H21653   9.577   2.098   2.251 -1.0327  3.1636 -0.4616
  882MOL0     H21654   9.523   2.046   2.090  1.3712  3.0254 -0.3338
  882MOL0     H21655   9.716   1.870   2.096 -1.9827 -0.8801  0.1226
  882MOL0     H21656   9.738   1.913   2.267 -0.3223  0.3401 -0.0889
  882MOL0     H21657   9.473   1.846   2.167  0.3854  0.5111 -0.9170
  882MOL0     H21658   9.537   1.839   2.336 -1.0895  0.9098 -0.0619
  882MOL0     H21659   9.614   1.658   2.103 -2.5028 -0.9521 -0.8311
  882MOL0     H21660   9.683   1.653   2.262 -0.9839 -0.6100  1.8222
  882MOL0     H21661   9.373   1.604   2.203  0.2012  0.8983 -0.0548
  882MOL0     H21662   9.450   1.584   2.353  0.5443  1.5545  0.5193
  882MOL0     H21663   9.507   1.355   2.296  1.6408  0.2182 -0.0328
  882MOL0     H21664   9.384   1.396   2.172 -1.4852  4.0249  0.4357
  882MOL0     H21665   9.750   1.277   2.225  2.0383 -2.7413 -0.6705
  882MOL0     H21666   9.912   1.164   2.035 -3.2046 -1.4658 -0.0443
  882MOL0     H21667   9.971   1.281   1.913  0.2366 -1.3479  1.1290
  882MOL0     H21668   9.731   1.104   1.873  0.1406 -0.1284  0.0007
  882MOL0     H21669   9.804   1.199   1.748  2.9268  0.8965 -0.5047
  882MOL0     H21670   9.948   0.968   1.886  0.7295 -0.6593  0.1158
  882MOL0     H21671   9.876   0.968   1.725  1.2285  0.1262 -0.6118
  882MOL0     H21672  10.009   1.144   1.635  1.3062  0.9037  0.4649
  882MOL0     H21673  10.098   1.154   1.792  0.9739 -0.1826 -0.9255
  882MOL0     H21674  10.312   0.814   1.744 -2.4357 -0.5363 -3.0081
  882MOL0     H21675  10.512   0.713   1.691  0.6626  0.2635 -2.0802
  882MOL0     H21676  10.657   0.788   1.771  1.0409  1.0136 -0.1973
  882MOL0     H21677  10.633   0.790   1.590  0.5209  0.8345  0.2223
  882MOL0     H21678  10.867   1.071   1.354 -0.5915  1.0354 -0.8225
  882MOL0     H21679  11.088   1.124   1.302 -0.4691 -1.0639 -0.1001
  882MOL0     H21680  11.305   1.179   1.336  2.9645  0.1795  1.3167
  882MOL0     H21681  11.270   1.294   1.203 -1.1831 -1.1893  0.2665
  882MOL0     H21682  11.445   1.423   1.245 -2.6115 -0.5864  0.5430
  882MOL0     H21683  11.442   1.402   1.420  0.6827 -1.5659  2.4228
  882MOL0     H21684  11.537   1.178   1.220 -0.3591  0.6783 -0.7378
  882MOL0     H21685  11.547   1.165   1.387  0.8858 -0.8150 -2.0003
  882MOL0     H21686  11.694   1.358   1.397 -0.4790  1.2214 -0.9037
  882MOL0     H21687  11.667   1.375   1.214 -0.0392 -1.0534 -1.3800
  882MOL0     H21688  11.758   1.100   1.283  1.4171  0.4240  2.1680
  882MOL0     H21689  11.784   1.200   1.143  2.1873 -0.4347  0.4183
  882MOL0     H21690  11.981   1.145   1.279 -1.7170 -0.9629 -1.3504
  882MOL0     H21691  11.936   1.252   1.405 -0.1731 -0.6159 -0.0619
  882MOL0     H21692  11.969   1.445   1.295  2.5000  0.1243  0.5653
  882MOL0     H21693  11.944   1.368   1.131  0.1341  0.1062 -0.1344
  882MOL0     H21694  12.165   1.437   1.189  2.1356  0.3874  2.0917
  882MOL0     H21695  12.156   1.255   1.172  2.0619  0.4899 -0.9518
  882MOL0     H21696  11.063   1.470   1.556 -0.4808 -1.1367  1.9480
  882MOL0     H21697  10.837   1.397   1.624  0.4533 -2.4541  0.9571
  882MOL0     H21698  10.470   1.248   1.561  2.2716  0.6952  0.2815
  882MOL0     H21699  10.243   1.205   1.590 -0.0921 -0.9298 -3.9380
  882MOL0     H21700   9.581   2.172   1.706 -2.3119  3.2574 -0.1512
  882MOL0     H21701   9.584   2.181   1.487 -0.9690 -1.6859  1.9651
  882MOL0     H21702   9.670   2.111   1.000 -0.7797  0.3239  0.1922
  882MOL0     H21703   9.638   2.216   0.787 -0.9649 -1.2585  1.7118
  882MOL0     H21704   9.760   2.323   0.595 -3.0992  0.3867  0.7299
  882MOL0     H21705   9.736   2.496   0.535 -1.6901  0.4431  1.2841
  882MOL0     H21706   9.983   2.422   0.588  1.9448  1.3598 -1.0981
  882MOL0     H21707   9.936   2.441   0.755 -1.2537  0.7488  1.1041
  882MOL0     H21708   9.920   2.643   0.519 -0.8197 -0.2525 -0.3480
  882MOL0     H21709   9.826   2.673   0.657  2.0112  1.2594  0.2584
  882MOL0     H21710  10.096   2.744   0.604 -0.1995 -1.2517 -1.6664
  882MOL0     H21711  10.114   2.611   0.722  3.3860  2.2048 -1.9328
  882MOL0     H21712   9.914   2.921   0.945  2.5172  1.3243  0.0868
  882MOL0     H21713   9.772   2.597   0.916  2.6843 -0.1009 -0.1333
  882MOL0     H21714   9.774   2.534   1.253 -1.3779  1.2110  0.4563
  882MOL0     H21715   9.940   2.484   1.189 -0.6465  0.0737  0.7905
  882MOL0     H21716   9.864   2.625   1.124 -1.6195  1.0563  3.1011
  883MOL0     O21717   5.243   0.710   5.070  0.6548  0.0350  0.2708
  883MOL0     C21718   5.155   0.771   5.003 -0.5988  0.4192  0.2152
  883MOL0     O21719   5.189   0.857   4.896  0.2654 -0.5469 -0.2861
  883MOL0     C21720   5.324   0.887   4.877 -0.3840  0.5709  1.1306
  883MOL0     C21721   5.410   0.788   4.839 -0.0603 -0.0233  0.2275
  883MOL0     C21722   5.548   0.814   4.819 -0.0149  0.2316 -0.4162
  883MOL0     C21723   5.594   0.939   4.853 -0.7911  0.1823  0.1345
  883MOL0     O21724   5.724   0.986   4.834  0.4120 -0.2828  0.4616
  883MOL0     C21725   5.809   0.900   4.767 -0.2896 -0.3719  0.0879
  883MOL0     C21726   5.929   0.988   4.726 -0.0988 -0.0473 -0.2154
  883MOL0     C21727   6.010   0.913   4.619  0.2857  0.1784 -0.1490
  883MOL0     C21728   6.109   0.997   4.550 -0.6317 -0.0402  0.9842
  883MOL0     C21729   6.194   0.916   4.451 -0.0143  0.7257 -0.2595
  883MOL0     C21730   6.275   1.004   4.363  0.0434 -0.2348 -0.2854
  883MOL0     C21731   6.343   0.927   4.253  0.1803  0.4479  0.7204
  883MOL0     C21732   6.496   0.915   4.265 -1.5222 -0.0319 -0.6651
  883MOL0     N21733   6.563   1.037   4.246 -0.8364  0.5287 -0.4725
  883MOL0     C21734   6.556   1.110   4.133  0.1859 -0.2936 -0.9484
  883MOL0     C21735   6.611   1.229   4.165 -0.8121 -0.6561  0.1294
  883MOL0     C21736   6.628   1.349   4.068 -0.3971  0.5096  0.5028
  883MOL0     C21737   6.720   1.323   3.957  0.1173 -0.0997 -0.3629
  883MOL0     C21738   6.756   1.449   3.874 -0.7396 -0.3827  0.0767
  883MOL0     C21739   6.850   1.423   3.758 -0.0080  0.0875  0.2347
  883MOL0     O21740   6.986   1.399   3.805 -0.1005  0.1627  0.2539
  883MOL0     C21741   7.051   1.491   3.887  0.9165 -0.3899  0.0446
  883MOL0     C21742   7.049   1.635   3.872 -0.1042  0.2672  0.5329
  883MOL0     C21743   7.136   1.714   3.953 -0.6899 -0.0863 -0.5435
  883MOL0     C21744   7.124   1.863   3.937 -0.3332  0.2695  0.3945
  883MOL0     C21745   7.222   1.651   4.052  0.1149 -0.0072  0.6179
  883MOL0     C21746   7.323   1.728   4.132 -0.5532 -1.1796 -0.1193
  883MOL0     O21747   7.423   1.654   4.187 -0.9134  0.1378 -0.3822
  883MOL0     C21748   7.514   1.704   4.279  0.6834  1.3624  0.3790
  883MOL0     C21749   7.644   1.657   4.274 -0.8674 -0.7865 -0.1858
  883MOL0     C21750   7.740   1.703   4.367  0.1547  0.1554 -0.4763
  883MOL0     C21751   7.686   1.771   4.474 -0.2039  0.0664 -0.4746
  883MOL0     O21752   7.767   1.798   4.578 -0.4959  0.2950 -0.4618
  883MOL0     C21753   7.715   1.733   4.698  0.0918  0.4091 -0.3671
  883MOL0     C21754   7.829   1.718   4.801 -0.4345  0.6874 -0.0234
  883MOL0     C21755   7.946   1.622   4.743 -0.1221  0.1348  0.7691
  883MOL0     C21756   8.060   1.699   4.671  0.0437  1.5175 -0.0138
  883MOL0     C21757   8.102   1.611   4.545  0.0333  0.2775 -0.5861
  883MOL0     C21758   8.167   1.473   4.594  0.3006 -0.5273 -0.5725
  883MOL0     C21759   8.180   1.368   4.486  0.3964  0.4709 -0.1010
  883MOL0     C21760   8.275   1.260   4.540 -0.0529 -0.4315  0.3695
  883MOL0    Cl21761   8.197   1.150   4.647 -0.0671  0.1766 -0.3387
  883MOL0     C21762   7.557   1.824   4.478  0.1792 -0.4694  0.8939
  883MOL0     C21763   7.470   1.785   4.383  0.0702  0.2579 -0.1830
  883MOL0     O21764   7.304   1.847   4.154 -0.5151 -0.0375 -0.9595
  883MOL0     C21765   7.223   1.503   4.056  0.3642 -0.2436 -0.7033
  883MOL0     C21766   7.141   1.432   3.974 -0.2284  0.6539 -0.0379
  883MOL0     N21767   6.654   1.228   4.294  0.1749  0.4580  0.1341
  883MOL0     N21768   6.617   1.115   4.345 -0.2972  0.3480  0.0674
  883MOL0     C21769   5.506   1.043   4.865  0.1225  0.3838 -0.1127
  883MOL0     C21770   5.370   1.014   4.895  0.0425 -0.4865 -0.9007
  883MOL0     C21771   5.019   0.744   5.047  0.0317 -1.3379 -0.6971
  883MOL0     C21772   4.998   0.628   5.123 -0.7550  1.0122 -0.1516
  883MOL0     C21773   4.877   0.593   5.166 -0.6479 -0.5232 -0.0293
  883MOL0     C21774   4.779   0.688   5.170  0.2278  0.1849 -0.7108
  883MOL0     O21775   4.653   0.669   5.231  0.4515 -0.2138 -0.3198
  883MOL0     C21776   4.603   0.540   5.262  0.3772  0.1095 -0.6638
  883MOL0     C21777   4.446   0.541   5.287  0.0710  0.1887 -0.8056
  883MOL0     C21778   4.380   0.655   5.209 -0.4186  0.4256 -0.5356
  883MOL0     C21779   4.229   0.633   5.196 -1.1324  0.7157 -0.2164
  883MOL0     C21780   4.162   0.745   5.131  0.0176  0.7544  0.1269
  883MOL0     C21781   4.108   0.845   5.082 -0.6268 -0.2013  0.1363
  883MOL0     C21782   4.797   0.810   5.107 -0.0385 -0.2093 -0.6053
  883MOL0     C21783   4.919   0.833   5.041  0.2302  0.2855 -0.7398
  883MOL0     C21784   4.920   0.950   4.951 -0.8463  0.1470  0.4701
  883MOL0     H21785   5.366   0.690   4.822  1.0070 -0.6010  0.7064
  883MOL0     H21786   5.612   0.732   4.789 -2.0593 -1.0501 -1.4983
  883MOL0     H21787   5.774   0.859   4.672  2.0844 -0.0538 -0.9893
  883MOL0     H21788   5.839   0.821   4.836  2.2706  1.2384  0.9645
  883MOL0     H21789   5.898   1.077   4.671 -3.5042 -0.0305  1.4452
  883MOL0     H21790   5.990   1.004   4.815 -1.6525 -2.0526  1.3315
  883MOL0     H21791   6.061   0.829   4.666  0.5594  0.9005  0.8780
  883MOL0     H21792   5.938   0.876   4.545  0.6304 -0.7816 -0.0139
  883MOL0     H21793   6.055   1.076   4.497 -0.1053 -0.7957 -0.7555
  883MOL0     H21794   6.178   1.030   4.628 -0.0970 -0.2593  0.6090
  883MOL0     H21795   6.143   0.843   4.389  0.8537  1.5189 -1.9626
  883MOL0     H21796   6.245   0.847   4.519 -1.0603  1.9865  1.9095
  883MOL0     H21797   6.217   1.078   4.307  0.2026  1.2534  1.4217
  883MOL0     H21798   6.337   1.074   4.420  1.1694 -0.1644 -1.5275
  883MOL0     H21799   6.332   0.982   4.159  0.2797 -2.5939 -1.1716
  883MOL0     H21800   6.305   0.827   4.231 -2.7861  1.6657 -0.1269
  883MOL0     H21801   6.513   0.876   4.365  2.7206 -0.8390 -1.5075
  883MOL0     H21802   6.533   0.836   4.198 -2.2547 -2.1280  1.2677
  883MOL0     H21803   6.524   1.076   4.035  1.8055 -0.3089 -1.5114
  883MOL0     H21804   6.673   1.432   4.123  1.0462  0.5618 -0.6890
  883MOL0     H21805   6.529   1.384   4.040 -0.8712 -0.6717  0.6407
  883MOL0     H21806   6.807   1.274   4.000  1.4721  0.7213 -2.0719
  883MOL0     H21807   6.675   1.250   3.889 -1.2962 -0.4906  0.9086
  883MOL0     H21808   6.665   1.480   3.823 -0.6858  1.5851  1.1058
  883MOL0     H21809   6.793   1.526   3.942  0.7946 -2.6560  1.9952
  883MOL0     H21810   6.819   1.331   3.709  1.4056 -0.0924 -0.3650
  883MOL0     H21811   6.844   1.509   3.690 -0.5989 -0.6952 -0.7267
  883MOL0     H21812   6.980   1.691   3.809  1.5331  0.3474 -1.2944
  883MOL0     H21813   7.082   1.882   3.839 -0.6200 -1.3069  0.1798
  883MOL0     H21814   7.223   1.909   3.931 -1.1224  2.2231  1.5266
  883MOL0     H21815   7.067   1.906   4.020  0.3096  2.1741 -0.0891
  883MOL0     H21816   7.689   1.591   4.201  0.2041 -0.9664  0.6125
  883MOL0     H21817   7.844   1.670   4.365  0.8377  2.1667 -0.2817
  883MOL0     H21818   7.642   1.801   4.743 -2.1069 -1.3569 -1.0822
  883MOL0     H21819   7.675   1.638   4.662 -1.2674  0.8331 -0.0650
  883MOL0     H21820   7.876   1.815   4.823 -1.4263  1.6151 -1.7517
  883MOL0     H21821   7.781   1.679   4.891 -3.1080  3.2084 -0.2136
  883MOL0     H21822   7.894   1.557   4.672  1.6664  0.5832 -1.0491
  883MOL0     H21823   7.997   1.559   4.817 -0.2322 -2.5907 -1.3299
  883MOL0     H21824   8.144   1.712   4.739 -0.5095  1.9340  0.6019
  883MOL0     H21825   8.023   1.798   4.640 -2.2493  0.2658 -1.6280
  883MOL0     H21826   8.021   1.582   4.478  0.7854  0.0217 -1.4043
  883MOL0     H21827   8.175   1.672   4.491  0.0190  0.8114 -0.0227
  883MOL0     H21828   8.108   1.426   4.673 -0.6547 -3.1446 -2.6964
  883MOL0     H21829   8.263   1.497   4.641  1.4879 -0.7631 -2.7646
  883MOL0     H21830   8.205   1.403   4.385  0.6856  0.8620  0.1037
  883MOL0     H21831   8.080   1.326   4.467  0.5718 -1.1033  2.1447
  883MOL0     H21832   8.358   1.309   4.591 -1.2160  1.6536  0.3728
  883MOL0     H21833   8.315   1.209   4.451 -0.0158 -0.8904  0.6421
  883MOL0     H21834   7.522   1.894   4.553 -3.0060  0.2106 -1.0302
  883MOL0     H21835   7.367   1.819   4.393 -1.1095 -3.1360  0.7400
  883MOL0     H21836   7.285   1.444   4.122 -2.1378 -1.3814  0.7606
  883MOL0     H21837   7.150   1.324   3.984  0.9198  0.8548  1.4187
  883MOL0     H21838   5.545   1.144   4.879  1.3562 -0.1976  0.9104
  883MOL0     H21839   5.302   1.089   4.931 -0.5050 -2.1470  1.7872
  883MOL0     H21840   5.073   0.549   5.130  1.2975  2.9316  1.1083
  883MOL0     H21841   4.854   0.492   5.198 -0.9178 -1.1128 -1.9666
  883MOL0     H21842   4.633   0.462   5.191 -1.9229 -0.8597 -0.6819
  883MOL0     H21843   4.654   0.500   5.349  2.5322 -0.5463 -2.1412
  883MOL0     H21844   4.428   0.560   5.393 -0.8105  2.0631 -1.2539
  883MOL0     H21845   4.408   0.443   5.256  1.2145  0.4308 -3.1403
  883MOL0     H21846   4.397   0.746   5.266 -1.3059  1.6433 -2.1280
  883MOL0     H21847   4.423   0.670   5.110  0.0684  2.1828 -0.0848
  883MOL0     H21848   4.191   0.626   5.298 -1.7512  0.7247 -0.4400
  883MOL0     H21849   4.203   0.548   5.132 -0.9560  1.2669 -1.0472
  883MOL0     H21850   4.094   0.940   5.034  0.5397 -1.3226 -2.6667
  883MOL0     H21851   4.710   0.875   5.101 -0.3510 -0.5783 -0.1454
  883MOL0     H21852   4.956   0.928   4.850  0.0023 -1.2808  1.0645
  883MOL0     H21853   4.816   0.986   4.945 -1.7507 -2.4054 -0.2922
  883MOL0     H21854   4.983   1.027   4.996 -0.7891 -0.8754  2.1968
  884MOL0     O21855   6.271   1.936  10.789  0.1900 -0.1125  0.8339
  884MOL0     C21856   6.286   2.041  10.852  0.1041  0.6423  0.0164
  884MOL0     O21857   6.188   2.119  10.902  0.1825 -0.0103 -0.0009
  884MOL0     C21858   6.057   2.092  10.873  0.8204 -0.4170 -0.6045
  884MOL0     C21859   5.965   2.195  10.899 -0.4949  0.5546 -0.2905
  884MOL0     C21860   5.830   2.185  10.890  0.1145 -0.1248  0.0015
  884MOL0     C21861   5.769   2.064  10.841 -0.8247 -0.5573 -0.3521
  884MOL0     O21862   5.630   2.051  10.831 -0.2359  0.2473 -0.2616
  884MOL0     C21863   5.571   1.948  10.738 -0.5598 -0.2229  0.1763
  884MOL0     C21864   5.415   1.963  10.729  0.2578 -0.1895 -0.2199
  884MOL0     C21865   5.366   2.096  10.682 -0.3458  0.2864  0.1458
  884MOL0     C21866   5.217   2.094  10.705 -0.4421 -0.8664 -0.3110
  884MOL0     C21867   5.183   2.190  10.820  0.4334  0.2962 -0.2965
  884MOL0     C21868   5.254   2.133  10.946 -0.6041  0.2073 -0.6831
  884MOL0     C21869   5.221   2.221  11.069  0.5374  0.1039  0.6381
  884MOL0     C21870   5.299   2.356  11.066  0.2482 -0.1514  0.1093
  884MOL0     N21871   5.441   2.349  11.118  0.6613 -0.8922 -1.0006
  884MOL0     C21872   5.506   2.261  11.202 -0.0354  0.0715  0.1742
  884MOL0     C21873   5.634   2.310  11.209 -0.5704  0.1555  0.0394
  884MOL0     C21874   5.749   2.242  11.281  0.0931 -0.5469  0.7301
  884MOL0     C21875   5.764   2.094  11.246  0.1700  0.3016 -0.0687
  884MOL0     C21876   5.891   2.040  11.307 -0.0100  0.1151  0.0457
  884MOL0     C21877   5.885   1.902  11.376 -0.4022 -0.3745 -0.1231
  884MOL0     O21878   6.002   1.890  11.457  0.6208  0.1986  0.1148
  884MOL0     C21879   6.128   1.868  11.402 -0.5960  0.8451 -0.0756
  884MOL0     C21880   6.150   1.812  11.279  0.4640  0.2246 -0.0000
  884MOL0     C21881   6.274   1.787  11.235 -0.3430 -1.0133  0.2768
  884MOL0     C21882   6.281   1.706  11.102 -0.4786  0.2091 -0.3524
  884MOL0     C21883   6.387   1.829  11.317 -0.1521  0.6365  1.2058
  884MOL0     C21884   6.532   1.798  11.279  0.0783 -1.1921  0.0337
  884MOL0     O21885   6.624   1.775  11.391  0.1660 -0.3121  0.0188
  884MOL0     C21886   6.741   1.833  11.388  0.0233  0.4620 -0.2080
  884MOL0     C21887   6.826   1.805  11.505  0.4466  0.8406  0.8811
  884MOL0     C21888   6.945   1.870  11.531  0.5027  0.0359 -0.2458
  884MOL0     C21889   7.002   1.956  11.441  0.0279 -0.9551  1.1087
  884MOL0     O21890   7.130   1.999  11.485  0.9166 -0.1103 -0.7141
  884MOL0     C21891   7.209   2.096  11.406  1.1654  1.3770 -0.2509
  884MOL0     C21892   7.350   2.093  11.452 -0.3946  0.4260 -0.4013
  884MOL0     C21893   7.442   2.198  11.383  0.1286  0.2426  0.0420
  884MOL0     C21894   7.587   2.182  11.426 -0.3689 -1.0677  0.3721
  884MOL0     C21895   7.690   2.245  11.331  0.3638 -0.6080 -0.4533
  884MOL0     C21896   7.834   2.236  11.403 -0.2140  0.0822  1.1523
  884MOL0     C21897   7.934   2.330  11.340  0.4876  0.5658  0.3330
  884MOL0     C21898   8.064   2.322  11.419 -0.0963 -0.4531  0.3291
  884MOL0    Cl21899   8.180   2.418  11.319 -0.2442 -0.3092 -0.1727
  884MOL0     C21900   6.928   1.987  11.326 -0.5216 -0.7104  0.3124
  884MOL0     C21901   6.795   1.934  11.306 -0.8126 -0.5308  0.5401
  884MOL0     O21902   6.558   1.794  11.155 -0.7306  0.2222 -0.2830
  884MOL0     C21903   6.362   1.891  11.442 -0.2366  0.0786 -0.2791
  884MOL0     C21904   6.234   1.913  11.485  0.1089 -1.2614  0.1430
  884MOL0     N21905   5.645   2.426  11.132 -0.4326  0.2920  0.2517
  884MOL0     N21906   5.528   2.445  11.075 -0.1169  0.8362  0.1637
  884MOL0     C21907   5.857   1.957  10.815  0.4502  0.4073 -0.8411
  884MOL0     C21908   5.996   1.967  10.855 -0.0145 -0.6318  0.5901
  884MOL0     C21909   6.427   2.098  10.846 -0.6238  0.7818 -0.0753
  884MOL0     C21910   6.530   2.012  10.858  0.1925  1.0157  0.6879
  884MOL0     C21911   6.654   2.051  10.835 -1.6188  0.0501 -0.8298
  884MOL0     C21912   6.689   2.179  10.794 -0.3015  0.4951 -0.6604
  884MOL0     O21913   6.820   2.208  10.761  0.1104  0.2980  0.0835
  884MOL0     C21914   6.864   2.332  10.811  0.5167  0.0361  0.1992
  884MOL0     C21915   7.022   2.320  10.809  0.3907 -0.0318  0.6191
  884MOL0     C21916   7.084   2.461  10.815 -0.8462 -0.4668 -0.1277
  884MOL0     C21917   7.237   2.456  10.817  0.7218 -0.0268  0.2667
  884MOL0     C21918   7.298   2.379  10.703  0.3850 -0.4936 -0.2073
  884MOL0     C21919   7.344   2.313  10.611 -0.8891  0.5453  0.6630
  884MOL0     C21920   6.586   2.275  10.790 -0.0801  0.1134  0.8465
  884MOL0     C21921   6.455   2.230  10.814 -0.8115 -0.2860 -1.1100
  884MOL0     C21922   6.353   2.339  10.796 -0.6935  0.1284 -0.4933
  884MOL0     H21923   6.018   2.285  10.929 -0.5489  0.0772  1.3403
  884MOL0     H21924   5.758   2.262  10.919 -0.1332 -0.0442 -0.8103
  884MOL0     H21925   5.601   1.854  10.784  3.0318  0.6143 -0.1388
  884MOL0     H21926   5.604   1.968  10.635 -1.2904  3.8618  0.5534
  884MOL0     H21927   5.383   1.886  10.658  2.8826 -0.9621 -0.6614
  884MOL0     H21928   5.368   1.922  10.819 -0.7060 -0.5674 -0.8812
  884MOL0     H21929   5.416   2.180  10.731  0.7506  0.1018 -0.5996
  884MOL0     H21930   5.388   2.095  10.575 -2.7598  0.0477 -0.3884
  884MOL0     H21931   5.172   2.126  10.610  2.2955  1.4460 -0.9678
  884MOL0     H21932   5.175   1.994  10.719  1.7964 -1.9227 -0.7416
  884MOL0     H21933   5.075   2.207  10.830  0.5262  0.6336  0.1967
  884MOL0     H21934   5.227   2.287  10.797  3.2549 -0.7001  0.4784
  884MOL0     H21935   5.224   2.029  10.965  1.2329 -0.4553 -1.2612
  884MOL0     H21936   5.361   2.141  10.930 -1.0080  1.8053 -2.9795
  884MOL0     H21937   5.241   2.161  11.158 -1.4779 -2.5524 -0.5731
  884MOL0     H21938   5.115   2.245  11.068  0.2414 -1.1543  0.0640
  884MOL0     H21939   5.302   2.398  10.965 -0.3326 -1.7328 -0.5969
  884MOL0     H21940   5.244   2.425  11.130 -1.3438  0.3786 -1.7376
  884MOL0     H21941   5.469   2.168  11.243  2.8295 -0.9165  0.7221
  884MOL0     H21942   5.725   2.241  11.388 -0.3809 -2.2446  0.6473
  884MOL0     H21943   5.838   2.298  11.251 -1.0738  0.1361 -1.7120
  884MOL0     H21944   5.681   2.038  11.290  0.4349 -2.9756 -3.3025
  884MOL0     H21945   5.741   2.072  11.141 -3.7405  2.0018  0.2342
  884MOL0     H21946   5.958   2.035  11.221 -1.4717 -1.4057 -1.0772
  884MOL0     H21947   5.933   2.110  11.379  1.1226 -1.5982  1.1388
  884MOL0     H21948   5.800   1.894  11.444  0.7026 -2.5493  1.1132
  884MOL0     H21949   5.877   1.827  11.297  1.2680  0.8403 -1.5243
  884MOL0     H21950   6.065   1.788  11.217  0.4610 -1.1746  0.5208
  884MOL0     H21951   6.208   1.627  11.083  1.8704 -1.4134 -3.6088
  884MOL0     H21952   6.378   1.656  11.102  0.2515  1.4688 -2.6019
  884MOL0     H21953   6.276   1.774  11.016 -2.5844 -0.2239 -0.6239
  884MOL0     H21954   6.771   1.740  11.572 -1.5470 -0.7473 -2.0541
  884MOL0     H21955   6.995   1.843  11.624 -2.2720  2.0686  2.0349
  884MOL0     H21956   7.201   2.078  11.298 -1.1476  0.3953  0.0342
  884MOL0     H21957   7.168   2.193  11.436 -3.7245 -1.3034  3.0226
  884MOL0     H21958   7.357   2.117  11.558  0.9000 -2.4338  0.2624
  884MOL0     H21959   7.395   1.994  11.440  1.2155  0.9688  0.8098
  884MOL0     H21960   7.405   2.297  11.412  0.1095  0.5150 -0.8645
  884MOL0     H21961   7.430   2.187  11.275  1.0790  0.4687 -0.0905
  884MOL0     H21962   7.611   2.075  11.421  0.7896 -0.7704 -0.9638
  884MOL0     H21963   7.596   2.216  11.530 -0.5658  1.1173 -0.2734
  884MOL0     H21964   7.695   2.196  11.233  2.5024 -0.8094 -0.2768
  884MOL0     H21965   7.658   2.349  11.328  0.2236 -0.4507  2.7149
  884MOL0     H21966   7.864   2.133  11.380 -1.7898  0.2303 -2.1752
  884MOL0     H21967   7.838   2.262  11.509  0.9830  1.4434  0.8026
  884MOL0     H21968   7.897   2.432  11.331  1.9656  1.2366  1.4450
  884MOL0     H21969   7.944   2.303  11.234  0.1612  3.1524 -0.4312
  884MOL0     H21970   8.095   2.217  11.423  0.9176 -0.1439  1.1042
  884MOL0     H21971   8.050   2.373  11.514 -2.4146  4.3565 -2.2004
  884MOL0     H21972   6.963   2.043  11.240 -0.5091 -1.3079 -0.0706
  884MOL0     H21973   6.746   1.990  11.226 -1.1977  2.5153  2.7305
  884MOL0     H21974   6.452   1.919  11.495  1.1760 -1.4509 -1.7564
  884MOL0     H21975   6.210   1.957  11.581  1.4120  3.3024 -1.3978
  884MOL0     H21976   5.808   1.862  10.796  0.0743  0.5186 -0.4562
  884MOL0     H21977   6.061   1.881  10.851  0.6180 -0.1316 -0.1760
  884MOL0     H21978   6.518   1.906  10.881  1.3661  0.5485 -0.6672
  884MOL0     H21979   6.731   1.975  10.838  2.1419  3.5680  0.7019
  884MOL0     H21980   6.834   2.406  10.737 -0.0461 -0.8661 -0.4854
  884MOL0     H21981   6.826   2.353  10.911  1.2321 -0.0442  0.4982
  884MOL0     H21982   7.042   2.280  10.710  0.2055 -2.0700  1.3479
  884MOL0     H21983   7.065   2.253  10.885 -0.5981  0.0614  1.2870
  884MOL0     H21984   7.046   2.511  10.725 -1.4394 -1.4885 -0.4692
  884MOL0     H21985   7.048   2.522  10.898  1.4831  1.1165 -0.1729
  884MOL0     H21986   7.267   2.405  10.909  1.4574  1.0008  0.6058
  884MOL0     H21987   7.283   2.555  10.812 -0.2668  0.3926 -1.5168
  884MOL0     H21988   7.398   2.269  10.530  3.1255 -1.5822  4.0485
  884MOL0     H21989   6.618   2.379  10.779  0.8393 -0.2134  0.2650
  884MOL0     H21990   6.276   2.304  10.726 -0.1854 -2.4165  0.1230
  884MOL0     H21991   6.306   2.358  10.893  2.9259 -0.0359  1.4779
  884MOL0     H21992   6.388   2.436  10.761 -1.3177  0.3391 -0.5554
  885MOL0     O21993   8.445   6.772   3.783  0.3557  0.2234 -0.1673
  885MOL0     C21994   8.490   6.799   3.673  0.4702 -0.3459  0.1235
  885MOL0     O21995   8.579   6.902   3.643 -0.4985  0.1438  0.1290
  885MOL0     C21996   8.649   6.960   3.751  0.2805  0.7944 -0.2501
  885MOL0     C21997   8.578   7.008   3.864  0.1949  0.1161  0.1956
  885MOL0     C21998   8.647   7.054   3.980 -0.2414  1.4086  0.2726
  885MOL0     C21999   8.782   7.064   3.978  0.0038  0.8347 -0.4168
  885MOL0     O22000   8.853   7.103   4.083 -0.9213 -0.2316  0.5834
  885MOL0     C22001   8.785   7.094   4.207  0.2648 -0.1810 -0.4216
  885MOL0     C22002   8.894   7.110   4.323 -0.0154 -0.6163 -0.3257
  885MOL0     C22003   8.984   7.233   4.321  0.0489  0.1545 -0.0808
  885MOL0     C22004   8.914   7.362   4.376  0.1089  0.4465 -0.9264
  885MOL0     C22005   9.002   7.481   4.369 -0.8699  0.7780 -0.3818
  885MOL0     C22006   9.127   7.477   4.472  0.0348 -0.4093  0.5042
  885MOL0     C22007   9.202   7.610   4.477 -1.2895 -0.2440  0.4123
  885MOL0     C22008   9.244   7.665   4.614  0.7996 -0.2475 -0.1882
  885MOL0     N22009   9.326   7.784   4.595  0.2347 -0.7329 -0.0857
  885MOL0     C22010   9.431   7.791   4.500 -0.1843 -0.7991 -0.7075
  885MOL0     C22011   9.480   7.922   4.523  0.6081  0.4777  0.4515
  885MOL0     C22012   9.602   7.981   4.461  1.0746 -0.7055  0.1446
  885MOL0     C22013   9.585   8.132   4.456 -0.6802  0.4347 -0.6010
  885MOL0     C22014   9.648   8.186   4.323 -0.5245  0.8601 -0.1760
  885MOL0     C22015   9.560   8.157   4.205  0.8249 -0.2413  0.5003
  885MOL0     O22016   9.624   8.228   4.095  0.5013 -0.4260  0.5195
  885MOL0     C22017   9.560   8.230   3.968 -0.1701  0.2889 -0.2603
  885MOL0     C22018   9.441   8.182   3.924  0.2289 -0.0501 -0.5211
  885MOL0     C22019   9.399   8.188   3.792  0.4269  0.2461  0.1588
  885MOL0     C22020   9.285   8.102   3.754 -1.3334  0.3213 -0.0096
  885MOL0     C22021   9.476   8.259   3.700  0.0787  0.4941  0.0244
  885MOL0     C22022   9.434   8.289   3.562 -0.1571  0.0115  0.3130
  885MOL0     O22023   9.513   8.382   3.492  0.2058 -0.3810 -0.7087
  885MOL0     C22024   9.487   8.407   3.362 -0.2328  0.2111  1.4462
  885MOL0     C22025   9.541   8.527   3.315  0.0083  0.1073  0.4265
  885MOL0     C22026   9.525   8.566   3.182 -0.4858  0.6479 -0.1315
  885MOL0     C22027   9.434   8.494   3.095 -0.1610 -0.1244 -0.2069
  885MOL0     O22028   9.393   8.540   2.970 -0.4068  0.3755 -0.0262
  885MOL0     C22029   9.287   8.638   2.989  0.1365 -0.1497  0.1291
  885MOL0     C22030   9.337   8.777   2.939 -0.0776  1.3604  0.3296
  885MOL0     C22031   9.432   8.767   2.822 -0.5248  0.1605 -0.1830
  885MOL0     C22032   9.483   8.902   2.765  0.7672 -0.6576 -0.3522
  885MOL0     C22033   9.533   8.902   2.622 -0.8865  0.4367 -0.1612
  885MOL0     C22034   9.605   9.038   2.589 -0.1136  1.0580  0.1140
  885MOL0     C22035   9.623   9.056   2.437 -0.1000  0.9136  0.4032
  885MOL0     C22036   9.765   9.121   2.399  0.2082 -0.0964 -0.6310
  885MOL0    Cl22037   9.780   9.153   2.226 -0.1560 -0.2421 -0.5171
  885MOL0     C22038   9.387   8.378   3.138 -0.1918  0.4254  0.3052
  885MOL0     C22039   9.409   8.330   3.267 -0.4549 -0.8605  0.1188
  885MOL0     O22040   9.323   8.257   3.531  0.3347 -0.3616 -0.0216
  885MOL0     C22041   9.598   8.308   3.739 -0.2687 -0.1760  0.1006
  885MOL0     C22042   9.637   8.299   3.875 -0.0016  0.2361  0.7325
  885MOL0     N22043   9.397   7.983   4.624  0.4633 -0.1367  0.0972
  885MOL0     N22044   9.312   7.894   4.668 -0.1910  0.1984  0.0557
  885MOL0     C22045   8.847   7.040   3.862  0.2417 -0.2362 -1.3977
  885MOL0     C22046   8.789   6.987   3.749 -0.1857  0.9425  0.0747
  885MOL0     C22047   8.430   6.731   3.560 -1.6904  0.7310  0.1275
  885MOL0     C22048   8.428   6.786   3.432 -0.4106  0.4845  0.3255
  885MOL0     C22049   8.363   6.728   3.326 -0.1160  1.0453 -0.2626
  885MOL0     C22050   8.303   6.601   3.345 -0.2244 -0.1598  0.0817
  885MOL0     O22051   8.230   6.549   3.246  0.1404 -0.1326  0.1850
  885MOL0     C22052   8.123   6.622   3.185 -0.0810  0.2476 -0.0816
  885MOL0     C22053   8.024   6.512   3.163 -0.6457 -0.1137 -1.0879
  885MOL0     C22054   7.913   6.533   3.059 -0.3961 -0.0424  0.0324
  885MOL0     C22055   7.837   6.662   3.090 -0.5064  0.4317  1.2705
  885MOL0     C22056   7.717   6.674   3.008 -0.5496 -0.5251  0.5258
  885MOL0     C22057   7.616   6.675   2.936 -0.3574  0.3419 -0.8096
  885MOL0     C22058   8.308   6.535   3.464  0.2503  0.0430 -1.0056
  885MOL0     C22059   8.373   6.595   3.580  0.3225 -0.0420  0.3116
  885MOL0     C22060   8.389   6.502   3.703  0.0480 -0.4522  0.5021
  885MOL0     H22061   8.471   7.021   3.855  0.1391 -0.5626 -0.1776
  885MOL0     H22062   8.583   7.068   4.067  1.5809 -2.4924  2.4901
  885MOL0     H22063   8.743   6.994   4.220  3.7525 -1.6310  0.9345
  885MOL0     H22064   8.714   7.175   4.221  1.4911  1.1606 -1.6205
  885MOL0     H22065   8.832   7.113   4.413 -0.1553  2.0808 -0.4297
  885MOL0     H22066   8.960   7.025   4.341 -1.0990 -1.3150  0.4407
  885MOL0     H22067   9.074   7.209   4.378 -1.8329 -2.7078  1.9383
  885MOL0     H22068   9.016   7.246   4.218  1.2102 -0.4229  0.1936
  885MOL0     H22069   8.825   7.374   4.314  1.7134  0.1175 -3.4503
  885MOL0     H22070   8.878   7.348   4.478  0.6143 -0.4095 -0.8543
  885MOL0     H22071   8.941   7.570   4.391 -0.4851  0.6976  1.1053
  885MOL0     H22072   9.029   7.491   4.263 -1.6028  0.5024 -0.6039
  885MOL0     H22073   9.092   7.436   4.567  3.0629 -5.0091 -0.0339
  885MOL0     H22074   9.205   7.406   4.443  1.5518 -0.6289  4.4822
  885MOL0     H22075   9.142   7.692   4.436  0.1415  0.0842 -1.1100
  885MOL0     H22076   9.277   7.605   4.398 -1.7191  1.5661 -0.1567
  885MOL0     H22077   9.149   7.686   4.665  0.6316 -0.5389 -0.3802
  885MOL0     H22078   9.305   7.593   4.669  1.7659  1.9099  1.7763
  885MOL0     H22079   9.478   7.716   4.437 -0.8733  0.2321 -2.5194
  885MOL0     H22080   9.606   7.929   4.365 -0.4199 -3.0871  1.2678
  885MOL0     H22081   9.695   7.963   4.517 -0.3035 -0.3018  2.7487
  885MOL0     H22082   9.480   8.162   4.448 -1.1500  0.3120  3.1666
  885MOL0     H22083   9.612   8.183   4.548 -0.4878  0.8668 -0.8962
  885MOL0     H22084   9.660   8.294   4.334 -2.9831  0.9558  2.4997
  885MOL0     H22085   9.748   8.141   4.315  0.7703  3.4941 -0.0995
  885MOL0     H22086   9.559   8.052   4.177 -2.7877 -0.4487  0.9390
  885MOL0     H22087   9.458   8.192   4.224  1.2620  1.2492  0.3009
  885MOL0     H22088   9.376   8.127   3.992 -1.3900  1.8224 -0.4467
  885MOL0     H22089   9.317   8.019   3.690 -3.8960 -1.7906  1.2585
  885MOL0     H22090   9.202   8.162   3.716 -0.3982  0.9407 -1.1492
  885MOL0     H22091   9.242   8.053   3.842  2.6772  1.1524  2.6655
  885MOL0     H22092   9.604   8.583   3.384  1.7944 -1.5269  0.2014
  885MOL0     H22093   9.571   8.657   3.146  0.2817  0.2896 -0.0693
  885MOL0     H22094   9.209   8.608   2.919  0.9696 -2.1293 -0.0227
  885MOL0     H22095   9.251   8.646   3.092 -0.2975  1.3225 -0.1129
  885MOL0     H22096   9.244   8.820   2.903 -0.3932 -0.8120 -1.7239
  885MOL0     H22097   9.389   8.836   3.015 -0.0221 -0.7864  2.0859
  885MOL0     H22098   9.393   8.709   2.738 -2.7938  3.2968 -1.4540
  885MOL0     H22099   9.525   8.724   2.861  0.0839  0.7448 -0.9652
  885MOL0     H22100   9.570   8.940   2.819  0.3804 -0.2021 -0.0394
  885MOL0     H22101   9.406   8.978   2.781  0.2796 -0.3899 -3.4593
  885MOL0     H22102   9.600   8.817   2.603 -4.2637 -2.8228  1.1325
  885MOL0     H22103   9.446   8.885   2.557 -1.4813  3.0896 -0.1502
  885MOL0     H22104   9.704   9.031   2.635  0.0858 -0.1300 -0.4548
  885MOL0     H22105   9.544   9.117   2.634  1.7378  0.3836  4.2672
  885MOL0     H22106   9.542   9.116   2.394 -0.9475  0.2871  1.1013
  885MOL0     H22107   9.615   8.959   2.388  2.6410 -0.4656  2.4458
  885MOL0     H22108   9.844   9.050   2.423  0.5668  0.1875 -0.9400
  885MOL0     H22109   9.782   9.217   2.448  1.2221 -1.8458  2.6840
  885MOL0     H22110   9.318   8.327   3.071  0.0815  0.0927  0.2731
  885MOL0     H22111   9.371   8.234   3.299  1.0539 -0.9920  1.6776
  885MOL0     H22112   9.668   8.357   3.672 -2.8847  3.9111  0.0413
  885MOL0     H22113   9.740   8.320   3.901  0.5006  0.7691 -1.5163
  885MOL0     H22114   8.955   7.051   3.862  0.0189  2.7725 -0.7489
  885MOL0     H22115   8.850   6.956   3.665  0.6513  2.3875  0.1150
  885MOL0     H22116   8.481   6.880   3.415  0.5944 -0.3925 -1.7723
  885MOL0     H22117   8.352   6.771   3.227  1.5507 -0.6704 -1.2584
  885MOL0     H22118   8.090   6.695   3.259 -0.2987 -0.8227  0.8909
  885MOL0     H22119   8.156   6.668   3.091  0.2401  0.7974  0.2961
  885MOL0     H22120   7.990   6.481   3.263 -0.6879 -0.6932 -1.2780
  885MOL0     H22121   8.070   6.423   3.119 -2.2373 -1.7462  0.3858
  885MOL0     H22122   7.943   6.541   2.954 -1.5872  1.7103 -0.2223
  885MOL0     H22123   7.829   6.464   3.068 -1.2232  0.8263 -0.7610
  885MOL0     H22124   7.901   6.747   3.066 -0.6970  0.0189 -0.9065
  885MOL0     H22125   7.798   6.662   3.192 -2.3782 -0.1594  0.5881
  885MOL0     H22126   7.524   6.668   2.881  1.5024 -0.4425 -4.0659
  885MOL0     H22127   8.279   6.431   3.477 -0.0425  0.4610  2.6440
  885MOL0     H22128   8.492   6.504   3.740  1.4814  0.1198 -3.1163
  885MOL0     H22129   8.317   6.537   3.777 -1.3864 -0.6898 -0.7201
  885MOL0     H22130   8.370   6.396   3.681 -1.4987 -0.2131  0.5534
  886MOL0     O22131   6.335   0.107   4.162 -0.8302 -0.4530  0.7000
  886MOL0     C22132   6.445   0.110   4.101 -0.6411 -0.0379  0.1291
  886MOL0     O22133   6.520  -0.001   4.074  0.2315  0.9967 -0.5147
  886MOL0     C22134   6.469  -0.125   4.118 -0.3323  0.0501 -0.8928
  886MOL0     C22135   6.537  -0.201   4.212 -0.5052 -0.1027  0.5190
  886MOL0     C22136   6.498  -0.328   4.254  0.4981  0.1376 -0.4142
  886MOL0     C22137   6.384  -0.383   4.185 -0.0274  0.5868  0.2908
  886MOL0     O22138   6.334  -0.509   4.222  0.0616  0.2535 -0.1939
  886MOL0     C22139   6.224  -0.577   4.162 -0.3506  0.6133  0.3934
  886MOL0     C22140   6.214  -0.719   4.231 -0.6699  0.5288 -0.2008
  886MOL0     C22141   6.185  -0.692   4.382 -0.0429 -0.0686 -0.9123
  886MOL0     C22142   6.100  -0.811   4.436  0.7079  0.4826 -0.0731
  886MOL0     C22143   5.948  -0.792   4.406  0.9668 -0.5918 -0.1715
  886MOL0     C22144   5.881  -0.934   4.408  0.0476  0.0669 -0.6873
  886MOL0     C22145   5.728  -0.930   4.403 -0.1515  0.3828 -0.0137
  886MOL0     C22146   5.649  -0.837   4.492  0.7035 -0.4705  0.8741
  886MOL0     N22147   5.641  -0.859   4.638  0.1409 -0.2430  0.3032
  886MOL0     C22148   5.550  -0.945   4.698 -0.0217 -0.6080 -0.8328
  886MOL0     C22149   5.576  -0.933   4.832  0.1315 -0.4936  0.9069
  886MOL0     C22150   5.528  -1.016   4.949 -0.3391 -0.0912 -0.1716
  886MOL0     C22151   5.524  -1.160   4.927 -0.7051  0.3580 -0.7238
  886MOL0     C22152   5.656  -1.223   4.887 -0.6220  0.7312 -0.1474
  886MOL0     C22153   5.761  -1.198   4.992  0.7618  0.4638 -0.2468
  886MOL0     O22154   5.870  -1.280   4.950 -0.1457  0.6492 -0.2695
  886MOL0     C22155   5.972  -1.232   4.873  0.1878 -0.3143  0.4496
  886MOL0     C22156   6.082  -1.318   4.846 -0.1610  0.8271  0.2254
  886MOL0     C22157   6.198  -1.275   4.787  0.2874 -0.8013  0.9678
  886MOL0     C22158   6.304  -1.383   4.780  0.1780 -0.6298 -0.9107
  886MOL0     C22159   6.213  -1.138   4.753 -0.6030 -0.6711  1.0020
  886MOL0     C22160   6.332  -1.078   4.711 -0.2979 -0.7496 -0.5648
  886MOL0     O22161   6.336  -0.933   4.691  0.2933  0.7667  0.3708
  886MOL0     C22162   6.443  -0.885   4.621 -0.2078  0.7870  0.6110
  886MOL0     C22163   6.481  -0.933   4.494  0.5234 -0.1099 -0.1813
  886MOL0     C22164   6.575  -0.868   4.424 -0.0099 -0.3751  0.0392
  886MOL0     C22165   6.652  -0.765   4.475 -0.5819  0.3586 -0.9485
  886MOL0     O22166   6.751  -0.710   4.396  0.6470 -0.2105 -0.3526
  886MOL0     C22167   6.869  -0.654   4.461 -0.4850  0.1669  0.3375
  886MOL0     C22168   6.987  -0.681   4.376 -0.0169  1.2364 -0.7216
  886MOL0     C22169   7.108  -0.618   4.440  0.0871 -0.0148  0.0705
  886MOL0     C22170   7.236  -0.612   4.337  0.2920  0.3267  0.3144
  886MOL0     C22171   7.356  -0.544   4.403 -0.8257  0.3320 -0.3669
  886MOL0     C22172   7.468  -0.519   4.299 -0.4938 -0.1663  0.0308
  886MOL0     C22173   7.598  -0.461   4.363  0.6859  0.5018 -0.2016
  886MOL0     C22174   7.693  -0.447   4.255  0.3833  0.1344 -1.1485
  886MOL0    Cl22175   7.835  -0.351   4.309  0.1490  0.0275 -0.2584
  886MOL0     C22176   6.618  -0.715   4.605  0.0723 -0.3770  0.0024
  886MOL0     C22177   6.508  -0.772   4.677  0.5575 -0.4921  0.0872
  886MOL0     O22178   6.434  -1.147   4.693  0.2966 -0.2318  0.4826
  886MOL0     C22179   6.099  -1.049   4.779 -0.9508  0.1062  0.4851
  886MOL0     C22180   5.981  -1.105   4.831  0.0517 -0.2639 -0.2575
  886MOL0     N22181   5.680  -0.842   4.846 -0.0542  0.0820 -0.1280
  886MOL0     N22182   5.715  -0.794   4.730 -0.1654  0.8535 -0.6298
  886MOL0     C22183   6.322  -0.310   4.078 -0.1841  0.5397  0.2873
  886MOL0     C22184   6.373  -0.182   4.048  0.6625 -0.4356  0.2357
  886MOL0     C22185   6.506   0.250   4.081  0.6140  0.4589  0.1094
  886MOL0     C22186   6.462   0.359   4.160  0.0287  0.1798  0.8776
  886MOL0     C22187   6.501   0.486   4.149  0.1225  0.2482  0.5181
  886MOL0     C22188   6.588   0.515   4.049 -0.0180  0.0035 -0.5049
  886MOL0     O22189   6.637   0.640   4.033  0.5986 -0.4262  0.4270
  886MOL0     C22190   6.779   0.657   4.073  0.8458 -0.1582  0.2057
  886MOL0     C22191   6.804   0.801   4.136  0.5863  0.2469 -0.3811
  886MOL0     C22192   6.944   0.838   4.118 -0.7195  0.3378  0.5467
  886MOL0     C22193   6.978   0.989   4.148  0.0482  0.0367  0.5007
  886MOL0     C22194   7.122   1.010   4.128 -0.0503  0.0313  0.1491
  886MOL0     C22195   7.238   1.050   4.118  0.0086 -0.7940  0.2735
  886MOL0     C22196   6.630   0.411   3.962 -0.1556 -0.5111  0.3750
  886MOL0     C22197   6.594   0.277   3.977  0.0796 -1.4236  0.6682
  886MOL0     C22198   6.655   0.170   3.892 -0.4026  0.4591  0.1518
  886MOL0     H22199   6.612  -0.146   4.268  0.0218  1.9242 -1.9874
  886MOL0     H22200   6.556  -0.379   4.330  3.0601  1.2772 -1.5010
  886MOL0     H22201   6.242  -0.596   4.056  0.9686 -2.7365  1.0798
  886MOL0     H22202   6.132  -0.518   4.168 -1.1792 -0.6890  1.1464
  886MOL0     H22203   6.137  -0.776   4.177  0.3482  1.4623 -2.8178
  886MOL0     H22204   6.306  -0.777   4.220  0.2593  1.9835 -0.2571
  886MOL0     H22205   6.282  -0.671   4.428 -1.2731  1.6498  1.0870
  886MOL0     H22206   6.135  -0.597   4.404  1.1063  0.5128 -0.7369
  886MOL0     H22207   6.150  -0.902   4.401  1.0877  1.1472 -1.3150
  886MOL0     H22208   6.106  -0.811   4.546 -1.9161 -2.7718  0.2522
  886MOL0     H22209   5.939  -0.747   4.307  1.5826 -1.2773 -0.5494
  886MOL0     H22210   5.915  -0.725   4.486  2.0648  0.0315 -0.2250
  886MOL0     H22211   5.909  -0.989   4.318 -0.7966 -4.3127  1.4492
  886MOL0     H22212   5.913  -0.987   4.498 -2.3941  0.2692  0.3791
  886MOL0     H22213   5.687  -1.030   4.420  0.1508  0.3290  0.4254
  886MOL0     H22214   5.708  -0.909   4.298  0.2556 -0.2317 -0.2222
  886MOL0     H22215   5.670  -0.731   4.477 -2.3761  0.0306 -0.6078
  886MOL0     H22216   5.546  -0.835   4.454  0.7237 -0.6081  0.8121
  886MOL0     H22217   5.474  -1.006   4.650 -1.3128  0.0177  0.3445
  886MOL0     H22218   5.427  -0.983   4.974 -1.6912 -2.3082 -2.2240
  886MOL0     H22219   5.590  -0.998   5.038  2.0470  2.2522 -2.1530
  886MOL0     H22220   5.489  -1.210   5.018  0.8644  2.3726  1.1014
  886MOL0     H22221   5.461  -1.181   4.840  1.5360 -0.2806 -2.2759
  886MOL0     H22222   5.643  -1.331   4.877  0.4675  0.6093 -0.3518
  886MOL0     H22223   5.688  -1.192   4.788  1.4996 -0.1720  0.2057
  886MOL0     H22224   5.782  -1.092   5.008 -1.5961  1.0011 -0.3965
  886MOL0     H22225   5.720  -1.251   5.079  0.5409 -1.9124 -1.7006
  886MOL0     H22226   6.066  -1.416   4.890  1.2839 -0.8953 -2.8173
  886MOL0     H22227   6.355  -1.377   4.684  1.1131 -1.8564 -0.5109
  886MOL0     H22228   6.256  -1.481   4.785 -0.7117 -0.2389 -1.5094
  886MOL0     H22229   6.379  -1.359   4.855  0.0666 -1.8925 -0.3798
  886MOL0     H22230   6.436  -1.025   4.457  0.1999 -0.0369  0.0311
  886MOL0     H22231   6.587  -0.903   4.322 -0.8737  0.1861 -0.2626
  886MOL0     H22232   6.848  -0.547   4.463 -1.5925 -0.0424  1.5673
  886MOL0     H22233   6.889  -0.688   4.562  1.8532 -0.7289 -0.3743
  886MOL0     H22234   7.001  -0.789   4.371 -0.1758  1.0977  0.9903
  886MOL0     H22235   6.967  -0.646   4.274  2.6338  0.0599 -1.7207
  886MOL0     H22236   7.137  -0.650   4.540 -0.4637 -1.3083 -0.1750
  886MOL0     H22237   7.076  -0.513   4.445 -2.3077 -0.7136  0.2885
  886MOL0     H22238   7.203  -0.557   4.249 -1.4599 -2.2642 -0.7406
  886MOL0     H22239   7.250  -0.714   4.303  3.1168  0.9119 -0.5877
  886MOL0     H22240   7.323  -0.452   4.452 -1.1203  0.7306 -1.2951
  886MOL0     H22241   7.394  -0.614   4.479 -0.5228 -1.7488 -2.3357
  886MOL0     H22242   7.440  -0.460   4.212 -0.5287  0.1714  0.2683
  886MOL0     H22243   7.485  -0.618   4.255  2.0901  1.3298 -2.7254
  886MOL0     H22244   7.634  -0.530   4.440 -0.7379  0.6324  0.6274
  886MOL0     H22245   7.570  -0.371   4.417  0.4959  0.7868 -0.7702
  886MOL0     H22246   7.654  -0.382   4.176  0.4155  0.9866 -0.4656
  886MOL0     H22247   7.726  -0.544   4.214 -0.9283 -0.9162  0.1917
  886MOL0     H22248   6.681  -0.635   4.642  2.2266 -0.6328 -2.7218
  886MOL0     H22249   6.476  -0.736   4.774  1.8184 -1.3758  0.8670
  886MOL0     H22250   6.111  -0.943   4.761 -0.8214  0.0477  0.2315
  886MOL0     H22251   5.898  -1.037   4.843 -1.3675 -1.6080 -1.8838
  886MOL0     H22252   6.239  -0.349   4.020 -0.4368 -0.0264  1.0079
  886MOL0     H22253   6.344  -0.129   3.958  2.1625  0.7489  0.4143
  886MOL0     H22254   6.399   0.326   4.242  1.5540 -2.7157  0.9910
  886MOL0     H22255   6.465   0.571   4.206 -0.5796 -0.3689  1.0139
  886MOL0     H22256   6.811   0.580   4.145  2.6527  3.2535  3.3773
  886MOL0     H22257   6.843   0.645   3.985  0.4210 -0.6192 -0.0492
  886MOL0     H22258   6.788   0.796   4.244  0.3303 -3.0824 -0.4808
  886MOL0     H22259   6.739   0.875   4.089  1.3141  3.0765  2.7155
  886MOL0     H22260   7.000   0.771   4.184  0.3931  1.9937  1.3502
  886MOL0     H22261   6.980   0.804   4.020 -0.1733 -1.6748  1.4096
  886MOL0     H22262   6.950   1.017   4.250 -0.4511 -0.4917  0.5115
  886MOL0     H22263   6.910   1.048   4.086  1.2099  0.3216 -0.5418
  886MOL0     H22264   7.340   1.084   4.111  0.7236 -2.8398 -0.1449
  886MOL0     H22265   6.706   0.441   3.891  1.2789 -2.6981  0.8902
  886MOL0     H22266   6.588   0.087   3.867 -0.8828 -0.0528  2.7781
  886MOL0     H22267   6.694   0.213   3.800  1.5493  1.5943  1.4329
  886MOL0     H22268   6.742   0.134   3.947 -1.2481 -0.8955  0.6495
  887MOL0     O22269   0.970   9.500   6.866 -0.0724  0.2345 -0.5245
  887MOL0     C22270   1.009   9.400   6.916 -0.0857 -0.4361 -0.1499
  887MOL0     O22271   1.138   9.369   6.945  0.6006 -0.1818  0.3485
  887MOL0     C22272   1.231   9.470   6.972  0.4099 -0.6050  0.2425
  887MOL0     C22273   1.203   9.576   7.059 -0.1139  0.7467 -0.0525
  887MOL0     C22274   1.300   9.685   7.058 -0.5138  0.0713 -0.3255
  887MOL0     C22275   1.415   9.682   6.977  0.6963  0.2643  0.1155
  887MOL0     O22276   1.490   9.795   7.001 -0.3076  0.3910  0.1679
  887MOL0     C22277   1.630   9.788   6.965  0.2778 -0.7062  0.2458
  887MOL0     C22278   1.694   9.928   6.956 -0.2096 -1.2078 -0.0003
  887MOL0     C22279   1.841   9.924   6.929 -0.0956  0.2479 -0.7152
  887MOL0     C22280   1.937   9.926   7.050  0.0745  0.3643 -0.4626
  887MOL0     C22281   1.960   9.786   7.095 -0.9567 -0.1516  0.3227
  887MOL0     C22282   2.100   9.759   7.164  0.1430 -0.0941  0.6665
  887MOL0     C22283   2.104   9.800   7.314  0.5396 -0.4377 -0.4022
  887MOL0     C22284   2.233   9.729   7.365  0.8480  0.6241  0.1308
  887MOL0     N22285   2.289   9.790   7.486  0.0512 -0.6982 -0.2911
  887MOL0     C22286   2.250   9.751   7.610  0.3904 -0.2814 -0.3326
  887MOL0     C22287   2.334   9.825   7.688  0.6068  0.4812 -0.2433
  887MOL0     C22288   2.348   9.820   7.836  0.7639 -0.4317  0.1598
  887MOL0     C22289   2.217   9.815   7.915  0.1559  0.3748 -0.0978
  887MOL0     C22290   2.242   9.780   8.064 -0.1179  0.1832 -0.4054
  887MOL0     C22291   2.296   9.906   8.132 -0.5714  0.3946 -0.7842
  887MOL0     O22292   2.295   9.885   8.276 -0.0016  0.1529  0.7185
  887MOL0     C22293   2.190   9.927   8.353 -0.8527 -0.3389 -0.5731
  887MOL0     C22294   2.078   9.994   8.301  1.1164 -0.4815 -0.1476
  887MOL0     C22295   1.995  10.053   8.391 -0.4972  0.1330 -0.3755
  887MOL0     C22296   1.871  10.122   8.328 -1.6260  0.8801 -0.8856
  887MOL0     C22297   2.007  10.026   8.535  0.0063 -0.1490  0.3899
  887MOL0     C22298   1.901  10.055   8.635  0.0494  0.0935  0.2889
  887MOL0     O22299   1.934  10.034   8.772  0.2573  0.1623 -0.4420
  887MOL0     C22300   1.844  10.058   8.876  0.5057 -0.3237 -0.6919
  887MOL0     C22301   1.876  10.142   8.976  0.2677 -0.7928 -0.1259
  887MOL0     C22302   1.783  10.186   9.073  0.7320 -0.0582 -0.2346
  887MOL0     C22303   1.656  10.124   9.083  0.8568  0.3561  0.1194
  887MOL0     O22304   1.558  10.131   9.185  0.3008  0.3462 -0.1067
  887MOL0     C22305   1.612  10.171   9.313 -0.0658 -0.4467 -0.3090
  887MOL0     C22306   1.504  10.179   9.432 -0.0002 -0.8929  0.0591
  887MOL0     C22307   1.373  10.242   9.398 -0.3729 -0.2809 -0.6790
  887MOL0     C22308   1.381  10.401   9.388  0.0838  0.2071  0.0811
  887MOL0     C22309   1.250  10.459   9.334  0.3202  0.3614  0.5596
  887MOL0     C22310   1.247  10.609   9.366 -0.4093  0.1873  0.1166
  887MOL0     C22311   1.200  10.630   9.506  0.2183 -0.0090  0.1826
  887MOL0     C22312   1.146  10.760   9.550  0.1893  0.7831  0.4223
  887MOL0    Cl22313   0.991  10.785   9.478 -0.0900 -0.0910 -0.1606
  887MOL0     C22314   1.622  10.041   8.972 -0.6231  0.3900 -0.8061
  887MOL0     C22315   1.714  10.003   8.869  0.4243 -0.1750  0.3087
  887MOL0     O22316   1.786  10.081   8.588  0.8339  0.4987 -0.4677
  887MOL0     C22317   2.119   9.956   8.580  0.1828  0.3766 -0.8759
  887MOL0     C22318   2.210   9.911   8.486 -1.2536 -0.3760  0.4701
  887MOL0     N22319   2.421   9.892   7.603 -0.2169 -0.0898  0.2870
  887MOL0     N22320   2.398   9.860   7.484 -0.2158  0.3043 -0.2197
  887MOL0     C22321   1.430   9.575   6.887 -0.3124 -0.3509 -0.3866
  887MOL0     C22322   1.343   9.467   6.895  0.0551  0.0888  0.0348
  887MOL0     C22323   0.908   9.289   6.922  0.7560  0.0427 -0.0861
  887MOL0     C22324   0.947   9.157   6.896  0.5237 -0.8947 -0.6286
  887MOL0     C22325   0.855   9.055   6.906 -0.3008  0.2904  0.1192
  887MOL0     C22326   0.721   9.078   6.927 -0.0903 -0.2328 -0.1145
  887MOL0     O22327   0.618   8.985   6.940 -0.2604  0.2319  0.3099
  887MOL0     C22328   0.625   8.902   7.059  0.6355  0.2104  0.2044
  887MOL0     C22329   0.605   8.970   7.189 -0.8046 -0.1139  0.0496
  887MOL0     C22330   0.727   8.957   7.287  0.0775 -0.4260  0.9510
  887MOL0     C22331   0.695   9.044   7.406 -0.6049 -0.3457  0.3878
  887MOL0     C22332   0.780   9.015   7.522 -1.1870 -0.0062 -0.1569
  887MOL0     C22333   0.846   8.966   7.617  0.1537  0.0167  0.1924
  887MOL0     C22334   0.676   9.209   6.942 -0.6218  0.0439 -0.0978
  887MOL0     C22335   0.768   9.318   6.949  0.1603  0.6752  1.4112
  887MOL0     C22336   0.712   9.448   6.983  0.2277  0.2374 -0.3872
  887MOL0     H22337   1.112   9.577   7.118 -2.3448 -0.8390 -3.2190
  887MOL0     H22338   1.279   9.774   7.116 -2.4491 -0.8931  0.5842
  887MOL0     H22339   1.623   9.744   6.865 -2.0065  2.5085 -1.1872
  887MOL0     H22340   1.681   9.721   7.035 -1.3415  0.3569  2.5714
  887MOL0     H22341   1.641   9.988   6.881  0.1275 -3.2427 -1.9709
  887MOL0     H22342   1.677   9.973   7.055 -0.2801  0.3281 -0.6861
  887MOL0     H22343   1.846   9.825   6.881 -2.6960 -1.3107  1.9206
  887MOL0     H22344   1.859  10.017   6.874 -2.1226  1.2561  0.2254
  887MOL0     H22345   2.031   9.975   7.022  1.5558 -0.1327  3.0030
  887MOL0     H22346   1.898   9.990   7.129  2.4119 -0.3485  1.4074
  887MOL0     H22347   1.963   9.711   7.016 -1.4168 -1.4593  1.5029
  887MOL0     H22348   1.880   9.757   7.163 -1.7636 -0.6551 -0.8121
  887MOL0     H22349   2.113   9.651   7.151 -1.4493 -0.3511  0.9768
  887MOL0     H22350   2.181   9.815   7.117  0.2352  1.5481  2.6629
  887MOL0     H22351   2.014   9.769   7.367 -0.6304  1.0734 -1.4032
  887MOL0     H22352   2.123   9.908   7.315 -3.1279  0.3398  1.7112
  887MOL0     H22353   2.214   9.621   7.372  0.1723  0.7276 -0.0664
  887MOL0     H22354   2.309   9.744   7.288  1.1218  4.2041  0.9293
  887MOL0     H22355   2.170   9.678   7.618 -0.4996  0.6819 -0.1796
  887MOL0     H22356   2.416   9.900   7.869  0.0161  0.7909 -1.1778
  887MOL0     H22357   2.414   9.733   7.849  1.5681 -0.1005 -1.4854
  887MOL0     H22358   2.156   9.904   7.893  0.5718  0.9432  0.9806
  887MOL0     H22359   2.165   9.722   7.890  0.1963  0.2791  0.1703
  887MOL0     H22360   2.145   9.756   8.110  0.1317  1.4160  0.8296
  887MOL0     H22361   2.315   9.700   8.080  0.2659  0.9068  1.8090
  887MOL0     H22362   2.398   9.919   8.095 -1.0219 -1.1797 -2.7251
  887MOL0     H22363   2.240   9.994   8.098  2.2069  2.8682  0.5635
  887MOL0     H22364   2.048  10.004   8.197 -0.9307 -0.3979  0.4028
  887MOL0     H22365   1.777  10.067   8.342 -0.7684 -0.7572 -1.3668
  887MOL0     H22366   1.882  10.155   8.225 -1.0390  0.2084 -1.0408
  887MOL0     H22367   1.854  10.219   8.376  2.2931  0.8571  0.9466
  887MOL0     H22368   1.968  10.200   8.970 -1.5340  3.0070  3.7415
  887MOL0     H22369   1.822  10.266   9.135  1.9678 -1.8662  1.4357
  887MOL0     H22370   1.694  10.104   9.338 -0.2234 -0.5361 -0.0289
  887MOL0     H22371   1.651  10.273   9.300  0.4332 -0.8500 -2.1458
  887MOL0     H22372   1.481  10.072   9.442  1.0328 -1.0648  0.6724
  887MOL0     H22373   1.540  10.209   9.530 -1.1000 -1.4921  0.6659
  887MOL0     H22374   1.305  10.216   9.480 -2.4500 -0.6505 -2.4410
  887MOL0     H22375   1.327  10.201   9.308  0.1096 -0.2231 -0.9554
  887MOL0     H22376   1.460  10.438   9.322  0.4881  0.1240  0.5183
  887MOL0     H22377   1.420  10.433   9.485 -1.7328 -0.2760  1.0032
  887MOL0     H22378   1.249  10.427   9.229  0.3689 -0.2981  0.7552
  887MOL0     H22379   1.170  10.409   9.389  0.1998  0.2360  0.2720
  887MOL0     H22380   1.167  10.643   9.298 -0.9166 -1.1020  0.0389
  887MOL0     H22381   1.350  10.640   9.347  0.1309 -0.6607  1.5124
  887MOL0     H22382   1.284  10.611   9.573  0.1296 -1.0471  0.0101
  887MOL0     H22383   1.127  10.551   9.525  0.8003 -0.0530  2.4314
  887MOL0     H22384   1.218  10.836   9.519  0.6414 -0.2783 -1.2303
  887MOL0     H22385   1.129  10.771   9.658 -1.7596  0.6284  0.1633
  887MOL0     H22386   1.523   9.999   8.986 -1.3409  2.4193  0.7764
  887MOL0     H22387   1.690   9.926   8.797 -0.1401  0.2719  0.0094
  887MOL0     H22388   2.137   9.934   8.685  1.0353 -0.9541 -1.2793
  887MOL0     H22389   2.307   9.875   8.517 -1.0338  0.9065  1.3751
  887MOL0     H22390   1.516   9.574   6.821  0.0128 -1.2581  0.0413
  887MOL0     H22391   1.365   9.378   6.838  0.5222  1.1575 -1.5322
  887MOL0     H22392   1.043   9.133   6.851  1.6720  2.9035 -0.5487
  887MOL0     H22393   0.878   8.950   6.889 -2.9402 -1.0855  3.7962
  887MOL0     H22394   0.548   8.824   7.059 -0.1087  0.8235  3.0287
  887MOL0     H22395   0.720   8.848   7.052 -0.4727 -2.2377  2.2130
  887MOL0     H22396   0.512   8.943   7.239  1.0111 -2.7653  2.3694
  887MOL0     H22397   0.589   9.072   7.155  0.2928 -0.5106 -1.7917
  887MOL0     H22398   0.737   8.851   7.313  2.1359 -0.3571  0.6018
  887MOL0     H22399   0.819   8.984   7.235 -0.5044 -2.2231 -1.1549
  887MOL0     H22400   0.593   9.013   7.429  0.3969 -2.0745  3.0846
  887MOL0     H22401   0.702   9.151   7.385  0.5716 -0.6998 -1.2729
  887MOL0     H22402   0.906   8.935   7.700 -4.1252  1.3099  4.2188
  887MOL0     H22403   0.570   9.227   6.951 -0.1707  2.9523  0.4959
  887MOL0     H22404   0.779   9.534   6.972  1.7817 -0.9216 -0.2529
  887MOL0     H22405   0.624   9.469   6.921  1.3771 -2.3124 -3.0996
  887MOL0     H22406   0.681   9.444   7.087 -2.3631 -1.0327 -1.1305
  888MOL0     O22407  10.487   5.671   2.524  0.3304 -0.5564 -0.6236
  888MOL0     C22408  10.538   5.767   2.571 -0.8405  0.0449  0.7499
  888MOL0     O22409  10.502   5.892   2.554 -0.2140 -0.7275  0.1503
  888MOL0     C22410  10.412   5.923   2.462 -0.4862  0.0808  0.3417
  888MOL0     C22411  10.278   5.888   2.478 -0.1563 -0.1213 -0.6409
  888MOL0     C22412  10.180   5.939   2.398  0.2813  0.2617  0.2836
  888MOL0     C22413  10.209   6.012   2.289 -1.0434 -0.8538  0.1452
  888MOL0     O22414  10.120   6.028   2.196  0.2010 -0.0600  0.3662
  888MOL0     C22415  10.146   6.108   2.081  0.4820  0.0100  0.1262
  888MOL0     C22416  10.029   6.096   1.980  0.2840  1.1687  0.5590
  888MOL0     C22417   9.894   6.163   2.040 -0.3258  0.0438  0.2886
  888MOL0     C22418   9.905   6.314   2.068  0.1536  0.8605  0.1023
  888MOL0     C22419   9.786   6.359   2.163  0.1382  0.2642  0.5196
  888MOL0     C22420   9.802   6.503   2.213 -0.7297 -0.0518 -0.4254
  888MOL0     C22421   9.720   6.524   2.334  0.3392  0.3122 -0.7701
  888MOL0     C22422   9.751   6.655   2.415 -0.9064 -0.7706 -0.0936
  888MOL0     N22423   9.873   6.670   2.502  0.5496 -0.0482 -0.3352
  888MOL0     C22424   9.902   6.775   2.587  0.7842 -0.4559  0.7898
  888MOL0     C22425  10.016   6.741   2.653  0.3242  0.1756  0.6134
  888MOL0     C22426  10.084   6.827   2.754 -0.1939  0.4376 -0.1958
  888MOL0     C22427  10.226   6.861   2.698 -0.0411  0.0630 -0.3686
  888MOL0     C22428  10.230   6.977   2.599 -0.2355  0.6253 -0.2857
  888MOL0     C22429  10.371   7.036   2.554  0.2707  0.4223 -0.7088
  888MOL0     O22430  10.424   7.088   2.675 -0.0997  0.9925 -0.4207
  888MOL0     C22431  10.556   7.133   2.684 -0.1262  0.4348 -0.4770
  888MOL0     C22432  10.644   7.146   2.575 -1.0905  0.6209  0.1174
  888MOL0     C22433  10.767   7.192   2.591 -0.2973 -0.4353 -0.2917
  888MOL0     C22434  10.854   7.193   2.467 -0.3625  0.1259 -0.7479
  888MOL0     C22435  10.810   7.241   2.721 -1.0336  0.1274  0.6829
  888MOL0     C22436  10.945   7.286   2.751 -0.0538 -0.5007  0.3632
  888MOL0     O22437  10.953   7.356   2.867  0.3155 -0.0223 -0.1041
  888MOL0     C22438  11.061   7.442   2.895 -0.1562  0.0516 -0.1251
  888MOL0     C22439  11.100   7.455   3.032  0.4566 -0.0149  0.0646
  888MOL0     C22440  11.202   7.542   3.064  0.5579  0.8505 -0.8873
  888MOL0     C22441  11.276   7.605   2.961 -0.2344 -0.3370  0.5159
  888MOL0     O22442  11.390   7.670   3.003  0.0867  0.1210  0.0200
  888MOL0     C22443  11.382   7.811   2.965  0.2219 -0.1898  0.2867
  888MOL0     C22444  11.513   7.882   2.994 -0.3505 -0.5078  1.5446
  888MOL0     C22445  11.623   7.809   2.911  0.0583  0.9789 -0.2016
  888MOL0     C22446  11.757   7.880   2.925 -0.1653 -0.6726 -0.8853
  888MOL0     C22447  11.852   7.820   2.825 -0.8686  0.1087 -0.1262
  888MOL0     C22448  11.997   7.871   2.847 -0.7980  0.2822  0.2578
  888MOL0     C22449  12.088   7.816   2.735  0.2599  0.8772 -0.1183
  888MOL0     C22450  12.116   7.670   2.749  0.6427 -0.0196  0.0299
  888MOL0    Cl22451  11.993   7.579   2.653 -0.2799  0.2070 -0.2719
  888MOL0     C22452  11.239   7.592   2.825 -0.4443  0.3451  0.0192
  888MOL0     C22453  11.122   7.519   2.797 -0.2506 -0.3847 -0.5401
  888MOL0     O22454  11.036   7.266   2.676  0.0544 -0.5069 -0.6830
  888MOL0     C22455  10.729   7.227   2.830 -0.1121 -0.7349  0.6879
  888MOL0     C22456  10.598   7.186   2.805  0.1711 -0.2257  0.2143
  888MOL0     N22457  10.069   6.626   2.590  0.6062  0.0639  0.4435
  888MOL0     N22458   9.971   6.578   2.510 -0.7706  0.0519  0.5468
  888MOL0     C22459  10.341   6.049   2.267 -0.5943  0.1652 -1.2500
  888MOL0     C22460  10.446   6.006   2.358 -0.4586 -0.2621 -0.0281
  888MOL0     C22461  10.642   5.759   2.683  0.3745  0.0557 -0.2617
  888MOL0     C22462  10.751   5.839   2.697 -0.0178  0.1365 -0.3799
  888MOL0     C22463  10.841   5.819   2.803 -0.5538  0.7597  0.2263
  888MOL0     C22464  10.819   5.722   2.902  0.2540 -0.6389  0.8531
  888MOL0     O22465  10.889   5.703   3.017  0.5555 -0.3112 -0.2766
  888MOL0     C22466  10.957   5.819   3.071  0.0569 -0.6649  0.1672
  888MOL0     C22467  10.863   5.931   3.117  0.0976 -0.3407  0.5794
  888MOL0     C22468  10.918   6.039   3.216 -0.0278 -0.1756  0.4919
  888MOL0     C22469  11.054   6.085   3.176  0.4945 -0.4549  0.6622
  888MOL0     C22470  11.100   6.215   3.224 -0.4271  0.1162  0.5388
  888MOL0     C22471  11.142   6.322   3.250 -0.4188 -0.2163 -0.0772
  888MOL0     C22472  10.715   5.633   2.881 -0.4948  0.6725 -0.0346
  888MOL0     C22473  10.626   5.661   2.782  0.1587  0.1488 -0.1936
  888MOL0     C22474  10.504   5.572   2.792 -0.3255  0.0616 -0.1798
  888MOL0     H22475  10.248   5.812   2.549  0.9815  0.3657  0.3924
  888MOL0     H22476  10.082   5.896   2.416  0.1974  0.5414  0.5216
  888MOL0     H22477  10.238   6.082   2.029 -0.2154 -0.8297 -0.7413
  888MOL0     H22478  10.141   6.213   2.111  0.5577 -0.3524  1.4534
  888MOL0     H22479  10.053   6.135   1.880  1.6787  1.9198  1.1629
  888MOL0     H22480  10.013   5.991   1.953 -0.3498  1.7999 -1.7853
  888MOL0     H22481   9.815   6.141   1.968 -0.5369 -1.6861  0.9838
  888MOL0     H22482   9.876   6.114   2.137 -1.0352  2.0916  1.2338
  888MOL0     H22483   9.994   6.357   2.114 -0.3597  2.8546 -0.6521
  888MOL0     H22484   9.892   6.365   1.971  0.4862  2.3170  0.7983
  888MOL0     H22485   9.772   6.292   2.248  0.9922 -1.1694 -0.4252
  888MOL0     H22486   9.695   6.349   2.102 -1.5243 -1.8890  3.1335
  888MOL0     H22487   9.910   6.519   2.228 -0.2724 -1.9889 -1.4015
  888MOL0     H22488   9.781   6.570   2.129  2.3433  1.9219  0.2128
  888MOL0     H22489   9.729   6.441   2.405  1.9123  0.7982 -0.3729
  888MOL0     H22490   9.614   6.536   2.310 -0.5634 -0.7563  2.1490
  888MOL0     H22491   9.749   6.739   2.346 -1.4205 -0.3669  0.4020
  888MOL0     H22492   9.671   6.667   2.489 -0.5032 -3.7383  0.9907
  888MOL0     H22493   9.831   6.856   2.603  0.4237  0.1860 -3.1174
  888MOL0     H22494  10.089   6.765   2.844  1.3550  1.1273  0.2378
  888MOL0     H22495  10.026   6.919   2.766 -1.1941 -0.1806 -0.2571
  888MOL0     H22496  10.290   6.881   2.785  0.4674 -1.6417 -0.3046
  888MOL0     H22497  10.275   6.779   2.644 -1.9516 -0.0522 -2.0220
  888MOL0     H22498  10.166   6.958   2.512  2.9768  2.7706 -3.3967
  888MOL0     H22499  10.181   7.057   2.656 -1.1007  0.9300 -1.4102
  888MOL0     H22500  10.432   6.955   2.514  1.6498  0.4654  1.1950
  888MOL0     H22501  10.362   7.110   2.474  0.7620 -0.6118 -1.7512
  888MOL0     H22502  10.619   7.117   2.474 -0.9255 -1.1489  0.5569
  888MOL0     H22503  10.906   7.287   2.446 -0.6258  0.6155  0.6646
  888MOL0     H22504  10.780   7.171   2.389 -0.0701 -1.9915 -0.4950
  888MOL0     H22505  10.929   7.114   2.477 -0.6923 -0.2385 -1.0999
  888MOL0     H22506  11.036   7.407   3.104 -0.6193  1.9281  0.4810
  888MOL0     H22507  11.225   7.554   3.169 -0.1408 -4.0563  0.0525
  888MOL0     H22508  11.346   7.831   2.863  1.2134  1.8325  0.2969
  888MOL0     H22509  11.306   7.863   3.024  1.0683  0.1759  1.0701
  888MOL0     H22510  11.510   7.987   2.962 -1.1766 -1.3738 -1.6088
  888MOL0     H22511  11.536   7.874   3.100 -4.0705  0.0519  2.5327
  888MOL0     H22512  11.601   7.810   2.804  0.7308  1.7966 -0.3448
  888MOL0     H22513  11.637   7.711   2.957  1.2313  2.9184  4.0355
  888MOL0     H22514  11.786   7.864   3.029 -0.5864 -0.4034 -0.7211
  888MOL0     H22515  11.764   7.988   2.911  0.8299 -0.5225  0.5732
  888MOL0     H22516  11.848   7.713   2.843  3.6235  0.3406  4.1879
  888MOL0     H22517  11.818   7.849   2.725 -1.2533  2.6853  0.6665
  888MOL0     H22518  12.036   7.837   2.943 -3.7569 -1.3460  0.9953
  888MOL0     H22519  11.991   7.980   2.841 -0.3448  0.2253 -1.8080
  888MOL0     H22520  12.184   7.865   2.757  1.4304 -2.0259  1.9213
  888MOL0     H22521  12.045   7.833   2.636 -0.3550  0.5987  0.0991
  888MOL0     H22522  12.109   7.642   2.854  1.8367 -0.5545 -0.0125
  888MOL0     H22523  12.219   7.638   2.730  0.8184 -1.2819  2.6910
  888MOL0     H22524  11.305   7.633   2.749  0.1830 -0.5386  0.0729
  888MOL0     H22525  11.084   7.513   2.696 -3.3686  0.7771  0.4400
  888MOL0     H22526  10.760   7.256   2.930 -0.3227  2.2023 -0.0004
  888MOL0     H22527  10.514   7.173   2.874  0.3205  0.0662  0.4513
  888MOL0     H22528  10.382   6.093   2.177  1.0978 -0.7604 -0.9776
  888MOL0     H22529  10.548   6.039   2.340 -1.5053  1.6986 -3.2166
  888MOL0     H22530  10.778   5.917   2.626 -0.7953  1.9823  1.2450
  888MOL0     H22531  10.929   5.883   2.812 -1.3194  1.6993  1.2026
  888MOL0     H22532  11.012   5.785   3.159 -1.7203 -1.3384  1.0709
  888MOL0     H22533  11.030   5.868   3.006  0.4381  1.4424  2.0409
  888MOL0     H22534  10.778   5.884   3.168 -2.7692  2.7703 -1.0214
  888MOL0     H22535  10.814   5.986   3.037 -1.8069 -1.8744  0.5934
  888MOL0     H22536  10.845   6.120   3.211 -0.3439 -0.5584 -2.4766
  888MOL0     H22537  10.930   5.994   3.316  1.3641  1.3778  1.0750
  888MOL0     H22538  11.060   6.089   3.067 -0.1239 -4.2753  0.3621
  888MOL0     H22539  11.137   6.021   3.207  2.0300 -0.4989 -3.0969
  888MOL0     H22540  11.175   6.422   3.271  0.7478 -0.7595  0.8341
  888MOL0     H22541  10.685   5.558   2.953 -3.5413  2.2181  0.4498
  888MOL0     H22542  10.419   5.631   2.755  0.7133  1.2409 -0.7416
  888MOL0     H22543  10.512   5.491   2.720  1.3932  0.2433 -0.2159
  888MOL0     H22544  10.480   5.540   2.894  0.5470  1.8984  0.6459
  889MOL0     O22545   6.031   0.616   8.366 -0.3557  0.2783 -0.4304
  889MOL0     C22546   6.022   0.553   8.259 -0.5611 -0.6716  0.8040
  889MOL0     O22547   6.128   0.481   8.202  0.5308 -0.1509  0.5929
  889MOL0     C22548   6.257   0.474   8.260  0.2697 -0.2824  0.2888
  889MOL0     C22549   6.308   0.568   8.351 -0.6729  0.2049  0.1248
  889MOL0     C22550   6.430   0.540   8.403  0.1209 -0.0964 -0.2824
  889MOL0     C22551   6.518   0.436   8.357 -0.1486 -0.8800  0.2826
  889MOL0     O22552   6.651   0.415   8.397  0.0972  0.0031  0.0276
  889MOL0     C22553   6.711   0.497   8.490 -0.0005 -0.0776 -0.0016
  889MOL0     C22554   6.859   0.461   8.495  1.0601  0.4280  0.2193
  889MOL0     C22555   6.925   0.552   8.579  0.2099 -0.3643 -0.4052
  889MOL0     C22556   7.056   0.481   8.614 -0.4536 -0.0527 -0.4467
  889MOL0     C22557   7.131   0.559   8.730  0.2327 -0.3839  0.8617
  889MOL0     C22558   7.270   0.490   8.759 -0.3157 -0.5312  0.1750
  889MOL0     C22559   7.264   0.385   8.864  0.5186 -0.2105 -0.2999
  889MOL0     C22560   7.203   0.429   8.995  0.0524  0.2427 -0.5269
  889MOL0     N22561   7.268   0.361   9.109  0.5950 -0.2556  0.1384
  889MOL0     C22562   7.295   0.224   9.110 -0.1131  0.6519  0.3006
  889MOL0     C22563   7.406   0.204   9.183 -0.2976  0.0609  0.2285
  889MOL0     C22564   7.479   0.085   9.233 -0.5921  0.5785 -0.4092
  889MOL0     C22565   7.621   0.068   9.195 -0.0280  0.3677 -0.5229
  889MOL0     C22566   7.633  -0.018   9.069  0.0639  0.4395 -0.1353
  889MOL0     C22567   7.634   0.047   8.933 -0.6288  0.3311 -0.2955
  889MOL0     O22568   7.589  -0.042   8.830 -0.1266  0.1889 -0.0641
  889MOL0     C22569   7.547   0.020   8.716 -0.8139  0.0335  0.4242
  889MOL0     C22570   7.417   0.052   8.682  0.4882  0.1421  0.0019
  889MOL0     C22571   7.381   0.101   8.548 -0.0282 -0.7763 -0.3538
  889MOL0     C22572   7.228   0.130   8.530 -0.6288  0.2257 -0.2311
  889MOL0     C22573   7.485   0.133   8.457 -0.1387 -0.9851  0.3672
  889MOL0     C22574   7.467   0.162   8.313 -1.4165 -0.3648  0.7541
  889MOL0     O22575   7.573   0.239   8.250 -0.0538  1.0306 -0.1269
  889MOL0     C22576   7.576   0.239   8.109  0.4187  0.2008  0.0820
  889MOL0     C22577   7.558   0.125   8.023 -0.0538  0.2564 -0.2577
  889MOL0     C22578   7.582   0.131   7.881  0.1162 -0.3278 -0.1906
  889MOL0     C22579   7.627   0.252   7.822 -0.3904 -0.1085  0.1341
  889MOL0     O22580   7.661   0.246   7.686 -0.1308  0.3291 -0.2238
  889MOL0     C22581   7.756   0.338   7.642  0.3954  0.3612 -0.2949
  889MOL0     C22582   7.815   0.291   7.513 -0.4543 -0.0948  0.3934
  889MOL0     C22583   7.714   0.295   7.390 -0.2696 -0.1292  0.2056
  889MOL0     C22584   7.781   0.287   7.250  0.4164  0.1207  0.3386
  889MOL0     C22585   7.702   0.308   7.125  0.3574 -0.0194  0.7999
  889MOL0     C22586   7.564   0.252   7.111  0.2318 -0.5360 -0.3656
  889MOL0     C22587   7.568   0.099   7.102  0.5878 -0.3103  0.0695
  889MOL0     C22588   7.421   0.051   7.076 -0.3144  0.0391 -0.4947
  889MOL0    Cl22589   7.373   0.073   6.912  0.1225  0.1674  0.0139
  889MOL0     C22590   7.629   0.366   7.908 -0.0326  0.3059 -0.1410
  889MOL0     C22591   7.603   0.360   8.045 -0.2737 -0.1869  0.1859
  889MOL0     O22592   7.361   0.129   8.262  0.0918 -0.1679  0.8409
  889MOL0     C22593   7.620   0.125   8.506 -0.3260 -0.3815 -0.1364
  889MOL0     C22594   7.650   0.067   8.627  0.3486 -0.0931 -0.3650
  889MOL0     N22595   7.449   0.328   9.238  0.7956 -0.4590 -0.5818
  889MOL0     N22596   7.370   0.415   9.188  1.2640  0.7515  0.4763
  889MOL0     C22597   6.467   0.345   8.265  0.6375  0.5239  0.0103
  889MOL0     C22598   6.340   0.370   8.216 -0.1175  0.0089 -1.0535
  889MOL0     C22599   5.880   0.549   8.205 -0.6853 -0.7188  0.1624
  889MOL0     C22600   5.785   0.654   8.247  0.6158  0.6222  0.0057
  889MOL0     C22601   5.651   0.653   8.209 -0.6000 -0.2753  0.4106
  889MOL0     C22602   5.604   0.551   8.133  0.7909  0.0865 -0.7392
  889MOL0     O22603   5.470   0.558   8.104  0.4577 -0.9182  0.1672
  889MOL0     C22604   5.404   0.445   8.061  0.2923 -0.3298 -0.2747
  889MOL0     C22605   5.295   0.496   7.967 -0.6789  0.2139 -0.5199
  889MOL0     C22606   5.187   0.591   8.031 -0.2422 -0.9480  0.1105
  889MOL0     C22607   5.062   0.505   8.037 -0.1877  0.2480 -0.1776
  889MOL0     C22608   4.938   0.563   8.092 -0.3975  0.0255  0.5257
  889MOL0     C22609   4.832   0.619   8.113 -0.0437  1.0351 -0.8327
  889MOL0     C22610   5.696   0.450   8.097  1.2985  0.2490  0.5080
  889MOL0     C22611   5.834   0.444   8.118 -0.2065 -0.2856 -0.2719
  889MOL0     C22612   5.921   0.342   8.050  0.5227 -0.3466 -0.6923
  889MOL0     H22613   6.262   0.658   8.390 -0.4543 -0.5442  2.2500
  889MOL0     H22614   6.455   0.605   8.486 -0.4819  0.9846 -0.9402
  889MOL0     H22615   6.674   0.493   8.593  3.0505 -0.3246  1.1991
  889MOL0     H22616   6.702   0.600   8.455  0.9282 -0.1347 -0.4274
  889MOL0     H22617   6.860   0.356   8.524 -0.7857  0.5560  0.8678
  889MOL0     H22618   6.907   0.472   8.397  4.2450 -2.6166  1.2402
  889MOL0     H22619   6.949   0.649   8.535  2.5108  1.7734  4.7760
  889MOL0     H22620   6.862   0.570   8.666 -1.7258 -1.2283 -1.5705
  889MOL0     H22621   7.040   0.378   8.647  4.1808 -1.0265 -0.5341
  889MOL0     H22622   7.126   0.470   8.531  0.4045 -0.5339  0.3046
  889MOL0     H22623   7.068   0.562   8.820  0.0422 -1.3976  0.7673
  889MOL0     H22624   7.138   0.662   8.694  0.0154 -0.6657 -0.0002
  889MOL0     H22625   7.310   0.441   8.670  2.0827  1.6955 -0.0919
  889MOL0     H22626   7.346   0.565   8.782  0.4127 -1.1940 -0.0326
  889MOL0     H22627   7.366   0.351   8.882  0.2856 -2.2253 -2.3138
  889MOL0     H22628   7.217   0.294   8.823 -0.5530  0.4858 -0.6551
  889MOL0     H22629   7.223   0.536   9.007  1.6847 -0.1579  0.8098
  889MOL0     H22630   7.096   0.409   8.988  0.3154 -1.2091 -0.9667
  889MOL0     H22631   7.243   0.145   9.056  0.2177  0.9624 -0.4869
  889MOL0     H22632   7.406   0.010   9.201 -1.6493  1.3652  0.0618
  889MOL0     H22633   7.461   0.085   9.341  0.6022 -1.3379 -0.1694
  889MOL0     H22634   7.659   0.169   9.178  1.7462 -0.2361 -0.3232
  889MOL0     H22635   7.670   0.024   9.282  0.2543  0.8044 -0.4565
  889MOL0     H22636   7.732  -0.065   9.063 -1.5248 -3.3026  0.1560
  889MOL0     H22637   7.562  -0.100   9.081  2.6874 -1.7279  2.0036
  889MOL0     H22638   7.579   0.141   8.941 -1.6453 -0.3471  1.0404
  889MOL0     H22639   7.735   0.083   8.912 -1.0421  0.8942 -1.4414
  889MOL0     H22640   7.339   0.040   8.757  0.1004  1.2691 -0.1942
  889MOL0     H22641   7.201   0.233   8.504  0.5315  0.7705  0.6580
  889MOL0     H22642   7.169   0.085   8.611 -2.2860 -0.8440 -1.9341
  889MOL0     H22643   7.192   0.068   8.447  1.9628 -0.9973 -0.5314
  889MOL0     H22644   7.514   0.035   8.064 -0.8251 -0.2291 -2.0409
  889MOL0     H22645   7.566   0.043   7.819 -0.7742  1.2666 -2.3589
  889MOL0     H22646   7.695   0.429   7.643 -0.2643 -0.0387  2.4713
  889MOL0     H22647   7.845   0.350   7.705  0.8109 -0.1322 -0.7724
  889MOL0     H22648   7.897   0.360   7.490 -0.8214  0.4781  0.7853
  889MOL0     H22649   7.865   0.195   7.527  0.3221  0.3161  0.4802
  889MOL0     H22650   7.653   0.386   7.381 -0.0740 -0.0331 -0.1840
  889MOL0     H22651   7.653   0.205   7.401 -0.7753  0.2177  0.3083
  889MOL0     H22652   7.827   0.188   7.243  1.2633  0.4740  0.8116
  889MOL0     H22653   7.865   0.355   7.238 -1.6346  2.4336 -2.2803
  889MOL0     H22654   7.690   0.417   7.118 -1.2251 -0.2779 -1.5399
  889MOL0     H22655   7.756   0.278   7.035 -0.9271 -3.2695  0.9890
  889MOL0     H22656   7.524   0.301   7.022 -3.1172 -0.3588  1.1065
  889MOL0     H22657   7.495   0.272   7.193  1.2456  0.5991  0.2306
  889MOL0     H22658   7.614   0.060   7.192  2.0233 -1.1113 -0.9711
  889MOL0     H22659   7.624   0.068   7.013 -0.2459 -0.0551 -0.5690
  889MOL0     H22660   7.355   0.114   7.135  0.3304 -0.3150  0.6288
  889MOL0     H22661   7.403  -0.048   7.117  0.9475  0.8014  2.1189
  889MOL0     H22662   7.656   0.462   7.864  3.2748 -0.0028  0.9995
  889MOL0     H22663   7.617   0.447   8.109 -0.1160 -0.8164  1.0207
  889MOL0     H22664   7.697   0.149   8.434 -0.8352  0.7630 -0.3149
  889MOL0     H22665   7.752   0.040   8.650 -0.7257 -2.9057  1.6462
  889MOL0     H22666   6.529   0.262   8.234 -0.6796 -0.7753  0.7274
  889MOL0     H22667   6.304   0.292   8.150  3.9463 -3.2254  0.0912
  889MOL0     H22668   5.824   0.739   8.303  1.0323  0.6265 -0.2851
  889MOL0     H22669   5.587   0.737   8.233 -0.5620  1.3667 -4.1933
  889MOL0     H22670   5.463   0.366   8.013  3.1226  0.4690  1.6223
  889MOL0     H22671   5.364   0.395   8.150  1.2509  0.7085  0.7755
  889MOL0     H22672   5.249   0.416   7.908 -1.8714  0.1664  0.4419
  889MOL0     H22673   5.348   0.558   7.894  0.4082 -0.2913 -0.1811
  889MOL0     H22674   5.210   0.626   8.132  1.0990 -1.0020 -0.1583
  889MOL0     H22675   5.164   0.680   7.971  1.0564  0.3853  1.5264
  889MOL0     H22676   5.080   0.416   8.098 -0.8400 -0.3681 -0.8639
  889MOL0     H22677   5.034   0.469   7.937  1.3879 -3.1580  0.4465
  889MOL0     H22678   4.735   0.660   8.131 -1.2238 -1.0425 -2.0455
  889MOL0     H22679   5.664   0.368   8.032  0.2685  2.0880 -1.4498
  889MOL0     H22680   5.861   0.274   7.989 -0.0470 -1.1144  0.6807
  889MOL0     H22681   5.992   0.393   7.983 -1.8014  1.3679 -1.9959
  889MOL0     H22682   5.974   0.292   8.131 -0.4202 -0.1910  0.0424
  890MOL0     O22683   0.960   0.314   0.582  0.5132 -0.1498  0.8034
  890MOL0     C22684   0.976   0.340   0.458 -0.0522 -0.1006  0.1319
  890MOL0     O22685   0.903   0.290   0.358 -0.4878  0.3984 -1.1281
  890MOL0     C22686   0.799   0.205   0.381  0.3446 -0.3816  0.4119
  890MOL0     C22687   0.679   0.265   0.436 -0.2298  0.5307  0.5066
  890MOL0     C22688   0.565   0.192   0.454  0.0339 -0.1777  0.0208
  890MOL0     C22689   0.574   0.052   0.434 -0.2037  0.5077  0.6847
  890MOL0     O22690   0.474  -0.040   0.472  0.2047  0.1733  0.6124
  890MOL0     C22691   0.347   0.015   0.493 -0.0584  0.0334  0.4184
  890MOL0     C22692   0.247  -0.100   0.520 -0.1442  0.6038  0.1740
  890MOL0     C22693   0.135  -0.079   0.624 -0.8986  0.5344 -0.0301
  890MOL0     C22694   0.065  -0.209   0.662  0.4645 -1.1701  0.3414
  890MOL0     C22695  -0.017  -0.273   0.542 -0.5000  0.0508 -0.6982
  890MOL0     C22696  -0.097  -0.387   0.594  0.8258 -0.5526 -0.6023
  890MOL0     C22697  -0.024  -0.485   0.685  0.1977  0.2003 -0.0880
  890MOL0     C22698  -0.094  -0.622   0.689  0.0262 -1.2899  0.6645
  890MOL0     N22699  -0.001  -0.731   0.720 -0.2730 -0.1870 -0.2957
  890MOL0     C22700   0.092  -0.792   0.626  0.3330 -0.2425 -0.2378
  890MOL0     C22701   0.143  -0.898   0.685  0.0773 -0.2795 -0.2704
  890MOL0     C22702   0.235  -0.991   0.632 -0.1331  0.2966  0.0144
  890MOL0     C22703   0.344  -1.045   0.726  0.0016 -0.6184  0.4628
  890MOL0     C22704   0.467  -1.085   0.638 -0.1647  0.8128  0.5787
  890MOL0     C22705   0.579  -1.103   0.738  0.4466  0.3206  0.6904
  890MOL0     O22706   0.544  -1.175   0.857 -0.7457  0.0158  0.0941
  890MOL0     C22707   0.655  -1.228   0.919 -0.6673  0.1336  0.1127
  890MOL0     C22708   0.664  -1.364   0.931 -0.1042  0.5021 -0.1040
  890MOL0     C22709   0.779  -1.440   0.962 -0.2590  0.5814 -0.0595
  890MOL0     C22710   0.767  -1.591   0.960  0.0308  0.6356  0.3641
  890MOL0     C22711   0.889  -1.364   1.001 -0.2238  0.5265  0.3048
  890MOL0     C22712   1.020  -1.430   1.044  0.0039  0.5163  0.5608
  890MOL0     O22713   1.125  -1.348   1.081 -0.4405 -0.0323  0.4012
  890MOL0     C22714   1.233  -1.398   1.147 -0.5361  0.2923 -0.1250
  890MOL0     C22715   1.219  -1.480   1.263 -0.3893 -0.2817  0.1990
  890MOL0     C22716   1.335  -1.550   1.313 -0.6291 -0.6838 -0.9494
  890MOL0     C22717   1.461  -1.530   1.256  0.0846  0.7934  0.0680
  890MOL0     O22718   1.566  -1.597   1.317 -0.4669  0.4702 -0.4845
  890MOL0     C22719   1.680  -1.636   1.233 -0.1642  0.1100 -0.2917
  890MOL0     C22720   1.767  -1.727   1.316 -0.5810  0.8879  0.1470
  890MOL0     C22721   1.787  -1.669   1.458 -0.1635 -0.0714 -0.5499
  890MOL0     C22722   1.901  -1.748   1.527 -0.0417  1.1086  0.3416
  890MOL0     C22723   1.922  -1.709   1.676  0.3349 -0.1565 -0.3795
  890MOL0     C22724   1.895  -1.563   1.705 -0.6893  0.2943  0.9343
  890MOL0     C22725   1.972  -1.505   1.832 -0.2841  1.1295 -0.4949
  890MOL0     C22726   1.933  -1.359   1.869  0.2612  0.7045  1.0312
  890MOL0    Cl22727   1.757  -1.386   1.931  0.0376 -0.1200  0.1348
  890MOL0     C22728   1.477  -1.446   1.146  0.4892 -0.0873  0.2442
  890MOL0     C22729   1.362  -1.380   1.096 -0.5693  0.3744  0.1049
  890MOL0     O22730   1.032  -1.553   1.045 -0.1118  0.7251 -0.0174
  890MOL0     C22731   0.895  -1.223   0.990  0.0563 -0.1488  0.5860
  890MOL0     C22732   0.775  -1.155   0.944  0.1322 -0.0250 -1.3074
  890MOL0     N22733   0.096  -0.905   0.817  0.5261  0.1810 -0.3852
  890MOL0     N22734   0.011  -0.803   0.833 -0.2197 -0.8569  0.4034
  890MOL0     C22735   0.694  -0.003   0.371 -0.2577 -0.4540 -0.3727
  890MOL0     C22736   0.807   0.071   0.342  0.1286 -0.6614  0.7742
  890MOL0     C22737   1.077   0.439   0.423 -0.1664 -0.4458  0.1152
  890MOL0     C22738   1.056   0.508   0.302 -0.3095 -0.5561  0.6837
  890MOL0     C22739   1.150   0.612   0.268  1.2015  0.1433 -0.2001
  890MOL0     C22740   1.253   0.643   0.348  1.4390  0.1744 -0.3546
  890MOL0     O22741   1.327   0.754   0.310  0.0238 -0.7592  0.3656
  890MOL0     C22742   1.469   0.748   0.320 -0.4900 -0.0964  0.4942
  890MOL0     C22743   1.529   0.871   0.273 -0.7834 -0.4382  0.2479
  890MOL0     C22744   1.522   0.889   0.110 -1.0613 -0.2739 -0.6368
  890MOL0     C22745   1.609   0.797   0.024  0.0675 -0.3469  0.3159
  890MOL0     C22746   1.745   0.769   0.070  0.4220 -0.1398 -0.4498
  890MOL0     C22747   1.857   0.759   0.121  0.6094 -0.7715 -0.8056
  890MOL0     C22748   1.277   0.560   0.458  0.4678 -0.2906  0.4621
  890MOL0     C22749   1.189   0.463   0.501  0.9334 -0.2730  0.0017
  890MOL0     C22750   1.234   0.401   0.631 -0.1244  0.3112  0.1360
  890MOL0     H22751   0.676   0.369   0.469 -1.7241  0.5547  0.3823
  890MOL0     H22752   0.474   0.238   0.491  0.0473  0.7999 -1.0924
  890MOL0     H22753   0.319   0.084   0.413 -0.4081 -2.3682 -1.6539
  890MOL0     H22754   0.349   0.071   0.587 -1.6374 -2.4376  2.0502
  890MOL0     H22755   0.193  -0.124   0.427 -1.9361  0.0654  1.2996
  890MOL0     H22756   0.300  -0.191   0.549  1.7221  2.3608  2.6151
  890MOL0     H22757   0.172  -0.033   0.716 -0.9068  0.6946 -0.1072
  890MOL0     H22758   0.059  -0.010   0.587  0.0201  0.9081 -1.2968
  890MOL0     H22759   0.135  -0.282   0.705 -0.7485 -0.6400  3.4783
  890MOL0     H22760  -0.001  -0.173   0.742  0.3019  0.6298 -0.5551
  890MOL0     H22761   0.056  -0.302   0.466  1.8140  1.8697  0.6645
  890MOL0     H22762  -0.080  -0.188   0.513  0.1183  0.3448 -1.2003
  890MOL0     H22763  -0.186  -0.342   0.638  0.6161  0.6120 -2.1168
  890MOL0     H22764  -0.122  -0.440   0.501  1.8152 -2.2103  0.0390
  890MOL0     H22765  -0.007  -0.451   0.788  1.3497  2.8494 -1.0589
  890MOL0     H22766   0.069  -0.510   0.632  0.2846  0.3456 -0.0058
  890MOL0     H22767  -0.172  -0.632   0.766 -0.6427 -1.1634  0.0149
  890MOL0     H22768  -0.137  -0.649   0.592  0.4603 -0.6148  0.2725
  890MOL0     H22769   0.115  -0.737   0.535  1.7099 -0.2393  0.0863
  890MOL0     H22770   0.297  -0.946   0.554  3.9415 -3.0307  0.9869
  890MOL0     H22771   0.176  -1.075   0.595  1.9675 -0.8322 -0.9614
  890MOL0     H22772   0.362  -0.968   0.802  0.5813 -2.0055  1.7815
  890MOL0     H22773   0.299  -1.132   0.775 -0.8957  0.2168  1.1492
  890MOL0     H22774   0.443  -1.170   0.575 -0.2794 -0.0352  1.7300
  890MOL0     H22775   0.495  -1.009   0.564  0.1888  2.4502  2.2843
  890MOL0     H22776   0.665  -1.145   0.684 -0.3118 -2.2801  1.3832
  890MOL0     H22777   0.604  -1.007   0.784  0.9908 -0.8610  2.9671
  890MOL0     H22778   0.574  -1.415   0.899  0.4058  1.0072 -2.6152
  890MOL0     H22779   0.768  -1.630   1.062  1.3660 -0.0265  0.1224
  890MOL0     H22780   0.839  -1.647   0.899 -1.9391  0.2839 -1.7962
  890MOL0     H22781   0.669  -1.629   0.932  0.9874 -1.7753  0.0477
  890MOL0     H22782   1.120  -1.494   1.306 -0.4315 -0.5662  0.0133
  890MOL0     H22783   1.332  -1.615   1.400  2.6705 -1.1679 -1.0897
  890MOL0     H22784   1.639  -1.693   1.149  3.3937 -1.5745 -1.0476
  890MOL0     H22785   1.742  -1.553   1.198 -1.2062 -0.4685 -3.9060
  890MOL0     H22786   1.732  -1.830   1.329  0.9926  0.0581 -1.6862
  890MOL0     H22787   1.864  -1.728   1.266  1.3345 -0.5146  3.5483
  890MOL0     H22788   1.694  -1.674   1.515  0.8078 -1.5247  1.0509
  890MOL0     H22789   1.800  -1.562   1.443  1.8096 -0.3665 -1.1940
  890MOL0     H22790   1.996  -1.724   1.479 -0.8585  0.5761 -1.6126
  890MOL0     H22791   1.884  -1.856   1.528 -1.0546  1.2326  2.1226
  890MOL0     H22792   1.853  -1.769   1.736 -2.2828  1.5431 -1.5251
  890MOL0     H22793   2.028  -1.734   1.691  0.0986 -0.4274  0.9869
  890MOL0     H22794   1.786  -1.559   1.713 -0.7937 -1.2198  0.5423
  890MOL0     H22795   1.934  -1.502   1.623 -0.0535  0.0660  1.0644
  890MOL0     H22796   2.081  -1.496   1.824  0.1599 -0.9640  1.9667
  890MOL0     H22797   1.960  -1.559   1.926 -1.6707  3.2765  0.6538
  890MOL0     H22798   1.926  -1.301   1.776  2.0843 -1.2486 -0.4096
  890MOL0     H22799   2.002  -1.311   1.938 -0.9885  0.1382  2.7527
  890MOL0     H22800   1.572  -1.426   1.098 -0.8857 -0.9856 -3.1803
  890MOL0     H22801   1.363  -1.323   1.004  2.6526  2.4431  1.2382
  890MOL0     H22802   0.989  -1.172   1.006  0.1812  0.6559 -2.2019
  890MOL0     H22803   0.774  -1.049   0.925 -0.7817  0.1603 -0.2883
  890MOL0     H22804   0.718  -0.108   0.356  2.3535 -0.3953  2.3538
  890MOL0     H22805   0.891   0.017   0.300 -0.1079 -0.4243 -0.0242
  890MOL0     H22806   0.966   0.493   0.244  0.8217 -2.4468 -0.7148
  890MOL0     H22807   1.149   0.671   0.178  1.4522  1.0722  0.3938
  890MOL0     H22808   1.497   0.740   0.426 -0.6781 -1.1592  0.4711
  890MOL0     H22809   1.499   0.657   0.267  0.8828 -1.0865  2.7831
  890MOL0     H22810   1.635   0.874   0.300 -0.6736 -0.6760 -0.1497
  890MOL0     H22811   1.483   0.963   0.312  1.6916  1.6487 -1.3526
  890MOL0     H22812   1.423   0.903   0.065 -1.5328 -0.4679  0.3216
  890MOL0     H22813   1.574   0.983   0.090 -0.1208 -1.2730 -3.3309
  890MOL0     H22814   1.606   0.837  -0.078 -2.5663  0.3637  0.6233
  890MOL0     H22815   1.559   0.700   0.020 -3.0575  1.1997 -1.1096
  890MOL0     H22816   1.956   0.756   0.162  0.6584 -0.2381 -0.8845
  890MOL0     H22817   1.367   0.578   0.517  3.2784 -1.1750 -3.1617
  890MOL0     H22818   1.188   0.306   0.660  1.6241 -0.1665  1.5136
  890MOL0     H22819   1.341   0.379   0.621 -0.3892 -0.6215 -0.8696
  890MOL0     H22820   1.234   0.470   0.716  0.0882  1.3584 -0.6967
  891MOL0     O22821   2.868   2.280   3.732 -0.5973  0.3320  0.0176
  891MOL0     C22822   2.852   2.164   3.709 -0.3206 -0.5664  0.9033
  891MOL0     O22823   2.938   2.088   3.641 -0.3043  0.7948 -0.7020
  891MOL0     C22824   3.056   2.140   3.596 -0.2776  0.0333 -0.0749
  891MOL0     C22825   3.048   2.236   3.495  0.1788  0.1966  0.6141
  891MOL0     C22826   3.169   2.280   3.435 -0.0131  0.8602  0.2512
  891MOL0     C22827   3.293   2.218   3.465 -0.0613 -1.2717  0.0125
  891MOL0     O22828   3.410   2.253   3.398 -0.0880 -0.7009 -0.5984
  891MOL0     C22829   3.399   2.242   3.252  0.2917 -0.1137 -0.1056
  891MOL0     C22830   3.509   2.144   3.192 -0.7273 -0.3100  0.3671
  891MOL0     C22831   3.635   2.232   3.197 -0.8458 -0.8978 -0.3890
  891MOL0     C22832   3.757   2.162   3.152  0.5439  0.4661  0.1083
  891MOL0     C22833   3.888   2.242   3.165  0.3627  0.7443  0.9824
  891MOL0     C22834   3.877   2.379   3.090  0.1196  0.2551 -0.5992
  891MOL0     C22835   4.010   2.456   3.123  0.7880 -0.5754  0.2850
  891MOL0     C22836   4.022   2.605   3.078 -0.0101 -0.2511  0.1996
  891MOL0     N22837   4.156   2.657   3.098 -0.2440  1.1487 -0.3491
  891MOL0     C22838   4.203   2.684   3.230 -0.8123 -0.4655  0.2372
  891MOL0     C22839   4.338   2.703   3.212 -0.3165 -0.6661 -0.2146
  891MOL0     C22840   4.434   2.738   3.327 -0.5790 -0.3621 -0.5808
  891MOL0     C22841   4.519   2.867   3.293  0.1196 -0.8233 -0.9249
  891MOL0     C22842   4.614   2.897   3.409  0.5356  0.8509 -0.7126
  891MOL0     C22843   4.667   3.044   3.403  0.5867  0.2532  0.6436
  891MOL0     O22844   4.796   3.040   3.469  0.0433 -0.3300 -0.0422
  891MOL0     C22845   4.893   3.130   3.423  0.7818 -0.6573  0.6704
  891MOL0     C22846   4.961   3.107   3.304 -0.2408  0.5770  0.5073
  891MOL0     C22847   5.078   3.179   3.269  0.0499 -0.4338  0.4876
  891MOL0     C22848   5.139   3.140   3.136  0.2743  0.3092 -0.1286
  891MOL0     C22849   5.125   3.282   3.355 -0.4079 -0.2549 -0.2399
  891MOL0     C22850   5.246   3.362   3.337 -0.0706  0.1795 -0.2088
  891MOL0     O22851   5.258   3.475   3.422  0.1160 -0.1848  0.5089
  891MOL0     C22852   5.350   3.567   3.404 -0.2401 -0.3803 -0.0630
  891MOL0     C22853   5.414   3.614   3.523  0.0768  0.4010  0.4729
  891MOL0     C22854   5.484   3.729   3.527  0.6096 -0.3469  0.3264
  891MOL0     C22855   5.524   3.792   3.401  1.2470  0.3282 -0.3795
  891MOL0     O22856   5.591   3.908   3.392 -0.6376 -0.1112 -0.9285
  891MOL0     C22857   5.630   3.972   3.518  0.1086 -0.6719 -0.0583
  891MOL0     C22858   5.706   4.099   3.504  0.4510 -0.1376  0.6888
  891MOL0     C22859   5.813   4.076   3.401 -0.1204 -0.0067 -0.9091
  891MOL0     C22860   5.919   4.180   3.419  0.1731 -0.0524 -0.4531
  891MOL0     C22861   6.042   4.148   3.329 -0.4856 -0.2305  0.5086
  891MOL0     C22862   6.146   4.262   3.341  0.1511 -0.0232 -0.2664
  891MOL0     C22863   6.267   4.231   3.260  0.7328 -0.0070 -0.3401
  891MOL0     C22864   6.365   4.348   3.262 -0.3413 -0.0223 -0.8527
  891MOL0    Cl22865   6.437   4.361   3.430  0.4540  0.0930  0.1872
  891MOL0     C22866   5.469   3.740   3.283 -1.0442 -0.0918 -0.4890
  891MOL0     C22867   5.371   3.633   3.281  0.2633 -0.4839 -0.3017
  891MOL0     O22868   5.332   3.327   3.258 -0.1680 -0.0119 -0.6226
  891MOL0     C22869   5.051   3.297   3.479 -0.9684 -0.3613  0.0583
  891MOL0     C22870   4.942   3.223   3.512 -0.7436  0.3379 -0.0577
  891MOL0     N22871   4.368   2.690   3.076 -0.2327  0.5470  0.2828
  891MOL0     N22872   4.258   2.671   3.017  0.1560 -0.0244 -0.0764
  891MOL0     C22873   3.300   2.126   3.565  0.4538 -0.2584 -0.0868
  891MOL0     C22874   3.181   2.087   3.634 -0.4717  0.8135  0.0186
  891MOL0     C22875   2.739   2.080   3.767 -0.0283 -0.3239  0.1507
  891MOL0     C22876   2.764   1.948   3.797  0.2736  0.5605 -0.1020
  891MOL0     C22877   2.664   1.867   3.863  0.4584  0.8005  0.6898
  891MOL0     C22878   2.547   1.919   3.903 -0.5411  0.3205 -0.7056
  891MOL0     O22879   2.464   1.843   3.977 -0.5952  0.0336 -0.0382
  891MOL0     C22880   2.483   1.788   4.105  0.7066  0.4283  0.6015
  891MOL0     C22881   2.346   1.782   4.175 -0.0492  0.4285  0.2295
  891MOL0     C22882   2.385   1.829   4.319  0.1494 -0.2548  0.5703
  891MOL0     C22883   2.266   1.807   4.420 -0.0204 -1.0984  0.2131
  891MOL0     C22884   2.165   1.905   4.378  0.4492  0.1255 -1.0194
  891MOL0     C22885   2.076   1.985   4.354  0.6207  0.2410  0.2309
  891MOL0     C22886   2.527   2.052   3.878 -0.7472  0.7319  0.8399
  891MOL0     C22887   2.620   2.126   3.806  0.3526 -0.2190  0.0903
  891MOL0     C22888   2.570   2.263   3.761 -0.9551  0.1911 -0.4714
  891MOL0     H22889   2.954   2.282   3.466  0.7830 -0.2561 -2.5032
  891MOL0     H22890   3.159   2.359   3.362  0.5386  2.0022  1.3857
  891MOL0     H22891   3.404   2.334   3.192 -2.6881 -0.2813 -0.8132
  891MOL0     H22892   3.302   2.197   3.229 -1.0213  2.4898 -0.0275
  891MOL0     H22893   3.525   2.058   3.256  0.4679 -1.8060 -1.7954
  891MOL0     H22894   3.483   2.120   3.088  1.3846 -1.6361  0.0808
  891MOL0     H22895   3.612   2.314   3.129  3.0375 -1.2256 -2.4113
  891MOL0     H22896   3.660   2.269   3.297  1.1730 -2.1853 -0.3534
  891MOL0     H22897   3.774   2.073   3.214  1.5194  2.4079  2.7927
  891MOL0     H22898   3.737   2.122   3.052  0.1456 -2.7361  1.3185
  891MOL0     H22899   3.959   2.178   3.111 -1.6641 -1.2516  0.5401
  891MOL0     H22900   3.927   2.254   3.267  0.6551  2.6429  0.6831
  891MOL0     H22901   3.866   2.356   2.983  0.4756 -0.9619 -0.3901
  891MOL0     H22902   3.789   2.441   3.110 -0.0361  0.6334 -2.2762
  891MOL0     H22903   4.097   2.402   3.083  1.9783  1.3575  0.1109
  891MOL0     H22904   4.018   2.456   3.232 -1.3147 -0.8750  0.4799
  891MOL0     H22905   4.001   2.602   2.970  2.5476 -0.6749 -0.3416
  891MOL0     H22906   3.953   2.668   3.136 -0.4130 -0.9085  0.4500
  891MOL0     H22907   4.140   2.689   3.318 -2.1936  0.4824 -0.7500
  891MOL0     H22908   4.497   2.649   3.339  1.4061  1.2574  2.2409
  891MOL0     H22909   4.369   2.758   3.412  2.2734 -0.0779  1.7171
  891MOL0     H22910   4.564   2.835   3.198  0.4887 -2.1529 -0.3314
  891MOL0     H22911   4.457   2.954   3.268  2.7936  1.2144 -0.8681
  891MOL0     H22912   4.564   2.893   3.506  1.4662 -1.3100 -0.2771
  891MOL0     H22913   4.689   2.818   3.416 -1.7965 -1.5891 -1.4377
  891MOL0     H22914   4.680   3.082   3.301  2.5459  1.7067  1.3872
  891MOL0     H22915   4.599   3.115   3.450 -1.5890  0.6510 -2.7663
  891MOL0     H22916   4.941   3.013   3.253  1.1240  0.5946 -0.1054
  891MOL0     H22917   5.248   3.143   3.141  0.2551  0.2655  0.3227
  891MOL0     H22918   5.101   3.212   3.063 -0.0771 -2.3435 -2.7635
  891MOL0     H22919   5.104   3.040   3.110  0.3921  0.5128 -1.1070
  891MOL0     H22920   5.400   3.561   3.616  0.6567 -0.0025  0.3308
  891MOL0     H22921   5.524   3.765   3.622 -0.3105  0.9228  0.2600
  891MOL0     H22922   5.541   3.988   3.580  1.6828  0.2008  2.0903
  891MOL0     H22923   5.694   3.899   3.569  0.3584 -0.7549 -0.4894
  891MOL0     H22924   5.644   4.180   3.467 -1.0891 -0.7414  1.8257
  891MOL0     H22925   5.757   4.126   3.597  1.2836 -1.6274  0.6994
  891MOL0     H22926   5.779   4.076   3.297  0.0803  1.9966 -1.0068
  891MOL0     H22927   5.857   3.978   3.423  1.3001  0.3700 -1.9495
  891MOL0     H22928   5.953   4.187   3.523 -0.1251 -0.5150 -0.3220
  891MOL0     H22929   5.889   4.282   3.394 -1.7255 -0.2241  0.9222
  891MOL0     H22930   6.091   4.062   3.377 -1.6808 -1.5411 -0.5486
  891MOL0     H22931   6.013   4.123   3.227 -2.4910  1.1896  0.6737
  891MOL0     H22932   6.165   4.281   3.447  0.7996  0.5440 -0.4746
  891MOL0     H22933   6.097   4.356   3.314 -1.9433 -0.9625  0.0920
  891MOL0     H22934   6.234   4.241   3.156  0.3991  2.1642 -0.0522
  891MOL0     H22935   6.306   4.131   3.282  0.5115  0.0910  0.5179
  891MOL0     H22936   6.312   4.442   3.244 -0.5327  0.1083  0.3135
  891MOL0     H22937   6.444   4.330   3.189  1.6693  0.0743  1.1962
  891MOL0     H22938   5.493   3.793   3.191 -0.1318  0.4640  0.0521
  891MOL0     H22939   5.323   3.600   3.190 -1.6645  0.8947  0.1522
  891MOL0     H22940   5.082   3.374   3.549 -3.6579  0.3567  0.5874
  891MOL0     H22941   4.893   3.233   3.609 -0.4132 -0.5114  0.2035
  891MOL0     H22942   3.394   2.081   3.595  1.3394  0.6520 -1.3902
  891MOL0     H22943   3.194   2.022   3.720  1.9235 -0.7649 -1.3927
  891MOL0     H22944   2.858   1.898   3.777 -1.6238 -2.7227 -1.8831
  891MOL0     H22945   2.692   1.763   3.875  0.2275  0.7659  0.9473
  891MOL0     H22946   2.530   1.690   4.094  1.9902  1.1407 -0.5418
  891MOL0     H22947   2.556   1.857   4.148  2.5805 -0.0013 -1.6842
  891MOL0     H22948   2.297   1.685   4.163  3.5066 -1.3444 -1.3992
  891MOL0     H22949   2.286   1.857   4.125  0.6758 -0.5723 -2.3134
  891MOL0     H22950   2.474   1.773   4.349 -0.8426 -1.0534  2.1474
  891MOL0     H22951   2.417   1.934   4.326 -1.5247  0.2726  0.8845
  891MOL0     H22952   2.295   1.830   4.523 -2.2683  1.8658  0.3174
  891MOL0     H22953   2.233   1.702   4.417  2.0532 -1.7749 -0.1347
  891MOL0     H22954   2.008   2.064   4.333 -0.3122 -0.1811  1.5311
  891MOL0     H22955   2.427   2.090   3.897 -0.1298  1.9305  1.8335
  891MOL0     H22956   2.465   2.266   3.731 -1.1751  1.1348  0.3365
  891MOL0     H22957   2.574   2.330   3.847 -3.1351 -1.6781  1.2148
  891MOL0     H22958   2.627   2.294   3.673  2.7818  2.2287  2.3356
  892MOL0     O22959   4.877   5.431   7.880 -0.6763 -0.1308  0.0499
  892MOL0     C22960   4.878   5.315   7.913  0.5861  0.3075  0.6288
  892MOL0     O22961   4.768   5.216   7.888  0.0875 -0.6236  0.7351
  892MOL0     C22962   4.660   5.261   7.813  0.2845 -0.6102  0.3296
  892MOL0     C22963   4.667   5.318   7.691  0.3157  0.0857  0.4299
  892MOL0     C22964   4.545   5.349   7.618  0.7889  0.4798 -0.2641
  892MOL0     C22965   4.419   5.313   7.662  0.0734 -0.4167  1.0411
  892MOL0     O22966   4.313   5.354   7.585 -0.0181  0.6538 -0.4396
  892MOL0     C22967   4.200   5.420   7.657  1.1700 -0.5986 -0.4461
  892MOL0     C22968   4.087   5.432   7.561  0.3618 -0.4799 -0.0977
  892MOL0     C22969   3.984   5.520   7.635  0.1429 -0.0143 -0.1752
  892MOL0     C22970   3.854   5.557   7.560  0.3832  0.3658  0.2577
  892MOL0     C22971   3.876   5.603   7.415  0.3920  0.6532 -0.4857
  892MOL0     C22972   3.740   5.615   7.359  0.1435  0.3034 -0.1672
  892MOL0     C22973   3.747   5.626   7.205  0.0464  0.3020 -0.0504
  892MOL0     C22974   3.642   5.729   7.154 -0.1132 -0.6120 -0.7572
  892MOL0     N22975   3.688   5.865   7.187  0.1794  0.5549  0.0205
  892MOL0     C22976   3.800   5.927   7.140 -0.1339  0.6035 -0.0744
  892MOL0     C22977   3.813   6.025   7.234 -0.5307  0.4431  0.5472
  892MOL0     C22978   3.921   6.134   7.240  0.0141 -0.7259 -0.4677
  892MOL0     C22979   4.054   6.085   7.192 -1.3848 -0.1515  1.3795
  892MOL0     C22980   4.164   6.198   7.186 -0.1827  1.1895 -1.0525
  892MOL0     C22981   4.219   6.207   7.328  0.8241  0.5464  0.4812
  892MOL0     O22982   4.290   6.085   7.357  0.0089 -0.0793 -0.1876
  892MOL0     C22983   4.353   6.091   7.476  0.9394  0.0404 -0.0270
  892MOL0     C22984   4.446   6.188   7.489 -0.9949  1.5250 -0.2799
  892MOL0     C22985   4.521   6.208   7.604  0.1638  0.2295  0.5441
  892MOL0     C22986   4.617   6.330   7.600 -0.2389 -0.8223 -0.3393
  892MOL0     C22987   4.494   6.111   7.709 -0.4492  0.0349  0.0231
  892MOL0     C22988   4.550   6.120   7.847 -0.2622 -0.6043  0.1089
  892MOL0     O22989   4.507   6.037   7.947  0.5772 -0.0808 -0.3008
  892MOL0     C22990   4.558   6.042   8.074 -1.0832 -0.2047  0.3215
  892MOL0     C22991   4.691   6.054   8.095  0.7543 -0.0407  0.2061
  892MOL0     C22992   4.744   6.052   8.225  0.2783 -0.6858  0.4196
  892MOL0     C22993   4.662   6.058   8.342 -0.6308  0.0883  0.7549
  892MOL0     O22994   4.729   6.080   8.463 -0.2124 -0.2433  0.6103
  892MOL0     C22995   4.652   6.130   8.562  0.6724 -0.3407 -0.5240
  892MOL0     C22996   4.749   6.174   8.675 -0.4296 -0.0232  0.8278
  892MOL0     C22997   4.678   6.198   8.809  0.3239  0.8973 -0.0808
  892MOL0     C22998   4.751   6.129   8.920 -0.0561 -0.0854 -0.2688
  892MOL0     C22999   4.692   6.156   9.054 -0.4615  0.0614  0.1885
  892MOL0     C23000   4.539   6.122   9.070  1.1161 -0.1221  0.0031
  892MOL0     C23001   4.504   5.974   9.059  0.9112 -0.1982  1.0930
  892MOL0     C23002   4.352   5.964   9.022 -0.3662 -0.2659 -0.5371
  892MOL0    Cl23003   4.300   5.812   8.966 -0.4864 -0.4929  0.3795
  892MOL0     C23004   4.526   6.044   8.316 -0.1263  0.1253 -0.0553
  892MOL0     C23005   4.485   6.022   8.183 -0.2623  0.1231 -0.5125
  892MOL0     O23006   4.628   6.210   7.864  0.3196 -0.0838  0.1150
  892MOL0     C23007   4.406   6.006   7.691 -0.8344 -0.7562  0.0826
  892MOL0     C23008   4.331   6.002   7.576  0.5947  0.2762 -0.6046
  892MOL0     N23009   3.712   6.024   7.316  0.4131  0.0961  0.1774
  892MOL0     N23010   3.642   5.919   7.302  0.6121  0.0006  1.3047
  892MOL0     C23011   4.407   5.237   7.785 -0.5175 -0.7788  0.1083
  892MOL0     C23012   4.536   5.219   7.856 -0.2978  0.0267 -0.4482
  892MOL0     C23013   4.985   5.276   8.006  0.6747  0.2592 -0.4926
  892MOL0     C23014   4.983   5.140   8.058  0.0966 -0.0527  0.2743
  892MOL0     C23015   5.082   5.092   8.145 -0.4745 -0.6532 -0.9358
  892MOL0     C23016   5.204   5.157   8.158 -0.2146 -0.3842 -0.2062
  892MOL0     O23017   5.317   5.120   8.233 -0.9644 -0.0120  0.1602
  892MOL0     C23018   5.345   4.990   8.278 -0.9651 -0.2534 -0.1197
  892MOL0     C23019   5.315   5.001   8.428  0.5690  0.3689 -0.6208
  892MOL0     C23020   5.315   4.862   8.495 -0.4943 -0.2730 -0.4090
  892MOL0     C23021   5.464   4.801   8.511  0.1196 -0.7582 -1.2060
  892MOL0     C23022   5.545   4.891   8.597 -0.1340  0.0579  0.0206
  892MOL0     C23023   5.591   4.976   8.669 -0.1995 -0.5145  1.0977
  892MOL0     C23024   5.206   5.290   8.119  0.4727 -0.1844 -0.5052
  892MOL0     C23025   5.101   5.350   8.041  0.0572  0.7696  0.7988
  892MOL0     C23026   5.124   5.487   7.995  0.0241 -0.6521  0.8061
  892MOL0     H23027   4.760   5.351   7.647  1.1582 -0.3694  1.8289
  892MOL0     H23028   4.554   5.379   7.514  1.1582  1.4130  0.0236
  892MOL0     H23029   4.235   5.515   7.697  1.2128 -0.2248 -1.3316
  892MOL0     H23030   4.165   5.359   7.740 -0.6459  1.0121  0.0301
  892MOL0     H23031   4.125   5.480   7.470  2.4058  0.3742  1.1468
  892MOL0     H23032   4.044   5.333   7.548  2.3812 -1.3023 -1.0146
  892MOL0     H23033   3.966   5.491   7.739  1.6006  0.7979  0.3394
  892MOL0     H23034   4.024   5.622   7.644 -0.1691  0.1954 -1.1195
  892MOL0     H23035   3.787   5.471   7.556  1.8497 -0.8708  1.2307
  892MOL0     H23036   3.803   5.642   7.606 -0.3650  0.6424 -1.0312
  892MOL0     H23037   3.935   5.528   7.361  0.9970 -0.5800  1.7394
  892MOL0     H23038   3.920   5.702   7.402 -0.6292  1.0245 -1.2263
  892MOL0     H23039   3.679   5.525   7.369 -3.6529  2.6827 -0.1458
  892MOL0     H23040   3.688   5.697   7.408 -1.9059 -0.4318 -1.0179
  892MOL0     H23041   3.709   5.532   7.163  0.0387  1.1239 -1.9920
  892MOL0     H23042   3.851   5.650   7.182  0.5918 -0.1602  1.7896
  892MOL0     H23043   3.629   5.720   7.046 -0.8108  2.5680 -1.0413
  892MOL0     H23044   3.546   5.708   7.202  0.0662  0.1319 -0.0369
  892MOL0     H23045   3.870   5.903   7.060 -1.2717 -3.6285 -0.0516
  892MOL0     H23046   3.919   6.172   7.343 -0.9385 -2.9214  0.4023
  892MOL0     H23047   3.885   6.229   7.199  0.0299 -0.2408  0.5874
  892MOL0     H23048   4.089   6.005   7.257 -0.2611 -1.0386 -0.2291
  892MOL0     H23049   4.052   6.052   7.087  3.3054  3.6290 -0.2703
  892MOL0     H23050   4.248   6.165   7.125 -0.3342 -0.6717 -0.3040
  892MOL0     H23051   4.130   6.296   7.149  1.7593  2.6293  0.8046
  892MOL0     H23052   4.278   6.299   7.330 -1.2255  2.0391 -1.7634
  892MOL0     H23053   4.139   6.213   7.402 -0.9289  0.6676 -1.3471
  892MOL0     H23054   4.469   6.260   7.411 -0.5592 -1.6368 -3.2668
  892MOL0     H23055   4.697   6.326   7.674  2.8614  2.4501 -3.1016
  892MOL0     H23056   4.566   6.426   7.618  0.7848  0.1668 -2.3871
  892MOL0     H23057   4.668   6.334   7.504 -2.7326 -0.7953 -1.7357
  892MOL0     H23058   4.760   6.062   8.011 -0.2519  0.2762 -0.6119
  892MOL0     H23059   4.851   6.061   8.241  0.0766 -0.1361  1.5775
  892MOL0     H23060   4.610   6.224   8.524 -0.5855 -0.5132  0.3585
  892MOL0     H23061   4.574   6.062   8.596 -0.1138 -0.2608 -2.0830
  892MOL0     H23062   4.821   6.092   8.675  1.9910  1.6192 -4.7298
  892MOL0     H23063   4.789   6.271   8.645 -2.2710  0.4175 -0.3819
  892MOL0     H23064   4.573   6.171   8.794  0.5018  1.4195 -2.8381
  892MOL0     H23065   4.679   6.305   8.831 -1.1027  1.1988 -1.2972
  892MOL0     H23066   4.852   6.169   8.931  0.6809 -1.8533 -0.2672
  892MOL0     H23067   4.753   6.021   8.902 -3.2431 -0.3258  0.2453
  892MOL0     H23068   4.745   6.086   9.119 -0.3180 -0.5559 -0.5763
  892MOL0     H23069   4.718   6.256   9.091  0.3915  0.2570 -0.8787
  892MOL0     H23070   4.477   6.174   8.995 -0.1433 -0.1799  0.9638
  892MOL0     H23071   4.506   6.161   9.167  0.4128  0.6551 -0.5279
  892MOL0     H23072   4.525   5.924   9.154 -0.4061  0.5590  1.8024
  892MOL0     H23073   4.555   5.934   8.971  0.4189 -0.2135  0.8094
  892MOL0     H23074   4.338   6.028   8.934 -1.8977 -0.2699 -0.3072
  892MOL0     H23075   4.292   5.978   9.112  2.9252 -1.5045  2.0768
  892MOL0     H23076   4.458   6.040   8.400  2.4087 -0.8272  2.0738
  892MOL0     H23077   4.383   5.986   8.175  0.3929 -1.5173 -2.2684
  892MOL0     H23078   4.383   5.931   7.766 -1.7758  0.3999  0.9809
  892MOL0     H23079   4.249   5.932   7.562  0.0469  1.1188 -1.6992
  892MOL0     H23080   4.305   5.218   7.818 -0.4272 -0.2301  0.7253
  892MOL0     H23081   4.527   5.169   7.952  1.0893  1.2428  0.3709
  892MOL0     H23082   4.896   5.078   8.035  2.2173 -2.6823 -1.3061
  892MOL0     H23083   5.072   4.998   8.198  0.5911 -1.2875 -1.7976
  892MOL0     H23084   5.290   4.909   8.229 -0.1510 -0.5032 -0.6402
  892MOL0     H23085   5.451   4.976   8.256 -0.4988  1.8484  0.4982
  892MOL0     H23086   5.217   5.049   8.426  0.2424 -0.2903 -0.4079
  892MOL0     H23087   5.384   5.059   8.490 -0.7399 -1.2773  2.6033
  892MOL0     H23088   5.269   4.874   8.594 -1.9103 -1.9124 -0.8166
  892MOL0     H23089   5.253   4.790   8.441 -1.3172  0.5651 -0.6017
  892MOL0     H23090   5.506   4.780   8.412 -0.4292 -2.4317 -1.1199
  892MOL0     H23091   5.450   4.711   8.572 -0.9894  1.4736  2.0760
  892MOL0     H23092   5.636   5.055   8.726 -0.4955  1.0368 -0.7108
  892MOL0     H23093   5.300   5.339   8.145  1.3494 -1.3806 -1.3270
  892MOL0     H23094   5.144   5.480   7.888 -2.1182  0.5364  0.2879
  892MOL0     H23095   5.039   5.550   8.019  1.2677  0.8323  1.4564
  892MOL0     H23096   5.208   5.533   8.049  0.4979  0.1963 -0.6054
  893MOL0     O23097   3.861   7.203   1.839  0.2228  0.0943 -1.1580
  893MOL0     C23098   3.758   7.266   1.863  0.1439  0.5282 -0.1966
  893MOL0     O23099   3.696   7.345   1.764  0.3207  0.5372 -0.5977
  893MOL0     C23100   3.748   7.348   1.638 -0.8621  0.0726 -0.1415
  893MOL0     C23101   3.843   7.442   1.597  0.4732 -0.4722 -0.0537
  893MOL0     C23102   3.888   7.440   1.464 -0.3391 -0.1609 -0.3941
  893MOL0     C23103   3.848   7.340   1.372  0.6653  0.1478 -0.5262
  893MOL0     O23104   3.881   7.336   1.241  0.1227  0.6038 -0.2079
  893MOL0     C23105   3.915   7.448   1.160 -0.0655  0.0644 -0.4779
  893MOL0     C23106   4.069   7.473   1.174 -0.1661 -0.1463 -0.1029
  893MOL0     C23107   4.154   7.358   1.117  0.1265 -0.7786 -0.3946
  893MOL0     C23108   4.301   7.392   1.146 -0.1379 -0.2219 -0.6642
  893MOL0     C23109   4.402   7.290   1.097 -0.4002 -0.1770  0.1903
  893MOL0     C23110   4.361   7.149   1.136 -0.7422  0.3745 -0.2005
  893MOL0     C23111   4.483   7.053   1.140 -0.2793 -0.5189  0.7555
  893MOL0     C23112   4.421   6.918   1.171 -0.3661  0.1354  1.1478
  893MOL0     N23113   4.507   6.809   1.141  0.7345 -0.0016  0.5341
  893MOL0     C23114   4.580   6.739   1.234  0.5621 -0.3551 -0.0670
  893MOL0     C23115   4.668   6.661   1.161  0.5168  0.1610 -0.1864
  893MOL0     C23116   4.759   6.567   1.236  0.1344 -0.0291  0.6974
  893MOL0     C23117   4.824   6.455   1.159 -0.4135  0.8902 -0.2086
  893MOL0     C23118   4.947   6.398   1.242 -0.4538 -0.9105  0.0259
  893MOL0     C23119   5.068   6.489   1.230  0.2235 -0.2056 -0.2949
  893MOL0     O23120   5.122   6.487   1.097 -0.5917 -0.4266  0.0024
  893MOL0     C23121   5.246   6.432   1.070 -0.1226  0.4241  0.5070
  893MOL0     C23122   5.325   6.462   0.959  0.1276  0.0810  0.0315
  893MOL0     C23123   5.441   6.408   0.914 -1.5530  0.1533  0.3526
  893MOL0     C23124   5.506   6.472   0.793 -0.4551  0.0066  0.2606
  893MOL0     C23125   5.498   6.312   1.003 -0.4387 -0.3108  1.2231
  893MOL0     C23126   5.636   6.259   0.999 -0.0981  0.9260  0.1859
  893MOL0     O23127   5.733   6.337   0.939  0.4095  0.5285  0.2845
  893MOL0     C23128   5.863   6.309   0.945 -0.2599 -0.2450  0.2881
  893MOL0     C23129   5.943   6.393   1.023 -0.4194 -0.1855  0.3125
  893MOL0     C23130   6.081   6.376   1.028  0.2337 -0.3104 -0.4307
  893MOL0     C23131   6.137   6.274   0.951 -0.3545 -0.4141 -1.5182
  893MOL0     O23132   6.269   6.254   0.917 -0.4244  0.3888  0.2977
  893MOL0     C23133   6.366   6.335   0.989  0.4348 -0.4502 -0.1843
  893MOL0     C23134   6.505   6.315   0.918  0.6817  0.3084 -0.1387
  893MOL0     C23135   6.500   6.316   0.768 -0.1422  1.0329 -0.2514
  893MOL0     C23136   6.640   6.368   0.708 -0.5558  0.2360  0.3438
  893MOL0     C23137   6.754   6.262   0.710 -0.5393  0.2337  0.0506
  893MOL0     C23138   6.878   6.308   0.644  0.7188 -0.2067 -0.1467
  893MOL0     C23139   6.962   6.187   0.601  0.8778 -0.0166  0.6045
  893MOL0     C23140   7.076   6.230   0.515  0.3605  0.5044 -1.0424
  893MOL0    Cl23141   7.196   6.333   0.606  0.0799  0.3514  0.3247
  893MOL0     C23142   6.059   6.204   0.868 -0.8283  0.5847 -0.3968
  893MOL0     C23143   5.922   6.217   0.859  0.2016  0.0151 -0.3444
  893MOL0     O23144   5.658   6.160   1.065 -0.8623  0.2640  0.2937
  893MOL0     C23145   5.414   6.270   1.109 -0.5545 -0.3774 -0.5929
  893MOL0     C23146   5.290   6.321   1.139 -0.7993 -0.1577  0.4744
  893MOL0     N23147   4.637   6.675   1.027  0.7105  0.1591 -0.1228
  893MOL0     N23148   4.542   6.761   1.012 -0.2247 -0.3787  0.2828
  893MOL0     C23149   3.761   7.237   1.421 -0.5827  0.0296  0.0873
  893MOL0     C23150   3.713   7.247   1.547  1.2623  0.2860  0.3603
  893MOL0     C23151   3.679   7.230   1.979 -0.0524  0.0899  0.3856
  893MOL0     C23152   3.547   7.279   1.990  0.1479  0.0679  0.2183
  893MOL0     C23153   3.476   7.248   2.111 -0.1785 -0.3821 -0.2157
  893MOL0     C23154   3.524   7.171   2.216  0.2641  0.8859 -0.1077
  893MOL0     O23155   3.455   7.139   2.326  0.5170  0.6830 -0.7779
  893MOL0     C23156   3.329   7.212   2.358  0.4001  0.2222  0.1388
  893MOL0     C23157   3.357   7.348   2.419 -0.1025  0.7099  1.2585
  893MOL0     C23158   3.235   7.446   2.408 -0.2046 -0.3635 -0.4703
  893MOL0     C23159   3.203   7.489   2.266  0.6760 -0.6952 -0.0450
  893MOL0     C23160   3.319   7.534   2.185 -0.4208 -0.3085  0.4055
  893MOL0     C23161   3.416   7.571   2.114  1.2436 -0.7277 -0.3380
  893MOL0     C23162   3.653   7.120   2.191 -0.2392  0.0761 -1.0717
  893MOL0     C23163   3.732   7.153   2.081  1.1485 -0.7600 -0.2307
  893MOL0     C23164   3.878   7.111   2.089  0.1318 -0.0412  0.3889
  893MOL0     H23165   3.877   7.513   1.672 -0.4719 -0.2030  0.1322
  893MOL0     H23166   3.961   7.513   1.430  0.2910 -0.0051  1.1957
  893MOL0     H23167   3.862   7.530   1.209  0.5991 -0.0542  0.4860
  893MOL0     H23168   3.875   7.441   1.059 -0.2017  2.9039 -0.7009
  893MOL0     H23169   4.091   7.569   1.128  0.3355 -0.0277  0.3642
  893MOL0     H23170   4.096   7.481   1.280  1.5633 -1.6936 -0.3824
  893MOL0     H23171   4.121   7.265   1.165 -1.1075 -0.2022 -0.0734
  893MOL0     H23172   4.128   7.354   1.011  1.3181  1.8853 -0.8570
  893MOL0     H23173   4.337   7.494   1.127 -1.1014  0.1672 -0.4469
  893MOL0     H23174   4.295   7.388   1.255 -0.0440  1.8493 -0.5527
  893MOL0     H23175   4.498   7.308   1.147  0.5009 -1.1990 -1.0980
  893MOL0     H23176   4.412   7.281   0.989  1.3672 -0.5972  0.3468
  893MOL0     H23177   4.312   7.144   1.234 -1.8673 -4.0538 -0.7568
  893MOL0     H23178   4.291   7.103   1.065  1.0849 -4.7467  0.8446
  893MOL0     H23179   4.566   7.079   1.207  0.9903  0.0197 -0.9485
  893MOL0     H23180   4.531   7.053   1.041 -1.0151  0.8336  0.3808
  893MOL0     H23181   4.390   6.906   1.276  0.4466  0.5262  1.4428
  893MOL0     H23182   4.332   6.905   1.109  1.6478  1.0524 -2.1806
  893MOL0     H23183   4.571   6.743   1.342  0.1513 -2.3623  0.0093
  893MOL0     H23184   4.704   6.515   1.315  2.4637 -0.7881  1.9178
  893MOL0     H23185   4.827   6.638   1.287  0.7544  0.3119 -0.5711
  893MOL0     H23186   4.754   6.371   1.154 -0.4817  0.7887  1.5728
  893MOL0     H23187   4.867   6.482   1.062  1.7489 -0.6040  0.2568
  893MOL0     H23188   4.922   6.397   1.349 -0.1389  4.7151  0.4320
  893MOL0     H23189   4.972   6.301   1.199  1.4544  0.4909 -2.2862
  893MOL0     H23190   5.041   6.593   1.251  0.4884  0.2838 -2.1492
  893MOL0     H23191   5.153   6.476   1.297  1.5615  0.6600 -1.7543
  893MOL0     H23192   5.283   6.532   0.888  0.3318 -2.3760 -2.6944
  893MOL0     H23193   5.615   6.479   0.798 -0.4887  2.1654 -0.5917
  893MOL0     H23194   5.477   6.577   0.782 -0.5234 -0.1864 -1.7680
  893MOL0     H23195   5.476   6.428   0.697  1.2865  0.4515 -0.5179
  893MOL0     H23196   5.899   6.472   1.084 -0.7730  1.5696 -2.0601
  893MOL0     H23197   6.149   6.447   1.075 -0.2950  0.8502 -1.3679
  893MOL0     H23198   6.360   6.444   0.982  0.1371 -0.2629  2.1447
  893MOL0     H23199   6.371   6.295   1.091 -1.8221 -1.7857 -0.5326
  893MOL0     H23200   6.579   6.388   0.953 -1.4455  1.9361  1.2127
  893MOL0     H23201   6.529   6.213   0.951  0.4154  0.0461 -0.7305
  893MOL0     H23202   6.416   6.377   0.733  1.2326  3.1269 -0.0825
  893MOL0     H23203   6.480   6.218   0.723  0.8816  2.7344 -4.9947
  893MOL0     H23204   6.672   6.465   0.748  0.6095 -0.1570  0.3948
  893MOL0     H23205   6.615   6.386   0.603  0.4044  0.9980  0.2311
  893MOL0     H23206   6.761   6.233   0.815 -1.6653 -5.1534 -1.0891
  893MOL0     H23207   6.723   6.171   0.658 -0.4979  0.0864  0.2821
  893MOL0     H23208   6.930   6.380   0.709  0.8495  1.2153 -1.7573
  893MOL0     H23209   6.844   6.366   0.558 -2.0931 -1.0866  0.2936
  893MOL0     H23210   6.898   6.134   0.529  1.3077  1.4640 -0.9284
  893MOL0     H23211   6.998   6.126   0.685  2.6960 -0.2594 -0.3002
  893MOL0     H23212   7.036   6.300   0.440 -1.5081  0.0369 -0.5141
  893MOL0     H23213   7.123   6.142   0.469  0.8435 -0.4238  1.1422
  893MOL0     H23214   6.101   6.121   0.812 -0.2205 -1.1893  2.4965
  893MOL0     H23215   5.863   6.163   0.786  0.0903  0.4721 -0.5968
  893MOL0     H23216   5.437   6.183   1.171 -0.8726 -0.6478 -0.8557
  893MOL0     H23217   5.227   6.285   1.219 -1.0352 -1.4012 -0.2433
  893MOL0     H23218   3.728   7.166   1.346 -0.6316  1.9452 -1.7986
  893MOL0     H23219   3.631   7.185   1.584  1.8223 -0.1054  0.9715
  893MOL0     H23220   3.508   7.346   1.914  0.5906 -0.4852 -0.4998
  893MOL0     H23221   3.379   7.296   2.120  1.5796  3.9715 -1.3111
  893MOL0     H23222   3.266   7.223   2.269 -1.4552 -1.7288  1.1193
  893MOL0     H23223   3.270   7.153   2.428  0.8043 -1.0228 -0.5401
  893MOL0     H23224   3.452   7.384   2.379  0.0913  0.1482  1.2074
  893MOL0     H23225   3.370   7.342   2.527 -0.9576 -0.4510  1.3091
  893MOL0     H23226   3.150   7.391   2.449 -0.9604  1.6465  0.8105
  893MOL0     H23227   3.251   7.537   2.466  0.4262 -0.5993 -0.2631
  893MOL0     H23228   3.130   7.569   2.280  3.5648  1.7591  2.5236
  893MOL0     H23229   3.156   7.404   2.214 -0.2258 -0.5511  0.5046
  893MOL0     H23230   3.492   7.600   2.045  1.2722 -1.7131 -0.7322
  893MOL0     H23231   3.701   7.056   2.265  0.6091 -0.9503 -2.4445
  893MOL0     H23232   3.937   7.202   2.085 -1.1053  0.7615 -0.4764
  893MOL0     H23233   3.886   7.058   2.184  3.0831  1.0682  0.8639
  893MOL0     H23234   3.911   7.035   2.018 -0.9779 -3.9485  3.6909
  894MOL0     O23235   8.128   3.338   0.824 -0.2591  0.6976 -1.1162
  894MOL0     C23236   8.071   3.425   0.761 -0.8794  0.6759  0.1344
  894MOL0     O23237   7.957   3.410   0.695 -0.4393 -0.1660  0.2435
  894MOL0     C23238   7.884   3.289   0.708  0.0087  0.2105 -0.4448
  894MOL0     C23239   7.944   3.160   0.684  0.2396 -0.0957  1.0872
  894MOL0     C23240   7.859   3.047   0.686 -0.1819  0.1483 -0.5607
  894MOL0     C23241   7.721   3.061   0.708  0.5490  0.4739 -1.3352
  894MOL0     O23242   7.633   2.954   0.696 -0.1007  0.1506  0.8252
  894MOL0     C23243   7.495   2.971   0.677 -0.1185  0.3696  0.4019
  894MOL0     C23244   7.439   2.841   0.615 -0.3129  0.4138  0.3341
  894MOL0     C23245   7.485   2.791   0.477 -0.0772  0.8590  0.0482
  894MOL0     C23246   7.451   2.639   0.466  0.1413  0.1250 -0.2866
  894MOL0     C23247   7.414   2.577   0.320  1.0426 -1.0137 -1.0358
  894MOL0     C23248   7.537   2.600   0.222 -0.6485 -0.2799  0.4102
  894MOL0     C23249   7.669   2.543   0.276  0.1325 -0.2708  0.8202
  894MOL0     C23250   7.780   2.576   0.166  0.0105 -0.1800 -0.1279
  894MOL0     N23251   7.913   2.562   0.227  0.1363 -0.3652 -0.8454
  894MOL0     C23252   7.958   2.446   0.279 -0.4247  0.3590 -0.9252
  894MOL0     C23253   8.076   2.470   0.337  0.6022  0.1614 -0.2649
  894MOL0     C23254   8.171   2.382   0.419 -0.3398  0.1455  0.4384
  894MOL0     C23255   8.191   2.438   0.566 -0.5735  0.0855  0.4320
  894MOL0     C23256   8.082   2.389   0.666  0.1779  0.3142  0.1495
  894MOL0     C23257   8.131   2.410   0.811  0.0138  0.9762  0.3906
  894MOL0     O23258   8.266   2.373   0.825 -0.0025 -0.3957  0.6224
  894MOL0     C23259   8.354   2.466   0.875 -0.7881 -0.0373  0.5046
  894MOL0     C23260   8.460   2.424   0.958  0.0058 -0.3694 -0.1485
  894MOL0     C23261   8.559   2.509   1.009  0.0969 -0.0004 -0.6676
  894MOL0     C23262   8.670   2.440   1.086  0.0610 -0.0738 -0.0843
  894MOL0     C23263   8.551   2.651   0.986  0.2277  0.4737  0.7158
  894MOL0     C23264   8.649   2.749   1.048 -0.4873 -0.5790 -0.6742
  894MOL0     O23265   8.604   2.880   1.061  0.2105 -0.3262  0.0259
  894MOL0     C23266   8.646   2.978   1.148 -1.1703 -1.2861  0.7737
  894MOL0     C23267   8.616   3.115   1.129 -1.3294 -0.7697 -0.8005
  894MOL0     C23268   8.679   3.220   1.203  0.2729 -1.3557 -0.8432
  894MOL0     C23269   8.759   3.186   1.314 -0.6237  0.0393  0.8994
  894MOL0     O23270   8.837   3.268   1.384  0.5362  0.2096 -0.4365
  894MOL0     C23271   8.814   3.412   1.364 -0.3399  0.2507 -0.0218
  894MOL0     C23272   8.921   3.456   1.252  0.0809  0.4622 -0.2793
  894MOL0     C23273   8.957   3.605   1.260  0.2296  0.4160  0.0635
  894MOL0     C23274   9.086   3.643   1.174  0.3994 -0.7748 -0.5626
  894MOL0     C23275   9.126   3.792   1.199  0.1797 -0.5239  0.5260
  894MOL0     C23276   9.229   3.845   1.100 -0.6375  0.1702 -0.5753
  894MOL0     C23277   9.266   3.990   1.132 -0.5408 -0.5608  0.5933
  894MOL0     C23278   9.350   4.025   1.257  0.0274  0.3310 -0.0330
  894MOL0    Cl23279   9.485   3.897   1.263  0.8669  0.2075 -0.1392
  894MOL0     C23280   8.774   3.049   1.343 -0.0274 -0.3708 -0.7236
  894MOL0     C23281   8.726   2.940   1.269  0.1550 -0.4110  0.0956
  894MOL0     O23282   8.767   2.716   1.062 -0.1769 -0.7049 -0.2213
  894MOL0     C23283   8.451   2.688   0.904 -0.5986 -0.3474  0.0091
  894MOL0     C23284   8.349   2.605   0.849 -0.5003  1.2256 -0.0343
  894MOL0     N23285   8.100   2.607   0.325 -0.9772  0.7702 -0.0898
  894MOL0     N23286   7.992   2.661   0.267  0.0137  0.6968 -0.7281
  894MOL0     C23287   7.668   3.188   0.720  0.2252  0.0770 -0.9563
  894MOL0     C23288   7.747   3.301   0.720 -0.7272 -0.2525  0.0214
  894MOL0     C23289   8.150   3.550   0.749 -0.4129  0.1301 -0.4015
  894MOL0     C23290   8.288   3.558   0.791 -0.1083  0.2370  0.6632
  894MOL0     C23291   8.365   3.671   0.773  0.0572 -0.1877 -0.1192
  894MOL0     C23292   8.301   3.789   0.732  1.1159  0.3272  0.1194
  894MOL0     O23293   8.362   3.912   0.708  0.5408  0.2817 -0.0145
  894MOL0     C23294   8.503   3.929   0.741  0.2153  0.3984  0.1607
  894MOL0     C23295   8.556   4.073   0.735 -0.4919  0.4358 -0.2701
  894MOL0     C23296   8.556   4.127   0.592 -0.1228 -0.1745 -0.3616
  894MOL0     C23297   8.632   4.259   0.588  1.4091 -0.2128  0.1591
  894MOL0     C23298   8.614   4.315   0.457 -0.9128  0.1124  0.9119
  894MOL0     C23299   8.613   4.366   0.350  0.1203 -0.8867  0.6286
  894MOL0     C23300   8.169   3.782   0.699 -0.8139 -0.3994 -0.5011
  894MOL0     C23301   8.089   3.670   0.706 -0.4860 -0.3248  0.2193
  894MOL0     C23302   7.940   3.686   0.680  0.2231 -0.6547 -0.6452
  894MOL0     H23303   8.046   3.146   0.653 -1.0916  0.1063 -4.2465
  894MOL0     H23304   7.901   2.947   0.690  1.3510  0.7715 -0.3935
  894MOL0     H23305   7.458   3.048   0.609  1.5806  0.1357 -0.8527
  894MOL0     H23306   7.460   2.981   0.780 -0.1807  0.0845  0.4101
  894MOL0     H23307   7.463   2.761   0.686  1.6948  0.0443 -0.6910
  894MOL0     H23308   7.332   2.859   0.604  0.0856  2.0575 -1.5050
  894MOL0     H23309   7.427   2.833   0.394  1.0095  0.2363 -1.0516
  894MOL0     H23310   7.588   2.820   0.454  0.5241 -0.0119  1.5014
  894MOL0     H23311   7.527   2.578   0.516  0.2622 -0.1125 -0.7538
  894MOL0     H23312   7.368   2.612   0.532 -1.7682  0.2697 -2.4923
  894MOL0     H23313   7.329   2.636   0.285  1.5447  1.2706  1.2755
  894MOL0     H23314   7.378   2.474   0.325 -0.1232 -0.5536  1.0439
  894MOL0     H23315   7.522   2.557   0.123  0.3078 -2.1021  1.0066
  894MOL0     H23316   7.554   2.707   0.208  0.1366 -0.1611  1.9843
  894MOL0     H23317   7.634   2.440   0.287 -0.3319 -0.2421 -0.2878
  894MOL0     H23318   7.702   2.594   0.367  0.3428 -1.2904  1.3328
  894MOL0     H23319   7.778   2.514   0.076  0.6151  0.3628 -0.5284
  894MOL0     H23320   7.775   2.681   0.135 -0.6355  0.3012  1.4854
  894MOL0     H23321   7.920   2.345   0.262 -1.5869  1.1003 -3.0697
  894MOL0     H23322   8.261   2.382   0.356 -0.1768 -0.1982  0.6624
  894MOL0     H23323   8.132   2.280   0.424 -3.7970  1.3226 -0.1202
  894MOL0     H23324   8.293   2.407   0.587 -0.5387 -0.5280 -0.5752
  894MOL0     H23325   8.191   2.548   0.572  4.8363  0.4108 -0.8997
  894MOL0     H23326   7.986   2.433   0.639  0.0088 -0.1185  0.0453
  894MOL0     H23327   8.076   2.280   0.656  1.3709  0.2051  0.4640
  894MOL0     H23328   8.117   2.510   0.852 -2.0624  0.3973  1.2059
  894MOL0     H23329   8.065   2.350   0.875 -0.8380 -0.2702 -1.5811
  894MOL0     H23330   8.457   2.318   0.983  0.0998 -0.0523  1.3172
  894MOL0     H23331   8.753   2.401   1.026  0.4242 -0.2599  0.5314
  894MOL0     H23332   8.626   2.349   1.129  0.2257  0.1133  0.4872
  894MOL0     H23333   8.707   2.496   1.172 -4.1415 -0.5072  2.2555
  894MOL0     H23334   8.554   3.153   1.048  0.2560  1.5363 -1.0106
  894MOL0     H23335   8.672   3.322   1.166  1.8183 -0.1811  1.8074
  894MOL0     H23336   8.710   3.442   1.350 -0.6689 -0.6956  0.2999
  894MOL0     H23337   8.838   3.461   1.459 -2.1686 -1.6470  1.5524
  894MOL0     H23338   9.009   3.393   1.260 -1.5246 -2.2526 -2.2230
  894MOL0     H23339   8.882   3.436   1.152 -0.6827 -1.5700  0.3829
  894MOL0     H23340   8.977   3.637   1.363 -2.4755  2.3497  0.0809
  894MOL0     H23341   8.869   3.666   1.237  1.4309  2.2673  0.0939
  894MOL0     H23342   9.086   3.629   1.065  0.7238  0.6510 -0.7704
  894MOL0     H23343   9.160   3.573   1.214  0.6768  0.4070  1.0946
  894MOL0     H23344   9.040   3.860   1.198  0.1189 -0.5996  0.6058
  894MOL0     H23345   9.166   3.799   1.301  4.0967 -1.0660 -0.8154
  894MOL0     H23346   9.181   3.848   1.001 -2.9447 -0.5724  0.4536
  894MOL0     H23347   9.322   3.787   1.098 -2.4892 -3.1923  1.5275
  894MOL0     H23348   9.180   4.057   1.137 -1.1575 -1.4056  1.5051
  894MOL0     H23349   9.326   4.029   1.049  1.4998  0.7898  2.5890
  894MOL0     H23350   9.294   4.021   1.351  0.0210  1.4501  0.0173
  894MOL0     H23351   9.393   4.125   1.250 -0.6321  0.5658 -0.7744
  894MOL0     H23352   8.822   3.016   1.435 -0.7051  0.1204 -0.1784
  894MOL0     H23353   8.735   2.840   1.308 -2.9531  0.0431  2.3986
  894MOL0     H23354   8.449   2.790   0.867 -0.4279 -0.1144  0.6334
  894MOL0     H23355   8.277   2.643   0.778 -0.6013 -0.9902 -1.2075
  894MOL0     H23356   7.562   3.208   0.707  0.2120  0.5190 -0.2192
  894MOL0     H23357   7.703   3.400   0.730 -1.8656 -0.8074  0.6479
  894MOL0     H23358   8.343   3.473   0.830 -1.3307 -0.6975  0.3970
  894MOL0     H23359   8.470   3.671   0.801 -0.8208 -2.0525  3.9320
  894MOL0     H23360   8.524   3.889   0.841  0.7027 -2.0300 -0.8353
  894MOL0     H23361   8.561   3.859   0.679  0.4063 -0.1487  0.9368
  894MOL0     H23362   8.661   4.075   0.762 -0.7210  0.7997  0.6136
  894MOL0     H23363   8.495   4.133   0.803  0.2551 -0.2672  1.0361
  894MOL0     H23364   8.608   4.055   0.527 -3.6319 -0.4843 -3.1570
  894MOL0     H23365   8.452   4.137   0.562 -0.8018 -1.7814  1.2777
  894MOL0     H23366   8.731   4.228   0.622  0.9398  1.4929  3.4802
  894MOL0     H23367   8.601   4.339   0.656 -0.5869  0.9829 -1.9730
  894MOL0     H23368   8.604   4.408   0.252 -0.7664  0.0508  1.0858
  894MOL0     H23369   8.137   3.881   0.670  2.0252  1.0347  0.8715
  894MOL0     H23370   7.907   3.789   0.665 -1.5135 -1.4267 -2.5670
  894MOL0     H23371   7.922   3.633   0.586  1.5033  1.6374 -2.3070
  894MOL0     H23372   7.866   3.649   0.751 -2.4558  2.5873 -1.4569
  895MOL0     O23373   7.797   7.710  11.138 -0.1860 -0.1936 -0.3918
  895MOL0     C23374   7.701   7.784  11.105 -0.0881  0.0883  0.9190
  895MOL0     O23375   7.685   7.845  10.982 -0.9803 -0.2457 -0.0916
  895MOL0     C23376   7.788   7.888  10.903 -0.3584 -0.7311  0.2666
  895MOL0     C23377   7.742   7.949  10.788  0.4308 -0.3722  0.4368
  895MOL0     C23378   7.820   8.021  10.695  0.0738  0.2695 -0.2684
  895MOL0     C23379   7.964   8.013  10.705  0.0879  0.7426  0.3978
  895MOL0     O23380   8.046   8.068  10.604 -0.4032 -0.0364 -0.6445
  895MOL0     C23381   8.181   8.016  10.595  0.5349 -0.3523  0.2336
  895MOL0     C23382   8.165   7.887  10.507  0.0099 -0.0098 -0.7258
  895MOL0     C23383   8.306   7.856  10.449 -1.0300 -0.4953 -0.0543
  895MOL0     C23384   8.294   7.720  10.371 -0.3771  0.5438  0.8899
  895MOL0     C23385   8.434   7.699  10.299 -0.5609 -0.4490 -0.2303
  895MOL0     C23386   8.516   7.601  10.379 -0.0421 -0.0715 -0.1773
  895MOL0     C23387   8.665   7.609  10.339 -0.4651 -0.3312  0.0801
  895MOL0     C23388   8.735   7.749  10.340  0.0433  0.8518  0.0864
  895MOL0     N23389   8.882   7.725  10.346  0.0671 -0.5342 -0.0998
  895MOL0     C23390   8.949   7.728  10.467 -0.4014  0.3959  0.0633
  895MOL0     C23391   9.068   7.688  10.430 -0.4164 -0.5731  0.5595
  895MOL0     C23392   9.160   7.634  10.539  0.2202  0.5975  0.6989
  895MOL0     C23393   9.305   7.686  10.522  0.3045 -0.2967 -0.5549
  895MOL0     C23394   9.388   7.561  10.549  0.6017  0.0903 -0.1913
  895MOL0     C23395   9.532   7.579  10.511 -0.4856  0.2822 -0.1291
  895MOL0     O23396   9.607   7.648  10.616  0.5371  0.6332  0.0721
  895MOL0     C23397   9.733   7.681  10.580  0.6361 -0.4839  0.0306
  895MOL0     C23398   9.804   7.639  10.471 -0.0675 -0.6408 -0.0672
  895MOL0     C23399   9.929   7.670  10.444  0.4789 -0.0791  0.4667
  895MOL0     C23400   9.983   7.631  10.309  1.2581 -0.4447  1.1484
  895MOL0     C23401  10.005   7.755  10.529  0.2964  0.7762 -0.4481
  895MOL0     C23402  10.139   7.802  10.500  0.3340 -0.3590  0.0878
  895MOL0     O23403  10.237   7.715  10.470 -0.1942  0.4877  0.1538
  895MOL0     C23404  10.345   7.757  10.405 -0.9504 -0.5561 -0.2753
  895MOL0     C23405  10.344   7.859  10.308  0.0748 -0.1430 -0.0102
  895MOL0     C23406  10.459   7.906  10.241 -0.6806  0.4247  0.4705
  895MOL0     C23407  10.587   7.852  10.279  0.9259 -0.6071 -0.3435
  895MOL0     O23408  10.693   7.903  10.213  0.0507  0.4276 -0.1591
  895MOL0     C23409  10.780   7.807  10.163  0.3155  0.1796 -0.5066
  895MOL0     C23410  10.861   7.858  10.047  0.6191 -0.4256  0.5136
  895MOL0     C23411  10.962   7.961  10.077 -0.4684  0.3869  0.1323
  895MOL0     C23412  11.089   7.910  10.136  0.8075  0.4187 -0.4445
  895MOL0     C23413  11.169   8.000  10.226 -0.5623 -1.0994 -0.6268
  895MOL0     C23414  11.094   8.045  10.358  0.3921 -1.3290  1.0594
  895MOL0     C23415  11.183   8.150  10.438 -0.4611 -0.0793  0.1598
  895MOL0     C23416  11.111   8.233  10.547 -0.0581  0.3556 -0.5215
  895MOL0    Cl23417  11.217   8.293  10.666 -0.1266  0.1690 -0.0235
  895MOL0     C23418  10.591   7.756  10.386  0.3801 -0.4947  0.0443
  895MOL0     C23419  10.470   7.704  10.436 -0.2493  0.2389  0.4901
  895MOL0     O23420  10.142   7.922  10.504 -0.2948 -0.3773  0.1990
  895MOL0     C23421   9.937   7.800  10.644  0.1011 -0.2185  0.4917
  895MOL0     C23422   9.800   7.766  10.671  0.1265  1.1382 -0.2989
  895MOL0     N23423   9.083   7.679  10.296  0.1696  0.2009  0.4471
  895MOL0     N23424   8.969   7.712  10.249  0.6439  0.7753  0.3017
  895MOL0     C23425   8.016   7.946  10.824  0.9226 -0.0629 -0.0513
  895MOL0     C23426   7.931   7.897  10.918 -0.1837  0.3455 -1.0332
  895MOL0     C23427   7.587   7.807  11.194  0.4128  0.3225 -0.8346
  895MOL0     C23428   7.466   7.839  11.139  0.2960  0.4828 -0.0265
  895MOL0     C23429   7.345   7.851  11.217 -0.4295  0.0087  0.4053
  895MOL0     C23430   7.356   7.818  11.350 -0.2739 -0.2658 -0.0597
  895MOL0     O23431   7.247   7.836  11.426 -0.4150  0.0509 -0.1372
  895MOL0     C23432   7.192   7.964  11.443  0.0362  0.6975 -1.0202
  895MOL0     C23433   7.105   7.974  11.570  0.2935 -0.4050  0.8798
  895MOL0     C23434   6.986   7.879  11.554  0.4356 -1.0590 -0.7900
  895MOL0     C23435   6.872   7.901  11.662 -0.3657 -0.1514  0.6996
  895MOL0     C23436   6.926   7.860  11.794  0.2415  0.3581 -0.2486
  895MOL0     C23437   6.972   7.824  11.900 -0.0452  0.0932  0.9175
  895MOL0     C23438   7.474   7.770  11.404 -0.1084 -0.9363 -0.1276
  895MOL0     C23439   7.593   7.777  11.332 -0.8279  0.7183 -0.1485
  895MOL0     C23440   7.716   7.736  11.408 -0.4207 -0.1944  0.3992
  895MOL0     H23441   7.635   7.957  10.775  0.4149  1.9643  1.5360
  895MOL0     H23442   7.776   8.054  10.601 -1.4270 -1.9700 -0.4121
  895MOL0     H23443   8.218   8.007  10.697 -0.0889  2.2871  0.7562
  895MOL0     H23444   8.256   8.081  10.548 -0.7539  4.0984  3.6943
  895MOL0     H23445   8.142   7.803  10.574 -2.5451 -0.2389 -1.7928
  895MOL0     H23446   8.084   7.896  10.435 -0.6447 -1.8917 -0.2812
  895MOL0     H23447   8.321   7.935  10.375  1.8536 -1.2648 -0.3986
  895MOL0     H23448   8.388   7.852  10.521 -2.5195  1.2335  1.8516
  895MOL0     H23449   8.280   7.640  10.443 -1.6237 -0.8210 -0.7741
  895MOL0     H23450   8.209   7.711  10.302 -0.4328 -1.2989  1.1654
  895MOL0     H23451   8.491   7.792  10.296 -1.7871  0.4620  1.9126
  895MOL0     H23452   8.434   7.680  10.192 -1.1422  0.0760 -0.3302
  895MOL0     H23453   8.510   7.632  10.483  3.0563  0.1904  0.0095
  895MOL0     H23454   8.475   7.501  10.359  2.4202 -0.6176 -3.2864
  895MOL0     H23455   8.687   7.555  10.247  3.1459 -1.4374  1.4268
  895MOL0     H23456   8.716   7.546  10.413 -1.2269 -1.0852 -0.0262
  895MOL0     H23457   8.699   7.807  10.255  1.9290  0.3703 -1.1121
  895MOL0     H23458   8.703   7.802  10.429 -3.3832  1.1182 -1.1651
  895MOL0     H23459   8.893   7.748  10.558 -0.8084 -0.8879  0.1147
  895MOL0     H23460   9.157   7.526  10.526 -2.0600  0.7858 -0.8623
  895MOL0     H23461   9.126   7.656  10.641  0.6266 -1.0344  1.2114
  895MOL0     H23462   9.321   7.724  10.421 -1.2693  0.5015 -0.5374
  895MOL0     H23463   9.329   7.767  10.591  0.4277  0.1881 -1.1549
  895MOL0     H23464   9.387   7.523  10.651 -1.4452  1.4643  0.3768
  895MOL0     H23465   9.365   7.482  10.477  2.7457 -1.5706  0.8276
  895MOL0     H23466   9.583   7.483  10.498  0.2492  0.7632 -0.9356
  895MOL0     H23467   9.549   7.644  10.425  0.3439  1.2673  0.7499
  895MOL0     H23468   9.758   7.573  10.398  1.8371 -1.3271 -0.7128
  895MOL0     H23469   9.964   7.524  10.297  1.3846 -0.4840  1.2949
  895MOL0     H23470  10.091   7.646  10.303  1.0477  3.1826  3.3963
  895MOL0     H23471   9.937   7.690  10.230  1.0859 -1.1268  0.7305
  895MOL0     H23472  10.249   7.907  10.287  0.9714  1.8814  0.3586
  895MOL0     H23473  10.448   7.986  10.168  1.6669  2.5827  2.2620
  895MOL0     H23474  10.835   7.757  10.244 -3.2107 -0.5382  1.6774
  895MOL0     H23475  10.708   7.732  10.127 -1.7500  2.2056 -0.8478
  895MOL0     H23476  10.911   7.767  10.013  0.0230 -1.5711  2.5406
  895MOL0     H23477  10.801   7.895   9.963 -0.3954 -0.9193  1.0061
  895MOL0     H23478  10.904   8.033  10.134  0.3606  0.6005  0.7226
  895MOL0     H23479  10.975   8.019   9.985  2.1140 -0.4536 -0.1280
  895MOL0     H23480  11.158   7.888  10.055 -2.2763  0.0620 -3.1635
  895MOL0     H23481  11.064   7.823  10.198 -0.0296  0.9023 -0.0893
  895MOL0     H23482  11.260   7.949  10.259  0.6797  1.5633  0.2929
  895MOL0     H23483  11.187   8.091  10.168 -3.1026 -1.6567 -2.4720
  895MOL0     H23484  11.065   7.953  10.408  1.1527 -2.9289 -1.2861
  895MOL0     H23485  10.998   8.089  10.327  1.1794  0.7480  1.3957
  895MOL0     H23486  11.241   8.217  10.374 -0.2130 -1.8010 -1.5139
  895MOL0     H23487  11.270   8.099  10.481 -0.4709  2.5008  3.6408
  895MOL0     H23488  11.037   8.164  10.591 -0.2572  1.6418  1.2900
  895MOL0     H23489  11.056   8.316  10.502 -1.0888  0.8353  1.5123
  895MOL0     H23490  10.688   7.726  10.423 -0.4536 -2.6797  0.6208
  895MOL0     H23491  10.484   7.625  10.509  1.2163  1.2483  1.3451
  895MOL0     H23492   9.994   7.849  10.722 -0.0143  2.6559 -1.0801
  895MOL0     H23493   9.750   7.801  10.761 -0.4118  0.7231 -0.4379
  895MOL0     H23494   8.120   7.916  10.835  1.4137  1.4895 -0.2073
  895MOL0     H23495   7.954   7.840  11.008 -1.6379 -0.9078 -1.4142
  895MOL0     H23496   7.462   7.858  11.032  0.4916 -1.9790 -0.5313
  895MOL0     H23497   7.260   7.903  11.174  0.8246 -0.0090 -2.3373
  895MOL0     H23498   7.265   8.045  11.430  0.6124  0.1506 -1.2213
  895MOL0     H23499   7.129   7.987  11.356 -0.9691  0.5137 -0.3640
  895MOL0     H23500   7.073   8.076  11.592  1.2122 -0.0617  0.6581
  895MOL0     H23501   7.164   7.949  11.659 -0.8758 -1.6222  1.3623
  895MOL0     H23502   6.938   7.903  11.458 -2.5448 -1.4447  0.4703
  895MOL0     H23503   7.023   7.776  11.560 -2.1684 -2.2371 -2.8179
  895MOL0     H23504   6.785   7.839  11.638  1.2143 -1.4518 -2.2013
  895MOL0     H23505   6.833   8.003  11.660 -0.5722 -0.2358 -0.6533
  895MOL0     H23506   7.019   7.791  11.990  1.5400  0.0856  0.1215
  895MOL0     H23507   7.475   7.742  11.509  0.2656 -2.4226 -0.4972
  895MOL0     H23508   7.692   7.705  11.510 -2.7072  0.8595  0.2547
  895MOL0     H23509   7.770   7.651  11.365 -1.2416 -1.5289  1.9018
  895MOL0     H23510   7.777   7.826  11.399  1.0594 -1.3249 -1.6288
  896MOL0     O23511   1.620   0.603   6.889 -0.7984 -0.1117 -0.3653
  896MOL0     C23512   1.505   0.630   6.931 -0.2841 -0.1807 -0.3398
  896MOL0     O23513   1.473   0.698   7.042  0.8028  0.5193 -1.1710
  896MOL0     C23514   1.567   0.737   7.134 -0.8994  0.7903  0.7977
  896MOL0     C23515   1.696   0.689   7.157 -0.0115 -0.2716 -0.0197
  896MOL0     C23516   1.778   0.747   7.251 -0.6820  0.1918 -0.0332
  896MOL0     C23517   1.733   0.849   7.336 -0.4366 -1.1265  0.2072
  896MOL0     O23518   1.816   0.912   7.429 -0.1970  0.0744  0.0176
  896MOL0     C23519   1.847   1.051   7.406  0.5089 -0.6541 -0.1768
  896MOL0     C23520   1.902   1.117   7.528 -0.2147  0.5177 -0.1047
  896MOL0     C23521   1.786   1.170   7.622 -0.5161  0.7409 -0.2277
  896MOL0     C23522   1.848   1.209   7.768  0.5320 -0.6877 -0.2185
  896MOL0     C23523   1.912   1.095   7.848 -0.0016 -0.3330 -0.6382
  896MOL0     C23524   1.829   0.968   7.850  0.4706 -0.0781  0.2958
  896MOL0     C23525   1.889   0.858   7.938  0.4112  0.5936  1.0464
  896MOL0     C23526   1.928   0.736   7.842 -1.0080 -1.0342 -0.5530
  896MOL0     N23527   1.807   0.672   7.799  0.8132  0.1048 -0.5119
  896MOL0     C23528   1.769   0.665   7.668  0.0231  0.7891  0.8676
  896MOL0     C23529   1.658   0.582   7.667 -1.1784 -0.3952  0.0273
  896MOL0     C23530   1.585   0.533   7.549 -0.0022 -0.2785  0.6594
  896MOL0     C23531   1.461   0.459   7.580 -0.3139  0.5251  0.2819
  896MOL0     C23532   1.411   0.406   7.448 -0.0170 -0.5119 -0.3913
  896MOL0     C23533   1.284   0.323   7.460  0.4237 -0.3270  0.2823
  896MOL0     O23534   1.185   0.389   7.545  0.1555 -0.1231  0.3301
  896MOL0     C23535   1.068   0.323   7.586  0.2137  0.2253  0.0612
  896MOL0     C23536   1.017   0.213   7.527  0.1199  0.4195 -0.2770
  896MOL0     C23537   0.889   0.169   7.566 -0.3569 -0.5007  0.0871
  896MOL0     C23538   0.821   0.067   7.473 -0.1213 -0.6393  0.7496
  896MOL0     C23539   0.822   0.231   7.673  0.0180  0.0039 -0.9004
  896MOL0     C23540   0.688   0.197   7.720  0.6536 -0.1633 -0.1047
  896MOL0     O23541   0.615   0.305   7.766 -0.6215 -0.1712 -0.0269
  896MOL0     C23542   0.507   0.300   7.841 -0.0798  0.3590  0.2484
  896MOL0     C23543   0.433   0.182   7.863 -0.0180  0.2831 -0.0374
  896MOL0     C23544   0.334   0.182   7.962 -0.4410 -0.4085 -0.3328
  896MOL0     C23545   0.303   0.298   8.025  0.4482 -0.2302  0.0424
  896MOL0     O23546   0.192   0.289   8.112 -0.2965 -0.5120 -0.0062
  896MOL0     C23547   0.180   0.382   8.225 -0.1192  0.2262 -1.2028
  896MOL0     C23548   0.081   0.319   8.323  0.1651  0.8244 -0.0890
  896MOL0     C23549   0.072   0.403   8.450  0.0536  0.2915 -0.0561
  896MOL0     C23550  -0.036   0.337   8.541  0.1500  0.0981 -0.6874
  896MOL0     C23551  -0.053   0.400   8.689  0.1020 -0.0144 -0.4067
  896MOL0     C23552  -0.181   0.341   8.751  0.4636 -0.1917  0.0489
  896MOL0     C23553  -0.209   0.424   8.877  0.0400  0.0416 -0.0378
  896MOL0     C23554  -0.301   0.352   8.985  0.3684 -0.7091  0.5033
  896MOL0    Cl23555  -0.220   0.222   9.063  0.2258 -0.2547 -0.0870
  896MOL0     C23556   0.367   0.418   7.999  0.4037 -0.5619  0.6642
  896MOL0     C23557   0.464   0.421   7.903 -0.2889  0.4007  0.1447
  896MOL0     O23558   0.648   0.083   7.693  0.6896  0.2830  0.1982
  896MOL0     C23559   0.880   0.343   7.735  0.1568 -0.7675  0.4111
  896MOL0     C23560   0.999   0.389   7.692 -0.7083 -0.2246  0.0792
  896MOL0     N23561   1.633   0.546   7.798 -0.9514  1.5256  0.3707
  896MOL0     N23562   1.727   0.588   7.876 -0.5065 -0.6899 -0.8881
  896MOL0     C23563   1.609   0.911   7.311 -0.1537  1.2851 -1.0315
  896MOL0     C23564   1.528   0.840   7.221  0.6189 -1.0087 -0.5898
  896MOL0     C23565   1.392   0.584   6.844 -0.1862  0.5517  0.6601
  896MOL0     C23566   1.412   0.460   6.758  0.5636 -0.6738 -0.2629
  896MOL0     C23567   1.314   0.418   6.670  0.6171 -0.1488 -0.0665
  896MOL0     C23568   1.190   0.483   6.661 -0.5952  0.4571  0.2959
  896MOL0     O23569   1.085   0.461   6.571 -0.2708  0.5125 -0.1143
  896MOL0     C23570   1.109   0.364   6.462 -0.2554  0.2402 -0.5705
  896MOL0     C23571   1.066   0.229   6.512  0.5512 -0.5894  0.0586
  896MOL0     C23572   1.078   0.115   6.405 -0.4803  1.4371  0.9793
  896MOL0     C23573   1.027  -0.015   6.463  0.6522 -0.1319 -0.0270
  896MOL0     C23574   1.050  -0.121   6.367  0.5112  0.6406 -0.8995
  896MOL0     C23575   1.042  -0.220   6.297 -0.5794 -0.9491  0.3804
  896MOL0     C23576   1.167   0.586   6.743 -0.5991  0.0057 -0.8742
  896MOL0     C23577   1.265   0.650   6.826 -0.7661 -0.7453  0.0776
  896MOL0     C23578   1.222   0.769   6.913 -0.0305  0.0893  0.0455
  896MOL0     H23579   1.732   0.606   7.097 -1.2869 -2.2665  1.7973
  896MOL0     H23580   1.877   0.704   7.257 -1.0277 -0.6889 -0.5732
  896MOL0     H23581   1.759   1.108   7.375  0.7570  0.6746  1.3999
  896MOL0     H23582   1.917   1.058   7.323  1.4803  2.7181  0.7625
  896MOL0     H23583   1.968   1.048   7.580 -1.7250  0.0130  1.2144
  896MOL0     H23584   1.968   1.201   7.502 -0.1993  1.6347  3.1171
  896MOL0     H23585   1.753   1.261   7.571  2.0803  1.7514 -0.2454
  896MOL0     H23586   1.694   1.110   7.622 -0.6941  1.0016 -0.8542
  896MOL0     H23587   1.922   1.289   7.761  1.3756 -1.0682  2.8385
  896MOL0     H23588   1.765   1.253   7.824  0.7461 -0.7833  0.1771
  896MOL0     H23589   1.913   1.118   7.955  0.7560  2.2612 -1.1388
  896MOL0     H23590   2.016   1.080   7.817  1.0437  2.5525  1.0836
  896MOL0     H23591   1.733   0.981   7.902 -0.6591 -1.1160 -1.4380
  896MOL0     H23592   1.817   0.929   7.749 -3.9480 -2.0521  1.3036
  896MOL0     H23593   1.817   0.829   8.016 -1.5360 -1.9421 -1.4887
  896MOL0     H23594   1.981   0.902   7.977  1.0560  0.6551 -0.4980
  896MOL0     H23595   1.988   0.770   7.758 -0.6493  3.6188  1.2461
  896MOL0     H23596   1.989   0.668   7.902  0.1624 -0.7189 -1.3678
  896MOL0     H23597   1.809   0.724   7.586  1.2061 -0.5708  0.4217
  896MOL0     H23598   1.646   0.467   7.488 -0.4665  1.5277 -1.9547
  896MOL0     H23599   1.548   0.614   7.485 -2.3561 -0.7165  1.3500
  896MOL0     H23600   1.483   0.377   7.649  1.2664  1.7336  1.2957
  896MOL0     H23601   1.386   0.526   7.622 -3.3015 -1.6361 -1.2626
  896MOL0     H23602   1.392   0.487   7.377 -3.6595 -0.5280  0.3788
  896MOL0     H23603   1.485   0.336   7.407 -0.7120 -2.0597  0.9047
  896MOL0     H23604   1.249   0.307   7.358 -3.7997  1.0461  1.3343
  896MOL0     H23605   1.306   0.221   7.493  0.7493 -0.9459 -1.7366
  896MOL0     H23606   1.075   0.162   7.451  2.8272 -2.0346  3.1535
  896MOL0     H23607   0.723   0.091   7.431 -0.5877  0.8501  2.5460
  896MOL0     H23608   0.815  -0.018   7.543  0.4743  1.4128  3.4741
  896MOL0     H23609   0.882   0.046   7.385 -1.5131  1.7823 -0.8859
  896MOL0     H23610   0.454   0.085   7.818  2.6238  1.2287 -1.0121
  896MOL0     H23611   0.287   0.085   7.973  0.5365 -0.8118  0.5644
  896MOL0     H23612   0.278   0.387   8.273  0.3863  1.6466 -2.3050
  896MOL0     H23613   0.151   0.480   8.187 -2.5056  0.2019  0.3667
  896MOL0     H23614  -0.015   0.311   8.272  1.4316 -0.1700 -2.4568
  896MOL0     H23615   0.113   0.218   8.350  0.8736  1.5652  2.0430
  896MOL0     H23616   0.048   0.503   8.414  1.9348 -0.1493 -2.9108
  896MOL0     H23617   0.168   0.395   8.503 -0.4811  0.6533  0.9793
  896MOL0     H23618  -0.019   0.229   8.547 -0.0749  0.0503 -0.8859
  896MOL0     H23619  -0.132   0.349   8.491  1.4462 -0.6332 -3.5740
  896MOL0     H23620   0.031   0.379   8.755 -1.1044 -3.2787  0.2856
  896MOL0     H23621  -0.063   0.509   8.688  2.1500  0.3978  3.7573
  896MOL0     H23622  -0.145   0.240   8.773  2.7808  1.2035  3.4455
  896MOL0     H23623  -0.266   0.335   8.681  0.8819 -2.6059 -0.3406
  896MOL0     H23624  -0.266   0.511   8.842  2.2865  2.4926  1.9772
  896MOL0     H23625  -0.125   0.472   8.928 -1.7922  5.3463 -1.2679
  896MOL0     H23626  -0.403   0.333   8.949 -0.6188 -1.2674  3.3653
  896MOL0     H23627  -0.308   0.432   9.059  1.6372 -1.1975  1.1714
  896MOL0     H23628   0.326   0.505   8.050 -1.4911 -1.3164  0.5149
  896MOL0     H23629   0.502   0.518   7.871 -1.1061  0.9907  0.9200
  896MOL0     H23630   0.840   0.402   7.816  0.7488 -0.2830  0.3591
  896MOL0     H23631   1.042   0.476   7.741  3.0844 -1.7462 -0.2035
  896MOL0     H23632   1.563   0.983   7.378 -2.2478 -0.1515 -0.8416
  896MOL0     H23633   1.426   0.872   7.202  1.0400  1.8143  1.3038
  896MOL0     H23634   1.498   0.395   6.765  0.1220 -1.8623 -4.1166
  896MOL0     H23635   1.328   0.325   6.615 -1.8431 -0.8404  0.3763
  896MOL0     H23636   1.058   0.398   6.371 -1.1553  0.3933 -0.0230
  896MOL0     H23637   1.215   0.362   6.436  0.1310  3.1934  0.4304
  896MOL0     H23638   0.964   0.228   6.551 -0.3649  0.1666 -2.1541
  896MOL0     H23639   1.134   0.205   6.594  0.2714 -1.5342  0.0244
  896MOL0     H23640   1.039   0.137   6.305 -0.6886 -0.8437  0.4968
  896MOL0     H23641   1.183   0.088   6.394 -1.2642 -2.6171  1.6819
  896MOL0     H23642   0.920   0.001   6.473  0.5027 -0.0208 -1.5254
  896MOL0     H23643   1.075  -0.030   6.560  0.9016  0.5368 -0.0452
  896MOL0     H23644   1.062  -0.295   6.223  4.2663  0.4483 -0.0732
  896MOL0     H23645   1.067   0.628   6.740 -0.0667  1.2741 -2.9280
  896MOL0     H23646   1.225   0.739   7.018 -1.4590  0.8689  0.3241
  896MOL0     H23647   1.295   0.851   6.909  1.8958 -1.4927  1.1353
  896MOL0     H23648   1.130   0.812   6.872  1.4289  1.7901 -1.6619
  897MOL0     O23649   5.274   2.905   1.156 -0.0090  0.7544  0.0441
  897MOL0     C23650   5.264   3.010   1.102 -0.4151 -0.2859 -0.2904
  897MOL0     O23651   5.156   3.097   1.100 -0.0409  0.0214  0.7472
  897MOL0     C23652   5.044   3.063   1.170 -0.1363  1.3037 -0.5693
  897MOL0     C23653   4.976   2.946   1.146  0.0210 -0.1598  0.8122
  897MOL0     C23654   4.862   2.913   1.211  0.3648 -0.1338  0.7579
  897MOL0     C23655   4.813   3.000   1.302  0.7269  0.4135  0.4131
  897MOL0     O23656   4.683   2.972   1.339 -0.4945  0.5264 -0.2967
  897MOL0     C23657   4.597   3.086   1.376  0.2597  0.4492 -0.3454
  897MOL0     C23658   4.452   3.028   1.372  0.3080  0.1604  0.5056
  897MOL0     C23659   4.345   3.107   1.449 -0.4989  1.0291  0.2109
  897MOL0     C23660   4.332   3.075   1.593 -0.3743 -0.6980 -0.7061
  897MOL0     C23661   4.221   3.153   1.662 -0.7726  0.0640 -0.1402
  897MOL0     C23662   4.204   3.109   1.812  0.3284 -1.0205 -0.4494
  897MOL0     C23663   4.076   3.182   1.871 -0.1061  0.0936  0.3755
  897MOL0     C23664   3.935   3.124   1.834  0.3592  0.0903  0.3683
  897MOL0     N23665   3.834   3.179   1.917  0.6672 -0.0579  0.0041
  897MOL0     C23666   3.756   3.109   2.003 -0.1211 -0.3273 -0.8062
  897MOL0     C23667   3.673   3.209   2.056  0.1716  0.1147  0.5772
  897MOL0     C23668   3.563   3.188   2.143  0.6535 -0.6354 -0.7336
  897MOL0     C23669   3.424   3.211   2.084 -0.3852 -0.6788  0.0182
  897MOL0     C23670   3.324   3.203   2.198 -0.2513  0.8030 -0.1755
  897MOL0     C23671   3.187   3.188   2.140  0.1592 -0.0573 -1.0684
  897MOL0     O23672   3.089   3.213   2.242  0.4202 -0.6428 -1.0203
  897MOL0     C23673   2.977   3.131   2.235  0.0012 -0.8281 -0.5825
  897MOL0     C23674   2.986   2.998   2.259  0.0536  0.0320  0.8612
  897MOL0     C23675   2.892   2.908   2.208 -0.4913  0.1555 -0.4958
  897MOL0     C23676   2.922   2.763   2.221  0.2454  0.3502 -0.2368
  897MOL0     C23677   2.776   2.961   2.143 -0.4151 -1.2845  0.0428
  897MOL0     C23678   2.673   2.868   2.082 -0.2649 -0.4849  0.0022
  897MOL0     O23679   2.608   2.917   1.976  0.3298 -0.2291 -0.0370
  897MOL0     C23680   2.493   2.866   1.932  0.2676  0.9362 -0.0137
  897MOL0     C23681   2.405   2.776   1.989 -0.3017  0.5783 -0.2063
  897MOL0     C23682   2.283   2.731   1.917  0.4546 -0.1615  0.7472
  897MOL0     C23683   2.244   2.785   1.788  0.9210 -1.0444  0.6067
  897MOL0     O23684   2.132   2.733   1.722  0.2820  0.0100  0.3480
  897MOL0     C23685   2.106   2.756   1.583 -0.6355 -0.4797 -0.2006
  897MOL0     C23686   1.959   2.738   1.546  0.0192 -0.0939  0.0480
  897MOL0     C23687   1.850   2.830   1.608 -1.3214 -0.1812 -0.2628
  897MOL0     C23688   1.856   2.982   1.584  0.3175 -0.7939 -0.4497
  897MOL0     C23689   1.713   3.046   1.612 -0.8111  0.3256  1.3638
  897MOL0     C23690   1.711   3.203   1.577 -0.4750 -0.0755  0.0527
  897MOL0     C23691   1.582   3.271   1.610 -0.1789  0.4944 -0.1307
  897MOL0     C23692   1.576   3.417   1.580  0.5019  0.0239  0.1415
  897MOL0    Cl23693   1.690   3.499   1.675  0.3359  0.3086 -0.4577
  897MOL0     C23694   2.339   2.878   1.734  0.4912  0.2400 -0.1728
  897MOL0     C23695   2.459   2.914   1.806 -0.5669  0.0589 -0.3370
  897MOL0     O23696   2.650   2.756   2.131 -0.8292 -1.0331 -0.4889
  897MOL0     C23697   2.774   3.097   2.121 -0.3785 -0.2141  0.1236
  897MOL0     C23698   2.881   3.176   2.157  0.0161 -0.1355 -0.2619
  897MOL0     N23699   3.709   3.325   2.001 -0.4657 -0.4462  0.0905
  897MOL0     N23700   3.796   3.309   1.913 -0.2887  0.4659  0.7816
  897MOL0     C23701   4.892   3.115   1.330 -0.5110  0.4326 -0.6345
  897MOL0     C23702   5.005   3.151   1.261 -0.2243  0.1652  0.5374
  897MOL0     C23703   5.386   3.068   1.039  0.5319  0.6694 -0.9465
  897MOL0     C23704   5.371   3.152   0.924 -0.5040 -0.4915 -0.3665
  897MOL0     C23705   5.479   3.218   0.867 -0.7571 -0.5408 -0.3256
  897MOL0     C23706   5.609   3.203   0.922  0.0358 -0.3426 -0.0758
  897MOL0     O23707   5.712   3.279   0.862  0.3595 -0.1631 -0.3580
  897MOL0     C23708   5.848   3.284   0.921  0.5185 -0.7216  0.8633
  897MOL0     C23709   5.931   3.176   0.867  0.1430  0.3989  0.1290
  897MOL0     C23710   6.077   3.196   0.914 -0.5821 -0.3993  1.2797
  897MOL0     C23711   6.154   3.061   0.899  0.3144  0.9465  0.2554
  897MOL0     C23712   6.284   3.047   0.976 -0.0925  0.0914  0.9010
  897MOL0     C23713   6.377   3.032   1.055 -0.3050 -0.2938 -0.2070
  897MOL0     C23714   5.621   3.119   1.032 -0.0518 -0.4024 -0.0277
  897MOL0     C23715   5.517   3.044   1.085 -0.4511  0.1481  0.4539
  897MOL0     C23716   5.565   2.960   1.195 -0.1346 -0.2300  0.1342
  897MOL0     H23717   5.011   2.879   1.068  0.2011 -0.1588  0.8934
  897MOL0     H23718   4.811   2.823   1.177 -0.8871  1.3899 -1.6952
  897MOL0     H23719   4.612   3.165   1.302 -0.1913  1.3260  0.4802
  897MOL0     H23720   4.626   3.113   1.478 -0.4315 -1.9430  0.5613
  897MOL0     H23721   4.420   3.027   1.267 -1.2706  0.8234  0.9414
  897MOL0     H23722   4.456   2.927   1.413  0.2035  0.7183  1.9559
  897MOL0     H23723   4.383   3.209   1.453 -1.0264  1.2080  1.0875
  897MOL0     H23724   4.248   3.114   1.399 -1.6803  0.7898  2.3301
  897MOL0     H23725   4.327   2.966   1.599  2.5775 -0.9408 -1.1414
  897MOL0     H23726   4.420   3.099   1.653 -1.0130 -0.7871  0.2880
  897MOL0     H23727   4.130   3.154   1.600 -1.0565  3.5388  0.1539
  897MOL0     H23728   4.265   3.253   1.666  0.6047 -0.4217 -1.9565
  897MOL0     H23729   4.191   3.000   1.821 -0.3917 -0.8970  0.0485
  897MOL0     H23730   4.286   3.145   1.874 -0.4770 -0.1092  0.1158
  897MOL0     H23731   4.088   3.287   1.845  3.0324 -0.6018 -1.6016
  897MOL0     H23732   4.085   3.162   1.978  1.3752  0.8213  0.4017
  897MOL0     H23733   3.910   3.135   1.728 -1.1773  0.6006  0.7689
  897MOL0     H23734   3.938   3.016   1.855  0.6465 -0.8047 -3.4273
  897MOL0     H23735   3.752   3.001   2.008  1.5475 -0.6419 -3.9774
  897MOL0     H23736   3.566   3.267   2.219 -0.3430  1.5462 -2.8130
  897MOL0     H23737   3.577   3.095   2.199  0.9253 -1.2346 -1.7758
  897MOL0     H23738   3.435   3.308   2.035  1.2122 -0.4564  0.7384
  897MOL0     H23739   3.385   3.137   2.014  1.4802 -2.5011  0.7441
  897MOL0     H23740   3.336   3.112   2.258 -0.4524  1.2042  0.4793
  897MOL0     H23741   3.318   3.292   2.262  0.1929 -0.2273  1.3573
  897MOL0     H23742   3.162   3.256   2.057 -0.8813  0.8801 -0.0296
  897MOL0     H23743   3.169   3.088   2.100 -4.1072  0.9331 -2.1195
  897MOL0     H23744   3.081   2.975   2.305  0.7506  1.0606 -0.0248
  897MOL0     H23745   2.913   2.697   2.135 -0.1584  0.7351 -0.4930
  897MOL0     H23746   2.841   2.723   2.283 -3.7953  4.1146 -2.5324
  897MOL0     H23747   3.018   2.738   2.268 -2.0639 -2.3803  3.6863
  897MOL0     H23748   2.411   2.720   2.081  1.3073 -3.5310 -2.5358
  897MOL0     H23749   2.204   2.662   1.944 -1.0823  0.0601 -2.6294
  897MOL0     H23750   2.140   2.856   1.554  0.8662 -1.5779 -2.6021
  897MOL0     H23751   2.167   2.679   1.535 -0.9497  0.9184 -3.0471
  897MOL0     H23752   1.953   2.739   1.437  3.7448 -2.9617 -0.3706
  897MOL0     H23753   1.930   2.635   1.567 -0.8915  0.6182  2.7474
  897MOL0     H23754   1.850   2.813   1.716 -2.3891  2.2514  0.2032
  897MOL0     H23755   1.752   2.789   1.581 -0.9977 -0.4340 -1.0853
  897MOL0     H23756   1.878   3.003   1.479  1.8968  2.2311  0.3866
  897MOL0     H23757   1.929   3.038   1.643 -1.7065 -0.2227  1.6959
  897MOL0     H23758   1.646   2.999   1.539 -0.0680  0.1087  0.8218
  897MOL0     H23759   1.659   3.015   1.702 -2.6556  0.9899  0.5391
  897MOL0     H23760   1.726   3.216   1.469  2.2353  0.9686  0.4886
  897MOL0     H23761   1.789   3.252   1.636  1.1472 -1.2041 -1.0686
  897MOL0     H23762   1.560   3.254   1.716  0.6074 -1.3616 -0.2291
  897MOL0     H23763   1.490   3.228   1.570  0.1337  0.1499 -0.4911
  897MOL0     H23764   1.481   3.454   1.620  0.1408 -3.4202  2.9569
  897MOL0     H23765   1.577   3.451   1.476  0.0086 -1.1513 -0.2649
  897MOL0     H23766   2.322   2.933   1.642 -0.4929  0.8206  0.3364
  897MOL0     H23767   2.512   2.999   1.764  3.2747 -1.7116  0.5231
  897MOL0     H23768   2.701   3.151   2.062  1.2550  0.6806 -1.1595
  897MOL0     H23769   2.885   3.281   2.132  0.1176 -0.1932 -0.4877
  897MOL0     H23770   4.860   3.191   1.401  0.0289  0.3561 -0.3014
  897MOL0     H23771   5.059   3.244   1.276  1.5144 -0.4917 -1.1453
  897MOL0     H23772   5.272   3.176   0.885  0.2475  1.4999 -1.1625
  897MOL0     H23773   5.465   3.283   0.781 -0.4707 -1.5806 -1.1844
  897MOL0     H23774   5.893   3.383   0.904 -1.3362  0.3413  1.8700
  897MOL0     H23775   5.831   3.275   1.029  1.1188 -1.3012  0.9176
  897MOL0     H23776   5.914   3.188   0.760 -1.3766  2.8022  0.5397
  897MOL0     H23777   5.877   3.085   0.896 -1.8138  0.7048 -2.2382
  897MOL0     H23778   6.129   3.269   0.853  2.0814  0.3158  4.1477
  897MOL0     H23779   6.074   3.224   1.020  0.3207  1.4034  0.8598
  897MOL0     H23780   6.175   3.053   0.792  0.1840  1.3749  0.1964
  897MOL0     H23781   6.095   2.978   0.939  3.2553 -0.4036  2.2049
  897MOL0     H23782   6.452   3.032   1.131 -0.6735  1.6186  0.2226
  897MOL0     H23783   5.716   3.092   1.077 -0.3445 -0.7865  0.3710
  897MOL0     H23784   5.545   3.016   1.287 -1.1000  0.7761 -0.6635
  897MOL0     H23785   5.514   2.864   1.207  0.5785 -0.4649  1.4556
  897MOL0     H23786   5.670   2.932   1.183 -0.2824 -0.6584 -0.1792
  898MOL0     O23787   4.330  10.692   5.042  1.1234 -0.1303 -0.6127
  898MOL0     C23788   4.314  10.692   5.158 -0.0713 -0.3174 -1.4878
  898MOL0     O23789   4.408  10.737   5.248 -0.7202  0.1977  0.2311
  898MOL0     C23790   4.536  10.765   5.194 -0.1417 -0.5349  0.4342
  898MOL0     C23791   4.558  10.853   5.083 -0.3262  0.9618  0.3181
  898MOL0     C23792   4.681  10.900   5.044 -0.5047 -0.2439  0.7501
  898MOL0     C23793   4.801  10.846   5.090 -0.4198 -0.3882  0.5750
  898MOL0     O23794   4.926  10.901   5.047 -0.7779 -0.5595 -0.1574
  898MOL0     C23795   5.049  10.870   5.123 -0.4423  0.3312 -0.2735
  898MOL0     C23796   5.167  10.962   5.092  0.0369 -0.2890  0.0569
  898MOL0     C23797   5.132  11.119   5.082  0.6690 -0.7904 -0.6871
  898MOL0     C23798   5.092  11.154   4.942  0.4744 -0.3361  0.0606
  898MOL0     C23799   5.066  11.308   4.939 -0.0948  0.3131  1.0304
  898MOL0     C23800   5.024  11.363   4.794  0.6164 -0.7227  0.2469
  898MOL0     C23801   5.075  11.500   4.763 -0.7091 -0.4168 -0.2063
  898MOL0     C23802   5.204  11.504   4.682  0.4167  1.1748 -0.1748
  898MOL0     N23803   5.320  11.435   4.751  0.2931 -0.1104 -0.0822
  898MOL0     C23804   5.397  11.493   4.851 -0.1866  0.3559  1.0370
  898MOL0     C23805   5.486  11.392   4.885 -0.0044 -0.1518  0.0964
  898MOL0     C23806   5.601  11.396   4.986  0.7261 -0.8149  0.6872
  898MOL0     C23807   5.737  11.428   4.926  0.0675  0.1436 -0.8328
  898MOL0     C23808   5.747  11.546   4.825  0.2244 -0.2523 -0.1705
  898MOL0     C23809   5.885  11.598   4.806  0.7443 -0.1607 -0.6871
  898MOL0     O23810   5.868  11.714   4.727  0.0121  0.4435  0.3070
  898MOL0     C23811   5.980  11.766   4.669  0.3337  0.5849 -0.0126
  898MOL0     C23812   5.968  11.856   4.566 -0.3273 -0.6612  0.1903
  898MOL0     C23813   6.078  11.913   4.499  0.2004 -0.1534 -0.2986
  898MOL0     C23814   6.029  12.007   4.389  0.1861  0.5028  0.6299
  898MOL0     C23815   6.211  11.898   4.555 -0.2228 -0.0310 -0.5239
  898MOL0     C23816   6.335  11.975   4.508 -0.9074  0.0295 -0.5415
  898MOL0     O23817   6.449  11.947   4.579 -0.0280  0.1899  0.2014
  898MOL0     C23818   6.572  12.005   4.555 -0.3714 -0.0768  1.1170
  898MOL0     C23819   6.670  11.933   4.492 -0.2708  0.0093  0.0807
  898MOL0     C23820   6.794  11.995   4.460 -0.9072  0.6037  0.5971
  898MOL0     C23821   6.823  12.131   4.497 -1.0373 -0.4444 -0.6087
  898MOL0     O23822   6.938  12.187   4.445  0.0889 -0.5039 -0.0521
  898MOL0     C23823   7.069  12.130   4.479  0.3701  0.2415  0.7927
  898MOL0     C23824   7.129  12.206   4.593  0.1564  0.2373  1.8263
  898MOL0     C23825   7.260  12.134   4.634  0.7182  0.5550  1.0295
  898MOL0     C23826   7.394  12.209   4.624 -0.0262  0.3682  0.1011
  898MOL0     C23827   7.506  12.118   4.688  0.7194 -0.6260 -0.5259
  898MOL0     C23828   7.647  12.181   4.679 -0.3418 -0.0477 -0.3887
  898MOL0     C23829   7.656  12.304   4.762  0.0673  0.5610 -0.4032
  898MOL0     C23830   7.777  12.384   4.730  0.4503 -0.3816 -0.0936
  898MOL0    Cl23831   7.762  12.538   4.821 -0.0350 -0.1569  0.2033
  898MOL0     C23832   6.714  12.210   4.535 -0.2722  0.0714 -0.3383
  898MOL0     C23833   6.592  12.151   4.567  0.7283  0.7576  0.3100
  898MOL0     O23834   6.332  12.046   4.415  0.7569  0.4778  0.2570
  898MOL0     C23835   6.218  11.804   4.665 -0.3328  0.0733 -0.0937
  898MOL0     C23836   6.105  11.746   4.721 -0.4030  0.2784 -0.6121
  898MOL0     N23837   5.462  11.285   4.792  0.1821 -0.3477  0.0509
  898MOL0     N23838   5.365  11.310   4.715 -0.0776 -0.6307  0.2835
  898MOL0     C23839   4.775  10.739   5.184  0.3982 -0.9643 -0.0349
  898MOL0     C23840   4.651  10.710   5.241  0.2223 -0.6585  0.5671
  898MOL0     C23841   4.183  10.641   5.218  0.6215  0.5385 -0.6153
  898MOL0     C23842   4.185  10.633   5.361  0.1897  0.1067 -0.6777
  898MOL0     C23843   4.072  10.577   5.418  0.0912 -0.1021 -0.5350
  898MOL0     C23844   3.965  10.526   5.344  0.0108 -0.1690  0.2825
  898MOL0     O23845   3.861  10.460   5.404  1.4304 -0.8415  0.7484
  898MOL0     C23846   3.763  10.382   5.329 -0.3107  0.2433 -0.6045
  898MOL0     C23847   3.668  10.331   5.429  0.2721  0.8434 -0.1142
  898MOL0     C23848   3.742  10.237   5.521  0.0435 -0.0048 -0.1238
  898MOL0     C23849   3.667  10.123   5.592  0.4593 -0.0912 -0.0087
  898MOL0     C23850   3.739  10.059   5.701 -0.3714  0.1836  0.0150
  898MOL0     C23851   3.818  10.014   5.786 -0.2541 -0.0523 -0.7398
  898MOL0     C23852   3.963  10.540   5.202  0.1551  0.0995  0.3981
  898MOL0     C23853   4.069  10.604   5.132 -0.4388 -0.2205 -1.0191
  898MOL0     C23854   4.054  10.617   4.992 -0.0206 -0.4398  0.4407
  898MOL0     H23855   4.470  10.901   5.042 -0.1923  0.3801 -0.6964
  898MOL0     H23856   4.693  10.980   4.972  0.9313 -2.2502 -1.3769
  898MOL0     H23857   5.085  10.774   5.084 -0.9509  0.3625 -0.8427
  898MOL0     H23858   5.036  10.871   5.232 -1.3686  1.3753 -0.3815
  898MOL0     H23859   5.245  10.945   5.167  0.6634 -0.5625 -0.6426
  898MOL0     H23860   5.207  10.935   4.994  0.2316 -2.4382  0.6914
  898MOL0     H23861   5.048  11.141   5.148  0.2874  0.9110 -1.6889
  898MOL0     H23862   5.225  11.166   5.115 -0.6564  1.2517  0.3056
  898MOL0     H23863   5.172  11.121   4.875  1.3514 -1.4923  1.6064
  898MOL0     H23864   4.995  11.111   4.917 -1.0253  0.5335  3.7477
  898MOL0     H23865   5.156  11.359   4.975  1.3079 -0.3145 -1.3721
  898MOL0     H23866   4.983  11.322   5.008  0.4538  0.0116  1.7687
  898MOL0     H23867   5.072  11.294   4.724  0.3301  0.2897 -0.9849
  898MOL0     H23868   4.916  11.362   4.774  0.3954 -1.2360  1.3397
  898MOL0     H23869   5.081  11.559   4.855 -0.6818 -1.0235  0.1905
  898MOL0     H23870   5.000  11.548   4.701 -1.3257 -0.0712  0.7877
  898MOL0     H23871   5.189  11.462   4.582  3.5745 -0.4953 -0.0725
  898MOL0     H23872   5.231  11.608   4.660  1.8337  0.5810 -1.3847
  898MOL0     H23873   5.384  11.590   4.897  1.2182  0.5630  1.0336
  898MOL0     H23874   5.615  11.303   5.041 -0.6119  0.4399  3.3509
  898MOL0     H23875   5.575  11.469   5.064 -1.1802 -0.2916 -0.3827
  898MOL0     H23876   5.800  11.450   5.013  0.3526 -1.6109 -0.5576
  898MOL0     H23877   5.782  11.343   4.876 -0.1614 -0.8249  0.5566
  898MOL0     H23878   5.705  11.521   4.727 -0.5477  1.8629 -0.4243
  898MOL0     H23879   5.683  11.625   4.866  1.4416 -0.9328  3.4689
  898MOL0     H23880   5.933  11.625   4.901 -0.0284  1.1145 -0.6385
  898MOL0     H23881   5.950  11.527   4.753  2.7728  0.9825  0.1401
  898MOL0     H23882   5.869  11.874   4.523  0.7927 -0.2486 -2.3927
  898MOL0     H23883   6.106  12.041   4.320  1.2496  0.8613  1.9440
  898MOL0     H23884   5.975  12.094   4.428  1.8326  2.4063 -1.1191
  898MOL0     H23885   5.959  11.954   4.325 -0.0560  2.9475 -1.2602
  898MOL0     H23886   6.661  11.832   4.455  0.1600 -0.2292  0.6301
  898MOL0     H23887   6.860  11.931   4.403  0.5455  0.4326  2.3775
  898MOL0     H23888   7.040  12.028   4.508  0.7247 -0.0800  0.0450
  898MOL0     H23889   7.139  12.128   4.395  1.4079  1.3970  1.6107
  898MOL0     H23890   7.143  12.309   4.558  1.9344 -0.7190 -0.5778
  898MOL0     H23891   7.053  12.216   4.671 -2.6085 -0.6810 -0.5533
  898MOL0     H23892   7.274  12.048   4.567  2.1992  2.1056 -0.7407
  898MOL0     H23893   7.242  12.084   4.730  0.5370  0.2724  0.8506
  898MOL0     H23894   7.384  12.307   4.671 -1.0138 -0.1321  0.9768
  898MOL0     H23895   7.412  12.231   4.518 -0.8782  0.8815  0.0507
  898MOL0     H23896   7.478  12.100   4.792 -1.2430  0.1747 -0.8722
  898MOL0     H23897   7.502  12.024   4.631 -2.0300 -0.2791 -1.0483
  898MOL0     H23898   7.673  12.214   4.578 -1.1662  3.4519  0.4006
  898MOL0     H23899   7.706  12.105   4.731 -2.8670 -2.9586 -1.4500
  898MOL0     H23900   7.660  12.271   4.867 -0.7211 -0.8048 -0.7818
  898MOL0     H23901   7.564  12.364   4.765 -0.3411  0.4165  6.2563
  898MOL0     H23902   7.781  12.414   4.624  0.7795  1.6197  0.4466
  898MOL0     H23903   7.870  12.337   4.762  0.6530 -1.0426 -1.5363
  898MOL0     H23904   6.727  12.317   4.539 -0.5208  0.0869  3.2549
  898MOL0     H23905   6.502  12.207   4.588 -1.1631 -2.0602  0.2748
  898MOL0     H23906   6.314  11.794   4.715  1.0390 -2.0977 -2.8689
  898MOL0     H23907   6.125  11.689   4.811 -2.1501  1.3158  0.4799
  898MOL0     H23908   4.863  10.692   5.227 -0.9966 -2.4073  1.3735
  898MOL0     H23909   4.653  10.645   5.328 -2.0493  0.8541  1.8592
  898MOL0     H23910   4.272  10.657   5.421  1.8455 -4.1950 -1.0428
  898MOL0     H23911   4.064  10.568   5.526 -0.3265  0.9749 -0.4706
  898MOL0     H23912   3.709  10.440   5.253 -1.1599  1.2046  0.6781
  898MOL0     H23913   3.808  10.298   5.276  0.1926 -0.1532  0.4280
  898MOL0     H23914   3.599  10.264   5.377 -0.1412  0.3651  1.0105
  898MOL0     H23915   3.596  10.401   5.473 -2.3418 -0.4212 -2.0759
  898MOL0     H23916   3.829  10.195   5.470 -0.2312 -2.0568  0.9847
  898MOL0     H23917   3.767  10.311   5.597 -3.4421  1.0526  0.1831
  898MOL0     H23918   3.632  10.055   5.514  1.5443  0.2423 -0.8224
  898MOL0     H23919   3.576  10.162   5.639  0.7224  0.1985  0.2659
  898MOL0     H23920   3.894   9.980   5.853 -0.8057 -3.4376 -1.6460
  898MOL0     H23921   3.884  10.497   5.140 -0.6249  2.1116 -0.0722
  898MOL0     H23922   4.136  10.573   4.935 -2.3261 -0.7716 -2.9692
  898MOL0     H23923   3.958  10.585   4.949 -0.5583  1.2016  0.3282
  898MOL0     H23924   4.061  10.725   4.973  1.2417 -0.7689 -1.2038
  899MOL0     O23925   7.421   3.107   3.531  0.2389 -0.3167  0.3410
  899MOL0     C23926   7.437   3.013   3.608 -0.5897  0.7156 -0.0761
  899MOL0     O23927   7.471   2.887   3.579 -0.1135 -0.7970  0.9115
  899MOL0     C23928   7.498   2.861   3.441 -0.2092  0.6620  0.2062
  899MOL0     C23929   7.437   2.757   3.380  0.2053 -0.6133 -0.3514
  899MOL0     C23930   7.462   2.724   3.246  0.0070  0.6818  0.1191
  899MOL0     C23931   7.551   2.794   3.168  0.0176 -0.6666 -0.4351
  899MOL0     O23932   7.585   2.753   3.043 -0.4315  0.3896  0.1444
  899MOL0     C23933   7.615   2.859   2.950 -0.3295 -0.2969  0.8805
  899MOL0     C23934   7.624   2.814   2.800 -1.0893  0.4255  0.9452
  899MOL0     C23935   7.755   2.737   2.783 -0.4313  0.1707  0.5233
  899MOL0     C23936   7.755   2.674   2.635 -0.7831 -0.0758 -0.2279
  899MOL0     C23937   7.873   2.563   2.631 -0.3402 -0.3694 -0.5462
  899MOL0     C23938   7.870   2.476   2.500 -0.3448  0.3567  0.1140
  899MOL0     C23939   7.846   2.556   2.375 -1.4196  0.0931 -1.3465
  899MOL0     C23940   7.878   2.472   2.250  0.6557 -0.2149  0.2279
  899MOL0     N23941   8.016   2.440   2.227 -0.0828 -0.6150 -0.3530
  899MOL0     C23942   8.086   2.507   2.134  0.0821 -0.4850 -0.0270
  899MOL0     C23943   8.198   2.432   2.123 -0.0483 -1.4294  0.3359
  899MOL0     C23944   8.306   2.478   2.022  0.6216  0.0911 -0.3138
  899MOL0     C23945   8.430   2.516   2.089 -0.2103 -0.5130 -0.0808
  899MOL0     C23946   8.521   2.394   2.094 -1.1684 -0.4006  0.6201
  899MOL0     C23947   8.596   2.390   1.957  0.0384 -0.4110 -0.7495
  899MOL0     O23948   8.701   2.480   1.942 -0.1881 -0.3064  0.3439
  899MOL0     C23949   8.827   2.455   1.985 -0.1724  0.0368  0.2801
  899MOL0     C23950   8.885   2.332   2.023  0.3537  0.1968 -0.2662
  899MOL0     C23951   9.020   2.326   2.041 -0.5640  0.4391  0.2769
  899MOL0     C23952   9.077   2.184   2.059 -0.2392 -0.5770  0.3798
  899MOL0     C23953   9.102   2.438   2.025  0.3706 -0.7388 -0.3175
  899MOL0     C23954   9.251   2.441   2.052  0.0551  0.3432  0.0475
  899MOL0     O23955   9.308   2.561   2.033 -0.1157  0.3032  0.0918
  899MOL0     C23956   9.444   2.560   2.059  0.5180  0.5379  0.0713
  899MOL0     C23957   9.526   2.502   1.973  0.8019  0.3258  0.0373
  899MOL0     C23958   9.668   2.516   1.988  0.2152  0.6168 -0.3446
  899MOL0     C23959   9.721   2.565   2.112 -0.1954  0.1376 -0.4635
  899MOL0     O23960   9.854   2.586   2.141 -0.2772  0.0760 -0.0040
  899MOL0     C23961   9.934   2.486   2.090  0.6597  0.3240  1.2926
  899MOL0     C23962  10.048   2.474   2.191 -0.1890 -0.7924  0.7569
  899MOL0     C23963  10.149   2.365   2.161 -0.9327 -0.0764 -0.1510
  899MOL0     C23964  10.278   2.398   2.240 -0.4662 -0.0608 -0.2299
  899MOL0     C23965  10.377   2.288   2.232 -0.0730  0.2055  0.1202
  899MOL0     C23966  10.492   2.322   2.329 -0.3586  0.3572  0.3435
  899MOL0     C23967  10.590   2.213   2.352  0.7782  0.2186 -0.2118
  899MOL0     C23968  10.621   2.135   2.225  0.1616  0.5047  0.3339
  899MOL0    Cl23969  10.685   2.251   2.103 -0.3752  0.0130  0.3842
  899MOL0     C23970   9.629   2.632   2.190  1.0976  0.5196  0.4543
  899MOL0     C23971   9.491   2.624   2.167 -0.5154 -0.1382 -0.1948
  899MOL0     O23972   9.303   2.339   2.097 -0.2899 -0.0465  0.4833
  899MOL0     C23973   9.041   2.556   1.977  0.0141 -0.0263  0.6673
  899MOL0     C23974   8.904   2.575   1.967 -0.4283 -0.2536  0.2591
  899MOL0     N23975   8.202   2.331   2.220  0.3871 -0.2821 -0.2543
  899MOL0     N23976   8.086   2.338   2.275  0.3063  0.5205 -0.3049
  899MOL0     C23977   7.615   2.896   3.235 -0.8130 -0.1891 -0.1473
  899MOL0     C23978   7.596   2.928   3.366 -0.5700  0.3027  0.3955
  899MOL0     C23979   7.418   3.049   3.757  0.4676  0.6356 -0.7001
  899MOL0     C23980   7.508   2.992   3.847 -0.3604  0.1946  0.5234
  899MOL0     C23981   7.489   3.006   3.985 -1.2287  0.1170  0.0904
  899MOL0     C23982   7.399   3.099   4.035 -1.0205 -0.3666 -0.1603
  899MOL0     O23983   7.410   3.103   4.175 -0.1381  0.1120  0.2288
  899MOL0     C23984   7.350   3.217   4.234 -0.2469 -0.2365  0.0566
  899MOL0     C23985   7.390   3.231   4.375  0.7567 -0.1501 -0.9475
  899MOL0     C23986   7.540   3.274   4.372  0.1212  0.2208 -0.5224
  899MOL0     C23987   7.593   3.309   4.510 -0.4376  0.1422  0.8644
  899MOL0     C23988   7.733   3.349   4.484 -0.2180  0.0931  0.3971
  899MOL0     C23989   7.853   3.389   4.473  0.0355 -0.7651  0.6461
  899MOL0     C23990   7.307   3.158   3.945  0.3409 -0.3304 -0.3373
  899MOL0     C23991   7.321   3.137   3.807 -0.9110 -0.2459  0.6535
  899MOL0     C23992   7.209   3.200   3.722 -0.4934  0.2636  0.5542
  899MOL0     H23993   7.365   2.705   3.443 -0.0293 -0.8633 -0.8241
  899MOL0     H23994   7.419   2.634   3.202  0.1333  0.3924  0.5789
  899MOL0     H23995   7.700   2.923   2.977 -2.1645  1.7045  2.2770
  899MOL0     H23996   7.533   2.932   2.947 -1.4371 -1.4537  1.8843
  899MOL0     H23997   7.533   2.764   2.768 -1.5179  1.7899 -0.0541
  899MOL0     H23998   7.647   2.901   2.738  0.7827  0.0442  1.0502
  899MOL0     H23999   7.839   2.806   2.788 -0.9935  1.1204 -1.9235
  899MOL0     H24000   7.742   2.661   2.861 -0.7444  0.7278  1.0246
  899MOL0     H24001   7.658   2.626   2.625 -0.0916 -1.6393  0.1270
  899MOL0     H24002   7.762   2.750   2.557 -1.3177  3.9101  3.1930
  899MOL0     H24003   7.859   2.503   2.722 -3.4395  1.6497  0.4709
  899MOL0     H24004   7.972   2.606   2.650  0.1577 -2.1233  1.0845
  899MOL0     H24005   7.972   2.439   2.491 -0.6519 -0.1797 -1.6037
  899MOL0     H24006   7.804   2.389   2.503  0.7064 -0.5569 -1.7448
  899MOL0     H24007   7.908   2.645   2.376 -0.7986 -0.3258  0.0014
  899MOL0     H24008   7.738   2.575   2.373 -1.6286 -1.0286 -2.1655
  899MOL0     H24009   7.826   2.377   2.266 -0.3222  0.2318 -0.1980
  899MOL0     H24010   7.846   2.520   2.156  1.4902 -1.2215 -0.5905
  899MOL0     H24011   8.053   2.602   2.095 -0.4743 -0.2022  1.0903
  899MOL0     H24012   8.269   2.561   1.960 -0.4916  1.0080  1.4829
  899MOL0     H24013   8.319   2.394   1.954 -1.1144  0.7446 -1.5096
  899MOL0     H24014   8.487   2.591   2.035  0.0610  0.1828  1.1436
  899MOL0     H24015   8.403   2.549   2.189  0.0900 -1.0093  0.1673
  899MOL0     H24016   8.598   2.420   2.168  0.9965 -3.8380 -0.2001
  899MOL0     H24017   8.485   2.298   2.132  1.5125 -1.8609 -0.2547
  899MOL0     H24018   8.618   2.284   1.941 -2.4452 -1.3169  1.1383
  899MOL0     H24019   8.530   2.417   1.874 -2.1914  0.3938  1.1595
  899MOL0     H24020   8.825   2.241   2.025 -0.9748  0.8424 -3.9340
  899MOL0     H24021   9.132   2.186   2.153  1.4676  4.1318 -0.4236
  899MOL0     H24022   9.146   2.164   1.976 -0.2421 -2.0286  0.6919
  899MOL0     H24023   9.008   2.099   2.056  0.1380 -0.8978  0.7137
  899MOL0     H24024   9.496   2.447   1.884  0.4493  0.7825 -0.1293
  899MOL0     H24025   9.733   2.464   1.918 -1.9033 -2.2976 -0.3530
  899MOL0     H24026   9.894   2.384   2.090  0.3102  0.4460  0.1285
  899MOL0     H24027   9.953   2.513   1.986 -1.4730 -1.0055  0.4947
  899MOL0     H24028  10.105   2.567   2.182  2.0288 -2.2665 -1.5869
  899MOL0     H24029  10.018   2.460   2.296  3.1851 -1.4369  1.7533
  899MOL0     H24030  10.179   2.365   2.056  0.5227  1.6767  0.2077
  899MOL0     H24031  10.102   2.272   2.193 -0.2958 -0.1610  0.5516
  899MOL0     H24032  10.237   2.396   2.342  0.4508  0.3179  0.1554
  899MOL0     H24033  10.327   2.493   2.219 -0.9772 -0.2219 -2.3663
  899MOL0     H24034  10.337   2.195   2.273 -1.1121  1.0328  1.0678
  899MOL0     H24035  10.410   2.273   2.129 -1.9076 -0.7597 -0.3738
  899MOL0     H24036  10.448   2.336   2.428  2.0609  0.1634  1.5248
  899MOL0     H24037  10.542   2.415   2.301 -1.1676  0.9782  0.9250
  899MOL0     H24038  10.536   2.138   2.411  0.4002 -0.1127 -0.9734
  899MOL0     H24039  10.674   2.248   2.414  0.2830  1.5541 -0.2691
  899MOL0     H24040  10.529   2.091   2.186  0.1878  0.0868  0.7323
  899MOL0     H24041  10.690   2.050   2.224 -0.4869 -0.0379  0.6246
  899MOL0     H24042   9.669   2.690   2.272  1.4570  0.0248  0.6307
  899MOL0     H24043   9.425   2.662   2.244  0.0824  2.2540 -0.7708
  899MOL0     H24044   9.094   2.650   1.975 -0.3264  0.3374  3.6512
  899MOL0     H24045   8.859   2.673   1.959  1.9665  1.2070  2.9457
  899MOL0     H24046   7.695   2.954   3.190  0.3371 -3.5634 -2.9259
  899MOL0     H24047   7.650   3.008   3.417 -0.8306 -0.9164  2.7006
  899MOL0     H24048   7.581   2.918   3.818 -0.3340  1.1905 -2.2643
  899MOL0     H24049   7.554   2.951   4.053  0.5700 -0.4855 -1.9933
  899MOL0     H24050   7.377   3.312   4.188  2.2670  0.0561  1.9160
  899MOL0     H24051   7.242   3.207   4.225 -0.3683  1.9529 -1.9116
  899MOL0     H24052   7.373   3.139   4.431  0.4406  2.1410  3.1023
  899MOL0     H24053   7.332   3.303   4.433  1.2942 -2.0224  2.1308
  899MOL0     H24054   7.607   3.200   4.329  1.2415 -0.0466  1.5417
  899MOL0     H24055   7.566   3.364   4.316  0.3047 -0.5281 -1.6743
  899MOL0     H24056   7.588   3.229   4.584 -3.0309 -2.2311 -1.5750
  899MOL0     H24057   7.546   3.402   4.541  1.0811  2.2540 -2.5477
  899MOL0     H24058   7.951   3.430   4.464 -0.1671 -0.4507 -0.2964
  899MOL0     H24059   7.230   3.226   3.978  0.4640  1.5854 -3.6187
  899MOL0     H24060   7.156   3.279   3.777  0.1297  1.1458 -0.0839
  899MOL0     H24061   7.247   3.252   3.634  0.5020  3.3641  2.6473
  899MOL0     H24062   7.137   3.123   3.693 -0.9717  1.6805 -2.3635
  900MOL0     O24063   7.299   3.625   7.887 -0.3220 -0.0084  0.2247
  900MOL0     C24064   7.285   3.744   7.871 -0.2907  0.3464  0.1619
  900MOL0     O24065   7.346   3.814   7.771 -0.2479  0.0719 -0.7405
  900MOL0     C24066   7.328   3.779   7.644  0.4336  0.8557 -0.6905
  900MOL0     C24067   7.435   3.809   7.555  0.4165 -0.0853 -0.1497
  900MOL0     C24068   7.423   3.757   7.430  0.0098  0.3187 -0.4630
  900MOL0     C24069   7.321   3.676   7.390 -0.4177  0.1619 -0.2008
  900MOL0     O24070   7.328   3.632   7.259 -0.5552  0.1116  0.3699
  900MOL0     C24071   7.229   3.545   7.212  0.0351  0.2257 -0.3136
  900MOL0     C24072   7.227   3.525   7.060  0.1886 -0.4371  0.0866
  900MOL0     C24073   7.365   3.481   7.006 -1.0148  0.0135 -0.5217
  900MOL0     C24074   7.354   3.439   6.862  0.1044  1.3832 -0.0976
  900MOL0     C24075   7.491   3.426   6.792  0.3350  0.1007 -0.1206
  900MOL0     C24076   7.489   3.439   6.644  0.2587 -0.8806  0.9111
  900MOL0     C24077   7.626   3.408   6.582 -0.0146  0.1157  0.1100
  900MOL0     C24078   7.608   3.450   6.435  0.1523 -0.0213  0.7056
  900MOL0     N24079   7.739   3.458   6.373 -0.0075 -0.8068 -0.1687
  900MOL0     C24080   7.807   3.577   6.364  0.3610 -0.2505 -0.7655
  900MOL0     C24081   7.919   3.551   6.296 -0.3584  0.0873  0.0522
  900MOL0     C24082   8.016   3.647   6.227  0.1287  0.5079 -0.6647
  900MOL0     C24083   8.142   3.678   6.296 -0.1001  0.1484  0.0681
  900MOL0     C24084   8.227   3.767   6.208  0.8455 -0.0545  0.1109
  900MOL0     C24085   8.371   3.790   6.248 -0.7134 -0.7084 -0.8261
  900MOL0     O24086   8.443   3.676   6.206  0.0834 -0.3469 -0.1838
  900MOL0     C24087   8.587   3.670   6.187 -0.9430  0.4931 -0.1701
  900MOL0     C24088   8.674   3.776   6.218 -0.4631  0.4698  0.3985
  900MOL0     C24089   8.809   3.784   6.186 -0.2105 -0.4341  0.7593
  900MOL0     C24090   8.867   3.914   6.189 -0.2314 -0.1068 -1.1287
  900MOL0     C24091   8.876   3.658   6.129  0.4950  0.3580 -0.2063
  900MOL0     C24092   9.016   3.644   6.095  0.7409  0.1231 -0.2572
  900MOL0     O24093   9.098   3.744   6.138  0.0897  0.3820  0.1430
  900MOL0     C24094   9.235   3.741   6.121  0.6817 -1.2513 -0.2257
  900MOL0     C24095   9.318   3.649   6.055  0.2210 -0.1496  0.2032
  900MOL0     C24096   9.455   3.653   6.064 -0.2010  0.8440 -0.8810
  900MOL0     C24097   9.522   3.757   6.135  0.6202  0.7688 -0.1844
  900MOL0     O24098   9.657   3.774   6.152 -0.0681 -0.3241 -0.0474
  900MOL0     C24099   9.746   3.674   6.104  0.0612 -0.3147 -0.7265
  900MOL0     C24100   9.818   3.586   6.212  0.0554  0.6825  0.0252
  900MOL0     C24101   9.941   3.519   6.142 -0.1333 -0.3909  0.4370
  900MOL0     C24102  10.017   3.427   6.229  0.0914  0.1652  0.3104
  900MOL0     C24103  10.125   3.351   6.157 -0.8113 -0.0448  1.1178
  900MOL0     C24104  10.241   3.443   6.115 -0.9772  0.1051  0.0320
  900MOL0     C24105  10.346   3.366   6.029  1.0344  0.6251 -0.1041
  900MOL0     C24106  10.470   3.324   6.096  0.5470 -0.0960  0.0029
  900MOL0    Cl24107  10.440   3.164   6.183  0.0557  0.0827  0.1474
  900MOL0     C24108   9.448   3.855   6.191 -0.9155 -0.0894 -0.1721
  900MOL0     C24109   9.303   3.844   6.190  0.6097  0.6240  0.3343
  900MOL0     O24110   9.055   3.530   6.058 -0.0819 -0.1440 -0.1033
  900MOL0     C24111   8.788   3.546   6.106  0.3536  0.3130 -0.5889
  900MOL0     C24112   8.651   3.563   6.128  0.1211  0.1670  0.5286
  900MOL0     N24113   7.915   3.409   6.266 -0.5479 -0.8198 -0.0985
  900MOL0     N24114   7.805   3.357   6.313  0.9832 -0.4485  0.6790
  900MOL0     C24115   7.217   3.655   7.477  0.4796 -0.4571  0.6029
  900MOL0     C24116   7.222   3.698   7.601 -0.0176 -0.3618  0.2363
  900MOL0     C24117   7.177   3.814   7.952  0.0518  0.3139  0.1037
  900MOL0     C24118   7.087   3.904   7.883  0.9196 -0.3912 -0.6867
  900MOL0     C24119   7.009   3.989   7.966  0.5883  0.1011 -0.1839
  900MOL0     C24120   6.993   3.970   8.110  0.0797  0.0273 -0.8141
  900MOL0     O24121   6.923   4.060   8.195 -0.4767 -0.1117  0.4579
  900MOL0     C24122   6.870   4.183   8.142  1.1557  0.3640 -0.4906
  900MOL0     C24123   6.812   4.268   8.254 -0.2147  0.4501 -0.5230
  900MOL0     C24124   6.686   4.208   8.322 -0.2062  0.0470  0.5587
  900MOL0     C24125   6.609   4.305   8.415 -0.1485 -0.1286  0.5339
  900MOL0     C24126   6.580   4.434   8.349 -1.2207 -0.1561  0.1338
  900MOL0     C24127   6.538   4.537   8.298 -0.3259 -0.1754  0.1088
  900MOL0     C24128   7.073   3.869   8.167  0.5142 -0.5465 -0.4629
  900MOL0     C24129   7.158   3.796   8.088 -0.7486  0.1505  0.9472
  900MOL0     C24130   7.246   3.695   8.157  0.7973 -0.6162 -0.9561
  900MOL0     H24131   7.512   3.879   7.584  2.4013 -1.8619 -0.8489
  900MOL0     H24132   7.505   3.776   7.362  1.8229 -0.8899  1.2604
  900MOL0     H24133   7.130   3.586   7.236  1.1652  4.7573 -2.3318
  900MOL0     H24134   7.237   3.445   7.255  1.7398 -0.2944 -1.7080
  900MOL0     H24135   7.152   3.456   7.018  0.6312 -0.7044 -0.2746
  900MOL0     H24136   7.203   3.620   7.010  3.2160  0.2429 -0.2269
  900MOL0     H24137   7.439   3.561   7.017 -0.1500 -0.9991  1.6598
  900MOL0     H24138   7.398   3.398   7.069 -0.5933  0.4273 -0.1871
  900MOL0     H24139   7.286   3.356   6.838 -0.4169  1.9234 -0.5509
  900MOL0     H24140   7.305   3.524   6.812 -3.4674 -0.8616 -0.8102
  900MOL0     H24141   7.541   3.333   6.820  1.7066  0.5979 -0.7966
  900MOL0     H24142   7.562   3.500   6.832  1.1981 -0.1094 -1.2164
  900MOL0     H24143   7.414   3.367   6.610  0.3636 -0.7637  0.4346
  900MOL0     H24144   7.458   3.539   6.615 -0.8531 -1.1435  1.1592
  900MOL0     H24145   7.651   3.302   6.584 -4.1977 -1.0910 -1.2502
  900MOL0     H24146   7.703   3.473   6.624 -1.8575  0.1645  3.8991
  900MOL0     H24147   7.551   3.368   6.391  2.1840  0.1463 -2.5846
  900MOL0     H24148   7.563   3.549   6.421 -0.7839 -0.6970 -1.3635
  900MOL0     H24149   7.768   3.675   6.391 -2.8530 -1.4142 -0.7505
  900MOL0     H24150   7.957   3.738   6.210 -3.5526 -1.3565  0.9450
  900MOL0     H24151   8.041   3.619   6.124  1.3519 -0.7538 -0.0562
  900MOL0     H24152   8.123   3.734   6.388 -1.5291 -1.3263  0.7428
  900MOL0     H24153   8.201   3.588   6.320 -0.3508 -0.0459 -0.0374
  900MOL0     H24154   8.239   3.729   6.106 -0.5183 -0.2996  0.0178
  900MOL0     H24155   8.186   3.867   6.191 -0.9624 -1.2430 -3.7060
  900MOL0     H24156   8.417   3.869   6.187 -0.4808 -0.5689 -0.4734
  900MOL0     H24157   8.395   3.804   6.354 -3.7673 -0.1167 -0.1367
  900MOL0     H24158   8.626   3.861   6.265  2.9998  1.4607  2.5323
  900MOL0     H24159   8.936   3.925   6.105  0.3548  1.2404 -0.5021
  900MOL0     H24160   8.927   3.921   6.281 -0.1432 -1.4337 -1.0729
  900MOL0     H24161   8.796   3.998   6.190 -1.8186 -1.2454  2.6443
  900MOL0     H24162   9.269   3.575   5.993 -0.3355  0.4409 -0.0728
  900MOL0     H24163   9.511   3.571   6.022 -2.3496 -0.9823 -0.3370
  900MOL0     H24164   9.697   3.606   6.033  1.1839 -1.4025 -0.4854
  900MOL0     H24165   9.824   3.733   6.056  0.0388  0.1461 -0.2049
  900MOL0     H24166   9.853   3.646   6.295  0.6055 -1.2296  1.2455
  900MOL0     H24167   9.745   3.506   6.229 -0.7471  0.8770 -2.1564
  900MOL0     H24168  10.014   3.595   6.116  0.3326 -1.3020 -1.0760
  900MOL0     H24169   9.912   3.459   6.055  0.5207  0.0175 -0.0690
  900MOL0     H24170   9.948   3.352   6.268  0.4762  0.3628  1.4403
  900MOL0     H24171  10.049   3.490   6.314 -1.8944 -1.9343  2.7877
  900MOL0     H24172  10.167   3.271   6.218  0.9047  1.8615  2.5760
  900MOL0     H24173  10.094   3.317   6.058 -0.5057  6.9792 -2.0505
  900MOL0     H24174  10.281   3.478   6.210 -1.6146 -1.4856  0.9217
  900MOL0     H24175  10.205   3.529   6.058 -0.0779  1.0299  0.8350
  900MOL0     H24176  10.368   3.433   5.944  1.7468  0.5437  0.0082
  900MOL0     H24177  10.303   3.276   5.984  1.9534 -0.7417  1.6603
  900MOL0     H24178  10.500   3.400   6.170  1.5545  0.0376 -0.5329
  900MOL0     H24179  10.557   3.309   6.033  4.1120 -1.9717  4.7776
  900MOL0     H24180   9.487   3.942   6.243 -0.5268 -0.0450 -0.5385
  900MOL0     H24181   9.238   3.922   6.225 -1.0469 -0.2689 -0.6442
  900MOL0     H24182   8.807   3.453   6.053 -0.9125  0.4861 -1.4014
  900MOL0     H24183   8.585   3.481   6.100  1.6543 -0.5420 -1.2790
  900MOL0     H24184   7.131   3.594   7.453 -2.5123  3.5427 -0.0009
  900MOL0     H24185   7.134   3.675   7.661  1.3261 -3.3793  1.2471
  900MOL0     H24186   7.080   3.915   7.775 -0.7833 -1.2118 -0.6959
  900MOL0     H24187   6.942   4.063   7.923  1.2365  0.2386 -0.9974
  900MOL0     H24188   6.954   4.239   8.098  1.4223  0.5683  0.2586
  900MOL0     H24189   6.783   4.178   8.075  0.1438  0.5244  0.7864
  900MOL0     H24190   6.777   4.360   8.206 -2.4547 -0.2433 -0.3026
  900MOL0     H24191   6.883   4.295   8.333 -0.1987  2.2832 -1.1198
  900MOL0     H24192   6.630   4.157   8.242  0.3747 -1.4855  1.0902
  900MOL0     H24193   6.720   4.125   8.384  0.6926 -0.8076 -1.0113
  900MOL0     H24194   6.677   4.331   8.497  3.1543 -2.2485 -1.3170
  900MOL0     H24195   6.514   4.262   8.449 -0.8203  0.8223 -0.0839
  900MOL0     H24196   6.487   4.625   8.263  1.5484  1.2721  0.8467
  900MOL0     H24197   7.052   3.852   8.272  2.8053  1.9025  0.5215
  900MOL0     H24198   7.226   3.589   8.134  1.1867 -0.5423 -1.6729
  900MOL0     H24199   7.352   3.715   8.141  1.3378  1.9613  4.0321
  900MOL0     H24200   7.229   3.689   8.265  0.0921 -2.0732 -1.1179
  901MOL0     O24201   5.506   7.241   0.949 -0.4139 -0.2076 -0.8679
  901MOL0     C24202   5.519   7.341   1.007 -0.2924  0.3741 -0.4413
  901MOL0     O24203   5.619   7.429   0.984  0.5240 -0.6477 -0.0410
  901MOL0     C24204   5.729   7.369   0.918  0.2752 -0.1748  0.5486
  901MOL0     C24205   5.770   7.384   0.776  0.0735 -0.4165 -0.3311
  901MOL0     C24206   5.885   7.330   0.722  0.4575  0.8246 -0.7334
  901MOL0     C24207   5.975   7.257   0.806  0.4763 -0.0492 -0.5239
  901MOL0     O24208   6.101   7.213   0.765  0.5250 -0.0873 -0.0068
  901MOL0     C24209   6.160   7.277   0.645  0.8775 -0.5976 -0.1991
  901MOL0     C24210   6.299   7.221   0.627  0.4350 -0.6810  0.2968
  901MOL0     C24211   6.406   7.288   0.701  0.2706  0.7402 -0.5259
  901MOL0     C24212   6.534   7.199   0.678 -1.0375  0.3630 -0.4350
  901MOL0     C24213   6.656   7.262   0.741  0.1315  0.6558 -0.6602
  901MOL0     C24214   6.788   7.192   0.706  0.3953  0.6834  0.6688
  901MOL0     C24215   6.903   7.214   0.799  0.9952  0.7027  0.0581
  901MOL0     C24216   6.869   7.169   0.946 -0.4213 -0.5663  0.7909
  901MOL0     N24217   6.993   7.177   1.025 -0.0605  0.2454  0.7050
  901MOL0     C24218   7.034   7.272   1.116  0.1767 -0.0327 -0.3019
  901MOL0     C24219   7.156   7.232   1.150 -0.3356 -0.0465  0.7926
  901MOL0     C24220   7.248   7.293   1.249  0.5196 -0.0781  0.4558
  901MOL0     C24221   7.254   7.215   1.379 -0.8183 -0.0680  0.5210
  901MOL0     C24222   7.400   7.164   1.406  0.2545  0.0237 -0.0713
  901MOL0     C24223   7.498   7.284   1.414  0.0787  0.2444  0.1939
  901MOL0     O24224   7.441   7.404   1.475  0.0682 -0.7122 -0.0102
  901MOL0     C24225   7.518   7.516   1.499 -0.3919 -0.0917  0.3783
  901MOL0     C24226   7.654   7.521   1.472 -0.3620 -0.5659 -0.2749
  901MOL0     C24227   7.724   7.638   1.485  0.0800 -0.7804  0.3743
  901MOL0     C24228   7.866   7.641   1.444  0.4497  0.2791  1.1624
  901MOL0     C24229   7.667   7.757   1.546  0.8820 -0.0777 -0.3317
  901MOL0     C24230   7.739   7.889   1.582  0.0840  0.1657 -0.0536
  901MOL0     O24231   7.661   7.988   1.637  0.1543  0.5849 -0.1908
  901MOL0     C24232   7.697   8.072   1.735  0.1372  0.6583 -0.2809
  901MOL0     C24233   7.629   8.195   1.732 -0.5830 -0.0119 -0.5651
  901MOL0     C24234   7.676   8.299   1.809 -1.5209 -0.5810 -0.0120
  901MOL0     C24235   7.786   8.287   1.892 -0.8625 -0.2244  0.4108
  901MOL0     O24236   7.822   8.403   1.959  0.2338 -0.1068 -0.1085
  901MOL0     C24237   7.872   8.380   2.092 -0.4578 -0.3803 -1.0553
  901MOL0     C24238   7.874   8.503   2.191  0.9644  1.3139  0.3240
  901MOL0     C24239   7.963   8.611   2.145 -0.5061 -0.1476 -0.0028
  901MOL0     C24240   7.959   8.726   2.247 -0.3522 -0.2359  0.3677
  901MOL0     C24241   8.054   8.826   2.193 -0.3891 -0.7980  0.4830
  901MOL0     C24242   8.087   8.939   2.293  0.2503 -0.6641 -0.9388
  901MOL0     C24243   8.147   9.064   2.219  0.2939 -0.0582 -0.4755
  901MOL0     C24244   8.172   9.181   2.312 -0.6418  0.6109 -0.5514
  901MOL0    Cl24245   8.190   9.340   2.219  0.1213 -0.2387 -0.4882
  901MOL0     C24246   7.852   8.165   1.898 -0.5143  0.3867 -0.0941
  901MOL0     C24247   7.807   8.058   1.818 -0.6986  0.4828  0.7077
  901MOL0     O24248   7.854   7.909   1.547  0.0112 -0.3371 -0.1995
  901MOL0     C24249   7.528   7.744   1.571  0.0329  0.3089 -0.1649
  901MOL0     C24250   7.456   7.631   1.549  0.8592  0.6205  0.2172
  901MOL0     N24251   7.196   7.119   1.079  0.4573 -0.6519 -0.0693
  901MOL0     N24252   7.089   7.082   1.005 -0.2901 -0.3439 -0.1979
  901MOL0     C24253   5.940   7.243   0.946  0.3561  0.7513 -0.2414
  901MOL0     C24254   5.824   7.299   1.000  0.7575  0.1791 -0.2435
  901MOL0     C24255   5.435   7.353   1.137 -0.2208 -0.8964  1.2913
  901MOL0     C24256   5.466   7.462   1.216 -0.3712  0.2089  0.2243
  901MOL0     C24257   5.412   7.487   1.337 -0.5228 -0.8635  0.3100
  901MOL0     C24258   5.303   7.406   1.369 -0.9770  0.5308 -0.3652
  901MOL0     O24259   5.224   7.447   1.474  0.5003 -0.0423 -0.5048
  901MOL0     C24260   5.131   7.546   1.420  0.8973  0.4883  0.2991
  901MOL0     C24261   5.009   7.535   1.512 -1.1503 -0.1448  0.6843
  901MOL0     C24262   4.910   7.643   1.484  0.2240 -0.3493 -0.6746
  901MOL0     C24263   4.919   7.757   1.589 -0.9539 -0.0644  0.4649
  901MOL0     C24264   4.813   7.858   1.577 -0.7253 -0.8035  0.1654
  901MOL0     C24265   4.728   7.954   1.584 -0.5353  0.5561 -0.4766
  901MOL0     C24266   5.269   7.293   1.298  0.2105 -0.4355 -0.1109
  901MOL0     C24267   5.335   7.265   1.182 -0.8354  0.1030 -0.6330
  901MOL0     C24268   5.297   7.141   1.112 -0.5137 -0.3022  0.6028
  901MOL0     H24269   5.700   7.424   0.703  0.6509  2.5252  0.5955
  901MOL0     H24270   5.906   7.345   0.617  2.3521 -0.6664 -0.6181
  901MOL0     H24271   6.174   7.384   0.662  0.8753 -0.7440  0.8160
  901MOL0     H24272   6.103   7.265   0.553  0.5452 -3.2894  0.2886
  901MOL0     H24273   6.310   7.118   0.661  1.5197  0.6264  4.5843
  901MOL0     H24274   6.321   7.234   0.520 -2.8711 -0.5147 -0.4604
  901MOL0     H24275   6.411   7.387   0.656 -0.7161 -0.5225 -3.7054
  901MOL0     H24276   6.376   7.287   0.806  0.5266 -1.5317 -0.4095
  901MOL0     H24277   6.519   7.093   0.702 -0.0974  0.3558  0.1736
  901MOL0     H24278   6.555   7.192   0.571 -1.0491 -2.2209 -0.3244
  901MOL0     H24279   6.644   7.254   0.850  2.2885  3.4071 -0.0822
  901MOL0     H24280   6.673   7.365   0.708  1.3889  0.2617 -1.3254
  901MOL0     H24281   6.771   7.085   0.692 -2.8492  1.3742 -1.8943
  901MOL0     H24282   6.818   7.230   0.608 -3.0430 -0.1564 -0.8629
  901MOL0     H24283   6.932   7.320   0.804 -0.0905  1.0064  0.0626
  901MOL0     H24284   6.985   7.156   0.756 -0.6826 -0.0681 -2.2660
  901MOL0     H24285   6.795   7.238   0.987 -2.6810 -0.9179 -2.3110
  901MOL0     H24286   6.818   7.072   0.950  0.7543 -1.1552  2.5733
  901MOL0     H24287   6.991   7.362   1.158 -0.8289 -1.4571  1.8840
  901MOL0     H24288   7.229   7.399   1.269 -1.8932 -0.0427 -1.4811
  901MOL0     H24289   7.336   7.296   1.185 -1.9497 -0.2259 -3.2672
  901MOL0     H24290   7.220   7.279   1.461 -1.5365  0.1804  0.0426
  901MOL0     H24291   7.194   7.124   1.373  2.7521 -2.6956  1.4409
  901MOL0     H24292   7.404   7.108   1.500  1.4014  0.7971  0.3602
  901MOL0     H24293   7.432   7.094   1.329  0.2953  0.0074 -0.0394
  901MOL0     H24294   7.592   7.249   1.460 -0.3033 -1.9845 -0.6192
  901MOL0     H24295   7.525   7.313   1.312 -0.1190 -0.1075  0.0407
  901MOL0     H24296   7.709   7.439   1.426  0.8420  0.8134 -1.3987
  901MOL0     H24297   7.892   7.564   1.372  2.2244  2.1057 -0.2832
  901MOL0     H24298   7.926   7.638   1.536  1.1194 -0.6581  0.7043
  901MOL0     H24299   7.883   7.732   1.385 -1.1881  0.4083  0.8374
  901MOL0     H24300   7.536   8.206   1.676 -0.5228 -4.2672 -1.8726
  901MOL0     H24301   7.620   8.391   1.818  0.0542  0.2165  3.1781
  901MOL0     H24302   7.804   8.303   2.132 -0.4765  0.4502  0.5958
  901MOL0     H24303   7.975   8.343   2.090 -1.0913 -2.4793  0.8250
  901MOL0     H24304   7.773   8.541   2.206  0.9249  1.0410  0.7731
  901MOL0     H24305   7.902   8.462   2.289 -0.9107  0.5542  0.5716
  901MOL0     H24306   7.920   8.648   2.052 -2.2532  1.7506  1.4696
  901MOL0     H24307   8.060   8.569   2.117 -0.1501  1.2105 -0.8586
  901MOL0     H24308   7.992   8.686   2.343 -0.4903  1.3690  1.1149
  901MOL0     H24309   7.861   8.774   2.262 -0.6221 -1.2801  2.3342
  901MOL0     H24310   8.146   8.771   2.171  0.5956  1.7768 -2.6863
  901MOL0     H24311   8.011   8.863   2.099 -2.8570 -3.3517  0.4715
  901MOL0     H24312   8.159   8.912   2.370 -2.7676  2.2611  3.4116
  901MOL0     H24313   8.001   8.963   2.357  0.8823 -1.0842  0.0910
  901MOL0     H24314   8.073   9.095   2.145  0.4577  1.5792  0.0099
  901MOL0     H24315   8.239   9.036   2.167  0.8201  1.4098 -0.3970
  901MOL0     H24316   8.257   9.162   2.379 -0.3902 -1.7761 -1.4336
  901MOL0     H24317   8.080   9.194   2.369  0.4011 -1.4852  1.7969
  901MOL0     H24318   7.937   8.149   1.964  0.2656  2.4211 -0.5195
  901MOL0     H24319   7.878   7.977   1.827  2.2266  2.7947 -0.1478
  901MOL0     H24320   7.469   7.824   1.614  0.3728 -0.0160  0.9692
  901MOL0     H24321   7.350   7.643   1.567  1.3565  0.3589  4.3688
  901MOL0     H24322   6.000   7.192   1.021 -2.5872 -0.7504  1.2851
  901MOL0     H24323   5.811   7.297   1.108  2.2152 -1.2029 -0.0512
  901MOL0     H24324   5.551   7.525   1.190  0.7517 -1.8104 -1.2282
  901MOL0     H24325   5.436   7.578   1.392  1.6417  0.3122 -2.3045
  901MOL0     H24326   5.184   7.640   1.438  1.6474  0.0317  0.5331
  901MOL0     H24327   5.100   7.529   1.317  0.3584 -0.9927  0.6878
  901MOL0     H24328   5.026   7.529   1.620 -0.8063  0.5355  0.6763
  901MOL0     H24329   4.978   7.439   1.471  0.2397 -0.3184  0.0109
  901MOL0     H24330   4.931   7.676   1.382 -1.3815  0.2532 -0.8511
  901MOL0     H24331   4.808   7.601   1.484  0.5273 -1.1365  0.3010
  901MOL0     H24332   5.014   7.811   1.584 -0.8542 -0.3486 -1.1848
  901MOL0     H24333   4.904   7.709   1.687 -1.8760 -1.5581 -0.3722
  901MOL0     H24334   4.661   8.037   1.587 -0.9315  0.3009 -1.6603
  901MOL0     H24335   5.183   7.238   1.336  0.6703 -0.1561  1.3850
  901MOL0     H24336   5.372   7.061   1.110  0.1156  0.2073  2.0590
  901MOL0     H24337   5.213   7.095   1.164 -0.8978  1.1019  1.2665
  901MOL0     H24338   5.264   7.160   1.010 -1.0414 -1.4659  0.5447
  902MOL0     O24339   9.617   3.898   3.465 -0.0890 -0.2400  0.3331
  902MOL0     C24340   9.648   3.974   3.377  0.0490 -0.1238 -0.1337
  902MOL0     O24341   9.765   4.052   3.378  0.4000  1.0290 -0.2267
  902MOL0     C24342   9.861   4.025   3.470 -0.0225  0.8492  0.1798
  902MOL0     C24343   9.833   4.052   3.602 -0.7806 -0.5704  0.3994
  902MOL0     C24344   9.930   4.024   3.697 -0.5524  0.2984  0.0550
  902MOL0     C24345  10.048   3.951   3.670 -0.8644  0.1937  0.0203
  902MOL0     O24346  10.139   3.928   3.769  0.7943 -0.1506  0.4580
  902MOL0     C24347  10.262   3.860   3.753 -0.1220  0.6945 -0.1233
  902MOL0     C24348  10.365   3.889   3.872  0.0535  0.1058  0.2839
  902MOL0     C24349  10.438   4.028   3.861 -0.5103 -0.3816  0.0908
  902MOL0     C24350  10.555   4.028   3.967  0.3242  0.2954  1.0907
  902MOL0     C24351  10.628   4.160   3.962  0.1327  0.0897 -0.0081
  902MOL0     C24352  10.757   4.166   4.044  0.6462  0.0355  0.4346
  902MOL0     C24353  10.875   4.074   4.005  0.1484 -0.4459  0.1165
  902MOL0     C24354  10.986   4.071   4.115  0.0428  0.3472  0.3162
  902MOL0     N24355  10.935   4.028   4.241 -0.7741 -0.8774 -0.5752
  902MOL0     C24356  10.878   3.909   4.267 -0.3859  0.2197  1.1773
  902MOL0     C24357  10.845   3.925   4.402  0.6398  0.0246  0.0265
  902MOL0     C24358  10.783   3.815   4.482 -0.1313  0.1189 -0.2596
  902MOL0     C24359  10.632   3.821   4.483  0.2379  0.3295  0.0727
  902MOL0     C24360  10.569   3.783   4.355 -0.5507 -0.3823  0.5616
  902MOL0     C24361  10.418   3.766   4.349  0.7710  0.3496  0.2716
  902MOL0     O24362  10.396   3.703   4.224 -0.5288 -0.4652 -0.2098
  902MOL0     C24363  10.263   3.671   4.192 -0.3190  0.5844  0.5385
  902MOL0     C24364  10.161   3.662   4.293  0.3758 -0.0267  0.3150
  902MOL0     C24365  10.027   3.653   4.252 -0.4078 -0.8503 -0.5173
  902MOL0     C24366   9.932   3.659   4.363 -0.2441  0.8569  0.2258
  902MOL0     C24367   9.983   3.629   4.119  0.2420 -0.6715  0.0443
  902MOL0     C24368   9.848   3.608   4.058 -0.4303  0.7730  1.2279
  902MOL0     O24369   9.842   3.582   3.925  0.0719 -0.4124 -0.1644
  902MOL0     C24370   9.712   3.583   3.883 -0.2673 -0.3650 -0.3412
  902MOL0     C24371   9.606   3.508   3.933 -0.8373  0.7642  0.0598
  902MOL0     C24372   9.478   3.515   3.875  0.8120  0.4014 -0.5536
  902MOL0     C24373   9.448   3.616   3.776  0.2271  0.2274 -0.1209
  902MOL0     O24374   9.324   3.632   3.725  0.0029 -0.4481 -0.5551
  902MOL0     C24375   9.259   3.514   3.685 -0.4603  1.1537  0.5107
  902MOL0     C24376   9.144   3.550   3.586 -0.3038 -0.8947  0.1387
  902MOL0     C24377   9.065   3.423   3.526  0.0788 -0.0903 -0.3745
  902MOL0     C24378   8.961   3.374   3.630  0.1023  0.0522  0.3181
  902MOL0     C24379   8.898   3.241   3.591 -1.1877 -0.5964 -0.4723
  902MOL0     C24380   8.796   3.188   3.693 -0.3283  0.1785 -0.7871
  902MOL0     C24381   8.746   3.051   3.653  0.1161 -0.1216  0.7203
  902MOL0     C24382   8.643   2.989   3.743 -0.4888  1.4463  0.1782
  902MOL0    Cl24383   8.728   2.970   3.894 -0.2188  0.1928  0.5724
  902MOL0     C24384   9.548   3.699   3.732  0.6091  0.2954 -0.1715
  902MOL0     C24385   9.679   3.680   3.784 -0.3642 -0.0922 -0.2807
  902MOL0     O24386   9.758   3.652   4.122  0.5580  0.7437  0.0295
  902MOL0     C24387  10.091   3.622   4.029 -0.1743  0.5018  0.5596
  902MOL0     C24388  10.225   3.634   4.066 -0.8893  0.6901  0.1298
  902MOL0     N24389  10.893   4.040   4.453  0.2343 -0.5854  0.4256
  902MOL0     N24390  10.939   4.108   4.351  0.7746  0.3453  0.0747
  902MOL0     C24391  10.069   3.920   3.535  0.1380  0.3438 -0.1778
  902MOL0     C24392   9.975   3.943   3.438 -0.8843  0.9333  0.6726
  902MOL0     C24393   9.568   3.966   3.250  0.3594 -0.1616 -0.1260
  902MOL0     C24394   9.630   4.009   3.129  0.5433  0.5002 -0.2560
  902MOL0     C24395   9.560   4.012   3.010  0.6391 -1.0952  0.3541
  902MOL0     C24396   9.424   3.982   2.998  0.0255 -0.5402 -0.7740
  902MOL0     O24397   9.371   4.004   2.869  0.7277  0.6511  0.2022
  902MOL0     C24398   9.240   3.946   2.843 -0.2166 -0.0262  0.0226
  902MOL0     C24399   9.189   3.997   2.701  0.1496 -0.5619 -0.2003
  902MOL0     C24400   9.045   3.969   2.677  0.4591  0.7225  1.1861
  902MOL0     C24401   9.005   4.039   2.540 -0.3805 -0.0062  0.3767
  902MOL0     C24402   9.048   4.175   2.519 -0.2915 -0.2136  0.6772
  902MOL0     C24403   9.085   4.293   2.516  0.1216 -0.3062  1.2673
  902MOL0     C24404   9.362   3.939   3.114 -0.4292  0.0498 -0.3341
  902MOL0     C24405   9.428   3.941   3.241 -0.1753 -0.5272  0.7414
  902MOL0     C24406   9.348   3.909   3.359  1.2117 -0.0143 -0.2691
  902MOL0     H24407   9.735   4.093   3.623 -0.6735  0.4082 -0.9162
  902MOL0     H24408   9.905   4.052   3.799  1.7263 -0.8498  0.9935
  902MOL0     H24409  10.318   3.887   3.664  0.7013 -1.4931 -0.3248
  902MOL0     H24410  10.250   3.752   3.748  0.9509  0.3540  2.7564
  902MOL0     H24411  10.306   3.884   3.964  3.0389  1.3424  2.4337
  902MOL0     H24412  10.437   3.808   3.862 -1.5428 -1.1378 -2.0858
  902MOL0     H24413  10.466   4.060   3.760 -1.4433 -1.1633 -0.4283
  902MOL0     H24414  10.367   4.106   3.891  0.5940  0.5759  0.3204
  902MOL0     H24415  10.514   4.012   4.068  2.9518 -1.9982  1.9153
  902MOL0     H24416  10.615   3.942   3.935  0.3216  0.3877  0.8374
  902MOL0     H24417  10.561   4.234   4.005  1.6119  1.6280 -0.2447
  902MOL0     H24418  10.641   4.196   3.859  1.9149 -0.1147  0.1092
  902MOL0     H24419  10.787   4.270   4.032 -1.0252  0.4210 -0.7105
  902MOL0     H24420  10.737   4.154   4.151 -0.9022 -1.3207  0.0362
  902MOL0     H24421  10.917   4.103   3.908  2.0660  5.1852  2.2554
  902MOL0     H24422  10.846   3.968   4.000  2.3288 -1.1888  1.5979
  902MOL0     H24423  11.064   3.999   4.088 -0.9721 -1.1550  1.2575
  902MOL0     H24424  11.031   4.170   4.120 -0.8806  0.8390 -0.7396
  902MOL0     H24425  10.868   3.824   4.201  1.5197  0.3222  0.7011
  902MOL0     H24426  10.820   3.835   4.583 -0.4364  2.3589 -0.5272
  902MOL0     H24427  10.820   3.717   4.452 -1.6569 -0.5497 -0.0737
  902MOL0     H24428  10.596   3.757   4.565 -0.7400 -0.4978 -0.9729
  902MOL0     H24429  10.596   3.921   4.511  0.2079 -0.0915  1.6812
  902MOL0     H24430  10.590   3.863   4.283  3.4818 -1.4098  0.3628
  902MOL0     H24431  10.619   3.694   4.316  0.7080  0.1667  0.8661
  902MOL0     H24432  10.393   3.691   4.425  1.3652 -2.1201 -1.8018
  902MOL0     H24433  10.356   3.856   4.354 -0.6051 -0.5004 -0.7069
  902MOL0     H24434  10.171   3.690   4.397  1.0896  2.5629 -0.3563
  902MOL0     H24435   9.892   3.760   4.377 -2.2994  0.7094 -3.3641
  902MOL0     H24436   9.966   3.616   4.458  2.1454 -1.6270 -1.6152
  902MOL0     H24437   9.846   3.597   4.337 -0.5196  1.2773  0.1312
  902MOL0     H24438   9.619   3.439   4.016 -1.2754  1.5013  0.7522
  902MOL0     H24439   9.396   3.462   3.921  2.2757 -1.6108 -0.1164
  902MOL0     H24440   9.326   3.438   3.644 -2.1580 -0.2833  0.3108
  902MOL0     H24441   9.204   3.467   3.767  0.0107  1.3586  0.9520
  902MOL0     H24442   9.065   3.617   3.620  2.5650  2.1960  1.3296
  902MOL0     H24443   9.197   3.596   3.502  1.0839 -1.6316  0.5654
  902MOL0     H24444   9.136   3.342   3.507  1.7067  1.4912 -1.3248
  902MOL0     H24445   9.029   3.456   3.429 -0.7420  1.0114  0.2758
  902MOL0     H24446   8.875   3.442   3.630 -1.4348 -1.7826  0.7545
  902MOL0     H24447   8.994   3.364   3.734  0.2948  0.0667  0.2579
  902MOL0     H24448   8.849   3.256   3.494  0.7658 -0.8060 -1.5511
  902MOL0     H24449   8.975   3.164   3.581 -0.5738 -0.7595  3.7689
  902MOL0     H24450   8.708   3.253   3.696  0.1590  0.8528  1.8756
  902MOL0     H24451   8.850   3.193   3.788 -2.3263  3.8683  0.3565
  902MOL0     H24452   8.836   2.989   3.647  0.3213  0.2718 -2.9717
  902MOL0     H24453   8.704   3.057   3.552  2.3530  0.4595 -0.2420
  902MOL0     H24454   8.603   2.891   3.714  0.5602  0.2434  2.4846
  902MOL0     H24455   8.555   3.053   3.756  0.4958  2.9501 -0.3064
  902MOL0     H24456   9.531   3.782   3.664 -0.4693 -1.2823 -1.9159
  902MOL0     H24457   9.750   3.761   3.768 -2.1844  1.9196  1.1392
  902MOL0     H24458  10.073   3.592   3.926  0.5578  0.2748  0.4928
  902MOL0     H24459  10.310   3.615   4.001  0.1607  0.7240  1.4457
  902MOL0     H24460  10.151   3.857   3.503  3.0257  2.8483  1.7840
  902MOL0     H24461   9.994   3.898   3.341 -1.0559 -0.3024  1.2002
  902MOL0     H24462   9.736   4.036   3.127  0.6012  0.2558 -2.0176
  902MOL0     H24463   9.603   4.044   2.916  1.9586  1.2018  1.6600
  902MOL0     H24464   9.237   3.838   2.823 -4.2259 -0.0652  0.1243
  902MOL0     H24465   9.179   3.977   2.928 -1.7669  0.2912 -1.1628
  902MOL0     H24466   9.252   3.949   2.625  0.8784  1.6268 -1.0402
  902MOL0     H24467   9.211   4.104   2.703  0.2415 -0.5743  1.7501
  902MOL0     H24468   9.029   3.862   2.668  1.0679  0.7442 -0.8394
  902MOL0     H24469   8.984   4.010   2.757 -2.0709 -2.6023  1.1692
  902MOL0     H24470   8.899   4.034   2.512 -1.0841  0.5699  2.7527
  902MOL0     H24471   9.051   3.982   2.459 -3.2613  0.6423 -1.8887
  902MOL0     H24472   9.110   4.393   2.488 -0.5469 -0.4886 -0.0756
  902MOL0     H24473   9.258   3.910   3.104 -1.5581  2.2619  3.2647
  902MOL0     H24474   9.246   3.882   3.330  1.0115 -1.8406  1.8738
  902MOL0     H24475   9.381   3.812   3.398  1.1704  0.2636  0.4765
  902MOL0     H24476   9.350   3.970   3.450 -0.8475 -2.9647  1.9851
  903MOL0     O24477  11.246   9.516   1.392  0.0224 -0.1291 -0.5700
  903MOL0     C24478  11.207   9.610   1.460  0.7844  1.0095  0.1670
  903MOL0     O24479  11.261   9.647   1.578  0.1851 -0.1191 -0.0808
  903MOL0     C24480  11.350   9.560   1.632 -0.4899  0.4062 -0.4689
  903MOL0     C24481  11.487   9.575   1.623 -1.0411  0.1548 -1.2176
  903MOL0     C24482  11.566   9.470   1.680  0.0985 -1.1070 -0.2609
  903MOL0     C24483  11.513   9.361   1.752 -0.6383  0.0512  0.0862
  903MOL0     O24484  11.609   9.272   1.784  0.2332  0.3760 -0.2912
  903MOL0     C24485  11.575   9.168   1.877 -1.0122  0.8894 -1.0789
  903MOL0     C24486  11.696   9.142   1.979  0.1267  0.6934  0.6136
  903MOL0     C24487  11.734   9.275   2.050 -1.0157 -0.2285 -0.4044
  903MOL0     C24488  11.848   9.233   2.142 -0.2784 -0.5830 -0.0556
  903MOL0     C24489  11.888   9.361   2.219  0.2743 -0.6549  0.0751
  903MOL0     C24490  11.983   9.331   2.339  0.1905 -0.6696  0.1821
  903MOL0     C24491  12.018   9.455   2.421 -0.5976  0.1943 -0.0133
  903MOL0     C24492  12.121   9.542   2.350 -0.5000  0.1370  0.2682
  903MOL0     N24493  12.180   9.638   2.442 -1.1610 -0.5273  0.8267
  903MOL0     C24494  12.303   9.703   2.429  0.4576 -0.3435 -0.0405
  903MOL0     C24495  12.303   9.800   2.524  0.0307 -0.2679 -0.3715
  903MOL0     C24496  12.420   9.897   2.555  0.5427 -0.6481  0.6864
  903MOL0     C24497  12.415  10.030   2.472 -0.0715  0.3435  0.4652
  903MOL0     C24498  12.520  10.130   2.511 -0.8535  0.2268 -0.1983
  903MOL0     C24499  12.652  10.133   2.420  0.4059 -0.3402  0.2044
  903MOL0     O24500  12.719  10.019   2.394  0.6014  0.6395 -0.4624
  903MOL0     C24501  12.799   9.969   2.498 -0.4346 -0.6469 -0.2274
  903MOL0     C24502  12.835   9.834   2.481 -0.1632  0.4899 -0.4868
  903MOL0     C24503  12.925   9.766   2.569  0.1207  0.2178 -0.4628
  903MOL0     C24504  12.961   9.630   2.532  0.4816 -0.1348 -0.9887
  903MOL0     C24505  12.963   9.834   2.690  0.0974  0.7334 -0.1581
  903MOL0     C24506  13.036   9.772   2.798 -0.2967  1.3020  0.5822
  903MOL0     O24507  13.048   9.840   2.910  0.8264 -0.0555  0.1504
  903MOL0     C24508  13.129   9.792   3.010 -0.2914  0.3374 -0.5267
  903MOL0     C24509  13.252   9.849   3.036  0.1758 -0.4554  0.3857
  903MOL0     C24510  13.338   9.804   3.132 -0.4585  1.0463 -0.0422
  903MOL0     C24511  13.297   9.696   3.219 -0.8569 -0.1039 -0.1509
  903MOL0     O24512  13.390   9.658   3.315  0.2369 -0.0845  0.7054
  903MOL0     C24513  13.360   9.531   3.378 -0.4189 -0.3737  0.1440
  903MOL0     C24514  13.472   9.493   3.472 -0.1685 -0.1459 -0.1004
  903MOL0     C24515  13.616   9.507   3.420  0.1395  0.3542  0.2096
  903MOL0     C24516  13.719   9.421   3.499 -0.2580 -0.0309 -0.3432
  903MOL0     C24517  13.733   9.469   3.650  0.0153  0.3291  0.9283
  903MOL0     C24518  13.876   9.418   3.700  0.0485 -0.5507 -0.0616
  903MOL0     C24519  13.930   9.505   3.818  0.2756  1.0726  0.4262
  903MOL0     C24520  14.055   9.453   3.879 -0.0329 -0.6475 -0.2040
  903MOL0    Cl24521  14.180   9.478   3.757  0.2938 -0.0093 -0.2175
  903MOL0     C24522  13.174   9.639   3.194 -0.1464 -0.4171  0.6445
  903MOL0     C24523  13.088   9.683   3.092  0.5960 -0.2456 -1.0720
  903MOL0     O24524  13.080   9.660   2.789 -0.5309  0.1133  0.5340
  903MOL0     C24525  12.911   9.965   2.717  0.0425  0.0896 -0.0350
  903MOL0     C24526  12.831  10.030   2.619 -1.2195 -1.1700 -0.3790
  903MOL0     N24527  12.177   9.804   2.577  0.1031  0.7001 -0.4326
  903MOL0     N24528  12.105   9.706   2.538 -0.1771 -0.4004 -0.0859
  903MOL0     C24529  11.380   9.351   1.767 -0.2042 -0.3876 -0.6929
  903MOL0     C24530  11.304   9.453   1.708  0.7453 -1.2283 -0.2735
  903MOL0     C24531  11.093   9.701   1.407  0.1992  0.2106  0.0758
  903MOL0     C24532  11.073   9.822   1.473 -0.3291 -0.4383 -0.7700
  903MOL0     C24533  10.972   9.912   1.444 -0.8283  0.1863  0.1638
  903MOL0     C24534  10.899   9.887   1.326 -0.0825 -1.2099 -0.3526
  903MOL0     O24535  10.809   9.978   1.267  0.1721  0.0315 -0.3034
  903MOL0     C24536  10.782  10.102   1.342  0.3897 -0.1533  0.5396
  903MOL0     C24537  10.672  10.190   1.286  0.4690  0.3875  0.3833
  903MOL0     C24538  10.699  10.241   1.145 -0.6660  0.5055 -0.4722
  903MOL0     C24539  10.705  10.132   1.026 -0.3482 -1.2723  0.0960
  903MOL0     C24540  10.612  10.014   1.038  0.6172 -0.0794  0.7972
  903MOL0     C24541  10.542   9.915   1.044 -0.5103  0.0821  0.1701
  903MOL0     C24542  10.908   9.766   1.260 -0.5187  0.6374  0.0174
  903MOL0     C24543  11.006   9.667   1.299  0.6850 -0.8899 -0.6108
  903MOL0     C24544  11.018   9.544   1.216 -0.7610 -0.0497  0.5086
  903MOL0     H24545  11.536   9.653   1.566  0.9469 -0.1799 -0.0792
  903MOL0     H24546  11.674   9.467   1.662  0.3655 -2.4361  1.3435
  903MOL0     H24547  11.550   9.070   1.836 -0.1042  0.1347  0.0974
  903MOL0     H24548  11.488   9.200   1.935  1.7885  1.0767  3.5887
  903MOL0     H24549  11.670   9.058   2.044  1.0687 -0.8471 -0.9233
  903MOL0     H24550  11.782   9.099   1.928 -0.3434  0.6982 -0.2040
  903MOL0     H24551  11.769   9.344   1.972 -0.1881 -1.5177 -1.2167
  903MOL0     H24552  11.645   9.300   2.108  0.5721 -1.0511  2.5824
  903MOL0     H24553  11.828   9.148   2.209  0.3171 -1.4853 -0.9836
  903MOL0     H24554  11.935   9.205   2.081 -0.3600 -0.2821 -0.3091
  903MOL0     H24555  11.797   9.406   2.262  1.2520  1.4563  0.0524
  903MOL0     H24556  11.929   9.427   2.143 -1.4035 -0.9819 -1.1667
  903MOL0     H24557  11.940   9.262   2.412 -1.1202  0.7931  0.8772
  903MOL0     H24558  12.073   9.299   2.287  0.3687  0.5847 -0.3297
  903MOL0     H24559  12.048   9.425   2.522 -1.7372 -3.4263 -0.5906
  903MOL0     H24560  11.919   9.499   2.436 -1.6398 -0.6764 -3.4862
  903MOL0     H24561  12.197   9.470   2.318  1.8533  1.2753  2.8811
  903MOL0     H24562  12.080   9.602   2.268  0.1360 -1.2259 -1.1004
  903MOL0     H24563  12.373   9.691   2.347 -0.1909 -0.3083 -0.6025
  903MOL0     H24564  12.512   9.840   2.542 -0.3932 -1.5986 -2.8188
  903MOL0     H24565  12.412   9.915   2.663 -0.4143 -0.2305  0.5552
  903MOL0     H24566  12.432   9.996   2.370 -0.5999 -2.9610  1.3665
  903MOL0     H24567  12.318  10.081   2.470  1.2825  3.1660  1.0532
  903MOL0     H24568  12.483  10.233   2.513  0.9845  0.9539  2.1314
  903MOL0     H24569  12.554  10.110   2.613 -0.3592 -2.3270 -0.7912
  903MOL0     H24570  12.614  10.170   2.324 -1.5920 -2.4068  0.1121
  903MOL0     H24571  12.720  10.209   2.460 -0.1536  0.7470 -0.8092
  903MOL0     H24572  12.794   9.787   2.392 -2.2598  0.6508  0.3375
  903MOL0     H24573  12.890   9.559   2.576  0.9357  0.0562  0.0900
  903MOL0     H24574  13.058   9.597   2.569  0.6045 -0.3837 -1.5283
  903MOL0     H24575  12.967   9.619   2.424 -1.2053  0.7646 -1.2180
  903MOL0     H24576  13.286   9.925   2.967 -0.7203 -0.1201  0.3058
  903MOL0     H24577  13.433   9.852   3.147  0.4172 -0.4584 -0.5475
  903MOL0     H24578  13.266   9.546   3.432 -1.3749 -0.3830 -1.4606
  903MOL0     H24579  13.350   9.449   3.306 -0.8621  0.8383 -1.2329
  903MOL0     H24580  13.483   9.557   3.561  1.5710 -3.4922  2.3368
  903MOL0     H24581  13.462   9.390   3.507  0.1204 -0.9952 -2.4066
  903MOL0     H24582  13.649   9.610   3.430  1.3855 -0.1149  1.1795
  903MOL0     H24583  13.616   9.472   3.316 -3.1930 -3.0224  1.0943
  903MOL0     H24584  13.810   9.441   3.442  0.5759 -1.7203  0.3130
  903MOL0     H24585  13.691   9.315   3.500 -0.1399 -0.0661 -0.7496
  903MOL0     H24586  13.727   9.578   3.657 -1.0162  0.6055 -2.5638
  903MOL0     H24587  13.648   9.426   3.704 -0.1937 -2.0348 -1.1241
  903MOL0     H24588  13.944   9.417   3.615 -0.9835  2.9268 -1.0937
  903MOL0     H24589  13.870   9.312   3.726 -0.4140 -1.0184 -1.9710
  903MOL0     H24590  13.851   9.512   3.893 -2.0989  0.4307 -1.8349
  903MOL0     H24591  13.966   9.600   3.777 -2.6621  1.7950 -0.7606
  903MOL0     H24592  14.043   9.348   3.907  3.5989 -0.1626  4.4483
  903MOL0     H24593  14.085   9.505   3.971 -0.7992 -0.3681 -0.0978
  903MOL0     H24594  13.134   9.556   3.251 -0.4232  0.3309  1.5626
  903MOL0     H24595  12.992   9.634   3.076  0.0884  0.9059 -1.6737
  903MOL0     H24596  12.937  10.023   2.805  2.7306  5.0936 -3.5684
  903MOL0     H24597  12.808  10.135   2.635  0.9777 -0.4448 -1.4880
  903MOL0     H24598  11.329   9.272   1.821 -2.8065  0.6291 -1.5043
  903MOL0     H24599  11.196   9.442   1.712  0.3249  1.0584 -2.4107
  903MOL0     H24600  11.142   9.861   1.548 -3.2048 -0.4684  2.1179
  903MOL0     H24601  10.982  10.003   1.502  0.0339  1.1445 -1.4094
  903MOL0     H24602  10.759  10.073   1.444 -1.1617 -1.6485 -0.1803
  903MOL0     H24603  10.874  10.160   1.337 -0.6316  1.7238  2.1664
  903MOL0     H24604  10.656  10.274   1.355  1.5303  0.4599  0.5530
  903MOL0     H24605  10.572  10.144   1.289 -0.8315  3.0379  1.1541
  903MOL0     H24606  10.621  10.312   1.116 -2.0365 -0.8563 -0.2846
  903MOL0     H24607  10.790  10.302   1.145  0.4119 -1.0124 -1.7122
  903MOL0     H24608  10.808  10.096   1.025  0.0018 -0.3144 -1.6107
  903MOL0     H24609  10.691  10.194   0.938  2.1116 -0.0305  0.5032
  903MOL0     H24610  10.483   9.831   1.076  1.4812 -0.3258  3.2578
  903MOL0     H24611  10.834   9.750   1.183 -3.3162 -2.1924  2.9655
  903MOL0     H24612  10.994   9.449   1.264  1.1983 -0.6512  0.3987
  903MOL0     H24613  10.971   9.553   1.118  2.7616  1.6184 -1.2190
  903MOL0     H24614  11.121   9.522   1.187 -0.0336  0.3533  2.5791
  904MOL0     O24615   7.764   6.094   2.222 -0.0491  0.2383 -0.3725
  904MOL0     C24616   7.659   6.034   2.237  0.5424  0.1805 -0.9582
  904MOL0     O24617   7.648   5.907   2.293  0.5193  0.2100 -0.1049
  904MOL0     C24618   7.762   5.827   2.310 -0.2206  0.2135 -0.2629
  904MOL0     C24619   7.894   5.850   2.250  0.6179 -0.9875 -0.0334
  904MOL0     C24620   7.999   5.768   2.293 -0.7206  0.3556 -0.3286
  904MOL0     C24621   7.979   5.661   2.390  0.0364 -0.0813  0.0506
  904MOL0     O24622   8.079   5.574   2.432  0.0761 -0.1174  0.9933
  904MOL0     C24623   8.212   5.575   2.374  0.4769  0.8950 -0.4154
  904MOL0     C24624   8.305   5.469   2.441  0.2192 -0.0460  0.5866
  904MOL0     C24625   8.449   5.495   2.401 -0.3273  0.3317  0.1768
  904MOL0     C24626   8.542   5.499   2.524  0.1986 -0.5257  0.3426
  904MOL0     C24627   8.698   5.512   2.484  0.2010 -0.4909  0.6210
  904MOL0     C24628   8.785   5.511   2.612  0.8168  0.3579 -0.3028
  904MOL0     C24629   8.925   5.457   2.581  0.4376  0.5193  0.4755
  904MOL0     C24630   9.004   5.378   2.689 -0.0155 -0.5854 -0.4546
  904MOL0     N24631   9.024   5.438   2.819 -0.1659 -1.2832 -0.1126
  904MOL0     C24632   9.054   5.574   2.842  0.0765 -0.7551  0.0575
  904MOL0     C24633   9.029   5.592   2.975 -0.0832 -0.0984  0.0457
  904MOL0     C24634   9.044   5.713   3.051  0.0431 -1.0415 -0.1641
  904MOL0     C24635   9.185   5.727   3.112  0.4643  0.0065 -1.0478
  904MOL0     C24636   9.190   5.793   3.255 -0.5152  0.4190 -0.3626
  904MOL0     C24637   9.148   5.692   3.367 -0.4467 -0.0121  0.4759
  904MOL0     O24638   9.248   5.597   3.360  0.0805  0.4522  0.3973
  904MOL0     C24639   9.365   5.602   3.425  0.5874  0.1946  0.6420
  904MOL0     C24640   9.465   5.517   3.377  0.7616  0.0745  0.9738
  904MOL0     C24641   9.588   5.508   3.445 -0.2834  0.2792  0.0108
  904MOL0     C24642   9.675   5.399   3.400  0.2121 -0.2827 -0.1291
  904MOL0     C24643   9.616   5.595   3.556  0.3829  0.4095 -0.0799
  904MOL0     C24644   9.740   5.581   3.634  0.1150  0.2570  0.4426
  904MOL0     O24645   9.854   5.510   3.574  0.0010 -0.6559 -0.3801
  904MOL0     C24646   9.978   5.543   3.625  0.3411  0.2727  0.5234
  904MOL0     C24647   9.997   5.499   3.756 -0.2544 -0.1460 -0.7167
  904MOL0     C24648  10.116   5.491   3.812 -0.5282 -0.0757  0.4323
  904MOL0     C24649  10.235   5.531   3.736  0.4032  0.7086  0.2721
  904MOL0     O24650  10.353   5.513   3.804  0.1667  0.4988  0.0603
  904MOL0     C24651  10.471   5.571   3.759  0.4157 -0.0734 -0.1386
  904MOL0     C24652  10.583   5.534   3.856 -1.1511  0.2527  0.6878
  904MOL0     C24653  10.723   5.581   3.807  0.2292  0.6237 -0.4043
  904MOL0     C24654  10.829   5.477   3.844 -0.2136  0.3958 -1.1292
  904MOL0     C24655  10.972   5.518   3.829 -0.1782  0.0354 -0.3144
  904MOL0     C24656  11.079   5.433   3.899  0.5500 -0.2412  0.0541
  904MOL0     C24657  11.218   5.457   3.842 -1.1326  1.1539  0.1329
  904MOL0     C24658  11.328   5.349   3.896  0.3240 -0.2140 -0.4980
  904MOL0    Cl24659  11.347   5.222   3.766 -0.0450  0.3813 -0.1071
  904MOL0     C24660  10.220   5.589   3.608 -0.1170  0.8329 -0.4838
  904MOL0     C24661  10.087   5.592   3.553 -0.0370  1.3357 -0.1385
  904MOL0     O24662   9.744   5.638   3.741  0.2495  0.1108  1.2820
  904MOL0     C24663   9.514   5.695   3.587 -0.7214  0.9068  0.2624
  904MOL0     C24664   9.390   5.691   3.521 -0.1037  0.0909  0.0786
  904MOL0     N24665   8.990   5.478   3.028  0.0043 -0.2890  0.0603
  904MOL0     N24666   8.982   5.386   2.936  0.6393 -0.4965 -0.4504
  904MOL0     C24667   7.852   5.642   2.444 -0.3415 -0.5285 -0.6439
  904MOL0     C24668   7.750   5.719   2.399  0.3370 -0.5153 -0.3757
  904MOL0     C24669   7.526   6.100   2.193 -0.4394  0.3624  0.1244
  904MOL0     C24670   7.421   6.021   2.157  0.0427  0.5661 -0.7377
  904MOL0     C24671   7.308   6.073   2.108  0.9201  0.4052 -0.0514
  904MOL0     C24672   7.296   6.210   2.078 -0.8934  0.4121  0.8859
  904MOL0     O24673   7.189   6.272   2.016  0.0290  0.1788  0.0217
  904MOL0     C24674   7.081   6.198   1.967 -0.6320 -0.2065 -0.3376
  904MOL0     C24675   6.982   6.299   1.903  0.3405  0.0524  0.3128
  904MOL0     C24676   6.866   6.208   1.851  0.2854  0.4302 -0.1711
  904MOL0     C24677   6.772   6.265   1.749 -1.0443  0.5157 -0.1088
  904MOL0     C24678   6.763   6.174   1.634 -0.5386  0.5304 -0.5184
  904MOL0     C24679   6.753   6.079   1.551  0.2294  0.0427  0.5245
  904MOL0     C24680   7.399   6.293   2.107  0.3013  0.1757 -0.3998
  904MOL0     C24681   7.516   6.240   2.170 -0.4344  0.5089 -0.8581
  904MOL0     C24682   7.618   6.342   2.211  0.1186  0.1914  0.7077
  904MOL0     H24683   7.919   5.936   2.189 -0.3011  0.7983  1.9514
  904MOL0     H24684   8.100   5.788   2.258 -1.1111  4.4365  0.3835
  904MOL0     H24685   8.250   5.676   2.389 -1.0900  1.5835 -0.8389
  904MOL0     H24686   8.208   5.554   2.267 -3.1601  1.8386 -0.5842
  904MOL0     H24687   8.289   5.467   2.549  3.5729 -1.2522  1.1924
  904MOL0     H24688   8.278   5.376   2.390  0.3511  1.8552 -3.3369
  904MOL0     H24689   8.483   5.418   2.331  2.4455  1.2470  0.3632
  904MOL0     H24690   8.457   5.592   2.350 -2.5238  1.3182  1.5689
  904MOL0     H24691   8.518   5.586   2.586 -0.4794 -1.2748  1.1756
  904MOL0     H24692   8.525   5.411   2.588  1.6674 -0.5393  0.7526
  904MOL0     H24693   8.720   5.605   2.430  0.6261  0.8137  2.9161
  904MOL0     H24694   8.722   5.424   2.423  0.3823  0.4301 -0.6945
  904MOL0     H24695   8.787   5.610   2.658  0.9317  0.7899 -1.2033
  904MOL0     H24696   8.735   5.445   2.683 -1.4036  1.6741 -0.5607
  904MOL0     H24697   8.988   5.542   2.552  3.6422 -0.9479  2.5295
  904MOL0     H24698   8.913   5.395   2.492  1.3844 -0.6181  1.1164
  904MOL0     H24699   8.945   5.288   2.711  0.2232 -0.3002  1.4600
  904MOL0     H24700   9.094   5.333   2.647  0.6538 -2.3231  2.5610
  904MOL0     H24701   9.089   5.647   2.769 -1.8326  0.2771  0.1353
  904MOL0     H24702   8.975   5.716   3.136  0.7670  1.9286  0.4487
  904MOL0     H24703   9.032   5.800   2.986 -0.1091 -1.1675 -0.3038
  904MOL0     H24704   9.234   5.630   3.124  0.6521  0.1161 -0.9163
  904MOL0     H24705   9.253   5.789   3.053 -2.2834 -0.2388 -4.8299
  904MOL0     H24706   9.281   5.845   3.286 -0.7651  2.0765 -2.1891
  904MOL0     H24707   9.116   5.873   3.245 -0.8379  0.1109 -0.4468
  904MOL0     H24708   9.139   5.748   3.460 -0.7337 -1.4280  1.3241
  904MOL0     H24709   9.044   5.664   3.353 -0.8689  1.3538  0.7330
  904MOL0     H24710   9.432   5.454   3.295  0.5593  0.9556  0.3579
  904MOL0     H24711   9.708   5.340   3.485 -0.8034 -0.3338  0.2481
  904MOL0     H24712   9.762   5.434   3.344 -0.0146 -3.3324 -2.7003
  904MOL0     H24713   9.615   5.333   3.336  1.9719 -0.2603 -1.8933
  904MOL0     H24714   9.913   5.452   3.805 -0.1514 -0.3854 -0.7667
  904MOL0     H24715  10.134   5.458   3.914  0.6012  0.4980  0.4491
  904MOL0     H24716  10.496   5.539   3.657  0.8890  3.0570 -1.1453
  904MOL0     H24717  10.471   5.681   3.761 -0.5353 -0.0701  2.2720
  904MOL0     H24718  10.572   5.575   3.957 -0.3235  1.7701  0.1872
  904MOL0     H24719  10.577   5.425   3.858 -0.0538  0.1532 -0.3246
  904MOL0     H24720  10.735   5.678   3.856 -0.5542 -0.2863  1.7252
  904MOL0     H24721  10.727   5.598   3.699  3.5525 -3.9648 -1.3221
  904MOL0     H24722  10.802   5.383   3.796 -0.5584 -0.5568  0.8510
  904MOL0     H24723  10.821   5.457   3.951 -2.4789  3.4652 -0.5912
  904MOL0     H24724  10.978   5.509   3.720 -1.7268 -3.1274 -0.2322
  904MOL0     H24725  10.979   5.623   3.858  0.1867  0.8094 -2.9275
  904MOL0     H24726  11.053   5.327   3.891 -0.3903 -0.0392  0.4030
  904MOL0     H24727  11.077   5.449   4.007 -1.9103  3.8896 -0.4220
  904MOL0     H24728  11.252   5.555   3.875 -0.0170  1.0859 -0.7214
  904MOL0     H24729  11.220   5.447   3.733  3.6055 -1.0576  0.1724
  904MOL0     H24730  11.306   5.304   3.993  2.6386 -3.7143 -1.4191
  904MOL0     H24731  11.430   5.389   3.899  0.3907 -0.4645  1.3111
  904MOL0     H24732  10.309   5.626   3.559  0.6930  0.0460  0.3767
  904MOL0     H24733  10.073   5.626   3.451 -0.4170  0.6783 -0.3073
  904MOL0     H24734   9.524   5.756   3.677 -1.1909 -0.2235  1.1012
  904MOL0     H24735   9.310   5.760   3.548  0.3089  0.4772  0.3489
  904MOL0     H24736   7.839   5.557   2.510  0.8900 -1.7652 -1.9276
  904MOL0     H24737   7.652   5.696   2.439  0.7592  0.8250  1.5944
  904MOL0     H24738   7.433   5.913   2.160 -1.4734  0.3823  0.9597
  904MOL0     H24739   7.232   5.996   2.109  0.4115  0.8910  1.4112
  904MOL0     H24740   7.122   6.122   1.900  3.5859 -2.5658  4.3018
  904MOL0     H24741   7.036   6.144   2.050  1.9932 -0.4081  1.0367
  904MOL0     H24742   7.013   6.361   1.818 -2.3374 -0.1276 -0.8798
  904MOL0     H24743   6.939   6.353   1.988  0.3038 -1.2119  1.1311
  904MOL0     H24744   6.913   6.121   1.804 -1.0880  0.8201 -2.4078
  904MOL0     H24745   6.812   6.167   1.938  2.8733 -0.3661  1.1532
  904MOL0     H24746   6.820   6.361   1.730  0.6925  0.0484  1.6544
  904MOL0     H24747   6.675   6.280   1.798 -1.3003 -2.3473  0.4286
  904MOL0     H24748   6.730   5.997   1.487  0.3753 -0.1570  0.7288
  904MOL0     H24749   7.392   6.400   2.088 -0.0661  0.0091 -1.2244
  904MOL0     H24750   7.680   6.312   2.295  1.8685  2.3699  0.2640
  904MOL0     H24751   7.677   6.378   2.126 -0.5232 -0.1703  0.0849
  904MOL0     H24752   7.562   6.427   2.250  0.5211  1.3956 -1.2031
  905MOL0     O24753  10.841   7.475   3.318 -0.4581  0.1349 -0.1063
  905MOL0     C24754  10.831   7.586   3.371 -0.3002  0.5362  0.3269
  905MOL0     O24755  10.918   7.629   3.467 -0.3898 -0.9031 -1.0085
  905MOL0     C24756  11.016   7.549   3.526 -0.6952  0.3167 -0.1471
  905MOL0     C24757  11.150   7.567   3.504 -0.1121 -0.0394 -0.1941
  905MOL0     C24758  11.247   7.478   3.560  0.2683  0.4491 -0.2923
  905MOL0     C24759  11.210   7.372   3.641 -0.0527  0.6679 -1.0431
  905MOL0     O24760  11.303   7.301   3.715  0.4465 -0.3957 -0.0289
  905MOL0     C24761  11.442   7.295   3.677 -0.4237 -0.8316 -0.8659
  905MOL0     C24762  11.525   7.214   3.779  0.8787  0.8525  0.0185
  905MOL0     C24763  11.664   7.174   3.725  0.3128 -0.2907  0.3540
  905MOL0     C24764  11.768   7.282   3.753  0.4890 -0.6943  0.2168
  905MOL0     C24765  11.913   7.240   3.730  0.2872 -0.8695 -0.0934
  905MOL0     C24766  11.999   7.368   3.731 -0.1584  0.2346 -0.1814
  905MOL0     C24767  12.138   7.325   3.672  0.0056  0.0810  0.2295
  905MOL0     C24768  12.250   7.436   3.650  0.2467 -0.2033  0.3985
  905MOL0     N24769  12.282   7.490   3.782 -0.3671 -0.0198 -0.1811
  905MOL0     C24770  12.362   7.438   3.884  0.2288  0.0012  0.5698
  905MOL0     C24771  12.341   7.518   3.988  0.2778 -0.2296  0.1355
  905MOL0     C24772  12.401   7.489   4.129  0.7203 -0.3658  0.7774
  905MOL0     C24773  12.553   7.452   4.127  0.3742 -0.1262 -0.0817
  905MOL0     C24774  12.606   7.395   4.263 -0.4521  0.6351  0.1484
  905MOL0     C24775  12.613   7.490   4.383  0.4695 -0.3387  0.9891
  905MOL0     O24776  12.728   7.587   4.383 -0.0398 -0.7959  0.1984
  905MOL0     C24777  12.823   7.601   4.479  0.2702 -0.1670  0.3122
  905MOL0     C24778  12.817   7.553   4.615  1.1227 -0.0249  0.5001
  905MOL0     C24779  12.915   7.588   4.708 -0.9956  1.1114  0.0095
  905MOL0     C24780  12.905   7.541   4.852  0.3518 -0.2979 -0.6953
  905MOL0     C24781  13.039   7.663   4.666  1.2651  0.5745 -0.4966
  905MOL0     C24782  13.137   7.729   4.756  0.1137  0.8319  0.1236
  905MOL0     O24783  13.225   7.812   4.695 -0.0968 -0.5606  0.1004
  905MOL0     C24784  13.356   7.821   4.734  0.6624 -0.4308  0.3353
  905MOL0     C24785  13.410   7.941   4.758  0.0253 -0.4980 -1.2332
  905MOL0     C24786  13.540   7.960   4.798 -0.2106 -0.2117  0.5953
  905MOL0     C24787  13.617   7.854   4.838  0.5218  0.2350  0.9010
  905MOL0     O24788  13.752   7.857   4.850  0.5182 -0.2567 -0.7809
  905MOL0     C24789  13.799   7.948   4.937 -0.1597  0.1872  0.1174
  905MOL0     C24790  13.944   7.919   4.957  0.6476  0.0716 -0.0630
  905MOL0     C24791  14.032   7.896   4.836  0.3003  0.3342 -0.1044
  905MOL0     C24792  14.185   7.924   4.868 -0.6405 -0.3374 -0.0732
  905MOL0     C24793  14.270   7.861   4.750 -0.1983 -0.7624 -1.0327
  905MOL0     C24794  14.247   7.952   4.626 -0.7935  0.2756  0.8075
  905MOL0     C24795  14.353   7.929   4.516  0.3012  0.6526  0.0826
  905MOL0     C24796  14.468   8.026   4.511 -0.6054  0.1971 -0.0467
  905MOL0    Cl24797  14.566   8.027   4.365 -0.0351  0.5858 -0.5512
  905MOL0     C24798  13.564   7.729   4.804  0.8113 -0.4904 -0.0246
  905MOL0     C24799  13.435   7.708   4.747  0.5058  0.8886  0.0100
  905MOL0     O24800  13.126   7.706   4.878 -0.4739  0.9148 -0.0213
  905MOL0     C24801  13.051   7.685   4.522  0.8860 -0.1737 -0.2237
  905MOL0     C24802  12.944   7.664   4.435  0.3052  1.1710  0.4878
  905MOL0     N24803  12.246   7.609   3.948  0.7577 -0.8733  0.2708
  905MOL0     N24804  12.222   7.601   3.818 -0.1331 -0.4412 -0.2344
  905MOL0     C24805  11.077   7.353   3.667 -0.1785  0.3584  0.3534
  905MOL0     C24806  10.979   7.441   3.610 -0.3428 -0.9466 -0.6264
  905MOL0     C24807  10.717   7.676   3.330  0.2429 -0.1147  0.3032
  905MOL0     C24808  10.692   7.799   3.400 -1.0089 -0.1832 -1.3588
  905MOL0     C24809  10.582   7.891   3.363  0.1046 -1.1233 -0.7247
  905MOL0     C24810  10.499   7.857   3.257 -0.4322  0.3468 -0.5037
  905MOL0     O24811  10.394   7.931   3.215  0.5864  0.2094 -0.4755
  905MOL0     C24812  10.411   8.069   3.182  0.6006  0.7552 -0.1849
  905MOL0     C24813  10.396   8.099   3.032  0.9013  0.6979  0.2057
  905MOL0     C24814  10.248   8.072   2.989  0.3028  0.1881 -0.0245
  905MOL0     C24815  10.227   8.118   2.846  1.1081  0.0971  0.9259
  905MOL0     C24816  10.291   8.029   2.749  0.4849 -0.8928  0.5699
  905MOL0     C24817  10.358   7.939   2.685  0.5912  0.0561  0.6446
  905MOL0     C24818  10.524   7.739   3.190  0.5545  0.8413 -0.0507
  905MOL0     C24819  10.629   7.650   3.224  1.3456 -0.0597  0.5077
  905MOL0     C24820  10.642   7.533   3.129 -0.5255  0.4485  0.1268
  905MOL0     H24821  11.176   7.650   3.439  0.3687  0.3302  0.4527
  905MOL0     H24822  11.350   7.511   3.567 -0.1435  1.5119  1.4558
  905MOL0     H24823  11.490   7.393   3.671  2.0921 -1.8084  1.1218
  905MOL0     H24824  11.445   7.253   3.576 -1.5211  0.9967 -1.6975
  905MOL0     H24825  11.529   7.271   3.873  1.6560  0.0906  0.4647
  905MOL0     H24826  11.475   7.118   3.795  3.0899 -0.7968 -2.2679
  905MOL0     H24827  11.691   7.083   3.779  2.7554 -0.0599 -0.3871
  905MOL0     H24828  11.676   7.139   3.622 -0.4061 -2.4910  0.9506
  905MOL0     H24829  11.745   7.378   3.706 -0.3732 -0.4045  1.2038
  905MOL0     H24830  11.760   7.304   3.859 -3.4695 -1.9384  0.3333
  905MOL0     H24831  11.926   7.193   3.632 -1.5297 -0.3269 -0.6328
  905MOL0     H24832  11.939   7.176   3.815 -1.1215 -0.2106  0.8738
  905MOL0     H24833  11.959   7.450   3.671 -1.3980  0.4871  0.9244
  905MOL0     H24834  11.985   7.402   3.834 -1.9872  0.4584 -0.4736
  905MOL0     H24835  12.121   7.284   3.573 -1.1147 -0.7041  0.7281
  905MOL0     H24836  12.183   7.247   3.735  0.1753 -0.8118 -0.9610
  905MOL0     H24837  12.344   7.415   3.598  0.4046  2.6051 -0.6239
  905MOL0     H24838  12.197   7.515   3.597 -2.4945 -1.2651  1.3569
  905MOL0     H24839  12.419   7.347   3.871 -0.4579 -0.3944  0.2196
  905MOL0     H24840  12.354   7.399   4.170  0.6405 -0.6530  0.0765
  905MOL0     H24841  12.378   7.574   4.194  2.1709  0.4693  0.2358
  905MOL0     H24842  12.588   7.384   4.048  2.7263 -0.1899  0.9212
  905MOL0     H24843  12.594   7.552   4.113  0.8221 -0.0523  1.5374
  905MOL0     H24844  12.548   7.306   4.289  0.0422  0.3715  0.3586
  905MOL0     H24845  12.711   7.366   4.249 -0.3589 -0.4437  2.6419
  905MOL0     H24846  12.516   7.536   4.403  0.5207 -1.4303  4.5326
  905MOL0     H24847  12.623   7.427   4.472 -1.2899  1.2500  2.3764
  905MOL0     H24848  12.725   7.505   4.647 -1.7035  2.2828 -3.2751
  905MOL0     H24849  12.870   7.614   4.925  0.5104 -2.6582  1.8634
  905MOL0     H24850  12.999   7.495   4.885 -0.6839 -0.4557  2.2352
  905MOL0     H24851  12.822   7.472   4.867 -0.9378  1.8639  3.5136
  905MOL0     H24852  13.358   8.033   4.732 -0.0103 -1.4947 -5.4908
  905MOL0     H24853  13.577   8.062   4.789 -1.3745  0.3891  2.2435
  905MOL0     H24854  13.793   8.052   4.903  2.4431 -0.3377 -2.3485
  905MOL0     H24855  13.752   7.938   5.035  0.0787 -3.4144 -0.0203
  905MOL0     H24856  13.990   8.007   5.004  1.2240  0.5247 -1.4451
  905MOL0     H24857  13.955   7.830   5.019  0.0826 -1.3648 -1.9662
  905MOL0     H24858  14.004   7.963   4.754  1.4116  0.6530 -0.2446
  905MOL0     H24859  14.000   7.796   4.806 -1.4305  0.9287 -0.3730
  905MOL0     H24860  14.201   7.879   4.967 -1.3241 -1.1330 -0.3096
  905MOL0     H24861  14.208   8.031   4.877 -0.3839 -0.5527  2.6094
  905MOL0     H24862  14.377   7.856   4.776 -0.3893  0.5621  0.1253
  905MOL0     H24863  14.248   7.756   4.729 -2.3504 -0.4115 -0.7089
  905MOL0     H24864  14.259   8.057   4.655  2.7114 -0.6010  3.0607
  905MOL0     H24865  14.146   7.934   4.587 -0.0496  0.8928 -1.5843
  905MOL0     H24866  14.296   7.931   4.423  0.1451  2.0876  0.1918
  905MOL0     H24867  14.389   7.825   4.516 -0.3702  0.4204 -0.0676
  905MOL0     H24868  14.539   8.018   4.594  0.1876 -0.6268 -0.7837
  905MOL0     H24869  14.427   8.127   4.515 -2.5230 -0.5206 -0.7499
  905MOL0     H24870  13.630   7.644   4.815 -0.1771 -1.2380  0.2667
  905MOL0     H24871  13.404   7.604   4.739 -0.5717  1.0937  1.2050
  905MOL0     H24872  13.143   7.738   4.500 -0.8516  3.3107  0.1785
  905MOL0     H24873  12.946   7.708   4.335 -1.6315  0.6917  0.2045
  905MOL0     H24874  11.050   7.267   3.728 -1.5168 -0.5530 -1.4401
  905MOL0     H24875  10.874   7.421   3.631 -0.3002 -1.9450 -1.2996
  905MOL0     H24876  10.750   7.824   3.488  1.3901 -1.0500 -2.5976
  905MOL0     H24877  10.555   7.983   3.413 -1.1649 -0.9339 -1.7232
  905MOL0     H24878  10.348   8.129   3.248 -1.3454  0.4336 -1.6587
  905MOL0     H24879  10.510   8.110   3.202  1.5270 -0.4539 -2.0192
  905MOL0     H24880  10.466   8.033   2.981 -3.7954 -3.7860 -1.3821
  905MOL0     H24881  10.409   8.204   3.004 -2.0747  1.3857  1.0333
  905MOL0     H24882  10.215   7.968   2.996  1.1301 -0.0263  1.0018
  905MOL0     H24883  10.196   8.133   3.063  1.3016 -0.0036  0.8633
  905MOL0     H24884  10.264   8.219   2.824  1.5338 -0.3736 -0.6949
  905MOL0     H24885  10.119   8.126   2.830  1.3759  0.1332 -1.2505
  905MOL0     H24886  10.408   7.852   2.649 -3.1252 -1.8015 -0.5789
  905MOL0     H24887  10.465   7.724   3.101  1.5141  0.3934 -0.6320
  905MOL0     H24888  10.737   7.531   3.074 -0.9778 -2.0096 -0.7104
  905MOL0     H24889  10.635   7.440   3.187  3.0702  0.4345  0.7792
  905MOL0     H24890  10.563   7.534   3.054 -2.0259  3.7815  1.5529
  906MOL0     O24891   0.203   6.870  10.319 -0.8081 -1.1350  0.0799
  906MOL0     C24892   0.160   6.781  10.257  0.4119 -0.1432 -0.1461
  906MOL0     O24893   0.026   6.768  10.228 -0.1666 -0.4781 -0.0520
  906MOL0     C24894  -0.019   6.716  10.107  0.6175  0.0529  0.1611
  906MOL0     C24895   0.047   6.731   9.985 -0.6186  0.2919 -0.1254
  906MOL0     C24896  -0.011   6.700   9.863  0.1487 -0.1011 -0.2586
  906MOL0     C24897  -0.139   6.646   9.858 -0.5909  0.6933  1.3250
  906MOL0     O24898  -0.197   6.614   9.731 -0.7222 -0.0142 -0.5375
  906MOL0     C24899  -0.280   6.496   9.723 -0.0548 -1.4641 -0.0551
  906MOL0     C24900  -0.263   6.434   9.582  0.4414 -0.1470 -0.3937
  906MOL0     C24901  -0.122   6.390   9.571 -0.2660 -0.5226 -0.1511
  906MOL0     C24902  -0.037   6.456   9.455  0.6515 -0.1582 -0.5972
  906MOL0     C24903   0.109   6.400   9.444 -0.1643 -0.2151 -1.1578
  906MOL0     C24904   0.120   6.247   9.411 -0.1286 -0.1900 -0.0323
  906MOL0     C24905   0.236   6.206   9.317  0.1493  0.0444 -0.4924
  906MOL0     C24906   0.223   6.055   9.277  0.7358  0.2659 -0.4008
  906MOL0     N24907   0.262   5.969   9.388  0.5480 -0.2164 -0.9877
  906MOL0     C24908   0.385   5.943   9.440 -1.0812  0.1784 -0.1892
  906MOL0     C24909   0.366   5.866   9.545 -0.6595  0.7827  0.0276
  906MOL0     C24910   0.473   5.814   9.649  0.6752  0.0156  0.3204
  906MOL0     C24911   0.503   5.665   9.612  0.3096 -0.0929 -0.1372
  906MOL0     C24912   0.586   5.663   9.487  0.9998 -0.5250  0.3499
  906MOL0     C24913   0.607   5.520   9.447  0.3225  0.2044  0.1455
  906MOL0     O24914   0.687   5.520   9.327 -0.8329 -0.2250  0.3470
  906MOL0     C24915   0.713   5.396   9.267 -0.0498 -0.6788  0.3480
  906MOL0     C24916   0.661   5.272   9.298  0.9821 -0.3284 -0.2045
  906MOL0     C24917   0.687   5.162   9.214 -0.4176  0.0419  0.4896
  906MOL0     C24918   0.618   5.034   9.260  0.2412  0.0379  0.2755
  906MOL0     C24919   0.766   5.167   9.099 -0.5536 -0.4236 -1.5374
  906MOL0     C24920   0.820   5.051   9.012  0.6522 -0.7801 -0.8121
  906MOL0     O24921   0.922   5.087   8.920 -0.2057  0.3762  0.4087
  906MOL0     C24922   0.979   4.997   8.839  0.0672  1.1019 -0.5101
  906MOL0     C24923   1.011   5.050   8.716  0.0779 -1.0885  0.0559
  906MOL0     C24924   1.078   4.970   8.622 -0.3974 -0.7701 -0.4018
  906MOL0     C24925   1.120   4.840   8.647  0.8126  0.1153  0.3176
  906MOL0     O24926   1.175   4.774   8.542 -0.0235  0.6313  0.1808
  906MOL0     C24927   1.262   4.670   8.585  0.3059  0.7377  0.9470
  906MOL0     C24928   1.337   4.610   8.469  0.9458 -0.2959 -0.7329
  906MOL0     C24929   1.441   4.509   8.523 -0.1815  0.7077 -0.0427
  906MOL0     C24930   1.434   4.375   8.447  0.1100  0.5327 -0.7222
  906MOL0     C24931   1.546   4.272   8.484  1.0299 -0.4231 -0.8929
  906MOL0     C24932   1.542   4.239   8.632 -0.1388  1.1770  1.1736
  906MOL0     C24933   1.637   4.130   8.678  0.4092  0.6736 -0.9821
  906MOL0     C24934   1.599   4.106   8.831  0.3739 -0.2762  0.2508
  906MOL0    Cl24935   1.745   4.052   8.927 -0.2507 -0.1361  1.1443
  906MOL0     C24936   1.079   4.788   8.768 -0.0927 -0.5465 -0.0720
  906MOL0     C24937   1.024   4.866   8.866  0.1163  0.9944  0.4263
  906MOL0     O24938   0.771   4.943   9.026  0.4628  0.4087  0.1640
  906MOL0     C24939   0.828   5.293   9.079  0.2946 -0.6934 -0.4391
  906MOL0     C24940   0.802   5.403   9.157  1.0081  0.7040  0.4729
  906MOL0     N24941   0.232   5.845   9.565  0.0585 -0.5448  0.0247
  906MOL0     N24942   0.169   5.913   9.469  0.5840  0.7051  0.3565
  906MOL0     C24943  -0.214   6.627   9.978  0.1016 -0.8074  0.0571
  906MOL0     C24944  -0.149   6.664  10.095  0.2566 -0.2923 -0.8930
  906MOL0     C24945   0.253   6.672  10.217  0.0314  0.0333 -0.3523
  906MOL0     C24946   0.208   6.541  10.231 -0.1947  0.2305  0.0533
  906MOL0     C24947   0.292   6.439  10.194 -0.4279  0.9554  0.3155
  906MOL0     C24948   0.435   6.463  10.165  0.6749 -0.4044 -0.0536
  906MOL0     O24949   0.525   6.364  10.133  0.0727 -0.1919  0.5214
  906MOL0     C24950   0.475   6.258  10.054 -0.1466 -0.6511  0.5758
  906MOL0     C24951   0.471   6.308   9.913  0.8980 -0.0530  0.4264
  906MOL0     C24952   0.412   6.195   9.824 -0.6801 -0.4932  0.6179
  906MOL0     C24953   0.439   6.215   9.669 -0.2613 -0.3614 -0.1900
  906MOL0     C24954   0.580   6.202   9.624  0.3095 -0.0631 -0.8383
  906MOL0     C24955   0.697   6.214   9.610 -0.4016 -0.0844  0.8440
  906MOL0     C24956   0.477   6.592  10.161  0.7085 -0.1890 -0.9540
  906MOL0     C24957   0.390   6.700  10.181 -0.4560 -0.0645  0.0437
  906MOL0     C24958   0.458   6.836  10.183 -0.5352  1.4753  0.1959
  906MOL0     H24959   0.146   6.775   9.984 -0.7204  0.6786  2.0438
  906MOL0     H24960   0.042   6.714   9.770  1.9210  2.1578  0.9937
  906MOL0     H24961  -0.386   6.523   9.733  0.2265  1.2883 -2.9754
  906MOL0     H24962  -0.246   6.421   9.795  2.0717 -1.0624 -0.5930
  906MOL0     H24963  -0.330   6.349   9.585  0.7194 -0.3345  0.7615
  906MOL0     H24964  -0.288   6.504   9.501  1.8850  0.4588 -0.3463
  906MOL0     H24965  -0.073   6.405   9.667  0.5915  1.5974 -0.8610
  906MOL0     H24966  -0.126   6.284   9.545 -0.6573  0.3879 -4.7644
  906MOL0     H24967  -0.093   6.440   9.362  0.1138 -1.2834 -0.1012
  906MOL0     H24968  -0.026   6.562   9.481 -1.5420 -0.0837  0.2246
  906MOL0     H24969   0.157   6.421   9.539 -1.1432  3.7266 -1.3740
  906MOL0     H24970   0.174   6.456   9.376 -0.5171 -1.6383 -2.7435
  906MOL0     H24971   0.122   6.203   9.511 -1.5561  1.3886  0.7438
  906MOL0     H24972   0.027   6.218   9.360  0.3453 -0.0253 -1.0042
  906MOL0     H24973   0.332   6.208   9.369 -1.2126 -2.5613  2.4137
  906MOL0     H24974   0.241   6.267   9.226  0.8965  1.6878  0.6106
  906MOL0     H24975   0.120   6.041   9.243  0.1689  1.3879  0.7946
  906MOL0     H24976   0.291   6.029   9.194  1.8498  0.1966  0.5037
  906MOL0     H24977   0.481   5.968   9.397 -1.4775 -0.8940 -1.7722
  906MOL0     H24978   0.428   5.818   9.748  1.5343 -1.0828  0.7807
  906MOL0     H24979   0.552   5.889   9.658 -0.4232  1.6466 -2.3211
  906MOL0     H24980   0.560   5.620   9.694 -4.0536  0.5172  3.6426
  906MOL0     H24981   0.414   5.605   9.594 -1.4230  2.8158 -2.0513
  906MOL0     H24982   0.532   5.713   9.405  1.3528 -2.5176 -1.1704
  906MOL0     H24983   0.682   5.712   9.505 -0.6200  2.9990  0.2150
  906MOL0     H24984   0.672   5.472   9.521  1.6554 -2.8511 -2.7256
  906MOL0     H24985   0.513   5.467   9.429  1.3563 -1.5488 -0.3932
  906MOL0     H24986   0.594   5.262   9.383  0.0540  0.9858 -0.7606
  906MOL0     H24987   0.536   5.045   9.331  0.1928 -0.0982  0.2413
  906MOL0     H24988   0.688   4.966   9.309 -0.6910 -0.0094  1.5990
  906MOL0     H24989   0.570   4.992   9.171 -2.4227  0.5178  1.3956
  906MOL0     H24990   0.981   5.150   8.689  1.9488 -0.2766  0.8128
  906MOL0     H24991   1.113   5.013   8.529  0.3284  2.4353  1.2001
  906MOL0     H24992   1.327   4.719   8.658  0.7908 -0.6599  1.4811
  906MOL0     H24993   1.207   4.590   8.634  0.4603 -0.3317 -0.5533
  906MOL0     H24994   1.266   4.567   8.398 -1.4785 -3.6640  3.1790
  906MOL0     H24995   1.383   4.688   8.409 -0.9852 -0.0757 -2.0046
  906MOL0     H24996   1.422   4.487   8.629 -4.2251 -2.4571 -1.2031
  906MOL0     H24997   1.540   4.554   8.512 -0.9030  2.9300  1.5953
  906MOL0     H24998   1.445   4.397   8.341  1.1875  1.9156 -0.3580
  906MOL0     H24999   1.333   4.339   8.467 -0.6711  3.1101  0.3991
  906MOL0     H25000   1.533   4.176   8.432  0.0605 -1.5807  1.3494
  906MOL0     H25001   1.646   4.312   8.464  1.1112 -0.2960 -0.2493
  906MOL0     H25002   1.441   4.209   8.662  0.1934 -3.8138 -1.6266
  906MOL0     H25003   1.570   4.330   8.687  0.3169  0.1802  2.6717
  906MOL0     H25004   1.737   4.169   8.657 -0.5687  3.6059 -0.6990
  906MOL0     H25005   1.622   4.033   8.630 -1.6915  1.0727 -1.2623
  906MOL0     H25006   1.504   4.052   8.837  1.0128 -2.0445 -3.1540
  906MOL0     H25007   1.582   4.209   8.865  1.4134 -0.0138  0.0138
  906MOL0     H25008   1.102   4.684   8.789  0.3319 -0.2822  0.8095
  906MOL0     H25009   1.017   4.820   8.964 -0.6979 -0.2316 -0.1833
  906MOL0     H25010   0.905   5.305   9.004 -2.3120 -1.1355 -3.3788
  906MOL0     H25011   0.852   5.498   9.146  1.4292  0.4505  0.1794
  906MOL0     H25012  -0.317   6.594   9.982  0.2454 -1.6000 -1.7289
  906MOL0     H25013  -0.208   6.641  10.183  0.1939 -1.5870 -1.2574
  906MOL0     H25014   0.109   6.515  10.266 -0.5686  1.7409  0.1555
  906MOL0     H25015   0.242   6.343  10.200 -0.3882  0.8814 -0.4387
  906MOL0     H25016   0.540   6.170  10.053  2.1715  0.9648 -0.2005
  906MOL0     H25017   0.383   6.216  10.096 -0.3331 -1.9956 -1.0907
  906MOL0     H25018   0.573   6.329   9.881  0.8372 -2.6044 -1.7822
  906MOL0     H25019   0.416   6.402   9.905 -0.6195 -0.7830  1.5772
  906MOL0     H25020   0.441   6.097   9.865 -0.9267 -0.1005  1.7654
  906MOL0     H25021   0.303   6.202   9.831 -0.5849  2.7856  0.2635
  906MOL0     H25022   0.412   6.318   9.644 -0.4564 -0.6525 -1.2535
  906MOL0     H25023   0.369   6.151   9.614 -1.4558  0.1190  0.7542
  906MOL0     H25024   0.801   6.206   9.584 -0.8414 -2.8023 -0.4840
  906MOL0     H25025   0.580   6.621  10.142  0.2448  2.7028  0.4058
  906MOL0     H25026   0.394   6.901  10.122 -0.8715  0.7025 -0.2869
  906MOL0     H25027   0.469   6.870  10.286 -0.6735  1.5818  0.1770
  906MOL0     H25028   0.556   6.833  10.134 -1.3345  1.0044 -1.4575
  907MOL0     O25029   2.353   7.966   1.198  0.5812 -0.5765  0.0253
  907MOL0     C25030   2.359   8.088   1.187 -0.0970  0.1593  0.5314
  907MOL0     O25031   2.421   8.169   1.275  0.1309  0.4928  0.2886
  907MOL0     C25032   2.443   8.126   1.406 -0.1060  0.2500  0.3377
  907MOL0     C25033   2.572   8.126   1.459 -0.6396  0.1113  0.7878
  907MOL0     C25034   2.588   8.086   1.590  0.2086 -0.2282  0.0845
  907MOL0     C25035   2.475   8.045   1.665 -0.7112  0.1006  0.2516
  907MOL0     O25036   2.485   8.006   1.796  0.5676 -0.7230 -0.8847
  907MOL0     C25037   2.587   7.917   1.845  0.1804 -0.7119  0.2950
  907MOL0     C25038   2.734   7.972   1.855 -0.0786 -0.5034 -0.8390
  907MOL0     C25039   2.812   7.906   1.970 -0.5300  0.3283 -0.1902
  907MOL0     C25040   2.954   7.947   1.990  0.0843 -0.0263  0.0216
  907MOL0     C25041   3.034   7.844   2.084  0.2940  0.3972 -0.3092
  907MOL0     C25042   3.182   7.883   2.094 -0.7446 -0.2091 -0.1127
  907MOL0     C25043   3.210   8.035   2.121  0.2170  0.0800  0.6156
  907MOL0     C25044   3.362   8.063   2.159 -0.8499  0.6070 -0.5089
  907MOL0     N25045   3.386   8.049   2.304  0.5271  0.0279 -0.5882
  907MOL0     C25046   3.405   7.933   2.374  0.5167 -0.1417 -0.4590
  907MOL0     C25047   3.458   7.981   2.493 -0.2602  0.5525  0.3449
  907MOL0     C25048   3.504   7.891   2.603  0.1810  0.6734  0.5259
  907MOL0     C25049   3.622   7.792   2.535 -0.2921  0.2245 -0.0693
  907MOL0     C25050   3.596   7.640   2.550  0.3683  0.1932 -0.0358
  907MOL0     C25051   3.708   7.551   2.490 -0.4664 -0.8331  0.3445
  907MOL0     O25052   3.734   7.595   2.354  0.6399 -0.2322 -0.0520
  907MOL0     C25053   3.826   7.526   2.276  1.1932 -0.4341 -0.7639
  907MOL0     C25054   3.847   7.571   2.144 -0.8777  0.3956 -0.4960
  907MOL0     C25055   3.959   7.521   2.069 -0.6101 -0.8880  0.2723
  907MOL0     C25056   3.982   7.580   1.933 -0.2336 -0.7102 -0.1556
  907MOL0     C25057   4.063   7.436   2.132  0.6665 -0.6374  0.5685
  907MOL0     C25058   4.180   7.374   2.067 -0.7192  0.1463 -0.1843
  907MOL0     O25059   4.263   7.298   2.145  0.5629 -0.5551 -0.6266
  907MOL0     C25060   4.370   7.236   2.084  0.0420 -0.1090 -0.3053
  907MOL0     C25061   4.498   7.256   2.130  0.7482  0.8521  0.2836
  907MOL0     C25062   4.613   7.188   2.086  0.5601 -1.2912 -0.0997
  907MOL0     C25063   4.596   7.089   1.987 -0.0536  1.6044  0.3467
  907MOL0     O25064   4.701   7.017   1.931 -0.3485  0.4155 -0.5462
  907MOL0     C25065   4.679   6.870   1.927  0.3009 -0.5195  0.2383
  907MOL0     C25066   4.811   6.808   1.896 -0.3840 -0.5027  0.2103
  907MOL0     C25067   4.889   6.825   2.023  0.5964 -0.5649 -0.5233
  907MOL0     C25068   5.026   6.755   2.016  0.6933  0.0566 -0.0333
  907MOL0     C25069   5.018   6.593   2.011  0.6777  0.1414 -0.2968
  907MOL0     C25070   5.143   6.521   2.061 -0.0929 -0.0919  0.6239
  907MOL0     C25071   5.270   6.564   1.981  0.5277 -0.2077  0.4403
  907MOL0     C25072   5.370   6.453   1.976 -0.3852  1.0303  0.1242
  907MOL0    Cl25073   5.321   6.321   1.873 -0.1460  0.1898  0.3828
  907MOL0     C25074   4.462   7.072   1.939 -0.7632  0.3040 -0.2065
  907MOL0     C25075   4.355   7.144   1.984  0.9732  0.9377 -0.2995
  907MOL0     O25076   4.199   7.407   1.952 -0.8775 -0.1169  0.3562
  907MOL0     C25077   4.024   7.378   2.250  0.2210 -0.6017 -0.2957
  907MOL0     C25078   3.912   7.428   2.323 -0.8521 -0.4572 -0.3434
  907MOL0     N25079   3.455   8.120   2.501 -0.2147  0.9097  0.2752
  907MOL0     N25080   3.402   8.155   2.389 -0.6282 -0.3328  0.1070
  907MOL0     C25081   2.350   8.047   1.618 -1.2538 -0.2574 -0.8151
  907MOL0     C25082   2.333   8.087   1.486  0.6548  0.0299 -0.1131
  907MOL0     C25083   2.273   8.154   1.086 -0.6381  0.6059  0.3985
  907MOL0     C25084   2.316   8.287   1.054 -0.5532 -0.2997  0.0282
  907MOL0     C25085   2.250   8.371   0.958  0.5750  0.2739  0.0123
  907MOL0     C25086   2.143   8.319   0.891  0.0257  0.8394 -0.2066
  907MOL0     O25087   2.074   8.407   0.813 -0.8221 -0.1734  0.0026
  907MOL0     C25088   1.944   8.387   0.755  0.0164  0.3323  0.6875
  907MOL0     C25089   1.939   8.297   0.630  0.0540 -0.3380  0.4549
  907MOL0     C25090   2.049   8.339   0.532 -0.2282 -0.6722 -0.2147
  907MOL0     C25091   2.041   8.288   0.388 -0.2204  0.3993 -1.1663
  907MOL0     C25092   2.146   8.340   0.300  0.1853 -0.4950 -0.3192
  907MOL0     C25093   2.232   8.411   0.240  0.4040  0.3447  1.1302
  907MOL0     C25094   2.108   8.181   0.913 -0.4201 -0.6026 -0.5133
  907MOL0     C25095   2.171   8.099   1.012  0.0795 -0.1620  0.3711
  907MOL0     C25096   2.122   7.950   1.024 -0.6718 -0.4102  0.6885
  907MOL0     H25097   2.662   8.154   1.406 -0.9902  0.0154  0.1394
  907MOL0     H25098   2.689   8.089   1.629  0.5274  2.7173 -0.7290
  907MOL0     H25099   2.580   7.826   1.783 -2.2785  0.2165 -0.9209
  907MOL0     H25100   2.546   7.884   1.941  0.6806 -4.8956 -0.7339
  907MOL0     H25101   2.788   7.935   1.768 -0.1808 -1.7973 -0.3799
  907MOL0     H25102   2.738   8.081   1.858  0.1185 -0.5147  1.8853
  907MOL0     H25103   2.756   7.925   2.062  2.0773 -0.5638  1.6753
  907MOL0     H25104   2.814   7.798   1.956 -2.2642  0.4152 -1.5476
  907MOL0     H25105   3.007   7.945   1.894 -2.2601  0.6357 -1.3472
  907MOL0     H25106   2.967   8.051   2.019  3.3388 -0.9203  2.3660
  907MOL0     H25107   3.014   7.743   2.046 -3.0618  1.3987 -1.6048
  907MOL0     H25108   2.996   7.855   2.186  0.3124 -0.7339 -0.1610
  907MOL0     H25109   3.208   7.830   2.185  0.3629 -1.1513 -0.9492
  907MOL0     H25110   3.249   7.846   2.016 -0.6329 -2.0417  0.8165
  907MOL0     H25111   3.149   8.068   2.206  0.5604  4.0294 -0.4685
  907MOL0     H25112   3.178   8.098   2.037 -0.6310 -2.2143 -0.8772
  907MOL0     H25113   3.429   8.004   2.096  0.7665 -0.1901  1.8013
  907MOL0     H25114   3.396   8.167   2.152  1.1064 -0.0149 -0.7039
  907MOL0     H25115   3.404   7.830   2.341  2.5416 -1.1820  2.3389
  907MOL0     H25116   3.422   7.831   2.644 -1.3365  2.3057  0.0070
  907MOL0     H25117   3.542   7.959   2.680  3.0094 -2.0696  1.7689
  907MOL0     H25118   3.640   7.821   2.431  0.0956 -2.3398 -0.7890
  907MOL0     H25119   3.724   7.806   2.572  0.5874 -0.9777 -1.8356
  907MOL0     H25120   3.580   7.614   2.655  2.2264 -1.0209 -0.0101
  907MOL0     H25121   3.498   7.614   2.509  0.6807 -0.3192 -0.4806
  907MOL0     H25122   3.800   7.557   2.548  1.3714  1.5499 -2.4529
  907MOL0     H25123   3.680   7.446   2.497  0.2784 -0.9430  5.4529
  907MOL0     H25124   3.783   7.650   2.105  0.8312  3.4036  2.3325
  907MOL0     H25125   4.081   7.620   1.911 -1.6900  3.4714 -0.0049
  907MOL0     H25126   3.908   7.660   1.926  0.3663  0.1817  2.4472
  907MOL0     H25127   3.955   7.510   1.853 -4.9457 -0.2127  0.7160
  907MOL0     H25128   4.502   7.321   2.216 -0.9786  0.8109  0.4450
  907MOL0     H25129   4.710   7.213   2.128  0.0335  0.5820  0.0762
  907MOL0     H25130   4.639   6.836   2.022  1.4947  0.8062  1.2591
  907MOL0     H25131   4.605   6.848   1.850 -3.6925 -0.3166  3.7094
  907MOL0     H25132   4.797   6.701   1.877  1.4919 -0.6763 -0.3502
  907MOL0     H25133   4.866   6.849   1.810 -0.9366  0.6844  0.3998
  907MOL0     H25134   4.836   6.790   2.112  0.3662 -0.0113 -0.4403
  907MOL0     H25135   4.914   6.930   2.041  0.7252 -0.9563  1.9176
  907MOL0     H25136   5.088   6.778   2.103  1.3018 -2.5237  0.3056
  907MOL0     H25137   5.081   6.783   1.926  0.3022  0.9522 -0.0020
  907MOL0     H25138   4.931   6.561   2.069  0.1669  0.4506 -0.8766
  907MOL0     H25139   5.000   6.572   1.905 -0.1235 -1.7075  0.1678
  907MOL0     H25140   5.122   6.416   2.039 -0.7178 -0.2551  1.8925
  907MOL0     H25141   5.156   6.536   2.169  1.0575  2.4931  0.2059
  907MOL0     H25142   5.321   6.652   2.022  1.9162 -0.4283 -0.7304
  907MOL0     H25143   5.239   6.590   1.880  0.4034 -2.0498 -0.0416
  907MOL0     H25144   5.379   6.422   2.080  2.3430  1.3605  0.0565
  907MOL0     H25145   5.459   6.500   1.932  0.3327  0.4587  0.9295
  907MOL0     H25146   4.456   7.006   1.853  0.2045 -0.1687  0.0745
  907MOL0     H25147   4.256   7.120   1.946  1.4197 -2.2904  0.3040
  907MOL0     H25148   4.093   7.311   2.300  0.3729  0.2325  0.6414
  907MOL0     H25149   3.890   7.394   2.424 -1.8961  0.9500 -0.0632
  907MOL0     H25150   2.272   8.025   1.689 -0.5463  0.4016  0.1994
  907MOL0     H25151   2.237   8.093   1.435 -0.6828 -3.9169  1.5243
  907MOL0     H25152   2.388   8.348   1.107 -0.1282  1.3009 -2.2713
  907MOL0     H25153   2.281   8.474   0.940  1.2536 -0.2637 -2.2719
  907MOL0     H25154   1.873   8.347   0.829 -2.5473  1.0987 -1.2011
  907MOL0     H25155   1.903   8.486   0.733  0.8807  0.4414 -0.4883
  907MOL0     H25156   1.840   8.314   0.588 -0.2654 -2.5051  0.2065
  907MOL0     H25157   1.930   8.190   0.650 -0.8925 -0.3513  0.0024
  907MOL0     H25158   2.062   8.447   0.537 -0.5692 -0.5051  6.5985
  907MOL0     H25159   2.140   8.295   0.575 -1.0924 -0.2241  2.2118
  907MOL0     H25160   1.943   8.327   0.359  0.0555  1.1581 -1.0837
  907MOL0     H25161   2.048   8.179   0.379 -2.1064  0.1035  0.2640
  907MOL0     H25162   2.292   8.470   0.173  0.5290  0.3558  1.2523
  907MOL0     H25163   2.027   8.131   0.860  0.7222 -0.0892 -2.8992
  907MOL0     H25164   2.193   7.887   0.969 -1.4238 -0.8051  0.1471
  907MOL0     H25165   2.107   7.920   1.128  1.3500 -0.7978  0.9005
  907MOL0     H25166   2.028   7.947   0.968 -0.3812 -1.2119  0.2184
  908MOL0     O25167   6.591   7.070   6.348 -0.7571 -0.4223  0.3023
  908MOL0     C25168   6.594   7.089   6.227 -0.1544  0.1600  0.0724
  908MOL0     O25169   6.621   6.994   6.127  0.0590 -0.0081 -0.2203
  908MOL0     C25170   6.643   6.867   6.172 -0.0498 -0.2145 -0.3032
  908MOL0     C25171   6.771   6.814   6.163  0.1864  0.7045  0.2268
  908MOL0     C25172   6.800   6.685   6.200  0.0803 -0.9087  0.8786
  908MOL0     C25173   6.699   6.596   6.236  0.3138 -0.0478  0.7038
  908MOL0     O25174   6.712   6.464   6.266  0.7589 -0.1271 -0.6060
  908MOL0     C25175   6.824   6.394   6.221 -0.4877  0.0846  0.0146
  908MOL0     C25176   6.926   6.385   6.333  0.3281 -0.2228  0.5030
  908MOL0     C25177   6.899   6.273   6.430  0.0019 -0.0261  0.2948
  908MOL0     C25178   6.781   6.286   6.523  0.1966 -0.0568 -0.2092
  908MOL0     C25179   6.752   6.154   6.600  0.8373 -0.1785 -0.0895
  908MOL0     C25180   6.857   6.130   6.707 -0.3267 -0.0946  0.3075
  908MOL0     C25181   6.851   5.987   6.763  0.2446 -0.9419  0.7013
  908MOL0     C25182   6.989   5.926   6.793  0.1882 -0.4840  0.0811
  908MOL0     N25183   7.037   6.000   6.916 -0.2766 -0.2325  0.1890
  908MOL0     C25184   7.133   6.098   6.922 -0.4660 -0.7941  0.4386
  908MOL0     C25185   7.173   6.096   7.051 -1.4141  0.1106  0.1632
  908MOL0     C25186   7.300   6.152   7.096 -1.0158 -0.7493  0.0268
  908MOL0     C25187   7.409   6.056   7.086 -0.3976  0.6269  1.0375
  908MOL0     C25188   7.537   6.118   7.129 -0.6646 -0.0044 -0.1595
  908MOL0     C25189   7.647   6.009   7.133  0.6873 -0.6589 -0.4668
  908MOL0     O25190   7.765   6.076   7.169  0.1571 -0.1324  0.3743
  908MOL0     C25191   7.886   6.011   7.178  0.3239  0.1925 -0.3265
  908MOL0     C25192   7.901   5.880   7.145  0.0543  0.0605  0.6327
  908MOL0     C25193   8.019   5.814   7.154 -0.1391 -0.7004  0.5984
  908MOL0     C25194   8.036   5.681   7.082  1.0631  0.5052 -0.2908
  908MOL0     C25195   8.130   5.885   7.214  0.4034  0.2036 -0.7410
  908MOL0     C25196   8.253   5.822   7.246  0.0910  0.1528 -0.1471
  908MOL0     O25197   8.245   5.691   7.287 -0.0589  0.0300 -0.7261
  908MOL0     C25198   8.356   5.628   7.321 -0.3442  0.3363  0.1247
  908MOL0     C25199   8.378   5.599   7.465  0.6328  0.0859 -0.5263
  908MOL0     C25200   8.503   5.544   7.508  0.6572 -0.2474 -0.5380
  908MOL0     C25201   8.587   5.495   7.408 -0.0984  0.5166  0.8376
  908MOL0     O25202   8.690   5.418   7.443 -0.2707 -0.2437  0.7731
  908MOL0     C25203   8.808   5.411   7.358  0.7498  0.2871  1.0841
  908MOL0     C25204   8.931   5.383   7.441 -0.1127 -0.4587 -0.2350
  908MOL0     C25205   9.067   5.388   7.373  0.1647 -0.9025 -0.4799
  908MOL0     C25206   9.123   5.529   7.385 -0.3190  0.1997  0.8390
  908MOL0     C25207   9.242   5.549   7.287  0.6655  0.1570  0.2534
  908MOL0     C25208   9.300   5.682   7.316 -0.4954  0.3170  0.5515
  908MOL0     C25209   9.219   5.794   7.258  0.4212  0.1013  0.0537
  908MOL0     C25210   9.273   5.845   7.123  1.1727 -0.1739  0.8445
  908MOL0    Cl25211   9.207   5.734   6.979  0.6507  0.3316  0.0196
  908MOL0     C25212   8.555   5.506   7.267  0.5477  0.5716 -0.1024
  908MOL0     C25213   8.441   5.575   7.226 -1.0225  0.2818 -0.0117
  908MOL0     O25214   8.359   5.881   7.233  0.5854  0.1821  0.0865
  908MOL0     C25215   8.119   6.019   7.246  0.8471  0.6180 -0.5676
  908MOL0     C25216   7.991   6.083   7.222 -0.1996 -0.0270 -0.8136
  908MOL0     N25217   7.096   6.012   7.122 -0.6291  0.3628  0.1419
  908MOL0     N25218   7.012   5.956   7.039 -0.1398 -0.3570  0.0724
  908MOL0     C25219   6.573   6.643   6.250  1.5557 -0.0012  0.6019
  908MOL0     C25220   6.543   6.776   6.224  0.0064  0.4065 -0.0838
  908MOL0     C25221   6.572   7.233   6.169  0.2185  0.1972  0.3290
  908MOL0     C25222   6.472   7.251   6.063 -0.8239  0.3688 -0.8491
  908MOL0     C25223   6.448   7.383   6.020 -0.9517 -0.0695 -0.3928
  908MOL0     C25224   6.522   7.489   6.068 -0.5326 -0.3720 -0.6457
  908MOL0     O25225   6.507   7.624   6.031  0.8893 -0.1896 -0.4044
  908MOL0     C25226   6.615   7.653   5.935 -0.0101  0.0637  0.2130
  908MOL0     C25227   6.634   7.807   5.933  0.0221 -0.2930 -0.0881
  908MOL0     C25228   6.770   7.847   5.868 -0.5709 -0.9027 -0.1662
  908MOL0     C25229   6.759   7.991   5.811 -0.4222  0.0655  0.3754
  908MOL0     C25230   6.888   8.032   5.774 -0.3758 -0.0830  1.1339
  908MOL0     C25231   6.994   8.057   5.731 -0.5296  0.0742 -0.2336
  908MOL0     C25232   6.622   7.465   6.164  0.6200  0.5130  0.5556
  908MOL0     C25233   6.654   7.341   6.219 -0.1344  0.3598 -0.4497
  908MOL0     C25234   6.777   7.315   6.304 -0.1095  0.7043 -0.3416
  908MOL0     H25235   6.852   6.878   6.131  0.1871 -0.7248 -3.0163
  908MOL0     H25236   6.903   6.653   6.206  0.6235  0.5394 -0.2628
  908MOL0     H25237   6.873   6.442   6.136 -0.4896 -2.0566 -1.2869
  908MOL0     H25238   6.798   6.296   6.178 -0.3482 -0.7699  1.8055
  908MOL0     H25239   7.026   6.362   6.295  1.1769 -1.9185  3.4289
  908MOL0     H25240   6.935   6.485   6.377 -0.1813  0.5849 -1.1727
  908MOL0     H25241   6.893   6.183   6.368  1.2463 -0.5629  0.9276
  908MOL0     H25242   6.995   6.263   6.481 -1.4979 -1.3691  3.0734
  908MOL0     H25243   6.802   6.367   6.593  2.3627  2.0797 -3.0949
  908MOL0     H25244   6.690   6.319   6.471  1.3079  3.2111 -0.2939
  908MOL0     H25245   6.740   6.074   6.526  1.0063  0.2263 -0.5603
  908MOL0     H25246   6.655   6.167   6.649  0.3822 -1.6472 -0.5425
  908MOL0     H25247   6.958   6.147   6.668 -0.5067 -1.3988 -0.8098
  908MOL0     H25248   6.833   6.204   6.784 -0.0693 -0.1507  0.4437
  908MOL0     H25249   6.800   5.916   6.697  0.4631 -2.1715  1.8134
  908MOL0     H25250   6.786   5.987   6.851 -2.0286 -0.0698 -0.9104
  908MOL0     H25251   6.960   5.826   6.827 -1.3541 -0.2107 -0.3721
  908MOL0     H25252   7.049   5.944   6.703  1.2776  0.0518  0.8845
  908MOL0     H25253   7.176   6.147   6.835 -1.0538  0.9592  1.0908
  908MOL0     H25254   7.287   6.183   7.200 -0.5206 -1.0879  0.1935
  908MOL0     H25255   7.330   6.238   7.036  3.9706 -1.4393  1.1325
  908MOL0     H25256   7.403   5.962   7.142 -2.3234  0.8679  1.3008
  908MOL0     H25257   7.421   6.021   6.983 -4.1382 -1.1093  1.0304
  908MOL0     H25258   7.557   6.200   7.060  2.1805  1.2089  1.9157
  908MOL0     H25259   7.516   6.168   7.224 -0.3273  2.0657 -1.1326
  908MOL0     H25260   7.616   5.942   7.215 -0.7228  2.6751  1.9717
  908MOL0     H25261   7.653   5.965   7.033 -3.0988  0.4149 -1.3238
  908MOL0     H25262   7.817   5.828   7.100 -0.3338  1.4730 -0.3577
  908MOL0     H25263   7.958   5.671   7.006 -0.4230 -2.1927  1.4193
  908MOL0     H25264   8.016   5.600   7.153  0.6404  0.4925 -0.4231
  908MOL0     H25265   8.132   5.664   7.033  1.7532  1.2071  0.7784
  908MOL0     H25266   8.297   5.628   7.530  1.4002 -0.9945  0.9735
  908MOL0     H25267   8.517   5.521   7.613 -2.0068 -0.4073 -0.1524
  908MOL0     H25268   8.790   5.334   7.283  1.7784  0.1775  0.9325
  908MOL0     H25269   8.836   5.504   7.308  4.9796 -2.0107 -1.4412
  908MOL0     H25270   8.927   5.467   7.510 -1.0129 -1.3590  0.8545
  908MOL0     H25271   8.924   5.289   7.497  0.1540  0.2688  1.0561
  908MOL0     H25272   9.052   5.352   7.271 -2.0818 -0.4651 -0.3609
  908MOL0     H25273   9.144   5.326   7.419  0.5759  0.2683  0.4644
  908MOL0     H25274   9.147   5.539   7.491  0.8585 -1.6490  0.7878
  908MOL0     H25275   9.048   5.608   7.373  0.3469  0.8597  1.0128
  908MOL0     H25276   9.317   5.472   7.306  1.0016 -1.4015 -5.5378
  908MOL0     H25277   9.201   5.541   7.186  1.2082  2.0361 -0.1549
  908MOL0     H25278   9.402   5.669   7.281 -0.4819 -0.2645  0.7935
  908MOL0     H25279   9.329   5.697   7.420  2.1003 -1.2105  0.1380
  908MOL0     H25280   9.226   5.878   7.328 -1.3071  2.4509 -2.3651
  908MOL0     H25281   9.117   5.759   7.241  0.0572  0.4500  1.3971
  908MOL0     H25282   9.382   5.861   7.118  0.8734  3.0836  2.0494
  908MOL0     H25283   9.229   5.941   7.093  1.2497 -0.6570 -0.9308
  908MOL0     H25284   8.607   5.450   7.190 -0.1884 -1.4021  0.7696
  908MOL0     H25285   8.428   5.606   7.123 -2.6480  1.8082  0.6091
  908MOL0     H25286   8.194   6.064   7.310  1.8641  0.8513 -1.8788
  908MOL0     H25287   7.987   6.189   7.246 -0.0157 -0.7226  2.8579
  908MOL0     H25288   6.491   6.572   6.257  1.9336 -0.4071  0.9258
  908MOL0     H25289   6.443   6.819   6.232 -0.6197 -0.2152 -3.2291
  908MOL0     H25290   6.408   7.174   6.023 -1.0741  2.3965 -4.8467
  908MOL0     H25291   6.357   7.399   5.964 -0.4179  0.9893 -0.9807
  908MOL0     H25292   6.706   7.603   5.969 -0.5924  0.5686  2.7149
  908MOL0     H25293   6.590   7.621   5.834  2.8649 -1.9280  0.0145
  908MOL0     H25294   6.641   7.851   6.033 -1.4965  2.3830 -1.0786
  908MOL0     H25295   6.550   7.862   5.889  0.1256  1.1141  1.3744
  908MOL0     H25296   6.838   7.849   5.953  0.1258  1.1710 -0.7117
  908MOL0     H25297   6.802   7.776   5.791 -1.0490  1.3612 -2.6036
  908MOL0     H25298   6.733   8.057   5.895  2.3552  0.5328  0.9699
  908MOL0     H25299   6.692   7.999   5.725  1.2875  4.9006 -0.8528
  908MOL0     H25300   7.092   8.085   5.698  0.4117 -1.9311  0.6788
  908MOL0     H25301   6.685   7.548   6.196 -0.5679  1.4692  0.5147
  908MOL0     H25302   6.842   7.254   6.241 -2.8338 -1.1921 -1.4754
  908MOL0     H25303   6.827   7.412   6.317  0.6493  0.2241  0.4949
  908MOL0     H25304   6.755   7.273   6.403  2.6097 -1.2806 -0.4493
  909MOL0     O25305   8.635  11.417   5.102 -0.4743  0.0776  0.1678
  909MOL0     C25306   8.549  11.411   5.014  0.4549  0.7351 -0.0162
  909MOL0     O25307   8.560  11.435   4.887  0.5844  0.0612 -0.5069
  909MOL0     C25308   8.656  11.523   4.848  1.5412  0.5659 -0.7325
  909MOL0     C25309   8.735  11.493   4.743 -0.4775  0.7578  0.3804
  909MOL0     C25310   8.845  11.575   4.711 -0.2602 -0.1068 -0.1300
  909MOL0     C25311   8.851  11.699   4.763 -0.5881 -0.3919 -0.4459
  909MOL0     O25312   8.936  11.790   4.707 -0.1639  0.2791 -0.6361
  909MOL0     C25313   8.889  11.919   4.706  0.1404  0.4411  0.0360
  909MOL0     C25314   9.000  12.008   4.645  0.2761 -0.6400  0.0796
  909MOL0     C25315   9.141  12.011   4.712  0.5793 -0.3535 -0.5035
  909MOL0     C25316   9.234  12.108   4.639  0.4119  0.2882  0.4947
  909MOL0     C25317   9.335  12.175   4.725  0.1992  0.3143  0.1332
  909MOL0     C25318   9.428  12.255   4.639  0.3687  0.2536  0.3124
  909MOL0     C25319   9.529  12.330   4.722  0.5202 -0.1856 -0.7036
  909MOL0     C25320   9.670  12.340   4.664  0.2550  1.2521 -0.2324
  909MOL0     N25321   9.763  12.414   4.757 -0.1828 -0.2184 -0.3173
  909MOL0     C25322   9.759  12.549   4.780 -0.5833 -0.3471 -0.5444
  909MOL0     C25323   9.852  12.576   4.878 -0.2443 -0.3643  0.3138
  909MOL0     C25324   9.880  12.716   4.927  0.1998 -0.7005  0.3609
  909MOL0     C25325  10.024  12.717   4.981  0.7023  0.2925 -0.2010
  909MOL0     C25326  10.070  12.860   5.022  0.0785 -0.2818 -0.1994
  909MOL0     C25327  10.122  12.940   4.909 -0.0222 -0.4929  0.0433
  909MOL0     O25328  10.259  12.915   4.893 -0.0767  0.3904 -0.3802
  909MOL0     C25329  10.345  13.013   4.862  0.6089 -1.1322  0.8189
  909MOL0     C25330  10.317  13.139   4.810 -1.1642  1.0570 -0.1389
  909MOL0     C25331  10.420  13.221   4.762 -0.3907 -0.1768  0.0788
  909MOL0     C25332  10.375  13.350   4.692  0.5594 -0.3113  0.1211
  909MOL0     C25333  10.558  13.179   4.767 -0.0268 -0.9409 -0.1542
  909MOL0     C25334  10.672  13.262   4.721 -0.2948  0.2167 -0.0118
  909MOL0     O25335  10.797  13.201   4.725 -0.0827  0.1772 -0.2455
  909MOL0     C25336  10.905  13.277   4.701 -0.8803 -0.3764  0.9140
  909MOL0     C25337  11.013  13.290   4.792 -0.5607 -0.2018 -0.3636
  909MOL0     C25338  11.130  13.366   4.770 -0.1450  0.4449  0.1149
  909MOL0     C25339  11.149  13.432   4.649  0.1730  0.0695 -0.2354
  909MOL0     O25340  11.270  13.496   4.618  0.3067  0.1509  0.1266
  909MOL0     C25341  11.336  13.567   4.728 -0.7810  0.0820 -0.1045
  909MOL0     C25342  11.435  13.674   4.677 -0.2584 -0.3657  0.2437
  909MOL0     C25343  11.520  13.622   4.562  1.1818  0.2037 -0.2970
  909MOL0     C25344  11.578  13.745   4.488  0.2437 -0.1900  0.2907
  909MOL0     C25345  11.499  13.784   4.359  0.2512 -0.5165  0.2376
  909MOL0     C25346  11.525  13.707   4.226 -0.1297  0.0082 -0.4905
  909MOL0     C25347  11.654  13.766   4.169 -0.2107  0.4181  0.3084
  909MOL0     C25348  11.704  13.711   4.030  0.4425 -0.1286 -0.0592
  909MOL0    Cl25349  11.871  13.759   3.995  0.5304 -0.0386 -0.0139
  909MOL0     C25350  11.054  13.415   4.548 -1.3185 -0.0212 -0.0983
  909MOL0     C25351  10.933  13.348   4.576  0.6502  0.8254  0.0325
  909MOL0     O25352  10.646  13.370   4.678 -1.0507 -0.0216 -0.2343
  909MOL0     C25353  10.581  13.048   4.818  0.4363 -0.6057 -0.5580
  909MOL0     C25354  10.473  12.971   4.859 -0.9011  0.1560  0.8558
  909MOL0     N25355   9.911  12.452   4.906 -0.4715 -0.4180 -0.2697
  909MOL0     N25356   9.861  12.363   4.842 -0.5170  0.1864  0.4991
  909MOL0     C25357   8.771  11.726   4.876 -0.4632 -0.7251 -0.2751
  909MOL0     C25358   8.673  11.643   4.921  0.2454 -0.7515 -0.4352
  909MOL0     C25359   8.431  11.322   5.046  0.1059  0.0973  0.2975
  909MOL0     C25360   8.438  11.192   5.002 -0.0213  0.1474 -0.1713
  909MOL0     C25361   8.334  11.101   5.021 -0.3723  0.1258 -0.9463
  909MOL0     C25362   8.219  11.134   5.093  0.3130  0.3432 -0.1725
  909MOL0     O25363   8.132  11.034   5.113  0.5469  0.2664 -0.5380
  909MOL0     C25364   8.001  11.069   5.156 -0.6999 -0.0420  0.1142
  909MOL0     C25365   7.908  10.959   5.121 -0.4581 -0.8295  0.5336
  909MOL0     C25366   7.763  10.990   5.136  0.9831 -0.5011  0.0405
  909MOL0     C25367   7.671  10.881   5.083 -0.5722  0.1669  0.2965
  909MOL0     C25368   7.527  10.912   5.078 -1.1916 -0.1131 -0.4126
  909MOL0     C25369   7.412  10.959   5.083  0.7211 -0.0222  1.5623
  909MOL0     C25370   8.220  11.263   5.136  0.0669  0.0073  0.0354
  909MOL0     C25371   8.319  11.362   5.115 -0.8560  0.7123  0.2665
  909MOL0     C25372   8.295  11.502   5.162  0.3734  0.0454  0.2433
  909MOL0     H25373   8.726  11.394   4.700 -0.6218  0.1563  1.7520
  909MOL0     H25374   8.899  11.543   4.622 -0.4541 -0.4342 -0.1289
  909MOL0     H25375   8.882  11.958   4.808 -0.0022 -0.6540  0.4555
  909MOL0     H25376   8.797  11.928   4.649  0.2301  0.7326 -0.0651
  909MOL0     H25377   9.008  11.988   4.538  2.1893 -2.9499  0.5561
  909MOL0     H25378   8.972  12.113   4.655  0.2020 -0.2795 -2.9968
  909MOL0     H25379   9.122  12.036   4.816  3.0307  0.5651 -0.2302
  909MOL0     H25380   9.179  11.908   4.707 -2.8509 -1.8873  1.1831
  909MOL0     H25381   9.284  12.058   4.555  0.0970  1.6191 -0.5182
  909MOL0     H25382   9.181  12.190   4.590  2.4012  0.0051 -2.4045
  909MOL0     H25383   9.388  12.097   4.780 -1.3008 -0.1541  0.9723
  909MOL0     H25384   9.272  12.237   4.789 -0.0223  0.7117 -0.4672
  909MOL0     H25385   9.476  12.172   4.586  0.3041  0.0779  0.5285
  909MOL0     H25386   9.382  12.314   4.559  0.5264 -3.1371 -2.5114
  909MOL0     H25387   9.545  12.297   4.825  3.6694  2.5095 -0.1770
  909MOL0     H25388   9.492  12.433   4.728 -0.9143 -0.5809 -2.1513
  909MOL0     H25389   9.701  12.236   4.646 -2.6332  0.3913 -0.6648
  909MOL0     H25390   9.666  12.390   4.567  0.1185  2.5371  0.4132
  909MOL0     H25391   9.697  12.615   4.721  0.2823  0.4831 -0.5386
  909MOL0     H25392   9.808  12.743   5.005  1.7303  1.2837  1.1474
  909MOL0     H25393   9.869  12.792   4.849  1.1416  3.1014  3.6138
  909MOL0     H25394  10.017  12.663   5.076 -1.8347  3.8112  1.8438
  909MOL0     H25395  10.094  12.662   4.917 -0.4361  1.3555 -2.4928
  909MOL0     H25396   9.986  12.918   5.064 -0.3497 -0.1943 -1.1618
  909MOL0     H25397  10.146  12.845   5.099 -2.8638 -0.9874  2.8526
  909MOL0     H25398  10.063  12.921   4.819  0.2630  1.6298 -0.6554
  909MOL0     H25399  10.104  13.044   4.939  0.0494 -0.3512 -0.4024
  909MOL0     H25400  10.215  13.175   4.800 -1.2446  1.0565  0.5761
  909MOL0     H25401  10.268  13.373   4.693  0.4454 -0.1593 -3.4740
  909MOL0     H25402  10.418  13.345   4.592  4.1272  3.1211  1.2247
  909MOL0     H25403  10.426  13.443   4.719 -1.3886  1.4493 -1.8567
  909MOL0     H25404  10.990  13.240   4.885 -1.4306  2.2495  0.8250
  909MOL0     H25405  11.194  13.371   4.857  1.7827  2.8192 -1.3053
  909MOL0     H25406  11.267  13.607   4.802  0.0518  1.0790  0.1635
  909MOL0     H25407  11.404  13.492   4.770  0.2391  0.3415 -1.2303
  909MOL0     H25408  11.375  13.758   4.641 -1.2671  0.0397  2.6454
  909MOL0     H25409  11.506  13.698   4.757  3.8571  0.9470 -3.4334
  909MOL0     H25410  11.467  13.564   4.486 -0.2357  2.3042 -0.9836
  909MOL0     H25411  11.593  13.548   4.596  1.4363  0.5590 -0.0604
  909MOL0     H25412  11.684  13.728   4.468 -0.4356 -4.0416 -1.0492
  909MOL0     H25413  11.565  13.828   4.557  0.7687 -0.9070  1.2692
  909MOL0     H25414  11.392  13.780   4.381  0.0407 -0.0155 -0.6395
  909MOL0     H25415  11.513  13.892   4.344 -1.0357 -0.2327  0.9511
  909MOL0     H25416  11.437  13.723   4.163 -0.3573  2.0278  0.2681
  909MOL0     H25417  11.533  13.602   4.255 -2.2114 -0.7812 -2.4805
  909MOL0     H25418  11.732  13.766   4.246  1.8819 -1.5846 -1.6708
  909MOL0     H25419  11.644  13.872   4.144  2.3129  0.6490 -0.0586
  909MOL0     H25420  11.648  13.740   3.941  1.7593  0.0597 -0.8554
  909MOL0     H25421  11.705  13.602   4.034  0.9231 -0.0888  1.4963
  909MOL0     H25422  11.057  13.468   4.453 -2.1915  2.2195  1.0621
  909MOL0     H25423  10.852  13.337   4.506 -0.1217 -1.1275  1.1560
  909MOL0     H25424  10.677  13.001   4.837  0.3458 -1.3997 -1.9511
  909MOL0     H25425  10.498  12.871   4.894 -0.4213 -0.6385 -1.5543
  909MOL0     H25426   8.793  11.815   4.934  0.2000 -0.6625 -0.6193
  909MOL0     H25427   8.613  11.674   5.006  1.6857  1.6663 -0.2123
  909MOL0     H25428   8.527  11.153   4.954  0.4409  1.0542 -0.0602
  909MOL0     H25429   8.335  10.995   4.996 -7.0935 -0.5052 -0.4232
  909MOL0     H25430   7.996  11.103   5.260 -1.5291 -0.7038  0.3016
  909MOL0     H25431   7.977  11.151   5.088  0.1864 -2.3881 -3.2716
  909MOL0     H25432   7.930  10.869   5.180 -2.2599 -1.0776  0.8822
  909MOL0     H25433   7.927  10.939   5.016  4.2228 -1.6516  1.3255
  909MOL0     H25434   7.741  11.016   5.239  1.5992  1.5567 -0.3154
  909MOL0     H25435   7.740  11.078   5.075  0.0053 -0.4153  0.5094
  909MOL0     H25436   7.687  10.789   5.140  0.0501  0.5787  0.7984
  909MOL0     H25437   7.703  10.855   4.981  0.3273 -1.9187  1.0486
  909MOL0     H25438   7.310  10.991   5.079  0.9047  0.4713  0.5639
  909MOL0     H25439   8.132  11.307   5.181  0.9742  1.2469  0.6527
  909MOL0     H25440   8.324  11.512   5.267 -0.4549  1.1282  0.3839
  909MOL0     H25441   8.363  11.561   5.100  1.4287 -1.8144 -0.4429
  909MOL0     H25442   8.191  11.534   5.151  0.3319 -0.0960  0.2046
  910MOL0     O25443   6.312   1.314   2.189  0.0499 -0.5401  0.3443
  910MOL0     C25444   6.224   1.380   2.252 -0.1827  0.3922  0.2653
  910MOL0     O25445   6.248   1.465   2.355  0.5656 -0.3257  0.4816
  910MOL0     C25446   6.372   1.480   2.410  0.6928 -1.0274 -0.8235
  910MOL0     C25447   6.375   1.462   2.547 -0.1243 -0.5676 -0.6621
  910MOL0     C25448   6.495   1.493   2.610  0.2753  1.3129 -0.1429
  910MOL0     C25449   6.602   1.553   2.539  0.2659  1.0508 -0.1390
  910MOL0     O25450   6.717   1.584   2.599  0.0725 -0.0293 -0.0109
  910MOL0     C25451   6.758   1.520   2.721  0.5779  0.7608  0.4716
  910MOL0     C25452   6.908   1.518   2.715 -0.8452 -0.2261 -0.4502
  910MOL0     C25453   6.985   1.469   2.839  0.4666 -0.1356 -0.4151
  910MOL0     C25454   7.131   1.473   2.816 -0.9442  0.2406 -0.1439
  910MOL0     C25455   7.215   1.430   2.943  0.7087 -0.0487 -0.2179
  910MOL0     C25456   7.361   1.426   2.920 -0.5353  0.4062 -0.4907
  910MOL0     C25457   7.431   1.362   3.040 -0.4391  0.4510  0.1022
  910MOL0     C25458   7.579   1.338   3.009 -0.5363  0.7537 -1.0151
  910MOL0     N25459   7.628   1.235   3.098 -0.1224 -1.1405 -0.4871
  910MOL0     C25460   7.649   1.263   3.235  0.3796  0.8994  0.6869
  910MOL0     C25461   7.700   1.148   3.277  0.1037  0.0509  0.4007
  910MOL0     C25462   7.748   1.132   3.420  0.2367  0.8738 -0.2714
  910MOL0     C25463   7.902   1.125   3.417 -0.1866 -0.0549  1.1508
  910MOL0     C25464   7.958   1.257   3.354  0.0496  0.6145  0.2301
  910MOL0     C25465   8.105   1.262   3.341  0.0467  0.4696  0.5665
  910MOL0     O25466   8.163   1.254   3.475  0.1355 -0.2971 -0.1477
  910MOL0     C25467   8.304   1.252   3.482  0.0162  0.4521  0.2436
  910MOL0     C25468   8.350   1.181   3.591 -0.9486 -0.4304 -0.2391
  910MOL0     C25469   8.492   1.152   3.607 -0.5601 -0.3053 -0.1661
  910MOL0     C25470   8.529   1.063   3.722 -0.3746  0.8179 -0.0328
  910MOL0     C25471   8.580   1.220   3.520  0.1831  0.4231 -0.3465
  910MOL0     C25472   8.721   1.218   3.549 -0.0363 -0.0617 -0.9338
  910MOL0     O25473   8.806   1.248   3.450  0.4169  0.1070  1.0721
  910MOL0     C25474   8.942   1.222   3.475 -0.2629  0.2928  0.0308
  910MOL0     C25475   9.013   1.302   3.559 -0.0608 -0.0615 -0.1245
  910MOL0     C25476   9.155   1.281   3.575  0.8018 -0.2290 -0.4971
  910MOL0     C25477   9.223   1.184   3.497 -0.4605  0.2650  0.3564
  910MOL0     O25478   9.354   1.157   3.487  0.0191 -0.3462 -0.4084
  910MOL0     C25479   9.446   1.223   3.570 -0.7877  0.4111 -0.6535
  910MOL0     C25480   9.564   1.123   3.617 -0.5734  0.6052  0.0062
  910MOL0     C25481   9.647   1.056   3.503 -0.0197 -0.3346 -0.1788
  910MOL0     C25482   9.729   1.167   3.435 -0.1445  0.5955  0.0244
  910MOL0     C25483   9.848   1.122   3.343 -1.1148 -0.7800  0.4048
  910MOL0     C25484   9.933   1.240   3.294 -0.1799  0.1721  0.1770
  910MOL0     C25485  10.026   1.190   3.178  0.2372 -0.5629 -0.2453
  910MOL0     C25486  10.167   1.143   3.214 -0.6701 -0.3108 -0.2899
  910MOL0    Cl25487  10.265   1.283   3.283  0.2439 -0.0929 -0.2124
  910MOL0     C25488   9.143   1.110   3.418 -0.4947  0.2274  0.3011
  910MOL0     C25489   9.004   1.125   3.405  0.1986 -0.3029 -0.3010
  910MOL0     O25490   8.756   1.190   3.672 -0.5639 -0.6780  0.1512
  910MOL0     C25491   8.529   1.286   3.409  1.0147 -0.2672 -0.0238
  910MOL0     C25492   8.391   1.297   3.385  0.9719  0.7085  1.2453
  910MOL0     N25493   7.723   1.062   3.171 -1.4503  1.3343 -0.0150
  910MOL0     N25494   7.681   1.117   3.067 -0.1946  0.1168  0.6118
  910MOL0     C25495   6.592   1.564   2.406  0.8234  0.5027  0.4164
  910MOL0     C25496   6.477   1.532   2.334  0.1745 -0.0149 -0.3533
  910MOL0     C25497   6.089   1.331   2.218  0.3521 -1.0659  0.4709
  910MOL0     C25498   6.059   1.283   2.089  0.4167 -0.0752 -0.1642
  910MOL0     C25499   5.935   1.221   2.063  0.1048 -0.2164 -0.5972
  910MOL0     C25500   5.829   1.228   2.154  0.7939 -0.3885 -0.6404
  910MOL0     O25501   5.698   1.190   2.137  0.4119 -0.3846  0.0921
  910MOL0     C25502   5.674   1.131   2.011  0.2294  0.8140 -0.1518
  910MOL0     C25503   5.515   1.107   1.997  0.6066  0.3339 -0.3587
  910MOL0     C25504   5.455   1.165   1.875 -0.6854  0.4614 -0.4115
  910MOL0     C25505   5.308   1.126   1.854 -0.0572 -1.3971  0.0772
  910MOL0     C25506   5.210   1.209   1.930 -0.5327 -0.6660  0.5619
  910MOL0     C25507   5.140   1.285   1.994  0.3215  0.4937  0.5224
  910MOL0     C25508   5.855   1.286   2.277  0.6834  0.5596  0.2205
  910MOL0     C25509   5.983   1.333   2.310 -0.0214 -0.0822  0.4910
  910MOL0     C25510   5.997   1.375   2.459 -0.4963 -0.0389 -0.3905
  910MOL0     H25511   6.285   1.416   2.586 -0.8427  1.6030  0.4202
  910MOL0     H25512   6.507   1.493   2.717 -1.2182 -0.4164  0.0611
  910MOL0     H25513   6.714   1.420   2.722  0.0329  0.9283 -1.4583
  910MOL0     H25514   6.733   1.587   2.804  0.2668 -1.0930  1.9297
  910MOL0     H25515   6.927   1.459   2.625 -1.1380  2.3888 -2.3496
  910MOL0     H25516   6.934   1.623   2.698 -1.1362 -0.4049 -2.2393
  910MOL0     H25517   6.953   1.532   2.922  1.2648 -1.0143  0.5815
  910MOL0     H25518   6.946   1.371   2.868  0.9678 -0.4917 -0.9138
  910MOL0     H25519   7.156   1.399   2.739 -0.3260 -1.6672  1.8039
  910MOL0     H25520   7.156   1.573   2.780 -1.3887  0.5486  0.3806
  910MOL0     H25521   7.169   1.337   2.977  1.6019 -0.0109  1.1748
  910MOL0     H25522   7.196   1.494   3.030  2.0088 -0.5869  0.4863
  910MOL0     H25523   7.375   1.370   2.827  1.1349 -1.0416  0.5783
  910MOL0     H25524   7.400   1.527   2.906  2.2781 -0.4754  0.2807
  910MOL0     H25525   7.390   1.261   3.054  1.0632 -0.3084 -0.7125
  910MOL0     H25526   7.421   1.422   3.131  0.7150 -2.5578  2.3909
  910MOL0     H25527   7.601   1.294   2.911  0.7706  0.7969 -0.7555
  910MOL0     H25528   7.632   1.434   3.003  0.0607  0.3749 -1.9165
  910MOL0     H25529   7.645   1.360   3.284 -1.5232  0.8304  0.7670
  910MOL0     H25530   7.699   1.045   3.465  0.3796  0.4235 -0.9791
  910MOL0     H25531   7.718   1.219   3.481 -2.6841  1.4096 -2.2301
  910MOL0     H25532   7.940   1.109   3.518  2.7452 -0.2000  0.1064
  910MOL0     H25533   7.938   1.045   3.351 -1.3621 -1.5189  2.2085
  910MOL0     H25534   7.930   1.265   3.249 -4.8964 -0.0812  1.2523
  910MOL0     H25535   7.923   1.345   3.409  0.2807  0.3145  0.8754
  910MOL0     H25536   8.141   1.180   3.279 -0.3432  3.4117 -3.9660
  910MOL0     H25537   8.131   1.353   3.288  0.7254  0.5079  0.9501
  910MOL0     H25538   8.286   1.126   3.659 -2.1973  0.0316 -1.0016
  910MOL0     H25539   8.561   1.126   3.806  1.9822  1.4888 -1.3459
  910MOL0     H25540   8.605   0.992   3.688 -0.1779  1.6148 -1.3420
  910MOL0     H25541   8.439   1.003   3.740  1.0762 -1.4735 -0.0128
  910MOL0     H25542   8.959   1.382   3.609 -2.4768 -2.3297  1.1746
  910MOL0     H25543   9.214   1.338   3.647  2.1366 -1.2113 -0.7612
  910MOL0     H25544   9.507   1.288   3.507  1.6800 -1.0727  0.0679
  910MOL0     H25545   9.401   1.274   3.655 -2.6543 -0.3723 -1.1180
  910MOL0     H25546   9.626   1.184   3.683  0.9062  1.0624 -1.7156
  910MOL0     H25547   9.515   1.048   3.680 -0.5702  0.2555 -0.3984
  910MOL0     H25548   9.580   1.006   3.433 -0.4203 -0.0164 -0.0259
  910MOL0     H25549   9.713   0.979   3.544  0.4238 -0.0213 -0.2975
  910MOL0     H25550   9.760   1.237   3.513 -2.3088 -1.3122  2.7764
  910MOL0     H25551   9.659   1.206   3.360 -0.5634  0.0663  0.1379
  910MOL0     H25552   9.914   1.052   3.396  1.7095  1.6248  0.3062
  910MOL0     H25553   9.812   1.069   3.254  0.8660 -0.2046 -0.8036
  910MOL0     H25554   9.992   1.271   3.381 -1.7069  1.3451  0.8351
  910MOL0     H25555   9.865   1.313   3.251 -1.8016 -0.9198  0.8116
  910MOL0     H25556  10.034   1.268   3.102  0.5014 -0.7858 -0.4486
  910MOL0     H25557   9.968   1.110   3.130 -3.5867  1.4439  0.5919
  910MOL0     H25558  10.218   1.112   3.123 -0.3581 -2.0489  0.4305
  910MOL0     H25559  10.177   1.061   3.286  2.1693 -2.1184 -2.5380
  910MOL0     H25560   9.190   1.039   3.350  0.0282  1.5160 -0.7181
  910MOL0     H25561   8.933   1.061   3.353 -0.8391 -0.4848  1.2585
  910MOL0     H25562   8.590   1.323   3.327 -0.4491  3.7544  0.5130
  910MOL0     H25563   8.356   1.335   3.289 -0.3551 -0.1626  1.3505
  910MOL0     H25564   6.684   1.600   2.360  1.1242 -0.0152  0.5985
  910MOL0     H25565   6.459   1.546   2.228 -0.7513 -0.2151 -0.2326
  910MOL0     H25566   6.127   1.276   2.004 -2.3743  0.3388 -2.6044
  910MOL0     H25567   5.921   1.173   1.967  1.3441  2.2107 -2.1232
  910MOL0     H25568   5.699   1.201   1.931 -0.1669  0.4096 -0.6321
  910MOL0     H25569   5.734   1.040   2.004 -1.7788 -0.5765 -0.2184
  910MOL0     H25570   5.470   1.161   2.081 -1.8976  1.0250 -2.0106
  910MOL0     H25571   5.484   1.002   2.001  2.4080 -0.2150 -0.0423
  910MOL0     H25572   5.468   1.274   1.882 -0.6077  0.3237  4.5593
  910MOL0     H25573   5.516   1.133   1.790  2.0283  0.3582  1.4553
  910MOL0     H25574   5.287   1.021   1.875 -0.2165 -1.5492 -0.8166
  910MOL0     H25575   5.295   1.152   1.748  0.3928 -1.8065 -0.0796
  910MOL0     H25576   5.072   1.348   2.048  3.1118  2.3738  2.1971
  910MOL0     H25577   5.766   1.289   2.339 -0.1363 -3.9664 -0.4443
  910MOL0     H25578   5.904   1.350   2.512  0.0886 -3.5512 -0.7768
  910MOL0     H25579   6.070   1.320   2.519  1.1441  0.4038 -1.8909
  910MOL0     H25580   6.016   1.482   2.476 -0.1021 -0.1747  0.0442
  911MOL0     O25581   8.760  11.243  10.477  0.0499  0.1353 -0.4401
  911MOL0     C25582   8.693  11.142  10.449 -0.0010 -0.4099 -0.6697
  911MOL0     O25583   8.710  11.077  10.332  0.9991  0.0386  0.7051
  911MOL0     C25584   8.832  11.079  10.275 -0.3799 -0.6839 -0.0372
  911MOL0     C25585   8.828  11.072  10.136  0.3502  0.4479  0.1585
  911MOL0     C25586   8.946  11.091  10.066 -0.5896 -0.5027 -0.0173
  911MOL0     C25587   9.069  11.094  10.133  0.6718  0.3347  0.0883
  911MOL0     O25588   9.184  11.119  10.062  0.3090 -0.1999 -0.1227
  911MOL0     C25589   9.311  11.105  10.131 -0.9096 -0.3930  0.3867
  911MOL0     C25590   9.420  11.095  10.023 -0.4365  1.7344 -0.6900
  911MOL0     C25591   9.552  11.108  10.092 -0.5177  0.3350  0.6200
  911MOL0     C25592   9.672  11.073   9.996 -0.3467  0.0353  0.2541
  911MOL0     C25593   9.650  10.927   9.946 -0.3153 -0.1688  0.0891
  911MOL0     C25594   9.774  10.880   9.872 -0.0673  0.2799  0.2081
  911MOL0     C25595   9.751  10.733   9.827 -0.1813  0.4040  0.1487
  911MOL0     C25596   9.857  10.687   9.729 -0.5838 -0.0064 -0.4333
  911MOL0     N25597   9.969  10.650   9.815  0.8581  0.4815 -1.1424
  911MOL0     C25598  10.073  10.733   9.853  0.9661 -0.1209 -0.1810
  911MOL0     C25599  10.170  10.653   9.898  0.3412  0.7682  0.6832
  911MOL0     C25600  10.300  10.700   9.943 -0.8184 -0.4634  0.2056
  911MOL0     C25601  10.412  10.693   9.838  0.5061 -0.1175 -0.2631
  911MOL0     C25602  10.541  10.730   9.900  0.5865  0.3862  0.5528
  911MOL0     C25603  10.646  10.777   9.803  0.8136  0.4106 -0.4943
  911MOL0     O25604  10.762  10.829   9.870 -0.3079 -0.1148 -0.8392
  911MOL0     C25605  10.880  10.759   9.862 -0.1167 -0.2056  0.3203
  911MOL0     C25606  10.874  10.624   9.863 -0.1651  0.2611 -0.4681
  911MOL0     C25607  10.999  10.557   9.851 -0.7723  0.2357 -1.0216
  911MOL0     C25608  11.009  10.417   9.843  0.7115  0.5727  0.3610
  911MOL0     C25609  11.119  10.634   9.833 -0.0991  0.8768  0.3944
  911MOL0     C25610  11.251  10.582   9.795 -0.2306  1.1448  0.0472
  911MOL0     O25611  11.341  10.666   9.729 -0.6936  0.1462 -0.0073
  911MOL0     C25612  11.458  10.626   9.668 -0.7933  0.6600 -0.6423
  911MOL0     C25613  11.493  10.497   9.636 -0.2346  0.2118 -0.4219
  911MOL0     C25614  11.626  10.455   9.602 -0.5562 -0.0620 -0.3463
  911MOL0     C25615  11.728  10.548   9.605  1.1505 -0.1414 -0.0491
  911MOL0     O25616  11.858  10.499   9.594 -0.1452 -0.2515 -0.4973
  911MOL0     C25617  11.973  10.582   9.601 -0.2474 -0.0309 -0.4112
  911MOL0     C25618  12.105  10.507   9.557  0.4057 -0.4659 -0.7962
  911MOL0     C25619  12.090  10.498   9.400 -1.1403  0.0588 -1.3715
  911MOL0     C25620  12.218  10.454   9.335 -0.8630 -0.4706 -0.1855
  911MOL0     C25621  12.210  10.468   9.174 -0.5698 -0.0265 -0.4467
  911MOL0     C25622  12.331  10.408   9.116  0.4539  0.1969  0.2090
  911MOL0     C25623  12.356  10.448   8.967 -0.1243  0.4709 -1.0248
  911MOL0     C25624  12.469  10.355   8.899  0.4114  0.5889 -0.0650
  911MOL0    Cl25625  12.410  10.182   8.899  0.2840  0.5467  0.2538
  911MOL0     C25626  11.698  10.682   9.633  0.3590 -0.4414  0.1594
  911MOL0     C25627  11.562  10.721   9.658 -0.2683 -0.1755  0.0121
  911MOL0     O25628  11.277  10.468   9.824 -0.3980  0.3789 -0.3564
  911MOL0     C25629  11.111  10.769   9.839  0.6241  0.2983  0.6558
  911MOL0     C25630  10.995  10.831   9.866 -0.2143 -0.3762 -0.4467
  911MOL0     N25631  10.119  10.522   9.893  0.7563  0.4334  0.5743
  911MOL0     N25632   9.998  10.520   9.850 -0.4705  0.5458 -0.1495
  911MOL0     C25633   9.063  11.093  10.271 -0.7715 -0.9052  0.4164
  911MOL0     C25634   8.955  11.078  10.342 -0.1480  0.2865 -0.8510
  911MOL0     C25635   8.567  11.116  10.523  0.5788 -0.4762 -0.3946
  911MOL0     C25636   8.467  11.056  10.449 -0.0209 -1.1078 -0.0486
  911MOL0     C25637   8.338  11.045  10.501 -0.1582  0.0487  0.1857
  911MOL0     C25638   8.319  11.053  10.637  0.0375 -0.4097  0.1201
  911MOL0     O25639   8.196  11.015  10.685  0.1928  0.2398  1.0018
  911MOL0     C25640   8.154  11.008  10.819  0.3191  0.1972 -0.5597
  911MOL0     C25641   8.121  11.148  10.861 -0.4851  0.0656  0.7445
  911MOL0     C25642   7.969  11.161  10.888 -0.1268  0.8391  0.4962
  911MOL0     C25643   7.948  11.269  10.994 -0.1804 -0.0196  0.2263
  911MOL0     C25644   7.874  11.221  11.108 -0.2022 -0.4110 -0.8781
  911MOL0     C25645   7.798  11.194  11.194  0.6279  1.0793 -0.7757
  911MOL0     C25646   8.432  11.093  10.720 -0.8890  0.0472  0.0340
  911MOL0     C25647   8.559  11.123  10.667  0.4877  0.5464  0.0241
  911MOL0     C25648   8.672  11.158  10.766  0.3092 -0.2984  1.1100
  911MOL0     H25649   8.735  11.059  10.081  0.2046  0.3200  0.4301
  911MOL0     H25650   8.946  11.115   9.961  1.0814 -2.2782 -0.4921
  911MOL0     H25651   9.316  11.015  10.194 -1.0007 -0.4526  0.3080
  911MOL0     H25652   9.328  11.193  10.195  1.1296  1.8985 -3.0073
  911MOL0     H25653   9.395  10.999   9.978  0.2124  0.7402  0.9858
  911MOL0     H25654   9.415  11.169   9.942 -0.1824  0.3950 -1.9683
  911MOL0     H25655   9.569  11.203  10.143 -1.2486  0.7782  0.0657
  911MOL0     H25656   9.549  11.039  10.177 -2.1133 -0.5384 -0.0965
  911MOL0     H25657   9.681  11.145   9.914  0.0549  0.1212  0.3722
  911MOL0     H25658   9.771  11.077  10.041  2.1802 -2.2362 -4.3304
  911MOL0     H25659   9.575  10.935   9.866 -0.3217  1.5456  0.2411
  911MOL0     H25660   9.619  10.859  10.026 -4.4211  2.3307  0.9079
  911MOL0     H25661   9.795  10.956   9.796 -1.0935 -0.0369 -0.4177
  911MOL0     H25662   9.854  10.879   9.947  0.6700 -0.4830 -0.5756
  911MOL0     H25663   9.656  10.728   9.773 -0.3009 -0.5903  0.4382
  911MOL0     H25664   9.742  10.661   9.908 -0.1338 -0.9030 -0.9683
  911MOL0     H25665   9.807  10.609   9.671  1.4529  0.1526 -2.5758
  911MOL0     H25666   9.889  10.755   9.650  0.1386 -1.4780 -1.4601
  911MOL0     H25667  10.070  10.841   9.844  2.5106 -0.0157  0.3519
  911MOL0     H25668  10.321  10.634  10.028 -5.6997  1.0533  2.9711
  911MOL0     H25669  10.293  10.801   9.984 -2.4638 -0.7820  0.7780
  911MOL0     H25670  10.411  10.589   9.806  2.5739 -0.5340  0.8655
  911MOL0     H25671  10.408  10.758   9.750  1.7263  0.3276 -0.0088
  911MOL0     H25672  10.526  10.814   9.969  1.0872  1.2901 -0.3987
  911MOL0     H25673  10.583  10.646   9.954  1.0754  0.4650  0.3035
  911MOL0     H25674  10.677  10.701   9.732  3.0949  2.7619 -2.2088
  911MOL0     H25675  10.604  10.867   9.758  2.3131  0.8427 -1.1090
  911MOL0     H25676  10.788  10.559   9.871 -0.7161  1.1483  1.6541
  911MOL0     H25677  11.069  10.394   9.931 -1.3815 -2.1273  1.2169
  911MOL0     H25678  11.052  10.377   9.750 -0.7929 -2.2431  0.7492
  911MOL0     H25679  10.920  10.354   9.851  1.3870 -0.5054 -0.3337
  911MOL0     H25680  11.414  10.422   9.643 -1.7557  1.8070  0.4795
  911MOL0     H25681  11.647  10.349   9.606  0.4025  0.1128 -0.5322
  911MOL0     H25682  11.957  10.669   9.537 -2.1671 -0.7879 -1.0412
  911MOL0     H25683  11.981  10.617   9.704 -1.7011 -0.0619 -0.2699
  911MOL0     H25684  12.198  10.559   9.581 -1.3637  2.2249  0.7140
  911MOL0     H25685  12.100  10.401   9.585 -0.5720 -0.7226 -1.8462
  911MOL0     H25686  12.059  10.596   9.360 -2.2937 -0.0553 -0.8024
  911MOL0     H25687  12.012  10.425   9.374 -0.9134  0.1090 -2.2527
  911MOL0     H25688  12.238  10.349   9.361 -0.6784 -1.3555 -3.4089
  911MOL0     H25689  12.308  10.510   9.362 -1.2933 -0.2259  0.7795
  911MOL0     H25690  12.125  10.427   9.119 -1.5609  0.7485  0.4618
  911MOL0     H25691  12.227  10.576   9.165  3.4059 -0.4086  0.3676
  911MOL0     H25692  12.307  10.302   9.115  2.1776 -0.2961 -2.7651
  911MOL0     H25693  12.419  10.431   9.176  1.3232  0.9282 -1.2710
  911MOL0     H25694  12.375  10.556   8.961  0.2667  0.4716  0.0092
  911MOL0     H25695  12.262  10.438   8.913  0.5929 -0.1303 -2.1810
  911MOL0     H25696  12.561  10.367   8.956  1.1827 -0.3248 -1.0677
  911MOL0     H25697  12.478  10.399   8.799  0.3014 -0.6024 -0.6144
  911MOL0     H25698  11.780  10.752   9.640  1.4789 -1.8354  1.5746
  911MOL0     H25699  11.536  10.823   9.685  2.0956  0.4560  0.1174
  911MOL0     H25700  11.199  10.832   9.846  3.3489 -2.9839 -1.3010
  911MOL0     H25701  10.983  10.937   9.885 -1.1379 -0.4093 -0.7991
  911MOL0     H25702   9.152  11.085  10.333  0.5965  2.1702 -0.9270
  911MOL0     H25703   8.962  11.064  10.449 -2.0806 -1.7713 -0.9152
  911MOL0     H25704   8.483  11.019  10.348  0.3275 -1.1170  0.0082
  911MOL0     H25705   8.266  11.003  10.432  2.2663 -0.2055 -2.3571
  911MOL0     H25706   8.071  10.938  10.834 -0.3996  1.5057  1.9230
  911MOL0     H25707   8.230  10.964  10.884 -2.8505 -1.9049  2.0493
  911MOL0     H25708   8.153  11.221  10.786 -2.4259 -0.8048 -1.0217
  911MOL0     H25709   8.177  11.171  10.952  0.4710 -1.6134  0.6238
  911MOL0     H25710   7.927  11.190  10.791 -1.0025  3.7611  1.6647
  911MOL0     H25711   7.923  11.068  10.922  0.7425  0.4836  0.7382
  911MOL0     H25712   7.894  11.359  10.961  2.4314  2.5846  2.4407
  911MOL0     H25713   8.047  11.305  11.023  0.2622 -0.0106 -1.1983
  911MOL0     H25714   7.730  11.151  11.264  2.6498  0.6193  1.0206
  911MOL0     H25715   8.415  11.117  10.825 -2.6335 -0.5034 -0.0941
  911MOL0     H25716   8.649  11.096  10.853 -2.1529 -1.7567 -0.4703
  911MOL0     H25717   8.773  11.136  10.730  0.8348  0.9116  1.7716
  911MOL0     H25718   8.683  11.266  10.782  1.8451 -0.2244 -0.1302
  912MOL0     O25719   6.216   2.527   3.577 -0.1994  0.7481 -0.4161
  912MOL0     C25720   6.258   2.414   3.539 -0.4132 -0.4761 -0.9516
  912MOL0     O25721   6.371   2.368   3.580 -0.0940  0.2661  0.5672
  912MOL0     C25722   6.470   2.448   3.629 -0.0504  0.5957  0.7102
  912MOL0     C25723   6.600   2.414   3.600 -0.5820 -0.0502  0.0439
  912MOL0     C25724   6.710   2.494   3.642  0.1940  1.1375 -0.4739
  912MOL0     C25725   6.689   2.601   3.724 -0.0966 -0.2872 -0.4816
  912MOL0     O25726   6.802   2.672   3.761  0.1182  0.0027 -0.4191
  912MOL0     C25727   6.786   2.809   3.790  0.3827  0.2011 -0.2694
  912MOL0     C25728   6.932   2.855   3.805 -0.6284 -0.1911  0.1538
  912MOL0     C25729   7.009   2.845   3.674 -0.3388  0.1831  0.1140
  912MOL0     C25730   6.961   2.945   3.568  0.3906  0.8315  0.1707
  912MOL0     C25731   7.075   2.966   3.470 -0.2961  0.1231  0.2971
  912MOL0     C25732   7.031   3.054   3.350  0.8708  0.1182 -0.4356
  912MOL0     C25733   7.144   3.099   3.266 -1.0234 -0.4187 -0.4301
  912MOL0     C25734   7.154   2.994   3.151  0.2569 -0.3752  0.4293
  912MOL0     N25735   7.236   3.055   3.040  0.6816  0.8762 -0.6557
  912MOL0     C25736   7.349   3.126   3.044  1.4423  0.1195  0.4598
  912MOL0     C25737   7.379   3.156   2.917 -1.2128 -0.3618 -0.5263
  912MOL0     C25738   7.484   3.261   2.881 -0.5223 -0.3284 -0.3254
  912MOL0     C25739   7.613   3.198   2.833 -0.1371 -0.5906 -0.2360
  912MOL0     C25740   7.697   3.311   2.769 -0.0252 -0.3295 -0.3000
  912MOL0     C25741   7.838   3.242   2.736 -0.3788 -0.1583 -0.3665
  912MOL0     O25742   7.893   3.191   2.859 -0.6134  0.0283  0.2470
  912MOL0     C25743   7.979   3.081   2.852  0.3843 -0.2843  0.7594
  912MOL0     C25744   7.997   3.007   2.969  0.7246  0.8808 -0.9930
  912MOL0     C25745   8.072   2.890   2.975  0.4404 -0.7240 -0.7136
  912MOL0     C25746   8.062   2.807   3.108 -1.1831  0.0564  0.0647
  912MOL0     C25747   8.145   2.849   2.861  0.6054  1.1485  0.1876
  912MOL0     C25748   8.228   2.731   2.842 -0.0657 -0.2341  0.2134
  912MOL0     O25749   8.269   2.688   2.717 -0.1924  0.7380 -0.0681
  912MOL0     C25750   8.327   2.563   2.702  0.5868 -0.3992  0.0253
  912MOL0     C25751   8.295   2.496   2.590  0.8130  0.6254  0.7495
  912MOL0     C25752   8.360   2.380   2.541 -0.6251 -0.1436  0.3987
  912MOL0     C25753   8.464   2.331   2.627 -0.2334  0.2450  0.0514
  912MOL0     O25754   8.532   2.214   2.593  0.1181 -0.7386  0.0655
  912MOL0     C25755   8.504   2.155   2.468 -0.3077  0.0159  0.5925
  912MOL0     C25756   8.592   2.039   2.451  0.0650  1.1261  0.1511
  912MOL0     C25757   8.739   2.073   2.408 -0.2991 -0.1310 -0.4215
  912MOL0     C25758   8.822   1.944   2.409  0.4383 -0.1810 -1.0940
  912MOL0     C25759   8.965   1.978   2.352  0.4374 -0.0433  0.2644
  912MOL0     C25760   9.067   1.885   2.405 -0.0272  0.1024 -0.1154
  912MOL0     C25761   9.200   1.941   2.367  0.2163  0.1699  0.4115
  912MOL0     C25762   9.284   1.964   2.492 -0.6293  0.2001 -0.6387
  912MOL0    Cl25763   9.302   1.808   2.581 -0.3825 -0.3097 -0.1190
  912MOL0     C25764   8.503   2.403   2.748 -0.0832  0.5355  0.6149
  912MOL0     C25765   8.434   2.519   2.785 -0.4193  0.1405  0.6562
  912MOL0     O25766   8.261   2.675   2.946 -0.6217 -0.2237  0.3257
  912MOL0     C25767   8.129   2.929   2.746 -0.7451 -0.6242  0.1057
  912MOL0     C25768   8.048   3.042   2.737 -0.2551  0.4825 -0.0844
  912MOL0     N25769   7.286   3.098   2.834 -0.0895 -0.6010 -0.3735
  912MOL0     N25770   7.196   3.050   2.907  0.7697  0.0413 -0.7501
  912MOL0     C25771   6.563   2.628   3.763 -0.2027 -0.3418  0.4119
  912MOL0     C25772   6.453   2.551   3.717  0.7517  0.1038 -0.5164
  912MOL0     C25773   6.182   2.324   3.455 -0.1089 -0.3239 -0.3410
  912MOL0     C25774   6.247   2.218   3.397 -0.5325  0.1254  0.5947
  912MOL0     C25775   6.186   2.145   3.297 -0.2550  0.5775 -0.2414
  912MOL0     C25776   6.054   2.173   3.263 -0.7104 -0.3307  0.6413
  912MOL0     O25777   5.982   2.105   3.163 -0.2013 -0.4111 -0.4748
  912MOL0     C25778   6.039   1.987   3.104 -0.2412 -0.0081  0.6941
  912MOL0     C25779   5.942   1.940   3.005 -1.0837  0.0193  0.4843
  912MOL0     C25780   5.820   1.883   3.073  0.2972 -0.3728  0.1981
  912MOL0     C25781   5.711   1.843   2.971 -0.3265  0.0829 -0.2979
  912MOL0     C25782   5.590   1.797   3.046  0.3340 -0.4331  0.0216
  912MOL0     C25783   5.485   1.776   3.104  0.1639 -0.0713  0.1062
  912MOL0     C25784   5.986   2.266   3.336 -0.0833 -0.4824 -0.3556
  912MOL0     C25785   6.042   2.338   3.437 -0.7330 -0.4664 -0.3467
  912MOL0     C25786   5.956   2.448   3.494  0.2469  0.4965  0.2434
  912MOL0     H25787   6.613   2.337   3.525 -1.4879  1.3029 -1.5897
  912MOL0     H25788   6.809   2.474   3.602  1.3938  0.4642  2.5648
  912MOL0     H25789   6.743   2.831   3.888  0.2638 -2.9628  0.4770
  912MOL0     H25790   6.740   2.869   3.710 -0.3828  1.5489  1.1318
  912MOL0     H25791   6.948   2.960   3.831  0.6476 -0.1256 -0.7820
  912MOL0     H25792   6.977   2.788   3.879  1.1162  0.5120 -0.2121
  912MOL0     H25793   7.113   2.872   3.696 -0.5044  2.8790 -1.8708
  912MOL0     H25794   7.010   2.742   3.639 -2.8615  0.7596 -1.9599
  912MOL0     H25795   6.878   2.890   3.523  0.8993  0.6363 -0.5629
  912MOL0     H25796   6.938   3.045   3.604  4.3019  1.1325  2.4044
  912MOL0     H25797   7.110   2.867   3.437 -2.5539 -1.1688  1.4878
  912MOL0     H25798   7.152   3.016   3.529 -2.7417  0.0052  3.9414
  912MOL0     H25799   6.956   3.006   3.287  0.9878 -3.4764  1.8866
  912MOL0     H25800   6.987   3.149   3.383  1.7317  0.6290 -0.7156
  912MOL0     H25801   7.238   3.107   3.322 -0.4127 -3.0519 -0.9227
  912MOL0     H25802   7.114   3.198   3.232 -0.5168  0.7459  2.2705
  912MOL0     H25803   7.211   2.912   3.196  0.1736 -0.8264 -0.2762
  912MOL0     H25804   7.058   2.969   3.105 -0.1875  1.1699  0.4434
  912MOL0     H25805   7.399   3.159   3.134  1.0409 -0.1488  0.7816
  912MOL0     H25806   7.505   3.329   2.964 -0.8125 -0.1592 -0.3897
  912MOL0     H25807   7.452   3.331   2.804  1.1122  0.2826 -0.4935
  912MOL0     H25808   7.671   3.159   2.917  1.4996  2.9837  0.5182
  912MOL0     H25809   7.594   3.119   2.760 -0.0030  0.2426 -1.2048
  912MOL0     H25810   7.656   3.349   2.675 -1.1225  1.9263  1.0182
  912MOL0     H25811   7.717   3.397   2.834  0.3124 -1.8557  1.7206
  912MOL0     H25812   7.827   3.169   2.655 -1.3131 -1.2016  0.6637
  912MOL0     H25813   7.912   3.317   2.707 -1.0742  1.0303  0.8027
  912MOL0     H25814   7.949   3.044   3.059 -0.7101  1.0321 -1.7858
  912MOL0     H25815   8.050   2.705   3.071 -2.4340 -0.1925  1.0644
  912MOL0     H25816   7.982   2.840   3.175 -1.4264  0.6723 -0.5222
  912MOL0     H25817   8.157   2.805   3.162 -1.9139  0.1081  1.4171
  912MOL0     H25818   8.212   2.536   2.532  1.5443 -0.9441 -1.5121
  912MOL0     H25819   8.327   2.329   2.451  0.6926 -2.1706  0.9966
  912MOL0     H25820   8.404   2.112   2.463  0.1315 -1.8322  4.3602
  912MOL0     H25821   8.519   2.224   2.384 -0.9245 -0.8608 -0.2605
  912MOL0     H25822   8.586   1.980   2.543 -0.6881  0.1452 -0.5083
  912MOL0     H25823   8.554   1.970   2.375 -0.8423  0.9603  0.7375
  912MOL0     H25824   8.773   2.159   2.467  0.4554 -0.9493  0.3843
  912MOL0     H25825   8.737   2.107   2.305 -3.5334 -2.1740 -1.1489
  912MOL0     H25826   8.798   1.850   2.359  0.4567  1.0637 -3.6592
  912MOL0     H25827   8.833   1.924   2.516 -0.7051  0.1384 -0.8959
  912MOL0     H25828   8.952   1.965   2.244  0.3661  3.4981 -0.2946
  912MOL0     H25829   8.985   2.085   2.363 -0.1087  0.0522  0.3752
  912MOL0     H25830   9.045   1.788   2.360  0.0782  0.0715 -0.1013
  912MOL0     H25831   9.050   1.883   2.513 -0.6872  0.1416 -0.2140
  912MOL0     H25832   9.186   2.032   2.308 -1.8332 -1.1355 -1.2996
  912MOL0     H25833   9.250   1.872   2.298 -0.9971 -1.5160  1.1178
  912MOL0     H25834   9.232   2.033   2.558 -1.6642  0.6489 -1.8702
  912MOL0     H25835   9.386   1.995   2.470 -0.6415  0.8624  0.2193
  912MOL0     H25836   8.583   2.370   2.814 -0.2213 -0.6590  0.2240
  912MOL0     H25837   8.474   2.578   2.867  1.5490 -0.8145  0.4484
  912MOL0     H25838   8.192   2.896   2.664 -0.3020  1.1137 -0.2939
  912MOL0     H25839   8.036   3.092   2.642 -0.1729  1.7587  0.5595
  912MOL0     H25840   6.551   2.715   3.826 -0.4739  2.1924 -2.8634
  912MOL0     H25841   6.358   2.572   3.765  0.7576  3.0183 -1.5668
  912MOL0     H25842   6.352   2.201   3.417 -0.7480 -0.6701  1.0971
  912MOL0     H25843   6.228   2.066   3.236 -1.5514 -0.9344  0.7415
  912MOL0     H25844   6.130   2.013   3.049 -1.3569 -1.1348 -1.8387
  912MOL0     H25845   6.061   1.914   3.182  2.5448 -0.2384 -0.2344
  912MOL0     H25846   6.006   1.865   2.958  3.6124  3.2645  1.0071
  912MOL0     H25847   5.912   2.021   2.937 -0.8152  0.0824  0.4406
  912MOL0     H25848   5.857   1.799   3.132  0.5570  0.0525  0.6472
  912MOL0     H25849   5.776   1.956   3.141  0.6957  1.3063 -1.2522
  912MOL0     H25850   5.736   1.753   2.914  0.6912  0.7447 -0.9243
  912MOL0     H25851   5.685   1.923   2.901 -1.9335 -0.7784 -0.7263
  912MOL0     H25852   5.403   1.753   3.168 -0.8087  1.4333 -0.5560
  912MOL0     H25853   5.879   2.280   3.320  0.1701  1.2679 -0.6040
  912MOL0     H25854   5.848   2.441   3.486  0.2565  2.2909 -3.3340
  912MOL0     H25855   5.984   2.477   3.596  0.2016  1.8324 -0.0987
  912MOL0     H25856   5.986   2.523   3.420 -0.3125 -1.1212 -1.7145
  913MOL0     O25857   1.060   9.818   4.291 -0.2377 -0.1609  0.1179
  913MOL0     C25858   0.998   9.788   4.189  0.7130 -0.0252 -0.5369
  913MOL0     O25859   1.057   9.721   4.092  0.3133  0.4004  0.2938
  913MOL0     C25860   1.183   9.664   4.102 -0.8592  0.4701 -0.4584
  913MOL0     C25861   1.183   9.529   4.142 -0.7068  0.1648  0.0395
  913MOL0     C25862   1.303   9.465   4.156  0.4035 -0.1798 -0.9144
  913MOL0     C25863   1.431   9.530   4.141  0.8489 -0.0274  0.0524
  913MOL0     O25864   1.538   9.451   4.154  0.1104 -0.3610  0.2246
  913MOL0     C25865   1.635   9.505   4.244  0.1650  0.6892 -0.8797
  913MOL0     C25866   1.745   9.396   4.260 -0.5022  0.1238  0.1251
  913MOL0     C25867   1.697   9.265   4.325  0.6897  0.6576 -0.0926
  913MOL0     C25868   1.784   9.138   4.327  0.1107 -0.2661  0.6225
  913MOL0     C25869   1.937   9.157   4.347 -0.1427  0.1648 -0.5011
  913MOL0     C25870   1.971   9.219   4.489 -0.4848 -0.1138  0.0681
  913MOL0     C25871   1.924   9.132   4.605  0.6401  0.6660  1.4978
  913MOL0     C25872   2.005   9.139   4.733  0.0157  0.7076  0.4321
  913MOL0     N25873   1.952   9.043   4.830 -0.4413 -0.1893 -1.0367
  913MOL0     C25874   1.884   9.075   4.935  0.6530 -0.1665 -0.7426
  913MOL0     C25875   1.863   8.952   4.992  0.0352 -0.3698 -0.4447
  913MOL0     C25876   1.768   8.927   5.109 -0.2874 -0.4445 -0.6294
  913MOL0     C25877   1.828   8.856   5.231  0.6131 -0.5816  0.0904
  913MOL0     C25878   1.726   8.801   5.334  0.1919 -0.0721  0.0306
  913MOL0     C25879   1.640   8.682   5.285 -0.0140  0.5265 -0.0446
  913MOL0     O25880   1.550   8.628   5.388 -0.0763 -0.7810  0.1917
  913MOL0     C25881   1.442   8.552   5.356  1.2730 -0.6670  0.2107
  913MOL0     C25882   1.407   8.498   5.233 -0.8486  0.8889 -0.3370
  913MOL0     C25883   1.282   8.431   5.207 -0.2050  0.4526 -0.1786
  913MOL0     C25884   1.260   8.373   5.062  0.4432  0.2364 -0.7352
  913MOL0     C25885   1.190   8.420   5.316  0.0881  0.1059 -0.5163
  913MOL0     C25886   1.056   8.347   5.323  0.4691 -0.1036  0.5004
  913MOL0     O25887   1.028   8.267   5.210  0.1551 -0.4304  0.5060
  913MOL0     C25888   0.897   8.230   5.202 -0.0333 -0.0581 -0.4213
  913MOL0     C25889   0.874   8.098   5.178 -0.0828 -0.0374  0.3565
  913MOL0     C25890   0.746   8.062   5.131  0.5396  0.2711  0.7618
  913MOL0     C25891   0.640   8.153   5.111  0.4569 -0.5411  0.0785
  913MOL0     O25892   0.503   8.130   5.084 -0.0391  0.4168 -0.0914
  913MOL0     C25893   0.463   7.996   5.125 -0.6168  0.7898  0.3895
  913MOL0     C25894   0.317   7.979   5.074  0.1977 -0.4220  0.0356
  913MOL0     C25895   0.230   8.080   5.152 -0.3601 -0.0900 -0.1456
  913MOL0     C25896   0.081   8.044   5.126  0.0581  0.1986  0.9423
  913MOL0     C25897  -0.021   8.145   5.190 -0.4717 -0.0432 -0.7444
  913MOL0     C25898  -0.164   8.115   5.161  0.8081  0.2709  0.3165
  913MOL0     C25899  -0.197   8.114   5.009 -0.9792 -0.0465  0.0748
  913MOL0     C25900  -0.343   8.099   4.990  0.5568 -0.3463 -0.2127
  913MOL0    Cl25901  -0.397   7.947   5.063  0.4414 -0.6293  0.3879
  913MOL0     C25902   0.663   8.293   5.139 -0.3751  0.3221 -0.9294
  913MOL0     C25903   0.784   8.322   5.207 -0.8003 -0.5100 -0.2730
  913MOL0     O25904   0.983   8.368   5.419 -0.0067  0.4054 -0.4245
  913MOL0     C25905   1.228   8.474   5.442  0.1161  0.5823 -0.2760
  913MOL0     C25906   1.357   8.531   5.462 -0.5632 -0.4098  0.0252
  913MOL0     N25907   1.928   8.857   4.927  0.2077  0.1385  0.3202
  913MOL0     N25908   1.987   8.914   4.822  0.3801  0.5010  0.3441
  913MOL0     C25909   1.427   9.669   4.104 -0.5003 -0.0314 -0.1903
  913MOL0     C25910   1.306   9.731   4.089 -0.4951 -0.0687  0.6272
  913MOL0     C25911   0.849   9.808   4.187 -0.2318 -0.5602  0.1211
  913MOL0     C25912   0.775   9.738   4.091 -0.0505  1.0332  0.0212
  913MOL0     C25913   0.636   9.755   4.091  0.1044  0.1944  0.8922
  913MOL0     C25914   0.567   9.828   4.188  0.6557  0.5504  0.1686
  913MOL0     O25915   0.428   9.856   4.190 -0.3062  0.2657 -0.0658
  913MOL0     C25916   0.351   9.778   4.092 -0.2258 -0.1731  0.0708
  913MOL0     C25917   0.317   9.860   3.969 -0.7351 -0.2681  0.6320
  913MOL0     C25918   0.202   9.782   3.902  0.3213 -0.8951 -0.1017
  913MOL0     C25919   0.157   9.855   3.776 -0.4697 -0.1378  0.2864
  913MOL0     C25920   0.262   9.814   3.672  0.7265 -0.9994 -0.7299
  913MOL0     C25921   0.329   9.788   3.577  0.1937 -0.9891 -0.6530
  913MOL0     C25922   0.636   9.904   4.281 -0.3135  0.4973  0.4196
  913MOL0     C25923   0.773   9.892   4.280 -1.2899 -0.1232 -0.2985
  913MOL0     C25924   0.845   9.993   4.369  0.6862 -0.4971 -0.5581
  913MOL0     H25925   1.084   9.489   4.161 -1.1187  0.2778 -1.7177
  913MOL0     H25926   1.298   9.359   4.181  3.5255 -0.4079 -0.8458
  913MOL0     H25927   1.589   9.532   4.339 -2.8887 -2.0694 -1.3828
  913MOL0     H25928   1.692   9.590   4.206  4.3603 -1.2630  0.4876
  913MOL0     H25929   1.787   9.376   4.161 -1.2487  1.0463 -0.3919
  913MOL0     H25930   1.825   9.442   4.320 -0.8562  2.4114 -1.0594
  913MOL0     H25931   1.696   9.284   4.432  0.3289  0.4594 -0.0583
  913MOL0     H25932   1.602   9.231   4.281  1.3294 -1.1526 -0.1426
  913MOL0     H25933   1.754   9.060   4.398 -0.2196 -0.4273  0.3075
  913MOL0     H25934   1.780   9.103   4.224 -1.1944 -1.4400  1.0434
  913MOL0     H25935   1.975   9.225   4.270 -0.7004 -2.5551 -3.4102
  913MOL0     H25936   1.998   9.068   4.330  1.5847  0.8810  1.4862
  913MOL0     H25937   2.078   9.239   4.498 -0.4375  2.2177 -3.3566
  913MOL0     H25938   1.914   9.312   4.505  1.3648  1.2040 -0.6577
  913MOL0     H25939   1.921   9.034   4.556  2.5352  1.8429 -1.2493
  913MOL0     H25940   1.827   9.173   4.634  0.0563  0.8142 -0.5540
  913MOL0     H25941   2.107   9.106   4.709 -0.2981  1.9183 -3.1405
  913MOL0     H25942   2.021   9.240   4.773 -0.5417  1.8695 -2.0939
  913MOL0     H25943   1.827   9.166   4.952 -0.4271 -1.3161  2.8529
  913MOL0     H25944   1.679   8.875   5.070 -1.1186  1.3013 -1.1669
  913MOL0     H25945   1.729   9.023   5.144  1.8849  0.0535  0.5419
  913MOL0     H25946   1.889   8.769   5.204  1.4619 -0.1324  0.5327
  913MOL0     H25947   1.897   8.923   5.282  1.0578 -2.4489  2.1188
  913MOL0     H25948   1.773   8.765   5.426  0.3478  1.8742  0.7505
  913MOL0     H25949   1.651   8.878   5.353  1.0894  1.1531 -1.1824
  913MOL0     H25950   1.573   8.716   5.206  0.0949  2.9482  0.8054
  913MOL0     H25951   1.706   8.605   5.245 -1.6212  0.2706 -2.3698
  913MOL0     H25952   1.469   8.508   5.144 -0.7441  0.8212 -0.2716
  913MOL0     H25953   1.280   8.266   5.052 -1.3737  0.0237 -2.8592
  913MOL0     H25954   1.335   8.424   5.000  0.8302 -0.6397 -1.0069
  913MOL0     H25955   1.157   8.393   5.031  1.2641 -0.0814 -4.0192
  913MOL0     H25956   0.949   8.019   5.184 -0.7572 -0.5736  2.7350
  913MOL0     H25957   0.737   7.957   5.104 -0.5021  0.4213  0.5064
  913MOL0     H25958   0.529   7.922   5.079 -0.0668 -0.6295  3.2227
  913MOL0     H25959   0.472   7.984   5.233  0.0480  1.0219  0.3657
  913MOL0     H25960   0.302   7.991   4.966 -0.3108  1.3696  0.2763
  913MOL0     H25961   0.272   7.884   5.104 -0.2914  0.1308  1.0884
  913MOL0     H25962   0.248   8.183   5.119 -0.1551  0.3824  1.4046
  913MOL0     H25963   0.236   8.071   5.260 -1.5870  1.0807  0.0376
  913MOL0     H25964   0.078   7.944   5.170  2.0261  1.1699  3.5549
  913MOL0     H25965   0.075   8.041   5.017  3.4906 -1.6082  0.6515
  913MOL0     H25966   0.004   8.150   5.296  1.3933 -3.8718 -0.7977
  913MOL0     H25967   0.006   8.241   5.146  0.3122 -1.2572 -3.0952
  913MOL0     H25968  -0.212   8.198   5.215  0.9897 -0.3702  1.5099
  913MOL0     H25969  -0.191   8.021   5.209  0.1343 -0.8603 -2.1377
  913MOL0     H25970  -0.139   8.037   4.958  0.6500  2.4822 -2.1570
  913MOL0     H25971  -0.166   8.209   4.966 -0.1390 -0.6796 -0.7540
  913MOL0     H25972  -0.357   8.077   4.883 -4.6940 -1.8185  0.5243
  913MOL0     H25973  -0.398   8.187   5.024  1.4041  0.3204 -0.5217
  913MOL0     H25974   0.580   8.363   5.140 -0.3520  0.3497 -0.5786
  913MOL0     H25975   0.801   8.427   5.229  0.1079 -0.5185 -0.8522
  913MOL0     H25976   1.171   8.446   5.531 -0.6389  0.7445 -0.6955
  913MOL0     H25977   1.381   8.561   5.564  0.0742  1.8027 -0.7203
  913MOL0     H25978   1.525   9.715   4.094 -1.1158  2.0328  2.1737
  913MOL0     H25979   1.309   9.838   4.073  2.1339 -0.2789 -0.9987
  913MOL0     H25980   0.840   9.689   4.020  0.6431  2.2409 -0.2135
  913MOL0     H25981   0.586   9.713   4.003  2.1270 -0.7907  0.1538
  913MOL0     H25982   0.389   9.678   4.070 -1.0836 -0.1015 -2.0178
  913MOL0     H25983   0.254   9.760   4.139  1.1495 -3.0060  2.0544
  913MOL0     H25984   0.406   9.883   3.910 -0.7746  3.9041  1.8991
  913MOL0     H25985   0.272   9.955   4.000  0.6349 -0.0726  2.1493
  913MOL0     H25986   0.216   9.677   3.873 -2.2760 -0.2334 -4.5453
  913MOL0     H25987   0.118   9.787   3.972 -3.6272 -1.7912 -4.2802
  913MOL0     H25988   0.161   9.964   3.770  0.9021 -0.2361 -1.3540
  913MOL0     H25989   0.063   9.810   3.744 -0.6271 -0.4839  1.2303
  913MOL0     H25990   0.371   9.773   3.480  3.3086  2.7738 -0.1413
  913MOL0     H25991   0.591   9.965   4.359  2.1272  0.7001  1.7433
  913MOL0     H25992   0.947  10.019   4.338  1.5958 -1.2302  1.5805
  913MOL0     H25993   0.780  10.080   4.378  3.4164  1.5893  0.2044
  913MOL0     H25994   0.857   9.950   4.470 -3.0145  1.0030  0.6899
  914MOL0     O25995   3.216   0.126   1.654 -0.2566  0.0455  0.2065
  914MOL0     C25996   3.140   0.136   1.564  0.1877  0.9208  0.4193
  914MOL0     O25997   3.097   0.252   1.513 -0.0600 -0.5455 -0.1569
  914MOL0     C25998   3.155   0.380   1.544  0.2992  0.3934 -0.4837
  914MOL0     C25999   3.087   0.493   1.497  0.1894 -1.6045  0.6753
  914MOL0     C26000   3.139   0.628   1.518  0.3836  0.8153  0.2679
  914MOL0     C26001   3.257   0.650   1.598  1.1628 -0.5664 -1.0589
  914MOL0     O26002   3.277   0.778   1.646  0.4329 -0.5064 -0.1007
  914MOL0     C26003   3.396   0.791   1.722  0.3460 -0.7656  0.5505
  914MOL0     C26004   3.416   0.929   1.786  0.7573  0.7086  0.4781
  914MOL0     C26005   3.553   0.928   1.866 -0.4660 -0.3434  0.2933
  914MOL0     C26006   3.586   1.073   1.914  0.8833  0.0818 -0.2092
  914MOL0     C26007   3.684   1.073   2.027 -0.0947  0.0563 -0.2944
  914MOL0     C26008   3.817   1.009   1.988 -1.0460 -0.2968 -0.0078
  914MOL0     C26009   3.933   1.038   2.073 -0.4599  0.3659 -0.2016
  914MOL0     C26010   4.056   0.972   2.018 -0.0732  0.3105  0.1552
  914MOL0     N26011   4.161   0.973   2.122  0.2353  0.9183 -0.9421
  914MOL0     C26012   4.242   1.078   2.144  0.6368  0.2441 -1.2610
  914MOL0     C26013   4.326   1.035   2.238 -0.9740 -0.6823 -0.4711
  914MOL0     C26014   4.447   1.112   2.292  0.1342 -0.2651  0.0979
  914MOL0     C26015   4.569   1.096   2.203  0.4412 -0.0234  0.5046
  914MOL0     C26016   4.673   1.207   2.211  0.4505  0.5610  0.0191
  914MOL0     C26017   4.724   1.204   2.352 -0.5263 -0.4160 -1.0420
  914MOL0     O26018   4.828   1.303   2.352  0.6310  0.0684  0.8638
  914MOL0     C26019   4.907   1.324   2.461  0.1224  0.4615  1.0296
  914MOL0     C26020   4.998   1.435   2.444  0.1350  0.1725 -0.2975
  914MOL0     C26021   5.095   1.465   2.534 -0.7998  0.2116 -0.0951
  914MOL0     C26022   5.199   1.553   2.497  0.4251 -0.5804 -0.5620
  914MOL0     C26023   5.087   1.393   2.661  0.4507 -0.2857  0.2137
  914MOL0     C26024   5.169   1.423   2.780 -0.5229  0.2748  0.9672
  914MOL0     O26025   5.159   1.334   2.883 -0.0047 -0.1362  0.4467
  914MOL0     C26026   5.251   1.341   2.983 -0.4997 -0.5646 -0.2089
  914MOL0     C26027   5.223   1.430   3.088 -0.0119 -0.4862  0.4907
  914MOL0     C26028   5.317   1.454   3.190 -0.9281  1.4657 -0.6994
  914MOL0     C26029   5.430   1.369   3.202 -0.0312 -0.1933  0.8390
  914MOL0     O26030   5.515   1.384   3.309  0.9984  0.3012 -0.9614
  914MOL0     C26031   5.647   1.324   3.304  0.8789  0.0048 -0.6577
  914MOL0     C26032   5.749   1.399   3.391 -0.3369 -0.6385  0.6412
  914MOL0     C26033   5.757   1.552   3.369 -0.0579 -0.8859  0.0574
  914MOL0     C26034   5.854   1.616   3.466 -0.2895 -0.4079  0.7087
  914MOL0     C26035   5.879   1.770   3.440 -0.4160 -0.9468 -0.3531
  914MOL0     C26036   5.944   1.826   3.565 -0.5312  0.1228 -0.4458
  914MOL0     C26037   6.000   1.965   3.534  0.2388  0.3680 -0.1414
  914MOL0     C26038   6.032   2.054   3.656  0.0795 -0.0625  0.1924
  914MOL0    Cl26039   6.188   1.986   3.733  0.2544 -0.5643  0.2141
  914MOL0     C26040   5.443   1.266   3.113 -1.6204 -0.0005  0.4884
  914MOL0     C26041   5.352   1.248   3.005  0.0167  0.7944  0.7898
  914MOL0     O26042   5.245   1.517   2.782  0.1075  0.4541  0.2077
  914MOL0     C26043   4.989   1.291   2.677 -0.4323  1.1560 -0.6780
  914MOL0     C26044   4.898   1.253   2.583 -0.1335  0.5680 -0.0207
  914MOL0     N26045   4.290   0.906   2.274  0.5666  0.7407 -0.4116
  914MOL0     N26046   4.184   0.871   2.206 -0.1417 -0.1131 -0.0267
  914MOL0     C26047   3.323   0.532   1.639 -0.4952  0.3317 -0.3011
  914MOL0     C26048   3.272   0.405   1.615 -0.6977 -1.1658 -0.9893
  914MOL0     C26049   3.096   0.008   1.508 -0.4175  0.4156  0.6081
  914MOL0     C26050   3.163  -0.113   1.530 -0.4542  0.3494  0.8490
  914MOL0     C26051   3.121  -0.239   1.490  0.6279 -0.7456  0.4103
  914MOL0     C26052   2.999  -0.258   1.424 -1.0833 -0.1435  0.1628
  914MOL0     O26053   2.968  -0.386   1.388  0.6082  0.4346 -0.3027
  914MOL0     C26054   2.828  -0.416   1.406  0.1668 -0.5086 -0.2262
  914MOL0     C26055   2.811  -0.564   1.390  0.1911 -0.6235  0.1911
  914MOL0     C26056   2.884  -0.633   1.507 -0.2705 -0.1487  0.0439
  914MOL0     C26057   2.911  -0.781   1.490 -0.0483  0.8746  0.2822
  914MOL0     C26058   2.786  -0.861   1.512 -0.2449  0.1377  0.5829
  914MOL0     C26059   2.683  -0.916   1.528  0.8918 -0.7412  0.2114
  914MOL0     C26060   2.924  -0.138   1.399  0.2462  0.9020 -0.2806
  914MOL0     C26061   2.970  -0.003   1.437  0.5995  0.9078 -0.7456
  914MOL0     C26062   2.873   0.116   1.413  0.4854  0.1509  0.3799
  914MOL0     H26063   2.996   0.469   1.444 -0.6546 -0.0563  1.3607
  914MOL0     H26064   3.081   0.709   1.477 -1.0072 -0.2900 -0.0093
  914MOL0     H26065   3.482   0.775   1.657  1.3609  2.6686  0.8369
  914MOL0     H26066   3.416   0.715   1.799  0.8276 -0.3911  0.8021
  914MOL0     H26067   3.419   1.007   1.709  2.7007  2.8070  2.5022
  914MOL0     H26068   3.335   0.955   1.855  0.5185  0.1778  0.3982
  914MOL0     H26069   3.542   0.867   1.956  2.3455 -1.1128  0.1855
  914MOL0     H26070   3.632   0.890   1.800 -0.6546  0.0115 -0.1454
  914MOL0     H26071   3.626   1.127   1.828  0.4197  2.0543  0.7624
  914MOL0     H26072   3.495   1.129   1.934  1.9139  0.9230  2.4746
  914MOL0     H26073   3.631   1.016   2.104 -0.9749 -1.5775 -2.0195
  914MOL0     H26074   3.716   1.168   2.071 -0.9293 -0.6816  2.0561
  914MOL0     H26075   3.784   0.904   1.987  1.6684 -1.2130 -0.1222
  914MOL0     H26076   3.842   1.038   1.886 -0.2981  1.9553  0.7545
  914MOL0     H26077   3.919   1.020   2.180  0.5484  3.6696  0.6018
  914MOL0     H26078   3.956   1.145   2.076 -0.4765  0.3863  3.3809
  914MOL0     H26079   4.039   0.867   1.991 -0.2963  0.6184 -0.9513
  914MOL0     H26080   4.092   1.024   1.929 -0.6971 -0.0545 -0.3207
  914MOL0     H26081   4.234   1.164   2.077 -2.5050  0.1977 -1.0685
  914MOL0     H26082   4.477   1.078   2.392  1.3827  0.7966  0.1206
  914MOL0     H26083   4.424   1.219   2.293 -1.2077 -0.5352  1.4665
  914MOL0     H26084   4.614   1.003   2.240 -2.0944 -1.4971  0.1135
  914MOL0     H26085   4.533   1.084   2.101 -1.0936 -0.8099  1.1148
  914MOL0     H26086   4.754   1.178   2.143  1.1551 -3.0068  2.1281
  914MOL0     H26087   4.638   1.302   2.171  0.8647 -0.8536 -4.3457
  914MOL0     H26088   4.644   1.241   2.417  0.6908 -0.2301  0.4192
  914MOL0     H26089   4.758   1.107   2.390  1.3069  0.7402  0.4557
  914MOL0     H26090   5.006   1.484   2.348  0.8903 -0.6816 -0.6875
  914MOL0     H26091   5.166   1.653   2.526 -1.9287 -1.2368 -0.7762
  914MOL0     H26092   5.215   1.535   2.391 -1.7748 -1.1419 -0.8495
  914MOL0     H26093   5.300   1.536   2.537  1.4617  3.5271 -1.0379
  914MOL0     H26094   5.139   1.498   3.074  1.6234  1.2001 -2.0844
  914MOL0     H26095   5.297   1.518   3.275  0.0468  1.4572 -0.4585
  914MOL0     H26096   5.638   1.224   3.349  1.9546 -0.5002 -1.5095
  914MOL0     H26097   5.694   1.303   3.208  2.7767 -1.6363  0.5399
  914MOL0     H26098   5.733   1.390   3.499  1.7514 -0.9339  0.9676
  914MOL0     H26099   5.850   1.363   3.368  0.0304  0.5778  0.2766
  914MOL0     H26100   5.657   1.592   3.390 -0.3673 -1.7464  0.2658
  914MOL0     H26101   5.797   1.572   3.270  1.1384 -2.4473  0.1823
  914MOL0     H26102   5.949   1.562   3.455 -0.3916 -0.7310  1.3938
  914MOL0     H26103   5.816   1.597   3.567  1.0752  1.8370  1.7359
  914MOL0     H26104   5.939   1.782   3.349  2.8112 -0.7711  1.6324
  914MOL0     H26105   5.779   1.816   3.442  1.2798  3.2010  0.1026
  914MOL0     H26106   6.025   1.763   3.605  1.0472  1.5961 -1.2110
  914MOL0     H26107   5.874   1.830   3.648 -0.8399 -1.9979 -0.5430
  914MOL0     H26108   5.922   2.024   3.486 -0.7340  1.3982  2.5128
  914MOL0     H26109   6.087   1.945   3.471  0.8281 -1.9485  1.2928
  914MOL0     H26110   5.944   2.057   3.721  0.6740 -0.3550  1.0312
  914MOL0     H26111   6.050   2.156   3.621 -2.8717  0.3086 -0.4836
  914MOL0     H26112   5.521   1.192   3.128 -1.7545 -0.6957 -1.8870
  914MOL0     H26113   5.353   1.173   2.926  0.6905  2.4129 -0.8197
  914MOL0     H26114   4.969   1.252   2.776 -1.6024  1.4015 -0.8093
  914MOL0     H26115   4.819   1.180   2.599 -1.0289  2.0731  3.4217
  914MOL0     H26116   3.413   0.546   1.698  0.2382  0.0200 -1.3258
  914MOL0     H26117   3.340   0.331   1.657 -2.2182 -2.3867 -0.6197
  914MOL0     H26118   3.255  -0.097   1.585  0.4451 -0.8061 -0.2557
  914MOL0     H26119   3.170  -0.333   1.513  0.0400 -1.4086 -0.9229
  914MOL0     H26120   2.796  -0.396   1.509 -0.1490 -3.3077  0.2954
  914MOL0     H26121   2.768  -0.357   1.336 -1.3089  2.1397  2.9411
  914MOL0     H26122   2.855  -0.587   1.293  1.8168  0.6154  0.5909
  914MOL0     H26123   2.706  -0.591   1.380  0.2482 -0.8354  0.1634
  914MOL0     H26124   2.976  -0.575   1.515  0.6424 -0.9560 -3.0509
  914MOL0     H26125   2.830  -0.618   1.601 -0.0580  1.8306 -0.0945
  914MOL0     H26126   2.990  -0.803   1.562 -0.2435 -0.1619  0.1934
  914MOL0     H26127   2.955  -0.800   1.391 -0.8005 -0.9743  0.2633
  914MOL0     H26128   2.600  -0.984   1.533  2.6652 -3.3738 -2.5255
  914MOL0     H26129   2.838  -0.156   1.335  0.3987 -1.5363  0.1070
  914MOL0     H26130   2.832   0.147   1.509  1.4605 -1.1335  1.2644
  914MOL0     H26131   2.920   0.200   1.362  3.2815 -1.3951  0.1951
  914MOL0     H26132   2.796   0.077   1.346  0.9187  0.9325 -0.5865
  915MOL0     O26133   8.779   1.396   9.519  0.8118 -0.9647 -0.7734
  915MOL0     C26134   8.764   1.302   9.599  0.2340  0.5148  0.1434
  915MOL0     O26135   8.707   1.169   9.575  0.4918  0.2095  0.0135
  915MOL0     C26136   8.701   1.134   9.442  0.2120  0.6248 -0.3985
  915MOL0     C26137   8.581   1.080   9.395  0.3004 -0.1175  0.1532
  915MOL0     C26138   8.558   1.059   9.258 -0.1258  1.0204  0.3886
  915MOL0     C26139   8.658   1.082   9.167  0.4250  0.6057  0.2459
  915MOL0     O26140   8.633   1.057   9.036  0.4050  0.2535 -0.6932
  915MOL0     C26141   8.735   0.993   8.954  0.1837 -0.7651 -0.3031
  915MOL0     C26142   8.717   0.842   8.927  0.5362  0.2589  0.0153
  915MOL0     C26143   8.570   0.788   8.897 -0.9084  0.7353 -0.0708
  915MOL0     C26144   8.550   0.636   8.901 -0.1246  0.1110  0.5233
  915MOL0     C26145   8.669   0.554   8.852  0.0186 -0.3696  0.3235
  915MOL0     C26146   8.650   0.398   8.879  0.9271  0.5663  0.6044
  915MOL0     C26147   8.783   0.324   8.907  1.4946  0.4882 -0.6177
  915MOL0     C26148   8.863   0.298   8.772  0.2781 -0.1248  0.7509
  915MOL0     N26149   8.956   0.184   8.792 -0.4578 -0.6367  0.5889
  915MOL0     C26150   9.091   0.198   8.832  1.0573  0.6442  0.6821
  915MOL0     C26151   9.150   0.079   8.804  0.2543 -0.2532  0.0651
  915MOL0     C26152   9.294   0.053   8.811 -0.2288  0.7455  0.0319
  915MOL0     C26153   9.336   0.021   8.951 -0.0877  0.0536  0.6355
  915MOL0     C26154   9.481  -0.030   8.966 -0.4500 -0.2049 -0.1865
  915MOL0     C26155   9.516  -0.159   8.895 -0.4619  0.6726  0.5839
  915MOL0     O26156   9.550  -0.135   8.752 -0.2429  0.0859  0.2113
  915MOL0     C26157   9.674  -0.115   8.714  0.1409 -1.3092 -0.0489
  915MOL0     C26158   9.692  -0.128   8.580 -0.2405 -0.5632  0.6877
  915MOL0     C26159   9.813  -0.106   8.517 -0.5695  0.2911  0.4483
  915MOL0     C26160   9.832  -0.150   8.376  0.4768 -0.9336 -0.1585
  915MOL0     C26161   9.928  -0.069   8.596 -0.9641 -1.0726  0.0666
  915MOL0     C26162  10.062  -0.055   8.539 -0.4801 -0.1999  0.7972
  915MOL0     O26163  10.069   0.007   8.413 -0.7192  0.8824 -0.4001
  915MOL0     C26164  10.193   0.038   8.367  0.5838 -0.4205 -0.1847
  915MOL0     C26165  10.236   0.165   8.366  0.0121  0.2134  0.1307
  915MOL0     C26166  10.367   0.200   8.315  0.2827 -0.6722  0.3357
  915MOL0     C26167  10.449   0.108   8.258 -0.5794  0.2650  0.3865
  915MOL0     O26168  10.573   0.149   8.219  0.0758 -0.9613 -0.4755
  915MOL0     C26169  10.628   0.093   8.098 -0.9440  0.4644  0.6894
  915MOL0     C26170  10.777   0.141   8.093  0.1822 -0.4078  0.3750
  915MOL0     C26171  10.868   0.109   8.205 -0.3854  0.7948  0.3357
  915MOL0     C26172  10.914  -0.035   8.195 -0.1552 -0.5774 -0.0023
  915MOL0     C26173  10.992  -0.082   8.318  0.1560  0.0258 -0.6219
  915MOL0     C26174  11.131  -0.010   8.353  0.7034 -0.0370 -0.0645
  915MOL0     C26175  11.242   0.012   8.257 -0.6331  0.2707 -0.2694
  915MOL0     C26176  11.269  -0.100   8.160 -0.3045  1.0964  0.3809
  915MOL0    Cl26177  11.432  -0.089   8.104  0.0827  0.1797 -0.0861
  915MOL0     C26178  10.400  -0.027   8.244  0.6829 -0.7324  0.1791
  915MOL0     C26179  10.274  -0.055   8.299  1.6760  0.6715 -0.5479
  915MOL0     O26180  10.154  -0.075   8.613 -0.1761 -0.3123 -0.6035
  915MOL0     C26181   9.903  -0.055   8.738 -0.2901 -0.8358  0.9712
  915MOL0     C26182   9.776  -0.067   8.794 -0.5466  0.0963 -0.1316
  915MOL0     N26183   9.051  -0.002   8.740  0.6120  0.3317  0.2944
  915MOL0     N26184   8.939   0.064   8.735 -0.6395  0.5185  0.1458
  915MOL0     C26185   8.780   1.124   9.215  1.1694 -0.2884 -0.1382
  915MOL0     C26186   8.803   1.150   9.350  0.4228  0.5518  0.1054
  915MOL0     C26187   8.758   1.329   9.743  0.4732  0.1922  0.5713
  915MOL0     C26188   8.675   1.241   9.821  0.1407 -0.4248 -0.2336
  915MOL0     C26189   8.687   1.232   9.957 -0.2894  0.8746  0.1206
  915MOL0     C26190   8.760   1.332  10.019  0.7292 -0.2614  0.6172
  915MOL0     O26191   8.749   1.337  10.148  0.3177 -0.9509  0.1076
  915MOL0     C26192   8.874   1.314  10.218  0.4270 -0.8771 -0.0784
  915MOL0     C26193   8.858   1.218  10.334 -0.3538  0.5498  0.2258
  915MOL0     C26194   8.779   1.287  10.461 -0.5602 -0.0314  0.8638
  915MOL0     C26195   8.629   1.317  10.434  0.7608 -0.5799 -0.1791
  915MOL0     C26196   8.582   1.389  10.552 -0.0559  0.0123  1.0133
  915MOL0     C26197   8.530   1.433  10.647  0.6854 -0.4752  0.1417
  915MOL0     C26198   8.829   1.431   9.948 -0.4013 -0.6461  0.2446
  915MOL0     C26199   8.840   1.425   9.806  0.3073 -0.2700  0.1665
  915MOL0     C26200   8.929   1.524   9.734  0.2382  0.3221 -0.6321
  915MOL0     H26201   8.505   1.088   9.472 -0.8245  3.4139 -1.1243
  915MOL0     H26202   8.463   1.020   9.224  0.3290 -1.0596  1.3392
  915MOL0     H26203   8.837   1.019   8.985 -1.1048  3.8086  0.8800
  915MOL0     H26204   8.710   1.045   8.861 -0.0975 -1.6246 -0.7189
  915MOL0     H26205   8.770   0.824   8.833  2.0855  1.3203  0.6598
  915MOL0     H26206   8.754   0.785   9.012  2.3846  1.2951 -0.0465
  915MOL0     H26207   8.483   0.833   8.947 -1.7927  1.5464 -2.2089
  915MOL0     H26208   8.560   0.816   8.792  3.8761  2.0677 -0.3957
  915MOL0     H26209   8.526   0.609   9.004  2.9918  0.1870  1.3749
  915MOL0     H26210   8.460   0.616   8.842 -0.4163  2.4400  0.0442
  915MOL0     H26211   8.761   0.579   8.906  0.1079 -1.1584  0.5503
  915MOL0     H26212   8.686   0.581   8.747  0.9420 -1.7894  0.0747
  915MOL0     H26213   8.583   0.393   8.965 -1.2420  0.0576 -1.0288
  915MOL0     H26214   8.603   0.342   8.797 -0.0489 -0.0211  1.5292
  915MOL0     H26215   8.772   0.242   8.979  0.8191  0.7428 -0.4167
  915MOL0     H26216   8.849   0.395   8.957  0.9610  1.6443 -1.5170
  915MOL0     H26217   8.792   0.274   8.692  0.7801 -1.1794  0.6163
  915MOL0     H26218   8.919   0.388   8.744  2.5303 -1.0490  2.0182
  915MOL0     H26219   9.138   0.284   8.879  1.0019  1.0131  0.0701
  915MOL0     H26220   9.354   0.140   8.782 -0.1773  0.4571 -0.7341
  915MOL0     H26221   9.323  -0.028   8.744  0.3366 -0.2586  1.4354
  915MOL0     H26222   9.326   0.110   9.014  1.0421 -0.2269  1.2352
  915MOL0     H26223   9.262  -0.049   8.992 -1.4326  1.8994  1.4783
  915MOL0     H26224   9.553   0.047   8.934  0.8568 -0.5481  1.7313
  915MOL0     H26225   9.498  -0.035   9.074 -0.4284  2.9983  0.0466
  915MOL0     H26226   9.610  -0.183   8.945  0.2138  1.5190 -0.2557
  915MOL0     H26227   9.436  -0.233   8.899 -0.6425  0.8966  1.4921
  915MOL0     H26228   9.606  -0.152   8.518  0.1975 -1.8406  0.5443
  915MOL0     H26229   9.929  -0.192   8.351 -0.7954 -3.1261 -1.8442
  915MOL0     H26230   9.808  -0.059   8.319  1.2272  0.8868  2.2994
  915MOL0     H26231   9.761  -0.230   8.353  1.0760 -1.2276 -1.0669
  915MOL0     H26232  10.177   0.248   8.404 -0.4472 -0.5976  1.2403
  915MOL0     H26233  10.402   0.301   8.330 -3.0450  1.0975 -2.3635
  915MOL0     H26234  10.618  -0.015   8.094 -3.4916  0.6984 -2.3116
  915MOL0     H26235  10.585   0.130   8.005  1.1683  2.0587  0.2694
  915MOL0     H26236  10.834   0.103   8.007  2.0585 -1.5431  2.0347
  915MOL0     H26237  10.763   0.249   8.080 -2.0455 -0.5399  1.1791
  915MOL0     H26238  10.825   0.134   8.302 -0.7658  3.1662 -0.3900
  915MOL0     H26239  10.957   0.171   8.192 -0.4860  0.3455 -3.8186
  915MOL0     H26240  10.991  -0.027   8.118  0.0289  3.4849  0.3825
  915MOL0     H26241  10.838  -0.101   8.153  0.2836 -1.2927  0.3204
  915MOL0     H26242  10.925  -0.083   8.404  2.0594  3.9270  1.1704
  915MOL0     H26243  11.016  -0.186   8.295  1.8136  0.0564  0.7810
  915MOL0     H26244  11.167  -0.066   8.440  0.5260  0.2857  0.2174
  915MOL0     H26245  11.108   0.092   8.387 -0.5018  0.1092 -1.2020
  915MOL0     H26246  11.329   0.028   8.321 -0.3762  1.0262 -0.7809
  915MOL0     H26247  11.223   0.101   8.196 -4.7256  0.5110  1.0837
  915MOL0     H26248  11.196  -0.108   8.079  1.1298  1.8415 -1.0463
  915MOL0     H26249  11.256  -0.202   8.196  1.4492  0.0740 -1.6822
  915MOL0     H26250  10.456  -0.108   8.199 -0.1848 -1.1354 -0.2040
  915MOL0     H26251  10.223  -0.150   8.302 -2.3996  2.6245  1.8938
  915MOL0     H26252   9.984  -0.033   8.806  0.0538  1.4425 -0.0776
  915MOL0     H26253   9.775  -0.047   8.901  0.7217 -1.4891  0.1972
  915MOL0     H26254   8.848   1.157   9.137 -0.9805 -1.5636 -2.7660
  915MOL0     H26255   8.890   1.201   9.390 -0.5935  0.3694  2.7274
  915MOL0     H26256   8.588   1.186   9.787  0.6587 -2.4100  1.4469
  915MOL0     H26257   8.612   1.177  10.014 -0.0153 -1.6429 -1.7933
  915MOL0     H26258   8.938   1.259  10.149 -1.5427 -0.6534 -2.2186
  915MOL0     H26259   8.927   1.400  10.257  3.2603 -2.0865 -1.0222
  915MOL0     H26260   8.953   1.173  10.366 -1.1194 -1.5362 -0.2766
  915MOL0     H26261   8.798   1.132  10.304  0.6153 -0.0008 -0.1574
  915MOL0     H26262   8.798   1.223  10.548 -0.8485  0.7848  1.5455
  915MOL0     H26263   8.830   1.381  10.486 -2.4999  1.3557 -0.1883
  915MOL0     H26264   8.570   1.226  10.427 -0.1734 -0.1078  1.1795
  915MOL0     H26265   8.604   1.379  10.347 -4.8133 -1.7045  0.2614
  915MOL0     H26266   8.485   1.476  10.734  1.6574  2.3740 -0.6319
  915MOL0     H26267   8.897   1.497  10.000  0.9307 -0.2488 -1.8853
  915MOL0     H26268   9.007   1.473   9.676  1.3654  2.4353 -1.0874
  915MOL0     H26269   8.861   1.579   9.669  0.0354  0.8864  0.0369
  915MOL0     H26270   8.986   1.594   9.797 -0.5832 -0.9865  1.6764
  916MOL0     O26271  10.239   5.320   4.972 -0.1936  0.5191  0.6561
  916MOL0     C26272  10.301   5.219   5.009 -0.0076 -0.7431 -0.6996
  916MOL0     O26273  10.260   5.085   4.996  0.0324  0.0113  0.4940
  916MOL0     C26274  10.125   5.057   4.993  0.7212  0.8727 -0.4241
  916MOL0     C26275  10.021   5.132   5.053  0.0245 -0.1685 -0.5653
  916MOL0     C26276   9.889   5.087   5.061 -0.1324  0.3154  0.2863
  916MOL0     C26277   9.848   4.967   5.003  0.1008  0.4204  0.6364
  916MOL0     O26278   9.722   4.921   5.021  0.2972 -0.0203  0.0558
  916MOL0     C26279   9.673   4.788   4.989  0.1297  0.8550  0.4937
  916MOL0     C26280   9.526   4.798   5.042 -0.5095  0.3794 -0.2326
  916MOL0     C26281   9.436   4.687   5.005  0.7852 -0.2053 -0.3183
  916MOL0     C26282   9.296   4.736   5.031 -0.1356  0.0532 -0.4802
  916MOL0     C26283   9.195   4.631   5.004  0.1501 -0.2934  0.4814
  916MOL0     C26284   9.074   4.669   5.096  0.7154 -0.5815 -0.2143
  916MOL0     C26285   9.084   4.599   5.225 -0.6006 -0.7504  0.7150
  916MOL0     C26286   9.015   4.661   5.352 -0.3020 -0.4474 -0.7033
  916MOL0     N26287   9.052   4.792   5.386  0.1144 -1.4442  0.3852
  916MOL0     C26288   9.182   4.829   5.400  0.7123  0.4010  0.2645
  916MOL0     C26289   9.171   4.963   5.412 -0.6687  0.4967  0.4160
  916MOL0     C26290   9.289   5.053   5.431 -0.5562  0.2717  0.3453
  916MOL0     C26291   9.360   5.052   5.564  1.3091 -0.4766 -0.1974
  916MOL0     C26292   9.486   5.143   5.554 -0.1421 -0.0659  1.2283
  916MOL0     C26293   9.607   5.085   5.490  1.5687  0.4511  0.5845
  916MOL0     O26294   9.634   4.964   5.560 -0.4789  0.1512  0.3139
  916MOL0     C26295   9.761   4.914   5.579  0.6587  0.2623  0.5666
  916MOL0     C26296   9.860   4.911   5.473 -0.1932  0.0350  0.2618
  916MOL0     C26297  10.000   4.879   5.493 -0.2536  0.7026 -0.2359
  916MOL0     C26298  10.111   4.909   5.382  0.5666 -0.0877  0.2468
  916MOL0     C26299  10.033   4.841   5.624 -0.5818 -0.0140 -0.1515
  916MOL0     C26300  10.172   4.809   5.663  0.7166 -0.6255  0.3360
  916MOL0     O26301  10.190   4.791   5.800 -0.1492 -0.3431  0.0401
  916MOL0     C26302  10.304   4.757   5.867 -0.1578 -0.1387 -0.3556
  916MOL0     C26303  10.436   4.764   5.822  0.1857 -0.2956  0.4944
  916MOL0     C26304  10.550   4.743   5.903 -0.2637 -0.4467 -0.1931
  916MOL0     C26305  10.524   4.715   6.035 -1.4155  0.4322  0.1728
  916MOL0     O26306  10.620   4.694   6.123  1.0775  0.3884 -0.5867
  916MOL0     C26307  10.759   4.699   6.083  0.7899 -0.5196  0.0269
  916MOL0     C26308  10.853   4.632   6.187 -0.2453 -0.7032 -0.4266
  916MOL0     C26309  10.825   4.668   6.334  0.1148  0.8634 -0.3186
  916MOL0     C26310  10.930   4.588   6.422  1.2358  0.0140  0.0713
  916MOL0     C26311  10.917   4.620   6.566  0.1852  0.2307  0.9072
  916MOL0     C26312  11.023   4.543   6.640  0.2740 -0.0344  0.5960
  916MOL0     C26313  11.165   4.601   6.613  0.0907 -0.0269 -0.3707
  916MOL0     C26314  11.258   4.578   6.728  0.5509  0.0602 -0.5764
  916MOL0    Cl26315  11.285   4.404   6.765 -0.4729  0.0065 -0.5861
  916MOL0     C26316  10.390   4.703   6.078  0.0126 -0.2749  0.6825
  916MOL0     C26317  10.284   4.732   6.001  0.7194 -0.7660  0.1402
  916MOL0     O26318  10.253   4.789   5.579  0.6463 -0.5237  0.2090
  916MOL0     C26319   9.935   4.829   5.726 -0.1996 -0.2503 -0.1550
  916MOL0     C26320   9.801   4.862   5.706  0.0543  0.2429 -0.4309
  916MOL0     N26321   9.037   5.002   5.415  0.0959  1.1285 -0.0359
  916MOL0     N26322   8.970   4.892   5.396 -0.1859  0.3683 -0.0263
  916MOL0     C26323   9.942   4.888   4.935  0.2179 -0.1929 -0.1270
  916MOL0     C26324  10.079   4.932   4.931 -0.1636 -0.6010 -0.7897
  916MOL0     C26325  10.436   5.244   5.059 -0.2831 -0.0891 -0.2390
  916MOL0     C26326  10.542   5.293   4.979 -0.1829 -0.0100 -0.2023
  916MOL0     C26327  10.672   5.274   5.006 -0.4398  0.0197 -1.0243
  916MOL0     C26328  10.704   5.230   5.135 -0.2712  0.1375  0.1743
  916MOL0     O26329  10.834   5.220   5.185  0.7189  0.2921  0.4772
  916MOL0     C26330  10.953   5.234   5.103  0.6280 -0.2962  0.5624
  916MOL0     C26331  11.083   5.229   5.174 -0.0429  0.3290  0.3973
  916MOL0     C26332  11.182   5.261   5.062  0.2370 -0.1407  0.1447
  916MOL0     C26333  11.322   5.294   5.108  0.2234 -0.1523  0.7091
  916MOL0     C26334  11.370   5.220   5.219 -0.6601  0.1713 -0.8706
  916MOL0     C26335  11.424   5.157   5.309 -0.0679 -0.7949 -0.2279
  916MOL0     C26336  10.601   5.195   5.222 -0.4660  0.5313  0.0327
  916MOL0     C26337  10.465   5.196   5.192 -0.1719 -0.1025 -0.5386
  916MOL0     C26338  10.376   5.152   5.294 -0.0346 -0.5841  0.5739
  916MOL0     H26339  10.041   5.226   5.103 -1.6127 -0.4912  0.8084
  916MOL0     H26340   9.816   5.146   5.116  1.5446  1.4027  1.4080
  916MOL0     H26341   9.721   4.703   5.038 -0.9446 -0.1445 -0.1387
  916MOL0     H26342   9.684   4.778   4.880  1.6545  3.2757  0.3453
  916MOL0     H26343   9.548   4.802   5.149  1.6746  0.6973 -0.6381
  916MOL0     H26344   9.482   4.895   5.018 -4.7171 -1.2941 -0.1569
  916MOL0     H26345   9.452   4.664   4.900 -0.5222  2.2998 -1.1718
  916MOL0     H26346   9.446   4.602   5.073 -0.9158  0.1729  0.4746
  916MOL0     H26347   9.283   4.762   5.137 -2.7572 -0.7301 -0.5375
  916MOL0     H26348   9.269   4.827   4.977 -3.1435 -0.1733  0.4366
  916MOL0     H26349   9.231   4.534   5.040  3.0220  0.4491 -0.0882
  916MOL0     H26350   9.165   4.642   4.900 -2.2036  0.1938  1.1550
  916MOL0     H26351   9.065   4.777   5.114 -3.7645 -1.0892  1.8062
  916MOL0     H26352   8.982   4.645   5.042 -1.2986  2.9034  1.3061
  916MOL0     H26353   9.193   4.596   5.238 -0.2695 -1.0777 -1.6809
  916MOL0     H26354   9.038   4.502   5.205 -0.5116 -0.7280  0.4006
  916MOL0     H26355   8.910   4.654   5.321  0.0362 -0.8762 -1.7857
  916MOL0     H26356   9.031   4.603   5.443 -2.8679  2.4517  1.8240
  916MOL0     H26357   9.269   4.764   5.396  0.8432  0.6362 -1.1419
  916MOL0     H26358   9.247   5.152   5.415  0.0188  0.5071  0.2741
  916MOL0     H26359   9.361   5.018   5.356 -0.0115 -0.4902  1.2045
  916MOL0     H26360   9.289   5.081   5.641  0.8965 -1.7009 -0.1038
  916MOL0     H26361   9.388   4.950   5.591  1.3399 -0.5858 -0.6275
  916MOL0     H26362   9.457   5.234   5.501  0.6734 -0.9524 -0.8326
  916MOL0     H26363   9.520   5.172   5.654 -1.2289 -2.0227  2.2222
  916MOL0     H26364   9.600   5.052   5.385  1.6033  0.9997  0.4066
  916MOL0     H26365   9.691   5.155   5.493  0.1975  2.2028  0.0690
  916MOL0     H26366   9.827   4.956   5.380 -0.4011 -0.4094  0.1179
  916MOL0     H26367  10.161   4.819   5.347 -0.5571  0.3586 -2.8235
  916MOL0     H26368  10.186   4.983   5.414  1.1952  0.9079 -3.1102
  916MOL0     H26369  10.065   4.964   5.299 -1.7853 -0.0778  1.4845
  916MOL0     H26370  10.440   4.774   5.714 -1.7203  1.4124  0.5295
  916MOL0     H26371  10.649   4.755   5.859  0.5407  0.1063  1.6825
  916MOL0     H26372  10.766   4.641   5.990  0.9839 -5.3163  2.7329
  916MOL0     H26373  10.784   4.804   6.065 -1.4979  0.2703  1.1140
  916MOL0     H26374  10.858   4.523   6.183  5.2001 -0.7343 -0.8460
  916MOL0     H26375  10.956   4.655   6.157 -0.1655 -0.3483  0.1068
  916MOL0     H26376  10.724   4.631   6.358  0.8120 -2.1223 -1.5420
  916MOL0     H26377  10.842   4.775   6.350 -0.2468  1.0311 -1.0044
  916MOL0     H26378  11.029   4.598   6.378  1.6320  0.8261  1.1086
  916MOL0     H26379  10.917   4.480   6.406 -0.7743 -0.2640  2.8578
  916MOL0     H26380  10.922   4.727   6.586 -1.4081  0.5787 -0.3679
  916MOL0     H26381  10.817   4.592   6.602  0.9148 -0.8775  2.2098
  916MOL0     H26382  11.027   4.436   6.616  0.5538 -0.0809  0.8450
  916MOL0     H26383  11.004   4.551   6.747 -1.1016  0.9951  0.3084
  916MOL0     H26384  11.158   4.708   6.588  0.4502 -0.3402 -1.8510
  916MOL0     H26385  11.212   4.557   6.525  2.7505 -2.8433  2.1981
  916MOL0     H26386  11.222   4.630   6.817 -1.6240 -2.4801  0.1622
  916MOL0     H26387  11.347   4.628   6.689  0.4466  1.1191  0.4808
  916MOL0     H26388  10.386   4.667   6.181  0.7360 -2.7292 -0.0848
  916MOL0     H26389  10.186   4.738   6.047  0.6929 -2.0956  0.2792
  916MOL0     H26390   9.974   4.801   5.823 -0.1855 -0.3395 -0.1858
  916MOL0     H26391   9.742   4.846   5.796  0.3769  1.0613 -0.0710
  916MOL0     H26392   9.923   4.786   4.904 -2.3068 -0.3112  1.5484
  916MOL0     H26393  10.161   4.877   4.885  1.5837  0.4457  0.9237
  916MOL0     H26394  10.525   5.323   4.876 -0.7385 -0.7504 -0.3295
  916MOL0     H26395  10.746   5.301   4.931 -0.7796  1.7937 -0.7564
  916MOL0     H26396  10.955   5.150   5.034  0.1983 -0.0518  0.2397
  916MOL0     H26397  10.940   5.329   5.049  1.0479 -0.6559 -0.1826
  916MOL0     H26398  11.091   5.129   5.219  1.9704  0.8845  1.3995
  916MOL0     H26399  11.091   5.303   5.254 -1.5609 -0.4524  1.3383
  916MOL0     H26400  11.188   5.184   4.985 -0.9188 -0.5550  0.4494
  916MOL0     H26401  11.154   5.364   5.035 -0.5824  0.2261  2.2473
  916MOL0     H26402  11.314   5.400   5.132 -1.6304  0.1778 -1.1744
  916MOL0     H26403  11.387   5.279   5.022  0.3383 -1.0889  0.9436
  916MOL0     H26404  11.464   5.110   5.397 -0.7558 -0.3746  0.3226
  916MOL0     H26405  10.629   5.154   5.319  0.2896  0.2725 -0.2884
  916MOL0     H26406  10.269   5.157   5.271  0.3024  1.5677 -0.7500
  916MOL0     H26407  10.385   5.047   5.326 -2.7847 -1.5832 -1.5590
  916MOL0     H26408  10.392   5.200   5.391  1.2630 -0.4630  0.3136
  917MOL0     O26409   8.331  10.239   4.666 -1.3079 -1.0415  0.7426
  917MOL0     C26410   8.255  10.169   4.724 -0.5984  0.7419 -0.7731
  917MOL0     O26411   8.291  10.064   4.811 -0.9051  0.1324 -0.0963
  917MOL0     C26412   8.421  10.013   4.808  0.6008 -0.4783  0.0679
  917MOL0     C26413   8.522  10.057   4.901  0.2018 -0.3741  0.5097
  917MOL0     C26414   8.644   9.990   4.897  0.4730 -0.4279  0.0905
  917MOL0     C26415   8.667   9.879   4.806  0.3914 -0.5945  0.3999
  917MOL0     O26416   8.793   9.829   4.803  0.0566  0.4876  0.1929
  917MOL0     C26417   8.864   9.817   4.673 -0.7457  0.4361 -0.3204
  917MOL0     C26418   9.011   9.829   4.703  0.2243 -0.2121  0.4385
  917MOL0     C26419   9.050   9.947   4.805  0.2739  0.5126  0.5430
  917MOL0     C26420   9.204   9.945   4.803  0.0246  0.6446 -0.3744
  917MOL0     C26421   9.268  10.053   4.892  0.3548  0.2333  0.5366
  917MOL0     C26422   9.310  10.180   4.825 -0.0965 -0.1039  0.5572
  917MOL0     C26423   9.310  10.304   4.911  0.2110  0.8288 -0.1188
  917MOL0     C26424   9.342  10.435   4.827  0.7060  0.4892 -0.1204
  917MOL0     N26425   9.487  10.452   4.807  0.1121  0.2731  0.4648
  917MOL0     C26426   9.553  10.573   4.832  0.1249  0.3111  0.2627
  917MOL0     C26427   9.671  10.564   4.762 -0.4991  0.0089  0.6367
  917MOL0     C26428   9.785  10.668   4.773 -0.1811  0.7883  1.1048
  917MOL0     C26429   9.737  10.814   4.805  0.6411  0.9025  0.2064
  917MOL0     C26430   9.847  10.909   4.849  0.2172 -0.2212 -0.0148
  917MOL0     C26431   9.977  10.893   4.771  1.5053 -0.1272 -0.3168
  917MOL0     O26432  10.071  10.996   4.805  0.2726 -0.2408 -0.6785
  917MOL0     C26433  10.166  10.971   4.896  0.5959  0.5673 -0.3737
  917MOL0     C26434  10.140  10.898   5.012  0.3306 -0.2841 -0.7405
  917MOL0     C26435  10.241  10.885   5.114  0.1114 -1.2871  0.1646
  917MOL0     C26436  10.206  10.792   5.238  0.0466 -0.4749  0.5085
  917MOL0     C26437  10.363  10.958   5.102 -0.3256 -0.5641 -0.6792
  917MOL0     C26438  10.486  10.937   5.182  0.4491 -0.0742  0.5988
  917MOL0     O26439  10.592  10.981   5.118 -0.3150  0.1065  0.1729
  917MOL0     C26440  10.707  11.000   5.188  0.6767 -0.0946 -0.7603
  917MOL0     C26441  10.839  10.957   5.153 -0.3512 -0.3592  0.3373
  917MOL0     C26442  10.955  10.998   5.221  0.8849  0.0826  0.0369
  917MOL0     C26443  10.949  11.084   5.327 -0.5651 -0.3141 -0.2138
  917MOL0     O26444  11.069  11.111   5.398 -0.5281 -0.1814 -0.1588
  917MOL0     C26445  11.105  11.251   5.408 -0.0328 -0.2711  0.3562
  917MOL0     C26446  11.232  11.277   5.320  0.1048  0.0094  0.9672
  917MOL0     C26447  11.254  11.429   5.310 -0.4407 -0.2460  0.8114
  917MOL0     C26448  11.376  11.462   5.218 -0.3463 -0.5278 -0.7860
  917MOL0     C26449  11.405  11.609   5.192  0.6515  0.3113  0.7666
  917MOL0     C26450  11.542  11.621   5.122 -0.0369  0.6168 -0.5095
  917MOL0     C26451  11.609  11.756   5.116 -0.3010  1.1178 -0.4415
  917MOL0     C26452  11.531  11.869   5.054  0.1388  0.1792  0.4899
  917MOL0    Cl26453  11.382  11.924   5.142  0.0085  0.4690 -0.1237
  917MOL0     C26454  10.821  11.130   5.366 -0.3039  0.2433  0.9259
  917MOL0     C26455  10.707  11.097   5.298 -0.1171  0.3329 -0.4170
  917MOL0     O26456  10.481  10.891   5.294 -0.0940 -0.0393 -0.5200
  917MOL0     C26457  10.374  11.047   4.989  0.4644 -0.4684  0.9892
  917MOL0     C26458  10.276  11.058   4.892  0.6197  0.0984  0.0652
  917MOL0     N26459   9.683  10.445   4.699  0.3367  0.4124 -0.3434
  917MOL0     N26460   9.569  10.385   4.717 -0.5424  0.0259  0.2511
  917MOL0     C26461   8.566   9.837   4.712  0.2908 -0.5713  0.1027
  917MOL0     C26462   8.445   9.907   4.718  0.2469  0.4062  0.3905
  917MOL0     C26463   8.108  10.175   4.688  0.8297 -0.0116  0.4182
  917MOL0     C26464   8.022  10.109   4.782 -0.7671  0.6550  0.9992
  917MOL0     C26465   7.884  10.140   4.785 -0.2799 -0.0555  0.8030
  917MOL0     C26466   7.825  10.215   4.683  0.0788 -0.2962 -0.3162
  917MOL0     O26467   7.696  10.250   4.665  0.2906  0.0698  0.2588
  917MOL0     C26468   7.615  10.139   4.613 -0.0222 -0.4169 -0.7336
  917MOL0     C26469   7.465  10.184   4.607  0.9311 -0.0634 -0.0370
  917MOL0     C26470   7.412  10.200   4.746  0.1415 -0.5348 -0.3168
  917MOL0     C26471   7.262  10.221   4.766  0.7876 -0.0732 -0.9247
  917MOL0     C26472   7.220  10.174   4.903  0.1287 -0.1263 -0.6463
  917MOL0     C26473   7.187  10.149   5.016 -1.0129  0.9079 -0.6692
  917MOL0     C26474   7.906  10.270   4.592 -0.1046  0.6501  0.8067
  917MOL0     C26475   8.047  10.251   4.589 -0.0677  0.8557  0.0346
  917MOL0     C26476   8.122  10.300   4.470  0.6677  1.1830 -0.3373
  917MOL0     H26477   8.508  10.150   4.955  1.7332 -1.0002  2.0859
  917MOL0     H26478   8.726  10.032   4.955 -1.0653 -0.1954  2.1829
  917MOL0     H26479   8.834   9.904   4.613  1.2960  1.1926 -0.3246
  917MOL0     H26480   8.837   9.724   4.623 -1.2808  0.2652  0.2684
  917MOL0     H26481   9.048   9.737   4.750  3.1513  0.9556  0.6127
  917MOL0     H26482   9.055   9.844   4.604 -1.1853 -0.4683 -0.2485
  917MOL0     H26483   9.000  10.033   4.762  0.6120 -0.0432 -1.0312
  917MOL0     H26484   9.001   9.931   4.901  0.1514  1.5327  0.6569
  917MOL0     H26485   9.236   9.845   4.834  0.0176 -0.0957 -2.5675
  917MOL0     H26486   9.246   9.954   4.702  0.9213  0.9205  0.0128
  917MOL0     H26487   9.361  10.005   4.925 -0.6284 -2.9017 -0.9019
  917MOL0     H26488   9.210  10.073   4.982  0.2796 -3.2063  1.3956
  917MOL0     H26489   9.409  10.159   4.782  1.2152  3.3296  1.5544
  917MOL0     H26490   9.248  10.194   4.736 -2.5904 -0.5469  2.1371
  917MOL0     H26491   9.397  10.304   4.977 -0.1477  0.4241  0.3711
  917MOL0     H26492   9.219  10.317   4.969  0.2628  0.8743 -0.0478
  917MOL0     H26493   9.298  10.446   4.727  2.0379  2.5955 -0.5511
  917MOL0     H26494   9.298  10.512   4.890  1.4768 -0.7619  2.0343
  917MOL0     H26495   9.521  10.655   4.896 -1.2888  0.2683 -0.3527
  917MOL0     H26496   9.844  10.679   4.682  0.8893  4.3243  2.0754
  917MOL0     H26497   9.844  10.629   4.857  0.2926 -1.4948 -0.2076
  917MOL0     H26498   9.682  10.860   4.722 -2.4363 -1.4758  0.7496
  917MOL0     H26499   9.663  10.805   4.885  1.0487  0.3509  0.5245
  917MOL0     H26500   9.811  11.011   4.838 -0.7707 -0.3386  1.7378
  917MOL0     H26501   9.867  10.884   4.954 -1.9115 -2.3624 -0.0383
  917MOL0     H26502  10.025  10.797   4.790 -2.0748 -1.5621  2.9130
  917MOL0     H26503   9.956  10.906   4.665  1.8242  1.1293 -0.2454
  917MOL0     H26504  10.053  10.835   5.022  0.2865 -0.7669 -3.4312
  917MOL0     H26505  10.223  10.852   5.328 -0.8738  0.6859 -0.0607
  917MOL0     H26506  10.265  10.700   5.251 -0.0325 -0.4330  1.2275
  917MOL0     H26507  10.103  10.756   5.236  0.8458 -2.9510 -0.9162
  917MOL0     H26508  10.856  10.870   5.091  1.8922  0.3220 -0.0901
  917MOL0     H26509  11.047  10.950   5.189  1.6907  1.2196  0.6075
  917MOL0     H26510  11.027  11.317   5.368 -0.0812 -1.1036 -0.9680
  917MOL0     H26511  11.134  11.274   5.511  0.5664 -1.0564  0.3670
  917MOL0     H26512  11.325  11.239   5.363  0.6599 -2.0582 -1.7922
  917MOL0     H26513  11.218  11.238   5.219  4.2533  1.9591 -0.5976
  917MOL0     H26514  11.271  11.464   5.412  0.3183 -0.7780  0.8813
  917MOL0     H26515  11.163  11.473   5.269 -1.6847 -2.3593  1.1103
  917MOL0     H26516  11.380  11.405   5.124  2.6304  0.9389 -1.6722
  917MOL0     H26517  11.458  11.437   5.286  0.0146  3.4449  0.4791
  917MOL0     H26518  11.331  11.651   5.123 -0.4913  1.1063  2.4241
  917MOL0     H26519  11.406  11.663   5.287  1.6453 -0.9217  1.4779
  917MOL0     H26520  11.535  11.580   5.021 -0.9659 -0.7478  0.0645
  917MOL0     H26521  11.609  11.563   5.187 -0.0536  2.1124  0.8968
  917MOL0     H26522  11.700  11.747   5.056  0.0906 -1.2014  0.3951
  917MOL0     H26523  11.635  11.773   5.221  1.2771 -2.6457 -0.0483
  917MOL0     H26524  11.525  11.829   4.952 -0.0372 -0.4302  0.7308
  917MOL0     H26525  11.594  11.957   5.065 -1.2059  1.2513 -0.1530
  917MOL0     H26526  10.803  11.201   5.446 -0.1306 -1.3723  2.4600
  917MOL0     H26527  10.619  11.140   5.345  0.3352 -1.9963  2.9409
  917MOL0     H26528  10.468  11.100   4.984  1.6816 -2.5177  1.0616
  917MOL0     H26529  10.269  11.131   4.812 -0.8298 -0.1524 -0.0680
  917MOL0     H26530   8.579   9.757   4.640  1.0019  1.5544 -2.3077
  917MOL0     H26531   8.367   9.871   4.651  2.5795 -0.2324 -2.1243
  917MOL0     H26532   8.047  10.048   4.869  1.1802  1.0564  0.7747
  917MOL0     H26533   7.819  10.101   4.862  0.6240  0.7057  1.9908
  917MOL0     H26534   7.650  10.110   4.513  1.9314 -0.2752 -0.1422
  917MOL0     H26535   7.628  10.051   4.678 -1.9936  1.5626  2.6331
  917MOL0     H26536   7.416  10.093   4.571 -1.4568  1.6878 -1.4981
  917MOL0     H26537   7.451  10.280   4.556  4.2973  1.6310  1.8688
  917MOL0     H26538   7.437  10.108   4.800  2.6965 -0.1255 -0.7066
  917MOL0     H26539   7.467  10.280   4.796 -1.4966  0.7270 -0.4184
  917MOL0     H26540   7.207  10.152   4.701  0.1234 -2.6102  2.0903
  917MOL0     H26541   7.235  10.325   4.748  1.1847  0.2588  0.3509
  917MOL0     H26542   7.158  10.121   5.115  2.1372 -2.1282 -0.3943
  917MOL0     H26543   7.860  10.337   4.520  0.2800 -1.1109 -1.1300
  917MOL0     H26544   8.179  10.216   4.430 -0.8117  0.5005 -1.0682
  917MOL0     H26545   8.052  10.302   4.386 -1.4770 -1.3147  1.2395
  917MOL0     H26546   8.175  10.395   4.486 -2.7113  2.6373  4.6735
  918MOL0     O26547   6.038  10.748   1.423 -0.3711 -0.1078 -0.4732
  918MOL0     C26548   6.143  10.806   1.418 -1.0191  0.7926 -0.8514
  918MOL0     O26549   6.203  10.892   1.517 -0.4961 -0.3066  0.6211
  918MOL0     C26550   6.149  10.898   1.641 -0.3295 -0.4865  0.3182
  918MOL0     C26551   6.106  11.018   1.706  0.2215  0.5908  1.1722
  918MOL0     C26552   6.056  11.016   1.832 -0.4402 -0.6422  0.5188
  918MOL0     C26553   6.030  10.896   1.906 -0.7435 -0.1306  0.4075
  918MOL0     O26554   5.958  10.887   2.023 -0.2310  0.3595 -0.1364
  918MOL0     C26555   5.962  11.004   2.107 -0.2768  0.4845 -0.2155
  918MOL0     C26556   5.970  10.933   2.246  0.1404 -0.6976 -0.9547
  918MOL0     C26557   6.121  10.908   2.287  0.1515  0.2419  0.3746
  918MOL0     C26558   6.134  10.810   2.403  0.2091  0.3691  0.4039
  918MOL0     C26559   6.284  10.759   2.406  0.1803  0.5289  0.0709
  918MOL0     C26560   6.297  10.619   2.461  0.0810  0.6356  0.0441
  918MOL0     C26561   6.437  10.572   2.482  0.5577  0.0465 -0.4138
  918MOL0     C26562   6.451  10.435   2.547 -0.8111 -0.3389  1.0052
  918MOL0     N26563   6.375  10.326   2.471 -1.2904 -1.0980 -0.1124
  918MOL0     C26564   6.425  10.230   2.390  0.0007 -0.4594 -0.6872
  918MOL0     C26565   6.339  10.136   2.391 -0.0454  0.6576 -0.2606
  918MOL0     C26566   6.334  10.006   2.314 -1.0927  0.3444 -0.4703
  918MOL0     C26567   6.473   9.948   2.257  0.6971 -0.3859  0.8366
  918MOL0     C26568   6.567   9.896   2.363 -0.1076 -0.1126 -0.4479
  918MOL0     C26569   6.706   9.881   2.295 -0.9165 -0.4759  0.4016
  918MOL0     O26570   6.779  10.010   2.286  0.0247  0.8506 -0.6598
  918MOL0     C26571   6.910  10.012   2.242 -0.3035 -0.2162 -0.6955
  918MOL0     C26572   6.979   9.897   2.206 -0.6806  0.1441 -0.3761
  918MOL0     C26573   7.107   9.899   2.151 -1.2233  0.4875 -0.5949
  918MOL0     C26574   7.168   9.757   2.122  0.5381 -0.0520 -0.1563
  918MOL0     C26575   7.165  10.023   2.138  0.2307 -0.1625 -0.3460
  918MOL0     C26576   7.301  10.046   2.087  0.2718  0.6114  0.4418
  918MOL0     O26577   7.358  10.166   2.129  1.1688  0.2822  0.4148
  918MOL0     C26578   7.482  10.200   2.095 -0.5270  0.9129  0.8059
  918MOL0     C26579   7.501  10.317   2.035 -0.1451  0.5975 -0.7152
  918MOL0     C26580   7.629  10.360   2.004 -0.0021  0.3493 -0.3200
  918MOL0     C26581   7.739  10.283   2.012  0.0120  0.4954  0.1733
  918MOL0     O26582   7.864  10.328   1.962  0.0984  0.0220  0.2987
  918MOL0     C26583   7.967  10.231   1.938  0.2604 -0.6662 -0.7443
  918MOL0     C26584   8.070  10.271   1.846  0.2803  0.0818 -0.5980
  918MOL0     C26585   8.013  10.347   1.721  0.0358  0.2962  0.4415
  918MOL0     C26586   8.120  10.364   1.622  0.5826  0.1024 -0.0072
  918MOL0     C26587   8.086  10.407   1.484 -0.0790  0.4498 -0.7697
  918MOL0     C26588   8.000  10.538   1.481  0.5309  0.5892  0.4435
  918MOL0     C26589   8.067  10.658   1.557  0.2312  0.3769 -0.0195
  918MOL0     C26590   8.212  10.688   1.517  0.9764 -0.3654  0.1750
  918MOL0    Cl26591   8.265  10.837   1.605 -0.0674 -0.3406  0.4431
  918MOL0     C26592   7.717  10.157   2.071 -0.7088 -0.3015  0.3994
  918MOL0     C26593   7.590  10.117   2.111 -0.2164  0.5498 -0.0497
  918MOL0     O26594   7.359   9.964   2.019 -0.3604 -0.0288  0.0099
  918MOL0     C26595   7.087  10.141   2.166  0.0416 -0.1563  0.1045
  918MOL0     C26596   6.968  10.132   2.224  0.2943  0.6307  0.3702
  918MOL0     N26597   6.233  10.175   2.471 -0.0216 -0.0954  0.6005
  918MOL0     N26598   6.249  10.297   2.511 -0.6440 -0.1952  0.3066
  918MOL0     C26599   6.086  10.784   1.842 -0.1692 -0.4202 -0.8016
  918MOL0     C26600   6.144  10.784   1.719 -0.6169 -0.6003  0.1077
  918MOL0     C26601   6.229  10.802   1.289  0.1833  0.5358 -0.4499
  918MOL0     C26602   6.361  10.867   1.301  0.2349 -0.1940  0.0867
  918MOL0     C26603   6.439  10.881   1.185  0.5987 -0.2947  0.0260
  918MOL0     C26604   6.397  10.836   1.060 -0.4754 -0.1307 -0.8758
  918MOL0     O26605   6.484  10.853   0.950  0.6635 -0.5629 -0.2656
  918MOL0     C26606   6.435  10.827   0.816  0.2230  0.3945 -0.1957
  918MOL0     C26607   6.515  10.911   0.721 -0.1413 -0.4592 -0.0666
  918MOL0     C26608   6.441  10.921   0.592 -0.0160 -0.4336  0.1857
  918MOL0     C26609   6.525  10.984   0.476 -0.2561  0.3744 -0.7077
  918MOL0     C26610   6.453  10.989   0.343 -0.2215  0.9091  0.4050
  918MOL0     C26611   6.390  10.994   0.247 -0.3088 -0.2480  0.0394
  918MOL0     C26612   6.271  10.781   1.052  0.1797  0.0311 -0.1958
  918MOL0     C26613   6.176  10.766   1.160 -0.2669 -0.2868  0.6000
  918MOL0     C26614   6.041  10.700   1.124 -0.2668  0.2948  0.0232
  918MOL0     H26615   6.103  11.104   1.640 -2.9281 -1.0385 -1.0687
  918MOL0     H26616   6.014  11.105   1.878  1.2148  0.7312 -0.5275
  918MOL0     H26617   5.872  11.065   2.100 -1.5247 -1.2294  0.1713
  918MOL0     H26618   6.052  11.065   2.097 -1.1792  1.7077 -1.1179
  918MOL0     H26619   5.933  10.999   2.325 -1.1915 -1.0651 -1.2429
  918MOL0     H26620   5.907  10.844   2.236  1.2619 -1.2453 -4.5030
  918MOL0     H26621   6.182  10.885   2.199 -3.5439 -0.1615 -2.3260
  918MOL0     H26622   6.151  11.005   2.326  1.3133 -0.0911  0.3337
  918MOL0     H26623   6.096  10.852   2.496 -1.9395  0.3515 -0.4069
  918MOL0     H26624   6.077  10.717   2.389  1.3599 -0.4228  0.8004
  918MOL0     H26625   6.344  10.825   2.469 -4.2339  3.3285  1.8987
  918MOL0     H26626   6.321  10.753   2.303 -3.4807  2.4237 -1.5920
  918MOL0     H26627   6.242  10.622   2.556 -2.8733  1.9340 -1.5781
  918MOL0     H26628   6.254  10.545   2.393 -0.4600  0.5217  0.5014
  918MOL0     H26629   6.495  10.640   2.546  2.4579  1.3513 -3.3155
  918MOL0     H26630   6.492  10.575   2.387  0.9199 -1.5046 -0.2816
  918MOL0     H26631   6.556  10.408   2.559 -0.5471  0.7104  1.1950
  918MOL0     H26632   6.403  10.450   2.645 -0.5706  1.1837  0.9120
  918MOL0     H26633   6.522  10.218   2.343  0.6662 -0.5057  0.6725
  918MOL0     H26634   6.276  10.021   2.223  3.2097  2.3409 -3.2349
  918MOL0     H26635   6.285   9.934   2.381 -0.1096 -1.5585 -1.7045
  918MOL0     H26636   6.451   9.868   2.186 -1.3304  1.5440 -0.8981
  918MOL0     H26637   6.513  10.028   2.194 -0.2480 -0.6960 -0.1958
  918MOL0     H26638   6.568   9.966   2.448 -1.4051 -1.8323  1.0678
  918MOL0     H26639   6.522   9.802   2.396 -2.0854  1.0929  0.4958
  918MOL0     H26640   6.774   9.818   2.354 -0.7192 -0.8832 -0.2488
  918MOL0     H26641   6.676   9.832   2.202  0.5520  1.0931 -0.9610
  918MOL0     H26642   6.936   9.799   2.222  2.0951 -1.0953  0.0649
  918MOL0     H26643   7.257   9.737   2.181  0.5837 -2.8512 -1.0236
  918MOL0     H26644   7.187   9.733   2.017  0.2822 -1.2842  0.0581
  918MOL0     H26645   7.106   9.675   2.160  2.0928 -1.8448 -1.3095
  918MOL0     H26646   7.416  10.383   2.021 -0.6849  0.0425 -0.0839
  918MOL0     H26647   7.647  10.460   1.966  3.0998  0.6026  1.4805
  918MOL0     H26648   8.012  10.198   2.033 -2.7944  1.6992  1.7418
  918MOL0     H26649   7.918  10.140   1.902 -0.9622  0.2096 -1.3355
  918MOL0     H26650   8.133  10.345   1.897 -1.1764  0.7224  0.3477
  918MOL0     H26651   8.131  10.186   1.813  1.0114  0.8521 -1.2653
  918MOL0     H26652   7.991  10.444   1.766  1.5496  0.6891  0.3866
  918MOL0     H26653   7.925  10.291   1.688 -1.2232 -0.2792  4.3331
  918MOL0     H26654   8.161  10.264   1.605 -3.9803 -1.8673 -1.0064
  918MOL0     H26655   8.198  10.436   1.649  1.1424  0.0023 -1.2789
  918MOL0     H26656   8.177  10.409   1.424  1.1636 -2.4135  0.8019
  918MOL0     H26657   8.028  10.326   1.437 -0.3782 -0.0427  0.4110
  918MOL0     H26658   7.903  10.512   1.526  1.5186 -0.3893  2.1313
  918MOL0     H26659   7.975  10.570   1.380 -6.3326 -0.6140  1.2466
  918MOL0     H26660   8.057  10.642   1.664  1.3943 -1.5823 -0.1605
  918MOL0     H26661   8.007  10.748   1.537 -3.1136 -2.0843 -2.2521
  918MOL0     H26662   8.230  10.710   1.412  2.4464  1.6794  0.7891
  918MOL0     H26663   8.285  10.615   1.553  0.5541 -1.1148 -0.4781
  918MOL0     H26664   7.800  10.088   2.080  2.0274  2.2816 -2.7556
  918MOL0     H26665   7.580  10.013   2.143 -2.7069 -0.0704 -2.4448
  918MOL0     H26666   7.130  10.239   2.150 -2.0103  0.8999  0.7655
  918MOL0     H26667   6.913  10.225   2.235  0.5756  0.6090  2.3340
  918MOL0     H26668   6.074  10.694   1.901  2.3412  0.1898  0.7789
  918MOL0     H26669   6.171  10.689   1.675 -1.3534 -1.3883  1.3010
  918MOL0     H26670   6.407  10.897   1.394 -1.6614  0.1924  0.9437
  918MOL0     H26671   6.534  10.933   1.195 -0.4662  2.0290 -1.2034
  918MOL0     H26672   6.451  10.719   0.806  2.0167  0.4952  1.1569
  918MOL0     H26673   6.328  10.849   0.802  0.4468  3.4630  1.9245
  918MOL0     H26674   6.617  10.874   0.708  0.6487  1.7676 -0.7842
  918MOL0     H26675   6.532  11.009   0.766  1.2311 -0.2128 -1.0437
  918MOL0     H26676   6.416  10.818   0.565 -0.8474  0.1987 -1.5611
  918MOL0     H26677   6.348  10.976   0.607  0.4806  0.2838  0.7500
  918MOL0     H26678   6.610  10.916   0.473  0.4096  1.1704 -0.2772
  918MOL0     H26679   6.561  11.083   0.506  0.4290  0.5641 -2.0575
  918MOL0     H26680   6.329  10.994   0.159  0.9254  1.5077 -0.8868
  918MOL0     H26681   6.238  10.743   0.956 -0.2793 -0.6335  0.2220
  918MOL0     H26682   6.009  10.722   1.022  0.8529 -3.7839 -1.4124
  918MOL0     H26683   6.050  10.591   1.123 -0.8258  0.2492 -0.9894
  918MOL0     H26684   5.961  10.733   1.191  1.6315  0.4456  2.3888
  919MOL0     O26685   4.730   7.528   4.691 -0.4878 -0.2134  0.3816
  919MOL0     C26686   4.783   7.645   4.676 -0.2449 -0.3833 -0.4844
  919MOL0     O26687   4.746   7.739   4.584 -0.1425 -0.4934 -0.0003
  919MOL0     C26688   4.652   7.705   4.490  0.3365 -0.8694  1.0169
  919MOL0     C26689   4.533   7.793   4.477 -0.9608 -0.4045 -1.0809
  919MOL0     C26690   4.446   7.761   4.373 -0.0665 -0.4184  0.0701
  919MOL0     C26691   4.481   7.653   4.284  1.2672 -0.2586  0.3256
  919MOL0     O26692   4.414   7.623   4.169 -0.4548 -0.3445  0.3337
  919MOL0     C26693   4.280   7.670   4.149  0.1343  0.1540  0.6656
  919MOL0     C26694   4.220   7.573   4.049 -0.1712 -0.2243 -0.6246
  919MOL0     C26695   4.068   7.603   4.006  0.7797  0.0346 -0.6674
  919MOL0     C26696   3.963   7.505   4.049  0.0153 -0.7121 -0.1606
  919MOL0     C26697   3.952   7.512   4.206  0.5159  0.2862  0.2919
  919MOL0     C26698   3.828   7.422   4.238 -0.5754 -0.1230  0.5296
  919MOL0     C26699   3.819   7.423   4.394  0.7101 -0.3598 -0.0739
  919MOL0     C26700   3.739   7.302   4.443  0.8871  1.1304 -0.8671
  919MOL0     N26701   3.721   7.313   4.588  0.0245  0.6900  0.2112
  919MOL0     C26702   3.796   7.257   4.684 -1.2090 -0.5556 -1.1274
  919MOL0     C26703   3.725   7.270   4.799  0.7538 -0.0071 -0.1749
  919MOL0     C26704   3.739   7.214   4.938 -0.0785  0.0832  0.7381
  919MOL0     C26705   3.888   7.221   4.976  0.8411 -0.3050 -0.5738
  919MOL0     C26706   3.961   7.093   4.948  0.1772 -0.0735 -0.2637
  919MOL0     C26707   4.092   7.094   5.027 -0.0635 -0.5480  0.7715
  919MOL0     O26708   4.170   7.215   5.006  0.1233 -0.8578 -0.1137
  919MOL0     C26709   4.286   7.237   5.072 -0.0453 -0.2651  0.3676
  919MOL0     C26710   4.351   7.143   5.149 -0.5289  0.4740 -0.0028
  919MOL0     C26711   4.476   7.168   5.206  0.1129  0.1883  0.4272
  919MOL0     C26712   4.539   7.054   5.281  1.1423 -1.3598  0.4724
  919MOL0     C26713   4.537   7.294   5.197  0.3339  0.3249  0.2572
  919MOL0     C26714   4.651   7.336   5.283 -1.0093 -0.1493 -0.2496
  919MOL0     O26715   4.661   7.287   5.413 -0.2062  0.1120  0.7059
  919MOL0     C26716   4.779   7.270   5.469  0.0547  0.4076 -0.1809
  919MOL0     C26717   4.889   7.227   5.395  0.1999  0.3929  0.4697
  919MOL0     C26718   5.012   7.197   5.456 -1.0116  0.5041  0.4287
  919MOL0     C26719   5.020   7.207   5.599 -0.4546 -0.0739 -0.0032
  919MOL0     O26720   5.131   7.187   5.677  0.7091 -0.1095 -0.8978
  919MOL0     C26721   5.260   7.158   5.618 -0.6066 -0.4637  0.2281
  919MOL0     C26722   5.367   7.155   5.731  0.9500 -1.5524 -0.5877
  919MOL0     C26723   5.367   7.297   5.801 -0.1374 -0.8613  0.7175
  919MOL0     C26724   5.425   7.301   5.940  0.1855  0.5613  0.6975
  919MOL0     C26725   5.431   7.431   6.011  1.1465  0.4504  0.1886
  919MOL0     C26726   5.447   7.412   6.160  0.1567 -0.4944 -1.2344
  919MOL0     C26727   5.481   7.548   6.239 -0.2730  0.4835 -0.1920
  919MOL0     C26728   5.483   7.515   6.390 -1.0038  0.2654  0.8149
  919MOL0    Cl26729   5.573   7.639   6.489  0.2601  0.4498  0.3142
  919MOL0     C26730   4.905   7.247   5.669 -0.1246  0.0902  0.0926
  919MOL0     C26731   4.788   7.279   5.609 -0.0190  0.9412 -0.0190
  919MOL0     O26732   4.723   7.421   5.226 -0.2358  0.2507  0.6586
  919MOL0     C26733   4.474   7.387   5.112 -0.1942 -0.5825  0.2904
  919MOL0     C26734   4.353   7.359   5.042 -0.3075  0.4126 -0.2846
  919MOL0     N26735   3.612   7.347   4.769 -0.1345  0.7847  0.2121
  919MOL0     N26736   3.615   7.372   4.642  0.8711 -0.5428 -0.0508
  919MOL0     C26737   4.589   7.571   4.301 -0.2044  0.1181  0.4628
  919MOL0     C26738   4.684   7.601   4.400 -0.3630  0.0758  0.1746
  919MOL0     C26739   4.908   7.666   4.741  0.4728 -0.1792 -1.6841
  919MOL0     C26740   4.998   7.763   4.684  0.2009 -0.6236 -0.4316
  919MOL0     C26741   5.123   7.784   4.741  0.4580 -0.5832 -0.5862
  919MOL0     C26742   5.155   7.730   4.861  0.7050 -0.2035 -1.4822
  919MOL0     O26743   5.282   7.751   4.916  0.1335  0.2519  0.0442
  919MOL0     C26744   5.356   7.640   4.966 -0.1258  0.0187 -0.0749
  919MOL0     C26745   5.512   7.655   4.986  0.9034  0.1048  0.5697
  919MOL0     C26746   5.590   7.660   4.856  0.1101 -0.4887 -0.0869
  919MOL0     C26747   5.592   7.532   4.775  0.8586  0.3177 -0.8217
  919MOL0     C26748   5.470   7.498   4.694  0.7328 -0.1161 -0.5416
  919MOL0     C26749   5.381   7.452   4.624  0.3004  0.1252  0.8011
  919MOL0     C26750   5.062   7.645   4.930  0.5611  0.5807 -0.7900
  919MOL0     C26751   4.936   7.620   4.878 -0.0719  0.3246 -0.4378
  919MOL0     C26752   4.847   7.537   4.960 -0.4918 -0.5245  0.1658
  919MOL0     H26753   4.516   7.872   4.549  0.0790 -0.7594 -0.4144
  919MOL0     H26754   4.365   7.831   4.354  1.7137  2.0834  1.1463
  919MOL0     H26755   4.274   7.772   4.109 -1.0014 -0.6474 -1.3726
  919MOL0     H26756   4.220   7.668   4.241 -1.8259 -2.9291 -0.5186
  919MOL0     H26757   4.278   7.572   3.957 -1.0466 -1.9332 -1.1970
  919MOL0     H26758   4.225   7.474   4.096  0.7375 -0.6656 -1.6236
  919MOL0     H26759   4.035   7.704   4.032  1.0016  0.9704 -3.6633
  919MOL0     H26760   4.064   7.607   3.897  2.1144  4.4922 -0.7644
  919MOL0     H26761   3.866   7.520   4.001 -1.0090  4.7603  2.8304
  919MOL0     H26762   4.012   7.412   4.021  1.9697  0.8667 -2.4709
  919MOL0     H26763   3.927   7.615   4.233 -0.7419  0.2510 -0.6220
  919MOL0     H26764   4.043   7.466   4.246 -0.5517 -3.1269 -0.8598
  919MOL0     H26765   3.731   7.465   4.209 -1.4308 -1.8860  0.6191
  919MOL0     H26766   3.833   7.324   4.190 -0.6974 -0.9526  2.1375
  919MOL0     H26767   3.769   7.512   4.433  0.7345 -1.4107  2.5815
  919MOL0     H26768   3.920   7.407   4.434 -0.3358 -4.2639  1.4892
  919MOL0     H26769   3.640   7.298   4.397  1.1599 -2.0237 -1.4237
  919MOL0     H26770   3.783   7.208   4.409 -1.2540  0.1505 -1.0923
  919MOL0     H26771   3.887   7.199   4.676 -2.0118 -1.9296 -0.6037
  919MOL0     H26772   3.687   7.119   4.946  0.8447 -0.6182 -1.0603
  919MOL0     H26773   3.679   7.281   5.001  0.0794  0.9750 -0.0365
  919MOL0     H26774   3.943   7.300   4.924  0.4291  1.6051  1.7526
  919MOL0     H26775   3.892   7.249   5.082 -1.6992 -0.8242 -0.2907
  919MOL0     H26776   3.914   7.003   4.990  1.0034  0.7332  2.6084
  919MOL0     H26777   3.969   7.071   4.841  0.2379 -1.1263 -0.0608
  919MOL0     H26778   4.056   7.085   5.130  0.0903  2.5973  1.1816
  919MOL0     H26779   4.143   7.002   4.998  0.0235 -0.9995  2.2480
  919MOL0     H26780   4.304   7.049   5.176 -1.9806  1.4666  1.1049
  919MOL0     H26781   4.507   6.954   5.250  1.3628 -0.7340 -1.9896
  919MOL0     H26782   4.534   7.070   5.390  1.2849  1.7214  0.1137
  919MOL0     H26783   4.643   7.054   5.249  0.0882 -2.5880 -3.5256
  919MOL0     H26784   4.893   7.202   5.290  1.5519 -0.7186  0.7629
  919MOL0     H26785   5.101   7.168   5.402 -0.4705  1.6316  0.6994
  919MOL0     H26786   5.247   7.061   5.570 -0.5631  0.0494 -0.8529
  919MOL0     H26787   5.299   7.238   5.554  2.7901 -1.3860  0.9525
  919MOL0     H26788   5.337   7.085   5.810 -0.9518  1.0437  1.1897
  919MOL0     H26789   5.462   7.132   5.683  1.0620 -1.5107 -0.3890
  919MOL0     H26790   5.268   7.344   5.809  0.7293  0.8876  1.8606
  919MOL0     H26791   5.432   7.354   5.735  0.0325 -3.2773 -1.3614
  919MOL0     H26792   5.530   7.270   5.939 -0.8906 -3.8329 -1.0245
  919MOL0     H26793   5.372   7.227   6.000 -0.2180  1.2813  1.2472
  919MOL0     H26794   5.515   7.485   5.967  1.5223 -0.7413 -0.6055
  919MOL0     H26795   5.337   7.483   5.989  1.5832  2.0609  1.9081
  919MOL0     H26796   5.532   7.345   6.177 -0.0127 -0.5681 -0.6441
  919MOL0     H26797   5.354   7.370   6.200  0.8918  0.0345  1.1919
  919MOL0     H26798   5.428   7.641   6.215 -2.0915 -0.1000  1.3028
  919MOL0     H26799   5.584   7.569   6.206  0.1674  0.3144  1.0416
  919MOL0     H26800   5.530   7.417   6.406 -0.6011  0.6548  2.2205
  919MOL0     H26801   5.377   7.502   6.413 -0.8762 -1.3767  0.6112
  919MOL0     H26802   4.915   7.260   5.776 -3.1889 -3.9041  1.1094
  919MOL0     H26803   4.697   7.309   5.660 -1.1733 -0.2190 -1.3072
  919MOL0     H26804   4.531   7.477   5.092  0.1055 -0.7709  0.2915
  919MOL0     H26805   4.315   7.448   4.994  0.3346  3.4022  4.1592
  919MOL0     H26806   4.594   7.489   4.230 -1.3561 -1.6180  2.2788
  919MOL0     H26807   4.778   7.546   4.406 -0.6723 -0.6050 -0.8974
  919MOL0     H26808   4.968   7.814   4.594  2.4818 -0.0371 -0.9160
  919MOL0     H26809   5.199   7.851   4.702  1.7213 -2.2642 -1.1189
  919MOL0     H26810   5.327   7.619   5.069  1.9255  2.1112  1.0274
  919MOL0     H26811   5.337   7.553   4.903 -2.8145  3.3049 -4.3710
  919MOL0     H26812   5.555   7.572   5.041 -1.8337 -1.4212  0.5761
  919MOL0     H26813   5.533   7.748   5.039 -0.0346  0.9387 -0.4443
  919MOL0     H26814   5.543   7.726   4.783 -4.8407 -4.2289 -0.8096
  919MOL0     H26815   5.692   7.689   4.881 -1.2572  3.0466  2.2039
  919MOL0     H26816   5.604   7.447   4.843 -2.3938  0.6725  0.3894
  919MOL0     H26817   5.664   7.533   4.693  0.3798  2.3127 -1.2756
  919MOL0     H26818   5.309   7.403   4.562  2.1830 -2.3023  0.3475
  919MOL0     H26819   5.080   7.599   5.026  1.1768  0.7188 -0.8379
  919MOL0     H26820   4.885   7.435   4.975 -1.2295 -0.4956  2.6221
  919MOL0     H26821   4.835   7.579   5.060 -2.7179 -2.8388  0.9795
  919MOL0     H26822   4.747   7.535   4.916 -0.6228  2.5739  0.1021
  920MOL0     O26823   5.587   5.145  10.790 -0.2182  0.0738  0.2825
  920MOL0     C26824   5.623   5.152  10.674  0.6272 -1.0806 -0.5817
  920MOL0     O26825   5.546   5.132  10.562 -0.2430 -0.3686  0.1467
  920MOL0     C26826   5.412   5.107  10.592  0.0691 -0.0991 -0.0359
  920MOL0     C26827   5.324   5.213  10.606 -0.2016  0.2331  0.3620
  920MOL0     C26828   5.188   5.195  10.631  0.5832  0.3961 -0.0613
  920MOL0     C26829   5.132   5.074  10.669 -0.3660 -0.1748  0.8572
  920MOL0     O26830   5.010   5.055  10.723 -0.3806  0.0130 -0.0339
  920MOL0     C26831   4.898   5.095  10.650  0.1950  0.1801 -0.0854
  920MOL0     C26832   4.773   5.057  10.738 -0.0645 -0.1628 -0.2063
  920MOL0     C26833   4.655   5.133  10.685 -0.0137 -0.0507 -0.1113
  920MOL0     C26834   4.524   5.084  10.756 -0.4232 -0.3028 -0.0695
  920MOL0     C26835   4.405   5.119  10.679  0.3592 -0.0473 -0.5756
  920MOL0     C26836   4.377   5.272  10.678  0.1924 -1.3350 -0.5786
  920MOL0     C26837   4.234   5.302  10.614 -1.1554  0.4260 -0.3380
  920MOL0     C26838   4.211   5.459  10.591  0.3092 -0.1887 -0.1751
  920MOL0     N26839   4.080   5.493  10.530 -0.1225  0.2618 -0.5618
  920MOL0     C26840   3.959   5.438  10.577  0.1448  0.4416  0.8963
  920MOL0     C26841   3.859   5.529  10.566  0.3122  1.1395  0.0172
  920MOL0     C26842   3.724   5.527  10.625  0.9662  0.5206  1.1466
  920MOL0     C26843   3.729   5.558  10.775 -0.4808  0.7160 -0.3811
  920MOL0     C26844   3.731   5.705  10.793 -0.5664 -0.5823  0.0645
  920MOL0     C26845   3.788   5.748  10.926  0.8591 -0.3264  0.0215
  920MOL0     O26846   3.920   5.695  10.952 -0.6524 -0.6600  0.3586
  920MOL0     C26847   4.035   5.763  10.926  0.6921 -0.9129  0.0716
  920MOL0     C26848   4.148   5.683  10.936 -0.0796  0.2212 -0.0004
  920MOL0     C26849   4.282   5.732  10.931  0.3702  0.5564  0.4537
  920MOL0     C26850   4.405   5.633  10.929  0.6356  0.1945 -0.4943
  920MOL0     C26851   4.307   5.875  10.929  0.2597  0.6500 -0.9806
  920MOL0     C26852   4.433   5.939  10.948  0.7657 -0.0024 -0.2432
  920MOL0     O26853   4.439   6.059  10.901 -0.4623 -0.0849 -0.4281
  920MOL0     C26854   4.555   6.130  10.905 -0.2553  0.5254  0.6509
  920MOL0     C26855   4.636   6.134  10.789 -0.0939  0.3510 -0.9956
  920MOL0     C26856   4.763   6.195  10.795  0.9035 -0.2300 -0.8589
  920MOL0     C26857   4.816   6.249  10.916 -0.0438 -0.4052  0.8736
  920MOL0     O26858   4.948   6.292  10.914  0.3808  0.7245 -0.4654
  920MOL0     C26859   4.962   6.434  10.925  0.0811  0.7017  0.9777
  920MOL0     C26860   5.115   6.456  10.889  0.8766  0.0743  0.3256
  920MOL0     C26861   5.158   6.608  10.918  0.0679 -0.2241 -0.2610
  920MOL0     C26862   5.067   6.708  10.844  0.2466 -0.7554 -0.0977
  920MOL0     C26863   5.106   6.854  10.858  0.4405  0.3872  0.6292
  920MOL0     C26864   5.002   6.928  10.777 -0.0973 -0.7661  0.3071
  920MOL0     C26865   5.031   7.084  10.783  0.1409  0.6928  0.4176
  920MOL0     C26866   4.910   7.164  10.747  0.2186  0.2480 -0.0970
  920MOL0    Cl26867   4.775   7.155  10.880 -0.5077  0.1912 -0.2800
  920MOL0     C26868   4.731   6.234  11.027 -1.2382 -0.3595 -0.3693
  920MOL0     C26869   4.608   6.176  11.028  0.4513 -0.3047 -0.1558
  920MOL0     O26870   4.524   5.878  11.002 -0.1532 -0.5355 -0.4115
  920MOL0     C26871   4.187   5.952  10.922  0.1507 -0.1623 -0.7150
  920MOL0     C26872   4.058   5.900  10.919 -0.6009  0.0478  0.2981
  920MOL0     N26873   3.913   5.627  10.487 -0.5613 -0.0145 -0.0656
  920MOL0     N26874   4.043   5.613  10.473 -0.2783  0.2257  0.0846
  920MOL0     C26875   5.223   4.964  10.667 -0.3799 -0.5099 -0.5776
  920MOL0     C26876   5.360   4.984  10.628 -0.1882  0.1235  0.4483
  920MOL0     C26877   5.762   5.185  10.651  0.2159 -0.0128 -0.5673
  920MOL0     C26878   5.824   5.277  10.743 -0.8748  0.7469  0.0933
  920MOL0     C26879   5.954   5.308  10.718  0.5316 -0.2565  0.1621
  920MOL0     C26880   6.025   5.255  10.611 -0.3178 -0.2540  0.5093
  920MOL0     O26881   6.158   5.292  10.596  0.0382  0.8614 -0.0782
  920MOL0     C26882   6.231   5.251  10.478  0.6984 -0.5048 -0.3404
  920MOL0     C26883   6.362   5.332  10.473  0.3378  0.6388  1.6366
  920MOL0     C26884   6.461   5.286  10.585 -0.3307  0.0033 -0.0665
  920MOL0     C26885   6.591   5.367  10.571 -0.1677  0.0527  0.1381
  920MOL0     C26886   6.569   5.511  10.598  0.4650  0.4621 -0.6563
  920MOL0     C26887   6.544   5.626  10.620  0.5785 -0.6695  0.0068
  920MOL0     C26888   5.959   5.170  10.521  0.6354 -0.1918 -0.0140
  920MOL0     C26889   5.832   5.136  10.545  0.0995  0.2164  0.3225
  920MOL0     C26890   5.781   5.027  10.463  0.0084 -0.0089  0.8572
  920MOL0     H26891   5.354   5.316  10.594 -1.1993  0.5454  0.5119
  920MOL0     H26892   5.123   5.282  10.635  1.1645  0.7992  1.1249
  920MOL0     H26893   4.891   5.049  10.551  2.4491 -1.6475  0.5288
  920MOL0     H26894   4.907   5.202  10.626 -0.4710 -0.0699 -1.5541
  920MOL0     H26895   4.765   4.948  10.735  2.0044 -0.5167  2.7392
  920MOL0     H26896   4.785   5.083  10.843  2.3500  0.1009 -0.4844
  920MOL0     H26897   4.672   5.240  10.705  2.2130 -0.7629  2.2663
  920MOL0     H26898   4.638   5.112  10.579 -0.2930  2.4761 -0.6471
  920MOL0     H26899   4.533   4.975  10.759 -0.2707 -0.4189 -2.7413
  920MOL0     H26900   4.522   5.130  10.856  0.9549  2.0923 -1.0532
  920MOL0     H26901   4.323   5.063  10.725  1.5922 -0.2011  1.6198
  920MOL0     H26902   4.406   5.083  10.576  3.9923  0.6792 -0.9299
  920MOL0     H26903   4.373   5.316  10.778 -0.2527  1.5254 -1.7301
  920MOL0     H26904   4.449   5.332  10.621  0.1613 -1.0885 -0.3597
  920MOL0     H26905   4.160   5.262  10.684 -0.7275 -0.9418 -0.6185
  920MOL0     H26906   4.215   5.247  10.521 -1.7692 -2.4002  1.3407
  920MOL0     H26907   4.223   5.516  10.684  0.2501 -2.1783  1.1102
  920MOL0     H26908   4.289   5.496  10.524 -1.1304  3.3129 -0.1471
  920MOL0     H26909   3.955   5.353  10.644 -2.5002 -0.1198  0.1288
  920MOL0     H26910   3.669   5.436  10.601 -0.8247  1.9957 -0.7005
  920MOL0     H26911   3.658   5.595  10.570  2.5186  0.0535 -1.4832
  920MOL0     H26912   3.648   5.517  10.836  0.4604 -1.9970 -0.8521
  920MOL0     H26913   3.819   5.511  10.814 -1.5188 -1.0466 -0.0159
  920MOL0     H26914   3.806   5.747  10.725  0.7857 -1.0348  1.2089
  920MOL0     H26915   3.638   5.759  10.775  0.8572  2.0596  0.0703
  920MOL0     H26916   3.788   5.856  10.915  0.5843 -0.4713 -1.6363
  920MOL0     H26917   3.718   5.721  11.005  3.2143 -1.3084  1.9206
  920MOL0     H26918   4.129   5.577  10.946 -1.8734  0.4967 -0.2101
  920MOL0     H26919   4.483   5.669  10.861  1.5724 -1.2078 -0.2043
  920MOL0     H26920   4.370   5.534  10.898  2.0552 -0.2664 -0.7043
  920MOL0     H26921   4.447   5.625  11.029  2.9947  0.1774 -1.4059
  920MOL0     H26922   4.620   6.084  10.694  2.0517  0.2135 -1.3486
  920MOL0     H26923   4.821   6.206  10.704 -0.8310  0.0992 -1.9664
  920MOL0     H26924   4.901   6.493  10.856  1.4052  1.7731  0.6532
  920MOL0     H26925   4.931   6.472  11.022 -2.1391  1.1552  0.1513
  920MOL0     H26926   5.183   6.398  10.952  0.1132 -0.1075  0.9960
  920MOL0     H26927   5.125   6.442  10.781  3.1229 -0.6944  0.5768
  920MOL0     H26928   5.265   6.609  10.892 -0.1433 -0.0950 -1.1666
  920MOL0     H26929   5.147   6.625  11.025 -1.0386  0.3848 -0.4598
  920MOL0     H26930   4.968   6.696  10.888 -0.2374  1.1690 -0.5843
  920MOL0     H26931   5.059   6.673  10.741 -0.8240 -0.9625  0.0459
  920MOL0     H26932   5.108   6.884  10.963  0.0211 -1.6395  1.2682
  920MOL0     H26933   5.206   6.865  10.814  0.7967  1.7740  1.7287
  920MOL0     H26934   4.906   6.913  10.826  0.0028 -2.1165  0.1097
  920MOL0     H26935   5.007   6.896  10.673  2.6442 -0.0082  0.1088
  920MOL0     H26936   5.116   7.109  10.719  0.3207 -3.6154 -1.3685
  920MOL0     H26937   5.052   7.106  10.888 -0.5722  3.5428  0.0368
  920MOL0     H26938   4.878   7.130  10.648  1.7605  0.9113 -0.8628
  920MOL0     H26939   4.933   7.271  10.748 -0.3984  0.4342 -1.9183
  920MOL0     H26940   4.769   6.275  11.120  1.2588 -1.9922 -0.5910
  920MOL0     H26941   4.553   6.166  11.121  0.6282 -0.4200 -0.0631
  920MOL0     H26942   4.194   6.060  10.917  1.8395 -0.0863  1.3954
  920MOL0     H26943   3.976   5.970  10.923 -0.2575  0.3929  2.3568
  920MOL0     H26944   5.189   4.874  10.716 -0.5119  0.9790  2.2508
  920MOL0     H26945   5.430   4.901  10.632 -0.9901 -0.7693 -1.9048
  920MOL0     H26946   5.774   5.308  10.835  0.7498 -0.5525  1.4764
  920MOL0     H26947   6.019   5.370  10.779  1.7046  1.0214 -2.2258
  920MOL0     H26948   6.258   5.146  10.489  0.9960 -0.4535 -0.5607
  920MOL0     H26949   6.167   5.276  10.392  0.0077  0.2371  0.3706
  920MOL0     H26950   6.348   5.440  10.487  4.0753  1.8889 -2.1782
  920MOL0     H26951   6.412   5.325  10.376  2.4828  4.1079  2.3255
  920MOL0     H26952   6.419   5.293  10.686  0.3478 -1.4594  0.3470
  920MOL0     H26953   6.485   5.179  10.584  1.7258  0.4212 -1.8824
  920MOL0     H26954   6.644   5.365  10.476 -1.8790 -0.9292 -0.8563
  920MOL0     H26955   6.665   5.324  10.638  2.0875  0.0576 -2.2112
  920MOL0     H26956   6.515   5.729  10.634 -2.3294 -1.3792 -0.0186
  920MOL0     H26957   6.017   5.141  10.434  2.0004 -2.1270  1.4334
  920MOL0     H26958   5.708   4.959  10.507 -2.5850  3.3733  2.2077
  920MOL0     H26959   5.743   5.073  10.371  2.6787 -1.8621 -1.3557
  920MOL0     H26960   5.861   4.959  10.432 -0.1318  0.5838 -0.9602
  921MOL0     O26961   3.948   8.775  10.032 -0.9738 -0.3936  0.0557
  921MOL0     C26962   3.954   8.719   9.918  0.8738 -0.6308  0.4895
  921MOL0     O26963   4.054   8.744   9.833  0.4419 -0.4146 -0.0682
  921MOL0     C26964   4.121   8.861   9.857 -0.6542  0.5512  0.8304
  921MOL0     C26965   4.057   8.977   9.812  0.7126  0.2287 -1.1049
  921MOL0     C26966   4.122   9.097   9.833  0.2601  0.6065  0.2384
  921MOL0     C26967   4.252   9.101   9.875 -0.2150 -0.0168  0.7481
  921MOL0     O26968   4.328   9.214   9.887 -0.2226  0.6510  0.4471
  921MOL0     C26969   4.337   9.297   9.772 -0.2876  0.2163  0.4699
  921MOL0     C26970   4.473   9.360   9.784 -0.5542  0.3182 -0.4290
  921MOL0     C26971   4.511   9.442   9.914 -0.2680  0.2379 -0.0677
  921MOL0     C26972   4.417   9.565   9.921 -0.0814 -0.6310 -0.1018
  921MOL0     C26973   4.445   9.638  10.047  0.8770  0.7546 -0.8606
  921MOL0     C26974   4.598   9.671  10.066  0.2325 -0.0113 -0.0891
  921MOL0     C26975   4.623   9.756  10.192  0.1902 -0.8152  0.4666
  921MOL0     C26976   4.770   9.796  10.200  0.1247  0.3313  0.0697
  921MOL0     N26977   4.790   9.878  10.325 -0.0594 -0.4018 -0.1884
  921MOL0     C26978   4.914   9.928  10.357  0.5828 -0.1406  1.3691
  921MOL0     C26979   4.892   9.979  10.483 -0.0767 -0.8598  0.6837
  921MOL0     C26980   4.994  10.031  10.581  0.5361 -0.6141  0.1279
  921MOL0     C26981   5.043  10.167  10.533 -0.9130  0.3038 -0.2517
  921MOL0     C26982   5.116  10.241  10.651  0.2871 -0.3523  0.3071
  921MOL0     C26983   5.265  10.199  10.673  0.5644 -0.4707 -0.4684
  921MOL0     O26984   5.329  10.184  10.551  0.6932 -0.5127  0.7306
  921MOL0     C26985   5.463  10.154  10.559  0.1462  0.9781  0.8280
  921MOL0     C26986   5.549  10.162  10.449 -0.5569 -0.7485  0.5199
  921MOL0     C26987   5.683  10.119  10.454 -0.0844 -0.4078 -0.0862
  921MOL0     C26988   5.751  10.101  10.318  0.3637  0.6249 -0.3539
  921MOL0     C26989   5.737  10.081  10.569 -0.2701 -0.1083  0.3274
  921MOL0     C26990   5.877  10.060  10.591  0.2451 -0.4192  0.3226
  921MOL0     O26991   5.919  10.027  10.716  0.3197  0.2716  0.0474
  921MOL0     C26992   6.033  10.080  10.761 -0.1632 -0.3324  0.2344
  921MOL0     C26993   6.161  10.031  10.725  0.3953 -0.7230  0.3837
  921MOL0     C26994   6.281  10.086  10.772 -0.1194  0.2840 -0.1696
  921MOL0     C26995   6.275  10.191  10.862  0.0739  0.8429  1.1394
  921MOL0     O26996   6.390  10.249  10.900  0.0347 -0.0353 -0.0636
  921MOL0     C26997   6.385  10.356  10.995 -0.1212 -0.9161 -0.5606
  921MOL0     C26998   6.515  10.417  11.037  0.4314  0.5683  0.6747
  921MOL0     C26999   6.564  10.513  10.929  0.4627  0.1677 -0.4410
  921MOL0     C27000   6.686  10.588  10.973  0.5093  0.0771  0.8391
  921MOL0     C27001   6.811  10.497  10.972 -0.2164 -0.0656  0.0627
  921MOL0     C27002   6.928  10.546  10.883 -0.6118  0.7289 -0.0702
  921MOL0     C27003   7.011  10.655  10.959 -0.0133 -0.7571 -0.6028
  921MOL0     C27004   7.155  10.623  11.004  0.5188  0.0746 -1.0119
  921MOL0    Cl27005   7.142  10.499  11.140 -0.0590  0.2855  0.4140
  921MOL0     C27006   6.143  10.242  10.903 -0.6186  0.7356  0.3174
  921MOL0     C27007   6.032  10.185  10.852  0.3811  0.4352  0.7234
  921MOL0     O27008   5.958  10.096  10.504  0.2126  0.1895  0.6807
  921MOL0     C27009   5.657  10.087  10.690 -0.7470 -0.0997  0.9184
  921MOL0     C27010   5.524  10.117  10.686 -0.1376  1.1509 -0.2585
  921MOL0     N27011   4.760   9.964  10.523 -0.2452  0.2923  0.2763
  921MOL0     N27012   4.703   9.911  10.419  0.5028 -0.3864  0.5550
  921MOL0     C27013   4.304   8.977   9.923 -0.4376  0.7178 -0.4906
  921MOL0     C27014   4.252   8.858   9.911  0.7208 -0.6229 -0.0676
  921MOL0     C27015   3.847   8.620   9.893  0.6065  0.4015  0.3223
  921MOL0     C27016   3.849   8.575   9.756  0.8674  0.7540 -0.3286
  921MOL0     C27017   3.754   8.484   9.707 -0.5762 -0.8028  0.4917
  921MOL0     C27018   3.654   8.427   9.793 -0.4971  0.5674  0.3887
  921MOL0     O27019   3.559   8.334   9.752 -0.8196  0.2777 -0.2429
  921MOL0     C27020   3.539   8.312   9.617  0.3344  0.2800 -0.6593
  921MOL0     C27021   3.451   8.190   9.618  0.1893 -0.5113  0.1693
  921MOL0     C27022   3.510   8.073   9.688  0.0121  0.6685  0.4267
  921MOL0     C27023   3.410   7.953   9.718  0.3878 -0.4170  0.2752
  921MOL0     C27024   3.389   7.879   9.596  0.4869 -0.7125  0.1616
  921MOL0     C27025   3.357   7.822   9.495 -0.2195 -0.1719  0.2520
  921MOL0     C27026   3.656   8.476   9.921 -0.6185 -0.5920 -0.5171
  921MOL0     C27027   3.745   8.569   9.982  0.1365  0.2341  0.2328
  921MOL0     C27028   3.719   8.621  10.117  0.1728  0.6842  0.8850
  921MOL0     H27029   3.957   8.960   9.771  0.4937  1.8883 -1.3061
  921MOL0     H27030   4.077   9.195   9.818 -0.5821 -0.0808 -2.1054
  921MOL0     H27031   4.259   9.373   9.786 -1.2858 -0.5635 -0.5768
  921MOL0     H27032   4.316   9.247   9.677  0.2999  0.7594  0.0467
  921MOL0     H27033   4.545   9.279   9.771 -2.2446 -1.1942 -0.6821
  921MOL0     H27034   4.478   9.437   9.706  2.8160  1.8976  1.1296
  921MOL0     H27035   4.506   9.377  10.002  1.7170  0.6845  0.4136
  921MOL0     H27036   4.616   9.472   9.903  0.6483 -2.3914  0.6852
  921MOL0     H27037   4.447   9.632   9.840 -1.7181 -0.3510 -0.5192
  921MOL0     H27038   4.313   9.530   9.919 -0.0761 -1.2780  3.4572
  921MOL0     H27039   4.426   9.566  10.128 -0.3301  1.8484 -0.1134
  921MOL0     H27040   4.390   9.731  10.061  1.9672  1.2603  0.2731
  921MOL0     H27041   4.640   9.574  10.094 -1.6875 -0.7651  0.3688
  921MOL0     H27042   4.639   9.702   9.970  0.0973 -0.2024 -0.2097
  921MOL0     H27043   4.596   9.700  10.282  1.7239  1.1673  2.2454
  921MOL0     H27044   4.562   9.844  10.171  1.9118 -0.0665 -1.8114
  921MOL0     H27045   4.836   9.709  10.205  0.6140  0.7435  1.3439
  921MOL0     H27046   4.802   9.850  10.110  3.7419  1.7164  1.9560
  921MOL0     H27047   5.010   9.929  10.306 -0.4685  0.9533 -0.6875
  921MOL0     H27048   5.078   9.962  10.595  0.7825 -0.6236 -1.2386
  921MOL0     H27049   4.942  10.034  10.677 -4.1149 -0.6719 -2.1086
  921MOL0     H27050   5.117  10.157  10.453 -1.0357  2.2557 -0.6642
  921MOL0     H27051   4.963  10.227  10.489  0.4117  0.0041 -3.3308
  921MOL0     H27052   5.101  10.345  10.620 -1.2690 -0.3889  0.8210
  921MOL0     H27053   5.064  10.237  10.747  1.8714  0.7869  1.2489
  921MOL0     H27054   5.298  10.291  10.721 -4.5200  2.4706 -1.8508
  921MOL0     H27055   5.277  10.119  10.746 -1.1295 -0.6362 -0.3165
  921MOL0     H27056   5.505  10.188  10.354 -2.0127 -0.2718  1.2903
  921MOL0     H27057   5.813  10.187  10.291  1.5067 -0.8384 -2.7831
  921MOL0     H27058   5.684  10.086  10.233 -1.6450  0.9442  1.1123
  921MOL0     H27059   5.818  10.014  10.323 -1.3367 -0.6748  1.8906
  921MOL0     H27060   6.169   9.948  10.656  1.1164 -0.0935 -0.3196
  921MOL0     H27061   6.379  10.049  10.743  1.3667  3.1842  0.7328
  921MOL0     H27062   6.323  10.438  10.959 -1.0378 -0.1349  2.4534
  921MOL0     H27063   6.343  10.310  11.085  1.6596  0.2372  0.9148
  921MOL0     H27064   6.487  10.470  11.128  0.8778  1.4236  0.3230
  921MOL0     H27065   6.585  10.336  11.061 -1.4820 -1.9095 -1.5338
  921MOL0     H27066   6.489  10.591  10.911 -1.8952 -1.1336  2.7367
  921MOL0     H27067   6.594  10.469  10.833  0.9429 -0.6884  0.0923
  921MOL0     H27068   6.672  10.621  11.076  0.8911  0.7284  0.6881
  921MOL0     H27069   6.707  10.681  10.919  0.7773  0.8232  2.1943
  921MOL0     H27070   6.844  10.482  11.075  0.3501 -2.4296 -0.3812
  921MOL0     H27071   6.776  10.397  10.943 -2.3972  0.6129  0.1432
  921MOL0     H27072   6.913  10.587  10.783  2.5100  0.2144 -0.8444
  921MOL0     H27073   6.994  10.463  10.858 -2.7452 -1.6051  1.5183
  921MOL0     H27074   6.954  10.691  11.045 -0.9937 -4.1587  0.3342
  921MOL0     H27075   7.021  10.740  10.891 -0.6003  0.1816  0.4531
  921MOL0     H27076   7.208  10.715  11.028 -2.4559  2.3008 -2.2405
  921MOL0     H27077   7.205  10.579  10.917 -5.6192  0.3923 -5.3587
  921MOL0     H27078   6.138  10.331  10.965  2.7728  1.2243  0.0891
  921MOL0     H27079   5.936  10.233  10.873  0.4862  1.0602 -0.1564
  921MOL0     H27080   5.697  10.064  10.788  0.1827 -0.0710  0.5495
  921MOL0     H27081   5.478  10.095  10.782  0.1360 -0.1574 -0.4054
  921MOL0     H27082   4.403   8.997   9.961 -0.5597  0.1165  0.1547
  921MOL0     H27083   4.303   8.768   9.945  1.5255  0.1572  0.8557
  921MOL0     H27084   3.923   8.611   9.687  1.0086  0.9537 -0.0739
  921MOL0     H27085   3.756   8.443   9.606  0.7146  1.7024 -0.5886
  921MOL0     H27086   3.494   8.401   9.571 -0.8039  1.0033  1.6854
  921MOL0     H27087   3.625   8.286   9.555  0.4641  1.1323 -0.8453
  921MOL0     H27088   3.435   8.168   9.512  4.1468  1.1902 -0.9725
  921MOL0     H27089   3.357   8.219   9.664 -0.2823  1.3224 -1.7814
  921MOL0     H27090   3.593   8.036   9.627  0.1894  1.9054 -0.1258
  921MOL0     H27091   3.544   8.107   9.787  1.8197 -0.5955  0.2940
  921MOL0     H27092   3.322   7.997   9.766  1.1067 -0.0771  1.3149
  921MOL0     H27093   3.452   7.888   9.795 -0.1664 -0.8282  0.2370
  921MOL0     H27094   3.356   7.770   9.401 -1.4233  1.1211 -0.4772
  921MOL0     H27095   3.587   8.416   9.979 -0.3586 -2.6514 -2.2527
  921MOL0     H27096   3.613   8.609  10.141 -0.5921  1.5585 -1.6720
  921MOL0     H27097   3.776   8.576  10.199  0.1645 -0.6730  0.1790
  921MOL0     H27098   3.734   8.730  10.113  0.8767  0.6132  1.4722
  922MOL0     O27099   7.286   2.509   0.009  0.2523 -0.2985  0.3906
  922MOL0     C27100   7.228   2.501  -0.098 -0.5927  0.2747 -0.3876
  922MOL0     O27101   7.287   2.526  -0.226 -0.1148  0.4374  0.5414
  922MOL0     C27102   7.422   2.546  -0.229 -1.0129 -0.4200  0.1909
  922MOL0     C27103   7.476   2.652  -0.161  0.1060 -0.0854 -0.1377
  922MOL0     C27104   7.612   2.690  -0.177 -0.0576  0.1134 -0.4977
  922MOL0     C27105   7.696   2.628  -0.269 -0.0203 -0.4242 -0.5697
  922MOL0     O27106   7.834   2.657  -0.280 -0.3124  0.0505  0.2349
  922MOL0     C27107   7.881   2.681  -0.407  0.0429  0.4513 -0.7849
  922MOL0     C27108   7.961   2.813  -0.409  0.5556  0.0359 -0.0299
  922MOL0     C27109   8.047   2.814  -0.541  0.7215 -1.1056 -1.3228
  922MOL0     C27110   8.179   2.743  -0.533  0.2011 -0.1050  0.4830
  922MOL0     C27111   8.288   2.841  -0.476  0.6976  0.3632  1.0235
  922MOL0     C27112   8.421   2.765  -0.465  0.2192  0.2248 -0.8451
  922MOL0     C27113   8.521   2.836  -0.366 -0.2390 -0.1968  0.0788
  922MOL0     C27114   8.565   2.978  -0.421 -0.5221  1.0507 -0.1950
  922MOL0     N27115   8.685   3.019  -0.342  0.3247  0.3271  0.3112
  922MOL0     C27116   8.711   3.015  -0.207  0.6022 -0.0941 -0.1375
  922MOL0     C27117   8.839   3.055  -0.193  0.0795  0.6907 -0.5288
  922MOL0     C27118   8.922   3.045  -0.064 -0.3390 -0.0463 -0.6958
  922MOL0     C27119   8.931   2.905   0.003  1.0119  0.2070 -0.0323
  922MOL0     C27120   8.997   2.799  -0.091  0.6807  0.1918 -1.0609
  922MOL0     C27121   9.049   2.677  -0.007  0.2821 -0.0131  1.1484
  922MOL0     O27122   9.182   2.705   0.022  0.3274 -0.3457 -0.0280
  922MOL0     C27123   9.259   2.616   0.098  0.2937 -0.0201  0.6582
  922MOL0     C27124   9.392   2.634   0.092  0.0962  0.0835 -0.3782
  922MOL0     C27125   9.477   2.548   0.160 -0.3940  0.1596 -0.2721
  922MOL0     C27126   9.622   2.575   0.141 -0.0448  0.0855 -0.0837
  922MOL0     C27127   9.433   2.451   0.245 -0.3617 -0.8165  0.6772
  922MOL0     C27128   9.508   2.339   0.294 -0.0051  1.2263 -0.1100
  922MOL0     O27129   9.576   2.268   0.209 -0.1898 -0.2772  0.3962
  922MOL0     C27130   9.651   2.164   0.260  0.1985  0.2486  0.4859
  922MOL0     C27131   9.765   2.199   0.331  0.7196  0.2856  0.2895
  922MOL0     C27132   9.848   2.095   0.383 -0.0390 -0.5872 -0.0717
  922MOL0     C27133   9.809   1.961   0.378  0.9405  0.6203  0.0352
  922MOL0     O27134   9.876   1.869   0.457 -0.0140 -1.1923 -0.4208
  922MOL0     C27135   9.849   1.730   0.446  0.4049 -0.0264  0.2593
  922MOL0     C27136   9.940   1.641   0.545 -0.0192 -0.1220 -0.4226
  922MOL0     C27137  10.074   1.699   0.572 -2.0176  0.6296 -0.0373
  922MOL0     C27138  10.159   1.581   0.640  0.0313 -0.3882 -0.0010
  922MOL0     C27139  10.308   1.604   0.650  0.0690  1.0034  0.1079
  922MOL0     C27140  10.379   1.497   0.728  0.7939  0.5255 -0.0265
  922MOL0     C27141  10.520   1.545   0.755  0.1192  0.0404 -0.0499
  922MOL0     C27142  10.598   1.440   0.834  0.5159  0.3403 -0.3163
  922MOL0    Cl27143  10.532   1.424   0.998 -0.2344 -0.0029  0.2199
  922MOL0     C27144   9.695   1.933   0.305 -0.9366  0.4902  0.2631
  922MOL0     C27145   9.624   2.034   0.236 -0.3453  1.0014 -0.0373
  922MOL0     O27146   9.501   2.305   0.415  0.3614  0.4101 -0.5770
  922MOL0     C27147   9.292   2.437   0.259  0.7838 -0.6398  0.2710
  922MOL0     C27148   9.202   2.528   0.186  0.3453 -0.3459  0.2324
  922MOL0     N27149   8.888   3.095  -0.314  0.8084  0.1238  0.3510
  922MOL0     N27150   8.796   3.073  -0.400  0.7856  0.4524  0.1910
  922MOL0     C27151   7.638   2.521  -0.339  0.2376  0.1010 -0.1477
  922MOL0     C27152   7.505   2.485  -0.327  0.2625 -0.8007  1.0454
  922MOL0     C27153   7.085   2.449  -0.102 -0.4723 -0.3657 -0.4985
  922MOL0     C27154   7.029   2.395  -0.226 -0.5823 -0.0894 -0.3467
  922MOL0     C27155   6.900   2.356  -0.248 -0.5732 -0.3767 -0.1994
  922MOL0     C27156   6.807   2.378  -0.144 -0.7648  0.2376  0.1912
  922MOL0     O27157   6.675   2.350  -0.147 -0.4668 -0.6168 -0.1663
  922MOL0     C27158   6.617   2.306  -0.275  0.3588  0.5291 -0.1792
  922MOL0     C27159   6.464   2.317  -0.269  0.0966 -0.1593  0.2212
  922MOL0     C27160   6.406   2.180  -0.241 -0.0788 -0.0144 -1.0505
  922MOL0     C27161   6.256   2.180  -0.224  0.6787 -0.0711  0.0769
  922MOL0     C27162   6.215   2.227  -0.080 -0.5558  0.4540  0.0660
  922MOL0     C27163   6.181   2.261   0.037 -0.4281 -0.2039  0.5433
  922MOL0     C27164   6.854   2.422  -0.020  0.8886  0.6763  1.3449
  922MOL0     C27165   6.988   2.459   0.006  0.5574 -0.5903  0.2481
  922MOL0     C27166   7.035   2.501   0.148  0.3681 -0.0656 -0.0817
  922MOL0     H27167   7.410   2.706  -0.093  1.5922 -0.9496  2.1139
  922MOL0     H27168   7.650   2.778  -0.125 -1.3137 -1.2977  3.1380
  922MOL0     H27169   7.803   2.687  -0.483 -1.8217 -0.3051  0.9579
  922MOL0     H27170   7.956   2.605  -0.430 -0.9126 -1.5865  2.2004
  922MOL0     H27171   7.898   2.903  -0.407  0.2110 -0.1423 -1.4585
  922MOL0     H27172   8.028   2.822  -0.324  2.1047  0.2831 -1.2378
  922MOL0     H27173   7.988   2.789  -0.629 -1.5068 -0.6941 -0.0243
  922MOL0     H27174   8.070   2.921  -0.540  0.3766 -0.9852  1.3448
  922MOL0     H27175   8.160   2.654  -0.473  1.4963  0.1560  1.3379
  922MOL0     H27176   8.217   2.713  -0.631  0.6467  3.4726 -0.5966
  922MOL0     H27177   8.263   2.890  -0.381  2.5101  2.3944  0.5208
  922MOL0     H27178   8.298   2.919  -0.552  1.3219 -0.0110  0.7176
  922MOL0     H27179   8.409   2.665  -0.423 -2.0164  1.8512  2.9523
  922MOL0     H27180   8.475   2.754  -0.559  1.4438 -0.7512 -0.0567
  922MOL0     H27181   8.607   2.770  -0.350 -1.3749 -1.3012  2.0247
  922MOL0     H27182   8.470   2.842  -0.269 -0.9932 -0.0768 -0.3158
  922MOL0     H27183   8.588   2.975  -0.528 -2.5018  5.1642 -0.9135
  922MOL0     H27184   8.489   3.055  -0.410 -0.1198  1.1314  2.7430
  922MOL0     H27185   8.652   2.980  -0.122  2.8378 -2.1833  0.7048
  922MOL0     H27186   8.872   3.106   0.012 -2.1391  1.1916 -2.7171
  922MOL0     H27187   9.022   3.078  -0.092 -0.9585  2.0526 -0.6126
  922MOL0     H27188   8.982   2.899   0.099  0.2596  0.3110  0.3777
  922MOL0     H27189   8.830   2.872   0.029 -0.1265  2.4830 -1.2725
  922MOL0     H27190   8.918   2.750  -0.149  1.0956 -0.0624 -1.4124
  922MOL0     H27191   9.077   2.832  -0.158  2.5681  2.6587  2.1165
  922MOL0     H27192   8.999   2.680   0.090  0.2811 -0.8689  1.1831
  922MOL0     H27193   9.026   2.580  -0.053  1.5851  0.1362  0.1136
  922MOL0     H27194   9.437   2.705   0.023 -0.1207 -2.2166 -3.0691
  922MOL0     H27195   9.633   2.684   0.131  0.5794 -0.0274 -0.6900
  922MOL0     H27196   9.666   2.518   0.059 -0.1427 -0.8102  0.4738
  922MOL0     H27197   9.681   2.535   0.224 -1.3002 -0.7852  0.4257
  922MOL0     H27198   9.809   2.298   0.338  1.9687 -0.0877 -1.4281
  922MOL0     H27199   9.943   2.111   0.434  1.1927  0.8925 -2.6241
  922MOL0     H27200   9.746   1.702   0.468  0.3707 -0.7691 -0.7955
  922MOL0     H27201   9.880   1.714   0.342  0.6435  1.7263  0.0331
  922MOL0     H27202   9.901   1.639   0.647  3.5845  3.1461  1.2665
  922MOL0     H27203   9.947   1.539   0.505  0.0070  0.6839 -2.6464
  922MOL0     H27204  10.071   1.787   0.636  1.6086  0.2286  0.8925
  922MOL0     H27205  10.127   1.727   0.481  0.4649  1.4846  1.5913
  922MOL0     H27206  10.141   1.490   0.583 -2.9490 -1.1044  1.8539
  922MOL0     H27207  10.133   1.562   0.744 -0.7696  1.6249  0.2130
  922MOL0     H27208  10.360   1.611   0.554 -0.4410  0.2333 -0.2404
  922MOL0     H27209  10.328   1.704   0.689  0.5249  1.0504 -0.2472
  922MOL0     H27210  10.378   1.413   0.658  1.7653  1.7567 -1.6139
  922MOL0     H27211  10.328   1.466   0.819  0.6075  2.1295  0.4414
  922MOL0     H27212  10.519   1.641   0.807 -1.9078 -0.8281  1.6454
  922MOL0     H27213  10.577   1.569   0.664  0.2939  1.0280  0.3025
  922MOL0     H27214  10.704   1.466   0.830  1.0160 -1.6698 -1.5753
  922MOL0     H27215  10.591   1.340   0.789 -0.3579 -0.5580  1.6772
  922MOL0     H27216   9.676   1.827   0.289  0.2704  0.0974  1.2661
  922MOL0     H27217   9.541   2.008   0.172  1.0953 -0.0567 -1.5503
  922MOL0     H27218   9.241   2.363   0.320 -1.8159  0.1302 -0.8428
  922MOL0     H27219   9.095   2.509   0.193 -0.0259  1.2612 -0.6182
  922MOL0     H27220   7.704   2.469  -0.408  1.8131 -0.6316  1.8181
  922MOL0     H27221   7.459   2.409  -0.389  0.2537 -2.3428  2.8360
  922MOL0     H27222   7.103   2.372  -0.302 -0.4817 -2.3781  0.3893
  922MOL0     H27223   6.869   2.313  -0.343 -0.3312  1.9620 -1.4167
  922MOL0     H27224   6.650   2.373  -0.356 -1.8644  1.0599 -0.7229
  922MOL0     H27225   6.639   2.205  -0.310 -3.7513 -0.4027 -0.6533
  922MOL0     H27226   6.428   2.356  -0.364  1.1045  1.4043  0.4472
  922MOL0     H27227   6.437   2.398  -0.201  0.5196 -1.0030  1.4460
  922MOL0     H27228   6.428   2.108  -0.321  1.8264  0.4557 -1.0124
  922MOL0     H27229   6.456   2.147  -0.149 -0.9789  0.8012 -0.2523
  922MOL0     H27230   6.215   2.081  -0.246  1.9507 -1.0242  1.7515
  922MOL0     H27231   6.209   2.260  -0.282 -0.1094  0.7588  1.7719
  922MOL0     H27232   6.145   2.305   0.128  0.2072 -0.1269  0.7642
  922MOL0     H27233   6.782   2.420   0.061 -2.8975 -1.8345 -1.7174
  922MOL0     H27234   7.070   2.605   0.151  1.2335 -0.3782  1.3847
  922MOL0     H27235   6.951   2.493   0.217  0.5213 -0.4414  0.0650
  922MOL0     H27236   7.118   2.443   0.188  3.4523  3.5808 -0.5321
  923MOL0     O27237   2.397  10.854   1.254 -0.5690 -0.2734  0.5605
  923MOL0     C27238   2.315  10.934   1.210  0.3634  0.1946 -0.0397
  923MOL0     O27239   2.344  11.056   1.149  0.1190  0.8948  0.7515
  923MOL0     C27240   2.480  11.093   1.132  0.3448  0.3798 -0.9229
  923MOL0     C27241   2.507  11.232   1.113 -0.2018  0.2141  0.2791
  923MOL0     C27242   2.634  11.272   1.083 -0.1291 -0.1376  1.1559
  923MOL0     C27243   2.743  11.190   1.071 -0.8946 -0.0390  0.4944
  923MOL0     O27244   2.870  11.235   1.054 -0.3323 -0.2985 -0.9394
  923MOL0     C27245   2.969  11.138   1.038 -0.2472  0.0924  0.6679
  923MOL0     C27246   3.095  11.212   0.998  1.1402  0.4967 -1.0613
  923MOL0     C27247   3.144  11.283   1.128 -0.7892  0.0078  0.4331
  923MOL0     C27248   3.263  11.368   1.111 -0.4327 -0.2822  0.0969
  923MOL0     C27249   3.242  11.501   1.190 -0.1726  0.0246 -0.1434
  923MOL0     C27250   3.342  11.611   1.156 -0.6199 -0.4514 -0.1409
  923MOL0     C27251   3.338  11.730   1.260  0.7247  0.2900 -0.3500
  923MOL0     C27252   3.443  11.836   1.224  0.4340 -0.8474  0.6274
  923MOL0     N27253   3.585  11.796   1.229 -0.3307  0.1390  0.5303
  923MOL0     C27254   3.681  11.795   1.335 -0.0155  1.0946 -0.1969
  923MOL0     C27255   3.788  11.738   1.272  0.6900 -0.7819 -0.8263
  923MOL0     C27256   3.913  11.731   1.350  0.0102  0.0558  0.2074
  923MOL0     C27257   4.038  11.754   1.259  0.5862  0.1318 -0.6095
  923MOL0     C27258   4.078  11.628   1.196  0.0041  0.0008  0.3207
  923MOL0     C27259   4.193  11.656   1.096 -0.9654  1.5841 -0.5997
  923MOL0     O27260   4.314  11.706   1.157  0.3703 -0.0190  0.6604
  923MOL0     C27261   4.417  11.722   1.071 -0.1894 -0.4290 -0.8889
  923MOL0     C27262   4.403  11.698   0.934 -0.5453 -0.5834 -0.3496
  923MOL0     C27263   4.522  11.699   0.850 -0.1592 -0.1082  0.0546
  923MOL0     C27264   4.478  11.682   0.700 -1.1659  1.0622 -0.2775
  923MOL0     C27265   4.650  11.716   0.909  0.2396 -0.0886 -0.6107
  923MOL0     C27266   4.771  11.695   0.828 -1.3123 -0.2779  0.2185
  923MOL0     O27267   4.888  11.720   0.900  0.0227 -0.6282  0.0309
  923MOL0     C27268   5.021  11.727   0.854 -0.1817  0.4308 -0.2295
  923MOL0     C27269   5.122  11.686   0.937 -1.0850  0.4224  0.3822
  923MOL0     C27270   5.253  11.669   0.897 -1.0534 -0.7027 -0.3362
  923MOL0     C27271   5.286  11.688   0.763 -0.4002 -0.0165  0.1901
  923MOL0     O27272   5.411  11.662   0.734 -0.0104 -0.9118 -0.1828
  923MOL0     C27273   5.437  11.597   0.606  0.6927  0.9475 -0.2635
  923MOL0     C27274   5.576  11.530   0.621  0.6797  0.1883  0.0122
  923MOL0     C27275   5.691  11.614   0.676 -0.5267 -0.6414 -0.3414
  923MOL0     C27276   5.829  11.551   0.648  0.4681 -0.4132 -0.2023
  923MOL0     C27277   5.954  11.613   0.721  0.1739  0.0058 -0.6716
  923MOL0     C27278   5.982  11.755   0.673 -0.4747 -0.1749 -0.2578
  923MOL0     C27279   6.096  11.818   0.751  0.6155 -0.3630  0.3119
  923MOL0     C27280   6.156  11.951   0.685 -0.3546 -0.1360  0.0604
  923MOL0    Cl27281   6.225  11.920   0.519 -0.2771 -0.7127  0.1137
  923MOL0     C27282   5.190  11.741   0.672  1.2528  0.6073  0.2886
  923MOL0     C27283   5.054  11.744   0.717 -0.8614 -0.0576 -0.1338
  923MOL0     O27284   4.765  11.647   0.714 -0.2112 -0.4072  0.2793
  923MOL0     C27285   4.656  11.752   1.045  0.1708 -0.2115 -0.2139
  923MOL0     C27286   4.541  11.757   1.125 -0.2837 -0.1676  0.1601
  923MOL0     N27287   3.755  11.697   1.140  0.2943 -0.2441 -0.6209
  923MOL0     N27288   3.633  11.720   1.125  0.1913 -0.4833  0.4578
  923MOL0     C27289   2.717  11.050   1.086  0.1029 -0.1164 -0.4264
  923MOL0     C27290   2.589  11.006   1.107  0.2529  0.6737 -0.2738
  923MOL0     C27291   2.174  10.889   1.179 -0.4119 -0.3826 -0.0961
  923MOL0     C27292   2.125  10.783   1.261 -0.0830  0.0303  0.2266
  923MOL0     C27293   1.999  10.742   1.258  1.0243 -0.2342 -0.2373
  923MOL0     C27294   1.914  10.800   1.165 -0.4266  0.5593  0.3447
  923MOL0     O27295   1.783  10.745   1.171 -0.9212  0.6879  0.1859
  923MOL0     C27296   1.676  10.844   1.192  0.3015  0.0196 -0.1744
  923MOL0     C27297   1.540  10.773   1.216  0.2482  0.2891 -0.6842
  923MOL0     C27298   1.555  10.662   1.323  0.0988  0.3418 -0.0294
  923MOL0     C27299   1.413  10.596   1.361  1.0393 -0.5232 -1.1660
  923MOL0     C27300   1.380  10.594   1.507  0.2801 -0.5698  0.4534
  923MOL0     C27301   1.359  10.599   1.627 -0.1597  0.7188 -0.0719
  923MOL0     C27302   1.947  10.901   1.080  0.1828  0.4719 -0.3973
  923MOL0     C27303   2.086  10.945   1.082 -0.3214  0.1504  0.1019
  923MOL0     C27304   2.128  11.044   0.979 -0.1379  0.2400  0.5157
  923MOL0     H27305   2.419  11.294   1.111 -1.9318 -1.9679  2.5239
  923MOL0     H27306   2.655  11.379   1.075  1.4736 -0.5770 -1.9984
  923MOL0     H27307   2.939  11.070   0.957  1.3921  0.6849 -0.4937
  923MOL0     H27308   2.993  11.080   1.128  0.7953  0.9408  0.9454
  923MOL0     H27309   3.174  11.147   0.959  1.4655 -0.7552  1.4626
  923MOL0     H27310   3.065  11.282   0.920  0.4079  1.1909 -0.1805
  923MOL0     H27311   3.059  11.347   1.156 -1.1389  0.7274 -2.0560
  923MOL0     H27312   3.160  11.208   1.206 -0.2867 -0.0926  0.2369
  923MOL0     H27313   3.355  11.314   1.136 -0.4385 -0.5005 -0.3367
  923MOL0     H27314   3.268  11.398   1.006 -2.8184 -1.9032 -0.5608
  923MOL0     H27315   3.261  11.470   1.293 -2.2785 -1.7690 -0.2140
  923MOL0     H27316   3.143  11.548   1.188  0.8555  2.3590  0.0948
  923MOL0     H27317   3.437  11.559   1.150 -1.7566 -2.5084 -4.2386
  923MOL0     H27318   3.317  11.652   1.058 -0.6558 -2.2372 -0.9124
  923MOL0     H27319   3.356  11.700   1.364  0.3180 -1.8850 -0.8654
  923MOL0     H27320   3.235  11.766   1.251  0.3356 -0.3490  1.1535
  923MOL0     H27321   3.418  11.868   1.122 -2.1115 -0.9931  1.1422
  923MOL0     H27322   3.431  11.925   1.286  0.8626  1.0262 -1.8478
  923MOL0     H27323   3.678  11.843   1.433 -0.4014  1.8865 -0.5835
  923MOL0     H27324   3.910  11.638   1.407  0.9509  1.0486  1.9510
  923MOL0     H27325   3.914  11.812   1.423 -0.9192 -0.4897  0.8424
  923MOL0     H27326   4.004  11.839   1.199  0.4937  2.7067  2.7549
  923MOL0     H27327   4.122  11.785   1.322  0.0672 -0.1234  0.2207
  923MOL0     H27328   4.109  11.551   1.268  3.3305 -1.9433 -2.8438
  923MOL0     H27329   3.991  11.585   1.146 -1.0705  1.4060  0.9210
  923MOL0     H27330   4.213  11.563   1.042 -0.9230  0.3135  1.5187
  923MOL0     H27331   4.153  11.729   1.025 -2.0011 -0.2877 -2.0477
  923MOL0     H27332   4.311  11.684   0.878  0.8131 -4.1190 -2.0268
  923MOL0     H27333   4.503  11.580   0.669  0.0117  1.5351 -0.9732
  923MOL0     H27334   4.537  11.735   0.624  3.0088 -1.8152  0.6019
  923MOL0     H27335   4.370  11.690   0.685 -1.3554 -0.0741  0.3743
  923MOL0     H27336   5.107  11.661   1.041  0.6634 -1.5248  0.2338
  923MOL0     H27337   5.323  11.646   0.977 -3.3140  0.4147  2.0995
  923MOL0     H27338   5.365  11.515   0.600  0.4675  1.1475 -0.3245
  923MOL0     H27339   5.424  11.662   0.519 -0.3786 -0.7900 -1.4574
  923MOL0     H27340   5.561  11.436   0.675  0.5558  0.1381 -0.1072
  923MOL0     H27341   5.591  11.504   0.516 -2.7031  1.3332 -0.8879
  923MOL0     H27342   5.682  11.603   0.784  2.5534 -4.0352 -0.2517
  923MOL0     H27343   5.683  11.716   0.638  3.9226  0.3749  0.7959
  923MOL0     H27344   5.856  11.543   0.542  2.7022  1.4556  0.1581
  923MOL0     H27345   5.813  11.451   0.687 -1.5881  0.1595  0.5567
  923MOL0     H27346   5.938  11.613   0.830  0.4940 -1.4929 -0.6047
  923MOL0     H27347   6.032  11.538   0.704  2.8415  2.6727 -1.1479
  923MOL0     H27348   5.897  11.822   0.685  0.8060  1.5903 -0.6155
  923MOL0     H27349   6.005  11.754   0.566 -1.6494  2.1424 -0.5968
  923MOL0     H27350   6.172  11.741   0.765 -1.9607 -2.6887  2.7113
  923MOL0     H27351   6.052  11.843   0.848 -1.6837 -0.2234 -0.7008
  923MOL0     H27352   6.237  11.995   0.744  2.1840 -3.0498 -0.9825
  923MOL0     H27353   6.076  12.026   0.684  0.6651  0.9852 -1.2095
  923MOL0     H27354   5.204  11.764   0.567 -0.4852  1.5105  0.2130
  923MOL0     H27355   4.993  11.766   0.629  1.5065 -0.2433 -1.9195
  923MOL0     H27356   4.752  11.754   1.096 -2.3193 -0.7341  5.1882
  923MOL0     H27357   4.560  11.775   1.231 -0.4623 -0.8560  0.3136
  923MOL0     H27358   2.793  10.973   1.084  0.3162  0.0579  0.4578
  923MOL0     H27359   2.574  10.898   1.115  3.0176  0.2097 -0.4506
  923MOL0     H27360   2.193  10.745   1.338 -1.0069  0.4068  1.2607
  923MOL0     H27361   1.949  10.663   1.315 -2.7510  1.4757 -0.8578
  923MOL0     H27362   1.698  10.914   1.273 -3.0836 -0.6408  1.4782
  923MOL0     H27363   1.668  10.914   1.108 -0.9924 -0.0304 -0.1118
  923MOL0     H27364   1.512  10.737   1.116  1.2929 -0.2130 -0.8091
  923MOL0     H27365   1.468  10.839   1.265 -0.5915 -1.7721  1.0417
  923MOL0     H27366   1.624  10.588   1.282  1.3114  2.9008 -2.9326
  923MOL0     H27367   1.600  10.711   1.410 -1.4987 -0.8997  1.6116
  923MOL0     H27368   1.407  10.492   1.329 -0.0103 -1.1752  0.9463
  923MOL0     H27369   1.333  10.659   1.320  0.9219 -1.3203 -2.2015
  923MOL0     H27370   1.343  10.604   1.733  0.9851 -0.7130  0.2093
  923MOL0     H27371   1.886  10.941   1.000 -0.5157  0.2081 -0.0074
  923MOL0     H27372   2.130  11.147   1.016 -2.1811  1.9232 -3.4807
  923MOL0     H27373   2.229  11.031   0.939 -0.7797  0.4279 -1.2265
  923MOL0     H27374   2.061  11.043   0.893  0.7654  0.1865 -0.2030
  924MOL0     O27375   7.821   9.314   7.215  0.6261 -0.5289 -0.6394
  924MOL0     C27376   7.918   9.308   7.293  0.3438  0.5362 -0.8250
  924MOL0     O27377   7.977   9.410   7.359  0.7636 -0.4535  0.6803
  924MOL0     C27378   7.948   9.550   7.329 -0.3145  1.1935 -1.2278
  924MOL0     C27379   7.916   9.610   7.207  0.1889 -0.6374  0.3673
  924MOL0     C27380   7.900   9.746   7.207  0.3759 -0.6179  0.7942
  924MOL0     C27381   7.918   9.832   7.317  0.4485 -0.6773 -0.1575
  924MOL0     O27382   7.903   9.977   7.318  0.5053 -0.0316 -0.0485
  924MOL0     C27383   7.908  10.056   7.191  0.2836  0.6357 -0.1510
  924MOL0     C27384   7.762  10.063   7.144  0.8009  0.3915 -0.7171
  924MOL0     C27385   7.652  10.127   7.247  0.1193  0.7307  0.6502
  924MOL0     C27386   7.676  10.270   7.277 -0.2948  0.7786  0.7103
  924MOL0     C27387   7.623  10.354   7.163  0.0683 -0.5160 -0.7129
  924MOL0     C27388   7.638  10.505   7.202 -0.9384  0.5908 -0.0227
  924MOL0     C27389   7.577  10.587   7.090  0.5244 -0.0667 -1.0393
  924MOL0     C27390   7.597  10.730   7.116 -0.3606 -1.4616 -0.1783
  924MOL0     N27391   7.736  10.766   7.093  0.6226  0.8916  0.8527
  924MOL0     C27392   7.837  10.773   7.190  0.4787 -0.0311  0.2836
  924MOL0     C27393   7.957  10.784   7.115 -0.0318  0.1398  0.4441
  924MOL0     C27394   8.104  10.806   7.158  0.1960 -0.2431 -0.5899
  924MOL0     C27395   8.156  10.940   7.201  0.1032 -0.1804 -0.1847
  924MOL0     C27396   8.181  11.056   7.099  0.2650 -0.7251  0.4960
  924MOL0     C27397   8.243  11.183   7.157 -0.8665  0.0474  0.1833
  924MOL0     O27398   8.306  11.262   7.052 -0.8777 -0.0864  0.4476
  924MOL0     C27399   8.314  11.399   7.063 -0.3087 -0.2093 -0.1517
  924MOL0     C27400   8.207  11.490   7.048  0.4884 -0.5986 -0.5988
  924MOL0     C27401   8.219  11.630   7.057 -0.1766  0.0587 -0.1094
  924MOL0     C27402   8.097  11.717   7.064  0.5343  0.0951  0.6818
  924MOL0     C27403   8.349  11.684   7.075  0.1949 -0.5764 -0.0111
  924MOL0     C27404   8.382  11.828   7.093  0.1275  0.0770  0.2005
  924MOL0     O27405   8.506  11.862   7.045  0.7561  0.0495 -0.4398
  924MOL0     C27406   8.572  11.981   7.065 -0.4086 -0.2953 -0.6768
  924MOL0     C27407   8.692  12.011   6.999 -0.1301 -0.4761 -0.2323
  924MOL0     C27408   8.750  12.141   7.002 -0.1994 -0.6252  0.3634
  924MOL0     C27409   8.710  12.237   7.097 -0.1199  0.5087 -0.9903
  924MOL0     O27410   8.772  12.362   7.121 -0.2243 -0.2476 -0.4686
  924MOL0     C27411   8.913  12.377   7.088 -0.3127  0.1122 -0.7400
  924MOL0     C27412   8.950  12.515   7.140  0.2866  0.4368 -0.5352
  924MOL0     C27413   8.889  12.552   7.280 -0.1516  0.1541 -0.6820
  924MOL0     C27414   8.934  12.688   7.326  0.8589 -0.7512  0.0496
  924MOL0     C27415   8.847  12.746   7.443 -1.1112  0.9492 -0.1838
  924MOL0     C27416   8.915  12.886   7.494 -0.1440  0.5130  0.2076
  924MOL0     C27417   9.042  12.850   7.572 -0.1081 -0.3616  0.4165
  924MOL0     C27418   9.082  12.971   7.643 -0.0304  0.0336 -0.0895
  924MOL0    Cl27419   9.111  13.107   7.519 -0.6310  0.0072 -0.2256
  924MOL0     C27420   8.612  12.200   7.185  0.2002  0.5130  0.7188
  924MOL0     C27421   8.551  12.072   7.169  0.6505  0.2456  0.3123
  924MOL0     O27422   8.299  11.909   7.139 -0.3453  0.1075 -0.3996
  924MOL0     C27423   8.463  11.600   7.083  0.3194 -0.5461  0.6674
  924MOL0     C27424   8.446  11.458   7.077 -0.3764 -0.0601 -0.4132
  924MOL0     N27425   7.909  10.811   6.984 -0.2297  0.3778  0.3400
  924MOL0     N27426   7.788  10.793   6.973 -0.8348 -0.1615 -0.5490
  924MOL0     C27427   7.967   9.778   7.425  0.3775  1.0513 -0.0254
  924MOL0     C27428   7.982   9.638   7.433 -0.9039  0.1153  0.2609
  924MOL0     C27429   7.975   9.177   7.324 -0.9213 -0.4879 -0.6391
  924MOL0     C27430   8.031   9.161   7.454 -0.2364  0.0308 -0.0838
  924MOL0     C27431   8.063   9.032   7.494 -0.5459 -0.5630 -0.4344
  924MOL0     C27432   8.045   8.915   7.418 -1.1457  0.3069  0.3311
  924MOL0     O27433   8.045   8.780   7.450 -0.3565  0.6545 -0.0631
  924MOL0     C27434   8.095   8.746   7.581  0.0471 -0.2382  0.2022
  924MOL0     C27435   8.082   8.600   7.595 -0.7016  1.0729  0.4917
  924MOL0     C27436   7.947   8.551   7.639 -0.0277 -1.0809  0.5619
  924MOL0     C27437   7.889   8.452   7.533  0.5820 -0.2480 -0.5302
  924MOL0     C27438   7.761   8.394   7.587 -0.4851  0.3143 -0.3797
  924MOL0     C27439   7.666   8.345   7.642 -0.2792  0.1324 -0.6013
  924MOL0     C27440   7.992   8.930   7.290 -0.0293 -0.3093  0.4009
  924MOL0     C27441   7.951   9.057   7.249 -0.4925  0.1338 -0.6328
  924MOL0     C27442   7.901   9.058   7.100 -0.1576  0.4199  0.1350
  924MOL0     H27443   7.891   9.561   7.113  0.9096 -0.4562  0.0669
  924MOL0     H27444   7.858   9.800   7.123 -1.8768  0.2604  2.3740
  924MOL0     H27445   7.966  10.009   7.112 -0.7511 -1.2558  0.1430
  924MOL0     H27446   7.958  10.152   7.205  1.8733 -0.3124  0.8647
  924MOL0     H27447   7.753  10.108   7.044  0.9507  1.7679 -0.1371
  924MOL0     H27448   7.725   9.964   7.115  0.9225  1.1935 -4.0629
  924MOL0     H27449   7.552  10.114   7.204  1.4639 -1.2954 -2.1846
  924MOL0     H27450   7.670  10.071   7.338  4.2145  1.2081  0.3158
  924MOL0     H27451   7.620  10.308   7.363 -2.9637 -0.5115 -0.3441
  924MOL0     H27452   7.784  10.286   7.280 -0.2247  0.4553 -0.0270
  924MOL0     H27453   7.521  10.333   7.129 -0.4850  2.1509 -0.9683
  924MOL0     H27454   7.695  10.333   7.083  1.3838  4.3039 -1.1321
  924MOL0     H27455   7.584  10.521   7.296 -2.4005 -1.2085 -0.4847
  924MOL0     H27456   7.745  10.523   7.210 -0.7894 -0.5744  0.8438
  924MOL0     H27457   7.470  10.573   7.070  0.8737 -0.3908 -2.8456
  924MOL0     H27458   7.625  10.559   6.996  1.4927  0.0964 -0.6004
  924MOL0     H27459   7.521  10.783   7.059 -2.4201 -1.3923  2.4196
  924MOL0     H27460   7.576  10.769   7.216  1.1727 -0.5197 -0.1962
  924MOL0     H27461   7.820  10.765   7.297 -0.0550  4.7387  0.8018
  924MOL0     H27462   8.163  10.787   7.068 -2.5322  2.4543 -3.1437
  924MOL0     H27463   8.120  10.735   7.240  1.5814  2.3485  1.5432
  924MOL0     H27464   8.103  10.973   7.291  0.6320 -2.5322  1.0627
  924MOL0     H27465   8.255  10.917   7.241  0.5570 -0.6815 -1.5383
  924MOL0     H27466   8.238  11.022   7.012  2.0367  4.3733 -0.6535
  924MOL0     H27467   8.080  11.088   7.070  1.0371  0.6106 -0.8263
  924MOL0     H27468   8.172  11.240   7.216 -2.6546  0.8417 -2.5542
  924MOL0     H27469   8.324  11.152   7.224 -0.3980  1.3232  0.2326
  924MOL0     H27470   8.108  11.446   7.041 -0.5848  1.8616 -2.4791
  924MOL0     H27471   8.077  11.748   7.167 -3.2071 -0.9476  0.4365
  924MOL0     H27472   8.007  11.664   7.030  0.4481  1.1885 -0.9087
  924MOL0     H27473   8.113  11.807   7.004  0.3619 -0.1605  0.2428
  924MOL0     H27474   8.722  11.931   6.933 -2.4600 -1.0600 -0.6594
  924MOL0     H27475   8.828  12.167   6.931  0.1708 -2.1113  0.1832
  924MOL0     H27476   8.971  12.302   7.143 -1.9243  0.4061  1.5545
  924MOL0     H27477   8.928  12.363   6.981 -2.9777  0.8097 -1.2995
  924MOL0     H27478   9.059  12.526   7.141  0.3263  0.3895  1.4277
  924MOL0     H27479   8.905  12.584   7.069 -1.3918  0.1683  0.2273
  924MOL0     H27480   8.914  12.473   7.351 -1.4294 -0.9632 -1.4170
  924MOL0     H27481   8.779  12.553   7.278 -0.1773  2.0369 -0.3570
  924MOL0     H27482   8.926  12.758   7.242 -2.8555 -0.7924  0.2067
  924MOL0     H27483   9.039  12.685   7.354  0.5251 -1.5803  1.2886
  924MOL0     H27484   8.744  12.763   7.411 -0.7925  0.8553 -1.2770
  924MOL0     H27485   8.849  12.668   7.520  2.5817  0.2373 -0.8256
  924MOL0     H27486   8.844  12.939   7.558  0.3106 -0.1102  1.2626
  924MOL0     H27487   8.924  12.948   7.404 -0.2509  0.0986 -0.0938
  924MOL0     H27488   9.130  12.815   7.517  0.2167  0.1584  0.5981
  924MOL0     H27489   9.026  12.771   7.646 -1.7174 -2.4761 -2.0213
  924MOL0     H27490   9.168  12.948   7.706 -0.6587 -1.7786  0.1530
  924MOL0     H27491   9.002  13.002   7.712  1.2784  1.8290  0.7041
  924MOL0     H27492   8.580  12.262   7.268 -0.0039 -0.7257  1.6109
  924MOL0     H27493   8.479  12.051   7.247  0.0965 -0.8058 -0.4656
  924MOL0     H27494   8.565  11.635   7.097  0.3907 -0.5786  0.2558
  924MOL0     H27495   8.532  11.392   7.086 -1.1497 -1.2540 -1.4271
  924MOL0     H27496   7.994   9.851   7.500 -0.1139  1.3289 -0.1121
  924MOL0     H27497   8.008   9.590   7.527  0.2910 -1.1850 -0.7048
  924MOL0     H27498   8.044   9.244   7.522 -0.4341 -1.6844  2.1853
  924MOL0     H27499   8.108   9.024   7.592  1.1190 -0.9136 -1.1853
  924MOL0     H27500   8.198   8.784   7.584 -0.0210  0.1772 -1.5762
  924MOL0     H27501   8.034   8.807   7.649 -0.2275 -1.3819  1.0006
  924MOL0     H27502   8.161   8.561   7.660  0.4671  0.0172 -1.4791
  924MOL0     H27503   8.097   8.560   7.494 -2.0354 -1.3718  1.1795
  924MOL0     H27504   7.954   8.508   7.739 -4.5483  1.9979  2.5302
  924MOL0     H27505   7.897   8.647   7.656  3.7050  0.6953  2.6543
  924MOL0     H27506   7.958   8.377   7.493 -0.6137 -0.0616 -3.1515
  924MOL0     H27507   7.851   8.513   7.450 -0.4243 -1.3150 -0.8715
  924MOL0     H27508   7.574   8.307   7.680  0.3600  0.0841  0.9756
  924MOL0     H27509   7.961   8.839   7.239 -0.9983  0.3591 -0.2456
  924MOL0     H27510   7.802   9.011   7.097  0.9040 -2.0117  0.7041
  924MOL0     H27511   7.897   9.159   7.056  0.5339  0.0306 -0.8592
  924MOL0     H27512   7.968   9.004   7.033 -3.3545 -0.3639 -2.7480
  925MOL0     O27513   7.418   5.299   9.547 -0.3468  0.1229  0.7953
  925MOL0     C27514   7.392   5.216   9.636 -0.4781  0.3842  0.9331
  925MOL0     O27515   7.489   5.137   9.689 -0.1343 -0.2162  0.4890
  925MOL0     C27516   7.601   5.110   9.615 -0.3442  0.3036  0.1869
  925MOL0     C27517   7.614   5.100   9.480  0.0193 -0.0998  0.3229
  925MOL0     C27518   7.737   5.061   9.422 -0.2969 -0.2480 -0.3293
  925MOL0     C27519   7.850   5.036   9.488  0.4386  0.3994 -0.4403
  925MOL0     O27520   7.961   5.004   9.418  0.2383  0.5082  0.2931
  925MOL0     C27521   8.043   4.883   9.462 -0.3003  0.8332  1.0237
  925MOL0     C27522   8.093   4.807   9.337  0.2107  0.4081 -0.9090
  925MOL0     C27523   8.233   4.852   9.290 -0.0606  0.6068 -0.4222
  925MOL0     C27524   8.343   4.832   9.397 -0.1215  0.9741 -0.7175
  925MOL0     C27525   8.480   4.846   9.334  0.1295 -0.6486  0.6230
  925MOL0     C27526   8.589   4.805   9.439  0.3229 -0.0235 -0.7646
  925MOL0     C27527   8.731   4.846   9.399 -0.4907 -0.0755 -0.1493
  925MOL0     C27528   8.749   4.991   9.387  0.8673  0.0034  0.0886
  925MOL0     N27529   8.890   5.032   9.398  0.8867 -0.0094 -0.9240
  925MOL0     C27530   8.928   5.132   9.485 -0.4458 -0.8231 -0.1225
  925MOL0     C27531   9.056   5.118   9.504 -0.9134 -0.3895  0.3154
  925MOL0     C27532   9.146   5.191   9.600 -0.4290 -0.0514 -0.1589
  925MOL0     C27533   9.256   5.272   9.534 -0.2835  0.0075 -0.6856
  925MOL0     C27534   9.329   5.361   9.644  0.2204 -0.5809 -0.5842
  925MOL0     C27535   9.452   5.436   9.596  0.5934 -0.3639 -0.3030
  925MOL0     O27536   9.572   5.358   9.594  0.0843  0.4918 -0.4224
  925MOL0     C27537   9.692   5.420   9.555  0.1190  0.2664  0.0373
  925MOL0     C27538   9.716   5.554   9.534  0.8733 -0.3563  0.1190
  925MOL0     C27539   9.839   5.604   9.493 -0.7143 -0.8372 -0.2427
  925MOL0     C27540   9.863   5.756   9.480  0.1925 -0.9285 -0.0358
  925MOL0     C27541   9.952   5.512   9.476 -0.5674 -0.3686  0.1811
  925MOL0     C27542  10.095   5.545   9.426  0.1103 -0.1212  0.3053
  925MOL0     O27543  10.175   5.434   9.407  0.5662 -0.0402 -0.5641
  925MOL0     C27544  10.293   5.467   9.349  0.2483  0.1386 -0.0268
  925MOL0     C27545  10.298   5.460   9.210 -0.8914 -0.2506  0.3019
  925MOL0     C27546  10.416   5.505   9.147  0.0833  0.3935  0.6714
  925MOL0     C27547  10.524   5.547   9.221 -0.6843  0.3070 -0.3027
  925MOL0     O27548  10.635   5.610   9.168  1.0852 -0.3255 -0.0633
  925MOL0     C27549  10.660   5.616   9.030 -0.2297 -0.2878 -0.4690
  925MOL0     C27550  10.774   5.704   8.988  0.0963 -0.8051 -0.1409
  925MOL0     C27551  10.809   5.819   9.087 -0.7279  0.3456  0.7845
  925MOL0     C27552  10.880   5.940   9.034 -0.2984  0.0771  0.8572
  925MOL0     C27553  10.803   6.008   8.922  0.6250  0.2775 -0.1851
  925MOL0     C27554  10.881   6.072   8.804  0.7622  0.7569 -0.5589
  925MOL0     C27555  10.955   6.181   8.847 -0.9581  0.1500 -0.0461
  925MOL0     C27556  11.031   6.246   8.724 -0.0917 -0.0253 -0.2036
  925MOL0    Cl27557  11.179   6.140   8.678 -0.1261 -0.1615 -0.0661
  925MOL0     C27558  10.517   5.544   9.359 -0.1935  0.0860  0.0770
  925MOL0     C27559  10.403   5.506   9.422 -0.1332  0.2005 -0.4589
  925MOL0     O27560  10.129   5.665   9.426 -0.2474  0.0643 -0.0368
  925MOL0     C27561   9.927   5.374   9.509  0.0224  0.6738  0.1062
  925MOL0     C27562   9.795   5.332   9.548  1.2069 -0.1314  0.1105
  925MOL0     N27563   9.098   5.036   9.403  0.1374  0.7232  0.7273
  925MOL0     N27564   9.003   4.977   9.340 -1.2688  0.4454 -0.3123
  925MOL0     C27565   7.839   5.045   9.630  0.2136  1.0729 -0.7698
  925MOL0     C27566   7.718   5.093   9.692 -0.8287 -0.0021 -0.1864
  925MOL0     C27567   7.245   5.202   9.672 -1.0157  0.1412 -0.2112
  925MOL0     C27568   7.204   5.085   9.738  0.6725 -1.1318 -0.1718
  925MOL0     C27569   7.072   5.068   9.782  0.6733  0.2196 -0.4599
  925MOL0     C27570   6.974   5.155   9.737  0.4971 -0.5849 -0.9126
  925MOL0     O27571   6.838   5.130   9.739  0.7626 -0.5217  0.3095
  925MOL0     C27572   6.798   5.003   9.786  0.0907  0.0471 -0.3938
  925MOL0     C27573   6.652   4.972   9.772 -0.4952 -0.6113  0.1097
  925MOL0     C27574   6.601   4.975   9.620  0.3351 -0.2169  0.0351
  925MOL0     C27575   6.445   5.005   9.612 -0.0984  0.4123 -0.1176
  925MOL0     C27576   6.381   4.911   9.516 -1.0286 -1.2236 -0.7958
  925MOL0     C27577   6.344   4.841   9.430  0.1047  0.2047 -0.2723
  925MOL0     C27578   7.011   5.257   9.655 -1.1590  0.8916 -0.2017
  925MOL0     C27579   7.145   5.303   9.635  0.7260  0.3608 -0.0302
  925MOL0     C27580   7.168   5.442   9.594  0.0879  0.5587 -0.0495
  925MOL0     H27581   7.525   5.114   9.419 -1.5794  0.3438  2.5914
  925MOL0     H27582   7.737   5.060   9.313  0.4294 -1.3334 -0.3224
  925MOL0     H27583   7.965   4.829   9.517 -1.9131  2.2373  0.2298
  925MOL0     H27584   8.126   4.906   9.529  0.6105 -3.9039  1.8450
  925MOL0     H27585   8.111   4.703   9.365  1.6193  0.7205 -0.5954
  925MOL0     H27586   8.026   4.810   9.250 -0.7461 -1.2976 -0.2937
  925MOL0     H27587   8.257   4.806   9.194  0.6731  2.1628 -1.0339
  925MOL0     H27588   8.224   4.958   9.262  3.6630  0.7472 -1.6505
  925MOL0     H27589   8.350   4.897   9.485  3.9769 -3.4400  2.7779
  925MOL0     H27590   8.332   4.727   9.427 -2.4595  1.6397  1.0437
  925MOL0     H27591   8.500   4.953   9.332 -0.2331 -0.5123  2.4986
  925MOL0     H27592   8.480   4.792   9.239 -0.4701 -0.9551  0.7954
  925MOL0     H27593   8.559   4.852   9.533  0.0989  0.2629 -0.9792
  925MOL0     H27594   8.584   4.697   9.457  0.1652  0.1399  0.2629
  925MOL0     H27595   8.753   4.802   9.302 -0.6942 -2.3526  0.7913
  925MOL0     H27596   8.800   4.810   9.476 -2.0380  2.3335  2.6282
  925MOL0     H27597   8.729   5.015   9.282  4.3924  1.8820 -0.3140
  925MOL0     H27598   8.680   5.043   9.454 -2.3765 -1.5097 -1.8292
  925MOL0     H27599   8.860   5.192   9.544  1.4761  1.0502  0.3147
  925MOL0     H27600   9.180   5.121   9.676 -0.7224 -0.7864 -0.6925
  925MOL0     H27601   9.079   5.262   9.649  0.8558  1.9825 -1.2088
  925MOL0     H27602   9.336   5.204   9.502  0.1931  0.7282 -1.0372
  925MOL0     H27603   9.220   5.337   9.455  1.4201 -0.2450 -1.7281
  925MOL0     H27604   9.255   5.432   9.683  0.0406 -1.4446  0.7320
  925MOL0     H27605   9.369   5.296   9.723  1.6237  2.7680  1.6966
  925MOL0     H27606   9.437   5.476   9.495  0.0016 -3.1208 -1.4051
  925MOL0     H27607   9.452   5.518   9.668 -0.5989 -0.1260 -0.5490
  925MOL0     H27608   9.632   5.618   9.559  0.7671  0.1756 -1.4929
  925MOL0     H27609   9.917   5.785   9.389  0.0728 -1.3078 -0.2304
  925MOL0     H27610   9.924   5.799   9.560 -0.9964  1.4804 -0.3231
  925MOL0     H27611   9.763   5.800   9.486 -0.4773 -2.5881  1.7586
  925MOL0     H27612  10.220   5.423   9.144 -0.6610 -0.7074  0.2850
  925MOL0     H27613  10.422   5.503   9.038  0.4797 -2.8559  0.6643
  925MOL0     H27614  10.678   5.520   8.982  5.5768 -0.6890  1.7116
  925MOL0     H27615  10.571   5.668   8.992 -3.0535 -1.5119  3.7374
  925MOL0     H27616  10.858   5.634   8.993  0.3985 -0.3502  1.5535
  925MOL0     H27617  10.781   5.729   8.881  2.9943 -1.4849 -0.1875
  925MOL0     H27618  10.874   5.777   9.164  0.2407 -0.5950 -0.5191
  925MOL0     H27619  10.716   5.853   9.134 -1.2011 -0.5299  0.5079
  925MOL0     H27620  10.974   5.898   8.995 -0.7634 -3.7578  3.2875
  925MOL0     H27621  10.887   6.006   9.120 -0.2182 -0.2226  1.0799
  925MOL0     H27622  10.731   5.937   8.881 -0.0064 -0.6665  2.3787
  925MOL0     H27623  10.740   6.076   8.979  0.5235 -0.0962  0.1583
  925MOL0     H27624  10.806   6.100   8.729 -2.9587  0.0129  2.6086
  925MOL0     H27625  10.952   6.000   8.761  2.2086  1.5453  0.4210
  925MOL0     H27626  11.030   6.155   8.922 -2.1997  0.8068  1.5062
  925MOL0     H27627  10.885   6.250   8.896 -3.2780  0.4632 -3.4505
  925MOL0     H27628  11.080   6.341   8.750 -2.7812  1.9212 -1.6707
  925MOL0     H27629  10.957   6.267   8.646 -0.3717  0.1699  0.1113
  925MOL0     H27630  10.600   5.566   9.425 -0.4602 -0.9887  0.7836
  925MOL0     H27631  10.399   5.508   9.531  1.6848 -1.5911 -0.2963
  925MOL0     H27632  10.008   5.302   9.514  1.0068  1.8223  1.5153
  925MOL0     H27633   9.780   5.226   9.566  0.9778 -0.2307 -0.6430
  925MOL0     H27634   7.919   5.006   9.692 -2.5936  1.5052  3.5469
  925MOL0     H27635   7.704   5.103   9.799 -1.9827 -1.1100 -0.2130
  925MOL0     H27636   7.279   5.009   9.752  0.2083 -2.5392 -4.1157
  925MOL0     H27637   7.057   4.986   9.852  2.6226  0.6082  0.4865
  925MOL0     H27638   6.858   4.927   9.735  1.7649  1.3044 -0.3838
  925MOL0     H27639   6.814   5.006   9.894 -1.6477  3.9668 -0.0795
  925MOL0     H27640   6.595   5.048   9.826  0.5630 -0.2540  0.7508
  925MOL0     H27641   6.630   4.875   9.818  1.4497 -1.6685 -1.0720
  925MOL0     H27642   6.649   5.051   9.557 -0.3701 -0.1124 -0.3894
  925MOL0     H27643   6.607   4.871   9.585  1.3399 -0.3566  0.5933
  925MOL0     H27644   6.429   5.108   9.581  0.0332  0.2066 -0.8766
  925MOL0     H27645   6.403   4.989   9.712 -0.6514 -2.8322 -0.7701
  925MOL0     H27646   6.313   4.786   9.343 -1.1878  1.5551 -0.7302
  925MOL0     H27647   6.930   5.314   9.612 -0.9741  1.2144 -0.1254
  925MOL0     H27648   7.151   5.449   9.486  0.2506 -0.9752 -0.1954
  925MOL0     H27649   7.103   5.512   9.647 -4.3488 -1.1260 -2.6857
  925MOL0     H27650   7.271   5.477   9.610 -0.0620  0.5849  0.9208
  926MOL0     O27651   5.055   8.045  11.056 -0.0272  0.3954 -0.7188
  926MOL0     C27652   5.089   8.153  11.023 -0.2319 -0.0607  0.1470
  926MOL0     O27653   5.005   8.236  10.954  0.1957 -0.0236 -0.0371
  926MOL0     C27654   4.873   8.209  10.917 -0.4031  0.9421 -0.4874
  926MOL0     C27655   4.836   8.137  10.798 -0.4660  0.1734 -0.6604
  926MOL0     C27656   4.699   8.112  10.778  0.7983 -0.7305  0.4186
  926MOL0     C27657   4.605   8.141  10.876  1.1124  0.9879  0.1688
  926MOL0     O27658   4.480   8.109  10.823  0.4096 -0.1339  0.1714
  926MOL0     C27659   4.418   8.218  10.748  0.0603  0.5236  0.2935
  926MOL0     C27660   4.267   8.224  10.773 -0.3810 -0.4290 -0.4614
  926MOL0     C27661   4.227   8.265  10.925  0.0312 -0.0671 -0.5271
  926MOL0     C27662   4.248   8.412  10.957  0.2636 -0.0849  0.1538
  926MOL0     C27663   4.169   8.461  11.079  0.5961  0.5449  1.0151
  926MOL0     C27664   4.167   8.612  11.083 -0.0899  0.5190 -0.9986
  926MOL0     C27665   4.136   8.666  11.220  0.7880  0.9848  0.3594
  926MOL0     C27666   4.126   8.816  11.208  0.1274 -0.2598  1.1281
  926MOL0     N27667   4.092   8.886  11.329  0.2366  0.1502 -0.7672
  926MOL0     C27668   4.177   8.966  11.401  0.1430  1.1627  0.3136
  926MOL0     C27669   4.101   9.009  11.507 -0.0744 -0.6525 -0.7619
  926MOL0     C27670   4.143   9.105  11.618  0.2461  0.9831 -0.0855
  926MOL0     C27671   4.193   9.036  11.742 -0.0090 -1.3091 -0.1071
  926MOL0     C27672   4.206   9.156  11.838  0.1359 -0.4092 -0.4863
  926MOL0     C27673   4.276   9.110  11.968  0.0608 -0.4542  0.8544
  926MOL0     O27674   4.405   9.060  11.931  0.0555  0.0037  0.4032
  926MOL0     C27675   4.497   9.075  12.023 -0.4775  0.5723 -0.0686
  926MOL0     C27676   4.630   9.073  11.974 -0.3056 -0.4943  0.0252
  926MOL0     C27677   4.733   9.071  12.069 -0.0549 -0.2381  0.2821
  926MOL0     C27678   4.871   9.054  12.018 -0.2490  0.6606 -0.8779
  926MOL0     C27679   4.718   9.087  12.210  0.6872  0.4473 -0.4352
  926MOL0     C27680   4.826   9.085  12.316  0.1225 -1.0609  0.0357
  926MOL0     O27681   4.779   9.065  12.443  0.2332 -0.1935  0.5772
  926MOL0     C27682   4.877   9.027  12.528  0.2583  0.6913 -0.0340
  926MOL0     C27683   4.909   9.120  12.626  0.3343  0.6982 -0.1967
  926MOL0     C27684   5.015   9.092  12.717 -0.2383  1.1210 -0.8132
  926MOL0     C27685   5.093   8.973  12.713 -0.3174 -0.5106  0.0351
  926MOL0     O27686   5.186   8.942  12.811  0.4829  0.3567  0.1350
  926MOL0     C27687   5.290   8.846  12.781  0.4059 -1.1573 -0.1059
  926MOL0     C27688   5.420   8.918  12.811  0.0825  0.6196  1.1388
  926MOL0     C27689   5.430   9.055  12.758 -0.0188  0.2438  0.3872
  926MOL0     C27690   5.546   9.131  12.827 -0.2705  0.3946  1.2186
  926MOL0     C27691   5.573   9.275  12.763 -0.4850  0.3104  1.0085
  926MOL0     C27692   5.706   9.328  12.820 -0.6296  0.2488 -0.1364
  926MOL0     C27693   5.730   9.480  12.802 -0.2245 -0.1959  0.6729
  926MOL0     C27694   5.653   9.550  12.908  0.0718 -0.2699 -0.6024
  926MOL0    Cl27695   5.674   9.727  12.887 -0.4184 -0.1652  0.0730
  926MOL0     C27696   5.058   8.877  12.613 -0.6102  0.2549 -0.5358
  926MOL0     C27697   4.950   8.905  12.523  0.3774 -0.2615  0.1320
  926MOL0     O27698   4.946   9.101  12.285 -0.6173  0.1687 -0.3173
  926MOL0     C27699   4.587   9.092  12.250  0.3797  0.2979 -0.2565
  926MOL0     C27700   4.481   9.085  12.163  0.3703 -0.9070 -0.1533
  926MOL0     N27701   3.973   8.971  11.491  0.6406  0.5392 -0.6124
  926MOL0     N27702   3.966   8.897  11.381 -0.6617  0.7603 -0.2442
  926MOL0     C27703   4.636   8.211  10.997 -0.1775  0.2447  0.5590
  926MOL0     C27704   4.777   8.247  11.016  1.2424 -0.5297  0.0441
  926MOL0     C27705   5.221   8.203  11.071  0.0444 -0.2250 -0.2172
  926MOL0     C27706   5.223   8.276  11.187 -0.2298 -0.8152 -0.2726
  926MOL0     C27707   5.338   8.314  11.247  0.3128  0.2000  0.0402
  926MOL0     C27708   5.465   8.275  11.197  0.4519  0.0873  0.2670
  926MOL0     O27709   5.580   8.325  11.246 -0.2347 -0.0542 -0.1947
  926MOL0     C27710   5.580   8.440  11.338 -0.4591 -0.4913 -0.3041
  926MOL0     C27711   5.556   8.390  11.481  0.9996 -0.7945 -0.5178
  926MOL0     C27712   5.667   8.304  11.528  0.5040 -0.3057 -0.3337
  926MOL0     C27713   5.649   8.212  11.646  0.4563  1.2240  0.6875
  926MOL0     C27714   5.774   8.144  11.684  0.3625  1.0228 -0.7188
  926MOL0     C27715   5.882   8.101  11.721  0.3362  0.3281 -0.4199
  926MOL0     C27716   5.466   8.183  11.091  0.3772  1.0137  0.2485
  926MOL0     C27717   5.344   8.147  11.027 -0.1553 -0.1965  0.4489
  926MOL0     C27718   5.348   8.045  10.915  0.1234 -0.4267  0.5109
  926MOL0     H27719   4.909   8.095  10.730  0.6152 -0.1553  0.6651
  926MOL0     H27720   4.662   8.068  10.686 -0.9923 -0.5369  1.0121
  926MOL0     H27721   4.431   8.203  10.641 -1.2789  1.1958  0.0249
  926MOL0     H27722   4.466   8.315  10.768  2.6144 -0.2422 -1.5770
  926MOL0     H27723   4.225   8.298  10.704 -3.2382 -2.3746 -0.9590
  926MOL0     H27724   4.214   8.130  10.756 -1.2926 -0.2041  0.9143
  926MOL0     H27725   4.121   8.245  10.944 -0.1202  2.1092  1.3261
  926MOL0     H27726   4.283   8.210  11.001 -1.4010  1.4812  1.7650
  926MOL0     H27727   4.354   8.436  10.970  0.3546  0.2235 -1.0383
  926MOL0     H27728   4.209   8.463  10.868  1.0768 -0.3417 -0.3586
  926MOL0     H27729   4.211   8.421  11.172  1.4333  2.6273  1.5916
  926MOL0     H27730   4.062   8.440  11.077  0.4155  1.4654  0.7004
  926MOL0     H27731   4.251   8.660  11.032  0.2831  1.7770  0.7271
  926MOL0     H27732   4.082   8.639  11.018 -0.7811  0.2876 -0.2067
  926MOL0     H27733   4.212   8.635  11.292  1.6284  0.7212 -0.6216
  926MOL0     H27734   4.037   8.626  11.243  0.3178  1.6704 -0.3863
  926MOL0     H27735   4.225   8.843  11.171 -0.1472 -2.0845 -1.1022
  926MOL0     H27736   4.059   8.853  11.130 -2.0739 -0.0151  3.0348
  926MOL0     H27737   4.283   8.977  11.381 -0.1791  0.4151 -2.2204
  926MOL0     H27738   4.056   9.163  11.649  0.6120 -0.4933  4.4934
  926MOL0     H27739   4.222   9.172  11.581 -0.0508  1.1205 -0.4796
  926MOL0     H27740   4.126   8.956  11.775  0.2728 -1.5189 -0.0356
  926MOL0     H27741   4.295   9.003  11.720  1.0183  0.8278  1.0733
  926MOL0     H27742   4.267   9.237  11.795  1.6378 -0.8438  0.7309
  926MOL0     H27743   4.107   9.199  11.851  0.0249  0.0598 -2.4918
  926MOL0     H27744   4.289   9.201  12.027  2.1116  1.3465 -2.1665
  926MOL0     H27745   4.214   9.029  12.010 -0.2211 -1.2864 -1.0560
  926MOL0     H27746   4.656   9.067  11.869 -0.3667 -1.1711  0.0441
  926MOL0     H27747   4.924   9.150  12.020  0.5825  0.2167  1.8278
  926MOL0     H27748   4.866   9.002  11.921 -1.1401 -0.4546 -0.2600
  926MOL0     H27749   4.920   8.977  12.079 -1.9090  1.2771  1.3281
  926MOL0     H27750   4.848   9.210  12.639 -2.1930 -1.0698  0.9208
  926MOL0     H27751   5.062   9.152  12.794 -0.6193 -0.9554  1.1516
  926MOL0     H27752   5.280   8.752  12.837 -1.1537 -0.6232  0.5522
  926MOL0     H27753   5.295   8.827  12.674  1.4274 -1.2314 -0.0530
  926MOL0     H27754   5.440   8.924  12.918  3.6859  1.1661  0.5551
  926MOL0     H27755   5.506   8.865  12.770  1.2895  1.1042  2.9437
  926MOL0     H27756   5.343   9.120  12.774 -1.1194 -0.7185 -1.3186
  926MOL0     H27757   5.451   9.044  12.651 -0.8264 -0.4903  0.2998
  926MOL0     H27758   5.639   9.075  12.839 -0.8899 -0.4178  2.3201
  926MOL0     H27759   5.503   9.135  12.927 -1.3951  2.8940  0.7139
  926MOL0     H27760   5.588   9.279  12.655 -1.1064  2.9163  0.9516
  926MOL0     H27761   5.499   9.352  12.787  0.2276  1.6300 -0.7840
  926MOL0     H27762   5.789   9.276  12.771  1.9956  0.6237  3.5603
  926MOL0     H27763   5.713   9.314  12.928 -1.3268  2.0383  0.1652
  926MOL0     H27764   5.696   9.519  12.706  1.9488 -1.2400 -0.5878
  926MOL0     H27765   5.837   9.506  12.804 -0.4554  0.8924 -0.1482
  926MOL0     H27766   5.708   9.515  12.995 -0.9029 -3.9337 -1.2861
  926MOL0     H27767   5.549   9.520  12.925 -0.3811  2.7114  3.3834
  926MOL0     H27768   5.101   8.778  12.620 -0.9495 -0.0382 -2.2017
  926MOL0     H27769   4.918   8.830  12.451  1.9729 -0.2807 -0.5812
  926MOL0     H27770   4.560   9.105  12.354 -1.1152  1.7929 -0.7870
  926MOL0     H27771   4.380   9.085  12.204 -0.5083 -1.0787 -2.1606
  926MOL0     H27772   4.559   8.232  11.069  0.4621 -0.3811  1.4449
  926MOL0     H27773   4.800   8.297  11.110 -3.5338  3.8596 -0.6581
  926MOL0     H27774   5.132   8.310  11.234  0.2845 -0.8599  0.7920
  926MOL0     H27775   5.329   8.380  11.332 -0.4846 -0.7329  0.6873
  926MOL0     H27776   5.677   8.490  11.331 -2.6762  4.2209 -1.9623
  926MOL0     H27777   5.506   8.514  11.307  0.2781 -0.6969 -2.7396
  926MOL0     H27778   5.471   8.322  11.479  1.2767 -1.1393 -2.0590
  926MOL0     H27779   5.540   8.465  11.559  1.3112 -1.7142  0.4361
  926MOL0     H27780   5.710   8.248  11.445 -1.0462 -2.0334 -0.0458
  926MOL0     H27781   5.745   8.374  11.560  0.1569  0.3215 -0.8357
  926MOL0     H27782   5.566   8.146  11.620  0.7053  0.9084  0.6823
  926MOL0     H27783   5.621   8.273  11.732  0.8212  2.9986 -0.3964
  926MOL0     H27784   5.976   8.073  11.764 -0.0287 -1.3503 -0.6420
  926MOL0     H27785   5.549   8.135  11.040 -1.7029 -1.2829 -1.2402
  926MOL0     H27786   5.414   8.080  10.834 -1.3840 -0.5900 -0.8460
  926MOL0     H27787   5.390   7.951  10.950 -0.0319 -0.8139 -0.3169
  926MOL0     H27788   5.254   8.022  10.863  2.3061  0.5430 -4.4563
  927MOL0     O27789   1.693   1.806   1.383  0.0959  0.1670 -0.1382
  927MOL0     C27790   1.676   1.893   1.301 -0.6908  0.1349 -0.4442
  927MOL0     O27791   1.652   2.021   1.334  0.1950 -0.2079  0.1671
  927MOL0     C27792   1.742   2.098   1.400 -0.2050  0.2979  0.0286
  927MOL0     C27793   1.710   2.211   1.463 -0.4707 -0.9185  0.3271
  927MOL0     C27794   1.806   2.284   1.541 -0.1601  0.1017  0.2064
  927MOL0     C27795   1.944   2.256   1.542  0.1025  1.1603  0.7656
  927MOL0     O27796   2.024   2.349   1.597 -0.9706  0.2167 -0.3262
  927MOL0     C27797   2.167   2.312   1.594  0.4625 -0.1681 -0.8940
  927MOL0     C27798   2.220   2.208   1.695  0.1275  0.4267 -0.0440
  927MOL0     C27799   2.373   2.201   1.689 -0.2559  0.6826  0.1693
  927MOL0     C27800   2.430   2.129   1.816 -0.0854  0.0507  0.7994
  927MOL0     C27801   2.569   2.065   1.788  0.4056 -0.1133  0.0319
  927MOL0     C27802   2.618   2.006   1.917  0.1201 -0.1581  0.0008
  927MOL0     C27803   2.756   1.939   1.890 -0.9215 -0.3127 -0.0781
  927MOL0     C27804   2.739   1.811   1.808  0.1030 -1.5227  0.3154
  927MOL0     N27805   2.838   1.709   1.833 -0.6089  0.3846  0.6857
  927MOL0     C27806   2.929   1.671   1.741  0.2682 -0.7953 -0.5616
  927MOL0     C27807   2.996   1.561   1.801 -0.4269  0.3681 -0.1571
  927MOL0     C27808   3.084   1.482   1.709 -1.5028 -0.2425 -0.1931
  927MOL0     C27809   3.229   1.525   1.744 -0.3196 -0.8266  0.0417
  927MOL0     C27810   3.334   1.450   1.662  0.7672  0.1212  0.7714
  927MOL0     C27811   3.373   1.527   1.526  0.7515 -0.3672 -0.3096
  927MOL0     O27812   3.436   1.656   1.557  0.0026 -0.3544  0.5697
  927MOL0     C27813   3.573   1.655   1.558  0.1569  0.2085 -0.9342
  927MOL0     C27814   3.667   1.586   1.478  0.2561 -0.3275 -0.5919
  927MOL0     C27815   3.804   1.606   1.482 -0.2872  0.4068  0.8342
  927MOL0     C27816   3.867   1.530   1.376 -0.2354 -0.3974  0.7251
  927MOL0     C27817   3.856   1.693   1.577  0.4470 -0.0182  0.1972
  927MOL0     C27818   3.997   1.727   1.575  0.1120 -0.0133 -0.4691
  927MOL0     O27819   4.072   1.721   1.465 -0.5023 -0.3810  0.4353
  927MOL0     C27820   4.205   1.728   1.488 -0.2323  0.7311  0.2161
  927MOL0     C27821   4.286   1.613   1.488  0.6854 -0.0956  0.1815
  927MOL0     C27822   4.422   1.627   1.510  0.2494 -1.1937  0.5255
  927MOL0     C27823   4.488   1.750   1.519 -0.0197  0.2925  0.1528
  927MOL0     O27824   4.619   1.751   1.551 -0.1904 -0.1009  0.2027
  927MOL0     C27825   4.696   1.871   1.593  0.6552 -0.0979  0.0764
  927MOL0     C27826   4.837   1.822   1.647  0.0084  0.8718 -0.2039
  927MOL0     C27827   4.921   1.922   1.727  0.3636 -0.4777 -0.1564
  927MOL0     C27828   4.921   2.067   1.682  0.1423  0.0311  0.0642
  927MOL0     C27829   5.022   2.143   1.774 -0.2626  1.0470  0.1236
  927MOL0     C27830   5.061   2.281   1.719  0.6721  0.0003  0.2178
  927MOL0     C27831   5.141   2.367   1.818  0.9749 -0.1109 -0.5183
  927MOL0     C27832   5.168   2.504   1.771  0.0926  0.1343  0.2036
  927MOL0    Cl27833   5.215   2.590   1.923 -0.7553 -0.4580  0.1907
  927MOL0     C27834   4.410   1.868   1.501 -0.2336 -0.8409  0.7745
  927MOL0     C27835   4.269   1.854   1.493  0.6276 -0.4905  0.2272
  927MOL0     O27836   4.045   1.735   1.688  0.8825  0.0716  0.3075
  927MOL0     C27837   3.771   1.763   1.659 -0.0040 -0.3538 -0.2886
  927MOL0     C27838   3.623   1.748   1.653 -1.3224  0.8264 -0.2269
  927MOL0     N27839   2.955   1.557   1.933  0.1622  0.2546  0.5354
  927MOL0     N27840   2.863   1.647   1.955 -0.2868  0.2952  0.0761
  927MOL0     C27841   1.981   2.137   1.467 -0.7654 -0.7013 -0.2275
  927MOL0     C27842   1.878   2.059   1.409  0.2823 -0.2815  1.3348
  927MOL0     C27843   1.638   1.839   1.162  0.1608 -0.1663 -0.8553
  927MOL0     C27844   1.647   1.702   1.142 -0.3624 -0.6375  0.1839
  927MOL0     C27845   1.587   1.646   1.028 -0.1735 -0.0109  1.2560
  927MOL0     C27846   1.522   1.719   0.927 -0.2662  0.6686  0.2803
  927MOL0     O27847   1.458   1.659   0.822  0.4375  0.5023  0.4776
  927MOL0     C27848   1.519   1.556   0.751 -0.5707  0.2292  0.4475
  927MOL0     C27849   1.601   1.606   0.627 -0.2279 -0.8229  0.2124
  927MOL0     C27850   1.542   1.720   0.552  0.1666  0.1018 -0.5785
  927MOL0     C27851   1.419   1.693   0.453  0.0950 -0.1762  0.7296
  927MOL0     C27852   1.291   1.673   0.519 -0.1312 -0.3487  0.0004
  927MOL0     C27853   1.178   1.671   0.574  0.2468  0.3813 -0.2151
  927MOL0     C27854   1.521   1.859   0.946  0.7295 -0.0464 -0.2348
  927MOL0     C27855   1.565   1.918   1.068  0.3009 -0.2166 -0.5025
  927MOL0     C27856   1.519   2.058   1.091 -0.0926 -0.0283 -0.3073
  927MOL0     H27857   1.606   2.243   1.454 -0.0701  0.0037 -1.6784
  927MOL0     H27858   1.777   2.371   1.599  0.2279 -0.6652  1.5786
  927MOL0     H27859   2.205   2.406   1.637 -1.3209 -0.2607  1.0441
  927MOL0     H27860   2.218   2.286   1.501  0.5332  0.9347 -1.1879
  927MOL0     H27861   2.195   2.236   1.798 -1.2074 -4.3278  1.1485
  927MOL0     H27862   2.190   2.104   1.680  1.6252 -0.1116  0.5846
  927MOL0     H27863   2.397   2.139   1.602  1.6925 -2.6665  2.8468
  927MOL0     H27864   2.418   2.301   1.690 -3.2358  2.1740  2.2757
  927MOL0     H27865   2.445   2.189   1.906  0.8698  2.1602 -0.6737
  927MOL0     H27866   2.364   2.048   1.847 -2.0722  2.0516  2.1470
  927MOL0     H27867   2.635   2.139   1.740 -1.2353  1.2132 -0.2567
  927MOL0     H27868   2.556   1.982   1.718 -0.1802 -1.0527  1.2273
  927MOL0     H27869   2.634   2.086   1.991  0.8155  0.3644 -0.6949
  927MOL0     H27870   2.553   1.930   1.962  1.0945 -0.4652  0.9302
  927MOL0     H27871   2.803   1.917   1.986  3.4912  1.0461 -1.6850
  927MOL0     H27872   2.833   1.998   1.840 -1.0676 -0.2139 -0.1881
  927MOL0     H27873   2.648   1.764   1.848  0.2913 -1.1740  1.1824
  927MOL0     H27874   2.725   1.842   1.704  0.8064  1.4452  1.0277
  927MOL0     H27875   2.929   1.697   1.636  1.5624  3.6802  0.3357
  927MOL0     H27876   3.056   1.507   1.606 -2.4988 -0.6425 -0.0246
  927MOL0     H27877   3.071   1.374   1.719  2.4134 -0.8386  0.3915
  927MOL0     H27878   3.242   1.632   1.724 -3.7045 -0.9327 -3.9741
  927MOL0     H27879   3.248   1.502   1.850 -0.5777 -1.0492  0.0389
  927MOL0     H27880   3.425   1.432   1.719  1.8430 -0.0744 -0.9168
  927MOL0     H27881   3.291   1.354   1.634 -1.4857  0.6733  2.0756
  927MOL0     H27882   3.431   1.464   1.457 -1.0807  0.3341 -2.6272
  927MOL0     H27883   3.277   1.552   1.481  0.2873  2.8724  2.1647
  927MOL0     H27884   3.621   1.530   1.398  1.0926  0.8702 -1.9496
  927MOL0     H27885   3.893   1.599   1.294 -0.3823  0.4340  1.3613
  927MOL0     H27886   3.801   1.452   1.337  0.9224  0.2110 -2.8753
  927MOL0     H27887   3.956   1.480   1.416  1.8406 -0.5719 -3.4645
  927MOL0     H27888   4.238   1.518   1.471  5.7160 -2.6722 -1.3967
  927MOL0     H27889   4.470   1.531   1.523 -1.8189 -2.2277  0.7638
  927MOL0     H27890   4.700   1.941   1.510 -1.4364 -0.8994 -0.7469
  927MOL0     H27891   4.647   1.925   1.674 -1.9303 -1.4486 -0.4871
  927MOL0     H27892   4.833   1.729   1.705 -0.1058  1.7882  1.3193
  927MOL0     H27893   4.891   1.805   1.554  0.8808  0.9736  0.2738
  927MOL0     H27894   5.025   1.891   1.729  2.5159  5.5239  1.4250
  927MOL0     H27895   4.890   1.933   1.831 -1.5900  4.6403 -0.9905
  927MOL0     H27896   4.826   2.122   1.682  0.6079  0.8625  0.6387
  927MOL0     H27897   4.943   2.072   1.575 -1.5039 -1.2168 -0.3827
  927MOL0     H27898   4.991   2.148   1.879  0.2605 -1.4004  0.4527
  927MOL0     H27899   5.116   2.089   1.789 -0.7468  0.1175 -0.0937
  927MOL0     H27900   4.966   2.332   1.701 -0.0152 -0.7045  1.6892
  927MOL0     H27901   5.121   2.275   1.628  0.9878 -0.4260  0.4454
  927MOL0     H27902   5.229   2.303   1.824  1.3809  0.4813 -0.0882
  927MOL0     H27903   5.082   2.372   1.911 -2.9634  2.5620 -2.8466
  927MOL0     H27904   5.077   2.549   1.731 -0.5744 -0.0214  1.4830
  927MOL0     H27905   5.244   2.500   1.693  0.1225 -0.5254  0.2684
  927MOL0     H27906   4.465   1.961   1.496  2.6603 -2.5022 -1.7030
  927MOL0     H27907   4.205   1.942   1.495 -0.1350 -1.0201  2.9058
  927MOL0     H27908   3.810   1.839   1.727 -0.7512 -0.3728  0.1736
  927MOL0     H27909   3.556   1.800   1.721  0.6586  2.5956  0.4771
  927MOL0     H27910   2.085   2.106   1.464 -0.1816  0.9012  1.6613
  927MOL0     H27911   1.910   1.969   1.358  0.9650 -0.0685  1.3722
  927MOL0     H27912   1.686   1.635   1.218  0.2805 -4.1568 -2.9580
  927MOL0     H27913   1.607   1.539   1.026 -1.6221 -0.5531  5.4406
  927MOL0     H27914   1.576   1.488   0.816 -0.4575  1.0962  1.2857
  927MOL0     H27915   1.431   1.503   0.713 -1.0805  1.7035 -0.4989
  927MOL0     H27916   1.629   1.524   0.560  1.1657  0.0821 -0.3718
  927MOL0     H27917   1.697   1.644   0.661  0.8591 -0.2045 -3.1941
  927MOL0     H27918   1.517   1.801   0.621 -1.4600  0.5977 -1.6737
  927MOL0     H27919   1.629   1.759   0.498 -0.3214  0.4236 -1.1588
  927MOL0     H27920   1.431   1.600   0.397  1.2565  0.1150  0.4567
  927MOL0     H27921   1.401   1.777   0.385 -1.3983 -2.5386 -1.9932
  927MOL0     H27922   1.079   1.673   0.617 -1.0555  0.8860 -3.0251
  927MOL0     H27923   1.471   1.915   0.867  0.0370  2.1550  1.6490
  927MOL0     H27924   1.599   2.124   1.124 -0.8441  0.0900  1.4333
  927MOL0     H27925   1.470   2.105   1.005 -0.0986  2.0254  0.7471
  927MOL0     H27926   1.445   2.062   1.172 -0.7320  1.3184 -0.9250
  928MOL0     O27927   1.566   0.312   7.020  0.4019 -0.9801 -0.2442
  928MOL0     C27928   1.576   0.212   7.082 -0.4013  1.1501 -0.3343
  928MOL0     O27929   1.693   0.160   7.129  0.7379  0.1157 -0.1093
  928MOL0     C27930   1.810   0.220   7.089  0.5884 -0.1056  0.5802
  928MOL0     C27931   1.896   0.154   6.994  0.1026 -0.4841  0.4349
  928MOL0     C27932   2.003   0.228   6.946  0.4479 -0.2804  0.3049
  928MOL0     C27933   2.045   0.344   7.001 -0.1396  0.1504 -0.2372
  928MOL0     O27934   2.145   0.418   6.943  0.5368 -0.1220  0.1269
  928MOL0     C27935   2.252   0.359   6.868 -0.5064 -0.2118  0.6421
  928MOL0     C27936   2.223   0.384   6.717 -0.0535  0.8952 -0.0984
  928MOL0     C27937   2.339   0.319   6.631  0.8515  0.9754 -0.5024
  928MOL0     C27938   2.442   0.418   6.585 -0.0778  0.1487 -0.2579
  928MOL0     C27939   2.513   0.376   6.459 -0.8253  0.1177  0.0642
  928MOL0     C27940   2.624   0.478   6.433 -0.2964  0.3610  0.7594
  928MOL0     C27941   2.717   0.409   6.331 -0.3624  1.1902  0.6793
  928MOL0     C27942   2.827   0.507   6.289 -0.1728 -0.2880 -0.0351
  928MOL0     N27943   2.916   0.556   6.399  0.4975  0.2323 -0.7447
  928MOL0     C27944   2.918   0.679   6.455 -0.5557  0.5317 -1.1272
  928MOL0     C27945   3.020   0.676   6.537 -0.3988  0.3654 -0.4814
  928MOL0     C27946   3.071   0.794   6.620  0.6366  0.0475  1.4311
  928MOL0     C27947   3.143   0.893   6.529  0.0191 -0.4709  0.4770
  928MOL0     C27948   3.229   0.990   6.608 -1.4582 -0.1553 -0.9646
  928MOL0     C27949   3.363   0.925   6.647 -0.1304 -1.2836  0.7257
  928MOL0     O27950   3.451   1.030   6.696 -0.6400  1.1991  0.7407
  928MOL0     C27951   3.561   0.999   6.782  0.9915  0.1453 -0.1042
  928MOL0     C27952   3.625   1.097   6.847 -0.1269 -0.2956 -0.1098
  928MOL0     C27953   3.731   1.076   6.937 -0.2761  0.8458  0.2165
  928MOL0     C27954   3.802   1.190   7.006 -0.1748  0.5068 -0.3766
  928MOL0     C27955   3.784   0.950   6.951  0.8684  0.5406  0.1265
  928MOL0     C27956   3.903   0.912   7.032 -0.8276 -0.1023  1.1238
  928MOL0     O27957   3.885   0.898   7.164  0.0298 -0.0361 -0.0900
  928MOL0     C27958   3.996   0.903   7.244 -0.3967  0.6191 -0.5565
  928MOL0     C27959   4.076   0.789   7.248 -0.5282  0.2532 -0.5357
  928MOL0     C27960   4.193   0.793   7.319 -0.4312 -0.5414 -0.0739
  928MOL0     C27961   4.237   0.907   7.380 -1.0667  0.1726  0.2418
  928MOL0     O27962   4.358   0.891   7.447 -0.3267  0.1197 -0.3521
  928MOL0     C27963   4.394   0.971   7.570  0.2915 -1.0540  1.2761
  928MOL0     C27964   4.488   0.889   7.653 -0.7496 -0.1183 -0.9643
  928MOL0     C27965   4.587   0.975   7.739 -0.1964 -0.1847 -0.0196
  928MOL0     C27966   4.670   0.902   7.839  0.2124 -0.2585  0.6944
  928MOL0     C27967   4.778   0.992   7.893 -1.1779  0.3333 -0.5997
  928MOL0     C27968   4.850   0.937   8.019 -0.1327  0.2962  0.1854
  928MOL0     C27969   4.956   1.052   8.061 -0.3511  0.6025 -0.2214
  928MOL0     C27970   5.054   1.001   8.170  0.9750 -0.3472 -0.5160
  928MOL0    Cl27971   4.974   0.904   8.296 -0.0333  0.1326 -0.4281
  928MOL0     C27972   4.155   1.020   7.375 -0.1022  0.0628 -0.1186
  928MOL0     C27973   4.035   1.017   7.305 -0.5797  0.1058  0.5479
  928MOL0     O27974   4.012   0.914   6.976  0.3809  0.6406 -0.2703
  928MOL0     C27975   3.717   0.840   6.882  0.3802  0.1380 -0.0640
  928MOL0     C27976   3.602   0.866   6.801 -0.1995 -0.2101  0.7238
  928MOL0     N27977   3.071   0.549   6.548 -0.4395  0.4436  0.1538
  928MOL0     N27978   3.008   0.475   6.459 -0.9616  0.3369 -0.6598
  928MOL0     C27979   1.968   0.403   7.106  0.2861  1.4440  0.1092
  928MOL0     C27980   1.853   0.337   7.146  0.6415  0.0402  0.0522
  928MOL0     C27981   1.462   0.119   7.107 -0.8450 -0.4920 -0.9769
  928MOL0     C27982   1.497  -0.001   7.176 -0.2353  1.2915  0.2907
  928MOL0     C27983   1.394  -0.075   7.230  0.1404  0.1280 -0.2236
  928MOL0     C27984   1.257  -0.042   7.213 -0.3840 -0.1744 -0.3865
  928MOL0     O27985   1.158  -0.126   7.252 -0.0940 -0.2113  0.1618
  928MOL0     C27986   1.178  -0.228   7.352 -0.5631  0.4214 -0.3684
  928MOL0     C27987   1.055  -0.319   7.371  0.1086 -0.2387 -0.3270
  928MOL0     C27988   1.057  -0.420   7.483 -0.0344 -0.7551 -0.2097
  928MOL0     C27989   0.947  -0.519   7.464 -0.2315  0.4448 -0.0654
  928MOL0     C27990   0.938  -0.615   7.585  0.2506 -0.3758 -0.5442
  928MOL0     C27991   0.928  -0.695   7.672  0.0895  0.2989 -0.0313
  928MOL0     C27992   1.227   0.075   7.142 -0.1718 -0.1088 -0.4892
  928MOL0     C27993   1.329   0.146   7.088  0.8010 -0.7098 -0.4759
  928MOL0     C27994   1.284   0.264   7.016  0.2158 -0.0896  0.7758
  928MOL0     H27995   1.879   0.053   6.957 -1.8671 -0.1981  0.4283
  928MOL0     H27996   2.066   0.189   6.866  2.1031  0.5254  1.1545
  928MOL0     H27997   2.270   0.252   6.886 -1.5417 -0.3434  0.9988
  928MOL0     H27998   2.348   0.407   6.887  0.2419 -1.1692 -0.5805
  928MOL0     H27999   2.131   0.333   6.688  0.6682 -0.9438  0.6743
  928MOL0     H28000   2.209   0.489   6.691  0.1194  0.8239 -0.4765
  928MOL0     H28001   2.380   0.227   6.673  0.9322  1.0335 -0.4539
  928MOL0     H28002   2.282   0.285   6.544 -1.0492  2.7452 -0.0383
  928MOL0     H28003   2.391   0.513   6.566 -1.8935 -0.7812 -0.2197
  928MOL0     H28004   2.524   0.438   6.655  0.0693  2.7182 -1.0651
  928MOL0     H28005   2.445   0.378   6.374  1.9977 -1.6140 -2.4200
  928MOL0     H28006   2.550   0.275   6.476 -0.1998  0.2212 -0.6319
  928MOL0     H28007   2.577   0.569   6.393 -3.2295 -0.7041  1.5424
  928MOL0     H28008   2.689   0.501   6.518 -0.1967  0.8068  0.5659
  928MOL0     H28009   2.662   0.380   6.241  1.9571 -1.8461  0.0778
  928MOL0     H28010   2.760   0.318   6.373 -1.3362 -0.1375 -1.0731
  928MOL0     H28011   2.896   0.465   6.216 -0.6816 -0.8458 -0.2024
  928MOL0     H28012   2.783   0.592   6.235  1.3320  0.3528 -0.3080
  928MOL0     H28013   2.852   0.762   6.432 -0.8413  0.4864 -0.5128
  928MOL0     H28014   3.137   0.748   6.694  1.2794  1.1043  1.5297
  928MOL0     H28015   2.988   0.837   6.676 -0.4426 -2.9302  2.3154
  928MOL0     H28016   3.215   0.831   6.476  2.7824  0.8890  2.3822
  928MOL0     H28017   3.072   0.942   6.462  0.1805 -0.2235  0.4855
  928MOL0     H28018   3.249   1.080   6.550 -0.4833  0.5999  0.4697
  928MOL0     H28019   3.180   1.029   6.698  1.0500  2.0977 -0.4372
  928MOL0     H28020   3.334   0.858   6.729 -2.6018 -0.8224  0.3155
  928MOL0     H28021   3.412   0.868   6.568 -0.7100  1.7808 -2.0870
  928MOL0     H28022   3.591   1.199   6.828  1.3789  0.3585  0.5534
  928MOL0     H28023   3.772   1.203   7.110 -3.9536 -1.6810 -1.0253
  928MOL0     H28024   3.791   1.284   6.950  0.9866  1.5741  1.0902
  928MOL0     H28025   3.910   1.175   6.997 -0.6606 -2.0056 -5.5135
  928MOL0     H28026   4.027   0.708   7.194 -0.2947  1.3175 -2.4256
  928MOL0     H28027   4.251   0.703   7.340  0.4365 -0.2322 -1.0654
  928MOL0     H28028   4.439   1.063   7.532  0.6567 -0.4331  3.1489
  928MOL0     H28029   4.311   0.997   7.636  0.2577  1.3845  0.3971
  928MOL0     H28030   4.439   0.826   7.728  0.6625  1.3754  1.3453
  928MOL0     H28031   4.546   0.827   7.585 -1.1456  1.3237 -2.6918
  928MOL0     H28032   4.542   1.056   7.798  1.1438  0.9588 -0.4923
  928MOL0     H28033   4.649   1.035   7.671  0.0563  0.9023  1.1171
  928MOL0     H28034   4.715   0.814   7.792  0.3692 -0.4327  1.1582
  928MOL0     H28035   4.604   0.871   7.921 -0.0252 -2.3765 -0.2225
  928MOL0     H28036   4.857   1.018   7.822 -0.5445 -1.0949 -0.4480
  928MOL0     H28037   4.734   1.089   7.920 -1.1350  0.9929 -2.7584
  928MOL0     H28038   4.898   0.842   7.995 -0.2606 -0.3452  2.2828
  928MOL0     H28039   4.783   0.906   8.100  0.9672 -2.5883  0.0817
  928MOL0     H28040   4.901   1.143   8.086 -0.6300  0.4690 -0.3487
  928MOL0     H28041   5.008   1.063   7.965 -0.9019 -0.3190 -0.6329
  928MOL0     H28042   5.114   1.085   8.208  0.7074 -0.6102  0.5182
  928MOL0     H28043   5.119   0.930   8.119 -0.4413 -2.3567  0.3316
  928MOL0     H28044   4.185   1.113   7.422  2.4150 -0.5424 -0.3796
  928MOL0     H28045   3.971   1.104   7.302 -0.8994 -0.1484 -1.3052
  928MOL0     H28046   3.760   0.742   6.894  1.8244  0.8488  0.7963
  928MOL0     H28047   3.547   0.786   6.751  1.7652 -1.1626 -0.0253
  928MOL0     H28048   2.014   0.488   7.154  2.2890 -0.1533  1.1903
  928MOL0     H28049   1.795   0.387   7.223  2.0762  1.2274  0.4041
  928MOL0     H28050   1.599  -0.034   7.191 -0.0438 -0.0393 -3.1746
  928MOL0     H28051   1.429  -0.163   7.283 -1.1513  0.9484  2.1077
  928MOL0     H28052   1.249  -0.303   7.319 -0.5891  0.5604 -0.7451
  928MOL0     H28053   1.218  -0.188   7.446 -1.1045  2.0968 -0.8049
  928MOL0     H28054   1.031  -0.360   7.273 -0.6437  2.3172 -1.2884
  928MOL0     H28055   0.973  -0.250   7.394  1.7454  1.4305  0.7888
  928MOL0     H28056   1.155  -0.468   7.485  0.0244 -0.6315 -0.0947
  928MOL0     H28057   1.040  -0.376   7.582  2.3151  1.6213 -0.7495
  928MOL0     H28058   0.966  -0.583   7.377 -0.4748 -0.6594  0.6702
  928MOL0     H28059   0.852  -0.467   7.451 -0.9211 -0.8895 -0.6036
  928MOL0     H28060   0.908  -0.769   7.747 -1.2251  2.7293  2.1502
  928MOL0     H28061   1.126   0.112   7.134  0.4608  1.9656  0.3629
  928MOL0     H28062   1.177   0.258   6.993 -0.4064  1.8005  2.8074
  928MOL0     H28063   1.295   0.354   7.077  3.4663  0.4609 -0.4531
  928MOL0     H28064   1.336   0.271   6.921  0.5945 -1.2962  0.8824
  929MOL0     O28065   9.734   3.873   8.814 -0.5896  0.4557 -0.1453
  929MOL0     C28066   9.700   3.964   8.737 -0.3501 -0.0316 -0.0350
  929MOL0     O28067   9.780   4.073   8.709 -0.1767 -0.5022 -0.4459
  929MOL0     C28068   9.890   4.094   8.791 -0.8048  0.6810 -0.0677
  929MOL0     C28069   9.996   4.003   8.772  0.4500 -0.1809  0.5639
  929MOL0     C28070  10.115   4.021   8.840 -0.5359  0.9534 -0.1259
  929MOL0     C28071  10.134   4.129   8.935  0.6231 -0.2870  0.2101
  929MOL0     O28072  10.254   4.136   8.999  0.0633  1.0076  0.1596
  929MOL0     C28073  10.256   4.156   9.144 -0.2293 -0.1666 -0.2111
  929MOL0     C28074  10.407   4.189   9.185  1.2669 -0.4180  0.3607
  929MOL0     C28075  10.519   4.100   9.116  0.1427  0.1236  0.4361
  929MOL0     C28076  10.657   4.133   9.179  0.6181  0.2422 -0.1673
  929MOL0     C28077  10.761   4.059   9.104  0.1939  0.0240 -0.8034
  929MOL0     C28078  10.914   4.050   9.144  0.2911 -0.2435  0.3840
  929MOL0     C28079  10.963   4.192   9.178  0.2491 -0.2037 -0.3281
  929MOL0     C28080  11.091   4.187   9.270 -0.6276 -0.4189 -0.8185
  929MOL0     N28081  11.209   4.114   9.218  0.8328  0.4527  0.4532
  929MOL0     C28082  11.247   3.995   9.274  0.0627 -0.2477  0.2419
  929MOL0     C28083  11.349   3.945   9.186 -1.1755 -0.1968 -0.2522
  929MOL0     C28084  11.423   3.817   9.209 -0.0744 -0.3834 -0.1585
  929MOL0     C28085  11.477   3.760   9.080 -0.3690  0.0003 -0.4828
  929MOL0     C28086  11.576   3.649   9.103  0.9866 -0.1507 -0.4858
  929MOL0     C28087  11.640   3.613   8.964  0.3538 -0.6822 -0.2331
  929MOL0     O28088  11.688   3.477   8.953 -0.1059  0.6067 -0.2496
  929MOL0     C28089  11.776   3.435   9.049 -0.2954  0.3093  0.2550
  929MOL0     C28090  11.906   3.491   9.053  0.0799  0.0374  0.8060
  929MOL0     C28091  12.002   3.460   9.147  0.3607  0.1184  1.0560
  929MOL0     C28092  12.137   3.526   9.154  0.1749 -0.6551 -1.8430
  929MOL0     C28093  11.967   3.360   9.238 -0.7894  0.2373  1.0188
  929MOL0     C28094  12.055   3.315   9.352  0.8250  0.1477 -0.1220
  929MOL0     O28095  12.074   3.178   9.353  0.0073 -0.0138  0.1107
  929MOL0     C28096  12.127   3.128   9.468  0.3832  0.1931 -0.3533
  929MOL0     C28097  12.264   3.089   9.475 -0.2211  0.0771  0.1493
  929MOL0     C28098  12.319   3.053   9.599  0.2069  0.2047 -0.0548
  929MOL0     C28099  12.238   3.036   9.713  0.5070 -0.3587 -0.7305
  929MOL0     O28100  12.275   3.003   9.844 -0.7610  0.4973  0.6937
  929MOL0     C28101  12.407   2.966   9.866 -0.0490  0.7140 -0.0809
  929MOL0     C28102  12.454   2.973  10.015 -0.0775  0.7154  0.6145
  929MOL0     C28103  12.538   2.855  10.051 -0.4110  0.4931 -0.1285
  929MOL0     C28104  12.577   2.864  10.195  0.3855 -0.1334  0.2438
  929MOL0     C28105  12.631   2.729  10.234 -0.4435  0.2657 -0.1898
  929MOL0     C28106  12.768   2.714  10.173 -0.0557  0.1724 -1.0146
  929MOL0     C28107  12.850   2.616  10.254 -0.0767  0.3707  0.3671
  929MOL0     C28108  12.797   2.473  10.237  0.1692  0.2554  0.3855
  929MOL0    Cl28109  12.842   2.404  10.077  0.1495  0.0415  0.0341
  929MOL0     C28110  12.096   3.065   9.706 -0.2408 -1.1708  0.1878
  929MOL0     C28111  12.045   3.115   9.580  0.3872 -0.0308 -0.1340
  929MOL0     O28112  12.094   3.400   9.448  0.5253  0.5973  0.2840
  929MOL0     C28113  11.846   3.290   9.224  0.7102  0.6382 -0.5613
  929MOL0     C28114  11.747   3.327   9.135  0.0393 -0.6745 -0.4648
  929MOL0     N28115  11.361   4.039   9.082  0.1918 -0.6486  0.1916
  929MOL0     N28116  11.290   4.142   9.118 -0.1708  0.0798  0.5500
  929MOL0     C28117  10.025   4.212   8.955 -0.3174 -0.1368 -0.4974
  929MOL0     C28118   9.901   4.195   8.895 -0.3753 -0.3191 -0.0894
  929MOL0     C28119   9.566   3.960   8.662 -0.6004  0.3470  0.6068
  929MOL0     C28120   9.535   4.055   8.562 -1.0258  0.9463 -0.1167
  929MOL0     C28121   9.424   4.051   8.489 -0.9573  0.1823  0.2522
  929MOL0     C28122   9.326   3.958   8.515 -0.3576  0.5013 -0.5215
  929MOL0     O28123   9.206   3.965   8.460  0.0791  0.2218  0.1861
  929MOL0     C28124   9.176   4.032   8.331  0.3680  0.6801  0.1370
  929MOL0     C28125   9.032   4.023   8.281  0.3607 -0.6915  0.4320
  929MOL0     C28126   9.010   3.899   8.195 -0.6735 -0.4669  0.1479
  929MOL0     C28127   9.010   3.767   8.267  0.2841  0.0503 -0.8960
  929MOL0     C28128   8.928   3.773   8.389  0.5531 -0.0548  0.6798
  929MOL0     C28129   8.860   3.784   8.498 -0.0049 -0.3400  0.3751
  929MOL0     C28130   9.344   3.872   8.625 -0.0410 -0.4946  0.0284
  929MOL0     C28131   9.463   3.870   8.700  0.1888  0.0097  0.2439
  929MOL0     C28132   9.467   3.766   8.814 -0.4054 -0.3040  0.4438
  929MOL0     H28133  10.000   3.915   8.708  2.4411 -0.5460  1.1054
  929MOL0     H28134  10.200   3.955   8.831 -1.2984 -0.1611  0.6697
  929MOL0     H28135  10.224   4.075   9.211 -0.8346  2.0384  2.3501
  929MOL0     H28136  10.198   4.243   9.174 -1.1077 -0.9545  0.4405
  929MOL0     H28137  10.419   4.296   9.169  1.8740 -0.7747 -1.7702
  929MOL0     H28138  10.417   4.171   9.293 -0.0195 -1.3279  0.3550
  929MOL0     H28139  10.491   3.997   9.137  0.8920 -0.2333 -0.2705
  929MOL0     H28140  10.524   4.119   9.008  3.6032 -1.3731  0.2059
  929MOL0     H28141  10.679   4.239   9.163  1.1738  0.2623  0.6414
  929MOL0     H28142  10.662   4.110   9.286 -1.2781 -1.6988 -0.4322
  929MOL0     H28143  10.761   4.107   9.006  0.5953 -0.4623 -1.0468
  929MOL0     H28144  10.724   3.956   9.101 -1.4040  0.5345  0.1874
  929MOL0     H28145  10.927   3.987   9.232 -0.0570 -1.5355 -0.4695
  929MOL0     H28146  10.974   3.997   9.070 -1.0733  0.1489 -1.0689
  929MOL0     H28147  10.896   4.253   9.239  2.9543  1.7988  0.8385
  929MOL0     H28148  10.992   4.255   9.094  0.8023 -0.7603 -0.5559
  929MOL0     H28149  11.123   4.290   9.287 -1.9641 -0.1777  0.4403
  929MOL0     H28150  11.068   4.145   9.369  3.2572 -2.5262 -0.5942
  929MOL0     H28151  11.210   3.941   9.360  1.6931  1.3357  2.0173
  929MOL0     H28152  11.356   3.748   9.260 -1.4784  1.6232  0.8367
  929MOL0     H28153  11.504   3.841   9.279  0.5571 -0.8379 -0.7194
  929MOL0     H28154  11.397   3.721   9.017  0.8750 -0.5114 -1.8289
  929MOL0     H28155  11.515   3.841   9.018 -2.3014  1.7948  0.5775
  929MOL0     H28156  11.659   3.655   9.173 -0.0420 -0.3071  0.7770
  929MOL0     H28157  11.523   3.565   9.149  2.6383 -1.6251 -1.1469
  929MOL0     H28158  11.565   3.641   8.889  0.2470 -1.5349 -0.4590
  929MOL0     H28159  11.727   3.677   8.945  0.8169 -1.5264 -1.0437
  929MOL0     H28160  11.927   3.567   8.978 -3.3814  2.6941  2.2281
  929MOL0     H28161  12.196   3.435   9.146 -0.1562 -1.2414  1.2472
  929MOL0     H28162  12.166   3.573   9.249 -0.2933 -0.4950 -1.7758
  929MOL0     H28163  12.146   3.594   9.069 -2.9149  3.3791  0.6822
  929MOL0     H28164  12.315   3.101   9.380 -1.6962  3.1450 -0.3812
  929MOL0     H28165  12.428   3.050   9.603  0.1804 -1.5879  0.2116
  929MOL0     H28166  12.427   2.862   9.838  2.5163  0.3505  2.5990
  929MOL0     H28167  12.468   3.039   9.812 -0.8319  0.9498 -0.6682
  929MOL0     H28168  12.501   3.068  10.042 -0.1358  1.9479 -3.0879
  929MOL0     H28169  12.370   2.974  10.086  0.0506  1.3240  0.7648
  929MOL0     H28170  12.629   2.853   9.990  0.0244 -0.6320  0.5256
  929MOL0     H28171  12.480   2.764  10.031  0.9645 -0.5206  0.3730
  929MOL0     H28172  12.483   2.879  10.250  0.9790 -1.6946  1.7564
  929MOL0     H28173  12.650   2.941  10.222 -0.6581  0.5934  1.0985
  929MOL0     H28174  12.643   2.719  10.342 -1.2780 -0.8596 -0.1767
  929MOL0     H28175  12.558   2.651  10.210 -1.2691  0.4568  1.5416
  929MOL0     H28176  12.823   2.809  10.168  1.3730 -0.4914  0.7043
  929MOL0     H28177  12.770   2.672  10.072  0.9641  0.9193 -1.3239
  929MOL0     H28178  12.866   2.638  10.360  1.4545 -0.5290  0.3564
  929MOL0     H28179  12.951   2.630  10.215 -0.2528  3.6022  0.8147
  929MOL0     H28180  12.687   2.474  10.233  0.1034  1.4704  1.9433
  929MOL0     H28181  12.825   2.403  10.315  0.3257 -3.4411 -2.6759
  929MOL0     H28182  12.027   3.032   9.783  0.1578 -0.5283  0.8359
  929MOL0     H28183  11.943   3.152   9.581  1.7085  4.5463  3.4151
  929MOL0     H28184  11.830   3.207   9.293  2.5519  1.5821  1.1181
  929MOL0     H28185  11.645   3.289   9.130 -1.5613  3.0515  0.2268
  929MOL0     H28186  10.043   4.293   9.025 -1.2201 -1.5458  1.4569
  929MOL0     H28187   9.821   4.264   8.920  0.0884  0.0050  0.5159
  929MOL0     H28188   9.607   4.130   8.532 -2.4447  1.8748 -1.3178
  929MOL0     H28189   9.419   4.107   8.396  1.6207  2.4993  1.3823
  929MOL0     H28190   9.200   4.138   8.333 -0.8835  0.9716  0.8163
  929MOL0     H28191   9.245   3.999   8.253 -0.5293  2.0395 -1.2817
  929MOL0     H28192   9.013   4.104   8.210  1.0893 -2.5048 -1.9828
  929MOL0     H28193   8.960   4.029   8.363  0.9603 -3.9337  1.3531
  929MOL0     H28194   8.911   3.915   8.151 -0.8371 -1.3321  0.1941
  929MOL0     H28195   9.086   3.886   8.118  0.5236 -2.0827  1.5541
  929MOL0     H28196   9.111   3.741   8.300 -0.2218 -0.4908  0.2397
  929MOL0     H28197   8.964   3.693   8.201 -0.4553 -0.2770 -0.0139
  929MOL0     H28198   8.800   3.802   8.585 -1.6655 -1.2437 -0.5260
  929MOL0     H28199   9.261   3.807   8.649  0.1487 -2.3661 -3.6434
  929MOL0     H28200   9.564   3.729   8.848  1.0071  1.9200 -0.8797
  929MOL0     H28201   9.414   3.796   8.904 -0.7608 -0.4027  0.2696
  929MOL0     H28202   9.415   3.675   8.785  1.1795 -0.7101 -1.3453
  930MOL0     O28203   7.408   0.792   8.176  1.0421 -0.8368  0.4039
  930MOL0     C28204   7.407   0.736   8.284 -0.3182  0.7813  0.2192
  930MOL0     O28205   7.314   0.647   8.318 -0.2183  0.0910  0.6547
  930MOL0     C28206   7.208   0.633   8.239  0.1605  0.3458  0.1369
  930MOL0     C28207   7.210   0.509   8.164  0.2085  0.5878  0.1348
  930MOL0     C28208   7.098   0.470   8.084 -0.3080 -0.8739  0.4326
  930MOL0     C28209   6.990   0.563   8.064  0.1925 -0.5132  0.1595
  930MOL0     O28210   6.868   0.534   8.003 -0.0821  0.4624 -0.1372
  930MOL0     C28211   6.804   0.411   8.044 -0.9518  0.7823  0.6068
  930MOL0     C28212   6.676   0.398   7.967 -0.1966  0.4617 -0.2121
  930MOL0     C28213   6.685   0.403   7.817  0.1207  1.0386 -0.4278
  930MOL0     C28214   6.765   0.276   7.749  0.0362 -1.1078 -0.3104
  930MOL0     C28215   6.810   0.283   7.612 -0.0842  0.4463  0.4001
  930MOL0     C28216   6.688   0.285   7.522 -1.0723 -0.7026  0.5616
  930MOL0     C28217   6.721   0.312   7.373  0.8954  0.0230 -0.4230
  930MOL0     C28218   6.609   0.384   7.292 -0.1381  0.5797  0.1544
  930MOL0     N28219   6.476   0.315   7.284 -0.6902  0.2164  0.3690
  930MOL0     C28220   6.459   0.177   7.276  0.3018 -0.2892 -0.2180
  930MOL0     C28221   6.325   0.181   7.266  0.0791  0.4774  0.4004
  930MOL0     C28222   6.222   0.070   7.254  0.5110  0.1304 -0.1690
  930MOL0     C28223   6.276  -0.056   7.180  0.1297 -0.0912 -0.3956
  930MOL0     C28224   6.310  -0.028   7.030 -0.5884 -0.5072  0.4737
  930MOL0     C28225   6.443  -0.097   6.980 -0.0269  0.0709 -0.2198
  930MOL0     O28226   6.549  -0.065   7.068 -0.4529  0.5063 -0.5347
  930MOL0     C28227   6.644   0.033   7.038 -0.1076  0.5311  0.2545
  930MOL0     C28228   6.642   0.122   6.929  0.0164 -0.9461 -0.7119
  930MOL0     C28229   6.742   0.213   6.898  0.1228 -0.0589  0.1930
  930MOL0     C28230   6.703   0.316   6.803 -0.3136 -0.5346  0.7881
  930MOL0     C28231   6.860   0.221   6.980  0.6499 -0.3049  1.2440
  930MOL0     C28232   6.969   0.322   6.959  0.6570 -0.8173  0.9291
  930MOL0     O28233   6.988   0.358   6.826 -0.3468 -0.1087 -0.4264
  930MOL0     C28234   7.103   0.427   6.803 -1.2532 -0.2354 -0.1520
  930MOL0     C28235   7.084   0.538   6.728  0.1396 -0.1702  0.6719
  930MOL0     C28236   7.182   0.621   6.682 -0.9795  0.0258 -0.5395
  930MOL0     C28237   7.314   0.591   6.716  0.6196 -0.6337 -0.0888
  930MOL0     O28238   7.415   0.679   6.683  0.0617  0.6481  0.2848
  930MOL0     C28239   7.553   0.648   6.701  0.3464  0.2353 -0.0151
  930MOL0     C28240   7.593   0.693   6.840 -0.9917 -0.4344 -0.2852
  930MOL0     C28241   7.747   0.658   6.864 -0.6662  0.5426 -0.7903
  930MOL0     C28242   7.800   0.700   7.003  0.2940  0.4195  0.5515
  930MOL0     C28243   7.952   0.671   7.030 -0.4103 -0.0229  0.3492
  930MOL0     C28244   8.036   0.778   6.972 -0.1158 -0.0914 -0.1764
  930MOL0     C28245   8.193   0.744   6.977 -0.0067 -0.4948 -0.2302
  930MOL0     C28246   8.283   0.849   6.910 -0.8072  0.3221  0.3208
  930MOL0    Cl28247   8.273   1.003   7.004  0.1613 -0.4244  0.1089
  930MOL0     C28248   7.342   0.471   6.784  1.0288  0.5516 -0.3736
  930MOL0     C28249   7.236   0.393   6.845  0.2684 -0.7910  0.7179
  930MOL0     O28250   7.024   0.369   7.060  0.8758 -0.2172 -0.3177
  930MOL0     C28251   6.859   0.129   7.085  0.5477 -0.6364 -0.5254
  930MOL0     C28252   6.761   0.041   7.115  0.0677  0.2628  0.2052
  930MOL0     N28253   6.270   0.305   7.286 -0.7039 -0.3400  0.0825
  930MOL0     N28254   6.365   0.386   7.295 -0.2975  0.5231  0.7686
  930MOL0     C28255   6.995   0.676   8.140 -0.1403 -0.1934 -0.8690
  930MOL0     C28256   7.095   0.711   8.232  0.0975 -1.5818  0.3574
  930MOL0     C28257   7.505   0.769   8.391 -0.0962  1.0091  0.4144
  930MOL0     C28258   7.476   0.744   8.529  0.3370 -0.8690  0.1376
  930MOL0     C28259   7.568   0.773   8.634  0.0245  1.0106 -0.1861
  930MOL0     C28260   7.685   0.843   8.604 -0.5956 -0.2345  0.2867
  930MOL0     O28261   7.769   0.875   8.705 -0.8749  0.1437  0.3493
  930MOL0     C28262   7.712   0.978   8.780 -0.0832  0.6071 -0.3342
  930MOL0     C28263   7.821   1.036   8.875 -0.9951  0.3237 -0.1310
  930MOL0     C28264   7.913   1.131   8.786  0.4982  0.2712 -0.2666
  930MOL0     C28265   7.994   1.226   8.876  0.3961 -0.0290 -0.3802
  930MOL0     C28266   8.073   1.313   8.793  0.1150  0.0110 -0.2589
  930MOL0     C28267   8.139   1.370   8.715 -1.4359 -0.0305  0.7971
  930MOL0     C28268   7.720   0.867   8.473  0.8369 -0.8520  0.0798
  930MOL0     C28269   7.630   0.834   8.364 -0.1323  0.7101  0.1291
  930MOL0     C28270   7.681   0.853   8.228 -1.1545 -0.5675  0.4525
  930MOL0     H28271   7.289   0.434   8.171 -0.5714 -0.7317 -3.1715
  930MOL0     H28272   7.091   0.378   8.026 -2.0429  0.4465 -1.5738
  930MOL0     H28273   6.777   0.409   8.150  0.6822  0.7357  1.0425
  930MOL0     H28274   6.871   0.327   8.022 -2.5753 -1.1873  2.6341
  930MOL0     H28275   6.639   0.298   7.991  1.6111 -0.1093  0.3261
  930MOL0     H28276   6.606   0.473   8.007 -0.7353 -0.7788  1.2797
  930MOL0     H28277   6.584   0.407   7.775  0.4740 -0.9875 -1.6092
  930MOL0     H28278   6.736   0.494   7.786 -0.6294  2.1947  1.5789
  930MOL0     H28279   6.847   0.258   7.819  1.8579  2.1258 -1.4297
  930MOL0     H28280   6.701   0.187   7.761  0.5333 -1.3339  0.8738
  930MOL0     H28281   6.887   0.208   7.590  1.0113  1.0853  1.8654
  930MOL0     H28282   6.857   0.382   7.609 -4.0785  2.5241  0.2309
  930MOL0     H28283   6.627   0.197   7.544 -3.8963  0.8532 -0.5093
  930MOL0     H28284   6.631   0.375   7.547 -0.1767  0.5888 -1.6369
  930MOL0     H28285   6.739   0.216   7.325  0.8214  0.6674 -1.7898
  930MOL0     H28286   6.808   0.378   7.372  1.9459 -1.1842  2.6009
  930MOL0     H28287   6.594   0.489   7.321  3.4568  1.2887 -0.1256
  930MOL0     H28288   6.654   0.397   7.193  2.0383  2.8532  1.3185
  930MOL0     H28289   6.531   0.096   7.273  0.4971 -0.0963 -1.0688
  930MOL0     H28290   6.135   0.104   7.198  1.5664  0.3470 -1.7274
  930MOL0     H28291   6.168   0.029   7.340 -3.7583 -1.4038 -3.2748
  930MOL0     H28292   6.369  -0.098   7.219 -0.2504 -2.2888 -1.6780
  930MOL0     H28293   6.200  -0.135   7.182 -0.9116  0.8793  0.0053
  930MOL0     H28294   6.230  -0.049   6.959 -0.5893  1.1980 -0.0471
  930MOL0     H28295   6.324   0.080   7.020 -0.4590 -0.6238 -0.7588
  930MOL0     H28296   6.433  -0.206   6.986 -1.2442  0.0651 -1.8718
  930MOL0     H28297   6.466  -0.067   6.878 -1.4287  1.1957 -0.2368
  930MOL0     H28298   6.552   0.116   6.869 -0.5609 -0.4468  0.0807
  930MOL0     H28299   6.729   0.415   6.841  2.2045 -0.9822  0.4201
  930MOL0     H28300   6.596   0.304   6.783 -0.0729 -1.9832  0.2511
  930MOL0     H28301   6.754   0.310   6.706 -0.0182  2.1585  0.7069
  930MOL0     H28302   6.982   0.574   6.718  0.0130 -0.3020  1.4751
  930MOL0     H28303   7.156   0.708   6.623 -0.4870 -0.1424 -1.0074
  930MOL0     H28304   7.575   0.542   6.683  1.3921  0.6447 -1.3275
  930MOL0     H28305   7.614   0.692   6.622 -2.2832 -0.1910 -2.4719
  930MOL0     H28306   7.582   0.802   6.846  2.5047 -0.0112  1.4584
  930MOL0     H28307   7.529   0.641   6.912  0.7443 -1.5625  0.5114
  930MOL0     H28308   7.817   0.703   6.793 -1.3335  1.2409 -1.0204
  930MOL0     H28309   7.747   0.549   6.857 -2.2726  0.4161  0.3997
  930MOL0     H28310   7.744   0.645   7.079 -0.5327  2.7275  1.7176
  930MOL0     H28311   7.773   0.805   7.015  1.2011  0.8719 -1.0982
  930MOL0     H28312   7.968   0.673   7.139 -0.0681 -1.6042  0.3519
  930MOL0     H28313   7.983   0.576   6.985 -1.5440 -0.9529  1.4497
  930MOL0     H28314   8.024   0.870   7.029  3.2787 -0.7482  1.9000
  930MOL0     H28315   8.001   0.790   6.869 -2.2858  3.6315  0.8062
  930MOL0     H28316   8.201   0.649   6.922 -0.2329 -1.2463  1.0031
  930MOL0     H28317   8.238   0.738   7.077  1.9863  1.0809 -0.9530
  930MOL0     H28318   8.264   0.855   6.802 -0.1275  1.3732  0.2471
  930MOL0     H28319   8.387   0.822   6.926 -1.6899 -2.2308  2.4439
  930MOL0     H28320   7.443   0.433   6.797 -0.1111 -2.2920  1.2235
  930MOL0     H28321   7.262   0.300   6.894  2.9531 -2.6341 -3.6383
  930MOL0     H28322   6.943   0.124   7.154 -0.2518 -0.4658  0.4759
  930MOL0     H28323   6.790  -0.032   7.190  1.3287  0.6915  0.1561
  930MOL0     H28324   6.914   0.747   8.128 -1.4106 -1.5705 -0.7804
  930MOL0     H28325   7.093   0.812   8.272  0.4680 -0.9100 -1.2518
  930MOL0     H28326   7.382   0.695   8.552 -0.1680 -0.3473 -0.7884
  930MOL0     H28327   7.544   0.744   8.736  0.6508 -0.9246 -0.5366
  930MOL0     H28328   7.662   1.048   8.713 -1.2797 -1.2687 -1.5048
  930MOL0     H28329   7.635   0.937   8.847  0.4946 -0.4296 -0.2911
  930MOL0     H28330   7.886   0.966   8.928  1.0958 -0.6111 -3.6173
  930MOL0     H28331   7.767   1.098   8.947 -1.3886  1.6460 -1.5058
  930MOL0     H28332   7.970   1.069   8.717 -3.6002 -2.5294 -1.5078
  930MOL0     H28333   7.846   1.195   8.728 -0.9598  0.3001  1.3505
  930MOL0     H28334   8.055   1.168   8.946 -1.8327  0.7230  2.4103
  930MOL0     H28335   7.925   1.298   8.921 -1.0192  0.7860 -3.5720
  930MOL0     H28336   8.196   1.405   8.632 -2.3435 -1.8497 -0.6559
  930MOL0     H28337   7.814   0.915   8.449  1.1879 -1.3973  0.3271
  930MOL0     H28338   7.647   0.948   8.185 -0.6700 -0.0603  1.1596
  930MOL0     H28339   7.790   0.861   8.225 -1.1252  0.9256  3.0096
  930MOL0     H28340   7.655   0.767   8.166  0.8824 -0.3997 -0.7418
  931MOL0     O28341  11.233   8.343   5.586  0.1972 -0.3799 -0.4429
  931MOL0     C28342  11.171   8.402   5.680  0.1802  0.5726  0.7013
  931MOL0     O28343  11.226   8.434   5.796  0.9916  0.1342  0.1076
  931MOL0     C28344  11.355   8.452   5.814 -0.0118  0.3381 -0.5282
  931MOL0     C28345  11.421   8.573   5.797 -0.1793 -0.7642  0.1115
  931MOL0     C28346  11.556   8.594   5.823 -0.0160 -0.4177  0.1516
  931MOL0     C28347  11.626   8.487   5.876 -1.2118  0.1842  0.3012
  931MOL0     O28348  11.760   8.493   5.912 -0.3501 -0.4385 -0.7462
  931MOL0     C28349  11.845   8.594   5.875 -0.6846  0.5352 -0.0105
  931MOL0     C28350  11.986   8.581   5.929 -1.0422  1.4380 -0.0789
  931MOL0     C28351  12.054   8.444   5.903 -0.4865 -0.2698 -0.7394
  931MOL0     C28352  12.183   8.450   5.970 -1.0733  0.1402 -0.4145
  931MOL0     C28353  12.281   8.336   5.933 -0.4074 -0.7591  1.4805
  931MOL0     C28354  12.416   8.373   5.994 -0.4911 -0.1436 -0.0809
  931MOL0     C28355  12.440   8.339   6.141  0.4253 -0.0334  0.6966
  931MOL0     C28356  12.396   8.198   6.190  0.1476 -0.0986  0.6954
  931MOL0     N28357  12.401   8.204   6.334  1.0563  0.8293  0.3167
  931MOL0     C28358  12.485   8.128   6.420 -0.3107  0.0556 -0.2283
  931MOL0     C28359  12.461   8.163   6.543 -0.4022 -0.2000  0.6474
  931MOL0     C28360  12.540   8.128   6.663 -0.4680 -0.3757  0.3696
  931MOL0     C28361  12.507   7.994   6.721 -0.1236 -0.2686 -0.0233
  931MOL0     C28362  12.593   7.881   6.658 -0.4078 -0.3583  0.4455
  931MOL0     C28363  12.745   7.905   6.630  0.4977 -0.4775 -0.2051
  931MOL0     O28364  12.817   7.919   6.752  0.1114 -0.0276 -0.6684
  931MOL0     C28365  12.949   7.930   6.747  0.2287 -0.3355  0.6970
  931MOL0     C28366  13.026   7.901   6.631 -0.4327 -0.1160 -0.1295
  931MOL0     C28367  13.163   7.914   6.633  0.5394  0.1790 -0.2094
  931MOL0     C28368  13.230   7.870   6.513  0.2011 -0.3594  0.2926
  931MOL0     C28369  13.225   7.979   6.743 -0.4301  0.2082 -0.2345
  931MOL0     C28370  13.374   8.020   6.746  0.6040  0.1334  0.3645
  931MOL0     O28371  13.429   8.001   6.875 -0.3594 -0.3368  0.1654
  931MOL0     C28372  13.545   8.069   6.916  1.1844 -0.0742  0.1477
  931MOL0     C28373  13.609   8.175   6.854  0.1531  0.1602 -0.0740
  931MOL0     C28374  13.719   8.228   6.916 -0.1314 -0.4785 -0.0154
  931MOL0     C28375  13.764   8.201   7.040  0.3626 -0.0240  0.1887
  931MOL0     O28376  13.880   8.259   7.092  0.2581  0.0173  0.0287
  931MOL0     C28377  13.965   8.174   7.175  0.3125  0.3534 -0.9405
  931MOL0     C28378  13.963   8.220   7.326 -1.0396 -0.2549 -0.1597
  931MOL0     C28379  13.979   8.373   7.336  0.4740 -0.8552 -0.0044
  931MOL0     C28380  13.860   8.434   7.415 -0.1348 -0.2693  0.2463
  931MOL0     C28381  13.858   8.393   7.568 -0.3144  0.1743  0.1574
  931MOL0     C28382  13.733   8.428   7.636 -0.2575 -0.3419 -0.1876
  931MOL0     C28383  13.727   8.382   7.785 -0.2757 -0.0639  0.6746
  931MOL0     C28384  13.584   8.387   7.845 -0.0039 -0.0003 -0.6919
  931MOL0    Cl28385  13.527   8.538   7.853  0.2848 -0.4468 -0.6096
  931MOL0     C28386  13.695   8.092   7.102 -0.2469 -0.3716 -0.4541
  931MOL0     C28387  13.592   8.028   7.034 -0.3192  0.0867  0.0748
  931MOL0     O28388  13.439   8.058   6.646 -0.2074 -0.8421 -0.3332
  931MOL0     C28389  13.152   8.006   6.856 -0.3752 -0.2860 -0.0252
  931MOL0     C28390  13.016   7.971   6.863  0.3994 -0.0944 -0.7293
  931MOL0     N28391  12.359   8.257   6.539  0.1886  0.5132 -0.3844
  931MOL0     N28392  12.315   8.275   6.419 -0.0656  0.8781  0.5260
  931MOL0     C28393  11.563   8.373   5.898 -0.3356  0.8521 -0.8043
  931MOL0     C28394  11.435   8.348   5.870  0.1744  0.6483  0.6386
  931MOL0     C28395  11.023   8.423   5.672 -0.9975 -0.7417  0.6440
  931MOL0     C28396  10.978   8.554   5.697 -0.4731 -0.5379  0.2287
  931MOL0     C28397  10.857   8.596   5.655 -0.6110 -0.0654  0.2387
  931MOL0     C28398  10.767   8.515   5.593 -0.4623 -1.1528 -0.8755
  931MOL0     O28399  10.652   8.578   5.559  0.0571 -0.8938  0.3361
  931MOL0     C28400  10.527   8.508   5.598 -0.4723  0.3267 -0.1556
  931MOL0     C28401  10.401   8.579   5.549 -0.7824 -0.1713 -0.6416
  931MOL0     C28402  10.270   8.500   5.586  0.2336  1.1696  0.3752
  931MOL0     C28403  10.241   8.502   5.737 -0.4613 -0.0539  1.2256
  931MOL0     C28404  10.232   8.638   5.798  0.8038  0.7745 -0.3349
  931MOL0     C28405  10.220   8.758   5.842 -0.3493  0.6830 -0.2552
  931MOL0     C28406  10.802   8.380   5.579  0.6554  0.3297 -0.6738
  931MOL0     C28407  10.932   8.344   5.604 -0.1932  0.4519 -0.4180
  931MOL0     C28408  10.962   8.198   5.573  0.3603 -0.2728 -0.0336
  931MOL0     H28409  11.362   8.655   5.759 -1.6317  1.6597  6.4382
  931MOL0     H28410  11.594   8.694   5.808 -0.2728 -0.2874  0.3800
  931MOL0     H28411  11.802   8.690   5.903 -1.5783 -0.0489  0.6790
  931MOL0     H28412  11.842   8.586   5.766 -2.3456 -1.2732  0.1085
  931MOL0     H28413  12.043   8.653   5.871  1.9260  0.0835  0.9556
  931MOL0     H28414  11.994   8.602   6.036  0.5451 -0.1559  0.1626
  931MOL0     H28415  11.998   8.363   5.951 -2.9941  0.8211 -1.6065
  931MOL0     H28416  12.061   8.422   5.796 -2.1645  2.9196 -1.6516
  931MOL0     H28417  12.233   8.544   5.944 -0.8677 -0.1556 -1.1132
  931MOL0     H28418  12.157   8.459   6.076  0.6993  0.8241  0.0147
  931MOL0     H28419  12.291   8.341   5.824 -1.3827 -0.2091  1.4053
  931MOL0     H28420  12.234   8.242   5.963  1.1254 -2.2047 -0.4343
  931MOL0     H28421  12.503   8.320   5.954  1.1654 -0.6060  3.6673
  931MOL0     H28422  12.451   8.475   5.976  3.3733 -1.1202  0.9401
  931MOL0     H28423  12.371   8.407   6.191 -0.2273 -1.1519  1.3741
  931MOL0     H28424  12.539   8.364   6.180 -0.1481  2.3409  0.7708
  931MOL0     H28425  12.305   8.162   6.141 -0.5487 -0.4741  2.2112
  931MOL0     H28426  12.478   8.133   6.158 -1.0716 -0.2088 -2.6588
  931MOL0     H28427  12.566   8.063   6.389 -0.8289 -0.6896 -0.0342
  931MOL0     H28428  12.523   8.199   6.745 -2.9031 -1.0383  0.4908
  931MOL0     H28429  12.646   8.127   6.636  0.1658 -2.1912  2.5758
  931MOL0     H28430  12.528   7.994   6.828 -0.1693  0.4998 -0.0133
  931MOL0     H28431  12.401   7.966   6.711 -0.2941  0.0476  0.7937
  931MOL0     H28432  12.583   7.788   6.716 -0.8352 -0.4539  0.2282
  931MOL0     H28433  12.559   7.859   6.557  2.1701 -1.0446 -0.3307
  931MOL0     H28434  12.778   7.814   6.580 -1.0318 -3.1361  3.2281
  931MOL0     H28435  12.760   7.986   6.558 -2.7324  0.9980  0.5899
  931MOL0     H28436  12.975   7.877   6.538 -0.5423  3.1239 -1.0367
  931MOL0     H28437  13.212   7.946   6.436  0.8282  0.5555  1.0351
  931MOL0     H28438  13.186   7.778   6.474 -0.2007  0.7972 -2.1615
  931MOL0     H28439  13.336   7.854   6.531  1.0521  2.3808 -1.5767
  931MOL0     H28440  13.585   8.223   6.759  2.3658  0.1383 -0.6882
  931MOL0     H28441  13.779   8.309   6.875  1.6404  0.1852  3.4047
  931MOL0     H28442  13.928   8.071   7.179 -0.4146  0.6481  1.7568
  931MOL0     H28443  14.071   8.186   7.150  0.2539  4.3872  0.0452
  931MOL0     H28444  13.862   8.200   7.361 -0.4518 -1.0458  1.1672
  931MOL0     H28445  14.049   8.168   7.369  0.9385  2.9724  0.0943
  931MOL0     H28446  13.966   8.411   7.234  0.5739 -1.8034 -0.3786
  931MOL0     H28447  14.079   8.402   7.372  0.2225  1.2778 -0.8743
  931MOL0     H28448  13.767   8.417   7.361  0.5301  0.5375 -1.2125
  931MOL0     H28449  13.869   8.542   7.401  3.1035 -0.7187 -2.3300
  931MOL0     H28450  13.854   8.283   7.567  3.2313 -0.0662 -0.3089
  931MOL0     H28451  13.940   8.439   7.625 -1.0183 -1.7637  2.9966
  931MOL0     H28452  13.646   8.390   7.582  0.2810 -0.0567 -1.2729
  931MOL0     H28453  13.728   8.537   7.642  0.7885 -0.2032 -1.5811
  931MOL0     H28454  13.793   8.438   7.852  1.4156 -1.4379  0.2364
  931MOL0     H28455  13.764   8.279   7.782  1.4582  0.5317 -0.6975
  931MOL0     H28456  13.575   8.349   7.947 -2.7240  4.0663  0.8325
  931MOL0     H28457  13.528   8.320   7.779  2.4152 -0.9415 -1.9355
  931MOL0     H28458  13.719   8.050   7.199  3.0756 -1.6708 -1.7120
  931MOL0     H28459  13.553   7.936   7.075  0.1115 -0.5892 -0.9886
  931MOL0     H28460  13.211   8.058   6.931  2.3665  0.0409 -2.2152
  931MOL0     H28461  12.964   7.983   6.957  0.3840 -0.1296 -0.7329
  931MOL0     H28462  11.609   8.285   5.942  2.0035  1.2730 -2.2234
  931MOL0     H28463  11.390   8.256   5.907  0.9099 -0.1031 -0.2800
  931MOL0     H28464  11.051   8.627   5.730 -0.7991  0.4255 -1.0921
  931MOL0     H28465  10.832   8.700   5.669 -0.9068 -0.5109  3.7070
  931MOL0     H28466  10.532   8.412   5.546 -1.0020  0.1236  0.1632
  931MOL0     H28467  10.524   8.479   5.704 -0.9070 -4.2586 -1.2004
  931MOL0     H28468  10.398   8.593   5.441 -0.3383  0.3825 -0.5836
  931MOL0     H28469  10.399   8.680   5.591 -0.8188 -0.6109  0.4458
  931MOL0     H28470  10.190   8.543   5.525  2.3685  3.0353 -1.2740
  931MOL0     H28471  10.289   8.399   5.549 -1.5350  1.1052 -0.4544
  931MOL0     H28472  10.310   8.433   5.786  0.1214  0.0472  0.5682
  931MOL0     H28473  10.146   8.450   5.751  0.0420 -2.9808 -3.6245
  931MOL0     H28474  10.228   8.858   5.880 -0.7804  0.5358  0.2262
  931MOL0     H28475  10.728   8.324   5.523  1.0393  0.8536 -1.7348
  931MOL0     H28476  11.043   8.175   5.642 -0.4059  0.1417  1.0220
  931MOL0     H28477  10.872   8.144   5.602  0.5055 -0.4019  0.1799
  931MOL0     H28478  10.997   8.177   5.471  0.2509 -1.9677  0.2567
  932MOL0     O28479   0.770   8.348   8.894  0.5821  0.2922 -1.7435
  932MOL0     C28480   0.869   8.426   8.895 -0.4767 -0.1239 -0.1216
  932MOL0     O28481   0.868   8.555   8.858 -0.8589  0.1425  0.4243
  932MOL0     C28482   0.770   8.634   8.910 -0.0288  0.2449  0.7299
  932MOL0     C28483   0.797   8.729   9.010  0.1943  0.5711  1.4593
  932MOL0     C28484   0.705   8.823   9.064  0.6005 -0.2952  0.5209
  932MOL0     C28485   0.594   8.837   8.982 -0.1101  0.6575  0.4911
  932MOL0     O28486   0.499   8.936   8.999 -0.4851  0.5042  0.2873
  932MOL0     C28487   0.547   9.070   9.007 -0.7759 -0.1335 -0.0127
  932MOL0     C28488   0.561   9.123   9.149 -0.2670 -1.2927  1.3526
  932MOL0     C28489   0.589   9.281   9.145 -0.5917  0.0894 -0.5930
  932MOL0     C28490   0.714   9.326   9.074  0.6712 -0.3829 -0.2814
  932MOL0     C28491   0.839   9.256   9.123  0.1291  0.3786  0.5101
  932MOL0     C28492   0.970   9.291   9.048 -0.3325  0.1380 -0.3726
  932MOL0     C28493   1.095   9.245   9.118 -0.0888  1.1857  0.6481
  932MOL0     C28494   1.214   9.293   9.036 -0.9420 -0.9218  0.1768
  932MOL0     N28495   1.345   9.294   9.112  0.2297 -0.5832 -0.3258
  932MOL0     C28496   1.369   9.388   9.211 -0.0348 -0.6456  0.7020
  932MOL0     C28497   1.491   9.350   9.268  0.4284  0.3731  0.3945
  932MOL0     C28498   1.555   9.431   9.384 -0.3986 -0.2959 -0.2419
  932MOL0     C28499   1.582   9.340   9.499  0.0731  0.0809 -0.0731
  932MOL0     C28500   1.645   9.428   9.617 -0.2259  0.1796 -0.7325
  932MOL0     C28501   1.557   9.551   9.656  0.2820  0.3245 -0.0451
  932MOL0     O28502   1.430   9.517   9.703 -0.7693 -0.5412  0.5442
  932MOL0     C28503   1.363   9.603   9.783  0.7319 -0.0995 -0.3026
  932MOL0     C28504   1.369   9.742   9.771  0.6888 -0.0734 -0.9591
  932MOL0     C28505   1.290   9.824   9.855  0.7312 -0.3563  1.1421
  932MOL0     C28506   1.300   9.978   9.823  0.1660  0.0636  0.1886
  932MOL0     C28507   1.198   9.770   9.947  0.0002  0.3993 -0.3421
  932MOL0     C28508   1.102   9.850  10.038  0.4098  0.2447  0.0016
  932MOL0     O28509   1.014   9.782  10.111  0.6600  0.6297  0.2963
  932MOL0     C28510   0.920   9.847  10.185  0.2016 -0.0131  0.9632
  932MOL0     C28511   0.930   9.835  10.326  0.3383 -0.3294 -0.0996
  932MOL0     C28512   0.844   9.909  10.407 -0.0031  0.1285 -0.5913
  932MOL0     C28513   0.749   9.996  10.355 -0.0469 -0.0824  0.1395
  932MOL0     O28514   0.665  10.065  10.438 -0.0188  0.1235 -0.4812
  932MOL0     C28515   0.725  10.156  10.543  0.0167 -0.2048 -0.0879
  932MOL0     C28516   0.622  10.247  10.606 -0.4743 -0.1321 -0.7667
  932MOL0     C28517   0.685  10.347  10.704 -0.6603  0.3584  0.0332
  932MOL0     C28518   0.605  10.454  10.774  0.2355  0.3160  0.0517
  932MOL0     C28519   0.702  10.557  10.848 -0.0248  0.1849 -0.6513
  932MOL0     C28520   0.622  10.673  10.900 -0.3204 -0.4520  0.2070
  932MOL0     C28521   0.710  10.782  10.965 -0.1384  0.8362 -0.0777
  932MOL0     C28522   0.665  10.918  10.913  0.4379  0.0618  0.7169
  932MOL0    Cl28523   0.781  11.056  10.954  0.2264  0.2331 -0.2486
  932MOL0     C28524   0.730   9.997  10.219  0.1459 -0.0025  0.1782
  932MOL0     C28525   0.812   9.922  10.134 -0.7201 -0.1478  0.3288
  932MOL0     O28526   1.097   9.971  10.026  0.7090 -0.0838 -0.0477
  932MOL0     C28527   1.185   9.631   9.961 -1.2967 -0.5509 -0.5181
  932MOL0     C28528   1.273   9.547   9.874  0.4288 -1.4848 -0.3120
  932MOL0     N28529   1.538   9.239   9.194 -0.2126  0.5331  0.0387
  932MOL0     N28530   1.448   9.210   9.098 -0.7120  0.3368 -0.4933
  932MOL0     C28531   0.564   8.752   8.877  1.0413  0.0630 -0.0606
  932MOL0     C28532   0.654   8.657   8.832  0.8887  0.2811 -0.9449
  932MOL0     C28533   0.990   8.366   8.962  0.3087  0.4302 -0.0935
  932MOL0     C28534   1.115   8.410   8.919  0.7420  0.3984  0.1587
  932MOL0     C28535   1.237   8.372   8.973 -0.1543  1.1682 -1.1819
  932MOL0     C28536   1.238   8.277   9.076 -0.6999  0.7548  1.2168
  932MOL0     O28537   1.363   8.238   9.127 -0.2061  0.4223 -0.4233
  932MOL0     C28538   1.392   8.093   9.114  0.7000 -0.2602 -0.0017
  932MOL0     C28539   1.537   8.076   9.138  0.3595  0.4616 -0.2067
  932MOL0     C28540   1.572   8.045   9.282  0.5449  0.3095  0.1572
  932MOL0     C28541   1.717   8.003   9.306  0.0549 -0.1890  0.4250
  932MOL0     C28542   1.740   7.958   9.441 -0.8514 -0.0833 -0.2868
  932MOL0     C28543   1.765   7.912   9.550 -0.1589 -0.7546  0.4231
  932MOL0     C28544   1.112   8.225   9.115 -0.3265  0.3405  0.9299
  932MOL0     C28545   0.991   8.268   9.063  0.5881  0.6828  0.5362
  932MOL0     C28546   0.865   8.229   9.140 -0.7843 -0.2952  0.2238
  932MOL0     H28547   0.885   8.704   9.068  0.5221 -3.0484 -0.2761
  932MOL0     H28548   0.719   8.875   9.158 -0.3734  1.8327 -0.4528
  932MOL0     H28549   0.469   9.129   8.958  1.6524  2.6970 -0.8075
  932MOL0     H28550   0.643   9.080   8.955 -0.4340 -1.0237  0.4309
  932MOL0     H28551   0.466   9.115   9.202 -1.3948 -0.3008 -0.4034
  932MOL0     H28552   0.649   9.073   9.189  0.5293 -0.5821  0.5503
  932MOL0     H28553   0.496   9.324   9.108 -1.8835 -0.9104  1.3298
  932MOL0     H28554   0.599   9.318   9.247  0.3193 -0.1799 -0.5744
  932MOL0     H28555   0.706   9.296   8.969 -0.8168  0.6743 -0.5061
  932MOL0     H28556   0.717   9.435   9.078 -1.9869 -0.2803  1.4556
  932MOL0     H28557   0.832   9.147   9.116 -1.4613  0.4822  0.1773
  932MOL0     H28558   0.845   9.281   9.229  3.0768  2.3980 -0.0060
  932MOL0     H28559   0.960   9.248   8.948 -0.3921  1.4730 -0.9595
  932MOL0     H28560   0.973   9.400   9.041  0.1179  0.0724 -1.3485
  932MOL0     H28561   1.100   9.137   9.105 -0.2607  1.4464 -2.2806
  932MOL0     H28562   1.104   9.283   9.220  3.4090  0.5910  0.6803
  932MOL0     H28563   1.230   9.217   8.958  0.6332 -2.7002  2.1108
  932MOL0     H28564   1.194   9.391   8.991  0.0989 -0.7141  0.1229
  932MOL0     H28565   1.303   9.464   9.252 -1.5663  0.0682 -2.7092
  932MOL0     H28566   1.471   9.498   9.404 -1.3405 -0.8691 -2.0349
  932MOL0     H28567   1.645   9.483   9.349  1.7800 -1.2519  3.3895
  932MOL0     H28568   1.483   9.308   9.533 -0.6159 -0.8337 -2.6719
  932MOL0     H28569   1.644   9.258   9.461 -1.8060 -0.6044 -1.8740
  932MOL0     H28570   1.665   9.360   9.701  4.1768  1.6071 -0.3475
  932MOL0     H28571   1.745   9.465   9.592  0.7801 -0.8414  1.4511
  932MOL0     H28572   1.610   9.598   9.739 -3.2275 -1.1016  3.2642
  932MOL0     H28573   1.557   9.621   9.572  0.4416  0.7038  0.2732
  932MOL0     H28574   1.447   9.786   9.710  0.3690  3.2384  0.7732
  932MOL0     H28575   1.218  10.002   9.755  1.2712 -0.2993 -1.3135
  932MOL0     H28576   1.393  10.012   9.776  0.0661 -2.3244 -1.9115
  932MOL0     H28577   1.280  10.047   9.906  0.7870  0.5279 -0.0331
  932MOL0     H28578   1.007   9.773  10.370  1.1304  1.5581  1.2562
  932MOL0     H28579   0.869   9.898  10.512  3.6414  3.2047 -0.9270
  932MOL0     H28580   0.760  10.099  10.630 -1.2714 -1.4004 -0.3195
  932MOL0     H28581   0.808  10.208  10.494 -0.1349  0.4011  0.2962
  932MOL0     H28582   0.569  10.306  10.530 -1.4812  1.2805  0.9583
  932MOL0     H28583   0.546  10.187  10.658  0.9316 -0.0474  1.5201
  932MOL0     H28584   0.757  10.397  10.639  1.4835 -2.6083 -0.1027
  932MOL0     H28585   0.742  10.290  10.778 -2.2874  0.9576  1.8269
  932MOL0     H28586   0.539  10.413  10.851 -0.5155  0.0950 -0.6998
  932MOL0     H28587   0.539  10.499  10.700 -1.3952 -2.2346 -0.1655
  932MOL0     H28588   0.753  10.508  10.931  1.7322 -1.1243 -2.4253
  932MOL0     H28589   0.772  10.590  10.770 -0.3460 -0.2868 -1.1455
  932MOL0     H28590   0.554  10.623  10.969  0.0093 -4.4725 -2.1097
  932MOL0     H28591   0.566  10.718  10.818 -1.3816 -1.0402  0.5890
  932MOL0     H28592   0.816  10.767  10.942  1.3698  3.6991  3.8911
  932MOL0     H28593   0.712  10.780  11.074 -2.2111 -3.0654  0.0795
  932MOL0     H28594   0.561  10.947  10.931  0.3315 -0.3463  0.7539
  932MOL0     H28595   0.677  10.915  10.804 -0.3361 -1.9676  0.6457
  932MOL0     H28596   0.654  10.056  10.168  1.2981  2.8584  1.5203
  932MOL0     H28597   0.793   9.936  10.028  3.7232  2.7484 -0.3650
  932MOL0     H28598   1.116   9.585  10.031 -2.6127  1.1039 -0.6585
  932MOL0     H28599   1.265   9.439   9.877 -0.6797 -1.4175 -0.1306
  932MOL0     H28600   0.470   8.767   8.824  1.7792  0.1845 -1.3665
  932MOL0     H28601   0.645   8.600   8.740  0.6498 -1.1596 -0.0583
  932MOL0     H28602   1.112   8.482   8.838 -0.0603 -1.2184 -1.3032
  932MOL0     H28603   1.331   8.412   8.937 -0.4053  2.1856 -0.7572
  932MOL0     H28604   1.333   8.028   9.179 -0.7745  0.1770 -0.8487
  932MOL0     H28605   1.361   8.064   9.013  1.8210 -1.3544 -0.0609
  932MOL0     H28606   1.597   8.166   9.121 -2.0417  3.0747  3.6671
  932MOL0     H28607   1.577   7.996   9.076  0.2946  1.5365 -1.6910
  932MOL0     H28608   1.538   8.130   9.341 -2.2367 -0.4416 -0.2034
  932MOL0     H28609   1.509   7.956   9.297  1.9284 -0.8601 -0.6487
  932MOL0     H28610   1.779   8.091   9.285  0.2810 -0.5443 -0.4726
  932MOL0     H28611   1.761   7.926   9.241  0.2568 -0.2108  0.5861
  932MOL0     H28612   1.788   7.874   9.648  4.2952 -1.3965 -0.6726
  932MOL0     H28613   1.109   8.161   9.203  0.6664  0.5901  1.1600
  932MOL0     H28614   0.799   8.159   9.088  2.0816 -3.6038  0.5990
  932MOL0     H28615   0.900   8.179   9.231  0.4126 -2.0630 -1.1194
  932MOL0     H28616   0.820   8.318   9.184 -2.9851 -0.3819 -1.6838
  933MOL0     O28617   3.131   6.814   4.604  0.0368  0.8097 -0.2947
  933MOL0     C28618   3.229   6.863   4.544 -1.1151  0.5877  1.0853
  933MOL0     O28619   3.222   6.953   4.439 -0.0650 -0.5568 -0.3848
  933MOL0     C28620   3.102   7.008   4.415  1.0792 -0.2621 -0.1286
  933MOL0     C28621   3.048   6.997   4.287 -0.0917  0.1950 -0.6490
  933MOL0     C28622   2.916   7.037   4.262 -0.3253  0.8802  0.5563
  933MOL0     C28623   2.830   7.079   4.366  0.2590  0.6376 -0.3212
  933MOL0     O28624   2.705   7.130   4.344  0.6411 -0.3803 -0.1748
  933MOL0     C28625   2.618   7.034   4.279  0.4061 -0.7163 -0.0611
  933MOL0     C28626   2.511   7.116   4.192  0.1457 -0.4114  0.6807
  933MOL0     C28627   2.447   7.236   4.273 -0.4231  0.5228  0.6613
  933MOL0     C28628   2.338   7.303   4.189 -0.4992  0.8836  0.5879
  933MOL0     C28629   2.277   7.413   4.274  0.5090  0.6393  0.3829
  933MOL0     C28630   2.210   7.526   4.189 -0.8550 -0.3828 -0.2160
  933MOL0     C28631   2.299   7.589   4.080  0.2851  0.2269 -0.0833
  933MOL0     C28632   2.237   7.719   4.006 -1.0460  1.5377 -0.3500
  933MOL0     N28633   2.169   7.696   3.874  0.1382 -1.0209 -0.1315
  933MOL0     C28634   2.205   7.765   3.764 -0.7347 -0.7197 -1.1059
  933MOL0     C28635   2.131   7.713   3.663  0.6415  0.0214 -0.7647
  933MOL0     C28636   2.122   7.761   3.524 -0.5570  0.4768  0.5473
  933MOL0     C28637   2.164   7.658   3.411  0.2958  0.2125  0.1486
  933MOL0     C28638   2.310   7.605   3.421  0.3797  0.2321  0.3784
  933MOL0     C28639   2.425   7.708   3.381  0.5903 -0.3251  0.3879
  933MOL0     O28640   2.439   7.804   3.486 -0.1334 -0.3768 -0.4463
  933MOL0     C28641   2.522   7.911   3.468 -0.1033  0.3991  0.4852
  933MOL0     C28642   2.497   8.028   3.531 -0.7648 -0.0706  0.2361
  933MOL0     C28643   2.584   8.133   3.522  0.1196 -0.3522  0.7711
  933MOL0     C28644   2.540   8.264   3.576 -0.5442 -0.7706  0.6093
  933MOL0     C28645   2.705   8.126   3.445 -0.5611 -0.4052 -0.6545
  933MOL0     C28646   2.811   8.230   3.439 -0.1560 -0.0605 -0.3578
  933MOL0     O28647   2.941   8.188   3.415  0.4991  0.7801  0.4666
  933MOL0     C28648   3.035   8.274   3.457  0.0319 -0.2979  0.5451
  933MOL0     C28649   3.073   8.375   3.363 -0.4847  0.1288 -1.1234
  933MOL0     C28650   3.182   8.459   3.392 -0.1094  0.1443  0.6458
  933MOL0     C28651   3.231   8.470   3.520 -0.8163 -0.5674  0.0834
  933MOL0     O28652   3.336   8.550   3.556 -0.0938  0.3313  1.0350
  933MOL0     C28653   3.365   8.665   3.471  0.2738  0.0035 -0.6349
  933MOL0     C28654   3.498   8.727   3.513 -0.6636 -0.3823 -0.2630
  933MOL0     C28655   3.610   8.625   3.498  0.6093 -0.1082  0.2308
  933MOL0     C28656   3.746   8.686   3.543  1.4953 -1.0348 -0.4902
  933MOL0     C28657   3.847   8.578   3.537 -0.4265  0.2677 -0.3753
  933MOL0     C28658   3.983   8.635   3.511  0.2434  0.5601 -0.1642
  933MOL0     C28659   4.018   8.757   3.607 -0.3596  0.0248  0.2108
  933MOL0     C28660   4.167   8.792   3.610  0.0995  1.0007  0.5666
  933MOL0    Cl28661   4.226   8.840   3.444 -0.3740  0.2636  0.0184
  933MOL0     C28662   3.199   8.372   3.613 -1.0418  0.8503  0.0523
  933MOL0     C28663   3.104   8.274   3.577 -0.2668  0.1951 -0.5765
  933MOL0     O28664   2.778   8.346   3.461  0.0686 -0.5636 -0.3342
  933MOL0     C28665   2.725   7.999   3.378  0.3947  0.4110 -0.2615
  933MOL0     C28666   2.641   7.895   3.388  0.1310 -0.2200  1.1520
  933MOL0     N28667   2.051   7.613   3.724  0.3795  0.0038 -0.1766
  933MOL0     N28668   2.073   7.606   3.850  0.0446 -0.3779 -0.2794
  933MOL0     C28669   2.876   7.089   4.497 -0.3756 -1.1454 -0.5333
  933MOL0     C28670   3.022   7.058   4.522  0.0567  0.2996  0.2186
  933MOL0     C28671   3.360   6.833   4.597  0.6878 -0.2312  0.3161
  933MOL0     C28672   3.378   6.716   4.672 -0.2101  0.2094 -0.6164
  933MOL0     C28673   3.497   6.663   4.712 -0.2529 -0.8395  0.1891
  933MOL0     C28674   3.609   6.747   4.703  0.3185  1.1850 -1.2155
  933MOL0     O28675   3.732   6.692   4.736 -0.0729 -0.3866  0.2972
  933MOL0     C28676   3.850   6.760   4.713  0.7132  0.0530  1.1148
  933MOL0     C28677   3.962   6.680   4.770  0.3228 -0.7794  0.0132
  933MOL0     C28678   4.096   6.746   4.747 -0.5214 -0.0347  0.3685
  933MOL0     C28679   4.206   6.665   4.827 -0.3928 -0.5170  0.5962
  933MOL0     C28680   4.216   6.706   4.968  0.0629  0.0130  1.5253
  933MOL0     C28681   4.233   6.740   5.087 -0.6461 -0.1814 -0.1364
  933MOL0     C28682   3.599   6.870   4.637  0.4285  0.8568  0.1823
  933MOL0     C28683   3.478   6.914   4.579  0.1631  0.5597 -0.4279
  933MOL0     C28684   3.482   7.045   4.509  0.3812 -0.6573  1.2983
  933MOL0     H28685   3.113   6.961   4.208  0.9684 -2.1024  1.1652
  933MOL0     H28686   2.880   7.030   4.160  0.9425  0.8083  0.0874
  933MOL0     H28687   2.561   6.974   4.351  0.2438 -0.3794  0.0940
  933MOL0     H28688   2.671   6.959   4.220  0.2244  0.7521 -2.2170
  933MOL0     H28689   2.568   7.167   4.114 -1.8974  1.3785  0.2720
  933MOL0     H28690   2.440   7.051   4.140  0.4380 -1.7016  1.8263
  933MOL0     H28691   2.402   7.195   4.364 -3.1767  1.2781 -0.2585
  933MOL0     H28692   2.529   7.305   4.292  0.6549 -0.9241  1.5487
  933MOL0     H28693   2.394   7.333   4.100  0.7175 -1.9877  0.3031
  933MOL0     H28694   2.263   7.227   4.164  0.6835 -0.7186  1.7131
  933MOL0     H28695   2.350   7.459   4.342  2.0584 -1.5657  0.3130
  933MOL0     H28696   2.199   7.367   4.335 -1.4524  0.3707 -2.1420
  933MOL0     H28697   2.116   7.488   4.149 -1.8680 -0.5945  2.1891
  933MOL0     H28698   2.186   7.599   4.267  2.6488  2.3757 -1.4503
  933MOL0     H28699   2.346   7.523   4.007 -1.4200 -1.0541 -0.0644
  933MOL0     H28700   2.382   7.631   4.138  0.1484  1.8939 -1.0442
  933MOL0     H28701   2.177   7.780   4.074 -2.5585  1.0719 -1.2346
  933MOL0     H28702   2.323   7.785   3.989 -0.5620  1.7171  2.3917
  933MOL0     H28703   2.274   7.848   3.757 -1.8649  0.6170  1.8898
  933MOL0     H28704   2.179   7.851   3.501  0.0063  0.1023  0.4416
  933MOL0     H28705   2.019   7.795   3.509 -0.2916  0.4690 -1.6384
  933MOL0     H28706   2.097   7.573   3.424 -1.2528  0.9105 -2.5249
  933MOL0     H28707   2.149   7.703   3.313  1.6485 -1.9785 -1.1431
  933MOL0     H28708   2.333   7.571   3.522  1.0920 -1.4703 -0.3282
  933MOL0     H28709   2.314   7.524   3.349  1.6054 -1.1458  1.9163
  933MOL0     H28710   2.526   7.665   3.379  2.1265  2.9722  0.3546
  933MOL0     H28711   2.396   7.752   3.286  0.6102  0.8598  0.9105
  933MOL0     H28712   2.404   8.044   3.583 -1.0408 -0.0567 -0.2614
  933MOL0     H28713   2.615   8.295   3.650 -0.7799 -0.7755  0.8528
  933MOL0     H28714   2.440   8.266   3.621  0.3540 -1.4761  2.7690
  933MOL0     H28715   2.533   8.339   3.496 -3.4580 -1.5811 -0.0224
  933MOL0     H28716   3.021   8.379   3.268 -0.7536 -0.9325 -1.0403
  933MOL0     H28717   3.211   8.527   3.312 -0.9859  0.9425  0.9803
  933MOL0     H28718   3.365   8.643   3.364 -2.2902  0.0614 -0.6976
  933MOL0     H28719   3.281   8.734   3.479 -2.0169 -2.6202 -0.0934
  933MOL0     H28720   3.513   8.819   3.454 -3.4031 -1.8981 -3.7141
  933MOL0     H28721   3.483   8.757   3.617  1.0867  2.3588 -0.6869
  933MOL0     H28722   3.617   8.592   3.394  0.1881  0.6385 -0.0444
  933MOL0     H28723   3.580   8.542   3.562  1.4506  0.4025  1.3171
  933MOL0     H28724   3.738   8.724   3.646 -0.5819  2.1319 -1.6764
  933MOL0     H28725   3.763   8.775   3.481 -0.1335  2.9740  4.1260
  933MOL0     H28726   3.843   8.506   3.620 -1.7760  0.0424 -0.6165
  933MOL0     H28727   3.849   8.522   3.443 -0.4153 -2.9157  1.3733
  933MOL0     H28728   3.989   8.666   3.406  2.4044 -3.3954 -1.4487
  933MOL0     H28729   4.054   8.553   3.524 -0.4591  0.1058  1.0104
  933MOL0     H28730   3.991   8.742   3.712  2.4550  1.8372  1.3000
  933MOL0     H28731   3.969   8.847   3.571  1.7389  0.4027 -1.9961
  933MOL0     H28732   4.233   8.710   3.639 -2.1111 -1.5708 -1.0929
  933MOL0     H28733   4.177   8.870   3.685 -3.0743  0.5528  1.6417
  933MOL0     H28734   3.248   8.372   3.710 -1.1897  1.3709  0.1318
  933MOL0     H28735   3.065   8.198   3.643 -1.1472  0.4475 -0.7967
  933MOL0     H28736   2.806   7.981   3.307 -1.0182 -3.2666 -1.1994
  933MOL0     H28737   2.671   7.809   3.330  4.1250  1.3385  0.5695
  933MOL0     H28738   2.808   7.123   4.574  0.6809 -3.6926  1.6958
  933MOL0     H28739   3.061   7.066   4.623 -0.9867 -1.4798  0.7998
  933MOL0     H28740   3.300   6.646   4.701 -0.6223  1.4610  1.5258
  933MOL0     H28741   3.509   6.558   4.737  1.6732 -1.2867 -2.1685
  933MOL0     H28742   3.866   6.770   4.605 -1.4866 -0.7703  0.6647
  933MOL0     H28743   3.847   6.859   4.759  1.3993  1.5602 -1.8269
  933MOL0     H28744   3.970   6.581   4.723 -0.8095 -1.9562  2.1777
  933MOL0     H28745   3.937   6.661   4.874 -2.0036 -2.4797 -0.7548
  933MOL0     H28746   4.123   6.749   4.641  0.8669  0.6210  0.7260
  933MOL0     H28747   4.103   6.846   4.790  0.0999 -0.7223  1.9528
  933MOL0     H28748   4.303   6.697   4.786 -0.4340 -0.7795  0.2978
  933MOL0     H28749   4.194   6.558   4.809 -1.5646 -0.0641 -1.5552
  933MOL0     H28750   4.237   6.776   5.187  0.4669  2.3872 -1.0300
  933MOL0     H28751   3.685   6.932   4.614  1.9275 -2.1526 -3.0986
  933MOL0     H28752   3.391   7.102   4.531  0.8829  0.9569 -0.6034
  933MOL0     H28753   3.553   7.115   4.553  1.8643 -1.4563  0.2667
  933MOL0     H28754   3.494   7.026   4.402  1.5732 -0.4782  1.3953
  934MOL0     O28755   6.688   7.306   1.320  0.3356 -0.6496  0.7371
  934MOL0     C28756   6.614   7.243   1.389  0.5063 -0.2733  1.3697
  934MOL0     O28757   6.653   7.140   1.471 -0.1535 -0.0498  0.1562
  934MOL0     C28758   6.770   7.063   1.457 -0.5263  1.5236  0.7969
  934MOL0     C28759   6.819   6.996   1.564 -0.8696 -0.0442  0.3030
  934MOL0     C28760   6.945   6.928   1.556 -0.5241  0.2022  0.6648
  934MOL0     C28761   7.015   6.917   1.436  0.3756 -0.0668  0.2363
  934MOL0     O28762   7.137   6.858   1.445  0.2078 -0.0390  0.0834
  934MOL0     C28763   7.194   6.817   1.314  0.2322 -1.1153 -0.2571
  934MOL0     C28764   7.335   6.756   1.318  0.5129  1.1049  0.7446
  934MOL0     C28765   7.386   6.705   1.182  1.0303  0.1297 -0.2869
  934MOL0     C28766   7.502   6.606   1.219  1.1582 -0.5191  0.4002
  934MOL0     C28767   7.628   6.672   1.270  0.7707  0.3729 -0.5919
  934MOL0     C28768   7.729   6.572   1.334  0.1488 -0.0576  0.7608
  934MOL0     C28769   7.767   6.462   1.233  0.3520  0.1606 -0.2437
  934MOL0     C28770   7.872   6.365   1.275  0.2711 -0.1621  0.0945
  934MOL0     N28771   8.007   6.428   1.279 -0.0048 -0.7767  0.4521
  934MOL0     C28772   8.058   6.451   1.403  1.0591  0.0733  0.1411
  934MOL0     C28773   8.184   6.487   1.385 -1.0600 -0.1818 -0.1023
  934MOL0     C28774   8.286   6.494   1.501  0.1856 -0.4196 -0.4260
  934MOL0     C28775   8.392   6.385   1.489 -0.7325 -0.5307  0.0358
  934MOL0     C28776   8.339   6.243   1.501 -0.6734  0.5894 -0.6626
  934MOL0     C28777   8.452   6.130   1.482 -0.1808  0.2751 -0.1345
  934MOL0     O28778   8.401   5.993   1.468 -0.3068  0.6142  0.2836
  934MOL0     C28779   8.499   5.900   1.441  0.5052 -0.1992 -0.1039
  934MOL0     C28780   8.460   5.779   1.385 -0.0499 -0.1965 -0.2702
  934MOL0     C28781   8.544   5.682   1.341  0.1046 -0.0571  0.2145
  934MOL0     C28782   8.484   5.562   1.270  0.1468 -0.1701 -0.7095
  934MOL0     C28783   8.680   5.696   1.367 -0.2399 -0.0971  0.1894
  934MOL0     C28784   8.787   5.600   1.313 -0.1538 -0.1933  0.8177
  934MOL0     O28785   8.892   5.560   1.387 -0.6993 -0.7411 -0.1468
  934MOL0     C28786   9.003   5.500   1.332 -0.3117  0.3615  0.7962
  934MOL0     C28787   9.005   5.420   1.217  0.1165  0.0149  0.0301
  934MOL0     C28788   9.132   5.394   1.152  0.1619  0.5707 -1.1644
  934MOL0     C28789   9.256   5.433   1.215  0.5789 -0.7281 -0.5897
  934MOL0     O28790   9.379   5.410   1.154  0.1825  0.3745 -0.2596
  934MOL0     C28791   9.435   5.524   1.091 -1.0909 -0.5534  0.1023
  934MOL0     C28792   9.578   5.490   1.071 -0.7806 -0.4165  0.8397
  934MOL0     C28793   9.649   5.526   1.199 -0.8341  0.1721 -0.4822
  934MOL0     C28794   9.782   5.442   1.188  0.3272  0.2526  0.4532
  934MOL0     C28795   9.855   5.442   1.319 -0.0045  0.3902  0.9916
  934MOL0     C28796   9.906   5.581   1.347 -0.4402 -0.0841 -0.1589
  934MOL0     C28797   9.967   5.572   1.492 -0.3936  0.1131  0.0509
  934MOL0     C28798   9.990   5.716   1.556 -0.3221 -0.0449 -0.1888
  934MOL0    Cl28799  10.089   5.720   1.716  0.1701 -0.5552 -0.1184
  934MOL0     C28800   9.248   5.501   1.337 -0.4795 -0.2169 -0.3475
  934MOL0     C28801   9.124   5.526   1.398  0.4676 -0.3600  1.1123
  934MOL0     O28802   8.761   5.559   1.199  0.0963 -0.0667  1.4559
  934MOL0     C28803   8.723   5.808   1.434  0.3126 -1.1970 -0.1421
  934MOL0     C28804   8.639   5.910   1.467  0.6253 -0.3448 -0.1689
  934MOL0     N28805   8.211   6.495   1.247 -0.6810  0.3823 -0.1811
  934MOL0     N28806   8.099   6.462   1.185 -0.0152  0.5965 -0.0627
  934MOL0     C28807   6.958   6.981   1.323 -0.2782 -0.3112  0.7502
  934MOL0     C28808   6.835   7.045   1.332 -0.3840 -0.2842  1.2977
  934MOL0     C28809   6.481   7.305   1.405 -0.0702  0.0862  0.2577
  934MOL0     C28810   6.436   7.311   1.541 -0.0118  0.1040  0.4546
  934MOL0     C28811   6.314   7.369   1.573 -0.3970  0.3903  0.2621
  934MOL0     C28812   6.232   7.433   1.473 -0.5367  0.5043 -0.1166
  934MOL0     O28813   6.115   7.492   1.509  0.3279 -0.0808 -0.9011
  934MOL0     C28814   6.012   7.516   1.404 -0.4765  0.4332 -0.4894
  934MOL0     C28815   5.869   7.498   1.454  0.4277 -1.3117  0.4748
  934MOL0     C28816   5.838   7.620   1.550 -0.7553 -0.1270 -1.1003
  934MOL0     C28817   5.689   7.637   1.595 -0.0248  0.2989  0.9922
  934MOL0     C28818   5.655   7.543   1.705 -0.5503 -0.0537 -0.3957
  934MOL0     C28819   5.652   7.454   1.787 -0.4443  1.2190  0.1898
  934MOL0     C28820   6.277   7.418   1.340  0.1194 -0.1331 -0.6084
  934MOL0     C28821   6.391   7.352   1.306 -1.1596 -0.2218  0.4727
  934MOL0     C28822   6.421   7.326   1.153 -0.8655 -0.0986 -1.0579
  934MOL0     H28823   6.772   7.019   1.659  2.2614  2.2442  1.4818
  934MOL0     H28824   6.992   6.885   1.644 -0.3267  0.8698  0.8966
  934MOL0     H28825   7.206   6.910   1.258 -1.2758 -1.2647 -0.8909
  934MOL0     H28826   7.130   6.744   1.263  0.1813 -0.0261 -1.8183
  934MOL0     H28827   7.407   6.824   1.364  3.0317 -1.2186  0.4150
  934MOL0     H28828   7.322   6.671   1.385 -0.4915  1.4126  0.9594
  934MOL0     H28829   7.312   6.650   1.123  1.7553 -0.6081 -0.5290
  934MOL0     H28830   7.433   6.784   1.123  0.1314  1.4585  0.7135
  934MOL0     H28831   7.469   6.529   1.290  0.7757  0.9506  1.8783
  934MOL0     H28832   7.524   6.564   1.120  0.1310  0.9568 -0.5051
  934MOL0     H28833   7.606   6.749   1.344 -0.4110  1.3634 -1.8996
  934MOL0     H28834   7.672   6.738   1.195  2.1028 -1.6958 -1.7497
  934MOL0     H28835   7.818   6.622   1.372  1.4026 -0.8055 -1.0751
  934MOL0     H28836   7.683   6.514   1.415  0.6759 -1.6364 -0.0383
  934MOL0     H28837   7.799   6.515   1.143 -1.0623  1.3443 -0.0955
  934MOL0     H28838   7.674   6.410   1.210 -0.5884  1.8792 -0.4739
  934MOL0     H28839   7.833   6.325   1.368  0.1415 -2.3610 -0.8555
  934MOL0     H28840   7.877   6.278   1.209 -0.0967 -1.0911  1.2751
  934MOL0     H28841   8.016   6.427   1.500  1.6908  1.4283  0.7750
  934MOL0     H28842   8.223   6.484   1.590  0.8959  0.4058  0.1861
  934MOL0     H28843   8.327   6.595   1.510  0.8020 -0.3924 -2.9035
  934MOL0     H28844   8.443   6.402   1.394  0.2390  2.5485  0.9764
  934MOL0     H28845   8.471   6.396   1.564  0.1650  1.8472 -1.1650
  934MOL0     H28846   8.274   6.228   1.587  1.6285 -1.6543  0.8566
  934MOL0     H28847   8.278   6.236   1.411 -2.4897  1.2874  0.4606
  934MOL0     H28848   8.514   6.160   1.398  0.1256 -0.3761 -0.1483
  934MOL0     H28849   8.513   6.144   1.572  0.2714  0.0751 -0.4042
  934MOL0     H28850   8.354   5.757   1.375  0.0148 -0.6525  0.0253
  934MOL0     H28851   8.375   5.568   1.281  0.1830 -1.2337  0.4831
  934MOL0     H28852   8.529   5.476   1.322 -0.2477 -0.7768 -1.3557
  934MOL0     H28853   8.504   5.558   1.163  0.3043  0.2662 -0.6973
  934MOL0     H28854   8.909   5.376   1.190 -0.6177  0.9395  1.0498
  934MOL0     H28855   9.141   5.336   1.061  0.1107 -0.4095 -0.5486
  934MOL0     H28856   9.389   5.537   0.992 -0.1388 -0.7362 -0.3819
  934MOL0     H28857   9.412   5.615   1.148 -4.0791 -2.1285  1.6359
  934MOL0     H28858   9.593   5.393   1.024  1.0378  1.7169 -3.5788
  934MOL0     H28859   9.630   5.554   0.999  1.5273 -1.8708  1.1200
  934MOL0     H28860   9.598   5.489   1.288  2.5099  0.3890  1.7381
  934MOL0     H28861   9.656   5.633   1.219  0.1557  0.4645 -2.2054
  934MOL0     H28862   9.849   5.479   1.110  1.0975  2.0773  1.9051
  934MOL0     H28863   9.758   5.338   1.163  1.9535 -0.8785  3.1050
  934MOL0     H28864   9.798   5.391   1.398  0.8148 -2.8164 -0.3151
  934MOL0     H28865   9.941   5.375   1.313  0.3222  0.6538  2.3391
  934MOL0     H28866   9.823   5.653   1.341 -0.4419 -0.0975 -0.3044
  934MOL0     H28867   9.979   5.613   1.271 -3.3974  5.8803 -1.1061
  934MOL0     H28868  10.058   5.513   1.493 -1.1938 -1.2977 -2.6156
  934MOL0     H28869   9.896   5.520   1.557 -1.0558  0.0014 -0.7470
  934MOL0     H28870   9.902   5.779   1.573  1.0810  2.0865 -0.3933
  934MOL0     H28871  10.046   5.769   1.479 -1.5552 -0.2982 -1.3081
  934MOL0     H28872   9.334   5.523   1.399 -1.9960  0.3433  1.6477
  934MOL0     H28873   9.125   5.571   1.497  0.0881  0.6540  0.6679
  934MOL0     H28874   8.832   5.810   1.440  0.3106 -1.8258  0.1943
  934MOL0     H28875   8.676   5.997   1.520 -0.1207 -0.8521  1.2139
  934MOL0     H28876   6.989   6.979   1.219  0.2491 -1.2203  0.9119
  934MOL0     H28877   6.791   7.092   1.244  2.4370  0.7712  0.3420
  934MOL0     H28878   6.508   7.291   1.619  2.4506  2.0671 -1.1483
  934MOL0     H28879   6.280   7.370   1.676 -2.9641 -0.1394 -0.5168
  934MOL0     H28880   6.025   7.616   1.363 -1.7612 -0.4563 -3.3063
  934MOL0     H28881   6.019   7.450   1.318  1.4506  0.6006 -0.5115
  934MOL0     H28882   5.866   7.400   1.504 -1.2390 -1.1028  0.8447
  934MOL0     H28883   5.792   7.508   1.378  0.1717  4.4148  1.0991
  934MOL0     H28884   5.900   7.604   1.638 -0.7448 -1.0458 -1.2685
  934MOL0     H28885   5.869   7.716   1.507 -0.3866 -0.0494 -0.6601
  934MOL0     H28886   5.613   7.615   1.519 -2.0988  0.2516  2.9672
  934MOL0     H28887   5.685   7.740   1.630  0.7337  0.7450 -0.1853
  934MOL0     H28888   5.639   7.364   1.845  1.9935 -1.0008 -2.3695
  934MOL0     H28889   6.219   7.458   1.257 -0.3132 -3.1322 -1.8638
  934MOL0     H28890   6.454   7.418   1.103 -2.8607  0.6467 -1.0658
  934MOL0     H28891   6.507   7.260   1.135 -1.2777 -0.3058 -2.4035
  934MOL0     H28892   6.329   7.305   1.098 -0.4357 -0.4622 -1.6634
  935MOL0     O28893   5.061  10.315   9.629 -0.1018  1.0401  0.9227
  935MOL0     C28894   5.051  10.377   9.521 -0.2388 -0.6624  0.0486
  935MOL0     O28895   5.149  10.466   9.468  0.3139 -1.0320  0.9749
  935MOL0     C28896   5.233  10.525   9.557 -0.4288 -0.3533  0.0079
  935MOL0     C28897   5.368  10.511   9.547 -1.1784  0.5031 -0.4850
  935MOL0     C28898   5.457  10.558   9.644  0.5403 -0.2933 -0.5065
  935MOL0     C28899   5.412  10.639   9.750  0.5925  0.1861 -0.0457
  935MOL0     O28900   5.502  10.686   9.850  0.5275  0.1746  0.3470
  935MOL0     C28901   5.463  10.788   9.937  0.7244 -0.2679  0.0691
  935MOL0     C28902   5.598  10.858   9.988  1.0467 -0.0971 -0.0677
  935MOL0     C28903   5.661  10.938   9.865  0.5278 -0.2089  0.0433
  935MOL0     C28904   5.770  11.040   9.920  0.1326 -0.1763  0.4978
  935MOL0     C28905   5.906  10.973   9.902 -0.1582 -1.2327  0.1237
  935MOL0     C28906   5.936  10.848   9.988  0.2578 -0.3014 -0.3874
  935MOL0     C28907   6.091  10.806   9.979  0.3486  0.3224 -0.5926
  935MOL0     C28908   6.187  10.865  10.076  0.6615  1.0329 -0.1621
  935MOL0     N28909   6.249  10.983  10.013  0.2665 -0.2547 -0.1930
  935MOL0     C28910   6.265  11.108  10.073  0.7370 -0.0972  0.8825
  935MOL0     C28911   6.337  11.178   9.983  0.2828  0.3186 -0.7416
  935MOL0     C28912   6.376  11.323  10.002 -0.7511  1.0018 -0.2813
  935MOL0     C28913   6.334  11.408   9.887 -0.0940  0.1657  0.3028
  935MOL0     C28914   6.180  11.431   9.884  0.3487 -0.1997 -0.8969
  935MOL0     C28915   6.156  11.532   9.771  0.0041  0.0323  1.6630
  935MOL0     O28916   6.032  11.599   9.794 -0.6698  0.1140  0.1679
  935MOL0     C28917   5.916  11.534   9.763  0.5238 -0.7223  0.2499
  935MOL0     C28918   5.853  11.502   9.638 -0.3701 -0.1457  0.5046
  935MOL0     C28919   5.720  11.448   9.621  0.2279 -0.8320 -1.1026
  935MOL0     C28920   5.658  11.413   9.493  0.0855  0.0153 -0.7166
  935MOL0     C28921   5.646  11.415   9.745  0.7235  0.1251  0.6083
  935MOL0     C28922   5.511  11.354   9.744 -0.2505  0.2512 -0.0093
  935MOL0     O28923   5.423  11.409   9.656 -0.3203 -0.3803 -0.3904
  935MOL0     C28924   5.290  11.396   9.680  0.3454 -0.3318  0.5285
  935MOL0     C28925   5.219  11.325   9.589 -0.0966 -0.5265  0.4625
  935MOL0     C28926   5.085  11.302   9.624  0.2004  1.0248  0.3254
  935MOL0     C28927   5.022  11.344   9.739 -1.0933 -0.7454  0.6795
  935MOL0     O28928   4.890  11.317   9.772 -0.8332  0.6903 -0.1181
  935MOL0     C28929   4.802  11.290   9.655  0.5249  0.9421 -0.3318
  935MOL0     C28930   4.655  11.277   9.702 -0.5854  0.2588 -0.0102
  935MOL0     C28931   4.565  11.255   9.580  0.7368 -0.0624  0.5792
  935MOL0     C28932   4.433  11.197   9.615  0.0961  0.3895  0.3443
  935MOL0     C28933   4.354  11.178   9.489 -0.2616 -0.4452  0.3728
  935MOL0     C28934   4.229  11.086   9.518 -0.1190 -0.3640 -0.0724
  935MOL0     C28935   4.127  11.158   9.602 -1.1934  1.2939  0.8625
  935MOL0     C28936   4.013  11.059   9.653 -0.2901  0.2598 -0.2304
  935MOL0    Cl28937   4.083  10.913   9.738 -0.1245 -0.3355 -0.0692
  935MOL0     C28938   5.092  11.426   9.821  0.6111  0.4274 -0.1674
  935MOL0     C28939   5.223  11.456   9.788  0.5343 -0.2863  0.1070
  935MOL0     O28940   5.481  11.291   9.845  0.3636 -0.0052 -0.6507
  935MOL0     C28941   5.704  11.449   9.871 -0.4684 -0.3640  0.8889
  935MOL0     C28942   5.840  11.497   9.879  0.0193 -0.5590 -0.1909
  935MOL0     N28943   6.365  11.099   9.872  0.0631 -0.1852 -0.3276
  935MOL0     N28944   6.317  10.980   9.893  0.0149 -0.5570  0.0067
  935MOL0     C28945   5.271  10.661   9.754  0.1515  0.4207  0.6051
  935MOL0     C28946   5.183  10.611   9.659  0.5391  0.2221 -0.5845
  935MOL0     C28947   4.926  10.362   9.439  0.3352 -1.2883  0.0607
  935MOL0     C28948   4.942  10.344   9.297  0.0962  0.4430  0.5278
  935MOL0     C28949   4.822  10.336   9.213 -1.3751 -0.5239 -0.6837
  935MOL0     C28950   4.689  10.343   9.268 -0.4031 -1.0077  0.1270
  935MOL0     O28951   4.570  10.316   9.205  0.2920  0.1504 -0.8717
  935MOL0     C28952   4.562  10.306   9.063 -0.1232  0.1021  0.0275
  935MOL0     C28953   4.415  10.246   9.025 -0.1811 -1.4671  0.7111
  935MOL0     C28954   4.303  10.323   9.087 -0.5793 -0.7130 -0.9022
  935MOL0     C28955   4.322  10.478   9.068  0.0981 -0.4703 -0.6789
  935MOL0     C28956   4.353  10.524   8.931 -0.4428  0.7405  0.5910
  935MOL0     C28957   4.401  10.555   8.825  0.8875  0.4313 -0.5135
  935MOL0     C28958   4.679  10.371   9.403 -0.0496  0.1907  0.4446
  935MOL0     C28959   4.792  10.372   9.495 -0.1889  1.1582  0.0530
  935MOL0     C28960   4.771  10.393   9.643 -0.4357  0.8316  0.2128
  935MOL0     H28961   5.410  10.456   9.464 -0.6993 -0.6388  0.4766
  935MOL0     H28962   5.563  10.542   9.627  0.9189  0.8428  0.6613
  935MOL0     H28963   5.398  10.750  10.017 -1.1996  0.2904 -1.1512
  935MOL0     H28964   5.400  10.864   9.889 -2.7457 -2.2338  1.1199
  935MOL0     H28965   5.575  10.909  10.082 -3.8427 -2.4448  0.2899
  935MOL0     H28966   5.660  10.779  10.031  1.3270 -0.7383 -1.5848
  935MOL0     H28967   5.699  10.876   9.783 -0.8524 -1.2948  0.1906
  935MOL0     H28968   5.585  11.007   9.829  1.7227  0.3586 -1.5279
  935MOL0     H28969   5.775  11.138   9.871  0.5412 -1.1538 -1.5246
  935MOL0     H28970   5.751  11.052  10.027 -0.3648 -0.1623  0.4125
  935MOL0     H28971   5.972  11.048   9.946 -2.0975 -1.2032  3.2725
  935MOL0     H28972   5.927  10.960   9.795 -0.3945 -4.2333  0.3535
  935MOL0     H28973   5.904  10.871  10.090 -3.8953  0.6394 -1.6769
  935MOL0     H28974   5.875  10.766   9.948 -0.4762 -0.1286  0.3581
  935MOL0     H28975   6.128  10.814   9.876 -0.1761 -1.9588 -1.0155
  935MOL0     H28976   6.084  10.699   9.998 -0.4862  0.2616 -1.1842
  935MOL0     H28977   6.141  10.886  10.173 -0.8561 -1.0800 -0.3437
  935MOL0     H28978   6.262  10.792  10.108 -1.3270 -0.1582  2.1763
  935MOL0     H28979   6.244  11.137  10.175  2.0830 -0.8927  1.4209
  935MOL0     H28980   6.484  11.333  10.009 -0.6042 -0.7723  0.3103
  935MOL0     H28981   6.339  11.356  10.100 -1.2469  0.3378 -0.2390
  935MOL0     H28982   6.382  11.505   9.900  0.4404 -0.1627  0.7835
  935MOL0     H28983   6.367  11.362   9.794 -1.6247 -0.7172  0.1582
  935MOL0     H28984   6.123  11.338   9.870  2.5487 -1.3530 -2.8444
  935MOL0     H28985   6.148  11.480   9.976 -0.9737 -0.0413 -1.4146
  935MOL0     H28986   6.233  11.603   9.739 -1.4185  1.7218  1.8268
  935MOL0     H28987   6.141  11.466   9.686 -0.2020  1.4653  0.5503
  935MOL0     H28988   5.907  11.520   9.546 -1.0136  0.7452  0.2817
  935MOL0     H28989   5.636  11.306   9.500  3.6439 -0.7436  1.4078
  935MOL0     H28990   5.717  11.430   9.403  0.1208  4.4135 -0.0893
  935MOL0     H28991   5.568  11.471   9.468  1.5967  2.1045 -1.6199
  935MOL0     H28992   5.271  11.290   9.501  0.9257 -2.8716  1.8907
  935MOL0     H28993   5.030  11.249   9.546 -0.4891 -0.6726  1.9011
  935MOL0     H28994   4.828  11.371   9.586  3.1948  0.7831  0.3754
  935MOL0     H28995   4.826  11.192   9.613 -1.0666 -0.5356  2.0018
  935MOL0     H28996   4.654  11.196   9.776 -1.2179 -1.4463 -1.8109
  935MOL0     H28997   4.627  11.374   9.745  1.2958  1.2903 -0.9561
  935MOL0     H28998   4.619  11.187   9.513  0.7113  1.5598 -1.1803
  935MOL0     H28999   4.563  11.350   9.527 -0.2800  0.7939  2.0743
  935MOL0     H29000   4.383  11.268   9.681 -1.2196 -1.2025  1.1187
  935MOL0     H29001   4.446  11.099   9.662 -1.0504 -0.9089 -1.8781
  935MOL0     H29002   4.335  11.277   9.448 -0.1694 -1.3903 -2.1338
  935MOL0     H29003   4.404  11.117   9.413 -1.0520 -0.4621 -0.1484
  935MOL0     H29004   4.251  10.989   9.564  2.4095  0.7423  1.2635
  935MOL0     H29005   4.185  11.060   9.422  1.6644 -1.7920 -0.5400
  935MOL0     H29006   4.086  11.236   9.537  1.3611 -1.5682 -4.8806
  935MOL0     H29007   4.165  11.206   9.693  0.7553  0.4003  0.5647
  935MOL0     H29008   3.958  11.026   9.565  2.0968 -1.3644 -1.2162
  935MOL0     H29009   3.951  11.113   9.726  2.0235 -1.2748  3.1265
  935MOL0     H29010   5.038  11.479   9.899  0.8931  2.0433 -1.0283
  935MOL0     H29011   5.272  11.531   9.849  1.3860  2.1490 -3.2368
  935MOL0     H29012   5.651  11.434   9.965  2.2648 -1.8864  2.2892
  935MOL0     H29013   5.870  11.519   9.980  1.6621 -1.1995 -0.5152
  935MOL0     H29014   5.232  10.708   9.844  0.3582  1.6518  0.0655
  935MOL0     H29015   5.074  10.612   9.663  0.5188  1.2144  3.9012
  935MOL0     H29016   5.036  10.338   9.244 -1.3970  0.5121 -2.2951
  935MOL0     H29017   4.844  10.318   9.108  1.7871 -1.4647  0.0229
  935MOL0     H29018   4.560  10.404   9.014 -0.8119 -0.1536 -0.4854
  935MOL0     H29019   4.641  10.250   9.012  0.3235  0.8647 -0.1374
  935MOL0     H29020   4.394  10.143   9.056 -0.6750 -1.2248  1.1941
  935MOL0     H29021   4.405  10.246   8.916  3.0564  2.7859  0.1402
  935MOL0     H29022   4.211  10.303   9.031 -1.1261 -1.8931  0.3556
  935MOL0     H29023   4.303  10.301   9.194  0.5121  2.4305 -0.1648
  935MOL0     H29024   4.397  10.527   9.131 -1.6447  2.0415 -0.3889
  935MOL0     H29025   4.225  10.516   9.102 -1.7065 -2.7997 -2.8037
  935MOL0     H29026   4.427  10.577   8.723 -1.6506 -1.1960 -1.6429
  935MOL0     H29027   4.585  10.395   9.450 -1.5176 -1.6684 -1.3553
  935MOL0     H29028   4.673  10.435   9.668 -0.7593  1.4806 -1.9288
  935MOL0     H29029   4.776  10.302   9.704  1.7679  1.6261  1.3075
  935MOL0     H29030   4.845  10.461   9.687 -0.1586  1.5119 -1.2384
  936MOL0     O29031   1.834   7.496   8.381 -0.4859 -0.0364  0.0844
  936MOL0     C29032   1.762   7.400   8.346 -0.4578 -0.2087  0.2663
  936MOL0     O29033   1.766   7.328   8.229  0.0261 -0.3864  0.2973
  936MOL0     C29034   1.870   7.370   8.138  0.5239  0.0295  0.1064
  936MOL0     C29035   1.836   7.471   8.045 -0.5427  0.1164 -0.3931
  936MOL0     C29036   1.933   7.520   7.952  0.6379  1.0680 -0.0830
  936MOL0     C29037   2.062   7.478   7.963  0.4096  0.2910 -1.0102
  936MOL0     O29038   2.149   7.543   7.879  0.7396  0.3134 -0.6404
  936MOL0     C29039   2.289   7.501   7.880  0.1170  0.6338 -0.2543
  936MOL0     C29040   2.366   7.582   7.784  0.8649  0.1388  0.7851
  936MOL0     C29041   2.517   7.563   7.816  0.0165 -0.2016 -0.1060
  936MOL0     C29042   2.600   7.651   7.721 -0.3020  0.1728 -0.2793
  936MOL0     C29043   2.746   7.631   7.757 -0.1274 -0.0105 -0.1989
  936MOL0     C29044   2.836   7.717   7.676  0.6540 -0.2604 -0.1859
  936MOL0     C29045   2.958   7.750   7.763  0.6549  0.4923  0.1240
  936MOL0     C29046   3.049   7.852   7.697 -0.1838  0.2264 -0.1398
  936MOL0     N29047   2.983   7.968   7.637  0.2854 -0.2912 -0.8172
  936MOL0     C29048   2.943   8.072   7.717 -0.9045 -0.3406 -0.4640
  936MOL0     C29049   2.915   8.173   7.639 -0.0990  0.5095 -1.0417
  936MOL0     C29050   2.872   8.311   7.672 -0.7466 -0.7089  1.0464
  936MOL0     C29051   2.989   8.395   7.713  0.0843  0.1554 -0.6363
  936MOL0     C29052   2.945   8.535   7.709  0.0664 -0.1943 -0.1699
  936MOL0     C29053   3.052   8.637   7.740  0.0745 -0.1785  0.2792
  936MOL0     O29054   3.066   8.631   7.881 -0.0879  0.0399  1.2503
  936MOL0     C29055   3.173   8.690   7.936 -0.2292  0.1924  0.4472
  936MOL0     C29056   3.245   8.787   7.861 -0.0549  0.3827  0.8813
  936MOL0     C29057   3.354   8.851   7.930  0.7490  0.3873 -0.4134
  936MOL0     C29058   3.428   8.950   7.843 -1.2191  0.9312 -0.9064
  936MOL0     C29059   3.386   8.813   8.068  0.4229  0.2464 -0.1364
  936MOL0     C29060   3.483   8.878   8.154  0.5931 -0.4972  0.2366
  936MOL0     O29061   3.448   8.918   8.280 -0.2520  0.4391  0.5947
  936MOL0     C29062   3.541   8.993   8.355 -0.0752  0.0404  0.1463
  936MOL0     C29063   3.527   9.131   8.352 -0.0098  0.4681 -0.0323
  936MOL0     C29064   3.608   9.211   8.431 -0.7789 -0.6252 -0.6524
  936MOL0     C29065   3.717   9.153   8.486 -0.6111  0.2816  0.4520
  936MOL0     O29066   3.802   9.235   8.564 -0.4988  0.0595  0.4847
  936MOL0     C29067   3.946   9.216   8.541 -0.1438 -0.6902  0.3010
  936MOL0     C29068   4.010   9.358   8.544 -0.4311 -0.6303  0.2895
  936MOL0     C29069   4.036   9.388   8.694 -0.0485 -0.1937  0.6637
  936MOL0     C29070   4.176   9.345   8.736 -0.4015  0.8131  0.0921
  936MOL0     C29071   4.185   9.330   8.893  0.7084 -0.1540  0.2696
  936MOL0     C29072   4.322   9.279   8.925 -0.4448 -1.0531 -1.0822
  936MOL0     C29073   4.367   9.321   9.069  0.1813 -0.5413  0.1793
  936MOL0     C29074   4.514   9.331   9.080 -0.1565 -0.1501 -0.3920
  936MOL0    Cl29075   4.615   9.182   9.056  0.0322  0.1114  0.3672
  936MOL0     C29076   3.730   9.017   8.493 -0.4405  0.3252  0.7381
  936MOL0     C29077   3.641   8.934   8.430 -0.2912  0.7025  0.1995
  936MOL0     O29078   3.589   8.907   8.093 -0.0175  0.0556 -0.0377
  936MOL0     C29079   3.301   8.721   8.123 -0.0185  0.0353 -1.4368
  936MOL0     C29080   3.189   8.665   8.073 -0.3437  0.9194  0.2270
  936MOL0     N29081   2.927   8.128   7.507  0.4693 -0.0121 -0.2714
  936MOL0     N29082   2.979   8.006   7.511  0.4441 -0.7166 -0.1350
  936MOL0     C29083   2.092   7.364   8.047 -0.3497 -0.2568 -0.1788
  936MOL0     C29084   1.997   7.314   8.134 -0.2134 -0.4204  0.9947
  936MOL0     C29085   1.667   7.351   8.450 -0.7047 -0.6614  0.0242
  936MOL0     C29086   1.614   7.460   8.526 -0.0959 -0.0697 -0.0110
  936MOL0     C29087   1.523   7.427   8.629 -0.2088 -0.2469 -0.5112
  936MOL0     C29088   1.483   7.298   8.653 -0.4271  0.9203 -0.1589
  936MOL0     O29089   1.399   7.265   8.749 -0.2550  0.9184  0.1703
  936MOL0     C29090   1.300   7.354   8.800  0.0997 -0.0801 -0.8165
  936MOL0     C29091   1.165   7.283   8.813  0.0860  0.1481  0.7535
  936MOL0     C29092   1.107   7.228   8.686  0.3292  0.2711  0.4006
  936MOL0     C29093   0.954   7.201   8.709  0.5249 -0.2490  0.6698
  936MOL0     C29094   0.879   7.320   8.683 -1.1377  0.2671  0.1918
  936MOL0     C29095   0.808   7.414   8.663 -0.4223  0.1178  0.2625
  936MOL0     C29096   1.554   7.193   8.594  1.3787  0.2414  1.0215
  936MOL0     C29097   1.638   7.215   8.485 -0.4398  0.2887 -0.1455
  936MOL0     C29098   1.710   7.090   8.423 -0.1341  0.2792  0.1487
  936MOL0     H29099   1.733   7.504   8.040 -0.4914  0.5632  1.1567
  936MOL0     H29100   1.917   7.595   7.875  0.4988  1.3968  0.2642
  936MOL0     H29101   2.306   7.395   7.860 -1.0478  0.6331 -1.3499
  936MOL0     H29102   2.328   7.528   7.978 -1.3670  0.3289  0.4382
  936MOL0     H29103   2.343   7.555   7.681  0.9831  0.3288  0.7090
  936MOL0     H29104   2.330   7.682   7.808 -1.2841  0.1126 -1.8921
  936MOL0     H29105   2.529   7.590   7.921 -1.0361 -0.5322  0.1133
  936MOL0     H29106   2.557   7.462   7.802  1.4808  0.3756 -0.3220
  936MOL0     H29107   2.583   7.621   7.617 -0.5406  2.3489 -0.9151
  936MOL0     H29108   2.563   7.754   7.726 -2.0300 -0.3730 -0.8888
  936MOL0     H29109   2.772   7.525   7.749 -0.0209 -0.1070  1.0881
  936MOL0     H29110   2.759   7.654   7.863  1.0681  0.7503 -0.4948
  936MOL0     H29111   2.865   7.664   7.584 -1.4024 -0.9462 -0.4872
  936MOL0     H29112   2.777   7.804   7.649  1.1872 -0.1551 -1.0649
  936MOL0     H29113   3.017   7.662   7.791  0.0007  0.6763  2.2929
  936MOL0     H29114   2.918   7.799   7.852 -1.0136  0.9721 -0.8456
  936MOL0     H29115   3.109   7.895   7.777 -0.1668 -1.3546  0.7344
  936MOL0     H29116   3.113   7.801   7.624 -0.3135  0.0560 -0.1351
  936MOL0     H29117   2.929   8.074   7.825 -3.0198 -0.2029 -0.6934
  936MOL0     H29118   2.796   8.303   7.750 -0.0213 -4.8462  1.5566
  936MOL0     H29119   2.836   8.353   7.577 -0.5550  0.4157  1.4534
  936MOL0     H29120   3.010   8.375   7.819 -0.1296 -1.3597 -0.8672
  936MOL0     H29121   3.075   8.381   7.647  0.1641  1.0743 -0.7495
  936MOL0     H29122   2.894   8.549   7.613 -3.2414 -0.8435  1.3471
  936MOL0     H29123   2.855   8.550   7.768 -3.2781  0.3448 -4.8147
  936MOL0     H29124   3.141   8.605   7.685 -0.3998  0.2495 -0.7398
  936MOL0     H29125   3.016   8.735   7.706  1.8204  0.3186 -0.2138
  936MOL0     H29126   3.219   8.808   7.758  2.5740  0.5210  0.1672
  936MOL0     H29127   3.458   9.031   7.911  0.7428 -0.9987  0.6948
  936MOL0     H29128   3.356   8.986   7.769 -1.1115 -0.1221 -1.5378
  936MOL0     H29129   3.513   8.907   7.789 -0.5663  2.0535 -0.8012
  936MOL0     H29130   3.454   9.179   8.287  0.2388  1.6036  0.5159
  936MOL0     H29131   3.607   9.319   8.422 -1.5994 -0.7193 -1.9527
  936MOL0     H29132   3.995   9.150   8.613  0.9603  1.5673  1.7266
  936MOL0     H29133   3.969   9.169   8.445 -1.1623  0.9254 -0.7906
  936MOL0     H29134   4.108   9.370   8.496 -0.1684  0.8522  1.1268
  936MOL0     H29135   3.943   9.435   8.504  1.7656  1.2789  0.0724
  936MOL0     H29136   3.961   9.337   8.754 -0.6663  0.0797  0.1367
  936MOL0     H29137   4.028   9.495   8.717  0.5439  0.0906 -0.3778
  936MOL0     H29138   4.241   9.427   8.706 -1.8837  1.5037 -1.3946
  936MOL0     H29139   4.212   9.259   8.679  2.0429  0.1296  2.4799
  936MOL0     H29140   4.152   9.427   8.931 -1.7968 -0.6717 -0.3970
  936MOL0     H29141   4.115   9.253   8.926  0.4934 -0.2055 -0.3015
  936MOL0     H29142   4.389   9.342   8.865 -0.7672 -0.4502 -0.8155
  936MOL0     H29143   4.335   9.173   8.902 -1.2964 -1.3414 -0.3145
  936MOL0     H29144   4.314   9.258   9.140  3.0266  0.2649  3.2628
  936MOL0     H29145   4.326   9.418   9.100  0.3941  0.0390 -1.2551
  936MOL0     H29146   4.534   9.369   9.181 -1.6781 -0.4944  0.0603
  936MOL0     H29147   4.557   9.404   9.011  3.0987 -0.1846  1.4043
  936MOL0     H29148   3.808   8.977   8.558  0.7509  0.9766 -0.2421
  936MOL0     H29149   3.647   8.826   8.437  1.6153  0.7732  0.0449
  936MOL0     H29150   3.319   8.699   8.228  1.0293  1.0403 -1.3871
  936MOL0     H29151   3.127   8.597   8.132 -0.2969 -1.6746 -2.4783
  936MOL0     H29152   2.190   7.318   8.037  0.3177  0.8231  1.1577
  936MOL0     H29153   2.015   7.216   8.179  1.1810 -0.5963  0.1300
  936MOL0     H29154   1.643   7.564   8.520  1.2446 -0.1726  2.8686
  936MOL0     H29155   1.490   7.509   8.691  3.1268 -0.8493  2.3506
  936MOL0     H29156   1.330   7.391   8.899 -1.3045 -1.4335  0.1655
  936MOL0     H29157   1.292   7.448   8.745 -0.4524  0.2880 -0.1179
  936MOL0     H29158   1.098   7.356   8.861 -0.6213 -0.1530  0.2319
  936MOL0     H29159   1.167   7.203   8.888 -1.4907  2.0313  2.9457
  936MOL0     H29160   1.126   7.310   8.617  0.0933 -1.5003 -1.8649
  936MOL0     H29161   1.149   7.130   8.661 -0.3895  0.4463 -1.6748
  936MOL0     H29162   0.934   7.160   8.808 -0.3400  0.2802  0.7234
  936MOL0     H29163   0.934   7.121   8.637  1.7068  1.0580 -1.1774
  936MOL0     H29164   0.740   7.493   8.637  0.4624  0.9383  0.3920
  936MOL0     H29165   1.533   7.090   8.618  2.4835 -0.8133 -2.0150
  936MOL0     H29166   1.772   7.032   8.492 -3.5023 -1.1790  2.1805
  936MOL0     H29167   1.634   7.022   8.383 -2.4989  2.7115  0.2083
  936MOL0     H29168   1.773   7.119   8.339 -2.0906 -2.6911 -2.6140
  937MOL0     O29169   6.651   2.901   7.353  0.6305 -0.0459  0.3227
  937MOL0     C29170   6.602   2.793   7.314  0.1476 -0.6235  0.7745
  937MOL0     O29171   6.657   2.707   7.226 -0.5416 -0.1862 -0.1350
  937MOL0     C29172   6.793   2.725   7.181 -0.0032  0.4020  0.3878
  937MOL0     C29173   6.893   2.753   7.272  0.0110 -0.7340  0.3712
  937MOL0     C29174   7.023   2.751   7.214  0.2263  0.0845 -0.7666
  937MOL0     C29175   7.051   2.716   7.077  0.7609 -0.2051 -0.3979
  937MOL0     O29176   7.180   2.698   7.034 -0.3740  0.1314  0.3387
  937MOL0     C29177   7.293   2.754   7.110 -0.5550 -0.4739  0.1085
  937MOL0     C29178   7.417   2.764   7.022  0.1157  0.2352 -0.2858
  937MOL0     C29179   7.520   2.649   7.043  0.0076  0.4805  0.2763
  937MOL0     C29180   7.590   2.648   7.173  0.2410 -0.9065 -1.1948
  937MOL0     C29181   7.681   2.533   7.183 -1.0017 -0.6020 -0.2981
  937MOL0     C29182   7.806   2.540   7.084 -0.4499  0.5838  0.8193
  937MOL0     C29183   7.926   2.495   7.176 -0.3477 -0.4840 -0.2466
  937MOL0     C29184   7.982   2.610   7.265  0.2665 -0.7571  0.4760
  937MOL0     N29185   8.016   2.724   7.172 -0.2166 -0.8521  0.3734
  937MOL0     C29186   8.110   2.726   7.077 -0.1212 -0.7029 -0.0747
  937MOL0     C29187   8.088   2.842   7.015 -0.4915  0.1604 -0.2334
  937MOL0     C29188   8.148   2.898   6.890 -0.1021  0.2880  0.9961
  937MOL0     C29189   8.298   2.932   6.915  0.2313 -0.3683 -0.5000
  937MOL0     C29190   8.358   2.963   6.782  0.1276 -0.9265  0.7002
  937MOL0     C29191   8.484   3.044   6.780 -0.2870  0.3495  0.2104
  937MOL0     O29192   8.581   2.977   6.856 -0.4677 -0.1825  0.2711
  937MOL0     C29193   8.714   3.011   6.858 -0.3235  0.6910 -0.2685
  937MOL0     C29194   8.772   3.122   6.802  0.1199  0.6416  0.6337
  937MOL0     C29195   8.909   3.137   6.804 -0.1683  0.6119  0.2429
  937MOL0     C29196   8.967   3.251   6.726  0.5037  0.4046 -0.3782
  937MOL0     C29197   8.988   3.046   6.884 -0.1218  0.7851  0.0385
  937MOL0     C29198   9.138   3.055   6.911 -0.4609  0.2385  0.1586
  937MOL0     O29199   9.198   2.967   6.995  0.0726 -0.3419  0.3475
  937MOL0     C29200   9.335   2.964   7.019  0.1840 -0.5529 -1.1262
  937MOL0     C29201   9.378   2.898   7.137  0.1652  0.1538 -1.1566
  937MOL0     C29202   9.515   2.879   7.164  0.1196  0.4492 -0.3004
  937MOL0     C29203   9.613   2.945   7.098  0.0617  0.9831 -0.0903
  937MOL0     O29204   9.745   2.921   7.154  0.2985  0.1931 -0.4378
  937MOL0     C29205   9.851   2.874   7.078 -1.1338 -0.7139  0.3125
  937MOL0     C29206   9.834   2.720   7.046 -0.1969  0.3258  0.1149
  937MOL0     C29207   9.949   2.641   6.981 -0.1868  0.3600  0.4613
  937MOL0     C29208  10.003   2.691   6.846 -0.2235 -0.7628 -0.4575
  937MOL0     C29209   9.892   2.729   6.741  0.2252  0.6828 -0.0147
  937MOL0     C29210   9.956   2.761   6.603 -0.1272  0.5628 -0.8133
  937MOL0     C29211   9.873   2.864   6.523  0.2952 -0.4485 -0.6235
  937MOL0     C29212   9.946   2.939   6.413  0.4271 -0.0780 -0.0003
  937MOL0    Cl29213  10.020   2.825   6.295 -0.1352 -0.1564  0.1001
  937MOL0     C29214   9.579   3.021   6.986  0.1384  0.2733 -0.1029
  937MOL0     C29215   9.440   3.021   6.944  0.0818  0.9747  0.1193
  937MOL0     O29216   9.194   3.140   6.853 -0.6587 -0.6142 -0.3136
  937MOL0     C29217   8.923   2.936   6.941 -0.4425  0.2201 -0.1612
  937MOL0     C29218   8.786   2.917   6.922  0.7839  0.3335 -0.3767
  937MOL0     N29219   7.987   2.911   7.061  1.1450 -0.2260  0.3922
  937MOL0     N29220   7.943   2.843   7.158 -0.0081  0.6011  0.4851
  937MOL0     C29221   6.944   2.697   6.997 -0.1361  0.6417 -0.1071
  937MOL0     C29222   6.812   2.690   7.047 -0.2268 -0.4015  1.1414
  937MOL0     C29223   6.471   2.767   7.378 -0.0223 -0.2364 -0.3070
  937MOL0     C29224   6.379   2.691   7.300  0.0941  0.4408 -0.1477
  937MOL0     C29225   6.245   2.675   7.328  0.5491  0.2001 -0.9130
  937MOL0     C29226   6.201   2.715   7.456  0.1047 -0.2394  0.9450
  937MOL0     O29227   6.077   2.698   7.504  0.4686 -0.2522 -0.1356
  937MOL0     C29228   6.024   2.567   7.479 -0.3465 -0.4643  0.4962
  937MOL0     C29229   5.923   2.538   7.585 -0.6528 -0.1058 -0.0177
  937MOL0     C29230   5.807   2.647   7.579 -0.2357 -0.2808 -0.2858
  937MOL0     C29231   5.713   2.611   7.690 -0.0742  0.8389 -0.3914
  937MOL0     C29232   5.760   2.646   7.828  0.9691  0.1988 -0.4389
  937MOL0     C29233   5.794   2.663   7.941 -0.2082  0.1212 -0.3843
  937MOL0     C29234   6.297   2.783   7.538  0.4396 -0.6335  0.0088
  937MOL0     C29235   6.426   2.818   7.504 -0.0098 -0.5039 -0.0741
  937MOL0     C29236   6.524   2.894   7.605  0.3367 -0.4500 -0.1917
  937MOL0     H29237   6.870   2.771   7.376 -2.0824 -2.0568  0.2086
  937MOL0     H29238   7.103   2.755   7.288 -2.4250 -2.0745  2.5760
  937MOL0     H29239   7.306   2.701   7.205  0.7379  3.6300  2.4952
  937MOL0     H29240   7.260   2.855   7.136 -1.4941 -0.0166 -2.5733
  937MOL0     H29241   7.392   2.774   6.916  1.0597  0.8303 -0.4667
  937MOL0     H29242   7.463   2.861   7.042  2.2172 -0.9077  0.7224
  937MOL0     H29243   7.475   2.552   7.019  1.1803 -0.4327  1.5475
  937MOL0     H29244   7.596   2.663   6.966  1.4544 -0.4067  1.4899
  937MOL0     H29245   7.654   2.736   7.185 -0.4886 -0.2423 -2.0635
  937MOL0     H29246   7.516   2.641   7.253  0.9561  1.0363 -0.2935
  937MOL0     H29247   7.643   2.431   7.185 -1.3257 -0.4812  1.3325
  937MOL0     H29248   7.721   2.549   7.283 -1.4313  1.6459 -0.4271
  937MOL0     H29249   7.786   2.470   7.003  0.2586  2.6123 -1.2010
  937MOL0     H29250   7.825   2.640   7.043  0.1654 -0.0063 -0.3883
  937MOL0     H29251   8.006   2.473   7.105 -0.2219  0.8891 -0.5543
  937MOL0     H29252   7.917   2.402   7.233 -0.5250  0.6381  1.6376
  937MOL0     H29253   7.901   2.645   7.330 -0.9067 -1.1368 -0.7239
  937MOL0     H29254   8.061   2.578   7.333  0.5709 -2.0170 -0.4181
  937MOL0     H29255   8.193   2.659   7.054 -2.8844 -4.0845 -1.1650
  937MOL0     H29256   8.094   2.983   6.849  0.7657 -0.1198 -1.1292
  937MOL0     H29257   8.136   2.819   6.815  0.8605  1.3275 -0.3074
  937MOL0     H29258   8.305   3.014   6.987  0.3227  1.5205 -2.5522
  937MOL0     H29259   8.347   2.843   6.956 -0.2786 -1.3802 -2.0090
  937MOL0     H29260   8.378   2.872   6.724 -0.2517  0.1476 -1.1688
  937MOL0     H29261   8.279   3.014   6.725  1.4479 -0.0925 -0.4342
  937MOL0     H29262   8.514   3.054   6.675 -0.9993  0.8442  0.0399
  937MOL0     H29263   8.468   3.140   6.829  1.1986  0.7301 -0.0074
  937MOL0     H29264   8.711   3.208   6.774 -0.1651 -0.1594 -1.4202
  937MOL0     H29265   8.887   3.312   6.684 -0.8648 -2.1338 -1.6349
  937MOL0     H29266   9.034   3.214   6.648 -1.5783  3.6473 -4.0539
  937MOL0     H29267   9.029   3.315   6.791  0.9190  1.1358 -1.4610
  937MOL0     H29268   9.304   2.880   7.214  1.3818  1.8736  0.4707
  937MOL0     H29269   9.539   2.815   7.249 -2.1951 -1.3890 -0.9157
  937MOL0     H29270   9.861   2.934   6.986 -0.5590 -0.4801  0.5240
  937MOL0     H29271   9.942   2.885   7.136 -0.9511 -2.2217  0.3596
  937MOL0     H29272   9.803   2.668   7.137  0.8717 -3.3828 -1.4563
  937MOL0     H29273   9.750   2.714   6.976  0.8015  1.3176 -1.2281
  937MOL0     H29274   9.912   2.538   6.975 -1.5493  0.8855 -0.9832
  937MOL0     H29275  10.036   2.649   7.046 -0.8127 -1.8621  1.6899
  937MOL0     H29276  10.069   2.611   6.813 -0.9568  0.0443 -4.4865
  937MOL0     H29277  10.065   2.779   6.864  1.6291 -2.3115  1.0109
  937MOL0     H29278   9.827   2.643   6.723  0.8388 -0.4370  2.6481
  937MOL0     H29279   9.833   2.811   6.781  0.1771  0.6382  0.0055
  937MOL0     H29280   9.949   2.662   6.556  0.4652 -1.9999  3.9195
  937MOL0     H29281  10.056   2.801   6.623  0.0617 -0.5640  0.6746
  937MOL0     H29282   9.837   2.935   6.599 -2.0964 -5.4809  3.6034
  937MOL0     H29283   9.787   2.806   6.490 -1.8366  0.9144  2.0922
  937MOL0     H29284  10.039   2.990   6.441  0.5459  1.7162 -3.1307
  937MOL0     H29285   9.888   3.019   6.365  1.6212 -0.4762 -2.2894
  937MOL0     H29286   9.658   3.058   6.923  0.4788 -0.1784  0.0511
  937MOL0     H29287   9.422   3.050   6.841  0.7301 -1.3712 -0.7386
  937MOL0     H29288   8.970   2.864   7.008 -2.4893  0.1974  1.3390
  937MOL0     H29289   8.733   2.827   6.951  1.9804 -1.2551 -2.8587
  937MOL0     H29290   6.964   2.651   6.900 -0.0273  0.6696 -0.0981
  937MOL0     H29291   6.727   2.663   6.986 -1.3211  1.2240  1.8740
  937MOL0     H29292   6.405   2.636   7.210  1.2319 -2.0115  1.5839
  937MOL0     H29293   6.177   2.631   7.257  0.5568 -1.8419  0.2794
  937MOL0     H29294   5.989   2.560   7.375 -0.2064  0.5689  0.3697
  937MOL0     H29295   6.103   2.491   7.481 -0.0645 -0.2031 -0.2060
  937MOL0     H29296   5.970   2.529   7.683  2.1574  1.5310 -1.1033
  937MOL0     H29297   5.875   2.442   7.563 -1.4468  0.5543 -1.3283
  937MOL0     H29298   5.847   2.746   7.602  0.7421  0.3384 -3.9859
  937MOL0     H29299   5.742   2.645   7.491 -0.5138  0.2715 -0.1011
  937MOL0     H29300   5.684   2.506   7.696  2.9735 -0.1736 -1.3777
  937MOL0     H29301   5.624   2.675   7.677  0.3582  1.3698 -0.8240
  937MOL0     H29302   5.796   2.692   8.044 -0.7356 -0.3511 -0.2388
  937MOL0     H29303   6.273   2.812   7.640  0.9094 -0.1159 -0.0257
  937MOL0     H29304   6.626   2.855   7.600  0.5165 -0.1440  0.9971
  937MOL0     H29305   6.517   3.000   7.578  0.9525 -0.4245 -0.2513
  937MOL0     H29306   6.490   2.879   7.708  2.2054  0.2538  0.5712
  938MOL0     O29307   2.527   0.124   0.671  0.1422 -0.4902 -0.2702
  938MOL0     C29308   2.419   0.159   0.624  0.2606 -0.4558 -0.6715
  938MOL0     O29309   2.399   0.266   0.545  0.3766  0.2411  0.0923
  938MOL0     C29310   2.507   0.345   0.520 -0.0768  0.0842  0.1048
  938MOL0     C29311   2.615   0.307   0.444  0.6520 -0.4348 -0.0917
  938MOL0     C29312   2.724   0.394   0.436 -0.1310 -0.7275  0.0066
  938MOL0     C29313   2.731   0.520   0.486 -0.3851 -0.7393  0.8805
  938MOL0     O29314   2.824   0.618   0.459 -0.1084  0.4848  0.3301
  938MOL0     C29315   2.964   0.578   0.490  0.2805 -0.3610 -0.1633
  938MOL0     C29316   3.059   0.697   0.482 -0.3157  0.1963  0.4688
  938MOL0     C29317   3.209   0.666   0.517 -0.8910  0.6135 -0.3816
  938MOL0     C29318   3.291   0.591   0.422 -0.2195 -0.0672 -0.8494
  938MOL0     C29319   3.431   0.646   0.405 -0.0722 -0.6276  0.4614
  938MOL0     C29320   3.527   0.552   0.331 -0.3012  0.0194 -0.2812
  938MOL0     C29321   3.492   0.556   0.189  0.3058 -0.0918 -0.2420
  938MOL0     C29322   3.576   0.459   0.104  0.0066  0.5415  0.3346
  938MOL0     N29323   3.586   0.504  -0.037  0.3492  0.4096  0.9813
  938MOL0     C29324   3.684   0.456  -0.120 -0.3062  0.3734 -0.5015
  938MOL0     C29325   3.633   0.438  -0.241 -0.1069 -0.5559 -0.1137
  938MOL0     C29326   3.695   0.376  -0.363  0.1803  0.0457 -0.2783
  938MOL0     C29327   3.756   0.477  -0.448 -0.5252  0.5649  0.0241
  938MOL0     C29328   3.787   0.417  -0.587  0.3082 -0.1132 -0.5810
  938MOL0     C29329   3.850   0.518  -0.690  0.1258 -0.5424 -0.0445
  938MOL0     O29330   3.985   0.563  -0.642 -0.2820  0.6988 -0.1620
  938MOL0     C29331   4.058   0.650  -0.719 -0.1006 -0.1669  0.5332
  938MOL0     C29332   4.038   0.670  -0.851 -0.7320 -0.2693 -0.0802
  938MOL0     C29333   4.119   0.765  -0.920  0.1633  0.5532 -0.6406
  938MOL0     C29334   4.098   0.775  -1.071  1.0342  0.4375  0.1819
  938MOL0     C29335   4.218   0.840  -0.854  0.2872  0.2050  0.8112
  938MOL0     C29336   4.315   0.938  -0.906 -0.1196  0.4496 -1.0141
  938MOL0     O29337   4.425   0.973  -0.823  0.3056  0.5782  1.3289
  938MOL0     C29338   4.524   1.055  -0.880  1.1262  0.0600  0.4115
  938MOL0     C29339   4.552   1.180  -0.836 -0.1993 -0.4613  0.3589
  938MOL0     C29340   4.676   1.241  -0.896  1.5161  0.1439  0.0969
  938MOL0     C29341   4.749   1.179  -1.000 -1.0456 -0.2604  0.4943
  938MOL0     O29342   4.855   1.249  -1.065 -0.7437  0.5573 -0.2611
  938MOL0     C29343   4.898   1.370  -1.004 -0.2180  0.1070 -0.4690
  938MOL0     C29344   5.019   1.423  -1.080 -0.3019  0.1204  0.4162
  938MOL0     C29345   5.066   1.550  -1.034 -0.3620 -0.7050 -0.3324
  938MOL0     C29346   5.169   1.612  -1.131  0.1192  0.0129  0.3186
  938MOL0     C29347   5.175   1.768  -1.116  0.7034  0.3663  0.0958
  938MOL0     C29348   5.290   1.825  -1.211 -0.0388  0.3572 -1.1691
  938MOL0     C29349   5.317   1.975  -1.200 -0.7152  0.3228 -0.0530
  938MOL0     C29350   5.437   2.014  -1.287  0.8385  0.3723 -0.3057
  938MOL0    Cl29351   5.581   1.954  -1.215  0.1825 -0.0774 -0.0655
  938MOL0     C29352   4.706   1.049  -1.041  0.9267 -0.0922  0.8464
  938MOL0     C29353   4.596   0.988  -0.977 -0.0026  0.2197  0.7032
  938MOL0     O29354   4.303   0.975  -1.020 -0.1828  0.2424 -0.1986
  938MOL0     C29355   4.229   0.819  -0.717  0.1337 -0.2333  0.2535
  938MOL0     C29356   4.151   0.722  -0.647  0.1445  0.6501 -0.8646
  938MOL0     N29357   3.506   0.488  -0.247  0.5000  0.4691 -0.6598
  938MOL0     N29358   3.473   0.506  -0.117 -1.4533 -0.3086 -0.1690
  938MOL0     C29359   2.611   0.566   0.551 -0.1788 -0.0442  0.0561
  938MOL0     C29360   2.506   0.478   0.562 -0.6861 -1.2519 -0.1830
  938MOL0     C29361   2.308   0.085   0.674  0.0968  0.9141  0.4648
  938MOL0     C29362   2.326  -0.053   0.700  0.1571 -0.3961  0.4408
  938MOL0     C29363   2.225  -0.135   0.757 -0.7595 -0.3798  0.4360
  938MOL0     C29364   2.106  -0.079   0.787  0.4881 -0.9589  0.9393
  938MOL0     O29365   2.005  -0.173   0.810 -0.3596  0.3691 -0.0957
  938MOL0     C29366   1.865  -0.141   0.829  0.4473 -0.6160  0.0890
  938MOL0     C29367   1.768  -0.254   0.838  0.2823  0.0488  0.0731
  938MOL0     C29368   1.780  -0.330   0.700 -0.3702  0.4136  0.3858
  938MOL0     C29369   1.650  -0.404   0.671 -0.4274 -0.3179 -0.3160
  938MOL0     C29370   1.615  -0.501   0.767  0.1807  0.4870 -0.2259
  938MOL0     C29371   1.604  -0.580   0.857 -0.7665  0.1081 -0.6507
  938MOL0     C29372   2.076   0.057   0.752  0.1231 -0.6753 -0.1798
  938MOL0     C29373   2.180   0.141   0.704  0.4837 -0.3689 -0.4395
  938MOL0     C29374   2.141   0.282   0.690  0.3661  0.1515  0.4303
  938MOL0     H29375   2.615   0.211   0.394  1.2039 -0.7468  0.4859
  938MOL0     H29376   2.809   0.369   0.373  0.3898  2.6018 -0.7946
  938MOL0     H29377   3.002   0.515   0.409  1.1958 -0.4269  0.3089
  938MOL0     H29378   2.977   0.527   0.586  2.0670  2.1295  1.0367
  938MOL0     H29379   3.052   0.733   0.379 -0.0747 -1.5923 -0.1974
  938MOL0     H29380   3.025   0.778   0.547 -1.2438  0.3114 -0.1401
  938MOL0     H29381   3.249   0.768   0.517 -1.2011  0.7733  1.8896
  938MOL0     H29382   3.220   0.631   0.620 -3.8446 -0.8385 -0.4609
  938MOL0     H29383   3.298   0.486   0.452 -2.0563 -0.2436 -0.9489
  938MOL0     H29384   3.236   0.578   0.328 -2.9156 -0.1809  0.6437
  938MOL0     H29385   3.473   0.665   0.505  0.5901  2.7195 -0.3313
  938MOL0     H29386   3.419   0.742   0.355  0.0510 -1.0582 -0.4025
  938MOL0     H29387   3.630   0.588   0.341  1.4106 -3.4919 -3.0734
  938MOL0     H29388   3.521   0.451   0.371 -1.2747 -0.0576 -0.6012
  938MOL0     H29389   3.508   0.657   0.151  0.3898  0.2027  0.5670
  938MOL0     H29390   3.389   0.521   0.177  0.4504 -0.9738  0.9079
  938MOL0     H29391   3.676   0.441   0.143  0.2202 -0.8811 -0.7871
  938MOL0     H29392   3.538   0.357   0.094 -0.1979  0.8514 -3.7116
  938MOL0     H29393   3.783   0.430  -0.084 -0.7574 -1.7987 -0.6889
  938MOL0     H29394   3.618   0.322  -0.420 -0.7080  0.4080  0.5467
  938MOL0     H29395   3.773   0.306  -0.331 -0.5174 -0.5233  0.2088
  938MOL0     H29396   3.684   0.558  -0.461 -1.7212 -0.5453 -0.4710
  938MOL0     H29397   3.851   0.513  -0.408  0.6778 -0.7728 -1.4535
  938MOL0     H29398   3.853   0.333  -0.563 -1.7687 -1.2550  1.6382
  938MOL0     H29399   3.695   0.374  -0.629 -0.8313  0.3950  1.2335
  938MOL0     H29400   3.843   0.470  -0.787  0.3892 -1.4027  0.3536
  938MOL0     H29401   3.787   0.605  -0.711 -0.9445 -0.6084  2.5170
  938MOL0     H29402   3.968   0.600  -0.896 -2.6998  0.5666  1.5120
  938MOL0     H29403   4.061   0.871  -1.109  1.6957  0.2699 -0.9166
  938MOL0     H29404   4.043   0.692  -1.116 -0.5587  1.5627 -0.0441
  938MOL0     H29405   4.199   0.769  -1.113  0.6717 -1.2179 -0.5027
  938MOL0     H29406   4.494   1.241  -0.768 -1.0367  0.9256 -1.4891
  938MOL0     H29407   4.685   1.336  -0.844 -2.2482 -1.0023  3.3623
  938MOL0     H29408   4.826   1.451  -1.018  2.2663  2.3566 -1.0247
  938MOL0     H29409   4.925   1.346  -0.901 -0.3280  2.0053  0.0438
  938MOL0     H29410   5.095   1.345  -1.067 -2.3162 -2.1291 -0.5416
  938MOL0     H29411   4.985   1.422  -1.184 -1.3489 -0.7622  0.7547
  938MOL0     H29412   5.107   1.529  -0.935  0.3776 -1.9403 -0.8845
  938MOL0     H29413   4.980   1.618  -1.032 -0.4796 -0.5081 -4.0584
  938MOL0     H29414   5.141   1.591  -1.234  0.4587  0.1688  0.1920
  938MOL0     H29415   5.268   1.576  -1.100  0.0155  0.0817  0.7440
  938MOL0     H29416   5.085   1.813  -1.159 -0.5502 -1.9288  0.1440
  938MOL0     H29417   5.192   1.799  -1.013  2.4073 -0.0800 -0.0206
  938MOL0     H29418   5.239   1.803  -1.305 -1.3731 -0.0841 -0.3668
  938MOL0     H29419   5.380   1.765  -1.198 -1.5978 -2.9167 -3.8010
  938MOL0     H29420   5.332   1.999  -1.094  2.0231 -0.2975 -0.2204
  938MOL0     H29421   5.226   2.024  -1.233 -0.9545  0.3712  0.6591
  938MOL0     H29422   5.427   2.121  -1.306  0.1310  0.6824  1.6202
  938MOL0     H29423   5.425   1.971  -1.387  0.3531  2.6100 -1.2715
  938MOL0     H29424   4.767   0.977  -1.095 -0.1477 -1.0970  0.9542
  938MOL0     H29425   4.592   0.881  -0.997  2.4476 -0.7533  4.4209
  938MOL0     H29426   4.294   0.883  -0.659  1.6722 -0.3644 -1.2397
  938MOL0     H29427   4.171   0.712  -0.541  1.0646  3.0042 -0.7423
  938MOL0     H29428   2.605   0.668   0.587 -0.5371  0.0397 -0.2369
  938MOL0     H29429   2.416   0.517   0.609  1.4777  3.6162  0.5612
  938MOL0     H29430   2.424  -0.091   0.674 -0.5769  0.1471 -3.8196
  938MOL0     H29431   2.246  -0.240   0.773 -0.7552 -0.9165 -2.5503
  938MOL0     H29432   1.858  -0.077   0.917  0.5970 -0.1056 -0.2658
  938MOL0     H29433   1.829  -0.071   0.753  0.6844 -0.5772  0.0124
  938MOL0     H29434   1.672  -0.202   0.846  0.6239  0.7926 -0.5142
  938MOL0     H29435   1.788  -0.324   0.919  3.2656  1.6113  0.8323
  938MOL0     H29436   1.790  -0.250   0.627  0.9730 -2.6713 -3.1196
  938MOL0     H29437   1.866  -0.397   0.711 -0.1067  0.5789 -0.6095
  938MOL0     H29438   1.654  -0.451   0.573 -2.6940 -0.9613 -0.1605
  938MOL0     H29439   1.571  -0.328   0.668 -0.2794 -0.1564 -0.1998
  938MOL0     H29440   1.596  -0.664   0.923 -0.7465  0.8423  0.2910
  938MOL0     H29441   1.977   0.099   0.761 -0.2035 -1.3218 -0.6826
  938MOL0     H29442   2.073   0.308   0.772 -0.3043  0.2850 -0.1566
  938MOL0     H29443   2.233   0.342   0.689  3.2294 -3.8423  0.2279
  938MOL0     H29444   2.087   0.300   0.596  0.2595  0.2870  0.5166
  939MOL0     O29445   6.134   7.173   3.366  0.0197 -0.4817  0.4082
  939MOL0     C29446   6.059   7.100   3.429 -0.1352 -0.5940  0.0577
  939MOL0     O29447   5.956   7.138   3.511 -0.8041 -0.4791  0.0114
  939MOL0     C29448   5.925   7.275   3.521  0.6740  0.3206  0.3102
  939MOL0     C29449   5.799   7.315   3.486  1.1406  0.1651 -0.2731
  939MOL0     C29450   5.758   7.446   3.517 -0.7574  0.3929  0.0807
  939MOL0     C29451   5.847   7.539   3.575  0.2205  0.4548 -0.5410
  939MOL0     O29452   5.793   7.660   3.597 -0.2492 -0.4538 -0.6700
  939MOL0     C29453   5.889   7.773   3.614  0.4916  1.2596  0.4621
  939MOL0     C29454   5.834   7.910   3.593  0.6241 -0.1515  0.2142
  939MOL0     C29455   5.789   7.926   3.449 -0.9465  0.3149  0.4859
  939MOL0     C29456   5.875   8.035   3.380  1.0026  0.7715 -0.1602
  939MOL0     C29457   5.856   8.026   3.226 -0.1087  0.4019 -0.2411
  939MOL0     C29458   5.948   8.128   3.151  1.0842 -0.4208 -0.0570
  939MOL0     C29459   5.942   8.120   2.999 -0.2523  0.0126 -0.0665
  939MOL0     C29460   6.019   8.239   2.946  0.7322  0.6079  0.6334
  939MOL0     N29461   6.160   8.248   2.986 -0.5289  0.9312  0.5842
  939MOL0     C29462   6.267   8.197   2.911  1.1529  0.0310 -0.7177
  939MOL0     C29463   6.372   8.247   2.987  0.1176  0.5163  0.1128
  939MOL0     C29464   6.512   8.223   2.946 -0.4084 -0.7916 -0.1824
  939MOL0     C29465   6.618   8.319   2.985 -0.0780  0.2097  0.5595
  939MOL0     C29466   6.749   8.241   3.017  0.6637 -0.1283 -0.1924
  939MOL0     C29467   6.849   8.355   3.012 -0.5817 -0.1866  0.2351
  939MOL0     O29468   6.845   8.458   3.118  0.5393 -1.3582 -0.0170
  939MOL0     C29469   6.933   8.562   3.105 -0.4206 -0.5711  0.6175
  939MOL0     C29470   6.937   8.654   3.207 -0.0561  0.1423  0.6366
  939MOL0     C29471   7.020   8.769   3.201 -0.8744 -0.3999  0.3573
  939MOL0     C29472   7.012   8.864   3.320  0.6415 -0.6683 -0.2695
  939MOL0     C29473   7.097   8.802   3.079 -0.5553  0.2828  0.1882
  939MOL0     C29474   7.200   8.913   3.073 -0.0512 -0.4195 -0.4341
  939MOL0     O29475   7.259   8.959   3.190  0.1427  0.2064  0.7827
  939MOL0     C29476   7.360   9.049   3.164  0.2382  0.2723 -0.4462
  939MOL0     C29477   7.494   9.012   3.141 -0.2041 -0.7669 -0.0346
  939MOL0     C29478   7.594   9.113   3.125 -0.4149  0.2367  0.3995
  939MOL0     C29479   7.559   9.249   3.144 -0.1161  0.2189 -0.4758
  939MOL0     O29480   7.634   9.359   3.131  0.7197  0.0012  0.6321
  939MOL0     C29481   7.771   9.331   3.094 -0.3636 -0.6669  0.1022
  939MOL0     C29482   7.829   9.469   3.089  0.3201 -0.1519 -0.3471
  939MOL0     C29483   7.976   9.468   3.099  0.1023 -1.0881  0.3515
  939MOL0     C29484   8.039   9.612   3.082  0.2829  0.4475 -0.3676
  939MOL0     C29485   8.184   9.607   3.054  0.4921 -0.7631 -0.0320
  939MOL0     C29486   8.237   9.747   3.032  1.0466  0.2854  0.4486
  939MOL0     C29487   8.379   9.727   2.985 -0.3934  0.2240  0.2179
  939MOL0     C29488   8.478   9.671   3.081 -0.1930 -0.4474  0.3998
  939MOL0    Cl29489   8.640   9.698   3.017 -0.2837  0.5588 -0.3912
  939MOL0     C29490   7.427   9.283   3.172  0.1763  0.6074  0.1364
  939MOL0     C29491   7.324   9.182   3.184 -0.3218 -2.3196 -0.8885
  939MOL0     O29492   7.224   8.954   2.959 -0.0623 -0.9174  0.2052
  939MOL0     C29493   7.085   8.713   2.967 -0.1349 -0.8928 -0.3841
  939MOL0     C29494   7.003   8.599   2.985  0.6507 -0.1007  0.7368
  939MOL0     N29495   6.325   8.314   3.102  0.3518 -0.1686  0.0469
  939MOL0     N29496   6.200   8.314   3.100 -0.0302 -0.5966  0.5042
  939MOL0     C29497   5.976   7.499   3.614  0.5070  0.8778 -0.9392
  939MOL0     C29498   6.012   7.362   3.592 -0.4521 -0.5168 -0.5868
  939MOL0     C29499   6.082   6.952   3.414 -0.1746 -0.3136  0.3958
  939MOL0     C29500   5.978   6.870   3.467 -0.2236  0.5870 -0.2249
  939MOL0     C29501   5.985   6.731   3.467  0.6663 -0.6560  0.0717
  939MOL0     C29502   6.078   6.666   3.390  1.2103 -0.2804  0.0875
  939MOL0     O29503   6.075   6.528   3.387 -0.1886  0.4501 -0.3211
  939MOL0     C29504   6.013   6.475   3.268 -0.3202 -0.5622  0.4248
  939MOL0     C29505   6.136   6.418   3.184 -0.2571  0.2184 -0.6345
  939MOL0     C29506   6.082   6.295   3.105 -0.1739  0.0693 -0.5417
  939MOL0     C29507   6.197   6.215   3.036  0.8090 -0.7666  0.3185
  939MOL0     C29508   6.279   6.301   2.945  0.1429  0.3649  0.4421
  939MOL0     C29509   6.329   6.372   2.857  0.7461  0.4805 -1.0503
  939MOL0     C29510   6.174   6.739   3.330 -0.2969 -0.0815  0.2317
  939MOL0     C29511   6.182   6.878   3.340 -0.3188 -0.8584 -1.0138
  939MOL0     C29512   6.303   6.941   3.277  0.3985 -0.0345 -0.9567
  939MOL0     H29513   5.739   7.233   3.449  2.3093 -1.7540  1.7626
  939MOL0     H29514   5.659   7.484   3.497 -0.1773  1.5058 -0.8040
  939MOL0     H29515   5.960   7.754   3.533 -1.5009  0.9777 -1.3256
  939MOL0     H29516   5.930   7.764   3.714 -0.6196 -0.7850  0.7868
  939MOL0     H29517   5.751   7.917   3.664  0.5660 -3.4933  0.6190
  939MOL0     H29518   5.903   7.993   3.612 -1.0273  1.2310  0.3588
  939MOL0     H29519   5.802   7.831   3.396 -0.6173 -1.1189  2.9901
  939MOL0     H29520   5.688   7.968   3.445  0.1630  3.4828  2.3311
  939MOL0     H29521   5.839   8.131   3.417 -1.5387 -0.2724  0.3237
  939MOL0     H29522   5.977   8.019   3.416  0.5005 -0.2787  0.8756
  939MOL0     H29523   5.757   8.062   3.198  0.0649 -0.1711 -1.6452
  939MOL0     H29524   5.876   7.924   3.190  2.9538  0.7048  0.3231
  939MOL0     H29525   5.920   8.230   3.178 -1.6035 -0.7193 -1.4031
  939MOL0     H29526   6.052   8.107   3.179  1.2627  0.7580  0.2352
  939MOL0     H29527   5.837   8.122   2.970 -0.4995 -1.8420  0.5558
  939MOL0     H29528   5.993   8.032   2.958  0.0741  0.6968 -1.1597
  939MOL0     H29529   6.018   8.244   2.837 -1.2324 -0.9051  0.5245
  939MOL0     H29530   5.972   8.335   2.969 -0.3285  0.3504 -0.3841
  939MOL0     H29531   6.270   8.131   2.826  3.0276 -0.8477 -0.0314
  939MOL0     H29532   6.521   8.222   2.837  1.9740 -1.3516 -0.0283
  939MOL0     H29533   6.541   8.122   2.978 -1.2251 -0.2027  2.7891
  939MOL0     H29534   6.630   8.390   2.903 -3.8218  0.1697 -0.2104
  939MOL0     H29535   6.581   8.377   3.071 -1.0426 -0.6044  0.7099
  939MOL0     H29536   6.753   8.192   3.115  2.3279 -0.0570 -0.1936
  939MOL0     H29537   6.767   8.165   2.941 -0.1434 -0.6605  0.1308
  939MOL0     H29538   6.945   8.303   3.005  0.4979  1.7185  0.1525
  939MOL0     H29539   6.840   8.420   2.924  0.8982  1.9823  1.5604
  939MOL0     H29540   6.873   8.640   3.293 -1.9606  1.6553 -0.4582
  939MOL0     H29541   6.998   8.966   3.283  0.0980  0.1384  2.0317
  939MOL0     H29542   7.099   8.855   3.385  0.3735  4.1271  1.1370
  939MOL0     H29543   6.920   8.858   3.378  0.2875  0.1265 -0.7256
  939MOL0     H29544   7.515   8.909   3.114 -1.2516 -0.1424 -3.7263
  939MOL0     H29545   7.691   9.069   3.103 -0.2679 -2.0369  4.5415
  939MOL0     H29546   7.817   9.281   3.180 -0.5937  1.8739  1.8099
  939MOL0     H29547   7.788   9.273   3.003  1.8315  3.3055 -2.2851
  939MOL0     H29548   7.810   9.517   2.993  1.8198  3.7956  1.1117
  939MOL0     H29549   7.793   9.527   3.175  3.4304 -1.8896  2.3203
  939MOL0     H29550   7.997   9.402   3.014 -1.0472  0.0300 -0.8484
  939MOL0     H29551   8.010   9.424   3.193 -1.3999  1.9533  2.5075
  939MOL0     H29552   8.019   9.675   3.169  1.2226  3.9993 -2.5251
  939MOL0     H29553   7.991   9.662   2.997  0.4907  2.8182  0.8338
  939MOL0     H29554   8.237   9.560   3.138 -1.2206  2.2046  2.9215
  939MOL0     H29555   8.204   9.538   2.971  3.0882 -2.9530  2.2269
  939MOL0     H29556   8.240   9.793   3.132 -0.2914  1.1355  0.1200
  939MOL0     H29557   8.172   9.818   2.980 -0.0517  0.9583  2.6176
  939MOL0     H29558   8.404   9.833   2.981  2.3589 -0.3905 -1.2161
  939MOL0     H29559   8.389   9.685   2.884 -1.2651  3.0801 -1.1730
  939MOL0     H29560   8.467   9.564   3.097  5.2473 -1.3550  0.0512
  939MOL0     H29561   8.477   9.722   3.178 -0.0043  0.3587 -0.0050
  939MOL0     H29562   7.404   9.388   3.181  1.0775  0.7452  1.0293
  939MOL0     H29563   7.228   9.227   3.208  1.4667  0.6807  1.2504
  939MOL0     H29564   7.134   8.728   2.872 -3.3807 -3.0176 -2.5918
  939MOL0     H29565   7.001   8.535   2.897 -2.5223  0.0842  0.5500
  939MOL0     H29566   6.053   7.561   3.659  1.7069 -0.0191 -1.6787
  939MOL0     H29567   6.113   7.335   3.622  0.3650  2.8194  0.0074
  939MOL0     H29568   5.894   6.913   3.520 -0.0492 -0.0770  0.6140
  939MOL0     H29569   5.917   6.663   3.516 -1.9516  0.5275 -1.6572
  939MOL0     H29570   5.948   6.392   3.298 -1.5936  0.1463 -0.2805
  939MOL0     H29571   5.954   6.554   3.222 -0.4666 -0.7535  0.2811
  939MOL0     H29572   6.218   6.393   3.252  0.4218  2.8031 -0.4046
  939MOL0     H29573   6.189   6.488   3.119  2.7803 -0.1512  1.2675
  939MOL0     H29574   6.013   6.226   3.154  0.2460 -1.8127 -2.4841
  939MOL0     H29575   6.024   6.336   3.022 -0.1696 -1.5914 -1.4006
  939MOL0     H29576   6.149   6.131   2.985 -3.0018  1.0730  0.5384
  939MOL0     H29577   6.269   6.177   3.110 -1.1392 -2.1677  1.6040
  939MOL0     H29578   6.369   6.427   2.774  2.0393 -0.6354 -1.2044
  939MOL0     H29579   6.244   6.682   3.270  1.0558 -0.7827  2.3250
  939MOL0     H29580   6.358   7.001   3.350  1.9720 -0.6651 -1.5734
  939MOL0     H29581   6.374   6.859   3.259 -0.7073 -0.5885 -3.1755
  939MOL0     H29582   6.286   6.999   3.186 -0.7054 -1.3783 -1.6389
  940MOL0     O29583   9.698   7.271   6.932  0.0604 -1.1829 -0.3076
  940MOL0     C29584   9.600   7.348   6.953  0.1495  0.2211  0.4094
  940MOL0     O29585   9.585   7.476   6.897 -0.4122  0.1881  0.6783
  940MOL0     C29586   9.669   7.538   6.808 -0.2200  0.1665 -0.3742
  940MOL0     C29587   9.769   7.481   6.730  0.2541  0.6153 -0.3278
  940MOL0     C29588   9.861   7.553   6.651  0.5109 -0.6416 -0.3403
  940MOL0     C29589   9.846   7.691   6.635  1.1274 -0.0162 -0.2312
  940MOL0     O29590   9.935   7.781   6.575  0.2954  0.5572  0.3867
  940MOL0     C29591  10.059   7.727   6.535  0.0757 -0.2855  0.9846
  940MOL0     C29592  10.175   7.725   6.649 -0.0359  0.8051  0.0341
  940MOL0     C29593  10.274   7.833   6.642  0.3318 -0.1644 -0.6873
  940MOL0     C29594  10.364   7.821   6.765  0.1219  0.2647 -1.1504
  940MOL0     C29595  10.454   7.943   6.770 -0.6150  0.1858 -0.0893
  940MOL0     C29596  10.551   7.938   6.886  0.6701 -0.4745 -0.6915
  940MOL0     C29597  10.681   7.866   6.857 -0.7518 -0.4868 -0.0237
  940MOL0     C29598  10.747   7.817   6.983 -0.5421  1.2078 -1.0713
  940MOL0     N29599  10.880   7.742   6.963  0.5413  0.0698 -0.2171
  940MOL0     C29600  10.910   7.655   6.864 -0.4066  0.4108  0.5441
  940MOL0     C29601  11.047   7.634   6.880 -0.8935 -0.0963 -0.3185
  940MOL0     C29602  11.159   7.555   6.805  0.2873  0.1834  0.7438
  940MOL0     C29603  11.139   7.406   6.833  0.1743  0.1713 -0.1260
  940MOL0     C29604  11.247   7.316   6.773  0.4434  0.6749 -0.6316
  940MOL0     C29605  11.232   7.293   6.625 -0.7206  0.0080 -0.0711
  940MOL0     O29606  11.343   7.208   6.588  0.0972 -0.3924 -0.2363
  940MOL0     C29607  11.446   7.258   6.511  0.0911  0.9560 -0.7907
  940MOL0     C29608  11.579   7.240   6.555  0.7358 -0.1000  0.2359
  940MOL0     C29609  11.677   7.303   6.492  0.7176 -0.2829  0.0133
  940MOL0     C29610  11.814   7.290   6.548  0.0820  0.3941  1.3414
  940MOL0     C29611  11.658   7.375   6.371  1.0924  0.0212 -0.1834
  940MOL0     C29612  11.769   7.423   6.291  0.1966 -0.8027  0.7504
  940MOL0     O29613  11.751   7.535   6.216 -0.4466  0.0976 -0.0637
  940MOL0     C29614  11.831   7.564   6.108  0.3824  0.6999  0.4438
  940MOL0     C29615  11.779   7.527   5.983 -0.4053 -0.5438  0.4908
  940MOL0     C29616  11.854   7.554   5.869 -0.0732  0.2239 -0.3252
  940MOL0     C29617  11.984   7.603   5.876  0.0482  0.0646  0.0577
  940MOL0     O29618  12.071   7.596   5.769  0.0511 -0.1289  0.1919
  940MOL0     C29619  12.211   7.566   5.792  0.1258  0.3057  0.9181
  940MOL0     C29620  12.273   7.529   5.660 -0.3457  0.0501  0.2707
  940MOL0     C29621  12.428   7.514   5.676 -0.2858  0.4673  0.9791
  940MOL0     C29622  12.505   7.542   5.551 -0.5588 -0.1168 -0.1663
  940MOL0     C29623  12.662   7.536   5.576 -0.5283 -0.4590 -0.4241
  940MOL0     C29624  12.735   7.591   5.447  0.8048  0.9034  0.2166
  940MOL0     C29625  12.888   7.569   5.473 -0.3888  0.5622  0.7611
  940MOL0     C29626  12.966   7.588   5.341 -0.0990 -0.0745 -0.0701
  940MOL0    Cl29627  12.924   7.454   5.225  0.0256 -0.0413 -0.0993
  940MOL0     C29628  12.036   7.636   6.007  0.4233  0.2344 -0.2947
  940MOL0     C29629  11.955   7.619   6.120  0.5508 -0.2276 -1.0294
  940MOL0     O29630  11.877   7.360   6.297  0.3549 -0.7341 -0.5990
  940MOL0     C29631  11.526   7.398   6.322 -1.2923  0.5165  0.3028
  940MOL0     C29632  11.419   7.338   6.399  0.3688 -0.0634  0.2648
  940MOL0     N29633  11.087   7.709   6.992  0.7142 -0.1527 -0.1161
  940MOL0     N29634  10.990   7.776   7.038  0.4396  0.5852 -0.4749
  940MOL0     C29635   9.747   7.747   6.718 -0.4037 -0.1774 -0.3253
  940MOL0     C29636   9.656   7.673   6.796  0.1872 -0.1390  0.7634
  940MOL0     C29637   9.484   7.305   7.035  0.4274  0.4796 -0.4122
  940MOL0     C29638   9.384   7.398   7.064 -0.4831  0.8015  0.1932
  940MOL0     C29639   9.274   7.365   7.139 -0.1417  0.2746 -0.3717
  940MOL0     C29640   9.255   7.238   7.186 -0.6634  0.0354  0.5194
  940MOL0     O29641   9.141   7.208   7.247  0.0187 -0.1954  0.3984
  940MOL0     C29642   9.099   7.073   7.245 -0.0036  0.3498 -0.8640
  940MOL0     C29643   8.962   7.052   7.315  0.0254 -0.0993  0.2101
  940MOL0     C29644   8.941   6.900   7.306  0.1196  0.1620  0.5491
  940MOL0     C29645   8.980   6.815   7.431  0.6131  0.1715 -0.1337
  940MOL0     C29646   8.887   6.848   7.544 -0.3484 -0.6200 -0.5872
  940MOL0     C29647   8.819   6.868   7.645  0.6923 -0.0507 -0.1243
  940MOL0     C29648   9.353   7.143   7.165 -0.3161  0.2090  0.1938
  940MOL0     C29649   9.463   7.172   7.092 -0.4569  0.2391  0.1652
  940MOL0     C29650   9.559   7.046   7.061 -0.0177 -0.6618 -0.0355
  940MOL0     H29651   9.773   7.373   6.722  0.4649  0.4558  1.4002
  940MOL0     H29652   9.946   7.499   6.612  1.0427  1.0533 -1.6223
  940MOL0     H29653  10.096   7.791   6.454 -0.7410 -2.0937 -0.9059
  940MOL0     H29654  10.048   7.636   6.475  1.6162  0.0546  0.1476
  940MOL0     H29655  10.132   7.726   6.749 -2.4062 -1.2160 -0.8450
  940MOL0     H29656  10.226   7.629   6.633  1.1011  1.5723 -1.1440
  940MOL0     H29657  10.325   7.825   6.545 -0.2218 -3.8402 -0.8105
  940MOL0     H29658  10.223   7.929   6.650  1.2037  0.5000 -2.4905
  940MOL0     H29659  10.301   7.814   6.854  0.8026 -3.8789 -0.8166
  940MOL0     H29660  10.422   7.730   6.747  0.8335  0.2861  0.7724
  940MOL0     H29661  10.405   8.041   6.776  0.1572  1.0335 -4.2621
  940MOL0     H29662  10.510   7.947   6.676 -2.6364 -2.4236 -1.5199
  940MOL0     H29663  10.560   8.044   6.911 -0.3150  0.2054 -2.9298
  940MOL0     H29664  10.496   7.903   6.974 -0.2872  1.4541 -0.4643
  940MOL0     H29665  10.736   7.944   6.805 -3.4014  2.4328  1.1838
  940MOL0     H29666  10.670   7.781   6.790  2.2224 -2.7394  2.0731
  940MOL0     H29667  10.768   7.910   7.036 -2.3320  0.7112  0.6225
  940MOL0     H29668  10.672   7.761   7.040  1.5795  0.1081  0.8288
  940MOL0     H29669  10.859   7.603   6.783 -3.0566  1.0092  1.7423
  940MOL0     H29670  11.256   7.578   6.850  0.6397  1.1740 -0.4519
  940MOL0     H29671  11.151   7.589   6.701  1.1076  0.6574  0.8267
  940MOL0     H29672  11.147   7.387   6.941 -0.8302 -0.9443 -0.2357
  940MOL0     H29673  11.039   7.375   6.804  0.0796  0.6357 -0.3073
  940MOL0     H29674  11.345   7.359   6.796  0.1815  0.0375  2.0638
  940MOL0     H29675  11.241   7.221   6.829  0.7634  0.2268 -1.3404
  940MOL0     H29676  11.131   7.256   6.603 -1.4154  0.9919  1.3108
  940MOL0     H29677  11.242   7.387   6.571 -2.9024 -0.1829 -0.9122
  940MOL0     H29678  11.615   7.179   6.636  1.5431 -0.9648 -0.7451
  940MOL0     H29679  11.881   7.217   6.502 -3.4201 -0.6690 -2.7792
  940MOL0     H29680  11.804   7.260   6.653 -0.8102 -2.2097  0.5830
  940MOL0     H29681  11.867   7.384   6.530  0.3455 -0.1405 -0.9600
  940MOL0     H29682  11.680   7.483   5.988 -0.6971 -0.5514 -2.8900
  940MOL0     H29683  11.812   7.512   5.779 -0.7055  1.5234 -0.6629
  940MOL0     H29684  12.260   7.657   5.828  3.0805 -0.3025 -1.1922
  940MOL0     H29685  12.219   7.480   5.859  0.0007 -2.2847 -2.1399
  940MOL0     H29686  12.234   7.431   5.630  1.0448 -0.1667 -0.9579
  940MOL0     H29687  12.242   7.605   5.588 -0.1378  0.0177  0.1463
  940MOL0     H29688  12.456   7.417   5.718  1.4862  1.4427  2.1786
  940MOL0     H29689  12.458   7.587   5.752  3.8089  1.4681 -1.3382
  940MOL0     H29690  12.470   7.637   5.510 -2.2885 -1.1255 -1.1285
  940MOL0     H29691  12.491   7.461   5.479 -4.2476 -0.8315  1.1173
  940MOL0     H29692  12.692   7.601   5.659  1.7912 -1.0623 -0.7029
  940MOL0     H29693  12.704   7.437   5.600 -0.1308 -0.0474  0.6616
  940MOL0     H29694  12.713   7.694   5.417 -2.4213 -0.0297 -0.9934
  940MOL0     H29695  12.702   7.530   5.363 -0.4720  1.7999  0.0383
  940MOL0     H29696  12.908   7.470   5.515  0.7336  0.4899  0.1039
  940MOL0     H29697  12.922   7.648   5.540 -0.9896  2.8537 -1.4494
  940MOL0     H29698  13.074   7.602   5.347  0.6143 -2.6229 -3.7072
  940MOL0     H29699  12.944   7.679   5.284 -0.9823  0.3664  0.9330
  940MOL0     H29700  12.141   7.664   6.018  0.1967  0.8718  0.3027
  940MOL0     H29701  11.986   7.650   6.220 -1.8872  1.1983 -0.6350
  940MOL0     H29702  11.504   7.459   6.235  0.5535  0.1007 -0.4942
  940MOL0     H29703  11.315   7.356   6.373  0.7899  3.6651  0.6922
  940MOL0     H29704   9.740   7.855   6.720 -2.9245 -0.2465  3.2414
  940MOL0     H29705   9.573   7.722   6.845 -0.2278 -0.5243  0.4499
  940MOL0     H29706   9.375   7.499   7.025  0.0639  1.3233  1.3644
  940MOL0     H29707   9.192   7.432   7.161  0.1042  0.2324  0.7369
  940MOL0     H29708   9.093   7.036   7.142 -3.9877 -2.2461  0.0862
  940MOL0     H29709   9.170   7.010   7.301 -0.5514  0.7636  0.3268
  940MOL0     H29710   8.878   7.100   7.263 -1.6609  0.4042  3.1757
  940MOL0     H29711   8.956   7.092   7.416 -2.8674  2.2655 -0.7417
  940MOL0     H29712   8.837   6.878   7.278  0.3286  2.0465 -2.1300
  940MOL0     H29713   9.004   6.868   7.222  0.1317  2.3683 -0.3526
  940MOL0     H29714   9.085   6.840   7.451  0.7764 -0.8590  0.3665
  940MOL0     H29715   8.968   6.713   7.394 -4.4128  0.1057  0.9463
  940MOL0     H29716   8.765   6.861   7.737  0.1421 -5.0259 -0.5697
  940MOL0     H29717   9.337   7.040   7.193  0.4160  0.0874  0.1888
  940MOL0     H29718   9.662   7.056   7.097 -0.3974 -1.5717  1.3833
  940MOL0     H29719   9.521   6.958   7.115 -1.6360 -0.2387 -0.4336
  940MOL0     H29720   9.569   7.023   6.955  0.5532 -1.7470  0.2371
  941MOL0     O29721   8.032   8.087   0.850 -0.2229 -0.1476  0.8771
  941MOL0     C29722   8.037   8.045   0.735  0.4582  0.6199 -0.3004
  941MOL0     O29723   8.091   7.924   0.692  0.2764  0.5622 -0.1073
  941MOL0     C29724   8.142   7.823   0.773 -0.4530  1.0449  0.3870
  941MOL0     C29725   8.200   7.846   0.897 -0.3365  0.4773 -0.9780
  941MOL0     C29726   8.219   7.746   0.996 -0.3072 -0.4638  0.2607
  941MOL0     C29727   8.191   7.618   0.955  0.4826 -0.4168  0.2679
  941MOL0     O29728   8.200   7.516   1.048 -0.7338  0.5032  0.1515
  941MOL0     C29729   8.154   7.545   1.185 -0.7041  0.1425  0.8781
  941MOL0     C29730   8.142   7.409   1.271 -0.8608 -0.2277  0.2685
  941MOL0     C29731   8.288   7.366   1.283  1.2931  0.8437 -0.8247
  941MOL0     C29732   8.316   7.268   1.401 -0.1590  0.2451 -0.1575
  941MOL0     C29733   8.461   7.255   1.421 -0.4533  0.1471  0.1851
  941MOL0     C29734   8.495   7.161   1.535 -0.3262  0.5365 -0.1965
  941MOL0     C29735   8.582   7.050   1.463  0.8905 -0.7676 -0.5190
  941MOL0     C29736   8.660   6.974   1.570  0.3359 -0.1927  0.1285
  941MOL0     N29737   8.677   6.829   1.538 -0.2558 -0.6159  0.2834
  941MOL0     C29738   8.752   6.787   1.428 -0.0980 -0.1383 -0.6366
  941MOL0     C29739   8.735   6.659   1.418 -0.1361 -0.1845  0.8870
  941MOL0     C29740   8.795   6.567   1.322  0.1225  0.3990  0.0207
  941MOL0     C29741   8.763   6.414   1.333 -0.6704  0.4523  0.3710
  941MOL0     C29742   8.852   6.337   1.230 -0.3643  0.6316 -1.6057
  941MOL0     C29743   8.794   6.203   1.190 -0.6656 -0.0338  0.4101
  941MOL0     O29744   8.793   6.114   1.306 -0.0523  1.2763 -0.0180
  941MOL0     C29745   8.916   6.052   1.331  0.5402 -0.4072 -0.2862
  941MOL0     C29746   8.982   5.982   1.228 -1.0242 -0.1757  0.1991
  941MOL0     C29747   9.104   5.910   1.259  0.4936  0.2519  1.0757
  941MOL0     C29748   9.166   5.835   1.144  0.5750  0.7451  0.0330
  941MOL0     C29749   9.155   5.907   1.386  0.2428 -0.2419 -0.0050
  941MOL0     C29750   9.281   5.836   1.427 -0.6744  0.2675 -0.0905
  941MOL0     O29751   9.289   5.798   1.556 -0.4015  0.1268  0.0184
  941MOL0     C29752   9.395   5.738   1.620 -0.6919  0.1526  0.1718
  941MOL0     C29753   9.396   5.758   1.757  0.3031  0.6261  0.1293
  941MOL0     C29754   9.490   5.687   1.837 -0.2940 -0.3138 -0.1280
  941MOL0     C29755   9.594   5.607   1.781  0.8309 -0.5155 -0.8454
  941MOL0     O29756   9.688   5.560   1.863 -0.6296 -0.4337 -0.3464
  941MOL0     C29757   9.646   5.466   1.960  0.2734 -0.3781 -0.5433
  941MOL0     C29758   9.761   5.373   2.003 -0.4414  0.2276 -0.0405
  941MOL0     C29759   9.883   5.454   2.050 -1.0040  0.2701  0.4238
  941MOL0     C29760   9.985   5.375   2.121 -0.3316  0.7916 -0.1349
  941MOL0     C29761  10.132   5.444   2.105  0.1333  0.5916  0.2842
  941MOL0     C29762  10.148   5.579   2.170  0.4929  0.1648 -0.6543
  941MOL0     C29763  10.278   5.654   2.147  1.0294 -0.5838  0.6403
  941MOL0     C29764  10.276   5.720   2.014 -0.5728  0.0610  0.2488
  941MOL0    Cl29765  10.441   5.792   2.014  0.4457  0.0096 -0.0813
  941MOL0     C29766   9.603   5.612   1.648  0.0843  1.0132  1.2825
  941MOL0     C29767   9.508   5.667   1.564  0.4975 -0.0114  0.6796
  941MOL0     O29768   9.368   5.816   1.337  0.3716 -0.3640 -0.0170
  941MOL0     C29769   9.089   5.981   1.493  0.3514 -0.6079 -0.1945
  941MOL0     C29770   8.969   6.044   1.463 -0.3187 -0.4008  1.0311
  941MOL0     N29771   8.634   6.624   1.507 -0.6336 -0.3699 -1.0378
  941MOL0     N29772   8.597   6.729   1.571  0.3755 -0.0515  0.1037
  941MOL0     C29773   8.154   7.587   0.820  0.6905  0.1899 -0.2067
  941MOL0     C29774   8.118   7.692   0.736  0.2846  0.1394  0.1025
  941MOL0     C29775   7.971   8.137   0.628 -0.6784 -0.0027 -0.2949
  941MOL0     C29776   7.985   8.278   0.644 -0.4381  1.3836  0.6096
  941MOL0     C29777   7.924   8.373   0.552  0.2887  0.0857  0.4865
  941MOL0     C29778   7.858   8.325   0.439  0.9580  0.6719  0.4721
  941MOL0     O29779   7.802   8.411   0.353  0.3461  0.1657  0.0961
  941MOL0     C29780   7.718   8.361   0.243 -0.4128 -0.4588 -1.1226
  941MOL0     C29781   7.686   8.471   0.148  0.4559  0.3774  0.6703
  941MOL0     C29782   7.777   8.468   0.030 -0.5852 -0.2876 -0.4188
  941MOL0     C29783   7.777   8.601  -0.039 -0.9046  0.0360 -0.8011
  941MOL0     C29784   7.642   8.637  -0.082 -0.4176 -0.7436  0.5565
  941MOL0     C29785   7.533   8.677  -0.122 -0.3132 -0.0582 -0.4627
  941MOL0     C29786   7.857   8.181   0.422 -0.0337 -0.2095 -0.7149
  941MOL0     C29787   7.915   8.090   0.510 -0.6486 -0.1581  0.2493
  941MOL0     C29788   7.893   7.949   0.462  0.3276 -0.0157  0.5588
  941MOL0     H29789   8.205   7.951   0.924 -2.7214  0.4159 -0.0565
  941MOL0     H29790   8.252   7.766   1.097  0.3389 -1.6839  0.3136
  941MOL0     H29791   8.060   7.602   1.186  0.2767  1.9214 -0.5766
  941MOL0     H29792   8.231   7.612   1.225 -0.0363  1.3727 -2.1473
  941MOL0     H29793   8.088   7.415   1.366  1.3515 -0.6998  1.6275
  941MOL0     H29794   8.085   7.331   1.222  0.0987 -1.4460  1.0345
  941MOL0     H29795   8.322   7.320   1.190  1.3041  1.8207 -1.3178
  941MOL0     H29796   8.352   7.450   1.312  2.4232 -0.8414  2.0111
  941MOL0     H29797   8.269   7.289   1.498 -1.3940  0.5807 -0.8098
  941MOL0     H29798   8.282   7.166   1.382 -0.0471 -0.2366  2.0193
  941MOL0     H29799   8.501   7.351   1.454  2.9712 -1.0239 -0.1912
  941MOL0     H29800   8.508   7.229   1.325  1.2872  0.7832  0.8327
  941MOL0     H29801   8.552   7.209   1.615  0.2342  0.0350 -0.2884
  941MOL0     H29802   8.409   7.105   1.572  0.4318 -2.8405 -2.9944
  941MOL0     H29803   8.649   7.092   1.386  0.5003 -0.2702 -0.5924
  941MOL0     H29804   8.513   6.985   1.408 -1.8344  1.5803 -0.1201
  941MOL0     H29805   8.756   7.024   1.586  0.5125 -0.1645 -0.9320
  941MOL0     H29806   8.599   6.970   1.661 -0.0807  0.0502 -0.1364
  941MOL0     H29807   8.820   6.849   1.371  1.7453 -0.9089  0.6156
  941MOL0     H29808   8.904   6.568   1.335  0.5702 -4.4933 -1.4965
  941MOL0     H29809   8.776   6.596   1.218  1.3515  1.1708 -0.0136
  941MOL0     H29810   8.784   6.385   1.436  1.2785  1.0816  0.1912
  941MOL0     H29811   8.662   6.387   1.301 -0.6275 -2.7702  2.4813
  941MOL0     H29812   8.860   6.398   1.140 -2.6672  2.4246 -0.7179
  941MOL0     H29813   8.955   6.329   1.267 -0.5417  2.0329 -0.7248
  941MOL0     H29814   8.688   6.211   1.166 -1.0453  5.1654  2.5667
  941MOL0     H29815   8.848   6.158   1.106 -0.5333  1.3689 -0.2732
  941MOL0     H29816   8.925   5.975   1.135 -3.4330  0.1652  1.5514
  941MOL0     H29817   9.179   5.730   1.171 -0.0402  1.3073  2.8095
  941MOL0     H29818   9.267   5.875   1.125  0.1841  2.0185  0.5166
  941MOL0     H29819   9.122   5.839   1.044  2.2146 -0.9336 -0.8294
  941MOL0     H29820   9.318   5.817   1.804 -0.1398  1.8574 -2.0124
  941MOL0     H29821   9.473   5.707   1.942 -2.7658  0.8578 -0.6717
  941MOL0     H29822   9.601   5.501   2.054 -1.3309 -3.1512 -0.1672
  941MOL0     H29823   9.572   5.400   1.914  1.1350  0.8570 -3.9910
  941MOL0     H29824   9.732   5.297   2.076 -0.6362 -0.6589 -1.0097
  941MOL0     H29825   9.777   5.311   1.914 -1.7501 -0.3837  0.1299
  941MOL0     H29826   9.851   5.538   2.113 -2.1921 -1.2425  1.9427
  941MOL0     H29827   9.928   5.489   1.957 -0.7231 -0.2203  0.3712
  941MOL0     H29828   9.983   5.274   2.080 -0.2372 -0.1014  1.9575
  941MOL0     H29829   9.957   5.351   2.224 -0.5243 -1.7387 -0.7125
  941MOL0     H29830  10.217   5.387   2.142  0.5642  0.8164 -0.3483
  941MOL0     H29831  10.148   5.450   1.997  1.4135 -4.6208 -0.0631
  941MOL0     H29832  10.135   5.556   2.276 -1.2942 -2.2468 -1.3050
  941MOL0     H29833  10.066   5.644   2.140  0.9787 -0.2286 -3.0044
  941MOL0     H29834  10.368   5.591   2.153  0.1058 -1.9945  0.0922
  941MOL0     H29835  10.292   5.734   2.221 -3.2651  3.3535 -2.2216
  941MOL0     H29836  10.196   5.794   2.009 -0.9256 -0.3641 -0.5762
  941MOL0     H29837  10.255   5.663   1.923  0.3867  1.3660 -0.8482
  941MOL0     H29838   9.686   5.554   1.610 -0.7091 -0.8521  2.2618
  941MOL0     H29839   9.518   5.656   1.457 -0.6078  0.0117  0.5612
  941MOL0     H29840   9.141   5.997   1.587  0.7939  1.1318 -0.6964
  941MOL0     H29841   8.910   6.097   1.537  0.3839  0.1063  1.2298
  941MOL0     H29842   8.138   7.483   0.792 -1.7196  0.3904  0.1946
  941MOL0     H29843   8.082   7.676   0.635 -2.0647  1.7883  0.5863
  941MOL0     H29844   8.047   8.316   0.724  2.1527  0.4189 -0.8181
  941MOL0     H29845   7.927   8.481   0.564  0.5209 -0.0033  1.2911
  941MOL0     H29846   7.775   8.288   0.184  2.5449  0.2881  0.5888
  941MOL0     H29847   7.630   8.328   0.299  0.3862 -0.4314  0.2018
  941MOL0     H29848   7.684   8.565   0.204 -3.5594 -0.8716  3.0238
  941MOL0     H29849   7.582   8.455   0.118  1.0492  0.1864 -1.4056
  941MOL0     H29850   7.875   8.453   0.077 -0.3638  2.3885  0.1579
  941MOL0     H29851   7.746   8.388  -0.037 -0.0507 -1.0044  0.1796
  941MOL0     H29852   7.844   8.594  -0.125  0.3447 -2.0796  0.2705
  941MOL0     H29853   7.826   8.670   0.030  0.0399  0.1611 -1.5816
  941MOL0     H29854   7.446   8.716  -0.171 -2.9834 -3.4669  1.1198
  941MOL0     H29855   7.804   8.146   0.334 -1.6772 -0.2863  0.2795
  941MOL0     H29856   7.950   7.913   0.375  0.2799 -2.4715  1.4737
  941MOL0     H29857   7.908   7.881   0.546 -1.3009  0.5139  1.3099
  941MOL0     H29858   7.786   7.938   0.444  0.5510 -2.2583  0.2677
  942MOL0     O29859   1.929   6.609   6.252  0.0017  0.0066 -0.1461
  942MOL0     C29860   1.917   6.505   6.184  0.8030 -0.5237  0.0532
  942MOL0     O29861   1.797   6.463   6.124 -0.2312 -0.4871 -0.0665
  942MOL0     C29862   1.690   6.549   6.115 -0.6287 -0.5117  0.6737
  942MOL0     C29863   1.594   6.552   6.217  0.0175  0.6006  0.1321
  942MOL0     C29864   1.473   6.618   6.193  0.9394  0.4223  0.1309
  942MOL0     C29865   1.450   6.695   6.074 -0.9701 -0.3234 -0.9820
  942MOL0     O29866   1.337   6.755   6.067  0.5363 -0.1137 -0.0090
  942MOL0     C29867   1.277   6.757   5.931 -0.3663 -0.1152 -0.6433
  942MOL0     C29868   1.175   6.865   5.927 -0.2253  0.1815  0.2244
  942MOL0     C29869   1.052   6.814   6.000 -0.5262  0.4997  0.5023
  942MOL0     C29870   0.948   6.738   5.918  0.5250  0.5891  1.1283
  942MOL0     C29871   0.810   6.724   5.988 -0.7692 -0.6639 -0.5472
  942MOL0     C29872   0.731   6.608   5.935 -0.5828 -0.4613  0.0764
  942MOL0     C29873   0.588   6.579   5.987 -0.1017  0.1206 -0.3087
  942MOL0     C29874   0.514   6.470   5.919  0.2938 -0.0047 -0.3978
  942MOL0     N29875   0.549   6.331   5.961 -0.7874  0.2341  0.1948
  942MOL0     C29876   0.664   6.262   5.928  0.4447 -0.4804  0.7844
  942MOL0     C29877   0.654   6.142   5.983  1.0765 -0.3770  0.4659
  942MOL0     C29878   0.747   6.028   5.979  0.9616  0.1240  0.1646
  942MOL0     C29879   0.780   5.995   5.832 -0.3560 -0.5827 -0.3863
  942MOL0     C29880   0.933   5.953   5.836  0.8985  0.3732 -0.0760
  942MOL0     C29881   0.976   5.908   5.694  0.5831  0.2878  0.2545
  942MOL0     O29882   1.120   5.880   5.711  0.4381  0.2735 -0.3308
  942MOL0     C29883   1.179   5.842   5.595  0.0374  0.2646  0.3356
  942MOL0     C29884   1.127   5.736   5.521  0.3131  0.9785  0.6082
  942MOL0     C29885   1.186   5.706   5.403  0.2317 -0.0514  0.6834
  942MOL0     C29886   1.130   5.596   5.314 -0.0914 -0.1967  0.3054
  942MOL0     C29887   1.298   5.776   5.354 -0.9704 -0.1641  0.1134
  942MOL0     C29888   1.384   5.725   5.246  0.3128 -0.1139  0.0779
  942MOL0     O29889   1.435   5.821   5.162  0.2621  0.6203 -0.5099
  942MOL0     C29890   1.490   5.778   5.044  0.2105  0.1259 -0.5627
  942MOL0     C29891   1.432   5.796   4.925 -0.3713 -0.6662  0.1883
  942MOL0     C29892   1.500   5.772   4.798  0.3642  0.1254 -0.0163
  942MOL0     C29893   1.618   5.706   4.799  0.7327 -0.3795 -0.7805
  942MOL0     O29894   1.683   5.676   4.683 -0.3062 -0.0848  0.0837
  942MOL0     C29895   1.603   5.650   4.567 -0.3518 -0.3564 -0.2654
  942MOL0     C29896   1.683   5.567   4.466  0.1939 -0.6857  0.3543
  942MOL0     C29897   1.834   5.594   4.456  0.0838 -0.5789  0.1020
  942MOL0     C29898   1.867   5.737   4.400  0.9170  1.4343 -0.6221
  942MOL0     C29899   2.004   5.770   4.328  0.4792 -0.3219 -1.1853
  942MOL0     C29900   2.119   5.704   4.411  0.2668 -0.2858 -0.2119
  942MOL0     C29901   2.256   5.772   4.367  0.2561  0.4239 -0.3311
  942MOL0     C29902   2.383   5.681   4.359 -0.5025  0.7022  0.5691
  942MOL0    Cl29903   2.391   5.560   4.497 -0.2178  0.3816 -0.0556
  942MOL0     C29904   1.673   5.669   4.921  0.7573  0.4360 -0.0546
  942MOL0     C29905   1.616   5.714   5.044 -0.1170 -0.4903 -0.2918
  942MOL0     O29906   1.407   5.602   5.248 -0.2126  0.1504  0.0997
  942MOL0     C29907   1.337   5.889   5.421  0.1908 -0.4542  0.2292
  942MOL0     C29908   1.279   5.925   5.539 -0.1941 -0.5197 -0.8766
  942MOL0     N29909   0.531   6.140   6.039 -1.0488  0.4978 -0.0788
  942MOL0     N29910   0.466   6.243   6.026 -0.1183 -0.8833  0.1469
  942MOL0     C29911   1.563   6.717   5.995 -0.3441  0.1620  0.6186
  942MOL0     C29912   1.678   6.647   6.012 -0.4614  0.1371 -0.6551
  942MOL0     C29913   2.024   6.407   6.191  0.0081  0.4820  0.2323
  942MOL0     C29914   2.033   6.340   6.316  0.1381  0.0379  0.3559
  942MOL0     C29915   2.143   6.261   6.338  0.0868 -0.2750 -0.1474
  942MOL0     C29916   2.250   6.257   6.247 -0.1673  0.0348 -0.1888
  942MOL0     O29917   2.370   6.199   6.280 -0.2190 -0.3267 -0.3896
  942MOL0     C29918   2.442   6.121   6.183  0.0388  0.0466  0.3984
  942MOL0     C29919   2.575   6.078   6.243 -0.1369 -0.5104 -0.5589
  942MOL0     C29920   2.665   5.994   6.147 -0.2929 -0.1075 -0.2240
  942MOL0     C29921   2.759   5.904   6.220  0.0887 -0.4113  1.2677
  942MOL0     C29922   2.821   5.948   6.347 -0.4750  0.4291  0.3095
  942MOL0     C29923   2.872   5.986   6.449  0.5870 -0.1895  0.2048
  942MOL0     C29924   2.241   6.325   6.123 -0.7893  0.5145  0.1696
  942MOL0     C29925   2.123   6.394   6.098  0.1456 -0.7337  0.0055
  942MOL0     C29926   2.119   6.483   5.967 -0.0356  0.1878 -0.0320
  942MOL0     H29927   1.609   6.489   6.305  2.2834  0.5544 -0.2408
  942MOL0     H29928   1.377   6.595   6.239  0.0562 -2.0057 -2.5837
  942MOL0     H29929   1.243   6.657   5.906  0.4989 -0.4535 -0.5073
  942MOL0     H29930   1.350   6.791   5.857  0.0014 -1.5402 -0.9546
  942MOL0     H29931   1.216   6.950   5.982  0.5571 -0.3732  0.5115
  942MOL0     H29932   1.147   6.892   5.824 -0.8175  0.4603  0.4525
  942MOL0     H29933   1.088   6.755   6.085  0.7850  2.0811  1.1109
  942MOL0     H29934   1.006   6.908   6.033 -0.6152  0.4579  0.4955
  942MOL0     H29935   0.952   6.760   5.811  2.2253 -1.1169  0.7831
  942MOL0     H29936   0.983   6.634   5.922  2.2281  0.8485 -2.6865
  942MOL0     H29937   0.766   6.825   5.983  2.2056  0.8474  1.3012
  942MOL0     H29938   0.834   6.690   6.089 -2.5470 -0.7312 -0.1096
  942MOL0     H29939   0.720   6.622   5.827 -1.2532 -2.3051 -0.1157
  942MOL0     H29940   0.795   6.521   5.952  0.3451  0.0243 -0.7997
  942MOL0     H29941   0.528   6.670   5.985 -1.8711 -0.8769  2.2583
  942MOL0     H29942   0.590   6.549   6.092  0.6132 -1.4098 -0.7288
  942MOL0     H29943   0.413   6.497   5.954  0.4052  1.0043 -0.8229
  942MOL0     H29944   0.519   6.483   5.811 -3.3882  1.8528 -0.5088
  942MOL0     H29945   0.750   6.300   5.873  0.8803  2.1366  3.0998
  942MOL0     H29946   0.694   5.947   6.032  3.8824 -2.1013 -0.0397
  942MOL0     H29947   0.842   6.035   6.034  0.7569  1.8512  0.3509
  942MOL0     H29948   0.709   5.919   5.799  0.8026 -1.5833 -0.6667
  942MOL0     H29949   0.780   6.076   5.759 -1.1932 -1.1835 -1.0718
  942MOL0     H29950   1.005   6.034   5.852  2.4992 -0.6549 -1.6279
  942MOL0     H29951   0.953   5.879   5.913 -1.4044 -0.1377  0.0903
  942MOL0     H29952   0.913   5.827   5.656 -1.1124  1.2596  0.8364
  942MOL0     H29953   0.971   5.991   5.623  2.8234 -0.0433 -0.3438
  942MOL0     H29954   1.048   5.666   5.544  1.4823 -0.9397 -0.8795
  942MOL0     H29955   1.163   5.614   5.212  1.4625  2.6994  1.2044
  942MOL0     H29956   1.023   5.584   5.332 -0.0046 -1.0442  0.2857
  942MOL0     H29957   1.169   5.498   5.344  0.1542  0.0729  0.8756
  942MOL0     H29958   1.331   5.838   4.925 -1.3244 -2.5900 -3.0008
  942MOL0     H29959   1.461   5.807   4.703 -0.8159  4.9912  1.9946
  942MOL0     H29960   1.511   5.599   4.598 -1.5227  1.3862 -0.7093
  942MOL0     H29961   1.565   5.747   4.532  1.4414  0.3226 -0.4018
  942MOL0     H29962   1.667   5.462   4.492  1.6146 -1.3137 -1.0816
  942MOL0     H29963   1.637   5.581   4.367 -2.0252  0.5707  1.4912
  942MOL0     H29964   1.878   5.521   4.387  3.0761  0.7408  0.4850
  942MOL0     H29965   1.886   5.588   4.552 -0.5668 -0.1157  0.4882
  942MOL0     H29966   1.850   5.807   4.482  0.9497  1.1703 -0.3871
  942MOL0     H29967   1.793   5.749   4.320 -0.0093 -0.1049 -0.0315
  942MOL0     H29968   2.008   5.735   4.225 -0.1644  0.6852 -1.5687
  942MOL0     H29969   2.019   5.879   4.328 -0.4905 -0.1765 -0.8877
  942MOL0     H29970   2.111   5.600   4.377  3.3869 -0.4127 -0.8924
  942MOL0     H29971   2.083   5.710   4.514 -1.3393 -1.8755 -0.6197
  942MOL0     H29972   2.287   5.848   4.440  0.2541  1.0478 -0.9734
  942MOL0     H29973   2.236   5.831   4.278 -0.0045 -1.7572 -1.8058
  942MOL0     H29974   2.471   5.745   4.368  0.5783 -0.6868  0.1593
  942MOL0     H29975   2.387   5.629   4.262  0.8894 -1.6456  1.7843
  942MOL0     H29976   1.762   5.607   4.922 -0.1748 -0.9552 -0.0482
  942MOL0     H29977   1.660   5.693   5.141  0.6447 -1.9479 -0.9171
  942MOL0     H29978   1.415   5.949   5.376  1.0539 -2.2343 -0.7749
  942MOL0     H29979   1.301   6.017   5.592 -2.5639 -0.4578  0.1443
  942MOL0     H29980   1.557   6.782   5.908  2.6242  0.6013  0.6286
  942MOL0     H29981   1.761   6.668   5.944 -0.2360  0.7629 -0.1881
  942MOL0     H29982   1.955   6.347   6.392 -0.1652  1.9073 -0.0765
  942MOL0     H29983   2.142   6.204   6.429  3.7574  0.6108  0.6357
  942MOL0     H29984   2.384   6.035   6.149  0.1757  0.2206 -0.2838
  942MOL0     H29985   2.464   6.184   6.096  0.6900  1.8042  1.7735
  942MOL0     H29986   2.543   6.019   6.329 -0.7556  2.8773  1.7257
  942MOL0     H29987   2.636   6.159   6.284 -0.0964 -0.0035 -1.5912
  942MOL0     H29988   2.604   5.926   6.086 -0.4146  2.8249 -3.6992
  942MOL0     H29989   2.712   6.067   6.081  1.5927 -0.7696  0.3238
  942MOL0     H29990   2.845   5.877   6.158 -1.8074 -2.5602 -0.6018
  942MOL0     H29991   2.690   5.823   6.248 -0.2344  0.4348  3.0699
  942MOL0     H29992   2.928   6.032   6.527  1.3916  0.9631 -1.0113
  942MOL0     H29993   2.318   6.336   6.047  0.4115  0.6894  1.3775
  942MOL0     H29994   2.017   6.486   5.927  0.4359  1.8706 -1.2125
  942MOL0     H29995   2.145   6.585   5.998 -0.4238 -0.2780  1.9217
  942MOL0     H29996   2.193   6.446   5.896  0.4259  0.3765  0.3449
  943MOL0     O29997   2.321   8.942  10.618 -0.1123 -0.2810  0.6022
  943MOL0     C29998   2.318   9.046  10.681 -0.2380 -0.6815  0.7221
  943MOL0     O29999   2.421   9.141  10.693 -0.3704 -0.2741  0.0041
  943MOL0     C30000   2.545   9.106  10.649  0.4965 -0.1892  0.1800
  943MOL0     C30001   2.648   9.063  10.735 -0.3776  0.3843 -1.0949
  943MOL0     C30002   2.775   9.049  10.700  0.0051 -0.1801  0.1024
  943MOL0     C30003   2.811   9.062  10.570  0.9631 -0.4398 -0.4518
  943MOL0     O30004   2.928   9.051  10.512  0.0181  0.6218 -0.5498
  943MOL0     C30005   3.026   8.975  10.587 -0.5710  0.3622  0.5495
  943MOL0     C30006   3.118   8.910  10.482  0.4029  0.8019  0.2612
  943MOL0     C30007   3.052   8.808  10.390 -0.3284 -0.5857  0.4062
  943MOL0     C30008   3.145   8.747  10.293 -0.3015 -0.6758 -0.1825
  943MOL0     C30009   3.071   8.646  10.200 -0.0612 -0.5741 -0.3588
  943MOL0     C30010   3.067   8.686  10.049  0.1147 -0.2240  0.1851
  943MOL0     C30011   3.200   8.665   9.981 -0.0792  0.5016  0.6025
  943MOL0     C30012   3.176   8.688   9.829  0.2403  0.4479  0.4878
  943MOL0     N30013   3.138   8.564   9.753  0.3262  0.5458 -0.2312
  943MOL0     C30014   3.051   8.457   9.794 -0.3736  0.2377 -0.6184
  943MOL0     C30015   3.065   8.355   9.704 -0.7688  0.2262  0.0016
  943MOL0     C30016   2.988   8.219   9.704  0.4177  0.1282 -0.4103
  943MOL0     C30017   2.832   8.256   9.686 -0.2899  0.0579  0.3987
  943MOL0     C30018   2.804   8.319   9.554 -0.1713  0.0660  0.2222
  943MOL0     C30019   2.653   8.347   9.545 -0.0923  0.0480  0.2571
  943MOL0     O30020   2.605   8.432   9.655 -0.1633 -0.4377  0.4255
  943MOL0     C30021   2.473   8.460   9.658 -1.1171  0.1121 -0.1674
  943MOL0     C30022   2.419   8.505   9.782  0.4340  0.3636  0.1775
  943MOL0     C30023   2.282   8.546   9.796  0.0024 -0.0012 -0.3677
  943MOL0     C30024   2.241   8.607   9.929 -0.2757 -0.2535  0.1071
  943MOL0     C30025   2.199   8.528   9.690  0.4930  0.4877  0.3339
  943MOL0     C30026   2.053   8.564   9.690 -1.2754 -0.3763 -0.1428
  943MOL0     O30027   1.980   8.562   9.801  0.8825  0.6377 -0.1705
  943MOL0     C30028   1.847   8.584   9.803 -0.3339  0.5444 -0.6003
  943MOL0     C30029   1.798   8.680   9.890  0.0577 -0.6851 -0.0173
  943MOL0     C30030   1.668   8.718   9.881  0.7164  0.0478 -0.7541
  943MOL0     C30031   1.574   8.643   9.804  0.5769 -0.6460  0.0014
  943MOL0     O30032   1.440   8.678   9.799 -0.0932  0.4646 -0.2075
  943MOL0     C30033   1.356   8.636   9.696  0.0741 -1.0787 -0.8373
  943MOL0     C30034   1.234   8.724   9.711 -0.3424 -0.5677 -0.4256
  943MOL0     C30035   1.137   8.677   9.816  0.5258 -0.2447  0.3371
  943MOL0     C30036   1.012   8.761   9.816 -0.0999  0.3697  0.4225
  943MOL0     C30037   0.920   8.691   9.927 -0.2004 -0.7352  0.8333
  943MOL0     C30038   0.775   8.749   9.926  0.8060 -0.5508  0.3192
  943MOL0     C30039   0.692   8.688  10.042  0.3314 -1.0697  0.9510
  943MOL0     C30040   0.640   8.551  10.011 -0.1756 -0.7235 -0.2985
  943MOL0    Cl30041   0.542   8.493  10.151  0.2963  0.1535 -0.0786
  943MOL0     C30042   1.623   8.535   9.736 -0.5933  0.0131  0.4154
  943MOL0     C30043   1.755   8.505   9.733 -0.3530  0.3500 -0.8156
  943MOL0     O30044   2.015   8.602   9.584 -0.3706 -0.5711 -0.8063
  943MOL0     C30045   2.250   8.461   9.575  0.0519  0.5524  0.5575
  943MOL0     C30046   2.385   8.428   9.561 -0.1207 -0.1240  0.3141
  943MOL0     N30047   3.158   8.402   9.612  0.0961  0.0832 -0.0099
  943MOL0     N30048   3.194   8.523   9.630  0.1451 -0.2970 -0.5568
  943MOL0     C30049   2.716   9.105  10.474  0.4406 -0.4565 -0.1315
  943MOL0     C30050   2.584   9.126  10.516 -0.2079 -0.5884 -0.1385
  943MOL0     C30051   2.197   9.076  10.764 -0.0203 -0.4806  0.0119
  943MOL0     C30052   2.227   9.124  10.896  0.8294  0.0689  0.0207
  943MOL0     C30053   2.117   9.133  10.987  0.2620 -0.8563 -0.8049
  943MOL0     C30054   1.985   9.112  10.946  0.0359  0.0215  0.0739
  943MOL0     O30055   1.879   9.120  11.024  0.6001  0.7804 -0.0099
  943MOL0     C30056   1.819   8.992  11.070 -0.2620 -0.5141 -0.2463
  943MOL0     C30057   1.666   8.990  11.053  0.0270 -0.0247 -0.5671
  943MOL0     C30058   1.594   9.121  11.104 -0.9309 -0.2792 -0.5627
  943MOL0     C30059   1.447   9.150  11.054  0.1048  0.7506 -0.3757
  943MOL0     C30060   1.364   9.029  11.027  0.0370  1.3468  0.7275
  943MOL0     C30061   1.305   8.924  10.999  1.0391 -0.0426  0.3333
  943MOL0     C30062   1.968   9.062  10.829  0.7762  0.7051 -0.0649
  943MOL0     C30063   2.069   9.044  10.732 -0.2677  0.1275 -0.5652
  943MOL0     C30064   2.036   8.989  10.601 -0.7834 -0.0946  0.8537
  943MOL0     H30065   2.628   9.026  10.835  2.0377 -0.7347 -0.9610
  943MOL0     H30066   2.845   9.009  10.773  0.5055 -0.4023 -0.4820
  943MOL0     H30067   2.972   8.896  10.641 -1.9766  1.7882  1.3008
  943MOL0     H30068   3.086   9.027  10.662 -0.0556 -1.4383  1.4397
  943MOL0     H30069   3.155   9.000  10.431  3.8490  0.9377  2.6815
  943MOL0     H30070   3.212   8.872  10.523  0.5278 -0.0207 -0.7436
  943MOL0     H30071   3.013   8.729  10.455  1.0903 -2.2032 -0.6047
  943MOL0     H30072   2.980   8.861  10.327  1.6450 -2.5187 -3.8866
  943MOL0     H30073   3.180   8.826  10.226 -0.2824 -3.0674 -3.1860
  943MOL0     H30074   3.239   8.702  10.327 -1.5240 -0.3799  4.2263
  943MOL0     H30075   2.968   8.639  10.236 -0.5948  0.7514 -1.5290
  943MOL0     H30076   3.125   8.553  10.217 -3.1215 -2.0135  2.9942
  943MOL0     H30077   2.984   8.628  10.009 -0.7474  1.0865 -0.0014
  943MOL0     H30078   3.042   8.792  10.058 -3.8194 -1.1573  2.1891
  943MOL0     H30079   3.249   8.568   9.993  2.2709  1.2739 -1.7381
  943MOL0     H30080   3.259   8.743  10.030  0.5867 -0.0363  0.6617
  943MOL0     H30081   3.098   8.763   9.816 -1.5288 -1.8063 -4.4509
  943MOL0     H30082   3.265   8.722   9.775 -1.0951 -1.5210 -3.3111
  943MOL0     H30083   2.996   8.454   9.888 -0.0279  0.5738 -0.4018
  943MOL0     H30084   2.997   8.166   9.799 -1.3615  0.2710 -0.1130
  943MOL0     H30085   3.023   8.151   9.626  1.2079 -1.6862  1.4423
  943MOL0     H30086   2.780   8.161   9.695  0.7738 -0.5286  0.5297
  943MOL0     H30087   2.795   8.324   9.763 -0.6649 -0.2445  0.4890
  943MOL0     H30088   2.865   8.410   9.551  0.2649 -0.0158  3.5190
  943MOL0     H30089   2.842   8.257   9.472  1.2062 -0.4853  1.2280
  943MOL0     H30090   2.630   8.386   9.445  0.2134 -1.1268 -0.2841
  943MOL0     H30091   2.603   8.249   9.547  0.0129  0.0089  1.1635
  943MOL0     H30092   2.484   8.520   9.868  1.3839  2.0158 -0.7771
  943MOL0     H30093   2.319   8.644   9.996 -2.2985 -0.9948  3.1095
  943MOL0     H30094   2.183   8.534   9.986 -1.0593 -0.3353 -0.7665
  943MOL0     H30095   2.176   8.694   9.912  1.3235  0.8985 -0.3722
  943MOL0     H30096   1.866   8.723   9.963 -0.6824 -2.7168  1.9922
  943MOL0     H30097   1.660   8.806   9.944  4.4351 -0.7410  1.0637
  943MOL0     H30098   1.397   8.653   9.597  1.1663  0.9598 -0.0869
  943MOL0     H30099   1.322   8.533   9.717 -2.2150 -0.1858  0.1968
  943MOL0     H30100   1.266   8.828   9.721  1.0395 -0.9731 -0.4423
  943MOL0     H30101   1.181   8.717   9.615 -2.5019 -2.3982  0.8291
  943MOL0     H30102   1.174   8.682   9.919  0.7130  0.2967  0.2469
  943MOL0     H30103   1.126   8.572   9.789 -0.3467 -0.0008 -0.2988
  943MOL0     H30104   0.978   8.750   9.713  0.5316 -0.1870  0.2670
  943MOL0     H30105   1.014   8.868   9.839 -1.2845  0.3970  0.4631
  943MOL0     H30106   0.915   8.585   9.902 -0.3739 -0.1978 -1.6522
  943MOL0     H30107   0.969   8.716  10.022  1.3402 -4.1124  1.0541
  943MOL0     H30108   0.722   8.719   9.835 -0.1140  0.9881  0.3139
  943MOL0     H30109   0.778   8.858   9.918  0.3888 -0.4508  1.3573
  943MOL0     H30110   0.600   8.747  10.047 -0.5342 -1.5159 -4.1610
  943MOL0     H30111   0.755   8.688  10.131  1.5221  0.7190  0.1454
  943MOL0     H30112   0.723   8.482   9.993  0.7478  0.1386  0.5645
  943MOL0     H30113   0.583   8.545   9.918 -0.4862  1.3253 -0.2878
  943MOL0     H30114   1.558   8.474   9.675 -0.8663 -0.1100  0.8193
  943MOL0     H30115   1.790   8.430   9.662  2.2156  0.2708  0.3973
  943MOL0     H30116   2.185   8.438   9.491  0.2095 -0.1463  0.6168
  943MOL0     H30117   2.407   8.390   9.462 -1.5104  0.4517 -0.2461
  943MOL0     H30118   2.743   9.126  10.371 -2.2212 -0.1838 -0.8553
  943MOL0     H30119   2.520   9.190  10.456  1.1438  0.5506 -0.4033
  943MOL0     H30120   2.329   9.139  10.929 -0.1302  0.4675  3.1578
  943MOL0     H30121   2.154   9.158  11.085  1.1054  1.5221 -1.6568
  943MOL0     H30122   1.858   8.895  11.036  0.5613 -0.6081  0.9079
  943MOL0     H30123   1.849   8.981  11.174  4.4223 -0.4522 -1.3702
  943MOL0     H30124   1.607   8.911  11.100  1.2236 -0.6758 -0.1106
  943MOL0     H30125   1.656   8.983  10.945 -2.8455 -0.4270 -0.3464
  943MOL0     H30126   1.606   9.119  11.213  1.7647 -0.5425 -0.7834
  943MOL0     H30127   1.656   9.209  11.082  2.2718 -2.4147 -0.7940
  943MOL0     H30128   1.450   9.198  10.956 -0.4497 -0.4610 -1.0064
  943MOL0     H30129   1.400   9.205  11.136 -1.4350 -2.0178  0.7254
  943MOL0     H30130   1.256   8.832  10.974  1.5939  0.2117 -1.9010
  943MOL0     H30131   1.866   9.040  10.798  0.7299 -0.0707  0.6014
  943MOL0     H30132   1.930   8.965  10.591 -0.4017 -1.2061 -0.9487
  943MOL0     H30133   2.062   9.055  10.517 -2.0387 -2.2844 -1.3814
  943MOL0     H30134   2.088   8.893  10.603 -0.2550  0.0901 -1.2454
  944MOL0     O30135  10.316   2.565  11.034  0.1531 -0.3221 -0.4716
  944MOL0     C30136  10.293   2.685  11.033 -0.0582  0.0572 -0.0437
  944MOL0     O30137  10.387   2.777  11.074 -0.3356 -0.4126 -0.0704
  944MOL0     C30138  10.513   2.744  11.031  1.5084  0.2965  0.2071
  944MOL0     C30139  10.556   2.784  10.907  0.0076  0.7324  0.3497
  944MOL0     C30140  10.683   2.763  10.860 -0.9143  0.1566  0.1281
  944MOL0     C30141  10.772   2.692  10.940 -0.1138 -0.3801 -0.0890
  944MOL0     O30142  10.890   2.657  10.889 -0.4524  0.5320 -0.5550
  944MOL0     C30143  10.986   2.752  10.948 -0.3769  0.3153 -0.7447
  944MOL0     C30144  11.114   2.693  10.950 -0.7170  0.0212 -0.5122
  944MOL0     C30145  11.122   2.541  11.004 -0.1033 -0.5004  0.0483
  944MOL0     C30146  11.266   2.497  11.029 -0.7749  0.5041  0.7197
  944MOL0     C30147  11.360   2.484  10.902  0.8364 -1.1034 -0.8382
  944MOL0     C30148  11.328   2.373  10.799 -0.1462 -0.1056  0.5331
  944MOL0     C30149  11.331   2.235  10.873  0.9926 -1.5646  0.3436
  944MOL0     C30150  11.316   2.117  10.770  0.6830  0.3165  0.7594
  944MOL0     N30151  11.187   2.111  10.699  0.3119  0.5347 -0.2332
  944MOL0     C30152  11.061   2.132  10.756 -0.1201  0.2748  0.7884
  944MOL0     C30153  10.982   2.077  10.657 -0.1241  0.2978  0.9379
  944MOL0     C30154  10.830   2.054  10.673 -0.7140  0.1407  0.2851
  944MOL0     C30155  10.757   2.091  10.547 -0.3092 -0.3255  0.1014
  944MOL0     C30156  10.795   2.233  10.490  1.0340 -0.1287 -0.4804
  944MOL0     C30157  10.793   2.343  10.582 -0.8917 -0.4440 -1.0281
  944MOL0     O30158  10.802   2.464  10.514  0.8065  0.1176  0.8889
  944MOL0     C30159  10.915   2.532  10.515  0.2415 -0.8722  0.6064
  944MOL0     C30160  10.898   2.671  10.535 -0.6475 -0.2058  0.4888
  944MOL0     C30161  11.009   2.749  10.546  0.1052 -0.1771 -0.5735
  944MOL0     C30162  10.972   2.887  10.583  0.1808 -0.6487  1.0220
  944MOL0     C30163  11.137   2.706  10.545  0.2240  0.3228 -0.9920
  944MOL0     C30164  11.265   2.788  10.543  0.9456  0.3507  0.6507
  944MOL0     O30165  11.382   2.727  10.585  0.0442 -0.0906  0.8631
  944MOL0     C30166  11.486   2.823  10.613  0.4476  1.2148 -0.0403
  944MOL0     C30167  11.619   2.785  10.567  0.6765  0.0326 -0.5948
  944MOL0     C30168  11.736   2.867  10.589 -0.1206 -0.8085  0.0938
  944MOL0     C30169  11.714   2.996  10.656  0.2651 -0.8003  0.1142
  944MOL0     O30170  11.816   3.093  10.675 -0.0794 -0.2984 -0.3651
  944MOL0     C30171  11.915   3.102  10.581  0.2741  0.8601  0.4680
  944MOL0     C30172  11.964   3.247  10.598 -0.2868  0.5704 -0.0048
  944MOL0     C30173  11.886   3.349  10.514 -0.3670 -0.1520 -0.5253
  944MOL0     C30174  11.733   3.352  10.546  0.0346 -0.1952  0.1768
  944MOL0     C30175  11.673   3.488  10.493 -0.4250  0.1650 -0.0511
  944MOL0     C30176  11.523   3.496  10.542  0.1707 -0.1063 -0.0217
  944MOL0     C30177  11.425   3.408  10.467 -0.0345 -0.2739 -0.3178
  944MOL0     C30178  11.308   3.354  10.551  0.3738  0.0494 -0.0717
  944MOL0    Cl30179  11.217   3.477  10.646 -0.1075 -0.1321  0.0553
  944MOL0     C30180  11.581   3.028  10.694 -0.3163  0.4538  0.1539
  944MOL0     C30181  11.472   2.938  10.674  0.2113 -0.7292  0.5059
  944MOL0     O30182  11.250   2.896  10.486 -0.7895 -0.3229 -0.6782
  944MOL0     C30183  11.157   2.568  10.541 -0.3643 -0.3668  1.0927
  944MOL0     C30184  11.047   2.475  10.525 -0.5317  0.5665  0.4460
  944MOL0     N30185  11.054   2.024  10.561 -0.1439  0.6243 -0.0855
  944MOL0     N30186  11.180   2.044  10.587  0.5821  0.3568  0.1883
  944MOL0     C30187  10.736   2.659  11.074 -1.0617 -0.0497  0.2429
  944MOL0     C30188  10.608   2.679  11.116 -0.0992 -0.2737  0.6944
  944MOL0     C30189  10.161   2.743  10.991  0.3850  0.2547  0.3032
  944MOL0     C30190  10.146   2.878  10.969  0.1524 -0.0312  0.5789
  944MOL0     C30191  10.016   2.928  10.929 -0.7602  0.6759 -0.4083
  944MOL0     C30192   9.901   2.851  10.933 -0.6254  0.6579 -0.2576
  944MOL0     O30193   9.779   2.896  10.922  0.8070  0.2296 -0.0954
  944MOL0     C30194   9.752   3.041  10.934  0.2086  0.5546  0.9593
  944MOL0     C30195   9.752   3.111  10.798 -0.2849  0.1135  0.1179
  944MOL0     C30196   9.631   3.199  10.772  0.4341  0.5558 -0.0382
  944MOL0     C30197   9.655   3.262  10.633  0.1588  0.3347 -0.1126
  944MOL0     C30198   9.527   3.309  10.568  0.3635 -0.0909  0.5958
  944MOL0     C30199   9.426   3.348  10.523 -0.7154  1.0292  0.3025
  944MOL0     C30200   9.917   2.712  10.958 -0.6778  0.1203 -0.6874
  944MOL0     C30201  10.050   2.657  10.976  0.4740 -0.0782  0.0949
  944MOL0     C30202  10.047   2.511  11.003 -0.0078  0.2298 -0.2598
  944MOL0     H30203  10.479   2.830  10.845 -0.6345  1.4368  1.6096
  944MOL0     H30204  10.712   2.786  10.758  1.0806  2.0871  1.0433
  944MOL0     H30205  10.954   2.775  11.049 -1.3519  0.2167 -1.0224
  944MOL0     H30206  10.991   2.844  10.888 -0.5910  1.7069  1.2813
  944MOL0     H30207  11.156   2.691  10.849 -1.3804 -1.5229 -0.7881
  944MOL0     H30208  11.176   2.761  11.009  0.5426 -0.0491 -1.7146
  944MOL0     H30209  11.063   2.522  11.094 -0.0993 -1.3775 -0.1344
  944MOL0     H30210  11.079   2.483  10.922  0.4979 -0.9168  0.0303
  944MOL0     H30211  11.323   2.561  11.097  0.6399 -0.5032  0.5193
  944MOL0     H30212  11.266   2.399  11.078 -1.9376  0.3251  0.4018
  944MOL0     H30213  11.461   2.472  10.941 -0.0555 -2.7405  1.1346
  944MOL0     H30214  11.360   2.582  10.853 -1.1691 -1.8580 -2.4991
  944MOL0     H30215  11.231   2.401  10.756 -0.6318 -1.1017  0.9422
  944MOL0     H30216  11.403   2.383  10.720 -1.9958  1.6779 -1.1292
  944MOL0     H30217  11.260   2.228  10.957 -0.8470  2.5248 -0.6139
  944MOL0     H30218  11.432   2.232  10.914  0.3957 -1.4290  1.9156
  944MOL0     H30219  11.392   2.136  10.694  0.2546  1.9763  0.7009
  944MOL0     H30220  11.334   2.021  10.820 -2.5176 -1.0596 -0.4596
  944MOL0     H30221  11.033   2.177  10.850 -0.9320  1.8978 -0.1965
  944MOL0     H30222  10.788   2.115  10.755  1.5062 -0.0540  1.6626
  944MOL0     H30223  10.814   1.951  10.705  3.9988 -0.8288  0.2623
  944MOL0     H30224  10.777   2.012  10.475 -1.2635 -1.4344  1.0227
  944MOL0     H30225  10.648   2.087  10.562 -0.5716 -0.6559 -1.6209
  944MOL0     H30226  10.895   2.217  10.448  1.0535 -1.8302  0.0959
  944MOL0     H30227  10.719   2.252  10.414 -2.1556 -1.0636  2.2403
  944MOL0     H30228  10.697   2.341  10.636 -1.3394  1.1770 -1.7036
  944MOL0     H30229  10.875   2.336  10.654 -0.1789  0.6504 -1.7080
  944MOL0     H30230  10.807   2.730  10.538 -1.5589 -1.6145  2.7624
  944MOL0     H30231  10.932   2.936  10.494  2.2346 -0.2483  0.2554
  944MOL0     H30232  11.058   2.945  10.619  2.1566 -1.9112 -1.3161
  944MOL0     H30233  10.905   2.892  10.669 -0.2301 -2.5177  0.8587
  944MOL0     H30234  11.646   2.693  10.516 -1.9267 -3.0735  3.0476
  944MOL0     H30235  11.838   2.836  10.568  1.5507  4.0993 -0.2756
  944MOL0     H30236  11.993   3.029  10.605  1.4208  1.0441 -2.2879
  944MOL0     H30237  11.889   3.088  10.476 -0.4901  1.0306  0.6262
  944MOL0     H30238  11.960   3.287  10.699  1.0221 -0.5070  0.5095
  944MOL0     H30239  12.071   3.229  10.582 -0.0418  0.9540  1.1366
  944MOL0     H30240  11.901   3.336  10.406 -1.7886  3.0454 -1.2372
  944MOL0     H30241  11.918   3.452  10.532 -1.6858  0.5329 -1.8605
  944MOL0     H30242  11.715   3.349  10.654  0.8627 -0.6302  0.3144
  944MOL0     H30243  11.691   3.260  10.506  2.1710 -1.4533  0.6293
  944MOL0     H30244  11.731   3.568  10.541  0.5147 -0.6738  0.2629
  944MOL0     H30245  11.694   3.499  10.386  1.2986 -1.4747  0.0554
  944MOL0     H30246  11.492   3.600  10.530 -3.1681 -0.8365  1.2797
  944MOL0     H30247  11.522   3.472  10.648 -0.1720  0.7392  0.1712
  944MOL0     H30248  11.486   3.324  10.433  0.1395 -0.4956  0.5207
  944MOL0     H30249  11.383   3.459  10.381  0.9547  0.1249 -0.5714
  944MOL0     H30250  11.351   3.278  10.618 -0.2214  0.1208  0.4048
  944MOL0     H30251  11.246   3.306  10.475  1.6370 -0.8367 -0.5867
  944MOL0     H30252  11.561   3.127  10.734  0.6882  0.3383  1.0085
  944MOL0     H30253  11.375   2.967  10.715  0.0352 -1.1246  0.3783
  944MOL0     H30254  11.262   2.541  10.545 -0.0891  0.2555 -0.9154
  944MOL0     H30255  11.064   2.369  10.537  0.9592  0.8322  0.9120
  944MOL0     H30256  10.811   2.609  11.134 -0.2957 -2.2912 -2.3361
  944MOL0     H30257  10.571   2.645  11.212 -2.4446 -2.1633 -0.7481
  944MOL0     H30258  10.236   2.939  10.979  2.5215 -2.8643 -1.5453
  944MOL0     H30259  10.019   3.031  10.897 -1.0885  1.5276  2.0375
  944MOL0     H30260   9.660   3.057  10.991 -1.0735  2.6915 -1.5100
  944MOL0     H30261   9.831   3.084  10.997  1.6961 -2.2360  1.1570
  944MOL0     H30262   9.738   3.039  10.717 -0.6540 -0.3979  0.6307
  944MOL0     H30263   9.845   3.166  10.780  0.6583 -0.7316  2.0594
  944MOL0     H30264   9.542   3.136  10.765  0.6447  0.3644 -1.1476
  944MOL0     H30265   9.618   3.265  10.858 -1.6173  0.8605 -0.5210
  944MOL0     H30266   9.698   3.189  10.563  1.0356  0.1730  0.5720
  944MOL0     H30267   9.729   3.342  10.648  0.0010  0.9093 -2.0442
  944MOL0     H30268   9.332   3.386  10.486 -0.2288  1.4014 -0.5795
  944MOL0     H30269   9.825   2.655  10.963 -0.1217 -0.9179 -1.5409
  944MOL0     H30270  10.111   2.491  11.090  3.3280  1.3519 -2.2994
  944MOL0     H30271   9.943   2.487  11.031 -0.3808  0.4688 -1.4100
  944MOL0     H30272  10.076   2.452  10.916 -0.8981 -0.4861 -0.0941
  945MOL0     O30273   8.884  10.187   7.910  0.2200 -0.7112 -0.8091
  945MOL0     C30274   8.777  10.132   7.922  0.4893 -0.0197 -0.0470
  945MOL0     O30275   8.668  10.137   7.838  0.2869 -0.3313 -0.3116
  945MOL0     C30276   8.691  10.213   7.721 -0.3322 -0.2603  0.3642
  945MOL0     C30277   8.668  10.355   7.712 -0.2183 -0.1403  1.2930
  945MOL0     C30278   8.688  10.414   7.578 -0.5913  0.3622 -0.7485
  945MOL0     C30279   8.746  10.337   7.475 -0.5408 -0.0244  0.1563
  945MOL0     O30280   8.797  10.397   7.362 -0.8651  0.1084 -0.0701
  945MOL0     C30281   8.737  10.517   7.320  0.0910  0.7126 -0.3475
  945MOL0     C30282   8.803  10.570   7.190 -1.0452 -0.1216 -0.4066
  945MOL0     C30283   8.935  10.654   7.217  0.1156 -0.2266  0.3888
  945MOL0     C30284   9.006  10.693   7.091 -0.0490 -1.4811 -0.0986
  945MOL0     C30285   9.117  10.790   7.120 -0.1513 -0.0175  0.1312
  945MOL0     C30286   9.180  10.842   6.990  0.1281 -0.1570  0.0355
  945MOL0     C30287   9.265  10.737   6.916 -0.2047 -0.3184  0.0797
  945MOL0     C30288   9.334  10.797   6.793  0.1164  0.2411  0.3469
  945MOL0     N30289   9.421  10.916   6.835  0.0301  1.3363  0.4865
  945MOL0     C30290   9.537  10.900   6.914 -0.9527  0.0248 -0.3376
  945MOL0     C30291   9.574  11.023   6.950  1.1238  0.2795 -0.5997
  945MOL0     C30292   9.679  11.051   7.047 -0.2696 -0.0733  0.0937
  945MOL0     C30293   9.811  11.109   6.983  0.4121 -0.1784 -0.8209
  945MOL0     C30294   9.788  11.254   6.949  0.6714 -0.6732 -0.4809
  945MOL0     C30295   9.914  11.315   6.893 -0.6674  0.6185  0.6531
  945MOL0     O30296  10.013  11.317   6.998 -0.8069 -0.7536  0.4408
  945MOL0     C30297  10.122  11.401   6.990 -0.6486 -0.5763  0.9842
  945MOL0     C30298  10.217  11.396   7.089  0.7459  1.0678  0.0742
  945MOL0     C30299  10.343  11.459   7.082  0.1035  0.6134  0.2532
  945MOL0     C30300  10.423  11.438   7.213  0.6311  1.0851 -0.6394
  945MOL0     C30301  10.382  11.526   6.967 -0.2949  0.3736 -0.2917
  945MOL0     C30302  10.524  11.568   6.942  0.0874 -0.6666  0.6522
  945MOL0     O30303  10.556  11.649   6.816 -0.0243  0.3714 -0.7941
  945MOL0     C30304  10.688  11.682   6.787 -0.3016  0.6109  0.1429
  945MOL0     C30305  10.780  11.731   6.880 -0.3662 -0.0091 -0.3624
  945MOL0     C30306  10.910  11.755   6.846 -0.3888 -0.7701  0.0365
  945MOL0     C30307  10.951  11.720   6.715 -0.7743 -0.4333 -0.6306
  945MOL0     O30308  11.090  11.734   6.693  0.4385  0.0350  0.4479
  945MOL0     C30309  11.135  11.741   6.558 -0.7262  0.1615 -0.2166
  945MOL0     C30310  11.290  11.748   6.558  0.9178  0.0230  0.0846
  945MOL0     C30311  11.360  11.619   6.593  0.4250  0.3577  0.8635
  945MOL0     C30312  11.505  11.619   6.538 -0.5420  0.2289 -0.7303
  945MOL0     C30313  11.590  11.519   6.623  1.0476  0.2170  0.2518
  945MOL0     C30314  11.724  11.499   6.569 -0.0543 -0.2773  0.7431
  945MOL0     C30315  11.820  11.417   6.651  0.3499  0.0406  0.8282
  945MOL0     C30316  11.947  11.416   6.565  0.0114  0.2223 -0.4677
  945MOL0    Cl30317  12.068  11.287   6.636 -0.1431 -0.5842 -0.0526
  945MOL0     C30318  10.861  11.669   6.621  0.4713  0.2837 -0.2133
  945MOL0     C30319  10.733  11.646   6.664 -0.0825  0.0484  0.4217
  945MOL0     O30320  10.608  11.553   7.028  0.3977 -0.1287  0.0454
  945MOL0     C30321  10.285  11.532   6.865  0.5361  0.6980 -0.1543
  945MOL0     C30322  10.161  11.470   6.877 -0.3201  1.0505  0.3141
  945MOL0     N30323   9.492  11.109   6.890 -0.0961  0.0921  0.6941
  945MOL0     N30324   9.397  11.045   6.821 -1.2593  0.0710 -0.6208
  945MOL0     C30325   8.776  10.202   7.489 -0.2814 -0.1386 -0.3133
  945MOL0     C30326   8.735  10.147   7.608 -0.4260 -0.5956  0.8747
  945MOL0     C30327   8.764  10.047   8.043  0.1106 -0.4557  0.7624
  945MOL0     C30328   8.868   9.961   8.074 -0.2455  0.8788  0.9937
  945MOL0     C30329   8.861   9.889   8.190  0.7766 -0.2134 -0.2797
  945MOL0     C30330   8.753   9.894   8.279 -0.3774 -0.6597  0.9824
  945MOL0     O30331   8.760   9.807   8.389  0.3355 -0.8314  0.0882
  945MOL0     C30332   8.660   9.837   8.491 -0.4665 -0.0995 -1.0967
  945MOL0     C30333   8.689   9.763   8.616  0.5815  0.1112 -0.0386
  945MOL0     C30334   8.616   9.811   8.737 -0.6562  0.4634  0.1907
  945MOL0     C30335   8.460   9.838   8.714  0.3912  0.6944  0.4999
  945MOL0     C30336   8.401   9.904   8.839 -0.4799  0.0729  0.3471
  945MOL0     C30337   8.335   9.940   8.930  0.4625 -0.6749 -0.6933
  945MOL0     C30338   8.652   9.984   8.243 -0.5570 -0.0574  0.1784
  945MOL0     C30339   8.660  10.055   8.124 -0.1224 -0.5080 -0.2503
  945MOL0     C30340   8.560  10.164   8.101  0.3234 -0.6732  0.0225
  945MOL0     H30341   8.628  10.403   7.802  0.3994 -1.4161  2.2790
  945MOL0     H30342   8.660  10.519   7.574 -0.5662  0.3818 -0.4360
  945MOL0     H30343   8.756  10.586   7.402  3.6808 -0.9111  0.4043
  945MOL0     H30344   8.633  10.488   7.301  0.1273  0.6001 -0.3775
  945MOL0     H30345   8.826  10.493   7.116  1.5140  1.4638 -1.3814
  945MOL0     H30346   8.732  10.642   7.148  2.2807  3.0301 -1.1767
  945MOL0     H30347   8.908  10.754   7.253 -1.5895  0.5217 -2.6386
  945MOL0     H30348   8.997  10.600   7.290  0.5693 -1.6874 -1.0278
  945MOL0     H30349   9.044  10.604   7.041 -3.5403 -2.0902 -1.9738
  945MOL0     H30350   8.931  10.735   7.025  0.4217  1.1479  0.9205
  945MOL0     H30351   9.186  10.743   7.190  0.6233  0.2190 -0.4562
  945MOL0     H30352   9.071  10.876   7.169 -1.9728 -0.5638 -0.5216
  945MOL0     H30353   9.090  10.868   6.933 -0.0765 -0.8652  0.0302
  945MOL0     H30354   9.249  10.921   7.021  0.5013 -0.9358  1.2877
  945MOL0     H30355   9.195  10.659   6.883  0.0823 -0.8086  0.6120
  945MOL0     H30356   9.339  10.686   6.979  0.4925  0.1959 -0.3134
  945MOL0     H30357   9.396  10.730   6.731  0.2344  1.3605 -0.7927
  945MOL0     H30358   9.258  10.838   6.726 -0.2316 -0.3007  0.3991
  945MOL0     H30359   9.576  10.807   6.954  0.7846  0.6223 -0.5815
  945MOL0     H30360   9.706  10.957   7.096 -1.6467  0.3962  1.8527
  945MOL0     H30361   9.648  11.121   7.125  0.3593  0.4028 -0.0790
  945MOL0     H30362   9.893  11.102   7.054 -0.2989 -0.6159 -0.0152
  945MOL0     H30363   9.839  11.052   6.894  0.8747 -0.6319 -0.3917
  945MOL0     H30364   9.703  11.267   6.882 -2.5580 -0.9514  3.1624
  945MOL0     H30365   9.768  11.305   7.044  4.5996 -1.8769  1.1927
  945MOL0     H30366   9.958  11.264   6.807 -2.4717  0.6695 -0.3436
  945MOL0     H30367   9.882  11.409   6.847  0.5600  2.0698  2.6050
  945MOL0     H30368  10.194  11.332   7.174  2.7028 -2.7692 -2.0029
  945MOL0     H30369  10.356  11.405   7.292 -1.1165  2.0746 -1.6418
  945MOL0     H30370  10.474  11.532   7.234  2.1494  0.8159 -2.7571
  945MOL0     H30371  10.496  11.360   7.189 -0.7521 -0.9961  1.5046
  945MOL0     H30372  10.744  11.757   6.979  0.0720  0.0354 -0.2119
  945MOL0     H30373  10.982  11.790   6.919 -1.4398 -0.7323  1.0879
  945MOL0     H30374  11.092  11.657   6.504  1.2237 -0.0436 -1.5588
  945MOL0     H30375  11.098  11.827   6.503 -2.7617 -0.8995 -0.5780
  945MOL0     H30376  11.314  11.788   6.459  2.6796  1.4765  1.0340
  945MOL0     H30377  11.323  11.822   6.632 -1.0719 -0.5512  1.6549
  945MOL0     H30378  11.295  11.542   6.549  0.8439  1.2220 -1.3952
  945MOL0     H30379  11.364  11.604   6.701  1.6238 -1.2021  0.6404
  945MOL0     H30380  11.544  11.721   6.545  0.3705 -0.1914  0.7991
  945MOL0     H30381  11.503  11.598   6.431  0.6455  1.6918 -1.0674
  945MOL0     H30382  11.614  11.558   6.722  2.2052  0.4279 -0.0930
  945MOL0     H30383  11.536  11.424   6.629  0.6587  0.5288  2.5430
  945MOL0     H30384  11.760  11.602   6.567 -2.0617  0.4640 -0.1900
  945MOL0     H30385  11.712  11.459   6.467  3.9799  3.8849 -1.7646
  945MOL0     H30386  11.780  11.316   6.665 -0.1337 -0.5601 -3.5785
  945MOL0     H30387  11.842  11.464   6.747  2.0987  0.4356  0.2548
  945MOL0     H30388  11.998  11.512   6.551 -0.1303  0.8585  2.7413
  945MOL0     H30389  11.930  11.382   6.462  2.4959  0.9988 -1.2122
  945MOL0     H30390  10.876  11.643   6.516 -0.3427  2.1726 -0.8393
  945MOL0     H30391  10.661  11.611   6.591  0.8821 -1.3979  0.1450
  945MOL0     H30392  10.307  11.579   6.770  0.3005  0.1779 -0.4698
  945MOL0     H30393  10.105  11.461   6.784 -0.2963  2.1722  0.1689
  945MOL0     H30394   8.818  10.146   7.406  1.2283  0.7264 -0.1773
  945MOL0     H30395   8.737  10.038   7.612 -2.7591 -0.6946  1.0940
  945MOL0     H30396   8.959   9.951   8.016 -0.5201 -2.1478  0.9243
  945MOL0     H30397   8.943   9.827   8.223  0.3982 -0.2005  0.7131
  945MOL0     H30398   8.660   9.944   8.514 -3.6305 -0.3902  0.7787
  945MOL0     H30399   8.565   9.815   8.443 -0.1475 -0.6621 -1.4863
  945MOL0     H30400   8.798   9.758   8.627  0.8222  0.7350 -1.7587
  945MOL0     H30401   8.658   9.660   8.598 -0.1709 -0.3016  3.1134
  945MOL0     H30402   8.625   9.733   8.813 -0.2179  1.1430  0.8505
  945MOL0     H30403   8.664   9.903   8.770  4.6518  0.2125 -4.9714
  945MOL0     H30404   8.407   9.745   8.690  0.3923  1.2196 -1.6623
  945MOL0     H30405   8.440   9.904   8.630  0.2286 -0.7652 -0.6527
  945MOL0     H30406   8.271   9.972   9.010  0.9027 -2.1869  0.2979
  945MOL0     H30407   8.562   9.999   8.301 -1.2890 -2.1198 -0.3482
  945MOL0     H30408   8.478  10.118   8.046  0.9039 -0.1435 -1.3391
  945MOL0     H30409   8.510  10.189   8.195 -1.1933  0.5847 -1.0607
  945MOL0     H30410   8.607  10.253   8.059  5.3301 -2.3728  1.3032
  946MOL0     O30411   2.183   4.038   4.536  0.8028 -0.2719 -0.8000
  946MOL0     C30412   2.165   3.973   4.438  0.6570  0.5912  0.3721
  946MOL0     O30413   2.261   3.907   4.368 -0.4456 -0.5581  0.6273
  946MOL0     C30414   2.396   3.915   4.400 -0.0720 -0.2555  0.1580
  946MOL0     C30415   2.469   3.828   4.313 -0.3057 -0.3288 -0.9411
  946MOL0     C30416   2.608   3.822   4.326  0.1696 -0.0177  0.7813
  946MOL0     C30417   2.672   3.893   4.427 -0.3434  0.1138 -0.2068
  946MOL0     O30418   2.809   3.886   4.423  0.0574 -0.1844  0.1095
  946MOL0     C30419   2.879   4.013   4.427 -0.3590 -0.4749  0.0606
  946MOL0     C30420   3.030   3.984   4.406  1.2789  0.3102  0.1317
  946MOL0     C30421   3.072   3.899   4.284 -0.7576 -0.2862 -0.0763
  946MOL0     C30422   3.224   3.894   4.252 -0.4695  0.3628 -0.3443
  946MOL0     C30423   3.276   4.021   4.181 -0.1957 -0.0378 -0.8324
  946MOL0     C30424   3.437   4.026   4.186  0.8978  0.3677  0.1093
  946MOL0     C30425   3.490   4.157   4.118  0.0499 -0.4132 -0.4634
  946MOL0     C30426   3.634   4.179   4.121  0.3346  0.4032  0.4161
  946MOL0     N30427   3.706   4.094   4.034  0.3599  0.8774  0.1205
  946MOL0     C30428   3.719   4.103   3.896  0.4622  0.9793 -0.0019
  946MOL0     C30429   3.788   3.989   3.868 -0.4702  0.0842  0.0839
  946MOL0     C30430   3.834   3.945   3.734 -0.7841 -0.0580  0.1313
  946MOL0     C30431   3.981   3.927   3.716  0.0137 -0.0506  0.1244
  946MOL0     C30432   4.024   3.874   3.574 -1.2651  0.6724 -0.4141
  946MOL0     C30433   4.046   3.980   3.469  0.0747 -0.4080 -0.2598
  946MOL0     O30434   4.072   3.902   3.349  0.5720 -1.1843 -0.2077
  946MOL0     C30435   4.198   3.930   3.299 -0.6121 -0.0508 -0.5236
  946MOL0     C30436   4.312   3.856   3.345 -0.4695  0.0219 -0.6160
  946MOL0     C30437   4.443   3.882   3.293  0.8241  0.2442  0.2131
  946MOL0     C30438   4.566   3.807   3.347 -0.1795  0.7829 -0.3939
  946MOL0     C30439   4.463   3.984   3.199  0.0986  0.4082 -0.3724
  946MOL0     C30440   4.597   4.022   3.143  0.5749  0.4762 -0.0328
  946MOL0     O30441   4.597   4.042   3.016 -0.1520 -0.3498  0.6990
  946MOL0     C30442   4.711   4.092   2.957  0.8126 -0.3485  0.2332
  946MOL0     C30443   4.742   4.228   2.951  0.4503 -0.8515 -0.1102
  946MOL0     C30444   4.864   4.273   2.912 -0.6838 -0.8689  0.4930
  946MOL0     C30445   4.959   4.192   2.867 -0.4199 -0.2765 -0.3163
  946MOL0     O30446   5.085   4.226   2.829  0.0409 -0.4693  0.6169
  946MOL0     C30447   5.110   4.361   2.774  0.3187  0.0514 -0.8416
  946MOL0     C30448   5.252   4.378   2.730  0.4556 -0.3818  0.2855
  946MOL0     C30449   5.279   4.292   2.602  0.2771 -0.2174  0.1234
  946MOL0     C30450   5.420   4.259   2.568 -0.0313  0.4196 -0.0690
  946MOL0     C30451   5.508   4.385   2.561 -0.3513  0.4637  0.5850
  946MOL0     C30452   5.649   4.352   2.507  0.6655  0.8725  0.4681
  946MOL0     C30453   5.720   4.487   2.492 -0.4085  0.0611  1.2398
  946MOL0     C30454   5.880   4.465   2.496  1.2887  0.3873  0.4793
  946MOL0    Cl30455   5.932   4.326   2.406  0.4942 -0.4951 -0.4320
  946MOL0     C30456   4.936   4.062   2.873  0.4910  0.6040 -0.0602
  946MOL0     C30457   4.815   4.005   2.914 -1.0671 -1.0509 -0.1002
  946MOL0     O30458   4.685   4.051   3.220  0.0462 -0.2737  0.4569
  946MOL0     C30459   4.346   4.051   3.151  0.9005  0.2242  0.6954
  946MOL0     C30460   4.214   4.023   3.198  0.3547  0.0950  0.0146
  946MOL0     N30461   3.805   3.914   3.980  0.2607 -0.6733  1.0478
  946MOL0     N30462   3.752   3.972   4.082  0.0463 -0.9165  1.0818
  946MOL0     C30463   2.596   3.970   4.521 -1.1814  0.0914 -0.3655
  946MOL0     C30464   2.461   3.986   4.494  0.0254  0.0903 -0.0993
  946MOL0     C30465   2.022   3.959   4.394 -0.2093  0.4991  0.2326
  946MOL0     C30466   1.925   4.054   4.441  0.6689 -0.6160  0.4168
  946MOL0     C30467   1.797   4.072   4.383 -0.2942 -0.2761 -0.6313
  946MOL0     C30468   1.757   3.994   4.273 -0.6728 -0.3083  1.2300
  946MOL0     O30469   1.650   4.026   4.191 -0.7193  0.3028  0.1992
  946MOL0     C30470   1.559   4.126   4.233  0.2329  0.2514 -0.3421
  946MOL0     C30471   1.420   4.112   4.149 -0.1024 -0.2115 -0.9998
  946MOL0     C30472   1.436   4.141   4.000 -0.7559 -0.5941  0.1989
  946MOL0     C30473   1.546   4.235   3.953 -0.7151 -0.1060  0.3544
  946MOL0     C30474   1.556   4.237   3.805 -0.1002 -0.8220  0.1620
  946MOL0     C30475   1.556   4.239   3.679 -0.6086 -0.8241  0.3051
  946MOL0     C30476   1.851   3.902   4.214 -0.1263  0.4137  0.0547
  946MOL0     C30477   1.972   3.880   4.281  0.0778 -0.4146  0.9288
  946MOL0     C30478   2.060   3.782   4.211 -0.3728  0.0334  0.3452
  946MOL0     H30479   2.419   3.759   4.246 -1.2146  0.4059 -1.0357
  946MOL0     H30480   2.662   3.757   4.259  0.6702  2.2344 -1.1598
  946MOL0     H30481   2.863   4.076   4.515  4.1712 -0.9150  1.4586
  946MOL0     H30482   2.846   4.066   4.337 -1.4293 -3.3176 -1.3474
  946MOL0     H30483   3.076   4.083   4.401  0.3799  0.7947  0.9250
  946MOL0     H30484   3.075   3.930   4.490 -0.4664  0.4524  1.2116
  946MOL0     H30485   3.035   3.799   4.309 -1.6735 -0.1577 -0.8568
  946MOL0     H30486   3.019   3.934   4.195 -1.0091 -0.5742 -0.0392
  946MOL0     H30487   3.289   3.869   4.336  2.6177  0.8272 -2.4538
  946MOL0     H30488   3.228   3.803   4.192  0.0455 -1.4823  2.2955
  946MOL0     H30489   3.237   4.104   4.241  1.9692 -0.2240  0.9469
  946MOL0     H30490   3.231   4.030   4.081 -1.8516 -0.1564 -0.1342
  946MOL0     H30491   3.468   4.013   4.290 -1.1966  1.3814  0.9164
  946MOL0     H30492   3.475   3.940   4.131 -0.3318 -1.1402  1.5080
  946MOL0     H30493   3.448   4.251   4.155 -0.4710  0.2946 -2.7245
  946MOL0     H30494   3.460   4.153   4.013  5.0523  3.7656 -2.5404
  946MOL0     H30495   3.650   4.281   4.083 -1.0358 -0.1249 -1.7137
  946MOL0     H30496   3.662   4.167   4.226  0.4001 -3.6323  0.0820
  946MOL0     H30497   3.687   4.171   3.818 -0.0922  1.1159  0.3365
  946MOL0     H30498   3.793   4.013   3.658  1.9288  2.8007  1.0122
  946MOL0     H30499   3.789   3.846   3.720 -2.3207  0.6048  0.2260
  946MOL0     H30500   4.040   4.013   3.749 -1.8854  0.2796  3.0073
  946MOL0     H30501   4.007   3.847   3.785 -1.1580 -0.3016  0.2969
  946MOL0     H30502   4.114   3.812   3.584 -1.7012  0.2670  1.3846
  946MOL0     H30503   3.947   3.818   3.518 -0.5222  0.4891 -1.2760
  946MOL0     H30504   3.954   4.039   3.463  0.4082  0.1603  0.1890
  946MOL0     H30505   4.122   4.052   3.499  1.0932 -2.2516  1.9041
  946MOL0     H30506   4.296   3.783   3.424  2.7091  0.3198  0.4495
  946MOL0     H30507   4.646   3.806   3.272 -1.2715 -0.9140 -1.5804
  946MOL0     H30508   4.545   3.701   3.366 -1.2412  0.5209 -2.7332
  946MOL0     H30509   4.603   3.847   3.442 -1.8918 -1.3032  1.2552
  946MOL0     H30510   4.660   4.293   2.979  1.6607  0.8439 -0.3585
  946MOL0     H30511   4.899   4.376   2.912  3.3089 -1.9458 -3.0292
  946MOL0     H30512   5.036   4.381   2.695  1.5383  0.2253 -1.9771
  946MOL0     H30513   5.097   4.437   2.852 -2.9809  1.5870 -2.6755
  946MOL0     H30514   5.270   4.485   2.721  2.1218 -0.3953  2.4514
  946MOL0     H30515   5.318   4.333   2.805  0.2216 -0.8227  0.2289
  946MOL0     H30516   5.229   4.343   2.519 -1.3988  1.2944  1.9495
  946MOL0     H30517   5.238   4.192   2.619 -0.2952  0.1575  1.0188
  946MOL0     H30518   5.424   4.200   2.477 -0.8754 -0.5769  0.5162
  946MOL0     H30519   5.461   4.191   2.644 -0.2113  0.9102  0.4774
  946MOL0     H30520   5.469   4.469   2.502 -0.5966  1.2988  1.8870
  946MOL0     H30521   5.513   4.424   2.663 -1.0639 -0.1704  0.8750
  946MOL0     H30522   5.637   4.307   2.408 -0.6239 -0.7281  1.3025
  946MOL0     H30523   5.696   4.277   2.571  0.9535 -1.3109 -2.1137
  946MOL0     H30524   5.709   4.556   2.576  0.2058  1.6132  0.0890
  946MOL0     H30525   5.678   4.535   2.404 -1.1108  1.5202  2.3280
  946MOL0     H30526   5.903   4.450   2.602  3.6404  0.7396  0.0651
  946MOL0     H30527   5.941   4.551   2.467 -2.9849  2.9437 -2.1834
  946MOL0     H30528   5.012   3.992   2.839  3.0550  2.4018  1.6231
  946MOL0     H30529   4.805   3.898   2.922 -4.4247 -0.8399 -0.3397
  946MOL0     H30530   4.356   4.134   3.082  2.9476  0.1721  0.8703
  946MOL0     H30531   4.127   4.076   3.160  1.7614  2.1404 -0.5699
  946MOL0     H30532   2.627   4.024   4.610 -4.7742 -0.4538  1.4139
  946MOL0     H30533   2.401   4.055   4.552 -2.3676 -1.1728 -0.9037
  946MOL0     H30534   1.957   4.126   4.516  4.9806 -1.0260 -0.7694
  946MOL0     H30535   1.730   4.148   4.422 -1.9347 -0.2759 -3.2598
  946MOL0     H30536   1.536   4.128   4.340  0.6970  1.8886 -0.2312
  946MOL0     H30537   1.593   4.226   4.203 -0.9075  0.5459 -0.7086
  946MOL0     H30538   1.348   4.180   4.196 -0.5897 -2.1861  1.3312
  946MOL0     H30539   1.377   4.011   4.158  1.1329 -0.6550  0.1882
  946MOL0     H30540   1.435   4.045   3.946 -1.9924 -1.8899  2.3769
  946MOL0     H30541   1.340   4.185   3.973 -0.4827 -0.2531 -0.2489
  946MOL0     H30542   1.646   4.199   3.981  0.0955  1.6929 -0.0958
  946MOL0     H30543   1.529   4.330   4.003 -1.8752 -0.5489  0.8229
  946MOL0     H30544   1.561   4.246   3.572  0.0699 -1.2121  0.3049
  946MOL0     H30545   1.812   3.849   4.128  0.7633  0.2392 -0.2482
  946MOL0     H30546   2.120   3.733   4.288  1.5795  0.9345 -0.5518
  946MOL0     H30547   1.997   3.710   4.158 -1.3846  1.7768 -0.9366
  946MOL0     H30548   2.119   3.830   4.133  0.0610 -0.3755  0.4169
  947MOL0     O30549   8.824   6.421   9.945 -0.4315  0.1758 -0.1735
  947MOL0     C30550   8.829   6.430   9.826 -0.4306 -0.2648  0.4368
  947MOL0     O30551   8.926   6.406   9.743 -0.3304  0.9775 -0.6344
  947MOL0     C30552   9.045   6.364   9.797  0.0242  0.4288 -0.4069
  947MOL0     C30553   9.069   6.241   9.861 -0.1965 -0.9257 -0.0049
  947MOL0     C30554   9.191   6.204   9.908  0.3061 -0.4992  0.5887
  947MOL0     C30555   9.305   6.284   9.896  0.8966 -0.3419 -0.2252
  947MOL0     O30556   9.418   6.256   9.975  0.0931 -0.4135 -0.2190
  947MOL0     C30557   9.551   6.276   9.930  0.6313 -0.4195 -0.4583
  947MOL0     C30558   9.623   6.366  10.023 -0.4534 -1.2212 -0.4136
  947MOL0     C30559   9.692   6.277  10.126  0.6820 -0.0636 -0.2067
  947MOL0     C30560   9.808   6.197  10.068  0.4268 -0.1265 -0.6954
  947MOL0     C30561   9.901   6.161  10.187 -0.7675  1.2452  0.7138
  947MOL0     C30562  10.016   6.071  10.141 -0.2418  0.2303  0.5419
  947MOL0     C30563  10.129   6.044  10.240 -0.1775 -0.0532 -1.0780
  947MOL0     C30564  10.236   5.947  10.173  0.1368 -0.1974  0.0370
  947MOL0     N30565  10.341   5.934  10.269 -0.5970  0.1206 -0.1576
  947MOL0     C30566  10.331   5.872  10.388  0.2818 -0.0936  0.5194
  947MOL0     C30567  10.456   5.888  10.431 -0.2116  0.6237 -0.3342
  947MOL0     C30568  10.485   5.828  10.574  0.0975 -0.2067  0.1401
  947MOL0     C30569  10.616   5.891  10.630 -0.9940  0.6446 -0.0296
  947MOL0     C30570  10.696   5.792  10.716  0.7845  0.3982  0.6443
  947MOL0     C30571  10.794   5.863  10.799 -0.5284 -0.3065 -1.0054
  947MOL0     O30572  10.893   5.929  10.721 -0.3738 -0.0460 -0.3039
  947MOL0     C30573  11.012   5.862  10.701  0.0232  0.1058 -0.0054
  947MOL0     C30574  11.119   5.931  10.653 -0.7598 -1.2460 -0.6009
  947MOL0     C30575  11.251   5.873  10.636 -0.0418 -0.0395 -0.6946
  947MOL0     C30576  11.364   5.958  10.590 -0.5697 -0.0613 -0.0422
  947MOL0     C30577  11.266   5.731  10.645 -0.3213  0.0952 -0.0670
  947MOL0     C30578  11.394   5.663  10.616 -0.2530 -0.2437 -0.4636
  947MOL0     O30579  11.390   5.524  10.615  0.1277 -0.4858  0.3059
  947MOL0     C30580  11.511   5.456  10.608  0.2563  0.5974 -0.7187
  947MOL0     C30581  11.573   5.400  10.491  0.5527 -0.6873 -0.3041
  947MOL0     C30582  11.701   5.350  10.498  0.6019  0.1880  0.1045
  947MOL0     C30583  11.776   5.367  10.613 -0.4205  0.1117 -0.2276
  947MOL0     O30584  11.901   5.318  10.624 -0.3903  0.5897  0.5569
  947MOL0     C30585  11.914   5.181  10.587 -0.9092 -0.0024 -0.0497
  947MOL0     C30586  12.044   5.123  10.631 -0.8414  0.0361  0.4096
  947MOL0     C30587  12.163   5.169  10.542 -0.2914 -0.0666 -0.4053
  947MOL0     C30588  12.284   5.100  10.581 -0.0547 -0.5795 -0.0406
  947MOL0     C30589  12.337   5.135  10.718 -0.3386 -0.6596 -0.5267
  947MOL0     C30590  12.487   5.142  10.717  0.7154 -0.1313  1.1673
  947MOL0     C30591  12.560   5.011  10.670  0.1524  0.3235 -0.4065
  947MOL0     C30592  12.698   5.023  10.591 -0.1873 -0.0333  1.0229
  947MOL0    Cl30593  12.766   4.865  10.540  0.0564  0.5935  0.2029
  947MOL0     C30594  11.724   5.428  10.721 -0.2393 -0.7136  0.3021
  947MOL0     C30595  11.588   5.468  10.721  0.0117  0.4227  0.1992
  947MOL0     O30596  11.504   5.726  10.599  0.7172 -0.1598 -0.5000
  947MOL0     C30597  11.153   5.658  10.671 -0.7492  0.0541 -1.5061
  947MOL0     C30598  11.031   5.724  10.712 -0.7660  0.5330  0.2762
  947MOL0     N30599  10.534   5.972  10.352 -0.8020  0.4699  0.5808
  947MOL0     N30600  10.463   5.992  10.249 -0.1618  0.2392 -0.3718
  947MOL0     C30601   9.289   6.409   9.829  0.0823 -0.5099 -0.4594
  947MOL0     C30602   9.161   6.444   9.776  0.0375  0.3109 -0.1549
  947MOL0     C30603   8.715   6.478   9.746 -0.3881 -0.2827 -0.4326
  947MOL0     C30604   8.588   6.423   9.776  0.1551 -0.2689  0.9690
  947MOL0     C30605   8.476   6.470   9.702  0.1534 -0.0574 -1.2781
  947MOL0     C30606   8.490   6.567   9.599  0.7864  0.4820  0.4788
  947MOL0     O30607   8.381   6.602   9.530  0.9960  0.1094 -0.4910
  947MOL0     C30608   8.274   6.639   9.620  0.7569  0.2074 -0.1614
  947MOL0     C30609   8.174   6.722   9.542  0.4293 -0.1522 -0.0407
  947MOL0     C30610   8.194   6.872   9.571 -0.5742 -0.1844 -0.7584
  947MOL0     C30611   8.093   6.952   9.484 -0.1420 -0.3923  0.9102
  947MOL0     C30612   8.142   7.086   9.449 -0.3522  0.5699 -0.0861
  947MOL0     C30613   8.165   7.194   9.417  0.0563 -0.4334  0.3814
  947MOL0     C30614   8.614   6.618   9.568 -1.4217 -0.1879 -0.1339
  947MOL0     C30615   8.728   6.574   9.642  1.1224  0.0976  0.0816
  947MOL0     C30616   8.859   6.639   9.598 -0.1786 -0.3024  0.1900
  947MOL0     H30617   8.979   6.179   9.865 -1.6352  0.6546 -3.7894
  947MOL0     H30618   9.204   6.115   9.969 -1.2539 -1.7809 -0.8203
  947MOL0     H30619   9.546   6.337   9.840  0.3748  0.6509  0.2703
  947MOL0     H30620   9.592   6.178   9.903 -0.3787 -0.8753 -0.3768
  947MOL0     H30621   9.700   6.419   9.966 -0.2496 -0.8511  0.1939
  947MOL0     H30622   9.555   6.445  10.056  0.0214 -1.0816  0.2344
  947MOL0     H30623   9.721   6.326  10.220 -0.5528  0.5573 -0.1314
  947MOL0     H30624   9.610   6.213  10.161 -0.4664  1.4846  0.0213
  947MOL0     H30625   9.768   6.117  10.006  3.2231  0.2265 -3.1801
  947MOL0     H30626   9.860   6.261   9.996  1.2977 -1.5811 -1.4037
  947MOL0     H30627   9.842   6.109  10.263 -1.2171 -1.1155 -1.1296
  947MOL0     H30628   9.935   6.258  10.224 -2.3764  1.4448  1.7924
  947MOL0     H30629   9.973   5.972  10.123 -0.2108 -0.0803  2.0314
  947MOL0     H30630  10.063   6.100  10.047 -0.0779 -2.8092 -0.4340
  947MOL0     H30631  10.077   5.996  10.324 -0.7357  1.7408 -0.3530
  947MOL0     H30632  10.166   6.144  10.263 -0.2757 -0.0376 -0.9866
  947MOL0     H30633  10.184   5.852  10.157 -2.2808  1.5230 -3.6533
  947MOL0     H30634  10.271   5.998  10.083  0.6174  1.2979  1.0132
  947MOL0     H30635  10.250   5.819  10.437 -0.1489 -1.3085 -1.4098
  947MOL0     H30636  10.501   5.722  10.553 -0.3051  0.0084 -1.3276
  947MOL0     H30637  10.413   5.840  10.656  0.6178 -1.2626  0.7806
  947MOL0     H30638  10.687   5.912  10.549 -2.0194 -0.5054 -1.2715
  947MOL0     H30639  10.587   5.985  10.678 -3.8108  0.1289 -0.5724
  947MOL0     H30640  10.642   5.730  10.789 -0.8742  0.4705 -0.4673
  947MOL0     H30641  10.738   5.721  10.643 -1.7047  0.2477 -0.7477
  947MOL0     H30642  10.743   5.943  10.851  3.3335  3.6236 -2.6424
  947MOL0     H30643  10.833   5.802  10.881 -1.6058  1.1191  0.6306
  947MOL0     H30644  11.094   6.035  10.669 -0.5850 -1.2942  0.0140
  947MOL0     H30645  11.438   5.976  10.668  3.4538  0.0550 -3.5137
  947MOL0     H30646  11.321   6.054  10.560 -0.5935  0.6929  2.1749
  947MOL0     H30647  11.429   5.927  10.507  0.3267  2.3302 -0.2986
  947MOL0     H30648  11.534   5.400  10.390  1.4279  1.0846 -0.6979
  947MOL0     H30649  11.745   5.298  10.413 -2.2987 -1.4625 -0.5005
  947MOL0     H30650  11.837   5.133  10.649  0.4745  0.9206  2.5685
  947MOL0     H30651  11.898   5.164  10.480  2.4673 -0.3563 -0.5832
  947MOL0     H30652  12.053   5.158  10.734 -0.7500  0.8779  0.1255
  947MOL0     H30653  12.037   5.014  10.634  5.8490 -0.7784  1.1992
  947MOL0     H30654  12.169   5.278  10.554 -1.0267 -0.0943  0.3184
  947MOL0     H30655  12.155   5.130  10.440 -0.4475 -1.0246 -0.0387
  947MOL0     H30656  12.362   5.129  10.510  1.3997 -0.1783  1.6559
  947MOL0     H30657  12.261   4.993  10.575 -1.1327 -0.4261  0.9113
  947MOL0     H30658  12.306   5.231  10.760 -0.5536 -0.5813 -0.8550
  947MOL0     H30659  12.306   5.056  10.787  1.0847 -0.5561  0.2741
  947MOL0     H30660  12.529   5.159  10.817  2.4043  0.4555  0.3938
  947MOL0     H30661  12.525   5.223  10.655  1.4718  0.0297  1.8274
  947MOL0     H30662  12.493   4.947  10.613  0.3610  0.7076 -1.0940
  947MOL0     H30663  12.593   4.952  10.757 -0.6138 -1.0402 -1.0079
  947MOL0     H30664  12.776   5.069  10.653  1.4921  1.4234 -1.9280
  947MOL0     H30665  12.672   5.082  10.503 -0.6281 -4.3644 -2.0297
  947MOL0     H30666  11.786   5.448  10.808 -2.0136  0.3684  1.3916
  947MOL0     H30667  11.542   5.518  10.806 -2.3348 -2.3480  0.7231
  947MOL0     H30668  11.152   5.551  10.685 -2.1862 -0.2535 -3.5225
  947MOL0     H30669  10.944   5.659  10.721  2.0930 -3.7511  0.3932
  947MOL0     H30670   9.361   6.490   9.832  0.3639 -0.7964  1.7668
  947MOL0     H30671   9.155   6.533   9.715 -1.6580  0.5432  0.3106
  947MOL0     H30672   8.570   6.353   9.857  0.4042 -1.1882  0.2399
  947MOL0     H30673   8.379   6.426   9.723  0.6442 -1.7217 -2.3433
  947MOL0     H30674   8.222   6.549   9.656  1.0562 -0.3947 -1.1961
  947MOL0     H30675   8.308   6.699   9.705  0.4405  1.4928 -0.9217
  947MOL0     H30676   8.074   6.684   9.566  1.0527 -0.1137  3.0678
  947MOL0     H30677   8.181   6.698   9.436 -1.4634 -0.5954 -0.1086
  947MOL0     H30678   8.188   6.893   9.678  0.0277  1.2250 -0.9740
  947MOL0     H30679   8.297   6.897   9.542 -0.3435  0.1852  0.3318
  947MOL0     H30680   7.990   6.957   9.521 -1.4959  0.1310 -2.5447
  947MOL0     H30681   8.090   6.903   9.387  0.4104  1.8895 -0.3440
  947MOL0     H30682   8.183   7.294   9.383 -2.4955  0.6131  1.8320
  947MOL0     H30683   8.630   6.702   9.501 -0.5676  1.8116  2.3869
  947MOL0     H30684   8.838   6.722   9.531  0.4338 -3.1372 -3.8673
  947MOL0     H30685   8.914   6.678   9.684  0.8602  0.3038 -0.7354
  947MOL0     H30686   8.924   6.569   9.545  0.2493 -0.8225  1.3519
  948MOL0     O30687  10.779   2.315   4.355  0.8069 -0.6775  0.3397
  948MOL0     C30688  10.711   2.225   4.304  0.2479  0.7901 -0.1222
  948MOL0     O30689  10.767   2.122   4.224  0.1361  0.3948 -0.4256
  948MOL0     C30690  10.901   2.102   4.221  0.1086 -0.6451 -0.1237
  948MOL0     C30691  10.936   1.964   4.202  0.4240  0.0426  0.2145
  948MOL0     C30692  11.071   1.934   4.191 -1.1885  0.2105  0.4253
  948MOL0     C30693  11.173   2.028   4.195 -0.2428  0.1021 -0.3887
  948MOL0     O30694  11.308   2.009   4.198  0.0886  0.7518 -0.6951
  948MOL0     C30695  11.347   1.869   4.208 -0.6287  0.2543  0.3378
  948MOL0     C30696  11.498   1.860   4.222 -0.5831 -0.4012  0.3100
  948MOL0     C30697  11.573   1.862   4.088  1.4313  0.9635 -0.3586
  948MOL0     C30698  11.715   1.812   4.106  0.7232  0.2678 -0.9568
  948MOL0     C30699  11.798   1.846   3.980  0.1481  0.6055 -0.5011
  948MOL0     C30700  11.942   1.776   3.970 -0.6535  0.8342 -0.6530
  948MOL0     C30701  12.021   1.803   3.849 -0.0744  0.0371 -0.4830
  948MOL0     C30702  12.157   1.729   3.857  0.0157  0.1112  0.4253
  948MOL0     N30703  12.247   1.767   3.744  0.5223 -1.0913 -1.1980
  948MOL0     C30704  12.342   1.863   3.751 -0.7553  0.6083 -0.0953
  948MOL0     C30705  12.422   1.834   3.645  0.3003  0.3296  0.1222
  948MOL0     C30706  12.533   1.924   3.603 -0.6810  0.2324 -0.5054
  948MOL0     C30707  12.491   2.027   3.502  1.3822  0.4316 -0.1132
  948MOL0     C30708  12.440   1.966   3.365 -0.6227 -0.3137 -0.4647
  948MOL0     C30709  12.554   1.884   3.290  0.7659  0.8243  0.0132
  948MOL0     O30710  12.661   1.965   3.248  0.0901  0.1951  0.0698
  948MOL0     C30711  12.772   1.920   3.179 -0.1193 -0.2894  0.2926
  948MOL0     C30712  12.796   1.794   3.123  1.1480 -0.0787  0.3913
  948MOL0     C30713  12.916   1.752   3.054  0.4166 -0.7402  0.1460
  948MOL0     C30714  12.928   1.619   3.003 -0.1336  0.2623  0.4459
  948MOL0     C30715  13.020   1.845   3.052 -0.8475 -0.1733 -0.1312
  948MOL0     C30716  13.156   1.827   2.990  0.1882  0.0364  0.1630
  948MOL0     O30717  13.252   1.897   3.045 -0.4129  0.3129 -0.0606
  948MOL0     C30718  13.378   1.869   2.997  0.4855 -0.3473  0.2134
  948MOL0     C30719  13.423   1.931   2.877 -0.5811 -0.4354 -0.0516
  948MOL0     C30720  13.553   1.903   2.829 -0.2864 -0.0255 -0.5580
  948MOL0     C30721  13.644   1.830   2.905  0.4647  0.0909  0.1775
  948MOL0     O30722  13.776   1.795   2.872 -0.2500 -0.3730  1.0456
  948MOL0     C30723  13.833   1.860   2.760 -0.6834 -0.2172 -0.4886
  948MOL0     C30724  13.983   1.847   2.779  0.1986  0.1098 -0.5636
  948MOL0     C30725  14.042   1.706   2.795 -0.3286  0.2665  0.0998
  948MOL0     C30726  14.011   1.606   2.676  0.4626  0.8668 -0.1652
  948MOL0     C30727  14.127   1.499   2.675  0.5463 -0.2983  0.9592
  948MOL0     C30728  14.123   1.393   2.560 -0.0962  0.2809  0.4768
  948MOL0     C30729  14.236   1.300   2.575  0.1248  0.6782  0.5947
  948MOL0     C30730  14.224   1.204   2.455 -0.5156 -0.2146  0.4031
  948MOL0    Cl30731  14.379   1.118   2.446  0.4128 -0.5160  0.1139
  948MOL0     C30732  13.596   1.775   3.022 -0.0566  0.0719  0.2544
  948MOL0     C30733  13.458   1.786   3.067 -0.3844  0.1429 -0.4161
  948MOL0     O30734  13.170   1.764   2.882  0.1428  0.6456 -0.2027
  948MOL0     C30735  12.996   1.970   3.116  0.1180 -0.3633 -1.0282
  948MOL0     C30736  12.882   2.009   3.178  0.7373 -0.1489  0.1781
  948MOL0     N30737  12.367   1.728   3.571 -0.0550  0.9399  0.0617
  948MOL0     N30738  12.268   1.689   3.634  0.3189  0.3478  0.0745
  948MOL0     C30739  11.128   2.165   4.197 -0.5085  0.0610  0.0697
  948MOL0     C30740  10.994   2.201   4.216  0.3621  1.2399  0.1427
  948MOL0     C30741  10.563   2.240   4.300  0.7441  0.3148 -0.8513
  948MOL0     C30742  10.489   2.161   4.212  0.2607 -0.1731  0.8422
  948MOL0     C30743  10.353   2.175   4.210  0.1244  0.9337 -0.2691
  948MOL0     C30744  10.291   2.251   4.301  0.0637  0.3723 -0.1616
  948MOL0     O30745  10.157   2.255   4.297  0.1407 -0.5198 -0.4238
  948MOL0     C30746  10.116   2.370   4.225  0.1050 -0.0786  0.3104
  948MOL0     C30747   9.983   2.408   4.304 -0.0826 -0.4698  0.2846
  948MOL0     C30748   9.915   2.533   4.244  0.3081 -0.8173 -0.3628
  948MOL0     C30749   9.770   2.548   4.302 -0.4373  0.3842 -0.5683
  948MOL0     C30750   9.686   2.464   4.219 -0.2441 -0.5084  0.2854
  948MOL0     C30751   9.610   2.404   4.145  1.1769  0.1755  0.9378
  948MOL0     C30752  10.354   2.319   4.398 -0.2061  0.6597 -0.5295
  948MOL0     C30753  10.490   2.328   4.392  0.1880 -0.0458 -0.6135
  948MOL0     C30754  10.548   2.408   4.505 -0.3799 -0.1760  0.3794
  948MOL0     H30755  10.864   1.883   4.202  1.4556 -0.9053 -0.7544
  948MOL0     H30756  11.096   1.829   4.199 -1.0907  0.3500  2.3783
  948MOL0     H30757  11.308   1.797   4.135 -0.4140 -1.3275  1.7057
  948MOL0     H30758  11.305   1.833   4.303 -0.2366 -1.4924 -0.1139
  948MOL0     H30759  11.538   1.938   4.288  0.1357  0.5844 -1.2528
  948MOL0     H30760  11.515   1.760   4.265  1.4582  0.5627  1.9499
  948MOL0     H30761  11.520   1.788   4.027 -0.6507  1.1820  1.0611
  948MOL0     H30762  11.566   1.962   4.047 -2.9902  1.2048  0.5344
  948MOL0     H30763  11.767   1.860   4.189 -0.8974 -1.8212  1.3915
  948MOL0     H30764  11.712   1.709   4.142  1.0305  0.7833  0.6319
  948MOL0     H30765  11.813   1.954   3.975  1.3085  0.4704 -0.2105
  948MOL0     H30766  11.746   1.805   3.893 -4.2895 -2.4902  3.1471
  948MOL0     H30767  12.004   1.792   4.059  1.3868 -2.7206 -1.2445
  948MOL0     H30768  11.919   1.670   3.984  1.6423  0.7413  4.4620
  948MOL0     H30769  12.040   1.911   3.855  4.2182 -0.6019  2.3360
  948MOL0     H30770  11.978   1.788   3.750 -0.6418 -0.5971 -0.1450
  948MOL0     H30771  12.217   1.750   3.946  1.2940 -2.1514  0.1801
  948MOL0     H30772  12.133   1.623   3.874  0.9781  0.3378  4.0563
  948MOL0     H30773  12.354   1.949   3.816 -0.6464  1.8361 -1.6801
  948MOL0     H30774  12.626   1.872   3.576  1.0340  2.9861 -0.2494
  948MOL0     H30775  12.563   1.988   3.687 -0.4375 -1.1234  0.4866
  948MOL0     H30776  12.403   2.077   3.543  1.5057 -0.5435  1.4379
  948MOL0     H30777  12.580   2.090   3.488  2.5679 -0.8769  1.1468
  948MOL0     H30778  12.346   1.912   3.363 -1.5024  1.1657 -1.0520
  948MOL0     H30779  12.436   2.053   3.299  0.1101 -0.0975 -0.2383
  948MOL0     H30780  12.594   1.807   3.356 -1.2387  1.8252  2.5826
  948MOL0     H30781  12.512   1.832   3.204  1.9213 -0.7381  0.3462
  948MOL0     H30782  12.710   1.728   3.127  1.6276 -0.7118  0.4849
  948MOL0     H30783  12.841   1.554   3.018 -1.3665  0.5992 -3.7965
  948MOL0     H30784  13.020   1.573   3.041  0.9801  2.3741  0.4163
  948MOL0     H30785  12.955   1.613   2.897  1.7699 -2.2902  0.9668
  948MOL0     H30786  13.350   1.985   2.818 -1.0904  1.1991  1.9851
  948MOL0     H30787  13.587   1.946   2.736 -2.0368  2.8675  0.0141
  948MOL0     H30788  13.800   1.808   2.669 -0.2890 -0.4476 -0.5017
  948MOL0     H30789  13.792   1.961   2.754 -1.3120 -0.1655  2.6181
  948MOL0     H30790  14.035   1.889   2.692  2.6550 -0.3725  0.5930
  948MOL0     H30791  14.009   1.913   2.863 -0.5993  0.0682 -0.2736
  948MOL0     H30792  13.996   1.662   2.884  0.2034 -4.4321 -1.6716
  948MOL0     H30793  14.150   1.706   2.810 -0.1623 -1.8754 -0.7915
  948MOL0     H30794  14.010   1.674   2.590  0.7086  0.4033 -0.5419
  948MOL0     H30795  13.910   1.564   2.677  0.7052  0.2397  1.4846
  948MOL0     H30796  14.223   1.552   2.681  0.5597 -0.3031  0.7816
  948MOL0     H30797  14.118   1.437   2.764  1.2293 -0.0348  1.2204
  948MOL0     H30798  14.124   1.453   2.469 -0.7420  1.1217  1.0181
  948MOL0     H30799  14.032   1.334   2.571  0.4165 -0.5761  0.2400
  948MOL0     H30800  14.220   1.250   2.671 -3.3456 -0.1890 -0.3051
  948MOL0     H30801  14.331   1.351   2.598  1.5682 -1.0964 -1.0889
  948MOL0     H30802  14.228   1.266   2.365 -2.5435  0.6499  0.8532
  948MOL0     H30803  14.140   1.133   2.451  0.4471 -1.4088  0.7055
  948MOL0     H30804  13.670   1.726   3.084  1.8919 -1.0814 -2.7735
  948MOL0     H30805  13.438   1.747   3.166  1.8613  0.3164  0.1570
  948MOL0     H30806  13.079   2.040   3.126 -0.8915  0.5825  1.6017
  948MOL0     H30807  12.886   2.107   3.223  0.0579  0.4201 -0.9666
  948MOL0     H30808  11.197   2.248   4.192  0.0107 -0.3754 -0.1145
  948MOL0     H30809  10.968   2.307   4.219 -1.7384  0.8007 -0.6738
  948MOL0     H30810  10.545   2.107   4.136 -1.0077 -2.2180  1.2716
  948MOL0     H30811  10.290   2.125   4.137 -0.8586  1.8758 -0.0945
  948MOL0     H30812  10.184   2.453   4.210 -1.6393  1.3924  0.1521
  948MOL0     H30813  10.091   2.333   4.125  0.3272  0.9174 -0.1240
  948MOL0     H30814  10.007   2.430   4.409 -1.3558 -2.1719  0.9848
  948MOL0     H30815   9.910   2.326   4.309 -0.9978  0.3780  1.6257
  948MOL0     H30816   9.970   2.618   4.285 -3.1138  1.8948 -0.9688
  948MOL0     H30817   9.914   2.545   4.136  1.3184  1.9261 -0.1369
  948MOL0     H30818   9.717   2.644   4.291 -3.8089 -1.4882 -2.2397
  948MOL0     H30819   9.762   2.515   4.405 -2.5211  0.4445 -0.6587
  948MOL0     H30820   9.534   2.345   4.099 -0.4016  0.8553  2.5440
  948MOL0     H30821  10.299   2.367   4.477  0.2548  1.9763 -0.9760
  948MOL0     H30822  10.469   2.478   4.533 -4.3147 -4.2138  0.4171
  948MOL0     H30823  10.573   2.347   4.592  2.1854  0.4889  0.1874
  948MOL0     H30824  10.638   2.461   4.473  0.3976 -1.3542  0.5638
  949MOL0     O30825   2.228   9.672   6.612  0.3650  0.1849 -0.3847
  949MOL0     C30826   2.195   9.558   6.606  0.4971  0.2188  0.8424
  949MOL0     O30827   2.257   9.462   6.535  0.4731  0.1473  0.3738
  949MOL0     C30828   2.372   9.475   6.458 -0.0814 -0.3394  0.4372
  949MOL0     C30829   2.386   9.390   6.349  0.0491 -0.5938  0.3320
  949MOL0     C30830   2.502   9.387   6.268 -0.1612  0.4921 -0.4862
  949MOL0     C30831   2.603   9.477   6.296 -0.2425 -0.3125  0.2461
  949MOL0     O30832   2.720   9.467   6.215  0.0830  0.5076  0.3360
  949MOL0     C30833   2.830   9.561   6.235 -0.2455 -0.3227 -0.5415
  949MOL0     C30834   2.952   9.557   6.143  0.2643 -0.3881  0.8066
  949MOL0     C30835   3.028   9.422   6.144 -0.4746  1.5035 -0.1454
  949MOL0     C30836   3.171   9.447   6.084  0.9115 -0.2419  0.1822
  949MOL0     C30837   3.251   9.326   6.048  0.0725 -0.2611  0.4008
  949MOL0     C30838   3.281   9.233   6.164 -0.6318  0.0600 -0.4240
  949MOL0     C30839   3.373   9.285   6.281  0.5000  0.3239  0.2932
  949MOL0     C30840   3.481   9.192   6.327  1.0248  0.0958 -0.1659
  949MOL0     N30841   3.595   9.197   6.241  0.2072 -0.6018  0.1240
  949MOL0     C30842   3.593   9.135   6.116 -0.6384 -0.1262  0.4378
  949MOL0     C30843   3.714   9.169   6.054  0.1990 -0.7777 -0.1670
  949MOL0     C30844   3.768   9.127   5.914  0.6050  0.2237  0.3419
  949MOL0     C30845   3.851   9.233   5.843 -0.0627  0.2723  0.0270
  949MOL0     C30846   3.900   9.181   5.704 -0.4990  0.1482  0.2418
  949MOL0     C30847   3.995   9.273   5.624  0.1422 -0.8786  0.6247
  949MOL0     O30848   4.132   9.274   5.677  0.2053 -0.0957 -0.6252
  949MOL0     C30849   4.177   9.375   5.758 -0.9910  0.5852  0.0338
  949MOL0     C30850   4.108   9.475   5.820  0.0372 -0.3061 -0.0501
  949MOL0     C30851   4.162   9.569   5.913  0.5317  0.2594 -0.2695
  949MOL0     C30852   4.057   9.663   5.974 -0.2577 -0.4231 -1.0484
  949MOL0     C30853   4.299   9.566   5.936 -1.0693 -0.3901 -0.0542
  949MOL0     C30854   4.369   9.670   6.014  0.2110  0.6098  1.0633
  949MOL0     O30855   4.500   9.667   5.991 -0.0478 -0.1346 -0.6413
  949MOL0     C30856   4.587   9.777   6.006 -0.0554  0.0572 -0.4283
  949MOL0     C30857   4.683   9.789   6.105 -0.5581  0.2653 -0.6134
  949MOL0     C30858   4.750   9.914   6.115  0.2923  0.1331  0.3754
  949MOL0     C30859   4.723  10.027   6.036  0.1731  0.1164 -0.1642
  949MOL0     O30860   4.810  10.129   6.040  0.2853  0.6756  0.4879
  949MOL0     C30861   4.777  10.252   5.970 -0.2066 -0.0885 -0.5124
  949MOL0     C30862   4.853  10.241   5.844  0.2314  0.7083  0.1742
  949MOL0     C30863   5.005  10.264   5.861  1.0897 -0.6993  0.0510
  949MOL0     C30864   5.046  10.413   5.860 -1.4396  0.6578  0.4237
  949MOL0     C30865   5.182  10.447   5.910 -0.0855 -0.0555  1.2927
  949MOL0     C30866   5.295  10.436   5.812  0.3832  0.0948 -0.1957
  949MOL0     C30867   5.427  10.479   5.880 -0.7649 -0.3218  0.0257
  949MOL0     C30868   5.555  10.499   5.789 -0.0353 -0.1706 -0.1173
  949MOL0    Cl30869   5.517  10.618   5.654  0.0022  0.3640  0.1910
  949MOL0     C30870   4.619  10.011   5.953 -1.4794 -0.5857  0.6081
  949MOL0     C30871   4.558   9.891   5.927 -0.0909  0.7413 -0.1694
  949MOL0     O30872   4.311   9.748   6.081  0.7199  0.5215  0.2966
  949MOL0     C30873   4.371   9.467   5.875 -0.1018  0.0063  0.5993
  949MOL0     C30874   4.312   9.368   5.789  0.4659 -1.0440  0.3209
  949MOL0     N30875   3.776   9.263   6.139 -0.3575  0.4736  0.1164
  949MOL0     N30876   3.697   9.287   6.239  0.1695 -0.0103 -0.4496
  949MOL0     C30877   2.581   9.570   6.401  0.7814 -0.1418  0.1965
  949MOL0     C30878   2.470   9.571   6.486 -0.1974 -0.1098  0.1427
  949MOL0     C30879   2.085   9.505   6.685 -0.0491 -0.6210  0.6241
  949MOL0     C30880   1.958   9.512   6.632 -0.1567  0.1645 -0.2331
  949MOL0     C30881   1.844   9.490   6.708  1.0920 -0.1665  0.5805
  949MOL0     C30882   1.869   9.450   6.841  0.7978  0.2840  0.5757
  949MOL0     O30883   1.753   9.429   6.911  0.0774 -0.2344 -0.1331
  949MOL0     C30884   1.768   9.394   7.050 -0.4814  0.0013  0.1829
  949MOL0     C30885   1.629   9.391   7.098 -0.4573  0.3381 -0.1459
  949MOL0     C30886   1.614   9.312   7.233 -0.2772 -0.3666  0.1604
  949MOL0     C30887   1.466   9.299   7.268 -0.2284  0.3927  0.1504
  949MOL0     C30888   1.383   9.223   7.172  0.5092  0.0009  0.0273
  949MOL0     C30889   1.304   9.168   7.096 -0.4898 -0.3925 -0.2571
  949MOL0     C30890   1.997   9.430   6.895  0.4222 -0.0630  0.3167
  949MOL0     C30891   2.110   9.460   6.813  0.8032 -0.6029 -0.3269
  949MOL0     C30892   2.245   9.450   6.866 -0.2644 -0.2667 -1.0088
  949MOL0     H30893   2.303   9.322   6.335 -0.7746  0.5854 -0.5967
  949MOL0     H30894   2.520   9.317   6.187  1.0625  0.3687 -0.1203
  949MOL0     H30895   2.862   9.571   6.339 -0.0141  1.1065 -0.7257
  949MOL0     H30896   2.797   9.662   6.207  3.5677  1.2518  0.0519
  949MOL0     H30897   2.925   9.578   6.039 -2.3652  0.7231  1.6395
  949MOL0     H30898   3.025   9.629   6.181  0.6907  0.0530 -0.7867
  949MOL0     H30899   3.039   9.388   6.247  1.9489  0.4392 -0.6861
  949MOL0     H30900   2.973   9.344   6.091 -0.5809  0.4219  1.4975
  949MOL0     H30901   3.148   9.507   5.996  1.3576 -1.0361 -0.4895
  949MOL0     H30902   3.221   9.505   6.162 -1.0172  1.8129  0.0011
  949MOL0     H30903   3.344   9.359   6.000 -0.3087 -0.3917 -0.4444
  949MOL0     H30904   3.193   9.272   5.972  0.3317  1.0904 -0.8033
  949MOL0     H30905   3.184   9.210   6.210  0.1136  0.9402  1.7152
  949MOL0     H30906   3.320   9.135   6.134 -2.7535 -1.0144  0.1030
  949MOL0     H30907   3.306   9.300   6.365 -0.1175 -1.5918  0.1805
  949MOL0     H30908   3.413   9.384   6.254  1.4924 -0.9063 -3.2908
  949MOL0     H30909   3.521   9.193   6.429  3.0737  0.6618 -0.9218
  949MOL0     H30910   3.426   9.099   6.311 -3.1625  1.7997  2.4685
  949MOL0     H30911   3.522   9.061   6.081  1.9896 -1.9385 -1.4883
  949MOL0     H30912   3.685   9.094   5.851  1.6053  0.4564 -1.1564
  949MOL0     H30913   3.828   9.035   5.924  1.3608  0.8390  1.8340
  949MOL0     H30914   3.787   9.321   5.829  0.0614  0.7950  2.2485
  949MOL0     H30915   3.933   9.255   5.913  0.2378 -1.7904  0.3777
  949MOL0     H30916   3.946   9.083   5.719 -1.5175 -0.3520  0.1872
  949MOL0     H30917   3.815   9.155   5.640 -0.2948 -0.6946  0.3106
  949MOL0     H30918   4.001   9.220   5.529 -5.7385  0.1981 -0.7428
  949MOL0     H30919   3.953   9.372   5.604  0.6327 -0.6879  0.5204
  949MOL0     H30920   4.004   9.474   5.786  0.2115  1.3541 -0.7040
  949MOL0     H30921   4.059   9.767   5.940  3.7812  0.6957  1.8969
  949MOL0     H30922   4.072   9.659   6.082  0.0688 -1.7259 -1.1331
  949MOL0     H30923   3.956   9.626   5.953 -2.3162  4.4391 -1.1146
  949MOL0     H30924   4.700   9.710   6.178  0.9631  0.1933 -1.0284
  949MOL0     H30925   4.817   9.928   6.199 -1.0013  1.6367  1.2026
  949MOL0     H30926   4.670  10.274   5.974  0.0101  0.8372  1.0608
  949MOL0     H30927   4.810  10.335   6.034 -1.0649  0.9837 -1.4224
  949MOL0     H30928   4.839  10.148   5.789  1.8288  1.0492 -0.8731
  949MOL0     H30929   4.819  10.326   5.783  1.4354  2.2428  1.5399
  949MOL0     H30930   5.062  10.215   5.782  1.3719  0.3282 -0.3948
  949MOL0     H30931   5.043  10.222   5.955  1.6794  0.5478  0.3930
  949MOL0     H30932   4.974  10.463   5.926 -0.6230  4.0406 -1.0580
  949MOL0     H30933   5.045  10.454   5.759  1.0758  2.2057  0.9607
  949MOL0     H30934   5.174  10.554   5.932 -2.5115  0.8618 -2.9367
  949MOL0     H30935   5.194  10.382   5.997 -0.8114 -0.3954  1.1431
  949MOL0     H30936   5.267  10.487   5.719 -2.1898  1.1781  1.0720
  949MOL0     H30937   5.299  10.331   5.784 -0.1020  0.1101 -0.3355
  949MOL0     H30938   5.461  10.408   5.955 -1.1591 -1.1447 -0.5605
  949MOL0     H30939   5.413  10.578   5.926  5.2512  1.2226 -0.5706
  949MOL0     H30940   5.583  10.400   5.753  0.8152 -1.0962  2.8460
  949MOL0     H30941   5.638  10.544   5.844  0.6503 -1.4148 -0.1119
  949MOL0     H30942   4.596  10.098   5.893  2.8234  0.8660  0.6993
  949MOL0     H30943   4.478   9.897   5.855  0.3510  3.4897 -0.5669
  949MOL0     H30944   4.475   9.438   5.889  0.2001 -0.0681 -1.4938
  949MOL0     H30945   4.358   9.291   5.728  0.0800 -1.4390  0.5252
  949MOL0     H30946   2.655   9.648   6.416 -0.0992  0.3101  2.8012
  949MOL0     H30947   2.461   9.637   6.571  1.2938  2.3594 -1.4899
  949MOL0     H30948   1.950   9.540   6.527  0.9834 -2.0989 -0.9956
  949MOL0     H30949   1.741   9.504   6.677  0.1816  1.6803  3.8998
  949MOL0     H30950   1.821   9.299   7.059  0.7698  0.7139  0.7553
  949MOL0     H30951   1.817   9.472   7.110 -2.2923  1.5753 -0.2862
  949MOL0     H30952   1.572   9.347   7.016  2.0881 -0.0098 -1.8482
  949MOL0     H30953   1.591   9.494   7.107 -1.8450  0.0004 -1.6182
  949MOL0     H30954   1.662   9.215   7.216  1.0629  0.5357 -1.5498
  949MOL0     H30955   1.659   9.362   7.319 -0.7463 -3.4053  2.3266
  949MOL0     H30956   1.417   9.394   7.288 -2.4610 -0.3231 -1.5055
  949MOL0     H30957   1.473   9.235   7.357  3.1598  1.8668  1.1099
  949MOL0     H30958   1.228   9.136   7.027 -0.9336  0.3244 -0.1145
  949MOL0     H30959   2.024   9.416   6.999 -0.1631  0.0344  0.4798
  949MOL0     H30960   2.290   9.549   6.879  0.9707 -0.7023 -1.7913
  949MOL0     H30961   2.241   9.402   6.965  0.9882 -1.0919 -1.3337
  949MOL0     H30962   2.301   9.377   6.808 -0.0876 -2.2849  1.5142
  950MOL0     O30963   1.383   0.552   9.496  0.9181  0.0290 -1.0393
  950MOL0     C30964   1.344   0.452   9.437 -0.7569  0.0471 -0.3707
  950MOL0     O30965   1.409   0.392   9.335  0.8526  0.0272 -0.2948
  950MOL0     C30966   1.547   0.408   9.321 -0.1060  0.9835  1.6087
  950MOL0     C30967   1.604   0.530   9.301 -0.0794  0.5022 -0.2285
  950MOL0     C30968   1.739   0.549   9.286 -0.9861  0.1979  0.8715
  950MOL0     C30969   1.834   0.444   9.286  0.5062 -0.6170 -0.1261
  950MOL0     O30970   1.970   0.458   9.281  0.4387  0.1868 -0.8030
  950MOL0     C30971   2.027   0.526   9.164 -0.4530 -0.6972  0.6168
  950MOL0     C30972   2.167   0.573   9.193 -0.2263 -0.0951  0.0287
  950MOL0     C30973   2.260   0.455   9.175 -0.4628 -0.0561  0.1999
  950MOL0     C30974   2.289   0.453   9.023 -0.4757  0.4427  0.4844
  950MOL0     C30975   2.266   0.312   8.973 -0.4686  0.1771 -0.0495
  950MOL0     C30976   2.355   0.195   9.038  0.1585 -0.4826  0.9807
  950MOL0     C30977   2.506   0.189   8.991 -0.3991  0.6761  0.8728
  950MOL0     C30978   2.515   0.182   8.839 -0.7273  0.0662  0.5919
  950MOL0     N30979   2.660   0.168   8.802 -0.6841 -0.6625 -0.1147
  950MOL0     C30980   2.751   0.266   8.792 -0.4978  0.2475 -0.8071
  950MOL0     C30981   2.867   0.201   8.775 -0.2761 -0.9197 -0.0293
  950MOL0     C30982   3.010   0.265   8.781  0.8133 -0.2041 -0.1427
  950MOL0     C30983   3.104   0.239   8.657 -0.1593  0.3817 -0.5169
  950MOL0     C30984   3.059   0.317   8.540  0.3308 -1.0650 -0.4110
  950MOL0     C30985   3.140   0.285   8.413 -0.0120 -0.4914  1.1440
  950MOL0     O30986   3.157   0.141   8.398 -0.3723  0.0997 -0.1287
  950MOL0     C30987   3.271   0.082   8.435 -0.8182 -0.1077 -0.6046
  950MOL0     C30988   3.285  -0.046   8.389 -0.2233 -0.6391  0.0796
  950MOL0     C30989   3.399  -0.128   8.409 -0.3268  0.3765  0.5917
  950MOL0     C30990   3.406  -0.267   8.350  0.4970  0.2682  0.2812
  950MOL0     C30991   3.503  -0.069   8.489  0.2873 -0.0423  0.4027
  950MOL0     C30992   3.626  -0.145   8.521 -0.5768  0.0594 -0.4822
  950MOL0     O30993   3.739  -0.069   8.540  0.4831  0.1686 -0.3268
  950MOL0     C30994   3.858  -0.138   8.554  0.2214  0.0325 -0.3472
  950MOL0     C30995   3.881  -0.212   8.667  0.0806  0.2992  0.0669
  950MOL0     C30996   4.000  -0.286   8.674  0.3276  0.8297 -0.0568
  950MOL0     C30997   4.096  -0.290   8.579 -0.5317 -0.2097 -0.3460
  950MOL0     O30998   4.212  -0.374   8.578 -0.0639 -0.8017 -0.2599
  950MOL0     C30999   4.214  -0.503   8.652 -0.0743  0.5998  0.4677
  950MOL0     C31000   4.320  -0.605   8.607  0.4701 -0.1453 -0.0764
  950MOL0     C31001   4.463  -0.547   8.636  0.3944 -0.1403  0.3125
  950MOL0     C31002   4.553  -0.611   8.532 -0.0225  0.3962  0.0200
  950MOL0     C31003   4.694  -0.553   8.528 -0.0505 -0.3829 -0.5550
  950MOL0     C31004   4.765  -0.625   8.419 -0.5523 -0.5874  0.5596
  950MOL0     C31005   4.914  -0.586   8.421 -0.1023 -0.0030  1.0401
  950MOL0     C31006   4.982  -0.627   8.288 -0.6759  0.3532 -0.2850
  950MOL0    Cl31007   4.930  -0.545   8.142  0.2030  0.1605  0.2762
  950MOL0     C31008   4.067  -0.230   8.458  0.0855 -0.0266  0.2005
  950MOL0     C31009   3.949  -0.146   8.451 -0.3833  0.6179 -0.3542
  950MOL0     O31010   3.619  -0.264   8.548 -0.4788 -0.9365  0.6002
  950MOL0     C31011   3.492   0.065   8.531 -0.7859 -0.8016  1.3163
  950MOL0     C31012   3.378   0.137   8.508  1.2184  0.8363  0.1398
  950MOL0     N31013   2.847   0.068   8.767 -0.2488  0.2813 -0.0815
  950MOL0     N31014   2.712   0.052   8.780  0.1816  0.0436 -0.0108
  950MOL0     C31015   1.773   0.315   9.287 -0.4868 -1.6920 -0.3999
  950MOL0     C31016   1.638   0.301   9.320 -0.9633 -0.0068  0.3840
  950MOL0     C31017   1.228   0.376   9.487 -0.6452  0.3855  0.6902
  950MOL0     C31018   1.235   0.236   9.462  0.1322  0.6925 -0.5489
  950MOL0     C31019   1.132   0.152   9.515  0.1240 -0.0106  0.3121
  950MOL0     C31020   1.022   0.199   9.584 -0.2788  0.6592 -0.3189
  950MOL0     O31021   0.920   0.119   9.616  0.3606  0.3566 -0.0515
  950MOL0     C31022   0.935   0.078   9.751 -0.5246  0.0418  0.3777
  950MOL0     C31023   0.823   0.000   9.821 -0.2138 -0.7175  0.4138
  950MOL0     C31024   0.814  -0.002   9.979 -0.4363  1.1314  0.2637
  950MOL0     C31025   0.685  -0.070  10.031 -0.2047  0.6201  0.2492
  950MOL0     C31026   0.648  -0.207   9.986  0.3822  0.5297  1.1252
  950MOL0     C31027   0.624  -0.314   9.946 -0.1610  0.6702  0.9278
  950MOL0     C31028   1.024   0.338   9.615 -0.5136 -0.4495  0.7960
  950MOL0     C31029   1.122   0.425   9.559 -0.0734 -0.6239  0.6415
  950MOL0     C31030   1.113   0.571   9.600  0.7283  0.4206 -0.4863
  950MOL0     H31031   1.530   0.610   9.299 -0.4580  0.2506  1.4936
  950MOL0     H31032   1.778   0.650   9.277 -2.9288  0.9489  0.1257
  950MOL0     H31033   1.978   0.621   9.146 -0.7460 -0.8507  0.5998
  950MOL0     H31034   2.019   0.456   9.081 -1.1662 -0.1172  0.1877
  950MOL0     H31035   2.196   0.660   9.134  1.5257  0.0593  1.0573
  950MOL0     H31036   2.161   0.606   9.297  0.2968 -3.0300  1.0856
  950MOL0     H31037   2.356   0.482   9.220 -1.3892  1.2147  1.5105
  950MOL0     H31038   2.220   0.364   9.220 -1.1209  1.0685  1.9887
  950MOL0     H31039   2.238   0.526   8.960 -0.3568 -0.1990 -0.3655
  950MOL0     H31040   2.395   0.470   9.003 -0.7625  0.2562 -1.3691
  950MOL0     H31041   2.254   0.307   8.865 -0.2717 -0.2222 -0.0550
  950MOL0     H31042   2.169   0.267   8.998  0.1594 -0.3846  1.5364
  950MOL0     H31043   2.357   0.185   9.147  0.6982 -3.9236  0.7766
  950MOL0     H31044   2.304   0.110   8.992 -4.9628  3.7452 -2.3332
  950MOL0     H31045   2.557   0.106   9.041  1.3315  1.0074 -0.2646
  950MOL0     H31046   2.551   0.281   9.031  3.0830 -0.8736  0.9233
  950MOL0     H31047   2.474   0.086   8.805 -3.0990  1.3829 -0.5521
  950MOL0     H31048   2.464   0.264   8.788 -0.7537 -0.5901 -0.4664
  950MOL0     H31049   2.730   0.372   8.794  0.3738  0.4531 -1.8114
  950MOL0     H31050   3.057   0.232   8.874 -0.1495  1.0997  0.8512
  950MOL0     H31051   2.996   0.373   8.790 -1.8293 -0.4880 -0.1470
  950MOL0     H31052   3.198   0.288   8.681 -0.6930  0.7771  0.8672
  950MOL0     H31053   3.111   0.131   8.640 -2.9467  0.4915 -3.2449
  950MOL0     H31054   2.956   0.284   8.527  1.0344 -2.4235 -3.4093
  950MOL0     H31055   3.062   0.422   8.570  0.0534 -1.0739 -0.3505
  950MOL0     H31056   3.081   0.314   8.325  2.6064  0.2406 -0.4770
  950MOL0     H31057   3.229   0.347   8.401  1.3085 -2.6627 -1.0004
  950MOL0     H31058   3.202  -0.081   8.329 -1.5619  1.3289  0.6687
  950MOL0     H31059   3.414  -0.339   8.432 -1.5456  1.7141  1.8376
  950MOL0     H31060   3.501  -0.275   8.296  1.1538  3.7075  0.6981
  950MOL0     H31061   3.317  -0.280   8.287 -0.9501  3.7327  1.3575
  950MOL0     H31062   3.824  -0.209   8.759 -0.2691  0.1564 -0.1428
  950MOL0     H31063   4.032  -0.338   8.764  3.3284 -0.4248 -1.6882
  950MOL0     H31064   4.231  -0.473   8.756  1.0478 -0.9971  0.7889
  950MOL0     H31065   4.115  -0.550   8.644 -0.6100  1.7995 -0.1622
  950MOL0     H31066   4.292  -0.696   8.659 -1.8729  1.4157  1.6151
  950MOL0     H31067   4.301  -0.626   8.501 -1.1517  2.5348 -0.4229
  950MOL0     H31068   4.510  -0.568   8.733  2.3767  0.6865 -0.4015
  950MOL0     H31069   4.473  -0.438   8.636  1.7902 -0.2420 -0.0287
  950MOL0     H31070   4.502  -0.609   8.435 -0.9418  1.0547  0.4976
  950MOL0     H31071   4.564  -0.715   8.562 -1.2597  0.1877 -0.2112
  950MOL0     H31072   4.702  -0.447   8.504  0.0297 -0.3244 -0.2746
  950MOL0     H31073   4.745  -0.567   8.623  0.5997  1.2959 -0.6158
  950MOL0     H31074   4.723  -0.589   8.325  0.0038 -0.0969  0.4841
  950MOL0     H31075   4.758  -0.734   8.416 -1.2486 -0.5592  1.1330
  950MOL0     H31076   4.965  -0.629   8.507  0.8464  3.5348  2.4332
  950MOL0     H31077   4.914  -0.478   8.439 -1.3295 -0.0473  1.4451
  950MOL0     H31078   4.973  -0.735   8.280 -0.1407  0.2834  0.0523
  950MOL0     H31079   5.085  -0.590   8.293 -0.2028 -1.0151  0.4328
  950MOL0     H31080   4.141  -0.225   8.379 -0.0267 -1.0677  0.0194
  950MOL0     H31081   3.924  -0.092   8.360  0.0251 -0.6499 -1.2361
  950MOL0     H31082   3.563   0.125   8.587 -0.6921 -3.2061  4.0061
  950MOL0     H31083   3.369   0.231   8.560 -0.5168  1.0958 -0.5821
  950MOL0     H31084   1.839   0.230   9.273  1.9505  0.0459 -0.1531
  950MOL0     H31085   1.599   0.203   9.347 -3.5586  0.5148 -1.1222
  950MOL0     H31086   1.325   0.191   9.422  2.3958 -0.1228  4.7505
  950MOL0     H31087   1.135   0.045   9.502  0.1574  0.1242 -0.8387
  950MOL0     H31088   1.025   0.018   9.765  0.0281  0.2426 -1.9306
  950MOL0     H31089   0.940   0.174   9.803  1.4234 -0.4158  1.0989
  950MOL0     H31090   0.824  -0.101   9.779  0.3572 -0.6829  0.3338
  950MOL0     H31091   0.735   0.058   9.791  1.4071  1.0475 -1.2409
  950MOL0     H31092   0.896  -0.069  10.006 -2.5881 -1.4207  0.8694
  950MOL0     H31093   0.826   0.100  10.016  1.1057  0.3459  2.0751
  950MOL0     H31094   0.603  -0.004  10.001 -0.7194  0.3256  0.9811
  950MOL0     H31095   0.696  -0.071  10.140  0.9370 -0.9125  0.1604
  950MOL0     H31096   0.590  -0.411   9.915  1.2792  0.4393 -0.0303
  950MOL0     H31097   0.940   0.379   9.670 -2.0478 -0.3103 -1.4931
  950MOL0     H31098   1.096   0.644   9.521 -1.1833  1.2746  0.6283
  950MOL0     H31099   1.024   0.598   9.657 -0.4392 -1.1748 -1.4524
  950MOL0     H31100   1.201   0.602   9.658  0.4344 -1.2269  0.9309
  951MOL0     O31101   2.342   9.803   8.779 -0.0728 -0.2848 -0.0095
  951MOL0     C31102   2.384   9.705   8.841  0.1318 -1.1051 -0.0707
  951MOL0     O31103   2.499   9.711   8.910 -0.4024  0.3160 -0.0123
  951MOL0     C31104   2.572   9.824   8.912  0.6581  0.2604  0.0859
  951MOL0     C31105   2.623   9.868   9.039  0.0320 -0.3576 -0.0266
  951MOL0     C31106   2.708   9.975   9.047 -0.5790  0.3329  0.0161
  951MOL0     C31107   2.756  10.031   8.927  0.1460 -0.5562  0.5352
  951MOL0     O31108   2.855  10.124   8.912  0.1253  0.1738 -1.1235
  951MOL0     C31109   2.871  10.217   9.022 -0.0577  0.2930 -0.0814
  951MOL0     C31110   2.891  10.360   8.986 -0.0075  0.8723  1.1396
  951MOL0     C31111   2.954  10.432   9.102  0.2399 -0.3730 -0.0346
  951MOL0     C31112   3.099  10.413   9.105  0.0595  0.7085  0.0525
  951MOL0     C31113   3.164  10.508   9.210  0.3716 -0.3931 -0.2272
  951MOL0     C31114   3.311  10.513   9.200  0.1587 -0.6537 -0.6441
  951MOL0     C31115   3.371  10.568   9.070  0.0338 -0.0141  0.0994
  951MOL0     C31116   3.518  10.549   9.057 -0.3787 -0.5265  0.4094
  951MOL0     N31117   3.593  10.626   9.154 -0.4955 -0.9648  0.2356
  951MOL0     C31118   3.649  10.589   9.272  0.4051 -0.4122  0.6846
  951MOL0     C31119   3.757  10.675   9.283 -0.2164  0.3807 -0.2640
  951MOL0     C31120   3.853  10.663   9.400 -0.2531 -0.1362 -0.3264
  951MOL0     C31121   3.996  10.631   9.359  0.3272  0.0434 -0.3981
  951MOL0     C31122   4.095  10.722   9.430 -0.0639  0.3362  0.6817
  951MOL0     C31123   4.239  10.692   9.402  0.7332 -0.4739  0.0870
  951MOL0     O31124   4.295  10.617   9.507  0.5474  0.2740  0.8370
  951MOL0     C31125   4.399  10.682   9.568 -0.3782 -0.0552 -0.5046
  951MOL0     C31126   4.378  10.727   9.700  0.6837  0.0032  0.4564
  951MOL0     C31127   4.473  10.785   9.780  0.2470 -0.1938 -0.0713
  951MOL0     C31128   4.441  10.831   9.911 -0.2813 -0.6442  0.0594
  951MOL0     C31129   4.606  10.794   9.723 -0.7876  0.5441  0.4940
  951MOL0     C31130   4.720  10.867   9.787  0.2142 -0.2409 -0.1015
  951MOL0     O31131   4.846  10.809   9.762 -1.1104 -0.0356  0.3375
  951MOL0     C31132   4.951  10.854   9.847 -0.3143 -0.1768  0.4366
  951MOL0     C31133   4.976  10.806   9.979  0.7295  0.1732 -0.2002
  951MOL0     C31134   5.081  10.851  10.052 -0.2940  0.2829 -0.7845
  951MOL0     C31135   5.150  10.966  10.014  0.5915  0.3243  0.4004
  951MOL0     O31136   5.236  11.021  10.106  0.3157 -0.1694  0.1708
  951MOL0     C31137   5.293  11.153  10.091  1.3514  2.1824 -0.7385
  951MOL0     C31138   5.327  11.197  10.228 -0.2253  0.0612 -0.2064
  951MOL0     C31139   5.443  11.306  10.229 -0.1218 -0.0921  0.5062
  951MOL0     C31140   5.577  11.236  10.214 -1.2122  0.2184 -0.3892
  951MOL0     C31141   5.692  11.329  10.246  0.6648 -0.9933  1.2132
  951MOL0     C31142   5.820  11.241  10.256  0.0846 -0.4704  0.1538
  951MOL0     C31143   5.947  11.329  10.280  0.1457  0.3060 -0.6634
  951MOL0     C31144   6.050  11.262  10.375 -0.3179 -1.1753  0.1437
  951MOL0    Cl31145   6.205  11.344  10.402 -0.0865 -0.1748 -0.3208
  951MOL0     C31146   5.118  11.017   9.894 -0.8812  0.5001  0.1521
  951MOL0     C31147   5.038  10.952   9.798 -0.5520 -0.5215 -0.5140
  951MOL0     O31148   4.700  10.958   9.861  0.2483 -0.5125 -0.0421
  951MOL0     C31149   4.634  10.736   9.598 -0.3392  0.6506  1.2282
  951MOL0     C31150   4.529  10.688   9.519 -1.0188  0.5346  0.3534
  951MOL0     N31151   3.753  10.770   9.188  0.3392  0.3629  0.0866
  951MOL0     N31152   3.658  10.738   9.109 -0.0223 -0.0184  0.2314
  951MOL0     C31153   2.703   9.997   8.807  0.1061  0.4926 -0.3245
  951MOL0     C31154   2.615   9.889   8.803  0.6990 -0.0823  0.4785
  951MOL0     C31155   2.304   9.571   8.829  0.3855 -0.2287 -0.6815
  951MOL0     C31156   2.376   9.459   8.873  1.0495 -0.5199  0.0473
  951MOL0     C31157   2.316   9.337   8.874  0.1670 -0.2881 -0.5015
  951MOL0     C31158   2.189   9.322   8.816  0.6810  0.8434  0.2257
  951MOL0     O31159   2.141   9.192   8.790  0.2532  0.2845 -0.2210
  951MOL0     C31160   2.009   9.163   8.749 -0.1254 -0.0601 -0.9786
  951MOL0     C31161   2.011   9.152   8.592 -0.0771  0.4351 -0.5968
  951MOL0     C31162   1.878   9.097   8.541  0.1904  0.0742 -0.5681
  951MOL0     C31163   1.901   9.029   8.407  0.5038 -0.1450  0.0976
  951MOL0     C31164   1.953   8.892   8.419  0.5764 -0.2676  0.5088
  951MOL0     C31165   2.000   8.777   8.416  0.8390 -0.1945 -0.6804
  951MOL0     C31166   2.111   9.433   8.783 -0.8448 -0.2520  0.3630
  951MOL0     C31167   2.169   9.563   8.791 -0.1282  0.4087 -0.5936
  951MOL0     C31168   2.077   9.673   8.758 -0.2661 -0.0547  0.4197
  951MOL0     H31169   2.587   9.821   9.131 -4.8753 -1.6991 -2.2924
  951MOL0     H31170   2.737  10.008   9.147 -2.4624  1.7022  0.1743
  951MOL0     H31171   2.961  10.179   9.070 -1.0240 -1.2576  0.5560
  951MOL0     H31172   2.792  10.203   9.096  0.1887  0.8907  0.3083
  951MOL0     H31173   2.948  10.371   8.893 -4.2949 -0.2586 -1.9484
  951MOL0     H31174   2.790  10.395   8.960 -0.1502  0.4649  1.1452
  951MOL0     H31175   2.932  10.538   9.084  3.0009  0.3366  0.3689
  951MOL0     H31176   2.906  10.409   9.197 -0.0182  1.0964  0.2081
  951MOL0     H31177   3.119  10.307   9.127 -1.3136  0.9849  3.0670
  951MOL0     H31178   3.134  10.438   9.004 -0.6024  0.2068 -0.3113
  951MOL0     H31179   3.139  10.471   9.309  0.1126 -2.0577 -0.8799
  951MOL0     H31180   3.115  10.600   9.178 -1.0926 -1.4457 -1.1486
  951MOL0     H31181   3.342  10.571   9.288  3.3704 -0.1929 -1.9296
  951MOL0     H31182   3.337  10.408   9.217 -2.9323 -1.1498  1.8595
  951MOL0     H31183   3.355  10.674   9.049  3.3364  0.2946 -1.6757
  951MOL0     H31184   3.336  10.512   8.982  0.5108  0.3506 -0.3307
  951MOL0     H31185   3.535  10.443   9.080 -1.8738 -0.5904  1.3432
  951MOL0     H31186   3.556  10.562   8.956 -0.0681 -2.3850  0.2638
  951MOL0     H31187   3.607  10.510   9.334  0.3517 -1.4402 -0.6179
  951MOL0     H31188   3.816  10.585   9.468 -3.2657  1.1237 -0.3666
  951MOL0     H31189   3.854  10.762   9.448  2.1079 -1.8633  3.6937
  951MOL0     H31190   4.012  10.524   9.372  2.7631  0.4617  0.5697
  951MOL0     H31191   4.004  10.655   9.253  1.2259  0.1725 -0.3137
  951MOL0     H31192   4.084  10.828   9.409  1.0906  0.1253 -1.3942
  951MOL0     H31193   4.074  10.714   9.537 -4.3280  0.4556  0.0289
  951MOL0     H31194   4.246  10.633   9.310  3.7795 -1.3151  0.7449
  951MOL0     H31195   4.284  10.786   9.371 -3.2469  1.8696  0.7104
  951MOL0     H31196   4.279  10.703   9.740 -1.3462 -0.1420 -4.0101
  951MOL0     H31197   4.414  10.936   9.896 -3.5551 -1.1794  1.4940
  951MOL0     H31198   4.521  10.823   9.986  0.8156  0.0377 -0.9914
  951MOL0     H31199   4.343  10.794   9.942 -0.9996 -2.7040 -3.9584
  951MOL0     H31200   4.919  10.728  10.028  1.1048  1.4129  2.3608
  951MOL0     H31201   5.098  10.814  10.152  1.0260  0.9038 -0.7523
  951MOL0     H31202   5.390  11.148  10.039  1.9044  0.7414  0.3697
  951MOL0     H31203   5.231  11.231  10.045  0.8380  1.1427 -1.8739
  951MOL0     H31204   5.236  11.243  10.269 -2.2849 -1.0096 -3.2731
  951MOL0     H31205   5.363  11.113  10.288 -1.2693 -2.7347 -3.2127
  951MOL0     H31206   5.450  11.364  10.321  3.5590 -0.9933  0.9598
  951MOL0     H31207   5.438  11.379  10.147  2.6382  0.0766  0.4035
  951MOL0     H31208   5.589  11.197  10.113  1.4033 -2.7267  0.8832
  951MOL0     H31209   5.575  11.148  10.279  2.7866  0.9877  1.0159
  951MOL0     H31210   5.708  11.397  10.162  4.0321 -3.0905 -0.0428
  951MOL0     H31211   5.672  11.394  10.332  1.0263 -1.6106  1.7770
  951MOL0     H31212   5.835  11.190  10.160 -1.4121 -0.0687 -0.3261
  951MOL0     H31213   5.800  11.169  10.336 -2.0576  0.2593  0.3440
  951MOL0     H31214   5.919  11.428  10.318  2.4582  0.4903  0.7664
  951MOL0     H31215   5.994  11.335  10.181  0.8736  0.6709 -0.3071
  951MOL0     H31216   6.070  11.159  10.347 -0.6955 -1.0301 -0.6816
  951MOL0     H31217   5.993  11.257  10.469  1.5408  0.0628  1.4043
  951MOL0     H31218   5.155  11.116   9.868  2.8229 -0.5617  0.7265
  951MOL0     H31219   5.026  10.974   9.693 -1.0234 -2.5920 -0.9401
  951MOL0     H31220   4.739  10.733   9.572 -0.5035 -2.6331  0.4903
  951MOL0     H31221   4.546  10.632   9.428  3.3225  0.7052  0.8770
  951MOL0     H31222   2.730  10.049   8.715  1.0005 -0.0187 -0.3642
  951MOL0     H31223   2.579   9.862   8.704 -1.4240  0.0394  1.1699
  951MOL0     H31224   2.480   9.474   8.900  1.3967 -0.6734 -1.1221
  951MOL0     H31225   2.368   9.250   8.911  2.0568  0.8315 -0.3987
  951MOL0     H31226   1.989   9.065   8.795  1.7536 -0.4418 -0.9029
  951MOL0     H31227   1.928   9.225   8.789 -0.2755 -2.0948  2.2045
  951MOL0     H31228   2.083   9.077   8.557  0.4883  1.9001 -2.7911
  951MOL0     H31229   2.041   9.249   8.549  0.5056 -0.3981 -2.1680
  951MOL0     H31230   1.835   9.027   8.613 -3.1718 -0.1852 -2.6110
  951MOL0     H31231   1.804   9.177   8.528 -1.4920 -1.2102  0.6822
  951MOL0     H31232   1.985   9.069   8.350  0.2252  0.1621 -0.1003
  951MOL0     H31233   1.813   9.028   8.342  0.5531  1.2791 -0.0074
  951MOL0     H31234   2.050   8.688   8.383  2.0517 -0.1837  1.0012
  951MOL0     H31235   2.009   9.433   8.748  0.1919 -1.1564 -3.1258
  951MOL0     H31236   2.117   9.759   8.813  0.8023 -1.2707  1.6252
  951MOL0     H31237   2.082   9.692   8.651  0.1237 -0.5030  0.3579
  951MOL0     H31238   1.981   9.653   8.808  1.0581 -1.0763  2.7362
  952MOL0     O31239   6.060   3.944   2.918  0.3714 -0.2081  0.0762
  952MOL0     C31240   5.990   3.909   2.822 -0.2696 -0.5014  0.4470
  952MOL0     O31241   6.010   3.947   2.691  0.8932 -0.3920  0.6156
  952MOL0     C31242   6.114   4.035   2.668 -0.3889  0.4656  0.1527
  952MOL0     C31243   6.103   4.176   2.689 -0.4235  0.7377  0.1607
  952MOL0     C31244   6.212   4.259   2.654  0.4228  0.4829 -0.7865
  952MOL0     C31245   6.336   4.203   2.619 -0.2447  0.3432  0.9440
  952MOL0     O31246   6.458   4.274   2.598  0.1333 -0.1145  0.5367
  952MOL0     C31247   6.475   4.405   2.648  0.2172  0.4880  0.3008
  952MOL0     C31248   6.420   4.511   2.552  0.6115 -0.1542  1.0214
  952MOL0     C31249   6.454   4.656   2.592  0.2556  0.2323  0.5820
  952MOL0     C31250   6.403   4.755   2.483  0.3364  0.4305  0.1791
  952MOL0     C31251   6.394   4.905   2.522  0.4608 -0.2967  0.2076
  952MOL0     C31252   6.288   4.941   2.617 -0.6020  0.1608 -0.1432
  952MOL0     C31253   6.150   4.946   2.543  0.1818 -0.7622  0.2094
  952MOL0     C31254   6.041   5.008   2.632 -0.2822  0.0697 -0.1262
  952MOL0     N31255   5.912   4.982   2.574  0.6489  0.2256 -0.6831
  952MOL0     C31256   5.879   5.003   2.442 -0.1114 -1.1567 -1.0315
  952MOL0     C31257   5.759   4.945   2.432 -0.3991  0.0490  0.3559
  952MOL0     C31258   5.686   4.941   2.304  0.6249  0.1959  0.3825
  952MOL0     C31259   5.670   4.798   2.253  0.2105  0.1240 -0.0524
  952MOL0     C31260   5.555   4.781   2.151 -1.0339 -0.4103  0.2818
  952MOL0     C31261   5.563   4.646   2.092  0.1198 -0.2156 -0.2200
  952MOL0     O31262   5.490   4.660   1.964  0.0991  0.3324 -0.3760
  952MOL0     C31263   5.568   4.709   1.857  0.0364 -0.5153 -0.4462
  952MOL0     C31264   5.526   4.827   1.797  0.7426  0.3158  0.3259
  952MOL0     C31265   5.588   4.882   1.688 -0.4571  0.0507  0.1883
  952MOL0     C31266   5.519   4.997   1.620  0.3069  0.2955  0.2811
  952MOL0     C31267   5.700   4.819   1.625 -0.1570  0.3421  0.4616
  952MOL0     C31268   5.754   4.850   1.495 -0.5598 -0.2375  0.5680
  952MOL0     O31269   5.870   4.780   1.469  0.5326 -0.1486  0.1606
  952MOL0     C31270   5.947   4.797   1.358 -0.8775 -1.1351  0.5574
  952MOL0     C31271   6.071   4.736   1.366  0.1681 -0.1473  1.3936
  952MOL0     C31272   6.167   4.756   1.266  0.5134 -0.9601 -0.2204
  952MOL0     C31273   6.142   4.830   1.152 -0.2381  0.0072 -0.1078
  952MOL0     O31274   6.231   4.836   1.051 -0.3128 -0.0862  0.8757
  952MOL0     C31275   6.284   4.705   1.006 -0.1259 -0.2331 -0.6907
  952MOL0     C31276   6.257   4.670   0.862 -0.1147 -0.3922 -0.1874
  952MOL0     C31277   6.108   4.637   0.843 -0.5142  0.5240 -0.5808
  952MOL0     C31278   6.075   4.481   0.836 -0.1476  0.2366  0.0056
  952MOL0     C31279   5.925   4.459   0.835 -0.0373  0.2731 -0.5375
  952MOL0     C31280   5.860   4.490   0.702  0.0026 -0.3632  0.3071
  952MOL0     C31281   5.713   4.436   0.722  0.7114  0.1614 -0.3916
  952MOL0     C31282   5.623   4.484   0.606  0.2406  0.3499 -0.2690
  952MOL0    Cl31283   5.709   4.470   0.447 -0.2349  0.1680 -0.0589
  952MOL0     C31284   6.015   4.895   1.148 -0.0849  0.4678 -0.0061
  952MOL0     C31285   5.925   4.884   1.252  0.2064  0.3448 -0.5768
  952MOL0     O31286   5.707   4.930   1.414  0.1205 -0.0520 -0.6278
  952MOL0     C31287   5.748   4.698   1.697 -0.3831  0.6302 -0.6645
  952MOL0     C31288   5.675   4.639   1.805 -0.1209 -0.4160 -0.7216
  952MOL0     N31289   5.715   4.900   2.550  0.8065  0.5537 -0.1441
  952MOL0     N31290   5.804   4.935   2.640  0.8904  0.2593  0.0688
  952MOL0     C31291   6.342   4.063   2.612 -0.1519  0.6083  0.6065
  952MOL0     C31292   6.233   3.981   2.624 -0.8221  0.5562  0.1496
  952MOL0     C31293   5.893   3.802   2.852 -0.1794 -0.0416  0.9096
  952MOL0     C31294   5.842   3.728   2.740 -1.1121 -0.1067  0.3332
  952MOL0     C31295   5.755   3.616   2.764  0.4532 -0.4697 -0.3185
  952MOL0     C31296   5.715   3.583   2.894 -0.3750  0.4133 -0.5773
  952MOL0     O31297   5.639   3.471   2.905 -0.3527  0.2657 -0.6897
  952MOL0     C31298   5.595   3.410   3.035 -0.7710 -0.4654 -0.5406
  952MOL0     C31299   5.577   3.259   3.022  0.1069 -0.0876 -1.1664
  952MOL0     C31300   5.472   3.229   2.913  0.3308  0.2061 -0.8510
  952MOL0     C31301   5.435   3.078   2.922  0.5332 -1.1139 -0.1656
  952MOL0     C31302   5.303   3.051   2.863 -0.7379  0.7988 -0.5453
  952MOL0     C31303   5.195   3.019   2.824 -0.3305 -0.4863 -0.0818
  952MOL0     C31304   5.750   3.667   3.000 -0.3362  0.1168  0.2242
  952MOL0     C31305   5.834   3.776   2.977  0.6895 -0.5454 -0.0528
  952MOL0     C31306   5.841   3.879   3.093 -0.1729 -0.0334 -0.6355
  952MOL0     H31307   6.008   4.213   2.726  0.3665  1.7871  1.1767
  952MOL0     H31308   6.193   4.362   2.682 -2.3607  0.2964 -1.6980
  952MOL0     H31309   6.584   4.414   2.649  0.4396 -0.6579 -2.7679
  952MOL0     H31310   6.432   4.415   2.748  0.7975 -2.0750  0.8870
  952MOL0     H31311   6.451   4.502   2.448 -4.1508  1.6320 -0.8301
  952MOL0     H31312   6.314   4.486   2.558  0.5629  0.1500  1.5567
  952MOL0     H31313   6.410   4.687   2.687  0.4076  1.5406  0.2414
  952MOL0     H31314   6.563   4.665   2.590  0.4994 -1.8753 -2.8871
  952MOL0     H31315   6.467   4.741   2.396 -0.4412  0.5946 -0.4377
  952MOL0     H31316   6.309   4.710   2.449  1.6516 -5.6389  3.2272
  952MOL0     H31317   6.367   4.959   2.431 -0.1601  0.9438  1.0864
  952MOL0     H31318   6.495   4.941   2.544  0.9082  0.1851 -2.3300
  952MOL0     H31319   6.288   4.862   2.693  2.8277 -0.8818 -1.0437
  952MOL0     H31320   6.315   5.030   2.675  0.5194  0.2661 -0.7961
  952MOL0     H31321   6.117   4.847   2.510 -0.7759 -0.7608  1.1226
  952MOL0     H31322   6.154   4.994   2.445  1.4568 -2.5036 -0.6545
  952MOL0     H31323   6.041   4.974   2.736 -1.4323 -0.1733 -0.1964
  952MOL0     H31324   6.051   5.117   2.628 -2.4097  0.2943 -1.7916
  952MOL0     H31325   5.942   5.026   2.357  3.1428 -1.4152  1.1239
  952MOL0     H31326   5.744   5.013   2.246  1.2324 -0.4061  0.2443
  952MOL0     H31327   5.586   4.982   2.324  0.9546  0.2404  2.0795
  952MOL0     H31328   5.766   4.771   2.208  1.1720  2.9564  0.1034
  952MOL0     H31329   5.643   4.731   2.336  1.5133  0.6442  0.8323
  952MOL0     H31330   5.464   4.788   2.212 -1.3088 -0.9582 -0.0609
  952MOL0     H31331   5.569   4.859   2.076  3.2365  0.4741  1.7148
  952MOL0     H31332   5.670   4.624   2.081  0.1180 -1.6069  1.8782
  952MOL0     H31333   5.511   4.578   2.160  0.6325  1.1637  1.6337
  952MOL0     H31334   5.436   4.876   1.833 -0.0769 -2.6416  2.7285
  952MOL0     H31335   5.441   5.050   1.675  1.5560  2.5508 -0.0219
  952MOL0     H31336   5.477   4.959   1.527  0.6312  0.6692 -0.0229
  952MOL0     H31337   5.598   5.063   1.583 -0.5629  0.4138 -1.4529
  952MOL0     H31338   6.090   4.680   1.457  0.8221 -2.9281 -0.3495
  952MOL0     H31339   6.271   4.731   1.281  0.8594  0.1872 -0.6555
  952MOL0     H31340   6.390   4.691   1.027 -0.6447 -1.3510  1.4523
  952MOL0     H31341   6.219   4.633   1.058  1.0475 -0.0364  1.1505
  952MOL0     H31342   6.285   4.754   0.798 -2.7289  2.1737  1.7920
  952MOL0     H31343   6.310   4.576   0.842  0.8528 -0.4615  2.3958
  952MOL0     H31344   6.076   4.681   0.748  1.0760  0.5491 -1.1244
  952MOL0     H31345   6.044   4.691   0.914 -0.5609 -1.0623  0.6331
  952MOL0     H31346   6.122   4.427   0.919  0.7805 -0.7128 -1.0990
  952MOL0     H31347   6.125   4.436   0.750  1.1115 -1.1937  1.4379
  952MOL0     H31348   5.898   4.358   0.866 -0.4699 -0.0325 -1.8205
  952MOL0     H31349   5.894   4.528   0.914  2.3385 -0.5665  1.2465
  952MOL0     H31350   5.914   4.442   0.620  1.1099 -1.9777  1.9033
  952MOL0     H31351   5.868   4.596   0.674  0.6628 -0.5426 -0.2055
  952MOL0     H31352   5.678   4.468   0.820  1.1323 -0.7594  0.0778
  952MOL0     H31353   5.725   4.327   0.714  1.7806  0.3609 -2.4863
  952MOL0     H31354   5.593   4.589   0.611 -0.7182  0.2197 -2.2355
  952MOL0     H31355   5.527   4.430   0.608 -0.2478  1.1964 -0.4499
  952MOL0     H31356   5.992   4.953   1.060 -1.4347 -0.5891 -0.3692
  952MOL0     H31357   5.833   4.941   1.240 -0.1422  0.1396  1.0002
  952MOL0     H31358   5.826   4.644   1.644 -1.4304  0.0406 -1.6418
  952MOL0     H31359   5.702   4.544   1.850  0.1447  0.4601  1.0739
  952MOL0     H31360   6.438   4.015   2.597  0.6383  1.8508  1.4368
  952MOL0     H31361   6.233   3.874   2.610 -0.5726  0.6203 -0.3470
  952MOL0     H31362   5.865   3.757   2.638 -1.0744  1.1128  0.6709
  952MOL0     H31363   5.707   3.568   2.680  1.6765 -1.1555 -0.6515
  952MOL0     H31364   5.665   3.420   3.118 -0.3012 -2.3459 -0.6858
  952MOL0     H31365   5.505   3.462   3.070  0.4743  1.2929  0.2541
  952MOL0     H31366   5.539   3.212   3.113  0.2732 -2.0199 -2.0471
  952MOL0     H31367   5.672   3.211   3.000 -0.0667 -0.7546 -0.5118
  952MOL0     H31368   5.384   3.289   2.941  1.0898  1.3026 -0.7485
  952MOL0     H31369   5.510   3.265   2.817 -1.3791 -0.9706 -2.0267
  952MOL0     H31370   5.423   3.045   3.025  0.2718  1.0584  0.5568
  952MOL0     H31371   5.512   3.013   2.879 -0.6007 -1.9865 -0.9314
  952MOL0     H31372   5.101   2.985   2.785 -2.3742  0.3625  3.6441
  952MOL0     H31373   5.711   3.659   3.101  2.1321 -1.4161  1.1602
  952MOL0     H31374   5.904   3.851   3.178 -2.1537 -0.2483  0.8451
  952MOL0     H31375   5.867   3.979   3.057 -2.2324  0.3875 -1.1052
  952MOL0     H31376   5.738   3.888   3.130 -0.0695  1.6174 -0.6790
  953MOL0     O31377   1.040   8.650   1.610 -0.6167 -0.6124 -0.4600
  953MOL0     C31378   1.051   8.736   1.521 -1.1740 -0.0828  0.1552
  953MOL0     O31379   1.121   8.713   1.408  0.2398  0.6078  0.0436
  953MOL0     C31380   1.196   8.600   1.406  1.4003  0.1678 -0.0084
  953MOL0     C31381   1.337   8.600   1.405 -0.0203 -0.8725 -0.7429
  953MOL0     C31382   1.404   8.473   1.397  0.4723  0.7403  0.7910
  953MOL0     C31383   1.336   8.346   1.387  0.9813  0.3294  0.8442
  953MOL0     O31384   1.407   8.231   1.388  0.1262 -0.2008 -0.3616
  953MOL0     C31385   1.364   8.130   1.487 -0.9976  0.3989  0.1530
  953MOL0     C31386   1.474   8.031   1.499  0.1931 -0.0401  0.5750
  953MOL0     C31387   1.445   7.918   1.606  0.6789  1.2159  0.3774
  953MOL0     C31388   1.567   7.829   1.638 -0.3328  0.3111  0.8105
  953MOL0     C31389   1.534   7.695   1.711  0.3866 -0.2233  0.3096
  953MOL0     C31390   1.667   7.611   1.700 -0.4038  1.0322 -0.6162
  953MOL0     C31391   1.645   7.460   1.751  0.8258 -0.5440  0.0568
  953MOL0     C31392   1.610   7.449   1.906  0.6783 -0.2348  0.0005
  953MOL0     N31393   1.716   7.474   2.004 -0.0088  0.4440 -0.2846
  953MOL0     C31394   1.842   7.415   2.004  0.8392 -0.4917  0.6960
  953MOL0     C31395   1.920   7.482   2.088  0.0879 -0.4363 -0.0502
  953MOL0     C31396   2.072   7.475   2.096 -0.0384  0.5850  0.2060
  953MOL0     C31397   2.115   7.349   2.177 -0.5916 -1.4245 -0.1314
  953MOL0     C31398   2.253   7.319   2.236 -0.0584  0.4548 -0.3272
  953MOL0     C31399   2.284   7.412   2.363  0.6978 -0.7368  0.3688
  953MOL0     O31400   2.202   7.355   2.469 -1.3340 -0.0502 -0.2596
  953MOL0     C31401   2.267   7.345   2.592  0.5719 -0.6261 -0.0482
  953MOL0     C31402   2.226   7.242   2.677  0.3722 -0.4430  0.7335
  953MOL0     C31403   2.276   7.227   2.803 -0.6574  0.5795 -0.5974
  953MOL0     C31404   2.217   7.116   2.898  0.4795 -0.4047  0.0533
  953MOL0     C31405   2.388   7.306   2.841  0.6415 -0.2688  0.0670
  953MOL0     C31406   2.470   7.279   2.956  0.9304 -0.6956 -0.6807
  953MOL0     O31407   2.543   7.384   3.003  0.3653  0.4650  0.2363
  953MOL0     C31408   2.641   7.377   3.099  0.2917  0.1103 -0.6513
  953MOL0     C31409   2.754   7.296   3.079 -0.7817  0.1745 -0.3911
  953MOL0     C31410   2.855   7.303   3.173 -0.0498 -0.1021  0.3281
  953MOL0     C31411   2.846   7.386   3.292 -0.5601  0.3686  0.0025
  953MOL0     O31412   2.957   7.404   3.377 -0.5040  0.1299  0.4157
  953MOL0     C31413   3.044   7.296   3.407 -0.7705  0.1173  0.2521
  953MOL0     C31414   3.109   7.341   3.543  0.0220 -0.6320 -0.4874
  953MOL0     C31415   3.228   7.260   3.584  0.6495  0.1977 -0.5967
  953MOL0     C31416   3.197   7.111   3.597  0.0812 -0.0350  0.0173
  953MOL0     C31417   3.316   7.033   3.669 -0.0072 -1.2840  0.0803
  953MOL0     C31418   3.289   6.886   3.660 -0.0744 -0.3929  0.4843
  953MOL0     C31419   3.384   6.801   3.736  0.3721  0.1413  0.0623
  953MOL0     C31420   3.342   6.652   3.703 -0.0686 -1.1626  0.3965
  953MOL0    Cl31421   3.459   6.553   3.801 -0.0866  0.6759  0.4619
  953MOL0     C31422   2.734   7.459   3.310  0.0361 -0.0155 -0.2475
  953MOL0     C31423   2.629   7.451   3.217  0.4386 -0.1630 -0.3886
  953MOL0     O31424   2.490   7.162   2.983 -0.0252 -0.3036 -0.1693
  953MOL0     C31425   2.442   7.399   2.750 -0.4165 -0.7626  0.4006
  953MOL0     C31426   2.381   7.421   2.630  0.5790 -0.1015  0.6634
  953MOL0     N31427   1.840   7.575   2.153 -0.0757 -0.6799  0.8496
  953MOL0     N31428   1.723   7.566   2.103  0.2448 -0.3790 -0.1194
  953MOL0     C31429   1.194   8.350   1.393  0.2062  0.1712 -0.2735
  953MOL0     C31430   1.131   8.474   1.401 -0.8100  0.4874 -0.5946
  953MOL0     C31431   0.973   8.862   1.513 -0.2935 -0.1532 -1.0467
  953MOL0     C31432   1.028   8.965   1.437 -0.6740  0.9088  0.0329
  953MOL0     C31433   0.960   9.086   1.440 -0.1161 -0.7718  0.6378
  953MOL0     C31434   0.837   9.111   1.494 -0.1933  0.0933 -0.3042
  953MOL0     O31435   0.773   9.228   1.501 -0.6184 -0.1735  0.2128
  953MOL0     C31436   0.764   9.309   1.380 -0.4960  0.5179  0.3437
  953MOL0     C31437   0.662   9.419   1.400 -0.0653 -0.2758  0.7782
  953MOL0     C31438   0.522   9.372   1.369 -1.4661 -0.3974 -0.6843
  953MOL0     C31439   0.422   9.418   1.472 -0.3610  1.0977 -1.1932
  953MOL0     C31440   0.435   9.322   1.588 -0.3357  0.3956 -0.5760
  953MOL0     C31441   0.442   9.236   1.681 -0.8802 -0.6407  0.4314
  953MOL0     C31442   0.784   9.005   1.569  0.2331 -1.3643  0.4911
  953MOL0     C31443   0.849   8.883   1.582  0.1220 -0.6117 -0.4141
  953MOL0     C31444   0.801   8.778   1.675  0.0523 -0.3880 -0.0129
  953MOL0     H31445   1.389   8.695   1.412 -0.6173 -0.5967  5.5150
  953MOL0     H31446   1.511   8.453   1.388  0.4569  0.2855  1.5127
  953MOL0     H31447   1.268   8.092   1.451  0.4528 -0.0616 -3.8159
  953MOL0     H31448   1.354   8.172   1.587 -1.2597 -0.1001  0.3382
  953MOL0     H31449   1.504   7.990   1.402  0.4310  1.1686  0.1169
  953MOL0     H31450   1.567   8.081   1.529 -0.1913  0.6298  0.6713
  953MOL0     H31451   1.408   7.964   1.698 -1.7249 -0.7870  0.5394
  953MOL0     H31452   1.360   7.850   1.590  0.4764  0.5698  3.5181
  953MOL0     H31453   1.604   7.800   1.539 -0.1119 -0.2078  1.0450
  953MOL0     H31454   1.647   7.868   1.702  2.9298 -1.2172 -2.0212
  953MOL0     H31455   1.452   7.648   1.655  0.2614 -1.9881  1.8951
  953MOL0     H31456   1.489   7.710   1.810 -0.4481  1.2814 -0.2704
  953MOL0     H31457   1.686   7.615   1.592  0.7382  0.8965 -0.4329
  953MOL0     H31458   1.754   7.650   1.753  1.3062  0.0839 -2.5833
  953MOL0     H31459   1.733   7.403   1.720 -0.1691 -0.4609 -3.2276
  953MOL0     H31460   1.563   7.410   1.698  0.1952 -2.7678  2.8453
  953MOL0     H31461   1.533   7.526   1.919  1.2657  1.1433 -3.4192
  953MOL0     H31462   1.566   7.350   1.920  0.8081 -0.3410 -0.3331
  953MOL0     H31463   1.863   7.332   1.938  0.5800 -0.4731  0.5912
  953MOL0     H31464   2.100   7.569   2.145 -3.0040  1.0862  1.1345
  953MOL0     H31465   2.112   7.492   1.996 -0.8038  1.5332  0.0512
  953MOL0     H31466   2.048   7.348   2.263 -2.0921 -0.3747 -1.2341
  953MOL0     H31467   2.094   7.259   2.118  0.2143 -1.5408 -0.2589
  953MOL0     H31468   2.251   7.214   2.267 -0.7357  0.9919  1.5804
  953MOL0     H31469   2.321   7.350   2.156  0.5462  0.5963  0.2268
  953MOL0     H31470   2.391   7.396   2.379  0.3602 -3.8902  0.2362
  953MOL0     H31471   2.255   7.517   2.358 -1.3253 -1.2734 -0.3443
  953MOL0     H31472   2.143   7.177   2.652  0.0769  0.3610 -0.4349
  953MOL0     H31473   2.118   7.090   2.858 -0.1307  2.1192 -0.2317
  953MOL0     H31474   2.214   7.143   3.004  1.6632  1.3557 -0.3093
  953MOL0     H31475   2.290   7.036   2.890  1.2074  0.0726  1.5903
  953MOL0     H31476   2.747   7.228   2.995 -1.1586 -1.2361  0.7365
  953MOL0     H31477   2.940   7.237   3.157 -0.4133 -0.5685  0.2990
  953MOL0     H31478   3.003   7.195   3.412  0.0934 -0.2350  0.4597
  953MOL0     H31479   3.118   7.297   3.326  1.2859  2.1412  1.9797
  953MOL0     H31480   3.139   7.446   3.541 -1.0889 -0.2835  0.1204
  953MOL0     H31481   3.031   7.336   3.619  1.2297 -3.1432  0.6989
  953MOL0     H31482   3.264   7.294   3.682 -1.5982  1.5077 -0.1682
  953MOL0     H31483   3.309   7.282   3.513  2.1355 -1.8015  0.3801
  953MOL0     H31484   3.175   7.077   3.495  1.6880  2.6848 -1.3551
  953MOL0     H31485   3.109   7.106   3.662  0.9032  3.5469  1.6495
  953MOL0     H31486   3.410   7.064   3.622 -0.9897  4.4255  1.1170
  953MOL0     H31487   3.326   7.069   3.772 -3.3362  1.4524 -0.3879
  953MOL0     H31488   3.281   6.858   3.555  3.0894 -1.3852  0.4325
  953MOL0     H31489   3.185   6.879   3.694  0.1210  1.1566  1.5353
  953MOL0     H31490   3.369   6.821   3.843 -2.0875 -1.1473  0.0188
  953MOL0     H31491   3.487   6.826   3.710  0.5531  0.9465  1.4149
  953MOL0     H31492   3.340   6.633   3.595 -0.2287  0.5615  0.0646
  953MOL0     H31493   3.240   6.632   3.736  0.4325 -1.9480  1.5234
  953MOL0     H31494   2.723   7.510   3.405  1.9554 -2.3434  1.3558
  953MOL0     H31495   2.540   7.511   3.232  1.8165  1.8713  0.0562
  953MOL0     H31496   2.523   7.467   2.773 -1.4086 -0.0548  1.9495
  953MOL0     H31497   2.418   7.494   2.560  0.9691  0.8406  1.8300
  953MOL0     H31498   1.127   8.265   1.388  1.3980 -0.8602  0.5878
  953MOL0     H31499   1.023   8.473   1.412 -1.1989 -0.1621 -3.5486
  953MOL0     H31500   1.125   8.955   1.390 -0.8433 -0.8714 -0.0072
  953MOL0     H31501   1.014   9.161   1.382 -1.5125 -1.5345 -1.7749
  953MOL0     H31502   0.861   9.356   1.361  0.6205 -1.7580  0.0525
  953MOL0     H31503   0.743   9.246   1.293 -0.5277 -0.3795  0.9841
  953MOL0     H31504   0.697   9.506   1.343 -0.9729 -0.5990 -0.3169
  953MOL0     H31505   0.672   9.451   1.504 -1.5048 -2.9804  1.8546
  953MOL0     H31506   0.492   9.413   1.272  1.1427  1.6216 -0.7543
  953MOL0     H31507   0.529   9.263   1.362 -0.9578 -0.5245  1.3434
  953MOL0     H31508   0.321   9.402   1.432 -1.7023 -1.5583  2.6294
  953MOL0     H31509   0.432   9.524   1.495 -1.3060  0.8997  0.3075
  953MOL0     H31510   0.447   9.160   1.756 -0.4667 -0.2734  0.7814
  953MOL0     H31511   0.684   9.015   1.611 -1.4982  1.9177 -3.7151
  953MOL0     H31512   0.791   8.687   1.616 -1.4097 -1.4655  1.7801
  953MOL0     H31513   0.872   8.755   1.756  0.9772 -1.0133 -0.9719
  953MOL0     H31514   0.698   8.798   1.706 -0.8465  0.3544 -3.1642
  954MOL0     O31515   3.493   7.387   9.185 -0.5070  0.6494  0.1020
  954MOL0     C31516   3.616   7.374   9.186  0.0900  0.1524 -0.0588
  954MOL0     O31517   3.694   7.303   9.098  0.3312  0.3633 -0.3420
  954MOL0     C31518   3.653   7.201   9.011  0.3685  0.0457  0.0733
  954MOL0     C31519   3.745   7.101   9.004 -0.7168  0.3981  0.1224
  954MOL0     C31520   3.716   6.994   8.924 -0.2723  0.2060 -0.3481
  954MOL0     C31521   3.600   6.993   8.846 -0.2791  0.4490 -0.5005
  954MOL0     O31522   3.577   6.888   8.764 -0.9063 -0.0366  0.1834
  954MOL0     C31523   3.472   6.874   8.666 -1.3145  0.3746 -0.7547
  954MOL0     C31524   3.343   6.827   8.758 -0.4185 -0.8526 -0.2849
  954MOL0     C31525   3.256   6.741   8.671  0.3430  0.2099  0.1624
  954MOL0     C31526   3.172   6.656   8.761  0.4979  0.7360 -0.1575
  954MOL0     C31527   3.169   6.503   8.708 -0.4115 -0.4543  0.6681
  954MOL0     C31528   3.105   6.481   8.574 -0.5193 -0.7562 -0.2949
  954MOL0     C31529   3.155   6.356   8.499 -0.1189  0.0968 -0.4219
  954MOL0     C31530   3.129   6.224   8.578  0.9256  0.0371  0.5715
  954MOL0     N31531   3.169   6.106   8.497 -0.3984 -0.2702  0.0871
  954MOL0     C31532   3.212   5.989   8.556  0.2256  0.4314 -0.0166
  954MOL0     C31533   3.219   5.899   8.453 -0.9489  0.0309  0.2553
  954MOL0     C31534   3.287   5.763   8.466 -0.1866 -0.9834 -0.4410
  954MOL0     C31535   3.439   5.782   8.490  0.6467  0.3387 -0.3295
  954MOL0     C31536   3.526   5.652   8.534 -0.1862  0.5602  0.6753
  954MOL0     C31537   3.659   5.693   8.599 -0.1842 -0.6834 -0.0627
  954MOL0     O31538   3.750   5.744   8.497 -0.9217 -0.2661 -0.0712
  954MOL0     C31539   3.850   5.827   8.553 -0.5271 -0.6390 -0.2859
  954MOL0     C31540   3.967   5.826   8.475 -0.9562 -0.2493 -0.0183
  954MOL0     C31541   4.074   5.917   8.496  0.3171 -0.1525  0.2623
  954MOL0     C31542   4.168   5.942   8.377  0.2939 -0.7989 -0.6967
  954MOL0     C31543   4.079   5.985   8.620 -0.1336 -0.7850 -0.2843
  954MOL0     C31544   4.190   6.078   8.661 -0.2496 -0.0419  0.8220
  954MOL0     O31545   4.175   6.193   8.737  0.0710  0.5583 -0.0971
  954MOL0     C31546   4.273   6.283   8.753 -0.1860 -0.2616  0.5461
  954MOL0     C31547   4.333   6.350   8.646 -0.2214 -0.1748 -0.1257
  954MOL0     C31548   4.443   6.430   8.677 -0.2295 -0.7411  1.2898
  954MOL0     C31549   4.476   6.477   8.808  1.0539  0.6991 -0.6978
  954MOL0     O31550   4.580   6.558   8.840 -0.5581  0.5178  0.5069
  954MOL0     C31551   4.559   6.689   8.782 -0.1361 -0.6382  0.7505
  954MOL0     C31552   4.652   6.793   8.845  0.2778  0.2907 -0.0687
  954MOL0     C31553   4.684   6.765   8.995  1.1045  0.0805  0.5947
  954MOL0     C31554   4.799   6.855   9.040 -0.0996  0.5778 -0.0914
  954MOL0     C31555   4.856   6.814   9.174  0.5168  0.1594  0.7843
  954MOL0     C31556   4.982   6.893   9.215 -0.4859  1.1741  0.0506
  954MOL0     C31557   5.056   6.831   9.333 -0.0484  0.2102 -0.1353
  954MOL0     C31558   5.192   6.888   9.359  0.0371  0.0475 -0.5262
  954MOL0    Cl31559   5.199   7.068   9.355 -0.1454 -0.5374  0.1964
  954MOL0     C31560   4.402   6.410   8.911  0.2304 -0.2596 -0.3961
  954MOL0     C31561   4.301   6.316   8.885 -0.7739 -1.4107  0.0414
  954MOL0     O31562   4.310   6.041   8.617 -0.2840 -0.1872 -0.6132
  954MOL0     C31563   3.963   5.988   8.700 -1.1707 -0.3477  0.5160
  954MOL0     C31564   3.853   5.918   8.655 -0.2691  0.5029  0.5320
  954MOL0     N31565   3.163   5.943   8.343  0.2938  0.3878 -0.6399
  954MOL0     N31566   3.137   6.069   8.369 -0.1385  0.6297 -0.5035
  954MOL0     C31567   3.513   7.100   8.851  0.5904 -0.0607  0.1779
  954MOL0     C31568   3.540   7.205   8.930 -0.8681  0.3460 -0.3281
  954MOL0     C31569   3.681   7.458   9.280  0.4053 -0.4005  0.3055
  954MOL0     C31570   3.609   7.528   9.381 -0.4848  1.1157 -0.6219
  954MOL0     C31571   3.666   7.617   9.469  0.5334  0.3531 -0.4301
  954MOL0     C31572   3.803   7.635   9.474  0.1820  0.2212  0.2434
  954MOL0     O31573   3.876   7.709   9.554 -0.6965 -0.4429  0.9466
  954MOL0     C31574   3.824   7.772   9.665 -0.1908 -0.5124 -0.5021
  954MOL0     C31575   3.812   7.675   9.779  0.9394  0.6121 -0.5554
  954MOL0     C31576   3.953   7.629   9.828 -0.1672  0.4676 -1.2749
  954MOL0     C31577   3.955   7.567   9.965  1.2278  0.2724  0.3397
  954MOL0     C31578   4.093   7.563  10.032  0.1330  0.3655 -0.4791
  954MOL0     C31579   4.189   7.566  10.102 -0.5344 -0.2399 -0.7644
  954MOL0     C31580   3.880   7.579   9.363 -0.0326 -0.0268 -0.7439
  954MOL0     C31581   3.819   7.503   9.265  0.0268  0.2066 -0.7200
  954MOL0     C31582   3.903   7.481   9.144  0.1401  0.5550 -0.3269
  954MOL0     H31583   3.819   7.110   9.083 -0.2465  2.9567 -0.5140
  954MOL0     H31584   3.789   6.917   8.903 -0.3528 -0.0456  0.2685
  954MOL0     H31585   3.501   6.798   8.593 -1.7369  0.0012 -0.5385
  954MOL0     H31586   3.458   6.966   8.609  1.2651  1.2317 -0.1550
  954MOL0     H31587   3.375   6.780   8.852 -1.3097  1.3910  1.2311
  954MOL0     H31588   3.288   6.917   8.788 -1.8032 -2.2617  1.6451
  954MOL0     H31589   3.196   6.801   8.603 -0.9554 -1.4528 -0.2433
  954MOL0     H31590   3.307   6.670   8.604  0.9818  0.0623  0.7845
  954MOL0     H31591   3.208   6.650   8.865 -1.8150  1.8610  0.7741
  954MOL0     H31592   3.067   6.685   8.766  0.5350  0.7618  0.7427
  954MOL0     H31593   3.115   6.435   8.775 -0.7121  0.6695  1.6119
  954MOL0     H31594   3.271   6.467   8.691 -0.8880 -0.9568 -1.3878
  954MOL0     H31595   2.998   6.472   8.595 -0.6054  0.3056 -0.2445
  954MOL0     H31596   3.121   6.566   8.508  0.0025 -0.1217  0.6371
  954MOL0     H31597   3.263   6.369   8.495 -0.1581  1.0436  1.1205
  954MOL0     H31598   3.110   6.358   8.399 -2.0355  0.0389  0.3995
  954MOL0     H31599   3.178   6.222   8.675  1.3451 -1.2513  0.3625
  954MOL0     H31600   3.022   6.218   8.602  1.0905 -0.3148  1.2236
  954MOL0     H31601   3.232   5.975   8.662 -1.8828 -0.0164  0.3768
  954MOL0     H31602   3.264   5.705   8.376 -0.8651  0.2358 -1.0708
  954MOL0     H31603   3.234   5.716   8.549 -2.4495  0.6872 -0.8408
  954MOL0     H31604   3.483   5.822   8.398  1.5366 -1.9855 -0.9930
  954MOL0     H31605   3.464   5.855   8.568  3.6593 -1.1225  0.2449
  954MOL0     H31606   3.470   5.598   8.611  2.2442  2.1813  3.8117
  954MOL0     H31607   3.549   5.583   8.453 -1.6834 -2.1343  2.3869
  954MOL0     H31608   3.631   5.762   8.679  1.6271 -0.5239  0.4775
  954MOL0     H31609   3.700   5.605   8.649  1.1744 -1.0127 -1.6933
  954MOL0     H31610   3.970   5.766   8.384 -2.1086  2.5437 -2.0835
  954MOL0     H31611   4.118   5.949   8.280  1.7716 -3.3213 -1.7250
  954MOL0     H31612   4.243   5.865   8.359  1.3465  0.5228 -2.1794
  954MOL0     H31613   4.216   6.040   8.384  1.5859 -1.4582  0.2333
  954MOL0     H31614   4.315   6.328   8.541 -2.0927 -2.2721  0.5744
  954MOL0     H31615   4.501   6.458   8.589  0.7103 -0.7614  1.8879
  954MOL0     H31616   4.578   6.680   8.674  1.3780  2.3128  0.6851
  954MOL0     H31617   4.462   6.736   8.799  0.0521 -0.8826  2.7152
  954MOL0     H31618   4.742   6.791   8.783  0.0527 -0.0752 -0.3856
  954MOL0     H31619   4.610   6.894   8.835  1.3511  0.6207 -1.7583
  954MOL0     H31620   4.706   6.659   9.014 -1.7554 -0.7861 -0.4329
  954MOL0     H31621   4.592   6.777   9.053  0.6803  2.9079 -0.5008
  954MOL0     H31622   4.762   6.958   9.037  0.6996  0.8732 -0.1304
  954MOL0     H31623   4.870   6.842   8.958 -0.5872 -0.9111 -0.3140
  954MOL0     H31624   4.783   6.825   9.255 -0.4786  0.4703 -0.1325
  954MOL0     H31625   4.880   6.709   9.159 -0.7402  0.1335 -1.5073
  954MOL0     H31626   4.955   6.999   9.218  3.2903  2.3633 -1.7226
  954MOL0     H31627   5.056   6.890   9.135  1.2267  1.7541  1.5510
  954MOL0     H31628   5.060   6.722   9.320  1.6930  0.3955 -1.5402
  954MOL0     H31629   4.987   6.847   9.416 -2.2485 -0.6016 -1.7041
  954MOL0     H31630   5.266   6.853   9.286 -0.7360  2.7823 -2.8037
  954MOL0     H31631   5.207   6.854   9.462 -0.9426  0.7274 -0.1430
  954MOL0     H31632   4.425   6.438   9.014 -1.8439  1.3015 -0.2948
  954MOL0     H31633   4.236   6.271   8.960 -2.3765  0.1006 -0.3721
  954MOL0     H31634   3.956   6.059   8.781  1.6626 -0.7442  1.2389
  954MOL0     H31635   3.753   5.941   8.689 -0.4265  1.9999 -0.8445
  954MOL0     H31636   3.421   7.106   8.794  0.4957 -1.4771  0.1446
  954MOL0     H31637   3.466   7.282   8.949 -3.2085 -2.1989  1.7664
  954MOL0     H31638   3.508   7.494   9.403  0.6142 -2.2227 -0.1748
  954MOL0     H31639   3.602   7.670   9.538  0.3133 -2.4510  1.7178
  954MOL0     H31640   3.882   7.862   9.690 -1.2641  0.1758 -0.4413
  954MOL0     H31641   3.728   7.815   9.638 -0.3323 -0.3591  0.2080
  954MOL0     H31642   3.752   7.587   9.751  1.6722 -0.7817  1.8821
  954MOL0     H31643   3.751   7.733   9.849 -0.8478  0.4962 -1.9556
  954MOL0     H31644   4.002   7.560   9.759  1.6311  0.1430  0.2419
  954MOL0     H31645   4.021   7.714   9.833  1.9181 -1.1269 -1.2734
  954MOL0     H31646   3.908   7.468   9.975 -3.4684  2.0785 -1.0627
  954MOL0     H31647   3.896   7.641  10.020  0.3972 -0.0619 -0.0767
  954MOL0     H31648   4.274   7.569  10.167  0.4775  4.7057 -1.9117
  954MOL0     H31649   3.986   7.604   9.358  1.2600 -4.0699  1.4413
  954MOL0     H31650   3.969   7.566   9.124 -2.3082  2.2582 -1.6069
  954MOL0     H31651   3.961   7.388   9.156  1.8697  1.6606  0.3532
  954MOL0     H31652   3.844   7.476   9.052 -0.9169  0.4043  0.3397
  955MOL0     O31653   2.021   1.723   1.778  1.0740  0.3496 -0.9626
  955MOL0     C31654   2.092   1.811   1.831 -0.3287  0.5988  0.1211
  955MOL0     O31655   2.222   1.795   1.866  0.0018 -0.3656 -0.0312
  955MOL0     C31656   2.300   1.733   1.776  0.8272 -0.8926 -0.3260
  955MOL0     C31657   2.391   1.639   1.819 -0.2821 -0.0864 -0.7629
  955MOL0     C31658   2.483   1.585   1.738  0.0989 -0.6719  0.1261
  955MOL0     C31659   2.506   1.638   1.613  0.2922 -0.4059  0.5134
  955MOL0     O31660   2.607   1.597   1.533 -0.4677 -0.1631  0.6138
  955MOL0     C31661   2.601   1.468   1.473 -0.5042  0.6025  0.6658
  955MOL0     C31662   2.743   1.425   1.434 -0.8248  0.6014  0.0142
  955MOL0     C31663   2.800   1.523   1.331 -0.0411 -0.4500  0.3869
  955MOL0     C31664   2.943   1.477   1.285 -0.4087  0.1519 -0.3273
  955MOL0     C31665   3.016   1.575   1.180  1.0656  0.1898  0.2481
  955MOL0     C31666   3.165   1.561   1.204 -0.7038  0.4671  0.0258
  955MOL0     C31667   3.248   1.654   1.118 -0.0351 -0.4083  0.0211
  955MOL0     C31668   3.393   1.667   1.165 -0.2935 -0.6629 -0.0584
  955MOL0     N31669   3.478   1.559   1.123  0.1811 -0.0115  0.1521
  955MOL0     C31670   3.578   1.559   1.029  1.3695  0.2538 -0.1287
  955MOL0     C31671   3.621   1.432   1.022  0.4760 -0.5181  0.2163
  955MOL0     C31672   3.754   1.394   0.952  0.0221  0.0763 -0.4376
  955MOL0     C31673   3.877   1.417   1.039  0.3237  0.2294 -0.5941
  955MOL0     C31674   4.011   1.407   0.962  0.3671  1.0449  0.8555
  955MOL0     C31675   4.126   1.428   1.045 -0.0068 -0.2691  0.5949
  955MOL0     O31676   4.238   1.406   0.958  0.3594 -0.3155  0.7615
  955MOL0     C31677   4.356   1.462   0.996 -0.1686 -0.1938  0.8516
  955MOL0     C31678   4.454   1.485   0.900 -0.4331 -0.0626 -0.7319
  955MOL0     C31679   4.581   1.532   0.930  0.4785 -0.4124  0.5515
  955MOL0     C31680   4.669   1.541   0.816  0.0084  0.7486 -0.1014
  955MOL0     C31681   4.613   1.575   1.058 -0.8903 -0.1147  0.4368
  955MOL0     C31682   4.742   1.652   1.085  0.1959 -0.3964  0.3210
  955MOL0     O31683   4.862   1.638   1.006  0.3801  0.1259 -0.3824
  955MOL0     C31684   4.980   1.670   1.076  0.0746  0.3514 -0.2496
  955MOL0     C31685   5.013   1.802   1.099 -0.1948  0.3626 -0.9640
  955MOL0     C31686   5.127   1.829   1.166 -0.4885 -0.0448 -0.8002
  955MOL0     C31687   5.208   1.736   1.219 -0.1756 -0.8021  0.1462
  955MOL0     O31688   5.323   1.772   1.289 -0.0043  0.3109  0.2493
  955MOL0     C31689   5.293   1.857   1.393  0.0743  0.4562 -0.6097
  955MOL0     C31690   5.411   1.841   1.487 -0.6487 -0.1834  0.0243
  955MOL0     C31691   5.393   1.935   1.602  0.0119  0.0675  0.0104
  955MOL0     C31692   5.468   2.069   1.578  0.2768 -0.0805 -0.3078
  955MOL0     C31693   5.464   2.153   1.699 -0.2036 -0.3431 -0.1124
  955MOL0     C31694   5.544   2.292   1.663  0.3596 -0.2389  0.2486
  955MOL0     C31695   5.570   2.367   1.787  0.1176 -0.5972 -0.7099
  955MOL0     C31696   5.621   2.504   1.764 -1.0606  0.1964 -0.7270
  955MOL0    Cl31697   5.493   2.610   1.678  0.1877  0.0576  0.0051
  955MOL0     C31698   5.175   1.597   1.199 -0.2057 -0.1012  0.8335
  955MOL0     C31699   5.066   1.564   1.116 -0.4186  0.2000 -0.1334
  955MOL0     O31700   4.731   1.733   1.181  0.1560 -0.3064  0.2907
  955MOL0     C31701   4.516   1.556   1.158  0.5051  0.1646  0.0567
  955MOL0     C31702   4.387   1.502   1.125  0.3392 -0.4335 -0.8240
  955MOL0     N31703   3.545   1.351   1.111 -0.4408  0.3456 -0.5015
  955MOL0     N31704   3.461   1.427   1.178 -0.3375  0.3056 -0.6348
  955MOL0     C31705   2.433   1.753   1.570  0.2303  0.5795  0.5826
  955MOL0     C31706   2.333   1.796   1.653  0.4469  0.2268  0.0617
  955MOL0     C31707   2.014   1.932   1.875 -1.1401 -0.2327  0.3549
  955MOL0     C31708   2.083   2.025   1.959 -0.3820 -0.5092 -0.1200
  955MOL0     C31709   2.023   2.123   2.035 -0.6300  0.7693  0.8792
  955MOL0     C31710   1.900   2.166   1.990 -1.2999 -0.3570  0.0962
  955MOL0     O31711   1.847   2.284   2.030 -0.1395 -0.7721 -0.1284
  955MOL0     C31712   1.787   2.370   1.926  0.1983  0.9089  0.3726
  955MOL0     C31713   1.772   2.520   1.989  0.8329  0.9790  0.8526
  955MOL0     C31714   1.909   2.576   2.022  0.3747 -0.1434  0.3385
  955MOL0     C31715   1.900   2.724   2.065 -0.0044 -0.5259 -0.0090
  955MOL0     C31716   1.824   2.750   2.188 -0.8201  0.6859 -0.3886
  955MOL0     C31717   1.749   2.782   2.276  0.0527 -0.4916 -0.1892
  955MOL0     C31718   1.829   2.087   1.888  0.5220  0.5020 -0.6651
  955MOL0     C31719   1.882   1.968   1.837  0.8125  1.3459 -0.4672
  955MOL0     C31720   1.790   1.896   1.748 -0.8299 -0.2604  0.2663
  955MOL0     H31721   2.389   1.598   1.920 -1.0229 -1.3366 -1.2622
  955MOL0     H31722   2.549   1.503   1.768 -0.5666 -1.7534 -1.2466
  955MOL0     H31723   2.534   1.470   1.387 -3.3793 -1.0739  2.6805
  955MOL0     H31724   2.547   1.401   1.541  1.9309 -2.2500 -0.0158
  955MOL0     H31725   2.806   1.428   1.524  3.4133 -1.8300 -2.5380
  955MOL0     H31726   2.740   1.324   1.392 -4.0091  1.4509 -2.1699
  955MOL0     H31727   2.737   1.512   1.242  1.8623 -0.2433 -1.0594
  955MOL0     H31728   2.809   1.623   1.373  0.0729  0.1160 -0.9428
  955MOL0     H31729   2.991   1.469   1.383 -3.4644 -0.6747  1.2268
  955MOL0     H31730   2.940   1.377   1.239  1.5038  0.2621 -0.7775
  955MOL0     H31731   2.977   1.676   1.194  0.7904  0.0697  0.3679
  955MOL0     H31732   2.998   1.556   1.074  2.4437  1.6124 -0.2837
  955MOL0     H31733   3.202   1.580   1.305 -3.1128 -0.9188  1.2372
  955MOL0     H31734   3.204   1.462   1.182  2.4575  0.1938  5.2459
  955MOL0     H31735   3.202   1.751   1.141 -3.2055 -1.5592 -0.9140
  955MOL0     H31736   3.242   1.643   1.010  0.1591  1.4934 -0.2196
  955MOL0     H31737   3.431   1.762   1.125  1.7306 -2.3909 -2.5344
  955MOL0     H31738   3.397   1.669   1.275 -0.7805 -1.0269 -0.0349
  955MOL0     H31739   3.606   1.651   0.979  0.1740  0.6049 -0.1935
  955MOL0     H31740   3.765   1.455   0.862  1.7591 -0.5911 -0.7181
  955MOL0     H31741   3.749   1.288   0.925  2.3652  0.2231 -1.7315
  955MOL0     H31742   3.868   1.511   1.094 -0.1459  0.1550 -0.5415
  955MOL0     H31743   3.877   1.336   1.113  1.1296 -1.0237 -1.8835
  955MOL0     H31744   4.017   1.307   0.918  0.8394  0.4968  2.1129
  955MOL0     H31745   4.017   1.484   0.884 -1.1091  0.0945 -0.2567
  955MOL0     H31746   4.120   1.526   1.094  1.4966 -0.3266  0.9620
  955MOL0     H31747   4.125   1.356   1.128  0.4289 -0.3198  0.5608
  955MOL0     H31748   4.437   1.455   0.798 -0.2725 -0.4246 -0.6560
  955MOL0     H31749   4.731   1.452   0.822 -0.5159  0.2992 -1.1410
  955MOL0     H31750   4.730   1.632   0.812  1.4007 -0.1541  0.1869
  955MOL0     H31751   4.608   1.551   0.726  0.7319 -0.9538 -0.8070
  955MOL0     H31752   4.939   1.876   1.071 -0.6548  0.2952  0.0340
  955MOL0     H31753   5.158   1.932   1.181 -2.4127  0.1594  2.8302
  955MOL0     H31754   5.285   1.962   1.362  0.7030  1.2278  1.6435
  955MOL0     H31755   5.209   1.817   1.450  1.6500 -1.5666  0.4453
  955MOL0     H31756   5.420   1.741   1.531 -1.6150 -0.4913 -0.4457
  955MOL0     H31757   5.507   1.862   1.439  1.3499 -1.8062  3.0052
  955MOL0     H31758   5.424   1.893   1.697 -0.6320 -0.8245 -0.1566
  955MOL0     H31759   5.287   1.960   1.617 -1.0701 -3.4854 -0.8096
  955MOL0     H31760   5.426   2.118   1.490 -1.2641  0.7078  0.8348
  955MOL0     H31761   5.573   2.045   1.556  0.1318  1.2896 -2.9473
  955MOL0     H31762   5.358   2.176   1.715  0.1703  2.9508 -1.5345
  955MOL0     H31763   5.508   2.102   1.785  2.6713  2.2943  0.1758
  955MOL0     H31764   5.480   2.349   1.595  1.3390  1.2891  0.5729
  955MOL0     H31765   5.633   2.279   1.601  0.2837  2.9085 -0.6949
  955MOL0     H31766   5.630   2.308   1.857 -0.2585 -0.9285 -0.6661
  955MOL0     H31767   5.480   2.395   1.843  0.5894 -0.1290 -0.1657
  955MOL0     H31768   5.715   2.495   1.709  1.1478  0.0358  2.7354
  955MOL0     H31769   5.644   2.548   1.862  0.1858 -0.1735 -0.8358
  955MOL0     H31770   5.237   1.515   1.236  1.5765 -0.0006 -1.6995
  955MOL0     H31771   5.044   1.461   1.092 -0.6053  0.4168 -0.9175
  955MOL0     H31772   4.538   1.573   1.263  2.1168  0.1475 -0.2639
  955MOL0     H31773   4.326   1.488   1.214  1.3193  1.3790  0.1971
  955MOL0     H31774   2.462   1.799   1.476  0.8076  1.5758  1.2438
  955MOL0     H31775   2.279   1.878   1.606 -1.0847  0.2802  1.7922
  955MOL0     H31776   2.189   2.015   1.983 -0.5208  0.3275  0.8737
  955MOL0     H31777   2.078   2.177   2.112  1.9466 -2.1552  1.2697
  955MOL0     H31778   1.839   2.364   1.830 -1.5460 -0.6348 -0.5527
  955MOL0     H31779   1.685   2.336   1.904  0.7439  0.7097 -2.1875
  955MOL0     H31780   1.716   2.507   2.082  0.1942 -0.4760  0.3024
  955MOL0     H31781   1.717   2.580   1.917  0.1292  0.0655  0.6004
  955MOL0     H31782   1.939   2.527   2.115  1.0090  1.9564  1.2877
  955MOL0     H31783   1.985   2.560   1.944 -2.2680  0.2288 -2.5021
  955MOL0     H31784   1.846   2.777   1.986 -0.8322  0.6527  1.3106
  955MOL0     H31785   1.993   2.779   2.082 -0.1871  0.0137 -0.6835
  955MOL0     H31786   1.673   2.812   2.346 -0.6090  0.7313 -1.3845
  955MOL0     H31787   1.730   2.128   1.869  1.8283  4.1377 -0.4034
  955MOL0     H31788   1.711   1.961   1.707 -1.2410  0.4438  2.0807
  955MOL0     H31789   1.843   1.859   1.660 -0.2745  2.8499 -0.8186
  955MOL0     H31790   1.745   1.816   1.807  3.4032 -1.0183  2.8121
  956MOL0     O31791   5.386   1.924   7.509 -0.5313  0.0470  0.0648
  956MOL0     C31792   5.379   1.813   7.471  0.3399 -0.8740  0.0207
  956MOL0     O31793   5.474   1.747   7.408 -0.1509  0.4984  0.7137
  956MOL0     C31794   5.601   1.794   7.421 -0.5853  0.0638 -0.0146
  956MOL0     C31795   5.641   1.909   7.358  0.2450 -0.5976  0.5230
  956MOL0     C31796   5.775   1.952   7.364 -0.8554  0.2091  0.0785
  956MOL0     C31797   5.879   1.871   7.429  0.2294  0.7835  0.0505
  956MOL0     O31798   6.009   1.912   7.408  0.5502  0.2116 -0.0741
  956MOL0     C31799   6.084   1.913   7.526  0.7428 -0.3245  0.3793
  956MOL0     C31800   6.192   2.026   7.510 -0.2631  0.4925  0.3978
  956MOL0     C31801   6.193   2.117   7.637 -0.2363 -0.7175 -0.3473
  956MOL0     C31802   6.283   2.242   7.625 -0.0108  0.5012  0.8342
  956MOL0     C31803   6.300   2.345   7.743  0.3351  0.3345  0.3148
  956MOL0     C31804   6.399   2.458   7.713 -0.5446 -0.2266 -0.1804
  956MOL0     C31805   6.391   2.578   7.807 -0.2452  0.0659 -0.7556
  956MOL0     C31806   6.416   2.539   7.954  0.7943 -0.6045  1.0320
  956MOL0     N31807   6.324   2.452   8.025  0.2146 -0.2238  0.0271
  956MOL0     C31808   6.185   2.468   8.041 -0.4196 -0.2632  0.5653
  956MOL0     C31809   6.153   2.385   8.142 -0.7488 -0.8376  0.3328
  956MOL0     C31810   6.016   2.376   8.199  1.0924 -0.1048  0.1060
  956MOL0     C31811   5.937   2.269   8.133  0.5078  0.2794  0.2403
  956MOL0     C31812   5.873   2.318   7.997  0.2149  0.6823 -0.4884
  956MOL0     C31813   5.740   2.256   7.950 -0.2530  0.4156 -1.0214
  956MOL0     O31814   5.632   2.319   8.023  0.4624 -0.8262 -0.0616
  956MOL0     C31815   5.500   2.309   7.980 -0.8538  0.1992 -0.0971
  956MOL0     C31816   5.418   2.405   8.028 -0.0513 -0.9562 -0.2604
  956MOL0     C31817   5.276   2.410   7.989  0.2824  0.2679  0.2240
  956MOL0     C31818   5.208   2.537   8.033 -0.4879 -0.0050 -0.3286
  956MOL0     C31819   5.213   2.303   7.921 -0.7900 -0.1386 -0.2735
  956MOL0     C31820   5.063   2.295   7.887  0.0304 -0.1184  0.1495
  956MOL0     O31821   5.034   2.184   7.803 -0.1408  0.0439 -0.6415
  956MOL0     C31822   4.906   2.159   7.798  0.3128 -0.2493  0.3271
  956MOL0     C31823   4.819   2.242   7.725  0.5970  0.5270  1.2034
  956MOL0     C31824   4.686   2.215   7.691  0.4541  0.2366 -0.0104
  956MOL0     C31825   4.622   2.116   7.760 -0.8524  0.2519 -0.5138
  956MOL0     O31826   4.482   2.093   7.731 -0.1800  0.8435  0.5774
  956MOL0     C31827   4.404   1.987   7.793  0.6144  0.2017 -1.2895
  956MOL0     C31828   4.271   1.954   7.733  0.3024 -0.9595  0.5576
  956MOL0     C31829   4.178   2.084   7.737  0.5134  1.0307 -0.0048
  956MOL0     C31830   4.063   2.084   7.632  0.2365 -0.8091  0.6615
  956MOL0     C31831   3.979   2.216   7.626  0.6188  0.4842  1.0754
  956MOL0     C31832   3.887   2.217   7.503  0.0979 -0.9884 -0.6283
  956MOL0     C31833   3.825   2.360   7.483  0.1705  0.4765  0.2842
  956MOL0     C31834   3.780   2.427   7.615  0.1650 -0.2822  0.3413
  956MOL0    Cl31835   3.663   2.559   7.585 -0.1336  0.0104  0.1309
  956MOL0     C31836   4.703   2.032   7.846 -0.2044  0.9414 -0.4756
  956MOL0     C31837   4.843   2.052   7.853 -0.2247  0.4539 -0.5048
  956MOL0     O31838   4.979   2.363   7.954  0.2210 -0.5768  0.5650
  956MOL0     C31839   5.309   2.203   7.875  0.6338  0.0336  0.5009
  956MOL0     C31840   5.446   2.206   7.898  0.4871 -1.0108  0.1226
  956MOL0     N31841   6.265   2.305   8.177 -0.2519  0.0540  0.2087
  956MOL0     N31842   6.358   2.341   8.097 -0.1588 -0.0083 -0.3459
  956MOL0     C31843   5.827   1.752   7.494  0.1185 -0.3864 -0.6385
  956MOL0     C31844   5.698   1.715   7.492  0.3349 -0.2130 -0.0934
  956MOL0     C31845   5.237   1.757   7.464  0.3793 -0.4494  0.5053
  956MOL0     C31846   5.201   1.656   7.370 -0.6525  0.5172 -0.2949
  956MOL0     C31847   5.078   1.604   7.352  0.6543 -0.3397  0.2652
  956MOL0     C31848   4.971   1.654   7.431 -0.5243 -0.3704  0.3192
  956MOL0     O31849   4.833   1.628   7.422 -0.1980 -0.6086  0.1277
  956MOL0     C31850   4.770   1.643   7.290 -0.4630  0.1576 -0.3910
  956MOL0     C31851   4.617   1.645   7.296 -0.8148  0.3973 -0.0814
  956MOL0     C31852   4.559   1.769   7.370  0.6672  0.1027  0.5806
  956MOL0     C31853   4.407   1.756   7.380 -0.4585  0.0115 -0.8608
  956MOL0     C31854   4.353   1.663   7.486  0.1051  0.8193 -0.1845
  956MOL0     C31855   4.303   1.579   7.559 -0.2750 -0.5127 -0.5687
  956MOL0     C31856   5.004   1.748   7.526 -0.1143 -0.6882 -0.5866
  956MOL0     C31857   5.131   1.802   7.548 -0.2711  0.4862  0.2869
  956MOL0     C31858   5.145   1.916   7.646 -0.2927  0.2293  0.2227
  956MOL0     H31859   5.571   1.976   7.308 -2.6213 -2.1629  2.1899
  956MOL0     H31860   5.811   2.037   7.306  2.5627 -0.4116  1.0876
  956MOL0     H31861   6.129   1.814   7.537 -2.6892 -2.3068 -1.6392
  956MOL0     H31862   6.014   1.939   7.607 -3.7053 -0.8319 -2.9418
  956MOL0     H31863   6.290   1.980   7.491 -0.5795 -0.1320  0.2422
  956MOL0     H31864   6.172   2.080   7.417  2.1251  1.6766  0.4703
  956MOL0     H31865   6.095   2.160   7.655 -0.2688  1.1727 -4.1686
  956MOL0     H31866   6.223   2.053   7.722 -3.2288 -0.8372  0.7199
  956MOL0     H31867   6.378   2.194   7.603 -0.3424 -0.2288  0.9456
  956MOL0     H31868   6.257   2.303   7.538 -0.9366 -1.3505 -0.2520
  956MOL0     H31869   6.335   2.289   7.830  0.0787 -0.9967 -0.4142
  956MOL0     H31870   6.201   2.385   7.766 -0.7666 -2.2449  0.4521
  956MOL0     H31871   6.497   2.409   7.716 -1.5953 -2.6469 -2.2135
  956MOL0     H31872   6.373   2.498   7.615  1.4997  2.9379  0.4292
  956MOL0     H31873   6.298   2.633   7.794 -0.3574  0.7703  2.3084
  956MOL0     H31874   6.462   2.658   7.782 -1.7547  3.2226  3.8097
  956MOL0     H31875   6.514   2.490   7.955  2.9646  3.1028 -1.6702
  956MOL0     H31876   6.431   2.634   8.005 -1.0789  0.4322 -0.2730
  956MOL0     H31877   6.117   2.531   7.984 -1.5733 -0.7745  1.3407
  956MOL0     H31878   5.955   2.466   8.199  0.1925 -0.6862  0.9681
  956MOL0     H31879   6.027   2.349   8.305 -0.4799  0.9361  0.5722
  956MOL0     H31880   6.005   2.186   8.110  1.1570  0.8683 -0.0076
  956MOL0     H31881   5.855   2.241   8.199  0.4830 -1.2161 -0.3753
  956MOL0     H31882   5.863   2.426   8.010 -1.7728  0.4458  0.3309
  956MOL0     H31883   5.957   2.294   7.931  3.3601  3.3700  2.1958
  956MOL0     H31884   5.738   2.277   7.843 -0.5746 -0.5564 -1.2191
  956MOL0     H31885   5.747   2.148   7.963  0.3720  0.4746 -0.8644
  956MOL0     H31886   5.456   2.486   8.090 -0.3995  0.0029 -1.2607
  956MOL0     H31887   5.112   2.551   7.981  0.3310 -0.6627 -2.0937
  956MOL0     H31888   5.269   2.623   8.006 -1.9647  1.5368  0.9718
  956MOL0     H31889   5.200   2.533   8.142 -0.0770  1.1135 -0.2523
  956MOL0     H31890   4.853   2.325   7.663 -2.2763  2.5523  2.1411
  956MOL0     H31891   4.627   2.278   7.625 -0.3263  1.2964  1.6273
  956MOL0     H31892   4.458   1.892   7.787  0.0737 -0.0514 -2.3304
  956MOL0     H31893   4.386   2.022   7.895  2.4105 -2.0162 -0.1166
  956MOL0     H31894   4.290   1.927   7.628 -0.0508 -0.5367  0.3821
  956MOL0     H31895   4.235   1.860   7.775 -1.9716 -0.2946  0.2416
  956MOL0     H31896   4.232   2.174   7.707  1.4443  0.2593 -0.7328
  956MOL0     H31897   4.143   2.101   7.839 -1.9606 -0.9066 -0.4439
  956MOL0     H31898   4.009   1.991   7.649 -0.4499 -0.5616 -0.0888
  956MOL0     H31899   4.108   2.069   7.533  1.7343 -1.1223  1.3549
  956MOL0     H31900   3.913   2.210   7.714  1.6232 -2.0504  1.7630
  956MOL0     H31901   4.040   2.306   7.630 -0.1655  1.1016 -0.2230
  956MOL0     H31902   3.807   2.144   7.520 -2.1013  1.3817 -0.1283
  956MOL0     H31903   3.955   2.189   7.422  1.6650 -2.4319  1.1067
  956MOL0     H31904   3.746   2.347   7.409  2.0145 -3.0907 -1.3046
  956MOL0     H31905   3.903   2.426   7.442  0.0097  1.9031  2.1391
  956MOL0     H31906   3.870   2.459   7.670  1.1894 -2.1181 -0.1879
  956MOL0     H31907   3.736   2.355   7.685 -0.6953 -0.8386 -0.7598
  956MOL0     H31908   4.650   1.959   7.907 -0.1886  1.5872  0.3202
  956MOL0     H31909   4.911   1.987   7.907 -0.0339  1.8376  1.0393
  956MOL0     H31910   5.270   2.110   7.837 -0.2170  0.3551  0.5626
  956MOL0     H31911   5.512   2.134   7.851  3.6515  1.5944  0.2187
  956MOL0     H31912   5.894   1.689   7.552 -0.1220 -0.9888 -1.0018
  956MOL0     H31913   5.678   1.617   7.535 -0.6237  0.4931  1.1201
  956MOL0     H31914   5.282   1.624   7.306 -0.4092 -0.4466  0.4820
  956MOL0     H31915   5.056   1.524   7.281 -1.0865  1.9147 -1.8985
  956MOL0     H31916   4.808   1.730   7.235  0.3652 -0.6904 -1.1998
  956MOL0     H31917   4.805   1.560   7.228  3.1212  0.9188  0.4281
  956MOL0     H31918   4.584   1.560   7.356  0.5515  1.6676  2.6145
  956MOL0     H31919   4.569   1.640   7.197  1.2008 -1.0378 -1.0547
  956MOL0     H31920   4.605   1.779   7.469 -0.2229  1.7069  0.8693
  956MOL0     H31921   4.595   1.853   7.309  2.4294  0.4221  1.9577
  956MOL0     H31922   4.361   1.718   7.288 -0.7486 -0.1107 -0.6695
  956MOL0     H31923   4.353   1.848   7.405  3.4154  1.9594  1.2696
  956MOL0     H31924   4.248   1.509   7.619 -0.7709  0.1555 -0.2364
  956MOL0     H31925   4.923   1.788   7.586 -1.1179 -1.0599 -1.6471
  956MOL0     H31926   5.044   1.952   7.666  0.0249  2.1008 -1.2619
  956MOL0     H31927   5.203   1.886   7.734  0.4433  0.5737 -0.1351
  956MOL0     H31928   5.194   2.000   7.596 -0.2983  1.7368  2.5963
  957MOL0     O31929   6.637   5.082   6.633  0.8660 -0.2231  0.1041
  957MOL0     C31930   6.602   5.145   6.540  0.4098 -0.8294  0.6372
  957MOL0     O31931   6.667   5.249   6.492 -0.4455 -0.6944 -0.8617
  957MOL0     C31932   6.760   5.326   6.570  0.3242 -0.1135  1.0694
  957MOL0     C31933   6.739   5.372   6.699 -0.2734 -0.1193  0.8444
  957MOL0     C31934   6.831   5.451   6.758 -0.5057 -0.3772  1.0121
  957MOL0     C31935   6.941   5.500   6.695  0.8474  0.3570 -0.8816
  957MOL0     O31936   7.029   5.585   6.753  0.3181 -0.1110 -0.3594
  957MOL0     C31937   7.143   5.530   6.817 -0.2847  0.2035  0.8643
  957MOL0     C31938   7.224   5.629   6.904 -0.3144 -0.5346  0.2036
  957MOL0     C31939   7.360   5.569   6.947 -0.6370 -0.4143 -0.3260
  957MOL0     C31940   7.410   5.636   7.082 -0.3285 -0.1959 -0.5444
  957MOL0     C31941   7.522   5.557   7.152  0.2186  0.2565 -0.3708
  957MOL0     C31942   7.594   5.651   7.243 -0.7000 -0.1543 -0.3189
  957MOL0     C31943   7.712   5.581   7.312  0.0901  0.0077 -0.2603
  957MOL0     C31944   7.764   5.664   7.432 -0.0132 -0.7081  0.1648
  957MOL0     N31945   7.835   5.568   7.518 -0.9236 -0.3615  0.1998
  957MOL0     C31946   7.963   5.530   7.497  0.3987  0.4561 -0.2006
  957MOL0     C31947   7.999   5.445   7.590  0.6349  0.5217 -0.2186
  957MOL0     C31948   8.129   5.364   7.597 -0.2156  0.3703 -0.1487
  957MOL0     C31949   8.158   5.314   7.741  0.8613  0.5068 -0.4506
  957MOL0     C31950   8.196   5.441   7.814 -0.8585 -0.0847 -0.0676
  957MOL0     C31951   8.236   5.399   7.957  0.3743 -0.4582 -0.7663
  957MOL0     O31952   8.317   5.513   8.011  0.4521  0.1319  0.2311
  957MOL0     C31953   8.450   5.522   8.010 -0.7999  0.0998 -0.3638
  957MOL0     C31954   8.532   5.441   7.911  0.5694 -0.3876  0.1387
  957MOL0     C31955   8.673   5.463   7.890  0.9630 -0.4719 -0.6202
  957MOL0     C31956   8.736   5.386   7.784 -0.1710  0.3910  0.9394
  957MOL0     C31957   8.737   5.559   7.979 -0.1983  0.6872  0.2736
  957MOL0     C31958   8.888   5.587   7.975 -0.0295 -0.6045 -0.6677
  957MOL0     O31959   8.958   5.542   7.873  0.2643 -0.3990  0.6969
  957MOL0     C31960   9.094   5.555   7.861 -0.1070 -0.3991 -0.1385
  957MOL0     C31961   9.156   5.442   7.826  0.0774  1.2664 -0.1998
  957MOL0     C31962   9.293   5.442   7.799 -0.1927  1.5816  0.0243
  957MOL0     C31963   9.371   5.557   7.820  0.2357  0.6508  1.3514
  957MOL0     O31964   9.503   5.549   7.772 -0.7475 -0.1629 -0.5147
  957MOL0     C31965   9.584   5.434   7.741  0.5065 -0.0330 -0.6456
  957MOL0     C31966   9.723   5.473   7.765  0.9143  0.8567  0.7261
  957MOL0     C31967   9.788   5.570   7.664 -1.0950  0.0191 -0.2000
  957MOL0     C31968   9.917   5.513   7.597 -0.3253  0.1554 -0.0360
  957MOL0     C31969  10.006   5.621   7.528  0.1922  0.4374  0.1750
  957MOL0     C31970   9.934   5.709   7.416  0.6010  0.0479  0.1081
  957MOL0     C31971   9.837   5.636   7.311 -0.0651 -0.2411 -0.2685
  957MOL0     C31972   9.916   5.555   7.206  1.1962 -0.4577  0.4803
  957MOL0    Cl31973  10.057   5.646   7.138 -0.2254 -0.1317 -0.4240
  957MOL0     C31974   9.304   5.673   7.852 -0.0658 -0.6030 -0.0399
  957MOL0     C31975   9.166   5.672   7.875  0.1072  0.1971  0.0820
  957MOL0     O31976   8.927   5.664   8.064 -0.2502 -0.4387  0.0676
  957MOL0     C31977   8.646   5.636   8.065 -0.1853  0.1420 -0.0521
  957MOL0     C31978   8.513   5.612   8.087  0.3607 -0.9326  0.4175
  957MOL0     N31979   7.884   5.427   7.666 -0.7026 -0.5866 -0.4204
  957MOL0     N31980   7.783   5.500   7.622  0.0097  0.4754 -0.1775
  957MOL0     C31981   6.960   5.458   6.556 -0.0231 -0.1440  0.2830
  957MOL0     C31982   6.867   5.380   6.493 -0.5427  0.2562 -0.0544
  957MOL0     C31983   6.485   5.098   6.465  0.2681  0.0208  1.2021
  957MOL0     C31984   6.460   5.159   6.334  1.0471  0.2875 -0.1528
  957MOL0     C31985   6.343   5.137   6.261 -0.3723  0.7551  0.4073
  957MOL0     C31986   6.272   5.021   6.292  0.3250  0.0303  0.6738
  957MOL0     O31987   6.163   4.979   6.212  0.3828 -0.3744  0.4758
  957MOL0     C31988   6.045   4.927   6.276 -0.2079  0.6888  0.9786
  957MOL0     C31989   5.928   4.952   6.189  0.0042  0.6845 -0.0004
  957MOL0     C31990   5.875   5.101   6.191 -0.4252  0.3210 -0.0675
  957MOL0     C31991   5.862   5.165   6.055 -0.3745 -0.2665  0.4822
  957MOL0     C31992   5.818   5.304   6.074 -0.0665 -0.8612  0.2563
  957MOL0     C31993   5.778   5.425   6.081  0.9486 -0.1882  0.6164
  957MOL0     C31994   6.313   4.940   6.403 -0.1469 -0.0137 -0.2462
  957MOL0     C31995   6.415   4.976   6.491  0.0071 -0.8834  0.5905
  957MOL0     C31996   6.447   4.867   6.596  0.4268 -0.5793  0.0480
  957MOL0     H31997   6.654   5.325   6.748  0.3552 -1.2775  0.8518
  957MOL0     H31998   6.826   5.466   6.865  1.8430  3.0682  0.8240
  957MOL0     H31999   7.217   5.505   6.740 -0.4214  0.9186  0.4978
  957MOL0     H32000   7.114   5.438   6.870  0.4832 -1.2578 -1.1179
  957MOL0     H32001   7.227   5.711   6.832 -1.7566 -2.6487 -2.4374
  957MOL0     H32002   7.175   5.669   6.993  0.4741 -0.5040  0.6296
  957MOL0     H32003   7.363   5.460   6.956 -0.1691 -0.5128 -1.4746
  957MOL0     H32004   7.429   5.597   6.867 -0.8421  1.4746  0.1175
  957MOL0     H32005   7.439   5.737   7.052  1.7962 -0.7590 -0.4909
  957MOL0     H32006   7.327   5.643   7.153 -1.4631 -2.8712 -1.4799
  957MOL0     H32007   7.590   5.514   7.078  0.8794  0.0180  0.3632
  957MOL0     H32008   7.481   5.481   7.221  0.1495  1.4404  0.9381
  957MOL0     H32009   7.638   5.734   7.187  2.8415 -1.1067  0.8085
  957MOL0     H32010   7.527   5.694   7.318 -1.6541  0.9574 -1.7628
  957MOL0     H32011   7.796   5.563   7.244 -0.1157 -0.6331 -0.3548
  957MOL0     H32012   7.687   5.480   7.345  3.3779 -0.1204  2.3210
  957MOL0     H32013   7.831   5.745   7.401  0.5560 -1.3172 -0.2325
  957MOL0     H32014   7.682   5.713   7.485  1.1913  2.7645 -0.8929
  957MOL0     H32015   8.029   5.559   7.415  1.5472  0.2327  0.6164
  957MOL0     H32016   8.214   5.409   7.547 -0.4683 -0.3226 -1.2536
  957MOL0     H32017   8.104   5.272   7.543  0.8769 -0.6799  1.0624
  957MOL0     H32018   8.070   5.267   7.787 -1.1855  1.1379 -3.4404
  957MOL0     H32019   8.250   5.256   7.733 -0.0097 -0.9116 -0.6135
  957MOL0     H32020   8.276   5.485   7.753 -2.2586 -1.3100 -3.0321
  957MOL0     H32021   8.120   5.519   7.805  2.0279  3.3047  2.0053
  957MOL0     H32022   8.146   5.382   8.015 -0.5389  2.1442 -1.2619
  957MOL0     H32023   8.286   5.302   7.967 -0.8309 -0.9586  0.7262
  957MOL0     H32024   8.478   5.373   7.847 -0.8278  1.5637 -0.8517
  957MOL0     H32025   8.673   5.310   7.738  0.7677  0.5700 -0.7051
  957MOL0     H32026   8.821   5.330   7.824 -0.5584  0.4408  1.8795
  957MOL0     H32027   8.755   5.453   7.700 -2.8343  0.4741  0.3036
  957MOL0     H32028   9.100   5.351   7.807  0.2712  0.1386  3.7856
  957MOL0     H32029   9.334   5.360   7.741 -0.9662 -0.3618  2.0820
  957MOL0     H32030   9.571   5.348   7.807  1.0422  1.2901  1.2704
  957MOL0     H32031   9.571   5.404   7.637  1.4697  0.0034 -0.7833
  957MOL0     H32032   9.748   5.512   7.864  4.3974 -1.6578  1.0304
  957MOL0     H32033   9.780   5.380   7.762  4.2804  2.7823 -0.2024
  957MOL0     H32034   9.799   5.672   7.704  0.2305 -0.3897  0.5252
  957MOL0     H32035   9.730   5.581   7.572 -0.3630 -2.2318 -0.9753
  957MOL0     H32036   9.892   5.447   7.513  0.4208  1.0417 -0.9661
  957MOL0     H32037   9.977   5.456   7.668  2.3691 -0.1858 -2.4262
  957MOL0     H32038  10.053   5.695   7.594  0.9955  1.2096 -1.2186
  957MOL0     H32039  10.090   5.573   7.477  0.0004  1.5026 -1.2155
  957MOL0     H32040  10.006   5.765   7.355 -2.8088  2.3776 -2.1774
  957MOL0     H32041   9.877   5.786   7.470 -0.7468 -0.1652 -0.9448
  957MOL0     H32042   9.782   5.717   7.262 -1.0062 -0.5838  0.1975
  957MOL0     H32043   9.766   5.565   7.354  2.2495 -3.6540 -1.5511
  957MOL0     H32044   9.843   5.536   7.127  0.7388 -1.7954  1.1948
  957MOL0     H32045   9.941   5.454   7.240  0.2207 -0.1413  2.2558
  957MOL0     H32046   9.361   5.765   7.865 -1.2347  0.4327 -1.7809
  957MOL0     H32047   9.124   5.769   7.901 -0.4656 -0.4786  1.8051
  957MOL0     H32048   8.694   5.718   8.118 -0.5141 -1.5516  3.1169
  957MOL0     H32049   8.460   5.676   8.157  4.6515  1.2797  1.9524
  957MOL0     H32050   7.041   5.506   6.501 -0.6027 -0.0587 -0.5135
  957MOL0     H32051   6.874   5.359   6.387  0.1620 -2.0649  0.3772
  957MOL0     H32052   6.522   5.241   6.301  1.9868 -0.3179  0.0844
  957MOL0     H32053   6.314   5.204   6.180 -2.8883  0.9787  1.4053
  957MOL0     H32054   6.052   4.820   6.299  0.5623  0.7294  0.9661
  957MOL0     H32055   6.029   4.970   6.375 -4.0893  0.3719  0.6060
  957MOL0     H32056   5.847   4.890   6.228  1.5518 -2.7333 -1.7712
  957MOL0     H32057   5.941   4.912   6.088 -0.4192  0.0520  0.1922
  957MOL0     H32058   5.782   5.092   6.248 -0.8681 -2.6242 -1.0741
  957MOL0     H32059   5.950   5.160   6.245 -1.5479  2.3903 -0.6976
  957MOL0     H32060   5.790   5.111   5.993  0.4933 -0.4076 -0.4293
  957MOL0     H32061   5.961   5.171   6.007  1.9921 -3.0110  4.3999
  957MOL0     H32062   5.747   5.527   6.071  0.4762 -0.4716 -1.2567
  957MOL0     H32063   6.266   4.844   6.421  0.2888 -0.0272  0.9231
  957MOL0     H32064   6.380   4.785   6.569  0.5830 -2.1351  3.7389
  957MOL0     H32065   6.548   4.827   6.609  0.5823 -0.3004 -0.2903
  957MOL0     H32066   6.422   4.909   6.694  3.1839 -2.9125  1.9462
  958MOL0     O32067   6.121   8.899   7.103  0.2106  1.1272  0.3381
  958MOL0     C32068   6.161   8.887   7.219  0.0593 -0.5700  0.9348
  958MOL0     O32069   6.286   8.882   7.253 -0.7674  0.0513 -0.2030
  958MOL0     C32070   6.375   8.890   7.148  0.1592 -0.2245  0.3442
  958MOL0     C32071   6.385   8.796   7.042  0.1053  0.3075  0.3559
  958MOL0     C32072   6.477   8.823   6.942 -0.4223 -0.1081  0.3235
  958MOL0     C32073   6.565   8.938   6.946 -0.9747 -0.3458  1.5838
  958MOL0     O32074   6.640   8.983   6.842  0.8389  0.0725  0.6414
  958MOL0     C32075   6.674   8.883   6.737  0.0686 -0.7685  0.0792
  958MOL0     C32076   6.762   8.942   6.621  0.3660 -0.0502  0.3831
  958MOL0     C32077   6.700   9.069   6.564 -0.2073  0.0080  0.0013
  958MOL0     C32078   6.787   9.146   6.462  0.2819 -0.3754  0.5580
  958MOL0     C32079   6.825   9.062   6.338  0.3200  0.1255  0.7652
  958MOL0     C32080   6.961   9.105   6.286 -0.4899 -0.0486 -0.5563
  958MOL0     C32081   6.957   9.241   6.228  0.8162 -0.1038  0.6795
  958MOL0     C32082   7.095   9.278   6.178 -0.8855 -1.2873 -0.2915
  958MOL0     N32083   7.094   9.403   6.108  0.1974  0.7117 -0.5097
  958MOL0     C32084   7.053   9.426   5.980 -0.9817 -0.1688 -0.1779
  958MOL0     C32085   7.073   9.560   5.982 -0.2084  0.9429  0.6915
  958MOL0     C32086   7.039   9.649   5.870  0.7285 -0.6270 -0.4855
  958MOL0     C32087   7.154   9.642   5.768  0.4796 -0.7599  0.6442
  958MOL0     C32088   7.275   9.725   5.816 -0.2400 -0.6684  0.3348
  958MOL0     C32089   7.380   9.754   5.708 -0.3649  0.1783 -0.0137
  958MOL0     O32090   7.506   9.807   5.752 -0.6455 -0.1211  0.5341
  958MOL0     C32091   7.598   9.825   5.651  0.6562 -1.0115 -0.0628
  958MOL0     C32092   7.595   9.938   5.560  1.4885  0.0149  0.2117
  958MOL0     C32093   7.705   9.967   5.477 -1.2463 -0.5778  0.0375
  958MOL0     C32094   7.690  10.097   5.403 -0.2835 -1.0096  0.4543
  958MOL0     C32095   7.823   9.880   5.474  0.4680 -0.6761  0.4750
  958MOL0     C32096   7.936   9.897   5.375 -0.1588  0.2500 -0.4257
  958MOL0     O32097   8.047   9.821   5.401 -0.4862  0.3124 -0.0680
  958MOL0     C32098   8.170   9.831   5.337 -0.9936  0.3154  1.0640
  958MOL0     C32099   8.253   9.710   5.325  0.3608 -0.0715  0.2387
  958MOL0     C32100   8.383   9.714   5.269 -0.0381 -0.0920 -0.0251
  958MOL0     C32101   8.428   9.838   5.213 -0.0106  0.1793 -0.2934
  958MOL0     O32102   8.555   9.858   5.163  0.3659  0.6880 -0.5443
  958MOL0     C32103   8.661   9.804   5.235 -0.0353  1.6475  0.1011
  958MOL0     C32104   8.782   9.783   5.147 -0.3379 -0.6223  0.0271
  958MOL0     C32105   8.897   9.741   5.233 -0.1981 -0.6869  0.3784
  958MOL0     C32106   9.026   9.725   5.155  0.2048  0.3975  0.5935
  958MOL0     C32107   9.126   9.632   5.220  0.4843  0.4246  0.6969
  958MOL0     C32108   9.180   9.515   5.131  0.2681  0.3264  0.3061
  958MOL0     C32109   9.246   9.554   5.004  0.0241  0.0768  0.3639
  958MOL0     C32110   9.333   9.440   4.939  0.4237 -1.3886 -0.3277
  958MOL0    Cl32111   9.262   9.278   4.950  0.5223  0.2697  0.1236
  958MOL0     C32112   8.348   9.953   5.221  0.1600 -0.1223  0.7914
  958MOL0     C32113   8.223   9.948   5.283  0.5100 -0.9614 -0.5647
  958MOL0     O32114   7.911   9.962   5.272  0.3678  1.7995 -0.1126
  958MOL0     C32115   7.828   9.776   5.567 -0.3659  1.0039 -0.3640
  958MOL0     C32116   7.710   9.752   5.648 -0.8313 -0.2830  0.7752
  958MOL0     N32117   7.125   9.611   6.104 -0.7845  1.1338  0.4064
  958MOL0     N32118   7.135   9.513   6.179 -0.2421  0.0146  0.3497
  958MOL0     C32119   6.573   9.009   7.059  0.5944 -0.7562  0.1840
  958MOL0     C32120   6.486   8.984   7.164  0.0214 -0.2210  0.5260
  958MOL0     C32121   6.058   8.887   7.328  0.8990  0.8255 -0.2607
  958MOL0     C32122   6.103   8.924   7.463 -0.8215 -0.4479 -0.0304
  958MOL0     C32123   6.001   8.950   7.559 -0.4212  0.7233  0.1273
  958MOL0     C32124   5.869   8.935   7.534 -0.3164  1.0103  0.5218
  958MOL0     O32125   5.777   8.945   7.643 -0.0603 -0.3953 -0.6760
  958MOL0     C32126   5.734   8.825   7.705  0.1037 -0.0579  0.1529
  958MOL0     C32127   5.597   8.844   7.755 -0.7945 -0.4211 -0.2145
  958MOL0     C32128   5.549   8.700   7.810  0.5085 -0.2068 -0.4225
  958MOL0     C32129   5.418   8.712   7.893 -0.7812  0.4352  0.0303
  958MOL0     C32130   5.368   8.576   7.923  0.0855  0.4483 -0.1200
  958MOL0     C32131   5.320   8.466   7.925  0.0994  0.5719 -0.3673
  958MOL0     C32132   5.822   8.897   7.408  0.5510  0.0678 -0.3205
  958MOL0     C32133   5.914   8.876   7.306  0.6326 -0.5182  0.1148
  958MOL0     C32134   5.860   8.825   7.176 -0.1881 -0.1539 -0.4254
  958MOL0     H32135   6.330   8.703   7.047  0.5788  0.0299  0.5212
  958MOL0     H32136   6.480   8.754   6.858 -1.6700 -1.9914  1.7518
  958MOL0     H32137   6.588   8.849   6.678  1.3390  1.1753 -3.1424
  958MOL0     H32138   6.725   8.796   6.780  1.7481  1.6381  3.4164
  958MOL0     H32139   6.865   8.962   6.654  0.5392  1.5529 -0.9717
  958MOL0     H32140   6.766   8.868   6.540 -0.5493 -0.4552  0.7017
  958MOL0     H32141   6.605   9.059   6.510  0.5488  0.4473 -1.4735
  958MOL0     H32142   6.694   9.136   6.650 -1.1683  1.1621 -0.9260
  958MOL0     H32143   6.730   9.228   6.418 -1.8834 -2.8636 -1.6691
  958MOL0     H32144   6.876   9.174   6.519  0.3709 -0.4060  0.4324
  958MOL0     H32145   6.747   9.082   6.264 -0.9075 -1.5687  1.5661
  958MOL0     H32146   6.809   8.957   6.363 -1.2212  0.2183  0.2634
  958MOL0     H32147   7.037   9.099   6.365  1.1372  0.4587 -2.0293
  958MOL0     H32148   6.979   9.030   6.209 -1.0292 -1.0581  0.2759
  958MOL0     H32149   6.921   9.313   6.302 -0.2357 -0.0779  0.1655
  958MOL0     H32150   6.894   9.232   6.139  0.2728 -1.4174  1.1716
  958MOL0     H32151   7.157   9.294   6.266 -2.2638 -1.0165  0.6666
  958MOL0     H32152   7.126   9.197   6.111  0.9297  1.8321 -3.5508
  958MOL0     H32153   7.014   9.355   5.907  1.0781 -2.7045  0.9894
  958MOL0     H32154   7.018   9.751   5.904 -1.4024 -0.5627 -1.7959
  958MOL0     H32155   6.946   9.619   5.820 -0.4697 -0.0295  1.2649
  958MOL0     H32156   7.186   9.541   5.742  1.5117  0.3781 -3.2247
  958MOL0     H32157   7.104   9.674   5.676  2.8608 -1.4919 -1.0032
  958MOL0     H32158   7.240   9.821   5.856 -2.0773 -1.0971 -0.1166
  958MOL0     H32159   7.326   9.668   5.895 -1.3457 -0.8498  0.9441
  958MOL0     H32160   7.405   9.659   5.661  3.4081  0.0672  1.7752
  958MOL0     H32161   7.352   9.813   5.621 -0.4729 -2.0519 -1.5855
  958MOL0     H32162   7.510  10.005   5.556  1.3375 -0.2214 -2.4582
  958MOL0     H32163   7.615  10.169   5.437 -0.0694 -1.2126  1.3819
  958MOL0     H32164   7.659  10.071   5.302 -0.6167  1.2413 -0.0818
  958MOL0     H32165   7.783  10.150   5.380 -0.5861 -1.4162 -1.9378
  958MOL0     H32166   8.217   9.616   5.365  1.6241 -0.4995  0.4256
  958MOL0     H32167   8.450   9.631   5.247 -1.9446 -2.5042  2.5506
  958MOL0     H32168   8.677   9.876   5.317 -2.1480  0.7660  1.3755
  958MOL0     H32169   8.648   9.705   5.278  1.6340  0.5097 -1.8673
  958MOL0     H32170   8.754   9.723   5.061 -2.9206  0.4832  0.0042
  958MOL0     H32171   8.806   9.878   5.099  1.1371 -0.9771  0.0047
  958MOL0     H32172   8.869   9.653   5.292 -0.1556 -0.5964  0.5353
  958MOL0     H32173   8.900   9.818   5.311 -1.1781 -1.9578  1.7337
  958MOL0     H32174   9.066   9.822   5.123  0.6420  0.3735  1.0435
  958MOL0     H32175   9.008   9.675   5.060  0.4141 -0.1279  0.8281
  958MOL0     H32176   9.208   9.702   5.239  0.6616  1.0786 -2.0255
  958MOL0     H32177   9.077   9.595   5.310 -0.8311  0.3305 -0.0320
  958MOL0     H32178   9.086   9.464   5.109 -1.7357  4.4443 -1.9500
  958MOL0     H32179   9.243   9.443   5.184 -2.4060 -3.2091 -0.9598
  958MOL0     H32180   9.311   9.641   5.016  2.0430 -1.1986 -0.7992
  958MOL0     H32181   9.166   9.576   4.933  0.2402 -0.2865  0.0012
  958MOL0     H32182   9.439   9.444   4.968  0.6179 -0.1142 -1.0996
  958MOL0     H32183   9.340   9.476   4.836  1.4230  2.4083  0.8943
  958MOL0     H32184   8.376  10.050   5.182 -2.9354  0.5627 -0.0736
  958MOL0     H32185   8.155  10.032   5.289 -0.1204 -1.3496 -1.7763
  958MOL0     H32186   7.916   9.713   5.579  0.4143  2.1670  0.2277
  958MOL0     H32187   7.732   9.680   5.727  0.7671 -0.1185  0.5241
  958MOL0     H32188   6.640   9.094   7.058 -1.0548  0.7212  2.8104
  958MOL0     H32189   6.505   9.044   7.253 -0.0032  0.6475 -0.0441
  958MOL0     H32190   6.207   8.937   7.490 -0.3176  1.0420 -2.4144
  958MOL0     H32191   6.039   8.978   7.657  2.8618  1.2813 -1.1448
  958MOL0     H32192   5.730   8.744   7.632 -2.9022 -1.7547  1.9837
  958MOL0     H32193   5.814   8.806   7.777 -1.2879 -3.1098  1.0400
  958MOL0     H32194   5.523   8.880   7.682 -1.4482  0.7558  0.9746
  958MOL0     H32195   5.600   8.927   7.826 -4.8657 -0.5008  0.2812
  958MOL0     H32196   5.532   8.635   7.723  0.2186 -1.7724  0.7677
  958MOL0     H32197   5.621   8.666   7.885  1.0345  2.2166  0.2755
  958MOL0     H32198   5.340   8.767   7.840  0.4460  1.8512 -0.3621
  958MOL0     H32199   5.443   8.766   7.985 -1.9154  2.2483 -0.6786
  958MOL0     H32200   5.270   8.371   7.921  2.9364 -1.0370 -0.5205
  958MOL0     H32201   5.720   8.873   7.380 -0.1695  3.4177 -0.9294
  958MOL0     H32202   5.931   8.747   7.148  0.5768  0.8147 -1.2447
  958MOL0     H32203   5.763   8.775   7.176  0.7683 -2.2149  1.6625
  958MOL0     H32204   5.877   8.902   7.101  2.7168  0.9253  1.1846
  959MOL0     O32205   6.847   1.391   3.387  0.2174  0.4663 -0.5854
  959MOL0     C32206   6.878   1.482   3.317  0.6551  0.0624  0.0621
  959MOL0     O32207   6.995   1.545   3.320  0.4404  0.1508  0.2117
  959MOL0     C32208   7.093   1.488   3.395  0.2070  0.3436  1.1081
  959MOL0     C32209   7.185   1.400   3.327 -0.4966 -0.7447  0.1285
  959MOL0     C32210   7.297   1.364   3.396 -0.5500 -0.0292 -0.0549
  959MOL0     C32211   7.316   1.395   3.532 -0.4980  0.1002 -0.7711
  959MOL0     O32212   7.427   1.345   3.583  0.5475  0.3860 -0.2742
  959MOL0     C32213   7.471   1.372   3.720  0.2939  0.0521  0.6078
  959MOL0     C32214   7.618   1.328   3.747  0.6986  0.3516 -0.4171
  959MOL0     C32215   7.630   1.179   3.775  0.0291  0.9715 -0.6328
  959MOL0     C32216   7.773   1.136   3.837 -0.2460 -1.6733 -0.2592
  959MOL0     C32217   7.808   0.983   3.820  0.5222 -0.2410 -0.3452
  959MOL0     C32218   7.955   0.951   3.853 -0.8887  0.1886 -0.5565
  959MOL0     C32219   7.968   0.803   3.890 -0.5835 -0.5410 -0.1002
  959MOL0     C32220   8.113   0.757   3.921 -0.5011  0.5477 -0.5481
  959MOL0     N32221   8.192   0.836   4.027  0.9383  0.6707  0.3073
  959MOL0     C32222   8.316   0.897   4.013  0.0335  0.2379  0.5493
  959MOL0     C32223   8.352   0.926   4.138 -0.6401  0.0374  0.6188
  959MOL0     C32224   8.483   0.978   4.182 -0.0322 -0.2387 -0.2013
  959MOL0     C32225   8.577   0.858   4.206  0.0369 -0.4671  0.0308
  959MOL0     C32226   8.709   0.916   4.254 -0.0211  0.3915  0.7904
  959MOL0     C32227   8.792   0.818   4.339 -0.7058  0.0450 -0.0636
  959MOL0     O32228   8.878   0.734   4.253 -0.2331 -0.6365  0.4353
  959MOL0     C32229   9.013   0.771   4.261  0.3121  0.5611 -0.3156
  959MOL0     C32230   9.058   0.900   4.245  0.7086 -0.2908 -0.3732
  959MOL0     C32231   9.188   0.938   4.251 -1.2485 -0.2372 -0.5092
  959MOL0     C32232   9.229   1.088   4.228 -0.1740 -0.5162 -0.7769
  959MOL0     C32233   9.282   0.836   4.277 -0.3530 -0.9885  0.6362
  959MOL0     C32234   9.435   0.858   4.269 -0.3879 -1.0011 -0.3027
  959MOL0     O32235   9.510   0.741   4.258  0.2991  0.7045  0.5028
  959MOL0     C32236   9.639   0.751   4.220 -0.3791 -0.4931 -0.3803
  959MOL0     C32237   9.675   0.828   4.111  0.0914 -0.1182  0.2846
  959MOL0     C32238   9.801   0.816   4.055  1.1569 -0.5538  0.3575
  959MOL0     C32239   9.900   0.733   4.118 -0.8271 -0.0892  0.0384
  959MOL0     O32240  10.036   0.733   4.081 -0.0160  0.5702  0.1785
  959MOL0     C32241  10.075   0.832   3.985 -0.0088  0.3187 -0.5772
  959MOL0     C32242  10.225   0.825   3.970  0.1678 -0.2279  0.3464
  959MOL0     C32243  10.301   0.883   4.095  0.9422  0.3483 -0.0328
  959MOL0     C32244  10.428   0.807   4.139 -0.0531 -0.0293 -0.5450
  959MOL0     C32245  10.481   0.838   4.286  0.0179 -0.6028 -0.2648
  959MOL0     C32246  10.597   0.746   4.323 -0.4050 -1.2572  0.0197
  959MOL0     C32247  10.725   0.776   4.231  0.1464  0.0914  0.6410
  959MOL0     C32248  10.849   0.700   4.280 -0.4566 -0.8390  0.9924
  959MOL0    Cl32249  10.895   0.703   4.457  0.1697  0.1478 -0.1008
  959MOL0     C32250   9.871   0.655   4.236 -0.4420 -0.5532  0.4102
  959MOL0     C32251   9.741   0.675   4.287  0.8431 -0.2246 -0.1711
  959MOL0     O32252   9.482   0.973   4.268 -0.5206 -0.9901  0.0320
  959MOL0     C32253   9.237   0.705   4.298  0.1099  0.2502 -0.7070
  959MOL0     C32254   9.107   0.675   4.285 -0.1463  1.0098 -0.3583
  959MOL0     N32255   8.247   0.890   4.223 -0.4265 -0.6453  0.4738
  959MOL0     N32256   8.158   0.833   4.159 -0.5022  0.1092  0.3671
  959MOL0     C32257   7.219   1.477   3.598 -0.3721  1.5143 -0.3490
  959MOL0     C32258   7.105   1.511   3.531 -0.0291 -0.0919 -0.4340
  959MOL0     C32259   6.773   1.533   3.222 -0.4994  0.2994 -0.5147
  959MOL0     C32260   6.790   1.671   3.186 -0.5157 -0.6654 -0.4520
  959MOL0     C32261   6.714   1.738   3.088 -0.8752  0.1133  0.4290
  959MOL0     C32262   6.621   1.663   3.021 -0.7599 -0.1510  0.9359
  959MOL0     O32263   6.526   1.726   2.942  0.4961 -0.0334 -0.5560
  959MOL0     C32264   6.564   1.858   2.892 -0.9082  0.8866 -0.6000
  959MOL0     C32265   6.457   1.903   2.793 -0.2148 -0.2769 -1.6349
  959MOL0     C32266   6.459   1.831   2.658  0.5517 -0.0598 -1.3050
  959MOL0     C32267   6.358   1.892   2.558 -0.3788  0.0577  0.0082
  959MOL0     C32268   6.216   1.880   2.608 -0.2631  0.3785 -0.0380
  959MOL0     C32269   6.096   1.869   2.630 -0.2980 -0.0771 -0.7834
  959MOL0     C32270   6.598   1.534   3.061 -0.2787 -0.1161  0.4624
  959MOL0     C32271   6.678   1.465   3.151  0.6378 -0.1356 -0.4049
  959MOL0     C32272   6.633   1.315   3.160 -0.1494 -1.0458  0.2560
  959MOL0     H32273   7.163   1.371   3.224 -0.4709 -2.2117  0.5119
  959MOL0     H32274   7.377   1.303   3.355  1.5338  1.4569  1.5912
  959MOL0     H32275   7.400   1.325   3.788 -0.3406 -2.9593 -1.9065
  959MOL0     H32276   7.474   1.481   3.724 -1.4426  0.0783  2.6995
  959MOL0     H32277   7.681   1.356   3.662  0.8434  0.1237 -0.3843
  959MOL0     H32278   7.639   1.395   3.832  3.5462 -2.2182  1.1120
  959MOL0     H32279   7.565   1.143   3.856  1.5602 -1.5948 -0.4363
  959MOL0     H32280   7.611   1.127   3.681  1.3109  1.6712 -1.3035
  959MOL0     H32281   7.843   1.201   3.784 -1.3883 -1.5044 -1.5977
  959MOL0     H32282   7.789   1.160   3.943  1.4461  1.0446 -1.0457
  959MOL0     H32283   7.779   0.945   3.721 -0.8767 -0.9808  0.3068
  959MOL0     H32284   7.742   0.928   3.888 -1.5304  0.3990 -1.7298
  959MOL0     H32285   8.027   0.978   3.775 -0.9228  1.0583 -0.2972
  959MOL0     H32286   7.985   1.005   3.942  1.4353 -0.0630 -1.1298
  959MOL0     H32287   7.930   0.741   3.809 -2.7638  1.5108 -0.7764
  959MOL0     H32288   7.909   0.795   3.982 -3.1486  0.7903 -1.5202
  959MOL0     H32289   8.099   0.656   3.961 -1.5965  0.9169  0.0526
  959MOL0     H32290   8.179   0.763   3.834  0.3540  2.6206  0.1775
  959MOL0     H32291   8.367   0.909   3.918 -0.2962  1.2981  0.4916
  959MOL0     H32292   8.479   1.034   4.276  0.4159 -1.1319  0.3600
  959MOL0     H32293   8.521   1.043   4.102 -2.2453  0.6140 -0.6582
  959MOL0     H32294   8.523   0.798   4.281 -0.9719  0.1417 -0.1854
  959MOL0     H32295   8.589   0.792   4.120 -0.4897  0.1929 -0.5587
  959MOL0     H32296   8.764   0.965   4.174 -0.4460 -1.0595 -0.4450
  959MOL0     H32297   8.679   1.005   4.310  0.5525  2.5950 -2.2058
  959MOL0     H32298   8.847   0.854   4.427  1.4935 -0.7420 -1.0603
  959MOL0     H32299   8.718   0.753   4.387  0.8237 -1.7726 -0.0777
  959MOL0     H32300   8.981   0.971   4.216  0.0767 -1.1859 -0.9116
  959MOL0     H32301   9.137   1.143   4.252 -0.4874 -0.0868 -2.8439
  959MOL0     H32302   9.269   1.110   4.129  0.4487  1.5616 -0.1077
  959MOL0     H32303   9.306   1.109   4.302 -0.0203 -2.6103 -0.2720
  959MOL0     H32304   9.598   0.879   4.053 -0.7270 -1.3695  0.2189
  959MOL0     H32305   9.819   0.877   3.967  0.8277 -1.5781 -0.4485
  959MOL0     H32306  10.030   0.796   3.892 -4.9945  0.3680  1.4943
  959MOL0     H32307  10.032   0.932   3.998 -0.7676  0.2944 -2.5339
  959MOL0     H32308  10.256   0.722   3.955  1.4146  0.0697  0.7507
  959MOL0     H32309  10.247   0.867   3.871  0.2032 -0.1405  0.3914
  959MOL0     H32310  10.237   0.894   4.183  0.3410  4.4129 -0.7572
  959MOL0     H32311  10.327   0.988   4.075  1.9376 -0.2699 -2.3736
  959MOL0     H32312  10.506   0.808   4.063 -1.4454  0.5510 -2.0258
  959MOL0     H32313  10.391   0.704   4.141  1.1117 -0.4701 -0.6062
  959MOL0     H32314  10.499   0.946   4.292 -0.8769 -0.3459 -1.6900
  959MOL0     H32315  10.404   0.824   4.362 -1.3792  0.6307 -1.3780
  959MOL0     H32316  10.568   0.640   4.325  0.2921 -1.4508  1.5200
  959MOL0     H32317  10.625   0.773   4.425 -1.3497 -0.2383  0.0234
  959MOL0     H32318  10.737   0.885   4.222 -1.5688  0.2247 -0.4574
  959MOL0     H32319  10.712   0.741   4.129 -0.4886  1.3862  0.2521
  959MOL0     H32320  10.940   0.734   4.230 -0.3784  0.2019  1.7989
  959MOL0     H32321  10.829   0.596   4.252 -0.7151 -0.5099 -0.1187
  959MOL0     H32322   9.937   0.587   4.289  0.7434  1.0249  1.0278
  959MOL0     H32323   9.723   0.646   4.390 -0.7816 -0.6006 -0.5209
  959MOL0     H32324   9.297   0.615   4.307  1.1025  0.9997  0.6372
  959MOL0     H32325   9.068   0.575   4.299 -1.3018  1.4348 -0.4693
  959MOL0     H32326   7.235   1.493   3.704 -1.3383 -0.8552  0.2230
  959MOL0     H32327   7.028   1.565   3.586  1.4874  2.4162 -0.6497
  959MOL0     H32328   6.861   1.728   3.245  0.1112 -0.8736 -1.0000
  959MOL0     H32329   6.745   1.842   3.076  0.7106 -0.5301 -1.6846
  959MOL0     H32330   6.574   1.929   2.974  2.4646 -0.6415  0.4813
  959MOL0     H32331   6.654   1.846   2.831  1.0667  1.0343  2.1308
  959MOL0     H32332   6.474   2.007   2.767  0.2736  0.7558  2.1596
  959MOL0     H32333   6.359   1.896   2.842  0.6336  0.9057  0.3456
  959MOL0     H32334   6.557   1.842   2.611  1.1104 -0.8950 -0.3658
  959MOL0     H32335   6.433   1.725   2.674  0.0291  0.1313 -0.8596
  959MOL0     H32336   6.365   1.832   2.466  2.4820  0.1689  0.0651
  959MOL0     H32337   6.376   1.997   2.532  0.1872 -0.1461 -0.4393
  959MOL0     H32338   5.994   1.856   2.659  0.3242 -1.3536  1.0393
  959MOL0     H32339   6.512   1.483   3.018 -0.9496  0.2622  1.3134
  959MOL0     H32340   6.712   1.255   3.207  1.2578 -0.6332 -1.4530
  959MOL0     H32341   6.544   1.320   3.223  0.3620  1.6418  0.8705
  959MOL0     H32342   6.621   1.269   3.061  1.0722  1.6105 -1.2199
  960MOL0     O32343   0.199   1.482   8.003 -0.3299 -0.5162 -0.0998
  960MOL0     C32344   0.204   1.585   7.941  0.4443 -0.8234  0.6544
  960MOL0     O32345   0.319   1.646   7.895 -0.2748 -0.1703  0.1579
  960MOL0     C32346   0.433   1.567   7.906  0.7878  0.1007 -0.1112
  960MOL0     C32347   0.502   1.561   8.030  0.5638 -0.1553 -0.5733
  960MOL0     C32348   0.618   1.485   8.042 -0.3566 -0.0484  0.5394
  960MOL0     C32349   0.692   1.446   7.927 -0.1556  0.0039  0.4270
  960MOL0     O32350   0.823   1.387   7.930  0.0178  0.1003  1.2751
  960MOL0     C32351   0.883   1.368   8.051 -0.1449  0.8137 -0.3234
  960MOL0     C32352   1.020   1.296   8.028 -0.1115  0.2878  0.4993
  960MOL0     C32353   1.015   1.173   7.933  2.1363  0.0341  0.3541
  960MOL0     C32354   1.135   1.090   7.930  0.4981 -0.4369  0.3049
  960MOL0     C32355   1.159   0.992   8.046 -0.4879  0.1494  0.5727
  960MOL0     C32356   1.302   0.920   8.058  0.2775  0.1519  0.6935
  960MOL0     C32357   1.317   0.808   7.956  0.9391 -0.0819 -0.3067
  960MOL0     C32358   1.450   0.831   7.880  0.3368 -0.4393  0.0311
  960MOL0     N32359   1.435   0.943   7.775  0.1479  0.4011  0.2230
  960MOL0     C32360   1.471   1.072   7.805 -1.0819 -0.3302  0.1454
  960MOL0     C32361   1.439   1.134   7.691  0.3745 -1.1566  0.7636
  960MOL0     C32362   1.436   1.287   7.688 -0.0329  0.5470 -0.1135
  960MOL0     C32363   1.293   1.332   7.654 -0.4549 -0.1497  0.5356
  960MOL0     C32364   1.279   1.479   7.652 -0.6289 -1.1079  1.1691
  960MOL0     C32365   1.135   1.523   7.614 -0.3989  0.4055 -0.2593
  960MOL0     O32366   1.136   1.666   7.615  0.0446  0.1854  0.2088
  960MOL0     C32367   1.019   1.731   7.595 -0.0973 -0.4049 -0.0520
  960MOL0     C32368   1.018   1.844   7.512 -0.5478 -0.9815 -0.2622
  960MOL0     C32369   0.903   1.920   7.495 -0.3272 -0.3541  0.3003
  960MOL0     C32370   0.910   2.050   7.419  0.7225  0.7073  0.1235
  960MOL0     C32371   0.775   1.873   7.540  0.4932 -0.0822 -0.8252
  960MOL0     C32372   0.648   1.935   7.529  0.3145 -0.7765  0.4572
  960MOL0     O32373   0.541   1.894   7.612 -0.2242  1.0513  0.0878
  960MOL0     C32374   0.415   1.943   7.603  0.2033  0.3546 -0.4240
  960MOL0     C32375   0.381   2.073   7.571  1.2655  0.1071  0.1427
  960MOL0     C32376   0.253   2.122   7.555 -0.0716 -0.4316 -0.2020
  960MOL0     C32377   0.146   2.030   7.575  0.3812 -0.3895 -0.1592
  960MOL0     O32378   0.015   2.061   7.584  0.0023 -0.5211 -0.3467
  960MOL0     C32379  -0.067   2.067   7.468  0.2994 -0.7279  0.5398
  960MOL0     C32380  -0.198   1.978   7.483 -0.1961 -0.5555  0.8842
  960MOL0     C32381  -0.232   1.929   7.339 -0.2086 -0.5374  0.3827
  960MOL0     C32382  -0.381   1.896   7.342  0.3208  0.3368 -0.2463
  960MOL0     C32383  -0.438   1.820   7.210 -0.0708  0.3590 -0.3424
  960MOL0     C32384  -0.394   1.886   7.068 -0.5432 -0.9597 -0.3995
  960MOL0     C32385  -0.437   1.796   6.956  0.5278 -0.3321  0.0897
  960MOL0     C32386  -0.429   1.866   6.824 -0.1310  0.2901  0.2781
  960MOL0    Cl32387  -0.259   1.915   6.800 -0.2892  0.0232  0.2548
  960MOL0     C32388   0.179   1.897   7.608  0.3226 -0.0451  0.9534
  960MOL0     C32389   0.315   1.851   7.631 -0.0980  0.4244  0.2425
  960MOL0     O32390   0.638   2.010   7.429 -0.2788 -1.0857  0.2822
  960MOL0     C32391   0.781   1.756   7.613  0.0771  0.0747 -0.9756
  960MOL0     C32392   0.898   1.692   7.654  0.4637 -0.5709 -0.0871
  960MOL0     N32393   1.381   1.047   7.602  0.2584 -0.4691 -0.5020
  960MOL0     N32394   1.384   0.928   7.653 -0.0792  0.1908  0.2432
  960MOL0     C32395   0.623   1.452   7.806 -0.0335  0.3054  0.2128
  960MOL0     C32396   0.496   1.509   7.792  1.1576 -0.7528 -0.1286
  960MOL0     C32397   0.088   1.663   7.918 -0.5593  0.8103 -0.4125
  960MOL0     C32398   0.078   1.803   7.916 -0.1515  0.6088 -0.3985
  960MOL0     C32399  -0.046   1.873   7.885  0.1476 -0.0300  0.4068
  960MOL0     C32400  -0.161   1.794   7.859  0.3718  0.3228  0.5910
  960MOL0     O32401  -0.284   1.845   7.824 -0.3613  0.1656 -0.3965
  960MOL0     C32402  -0.306   1.988   7.843  0.9860  1.4899  0.7878
  960MOL0     C32403  -0.309   2.004   7.997 -0.0251  0.4725 -0.4884
  960MOL0     C32404  -0.370   2.134   8.054 -0.7856  0.0286  0.2522
  960MOL0     C32405  -0.511   2.116   8.070 -0.4553 -0.0409  0.1893
  960MOL0     C32406  -0.566   2.202   8.185 -0.6516 -0.1844 -0.0196
  960MOL0     C32407  -0.596   2.272   8.284 -0.5849  0.7871 -0.3187
  960MOL0     C32408  -0.153   1.653   7.847 -0.8545 -0.1543 -0.7166
  960MOL0     C32409  -0.033   1.587   7.880  1.0979 -0.2500 -0.4424
  960MOL0     C32410  -0.035   1.438   7.847 -0.4438 -0.2792 -1.0048
  960MOL0     H32411   0.458   1.596   8.122  3.4094  1.8489  0.1373
  960MOL0     H32412   0.653   1.460   8.141  1.9066  2.2283  0.4206
  960MOL0     H32413   0.831   1.308   8.126  2.4836  1.1569  1.9204
  960MOL0     H32414   0.906   1.461   8.104  2.5831  1.2099 -1.9735
  960MOL0     H32415   1.087   1.372   7.988 -1.2582  1.2133  0.2934
  960MOL0     H32416   1.054   1.259   8.125  2.3678  1.2454  0.0777
  960MOL0     H32417   0.930   1.112   7.964  0.3315  2.3712  0.3068
  960MOL0     H32418   0.996   1.209   7.831 -0.5963 -2.0906 -0.0233
  960MOL0     H32419   1.122   1.020   7.847  2.0160  0.4723 -0.7417
  960MOL0     H32420   1.225   1.147   7.908 -0.5817  0.5916 -1.7131
  960MOL0     H32421   1.076   0.921   8.058 -0.8186  0.4046 -0.1446
  960MOL0     H32422   1.148   1.061   8.130  0.3044  2.1668 -0.9079
  960MOL0     H32423   1.365   1.005   8.033 -2.5833  1.9233 -1.0850
  960MOL0     H32424   1.311   0.873   8.156 -0.0214 -0.2423  0.5368
  960MOL0     H32425   1.232   0.805   7.888 -0.1970  1.6341  0.9489
  960MOL0     H32426   1.318   0.717   8.018  1.2416 -1.2673 -1.9985
  960MOL0     H32427   1.532   0.855   7.948 -0.5956  0.9481  0.7283
  960MOL0     H32428   1.478   0.741   7.825 -1.9475 -1.4142  0.3188
  960MOL0     H32429   1.506   1.119   7.896  3.3800 -3.0565  0.1136
  960MOL0     H32430   1.510   1.316   7.612  1.4507  0.8528  1.3847
  960MOL0     H32431   1.462   1.327   7.786 -1.9266  0.7165  0.3581
  960MOL0     H32432   1.270   1.305   7.551  0.8643  0.0530  0.1720
  960MOL0     H32433   1.220   1.287   7.722  0.9920 -2.7209  0.5343
  960MOL0     H32434   1.315   1.528   7.744  1.5156  0.5347 -0.4314
  960MOL0     H32435   1.337   1.526   7.573 -3.2863  2.2175  0.9436
  960MOL0     H32436   1.095   1.481   7.522 -2.6959  1.7665  0.0348
  960MOL0     H32437   1.058   1.478   7.678 -0.3362 -1.3737 -1.3806
  960MOL0     H32438   1.110   1.872   7.462 -0.8929  2.0278  0.5609
  960MOL0     H32439   0.852   2.123   7.475 -0.0148 -0.0028  0.2926
  960MOL0     H32440   0.858   2.033   7.324 -1.4907 -4.7482  1.9525
  960MOL0     H32441   1.014   2.081   7.402 -0.1311  1.8054 -4.5989
  960MOL0     H32442   0.465   2.140   7.554  1.7008 -0.6007 -0.5573
  960MOL0     H32443   0.234   2.228   7.542  2.1716  0.2147  1.1291
  960MOL0     H32444  -0.103   2.170   7.457  1.4433 -0.0804  2.3141
  960MOL0     H32445  -0.017   2.045   7.374  3.4103  0.2984  1.8077
  960MOL0     H32446  -0.187   1.887   7.542 -0.9205 -1.1011  0.2022
  960MOL0     H32447  -0.278   2.042   7.521 -0.0795 -1.3515  2.5954
  960MOL0     H32448  -0.176   1.848   7.292 -1.9214 -0.9213 -1.1209
  960MOL0     H32449  -0.223   2.015   7.271  2.1794 -0.2248  1.0014
  960MOL0     H32450  -0.438   1.988   7.361  0.3967  0.6704 -1.5471
  960MOL0     H32451  -0.383   1.834   7.432  0.8247  0.5931 -0.0536
  960MOL0     H32452  -0.411   1.715   7.223  0.4960  0.1249 -2.9141
  960MOL0     H32453  -0.547   1.824   7.224 -0.1535 -1.5653 -0.2292
  960MOL0     H32454  -0.290   1.920   7.064 -0.9997  0.4436 -1.1427
  960MOL0     H32455  -0.447   1.980   7.054 -0.1632 -1.0345 -2.9970
  960MOL0     H32456  -0.541   1.765   6.971  0.7573 -1.6133 -0.8316
  960MOL0     H32457  -0.376   1.705   6.954  0.6062 -0.2613 -1.2805
  960MOL0     H32458  -0.502   1.948   6.831 -0.2426  0.2256 -0.1024
  960MOL0     H32459  -0.473   1.797   6.751 -0.6178  0.4180  0.4431
  960MOL0     H32460   0.100   1.824   7.625  0.9137 -0.7468  0.7364
  960MOL0     H32461   0.334   1.747   7.655  0.5278  0.5833  0.4548
  960MOL0     H32462   0.696   1.711   7.661 -0.2449  0.0054 -1.5934
  960MOL0     H32463   0.887   1.609   7.723 -3.3795 -1.2785 -1.3358
  960MOL0     H32464   0.688   1.407   7.732  0.8976  0.2800  1.0273
  960MOL0     H32465   0.444   1.514   7.696  0.4333 -0.1156  0.2754
  960MOL0     H32466   0.166   1.863   7.940 -1.3571  1.4007  2.4552
  960MOL0     H32467  -0.043   1.981   7.883 -2.2882  0.0895 -1.4259
  960MOL0     H32468  -0.224   2.046   7.799  2.6299 -0.6870  0.7860
  960MOL0     H32469  -0.398   2.008   7.788  1.5924 -1.1416 -1.3928
  960MOL0     H32470  -0.207   2.004   8.036  0.0974  0.0549 -0.8007
  960MOL0     H32471  -0.367   1.920   8.036 -1.4166  1.5795 -0.0782
  960MOL0     H32472  -0.329   2.153   8.154  1.1294 -2.1461 -0.0476
  960MOL0     H32473  -0.335   2.224   8.004  2.2365 -0.7802  0.7082
  960MOL0     H32474  -0.541   2.013   8.092 -0.2784 -0.8012 -2.6518
  960MOL0     H32475  -0.555   2.132   7.970 -0.4073 -0.0787  0.1635
  960MOL0     H32476  -0.620   2.337   8.365 -0.8435  5.1290 -3.5122
  960MOL0     H32477  -0.236   1.594   7.811 -0.9128 -1.2993  1.1748
  960MOL0     H32478  -0.038   1.375   7.936  0.9386 -0.6791 -1.2205
  960MOL0     H32479  -0.130   1.413   7.799  0.1054 -0.1169 -2.1959
  960MOL0     H32480   0.037   1.413   7.770  0.5974  2.9880 -1.2397
  961MOL0     O32481   9.671   3.920   2.202  0.6731 -0.1974  0.0257
  961MOL0     C32482   9.703   3.910   2.088 -0.8583  0.6984  0.4341
  961MOL0     O32483   9.827   3.904   2.044  0.2711 -0.5959 -0.8183
  961MOL0     C32484   9.928   3.915   2.144  1.1384 -0.0604 -0.2008
  961MOL0     C32485   9.941   4.031   2.217  0.3567 -0.1794 -0.3360
  961MOL0     C32486  10.043   4.033   2.311  0.8951 -0.0857 -0.9189
  961MOL0     C32487  10.143   3.929   2.317 -0.2629 -1.4884  0.0633
  961MOL0     O32488  10.252   3.933   2.399 -0.5270  0.2964 -0.0230
  961MOL0     C32489  10.313   4.060   2.410  0.0561 -1.0136  0.3444
  961MOL0     C32490  10.458   4.036   2.447  0.5848 -0.2861 -0.3397
  961MOL0     C32491  10.552   4.011   2.331  0.7091 -0.2410  0.6399
  961MOL0     C32492  10.700   4.014   2.368  0.1270  0.6589  0.2578
  961MOL0     C32493  10.803   4.036   2.256  0.8311 -0.9568 -0.2718
  961MOL0     C32494  10.945   4.046   2.317 -0.4774 -0.4126 -0.1579
  961MOL0     C32495  11.007   3.924   2.383  0.4179  0.1904 -0.5092
  961MOL0     C32496  11.126   3.961   2.466 -0.3537 -0.1471  0.3774
  961MOL0     N32497  11.176   3.836   2.531  0.0717 -0.3525 -1.0166
  961MOL0     C32498  11.263   3.747   2.469  0.0269  0.2070 -0.5465
  961MOL0     C32499  11.318   3.683   2.570  0.8273  0.0877 -0.2158
  961MOL0     C32500  11.440   3.598   2.550  0.6564 -0.3252 -0.0406
  961MOL0     C32501  11.566   3.668   2.600  0.4263 -0.4258  0.1140
  961MOL0     C32502  11.620   3.777   2.505 -0.5100 -0.5845  0.7714
  961MOL0     C32503  11.764   3.803   2.525  1.0282  0.6637  0.4798
  961MOL0     O32504  11.845   3.695   2.489 -0.1102 -0.0812 -0.1637
  961MOL0     C32505  11.985   3.709   2.510 -0.3187 -0.1896  0.2235
  961MOL0     C32506  12.057   3.592   2.519  0.6407 -0.1846  0.6837
  961MOL0     C32507  12.192   3.591   2.549  0.2486  0.3365 -0.5556
  961MOL0     C32508  12.257   3.454   2.572 -0.7558 -0.4628  0.6382
  961MOL0     C32509  12.264   3.711   2.566  0.5259 -0.1411 -0.1165
  961MOL0     C32510  12.404   3.721   2.592  0.4943  0.2543 -0.2677
  961MOL0     O32511  12.486   3.649   2.511  0.4782 -0.6911  0.8895
  961MOL0     C32512  12.620   3.674   2.516 -0.0499  0.3117  0.5206
  961MOL0     C32513  12.719   3.576   2.548 -0.3608  0.1761  0.6431
  961MOL0     C32514  12.854   3.598   2.538  0.4473  0.7690  1.0040
  961MOL0     C32515  12.897   3.711   2.474  0.1623  0.1364  0.6900
  961MOL0     O32516  13.034   3.714   2.457  0.0174  0.0407 -0.7354
  961MOL0     C32517  13.082   3.795   2.344 -0.3722  0.1596  0.7878
  961MOL0     C32518  13.227   3.750   2.307 -0.5292 -0.2337  0.5209
  961MOL0     C32519  13.250   3.599   2.329  0.3914 -0.3884 -0.1689
  961MOL0     C32520  13.172   3.522   2.230  0.0921 -0.3273  0.0766
  961MOL0     C32521  13.196   3.555   2.087  0.7351 -0.3403  0.9097
  961MOL0     C32522  13.338   3.541   2.027  0.2188 -0.7568 -0.0041
  961MOL0     C32523  13.407   3.409   2.037  0.2415  0.4512 -0.2590
  961MOL0     C32524  13.331   3.312   1.947  0.4520 -1.2620 -0.5744
  961MOL0    Cl32525  13.434   3.168   1.941 -0.3087 -0.4463 -0.1864
  961MOL0     C32526  12.806   3.815   2.430 -0.7505 -0.1540  0.1786
  961MOL0     C32527  12.664   3.793   2.456 -0.0402  0.0248 -0.4722
  961MOL0     O32528  12.438   3.786   2.690  0.1933 -0.1377  0.4224
  961MOL0     C32529  12.188   3.830   2.556  0.7751  0.5832 -0.2085
  961MOL0     C32530  12.054   3.833   2.535  0.4326  0.6020  0.8249
  961MOL0     N32531  11.253   3.726   2.689  0.2657 -0.1361  0.4777
  961MOL0     N32532  11.176   3.820   2.670 -0.2146  0.4120 -0.4906
  961MOL0     C32533  10.123   3.816   2.228 -0.9019 -0.2993 -0.2521
  961MOL0     C32534  10.011   3.811   2.152 -0.0388  0.1897 -0.0501
  961MOL0     C32535   9.603   3.865   1.992 -0.4757 -0.2549 -0.2337
  961MOL0     C32536   9.580   3.932   1.872 -0.3047 -1.1629  0.3186
  961MOL0     C32537   9.506   3.873   1.776  0.2453 -1.6803  0.1022
  961MOL0     C32538   9.439   3.762   1.792  0.4418  0.2277  0.7829
  961MOL0     O32539   9.360   3.702   1.699  0.3166 -0.8274  0.3605
  961MOL0     C32540   9.416   3.703   1.566  0.6674  0.1699 -0.0129
  961MOL0     C32541   9.330   3.609   1.472 -0.4193  0.1166 -0.6876
  961MOL0     C32542   9.342   3.459   1.527 -0.7099 -0.1360  0.3315
  961MOL0     C32543   9.464   3.384   1.477 -0.2555  0.1662  0.5711
  961MOL0     C32544   9.452   3.377   1.332  0.5574  1.1366  0.3510
  961MOL0     C32545   9.434   3.347   1.214  0.2079 -0.2731  0.9094
  961MOL0     C32546   9.456   3.700   1.919  0.4552  0.2357 -0.6896
  961MOL0     C32547   9.542   3.744   2.026  1.1475  0.2194  0.8050
  961MOL0     C32548   9.545   3.664   2.159 -0.0900 -0.0825 -0.4160
  961MOL0     H32549   9.863   4.107   2.215  1.6414  1.1798  0.0451
  961MOL0     H32550  10.051   4.114   2.382  1.1948 -2.9256  2.5918
  961MOL0     H32551  10.258   4.107   2.492  2.0858  1.4829  0.3708
  961MOL0     H32552  10.314   4.115   2.315 -0.6020  1.1223  1.5148
  961MOL0     H32553  10.497   4.119   2.507  0.6472 -2.3043  2.6377
  961MOL0     H32554  10.445   3.950   2.513  2.1571  0.2416  0.7131
  961MOL0     H32555  10.524   3.913   2.292 -0.7111  1.2089 -2.3268
  961MOL0     H32556  10.532   4.084   2.253 -1.0707 -2.8118 -1.4985
  961MOL0     H32557  10.711   4.094   2.442 -0.7640  0.7084  0.3577
  961MOL0     H32558  10.719   3.918   2.415  0.8106  0.9862  0.6563
  961MOL0     H32559  10.784   4.131   2.204  0.0992  0.4145  2.3345
  961MOL0     H32560  10.786   3.965   2.174 -4.4697  0.0754 -0.4483
  961MOL0     H32561  11.015   4.078   2.240  0.4117  0.9559  1.1692
  961MOL0     H32562  10.939   4.119   2.398  0.5107 -0.9075  0.3785
  961MOL0     H32563  11.026   3.844   2.311  1.6034  1.1368 -1.3039
  961MOL0     H32564  10.935   3.887   2.456  2.6283 -3.5342  0.0705
  961MOL0     H32565  11.197   4.003   2.394  0.7017 -1.9449  0.3031
  961MOL0     H32566  11.106   4.031   2.547  2.3100  0.7722  0.3415
  961MOL0     H32567  11.301   3.759   2.368  2.1867  1.2886  0.3244
  961MOL0     H32568  11.452   3.583   2.442 -4.4802  1.6976 -1.2052
  961MOL0     H32569  11.423   3.501   2.596 -0.5371 -0.2311 -0.2515
  961MOL0     H32570  11.548   3.715   2.697 -1.0249 -2.4120  0.8678
  961MOL0     H32571  11.649   3.602   2.627 -0.3634 -0.5184  2.5416
  961MOL0     H32572  11.622   3.749   2.399  4.2919  3.9526 -0.7780
  961MOL0     H32573  11.565   3.871   2.519  2.3959  1.3971 -0.0378
  961MOL0     H32574  11.796   3.892   2.470  0.6259  0.9187  0.6476
  961MOL0     H32575  11.768   3.833   2.630  2.7552 -0.2278  0.7081
  961MOL0     H32576  12.020   3.491   2.507 -0.8742  0.4956 -0.8501
  961MOL0     H32577  12.341   3.453   2.642 -0.1588  1.9161  0.0440
  961MOL0     H32578  12.293   3.418   2.475 -1.1460  0.0589  0.2893
  961MOL0     H32579  12.189   3.376   2.608  0.7603 -2.3172 -0.3169
  961MOL0     H32580  12.699   3.482   2.598 -1.2979 -0.9614 -1.7278
  961MOL0     H32581  12.925   3.524   2.575  0.0705  0.1273  0.4698
  961MOL0     H32582  13.026   3.793   2.249  2.4735  1.1646 -1.0348
  961MOL0     H32583  13.098   3.902   2.359 -1.4404  0.6804 -1.3469
  961MOL0     H32584  13.253   3.782   2.206  0.6593 -1.0497  0.5357
  961MOL0     H32585  13.302   3.799   2.371  0.9300  0.4286 -1.5797
  961MOL0     H32586  13.228   3.572   2.433  2.4213 -1.7199 -0.0213
  961MOL0     H32587  13.356   3.594   2.301  0.3294 -0.9552 -0.3053
  961MOL0     H32588  13.065   3.524   2.253 -0.6908 -4.2122 -2.3199
  961MOL0     H32589  13.204   3.418   2.235  0.5254 -0.2811 -1.1949
  961MOL0     H32590  13.126   3.487   2.037 -1.7613  2.8131 -0.2451
  961MOL0     H32591  13.155   3.654   2.066  0.4479 -0.0045  2.8547
  961MOL0     H32592  13.407   3.609   2.078 -0.3139 -1.4619  1.7444
  961MOL0     H32593  13.338   3.577   1.924  1.7299  0.9766  0.5346
  961MOL0     H32594  13.428   3.381   2.140  2.0933  1.1550 -0.4028
  961MOL0     H32595  13.508   3.419   1.996  0.9738 -0.2791  1.3064
  961MOL0     H32596  13.319   3.360   1.850  3.1236 -0.8555 -0.7826
  961MOL0     H32597  13.234   3.282   1.987 -0.2360 -0.4714 -1.6310
  961MOL0     H32598  12.827   3.914   2.392 -1.0203  1.4121  3.7154
  961MOL0     H32599  12.585   3.860   2.425  0.9529  1.1102 -0.6987
  961MOL0     H32600  12.238   3.926   2.548 -0.8588  1.3664 -1.9095
  961MOL0     H32601  12.001   3.928   2.532 -4.2459 -1.7319 -1.2510
  961MOL0     H32602  10.187   3.731   2.253 -0.4004  0.3056  0.5615
  961MOL0     H32603   9.982   3.729   2.088 -0.0859 -0.1123  0.3585
  961MOL0     H32604   9.632   4.027   1.861 -0.9924 -0.8273 -0.0792
  961MOL0     H32605   9.509   3.928   1.683 -1.2244 -1.1612  0.3334
  961MOL0     H32606   9.405   3.808   1.538 -3.9247 -0.0444  0.2447
  961MOL0     H32607   9.516   3.659   1.570  0.0877 -1.3027 -1.1645
  961MOL0     H32608   9.365   3.619   1.369  0.3622 -1.6560 -0.6248
  961MOL0     H32609   9.226   3.643   1.477 -1.0736 -1.7413 -0.8629
  961MOL0     H32610   9.334   3.464   1.636 -2.9009 -0.5958  0.2394
  961MOL0     H32611   9.249   3.410   1.495 -1.3960  1.0593  0.4374
  961MOL0     H32612   9.464   3.282   1.516 -3.8036 -1.9799 -4.0730
  961MOL0     H32613   9.561   3.431   1.496 -0.6950  1.5377 -0.4418
  961MOL0     H32614   9.406   3.325   1.113  1.9111  1.0846  0.0840
  961MOL0     H32615   9.385   3.619   1.928  1.9408 -1.2400 -1.5731
  961MOL0     H32616   9.513   3.561   2.141  2.4147 -0.7528 -1.4793
  961MOL0     H32617   9.649   3.659   2.190  0.2217  0.4071 -1.3207
  961MOL0     H32618   9.486   3.717   2.234 -0.1189 -0.4828 -0.1538
  962MOL0     O32619   7.602   6.729   3.968 -0.1079 -0.6213  0.3969
  962MOL0     C32620   7.645   6.619   4.005 -0.2401  1.5644 -0.4035
  962MOL0     O32621   7.594   6.498   3.965  0.7820  0.5933  0.2627
  962MOL0     C32622   7.497   6.490   3.865 -0.0678  0.4835 -0.3843
  962MOL0     C32623   7.404   6.388   3.878  0.2938  0.0538 -0.6356
  962MOL0     C32624   7.297   6.375   3.790  0.2087 -0.2350 -0.3032
  962MOL0     C32625   7.270   6.468   3.686  0.5516  0.8997  0.3167
  962MOL0     O32626   7.167   6.434   3.601  1.2794  0.5596 -0.6203
  962MOL0     C32627   7.122   6.507   3.482 -0.1629 -0.2320 -0.3153
  962MOL0     C32628   6.984   6.467   3.436  0.1811  0.2725 -0.1121
  962MOL0     C32629   6.856   6.518   3.515 -0.0020  0.0619  0.3447
  962MOL0     C32630   6.817   6.661   3.487  0.3655  1.0823 -0.2957
  962MOL0     C32631   6.665   6.685   3.517 -0.0855  0.6169  0.7280
  962MOL0     C32632   6.637   6.819   3.581  0.2843 -0.1618 -0.4801
  962MOL0     C32633   6.486   6.850   3.583 -0.4798 -0.0783 -0.2622
  962MOL0     C32634   6.394   6.793   3.691 -0.1607  0.1183 -0.7341
  962MOL0     N32635   6.402   6.642   3.688  0.5324  0.4297  0.2874
  962MOL0     C32636   6.347   6.563   3.593  0.7144 -0.3128 -0.2069
  962MOL0     C32637   6.363   6.441   3.634 -0.5235 -0.1773 -0.3450
  962MOL0     C32638   6.334   6.320   3.550 -0.0679 -0.0459  0.7437
  962MOL0     C32639   6.465   6.257   3.507 -0.4893  0.4516  0.2294
  962MOL0     C32640   6.457   6.140   3.403 -0.1392 -0.0775 -0.0773
  962MOL0     C32641   6.342   6.040   3.425 -0.4233  0.8321  0.2898
  962MOL0     O32642   6.341   5.998   3.565  0.0123  0.0075  0.8765
  962MOL0     C32643   6.293   5.876   3.600 -0.6596  0.3398 -0.3374
  962MOL0     C32644   6.336   5.753   3.538 -0.5187 -0.9213  0.2702
  962MOL0     C32645   6.262   5.632   3.547 -0.2246 -0.6956  0.7173
  962MOL0     C32646   6.310   5.520   3.464 -0.0794  0.1027 -0.0725
  962MOL0     C32647   6.142   5.635   3.623 -0.4930 -1.1749  0.2614
  962MOL0     C32648   6.039   5.528   3.608 -0.2478 -0.1470 -0.4461
  962MOL0     O32649   5.909   5.556   3.657 -0.0151  1.2439  0.0017
  962MOL0     C32650   5.817   5.457   3.667  0.3932  0.3061  0.6588
  962MOL0     C32651   5.811   5.360   3.767  0.0931  0.5198  0.0257
  962MOL0     C32652   5.710   5.263   3.770 -0.0209 -0.1252  0.1979
  962MOL0     C32653   5.608   5.265   3.672  0.4865  0.5523  0.3774
  962MOL0     O32654   5.522   5.158   3.681 -0.1598 -0.3445  0.5969
  962MOL0     C32655   5.420   5.133   3.584 -0.1992  0.3273 -1.4842
  962MOL0     C32656   5.464   5.046   3.472 -0.6594  0.2157  0.6886
  962MOL0     C32657   5.364   4.998   3.359  0.1408 -0.3659 -0.3072
  962MOL0     C32658   5.236   4.931   3.415 -0.1042  0.1054  0.4895
  962MOL0     C32659   5.110   5.021   3.425  0.3833 -0.1827  0.2345
  962MOL0     C32660   5.011   4.970   3.529  0.2711 -0.1490 -0.5265
  962MOL0     C32661   4.971   5.091   3.610  0.0205  0.0673 -1.0813
  962MOL0     C32662   4.850   5.068   3.692  0.0713  0.2408 -0.6358
  962MOL0    Cl32663   4.817   5.218   3.768  0.2775  0.3480  0.4201
  962MOL0     C32664   5.611   5.357   3.576 -0.4071  0.2534 -0.1135
  962MOL0     C32665   5.712   5.451   3.571 -0.0253 -0.7070 -0.0428
  962MOL0     O32666   6.071   5.417   3.570 -0.0120  0.0167 -0.5567
  962MOL0     C32667   6.117   5.744   3.705  0.6123 -0.6057  0.1421
  962MOL0     C32668   6.191   5.865   3.690  0.1014  0.3975 -0.6834
  962MOL0     N32669   6.429   6.434   3.760  0.8584 -0.4670 -0.0455
  962MOL0     N32670   6.461   6.563   3.785 -0.2170 -0.5948 -0.1960
  962MOL0     C32671   7.371   6.559   3.668  0.4324  1.1422  0.8232
  962MOL0     C32672   7.481   6.577   3.751 -0.7651 -0.2894 -0.0688
  962MOL0     C32673   7.736   6.618   4.119 -0.1725 -0.6224  0.1439
  962MOL0     C32674   7.748   6.728   4.204  0.3076  0.0596  0.5293
  962MOL0     C32675   7.839   6.734   4.310 -0.2655 -0.1237 -1.1956
  962MOL0     C32676   7.914   6.622   4.341  0.1309 -0.3369 -0.1435
  962MOL0     O32677   8.007   6.603   4.441 -0.2789 -0.7543 -0.2055
  962MOL0     C32678   8.026   6.702   4.537 -1.1322 -0.9508  0.1302
  962MOL0     C32679   7.916   6.681   4.646  0.1339 -0.9087 -0.9185
  962MOL0     C32680   7.900   6.799   4.752  0.5330  0.0012  0.5932
  962MOL0     C32681   7.799   6.792   4.854  0.7096 -1.4668  0.3953
  962MOL0     C32682   7.826   6.890   4.958  0.2212  0.7565  0.4861
  962MOL0     C32683   7.867   6.954   5.054 -0.3186 -0.4326  0.5083
  962MOL0     C32684   7.901   6.516   4.259  0.0680  0.2655 -0.0554
  962MOL0     C32685   7.830   6.517   4.141  0.4060  0.3254 -0.5712
  962MOL0     C32686   7.843   6.389   4.067 -0.1356 -1.1249  0.0357
  962MOL0     H32687   7.409   6.316   3.959  2.2527 -0.1653 -0.8969
  962MOL0     H32688   7.231   6.289   3.789  0.2003 -0.2287 -0.5767
  962MOL0     H32689   7.192   6.495   3.398 -1.0514  1.1430 -1.3011
  962MOL0     H32690   7.114   6.612   3.512  0.4169 -0.3331  0.2093
  962MOL0     H32691   6.960   6.499   3.334  0.5854  2.6454  0.4765
  962MOL0     H32692   6.979   6.358   3.445  0.8606  0.2805  0.4173
  962MOL0     H32693   6.777   6.451   3.482  0.9774 -1.5811  1.1845
  962MOL0     H32694   6.881   6.497   3.620 -0.1775 -1.1956  0.1476
  962MOL0     H32695   6.877   6.729   3.548  0.1434  1.1998 -0.2065
  962MOL0     H32696   6.835   6.684   3.381  0.2295 -3.2314 -1.4518
  962MOL0     H32697   6.644   6.615   3.598  0.7380 -0.2543  0.2105
  962MOL0     H32698   6.611   6.664   3.424  1.7397 -0.4071 -0.1446
  962MOL0     H32699   6.666   6.810   3.686 -3.4139 -0.1066  0.6949
  962MOL0     H32700   6.683   6.899   3.521  0.2815 -0.9213 -1.5259
  962MOL0     H32701   6.447   6.803   3.493  0.4473  1.6059 -1.6077
  962MOL0     H32702   6.484   6.959   3.585  1.7051  0.0435 -1.2442
  962MOL0     H32703   6.401   6.824   3.796 -1.2685 -1.2631 -0.2152
  962MOL0     H32704   6.302   6.835   3.650  0.8389  2.7687 -0.4443
  962MOL0     H32705   6.315   6.589   3.492 -2.5325  1.3521  1.0899
  962MOL0     H32706   6.266   6.350   3.470  0.0744  1.2962  1.1029
  962MOL0     H32707   6.285   6.250   3.618  0.5461  0.2753  1.5324
  962MOL0     H32708   6.520   6.339   3.462  1.8677 -0.4382  1.3443
  962MOL0     H32709   6.526   6.226   3.592 -0.4257 -1.7417 -0.5454
  962MOL0     H32710   6.454   6.177   3.300  3.0110  0.5033 -0.0585
  962MOL0     H32711   6.554   6.090   3.415 -0.4957 -0.3135  2.2348
  962MOL0     H32712   6.243   6.083   3.409 -1.9148 -1.5797  2.2769
  962MOL0     H32713   6.356   5.951   3.364 -1.9065  1.5684 -1.1933
  962MOL0     H32714   6.417   5.756   3.466  0.7062  2.0067  1.6081
  962MOL0     H32715   6.411   5.532   3.425 -0.0586  1.1097  0.2418
  962MOL0     H32716   6.233   5.514   3.386 -3.1299 -0.2423  2.7201
  962MOL0     H32717   6.312   5.434   3.531  1.8888 -0.4019 -0.7387
  962MOL0     H32718   5.885   5.376   3.845  1.8558 -1.1049 -1.2132
  962MOL0     H32719   5.713   5.184   3.844 -1.2357  0.7140  1.1789
  962MOL0     H32720   5.345   5.078   3.642 -0.2582  1.7561 -0.1628
  962MOL0     H32721   5.368   5.222   3.549 -0.4528 -0.4198 -3.1513
  962MOL0     H32722   5.553   5.089   3.424  0.0346 -1.4978  0.3551
  962MOL0     H32723   5.503   4.958   3.524 -1.5136 -0.6802 -0.1307
  962MOL0     H32724   5.410   4.927   3.290 -0.8984 -1.5871  0.2315
  962MOL0     H32725   5.336   5.077   3.289  3.2223  1.2722  0.1218
  962MOL0     H32726   5.251   4.881   3.512 -1.4950  0.1370  0.7425
  962MOL0     H32727   5.211   4.857   3.338  1.2678  1.8210 -1.7221
  962MOL0     H32728   5.141   5.124   3.445 -1.9026  0.7652 -0.7428
  962MOL0     H32729   5.053   5.028   3.332 -2.5370  3.1265  2.0630
  962MOL0     H32730   5.052   4.893   3.596  2.8205  1.2252 -0.3824
  962MOL0     H32731   4.931   4.923   3.471 -0.3320  1.9581 -1.4778
  962MOL0     H32732   4.949   5.182   3.553 -1.7590 -1.4303 -2.8843
  962MOL0     H32733   5.052   5.114   3.680 -0.5663 -1.5976  0.2101
  962MOL0     H32734   4.856   4.982   3.760  1.5054 -0.1707 -1.2570
  962MOL0     H32735   4.766   5.046   3.626 -1.7903  0.5330  1.4834
  962MOL0     H32736   5.537   5.367   3.498 -0.6745  3.1816  0.3761
  962MOL0     H32737   5.712   5.521   3.488  0.1850  0.7942  1.1840
  962MOL0     H32738   6.033   5.749   3.774  0.9680  0.6856  0.5074
  962MOL0     H32739   6.145   5.950   3.740 -0.9199 -0.7095  0.3327
  962MOL0     H32740   7.357   6.634   3.591 -2.0189  0.0623  0.1176
  962MOL0     H32741   7.550   6.659   3.733  0.1272 -1.0149 -0.0465
  962MOL0     H32742   7.682   6.814   4.192 -1.1167 -0.6606  2.5773
  962MOL0     H32743   7.847   6.827   4.366  0.5770 -0.9988  0.1936
  962MOL0     H32744   8.124   6.679   4.580 -1.4562  1.0759  2.1079
  962MOL0     H32745   8.016   6.805   4.501  1.1436 -0.7869 -0.1952
  962MOL0     H32746   7.928   6.590   4.705 -0.5547  0.0718  0.7918
  962MOL0     H32747   7.818   6.676   4.598  0.5456  2.8029 -2.5387
  962MOL0     H32748   7.996   6.810   4.803  0.8861  0.9952 -0.2380
  962MOL0     H32749   7.893   6.898   4.707  0.9757 -1.3909 -2.8382
  962MOL0     H32750   7.777   6.699   4.907  1.6640 -1.3259  1.0644
  962MOL0     H32751   7.713   6.827   4.797  2.5816  3.3655  0.0495
  962MOL0     H32752   7.901   7.024   5.127  0.5736 -0.7344  0.4015
  962MOL0     H32753   7.951   6.423   4.283  0.1974  0.0801 -1.0006
  962MOL0     H32754   7.929   6.331   4.102  2.3557  2.2501 -0.0341
  962MOL0     H32755   7.750   6.333   4.081  0.1151 -1.4357  0.4856
  962MOL0     H32756   7.855   6.402   3.959 -0.6936 -1.3601 -0.0605
  963MOL0     O32757   5.601   4.371   4.333 -0.5016  0.0585  0.0741
  963MOL0     C32758   5.510   4.304   4.385 -0.0293  0.0375 -0.4309
  963MOL0     O32759   5.518   4.190   4.463  0.6062  0.5030  0.4912
  963MOL0     C32760   5.632   4.154   4.525  0.3429 -0.2821  0.8452
  963MOL0     C32761   5.661   4.023   4.538 -0.6548 -0.3042  0.7319
  963MOL0     C32762   5.775   3.978   4.602 -0.9940  0.8981 -0.6437
  963MOL0     C32763   5.871   4.076   4.645 -0.1732  0.4006  1.1032
  963MOL0     O32764   5.993   4.044   4.707 -0.4200 -0.9455 -0.2441
  963MOL0     C32765   6.018   3.911   4.723 -0.7419 -0.2568  0.3095
  963MOL0     C32766   6.156   3.893   4.800  0.7698 -0.2678  0.5030
  963MOL0     C32767   6.283   3.932   4.728  0.5814 -0.2902  0.7743
  963MOL0     C32768   6.389   3.937   4.838  0.3233  0.2446 -0.2628
  963MOL0     C32769   6.523   3.994   4.798  0.4602  0.2971 -0.1954
  963MOL0     C32770   6.629   3.969   4.908 -0.8743 -0.1883 -0.0759
  963MOL0     C32771   6.689   3.835   4.891 -0.3019 -0.0634 -0.3754
  963MOL0     C32772   6.783   3.809   5.006  0.0452 -0.1586  0.6114
  963MOL0     N32773   6.850   3.679   4.993  0.1322 -0.1227  0.2751
  963MOL0     C32774   6.923   3.625   4.889 -0.1761  0.8148 -0.0274
  963MOL0     C32775   6.957   3.502   4.941 -0.7492  0.9298 -0.1477
  963MOL0     C32776   7.040   3.395   4.860  0.0725  0.8222 -0.1779
  963MOL0     C32777   7.187   3.422   4.856 -0.5233  0.2174 -0.8844
  963MOL0     C32778   7.242   3.443   5.004 -0.0184  0.1157 -0.1229
  963MOL0     C32779   7.400   3.440   5.008 -0.1883 -0.4718  1.0362
  963MOL0     O32780   7.448   3.553   4.926 -0.2594 -1.2659  0.1365
  963MOL0     C32781   7.586   3.565   4.899 -0.4498 -0.6674 -0.4633
  963MOL0     C32782   7.673   3.571   5.009 -0.3574  0.3809  0.8312
  963MOL0     C32783   7.808   3.585   4.982 -0.1260  0.6865 -0.9414
  963MOL0     C32784   7.890   3.575   5.108 -0.1560  0.3240  0.0739
  963MOL0     C32785   7.860   3.588   4.855  0.2357  0.4796  0.4387
  963MOL0     C32786   8.008   3.604   4.830 -0.6355 -0.6557 -1.2903
  963MOL0     O32787   8.047   3.636   4.706 -0.4165  0.9637 -0.1084
  963MOL0     C32788   8.183   3.663   4.674  1.3536  0.3006 -0.0240
  963MOL0     C32789   8.263   3.568   4.612 -0.1965  0.4036 -0.2500
  963MOL0     C32790   8.403   3.565   4.600  0.3259 -0.9587 -0.2098
  963MOL0     C32791   8.467   3.668   4.668  0.9314  0.3208 -0.2697
  963MOL0     O32792   8.603   3.678   4.678  0.0284  0.1059  0.4020
  963MOL0     C32793   8.688   3.573   4.621 -0.4693  0.3722 -0.2598
  963MOL0     C32794   8.837   3.626   4.627  0.4551  0.3220  0.6642
  963MOL0     C32795   8.873   3.741   4.533  0.6842  0.2305  0.2945
  963MOL0     C32796   9.007   3.807   4.561  0.8814  0.1330 -0.2533
  963MOL0     C32797   9.036   3.915   4.460 -1.0347  0.1801  0.2406
  963MOL0     C32798   9.173   3.979   4.491 -0.3654 -0.3438  0.6534
  963MOL0     C32799   9.205   4.062   4.365  0.1325 -0.8965  0.2702
  963MOL0     C32800   9.343   4.138   4.380  0.3148 -0.0145 -0.1233
  963MOL0    Cl32801   9.491   4.051   4.428 -0.2094 -0.0534  0.0786
  963MOL0     C32802   8.393   3.778   4.722  0.5170  0.6326 -0.0328
  963MOL0     C32803   8.250   3.777   4.719 -0.5689 -0.0259  0.0188
  963MOL0     O32804   8.085   3.589   4.926  0.1815 -0.8022  0.6238
  963MOL0     C32805   7.768   3.596   4.751 -0.3781  1.0248  0.7876
  963MOL0     C32806   7.637   3.591   4.770  0.3564 -0.9081 -0.8342
  963MOL0     N32807   6.908   3.486   5.069 -0.2598  0.5160  0.9787
  963MOL0     N32808   6.838   3.592   5.096  0.4323  0.8458  0.5105
  963MOL0     C32809   5.846   4.217   4.624  0.1762 -0.1747 -0.1628
  963MOL0     C32810   5.719   4.251   4.578 -0.0425 -0.8746  0.4780
  963MOL0     C32811   5.382   4.334   4.322  0.4315 -0.5265 -0.0033
  963MOL0     C32812   5.269   4.302   4.398  1.2842  0.6810  0.3521
  963MOL0     C32813   5.139   4.342   4.359  0.2396  0.6387 -0.2334
  963MOL0     C32814   5.131   4.416   4.245  1.2342 -0.8456  1.3366
  963MOL0     O32815   4.997   4.436   4.210  0.3397 -0.8388  0.3835
  963MOL0     C32816   4.978   4.555   4.134 -0.4605  0.3315 -0.1020
  963MOL0     C32817   4.837   4.599   4.141 -0.0541 -0.0853  1.0198
  963MOL0     C32818   4.800   4.629   4.287  0.1491 -0.0783 -0.0216
  963MOL0     C32819   4.706   4.742   4.298  1.1649 -0.3014  0.2424
  963MOL0     C32820   4.690   4.780   4.436  0.6774  0.3066 -0.5175
  963MOL0     C32821   4.701   4.807   4.555 -0.3011 -0.0156  0.2643
  963MOL0     C32822   5.238   4.439   4.162  0.1223 -0.0671 -0.7218
  963MOL0     C32823   5.362   4.390   4.191  1.0846 -0.0033 -0.8568
  963MOL0     C32824   5.463   4.398   4.084 -0.4039 -1.0341  0.1485
  963MOL0     H32825   5.600   3.948   4.488  1.3603  0.2569 -2.9428
  963MOL0     H32826   5.774   3.872   4.625 -1.9335  1.3728  1.7543
  963MOL0     H32827   6.032   3.858   4.629  2.3066  0.3087  0.3260
  963MOL0     H32828   5.943   3.858   4.782  0.0268 -2.6681 -0.7401
  963MOL0     H32829   6.154   3.954   4.891  3.6312 -0.0381  0.5147
  963MOL0     H32830   6.162   3.787   4.827 -1.5355  0.2154  3.3707
  963MOL0     H32831   6.311   3.861   4.650 -0.6034 -2.2729  2.0409
  963MOL0     H32832   6.266   4.027   4.676  0.5987 -0.2856  0.7771
  963MOL0     H32833   6.351   3.991   4.925  3.3004  0.7634  0.8341
  963MOL0     H32834   6.396   3.832   4.865 -0.9313  0.4695  1.0289
  963MOL0     H32835   6.504   4.101   4.781 -0.5799  0.6834  2.8217
  963MOL0     H32836   6.558   3.955   4.702  1.3948 -0.6237  0.5104
  963MOL0     H32837   6.709   4.044   4.914 -1.2242  0.1033  1.2673
  963MOL0     H32838   6.592   3.990   5.008  0.8249  1.5554  0.2462
  963MOL0     H32839   6.754   3.843   4.803  1.4418 -4.1779  0.3347
  963MOL0     H32840   6.605   3.765   4.887 -0.8570  0.5605  0.1073
  963MOL0     H32841   6.861   3.885   4.998  1.4176 -1.7511 -3.2104
  963MOL0     H32842   6.724   3.804   5.099 -1.9641 -2.6822 -0.6578
  963MOL0     H32843   6.958   3.657   4.792 -0.4362 -0.9007 -0.7080
  963MOL0     H32844   7.003   3.406   4.757 -2.5754 -1.7462  0.3541
  963MOL0     H32845   7.013   3.297   4.900 -1.6596  1.0610 -0.6918
  963MOL0     H32846   7.231   3.332   4.813  0.2994  0.1966 -0.0364
  963MOL0     H32847   7.210   3.514   4.802 -1.2944 -0.4271 -2.3551
  963MOL0     H32848   7.205   3.542   5.031 -1.8890  0.1678 -2.5267
  963MOL0     H32849   7.192   3.379   5.078 -0.3297  0.3591 -0.1215
  963MOL0     H32850   7.426   3.455   5.113  0.0818  0.4688  0.8531
  963MOL0     H32851   7.434   3.341   4.977  0.7968 -0.3727  1.7432
  963MOL0     H32852   7.646   3.554   5.112  2.2113  0.0822  1.5116
  963MOL0     H32853   7.946   3.481   5.108 -2.0783 -0.8980 -2.0020
  963MOL0     H32854   7.822   3.567   5.193 -0.1467 -0.7981 -0.0040
  963MOL0     H32855   7.958   3.657   5.134 -0.8741  0.0480  3.2367
  963MOL0     H32856   8.217   3.484   4.563  0.9845 -0.3584 -0.1049
  963MOL0     H32857   8.450   3.485   4.543 -1.6906 -0.5924 -2.5835
  963MOL0     H32858   8.681   3.482   4.681 -1.1231  0.8368  0.3880
  963MOL0     H32859   8.683   3.550   4.515  2.0017  2.4342 -0.9366
  963MOL0     H32860   8.859   3.640   4.733  2.2926  0.4973  0.2866
  963MOL0     H32861   8.899   3.542   4.595 -0.6814 -0.3961  0.2726
  963MOL0     H32862   8.789   3.811   4.535  0.3674 -0.1551  1.0051
  963MOL0     H32863   8.889   3.692   4.437 -1.9541 -1.8602  0.8072
  963MOL0     H32864   9.082   3.728   4.567 -0.2111 -0.9505 -0.4063
  963MOL0     H32865   9.005   3.843   4.664  0.4167 -1.4159  0.3155
  963MOL0     H32866   9.030   3.885   4.355  0.2028  1.6216 -0.2943
  963MOL0     H32867   8.962   3.993   4.481 -0.5016  0.6478  0.4324
  963MOL0     H32868   9.252   3.903   4.484  2.1154  2.1116  0.2925
  963MOL0     H32869   9.175   4.038   4.583  2.2420 -0.2674  0.6402
  963MOL0     H32870   9.135   4.145   4.354 -0.8044 -1.6247  0.6368
  963MOL0     H32871   9.206   4.008   4.270 -0.9969  0.7362 -0.7271
  963MOL0     H32872   9.334   4.225   4.447 -2.3828  1.6125 -2.3888
  963MOL0     H32873   9.370   4.181   4.283  0.9917  0.8156  0.4115
  963MOL0     H32874   8.450   3.859   4.768  0.9055  0.1862  0.2867
  963MOL0     H32875   8.195   3.852   4.775 -0.7542 -1.2869  1.6047
  963MOL0     H32876   7.795   3.600   4.646 -1.7990 -0.3459  0.3331
  963MOL0     H32877   7.569   3.598   4.686 -0.4359  1.3306 -0.0879
  963MOL0     H32878   5.920   4.291   4.653  1.4589 -1.0204 -1.1333
  963MOL0     H32879   5.689   4.355   4.584  2.3582 -0.0780 -0.1336
  963MOL0     H32880   5.289   4.246   4.488  0.3544 -3.9762 -2.0368
  963MOL0     H32881   5.053   4.314   4.420  1.1235  0.9369  1.1778
  963MOL0     H32882   5.042   4.635   4.173  1.4794 -0.4337 -1.5412
  963MOL0     H32883   5.002   4.545   4.028 -1.7973  1.1135 -0.4943
  963MOL0     H32884   4.772   4.518   4.105  1.0544  0.4995 -2.7680
  963MOL0     H32885   4.833   4.678   4.065  5.0100 -2.4520 -2.2523
  963MOL0     H32886   4.756   4.541   4.333 -0.1448 -1.3300 -2.5242
  963MOL0     H32887   4.892   4.643   4.344  0.9146  0.1902 -1.2686
  963MOL0     H32888   4.612   4.721   4.247 -1.7001  0.5848  4.6427
  963MOL0     H32889   4.749   4.827   4.244  1.6672 -1.2455 -0.8952
  963MOL0     H32890   4.688   4.834   4.657 -0.8857 -0.8436  0.4210
  963MOL0     H32891   5.225   4.480   4.063  1.3627  2.1462 -0.0407
  963MOL0     H32892   5.423   4.419   3.984  0.4958 -2.1093 -0.4607
  963MOL0     H32893   5.546   4.468   4.095 -1.1805  0.0242 -0.5744
  963MOL0     H32894   5.509   4.299   4.075  1.2159 -0.2440 -0.6407
  964MOL0     O32895  11.162   1.108  10.993 -0.4855  0.4252  0.2590
  964MOL0     C32896  11.116   1.079  10.881 -0.0633  0.4686 -0.4452
  964MOL0     O32897  11.185   1.015  10.781  0.3859  0.1349  0.2005
  964MOL0     C32898  11.314   0.967  10.793 -0.3741 -0.6467  0.3713
  964MOL0     C32899  11.357   0.880  10.892  0.3024 -0.2395  0.0428
  964MOL0     C32900  11.483   0.819  10.881 -1.1869  0.7691  0.2286
  964MOL0     C32901  11.573   0.851  10.781  0.4220 -0.5402  0.0042
  964MOL0     O32902  11.696   0.793  10.776 -0.2151 -0.3398  0.0108
  964MOL0     C32903  11.783   0.820  10.665  0.0551  0.0439 -0.1109
  964MOL0     C32904  11.906   0.743  10.681 -0.0226  0.2870 -0.0776
  964MOL0     C32905  11.894   0.586  10.702 -0.5207  0.2492 -0.1569
  964MOL0     C32906  12.027   0.514  10.668  0.0679 -0.1427  0.2629
  964MOL0     C32907  12.018   0.466  10.524  0.3304 -0.1206 -1.0849
  964MOL0     C32908  12.125   0.360  10.490 -0.1348  0.4028 -1.1215
  964MOL0     C32909  12.272   0.414  10.484  0.1354 -0.0921  0.3782
  964MOL0     C32910  12.364   0.320  10.414  0.0216 -0.7900  0.0221
  964MOL0     N32911  12.381   0.201  10.498 -0.1055  0.2247 -0.4132
  964MOL0     C32912  12.497   0.178  10.570  0.1367 -0.3208 -0.8937
  964MOL0     C32913  12.494   0.042  10.592  0.3575  0.3881  0.8326
  964MOL0     C32914  12.592  -0.031  10.673  0.4243  0.0292 -0.4058
  964MOL0     C32915  12.669  -0.119  10.578 -0.4945  0.7189 -0.8255
  964MOL0     C32916  12.766  -0.191  10.666 -0.1587  0.1915 -0.1231
  964MOL0     C32917  12.841  -0.305  10.591 -0.5508  0.3934  0.2083
  964MOL0     O32918  12.905  -0.258  10.471 -0.3492 -0.4232 -0.3591
  964MOL0     C32919  12.927  -0.339  10.369  0.5749  0.7469  0.2156
  964MOL0     C32920  12.906  -0.482  10.382  0.1822 -0.6639  0.3544
  964MOL0     C32921  12.959  -0.572  10.290  0.0220 -0.9121  0.9977
  964MOL0     C32922  12.939  -0.716  10.320 -0.3047  0.0534 -0.1962
  964MOL0     C32923  13.025  -0.518  10.174  0.7605 -0.0581  0.4710
  964MOL0     C32924  13.077  -0.605  10.065 -0.1746  0.3457 -0.3381
  964MOL0     O32925  13.086  -0.533   9.952 -0.0481  0.1907  0.1796
  964MOL0     C32926  13.126  -0.602   9.840 -0.3356 -0.4619 -0.7895
  964MOL0     C32927  13.057  -0.592   9.723  1.0447 -0.4637 -0.1670
  964MOL0     C32928  13.096  -0.664   9.610 -0.6316 -0.9977 -0.9263
  964MOL0     C32929  13.207  -0.746   9.620 -0.1185 -0.3436  0.8589
  964MOL0     O32930  13.259  -0.815   9.512  0.5526 -0.7348  0.6857
  964MOL0     C32931  13.169  -0.876   9.413 -0.0871 -0.0715 -0.4779
  964MOL0     C32932  13.258  -0.921   9.292 -0.2680 -0.5059  0.1926
  964MOL0     C32933  13.337  -0.790   9.248  0.1723 -1.0932 -0.5075
  964MOL0     C32934  13.392  -0.819   9.104  0.5465 -1.2429  0.6977
  964MOL0     C32935  13.510  -0.918   9.093 -0.9857  0.5122  0.2399
  964MOL0     C32936  13.641  -0.898   9.188 -0.4983  0.4546  0.1341
  964MOL0     C32937  13.755  -0.818   9.122  0.5833 -0.3973 -0.8156
  964MOL0     C32938  13.852  -0.768   9.229  0.3184 -0.1109  0.1704
  964MOL0    Cl32939  13.943  -0.913   9.290  0.4878  0.5324  0.0559
  964MOL0     C32940  13.287  -0.744   9.730  0.2611  0.2026  0.3417
  964MOL0     C32941  13.257  -0.670   9.838  1.3533 -0.8535 -0.8647
  964MOL0     O32942  13.082  -0.731  10.078  0.3379 -0.5949  1.3049
  964MOL0     C32943  13.038  -0.372  10.159  0.4150  0.7039 -0.2835
  964MOL0     C32944  12.989  -0.293  10.260 -0.1364  0.6708 -0.2882
  964MOL0     N32945  12.385  -0.017  10.533  0.1664  0.4339  0.2768
  964MOL0     N32946  12.330   0.081  10.469 -0.2513  0.9713 -0.0253
  964MOL0     C32947  11.531   0.952  10.693 -1.3204  0.1235  0.9180
  964MOL0     C32948  11.400   1.005  10.693  0.4173  0.4944  0.3818
  964MOL0     C32949  10.978   1.125  10.848  0.5742 -0.8042  0.6771
  964MOL0     C32950  10.947   1.254  10.899 -1.2987  0.4253 -0.0572
  964MOL0     C32951  10.814   1.303  10.892 -0.7165  0.2687 -0.0452
  964MOL0     C32952  10.714   1.225  10.827  0.4591 -0.5755 -0.5612
  964MOL0     O32953  10.585   1.268  10.830  0.3487 -0.3976  0.3452
  964MOL0     C32954  10.556   1.329  10.704 -0.4274 -0.1071 -0.0329
  964MOL0     C32955  10.427   1.273  10.666  0.3926 -0.7155  0.1916
  964MOL0     C32956  10.387   1.326  10.518  0.3649  0.5501 -0.6141
  964MOL0     C32957  10.316   1.462  10.531  0.5842 -0.6643 -0.5571
  964MOL0     C32958  10.310   1.541  10.406  0.5193 -0.3893  0.3841
  964MOL0     C32959  10.285   1.591  10.297  0.2510 -0.0602  0.0655
  964MOL0     C32960  10.745   1.102  10.770  0.6650  0.9033  0.6486
  964MOL0     C32961  10.879   1.053  10.778 -1.2295 -0.1267 -0.6885
  964MOL0     C32962  10.907   0.915  10.716  0.4668 -0.5723  0.0511
  964MOL0     H32963  11.293   0.837  10.968  1.6416 -1.8428  0.3368
  964MOL0     H32964  11.513   0.745  10.956 -0.0965  0.8419 -0.1216
  964MOL0     H32965  11.820   0.922  10.668 -0.3756  0.2034 -0.1729
  964MOL0     H32966  11.732   0.796  10.571  1.4473 -0.7930 -0.6875
  964MOL0     H32967  11.966   0.762  10.592 -2.7906 -0.4534 -2.2292
  964MOL0     H32968  11.967   0.788  10.761  2.3267  0.2677 -1.7347
  964MOL0     H32969  11.890   0.574  10.811 -0.2407  0.2311 -0.1477
  964MOL0     H32970  11.804   0.543  10.658 -0.7543 -0.4241  0.9303
  964MOL0     H32971  12.115   0.572  10.697  0.2798 -0.6911  0.7448
  964MOL0     H32972  12.029   0.421  10.726  0.5370 -0.4970 -0.3004
  964MOL0     H32973  12.020   0.550  10.455  2.7872  1.5298  0.8633
  964MOL0     H32974  11.921   0.414  10.518 -0.2177  0.8298 -0.7195
  964MOL0     H32975  12.134   0.283  10.567  1.5717  0.8191 -0.8577
  964MOL0     H32976  12.108   0.324  10.388  1.3035  0.8428 -1.5477
  964MOL0     H32977  12.314   0.422  10.585  0.4490 -0.4043  0.2773
  964MOL0     H32978  12.268   0.513  10.438  0.0737 -0.3730 -0.2244
  964MOL0     H32979  12.320   0.292  10.319 -0.4053 -3.0152  0.8223
  964MOL0     H32980  12.466   0.360  10.407  0.4609 -1.7861  0.4722
  964MOL0     H32981  12.569   0.252  10.602  1.9375 -0.5928 -3.8621
  964MOL0     H32982  12.541  -0.089  10.750  1.5126 -0.5283 -0.0806
  964MOL0     H32983  12.660   0.039  10.722 -2.7407  2.7630  0.4643
  964MOL0     H32984  12.613  -0.195  10.522  0.4825  1.4258 -2.8709
  964MOL0     H32985  12.711  -0.057  10.497 -0.1666  0.9601 -0.4722
  964MOL0     H32986  12.843  -0.119  10.697 -1.4194  0.9926  1.3089
  964MOL0     H32987  12.716  -0.227  10.757 -1.2087  0.6288 -0.5110
  964MOL0     H32988  12.909  -0.370  10.646 -1.0086 -1.4649 -1.3101
  964MOL0     H32989  12.767  -0.382  10.566  3.4702 -3.5435 -0.7228
  964MOL0     H32990  12.836  -0.524  10.454 -1.7027  1.1845 -0.3065
  964MOL0     H32991  13.040  -0.756  10.333  0.1640  1.2455 -0.1217
  964MOL0     H32992  12.891  -0.754  10.229  0.3561 -0.1306 -0.4813
  964MOL0     H32993  12.882  -0.746  10.408  2.4346  0.7100  1.9412
  964MOL0     H32994  12.963  -0.536   9.721  1.3173  0.0208  0.3269
  964MOL0     H32995  13.043  -0.645   9.517 -2.6001  0.9756  0.4967
  964MOL0     H32996  13.123  -0.963   9.460  0.5595 -1.4355 -2.2115
  964MOL0     H32997  13.080  -0.821   9.381 -1.6344 -1.9465  0.4669
  964MOL0     H32998  13.328  -0.995   9.331 -1.5051 -0.5191  2.5634
  964MOL0     H32999  13.189  -0.958   9.215 -1.8078 -2.0889  2.2389
  964MOL0     H33000  13.410  -0.765   9.325  0.3045  0.1747 -1.0255
  964MOL0     H33001  13.268  -0.705   9.243 -0.3896 -1.3579  1.6305
  964MOL0     H33002  13.419  -0.725   9.054  0.8168 -1.9733 -0.5862
  964MOL0     H33003  13.313  -0.867   9.045  2.1639 -0.2513 -2.5444
  964MOL0     H33004  13.463  -1.004   9.142  0.3561 -0.6025 -0.3360
  964MOL0     H33005  13.532  -0.947   8.990 -0.0078 -2.2937  1.1486
  964MOL0     H33006  13.679  -1.001   9.196  0.5521  0.4244 -3.3671
  964MOL0     H33007  13.617  -0.851   9.283  0.7954  2.6660 -0.5619
  964MOL0     H33008  13.721  -0.736   9.058 -1.3155  1.4920  2.4029
  964MOL0     H33009  13.819  -0.884   9.062 -0.4246 -3.9123  1.6822
  964MOL0     H33010  13.800  -0.721   9.313 -1.8603  0.3352 -1.3312
  964MOL0     H33011  13.921  -0.693   9.192  2.0910 -0.2767  2.9006
  964MOL0     H33012  13.390  -0.777   9.721  0.7029  1.5107  0.4824
  964MOL0     H33013  13.331  -0.660   9.917 -0.1386  2.6512  0.3045
  964MOL0     H33014  13.087  -0.326  10.074 -0.8387  0.7385 -1.0150
  964MOL0     H33015  13.001  -0.186  10.246 -0.1647  0.5437 -1.3942
  964MOL0     H33016  11.602   0.997  10.623 -1.3659 -0.1115  0.7189
  964MOL0     H33017  11.364   1.083  10.628 -0.5342  0.9092  1.3937
  964MOL0     H33018  11.027   1.316  10.937 -0.4394 -2.1371  2.6813
  964MOL0     H33019  10.784   1.398  10.934 -1.2461  0.3252 -0.5329
  964MOL0     H33020  10.567   1.438  10.715 -0.8539 -0.0106 -0.5044
  964MOL0     H33021  10.633   1.309  10.629 -1.7132 -1.4537 -1.0451
  964MOL0     H33022  10.340   1.295  10.730 -2.0344 -1.0264 -2.7734
  964MOL0     H33023  10.438   1.164  10.670  0.7208 -0.6533  1.3801
  964MOL0     H33024  10.470   1.314  10.447 -0.1734 -0.6492 -1.0685
  964MOL0     H33025  10.300   1.270  10.482  0.4672  0.0376 -0.0812
  964MOL0     H33026  10.349   1.514  10.621  2.9213 -3.0772  0.1174
  964MOL0     H33027  10.213   1.440  10.560  0.2720  0.6383 -0.6105
  964MOL0     H33028  10.280   1.622  10.194  4.8297 -0.0344 -0.3814
  964MOL0     H33029  10.677   1.033  10.720  3.0264 -0.4290 -0.9048
  964MOL0     H33030  10.966   0.915  10.625 -0.6999  2.1517 -0.8172
  964MOL0     H33031  10.946   0.844  10.790  1.6906 -0.1970 -0.2183
  964MOL0     H33032  10.815   0.866  10.682  1.7929 -2.4060 -1.0503
  965MOL0     O33033   7.679  11.299  10.099 -0.2795  0.5246 -0.6132
  965MOL0     C33034   7.575  11.376  10.089 -0.8851  0.7692  0.2232
  965MOL0     O33035   7.585  11.512  10.062  0.1774  0.1405  0.0002
  965MOL0     C33036   7.715  11.544  10.038  0.1160 -0.4658  0.2637
  965MOL0     C33037   7.762  11.534   9.905 -0.7954 -0.2071 -0.8585
  965MOL0     C33038   7.904  11.561   9.879 -0.3063  0.7470 -0.0311
  965MOL0     C33039   7.994  11.598   9.982 -0.1140 -0.2967 -0.5479
  965MOL0     O33040   8.129  11.629   9.969  0.1177  0.1531  0.5685
  965MOL0     C33041   8.166  11.663   9.833 -0.6914  0.3344 -0.5313
  965MOL0     C33042   8.105  11.798   9.795  0.1825 -0.0160 -0.9630
  965MOL0     C33043   8.146  11.848   9.666 -0.3432 -0.2888  0.3589
  965MOL0     C33044   8.301  11.875   9.659 -0.1239 -1.2014  0.7395
  965MOL0     C33045   8.323  11.949   9.515  0.2571  0.2240 -0.3340
  965MOL0     C33046   8.308  11.855   9.394 -0.0087 -0.5143  0.3027
  965MOL0     C33047   8.342  11.930   9.261 -0.9722 -0.0957  0.4688
  965MOL0     C33048   8.246  12.039   9.225 -0.8256  0.0146 -0.1884
  965MOL0     N33049   8.137  11.986   9.149  0.9783 -0.3420  0.8290
  965MOL0     C33050   8.164  11.978   9.009 -0.2328 -0.3621 -0.6108
  965MOL0     C33051   8.046  11.952   8.961  0.0455 -0.3171 -0.3878
  965MOL0     C33052   8.015  11.946   8.815 -0.5108 -0.0551 -0.6567
  965MOL0     C33053   7.901  11.844   8.789 -0.2244  0.5964  0.2732
  965MOL0     C33054   7.813  11.894   8.676 -0.0209  0.0731  0.6376
  965MOL0     C33055   7.882  11.903   8.540 -0.7988 -0.4314 -0.4100
  965MOL0     O33056   7.891  11.778   8.474 -0.1567 -0.0300 -0.0456
  965MOL0     C33057   7.962  11.747   8.364 -0.1169 -0.2071 -0.9877
  965MOL0     C33058   8.007  11.618   8.336 -0.3087  0.0676  0.0026
  965MOL0     C33059   8.100  11.594   8.235  0.8613 -0.7004 -0.6294
  965MOL0     C33060   8.153  11.453   8.219 -0.7078  1.1810 -0.0664
  965MOL0     C33061   8.145  11.707   8.155  0.6129  0.0434 -0.1697
  965MOL0     C33062   8.240  11.697   8.036  0.1512 -0.6624 -0.2093
  965MOL0     O33063   8.287  11.817   7.994 -0.3469 -0.4155  0.2174
  965MOL0     C33064   8.398  11.839   7.921 -0.2209 -0.0970 -0.1067
  965MOL0     C33065   8.415  11.978   7.903 -0.1307  0.3841  0.6781
  965MOL0     C33066   8.525  12.027   7.836 -0.3179 -0.6869 -0.6740
  965MOL0     C33067   8.603  11.933   7.753  0.4301 -0.9278 -0.0956
  965MOL0     O33068   8.707  11.971   7.676  1.0421  0.2105 -0.3324
  965MOL0     C33069   8.705  12.098   7.617 -0.1594 -0.5625  0.5242
  965MOL0     C33070   8.809  12.117   7.503  0.5545 -0.6873 -0.0456
  965MOL0     C33071   8.952  12.070   7.533 -0.0435  0.1522  0.5640
  965MOL0     C33072   9.037  12.065   7.407 -0.2333  0.1154 -0.6348
  965MOL0     C33073   9.188  12.039   7.438 -0.0345  0.1515 -0.4535
  965MOL0     C33074   9.265  12.148   7.505  1.1958 -0.4000 -0.2344
  965MOL0     C33075   9.408  12.104   7.520  0.9383 -0.9319 -0.5419
  965MOL0     C33076   9.485  12.200   7.602  0.1324  0.1364 -0.5847
  965MOL0    Cl33077   9.481  12.370   7.548 -0.3326 -0.3850  0.4595
  965MOL0     C33078   8.592  11.801   7.789  0.6657  0.4996 -0.1719
  965MOL0     C33079   8.496  11.751   7.873  0.0354 -0.7956 -0.6428
  965MOL0     O33080   8.281  11.585   7.988  0.1995  0.5124  0.0486
  965MOL0     C33081   8.095  11.838   8.189 -0.5697  0.1660 -0.3626
  965MOL0     C33082   8.002  11.857   8.293  0.1425  0.2611 -0.0674
  965MOL0     N33083   7.952  11.944   9.066  0.1006  0.5654 -0.1270
  965MOL0     N33084   8.008  11.971   9.180 -0.2643  0.4087 -0.4725
  965MOL0     C33085   7.940  11.609  10.106 -0.2958 -0.1203  0.3581
  965MOL0     C33086   7.806  11.578  10.138  0.0838  0.5298  0.6703
  965MOL0     C33087   7.436  11.315  10.101 -0.9860  0.4302 -0.1563
  965MOL0     C33088   7.336  11.386  10.039  0.0864  0.6109  0.4253
  965MOL0     C33089   7.202  11.354  10.049  0.0331  0.5389 -1.0408
  965MOL0     C33090   7.161  11.249  10.124 -0.2354  0.1107 -0.4173
  965MOL0     O33091   7.036  11.212  10.130  1.5131  0.0614 -0.1275
  965MOL0     C33092   6.938  11.293  10.059 -0.3672  0.2495 -0.2314
  965MOL0     C33093   6.787  11.269  10.098 -0.4242 -0.3518 -0.1075
  965MOL0     C33094   6.769  11.305  10.247  0.9045 -0.1798 -0.1147
  965MOL0     C33095   6.619  11.293  10.283  0.3059 -0.6460 -0.1644
  965MOL0     C33096   6.600  11.352  10.418 -0.6059 -0.7121 -0.2693
  965MOL0     C33097   6.599  11.388  10.534 -0.4870  0.2061 -0.3198
  965MOL0     C33098   7.256  11.169  10.187  0.1399 -0.3395  0.2378
  965MOL0     C33099   7.391  11.189  10.170 -0.6873 -0.0984 -0.2270
  965MOL0     C33100   7.491  11.093  10.215 -0.9354 -0.5091 -0.2021
  965MOL0     H33101   7.695  11.507   9.824 -3.1488  0.2928  0.8295
  965MOL0     H33102   7.924  11.558   9.772  1.4609  2.1870  0.2160
  965MOL0     H33103   8.134  11.592   9.757 -0.6067  2.3978 -2.5819
  965MOL0     H33104   8.275  11.664   9.831 -0.6516  0.0628  0.6170
  965MOL0     H33105   7.996  11.804   9.796  0.2103  0.6999  0.0161
  965MOL0     H33106   8.152  11.871   9.862 -0.4636  1.4918 -2.0865
  965MOL0     H33107   8.110  11.773   9.596 -1.2481 -0.8249  1.3595
  965MOL0     H33108   8.103  11.947   9.651  1.0942  0.4636  0.9336
  965MOL0     H33109   8.327  11.944   9.740 -1.2836 -2.2064  2.0239
  965MOL0     H33110   8.354  11.779   9.660  1.7020 -0.2712 -0.7573
  965MOL0     H33111   8.422  11.994   9.510  0.8941 -0.4803  3.0274
  965MOL0     H33112   8.251  12.031   9.524  0.4976  0.3059  1.1167
  965MOL0     H33113   8.380  11.776   9.418 -0.0930 -0.3993  0.9395
  965MOL0     H33114   8.210  11.806   9.386  0.7659 -2.5133  2.0229
  965MOL0     H33115   8.335  11.862   9.176 -0.7662  1.5859 -0.9614
  965MOL0     H33116   8.445  11.965   9.268  0.0423 -1.9659 -3.0156
  965MOL0     H33117   8.214  12.100   9.310  1.3600 -0.6748  1.2105
  965MOL0     H33118   8.304  12.110   9.165 -1.2262  0.3271 -0.2083
  965MOL0     H33119   8.256  11.998   8.956 -2.0442  1.1441 -3.4245
  965MOL0     H33120   8.101  11.920   8.752  0.0881 -0.8739  0.4722
  965MOL0     H33121   8.000  12.051   8.788  0.6044  0.2870 -0.0150
  965MOL0     H33122   7.940  11.747   8.754 -1.5948  0.4694 -0.9909
  965MOL0     H33123   7.848  11.813   8.880 -1.0621 -0.9390 -0.6936
  965MOL0     H33124   7.727  11.830   8.657  0.6698 -1.0807  1.3079
  965MOL0     H33125   7.785  11.998   8.699 -1.2688 -0.0741 -0.1299
  965MOL0     H33126   7.834  11.975   8.474 -0.2323 -2.6588 -3.4970
  965MOL0     H33127   7.984  11.940   8.554 -0.8887  0.4337 -1.8653
  965MOL0     H33128   7.982  11.533   8.398  1.6322 -1.9191 -1.7839
  965MOL0     H33129   8.190  11.417   8.123  2.6538 -2.9532  2.4309
  965MOL0     H33130   8.072  11.382   8.239 -1.6100  1.2588 -2.9585
  965MOL0     H33131   8.236  11.436   8.289 -1.3105  2.5898  1.0371
  965MOL0     H33132   8.341  12.045   7.946 -0.8188 -0.1373  0.3416
  965MOL0     H33133   8.537  12.135   7.825 -0.4534 -0.8683 -3.2976
  965MOL0     H33134   8.605  12.131   7.590  1.3638  2.3108 -2.3987
  965MOL0     H33135   8.747  12.165   7.693  2.3939 -0.8874 -0.4758
  965MOL0     H33136   8.771  12.057   7.420 -0.1640 -3.5441  2.1680
  965MOL0     H33137   8.802  12.220   7.466 -3.4119 -1.6394 -2.5900
  965MOL0     H33138   8.946  11.971   7.580 -0.2829 -0.1985 -0.1770
  965MOL0     H33139   8.990  12.140   7.608  0.1789 -1.9250  2.4831
  965MOL0     H33140   9.025  12.164   7.363  0.0494  0.2846 -0.3341
  965MOL0     H33141   8.994  11.985   7.345  0.4105 -1.2871  0.6747
  965MOL0     H33142   9.187  11.947   7.497 -0.2159 -0.1975 -0.9875
  965MOL0     H33143   9.239  12.017   7.344 -1.3839  0.5290 -1.3077
  965MOL0     H33144   9.223  12.171   7.603  1.2793 -0.5140 -0.1732
  965MOL0     H33145   9.264  12.242   7.447  1.1602  0.0472  0.4814
  965MOL0     H33146   9.459  12.096   7.423  2.2694  0.8685 -0.0499
  965MOL0     H33147   9.414  12.007   7.569  0.0411 -0.9669 -0.4842
  965MOL0     H33148   9.589  12.166   7.606 -0.2962 -1.2146 -0.6743
  965MOL0     H33149   9.465  12.186   7.708  2.1997 -1.5031 -0.3520
  965MOL0     H33150   8.669  11.739   7.742  0.3257  3.0254 -4.6736
  965MOL0     H33151   8.487  11.643   7.878 -2.4949 -0.7704 -2.2492
  965MOL0     H33152   8.128  11.923   8.130  0.9776  0.1027  0.3434
  965MOL0     H33153   7.955  11.955   8.296  1.5539  1.1482 -3.2041
  965MOL0     H33154   8.006  11.617  10.192 -0.5418 -1.7224  0.7445
  965MOL0     H33155   7.771  11.553  10.238  0.0717 -1.4565  0.2086
  965MOL0     H33156   7.348  11.466   9.967 -1.6526 -1.0384 -1.8461
  965MOL0     H33157   7.140  11.423   9.991  0.5906 -0.0335 -2.3598
  965MOL0     H33158   6.956  11.399  10.079  0.3318  0.0175  0.3972
  965MOL0     H33159   6.960  11.283   9.952  5.3590 -2.6509  0.8271
  965MOL0     H33160   6.774  11.161  10.088 -0.0935 -0.2174 -2.6417
  965MOL0     H33161   6.722  11.331  10.035 -0.3264  2.7897  2.6370
  965MOL0     H33162   6.828  11.248  10.319  2.7430  2.9618  1.0100
  965MOL0     H33163   6.804  11.408  10.252  2.2757 -0.6949  3.0751
  965MOL0     H33164   6.605  11.185  10.285 -2.5187 -0.3664 -0.6624
  965MOL0     H33165   6.549  11.335  10.210  1.2293 -1.6635 -1.6953
  965MOL0     H33166   6.600  11.414  10.638  0.7918  0.4378 -0.3845
  965MOL0     H33167   7.216  11.085  10.243 -1.0933  0.3180  0.3702
  965MOL0     H33168   7.575  11.068  10.149 -0.9317  0.2799 -0.4963
  965MOL0     H33169   7.528  11.141  10.306 -1.3962 -0.8017  0.1466
  965MOL0     H33170   7.448  10.997  10.245 -0.4012 -1.0424 -1.0850
  966MOL0     O33171   9.584   7.281   8.091  0.1744  0.4010  0.4850
  966MOL0     C33172   9.527   7.370   8.031 -0.2030 -0.1594  0.2115
  966MOL0     O33173   9.388   7.406   8.042  0.7481  0.3717 -0.1858
  966MOL0     C33174   9.305   7.339   8.127  1.1335  0.5388  0.6532
  966MOL0     C33175   9.197   7.410   8.166  0.2897 -0.2113  0.3337
  966MOL0     C33176   9.098   7.348   8.249 -1.0795 -0.5265 -0.4059
  966MOL0     C33177   9.115   7.218   8.301  0.0751 -0.8828  0.4623
  966MOL0     O33178   9.010   7.173   8.377 -0.4681  0.0782 -0.2992
  966MOL0     C33179   9.030   7.043   8.449 -0.2119  0.0447 -0.0636
  966MOL0     C33180   8.905   7.021   8.523 -0.0186 -0.5019  0.4437
  966MOL0     C33181   8.885   6.872   8.551 -0.0126  0.0543 -0.3020
  966MOL0     C33182   8.750   6.873   8.637 -0.1139 -0.2022 -0.1292
  966MOL0     C33183   8.694   6.728   8.644  0.5198  0.1161 -0.8118
  966MOL0     C33184   8.561   6.718   8.703  0.5033 -0.2080  0.8549
  966MOL0     C33185   8.520   6.570   8.719  0.5025  0.4373 -0.6068
  966MOL0     C33186   8.375   6.555   8.759  0.8430  0.4387 -0.0692
  966MOL0     N33187   8.326   6.605   8.888 -0.2870 -0.3724  0.6296
  966MOL0     C33188   8.417   6.644   8.988  0.9952  1.0317  0.0422
  966MOL0     C33189   8.334   6.730   9.055  0.1477  0.6689 -0.4412
  966MOL0     C33190   8.366   6.806   9.177 -0.4696  0.8884  0.1014
  966MOL0     C33191   8.360   6.956   9.149 -0.3089  0.0262 -0.0724
  966MOL0     C33192   8.430   7.012   9.014  0.1157 -0.0357  0.2030
  966MOL0     C33193   8.584   7.025   9.006  0.1221  0.3159 -0.0293
  966MOL0     O33194   8.637   6.901   9.054  0.4303 -0.8337  0.7932
  966MOL0     C33195   8.772   6.896   9.098  0.3089  0.2484  0.1412
  966MOL0     C33196   8.877   6.950   9.021 -0.6413 -1.1170 -0.0141
  966MOL0     C33197   9.006   6.941   9.057 -0.2861 -0.5715 -0.4765
  966MOL0     C33198   9.108   7.014   8.974 -0.2961 -0.1414  0.5173
  966MOL0     C33199   9.035   6.854   9.167 -0.3568  0.4700  0.6755
  966MOL0     C33200   9.178   6.817   9.214  0.8966 -0.5457 -0.0158
  966MOL0     O33201   9.282   6.862   9.148  0.0936  0.1018  0.0724
  966MOL0     C33202   9.404   6.873   9.222 -0.3723 -0.1381 -0.1476
  966MOL0     C33203   9.418   6.969   9.329  0.3896  0.4271 -0.0460
  966MOL0     C33204   9.544   6.984   9.400  0.3091 -0.1279  0.8697
  966MOL0     C33205   9.654   6.912   9.362  0.0449  0.2329  1.0088
  966MOL0     O33206   9.774   6.946   9.414  0.1956  0.0730  0.4976
  966MOL0     C33207   9.864   6.967   9.312  0.5198 -0.8612 -0.1509
  966MOL0     C33208   9.985   7.026   9.381 -1.1697  0.0230 -0.0491
  966MOL0     C33209  10.112   7.005   9.307  0.1910  0.5204  0.2348
  966MOL0     C33210  10.241   7.077   9.350 -0.0194 -0.7410  0.0167
  966MOL0     C33211  10.349   7.046   9.246 -0.0490  0.2267 -0.4899
  966MOL0     C33212  10.441   7.170   9.238  0.3544  0.0773  0.2328
  966MOL0     C33213  10.565   7.139   9.153 -1.0287  0.1868  0.3655
  966MOL0     C33214  10.635   7.274   9.130  0.5793  0.7948  0.0859
  966MOL0    Cl33215  10.751   7.243   9.003 -0.6038 -0.5444  0.1892
  966MOL0     C33216   9.640   6.823   9.249 -0.7411  0.2330 -0.0417
  966MOL0     C33217   9.513   6.793   9.187 -0.0660  0.3398  0.2349
  966MOL0     O33218   9.181   6.760   9.321  0.0502  0.7198 -1.0780
  966MOL0     C33219   8.932   6.801   9.240  0.2889  0.4033 -0.3548
  966MOL0     C33220   8.799   6.829   9.211 -0.9003  0.9968 -0.0358
  966MOL0     N33221   8.203   6.720   9.012 -0.4693 -0.5826  0.2108
  966MOL0     N33222   8.202   6.633   8.920 -0.3793 -0.4293 -0.0291
  966MOL0     C33223   9.226   7.149   8.258  0.5086  0.0976  0.0773
  966MOL0     C33224   9.318   7.203   8.162 -0.4317  0.3594 -0.5882
  966MOL0     C33225   9.594   7.461   7.931 -0.6895  0.2011  0.4102
  966MOL0     C33226   9.529   7.574   7.874  0.4488 -0.6947 -0.3662
  966MOL0     C33227   9.597   7.662   7.793 -0.0023  0.0037  0.6112
  966MOL0     C33228   9.728   7.635   7.749 -0.9001  0.9262  0.0624
  966MOL0     O33229   9.781   7.721   7.658 -0.2082 -0.4259 -0.7507
  966MOL0     C33230   9.919   7.705   7.620  1.7388  0.0430  0.4683
  966MOL0     C33231   9.994   7.777   7.734  0.5603  0.1981 -0.0936
  966MOL0     C33232  10.150   7.787   7.706  1.0918  0.9022  0.8095
  966MOL0     C33233  10.205   7.895   7.793 -0.6541  0.2273 -0.4901
  966MOL0     C33234  10.358   7.878   7.798  0.1876  0.2465  0.6821
  966MOL0     C33235  10.475   7.859   7.816 -0.2858 -0.1637  1.3441
  966MOL0     C33236   9.795   7.527   7.813 -0.1768  0.9459  0.1174
  966MOL0     C33237   9.734   7.439   7.908 -0.0608  0.3020  0.4025
  966MOL0     C33238   9.817   7.311   7.948 -0.9632  0.0406  0.1586
  966MOL0     H33239   9.192   7.513   8.133 -0.8536 -0.2496  0.3257
  966MOL0     H33240   9.008   7.402   8.277 -0.9635  0.6429 -2.1473
  966MOL0     H33241   9.118   7.050   8.512 -0.9257 -1.2044  1.1116
  966MOL0     H33242   9.050   6.964   8.376  0.2671 -1.9072  2.0745
  966MOL0     H33243   8.905   7.082   8.614 -1.2123  0.6665 -0.2973
  966MOL0     H33244   8.824   7.054   8.458  0.1543 -1.7138 -0.4131
  966MOL0     H33245   8.866   6.818   8.457  0.0886  0.4568 -0.5579
  966MOL0     H33246   8.975   6.832   8.598  0.2984  1.1304  0.0438
  966MOL0     H33247   8.767   6.905   8.740 -0.4505  2.4395 -0.8110
  966MOL0     H33248   8.674   6.931   8.584  0.5823  0.1354 -0.7819
  966MOL0     H33249   8.759   6.672   8.712 -1.1052 -1.1001 -0.1898
  966MOL0     H33250   8.701   6.672   8.550  0.1676 -0.4800 -0.4920
  966MOL0     H33251   8.549   6.773   8.797 -1.1362  1.5850 -0.3232
  966MOL0     H33252   8.492   6.774   8.639 -0.2986  0.2921  2.1173
  966MOL0     H33253   8.592   6.519   8.785  0.6117 -1.2944 -2.0013
  966MOL0     H33254   8.545   6.525   8.623 -0.6773 -0.6417 -0.4340
  966MOL0     H33255   8.319   6.587   8.670  0.4854 -0.4593 -0.1876
  966MOL0     H33256   8.374   6.445   8.761  2.7865  0.3650 -0.7622
  966MOL0     H33257   8.523   6.629   9.001  1.0174 -0.5138 -1.5276
  966MOL0     H33258   8.462   6.773   9.217 -0.5689 -2.8728 -2.3080
  966MOL0     H33259   8.289   6.786   9.251 -0.3610  1.7799  0.4773
  966MOL0     H33260   8.257   6.990   9.157  0.2914  1.5201  2.6726
  966MOL0     H33261   8.418   7.003   9.229  0.0817 -1.3270  0.4687
  966MOL0     H33262   8.388   6.945   8.939 -2.0531  1.7683 -0.3353
  966MOL0     H33263   8.386   7.106   8.979  2.2962  0.7355 -0.5838
  966MOL0     H33264   8.619   7.049   8.904 -1.1320 -1.6443 -0.9681
  966MOL0     H33265   8.628   7.108   9.063 -0.0048  0.5802 -0.3106
  966MOL0     H33266   8.859   6.987   8.920 -2.0998  0.2173  0.6903
  966MOL0     H33267   9.069   7.063   8.884 -0.3177 -1.3869 -0.1635
  966MOL0     H33268   9.179   6.939   8.937  0.6517  1.2329 -0.5906
  966MOL0     H33269   9.164   7.090   9.030  1.1225 -1.2462  0.6727
  966MOL0     H33270   9.332   7.033   9.349  2.3743  3.3576 -0.2255
  966MOL0     H33271   9.549   7.053   9.483 -0.1008  0.9827  0.0006
  966MOL0     H33272   9.898   6.876   9.260 -0.9692 -1.1282 -0.6966
  966MOL0     H33273   9.828   7.035   9.235  0.2007 -3.1242 -2.1121
  966MOL0     H33274   9.962   7.133   9.386 -1.1107 -0.0329  2.2046
  966MOL0     H33275   9.992   6.986   9.482 -0.9854  1.3479  0.4850
  966MOL0     H33276  10.091   7.040   9.206 -1.3322  1.7836  0.9476
  966MOL0     H33277  10.124   6.896   9.300 -1.8827  0.3284 -1.1832
  966MOL0     H33278  10.263   7.053   9.455  2.7271 -0.7006 -0.4687
  966MOL0     H33279  10.212   7.182   9.340 -4.6716 -2.0535 -6.4514
  966MOL0     H33280  10.410   6.958   9.269 -0.9577 -0.3794 -0.3509
  966MOL0     H33281  10.314   7.024   9.144  2.3642 -1.4258 -1.0604
  966MOL0     H33282  10.479   7.208   9.334  1.8715  0.1648 -0.3680
  966MOL0     H33283  10.392   7.253   9.186  2.6782 -0.2568 -2.7508
  966MOL0     H33284  10.545   7.087   9.059  1.0028  1.7242 -1.0059
  966MOL0     H33285  10.623   7.073   9.219 -1.1712 -1.0279 -0.6729
  966MOL0     H33286  10.701   7.309   9.210  1.3708  1.3461 -0.7804
  966MOL0     H33287  10.560   7.347   9.096 -1.7733 -2.2029 -1.6261
  966MOL0     H33288   9.720   6.764   9.205 -2.6328 -0.9712 -2.0138
  966MOL0     H33289   9.504   6.717   9.109  0.0333 -1.6218  2.0579
  966MOL0     H33290   8.953   6.742   9.329  1.1865  1.3306  0.0806
  966MOL0     H33291   8.735   6.777   9.281 -0.5760  2.4050  1.3677
  966MOL0     H33292   9.238   7.045   8.288  2.0896 -0.1894 -1.3868
  966MOL0     H33293   9.402   7.143   8.130 -0.5120  0.0860 -0.2942
  966MOL0     H33294   9.425   7.592   7.898  0.1794 -1.3205 -1.0146
  966MOL0     H33295   9.547   7.749   7.751 -1.9387 -0.1481  2.4391
  966MOL0     H33296   9.933   7.597   7.615 -0.1267 -0.2221  0.2054
  966MOL0     H33297   9.932   7.757   7.525  3.0381 -0.8335  0.1396
  966MOL0     H33298   9.971   7.720   7.825  0.7951  2.0408  1.1757
  966MOL0     H33299   9.966   7.880   7.755 -0.2432 -0.0036 -0.1440
  966MOL0     H33300  10.185   7.684   7.708 -0.9195  0.1670  0.1702
  966MOL0     H33301  10.145   7.812   7.599 -0.6300  2.1397  1.1207
  966MOL0     H33302  10.163   7.891   7.894 -1.0158 -1.6971 -0.6790
  966MOL0     H33303  10.181   7.989   7.742 -1.3199 -1.1084 -2.8477
  966MOL0     H33304  10.579   7.859   7.845 -1.0282 -0.4021  4.2814
  966MOL0     H33305   9.901   7.513   7.795  0.0558  1.4753  1.0209
  966MOL0     H33306   9.899   7.286   7.881  0.4030  0.9752  1.4173
  966MOL0     H33307   9.864   7.329   8.045  1.0292 -1.6424 -0.4377
  966MOL0     H33308   9.751   7.223   7.949 -1.7944  0.5984 -1.8629
  967MOL0     O33309   0.781   4.088   7.043  0.3285 -0.6244 -0.5054
  967MOL0     C33310   0.693   4.031   7.118 -0.1027  0.2219 -0.3723
  967MOL0     O33311   0.716   3.964   7.235  0.9122  0.0563 -0.0291
  967MOL0     C33312   0.853   3.953   7.268  0.0133  0.3045 -0.0055
  967MOL0     C33313   0.933   4.064   7.311 -0.4511  0.0641 -0.0323
  967MOL0     C33314   1.075   4.034   7.322  0.4597 -0.6135 -0.1345
  967MOL0     C33315   1.137   3.905   7.302  1.1761 -0.0100 -0.4019
  967MOL0     O33316   1.271   3.863   7.316  0.4835 -1.0367 -0.0644
  967MOL0     C33317   1.365   3.967   7.296 -0.2564 -0.1236 -0.4404
  967MOL0     C33318   1.385   3.973   7.147 -0.5927  0.0957  0.2464
  967MOL0     C33319   1.472   4.098   7.114 -0.3809 -0.1232  0.2387
  967MOL0     C33320   1.412   4.196   7.013 -0.9223 -0.4282  0.5872
  967MOL0     C33321   1.498   4.323   6.981  0.3017  0.0390 -0.5250
  967MOL0     C33322   1.438   4.395   6.868  0.7097  0.8010 -0.0427
  967MOL0     C33323   1.516   4.522   6.837 -0.2409 -0.1405 -0.3973
  967MOL0     C33324   1.467   4.587   6.709  0.3156  0.2932 -0.5409
  967MOL0     N33325   1.569   4.682   6.668 -0.3723 -0.3799  0.1214
  967MOL0     C33326   1.597   4.801   6.721 -0.2063 -0.4270 -0.0102
  967MOL0     C33327   1.717   4.845   6.664 -0.4844 -0.3094  0.4106
  967MOL0     C33328   1.788   4.974   6.691 -0.9017 -0.3405  0.7324
  967MOL0     C33329   1.938   4.964   6.704 -0.8688  0.7749 -0.4830
  967MOL0     C33330   1.975   4.877   6.833 -0.0182 -0.4058 -0.2705
  967MOL0     C33331   2.127   4.867   6.830  0.5029  0.4252 -0.2943
  967MOL0     O33332   2.154   4.753   6.913  0.6946 -0.6313  0.8442
  967MOL0     C33333   2.272   4.691   6.916 -0.4524 -0.7231 -0.2986
  967MOL0     C33334   2.283   4.555   6.953  0.6667 -0.7909 -0.0367
  967MOL0     C33335   2.405   4.490   6.972 -0.5584 -0.3968 -0.3058
  967MOL0     C33336   2.399   4.346   7.000  0.7225  0.4818 -0.1975
  967MOL0     C33337   2.523   4.563   6.942  0.4052  0.2784 -0.4613
  967MOL0     C33338   2.660   4.513   6.962  0.6765  0.0139 -0.6678
  967MOL0     O33339   2.764   4.549   6.880  0.1625  0.1724 -0.4765
  967MOL0     C33340   2.894   4.487   6.908  0.4636 -0.0809 -0.7705
  967MOL0     C33341   2.985   4.526   7.002 -0.7190  0.2225  0.1788
  967MOL0     C33342   3.105   4.448   7.015  0.4684 -0.7297  0.7908
  967MOL0     C33343   3.133   4.335   6.936  0.0831 -0.8841  0.8144
  967MOL0     O33344   3.236   4.251   6.962 -0.8491  0.0798  0.0384
  967MOL0     C33345   3.356   4.327   6.987 -0.3725 -0.0633  0.7985
  967MOL0     C33346   3.461   4.256   6.909  0.1669  0.4855 -0.3021
  967MOL0     C33347   3.513   4.125   6.975 -0.1786 -0.4891 -0.4283
  967MOL0     C33348   3.600   4.048   6.878  0.1288  0.4709  0.3215
  967MOL0     C33349   3.696   3.949   6.955 -0.4244 -0.7883  0.5647
  967MOL0     C33350   3.753   3.856   6.850 -0.6767 -0.7728 -0.3169
  967MOL0     C33351   3.895   3.805   6.895 -0.3239  0.5050  0.3801
  967MOL0     C33352   3.886   3.718   7.023  0.1937 -0.4923 -0.3694
  967MOL0    Cl33353   3.872   3.801   7.179 -0.1683  0.2540  0.2258
  967MOL0     C33354   3.040   4.301   6.838  0.4552 -0.0169 -0.7279
  967MOL0     C33355   2.931   4.379   6.824  0.1728 -0.2107 -0.4287
  967MOL0     O33356   2.680   4.449   7.063 -0.4336  0.1551 -0.1811
  967MOL0     C33357   2.518   4.687   6.881  0.9952 -0.6833  0.1415
  967MOL0     C33358   2.392   4.757   6.877  0.9342  0.8287  0.6565
  967MOL0     N33359   1.757   4.746   6.578 -0.6848 -0.1568  0.3464
  967MOL0     N33360   1.673   4.651   6.580  0.2713 -0.5414 -0.6656
  967MOL0     C33361   1.048   3.807   7.273  0.3447  0.9235  0.1196
  967MOL0     C33362   0.907   3.825   7.248 -1.4539 -0.6395 -0.1853
  967MOL0     C33363   0.557   4.028   7.060 -0.4169  0.5241 -0.0626
  967MOL0     C33364   0.475   3.921   7.092 -0.0715  0.0705  0.2418
  967MOL0     C33365   0.344   3.910   7.032 -0.8191  0.1737  0.2471
  967MOL0     C33366   0.287   4.006   6.943 -0.8203  0.1159 -0.8534
  967MOL0     O33367   0.165   4.009   6.886  0.7465 -0.2983  0.0167
  967MOL0     C33368   0.065   3.943   6.958 -0.3194  0.2649 -0.1097
  967MOL0     C33369  -0.057   4.039   6.965 -0.8079  0.0017  0.0692
  967MOL0     C33370  -0.120   4.062   6.823  0.1723  0.1232 -0.0680
  967MOL0     C33371  -0.228   3.954   6.799 -0.4946 -0.3544  0.6677
  967MOL0     C33372  -0.296   3.975   6.665  0.0381  0.2938  0.3471
  967MOL0     C33373  -0.352   4.001   6.558  0.6368 -0.5104 -0.2116
  967MOL0     C33374   0.370   4.109   6.910 -0.8794 -0.7236  0.1806
  967MOL0     C33375   0.500   4.126   6.965 -0.1744  0.1931 -0.1450
  967MOL0     C33376   0.581   4.248   6.914  0.2710  0.2132 -1.1594
  967MOL0     H33377   0.881   4.158   7.323  0.2585  0.4887 -0.2294
  967MOL0     H33378   1.140   4.113   7.358 -1.5446  1.0892 -0.0774
  967MOL0     H33379   1.460   3.938   7.342  0.9089  1.9494 -1.4047
  967MOL0     H33380   1.336   4.065   7.335 -2.0682 -0.9938  0.5792
  967MOL0     H33381   1.424   3.875   7.117 -1.2830 -0.8871  2.3457
  967MOL0     H33382   1.289   3.972   7.095 -0.3813 -2.4811 -0.2457
  967MOL0     H33383   1.502   4.144   7.208  0.4087  1.7209 -0.8562
  967MOL0     H33384   1.568   4.058   7.079 -0.8310  0.7116 -2.1823
  967MOL0     H33385   1.398   4.142   6.919  0.2013  1.2163 -0.5882
  967MOL0     H33386   1.314   4.229   7.050 -1.1031  1.1943 -1.1662
  967MOL0     H33387   1.599   4.291   6.953  0.0664  1.6605 -3.6231
  967MOL0     H33388   1.502   4.392   7.065 -0.9503 -0.8635  0.3060
  967MOL0     H33389   1.460   4.333   6.781 -0.2753  1.1895 -0.5829
  967MOL0     H33390   1.331   4.411   6.883  0.5384  1.1883 -1.5407
  967MOL0     H33391   1.624   4.502   6.834 -0.1876 -0.1079  0.7952
  967MOL0     H33392   1.496   4.596   6.914  0.3672 -1.0598  0.6809
  967MOL0     H33393   1.448   4.513   6.630 -0.9463 -0.2859  0.2692
  967MOL0     H33394   1.376   4.643   6.734  0.8436  1.1747 -0.5577
  967MOL0     H33395   1.537   4.849   6.798  0.0396 -2.2709  1.3875
  967MOL0     H33396   1.751   5.003   6.790  1.4590  0.1545  1.5313
  967MOL0     H33397   1.755   5.040   6.611 -2.0856 -0.4064  1.1409
  967MOL0     H33398   1.973   4.902   6.621  0.6829 -1.1651  1.4980
  967MOL0     H33399   1.996   5.056   6.705 -1.5308  1.2116  0.7497
  967MOL0     H33400   1.943   4.926   6.926 -1.7752  1.5419 -1.8148
  967MOL0     H33401   1.920   4.783   6.822 -1.7558  0.3986  0.9979
  967MOL0     H33402   2.150   4.832   6.730 -3.1324  0.4613 -1.2565
  967MOL0     H33403   2.177   4.958   6.866  3.1521 -0.7896 -0.6363
  967MOL0     H33404   2.200   4.489   6.975 -1.2008  1.6837  0.8386
  967MOL0     H33405   2.494   4.292   6.994  0.8513  0.7973 -0.9901
  967MOL0     H33406   2.320   4.299   6.941 -0.5411  0.2791  1.5662
  967MOL0     H33407   2.352   4.338   7.099  0.6138 -1.9407 -0.3844
  967MOL0     H33408   2.960   4.610   7.066 -0.0105  0.4457  0.1771
  967MOL0     H33409   3.168   4.478   7.098 -1.7880  1.9799  1.7089
  967MOL0     H33410   3.361   4.422   6.932  2.7202 -1.0068 -0.7522
  967MOL0     H33411   3.393   4.325   7.090  0.7608 -0.8938  0.3802
  967MOL0     H33412   3.413   4.219   6.818  1.5502 -2.3220  0.0036
  967MOL0     H33413   3.542   4.322   6.878  0.5355 -0.5162 -1.5696
  967MOL0     H33414   3.431   4.058   7.001  2.4759 -3.5949  0.4974
  967MOL0     H33415   3.571   4.145   7.065 -2.6286 -1.0966  1.3781
  967MOL0     H33416   3.657   4.103   6.802 -0.5912 -2.5205 -2.6666
  967MOL0     H33417   3.533   3.981   6.823  1.6195 -0.7717 -0.0866
  967MOL0     H33418   3.778   4.003   7.004  0.8162 -2.5404  0.5039
  967MOL0     H33419   3.644   3.897   7.036 -1.5774 -0.0677  0.3043
  967MOL0     H33420   3.770   3.908   6.755  1.9522 -0.3193  0.3466
  967MOL0     H33421   3.682   3.774   6.831  0.8127 -1.7991 -1.7712
  967MOL0     H33422   3.974   3.879   6.910  1.3108 -1.4665  1.9925
  967MOL0     H33423   3.926   3.737   6.816  1.3197  0.4613  1.0311
  967MOL0     H33424   3.966   3.644   7.020  2.4552  1.7268  1.5432
  967MOL0     H33425   3.792   3.664   7.008  1.0143 -1.2238 -3.9833
  967MOL0     H33426   3.062   4.222   6.768  0.1705 -1.4759  0.7637
  967MOL0     H33427   2.861   4.347   6.747  0.1270  3.4382 -2.1248
  967MOL0     H33428   2.608   4.738   6.850 -0.6324  2.1834 -0.2793
  967MOL0     H33429   2.391   4.862   6.849 -0.2564  0.4638 -0.7690
  967MOL0     H33430   1.083   3.705   7.262 -0.2148  1.0062 -3.2812
  967MOL0     H33431   0.838   3.750   7.211 -2.3427 -0.2874  0.7028
  967MOL0     H33432   0.526   3.858   7.164  3.8496  3.3452  0.7033
  967MOL0     H33433   0.281   3.828   7.062 -1.7262  1.2689  1.4763
  967MOL0     H33434   0.044   3.846   6.912 -2.4485  0.5275  0.2057
  967MOL0     H33435   0.088   3.907   7.059  0.8932 -3.1106 -1.4652
  967MOL0     H33436  -0.025   4.138   6.999 -0.0257 -0.2615  0.1365
  967MOL0     H33437  -0.137   3.998   7.027 -2.4393 -1.1531 -2.6397
  967MOL0     H33438  -0.178   4.154   6.841  2.4030  1.4236  0.9772
  967MOL0     H33439  -0.042   4.077   6.748  0.4295  3.0064  0.6495
  967MOL0     H33440  -0.289   3.949   6.889  0.4150  2.1266  1.5193
  967MOL0     H33441  -0.171   3.862   6.783  1.1856  0.7710 -0.1607
  967MOL0     H33442  -0.399   4.037   6.469  1.9418  0.8011 -0.4106
  967MOL0     H33443   0.344   4.173   6.826  0.2578 -0.8061 -0.2436
  967MOL0     H33444   0.506   4.328   6.901  1.1446  0.8153 -2.8228
  967MOL0     H33445   0.659   4.279   6.984  0.8504 -1.8926 -0.7969
  967MOL0     H33446   0.624   4.221   6.817 -2.1268 -1.3958 -1.8727
  968MOL0     O33447   1.429   8.235   6.443 -0.2835  0.7093  0.3243
  968MOL0     C33448   1.555   8.261   6.431  1.2286  0.7470  0.0776
  968MOL0     O33449   1.628   8.248   6.318  0.1770  0.9054  0.2797
  968MOL0     C33450   1.568   8.239   6.195  0.4340  0.4294  0.2286
  968MOL0     C33451   1.627   8.161   6.094  0.6524  0.5768 -0.4007
  968MOL0     C33452   1.564   8.123   5.972 -0.9396 -0.0238 -0.7409
  968MOL0     C33453   1.430   8.169   5.952  0.4642 -0.1204  0.2627
  968MOL0     O33454   1.355   8.131   5.843 -0.3980  0.0191  0.2397
  968MOL0     C33455   1.392   8.014   5.768 -0.2916  0.6290 -0.2815
  968MOL0     C33456   1.270   7.951   5.694 -0.4857 -0.9260 -0.5857
  968MOL0     C33457   1.244   8.024   5.563 -0.4008  0.0682 -0.5978
  968MOL0     C33458   1.119   7.955   5.508 -0.7246  0.4968  0.1758
  968MOL0     C33459   0.986   8.017   5.535  0.2855  0.1570 -0.0777
  968MOL0     C33460   0.865   7.937   5.478  0.8411 -0.2154 -0.3683
  968MOL0     C33461   0.740   8.024   5.484 -0.6375  0.1551 -0.7349
  968MOL0     C33462   0.623   7.966   5.570 -0.3679  0.4120  0.3420
  968MOL0     N33463   0.496   8.037   5.537 -0.0161  0.3647  0.1954
  968MOL0     C33464   0.479   8.177   5.541 -0.1343 -0.0459  0.6225
  968MOL0     C33465   0.343   8.192   5.526  0.7911 -0.3403 -0.9386
  968MOL0     C33466   0.277   8.328   5.546  0.7038  0.2370  0.1155
  968MOL0     C33467   0.261   8.396   5.406  0.0946  0.4623  0.7392
  968MOL0     C33468   0.224   8.538   5.421 -0.4785  0.3090 -0.2024
  968MOL0     C33469   0.250   8.625   5.295 -0.4142  0.8092 -0.0856
  968MOL0     O33470   0.390   8.646   5.274  0.1299  0.1751 -0.0219
  968MOL0     C33471   0.443   8.711   5.161  0.2738  1.1293  0.5752
  968MOL0     C33472   0.363   8.798   5.088  0.2440 -0.1457  0.0652
  968MOL0     C33473   0.413   8.854   4.972 -0.5917 -0.0473 -0.3791
  968MOL0     C33474   0.325   8.939   4.882  0.0953 -0.2478 -0.3119
  968MOL0     C33475   0.539   8.814   4.924 -0.0743  0.3999 -0.2232
  968MOL0     C33476   0.579   8.854   4.785 -0.5019  0.2614 -0.5769
  968MOL0     O33477   0.500   8.818   4.680  1.2105  0.3063 -0.6306
  968MOL0     C33478   0.535   8.860   4.560 -0.0362 -0.5373  0.1589
  968MOL0     C33479   0.447   8.957   4.505 -1.1305 -0.4887 -0.3999
  968MOL0     C33480   0.477   9.005   4.372  0.2943 -0.0165  0.3564
  968MOL0     C33481   0.579   8.956   4.304 -0.3629 -0.1389 -1.0543
  968MOL0     O33482   0.605   9.017   4.179 -0.3390  0.1782 -0.1052
  968MOL0     C33483   0.569   8.923   4.077 -0.2922  0.3650 -0.8272
  968MOL0     C33484   0.420   8.921   4.031 -0.1212  0.6265  0.3214
  968MOL0     C33485   0.415   8.811   3.910 -0.4632 -1.1839  0.2375
  968MOL0     C33486   0.300   8.715   3.946  0.3384  0.0222 -0.6445
  968MOL0     C33487   0.278   8.599   3.848  0.4116  0.0325  0.8652
  968MOL0     C33488   0.201   8.659   3.720 -0.2517  0.4480 -0.8479
  968MOL0     C33489   0.196   8.558   3.603  0.2314 -0.9277 -0.4404
  968MOL0     C33490   0.132   8.424   3.636  0.1969 -0.0911 -0.2670
  968MOL0    Cl33491   0.147   8.326   3.488  0.5387 -0.0763  0.5997
  968MOL0     C33492   0.672   8.871   4.355  0.5849  0.6795 -0.2072
  968MOL0     C33493   0.648   8.820   4.485  0.3933  0.5596  0.4018
  968MOL0     O33494   0.693   8.898   4.777  0.7992 -0.0762 -0.0541
  968MOL0     C33495   0.620   8.728   4.989  0.1483  0.1108 -1.4263
  968MOL0     C33496   0.572   8.672   5.113 -0.5042 -0.1146 -1.1064
  968MOL0     N33497   0.282   8.068   5.503 -0.8477 -0.7470 -0.5631
  968MOL0     N33498   0.367   7.980   5.530 -0.2421  0.4378 -0.2375
  968MOL0     C33499   1.377   8.264   6.047  0.3206  0.0994  0.1258
  968MOL0     C33500   1.445   8.298   6.163  0.5639  0.3071 -0.0931
  968MOL0     C33501   1.613   8.294   6.567 -0.0474 -0.1028  0.1095
  968MOL0     C33502   1.532   8.311   6.683 -0.2233 -0.1465 -0.0542
  968MOL0     C33503   1.584   8.335   6.811 -0.1387 -0.5718  0.1975
  968MOL0     C33504   1.719   8.354   6.830  0.4326 -0.6900  0.7640
  968MOL0     O33505   1.774   8.370   6.957 -0.4749  0.3052  0.5544
  968MOL0     C33506   1.694   8.366   7.080  0.0467 -0.3909 -0.3388
  968MOL0     C33507   1.768   8.424   7.205 -0.4144  0.6684 -0.3415
  968MOL0     C33508   1.920   8.365   7.219  0.0874 -0.2333 -0.4973
  968MOL0     C33509   2.010   8.454   7.315  0.2263 -0.5236  0.0978
  968MOL0     C33510   1.960   8.439   7.450  0.7699  0.1562 -0.0063
  968MOL0     C33511   1.909   8.425   7.561 -0.3657  0.0874  0.3952
  968MOL0     C33512   1.805   8.345   6.717 -0.3140  0.3935  0.5556
  968MOL0     C33513   1.752   8.316   6.585  0.4502 -0.6396 -0.6998
  968MOL0     C33514   1.851   8.305   6.478  0.2684 -0.5418 -0.3070
  968MOL0     H33515   1.721   8.111   6.117  0.2960  1.0751  2.6791
  968MOL0     H33516   1.611   8.057   5.900 -1.7034  1.4971 -2.7320
  968MOL0     H33517   1.434   7.941   5.838 -0.2043 -1.2931 -2.2238
  968MOL0     H33518   1.462   8.043   5.689  0.0758  0.5794  0.0230
  968MOL0     H33519   1.281   7.844   5.677 -1.8211 -1.2772  0.5226
  968MOL0     H33520   1.188   7.959   5.766 -0.4431 -1.0329 -0.5250
  968MOL0     H33521   1.211   8.126   5.584 -0.2830 -0.1494  0.6946
  968MOL0     H33522   1.324   8.012   5.490 -0.3402 -0.1251 -0.4985
  968MOL0     H33523   1.128   7.954   5.399  0.1843  0.1414  0.2490
  968MOL0     H33524   1.123   7.849   5.534 -2.3828  0.4491  0.3984
  968MOL0     H33525   0.990   8.123   5.506 -0.0739 -0.0640 -0.9641
  968MOL0     H33526   0.976   8.037   5.642  0.1763 -0.4030  0.0158
  968MOL0     H33527   0.884   7.904   5.376  0.3280 -0.0050 -0.5350
  968MOL0     H33528   0.842   7.849   5.540 -2.8621  2.0411  1.8306
  968MOL0     H33529   0.698   8.054   5.388  0.4944  0.1324 -1.2599
  968MOL0     H33530   0.770   8.119   5.530 -1.5690  0.1909 -0.1788
  968MOL0     H33531   0.621   7.861   5.540  0.5128  0.7813 -1.0939
  968MOL0     H33532   0.638   7.970   5.678 -1.7449 -5.8325  1.1243
  968MOL0     H33533   0.555   8.250   5.565 -0.3774 -0.2692  2.2002
  968MOL0     H33534   0.348   8.377   5.612  4.9948 -3.9959 -0.8621
  968MOL0     H33535   0.178   8.306   5.588  1.1833 -1.0308  0.6179
  968MOL0     H33536   0.362   8.390   5.365  0.2031  0.5503  0.9921
  968MOL0     H33537   0.183   8.344   5.349 -0.2622  1.6478  0.1117
  968MOL0     H33538   0.121   8.545   5.456 -1.0567  0.2626 -1.8072
  968MOL0     H33539   0.283   8.572   5.506  0.2574 -3.2213  0.8453
  968MOL0     H33540   0.208   8.584   5.203 -0.7067 -4.3674  2.0134
  968MOL0     H33541   0.203   8.719   5.322 -0.4903  0.9190 -0.5861
  968MOL0     H33542   0.261   8.817   5.120  0.4457 -1.7136  1.7904
  968MOL0     H33543   0.247   8.999   4.929 -0.6606 -0.2056 -1.5761
  968MOL0     H33544   0.267   8.874   4.816  0.1079 -0.1065 -0.4638
  968MOL0     H33545   0.384   9.013   4.828  2.5526  0.0108  2.4641
  968MOL0     H33546   0.369   8.996   4.569 -1.5088  0.0791 -1.1818
  968MOL0     H33547   0.417   9.087   4.334  0.0681 -0.7683 -0.9615
  968MOL0     H33548   0.635   8.949   3.994 -0.5312 -0.8422 -1.4210
  968MOL0     H33549   0.598   8.822   4.107 -0.7473  0.7300  0.9703
  968MOL0     H33550   0.359   8.888   4.116 -1.1522  0.8357 -0.3155
  968MOL0     H33551   0.403   9.021   3.991  3.1565  0.0317 -3.0938
  968MOL0     H33552   0.514   8.763   3.908 -0.0872 -0.3789 -1.0155
  968MOL0     H33553   0.402   8.853   3.810 -2.8245 -4.6928 -1.1338
  968MOL0     H33554   0.201   8.760   3.960  0.1936 -0.5653  0.3318
  968MOL0     H33555   0.329   8.666   4.040 -2.3936  1.2199  0.9621
  968MOL0     H33556   0.365   8.540   3.819 -0.6685 -1.9594  1.5241
  968MOL0     H33557   0.205   8.524   3.881 -1.5606  0.9960 -1.0239
  968MOL0     H33558   0.240   8.754   3.684 -1.4123  1.8893  1.4357
  968MOL0     H33559   0.101   8.692   3.749  1.0888  2.9275  1.4559
  968MOL0     H33560   0.301   8.554   3.572  0.2020  1.2956 -0.9691
  968MOL0     H33561   0.126   8.596   3.528 -0.2209 -4.1817 -1.8437
  968MOL0     H33562   0.029   8.430   3.671  0.5944 -4.0549  2.3385
  968MOL0     H33563   0.188   8.371   3.715  1.1567  1.1092 -0.1071
  968MOL0     H33564   0.764   8.833   4.312 -1.6811 -0.8835 -4.2074
  968MOL0     H33565   0.720   8.749   4.523  0.6936 -2.0960 -4.2959
  968MOL0     H33566   0.718   8.699   4.954  0.3041 -2.7086  0.9826
  968MOL0     H33567   0.644   8.606   5.161  2.4780  1.8963 -2.4826
  968MOL0     H33568   1.277   8.304   6.036 -0.5975 -2.1668 -0.4023
  968MOL0     H33569   1.396   8.375   6.222 -0.9280 -1.8124  1.6178
  968MOL0     H33570   1.425   8.301   6.667 -0.9774  3.5007  1.8065
  968MOL0     H33571   1.513   8.341   6.893  1.9331  1.8304  1.9636
  968MOL0     H33572   1.602   8.422   7.059  0.9986  0.6648 -1.9307
  968MOL0     H33573   1.678   8.263   7.113  0.2763 -0.5284 -0.6416
  968MOL0     H33574   1.721   8.395   7.299  0.5392  2.4043  0.7462
  968MOL0     H33575   1.770   8.534   7.205 -0.2307  0.6904  1.1786
  968MOL0     H33576   1.906   8.265   7.261 -3.0579  0.7523  1.1189
  968MOL0     H33577   1.980   8.352   7.129  1.6481 -2.2661  0.7554
  968MOL0     H33578   1.998   8.559   7.288  1.3742 -0.6167 -0.8490
  968MOL0     H33579   2.114   8.422   7.317  0.9688  1.6375 -0.7750
  968MOL0     H33580   1.863   8.398   7.654 -0.0296 -1.5824  0.0948
  968MOL0     H33581   1.913   8.351   6.723 -0.1450 -1.3246 -0.2402
  968MOL0     H33582   1.856   8.205   6.435  0.9172  0.0707 -1.7115
  968MOL0     H33583   1.818   8.371   6.398 -1.0633 -1.4186 -0.5103
  968MOL0     H33584   1.956   8.328   6.502 -0.1994 -0.1948  1.6011
  969MOL0     O33585   3.816   0.825   1.211  1.0767 -0.4993 -0.0072
  969MOL0     C33586   3.721   0.758   1.258  0.6304 -0.6798  1.2106
  969MOL0     O33587   3.718   0.705   1.382 -0.9400  0.0879  0.0014
  969MOL0     C33588   3.826   0.730   1.469  0.0315  0.3373 -0.1873
  969MOL0     C33589   3.823   0.823   1.573  0.4338  0.4091 -0.2275
  969MOL0     C33590   3.935   0.853   1.649 -0.6651  0.9508 -0.0150
  969MOL0     C33591   4.064   0.786   1.623 -0.7325 -0.4622 -0.7432
  969MOL0     O33592   4.173   0.815   1.706 -0.3661 -0.4533 -0.5588
  969MOL0     C33593   4.309   0.768   1.658 -0.3664  0.5751 -0.4843
  969MOL0     C33594   4.410   0.827   1.753 -0.2061 -0.7983  0.6836
  969MOL0     C33595   4.405   0.754   1.890  0.0202 -0.4297 -0.0224
  969MOL0     C33596   4.527   0.784   1.983 -0.0064  0.7665 -0.0305
  969MOL0     C33597   4.631   0.673   1.994 -0.7389 -0.5451 -0.2459
  969MOL0     C33598   4.716   0.688   2.120  0.0277  0.1457  0.8516
  969MOL0     C33599   4.787   0.567   2.157 -0.4706  0.1144 -0.6276
  969MOL0     C33600   4.880   0.585   2.271  0.1149 -0.0492 -0.7696
  969MOL0     N33601   4.991   0.683   2.252  0.0298 -0.1860 -0.4551
  969MOL0     C33602   4.977   0.825   2.263  0.0420  1.0151  0.9945
  969MOL0     C33603   5.100   0.869   2.225 -0.0046  0.3683 -0.2548
  969MOL0     C33604   5.141   1.017   2.232 -0.0089  0.7150 -0.2627
  969MOL0     C33605   5.202   1.057   2.371 -1.1596  0.4636  0.6831
  969MOL0     C33606   5.279   1.192   2.367  0.8710 -0.0942  0.4200
  969MOL0     C33607   5.354   1.220   2.497  0.2003  0.3842 -0.4841
  969MOL0     O33608   5.467   1.139   2.515  0.5427  0.5998 -0.5732
  969MOL0     C33609   5.568   1.183   2.597 -0.3223  0.1388 -0.2690
  969MOL0     C33610   5.568   1.310   2.655 -1.1183  0.2429  0.4049
  969MOL0     C33611   5.670   1.360   2.737 -0.4212 -0.1243 -0.4996
  969MOL0     C33612   5.647   1.497   2.811 -0.2327  0.1225  0.7849
  969MOL0     C33613   5.781   1.272   2.767 -0.0415 -0.3127 -1.3475
  969MOL0     C33614   5.894   1.310   2.857  0.2153  0.4795  0.6477
  969MOL0     O33615   5.884   1.437   2.910  0.6876 -0.4804 -0.1538
  969MOL0     C33616   5.990   1.474   2.981  0.4798  0.6572 -1.3524
  969MOL0     C33617   6.093   1.544   2.924  0.7064  0.1556 -0.0388
  969MOL0     C33618   6.203   1.583   3.002  0.0455 -0.2342  0.0778
  969MOL0     C33619   6.201   1.555   3.140 -0.4904  0.1080  0.5313
  969MOL0     O33620   6.311   1.589   3.208 -0.1625 -0.2168 -0.1567
  969MOL0     C33621   6.312   1.731   3.231  0.4652  0.3014 -0.2736
  969MOL0     C33622   6.420   1.752   3.339  0.7447 -0.3916 -0.0108
  969MOL0     C33623   6.372   1.700   3.478 -0.5942 -0.0500  0.1778
  969MOL0     C33624   6.442   1.780   3.578 -0.0305  0.0093  0.0787
  969MOL0     C33625   6.409   1.734   3.724  0.0630 -0.1020  0.3183
  969MOL0     C33626   6.494   1.816   3.825  0.3393  0.3765 -0.7778
  969MOL0     C33627   6.487   1.758   3.967  0.3961  1.7013  0.7504
  969MOL0     C33628   6.575   1.847   4.051  0.3381 -1.0767 -0.4753
  969MOL0    Cl33629   6.739   1.811   3.998  0.1773  0.1069  0.0054
  969MOL0     C33630   6.112   1.461   3.188 -0.4713 -0.4464  0.4784
  969MOL0     C33631   6.009   1.424   3.105  0.8591 -0.0876 -0.2665
  969MOL0     O33632   5.991   1.231   2.870  0.2234 -0.3131  0.0018
  969MOL0     C33633   5.780   1.150   2.705  0.7176  0.9016  0.1227
  969MOL0     C33634   5.673   1.098   2.633  0.0838  0.4178  0.1395
  969MOL0     N33635   5.183   0.763   2.184 -0.1878 -0.7234  0.2152
  969MOL0     N33636   5.115   0.656   2.187 -0.7132  0.4574 -0.5512
  969MOL0     C33637   4.061   0.689   1.520  0.2188 -0.0253  0.8093
  969MOL0     C33638   3.947   0.658   1.443 -1.2874 -0.3296  0.1549
  969MOL0     C33639   3.610   0.721   1.179  0.6429 -0.6393 -0.0016
  969MOL0     C33640   3.486   0.765   1.220 -0.2626  1.0662  0.1272
  969MOL0     C33641   3.377   0.734   1.143  0.1641  0.2856  0.4835
  969MOL0     C33642   3.386   0.659   1.023  0.1524  1.6173 -0.4684
  969MOL0     O33643   3.285   0.638   0.935  0.0517  0.4469 -0.1419
  969MOL0     C33644   3.148   0.688   0.947 -0.3629  0.5014  0.0425
  969MOL0     C33645   3.049   0.579   0.910 -0.0662  0.4618  0.7184
  969MOL0     C33646   2.905   0.614   0.958  0.2173  0.1601 -1.7305
  969MOL0     C33647   2.805   0.512   0.902  0.0198 -0.1031 -0.1596
  969MOL0     C33648   2.825   0.373   0.956 -0.6513  0.0529  0.8347
  969MOL0     C33649   2.829   0.259   1.000  1.5359 -0.4698  0.3810
  969MOL0     C33650   3.511   0.600   0.994  0.0170  0.1899 -0.0180
  969MOL0     C33651   3.628   0.634   1.068  1.0542  0.1510  0.2724
  969MOL0     C33652   3.760   0.568   1.045  0.5433 -0.0643 -0.6115
  969MOL0     H33653   3.745   0.890   1.607  1.0428  0.2720  1.5553
  969MOL0     H33654   3.934   0.921   1.734  1.4300  0.3393  0.5717
  969MOL0     H33655   4.333   0.805   1.558 -0.0043 -2.4830 -1.6094
  969MOL0     H33656   4.337   0.663   1.663 -0.4589  0.5049 -1.3176
  969MOL0     H33657   4.508   0.806   1.711 -0.9092 -0.9542 -0.9846
  969MOL0     H33658   4.385   0.930   1.781  0.7657  0.3652 -2.3521
  969MOL0     H33659   4.321   0.794   1.948 -0.3932 -3.3582  1.6149
  969MOL0     H33660   4.387   0.646   1.888  0.8037 -0.7456  3.3980
  969MOL0     H33661   4.576   0.877   1.952  0.1972  0.8895  0.6595
  969MOL0     H33662   4.497   0.812   2.084 -0.0698 -1.2456  0.5469
  969MOL0     H33663   4.693   0.674   1.903 -0.2716  0.5629  0.0677
  969MOL0     H33664   4.580   0.578   2.010  0.0766 -0.4111  4.4366
  969MOL0     H33665   4.783   0.772   2.098 -1.5712  0.5200 -3.8468
  969MOL0     H33666   4.649   0.717   2.202 -1.1919  1.8910 -0.6648
  969MOL0     H33667   4.854   0.543   2.074  3.2123  0.5695  1.9673
  969MOL0     H33668   4.721   0.486   2.188 -0.4473  0.7628  1.2606
  969MOL0     H33669   4.821   0.607   2.361  0.0058 -2.3173 -0.2408
  969MOL0     H33670   4.926   0.488   2.290  1.5595  0.7765  0.0702
  969MOL0     H33671   4.890   0.879   2.299 -0.0511  1.3649  0.2598
  969MOL0     H33672   5.068   1.093   2.201  0.8043  1.2906 -0.8076
  969MOL0     H33673   5.225   1.031   2.163 -0.0628  0.4859 -0.3738
  969MOL0     H33674   5.124   1.073   2.446  0.7250 -1.2148  3.1493
  969MOL0     H33675   5.271   0.979   2.404 -0.6221  1.1209  1.1454
  969MOL0     H33676   5.346   1.196   2.281  0.1642  2.9642 -0.1102
  969MOL0     H33677   5.207   1.271   2.343  1.3187  0.3576  0.5276
  969MOL0     H33678   5.370   1.328   2.487  0.4571  0.3820 -0.1105
  969MOL0     H33679   5.295   1.200   2.588 -0.7977  1.3265 -0.9062
  969MOL0     H33680   5.492   1.387   2.640  0.1893  1.5005  0.0112
  969MOL0     H33681   5.639   1.479   2.919  0.2869 -0.5740  0.7128
  969MOL0     H33682   5.546   1.529   2.784  0.6787  3.7036  1.0469
  969MOL0     H33683   5.717   1.581   2.810 -0.2308  0.1468 -1.3401
  969MOL0     H33684   6.086   1.569   2.819  0.7377  2.3966  0.4230
  969MOL0     H33685   6.283   1.643   2.959 -0.2780  0.0439 -0.1378
  969MOL0     H33686   6.345   1.781   3.139 -2.8507 -1.6143 -2.7457
  969MOL0     H33687   6.215   1.769   3.265  0.9288  1.3365 -0.0555
  969MOL0     H33688   6.517   1.714   3.307  2.2621  2.3705  0.9701
  969MOL0     H33689   6.412   1.861   3.341 -1.8051 -0.4997 -0.4684
  969MOL0     H33690   6.403   1.597   3.497  0.6973  0.4449  0.8857
  969MOL0     H33691   6.263   1.711   3.479 -0.8608 -1.5453 -2.4724
  969MOL0     H33692   6.414   1.884   3.560  2.4402  1.3421  3.0137
  969MOL0     H33693   6.551   1.779   3.563 -0.1329 -0.8751 -0.7363
  969MOL0     H33694   6.301   1.744   3.743  0.0834  1.3037 -0.1347
  969MOL0     H33695   6.443   1.631   3.737 -1.6634 -1.0391 -1.9997
  969MOL0     H33696   6.478   1.923   3.834  3.1145  0.6995  2.8222
  969MOL0     H33697   6.597   1.805   3.790  0.1199 -0.1548 -1.2794
  969MOL0     H33698   6.519   1.654   3.973  1.1748  1.8760 -0.0816
  969MOL0     H33699   6.386   1.759   4.010 -0.9393 -0.5738 -1.9612
  969MOL0     H33700   6.570   1.824   4.158  3.1190 -0.6309 -0.1816
  969MOL0     H33701   6.558   1.953   4.031  0.2801 -1.4092 -2.4611
  969MOL0     H33702   6.120   1.419   3.288  0.6295 -1.1726  0.0981
  969MOL0     H33703   5.946   1.343   3.142  0.7648 -0.0928 -0.4342
  969MOL0     H33704   5.858   1.079   2.731  0.0096 -0.1468 -0.5478
  969MOL0     H33705   5.673   1.001   2.585  0.0804  0.8997 -0.8632
  969MOL0     H33706   4.149   0.634   1.488  0.3258 -0.5379  1.9347
  969MOL0     H33707   3.959   0.585   1.363  1.3960 -0.2406  0.3653
  969MOL0     H33708   3.466   0.822   1.310  3.3672  1.3255  0.9128
  969MOL0     H33709   3.280   0.773   1.171 -0.1614 -2.0035  2.9204
  969MOL0     H33710   3.125   0.727   1.047 -1.8700 -0.7219  0.2105
  969MOL0     H33711   3.135   0.780   0.890 -0.1180  0.4124 -0.1573
  969MOL0     H33712   3.072   0.483   0.958 -0.6325  0.0195  0.1191
  969MOL0     H33713   3.045   0.559   0.803  0.4394  1.0570  0.5848
  969MOL0     H33714   2.906   0.611   1.067 -0.4265 -0.8613 -1.7381
  969MOL0     H33715   2.888   0.714   0.917 -1.3228  0.6277 -0.0614
  969MOL0     H33716   2.825   0.514   0.795  2.1297 -2.3593  0.1091
  969MOL0     H33717   2.707   0.551   0.934  0.5746  0.4966  0.8728
  969MOL0     H33718   2.818   0.160   1.038 -0.3193  0.4472  2.4365
  969MOL0     H33719   3.514   0.532   0.910 -1.2919 -0.2015  0.2365
  969MOL0     H33720   3.794   0.505   1.128  5.3231  2.1275 -0.6033
  969MOL0     H33721   3.752   0.517   0.949 -1.6005  1.0995 -1.1257
  969MOL0     H33722   3.833   0.648   1.028 -0.0915  1.0232  1.4112
  970MOL0     O33723   3.596   4.845  11.161 -0.3298  0.0461  0.3888
  970MOL0     C33724   3.701   4.884  11.213 -0.4774  0.5857  0.0290
  970MOL0     O33725   3.758   5.001  11.197  0.2649  0.1396  0.4398
  970MOL0     C33726   3.689   5.114  11.189  0.3975  0.4902  0.6196
  970MOL0     C33727   3.548   5.126  11.174  0.5449 -0.5194 -0.3396
  970MOL0     C33728   3.496   5.256  11.153 -0.2156  0.2917 -0.1358
  970MOL0     C33729   3.578   5.368  11.140 -0.9436  0.9880  0.2526
  970MOL0     O33730   3.529   5.494  11.123 -0.5705 -0.1722 -0.2302
  970MOL0     C33731   3.425   5.516  11.029  0.1917 -0.2265 -1.4916
  970MOL0     C33732   3.372   5.655  11.056 -0.3602 -1.2356 -0.4391
  970MOL0     C33733   3.292   5.696  10.930  0.6751 -0.6128 -0.1870
  970MOL0     C33734   3.170   5.618  10.912 -0.0641 -0.3120  0.0946
  970MOL0     C33735   3.100   5.675  10.784  0.3629 -0.1270  0.3819
  970MOL0     C33736   2.951   5.634  10.794  1.2938 -0.7150 -0.2694
  970MOL0     C33737   2.875   5.737  10.702 -0.9620  0.0959 -0.1960
  970MOL0     C33738   2.862   5.879  10.765 -0.1572 -0.0312  0.4255
  970MOL0     N33739   2.751   5.948  10.700 -0.2922 -0.1023  0.1515
  970MOL0     C33740   2.746   5.987  10.566 -0.0849 -0.6974  0.0084
  970MOL0     C33741   2.610   6.022  10.551  0.2265  0.3501  0.3163
  970MOL0     C33742   2.554   6.054  10.408 -0.8833  0.6855  0.2949
  970MOL0     C33743   2.500   5.935  10.323 -0.1705 -0.3281  0.1667
  970MOL0     C33744   2.567   5.798  10.336 -0.2522 -0.6424  0.2526
  970MOL0     C33745   2.485   5.702  10.241 -0.6048  0.3430  0.8232
  970MOL0     O33746   2.541   5.713  10.107  0.5729  0.1312  1.5043
  970MOL0     C33747   2.662   5.664  10.075  0.1290  0.4595  0.4631
  970MOL0     C33748   2.708   5.702   9.949  0.8936 -0.3577  0.4670
  970MOL0     C33749   2.842   5.677   9.902  0.7208 -0.5256 -0.2587
  970MOL0     C33750   2.880   5.745   9.774  0.7437 -0.9967  0.2891
  970MOL0     C33751   2.934   5.605   9.982  0.2058 -0.1131  0.8454
  970MOL0     C33752   3.074   5.578   9.946 -0.2179  0.2688  0.3875
  970MOL0     O33753   3.127   5.463  10.005  0.3766 -0.3504 -0.0504
  970MOL0     C33754   3.236   5.403   9.948 -0.2039  1.1341 -0.7646
  970MOL0     C33755   3.284   5.418   9.816  0.3290 -0.6260 -0.5218
  970MOL0     C33756   3.390   5.342   9.775 -0.1565  0.0509  0.1744
  970MOL0     C33757   3.439   5.240   9.848  0.6066 -1.2261  0.2526
  970MOL0     O33758   3.527   5.161   9.784 -0.3337  0.3356  0.6065
  970MOL0     C33759   3.465   5.078   9.686  0.1703  0.0129  0.4107
  970MOL0     C33760   3.544   4.955   9.625 -0.7423  0.8842  0.5668
  970MOL0     C33761   3.456   4.900   9.508 -0.5276  0.0157  0.8479
  970MOL0     C33762   3.501   4.775   9.443 -0.4211  0.2870  0.1894
  970MOL0     C33763   3.408   4.717   9.332 -0.4236 -0.3045 -0.3783
  970MOL0     C33764   3.276   4.651   9.375 -0.2197 -0.6082 -0.0636
  970MOL0     C33765   3.199   4.590   9.255  0.2295  0.9126 -0.5751
  970MOL0     C33766   3.046   4.591   9.260 -0.1461 -0.4548  0.4017
  970MOL0    Cl33767   2.991   4.753   9.324  0.7800  0.3463 -0.0936
  970MOL0     C33768   3.382   5.210   9.968 -0.2096  1.1472 -0.5714
  970MOL0     C33769   3.279   5.294  10.019 -0.1937  0.2933 -0.0723
  970MOL0     O33770   3.142   5.653   9.882  0.0727 -0.8975 -0.2291
  970MOL0     C33771   2.884   5.564  10.109 -0.2575  0.3105 -0.1782
  970MOL0     C33772   2.750   5.585  10.155 -0.3961  0.6024 -0.3667
  970MOL0     N33773   2.547   6.014  10.679 -0.0809  1.1268 -0.2528
  970MOL0     N33774   2.632   5.979  10.763 -0.1342 -0.7941 -0.0040
  970MOL0     C33775   3.720   5.354  11.149  0.5719  0.0965 -0.3694
  970MOL0     C33776   3.771   5.227  11.181  0.9410  0.2694  0.1743
  970MOL0     C33777   3.798   4.791  11.290 -0.3789  0.0062 -0.0627
  970MOL0     C33778   3.930   4.840  11.317  0.5335 -0.7700 -0.0335
  970MOL0     C33779   4.023   4.765  11.385  0.0127 -0.1830 -0.2076
  970MOL0     C33780   3.996   4.634  11.423 -0.6307 -0.0159  0.0100
  970MOL0     O33781   4.104   4.583  11.493 -0.7910  0.0369 -0.5032
  970MOL0     C33782   4.072   4.496  11.602  0.0739  0.6256 -0.3237
  970MOL0     C33783   4.209   4.441  11.650 -0.2629  0.2244 -0.7465
  970MOL0     C33784   4.276   4.547  11.739  0.0516 -0.0247  0.1752
  970MOL0     C33785   4.421   4.554  11.726 -0.4887  0.2713  0.2141
  970MOL0     C33786   4.446   4.616  11.596 -0.7112  0.3172  0.5180
  970MOL0     C33787   4.458   4.652  11.483 -0.6880 -0.4604  0.1739
  970MOL0     C33788   3.875   4.578  11.391 -0.5722  0.6122 -0.4070
  970MOL0     C33789   3.777   4.660  11.335 -0.7930  0.1547 -0.8148
  970MOL0     C33790   3.643   4.595  11.314 -0.1204 -0.0150  0.9154
  970MOL0     H33791   3.485   5.041  11.195 -0.5021  0.5492  1.0437
  970MOL0     H33792   3.388   5.267  11.154 -0.0675  1.9753 -0.2452
  970MOL0     H33793   3.343   5.444  11.040 -0.0655  0.1272 -1.0839
  970MOL0     H33794   3.458   5.504  10.925 -0.5470 -0.5936 -1.6928
  970MOL0     H33795   3.313   5.663  11.148 -2.3568  3.2353 -1.8370
  970MOL0     H33796   3.452   5.727  11.073 -0.7867 -0.7979 -0.2680
  970MOL0     H33797   3.275   5.803  10.946  1.4787 -0.4796 -0.2219
  970MOL0     H33798   3.345   5.689  10.835  0.3045  2.5919 -0.7646
  970MOL0     H33799   3.177   5.509  10.904  2.0211 -0.1696 -0.8118
  970MOL0     H33800   3.097   5.631  10.993 -0.2868  1.4068 -0.3373
  970MOL0     H33801   3.148   5.638  10.693  0.7171 -0.2834  0.6323
  970MOL0     H33802   3.109   5.783  10.775 -1.5513 -0.0431 -1.0960
  970MOL0     H33803   2.956   5.532  10.756 -0.0317 -0.5350 -1.0053
  970MOL0     H33804   2.912   5.627  10.895  1.8487  3.1711  0.3760
  970MOL0     H33805   2.772   5.704  10.684 -1.6240  2.1435 -0.4675
  970MOL0     H33806   2.932   5.754  10.611  0.9935  0.7264  1.0777
  970MOL0     H33807   2.849   5.880  10.874  0.4654  1.3154  0.5119
  970MOL0     H33808   2.954   5.937  10.750  0.7407 -0.7900  2.5427
  970MOL0     H33809   2.808   5.994  10.478 -1.6971 -1.9113 -1.2815
  970MOL0     H33810   2.642   6.101  10.362 -0.2942 -0.6567  0.0145
  970MOL0     H33811   2.477   6.130  10.424  2.3614  4.0070  1.4967
  970MOL0     H33812   2.396   5.921  10.356  0.2269 -1.6344  0.9526
  970MOL0     H33813   2.490   5.958  10.217  2.4494  0.0389 -0.0538
  970MOL0     H33814   2.674   5.803  10.315 -0.8192  3.2305 -3.1269
  970MOL0     H33815   2.553   5.769  10.440  4.5674  2.0045  1.9600
  970MOL0     H33816   2.481   5.598  10.273  2.1156 -1.0420 -2.6050
  970MOL0     H33817   2.383   5.743  10.238 -0.8831 -0.3161  1.2001
  970MOL0     H33818   2.631   5.749   9.888 -1.7359 -0.8090  3.2055
  970MOL0     H33819   2.787   5.774   9.724  0.5527  1.2100  1.7737
  970MOL0     H33820   2.943   5.692   9.702  1.3905  1.1132 -0.7912
  970MOL0     H33821   2.929   5.843   9.782 -2.1588  0.6316 -0.3411
  970MOL0     H33822   3.248   5.494   9.748  0.7065 -0.9299 -1.0674
  970MOL0     H33823   3.437   5.380   9.685 -1.1080  2.2089  0.5209
  970MOL0     H33824   3.381   5.028   9.735 -0.1618  0.2423  0.0807
  970MOL0     H33825   3.414   5.135   9.608  0.8614  1.7020  1.1518
  970MOL0     H33826   3.644   4.985   9.594 -1.3167  2.2620 -0.0184
  970MOL0     H33827   3.551   4.883   9.707  0.6993 -1.9399 -1.8437
  970MOL0     H33828   3.470   4.974   9.429  0.0680 -1.3619 -0.3891
  970MOL0     H33829   3.351   4.888   9.537 -0.1213 -0.9222  2.0227
  970MOL0     H33830   3.505   4.692   9.514 -1.3469 -2.4201 -2.6849
  970MOL0     H33831   3.603   4.786   9.406  0.2091  2.0377  2.2477
  970MOL0     H33832   3.390   4.804   9.268 -0.9175 -0.4745 -0.4676
  970MOL0     H33833   3.476   4.649   9.279  1.2799  0.3027  0.9139
  970MOL0     H33834   3.214   4.713   9.441 -0.9445  0.1624 -1.4291
  970MOL0     H33835   3.300   4.567   9.442  1.7448 -0.6540 -0.7711
  970MOL0     H33836   3.237   4.489   9.238  0.4193  0.3125  2.7119
  970MOL0     H33837   3.224   4.658   9.173  0.8464 -0.8524 -1.9038
  970MOL0     H33838   3.016   4.515   9.333 -3.4999  0.5289  0.2002
  970MOL0     H33839   3.015   4.559   9.160  3.5284 -0.8965 -0.7800
  970MOL0     H33840   3.424   5.121  10.013  1.4555  1.4323 -1.4516
  970MOL0     H33841   3.240   5.268  10.117 -1.7256  1.1235 -0.4222
  970MOL0     H33842   2.954   5.500  10.162  2.2084 -0.6749 -4.1790
  970MOL0     H33843   2.704   5.545  10.245  0.3352 -0.1374 -0.3071
  970MOL0     H33844   3.779   5.444  11.166  0.4689  0.0310  0.3457
  970MOL0     H33845   3.878   5.223  11.200  0.6751 -0.1116  1.7156
  970MOL0     H33846   3.959   4.944  11.306  3.7172 -1.3097  1.8883
  970MOL0     H33847   4.117   4.815  11.406 -0.0113 -0.8504  1.7630
  970MOL0     H33848   4.010   4.552  11.671  1.1316  2.3194 -0.6956
  970MOL0     H33849   4.019   4.412  11.556  1.9665 -0.3604 -0.8176
  970MOL0     H33850   4.265   4.411  11.562 -0.3682  0.0205 -0.7449
  970MOL0     H33851   4.201   4.358  11.720 -1.6037  0.4718 -0.5746
  970MOL0     H33852   4.220   4.641  11.733 -1.3159 -0.7728  0.5453
  970MOL0     H33853   4.240   4.527  11.841 -1.6436 -0.9187 -0.5564
  970MOL0     H33854   4.471   4.457  11.720  2.7413  1.6477  2.2795
  970MOL0     H33855   4.461   4.620  11.803  1.3754  0.6254 -1.0006
  970MOL0     H33856   4.489   4.668  11.382 -2.2226 -1.0337 -0.4171
  970MOL0     H33857   3.846   4.478  11.420 -1.3248  1.2427  1.1342
  970MOL0     H33858   3.554   4.658  11.306  1.5740  2.3674 -0.4871
  970MOL0     H33859   3.646   4.534  11.224  2.0415  1.7248 -0.2800
  970MOL0     H33860   3.632   4.527  11.399 -2.1583 -0.3602  0.4304
  971MOL0     O33861   4.670  11.156   1.649 -0.1641  0.4083  0.0117
  971MOL0     C33862   4.777  11.207   1.620 -0.0772 -0.2287 -0.5926
  971MOL0     O33863   4.849  11.181   1.505  0.2664  0.2608  0.3906
  971MOL0     C33864   4.796  11.083   1.433  0.2063  0.1450 -0.3812
  971MOL0     C33865   4.818  10.947   1.464  0.2719  0.7142  0.4928
  971MOL0     C33866   4.755  10.839   1.402  0.0146 -0.7602  0.0703
  971MOL0     C33867   4.672  10.864   1.290  0.5753  0.6783  0.1761
  971MOL0     O33868   4.609  10.756   1.228  0.3979 -0.5227 -0.5062
  971MOL0     C33869   4.605  10.761   1.077  0.1371  0.2669 -0.9495
  971MOL0     C33870   4.540  10.639   1.015 -0.2286  0.3307 -0.5041
  971MOL0     C33871   4.606  10.512   1.062  0.1152  0.2194 -0.0069
  971MOL0     C33872   4.530  10.387   1.011 -0.2196  0.0957  0.3954
  971MOL0     C33873   4.504  10.285   1.128 -0.2940  0.5606 -0.4821
  971MOL0     C33874   4.416  10.175   1.075 -0.8631  0.2966  0.2496
  971MOL0     C33875   4.491  10.090   0.962 -0.8049 -0.3973  0.3727
  971MOL0     C33876   4.461   9.941   0.976  0.4925  0.7524 -0.5370
  971MOL0     N33877   4.490   9.895   1.108  0.7425  0.4863 -0.4950
  971MOL0     C33878   4.398   9.867   1.205 -0.3460  1.8530  0.2657
  971MOL0     C33879   4.469   9.820   1.306  0.7320 -0.3819  0.2581
  971MOL0     C33880   4.419   9.784   1.440  0.0530  0.4423  0.4305
  971MOL0     C33881   4.495   9.863   1.558 -0.3579  0.3782  0.4395
  971MOL0     C33882   4.444   9.821   1.690 -0.2231 -0.9903  0.2094
  971MOL0     C33883   4.543   9.854   1.799 -0.2199 -0.9718  0.5001
  971MOL0     O33884   4.473   9.852   1.922 -0.7729  0.0973 -0.0573
  971MOL0     C33885   4.538   9.862   2.049  1.0762  0.7706  0.4817
  971MOL0     C33886   4.682   9.866   2.061  0.5165 -0.6124 -0.5961
  971MOL0     C33887   4.746   9.860   2.184 -0.0186 -0.4151 -0.1968
  971MOL0     C33888   4.902   9.851   2.188 -0.7050  0.3098  0.0052
  971MOL0     C33889   4.662   9.851   2.301 -0.6035  0.1227 -0.0563
  971MOL0     C33890   4.709   9.835   2.445 -0.1771 -0.2917 -0.4867
  971MOL0     O33891   4.649   9.913   2.537  0.1944  0.0511  0.2586
  971MOL0     C33892   4.644   9.894   2.670  0.0659 -0.0929  0.0336
  971MOL0     C33893   4.722   9.806   2.751 -0.8415  1.0921  0.5161
  971MOL0     C33894   4.675   9.767   2.872  0.1019  0.0113 -0.0353
  971MOL0     C33895   4.544   9.812   2.915  0.5187 -0.0189 -0.5721
  971MOL0     O33896   4.509   9.767   3.041  0.0626 -0.0186  0.5005
  971MOL0     C33897   4.373   9.729   3.057  0.0675  0.6869  0.3347
  971MOL0     C33898   4.379   9.599   3.131  0.6877  0.1562  0.3220
  971MOL0     C33899   4.238   9.557   3.181  0.7876  0.3130 -0.0406
  971MOL0     C33900   4.118   9.567   3.075 -0.6230  0.2349  0.3085
  971MOL0     C33901   3.971   9.530   3.119  0.7112 -1.0893 -0.3896
  971MOL0     C33902   3.867   9.560   3.008 -0.7978  0.0866  0.4043
  971MOL0     C33903   3.725   9.542   3.050 -0.0514  0.1195 -0.5494
  971MOL0     C33904   3.628   9.608   2.949 -0.0905 -0.3152 -0.4168
  971MOL0    Cl33905   3.467   9.632   3.002 -0.0613 -0.4816  0.1926
  971MOL0     C33906   4.473   9.913   2.847 -0.6761 -0.5543  0.4378
  971MOL0     C33907   4.526   9.943   2.722  0.6075 -0.1351 -0.6535
  971MOL0     O33908   4.812   9.763   2.469  0.0089 -0.2843  0.2760
  971MOL0     C33909   4.528   9.853   2.294  0.9726  0.4114 -0.2262
  971MOL0     C33910   4.462   9.862   2.171 -0.9894  0.2514  1.7702
  971MOL0     N33911   4.602   9.825   1.274  0.0075  0.5619  0.0357
  971MOL0     N33912   4.612   9.866   1.151 -0.0633 -0.5071  0.0152
  971MOL0     C33913   4.652  10.993   1.245  0.1527  0.7081 -0.1255
  971MOL0     C33914   4.719  11.099   1.316  0.0575 -0.3275 -0.5929
  971MOL0     C33915   4.835  11.307   1.712 -0.1592 -0.6343  0.7505
  971MOL0     C33916   4.967  11.340   1.689 -0.7550  0.2002 -1.1676
  971MOL0     C33917   5.035  11.414   1.784 -0.5328 -0.3195  0.6131
  971MOL0     C33918   4.966  11.474   1.886 -0.5045 -0.4315  0.6673
  971MOL0     O33919   5.035  11.542   1.983  0.1688  0.3445  0.9130
  971MOL0     C33920   4.970  11.600   2.096 -0.7051 -0.8026  0.2394
  971MOL0     C33921   5.087  11.648   2.182  0.1001  0.0928  0.3698
  971MOL0     C33922   5.033  11.677   2.323 -0.5414  0.1216  0.4095
  971MOL0     C33923   5.119  11.768   2.413 -0.0265 -0.6087  0.2123
  971MOL0     C33924   5.238  11.692   2.455  0.6889 -0.2741 -0.1639
  971MOL0     C33925   5.340  11.639   2.486 -0.6283  0.3018  1.1988
  971MOL0     C33926   4.836  11.451   1.904  0.5029 -0.5121  0.1495
  971MOL0     C33927   4.758  11.376   1.812 -1.1325  0.9094 -0.4882
  971MOL0     C33928   4.610  11.364   1.832 -0.1169 -0.1978 -0.0144
  971MOL0     H33929   4.895  10.921   1.536 -0.6632 -1.7450  0.6911
  971MOL0     H33930   4.771  10.737   1.438 -1.3709 -0.9979  0.0527
  971MOL0     H33931   4.707  10.773   1.038  0.1378  0.9761 -0.7405
  971MOL0     H33932   4.543  10.845   1.045 -2.2971 -1.0798  0.0198
  971MOL0     H33933   4.441  10.636   1.063  0.5038 -1.8392  1.0678
  971MOL0     H33934   4.538  10.646   0.906  2.6898 -0.4098 -0.6869
  971MOL0     H33935   4.710  10.506   1.028  0.8210 -2.6777  2.2794
  971MOL0     H33936   4.616  10.512   1.171 -3.1872  1.7216  0.4141
  971MOL0     H33937   4.433  10.414   0.969 -0.5607 -0.4405  0.8237
  971MOL0     H33938   4.585  10.344   0.927 -2.9092  2.6248 -2.9657
  971MOL0     H33939   4.449  10.344   1.202 -0.2780 -0.7202  0.6056
  971MOL0     H33940   4.586  10.249   1.192 -2.2872  0.3592  2.1333
  971MOL0     H33941   4.383  10.119   1.163 -1.0482 -1.3114 -0.8099
  971MOL0     H33942   4.327  10.224   1.032 -1.0442  1.5090  1.8838
  971MOL0     H33943   4.598  10.106   0.975 -1.1511  0.1471  3.3552
  971MOL0     H33944   4.451  10.137   0.872  1.0957  2.2937  0.7915
  971MOL0     H33945   4.355   9.938   0.947  0.9710 -0.6969 -2.2947
  971MOL0     H33946   4.515   9.885   0.900 -1.4608 -2.5969  0.3226
  971MOL0     H33947   4.290   9.874   1.198 -0.3603  0.2407 -2.2070
  971MOL0     H33948   4.431   9.676   1.451 -0.7589  0.1971 -0.8382
  971MOL0     H33949   4.312   9.807   1.451  0.0303 -0.0345  1.2245
  971MOL0     H33950   4.599   9.828   1.554  0.4617  2.7253 -0.0506
  971MOL0     H33951   4.495   9.967   1.525 -0.0699 -0.1724 -1.4390
  971MOL0     H33952   4.346   9.860   1.720  0.9908  2.7424 -0.2411
  971MOL0     H33953   4.430   9.712   1.683  0.0671 -0.9434 -1.9655
  971MOL0     H33954   4.616   9.774   1.793  2.3067  1.2196  0.3500
  971MOL0     H33955   4.599   9.947   1.783 -0.0461 -1.5419 -2.7434
  971MOL0     H33956   4.743   9.878   1.972 -0.3548  0.2516 -1.0897
  971MOL0     H33957   4.941   9.889   2.093  2.6421 -1.4002  0.5459
  971MOL0     H33958   4.945   9.751   2.203  2.4105  1.2570 -1.6478
  971MOL0     H33959   4.933   9.916   2.270 -0.2920 -1.9152  1.7203
  971MOL0     H33960   4.815   9.775   2.704 -1.9990  0.5022 -1.5382
  971MOL0     H33961   4.733   9.698   2.933  1.7920  1.1955 -0.2379
  971MOL0     H33962   4.323   9.805   3.117 -1.4816 -0.6781  0.8646
  971MOL0     H33963   4.327   9.712   2.959  0.5536  0.9443  0.0631
  971MOL0     H33964   4.417   9.520   3.065  2.3233  0.6714  0.6072
  971MOL0     H33965   4.449   9.612   3.215  1.7486 -0.3945 -0.4475
  971MOL0     H33966   4.212   9.621   3.265 -0.9061 -1.2228  0.6828
  971MOL0     H33967   4.230   9.459   3.228 -1.7246  1.4934  2.3074
  971MOL0     H33968   4.138   9.510   2.984  0.4030  2.5655 -1.0019
  971MOL0     H33969   4.115   9.673   3.050  3.3216 -0.2350 -3.1643
  971MOL0     H33970   3.964   9.424   3.147 -0.7909 -0.5994  1.3462
  971MOL0     H33971   3.945   9.594   3.204 -0.8824  0.6831 -2.1080
  971MOL0     H33972   3.892   9.483   2.934  2.2791  0.2566  1.1050
  971MOL0     H33973   3.894   9.653   2.959  1.9377  0.5381  2.4879
  971MOL0     H33974   3.719   9.592   3.148 -2.2692  0.5698 -0.8379
  971MOL0     H33975   3.706   9.436   3.065  3.0030 -0.0665  4.1196
  971MOL0     H33976   3.632   9.544   2.861 -2.9863  0.8223 -1.4773
  971MOL0     H33977   3.676   9.704   2.924 -1.5504  0.4320 -0.4254
  971MOL0     H33978   4.381   9.948   2.893 -2.4357 -1.7117 -2.0113
  971MOL0     H33979   4.463  10.016   2.671 -2.7305 -1.0163  1.8449
  971MOL0     H33980   4.468   9.862   2.384  2.7233  0.7150  0.9538
  971MOL0     H33981   4.354   9.868   2.158 -0.9950 -0.1170  1.6329
  971MOL0     H33982   4.582  11.013   1.164 -1.4083 -1.8432  0.4523
  971MOL0     H33983   4.699  11.203   1.292 -0.6089 -0.7251 -1.8742
  971MOL0     H33984   5.021  11.304   1.602  0.3310 -2.1021  0.3627
  971MOL0     H33985   5.142  11.436   1.780 -0.9598  1.9238  0.0157
  971MOL0     H33986   4.906  11.685   2.070  1.2838  0.6177 -0.3047
  971MOL0     H33987   4.904  11.525   2.141 -2.2788 -1.1805 -2.4842
  971MOL0     H33988   5.129  11.735   2.129  2.5436 -2.4803 -2.3306
  971MOL0     H33989   5.174  11.582   2.181  0.3078  0.3658  0.1947
  971MOL0     H33990   4.929  11.713   2.322 -0.8681 -0.5302 -3.0046
  971MOL0     H33991   5.037  11.575   2.361  0.2754 -0.8192 -2.0056
  971MOL0     H33992   5.062  11.794   2.503  0.0397  2.3453 -0.5004
  971MOL0     H33993   5.148  11.862   2.367  0.4398 -1.6150 -1.6607
  971MOL0     H33994   5.424  11.577   2.512  0.0738  0.7465  0.0686
  971MOL0     H33995   4.779  11.498   1.983  0.9010  1.0408 -0.4542
  971MOL0     H33996   4.567  11.437   1.902 -0.1533 -0.7732  0.5687
  971MOL0     H33997   4.570  11.376   1.731  1.8684  1.1098 -0.7218
  971MOL0     H33998   4.579  11.269   1.875  2.4572 -0.8852  0.5020
  972MOL0     O33999   9.549   7.457  11.325  0.0888  0.6545 -0.0152
  972MOL0     C34000   9.569   7.354  11.257  0.4992  0.4560  0.3440
  972MOL0     O34001   9.664   7.336  11.152  0.5638 -0.0298  0.2736
  972MOL0     C34002   9.742   7.446  11.116  0.4804 -0.7100  0.2613
  972MOL0     C34003   9.817   7.515  11.211 -0.7107 -0.6548  0.0323
  972MOL0     C34004   9.921   7.603  11.173 -0.4959 -0.2466 -0.3107
  972MOL0     C34005   9.950   7.625  11.045 -0.9335 -1.3727  0.5769
  972MOL0     O34006  10.050   7.709  10.994  0.3726 -0.3835 -0.4910
  972MOL0     C34007  10.181   7.673  11.056 -0.2238 -0.6388  0.7709
  972MOL0     C34008  10.309   7.712  10.972 -0.2775 -0.5474 -0.0996
  972MOL0     C34009  10.332   7.863  10.961  0.3078  0.3133  0.2872
  972MOL0     C34010  10.446   7.886  10.865  0.4281  0.0537 -0.0699
  972MOL0     C34011  10.477   8.035  10.853 -0.4776 -1.2547 -0.1551
  972MOL0     C34012  10.572   8.082  10.958 -0.8551  0.2750 -0.0893
  972MOL0     C34013  10.714   8.033  10.910  0.1461  0.6920  0.4361
  972MOL0     C34014  10.823   8.059  11.008  0.5251  0.6839  0.6422
  972MOL0     N34015  10.829   8.206  11.039 -0.5251 -0.0879  0.5563
  972MOL0     C34016  10.919   8.291  10.983 -0.4943  0.5923  0.2639
  972MOL0     C34017  10.907   8.409  11.050  0.2822 -0.6854 -0.2183
  972MOL0     C34018  10.989   8.535  11.022 -0.5625  0.0753 -0.5748
  972MOL0     C34019  10.991   8.639  11.138 -0.5611 -0.6523  0.3017
  972MOL0     C34020  11.058   8.773  11.081 -0.0868  0.3986 -0.4210
  972MOL0     C34021  10.964   8.848  10.989  0.8876  0.6942 -0.2894
  972MOL0     O34022  11.027   8.947  10.918  0.1876 -0.3398  0.4044
  972MOL0     C34023  10.973   9.007  10.807  0.4406 -0.6773  1.1080
  972MOL0     C34024  10.853   8.977  10.744 -1.0276  0.3867 -0.2660
  972MOL0     C34025  10.802   9.049  10.629  0.8843  0.4605  0.5444
  972MOL0     C34026  10.659   9.011  10.579 -0.2655 -0.0499  0.2375
  972MOL0     C34027  10.870   9.160  10.579  0.1431 -0.0857  0.5075
  972MOL0     C34028  10.823   9.244  10.465  0.2221 -0.5890 -0.5464
  972MOL0     O34029  10.916   9.317  10.412  0.1096  0.2823  0.2418
  972MOL0     C34030  10.914   9.358  10.285 -0.3456 -0.1671  0.3648
  972MOL0     C34031  10.813   9.430  10.227 -0.2258  0.9404 -0.4254
  972MOL0     C34032  10.816   9.478  10.096  0.3253  0.0223 -0.3147
  972MOL0     C34033  10.932   9.444  10.019 -0.6430  0.1650  0.0440
  972MOL0     O34034  10.922   9.489   9.892  0.0660 -0.0292 -0.3193
  972MOL0     C34035  11.040   9.511   9.817  0.7195  0.0758  0.7386
  972MOL0     C34036  11.006   9.601   9.691 -0.0730  0.3540 -0.2833
  972MOL0     C34037  11.128   9.638   9.615 -0.1441  0.0676 -0.2863
  972MOL0     C34038  11.216   9.536   9.551 -0.7994  0.5066 -0.0798
  972MOL0     C34039  11.151   9.497   9.413 -0.6371 -0.3165  0.1560
  972MOL0     C34040  11.260   9.413   9.343  0.6237  0.0025 -0.5741
  972MOL0     C34041  11.280   9.273   9.414  0.6495  0.0105 -0.2776
  972MOL0     C34042  11.275   9.155   9.312 -0.6243 -0.6560 -0.3867
  972MOL0    Cl34043  11.381   9.197   9.178 -0.2762 -0.6102  0.6350
  972MOL0     C34044  11.035   9.367  10.076  0.7028 -0.0638  0.0873
  972MOL0     C34045  11.032   9.326  10.209  0.6609 -0.0267 -0.3909
  972MOL0     O34046  10.712   9.237  10.421 -0.0004 -0.4449 -0.2750
  972MOL0     C34047  10.992   9.192  10.651 -0.0520  0.1407 -0.0009
  972MOL0     C34048  11.037   9.113  10.754  0.5521 -1.1261  0.3747
  972MOL0     N34049  10.809   8.388  11.149  0.4687 -0.5874 -0.3343
  972MOL0     N34050  10.756   8.271  11.134  0.5969  0.7849  0.1205
  972MOL0     C34051   9.890   7.545  10.949  0.1333 -0.3884 -0.1806
  972MOL0     C34052   9.781   7.464  10.980 -0.8714 -0.6205 -0.3678
  972MOL0     C34053   9.470   7.247  11.290  0.4508  1.0815  0.4089
  972MOL0     C34054   9.463   7.143  11.201 -0.4033 -0.2120  0.0175
  972MOL0     C34055   9.375   7.035  11.218  0.1162 -0.9571  0.6215
  972MOL0     C34056   9.291   7.013  11.327 -0.5104 -0.4798 -0.7346
  972MOL0     O34057   9.210   6.904  11.332  0.3616  0.6511  0.1880
  972MOL0     C34058   9.137   6.876  11.450 -0.6975 -0.3428 -0.6570
  972MOL0     C34059   9.031   6.768  11.430 -0.1047 -0.5142 -0.7776
  972MOL0     C34060   8.906   6.819  11.348 -0.3202 -0.2432  0.1124
  972MOL0     C34061   8.812   6.927  11.419  0.0590 -0.6573  0.2976
  972MOL0     C34062   8.731   6.887  11.542 -0.1090 -0.1791  0.6513
  972MOL0     C34063   8.673   6.841  11.640  0.4799  0.3359  0.5772
  972MOL0     C34064   9.313   7.109  11.424 -0.5374 -0.2626 -0.0507
  972MOL0     C34065   9.395   7.223  11.413  0.9555  0.3233 -0.8378
  972MOL0     C34066   9.405   7.307  11.536  0.3180  0.4013  0.2914
  972MOL0     H34067   9.793   7.482  11.311 -5.4236 -0.8788 -0.9334
  972MOL0     H34068   9.989   7.643  11.248 -1.0482 -1.2497  0.7463
  972MOL0     H34069  10.186   7.564  11.055  0.9974 -0.6246 -1.3918
  972MOL0     H34070  10.191   7.712  11.158  3.1176  3.8528 -0.9634
  972MOL0     H34071  10.401   7.677  11.020  0.2241  1.6717  0.6752
  972MOL0     H34072  10.292   7.667  10.873 -0.9990 -1.9193  0.6091
  972MOL0     H34073  10.240   7.914  10.931 -2.1035 -1.8182  3.3148
  972MOL0     H34074  10.358   7.894  11.062  1.8997  1.0006 -0.3053
  972MOL0     H34075  10.532   7.825  10.894  0.6537  1.0180  1.4181
  972MOL0     H34076  10.414   7.856  10.765  2.6495  0.5498 -0.9962
  972MOL0     H34077  10.386   8.096  10.852  0.0953 -0.3826 -0.7482
  972MOL0     H34078  10.524   8.055  10.756 -2.0459 -1.2315 -0.9363
  972MOL0     H34079  10.570   8.191  10.952 -0.1216  0.2846 -0.1912
  972MOL0     H34080  10.546   8.032  11.052 -0.3399 -2.3325 -1.2429
  972MOL0     H34081  10.744   8.088  10.820  0.8863  0.5270  0.5850
  972MOL0     H34082  10.709   7.925  10.899 -0.7324  0.6287  1.3078
  972MOL0     H34083  10.810   8.004  11.102  2.4404  1.0153  1.1454
  972MOL0     H34084  10.916   8.021  10.966 -0.2972 -1.9834  1.0740
  972MOL0     H34085  10.985   8.269  10.899 -0.0330  0.1901  0.7257
  972MOL0     H34086  10.962   8.576  10.924 -1.2687 -0.7012 -0.7093
  972MOL0     H34087  11.092   8.505  11.002  0.1988  0.9728  1.6170
  972MOL0     H34088  10.888   8.662  11.168  0.1678  0.6423  1.9375
  972MOL0     H34089  11.040   8.611  11.231 -1.1094 -0.5751  0.6172
  972MOL0     H34090  11.077   8.835  11.169 -1.4037 -0.9541  0.8596
  972MOL0     H34091  11.146   8.747  11.021 -0.4107 -2.9267  0.3446
  972MOL0     H34092  10.910   8.779  10.924  2.2802 -1.2150  0.4778
  972MOL0     H34093  10.888   8.893  11.052 -0.1877  0.5603 -1.4601
  972MOL0     H34094  10.798   8.892  10.784  0.5072 -2.0828 -3.0414
  972MOL0     H34095  10.597   8.955  10.650 -2.2873  0.5655 -0.9651
  972MOL0     H34096  10.652   8.947  10.491  0.5666  0.9088 -0.5555
  972MOL0     H34097  10.595   9.095  10.551 -1.4248 -0.9988 -0.0158
  972MOL0     H34098  10.726   9.452  10.287 -0.4854  0.8328 -0.7561
  972MOL0     H34099  10.726   9.518  10.050 -1.5296 -0.9641  2.2133
  972MOL0     H34100  11.120   9.561   9.873  1.1622  4.0755 -2.9078
  972MOL0     H34101  11.083   9.419   9.777 -0.0089  0.0482  0.0032
  972MOL0     H34102  10.950   9.538   9.621 -0.1584  1.1131 -0.9179
  972MOL0     H34103  10.944   9.685   9.724  2.4218  2.4070 -0.4518
  972MOL0     H34104  11.186   9.694   9.689  0.8299 -0.9740 -0.2261
  972MOL0     H34105  11.107   9.720   9.546 -0.2616  1.5932  1.4821
  972MOL0     H34106  11.240   9.450   9.613  0.1753  0.9437  0.1728
  972MOL0     H34107  11.318   9.575   9.534 -0.6074 -0.1687 -0.5166
  972MOL0     H34108  11.068   9.428   9.426  0.6141 -1.7081  1.2766
  972MOL0     H34109  11.119   9.580   9.349  2.8942  1.9282  0.9743
  972MOL0     H34110  11.360   9.456   9.336  0.5633  1.0168  3.1092
  972MOL0     H34111  11.227   9.397   9.240  0.9901  0.3358 -0.7466
  972MOL0     H34112  11.213   9.251   9.497  0.7929  1.1305  0.1526
  972MOL0     H34113  11.377   9.274   9.464  0.1081 -1.0722  0.8336
  972MOL0     H34114  11.174   9.141   9.272 -1.7457  2.3411  1.0856
  972MOL0     H34115  11.312   9.066   9.362  0.9947  0.6240  0.7910
  972MOL0     H34116  11.123   9.339  10.019  1.0368 -3.6734  2.0857
  972MOL0     H34117  11.113   9.272  10.258 -1.0437 -0.8550  1.6956
  972MOL0     H34118  11.055   9.278  10.629  3.1590 -1.2284  2.8688
  972MOL0     H34119  11.134   9.142  10.793 -0.3799  2.7998  0.2113
  972MOL0     H34120   9.923   7.558  10.847  0.3354  0.7335  0.0102
  972MOL0     H34121   9.745   7.408  10.894 -0.4902 -0.8314 -0.3968
  972MOL0     H34122   9.530   7.135  11.116  0.3231  0.5446  0.4987
  972MOL0     H34123   9.364   6.956  11.145 -2.1918  0.4083 -0.6064
  972MOL0     H34124   9.203   6.845  11.531  2.9466  2.6670 -2.1853
  972MOL0     H34125   9.080   6.962  11.488 -1.0407 -0.7074 -0.3380
  972MOL0     H34126   8.986   6.735  11.524  1.1690 -1.1773 -0.3812
  972MOL0     H34127   9.076   6.683  11.378  2.1254  0.3901 -0.4089
  972MOL0     H34128   8.939   6.856  11.251 -2.0291 -0.4272 -0.5569
  972MOL0     H34129   8.841   6.733  11.330  0.6239 -1.0888  0.6339
  972MOL0     H34130   8.737   6.960  11.346  0.4729 -1.6534 -0.5939
  972MOL0     H34131   8.874   7.011  11.450 -1.9618  1.2210 -0.5251
  972MOL0     H34132   8.627   6.798  11.726 -0.7443  0.0189 -0.2081
  972MOL0     H34133   9.244   7.107  11.508 -0.6028  0.3551 -0.0848
  972MOL0     H34134   9.368   7.405  11.505 -0.5782 -0.1286 -0.3580
  972MOL0     H34135   9.357   7.268  11.626 -0.7328  1.3124  0.1487
  972MOL0     H34136   9.510   7.332  11.557  0.6544  0.0672 -0.9098
  973MOL0     O34137   7.507   6.806   5.317  0.6346 -0.1282  0.2710
  973MOL0     C34138   7.400   6.759   5.358 -0.9107 -0.3533  0.3248
  973MOL0     O34139   7.279   6.775   5.296  0.5944  0.4070 -0.0056
  973MOL0     C34140   7.267   6.856   5.180 -0.5017  1.5354 -0.1224
  973MOL0     C34141   7.365   6.856   5.075 -0.8145  0.1735 -0.0547
  973MOL0     C34142   7.326   6.919   4.956 -0.6397  1.0075 -0.1653
  973MOL0     C34143   7.204   6.990   4.946 -0.2436  0.2505  0.2114
  973MOL0     O34144   7.182   7.049   4.824  0.4327  0.7566  0.5854
  973MOL0     C34145   7.281   7.129   4.763  0.4097  0.8159  0.1633
  973MOL0     C34146   7.215   7.205   4.648 -0.6666 -0.1396 -0.0198
  973MOL0     C34147   7.324   7.270   4.564  0.7752 -0.9523  0.1637
  973MOL0     C34148   7.241   7.321   4.435  0.2533  0.5830 -0.1224
  973MOL0     C34149   7.332   7.423   4.349 -0.0088 -0.0123 -0.7639
  973MOL0     C34150   7.257   7.514   4.247  0.3299  0.1588  0.5084
  973MOL0     C34151   7.347   7.630   4.191 -0.1666  0.0283  0.3749
  973MOL0     C34152   7.483   7.572   4.141 -0.4143  0.1130  0.3614
  973MOL0     N34153   7.529   7.635   4.009  0.3234 -0.9954  0.0729
  973MOL0     C34154   7.521   7.582   3.882  0.1280 -0.2233 -0.1964
  973MOL0     C34155   7.602   7.658   3.809 -0.4099 -0.1122  0.5804
  973MOL0     C34156   7.602   7.651   3.658 -0.9412  0.5290 -0.3744
  973MOL0     C34157   7.743   7.709   3.617 -0.0574  0.5439 -0.3242
  973MOL0     C34158   7.754   7.731   3.466 -0.5168  0.5569  0.4599
  973MOL0     C34159   7.871   7.829   3.445 -0.0318  0.4612  0.2263
  973MOL0     O34160   7.991   7.774   3.505 -0.0547 -0.5951 -0.9157
  973MOL0     C34161   8.111   7.819   3.468  0.3388 -0.5536 -0.3732
  973MOL0     C34162   8.213   7.753   3.533 -0.6440  0.0918 -0.4340
  973MOL0     C34163   8.341   7.811   3.541 -0.1552  0.7916 -0.9548
  973MOL0     C34164   8.438   7.714   3.607  0.5384 -0.5128 -0.2563
  973MOL0     C34165   8.365   7.945   3.490 -0.2399 -0.5273  0.4354
  973MOL0     C34166   8.489   8.024   3.505 -0.1453  0.5467  0.9572
  973MOL0     O34167   8.492   8.147   3.446 -0.4218  0.2384  0.2122
  973MOL0     C34168   8.592   8.236   3.484  0.6489 -0.1850  0.4587
  973MOL0     C34169   8.678   8.288   3.391  0.9997  0.8260  1.0158
  973MOL0     C34170   8.793   8.361   3.423  0.2804 -0.1112  0.2154
  973MOL0     C34171   8.814   8.401   3.551 -0.1278 -0.2615  0.4030
  973MOL0     O34172   8.916   8.486   3.594  0.2033  0.8969  0.1914
  973MOL0     C34173   9.038   8.495   3.524  0.1140  0.0942  0.7914
  973MOL0     C34174   9.144   8.478   3.629  0.1233 -0.5309  0.1841
  973MOL0     C34175   9.138   8.594   3.726  0.1568 -0.7572 -0.6288
  973MOL0     C34176   9.253   8.589   3.823  0.5215 -0.0972 -0.4872
  973MOL0     C34177   9.202   8.592   3.968 -0.1756  0.4813  1.0864
  973MOL0     C34178   9.324   8.603   4.068  0.3798 -0.0962  0.0177
  973MOL0     C34179   9.280   8.620   4.214 -0.3127  0.0110 -0.5578
  973MOL0     C34180   9.395   8.657   4.315  0.1284  0.7796  0.7423
  973MOL0    Cl34181   9.460   8.502   4.373  0.1947 -0.0006 -0.1465
  973MOL0     C34182   8.719   8.362   3.650  0.4152 -0.4254 -0.4762
  973MOL0     C34183   8.616   8.271   3.617 -0.0783 -0.9122  0.4883
  973MOL0     O34184   8.577   7.968   3.565  0.5523  0.4050  0.1532
  973MOL0     C34185   8.258   8.003   3.414 -0.3066  1.0570 -0.1224
  973MOL0     C34186   8.134   7.940   3.402  0.7995 -0.1758  0.4648
  973MOL0     N34187   7.667   7.750   3.890  0.0826  0.2700 -0.6708
  973MOL0     N34188   7.618   7.737   4.007 -0.2128 -0.0012  0.2455
  973MOL0     C34189   7.111   6.982   5.052 -0.8784 -0.4801 -0.1382
  973MOL0     C34190   7.146   6.918   5.168 -0.9904  0.8531 -0.2119
  973MOL0     C34191   7.412   6.662   5.459  0.4710 -0.2684 -0.2943
  973MOL0     C34192   7.297   6.579   5.482 -0.6118 -0.8754  0.6893
  973MOL0     C34193   7.296   6.473   5.576  0.1930 -0.0683  0.3126
  973MOL0     C34194   7.416   6.447   5.639  0.0340  0.7043 -0.3535
  973MOL0     O34195   7.420   6.335   5.727 -0.3414  0.0552  0.4821
  973MOL0     C34196   7.401   6.376   5.867  0.4837 -0.3156  0.4273
  973MOL0     C34197   7.250   6.405   5.885  0.1863  0.1366 -0.9274
  973MOL0     C34198   7.195   6.404   6.032  0.5230  0.4300  0.7709
  973MOL0     C34199   7.277   6.484   6.128 -1.2611  0.0663 -0.2416
  973MOL0     C34200   7.392   6.409   6.182  0.3343 -0.1937  0.0506
  973MOL0     C34201   7.480   6.349   6.236 -0.2909 -0.1908 -1.2806
  973MOL0     C34202   7.532   6.520   5.616  0.8707 -0.1754  0.7180
  973MOL0     C34203   7.531   6.628   5.531 -0.7135  0.0190 -0.2178
  973MOL0     C34204   7.654   6.709   5.536  0.0359  0.6387  0.2203
  973MOL0     H34205   7.455   6.795   5.079 -1.5553 -0.9281  3.0113
  973MOL0     H34206   7.398   6.920   4.875 -1.9955  3.4378 -1.4542
  973MOL0     H34207   7.363   7.071   4.719 -2.3780 -1.9026 -1.8663
  973MOL0     H34208   7.316   7.197   4.841  2.8676 -2.5147  2.2726
  973MOL0     H34209   7.153   7.133   4.593  0.5051  0.1625 -1.8097
  973MOL0     H34210   7.155   7.290   4.682  1.4261  1.7062 -0.7028
  973MOL0     H34211   7.365   7.358   4.614 -2.4952  1.1933 -0.5874
  973MOL0     H34212   7.411   7.206   4.543  2.1966  1.4281 -1.8716
  973MOL0     H34213   7.202   7.242   4.370 -1.6659  0.8068  0.6717
  973MOL0     H34214   7.158   7.374   4.483  0.9940  0.6296  1.1316
  973MOL0     H34215   7.405   7.358   4.299 -0.6581 -2.4514  1.2665
  973MOL0     H34216   7.390   7.492   4.411  0.1209 -1.0065  0.2319
  973MOL0     H34217   7.215   7.457   4.164  3.8301  0.0344 -1.3979
  973MOL0     H34218   7.176   7.564   4.302  0.8839  0.4388  1.0820
  973MOL0     H34219   7.349   7.698   4.278 -1.0758 -0.5308  0.8514
  973MOL0     H34220   7.300   7.688   4.111  4.2517  1.8817 -1.1885
  973MOL0     H34221   7.561   7.580   4.218 -0.1130  2.3874 -0.1054
  973MOL0     H34222   7.464   7.467   4.117 -1.3482  0.4857 -0.6049
  973MOL0     H34223   7.463   7.494   3.858 -0.0119  0.0184 -0.7515
  973MOL0     H34224   7.531   7.729   3.632  1.5600  3.3115  0.5513
  973MOL0     H34225   7.577   7.552   3.619  1.5546 -0.1142 -0.5231
  973MOL0     H34226   7.750   7.809   3.659 -4.1465  0.5689  0.6634
  973MOL0     H34227   7.819   7.645   3.663 -1.5179  0.0763  1.5692
  973MOL0     H34228   7.776   7.636   3.416  1.0170  1.7949 -1.3104
  973MOL0     H34229   7.662   7.772   3.423 -0.4859 -1.6248 -1.9217
  973MOL0     H34230   7.875   7.842   3.337 -0.4601  2.2976  0.3979
  973MOL0     H34231   7.858   7.925   3.496  2.2869 -0.0975  2.0074
  973MOL0     H34232   8.185   7.671   3.599 -2.1685 -0.0303 -1.1842
  973MOL0     H34233   8.493   7.669   3.523  1.7983 -0.3992  0.4823
  973MOL0     H34234   8.391   7.638   3.669  2.1067 -0.7104  0.7568
  973MOL0     H34235   8.507   7.764   3.676  0.1129 -1.4202  0.8521
  973MOL0     H34236   8.662   8.252   3.289  0.4054 -1.7421  1.9390
  973MOL0     H34237   8.869   8.384   3.348 -2.2461  0.4115 -2.3909
  973MOL0     H34238   9.059   8.420   3.448  0.0948  0.5392  0.3460
  973MOL0     H34239   9.054   8.597   3.487  1.7543 -0.5237 -0.3322
  973MOL0     H34240   9.131   8.388   3.689  1.0620 -0.0815  1.0968
  973MOL0     H34241   9.242   8.489   3.583  0.6360  1.8707  1.6400
  973MOL0     H34242   9.044   8.579   3.780  0.8691 -1.0756  0.5515
  973MOL0     H34243   9.136   8.692   3.677  1.2845 -0.5938 -0.3818
  973MOL0     H34244   9.327   8.669   3.814  1.3317 -0.9786 -2.0821
  973MOL0     H34245   9.307   8.496   3.798 -0.9141 -1.1150  0.0802
  973MOL0     H34246   9.146   8.685   3.975  1.9028  1.9603 -0.4575
  973MOL0     H34247   9.145   8.501   3.989 -2.4902  1.8178  0.9937
  973MOL0     H34248   9.386   8.691   4.050 -0.4606  0.2815 -1.1542
  973MOL0     H34249   9.391   8.518   4.055 -0.9764 -1.0881 -0.6502
  973MOL0     H34250   9.245   8.520   4.240 -0.8183  0.4098  0.3239
  973MOL0     H34251   9.194   8.687   4.229 -0.0737  1.0556 -3.2855
  973MOL0     H34252   9.353   8.723   4.392 -1.7794  1.4311 -0.7744
  973MOL0     H34253   9.465   8.721   4.260 -0.9695  1.4706  0.1249
  973MOL0     H34254   8.737   8.396   3.752  1.8979  0.0616 -0.8660
  973MOL0     H34255   8.548   8.246   3.697 -0.3208  2.4314  1.4653
  973MOL0     H34256   8.263   8.107   3.381 -0.7558  2.0389  2.6192
  973MOL0     H34257   8.059   7.983   3.338  0.2590 -4.2767 -2.0308
  973MOL0     H34258   7.016   7.035   5.043 -0.8386 -0.3701  0.0779
  973MOL0     H34259   7.073   6.901   5.246  0.9024  0.5004  1.5551
  973MOL0     H34260   7.202   6.587   5.430 -0.0439 -0.6452 -0.3514
  973MOL0     H34261   7.204   6.416   5.588  0.0944  0.1945  0.8749
  973MOL0     H34262   7.441   6.290   5.923  2.8755  0.0596 -0.5800
  973MOL0     H34263   7.462   6.464   5.889 -0.5104  0.1977  1.2322
  973MOL0     H34264   7.197   6.327   5.831  1.9602 -1.3400 -0.6208
  973MOL0     H34265   7.224   6.496   5.830  0.6504  1.2599  0.6387
  973MOL0     H34266   7.091   6.438   6.023  0.6440  0.2844 -1.9520
  973MOL0     H34267   7.191   6.300   6.066  2.2750  0.1177  0.1283
  973MOL0     H34268   7.220   6.534   6.206  0.5296  1.1844  0.4183
  973MOL0     H34269   7.324   6.563   6.069  1.4930 -1.0684  0.2537
  973MOL0     H34270   7.557   6.289   6.278 -1.1544  0.1897  1.0028
  973MOL0     H34271   7.617   6.486   5.674  0.5467  0.0010  1.2993
  973MOL0     H34272   7.707   6.704   5.440 -2.3488  0.1458 -1.1720
  973MOL0     H34273   7.633   6.814   5.557  2.3471  0.7448  2.4394
  973MOL0     H34274   7.722   6.665   5.609 -0.4091  1.1812  0.9718
  974MOL0     O34275   6.598   6.949   5.749  0.5377  0.3269  0.1331
  974MOL0     C34276   6.641   7.058   5.744 -0.5454 -0.0088 -0.4622
  974MOL0     O34277   6.765   7.100   5.783  0.2672 -0.0218 -0.4646
  974MOL0     C34278   6.857   6.996   5.787  0.4063  0.0154 -0.4726
  974MOL0     C34279   6.895   6.921   5.676 -1.0118 -0.6776  0.5308
  974MOL0     C34280   7.003   6.827   5.691 -0.2849 -0.1485  0.7895
  974MOL0     C34281   7.067   6.813   5.811  0.5269 -0.8677  0.4073
  974MOL0     O34282   7.178   6.733   5.827  0.3587  0.6421  0.3551
  974MOL0     C34283   7.302   6.793   5.802  0.5367 -0.4823 -0.8556
  974MOL0     C34284   7.356   6.864   5.928 -0.1265 -0.1381 -0.1384
  974MOL0     C34285   7.512   6.895   5.911 -0.2740 -0.3196  0.0784
  974MOL0     C34286   7.618   6.779   5.950  0.5804  1.1376 -0.0944
  974MOL0     C34287   7.603   6.763   6.101 -0.2983 -0.1041 -0.4592
  974MOL0     C34288   7.714   6.668   6.154  0.3732 -0.9699  0.3925
  974MOL0     C34289   7.710   6.660   6.303  0.6836  0.1326  0.0676
  974MOL0     C34290   7.825   6.572   6.349  0.1533  0.4562 -0.3456
  974MOL0     N34291   7.843   6.604   6.492  0.0842  0.6905  0.0254
  974MOL0     C34292   7.933   6.701   6.546  0.4283 -0.1867  0.7469
  974MOL0     C34293   7.880   6.719   6.668  0.2380  0.6713 -0.0575
  974MOL0     C34294   7.945   6.812   6.771  0.2499 -1.0738  0.4553
  974MOL0     C34295   7.891   6.953   6.755  0.7066  0.1546  0.5561
  974MOL0     C34296   7.876   7.005   6.894 -0.1199 -0.1855  0.3895
  974MOL0     C34297   7.828   7.157   6.883 -0.0639  1.4059 -0.4012
  974MOL0     O34298   7.936   7.242   6.833  0.0431 -0.8351 -0.6687
  974MOL0     C34299   8.045   7.269   6.920  0.7329  0.0834  0.3454
  974MOL0     C34300   8.043   7.227   7.055 -0.5177  0.2682 -1.4565
  974MOL0     C34301   8.149   7.263   7.137  0.3133 -0.4014  0.0456
  974MOL0     C34302   8.146   7.220   7.278  1.1161 -0.2312 -0.2054
  974MOL0     C34303   8.261   7.340   7.087  0.2530 -0.1599  0.0114
  974MOL0     C34304   8.385   7.377   7.167 -0.5484  0.8392  0.1797
  974MOL0     O34305   8.497   7.423   7.097 -0.1035  0.3231 -0.5339
  974MOL0     C34306   8.606   7.472   7.166 -0.8927 -0.4750 -0.7702
  974MOL0     C34307   8.612   7.582   7.248  1.0950  0.5255 -1.3142
  974MOL0     C34308   8.724   7.619   7.320 -0.6340 -0.1072 -0.1989
  974MOL0     C34309   8.845   7.548   7.299  1.4057 -0.0888 -0.5367
  974MOL0     O34310   8.968   7.589   7.339 -0.3624  0.3598  0.1891
  974MOL0     C34311   8.993   7.595   7.477 -0.1058  0.2403 -0.1224
  974MOL0     C34312   9.134   7.543   7.498 -0.1628 -0.4391 -0.4522
  974MOL0     C34313   9.236   7.642   7.447 -0.4283 -0.6151  0.0764
  974MOL0     C34314   9.382   7.610   7.492 -0.0340 -0.3545 -0.2298
  974MOL0     C34315   9.496   7.697   7.435  0.4534  1.2370  1.2359
  974MOL0     C34316   9.501   7.693   7.282  0.5945 -0.2865 -0.2179
  974MOL0     C34317   9.610   7.769   7.204  0.3878 -0.2987 -0.6352
  974MOL0     C34318   9.574   7.914   7.197  0.3516  0.3263 -0.1303
  974MOL0    Cl34319   9.698   8.008   7.116  0.2281  0.1108  0.2369
  974MOL0     C34320   8.853   7.448   7.208  0.3969  0.6159  1.2324
  974MOL0     C34321   8.731   7.407   7.148 -0.3062 -0.7421 -0.5001
  974MOL0     O34322   8.387   7.362   7.287  0.4062  0.7844  0.1718
  974MOL0     C34323   8.253   7.383   6.951 -0.1836 -0.2328 -1.2367
  974MOL0     C34324   8.146   7.345   6.871 -0.3385  0.2830 -0.6385
  974MOL0     N34325   7.771   6.636   6.685 -0.2275 -0.0749  0.0303
  974MOL0     N34326   7.753   6.562   6.583 -0.1742 -0.0497 -0.3927
  974MOL0     C34327   7.033   6.891   5.916  0.1172  0.7066  0.5927
  974MOL0     C34328   6.928   6.986   5.905  0.3533 -0.6824  0.5056
  974MOL0     C34329   6.542   7.160   5.699  0.6489 -0.0195 -1.0924
  974MOL0     C34330   6.410   7.153   5.742 -0.2945  1.5159  0.4988
  974MOL0     C34331   6.311   7.230   5.681 -0.7746 -0.1147 -1.2998
  974MOL0     C34332   6.342   7.335   5.595 -0.1444 -0.0089  0.3489
  974MOL0     O34333   6.244   7.409   5.527 -0.1302  0.3400 -0.2322
  974MOL0     C34334   6.118   7.439   5.604  0.3022  0.2617 -0.1033
  974MOL0     C34335   6.085   7.587   5.608 -0.3063  0.2516  0.1027
  974MOL0     C34336   6.091   7.653   5.750  0.0132 -0.2235 -0.1860
  974MOL0     C34337   6.228   7.730   5.771  0.2365  0.1130 -0.5862
  974MOL0     C34338   6.225   7.819   5.889  0.0251 -0.9028  0.2927
  974MOL0     C34339   6.255   7.904   5.971 -0.2012  0.2593 -0.3419
  974MOL0     C34340   6.476   7.349   5.551 -0.0566  0.4887  0.1121
  974MOL0     C34341   6.574   7.262   5.600 -0.1543  0.3661 -0.3946
  974MOL0     C34342   6.716   7.268   5.543  0.2834 -0.0041 -0.1319
  974MOL0     H34343   6.836   6.926   5.584 -1.3398 -0.5858  0.7434
  974MOL0     H34344   7.031   6.758   5.613 -2.4498 -3.0784  2.3873
  974MOL0     H34345   7.286   6.882   5.740 -2.3590  0.5245  1.1045
  974MOL0     H34346   7.367   6.720   5.753  2.1691  0.7610 -0.6051
  974MOL0     H34347   7.303   6.959   5.941  0.8775  0.2426  1.4710
  974MOL0     H34348   7.324   6.810   6.017  0.9989 -0.1506  0.2742
  974MOL0     H34349   7.530   6.922   5.806  1.8483 -1.9863 -0.0760
  974MOL0     H34350   7.534   6.988   5.964 -0.2081 -0.4662  0.3108
  974MOL0     H34351   7.602   6.686   5.895  0.0412  0.9178  0.4221
  974MOL0     H34352   7.712   6.825   5.918  1.4505 -1.4123 -1.4624
  974MOL0     H34353   7.505   6.725   6.131  0.5654  0.2121  3.3608
  974MOL0     H34354   7.616   6.865   6.140  0.1671 -0.2019 -0.3466
  974MOL0     H34355   7.687   6.572   6.109 -1.9554  0.9418 -2.6853
  974MOL0     H34356   7.812   6.699   6.118  0.3715 -2.7809 -1.3539
  974MOL0     H34357   7.617   6.625   6.348 -0.4582  2.1987 -0.5363
  974MOL0     H34358   7.708   6.763   6.340 -0.7929  0.1358  0.0470
  974MOL0     H34359   7.807   6.466   6.333  2.4790  0.1090 -1.0110
  974MOL0     H34360   7.912   6.590   6.285 -1.3249  2.5081 -1.9450
  974MOL0     H34361   8.023   6.746   6.508  2.3129 -1.3678  3.4845
  974MOL0     H34362   8.054   6.812   6.763  0.2352  1.2635 -0.3936
  974MOL0     H34363   7.921   6.763   6.866  0.9501 -1.9561  0.1869
  974MOL0     H34364   7.969   7.007   6.702 -0.7609  1.7849  0.0018
  974MOL0     H34365   7.801   6.937   6.695  0.4497 -1.0260  1.2122
  974MOL0     H34366   7.814   6.927   6.940  3.2494 -2.8563  0.9245
  974MOL0     H34367   7.970   7.008   6.951 -0.8384  1.1104  1.5716
  974MOL0     H34368   7.741   7.155   6.817  0.2869 -1.1622 -0.8817
  974MOL0     H34369   7.790   7.184   6.982  2.4483 -3.9576  2.4734
  974MOL0     H34370   7.964   7.170   7.103 -0.5154 -0.7827 -2.6550
  974MOL0     H34371   8.240   7.168   7.297  3.1884  3.3008  0.0510
  974MOL0     H34372   8.063   7.153   7.301 -2.1503  3.3355 -0.6133
  974MOL0     H34373   8.133   7.305   7.346 -2.2109  0.4109 -1.4407
  974MOL0     H34374   8.527   7.647   7.263 -0.6861 -1.7999 -0.7097
  974MOL0     H34375   8.708   7.702   7.388 -1.1049 -0.1049 -0.3099
  974MOL0     H34376   8.995   7.702   7.502  4.0431  0.1613  0.6440
  974MOL0     H34377   8.928   7.538   7.543  1.9323 -1.5092  0.4916
  974MOL0     H34378   9.151   7.533   7.605 -0.7908  1.7177 -0.0943
  974MOL0     H34379   9.136   7.442   7.455 -2.9984 -1.6144  1.8244
  974MOL0     H34380   9.213   7.740   7.488 -1.1518 -2.4233  4.4876
  974MOL0     H34381   9.242   7.637   7.337  2.1816 -1.7511  0.1831
  974MOL0     H34382   9.383   7.505   7.461 -0.3853 -0.3657 -0.2109
  974MOL0     H34383   9.383   7.613   7.601 -3.2736  0.4272 -0.1342
  974MOL0     H34384   9.481   7.804   7.453 -1.5902  1.9378 -3.3841
  974MOL0     H34385   9.594   7.664   7.473  0.5945  0.2695  0.0622
  974MOL0     H34386   9.403   7.727   7.249  0.4567 -0.0854  0.3779
  974MOL0     H34387   9.507   7.589   7.251  1.5284 -0.8549  1.7267
  974MOL0     H34388   9.614   7.724   7.104  0.8333 -2.3035  0.2435
  974MOL0     H34389   9.703   7.742   7.255 -1.7035 -2.9014  2.1415
  974MOL0     H34390   9.567   7.950   7.300 -3.1038 -2.6271  0.9060
  974MOL0     H34391   9.474   7.930   7.157  1.7175  2.9699 -2.8117
  974MOL0     H34392   8.939   7.390   7.176 -0.2973  0.6199 -0.7793
  974MOL0     H34393   8.730   7.321   7.082  1.3688 -1.3991  0.2862
  974MOL0     H34394   8.324   7.449   6.901  1.0576  0.2716  1.0851
  974MOL0     H34395   8.150   7.374   6.767  2.1610  1.3350 -0.3181
  974MOL0     H34396   7.073   6.886   6.017 -1.7893  0.3295  1.3854
  974MOL0     H34397   6.898   7.043   5.993  0.0061 -1.4883  0.9264
  974MOL0     H34398   6.371   7.084   5.816 -0.4954  0.0447 -0.9333
  974MOL0     H34399   6.206   7.206   5.694 -0.1145 -2.3025  0.7473
  974MOL0     H34400   6.034   7.384   5.560  0.6335 -1.0491  0.8536
  974MOL0     H34401   6.114   7.403   5.707  0.4613  2.2096  0.6260
  974MOL0     H34402   5.989   7.602   5.557 -2.3817 -0.9618  3.3594
  974MOL0     H34403   6.157   7.640   5.544  1.8630 -1.5411  0.9271
  974MOL0     H34404   6.006   7.721   5.742  0.1511  0.1264  1.0652
  974MOL0     H34405   6.077   7.581   5.831 -0.7257  0.7816  0.6141
  974MOL0     H34406   6.252   7.792   5.685 -1.3856  0.3307 -0.9241
  974MOL0     H34407   6.314   7.665   5.787  0.8299  1.3022  1.3387
  974MOL0     H34408   6.282   7.968   6.052  2.1546 -2.1958  0.9469
  974MOL0     H34409   6.500   7.422   5.474 -3.9518  0.1663 -1.6436
  974MOL0     H34410   6.736   7.374   5.526  0.2037  0.1143  0.4904
  974MOL0     H34411   6.807   7.239   5.597  1.8048  2.4252 -1.2193
  974MOL0     H34412   6.707   7.227   5.442  0.5478  2.2365 -1.1256
  975MOL0     O34413   4.407   6.901  10.034  0.1484 -0.0107  0.4519
  975MOL0     C34414   4.419   6.784   9.998  0.0327  0.1583  0.5775
  975MOL0     O34415   4.472   6.750   9.879  0.1342  0.4278  0.0501
  975MOL0     C34416   4.522   6.849   9.796  0.7334  0.2361  0.0058
  975MOL0     C34417   4.644   6.887   9.818  0.3477 -0.1890  0.7499
  975MOL0     C34418   4.703   6.977   9.719 -0.4006 -0.1414  0.4455
  975MOL0     C34419   4.636   7.015   9.599  0.4551  0.4785 -0.3650
  975MOL0     O34420   4.682   7.101   9.504  0.2911  0.0637  0.9068
  975MOL0     C34421   4.811   7.155   9.523  0.2328 -0.1528 -0.9803
  975MOL0     C34422   4.834   7.266   9.414  0.3475  0.0370  0.2480
  975MOL0     C34423   4.957   7.361   9.444 -0.4271  0.1835  0.4737
  975MOL0     C34424   4.949   7.442   9.570 -0.5107 -0.8710 -0.6466
  975MOL0     C34425   5.057   7.549   9.583  0.3743 -0.3617 -0.8235
  975MOL0     C34426   5.181   7.485   9.639 -1.0727 -0.0917  0.4369
  975MOL0     C34427   5.292   7.585   9.641 -0.0805 -0.0271 -0.0378
  975MOL0     C34428   5.400   7.539   9.744 -0.6286  0.1274 -0.4564
  975MOL0     N34429   5.498   7.645   9.765  0.0823 -0.0003 -0.4668
  975MOL0     C34430   5.624   7.631   9.830 -1.1473 -0.0040 -0.8843
  975MOL0     C34431   5.694   7.742   9.813 -0.0245  0.4458 -0.9684
  975MOL0     C34432   5.825   7.768   9.875 -0.2109  0.3606 -0.6917
  975MOL0     C34433   5.894   7.900   9.825  0.3496 -0.2416 -0.0322
  975MOL0     C34434   6.038   7.902   9.875  0.4716 -0.0030  0.0369
  975MOL0     C34435   6.106   8.032   9.828  0.4437 -0.4047  0.5402
  975MOL0     O34436   6.251   8.022   9.834  0.3542 -0.3399  0.3748
  975MOL0     C34437   6.333   8.131   9.843 -0.2569 -0.2879  0.4951
  975MOL0     C34438   6.465   8.103   9.847 -0.4112 -0.1281  0.3952
  975MOL0     C34439   6.561   8.201   9.870 -0.6902  0.7237 -0.4043
  975MOL0     C34440   6.708   8.149   9.883  0.8734  0.1147 -0.8090
  975MOL0     C34441   6.516   8.340   9.889 -0.8182 -0.2602 -0.3030
  975MOL0     C34442   6.618   8.455   9.903  0.4236 -0.3324  0.3699
  975MOL0     O34443   6.569   8.570   9.864 -1.0604 -0.6338  0.3829
  975MOL0     C34444   6.662   8.664   9.829  0.0194 -1.0646 -0.2053
  975MOL0     C34445   6.656   8.720   9.702 -0.0299  0.0441 -0.0848
  975MOL0     C34446   6.756   8.821   9.666  0.1006 -0.9587 -0.3461
  975MOL0     C34447   6.853   8.855   9.754 -0.0501 -0.4744  0.0224
  975MOL0     O34448   6.957   8.938   9.703 -0.0455 -0.7925  0.6854
  975MOL0     C34449   6.993   9.048   9.797 -0.4043  0.3061  0.3704
  975MOL0     C34450   6.875   9.127   9.850 -0.4060 -0.5986  0.2588
  975MOL0     C34451   6.777   9.169   9.738  0.9972  0.3365  0.0973
  975MOL0     C34452   6.641   9.218   9.788  0.1886 -0.3049 -0.8818
  975MOL0     C34453   6.563   9.291   9.675  0.2440 -0.2186  0.1823
  975MOL0     C34454   6.529   9.204   9.555 -1.0428 -0.0928  0.2256
  975MOL0     C34455   6.424   9.098   9.583 -0.2010 -0.3799 -0.4337
  975MOL0     C34456   6.288   9.133   9.645  0.1549 -0.1173  0.6163
  975MOL0    Cl34457   6.195   9.207   9.524 -0.0610 -0.1726  0.0704
  975MOL0     C34458   6.853   8.795   9.883  1.0556 -0.0214 -0.0299
  975MOL0     C34459   6.751   8.713   9.923  0.6140  0.1701  0.9468
  975MOL0     O34460   6.732   8.432   9.924  0.0009  0.0170  0.0801
  975MOL0     C34461   6.381   8.367   9.870  0.4927 -0.2798  0.2407
  975MOL0     C34462   6.289   8.263   9.841 -0.5087  0.0350 -0.7577
  975MOL0     N34463   5.603   7.824   9.742  0.0365 -0.6360  0.1113
  975MOL0     N34464   5.490   7.773   9.724 -0.2064  0.4506  0.0011
  975MOL0     C34465   4.510   6.967   9.581  1.0440 -0.7928  0.0317
  975MOL0     C34466   4.448   6.889   9.678  0.7023 -0.1208 -0.3185
  975MOL0     C34467   4.354   6.672  10.078  0.1078 -0.1739  0.0025
  975MOL0     C34468   4.382   6.543  10.028  0.3926  0.2141 -0.5968
  975MOL0     C34469   4.341   6.429  10.099  0.0028 -0.0654 -0.1367
  975MOL0     C34470   4.259   6.444  10.206  0.6496  0.1794 -1.4383
  975MOL0     O34471   4.200   6.331  10.269  0.0261  0.2404  0.2824
  975MOL0     C34472   4.055   6.340  10.294 -0.3778  0.2398  0.1497
  975MOL0     C34473   3.982   6.277  10.181 -0.6087 -0.7866  0.2614
  975MOL0     C34474   4.011   6.128  10.172 -0.9758 -0.8086 -0.0794
  975MOL0     C34475   3.910   6.064  10.084 -0.0594  0.4115  0.2885
  975MOL0     C34476   3.922   5.921  10.079  0.0000  0.6974  0.8008
  975MOL0     C34477   3.935   5.802  10.097  0.3325 -0.2267  0.0201
  975MOL0     C34478   4.226   6.570  10.253 -0.2759  0.1322 -0.5716
  975MOL0     C34479   4.276   6.688  10.194 -0.1781 -0.1940  0.6811
  975MOL0     C34480   4.252   6.812  10.271  0.2608  0.0277  0.1940
  975MOL0     H34481   4.699   6.861   9.908  2.0049 -0.1267 -0.1880
  975MOL0     H34482   4.810   6.993   9.734 -0.0739 -2.0994  0.4707
  975MOL0     H34483   4.890   7.080   9.525 -0.9555 -1.4398  1.2348
  975MOL0     H34484   4.825   7.204   9.620 -0.8513 -3.2705  0.8667
  975MOL0     H34485   4.845   7.219   9.317 -0.6033  1.8143 -0.7839
  975MOL0     H34486   4.743   7.328   9.406  0.8094  0.4587 -3.5348
  975MOL0     H34487   5.040   7.294   9.469  0.9059  1.9653  1.0630
  975MOL0     H34488   4.977   7.412   9.349  1.6143 -3.6588 -1.3757
  975MOL0     H34489   4.850   7.490   9.571  1.0275  2.5552 -0.6598
  975MOL0     H34490   4.948   7.381   9.661 -0.6377 -1.4165 -1.0087
  975MOL0     H34491   5.023   7.631   9.647  2.0469  1.0056 -1.5990
  975MOL0     H34492   5.073   7.597   9.486 -2.5177  1.7869 -0.3760
  975MOL0     H34493   5.176   7.448   9.742  1.0433 -1.4844  0.1008
  975MOL0     H34494   5.207   7.402   9.574  0.1853  0.0422  0.7543
  975MOL0     H34495   5.251   7.675   9.686 -0.1654 -0.4065  0.6741
  975MOL0     H34496   5.334   7.591   9.540  2.8017 -2.2395  0.8833
  975MOL0     H34497   5.360   7.529   9.845  3.1008  0.9378  1.2610
  975MOL0     H34498   5.442   7.439   9.727 -0.6714 -0.4805  2.5400
  975MOL0     H34499   5.653   7.543   9.887 -1.8021  0.9434  0.9902
  975MOL0     H34500   5.885   7.677   9.869 -1.2491 -0.3202 -1.0137
  975MOL0     H34501   5.820   7.781   9.983 -1.2933 -2.0512 -0.3867
  975MOL0     H34502   5.902   7.904   9.716  1.2563 -0.1979  0.0257
  975MOL0     H34503   5.834   7.984   9.861  0.2802 -0.1792 -0.2848
  975MOL0     H34504   6.046   7.904   9.984 -0.4527  2.0204  0.1239
  975MOL0     H34505   6.082   7.811   9.832  0.5980  1.3507 -2.9469
  975MOL0     H34506   6.079   8.048   9.724 -1.1172  0.7420  1.0932
  975MOL0     H34507   6.055   8.103   9.894 -0.7144  0.0560 -0.8279
  975MOL0     H34508   6.493   7.998   9.836  1.7029  0.5451 -1.2634
  975MOL0     H34509   6.707   8.041   9.902  0.2490  0.3593  0.6531
  975MOL0     H34510   6.751   8.194   9.972 -2.5599  1.0890  0.4952
  975MOL0     H34511   6.752   8.180   9.787 -0.3814 -1.3828 -1.9275
  975MOL0     H34512   6.596   8.675   9.624  2.4150  1.0853 -2.7248
  975MOL0     H34513   6.763   8.861   9.565 -0.5883  1.2365  0.4239
  975MOL0     H34514   7.057   9.013   9.879  1.3568 -1.2073 -1.5121
  975MOL0     H34515   7.061   9.105   9.733  0.2259 -3.1493 -2.3788
  975MOL0     H34516   6.817   9.068   9.922 -1.1302  2.1193  2.0238
  975MOL0     H34517   6.910   9.218   9.899 -1.8804 -0.2604  0.7228
  975MOL0     H34518   6.757   9.088   9.668 -0.0976 -1.0375  1.8852
  975MOL0     H34519   6.823   9.255   9.689  0.2266  0.2809 -0.7454
  975MOL0     H34520   6.656   9.289   9.870 -2.6446 -3.0428  2.2987
  975MOL0     H34521   6.587   9.131   9.827  1.4108 -1.3909 -1.5340
  975MOL0     H34522   6.474   9.336   9.719  1.9924  3.3062  0.4824
  975MOL0     H34523   6.619   9.378   9.639 -1.6864  1.0544  0.0946
  975MOL0     H34524   6.617   9.149   9.520  1.0146  3.3304 -0.4594
  975MOL0     H34525   6.494   9.273   9.478  0.0991  1.4817  1.0587
  975MOL0     H34526   6.468   9.030   9.657  1.1627 -0.1922 -1.0378
  975MOL0     H34527   6.394   9.047   9.491 -1.1688  1.6822 -1.3078
  975MOL0     H34528   6.299   9.205   9.726 -1.0196 -0.4015  1.0613
  975MOL0     H34529   6.248   9.033   9.664  0.0841 -1.0159 -3.3062
  975MOL0     H34530   6.944   8.822   9.937 -0.1595 -0.2323  2.2623
  975MOL0     H34531   6.747   8.678  10.025 -0.8222 -0.7219  0.6114
  975MOL0     H34532   6.342   8.468   9.877  1.8608  0.2829 -0.0545
  975MOL0     H34533   6.188   8.293   9.817 -1.3817 -1.1501  1.2651
  975MOL0     H34534   4.463   6.993   9.486  1.2278  1.3055  0.4526
  975MOL0     H34535   4.353   6.840   9.664  1.7225 -1.9408 -1.2352
  975MOL0     H34536   4.440   6.528   9.938 -2.2645  0.5903 -2.5087
  975MOL0     H34537   4.375   6.329  10.075  0.6675 -0.5509  2.4409
  975MOL0     H34538   4.032   6.301  10.393 -1.3391  1.3903  0.4027
  975MOL0     H34539   4.023   6.444  10.309  1.5697  0.7269  1.3777
  975MOL0     H34540   4.010   6.332  10.090  2.2108  0.4588  1.7583
  975MOL0     H34541   3.876   6.298  10.196 -0.5841  0.3329 -0.9359
  975MOL0     H34542   4.114   6.121  10.135 -0.7587 -0.1634  0.3734
  975MOL0     H34543   4.004   6.084  10.272  1.1160 -2.0431 -0.4035
  975MOL0     H34544   3.936   6.104   9.986 -0.8499 -0.1833 -0.1715
  975MOL0     H34545   3.807   6.086  10.113 -1.1271 -0.0217 -2.7968
  975MOL0     H34546   3.946   5.697  10.119 -1.6446 -0.3873  0.4018
  975MOL0     H34547   4.174   6.574  10.349  3.4743  4.9138  1.6861
  975MOL0     H34548   4.337   6.880  10.281  1.8835 -1.8595 -0.0720
  975MOL0     H34549   4.165   6.868  10.235 -1.2818 -1.4201  1.5576
  975MOL0     H34550   4.211   6.774  10.364 -2.4913  0.2547 -0.8301
  976MOL0     O34551  10.167   3.993   1.067  0.0605  0.0690 -0.3726
  976MOL0     C34552  10.159   4.048   0.960 -0.6442  0.3109 -0.0007
  976MOL0     O34553  10.256   4.147   0.920 -0.6557 -0.4235  0.2432
  976MOL0     C34554  10.361   4.177   1.004 -0.4044  0.4904 -0.2213
  976MOL0     C34555  10.345   4.297   1.076 -0.5441 -0.3452 -0.2388
  976MOL0     C34556  10.446   4.347   1.149  0.5262 -0.5431  0.3621
  976MOL0     C34557  10.557   4.264   1.174  0.9758  0.8174  1.3477
  976MOL0     O34558  10.648   4.331   1.253 -0.6391  0.5505  0.3026
  976MOL0     C34559  10.763   4.250   1.305  1.1296 -0.8584  0.2016
  976MOL0     C34560  10.857   4.339   1.384 -0.7248  0.0782  0.3027
  976MOL0     C34561  10.949   4.241   1.461 -0.1636 -0.0057  0.0429
  976MOL0     C34562  11.072   4.302   1.534  0.6330  0.0187  0.4818
  976MOL0     C34563  11.163   4.200   1.608  0.4068  0.5214 -0.0217
  976MOL0     C34564  11.082   4.149   1.727 -0.0560 -0.5827 -0.5143
  976MOL0     C34565  11.165   4.062   1.821 -1.0146  0.1055  0.2465
  976MOL0     C34566  11.093   4.018   1.941  0.5217  0.2228 -0.8835
  976MOL0     N34567  11.188   3.945   2.034 -0.4192  0.1085  0.3079
  976MOL0     C34568  11.245   3.816   2.009  1.4924 -0.5387 -0.2766
  976MOL0     C34569  11.347   3.804   2.103  0.1382 -0.2896  0.6343
  976MOL0     C34570  11.443   3.688   2.113  0.6286 -0.0437  0.1263
  976MOL0     C34571  11.586   3.747   2.092  1.0184 -0.4633 -0.0587
  976MOL0     C34572  11.692   3.638   2.078  0.3185 -0.6014 -0.8872
  976MOL0     C34573  11.822   3.690   2.141  0.2778 -0.6003 -0.4082
  976MOL0     O34574  11.850   3.831   2.120  0.8415 -0.3012 -0.3287
  976MOL0     C34575  11.972   3.886   2.131  0.2345  0.1128 -0.0179
  976MOL0     C34576  11.987   4.017   2.088 -0.0604  0.4390 -0.5579
  976MOL0     C34577  12.107   4.083   2.094 -0.2851 -0.3653 -1.2846
  976MOL0     C34578  12.113   4.222   2.059  0.5093 -0.1154 -0.7962
  976MOL0     C34579  12.218   4.014   2.155  0.2796 -0.5722  0.9914
  976MOL0     C34580  12.352   4.067   2.169  0.1531 -0.0430 -0.0993
  976MOL0     O34581  12.444   3.999   2.252 -1.0120 -0.5826  0.3007
  976MOL0     C34582  12.572   4.037   2.228  0.1141  0.2163  0.2332
  976MOL0     C34583  12.616   4.150   2.293  0.4070  0.0833  0.2163
  976MOL0     C34584  12.751   4.183   2.283 -0.3499 -0.0619  0.9067
  976MOL0     C34585  12.838   4.108   2.203 -0.6983 -0.5001  0.2318
  976MOL0     O34586  12.973   4.137   2.187 -0.1698 -0.0504 -0.0374
  976MOL0     C34587  13.062   4.108   2.078  0.3225 -0.3711 -0.5864
  976MOL0     C34588  13.186   4.194   2.090 -0.3958  0.1484  0.0523
  976MOL0     C34589  13.275   4.171   2.220  0.3080  0.0312  0.7472
  976MOL0     C34590  13.410   4.237   2.204  0.6827 -0.2743  0.4252
  976MOL0     C34591  13.501   4.209   2.323 -0.0138 -0.3978 -0.0700
  976MOL0     C34592  13.649   4.241   2.288  0.3010  0.8091  1.1324
  976MOL0     C34593  13.717   4.244   2.420 -0.2031 -0.0205  0.0891
  976MOL0     C34594  13.852   4.298   2.392  0.1455 -0.1421 -0.0376
  976MOL0    Cl34595  13.945   4.273   2.537  0.1820  0.2410  0.1166
  976MOL0     C34596  12.784   3.999   2.130  0.4954 -0.7302 -0.5101
  976MOL0     C34597  12.656   3.957   2.150 -0.8730 -0.1859 -0.4411
  976MOL0     O34598  12.381   4.154   2.089 -0.2760  0.2094 -0.6966
  976MOL0     C34599  12.203   3.880   2.194 -0.2979  0.1626 -0.0545
  976MOL0     C34600  12.083   3.818   2.181 -0.8283 -0.2596 -0.1911
  976MOL0     N34601  11.343   3.920   2.181 -0.4506  0.0214 -0.3028
  976MOL0     N34602  11.252   4.001   2.139  0.2008 -0.4995 -0.7157
  976MOL0     C34603  10.575   4.141   1.110 -0.2396 -0.4903  0.0892
  976MOL0     C34604  10.480   4.101   1.010 -0.4340  0.8884 -0.7616
  976MOL0     C34605  10.054   4.026   0.869  0.7114 -1.5639  0.3928
  976MOL0     C34606  10.078   4.078   0.732  0.4304  0.6733  0.3027
  976MOL0     C34607   9.993   4.069   0.620 -0.0659  0.0640 -0.6571
  976MOL0     C34608   9.864   4.011   0.637  0.8659  0.3392 -0.5700
  976MOL0     O34609   9.762   4.001   0.542  0.4707 -0.2697 -0.4323
  976MOL0     C34610   9.757   3.880   0.469 -0.1530 -0.7385  0.0433
  976MOL0     C34611   9.609   3.830   0.487  0.3663 -0.9938 -0.6267
  976MOL0     C34612   9.507   3.943   0.439 -0.1899  0.1621  0.2911
  976MOL0     C34613   9.401   3.966   0.548 -0.2957  0.2026 -0.0382
  976MOL0     C34614   9.463   4.034   0.664 -0.6467 -0.4302 -0.6037
  976MOL0     C34615   9.504   4.098   0.768  0.7684  0.0666 -0.4775
  976MOL0     C34616   9.835   3.959   0.765 -0.1010  0.0198 -0.1195
  976MOL0     C34617   9.930   3.963   0.876  0.1690  0.6526  0.1644
  976MOL0     C34618   9.876   3.906   1.008 -0.2635  0.4051 -0.6511
  976MOL0     H34619  10.260   4.365   1.074 -0.4814 -0.1257  1.9835
  976MOL0     H34620  10.439   4.443   1.199  3.2619 -0.2145  0.3114
  976MOL0     H34621  10.829   4.210   1.228  1.0377  1.4443 -1.1669
  976MOL0     H34622  10.721   4.174   1.371  1.0437  1.8100  3.5146
  976MOL0     H34623  10.901   4.410   1.314  0.7096 -2.4638 -1.5544
  976MOL0     H34624  10.804   4.394   1.463  1.3656  3.6922 -0.6014
  976MOL0     H34625  10.886   4.208   1.544 -0.5341 -2.3414 -1.0806
  976MOL0     H34626  10.966   4.146   1.409  3.6218 -0.0773  1.0653
  976MOL0     H34627  11.136   4.352   1.461  0.8787 -2.5907 -1.2260
  976MOL0     H34628  11.039   4.381   1.602 -1.2729 -0.3385  0.0218
  976MOL0     H34629  11.253   4.244   1.651  0.2600  0.2397  0.5835
  976MOL0     H34630  11.191   4.114   1.548  0.0647 -1.4749  2.5072
  976MOL0     H34631  11.059   4.234   1.792 -1.1452 -2.5078  1.7515
  976MOL0     H34632  10.989   4.096   1.705  0.6859 -1.2557 -2.1526
  976MOL0     H34633  11.251   4.123   1.852 -2.4390  2.8537 -0.8628
  976MOL0     H34634  11.198   3.975   1.764  1.3926  1.2921 -0.3421
  976MOL0     H34635  11.046   4.101   1.994  2.9893  0.6900  0.7204
  976MOL0     H34636  11.010   3.954   1.907  1.7381 -3.1887  1.9875
  976MOL0     H34637  11.225   3.747   1.927  0.3035 -0.4946 -0.0457
  976MOL0     H34638  11.415   3.612   2.039 -0.4071 -1.0119  1.4626
  976MOL0     H34639  11.438   3.650   2.215 -0.9717  3.1907  1.3699
  976MOL0     H34640  11.583   3.804   1.999  0.7145 -1.8796 -0.9568
  976MOL0     H34641  11.606   3.812   2.177 -1.0699  0.6486 -0.3575
  976MOL0     H34642  11.649   3.547   2.120 -3.4919  1.6764  0.7077
  976MOL0     H34643  11.712   3.627   1.971  4.7576  0.3324 -0.3375
  976MOL0     H34644  11.810   3.667   2.247 -0.5857 -1.3163 -0.6509
  976MOL0     H34645  11.899   3.629   2.091 -1.6660 -2.4836 -1.2796
  976MOL0     H34646  11.911   4.078   2.041 -0.5640 -1.1826 -1.9199
  976MOL0     H34647  12.010   4.260   2.058  0.2652 -0.7710 -1.5722
  976MOL0     H34648  12.154   4.238   1.959 -0.1719 -0.5212 -1.1459
  976MOL0     H34649  12.166   4.281   2.135 -1.0556  2.2453 -1.4183
  976MOL0     H34650  12.546   4.206   2.354  1.1306 -2.1174  3.3150
  976MOL0     H34651  12.777   4.274   2.336 -1.8061  0.1869  1.2392
  976MOL0     H34652  13.089   4.001   2.077  0.7838 -0.2935  1.1062
  976MOL0     H34653  13.019   4.133   1.980  0.7709 -0.8381 -0.9120
  976MOL0     H34654  13.238   4.169   1.996 -2.2609 -0.6919 -0.8165
  976MOL0     H34655  13.156   4.299   2.097  1.9958  0.7940  1.6825
  976MOL0     H34656  13.283   4.064   2.245 -2.5804 -0.8710 -1.6562
  976MOL0     H34657  13.225   4.213   2.308  0.5803  1.5075  0.2163
  976MOL0     H34658  13.393   4.345   2.198  2.1915 -0.0583 -0.3687
  976MOL0     H34659  13.456   4.193   2.116  0.4927 -0.1802  0.2762
  976MOL0     H34660  13.476   4.283   2.400 -1.9982  0.9748 -1.9271
  976MOL0     H34661  13.486   4.106   2.355 -1.0441 -0.6761 -1.3738
  976MOL0     H34662  13.662   4.339   2.241  2.9914  0.3385  0.7057
  976MOL0     H34663  13.691   4.169   2.218  0.3920  0.4643  1.5371
  976MOL0     H34664  13.731   4.146   2.466 -0.3687  0.0417  0.2760
  976MOL0     H34665  13.667   4.317   2.485  1.4466  1.5241 -0.3193
  976MOL0     H34666  13.846   4.400   2.352 -0.4972 -1.0326 -2.3703
  976MOL0     H34667  13.903   4.239   2.315 -0.5452 -0.5769 -0.1661
  976MOL0     H34668  12.846   3.937   2.066 -0.6439 -0.6993 -1.6690
  976MOL0     H34669  12.620   3.871   2.095 -1.5279  0.1375 -0.5240
  976MOL0     H34670  12.284   3.821   2.236 -0.5618  1.4568  2.4863
  976MOL0     H34671  12.082   3.713   2.211 -1.5590 -0.4638 -0.9265
  976MOL0     H34672  10.667   4.085   1.118  0.1560  0.2383  0.6863
  976MOL0     H34673  10.495   4.010   0.952  1.1517  0.2290  0.5892
  976MOL0     H34674  10.173   4.123   0.701  1.4019 -1.8819 -0.7064
  976MOL0     H34675  10.037   4.107   0.528 -0.7712  2.0889 -0.2014
  976MOL0     H34676   9.765   3.893   0.360  1.4558  3.0754  0.4650
  976MOL0     H34677   9.834   3.810   0.502  2.0667  1.7763  0.5191
  976MOL0     H34678   9.594   3.817   0.595 -1.2287  2.7802 -0.2385
  976MOL0     H34679   9.585   3.737   0.436 -0.1938 -1.4579  0.4384
  976MOL0     H34680   9.553   4.034   0.399 -0.9062 -0.5792 -2.4028
  976MOL0     H34681   9.460   3.905   0.349 -0.0976 -0.7611  0.6227
  976MOL0     H34682   9.353   3.872   0.579  0.4069  0.4043  1.8282
  976MOL0     H34683   9.320   4.032   0.515  0.8031  3.4046  3.0029
  976MOL0     H34684   9.556   4.153   0.843 -0.1530  0.3475 -0.0329
  976MOL0     H34685   9.733   3.923   0.778 -0.7198  1.5331 -0.5938
  976MOL0     H34686   9.945   3.848   1.069  0.1300 -1.8110 -3.0661
  976MOL0     H34687   9.831   3.982   1.073 -1.1169 -1.0145  0.4754
  976MOL0     H34688   9.791   3.839   0.994 -0.4217  0.3228  0.5452
  977MOL0     O34689   9.545  10.329   0.277 -0.4252 -0.6906 -0.9572
  977MOL0     C34690   9.568  10.256   0.185  0.8358 -0.2464  0.0190
  977MOL0     O34691   9.683  10.180   0.168  0.8935  0.2852  0.6241
  977MOL0     C34692   9.774  10.181   0.267  0.7440 -0.0522 -0.0923
  977MOL0     C34693   9.763  10.100   0.386  0.3243  0.1169  0.2786
  977MOL0     C34694   9.861  10.112   0.484  0.5650 -0.4950  0.3289
  977MOL0     C34695   9.968  10.205   0.479  0.0464 -0.2793  0.1080
  977MOL0     O34696  10.044  10.230   0.587 -0.0293 -0.5405  0.4232
  977MOL0     C34697  10.132  10.121   0.605  0.3678  0.5160  0.4540
  977MOL0     C34698  10.258  10.153   0.697  0.1743 -0.1078  0.1343
  977MOL0     C34699  10.364  10.046   0.697 -0.5605  0.4169 -0.0939
  977MOL0     C34700  10.336   9.914   0.757 -0.6885 -0.1161  0.1689
  977MOL0     C34701  10.436   9.800   0.723 -0.1148 -1.6068 -0.0390
  977MOL0     C34702  10.419   9.667   0.802 -0.7048 -0.1127 -0.0670
  977MOL0     C34703  10.547   9.578   0.777 -0.3640 -0.4241 -0.0534
  977MOL0     C34704  10.528   9.436   0.830 -0.5439 -1.1831 -0.6435
  977MOL0     N34705  10.505   9.437   0.974 -0.3586  0.2796 -0.0236
  977MOL0     C34706  10.589   9.504   1.067  0.5618  0.7334  0.4519
  977MOL0     C34707  10.510   9.523   1.178  0.8669 -0.4753 -0.6696
  977MOL0     C34708  10.573   9.566   1.309 -0.2500  0.4429 -0.5581
  977MOL0     C34709  10.636   9.454   1.396 -1.0254  0.2406 -0.2770
  977MOL0     C34710  10.690   9.329   1.314  0.0876 -0.8389  0.4518
  977MOL0     C34711  10.758   9.237   1.409 -0.6829  0.9798 -0.3302
  977MOL0     O34712  10.877   9.299   1.469  0.2806  0.0674  0.0911
  977MOL0     C34713  10.957   9.211   1.535 -0.6582  1.0734 -0.2004
  977MOL0     C34714  10.898   9.124   1.628  0.3852 -0.6452 -0.1499
  977MOL0     C34715  10.972   9.028   1.701  0.8115 -0.3426 -0.5298
  977MOL0     C34716  10.904   8.923   1.786 -0.1875 -0.1433 -0.0889
  977MOL0     C34717  11.109   9.024   1.692 -0.6571  0.7600 -0.5958
  977MOL0     C34718  11.195   8.922   1.752  0.7005 -0.1741 -1.7932
  977MOL0     O34719  11.156   8.843   1.853  0.4288  0.1735  0.6636
  977MOL0     C34720  11.236   8.729   1.881 -0.0087 -0.5021 -0.0976
  977MOL0     C34721  11.166   8.607   1.881 -0.8186 -0.8560  0.2404
  977MOL0     C34722  11.234   8.499   1.946 -0.1990  0.4807  0.7599
  977MOL0     C34723  11.371   8.513   1.983  0.1645 -0.0548 -0.1428
  977MOL0     O34724  11.443   8.424   2.057 -0.6066  0.4515  0.6818
  977MOL0     C34725  11.471   8.300   1.994  0.5800 -0.9347 -0.0943
  977MOL0     C34726  11.561   8.216   2.083  0.4381  0.3229 -0.3676
  977MOL0     C34727  11.590   8.071   2.040 -0.4283 -0.2971  0.4133
  977MOL0     C34728  11.464   7.983   2.027 -0.9277  1.2886 -0.4139
  977MOL0     C34729  11.488   7.849   1.958 -0.4925 -0.3954  0.2001
  977MOL0     C34730  11.572   7.755   2.042 -0.4598 -0.0557 -0.2790
  977MOL0     C34731  11.569   7.629   1.969  0.0273 -0.4932 -1.0768
  977MOL0     C34732  11.466   7.531   2.024 -0.5270  0.3364  0.1325
  977MOL0    Cl34733  11.457   7.378   1.930  0.2518 -0.0107 -0.1781
  977MOL0     C34734  11.437   8.628   1.965  0.2306 -0.7452 -0.6050
  977MOL0     C34735  11.370   8.734   1.910 -0.2802 -0.5480  0.1439
  977MOL0     O34736  11.306   8.909   1.696  0.4553 -0.9891 -0.6109
  977MOL0     C34737  11.168   9.117   1.609  0.0601 -0.4476 -0.2289
  977MOL0     C34738  11.097   9.210   1.532  0.6901  0.0682 -0.2483
  977MOL0     N34739  10.393   9.451   1.165 -0.1444 -0.5927 -0.7882
  977MOL0     N34740  10.389   9.410   1.039 -0.1325  0.4557  0.6447
  977MOL0     C34741   9.973  10.284   0.372 -0.6390  1.2358  0.0832
  977MOL0     C34742   9.884  10.274   0.260 -0.2887  0.9292 -0.1468
  977MOL0     C34743   9.471  10.247   0.075 -0.1145 -0.5805 -0.0912
  977MOL0     C34744   9.527  10.242  -0.055  0.2680 -0.0033 -0.0240
  977MOL0     C34745   9.436  10.226  -0.164  0.0505 -0.9654 -0.1614
  977MOL0     C34746   9.299  10.240  -0.155 -1.1710 -0.3170  0.8014
  977MOL0     O34747   9.211  10.247  -0.261  0.1192 -0.2803 -0.1212
  977MOL0     C34748   9.211  10.116  -0.321  0.4756  0.0873  0.4713
  977MOL0     C34749   9.100  10.103  -0.415 -0.0254  0.3212  0.0835
  977MOL0     C34750   8.960  10.122  -0.358 -0.2875 -0.1143 -0.9442
  977MOL0     C34751   8.859  10.085  -0.470 -0.2932 -0.6745 -0.1945
  977MOL0     C34752   8.739  10.170  -0.450  0.1424  0.0406  0.2032
  977MOL0     C34753   8.640  10.245  -0.454  0.2325 -0.2608 -1.2792
  977MOL0     C34754   9.246  10.261  -0.028  0.4308 -0.1087  0.0958
  977MOL0     C34755   9.329  10.263   0.090 -0.4698  1.1287  0.3090
  977MOL0     C34756   9.265  10.267   0.224 -0.5224  0.6339  1.4916
  977MOL0     H34757   9.675  10.038   0.401 -1.5831  2.2486 -1.4181
  977MOL0     H34758   9.843  10.064   0.580  0.2532  0.3053  0.6857
  977MOL0     H34759  10.169  10.095   0.505  1.8867  0.6981  0.9422
  977MOL0     H34760  10.089  10.027   0.639  0.7223  0.8579  1.9201
  977MOL0     H34761  10.290  10.248   0.654 -4.6202  0.4203 -2.9767
  977MOL0     H34762  10.225  10.164   0.801 -1.7651 -1.2380 -0.3100
  977MOL0     H34763  10.393  10.035   0.593 -1.0662  0.0304 -0.1987
  977MOL0     H34764  10.448  10.085   0.756  0.1702 -1.4476  0.1520
  977MOL0     H34765  10.309   9.911   0.863 -4.5025  0.0294 -0.6748
  977MOL0     H34766  10.241   9.880   0.714 -0.5038  0.6819 -0.9117
  977MOL0     H34767  10.539   9.836   0.732  0.1264 -2.3805  0.4684
  977MOL0     H34768  10.422   9.787   0.616  1.5249 -4.3396 -0.0225
  977MOL0     H34769  10.419   9.700   0.906 -1.4653 -2.7041  0.8398
  977MOL0     H34770  10.321   9.621   0.785 -1.1305  1.2533 -1.6002
  977MOL0     H34771  10.631   9.625   0.829 -1.4445  1.5207  0.0160
  977MOL0     H34772  10.592   9.587   0.677  1.3498 -0.9379  0.6309
  977MOL0     H34773  10.448   9.386   0.774 -2.1997  0.0943  0.4777
  977MOL0     H34774  10.616   9.383   0.794 -0.0706  0.8471 -2.6916
  977MOL0     H34775  10.695   9.528   1.058  0.2982  2.8550  2.2459
  977MOL0     H34776  10.500   9.619   1.370 -0.9522 -0.7277 -0.3512
  977MOL0     H34777  10.647   9.644   1.289 -1.5035  1.4246 -1.4800
  977MOL0     H34778  10.714   9.495   1.461 -2.0130  0.0321  1.0848
  977MOL0     H34779  10.567   9.423   1.475  0.2542 -1.6031  0.2040
  977MOL0     H34780  10.608   9.275   1.266 -1.1306  0.6448  0.7663
  977MOL0     H34781  10.766   9.350   1.239  1.1327  1.3227  2.0153
  977MOL0     H34782  10.680   9.212   1.481  0.2714  2.6026  1.3453
  977MOL0     H34783  10.791   9.146   1.359 -2.5516  0.8966 -1.5453
  977MOL0     H34784  10.794   9.147   1.650  1.2567  2.5301  1.1720
  977MOL0     H34785  10.944   8.824   1.762  0.8652  1.2372 -5.2905
  977MOL0     H34786  10.795   8.926   1.779 -0.3548 -1.6910  1.1727
  977MOL0     H34787  10.927   8.943   1.891 -2.0447  0.8370  0.1795
  977MOL0     H34788  11.060   8.609   1.857 -0.4695  0.9761 -1.4034
  977MOL0     H34789  11.189   8.402   1.961 -1.0291  0.6438 -0.5028
  977MOL0     H34790  11.381   8.245   1.968  0.6791 -1.0076 -0.2837
  977MOL0     H34791  11.529   8.322   1.904  2.7232  2.3852  1.8635
  977MOL0     H34792  11.658   8.266   2.090  0.0639  1.5319 -2.8147
  977MOL0     H34793  11.512   8.217   2.181 -3.7469  2.9837 -2.2115
  977MOL0     H34794  11.662   8.030   2.111 -0.1849  1.4420  1.2192
  977MOL0     H34795  11.629   8.086   1.939 -1.6262  1.1845  0.1394
  977MOL0     H34796  11.381   8.027   1.970 -1.0667 -0.4554 -1.6067
  977MOL0     H34797  11.417   7.949   2.120 -0.6719  2.4995  0.1871
  977MOL0     H34798  11.395   7.796   1.934 -2.0097  1.8917  0.7728
  977MOL0     H34799  11.542   7.870   1.865 -2.8115  4.7498 -0.3050
  977MOL0     H34800  11.533   7.748   2.143 -0.4956  2.7471 -0.0252
  977MOL0     H34801  11.674   7.795   2.047 -0.4829 -0.2053  2.1282
  977MOL0     H34802  11.671   7.593   1.989 -0.6529 -1.2064  1.4786
  977MOL0     H34803  11.553   7.635   1.861 -2.4241  1.0541 -0.7080
  977MOL0     H34804  11.367   7.576   2.023  0.0777  1.7095 -0.2714
  977MOL0     H34805  11.483   7.501   2.128 -2.0050 -2.4898 -0.3349
  977MOL0     H34806  11.541   8.618   1.992  0.7283  0.4234 -1.9801
  977MOL0     H34807  11.422   8.828   1.899 -0.0384 -0.2561  3.1286
  977MOL0     H34808  11.272   9.134   1.584 -0.7131  1.4345 -2.4803
  977MOL0     H34809  11.130   9.271   1.448  3.0436  1.6425  1.6750
  977MOL0     H34810  10.055  10.356   0.371  1.5706 -1.1163  0.0062
  977MOL0     H34811   9.886  10.337   0.172  2.9943  0.2203 -0.7012
  977MOL0     H34812   9.632  10.265  -0.071 -0.5194  1.6795 -3.8682
  977MOL0     H34813   9.475  10.228  -0.265 -1.3460 -0.9209 -0.7196
  977MOL0     H34814   9.301  10.096  -0.380  0.4183 -3.4161  1.3456
  977MOL0     H34815   9.200  10.029  -0.255 -0.4904  0.0859  0.3194
  977MOL0     H34816   9.104  10.008  -0.468 -0.6790  1.2745 -1.7605
  977MOL0     H34817   9.116  10.172  -0.499 -0.7007 -2.5207 -2.5392
  977MOL0     H34818   8.941  10.060  -0.270 -0.4900 -1.2469 -1.7670
  977MOL0     H34819   8.961  10.226  -0.324  0.7378 -0.4503  0.1292
  977MOL0     H34820   8.847   9.976  -0.464 -0.4827 -0.6890 -0.7261
  977MOL0     H34821   8.894  10.122  -0.567 -1.4907  3.5212  0.7779
  977MOL0     H34822   8.561  10.317  -0.449 -0.1723 -0.8007  1.9968
  977MOL0     H34823   9.138  10.267  -0.021  0.5320  1.2237  0.9830
  977MOL0     H34824   9.219  10.364   0.245  0.2472  0.9311  1.8266
  977MOL0     H34825   9.190  10.189   0.208 -0.7086  1.0637  0.1632
  977MOL0     H34826   9.332  10.233   0.303  1.3785  0.4336 -0.1216
  978MOL0     O34827   0.449   6.290   7.611  0.1775 -0.2275 -1.1208
  978MOL0     C34828   0.376   6.197   7.605  0.6162 -0.0443 -0.8963
  978MOL0     O34829   0.427   6.067   7.616  0.4767  0.3608  0.1898
  978MOL0     C34830   0.563   6.050   7.620  0.0121  0.1822 -0.2551
  978MOL0     C34831   0.634   6.052   7.737  0.1635 -0.0395 -0.8708
  978MOL0     C34832   0.772   6.017   7.748 -0.1546 -0.0510  0.5043
  978MOL0     C34833   0.842   5.981   7.636 -0.0201 -0.3096  0.1931
  978MOL0     O34834   0.977   5.965   7.640  0.9386 -0.5106  0.3891
  978MOL0     C34835   1.049   5.992   7.761 -0.0350  0.0408 -0.4084
  978MOL0     C34836   1.194   5.993   7.734  0.2033  0.1758 -0.1630
  978MOL0     C34837   1.234   6.068   7.611  0.4667 -0.0560  0.0567
  978MOL0     C34838   1.388   6.073   7.596 -0.3183  0.1238 -0.3414
  978MOL0     C34839   1.452   6.145   7.717  1.0066  0.0429 -0.7643
  978MOL0     C34840   1.398   6.289   7.738  0.0157 -0.2826  0.3186
  978MOL0     C34841   1.492   6.359   7.841 -0.0501  0.5645 -0.6645
  978MOL0     C34842   1.464   6.515   7.861 -0.1981 -0.1036  0.4077
  978MOL0     N34843   1.325   6.547   7.899  0.4294 -0.0861 -0.1809
  978MOL0     C34844   1.286   6.610   8.014  0.4525 -0.4972 -0.3618
  978MOL0     C34845   1.152   6.632   7.999  0.2029  0.1183 -0.2930
  978MOL0     C34846   1.073   6.709   8.095  0.7227 -0.7909  0.1097
  978MOL0     C34847   0.928   6.666   8.114  0.0230 -0.5539 -0.3831
  978MOL0     C34848   0.867   6.746   8.229 -0.3876 -1.2267  0.6320
  978MOL0     C34849   0.939   6.717   8.368  0.5436 -0.0662  0.3760
  978MOL0     O34850   1.016   6.830   8.401 -0.9820 -0.3673 -0.0320
  978MOL0     C34851   1.138   6.813   8.462  0.0847  0.5912 -0.3945
  978MOL0     C34852   1.128   6.788   8.598 -0.5560  0.4452  0.0390
  978MOL0     C34853   1.237   6.780   8.685  0.4424 -0.1118  0.9976
  978MOL0     C34854   1.219   6.776   8.836 -0.6347 -0.8289  1.0515
  978MOL0     C34855   1.367   6.802   8.624  0.6164 -0.2305  0.1231
  978MOL0     C34856   1.496   6.765   8.684  0.2099 -0.1528 -0.3717
  978MOL0     O34857   1.615   6.820   8.645 -0.3035 -0.1113 -0.4147
  978MOL0     C34858   1.731   6.793   8.715 -0.1089  0.5864  0.6880
  978MOL0     C34859   1.739   6.853   8.841  0.0995 -0.0622 -0.2008
  978MOL0     C34860   1.853   6.832   8.919 -0.4369 -0.2141  0.0235
  978MOL0     C34861   1.963   6.765   8.856  0.0377  0.1606  0.7272
  978MOL0     O34862   2.085   6.766   8.920 -0.4837 -0.0273 -0.0199
  978MOL0     C34863   2.099   6.833   9.048  0.2685  0.6636  0.3727
  978MOL0     C34864   2.240   6.826   9.105 -0.0781 -0.1901  0.2289
  978MOL0     C34865   2.248   6.938   9.206 -0.0197  0.1402  1.4781
  978MOL0     C34866   2.388   6.968   9.248 -0.2396 -0.4959 -0.6455
  978MOL0     C34867   2.385   7.076   9.360 -0.5995 -0.3049  0.4668
  978MOL0     C34868   2.514   7.132   9.399 -0.3112 -0.3564 -0.0854
  978MOL0     C34869   2.570   7.222   9.285 -0.5512  1.0044  0.6527
  978MOL0     C34870   2.671   7.321   9.341 -0.9355 -0.6112 -0.1947
  978MOL0    Cl34871   2.790   7.240   9.444 -0.4044  0.5231 -0.0990
  978MOL0     C34872   1.953   6.710   8.730  0.4221  0.3423  0.0042
  978MOL0     C34873   1.830   6.723   8.658  0.1213  0.2656  0.9590
  978MOL0     O34874   1.491   6.666   8.757  0.1198  0.3579  1.1461
  978MOL0     C34875   1.373   6.853   8.488 -0.0106 -0.9601  1.2329
  978MOL0     C34876   1.257   6.847   8.405  0.8833  0.2091 -0.3490
  978MOL0     N34877   1.117   6.599   7.875 -0.1918  0.3209 -0.6644
  978MOL0     N34878   1.212   6.543   7.810 -0.4990  0.2059 -0.5825
  978MOL0     C34879   0.767   5.970   7.520 -1.3129  0.2026  0.3904
  978MOL0     C34880   0.630   5.998   7.510 -0.2764 -0.4874  0.1042
  978MOL0     C34881   0.232   6.207   7.577  0.0994 -0.2118 -0.8545
  978MOL0     C34882   0.171   6.097   7.515  0.1626 -0.2620  0.0963
  978MOL0     C34883   0.042   6.098   7.476  0.6028 -0.7104  0.7845
  978MOL0     C34884  -0.040   6.203   7.514  0.5159 -0.7034 -0.3863
  978MOL0     O34885  -0.168   6.190   7.466  1.0477  0.4810 -0.1246
  978MOL0     C34886  -0.251   6.306   7.483 -0.3832 -0.1872  0.0189
  978MOL0     C34887  -0.374   6.272   7.393  0.4978  0.0658 -0.8677
  978MOL0     C34888  -0.492   6.378   7.407  0.3154 -0.6885  0.1283
  978MOL0     C34889  -0.629   6.331   7.345 -0.2614  0.0979 -0.8840
  978MOL0     C34890  -0.726   6.438   7.378 -1.0787 -0.0611  0.7753
  978MOL0     C34891  -0.785   6.545   7.398  0.0617  0.6755  0.5384
  978MOL0     C34892   0.015   6.314   7.575 -0.1840 -0.6966 -0.2545
  978MOL0     C34893   0.152   6.323   7.606 -0.1706  0.5335 -0.5218
  978MOL0     C34894   0.204   6.454   7.658 -0.2602  0.1860 -0.0443
  978MOL0     H34895   0.593   6.086   7.832  3.0545  2.3934 -0.3533
  978MOL0     H34896   0.812   6.013   7.849 -0.4406  0.7448  0.6639
  978MOL0     H34897   1.037   5.917   7.839  4.4779  1.2504  1.8352
  978MOL0     H34898   1.019   6.083   7.815 -1.0641  0.1689 -1.1681
  978MOL0     H34899   1.240   6.049   7.817 -1.0920  1.6079 -0.3574
  978MOL0     H34900   1.246   5.897   7.732  3.2075  1.6074  1.3590
  978MOL0     H34901   1.190   6.017   7.525  0.8231  2.0558 -1.4722
  978MOL0     H34902   1.188   6.167   7.621  2.8056  1.0429  0.4708
  978MOL0     H34903   1.422   5.969   7.593  0.2668  0.3219 -2.7481
  978MOL0     H34904   1.415   6.112   7.497  0.5326 -2.3048 -1.1273
  978MOL0     H34905   1.557   6.153   7.687  1.1161 -0.2567 -0.4649
  978MOL0     H34906   1.444   6.098   7.815 -0.0019 -0.2487 -0.9663
  978MOL0     H34907   1.390   6.348   7.647  0.5540 -1.6330 -0.6379
  978MOL0     H34908   1.296   6.280   7.776 -0.6430 -0.6764 -1.4574
  978MOL0     H34909   1.591   6.346   7.795  0.5781  0.3653  0.6966
  978MOL0     H34910   1.504   6.296   7.930 -0.9100 -2.1861 -2.3539
  978MOL0     H34911   1.541   6.557   7.927 -0.1759  0.9884 -0.2890
  978MOL0     H34912   1.484   6.558   7.763 -0.7973 -1.3992 -0.3066
  978MOL0     H34913   1.345   6.633   8.102 -1.6097 -3.0061  1.8526
  978MOL0     H34914   1.066   6.813   8.061  0.2409 -1.2012 -1.0987
  978MOL0     H34915   1.126   6.716   8.190 -0.9121  3.2697  0.9445
  978MOL0     H34916   0.870   6.681   8.022 -0.0387 -0.7000 -0.3680
  978MOL0     H34917   0.932   6.565   8.156  2.8386  0.1447  1.2320
  978MOL0     H34918   0.871   6.851   8.200  0.4951 -0.6567  2.6692
  978MOL0     H34919   0.761   6.723   8.235 -1.4437  2.0989 -1.9686
  978MOL0     H34920   0.863   6.714   8.446 -0.2323  0.5677 -0.3416
  978MOL0     H34921   0.998   6.625   8.366 -0.3016 -0.6473 -2.6742
  978MOL0     H34922   1.034   6.758   8.643  0.5966 -2.0774  0.9275
  978MOL0     H34923   1.290   6.854   8.864 -1.3739  0.8916 -1.4735
  978MOL0     H34924   1.250   6.683   8.883  4.1256  1.2679  2.6011
  978MOL0     H34925   1.120   6.810   8.869  0.0551  0.5427  1.7732
  978MOL0     H34926   1.660   6.916   8.880  1.2920  0.0570  2.2028
  978MOL0     H34927   1.855   6.886   9.014  1.2181  1.9144 -1.1429
  978MOL0     H34928   2.069   6.938   9.038 -1.8686  0.3588  2.8332
  978MOL0     H34929   2.032   6.791   9.123  0.6517  2.4869  1.8090
  978MOL0     H34930   2.248   6.726   9.148 -3.7867 -0.8259 -0.1751
  978MOL0     H34931   2.316   6.846   9.030  1.5916  2.2983  2.4017
  978MOL0     H34932   2.178   6.914   9.286 -0.1421 -2.9621  0.5564
  978MOL0     H34933   2.215   7.025   9.148 -0.1232 -2.5144 -2.9163
  978MOL0     H34934   2.445   7.020   9.170  0.1911  1.5671  0.9791
  978MOL0     H34935   2.439   6.879   9.287 -0.5839 -0.9855 -1.2892
  978MOL0     H34936   2.322   7.160   9.329  1.5490  0.9850 -0.6711
  978MOL0     H34937   2.338   7.037   9.450 -1.1978 -2.0359 -0.5549
  978MOL0     H34938   2.584   7.051   9.421 -2.6392 -2.1358  1.1961
  978MOL0     H34939   2.502   7.204   9.481  2.1929  1.7728 -1.4382
  978MOL0     H34940   2.485   7.276   9.241 -1.4972  1.6245  3.0740
  978MOL0     H34941   2.618   7.156   9.212 -0.4988  1.3525  0.3686
  978MOL0     H34942   2.625   7.399   9.402 -0.5261  0.0927 -0.7549
  978MOL0     H34943   2.730   7.371   9.263 -0.5552 -0.4581  0.1866
  978MOL0     H34944   2.024   6.638   8.691  0.3517 -0.6052  1.5915
  978MOL0     H34945   1.821   6.688   8.556 -0.0320 -1.1922  1.4405
  978MOL0     H34946   1.467   6.882   8.442 -0.9104  2.2119  1.1272
  978MOL0     H34947   1.256   6.867   8.298 -2.1013  3.2771  0.0776
  978MOL0     H34948   0.820   5.934   7.433 -1.6165  0.8882 -0.0829
  978MOL0     H34949   0.587   5.989   7.411  0.7856  0.7284 -0.5002
  978MOL0     H34950   0.221   6.003   7.492 -0.8305 -0.6360 -0.6094
  978MOL0     H34951  -0.011   6.020   7.422  1.7940 -0.9788 -0.0317
  978MOL0     H34952  -0.275   6.323   7.588 -1.0954  0.7009 -0.2802
  978MOL0     H34953  -0.214   6.402   7.447 -0.1848 -0.2979 -0.0791
  978MOL0     H34954  -0.417   6.178   7.431 -0.4720  0.8461  0.0113
  978MOL0     H34955  -0.357   6.266   7.285  0.7855  1.9128 -0.9539
  978MOL0     H34956  -0.507   6.383   7.515 -0.5353  1.0804 -0.0338
  978MOL0     H34957  -0.450   6.471   7.368  0.9581 -1.0548 -0.0696
  978MOL0     H34958  -0.663   6.233   7.381  0.5345  0.7146  1.8017
  978MOL0     H34959  -0.622   6.310   7.238  0.7312 -0.7503 -0.6693
  978MOL0     H34960  -0.850   6.631   7.405  0.1462  0.7587  0.3031
  978MOL0     H34961  -0.055   6.391   7.605  0.2859  0.5104 -2.0856
  978MOL0     H34962   0.129   6.509   7.716  1.1903  2.4269 -0.1785
  978MOL0     H34963   0.292   6.449   7.722 -1.6479 -3.1911  1.8626
  978MOL0     H34964   0.224   6.521   7.573  0.0930  2.2314  1.5621
  979MOL0     O34965   2.557   6.557   1.232  0.0695  0.9828  0.8097
  979MOL0     C34966   2.518   6.589   1.340 -0.5224  0.3124 -0.3311
  979MOL0     O34967   2.593   6.639   1.438 -0.7420  0.2459 -0.0856
  979MOL0     C34968   2.718   6.691   1.414  0.3841  0.2858  0.3024
  979MOL0     C34969   2.750   6.794   1.318  0.4722  1.0699  0.3626
  979MOL0     C34970   2.880   6.815   1.286 -0.0467  0.1518  0.9062
  979MOL0     C34971   2.982   6.774   1.363 -0.2537  0.7873 -0.9338
  979MOL0     O34972   3.107   6.816   1.341  0.5179 -0.1460  0.0216
  979MOL0     C34973   3.213   6.778   1.427  0.1464  0.1390  1.2069
  979MOL0     C34974   3.333   6.863   1.372 -0.7813  0.4410 -0.3939
  979MOL0     C34975   3.468   6.789   1.391 -0.0891  0.7171 -0.0067
  979MOL0     C34976   3.585   6.884   1.331  0.1521  0.3457 -0.2019
  979MOL0     C34977   3.714   6.801   1.340  0.9317  0.0279  0.2074
  979MOL0     C34978   3.833   6.886   1.311 -0.4281 -0.4709  0.5412
  979MOL0     C34979   3.963   6.802   1.308 -0.5626 -0.2127  0.3148
  979MOL0     C34980   4.096   6.870   1.316  0.8508 -0.1702  0.2541
  979MOL0     N34981   4.118   6.935   1.445 -0.4966 -1.0401  0.0917
  979MOL0     C34982   4.086   7.067   1.456 -0.6906 -0.6186  0.0697
  979MOL0     C34983   4.165   7.115   1.557 -0.0552  0.1178  0.3579
  979MOL0     C34984   4.168   7.245   1.629  0.6552  0.1971  0.2187
  979MOL0     C34985   4.275   7.348   1.592 -1.2073  0.0076  0.0235
  979MOL0     C34986   4.405   7.299   1.659 -0.5197  0.0699  0.6412
  979MOL0     C34987   4.536   7.373   1.634 -0.1808  0.8519 -0.2171
  979MOL0     O34988   4.571   7.353   1.499  0.1422 -0.3645  0.1086
  979MOL0     C34989   4.653   7.248   1.477 -0.6007  0.0817 -0.1112
  979MOL0     C34990   4.711   7.250   1.349  0.5502  0.2328 -0.9077
  979MOL0     C34991   4.823   7.165   1.332 -0.0486 -0.3558  0.3509
  979MOL0     C34992   4.899   7.175   1.201 -0.1691 -0.6919  0.2407
  979MOL0     C34993   4.863   7.066   1.424 -0.5832  0.1017 -1.0087
  979MOL0     C34994   4.960   6.954   1.393  0.4562 -1.0149  0.2661
  979MOL0     O34995   5.062   6.949   1.483  0.3645  0.3215 -0.1855
  979MOL0     C34996   5.145   6.842   1.477  0.2635  0.8465  0.9632
  979MOL0     C34997   5.132   6.733   1.557 -0.3133  0.6717 -0.3595
  979MOL0     C34998   5.210   6.611   1.555  0.5394 -0.1521  0.6583
  979MOL0     C34999   5.315   6.611   1.464  0.0668 -0.3257 -0.0905
  979MOL0     O35000   5.400   6.507   1.437  0.2084  0.0354 -0.5329
  979MOL0     C35001   5.397   6.403   1.528  0.4339 -0.0978 -1.1315
  979MOL0     C35002   5.475   6.282   1.477 -0.4720  0.0465 -0.6265
  979MOL0     C35003   5.620   6.334   1.453  1.1901 -1.1110  0.2023
  979MOL0     C35004   5.715   6.207   1.454 -0.0007 -0.7900  0.1386
  979MOL0     C35005   5.861   6.241   1.428  0.9714 -0.0605  0.5348
  979MOL0     C35006   5.929   6.129   1.345 -0.1263  0.7884 -0.0639
  979MOL0     C35007   6.076   6.157   1.335 -0.3164  0.9438  0.3575
  979MOL0     C35008   6.125   6.065   1.228  0.1333  0.0965 -0.0213
  979MOL0    Cl35009   6.143   5.900   1.290  0.3200  0.0916 -0.2491
  979MOL0     C35010   5.334   6.728   1.382 -0.5434 -0.5487  0.1633
  979MOL0     C35011   5.248   6.836   1.383  0.9091 -0.3673  0.3135
  979MOL0     O35012   4.930   6.869   1.310 -0.2057  0.8645  0.1648
  979MOL0     C35013   4.796   7.052   1.544  0.4280 -0.5427  0.3428
  979MOL0     C35014   4.690   7.144   1.572  0.3703  0.0775 -0.8804
  979MOL0     N35015   4.235   7.008   1.611  0.4222  0.3530  0.9321
  979MOL0     N35016   4.208   6.901   1.540 -0.5102 -0.3190  0.8034
  979MOL0     C35017   2.946   6.682   1.468 -0.8865  0.6653  0.1138
  979MOL0     C35018   2.818   6.647   1.494 -0.0046 -0.6871 -0.8067
  979MOL0     C35019   2.375   6.566   1.359  0.5589 -0.5952 -0.8742
  979MOL0     C35020   2.320   6.442   1.317  0.3498  0.0781  1.0472
  979MOL0     C35021   2.180   6.429   1.300  0.0455  0.6053  0.1362
  979MOL0     C35022   2.096   6.531   1.334  0.3531  0.4823 -0.0326
  979MOL0     O35023   1.958   6.503   1.331  0.0566 -0.0466  0.1260
  979MOL0     C35024   1.869   6.618   1.347 -0.0584  1.3194  0.3555
  979MOL0     C35025   1.730   6.595   1.283  0.8631 -0.8399  0.3682
  979MOL0     C35026   1.650   6.481   1.347  0.2477 -0.0909 -0.1406
  979MOL0     C35027   1.518   6.464   1.275  0.1664 -0.6142  0.2039
  979MOL0     C35028   1.422   6.384   1.353 -0.0086 -0.6631 -0.5856
  979MOL0     C35029   1.334   6.313   1.401  0.1910 -0.3660  0.6601
  979MOL0     C35030   2.154   6.653   1.369  0.1707 -0.3915 -0.1536
  979MOL0     C35031   2.291   6.668   1.387 -0.3972 -1.1610 -0.1836
  979MOL0     C35032   2.346   6.802   1.441  0.7744  1.1632  0.3102
  979MOL0     H35033   2.670   6.834   1.256  1.8596  4.1984  0.3926
  979MOL0     H35034   2.909   6.884   1.208  0.8541 -1.8479 -0.6014
  979MOL0     H35035   3.234   6.671   1.415  1.9010  0.6571 -1.3798
  979MOL0     H35036   3.195   6.800   1.532 -0.3014  2.4300  0.6943
  979MOL0     H35037   3.320   6.896   1.269 -0.1335 -0.3373 -0.7371
  979MOL0     H35038   3.337   6.958   1.427  0.3848  1.0115 -1.4227
  979MOL0     H35039   3.476   6.771   1.499  0.0592  1.2585  0.0742
  979MOL0     H35040   3.472   6.693   1.338  0.4362  0.4772  0.4564
  979MOL0     H35041   3.566   6.910   1.227 -2.4060  1.0732  0.3891
  979MOL0     H35042   3.601   6.975   1.390  0.1826 -0.3622  0.9016
  979MOL0     H35043   3.702   6.716   1.272  1.5314 -0.0550  0.1968
  979MOL0     H35044   3.726   6.744   1.433  3.2119 -1.4721 -0.9135
  979MOL0     H35045   3.835   6.952   1.224  2.4642 -0.1084  0.7632
  979MOL0     H35046   3.852   6.958   1.392  0.5752 -0.5881  0.4305
  979MOL0     H35047   3.961   6.734   1.222  2.2757  0.3073 -0.2537
  979MOL0     H35048   3.956   6.727   1.387 -0.3353 -1.0740 -0.4568
  979MOL0     H35049   4.173   6.797   1.291 -0.5031 -1.6186  0.1359
  979MOL0     H35050   4.105   6.943   1.235 -1.5420 -0.5746 -0.4743
  979MOL0     H35051   4.030   7.130   1.388  1.8316  1.5775 -0.1284
  979MOL0     H35052   4.173   7.227   1.737 -0.5013 -1.7326 -0.0078
  979MOL0     H35053   4.066   7.279   1.608 -1.0373 -3.5164  1.5063
  979MOL0     H35054   4.299   7.346   1.485  1.7547 -0.3100  0.6061
  979MOL0     H35055   4.239   7.441   1.638  2.2859  1.1514  0.7290
  979MOL0     H35056   4.400   7.299   1.769 -1.9674 -1.5162  0.6188
  979MOL0     H35057   4.415   7.193   1.632  0.4620  0.4796 -0.6610
  979MOL0     H35058   4.529   7.483   1.637  0.2905  0.8787  0.0034
  979MOL0     H35059   4.608   7.340   1.709 -1.4673 -2.7295 -0.3717
  979MOL0     H35060   4.678   7.314   1.268 -0.7295 -0.8063 -1.2336
  979MOL0     H35061   4.945   7.274   1.195 -1.1232 -0.2635 -0.4767
  979MOL0     H35062   4.837   7.161   1.111 -0.2292  1.1108 -0.0478
  979MOL0     H35063   4.975   7.099   1.185  1.5719  0.8387  0.9334
  979MOL0     H35064   5.053   6.735   1.632 -1.3052 -5.4633 -0.7286
  979MOL0     H35065   5.189   6.527   1.622 -0.9110  2.0531  3.1600
  979MOL0     H35066   5.437   6.432   1.625  2.2209 -0.2917 -1.7828
  979MOL0     H35067   5.293   6.372   1.545  0.7757 -3.4337 -3.9681
  979MOL0     H35068   5.474   6.203   1.552  2.0659  2.6619  2.4219
  979MOL0     H35069   5.428   6.246   1.385  0.2943 -0.2659 -0.9032
  979MOL0     H35070   5.655   6.408   1.525  0.0232  0.5451 -0.8571
  979MOL0     H35071   5.613   6.381   1.354  0.1366 -3.6866 -1.0364
  979MOL0     H35072   5.670   6.139   1.381 -0.9673  2.0132 -2.1167
  979MOL0     H35073   5.705   6.167   1.555 -1.3439 -1.0199 -0.0691
  979MOL0     H35074   5.876   6.338   1.379  2.0525  0.3977  1.7109
  979MOL0     H35075   5.915   6.246   1.523  2.9406 -0.0642 -0.5363
  979MOL0     H35076   5.880   6.141   1.247 -1.4372  0.6312  0.5477
  979MOL0     H35077   5.913   6.024   1.373  2.7862 -0.2792 -1.9541
  979MOL0     H35078   6.134   6.139   1.426  2.7050  2.4116 -1.1331
  979MOL0     H35079   6.082   6.262   1.304 -1.0865  0.0301 -3.4156
  979MOL0     H35080   6.222   6.112   1.207  0.9748 -0.2891  2.6347
  979MOL0     H35081   6.063   6.065   1.138 -0.0965 -0.7168  0.1300
  979MOL0     H35082   5.410   6.749   1.307 -0.9392  0.9020  0.1270
  979MOL0     H35083   5.268   6.928   1.329 -2.9576  0.0377 -0.7544
  979MOL0     H35084   4.816   6.973   1.616 -1.0686 -0.1991  1.1893
  979MOL0     H35085   4.632   7.119   1.660  0.4455 -1.0902 -1.1416
  979MOL0     H35086   3.022   6.641   1.533  0.5996  0.0598 -1.8861
  979MOL0     H35087   2.796   6.578   1.575  0.0280  0.1860 -0.0430
  979MOL0     H35088   2.382   6.360   1.280  0.7494  2.0088 -3.1731
  979MOL0     H35089   2.140   6.338   1.257  1.6943  0.0354 -0.2448
  979MOL0     H35090   1.852   6.632   1.454  0.4692  0.5016  0.5520
  979MOL0     H35091   1.913   6.706   1.298  2.9651 -1.4158 -2.3245
  979MOL0     H35092   1.743   6.583   1.175  0.6636  1.5587  0.0348
  979MOL0     H35093   1.667   6.684   1.276  1.4403 -0.3974  0.8184
  979MOL0     H35094   1.697   6.383   1.337 -1.0908 -0.6814 -0.8587
  979MOL0     H35095   1.635   6.514   1.450 -0.8084  2.2575 -0.9600
  979MOL0     H35096   1.542   6.424   1.175 -0.9260  0.4261 -0.5040
  979MOL0     H35097   1.469   6.560   1.254  1.9316 -0.0438 -1.6451
  979MOL0     H35098   1.264   6.241   1.437 -1.5762  0.0968 -1.5565
  979MOL0     H35099   2.092   6.739   1.393  1.8306  0.6066  0.7367
  979MOL0     H35100   2.277   6.885   1.453  0.6677  1.2266 -0.6539
  979MOL0     H35101   2.394   6.784   1.538  1.2073 -0.3127 -0.1427
  979MOL0     H35102   2.413   6.856   1.373 -2.4500  3.4006 -1.3231
  980MOL0     O35103   1.749   9.037   0.084 -1.0493  0.2828 -0.3800
  980MOL0     C35104   1.656   9.107   0.038  0.1255  0.3065  0.8916
  980MOL0     O35105   1.672   9.219  -0.026 -0.4992  0.0950  0.3232
  980MOL0     C35106   1.792   9.286  -0.057  0.1202 -0.5651 -0.9143
  980MOL0     C35107   1.901   9.220  -0.099 -0.9665 -0.9456 -0.4077
  980MOL0     C35108   2.027   9.289  -0.107  0.4714  1.0004 -0.4750
  980MOL0     C35109   2.042   9.418  -0.058 -0.1388 -0.5817  0.5131
  980MOL0     O35110   2.169   9.478  -0.060 -0.6653  0.2303  0.4897
  980MOL0     C35111   2.163   9.622  -0.045 -0.0773  0.3115 -0.1270
  980MOL0     C35112   2.304   9.685  -0.039  0.3146  0.0380  0.6280
  980MOL0     C35113   2.311   9.826   0.031 -0.2440 -0.3575 -0.6552
  980MOL0     C35114   2.461   9.860   0.040 -0.2218  0.0406 -0.7286
  980MOL0     C35115   2.490  10.000   0.097 -0.4434  0.4247  0.4457
  980MOL0     C35116   2.631  10.053   0.084  0.2325 -0.1418 -0.0487
  980MOL0     C35117   2.698  10.033   0.224  0.3800  0.1663  0.5308
  980MOL0     C35118   2.850  10.051   0.214 -0.2817 -0.3771 -0.1442
  980MOL0     N35119   2.896  10.173   0.283 -0.9764  0.3770 -0.3002
  980MOL0     C35120   2.959  10.179   0.405  0.3559  0.1293 -0.3320
  980MOL0     C35121   2.979  10.310   0.420 -0.0340  0.2217 -0.0666
  980MOL0     C35122   3.047  10.379   0.540  0.0488  0.4141  0.2983
  980MOL0     C35123   3.197  10.356   0.529 -0.0992 -0.1635 -0.5388
  980MOL0     C35124   3.268  10.469   0.457 -0.2450  1.4400  0.3616
  980MOL0     C35125   3.409  10.427   0.406  0.2588 -0.1721  0.8300
  980MOL0     O35126   3.491  10.534   0.364  0.3570  0.4846  0.4416
  980MOL0     C35127   3.622  10.515   0.338  0.0427 -0.4291 -0.5385
  980MOL0     C35128   3.697  10.397   0.357 -0.4583 -0.5116 -0.1233
  980MOL0     C35129   3.827  10.388   0.303 -0.0297  0.6391 -0.1993
  980MOL0     C35130   3.917  10.278   0.357  0.3880 -0.3944  0.5286
  980MOL0     C35131   3.889  10.500   0.229  0.8001  0.4103  0.4725
  980MOL0     C35132   4.011  10.506   0.161  0.0470  0.5496  0.9151
  980MOL0     O35133   4.050  10.391   0.095 -0.1252  0.3601  0.3333
  980MOL0     C35134   4.178  10.377   0.051  0.4261 -0.2227 -0.1379
  980MOL0     C35135   4.205  10.389  -0.089 -0.0052 -0.3905 -0.5343
  980MOL0     C35136   4.328  10.381  -0.147 -1.1771 -0.2750  0.4568
  980MOL0     C35137   4.434  10.354  -0.064 -0.1022  0.3497 -0.0846
  980MOL0     O35138   4.555  10.353  -0.118  0.3920 -0.3041 -0.4062
  980MOL0     C35139   4.665  10.439  -0.072  0.3618 -0.0191  0.2315
  980MOL0     C35140   4.652  10.567  -0.159 -0.1165 -0.2120 -0.4985
  980MOL0     C35141   4.531  10.656  -0.147  0.0900  0.7671  0.4863
  980MOL0     C35142   4.553  10.794  -0.205  0.4304  0.2690 -0.0592
  980MOL0     C35143   4.644  10.881  -0.127  0.3152 -1.5684 -0.9920
  980MOL0     C35144   4.619  10.887   0.027 -0.1774 -0.9023 -0.1371
  980MOL0     C35145   4.697  10.999   0.092  0.1204 -0.6121 -0.3798
  980MOL0     C35146   4.632  11.024   0.238 -0.2090  0.3332  0.5023
  980MOL0    Cl35147   4.659  10.878   0.339 -0.3402  0.8459  0.3906
  980MOL0     C35148   4.416  10.341   0.070  0.2650 -0.9603  0.2942
  980MOL0     C35149   4.295  10.356   0.131  0.5460  0.4432  0.0401
  980MOL0     O35150   4.079  10.607   0.184  0.4945  0.1554  0.1067
  980MOL0     C35151   3.803  10.609   0.203  0.0563 -0.6326 -0.4648
  980MOL0     C35152   3.673  10.622   0.258 -0.0119  0.2208  0.0154
  980MOL0     N35153   2.935  10.381   0.303 -0.5448  0.2251 -0.4684
  980MOL0     N35154   2.895  10.288   0.229  0.5679 -1.0203  0.4347
  980MOL0     C35155   1.921   9.488  -0.038  0.6467 -0.0110  0.5590
  980MOL0     C35156   1.795   9.426  -0.037 -0.6345 -0.4444 -0.0173
  980MOL0     C35157   1.515   9.067   0.044 -0.2191  0.0284 -0.6036
  980MOL0     C35158   1.476   8.954  -0.027  0.4553  1.0396 -0.2426
  980MOL0     C35159   1.345   8.920  -0.030 -0.3732 -0.4271 -0.1243
  980MOL0     C35160   1.245   8.984   0.041 -0.1618 -0.1467  0.3971
  980MOL0     O35161   1.116   8.937   0.037  0.0771 -0.1847  0.0441
  980MOL0     C35162   1.000   9.020   0.016 -0.2017  0.6739 -0.2807
  980MOL0     C35163   0.899   8.952  -0.075 -0.6701 -0.1558 -0.4600
  980MOL0     C35164   0.950   8.962  -0.219 -0.1523 -0.0281 -0.2705
  980MOL0     C35165   0.846   8.890  -0.307  0.2529  0.3719  0.4803
  980MOL0     C35166   0.711   8.955  -0.322 -0.5356 -0.0969  0.9654
  980MOL0     C35167   0.607   9.012  -0.312  0.4591  0.0065  0.7064
  980MOL0     C35168   1.277   9.100   0.114 -0.1200 -0.0240 -0.2186
  980MOL0     C35169   1.410   9.138   0.118 -0.2050  0.2809  0.6040
  980MOL0     C35170   1.449   9.261   0.194  0.1674 -0.5400 -0.2991
  980MOL0     H35171   1.885   9.116  -0.125 -3.1423 -0.3788 -1.5396
  980MOL0     H35172   2.099   9.210  -0.126 -2.7139 -1.9429 -1.4626
  980MOL0     H35173   2.123   9.660   0.049  2.3169  0.2962  0.9656
  980MOL0     H35174   2.104   9.666  -0.125 -0.0540  1.2454  0.3625
  980MOL0     H35175   2.368   9.615   0.016  0.4490 -1.3182 -1.1695
  980MOL0     H35176   2.327   9.694  -0.145 -1.2718  0.7157  0.3079
  980MOL0     H35177   2.254   9.897  -0.030 -3.4995 -1.5799  0.7190
  980MOL0     H35178   2.258   9.825   0.127 -1.4526  1.9469 -1.2314
  980MOL0     H35179   2.510   9.785   0.102 -0.6901 -1.4753 -2.1383
  980MOL0     H35180   2.497   9.854  -0.063  2.9630 -2.1523  0.3739
  980MOL0     H35181   2.453  10.024   0.197 -2.2945  2.7429 -0.7071
  980MOL0     H35182   2.430  10.066   0.034  0.0346 -1.2467 -1.8874
  980MOL0     H35183   2.689   9.991   0.014  0.4907 -3.9861  3.1549
  980MOL0     H35184   2.641  10.160   0.068 -0.2833 -0.0524  0.2214
  980MOL0     H35185   2.677   9.930   0.253 -0.3150  0.2471  0.3229
  980MOL0     H35186   2.650  10.101   0.294 -2.1471 -1.0132  0.0456
  980MOL0     H35187   2.898   9.961   0.253 -0.4923  0.2264  1.6084
  980MOL0     H35188   2.872  10.069   0.109  1.7238 -1.8020 -0.0097
  980MOL0     H35189   2.982  10.099   0.475  0.1173 -2.0468 -2.6142
  980MOL0     H35190   3.000  10.324   0.623 -3.3891 -1.3913 -2.5404
  980MOL0     H35191   3.016  10.483   0.545  0.9074  0.7525 -0.9710
  980MOL0     H35192   3.229  10.353   0.634  1.3772 -0.8423 -0.9808
  980MOL0     H35193   3.225  10.264   0.477 -2.3991 -1.0089 -0.4069
  980MOL0     H35194   3.215  10.505   0.368  2.5140  2.6086 -0.9404
  980MOL0     H35195   3.273  10.546   0.534 -1.6740  0.4936  1.4383
  980MOL0     H35196   3.466  10.371   0.480  2.7202 -0.0511 -0.8678
  980MOL0     H35197   3.400  10.365   0.316 -0.2337  2.1624 -0.8562
  980MOL0     H35198   3.658  10.306   0.401 -1.0686 -0.6846 -0.9906
  980MOL0     H35199   3.869  10.191   0.403  2.7259 -0.4978  2.9921
  980MOL0     H35200   3.979  10.321   0.436 -0.4308  0.2141  0.8539
  980MOL0     H35201   3.977  10.236   0.275 -0.2537 -0.7117  0.2116
  980MOL0     H35202   4.120  10.397  -0.156  2.3272 -1.8004 -3.9589
  980MOL0     H35203   4.332  10.391  -0.255  1.7315 -0.4560  0.4817
  980MOL0     H35204   4.655  10.446   0.037 -1.3232 -3.5423  0.4645
  980MOL0     H35205   4.759  10.388  -0.093 -0.7302 -1.2840 -1.9369
  980MOL0     H35206   4.744  10.626  -0.148 -1.1453  1.7067 -1.6281
  980MOL0     H35207   4.649  10.548  -0.267  1.7726 -0.5473 -0.5376
  980MOL0     H35208   4.506  10.673  -0.042  1.4362  1.7059  0.6866
  980MOL0     H35209   4.441  10.607  -0.185  1.9317 -1.9808 -0.6431
  980MOL0     H35210   4.448  10.825  -0.204  0.0450 -0.7591  2.7312
  980MOL0     H35211   4.589  10.771  -0.306 -2.0292 -0.5714 -0.8143
  980MOL0     H35212   4.749  10.855  -0.145  0.8229  0.5085 -1.2587
  980MOL0     H35213   4.641  10.978  -0.178 -1.8802  0.7545  3.1170
  980MOL0     H35214   4.643  10.790   0.071  0.4922 -0.6291  0.1159
  980MOL0     H35215   4.514  10.903   0.050  0.4644  1.5530  1.4078
  980MOL0     H35216   4.693  11.095   0.040 -1.0457 -0.1738  0.4659
  980MOL0     H35217   4.804  10.985   0.110  0.8408  3.8726  0.0428
  980MOL0     H35218   4.528  11.051   0.219  0.2338  1.8023  0.0694
  980MOL0     H35219   4.672  11.110   0.293 -1.7243  1.4087 -0.0116
  980MOL0     H35220   4.505  10.328   0.131 -0.7875  0.8512  2.3875
  980MOL0     H35221   4.282  10.350   0.239 -0.1328  0.4623 -0.0343
  980MOL0     H35222   3.854  10.692   0.155  2.5960 -0.9468  1.5009
  980MOL0     H35223   3.622  10.717   0.247  0.0615  0.1786 -0.7287
  980MOL0     H35224   1.909   9.591  -0.007  1.3560  1.3607 -3.1238
  980MOL0     H35225   1.697   9.462  -0.007  0.6425  1.4901  2.0994
  980MOL0     H35226   1.551   8.895  -0.077  0.8602  0.6648  0.7879
  980MOL0     H35227   1.318   8.839  -0.096  0.9315 -0.1305 -1.0659
  980MOL0     H35228   0.948   9.020   0.112 -0.1313  0.0943 -0.2447
  980MOL0     H35229   1.022   9.121  -0.021  1.6921  0.4584  0.1780
  980MOL0     H35230   0.809   9.011  -0.056  0.2116  1.2918 -0.5789
  980MOL0     H35231   0.880   8.849  -0.042  1.7478 -1.0979 -1.7636
  980MOL0     H35232   0.956   9.067  -0.248 -3.6362 -0.1148 -1.9634
  980MOL0     H35233   1.044   8.912  -0.243  0.5874  1.7410 -1.1936
  980MOL0     H35234   0.818   8.788  -0.279 -0.2131  0.4423  0.2801
  980MOL0     H35235   0.889   8.882  -0.407  0.9159  0.4358  0.7506
  980MOL0     H35236   0.505   9.044  -0.322 -0.6036 -3.6062 -2.9556
  980MOL0     H35237   1.203   9.157   0.169  1.7630  3.7572 -1.3212
  980MOL0     H35238   1.501   9.336   0.134 -0.1448  1.6816  2.0312
  980MOL0     H35239   1.362   9.315   0.231  0.4099  0.1712 -0.7470
  980MOL0     H35240   1.504   9.246   0.288 -0.8327 -0.5509  0.2920
  981MOL0     O35241  10.059   9.334  10.983  0.0972 -0.0561  0.5637
  981MOL0     C35242  10.114   9.354  11.089  0.1625 -0.7893  0.9037
  981MOL0     O35243  10.155   9.473  11.134 -0.3303 -0.3625 -0.3942
  981MOL0     C35244  10.157   9.585  11.054 -0.0425 -0.4402 -0.3191
  981MOL0     C35245  10.059   9.690  11.066 -0.6089 -0.3487 -0.5918
  981MOL0     C35246  10.073   9.803  10.975  0.5150 -0.0521 -0.4129
  981MOL0     C35247  10.169   9.817  10.884  0.8268 -0.6415 -0.0120
  981MOL0     O35248  10.175   9.923  10.793  0.1485 -0.2673 -0.2278
  981MOL0     C35249  10.153  10.052  10.856  0.0341 -0.7508 -0.6850
  981MOL0     C35250  10.115  10.165  10.759 -0.0148  1.0224 -0.2884
  981MOL0     C35251  10.115  10.297  10.836 -0.8986 -0.8008  1.1778
  981MOL0     C35252  10.091  10.414  10.738  0.3281 -0.0590  0.7772
  981MOL0     C35253  10.049  10.534  10.818 -0.2625 -0.3898  0.3524
  981MOL0     C35254   9.987  10.645  10.726  0.2267  0.6931 -0.8375
  981MOL0     C35255   9.941  10.761  10.818 -0.0854  0.6288  0.6224
  981MOL0     C35256   9.891  10.872  10.724 -0.2464 -0.7453 -0.4161
  981MOL0     N35257   9.853  10.985  10.799  0.6058 -0.7857  0.4482
  981MOL0     C35258   9.729  11.037  10.801  0.3798 -0.3980 -0.2063
  981MOL0     C35259   9.739  11.161  10.850  0.1844  0.9474 -0.3306
  981MOL0     C35260   9.651  11.281  10.869  0.4735  0.1363 -0.3982
  981MOL0     C35261   9.611  11.295  11.004  0.6085  0.2717 -0.4556
  981MOL0     C35262   9.522  11.411  11.042 -0.3274  0.4326 -1.4424
  981MOL0     C35263   9.497  11.414  11.201  0.0554 -0.0618  0.8758
  981MOL0     O35264   9.433  11.296  11.257 -0.5337 -0.4170 -0.1725
  981MOL0     C35265   9.306  11.268  11.215 -0.1726 -0.1258  0.3907
  981MOL0     C35266   9.271  11.139  11.233  0.1605 -0.1873 -1.1109
  981MOL0     C35267   9.148  11.088  11.203  1.1179  0.2665 -0.2930
  981MOL0     C35268   9.109  10.951  11.264 -0.6234 -0.2133  0.4426
  981MOL0     C35269   9.056  11.173  11.128 -0.1527  0.5096 -0.0951
  981MOL0     C35270   8.925  11.134  11.084  1.0245  0.2931  0.1569
  981MOL0     O35271   8.855  11.054  11.183 -0.8077  0.1545  0.4401
  981MOL0     C35272   8.731  10.997  11.161  1.0808 -0.7285  0.4431
  981MOL0     C35273   8.705  10.913  11.050  0.3221  0.5978 -0.4055
  981MOL0     C35274   8.586  10.850  11.031  0.3429 -0.1920 -0.1603
  981MOL0     C35275   8.480  10.872  11.114 -0.3485  0.1137  0.2839
  981MOL0     O35276   8.361  10.808  11.078 -0.1905 -0.9754  0.1341
  981MOL0     C35277   8.256  10.802  11.177  0.5724  0.9267 -0.2584
  981MOL0     C35278   8.164  10.926  11.197  0.2880 -0.3000 -0.3604
  981MOL0     C35279   8.075  10.925  11.325 -0.2152  1.0556  0.6837
  981MOL0     C35280   7.938  10.855  11.287 -0.8090  0.1678  0.4832
  981MOL0     C35281   7.836  10.888  11.396  0.4147  0.1108  0.9137
  981MOL0     C35282   7.699  10.846  11.345  0.9563 -0.5551 -0.2574
  981MOL0     C35283   7.602  10.803  11.458 -0.3499 -0.1270 -0.1152
  981MOL0     C35284   7.559  10.929  11.540  0.2797  0.3421  1.5544
  981MOL0    Cl35285   7.476  10.863  11.682 -0.6378 -0.4454  0.2069
  981MOL0     C35286   8.510  10.948  11.233 -0.0851 -0.2039  0.3693
  981MOL0     C35287   8.634  11.010  11.252  0.4502 -0.2583  0.3489
  981MOL0     O35288   8.875  11.162  10.979  0.3419  0.6835  0.5086
  981MOL0     C35289   9.094  11.313  11.101 -0.3639  0.0868  0.0349
  981MOL0     C35290   9.213  11.354  11.148  0.2778 -0.5522 -0.6956
  981MOL0     N35291   9.875  11.180  10.877 -0.0027 -0.0490 -0.0301
  981MOL0     N35292   9.940  11.080  10.849  0.3887  0.3322  0.4543
  981MOL0     C35293  10.259   9.719  10.869 -0.2781 -0.2971 -0.1038
  981MOL0     C35294  10.259   9.607  10.956 -0.0338  0.6345 -0.0008
  981MOL0     C35295  10.089   9.247  11.188  0.8201  0.4618 -0.3783
  981MOL0     C35296  10.147   9.253  11.311 -0.5125  0.5345  0.4591
  981MOL0     C35297  10.137   9.155  11.407  0.4944 -0.4539 -0.2390
  981MOL0     C35298  10.059   9.040  11.371 -0.3888  0.0141 -0.8936
  981MOL0     O35299  10.050   8.934  11.458  0.4360  1.0600 -0.0726
  981MOL0     C35300  10.123   8.820  11.417  0.4848 -0.1618  0.7936
  981MOL0     C35301  10.159   8.739  11.540  0.0849  0.3545  0.2664
  981MOL0     C35302  10.168   8.588  11.510  0.1974  0.5435 -0.2581
  981MOL0     C35303  10.270   8.526  11.615  0.3630  0.5471  0.9558
  981MOL0     C35304  10.240   8.391  11.631  0.9206 -0.1288 -0.8869
  981MOL0     C35305  10.211   8.274  11.639 -0.1359  0.3415 -0.4196
  981MOL0     C35306  10.001   9.026  11.253 -1.0508 -0.0671  0.6933
  981MOL0     C35307  10.018   9.123  11.155  0.2776  0.1928  0.3151
  981MOL0     C35308   9.941   9.097  11.021  0.9386 -0.8838 -0.2231
  981MOL0     H35309   9.978   9.683  11.138 -0.0898 -1.6583 -0.1004
  981MOL0     H35310   9.991   9.873  10.985  0.7168  0.1646 -0.2370
  981MOL0     H35311  10.245  10.083  10.905 -0.9100  1.3499 -0.1119
  981MOL0     H35312  10.084  10.050  10.941  0.7950  2.2824  0.1107
  981MOL0     H35313  10.187  10.177  10.677 -0.0315 -0.0504 -0.4720
  981MOL0     H35314  10.012  10.148  10.725  0.1726 -1.3062  0.1462
  981MOL0     H35315  10.032  10.289  10.906 -1.9379  0.3710  0.1246
  981MOL0     H35316  10.213  10.296  10.885 -0.2611 -0.9291 -0.0711
  981MOL0     H35317  10.174  10.419  10.666 -0.4827 -0.8869 -0.2689
  981MOL0     H35318  10.009  10.391  10.668  0.1303  1.5216  0.4616
  981MOL0     H35319  10.137  10.568  10.872  1.0251  0.8553 -2.3190
  981MOL0     H35320   9.968  10.517  10.890  1.2846  0.1899  2.3047
  981MOL0     H35321  10.060  10.677  10.651  3.8205 -2.2052  1.0497
  981MOL0     H35322   9.900  10.603  10.675  0.0517  1.1448 -0.9179
  981MOL0     H35323  10.024  10.800  10.877 -0.4524  1.1299  0.8142
  981MOL0     H35324   9.853  10.729  10.874  0.1115 -0.0967  0.5307
  981MOL0     H35325   9.968  10.912  10.657 -2.0901  1.7116 -1.1910
  981MOL0     H35326   9.803  10.836  10.670 -2.6904  2.4890  1.1178
  981MOL0     H35327   9.644  10.998  10.745 -0.1266  1.9632 -1.1867
  981MOL0     H35328   9.567  11.286  10.800  0.9150 -0.2713 -0.9726
  981MOL0     H35329   9.705  11.374  10.848 -0.5492  0.9013  0.3210
  981MOL0     H35330   9.554  11.203  11.020  1.9327 -0.9693 -2.4476
  981MOL0     H35331   9.693  11.295  11.076  0.7159  0.3155 -0.5772
  981MOL0     H35332   9.555  11.513  11.018  1.1633  1.3957  3.4191
  981MOL0     H35333   9.423  11.395  10.999 -1.9569 -2.4116  2.7065
  981MOL0     H35334   9.592  11.434  11.251  0.1601  0.7353  0.3753
  981MOL0     H35335   9.446  11.508  11.220 -1.9602  0.1102 -4.0413
  981MOL0     H35336   9.339  11.075  11.289 -1.8938 -0.7589  0.8442
  981MOL0     H35337   9.070  10.896  11.177  1.7798 -0.3557 -0.6142
  981MOL0     H35338   9.029  10.967  11.337 -0.2577  1.5023  0.5065
  981MOL0     H35339   9.197  10.906  11.309 -0.2877  1.7946  1.8765
  981MOL0     H35340   8.790  10.890  10.987 -0.7814 -0.8982 -1.3869
  981MOL0     H35341   8.569  10.789  10.943  6.1734 -1.1922 -0.9939
  981MOL0     H35342   8.199  10.713  11.149 -0.2792  1.5392 -0.4872
  981MOL0     H35343   8.316  10.783  11.267  4.1757 -1.3080 -2.8274
  981MOL0     H35344   8.233  11.010  11.190 -0.6198  0.3052 -3.5716
  981MOL0     H35345   8.106  10.922  11.105  1.1316 -0.9550 -0.8921
  981MOL0     H35346   8.057  11.031  11.348  0.8163  1.2492  0.6142
  981MOL0     H35347   8.108  10.865  11.410  0.2100  0.9362  0.4332
  981MOL0     H35348   7.956  10.748  11.270  0.9370  0.6440 -0.9438
  981MOL0     H35349   7.903  10.895  11.191  0.4763 -1.6622 -0.8085
  981MOL0     H35350   7.854  10.812  11.472 -0.7202 -2.3465 -1.1432
  981MOL0     H35351   7.839  10.987  11.442 -0.3472  0.0729  1.0610
  981MOL0     H35352   7.704  10.762  11.275  0.4117 -1.0070  0.2318
  981MOL0     H35353   7.643  10.931  11.306 -0.3219 -0.4092  1.7600
  981MOL0     H35354   7.651  10.731  11.524 -1.3951 -1.3622 -0.6422
  981MOL0     H35355   7.510  10.754  11.423 -0.5447 -0.1609  0.4357
  981MOL0     H35356   7.491  10.987  11.478  0.0175 -0.9068  0.6365
  981MOL0     H35357   7.641  10.994  11.574 -0.8984  0.9749  3.3472
  981MOL0     H35358   8.437  10.979  11.307  0.0771 -1.4843  1.0898
  981MOL0     H35359   8.656  11.072  11.339 -0.0866  0.9341 -0.3361
  981MOL0     H35360   9.026  11.377  11.046  1.1358  2.8196  1.1255
  981MOL0     H35361   9.241  11.458  11.130 -0.5292 -0.0469  0.7588
  981MOL0     H35362  10.326   9.725  10.784 -0.8399 -1.1086 -0.6184
  981MOL0     H35363  10.347   9.544  10.964  0.7011  1.7449  0.8045
  981MOL0     H35364  10.221   9.331  11.327 -0.7078  1.3629 -2.1691
  981MOL0     H35365  10.171   9.159  11.510  1.9621  1.1386 -0.7390
  981MOL0     H35366  10.045   8.766  11.364  0.8631 -0.6529  0.7245
  981MOL0     H35367  10.210   8.843  11.354  0.5857  1.0420  1.3503
  981MOL0     H35368  10.089   8.749  11.624  2.5477  1.3495  2.3370
  981MOL0     H35369  10.256   8.781  11.570  0.4168  0.9784 -1.5405
  981MOL0     H35370  10.067   8.549  11.527 -0.4204  2.2211  0.2034
  981MOL0     H35371  10.196   8.569  11.406 -3.1410  0.7127 -1.3310
  981MOL0     H35372  10.257   8.572  11.714  0.4735  2.8873 -0.0677
  981MOL0     H35373  10.376   8.539  11.593  0.0052  1.5272 -0.2350
  981MOL0     H35374  10.188   8.169  11.641 -0.7033  0.4629 -0.2589
  981MOL0     H35375   9.935   8.942  11.232  0.6385 -1.8616  2.1378
  981MOL0     H35376   9.896   8.997  11.021 -2.7704  0.5821 -1.3697
  981MOL0     H35377   9.856   9.163  10.999 -1.0899 -2.7881  1.4598
  981MOL0     H35378  10.010   9.099  10.936  0.6299 -1.5238 -0.4948
  982MOL0     O35379   5.245   3.723   6.768  0.0321  0.5152 -0.2927
  982MOL0     C35380   5.191   3.780   6.863 -0.0057  1.4963  0.9676
  982MOL0     O35381   5.075   3.852   6.858 -0.5510 -0.1498  0.6548
  982MOL0     C35382   4.977   3.829   6.766 -0.0244  0.2428  0.3426
  982MOL0     C35383   4.915   3.937   6.701  0.4014 -0.2445 -0.7882
  982MOL0     C35384   4.816   3.916   6.600 -0.8456  0.1630 -1.1242
  982MOL0     C35385   4.772   3.783   6.574 -0.1877  0.0952  0.2154
  982MOL0     O35386   4.674   3.777   6.481 -0.5117 -0.7984 -0.3549
  982MOL0     C35387   4.571   3.678   6.473 -0.0308  0.1731 -0.4024
  982MOL0     C35388   4.457   3.738   6.384 -0.2685 -0.7639 -0.5564
  982MOL0     C35389   4.347   3.642   6.352  0.4949 -0.6068  0.5836
  982MOL0     C35390   4.243   3.706   6.265 -0.9261  0.4655  0.1380
  982MOL0     C35391   4.125   3.616   6.237  0.0095 -0.2991 -0.4041
  982MOL0     C35392   4.016   3.690   6.156  0.1924 -0.2550  0.8068
  982MOL0     C35393   3.911   3.575   6.119 -0.6053 -0.1769 -0.0161
  982MOL0     C35394   3.786   3.616   6.050  0.1325 -0.0457 -0.4335
  982MOL0     N35395   3.704   3.504   6.008 -0.2775 -0.2346  0.0017
  982MOL0     C35396   3.723   3.450   5.887 -0.4062 -0.0205  0.8180
  982MOL0     C35397   3.639   3.340   5.896 -0.8301 -0.4240  0.6776
  982MOL0     C35398   3.646   3.222   5.810  0.0061  0.2013 -0.2107
  982MOL0     C35399   3.734   3.106   5.877  0.5830  0.8058  0.4215
  982MOL0     C35400   3.862   3.078   5.786 -0.2499  0.7071 -0.2461
  982MOL0     C35401   3.966   3.203   5.777  0.1879  0.2344  0.3443
  982MOL0     O35402   4.000   3.263   5.907  0.4921  0.3977 -0.6475
  982MOL0     C35403   4.131   3.244   5.934 -0.1453  0.1149 -0.3257
  982MOL0     C35404   4.215   3.356   5.927 -0.2941 -0.4914 -0.4985
  982MOL0     C35405   4.353   3.343   5.957  0.1663  0.0924 -0.1145
  982MOL0     C35406   4.425   3.476   5.949 -0.2815  0.6524 -0.1351
  982MOL0     C35407   4.407   3.224   6.010 -0.0773 -0.2163  0.5012
  982MOL0     C35408   4.555   3.205   6.054  0.9012 -0.0077  1.1402
  982MOL0     O35409   4.597   3.078   6.086  0.7644 -0.2284  0.2841
  982MOL0     C35410   4.728   3.049   6.094 -0.1221 -0.7017 -0.3472
  982MOL0     C35411   4.785   2.959   6.014 -0.5013  0.2151  0.3474
  982MOL0     C35412   4.911   2.909   6.036  0.5250  0.1136 -0.4871
  982MOL0     C35413   4.980   2.949   6.155  0.5202 -0.2650  0.5804
  982MOL0     O35414   5.103   2.897   6.194  0.0975  0.2005 -0.4688
  982MOL0     C35415   5.167   2.789   6.115 -0.2439  0.0602  0.6565
  982MOL0     C35416   5.301   2.744   6.188  0.2490  0.9092  0.1927
  982MOL0     C35417   5.388   2.655   6.108 -0.1612 -0.7954  0.0997
  982MOL0     C35418   5.354   2.506   6.097 -0.6661 -0.2867 -0.3630
  982MOL0     C35419   5.465   2.426   6.030  0.8391  0.3168  0.3380
  982MOL0     C35420   5.408   2.288   5.990  0.0971 -0.0566  0.0253
  982MOL0     C35421   5.507   2.191   5.929 -0.1495  0.1461 -0.7721
  982MOL0     C35422   5.589   2.233   5.811 -0.5284 -0.5927 -0.1275
  982MOL0    Cl35423   5.480   2.284   5.683  0.3930 -0.2349 -0.3522
  982MOL0     C35424   4.917   3.038   6.241 -0.2787 -0.6172  0.4451
  982MOL0     C35425   4.790   3.089   6.215  0.8920 -0.6850  0.1212
  982MOL0     O35426   4.626   3.304   6.050  0.3435 -0.3359 -0.1896
  982MOL0     C35427   4.323   3.114   6.024 -1.3054  0.0300  0.4080
  982MOL0     C35428   4.188   3.120   5.987  0.2556  0.7124  0.0617
  982MOL0     N35429   3.565   3.348   6.007  0.1764 -0.4832  0.2247
  982MOL0     N35430   3.614   3.444   6.079  0.1902  0.0283 -0.8387
  982MOL0     C35431   4.820   3.677   6.642  0.5806  0.4938  0.0442
  982MOL0     C35432   4.923   3.703   6.738  0.2217  0.0866  0.7402
  982MOL0     C35433   5.282   3.795   6.981  1.1217 -0.3444 -0.3554
  982MOL0     C35434   5.388   3.875   6.963  0.0350 -0.2206 -0.6911
  982MOL0     C35435   5.465   3.896   7.076 -0.1246  0.0531  0.2713
  982MOL0     C35436   5.442   3.842   7.206  0.1551  0.4115 -0.4192
  982MOL0     O35437   5.538   3.876   7.310  0.5230 -0.4223  0.3554
  982MOL0     C35438   5.540   3.803   7.436  0.4522  0.2268  0.5158
  982MOL0     C35439   5.651   3.840   7.513  0.1080 -0.4477 -0.5792
  982MOL0     C35440   5.666   3.993   7.537  0.8202  0.3597 -0.8176
  982MOL0     C35441   5.788   4.061   7.465 -0.0589  0.8637 -0.0069
  982MOL0     C35442   5.920   4.042   7.539  0.4739  0.2803  0.3578
  982MOL0     C35443   6.021   4.039   7.597 -0.4358 -1.1079  0.5946
  982MOL0     C35444   5.329   3.761   7.222 -0.1680 -0.1229 -0.2886
  982MOL0     C35445   5.247   3.745   7.107 -0.4332 -0.6596 -1.2834
  982MOL0     C35446   5.128   3.652   7.125  0.2198  0.4663 -0.4074
  982MOL0     H35447   4.945   4.041   6.708 -0.9804  0.4707 -3.9120
  982MOL0     H35448   4.775   4.000   6.545 -0.5641 -0.0203 -1.6208
  982MOL0     H35449   4.531   3.649   6.570  1.1258  3.2152  1.1037
  982MOL0     H35450   4.620   3.589   6.433 -0.6639 -1.5746  2.4390
  982MOL0     H35451   4.402   3.811   6.444  1.8518  0.2089  0.3193
  982MOL0     H35452   4.513   3.778   6.299  2.9349 -1.3137  1.1157
  982MOL0     H35453   4.384   3.552   6.302 -0.8397 -2.9270  3.4056
  982MOL0     H35454   4.299   3.602   6.442  0.5340 -2.1514 -0.0513
  982MOL0     H35455   4.208   3.798   6.313 -1.5973  0.9328 -1.2042
  982MOL0     H35456   4.291   3.743   6.174  0.1286  1.3169  1.0089
  982MOL0     H35457   4.098   3.580   6.336  0.7348  0.7614  0.2019
  982MOL0     H35458   4.163   3.535   6.174  0.2156  0.9430 -1.9606
  982MOL0     H35459   3.984   3.779   6.210  1.1868  1.3179 -1.0766
  982MOL0     H35460   4.049   3.728   6.059 -2.0093  1.8337  0.7971
  982MOL0     H35461   3.880   3.537   6.216  0.4404  2.3678  1.4336
  982MOL0     H35462   3.962   3.499   6.059  0.0359 -0.3385  0.7180
  982MOL0     H35463   3.731   3.682   6.119 -1.5894 -2.6155  0.8032
  982MOL0     H35464   3.810   3.680   5.965  0.4322  0.6161  0.1406
  982MOL0     H35465   3.809   3.467   5.823 -0.7587 -1.1201 -0.0037
  982MOL0     H35466   3.685   3.255   5.714  1.1694  0.8545  0.4644
  982MOL0     H35467   3.547   3.184   5.786  0.6578 -0.7987 -1.4042
  982MOL0     H35468   3.771   3.144   5.972 -0.4383  1.0931  0.7218
  982MOL0     H35469   3.683   3.012   5.900  0.3445  1.0934  1.1098
  982MOL0     H35470   3.913   2.986   5.816 -4.3671 -1.1895  1.6529
  982MOL0     H35471   3.828   3.062   5.683 -0.0969  0.5785 -0.2768
  982MOL0     H35472   4.056   3.158   5.734  0.2810 -0.8295  1.5770
  982MOL0     H35473   3.926   3.280   5.710  0.0420 -1.3915 -1.5287
  982MOL0     H35474   4.172   3.447   5.887 -3.1540 -2.6522 -2.6828
  982MOL0     H35475   4.452   3.495   6.053 -0.7021 -0.8322  0.2657
  982MOL0     H35476   4.369   3.562   5.911  0.2378 -0.3269 -3.4597
  982MOL0     H35477   4.510   3.459   5.882 -0.8707 -0.9124 -0.5284
  982MOL0     H35478   4.733   2.939   5.921  1.9293 -0.4783 -0.9701
  982MOL0     H35479   4.948   2.838   5.962  0.4026 -1.6089  1.0393
  982MOL0     H35480   5.099   2.706   6.094  0.9788 -0.6696 -0.5358
  982MOL0     H35481   5.197   2.833   6.019 -0.6978  0.7778  0.8324
  982MOL0     H35482   5.361   2.835   6.200 -0.0935  1.0739  0.7103
  982MOL0     H35483   5.288   2.687   6.281  0.8656 -0.3020 -0.4486
  982MOL0     H35484   5.488   2.655   6.152  1.2325  1.6030 -2.6569
  982MOL0     H35485   5.403   2.703   6.010 -0.1334  0.6401  0.7793
  982MOL0     H35486   5.269   2.489   6.030  1.1644 -3.5772 -2.0595
  982MOL0     H35487   5.337   2.453   6.191 -2.2825 -1.0137 -1.0332
  982MOL0     H35488   5.510   2.481   5.948 -0.0281  0.7901  0.1626
  982MOL0     H35489   5.541   2.418   6.108 -0.0965  2.0510  1.4982
  982MOL0     H35490   5.331   2.296   5.913  1.8912 -0.1277 -1.8974
  982MOL0     H35491   5.356   2.242   6.074  2.9514 -0.9903  1.4212
  982MOL0     H35492   5.441   2.114   5.888 -0.3563 -0.3872  0.5002
  982MOL0     H35493   5.579   2.150   6.000 -2.9056 -3.0208  0.4465
  982MOL0     H35494   5.651   2.152   5.771 -0.8970 -0.5921 -0.7115
  982MOL0     H35495   5.659   2.313   5.838  1.2830 -1.6815 -1.3599
  982MOL0     H35496   4.968   3.069   6.331 -1.7564 -2.3597  1.9506
  982MOL0     H35497   4.726   3.147   6.281  1.5175 -0.1207  0.2477
  982MOL0     H35498   4.363   3.021   6.062 -0.9786  0.1155  0.2680
  982MOL0     H35499   4.131   3.028   5.991 -0.7052  1.3346  2.6369
  982MOL0     H35500   4.780   3.578   6.621 -0.2285  1.5130 -4.0601
  982MOL0     H35501   4.980   3.624   6.785  1.9089  1.1832  0.6156
  982MOL0     H35502   5.418   3.924   6.871  0.2058  2.7847  0.8285
  982MOL0     H35503   5.546   3.966   7.058 -0.9627  0.4919 -2.0270
  982MOL0     H35504   5.452   3.839   7.490 -0.6437 -1.2130 -0.2548
  982MOL0     H35505   5.530   3.694   7.430 -0.0397  0.3454 -1.8848
  982MOL0     H35506   5.742   3.809   7.461  0.5172 -0.0818 -0.0897
  982MOL0     H35507   5.637   3.792   7.610  2.7819 -0.0665  0.0679
  982MOL0     H35508   5.573   4.037   7.500 -0.1608  0.5474  1.6912
  982MOL0     H35509   5.672   4.010   7.645 -0.6145 -1.2102 -0.4428
  982MOL0     H35510   5.770   4.168   7.448 -4.5424  0.0665 -1.7496
  982MOL0     H35511   5.790   4.017   7.365 -3.3401 -0.7614  0.5088
  982MOL0     H35512   6.121   4.051   7.633 -0.6574  0.4829  0.7248
  982MOL0     H35513   5.311   3.715   7.318 -0.5282  0.2774 -0.1656
  982MOL0     H35514   5.066   3.646   7.035  1.4381 -0.8981 -1.1799
  982MOL0     H35515   5.167   3.552   7.141 -0.9682 -0.1664 -1.3187
  982MOL0     H35516   5.057   3.678   7.204  0.1631 -0.2902 -0.2059
  983MOL0     O35517   9.538  11.013   9.108 -0.0410  0.8592  0.1140
  983MOL0     C35518   9.586  11.098   9.171 -0.6563  0.0903 -0.0368
  983MOL0     O35519   9.720  11.138   9.166 -0.3982  0.3597  0.1515
  983MOL0     C35520   9.813  11.061   9.103 -0.4369  0.7140 -1.0505
  983MOL0     C35521   9.825  10.923   9.135  0.2578 -1.2283  0.0503
  983MOL0     C35522   9.936  10.866   9.085  1.3275 -0.8702  0.2359
  983MOL0     C35523  10.022  10.927   8.990  0.2111 -0.1000  0.2246
  983MOL0     O35524  10.109  10.832   8.931  0.1213  0.5252  0.0271
  983MOL0     C35525  10.231  10.885   8.883 -0.2309  0.1616  0.0914
  983MOL0     C35526  10.337  10.772   8.889  0.2819  0.3701  0.6351
  983MOL0     C35527  10.458  10.781   8.800 -0.3775  0.1762  0.5823
  983MOL0     C35528  10.557  10.890   8.853 -0.2992  0.2077 -0.1235
  983MOL0     C35529  10.700  10.884   8.790  0.3956  0.0994  0.3855
  983MOL0     C35530  10.788  10.769   8.838 -0.7005 -0.2360 -0.2443
  983MOL0     C35531  10.941  10.796   8.797  0.3123 -0.0968 -0.3379
  983MOL0     C35532  11.024  10.675   8.833  0.4252 -0.8716 -0.2238
  983MOL0     N35533  11.160  10.715   8.818  0.0232 -0.8472  0.7255
  983MOL0     C35534  11.233  10.693   8.707 -0.2166 -0.3661  0.4963
  983MOL0     C35535  11.362  10.718   8.741  0.4495 -0.0163  0.0808
  983MOL0     C35536  11.478  10.682   8.642 -0.0325 -0.6051 -0.2756
  983MOL0     C35537  11.545  10.806   8.580 -0.6817 -0.2015 -0.1466
  983MOL0     C35538  11.681  10.759   8.554  0.6559  0.6205 -0.6447
  983MOL0     C35539  11.769  10.839   8.474 -0.8860 -0.3552 -0.0095
  983MOL0     O35540  11.906  10.796   8.499  0.2227 -0.1532 -0.3312
  983MOL0     C35541  12.007  10.884   8.476  0.5633  0.1496 -0.1331
  983MOL0     C35542  12.050  10.995   8.548 -0.4072  0.1858 -1.6783
  983MOL0     C35543  12.149  11.088   8.500  1.1005  0.2726  0.3878
  983MOL0     C35544  12.179  11.212   8.586  0.2120  0.2733  0.5512
  983MOL0     C35545  12.221  11.050   8.386 -0.9165  0.3463  0.0107
  983MOL0     C35546  12.359  11.090   8.357  0.0058 -0.5230 -0.0378
  983MOL0     O35547  12.405  11.068   8.233 -0.4202 -0.2366  0.5050
  983MOL0     C35548  12.526  11.123   8.197  0.4352  1.0497 -0.2466
  983MOL0     C35549  12.540  11.257   8.184 -0.1102 -0.5139  0.2289
  983MOL0     C35550  12.663  11.305   8.142  0.2031  0.4481  0.2920
  983MOL0     C35551  12.765  11.224   8.106 -0.2430 -0.1846 -0.7871
  983MOL0     O35552  12.891  11.271   8.062  0.9647  0.2703  0.4267
  983MOL0     C35553  12.999  11.258   8.155 -0.1876 -0.3882 -0.5127
  983MOL0     C35554  13.136  11.268   8.088  0.0519  0.4678  0.7435
  983MOL0     C35555  13.240  11.226   8.186  1.0837 -0.2996 -0.1813
  983MOL0     C35556  13.383  11.223   8.142 -0.8951 -0.0480 -0.0152
  983MOL0     C35557  13.434  11.373   8.139 -1.0832 -0.1321  0.6836
  983MOL0     C35558  13.489  11.418   7.996 -0.7672 -0.0135  0.0105
  983MOL0     C35559  13.393  11.425   7.883 -0.3967  0.1171 -0.2658
  983MOL0     C35560  13.454  11.401   7.742  0.7803  0.1649 -0.3645
  983MOL0    Cl35561  13.592  11.284   7.738  0.4504  0.2150 -0.5294
  983MOL0     C35562  12.738  11.088   8.096  0.3519  0.5160  0.2581
  983MOL0     C35563  12.618  11.034   8.147 -0.2578  0.7884  0.6148
  983MOL0     O35564  12.423  11.150   8.444 -0.3058 -0.6469  0.0459
  983MOL0     C35565  12.164  10.947   8.304  0.5371  0.5900 -0.7374
  983MOL0     C35566  12.061  10.868   8.348 -0.3431 -0.4516  0.0073
  983MOL0     N35567  11.367  10.768   8.871 -0.5242 -0.8977 -0.3140
  983MOL0     N35568  11.243  10.769   8.914 -1.0893 -0.2851  0.0573
  983MOL0     C35569  10.018  11.066   8.961  0.5856  0.6557  0.8955
  983MOL0     C35570   9.911  11.132   9.028 -0.4529 -0.1703  0.0200
  983MOL0     C35571   9.500  11.189   9.247  0.3144 -0.1468  0.6458
  983MOL0     C35572   9.562  11.292   9.321  1.1419 -0.4112  0.8112
  983MOL0     C35573   9.485  11.396   9.374  0.5539 -1.3078 -0.1466
  983MOL0     C35574   9.344  11.394   9.374 -0.3760 -0.0208 -0.1359
  983MOL0     O35575   9.282  11.489   9.464 -0.2210  0.0232  0.5764
  983MOL0     C35576   9.144  11.490   9.480 -0.8785 -0.4125 -0.2824
  983MOL0     C35577   9.087  11.622   9.421 -0.1569  0.1285  0.2368
  983MOL0     C35578   9.064  11.614   9.271  0.0833  0.6588 -0.0711
  983MOL0     C35579   8.927  11.548   9.228 -0.1157  0.6862 -0.0797
  983MOL0     C35580   8.899  11.407   9.259  0.2420  0.6874  0.4959
  983MOL0     C35581   8.869  11.289   9.288 -0.6708 -0.5545 -0.9146
  983MOL0     C35582   9.282  11.296   9.289 -0.2803 -0.5233 -0.3567
  983MOL0     C35583   9.358  11.193   9.234  0.9485  0.2377 -0.4709
  983MOL0     C35584   9.273  11.089   9.165  0.5675  1.1964 -0.0738
  983MOL0     H35585   9.756  10.859   9.189 -1.1848  1.9894  2.3767
  983MOL0     H35586   9.955  10.768   9.128 -1.4668 -1.5207  0.1321
  983MOL0     H35587  10.266  10.970   8.942  3.3635  1.3330 -3.3049
  983MOL0     H35588  10.238  10.923   8.780 -0.2148 -2.3486 -0.9053
  983MOL0     H35589  10.368  10.742   8.989  3.6720 -2.4449 -1.0174
  983MOL0     H35590  10.274  10.687   8.859  1.8143  0.0889 -2.1793
  983MOL0     H35591  10.513  10.687   8.797 -0.3989  0.1076  1.9222
  983MOL0     H35592  10.431  10.813   8.698 -0.2270  2.2441  1.1466
  983MOL0     H35593  10.512  10.985   8.822 -0.1205  0.0157 -0.9966
  983MOL0     H35594  10.564  10.895   8.962  0.3648  4.0093 -0.1912
  983MOL0     H35595  10.745  10.982   8.806 -1.4775  1.1583 -0.4308
  983MOL0     H35596  10.677  10.873   8.683 -0.4670 -0.5641  0.6228
  983MOL0     H35597  10.793  10.778   8.947  0.3090  1.4802 -0.3909
  983MOL0     H35598  10.763  10.666   8.812  2.2521 -1.5541  1.5518
  983MOL0     H35599  10.981  10.883   8.851  0.6197 -0.3450 -0.1670
  983MOL0     H35600  10.958  10.826   8.693  4.1784 -0.6433 -0.0198
  983MOL0     H35601  11.003  10.656   8.939 -0.2420  0.3532 -0.1226
  983MOL0     H35602  11.003  10.583   8.777 -0.7205 -0.3896 -0.6060
  983MOL0     H35603  11.208  10.658   8.608  0.4850 -1.8514  0.8165
  983MOL0     H35604  11.448  10.604   8.571  1.7601  1.2567 -3.2501
  983MOL0     H35605  11.554  10.637   8.707  1.4043  0.1245 -1.3910
  983MOL0     H35606  11.488  10.842   8.494 -0.6942  0.9917  0.3409
  983MOL0     H35607  11.547  10.884   8.657 -2.7296  0.5486 -0.7908
  983MOL0     H35608  11.729  10.745   8.652 -0.3313 -2.1128 -0.4692
  983MOL0     H35609  11.671  10.659   8.511  0.4670 -0.9026  2.6000
  983MOL0     H35610  11.757  10.821   8.366 -1.0731 -1.1185  0.1335
  983MOL0     H35611  11.772  10.946   8.497  2.5384 -0.6127  1.1772
  983MOL0     H35612  12.020  11.021   8.649  1.0838 -2.0943 -0.5623
  983MOL0     H35613  12.240  11.182   8.672  0.9633 -0.9425 -0.3658
  983MOL0     H35614  12.089  11.258   8.628  0.7022  2.3360 -0.5363
  983MOL0     H35615  12.222  11.298   8.534 -0.8884 -1.0226 -2.7990
  983MOL0     H35616  12.455  11.322   8.204 -0.1932 -1.4343  3.4637
  983MOL0     H35617  12.686  11.411   8.134 -0.0177  0.5770  1.2394
  983MOL0     H35618  12.997  11.331   8.236  1.8298 -2.9280  2.0322
  983MOL0     H35619  12.983  11.161   8.204 -1.2361  1.3590  2.9067
  983MOL0     H35620  13.149  11.203   8.001 -1.6754  0.2590  0.5978
  983MOL0     H35621  13.160  11.372   8.063 -3.3101  1.8096  2.4221
  983MOL0     H35622  13.230  11.118   8.205  6.6918 -1.3109 -1.3123
  983MOL0     H35623  13.230  11.283   8.279  1.2977  2.2084 -1.6202
  983MOL0     H35624  13.402  11.176   8.045 -0.5457 -0.9278  0.4759
  983MOL0     H35625  13.438  11.161   8.214 -0.9028  0.0425  0.0688
  983MOL0     H35626  13.358  11.449   8.158 -1.8469 -0.3429 -1.2784
  983MOL0     H35627  13.515  11.391   8.211 -1.3868  1.4566  0.6616
  983MOL0     H35628  13.575  11.353   7.979 -1.0377 -1.0336  2.2084
  983MOL0     H35629  13.527  11.520   8.006  0.6320 -0.4948 -0.1482
  983MOL0     H35630  13.339  11.518   7.899 -0.3567 -0.4232  4.3905
  983MOL0     H35631  13.322  11.342   7.884 -0.9860  0.5920 -1.4634
  983MOL0     H35632  13.492  11.496   7.705  1.4790 -0.6993 -1.9641
  983MOL0     H35633  13.374  11.372   7.673 -0.7214  3.3831 -0.1456
  983MOL0     H35634  12.810  11.022   8.050  1.2921  1.4494  0.3511
  983MOL0     H35635  12.612  10.925   8.143 -0.5127  0.7769  1.3487
  983MOL0     H35636  12.198  10.902   8.211 -0.3222 -1.0309 -0.2999
  983MOL0     H35637  12.027  10.775   8.302 -1.0317 -0.0192 -0.3765
  983MOL0     H35638  10.083  11.122   8.896  0.6470 -0.1081  0.2812
  983MOL0     H35639   9.905  11.241   9.024 -0.4110 -0.1526  0.4264
  983MOL0     H35640   9.669  11.300   9.336  1.7514  0.2782 -2.9178
  983MOL0     H35641   9.529  11.474   9.435  1.0930  0.8585 -3.0578
  983MOL0     H35642   9.089  11.406   9.436  0.5807 -1.5069 -0.1217
  983MOL0     H35643   9.128  11.491   9.588  0.0558 -1.2738 -0.1202
  983MOL0     H35644   9.164  11.700   9.430 -0.2394  0.4513 -1.4994
  983MOL0     H35645   8.988  11.641   9.464 -0.6388 -4.1362  1.4795
  983MOL0     H35646   9.072  11.717   9.233  1.3012  1.2275  1.6117
  983MOL0     H35647   9.140  11.553   9.223 -0.9703 -1.0225  0.3160
  983MOL0     H35648   8.904  11.569   9.123 -3.2187 -2.9215 -0.3488
  983MOL0     H35649   8.852  11.598   9.290 -0.9753  0.1919 -0.7004
  983MOL0     H35650   8.854  11.190   9.325  0.6464  0.4342  2.6435
  983MOL0     H35651   9.173  11.298   9.286 -0.3329  1.7378  0.9197
  983MOL0     H35652   9.168  11.089   9.195 -0.4707 -1.2560 -3.2214
  983MOL0     H35653   9.272  11.115   9.059  1.7763 -0.6768 -0.5868
  983MOL0     H35654   9.304  10.985   9.179 -2.6134 -0.0367 -1.3568
  984MOL0     O35655   0.302   5.717   3.265 -0.2635 -0.1630 -0.3641
  984MOL0     C35656   0.256   5.764   3.373 -0.2946 -0.0093  0.4847
  984MOL0     O35657   0.123   5.783   3.398 -0.6334  0.9274  0.6150
  984MOL0     C35658   0.036   5.752   3.300  0.0213  0.2575  0.1729
  984MOL0     C35659   0.003   5.619   3.276 -0.7490 -0.6304 -0.4427
  984MOL0     C35660  -0.079   5.591   3.163  0.5692 -0.2017 -0.2520
  984MOL0     C35661  -0.135   5.699   3.085 -0.1129  0.3251  0.2007
  984MOL0     O35662  -0.224   5.685   2.982 -0.4393  0.2878  0.1843
  984MOL0     C35663  -0.199   5.577   2.899 -0.0419  0.2318 -0.1918
  984MOL0     C35664  -0.281   5.574   2.763 -0.5034 -0.3234 -0.8758
  984MOL0     C35665  -0.267   5.706   2.695  0.2880  0.1371 -0.6533
  984MOL0     C35666  -0.325   5.706   2.550  0.4881  0.3774 -0.0930
  984MOL0     C35667  -0.298   5.836   2.478  0.2250 -0.0702 -1.1169
  984MOL0     C35668  -0.144   5.843   2.438 -0.4678 -0.5668  0.9295
  984MOL0     C35669  -0.120   5.961   2.336  0.2874 -0.2211 -0.2542
  984MOL0     C35670  -0.174   6.102   2.387  0.9467  0.6412 -0.2504
  984MOL0     N35671  -0.117   6.217   2.310  0.6902  0.3817  0.0182
  984MOL0     C35672   0.012   6.264   2.324  0.5502  0.0064 -0.2591
  984MOL0     C35673   0.024   6.345   2.216 -0.3884 -1.0401  1.0769
  984MOL0     C35674   0.150   6.425   2.165 -0.4683  0.4859  0.5983
  984MOL0     C35675   0.236   6.317   2.097 -0.4746  0.5357 -0.1585
  984MOL0     C35676   0.365   6.375   2.038  0.0038  0.7074  0.8029
  984MOL0     C35677   0.454   6.453   2.143 -0.4500 -0.4284 -0.0997
  984MOL0     O35678   0.572   6.488   2.067 -0.3598  0.0800  0.0926
  984MOL0     C35679   0.678   6.564   2.124  0.6512  0.3019 -0.7444
  984MOL0     C35680   0.785   6.565   2.044 -0.2817  0.7277  0.2658
  984MOL0     C35681   0.890   6.651   2.072  0.4619  0.0192 -0.1742
  984MOL0     C35682   1.010   6.657   1.986 -0.4527 -0.3757 -0.5325
  984MOL0     C35683   0.880   6.731   2.189  0.4365  0.8828 -0.8313
  984MOL0     C35684   0.996   6.806   2.231 -0.2128 -0.9324  0.6958
  984MOL0     O35685   1.123   6.751   2.221  0.4159  0.2750  0.1812
  984MOL0     C35686   1.232   6.823   2.264 -1.2659  0.2947 -0.1198
  984MOL0     C35687   1.337   6.760   2.335 -0.0968 -0.3818 -0.5111
  984MOL0     C35688   1.449   6.832   2.380 -0.0038  0.0468 -0.1177
  984MOL0     C35689   1.460   6.970   2.356  0.0786  0.3050 -0.0569
  984MOL0     O35690   1.573   7.035   2.403 -0.6361  0.0363  1.2631
  984MOL0     C35691   1.605   7.162   2.335  0.4254  0.3335  0.4592
  984MOL0     C35692   1.739   7.223   2.383 -0.3433 -0.8045  0.8142
  984MOL0     C35693   1.718   7.273   2.530  0.2849 -0.4178 -0.4973
  984MOL0     C35694   1.850   7.313   2.597  0.4285  0.7409  0.0521
  984MOL0     C35695   1.820   7.364   2.735  0.1252 -0.4204  0.3342
  984MOL0     C35696   1.937   7.424   2.819  0.0365  0.4751  0.3974
  984MOL0     C35697   1.902   7.444   2.974  0.0174 -0.4067 -0.8449
  984MOL0     C35698   2.019   7.402   3.064 -0.7465  0.4869  0.6868
  984MOL0    Cl35699   2.180   7.491   3.021 -0.1206 -0.2903 -0.2421
  984MOL0     C35700   1.358   7.036   2.287 -0.3729  0.4226 -0.0252
  984MOL0     C35701   1.240   6.962   2.249  0.1730  0.0535  0.4500
  984MOL0     O35702   0.970   6.911   2.287 -0.5381  0.1279 -0.4008
  984MOL0     C35703   0.770   6.715   2.274 -0.0932  0.4570  0.1881
  984MOL0     C35704   0.671   6.629   2.242  0.3981 -0.2540  0.3210
  984MOL0     N35705  -0.091   6.345   2.142 -0.5122 -0.0870  0.1335
  984MOL0     N35706  -0.177   6.267   2.195  0.0348 -0.1549 -1.0709
  984MOL0     C35707  -0.115   5.829   3.128  0.1564 -0.6493 -0.3778
  984MOL0     C35708  -0.027   5.857   3.238  0.2295 -0.3800  0.3847
  984MOL0     C35709   0.357   5.817   3.472 -0.0257  0.4181 -0.5801
  984MOL0     C35710   0.336   5.945   3.526  1.1591 -0.8517 -0.0106
  984MOL0     C35711   0.448   5.996   3.606  0.4308  0.2504 -0.2883
  984MOL0     C35712   0.565   5.930   3.635 -0.5719  0.3587 -0.4551
  984MOL0     O35713   0.669   5.987   3.708  0.3694  0.7203 -0.5325
  984MOL0     C35714   0.633   6.095   3.803 -0.5542  0.5228 -0.2747
  984MOL0     C35715   0.752   6.153   3.881 -0.1140  0.0170 -0.4131
  984MOL0     C35716   0.705   6.254   3.989 -0.6948 -0.6436  0.5749
  984MOL0     C35717   0.827   6.321   4.051  0.5336  0.5655 -0.1277
  984MOL0     C35718   0.874   6.235   4.166 -0.5151 -0.7451  0.9049
  984MOL0     C35719   0.913   6.190   4.273  1.3443  0.2185 -0.9003
  984MOL0     C35720   0.581   5.798   3.575  0.2429 -0.0493  0.3175
  984MOL0     C35721   0.473   5.740   3.503 -1.4035  0.0831  0.2951
  984MOL0     C35722   0.491   5.603   3.454 -0.6434 -0.7587  0.7723
  984MOL0     H35723   0.047   5.533   3.325 -1.8463 -0.6914  0.4861
  984MOL0     H35724  -0.092   5.491   3.123 -3.4663  1.0299 -2.5580
  984MOL0     H35725  -0.229   5.485   2.951 -1.9391  0.6454 -0.4970
  984MOL0     H35726  -0.091   5.574   2.881  1.1141  3.0561  4.5456
  984MOL0     H35727  -0.241   5.494   2.700  0.1389  0.8633 -2.0506
  984MOL0     H35728  -0.384   5.550   2.789 -0.4046  0.2228  0.0545
  984MOL0     H35729  -0.311   5.793   2.745 -3.7469 -0.6266 -2.4340
  984MOL0     H35730  -0.160   5.721   2.684  0.1910  1.5031  0.0300
  984MOL0     H35731  -0.284   5.622   2.493 -0.9998 -0.1678 -0.4142
  984MOL0     H35732  -0.434   5.703   2.547  0.4551  1.5808 -2.4606
  984MOL0     H35733  -0.320   5.919   2.546  0.3777 -0.7858 -0.1761
  984MOL0     H35734  -0.352   5.834   2.384 -0.5143 -2.5850 -0.6996
  984MOL0     H35735  -0.082   5.858   2.527  0.8856  0.4562 -0.1333
  984MOL0     H35736  -0.109   5.750   2.394 -1.1366 -0.4918  0.2103
  984MOL0     H35737  -0.170   5.928   2.245 -2.0817 -0.7399  1.1393
  984MOL0     H35738  -0.012   5.969   2.319  0.2698  0.9360  0.0806
  984MOL0     H35739  -0.282   6.089   2.384  0.8796 -1.2389  3.7000
  984MOL0     H35740  -0.150   6.121   2.493 -1.4344  2.5301  0.0493
  984MOL0     H35741   0.090   6.229   2.391 -0.3818 -2.7762 -0.5000
  984MOL0     H35742   0.198   6.469   2.253  2.6218  0.1966 -0.7877
  984MOL0     H35743   0.127   6.505   2.094 -1.3638  0.9246  1.3587
  984MOL0     H35744   0.262   6.235   2.165 -1.6886 -0.4892 -0.8648
  984MOL0     H35745   0.176   6.265   2.021  1.0266  1.8375 -2.3564
  984MOL0     H35746   0.426   6.304   1.982  0.6884  2.0327 -0.1977
  984MOL0     H35747   0.333   6.442   1.958  1.9117 -1.5748 -2.1082
  984MOL0     H35748   0.414   6.542   2.191 -1.0529 -1.3695  1.2018
  984MOL0     H35749   0.474   6.379   2.221 -1.1077 -0.8580 -0.3329
  984MOL0     H35750   0.813   6.514   1.953  4.3178  0.7644  1.4024
  984MOL0     H35751   1.098   6.617   2.035  1.0593  2.7998 -0.3830
  984MOL0     H35752   1.025   6.764   1.967 -3.9558  0.1291 -1.2880
  984MOL0     H35753   0.986   6.609   1.891  2.6186 -0.7100 -1.2160
  984MOL0     H35754   1.335   6.652   2.350  0.7758 -0.5609 -1.5454
  984MOL0     H35755   1.532   6.787   2.433  0.7088  3.6770  2.2031
  984MOL0     H35756   1.624   7.130   2.232  1.3738  2.5142 -0.0814
  984MOL0     H35757   1.528   7.237   2.353  0.3528 -0.4769  4.4761
  984MOL0     H35758   1.816   7.145   2.384 -0.5836 -1.0605  2.6068
  984MOL0     H35759   1.770   7.306   2.318 -0.8885  0.1680  1.7533
  984MOL0     H35760   1.660   7.200   2.587 -0.3709  0.2885 -0.2466
  984MOL0     H35761   1.646   7.354   2.520 -0.6318 -0.9850  1.1218
  984MOL0     H35762   1.891   7.384   2.525 -3.6703 -1.1978 -4.7699
  984MOL0     H35763   1.919   7.228   2.606 -0.3168 -0.0776 -1.6323
  984MOL0     H35764   1.735   7.432   2.736  1.9128  1.9989 -0.5547
  984MOL0     H35765   1.782   7.278   2.790 -0.2203  0.0796  0.9026
  984MOL0     H35766   1.963   7.521   2.776 -1.0247  1.9977  2.9317
  984MOL0     H35767   2.025   7.360   2.804  0.2272  0.8722 -0.1824
  984MOL0     H35768   1.815   7.386   3.004  1.1556 -1.8983 -0.3115
  984MOL0     H35769   1.901   7.552   2.993  1.5558 -0.8778  2.6475
  984MOL0     H35770   2.043   7.297   3.045  1.9750  1.1418  0.0829
  984MOL0     H35771   1.996   7.426   3.168 -2.5530  1.2813  0.1365
  984MOL0     H35772   1.367   7.142   2.269 -0.1991 -0.0563 -3.3475
  984MOL0     H35773   1.168   7.022   2.195 -0.9966 -1.6399  0.0464
  984MOL0     H35774   0.757   6.752   2.375 -0.9556  1.3741 -0.2516
  984MOL0     H35775   0.586   6.613   2.307  1.0861 -1.1551  1.0345
  984MOL0     H35776  -0.173   5.906   3.079  1.7819  1.3219  0.6566
  984MOL0     H35777  -0.006   5.961   3.258 -2.0634 -0.1003  1.5244
  984MOL0     H35778   0.266   6.022   3.495  3.6365  1.3094 -0.7084
  984MOL0     H35779   0.423   6.090   3.654 -1.9124 -1.0289  1.2155
  984MOL0     H35780   0.607   6.178   3.736  0.7156  0.2771 -1.1040
  984MOL0     H35781   0.547   6.070   3.865 -1.0528 -1.0552 -1.5408
  984MOL0     H35782   0.810   6.203   3.803 -1.4593  3.1932  0.4832
  984MOL0     H35783   0.809   6.069   3.923 -0.5770 -0.3437 -0.4876
  984MOL0     H35784   0.637   6.322   3.937  0.8174 -0.9004 -1.9114
  984MOL0     H35785   0.654   6.196   4.066  1.2280  0.9988  3.2313
  984MOL0     H35786   0.790   6.420   4.081  0.5666  0.5924 -0.1751
  984MOL0     H35787   0.907   6.326   3.976  2.4215 -2.1010  1.5410
  984MOL0     H35788   0.958   6.165   4.367  1.2226  0.7941 -0.6899
  984MOL0     H35789   0.668   5.743   3.608 -0.5800 -1.4703  0.1886
  984MOL0     H35790   0.395   5.555   3.474  0.4276 -2.1097  3.0347
  984MOL0     H35791   0.522   5.594   3.350 -1.5080 -1.6941  0.5690
  984MOL0     H35792   0.571   5.544   3.500  1.2557 -0.4045 -1.8163
  985MOL0     O35793   9.354   8.660  11.436  0.3542  0.3861  0.4959
  985MOL0     C35794   9.435   8.695  11.355  0.2477  0.1651  0.4219
  985MOL0     O35795   9.558   8.629  11.327 -0.5036 -0.9738 -0.0029
  985MOL0     C35796   9.600   8.531  11.407 -0.5448 -0.4236 -0.5995
  985MOL0     C35797   9.610   8.549  11.545  1.3583 -0.0522 -0.7443
  985MOL0     C35798   9.645   8.436  11.612  0.2760  0.0831 -0.3122
  985MOL0     C35799   9.668   8.309  11.558  0.5854 -0.2117  0.3308
  985MOL0     O35800   9.681   8.195  11.626 -0.1496  0.5031 -0.0148
  985MOL0     C35801   9.804   8.196  11.699 -0.0235 -1.2299 -0.4663
  985MOL0     C35802   9.800   8.080  11.803  0.4218 -0.2344  0.1954
  985MOL0     C35803   9.695   8.094  11.905 -0.3036 -1.6266 -0.2110
  985MOL0     C35804   9.724   8.008  12.025  0.9538 -0.3764  0.8233
  985MOL0     C35805   9.597   7.973  12.111 -0.1774  0.5342 -0.0256
  985MOL0     C35806   9.633   7.852  12.203  0.6884 -0.4324 -0.0472
  985MOL0     C35807   9.515   7.841  12.305  0.0170  0.8165  0.2756
  985MOL0     C35808   9.569   7.768  12.429 -0.2251  0.1171  0.9500
  985MOL0     N35809   9.657   7.652  12.405 -0.8096  0.5821 -0.2956
  985MOL0     C35810   9.635   7.518  12.375  0.4765 -0.4856 -0.0220
  985MOL0     C35811   9.759   7.455  12.388 -0.6810 -0.5716  0.0043
  985MOL0     C35812   9.776   7.312  12.360 -0.7383  0.0560  0.3670
  985MOL0     C35813   9.911   7.262  12.390 -0.6210  0.9241  0.2986
  985MOL0     C35814   9.952   7.272  12.537 -0.2971 -0.1965 -0.6877
  985MOL0     C35815  10.063   7.165  12.567  0.0486  0.3515 -0.4807
  985MOL0     O35816  10.138   7.224  12.670  0.1198  1.1902 -0.3565
  985MOL0     C35817  10.266   7.180  12.697 -0.3420  0.2449 -1.0163
  985MOL0     C35818  10.347   7.269  12.761  0.7147 -0.3213  0.4700
  985MOL0     C35819  10.485   7.247  12.753  0.0264 -0.1457 -0.2985
  985MOL0     C35820  10.566   7.341  12.837 -0.1674  0.5862  0.2587
  985MOL0     C35821  10.540   7.138  12.692 -0.2353 -0.1051 -0.0266
  985MOL0     C35822  10.689   7.123  12.674  0.1971 -0.6459  0.5648
  985MOL0     O35823  10.731   6.991  12.649  0.9636 -0.1328 -0.3894
  985MOL0     C35824  10.867   6.979  12.645  0.1015 -0.5869 -0.8080
  985MOL0     C35825  10.943   6.958  12.534 -1.0442  0.6187 -0.6098
  985MOL0     C35826  11.079   6.926  12.557 -0.6363  0.0247  0.2431
  985MOL0     C35827  11.132   6.911  12.690 -0.6848  0.6713  0.1966
  985MOL0     O35828  11.264   6.896  12.726 -0.0851 -0.3919 -0.1738
  985MOL0     C35829  11.361   6.847  12.634 -0.1979  0.3364 -0.5263
  985MOL0     C35830  11.497   6.874  12.711  0.6311  0.1933  0.5613
  985MOL0     C35831  11.534   7.020  12.711  0.5561  0.3733  0.6154
  985MOL0     C35832  11.676   7.041  12.705 -0.7395 -0.9435  0.4107
  985MOL0     C35833  11.719   7.176  12.643 -0.7684  0.4482 -0.3439
  985MOL0     C35834  11.696   7.190  12.493  0.1087  0.4260 -0.1489
  985MOL0     C35835  11.773   7.085  12.415  0.7186  0.4172  0.9801
  985MOL0     C35836  11.783   7.129  12.267 -0.7264  0.0421  0.4155
  985MOL0    Cl35837  11.615   7.153  12.202 -0.0068 -0.2396 -0.0290
  985MOL0     C35838  11.052   6.924  12.797 -0.6421 -0.4522  0.5473
  985MOL0     C35839  10.918   6.960  12.776  0.4360  0.5933  1.0900
  985MOL0     O35840  10.759   7.224  12.680  0.2956 -0.0577 -0.3368
  985MOL0     C35841  10.451   7.046  12.636 -0.4324  0.4580 -0.6112
  985MOL0     C35842  10.316   7.068  12.629  0.1944  1.1866 -0.6783
  985MOL0     N35843   9.855   7.552  12.407 -0.0811 -1.0911 -0.4019
  985MOL0     N35844   9.794   7.666  12.424 -0.3192  0.2439  0.3160
  985MOL0     C35845   9.642   8.295  11.422  0.2846 -0.2561 -0.0802
  985MOL0     C35846   9.618   8.409  11.350 -0.4964 -0.4396  0.4890
  985MOL0     C35847   9.392   8.795  11.257  0.2611 -0.0190 -0.0702
  985MOL0     C35848   9.253   8.826  11.243  0.2044  0.0963  0.0285
  985MOL0     C35849   9.202   8.918  11.161 -0.4810 -0.3151  0.4165
  985MOL0     C35850   9.287   8.986  11.072  0.1312 -0.0988  0.4361
  985MOL0     O35851   9.247   9.088  10.991 -0.0069  0.3857 -0.1322
  985MOL0     C35852   9.123   9.156  11.019  0.0927  0.1751  0.4818
  985MOL0     C35853   9.009   9.098  10.930  0.8132  0.3401 -1.0302
  985MOL0     C35854   8.879   9.154  10.982  0.5107  0.0693  1.1528
  985MOL0     C35855   8.863   9.294  10.927 -0.1086  0.5779  0.3316
  985MOL0     C35856   8.745   9.345  10.987  0.1176  0.1726 -0.5853
  985MOL0     C35857   8.639   9.380  11.037  0.6942  0.1746 -0.9837
  985MOL0     C35858   9.425   8.956  11.071 -0.3526  0.2724  1.6796
  985MOL0     C35859   9.477   8.864  11.157  0.3766  0.1036 -0.4218
  985MOL0     C35860   9.631   8.851  11.157  0.1692  0.1397  0.5210
  985MOL0     H35861   9.603   8.647  11.590 -3.1407  0.9310 -2.9812
  985MOL0     H35862   9.640   8.445  11.720 -0.4152  0.8584 -0.4017
  985MOL0     H35863   9.820   8.289  11.753  0.6270 -0.6080 -1.6887
  985MOL0     H35864   9.889   8.195  11.630  0.7280  1.2044  0.3116
  985MOL0     H35865   9.786   7.985  11.751  0.6074  0.6211 -1.4988
  985MOL0     H35866   9.896   8.085  11.856  1.3089 -0.3875 -1.3316
  985MOL0     H35867   9.697   8.200  11.933  1.6046 -0.8980 -2.7553
  985MOL0     H35868   9.595   8.073  11.865 -1.3899 -1.0084  2.0029
  985MOL0     H35869   9.760   7.914  11.982 -0.2117  0.2036 -1.5834
  985MOL0     H35870   9.797   8.045  12.098 -0.0783  0.1691  1.6080
  985MOL0     H35871   9.517   7.945  12.042  0.5412 -2.6967  0.3061
  985MOL0     H35872   9.563   8.056  12.174  2.6543  0.4412  1.8251
  985MOL0     H35873   9.654   7.757  12.155  0.9377 -1.2505  1.6165
  985MOL0     H35874   9.725   7.878  12.256  0.7564 -0.0344 -0.3542
  985MOL0     H35875   9.434   7.786  12.257  0.3441  0.0554  0.5754
  985MOL0     H35876   9.480   7.940  12.336 -0.3064  1.8296 -2.9678
  985MOL0     H35877   9.628   7.849  12.473  0.4514  0.9456 -1.2870
  985MOL0     H35878   9.479   7.748  12.487 -0.8312  0.3618  0.1215
  985MOL0     H35879   9.540   7.471  12.353 -0.1417  0.5938  0.2998
  985MOL0     H35880   9.751   7.305  12.253 -0.5775  0.8438  0.2748
  985MOL0     H35881   9.711   7.252  12.425 -2.0784 -0.2799 -1.2122
  985MOL0     H35882   9.912   7.159  12.353  0.4243  1.4450 -1.2193
  985MOL0     H35883   9.995   7.309  12.338  1.4857  1.0099  3.4562
  985MOL0     H35884   9.990   7.367  12.575 -0.6221 -0.5031  0.4359
  985MOL0     H35885   9.862   7.250  12.596 -1.4238 -1.7825 -2.8498
  985MOL0     H35886  10.020   7.066  12.586  0.1623  0.0654 -1.6343
  985MOL0     H35887  10.121   7.160  12.474 -2.4877  2.4271 -2.3082
  985MOL0     H35888  10.304   7.356  12.809  0.5296 -1.0165  1.5890
  985MOL0     H35889  10.503   7.385  12.914  0.9142  1.1999  0.8136
  985MOL0     H35890  10.616   7.419  12.779 -0.9147  2.9550  2.6211
  985MOL0     H35891  10.638   7.290  12.902 -2.1113 -0.1120  1.9821
  985MOL0     H35892  10.906   6.950  12.432 -0.8631  1.5740 -0.7588
  985MOL0     H35893  11.139   6.903  12.469  1.9471 -0.4242  2.0021
  985MOL0     H35894  11.347   6.738  12.631 -0.9967  0.3023  1.9468
  985MOL0     H35895  11.362   6.890  12.534  1.4640  0.7344 -0.3622
  985MOL0     H35896  11.493   6.839  12.814  1.4679  3.6336  1.9052
  985MOL0     H35897  11.574   6.817  12.659 -0.2898 -1.0618  0.5408
  985MOL0     H35898  11.504   7.071  12.803  2.5318  0.3363  1.3432
  985MOL0     H35899  11.487   7.077  12.631  0.6416  2.5390  2.0105
  985MOL0     H35900  11.729   6.964  12.647 -0.3222 -0.3702  0.0194
  985MOL0     H35901  11.719   7.034  12.806  2.6641 -1.0612 -0.9098
  985MOL0     H35902  11.655   7.251  12.690  0.4394  1.7451 -0.6923
  985MOL0     H35903  11.825   7.193  12.665 -0.7470  1.9235 -1.4430
  985MOL0     H35904  11.740   7.285  12.462  1.5902 -0.6749 -1.5945
  985MOL0     H35905  11.591   7.171  12.467  0.0483  0.9666 -0.3072
  985MOL0     H35906  11.731   6.985  12.409  2.5711 -0.3204 -2.7837
  985MOL0     H35907  11.874   7.071  12.455  1.5600  0.2321 -1.0866
  985MOL0     H35908  11.834   7.049  12.212 -1.8954 -1.4028  1.3530
  985MOL0     H35909  11.837   7.222  12.250 -1.4220  0.0394 -2.2352
  985MOL0     H35910  11.106   6.913  12.891  0.3788  0.9665  0.1579
  985MOL0     H35911  10.861   6.970  12.868  0.7474  1.4718  1.1963
  985MOL0     H35912  10.490   6.967  12.572  0.0369  0.5235 -0.4095
  985MOL0     H35913  10.259   6.989  12.580  1.6904 -0.7649  0.5837
  985MOL0     H35914   9.637   8.197  11.376 -0.9270  0.5865 -1.8245
  985MOL0     H35915   9.578   8.403  11.249 -1.2426 -0.2334  0.7637
  985MOL0     H35916   9.177   8.774  11.299  1.4872 -0.9295  0.8557
  985MOL0     H35917   9.093   8.922  11.163 -0.5299 -0.0795 -1.3090
  985MOL0     H35918   9.087   9.146  11.121 -1.1857 -1.7393 -0.0877
  985MOL0     H35919   9.126   9.261  10.991 -5.7086 -0.1601 -2.9334
  985MOL0     H35920   9.006   8.992  10.953 -0.1669  0.7114  0.6928
  985MOL0     H35921   9.017   9.119  10.823 -2.4975  2.5675 -0.9861
  985MOL0     H35922   8.794   9.100  10.939  1.2566 -0.6266  0.5198
  985MOL0     H35923   8.867   9.152  11.090 -0.2273 -0.1302  1.0708
  985MOL0     H35924   8.844   9.301  10.819 -2.9543  0.8898  0.7824
  985MOL0     H35925   8.937   9.366  10.964 -1.0834  0.7228  2.1117
  985MOL0     H35926   8.545   9.415  11.076  1.8618  0.9484  1.3733
  985MOL0     H35927   9.493   9.003  11.001  0.4525 -1.1070  1.5005
  985MOL0     H35928   9.653   8.747  11.129 -2.4465  0.1088 -1.8200
  985MOL0     H35929   9.667   8.920  11.081 -3.7652  1.6327 -0.2492
  985MOL0     H35930   9.669   8.872  11.258  0.8139  2.1513 -0.1001
  986MOL0     O35931   6.739   4.698   9.321  0.5686  0.6392  0.4394
  986MOL0     C35932   6.724   4.620   9.417  0.1288 -0.2218  0.7150
  986MOL0     O35933   6.640   4.509   9.417 -0.4828  0.5927 -0.3990
  986MOL0     C35934   6.572   4.481   9.305 -0.1477  0.2431  0.3610
  986MOL0     C35935   6.437   4.522   9.303  0.2850 -0.3914 -0.7978
  986MOL0     C35936   6.351   4.494   9.193 -0.7963 -0.3102 -0.4388
  986MOL0     C35937   6.397   4.413   9.089 -0.0605 -0.1329  0.3004
  986MOL0     O35938   6.317   4.360   8.992 -0.8047  0.0361 -0.2989
  986MOL0     C35939   6.185   4.410   8.976 -0.0886 -0.3850 -0.6820
  986MOL0     C35940   6.126   4.306   8.884  0.0057  0.4544  0.0016
  986MOL0     C35941   6.183   4.306   8.742 -0.0761  0.3795 -0.0737
  986MOL0     C35942   6.098   4.198   8.666  0.7606 -0.5125  0.2551
  986MOL0     C35943   6.134   4.197   8.517  0.7238  0.3385 -0.5135
  986MOL0     C35944   6.063   4.298   8.424 -0.5064  0.2994 -0.3105
  986MOL0     C35945   6.096   4.266   8.275  0.1936  0.0612  0.6149
  986MOL0     C35946   6.250   4.284   8.233 -0.2068  0.5289 -0.5406
  986MOL0     N35947   6.257   4.293   8.084  0.2323  0.6736 -0.4607
  986MOL0     C35948   6.235   4.412   8.021  1.1925 -0.0290 -0.2084
  986MOL0     C35949   6.255   4.385   7.885 -0.8670 -0.0465  0.1708
  986MOL0     C35950   6.274   4.489   7.778  1.2266 -0.7819 -0.6034
  986MOL0     C35951   6.142   4.525   7.703 -0.8004  0.3131  0.3778
  986MOL0     C35952   6.040   4.611   7.782  1.5066  0.7144  0.2524
  986MOL0     C35953   5.923   4.678   7.688 -0.0344 -0.3668 -0.3360
  986MOL0     O35954   5.864   4.572   7.616 -0.2105  0.3503 -0.0297
  986MOL0     C35955   5.838   4.581   7.480 -0.1863 -0.4576 -0.2171
  986MOL0     C35956   5.786   4.695   7.416 -0.9894  0.1623  0.1474
  986MOL0     C35957   5.742   4.705   7.286  0.4639  0.4193 -0.6812
  986MOL0     C35958   5.683   4.830   7.237 -0.1150  0.9131  0.6830
  986MOL0     C35959   5.756   4.593   7.207 -0.4601 -0.0235  0.8868
  986MOL0     C35960   5.702   4.587   7.067  0.7306  0.9215  1.0792
  986MOL0     O35961   5.589   4.661   7.041 -0.1043 -0.0121  0.5417
  986MOL0     C35962   5.558   4.685   6.913  0.3774 -0.2867  0.1395
  986MOL0     C35963   5.462   4.602   6.845 -0.8255  0.2498  0.8172
  986MOL0     C35964   5.422   4.623   6.717  0.0924  0.6565  1.2317
  986MOL0     C35965   5.475   4.729   6.643  0.0319  0.3126  0.0743
  986MOL0     O35966   5.432   4.749   6.514  0.7901 -0.6939 -0.6191
  986MOL0     C35967   5.289   4.779   6.515  0.3396 -0.5795  0.7545
  986MOL0     C35968   5.248   4.814   6.377  0.2381 -0.8311  0.4296
  986MOL0     C35969   5.110   4.754   6.338  0.1224 -0.2483  0.1207
  986MOL0     C35970   5.001   4.836   6.403 -0.4466 -0.3051 -0.9352
  986MOL0     C35971   4.867   4.784   6.345 -0.2547  0.7106  0.3421
  986MOL0     C35972   4.741   4.867   6.395 -0.0037  0.7066 -0.7698
  986MOL0     C35973   4.621   4.774   6.445  0.1036  0.8658 -0.3061
  986MOL0     C35974   4.503   4.842   6.512  0.3769  0.0638  0.2162
  986MOL0    Cl35975   4.469   5.000   6.424  0.6454  0.2318 -0.4639
  986MOL0     C35976   5.569   4.808   6.709  0.2401 -0.5100  0.5879
  986MOL0     C35977   5.607   4.787   6.841 -0.4696 -0.3016 -0.8032
  986MOL0     O35978   5.762   4.514   6.983 -0.2891  0.5330  0.5449
  986MOL0     C35979   5.800   4.471   7.263 -0.0491 -0.1126  0.2435
  986MOL0     C35980   5.836   4.472   7.399 -0.2999 -0.3140  1.1369
  986MOL0     N35981   6.287   4.249   7.886  0.1435 -0.2319  0.4655
  986MOL0     N35982   6.289   4.193   8.000 -0.4885 -0.3237  0.0993
  986MOL0     C35983   6.535   4.385   9.082  0.0618  0.0703  0.0710
  986MOL0     C35984   6.626   4.418   9.192  0.2548 -0.0918  0.0846
  986MOL0     C35985   6.797   4.642   9.540  0.2901  0.1384 -0.4657
  986MOL0     C35986   6.927   4.687   9.538 -0.6395 -0.1934  0.1264
  986MOL0     C35987   7.013   4.696   9.649  0.6917 -0.3589 -0.6222
  986MOL0     C35988   6.959   4.652   9.771 -0.2443 -0.9863 -0.5728
  986MOL0     O35989   7.030   4.644   9.890  0.0314  0.2864 -0.0063
  986MOL0     C35990   7.158   4.573   9.892 -0.5765  0.0883  0.0885
  986MOL0     C35991   7.210   4.553  10.032  0.1738  0.7203  0.3745
  986MOL0     C35992   7.366   4.525  10.033  1.1361 -0.0471 -0.3600
  986MOL0     C35993   7.409   4.446  10.151 -0.6428  0.5589 -0.3765
  986MOL0     C35994   7.552   4.427  10.134  0.3066 -0.4534 -0.3899
  986MOL0     C35995   7.663   4.398  10.096 -0.6373  0.3860 -1.1576
  986MOL0     C35996   6.836   4.609   9.781  0.4155  0.1606  0.0668
  986MOL0     C35997   6.751   4.602   9.666  0.6747  0.0150 -0.0559
  986MOL0     C35998   6.616   4.547   9.693  0.2006  0.1109 -0.2380
  986MOL0     H35999   6.397   4.575   9.389  0.6864 -0.5365 -0.5153
  986MOL0     H36000   6.254   4.538   9.213 -0.4268  0.1261  0.4463
  986MOL0     H36001   6.178   4.512   8.936  2.6202  0.2266  0.1831
  986MOL0     H36002   6.132   4.392   9.070  1.8260  0.2893  0.5931
  986MOL0     H36003   6.159   4.214   8.934  1.2555  0.7538 -0.2577
  986MOL0     H36004   6.016   4.299   8.881 -0.1123  1.3681  1.1710
  986MOL0     H36005   6.190   4.402   8.691 -0.5377  0.4245 -0.0597
  986MOL0     H36006   6.284   4.265   8.751  0.0210  0.7381  0.4965
  986MOL0     H36007   6.119   4.099   8.706 -0.9636 -0.5080  1.2704
  986MOL0     H36008   5.991   4.210   8.684  1.0892 -0.3633  2.4365
  986MOL0     H36009   6.101   4.097   8.484  3.6702 -0.4360 -1.4276
  986MOL0     H36010   6.240   4.206   8.491  0.6906 -1.0644 -1.2683
  986MOL0     H36011   5.959   4.305   8.457 -0.0283  1.9052  1.0429
  986MOL0     H36012   6.103   4.397   8.450 -0.8773  0.5349 -0.6230
  986MOL0     H36013   6.029   4.327   8.214  1.5243  0.7421 -0.2032
  986MOL0     H36014   6.081   4.162   8.246  0.3184  0.1135  0.3619
  986MOL0     H36015   6.286   4.377   8.278 -0.8477 -0.2124  1.6653
  986MOL0     H36016   6.304   4.197   8.274 -1.6337  0.1762  0.7231
  986MOL0     H36017   6.197   4.506   8.059 -0.3430  0.0620 -1.8399
  986MOL0     H36018   6.350   4.445   7.713  1.9263 -0.5243  0.0229
  986MOL0     H36019   6.337   4.573   7.811  1.8649 -0.9382 -1.3909
  986MOL0     H36020   6.164   4.576   7.609  0.2941 -3.9593 -1.9076
  986MOL0     H36021   6.104   4.428   7.670  1.9830 -1.0215  0.8324
  986MOL0     H36022   5.988   4.549   7.856  0.3380  3.3349  1.7456
  986MOL0     H36023   6.102   4.684   7.834  0.4339  0.1990  2.3658
  986MOL0     H36024   5.850   4.725   7.754 -0.5206 -2.8788  1.0153
  986MOL0     H36025   5.957   4.756   7.618 -1.2699  2.2157  1.7707
  986MOL0     H36026   5.799   4.791   7.466  0.8627 -0.0763  0.2090
  986MOL0     H36027   5.727   4.853   7.140 -1.9096 -2.7560 -1.1831
  986MOL0     H36028   5.691   4.917   7.304  5.4535  0.0125  1.6634
  986MOL0     H36029   5.578   4.815   7.210 -0.6014 -1.2068  3.3343
  986MOL0     H36030   5.414   4.517   6.892 -0.4043 -0.8848 -0.7043
  986MOL0     H36031   5.355   4.547   6.676  2.1669  0.2523 -1.7273
  986MOL0     H36032   5.222   4.699   6.548  0.7578 -2.3761 -2.4295
  986MOL0     H36033   5.285   4.875   6.568 -2.2409  1.1154 -2.2035
  986MOL0     H36034   5.239   4.922   6.366 -0.6393 -1.0772 -1.7206
  986MOL0     H36035   5.331   4.786   6.311 -0.3576  0.7747 -1.0954
  986MOL0     H36036   5.097   4.650   6.369  0.8444 -0.2996  0.2639
  986MOL0     H36037   5.095   4.758   6.230 -1.5111  0.9031  0.3543
  986MOL0     H36038   5.000   4.945   6.395 -1.4438  0.1451  3.1537
  986MOL0     H36039   4.995   4.806   6.508  2.0141  2.9849  0.3368
  986MOL0     H36040   4.865   4.803   6.238  1.3576 -0.1955  0.1320
  986MOL0     H36041   4.853   4.676   6.356  2.1408  0.3171  0.0653
  986MOL0     H36042   4.707   4.917   6.304  1.7410  2.7468 -0.3752
  986MOL0     H36043   4.775   4.938   6.471  3.2294 -0.2468 -1.1820
  986MOL0     H36044   4.666   4.698   6.510  0.7921 -0.4175 -2.2100
  986MOL0     H36045   4.569   4.733   6.358  1.8928  0.1425 -1.0672
  986MOL0     H36046   4.523   4.859   6.618 -3.5718  1.4799  0.9179
  986MOL0     H36047   4.419   4.772   6.500  0.5525 -0.0557 -0.3092
  986MOL0     H36048   5.609   4.905   6.680  3.5333 -1.2246  2.2305
  986MOL0     H36049   5.676   4.856   6.889 -2.2754  2.2445 -1.6590
  986MOL0     H36050   5.788   4.382   7.201  1.1909  1.8242 -3.0062
  986MOL0     H36051   5.867   4.379   7.446  0.6336 -1.9866 -2.4408
  986MOL0     H36052   6.568   4.330   8.995  1.3033  0.3763  0.3315
  986MOL0     H36053   6.731   4.393   9.191  0.8585  2.2532  0.2779
  986MOL0     H36054   6.978   4.702   9.444 -1.3985  0.4407 -0.1951
  986MOL0     H36055   7.113   4.738   9.646  0.6834 -0.3844 -1.3970
  986MOL0     H36056   7.136   4.474   9.853  0.8794  0.3962 -1.6504
  986MOL0     H36057   7.230   4.627   9.829  1.1657  0.0909  1.9687
  986MOL0     H36058   7.156   4.472  10.081 -0.8478  1.6744  0.8725
  986MOL0     H36059   7.200   4.642  10.095  0.0244 -1.0306  3.0190
  986MOL0     H36060   7.391   4.485   9.934  1.1326  0.5582 -0.6088
  986MOL0     H36061   7.413   4.623  10.041  1.6167 -0.4295  2.7156
  986MOL0     H36062   7.360   4.348  10.153 -1.5594  1.0144  1.6794
  986MOL0     H36063   7.399   4.500  10.245  1.4982  2.6654 -1.2531
  986MOL0     H36064   7.763   4.368  10.071  0.6231 -0.2444  3.5511
  986MOL0     H36065   6.796   4.575   9.876  2.2289  1.8183  1.5030
  986MOL0     H36066   6.598   4.563   9.799  1.7104 -1.8442  0.3629
  986MOL0     H36067   6.546   4.602   9.629  0.7643 -1.1297 -2.0152
  986MOL0     H36068   6.598   4.440   9.676  0.0593  0.3481 -1.7622
  987MOL0     O36069   0.436   0.523   3.023  0.2264 -0.6941 -0.6981
  987MOL0     C36070   0.440   0.505   2.904 -0.2946 -0.0211  0.5588
  987MOL0     O36071   0.352   0.544   2.809  0.6657 -0.1961  0.3182
  987MOL0     C36072   0.221   0.589   2.831 -0.8161  1.0109 -1.0844
  987MOL0     C36073   0.125   0.516   2.753  0.7471  0.5902 -0.4364
  987MOL0     C36074  -0.002   0.564   2.760  0.0750  0.2206  0.2199
  987MOL0     C36075  -0.039   0.663   2.856  0.0008 -0.6941  0.3766
  987MOL0     O36076  -0.172   0.682   2.871  0.0918 -0.3782  1.3002
  987MOL0     C36077  -0.219   0.818   2.897 -0.6656 -0.6222 -0.1537
  987MOL0     C36078  -0.366   0.844   2.886  1.0665  1.1672  0.4194
  987MOL0     C36079  -0.396   0.983   2.929  0.4310 -1.3571 -0.4166
  987MOL0     C36080  -0.549   1.019   2.921  0.6146 -0.1880 -0.3240
  987MOL0     C36081  -0.577   1.157   2.967 -0.2739 -0.0315 -0.0592
  987MOL0     C36082  -0.724   1.183   2.949 -0.1186  0.5123 -0.2591
  987MOL0     C36083  -0.763   1.325   2.987 -0.5865  0.1289  0.5283
  987MOL0     C36084  -0.906   1.347   3.022  0.3278  0.2592  0.0490
  987MOL0     N36085  -0.934   1.488   3.027  0.4173 -0.6137 -0.0106
  987MOL0     C36086  -0.964   1.551   3.153 -0.7094 -0.2559 -0.0060
  987MOL0     C36087  -1.045   1.658   3.115 -0.8237  0.0413  0.1698
  987MOL0     C36088  -1.130   1.756   3.195  0.0226 -0.1361 -0.8480
  987MOL0     C36089  -1.261   1.792   3.122 -0.5506 -0.8398 -0.6151
  987MOL0     C36090  -1.361   1.680   3.084 -0.0330  0.4274 -0.1233
  987MOL0     C36091  -1.399   1.570   3.182 -0.5056  0.2557 -0.1398
  987MOL0     O36092  -1.427   1.626   3.311 -0.0020  0.9055 -0.0792
  987MOL0     C36093  -1.535   1.712   3.326 -0.0109  0.0981 -0.9176
  987MOL0     C36094  -1.658   1.706   3.254 -0.1246  0.0222  0.7082
  987MOL0     C36095  -1.748   1.812   3.256 -0.5765 -0.1061 -0.7284
  987MOL0     C36096  -1.857   1.804   3.157  1.0110  0.7889  0.7169
  987MOL0     C36097  -1.719   1.917   3.347  0.5411 -0.5503 -0.4276
  987MOL0     C36098  -1.813   2.028   3.380 -0.5016  0.2242 -0.4482
  987MOL0     O36099  -1.785   2.153   3.337 -0.0992  0.7319  0.0177
  987MOL0     C36100  -1.880   2.253   3.357 -0.2979  0.5840  0.2788
  987MOL0     C36101  -2.001   2.256   3.293 -0.1065  0.2368  0.3417
  987MOL0     C36102  -2.082   2.366   3.312 -0.3311  0.3857 -0.8462
  987MOL0     C36103  -2.054   2.464   3.412  0.1606  0.2639  0.0647
  987MOL0     O36104  -2.136   2.566   3.420 -0.1942 -0.2020 -0.0628
  987MOL0     C36105  -2.161   2.611   3.548 -0.2536 -0.0856  0.5397
  987MOL0     C36106  -2.257   2.728   3.548 -0.4218 -0.3903  0.3067
  987MOL0     C36107  -2.379   2.698   3.466 -0.6045  0.3042 -0.5841
  987MOL0     C36108  -2.451   2.825   3.419 -0.1312  0.1792  0.3344
  987MOL0     C36109  -2.396   2.876   3.287 -0.4807  0.2336  1.6474
  987MOL0     C36110  -2.484   2.972   3.200  0.1649 -0.8021 -0.2338
  987MOL0     C36111  -2.537   3.097   3.267  0.3228 -0.7153  0.5101
  987MOL0     C36112  -2.654   3.158   3.186 -0.9666  0.0291  1.0253
  987MOL0    Cl36113  -2.732   3.306   3.256 -0.6309  0.3697 -0.5425
  987MOL0     C36114  -1.928   2.452   3.487  0.6200  0.2073  1.3639
  987MOL0     C36115  -1.845   2.351   3.447  0.0792 -0.2590 -1.9281
  987MOL0     O36116  -1.908   1.994   3.451  0.2655  0.5769 -0.5950
  987MOL0     C36117  -1.603   1.908   3.434  0.0166 -1.0143 -0.2473
  987MOL0     C36118  -1.511   1.811   3.418  0.7553 -0.2892  0.4611
  987MOL0     N36119  -1.048   1.655   2.971  0.4661  0.0500  0.1032
  987MOL0     N36120  -0.981   1.560   2.920  0.5845 -0.1247  0.0621
  987MOL0     C36121   0.057   0.734   2.928  0.0065 -0.3546 -0.8754
  987MOL0     C36122   0.189   0.696   2.919 -0.2100  0.0740  0.6700
  987MOL0     C36123   0.564   0.433   2.861  0.8878 -0.0009  1.0506
  987MOL0     C36124   0.556   0.374   2.733  1.0528  0.5730 -0.9800
  987MOL0     C36125   0.664   0.309   2.675 -0.5948 -0.9541  0.9161
  987MOL0     C36126   0.792   0.311   2.727 -0.7310 -0.1060 -0.1990
  987MOL0     O36127   0.885   0.232   2.670 -0.0378 -0.7447  0.6158
  987MOL0     C36128   1.016   0.255   2.708  0.3061 -0.4590  0.1787
  987MOL0     C36129   1.097   0.171   2.611  0.2881  0.1421 -0.0886
  987MOL0     C36130   1.245   0.155   2.642 -0.0777 -0.5875  0.5387
  987MOL0     C36131   1.317   0.065   2.544  0.3331  0.3841  0.0606
  987MOL0     C36132   1.325  -0.064   2.611  0.3278  0.0160 -0.3100
  987MOL0     C36133   1.301  -0.173   2.667 -0.6035 -0.2771  0.4481
  987MOL0     C36134   0.800   0.371   2.855  0.0713  0.1392  0.6707
  987MOL0     C36135   0.689   0.429   2.923 -0.0819 -0.8417  0.3869
  987MOL0     C36136   0.734   0.510   3.042  0.7199  0.6231  0.4806
  987MOL0     H36137   0.159   0.436   2.688  0.1437 -1.7515  1.9530
  987MOL0     H36138  -0.084   0.519   2.704 -0.7772  1.9942 -0.0478
  987MOL0     H36139  -0.163   0.889   2.835  0.8902 -0.5851  1.2192
  987MOL0     H36140  -0.189   0.837   3.001  0.7741  3.6832 -1.1549
  987MOL0     H36141  -0.413   0.837   2.787  0.4913  0.4654  0.7343
  987MOL0     H36142  -0.419   0.764   2.939 -1.8455  1.7515 -1.3665
  987MOL0     H36143  -0.360   0.998   3.031  0.9593 -0.0327 -0.7775
  987MOL0     H36144  -0.343   1.056   2.868 -3.7829  2.3923 -0.1612
  987MOL0     H36145  -0.587   1.005   2.820 -1.6741  1.5386  0.2141
  987MOL0     H36146  -0.606   0.943   2.976 -1.7972  1.2636 -0.6926
  987MOL0     H36147  -0.518   1.232   2.914 -1.3095 -0.5707 -2.0830
  987MOL0     H36148  -0.543   1.166   3.071  1.3455  0.0963 -0.5707
  987MOL0     H36149  -0.761   1.161   2.849 -0.4546 -1.5182  0.2719
  987MOL0     H36150  -0.765   1.110   3.019  2.6147 -1.2975 -0.3990
  987MOL0     H36151  -0.744   1.400   2.910 -0.7767  2.7348  2.8938
  987MOL0     H36152  -0.700   1.358   3.069  0.2964 -0.0953 -0.0463
  987MOL0     H36153  -0.975   1.309   2.946  0.1342 -0.6260  0.6645
  987MOL0     H36154  -0.934   1.291   3.112  1.8118 -0.0853  0.3286
  987MOL0     H36155  -0.949   1.508   3.251  0.4326 -1.2861 -0.6073
  987MOL0     H36156  -1.073   1.847   3.214 -2.0691  0.6962  2.2520
  987MOL0     H36157  -1.141   1.705   3.291  0.8714 -0.1959 -0.7782
  987MOL0     H36158  -1.327   1.852   3.186 -0.0541  1.1721 -1.8887
  987MOL0     H36159  -1.240   1.854   3.035 -1.4133  3.1651  1.7521
  987MOL0     H36160  -1.450   1.734   3.049 -0.0571 -0.6829 -1.8773
  987MOL0     H36161  -1.339   1.625   2.992 -2.7409 -0.6080 -0.2365
  987MOL0     H36162  -1.486   1.516   3.143  0.6455 -1.1599 -0.8225
  987MOL0     H36163  -1.330   1.486   3.185 -2.7834 -1.7034  1.3820
  987MOL0     H36164  -1.675   1.622   3.187 -2.4745  0.7448  0.3207
  987MOL0     H36165  -1.890   1.899   3.116 -0.2367 -0.3076 -0.9755
  987MOL0     H36166  -1.944   1.774   3.215 -0.2282  3.6411  0.4916
  987MOL0     H36167  -1.835   1.736   3.074  2.0596  3.2309 -1.1443
  987MOL0     H36168  -2.024   2.195   3.206 -0.1460  0.2566  0.3383
  987MOL0     H36169  -2.166   2.381   3.244 -2.2085  2.9525  1.7822
  987MOL0     H36170  -2.191   2.527   3.612  1.8417 -1.3306  0.0205
  987MOL0     H36171  -2.067   2.654   3.585  0.2632  1.3611 -2.1992
  987MOL0     H36172  -2.294   2.754   3.648  0.4021  1.9547  0.0649
  987MOL0     H36173  -2.202   2.813   3.507  2.1547 -1.7320  0.7677
  987MOL0     H36174  -2.458   2.657   3.528 -0.1079  0.4483  0.1630
  987MOL0     H36175  -2.371   2.621   3.389 -0.5066 -0.3941  0.1178
  987MOL0     H36176  -2.439   2.898   3.499  0.2671 -0.3173  0.7336
  987MOL0     H36177  -2.555   2.792   3.416 -0.2602  0.6507 -0.9752
  987MOL0     H36178  -2.290   2.898   3.299  0.0813 -2.1164  1.6387
  987MOL0     H36179  -2.396   2.787   3.223  1.5321  1.1301  0.2924
  987MOL0     H36180  -2.568   2.910   3.167 -0.3517 -0.9253  1.2471
  987MOL0     H36181  -2.431   3.005   3.110 -0.2244  1.5582  0.3619
  987MOL0     H36182  -2.460   3.174   3.265 -0.1357 -0.2280  1.2010
  987MOL0     H36183  -2.562   3.070   3.370  2.1830 -0.8350  0.9560
  987MOL0     H36184  -2.726   3.079   3.161  0.3301 -1.5353  2.0592
  987MOL0     H36185  -2.608   3.191   3.092 -0.5783  2.4583  1.9826
  987MOL0     H36186  -1.891   2.529   3.554  1.7556  0.6340  0.2942
  987MOL0     H36187  -1.745   2.358   3.490  0.4562  2.5561 -3.0051
  987MOL0     H36188  -1.576   1.989   3.501  1.5382 -2.3952  0.8734
  987MOL0     H36189  -1.415   1.803   3.467  1.5181  0.0389 -0.9117
  987MOL0     H36190   0.047   0.813   3.002  3.8799  0.6220 -1.1848
  987MOL0     H36191   0.265   0.754   2.971 -0.6115  0.0677  1.2781
  987MOL0     H36192   0.461   0.377   2.680 -0.0099 -0.2891  0.7760
  987MOL0     H36193   0.644   0.265   2.578  0.7676  0.9725 -0.2835
  987MOL0     H36194   1.044   0.361   2.708 -1.6846  0.1957 -2.9928
  987MOL0     H36195   1.028   0.208   2.806  1.3407 -0.4263  0.0860
  987MOL0     H36196   1.085   0.217   2.513 -1.0166 -0.1056 -0.0657
  987MOL0     H36197   1.056   0.070   2.597  0.8691  0.1420 -2.0372
  987MOL0     H36198   1.279   0.259   2.637  5.1251 -2.0385  0.8137
  987MOL0     H36199   1.247   0.122   2.746  0.0325 -0.5375  0.5525
  987MOL0     H36200   1.419   0.099   2.523  0.7328 -1.7577 -1.9133
  987MOL0     H36201   1.264   0.064   2.448  1.6048 -1.0953 -0.6778
  987MOL0     H36202   1.277  -0.265   2.717  2.0928 -0.4212  1.6317
  987MOL0     H36203   0.899   0.380   2.899  1.3046 -1.3435 -1.6194
  987MOL0     H36204   0.655   0.546   3.109 -0.9879 -1.5791 -0.2120
  987MOL0     H36205   0.811   0.457   3.099  1.4053 -2.0749 -2.6193
  987MOL0     H36206   0.782   0.599   3.000 -1.8681  0.9824 -2.0475
  988MOL0     O36207   0.530   8.248   8.450  0.1810  0.0707 -0.1106
  988MOL0     C36208   0.410   8.214   8.442 -0.6164 -0.4575  0.0659
  988MOL0     O36209   0.342   8.194   8.327 -0.2705  0.1831  0.2474
  988MOL0     C36210   0.408   8.207   8.205 -0.8753 -0.0836 -0.5714
  988MOL0     C36211   0.424   8.330   8.147 -0.5973  0.3849  0.3297
  988MOL0     C36212   0.489   8.339   8.022  0.1654  0.2105  0.5388
  988MOL0     C36213   0.549   8.231   7.959 -0.2979 -0.0252 -0.1838
  988MOL0     O36214   0.608   8.265   7.842  0.0877  0.1136 -0.4479
  988MOL0     C36215   0.686   8.168   7.779 -0.7986 -0.1678 -0.5248
  988MOL0     C36216   0.736   8.226   7.647 -0.2915  0.6369 -0.1551
  988MOL0     C36217   0.629   8.222   7.540  0.0106  0.5411 -0.4333
  988MOL0     C36218   0.587   8.082   7.515 -0.7273  0.2256 -0.3114
  988MOL0     C36219   0.546   8.066   7.373 -0.2386 -0.1036 -0.0516
  988MOL0     C36220   0.478   7.930   7.347  0.7553 -0.2361  0.1414
  988MOL0     C36221   0.401   7.925   7.216  0.1353  0.7614  0.4079
  988MOL0     C36222   0.314   7.792   7.207 -0.6491 -0.3083 -0.9765
  988MOL0     N36223   0.387   7.670   7.182 -0.1579  0.1136  0.1691
  988MOL0     C36224   0.432   7.631   7.055 -0.5006  0.0057  0.5503
  988MOL0     C36225   0.488   7.513   7.087 -0.5797  0.1382 -0.5626
  988MOL0     C36226   0.564   7.426   6.992  0.5816 -0.5761 -0.5406
  988MOL0     C36227   0.683   7.503   6.935 -0.0350 -0.2864  0.2246
  988MOL0     C36228   0.786   7.408   6.880 -0.3479 -0.3658  0.6222
  988MOL0     C36229   0.871   7.349   6.988  0.5022 -0.1612 -0.0769
  988MOL0     O36230   0.967   7.452   7.031  0.6995 -0.3704 -0.1517
  988MOL0     C36231   0.963   7.517   7.149  0.4071 -0.3750  0.0185
  988MOL0     C36232   0.858   7.501   7.244 -0.6576 -1.1768 -0.0943
  988MOL0     C36233   0.853   7.590   7.359  0.5649  0.2695 -0.6054
  988MOL0     C36234   0.729   7.561   7.446  0.1766  0.7795  0.1682
  988MOL0     C36235   0.945   7.694   7.374 -0.8989  0.5356 -1.1681
  988MOL0     C36236   0.946   7.799   7.484 -0.2361  0.9288  0.7250
  988MOL0     O36237   1.072   7.843   7.523  0.5031  0.1611 -0.3030
  988MOL0     C36238   1.072   7.974   7.589 -0.4747  0.2612 -0.6019
  988MOL0     C36239   1.104   7.977   7.730  0.8510 -0.0257 -0.1910
  988MOL0     C36240   1.116   8.101   7.798 -0.3003  0.1077 -0.5855
  988MOL0     C36241   1.106   8.229   7.727  0.8105  1.0519  0.0752
  988MOL0     O36242   1.114   8.359   7.774 -0.4677  0.0450 -0.7036
  988MOL0     C36243   1.210   8.385   7.882  0.3020 -0.0098  0.3763
  988MOL0     C36244   1.173   8.508   7.951 -0.2162  0.7462 -0.3789
  988MOL0     C36245   1.060   8.493   8.057 -0.1619 -0.4157 -0.6057
  988MOL0     C36246   0.906   8.477   8.006 -0.7169  0.2202  1.2110
  988MOL0     C36247   0.854   8.603   7.940 -1.1110  0.3869  0.0760
  988MOL0     C36248   0.712   8.587   7.895  0.4451  0.3127  0.1815
  988MOL0     C36249   0.676   8.689   7.785  0.8105  0.3738 -0.6190
  988MOL0     C36250   0.522   8.704   7.776 -0.0406 -0.7831 -0.4687
  988MOL0    Cl36251   0.432   8.553   7.735 -0.4291 -0.5053  0.4432
  988MOL0     C36252   1.078   8.223   7.584  0.2720  0.1693 -0.8962
  988MOL0     C36253   1.062   8.101   7.521 -0.3286  0.2381 -0.4658
  988MOL0     O36254   0.835   7.830   7.515  0.7026 -0.0461 -0.5272
  988MOL0     C36255   1.045   7.703   7.279  0.2496  0.1559 -1.2499
  988MOL0     C36256   1.056   7.625   7.167 -0.3665  0.2700  0.5317
  988MOL0     N36257   0.467   7.474   7.214 -0.0844  0.1954 -0.0182
  988MOL0     N36258   0.410   7.574   7.273  0.2743 -0.1563 -0.3394
  988MOL0     C36259   0.549   8.110   8.028  0.0920 -0.7704 -0.8250
  988MOL0     C36260   0.477   8.095   8.152 -0.9437 -1.1739 -0.1892
  988MOL0     C36261   0.345   8.176   8.574  0.5631 -0.5982 -0.2619
  988MOL0     C36262   0.240   8.077   8.577  0.3831 -0.8255 -0.7188
  988MOL0     C36263   0.169   8.059   8.699 -0.5032 -0.1331  0.4869
  988MOL0     C36264   0.204   8.125   8.813  0.4205 -0.5223 -0.3276
  988MOL0     O36265   0.120   8.095   8.919  0.0684  0.6881  1.1800
  988MOL0     C36266   0.140   8.160   9.043  0.7469 -0.1240 -0.0830
  988MOL0     C36267   0.033   8.117   9.143 -0.3473  0.3972 -0.3311
  988MOL0     C36268  -0.106   8.095   9.081 -1.1916  0.3667 -0.5911
  988MOL0     C36269  -0.200   8.016   9.191 -0.4457 -0.8104  0.6333
  988MOL0     C36270  -0.175   7.870   9.195  0.1147 -0.0517 -0.5561
  988MOL0     C36271  -0.149   7.753   9.206 -0.9095 -0.6508  0.2527
  988MOL0     C36272   0.302   8.225   8.809 -0.3412 -0.1484 -0.2369
  988MOL0     C36273   0.376   8.249   8.695  0.1604 -0.1689  0.6179
  988MOL0     C36274   0.478   8.358   8.708 -0.8818  0.1422 -0.1529
  988MOL0     H36275   0.364   8.413   8.183 -1.3552  0.5963 -1.3281
  988MOL0     H36276   0.473   8.429   7.963 -1.0390  0.1770  0.7923
  988MOL0     H36277   0.626   8.080   7.759  0.3090 -0.7379 -1.4809
  988MOL0     H36278   0.775   8.143   7.838  0.4718 -0.2630 -2.3787
  988MOL0     H36279   0.772   8.329   7.657 -3.4664  1.8139  0.5257
  988MOL0     H36280   0.818   8.163   7.613  0.2981  1.7280 -0.8152
  988MOL0     H36281   0.541   8.276   7.576 -1.4776 -0.6446 -2.0850
  988MOL0     H36282   0.653   8.270   7.445 -1.6310 -0.6324 -1.5158
  988MOL0     H36283   0.671   8.012   7.523 -1.2951 -0.4368  0.0331
  988MOL0     H36284   0.515   8.054   7.593  1.6921  0.4637  2.1574
  988MOL0     H36285   0.631   8.086   7.307  0.6389 -0.9796  0.7857
  988MOL0     H36286   0.470   8.144   7.361  0.7269  0.7242 -0.9430
  988MOL0     H36287   0.557   7.854   7.340 -0.0038 -1.3070  2.3595
  988MOL0     H36288   0.414   7.904   7.431 -0.8404 -3.0086 -1.7726
  988MOL0     H36289   0.474   7.920   7.134 -0.3161  0.0807  0.0319
  988MOL0     H36290   0.335   8.009   7.194  0.0628  0.9573  1.3333
  988MOL0     H36291   0.261   7.778   7.302  3.1483  0.7376  1.5469
  988MOL0     H36292   0.240   7.810   7.128 -0.1054 -1.5147 -1.7786
  988MOL0     H36293   0.436   7.680   6.958 -2.2320 -1.9500 -0.6033
  988MOL0     H36294   0.500   7.395   6.909 -0.5293 -2.9785  1.0994
  988MOL0     H36295   0.597   7.332   7.037 -2.2054 -1.8974 -1.0192
  988MOL0     H36296   0.665   7.566   6.848  3.6428  0.1100 -0.4393
  988MOL0     H36297   0.718   7.558   7.023 -0.2390 -5.0298  3.6478
  988MOL0     H36298   0.746   7.329   6.815  0.8978 -1.9838  1.7508
  988MOL0     H36299   0.859   7.459   6.816  0.9206 -3.0181 -0.2040
  988MOL0     H36300   0.812   7.309   7.071 -3.0557  2.1461 -1.2160
  988MOL0     H36301   0.925   7.265   6.944  0.3309 -0.2435 -0.1305
  988MOL0     H36302   0.786   7.421   7.235  0.4251 -1.9850 -2.0851
  988MOL0     H36303   0.723   7.452   7.452 -0.2889  0.6168 -2.2412
  988MOL0     H36304   0.637   7.596   7.399 -1.1385 -0.1032  1.9925
  988MOL0     H36305   0.748   7.596   7.548  1.6261 -0.0486  0.2083
  988MOL0     H36306   1.114   7.886   7.789  0.9794 -0.8524 -1.4486
  988MOL0     H36307   1.138   8.098   7.904  0.2354  0.4197 -0.6874
  988MOL0     H36308   1.223   8.302   7.952  5.0794 -1.3386 -1.6793
  988MOL0     H36309   1.304   8.388   7.826 -0.1011 -1.5193 -0.4514
  988MOL0     H36310   1.257   8.561   7.997 -0.8090  1.2699  0.1244
  988MOL0     H36311   1.137   8.574   7.871 -2.2281  0.5044  0.2659
  988MOL0     H36312   1.073   8.593   8.099  1.1352  0.9089 -3.8019
  988MOL0     H36313   1.078   8.414   8.130 -2.5447 -1.5799 -1.1458
  988MOL0     H36314   0.844   8.443   8.089 -2.6543  1.0140  0.1354
  988MOL0     H36315   0.897   8.392   7.938 -0.8791  1.8039 -0.8245
  988MOL0     H36316   0.875   8.687   8.006  1.4969 -2.6276  3.4558
  988MOL0     H36317   0.913   8.608   7.847 -2.9235  0.9644 -1.1024
  988MOL0     H36318   0.654   8.602   7.987  0.8195 -2.6038  0.9991
  988MOL0     H36319   0.696   8.487   7.854  4.4922  0.1425 -1.3911
  988MOL0     H36320   0.715   8.649   7.692  1.3554 -0.2817 -0.1184
  988MOL0     H36321   0.716   8.789   7.805  2.3410 -0.6781  2.2727
  988MOL0     H36322   0.503   8.779   7.699  3.8934  1.0891  0.1245
  988MOL0     H36323   0.482   8.741   7.871  0.5211 -0.5950 -0.3052
  988MOL0     H36324   1.074   8.309   7.517 -1.0180 -1.0573 -2.4575
  988MOL0     H36325   1.032   8.086   7.418  0.6409 -0.0639 -0.7105
  988MOL0     H36326   1.126   7.770   7.307  0.9536 -0.1592 -2.4503
  988MOL0     H36327   1.134   7.652   7.097  1.6026 -1.5378  1.9006
  988MOL0     H36328   0.603   8.029   7.980  1.1198 -0.1785 -0.7034
  988MOL0     H36329   0.496   8.009   8.214  2.3675  0.9741  2.1248
  988MOL0     H36330   0.220   8.025   8.484 -0.5188 -1.2234 -0.3068
  988MOL0     H36331   0.082   7.995   8.711 -2.2256  2.2310  1.1801
  988MOL0     H36332   0.240   8.145   9.086  1.2901  2.5972 -0.2447
  988MOL0     H36333   0.128   8.268   9.034  0.3456 -0.2620 -1.3108
  988MOL0     H36334   0.032   8.175   9.236  1.0289  0.7186 -0.4952
  988MOL0     H36335   0.064   8.018   9.177  0.8419  1.6064  2.4089
  988MOL0     H36336  -0.155   8.191   9.062 -1.8025  0.4017  0.9462
  988MOL0     H36337  -0.105   8.039   8.987  4.2952  1.3165 -1.4056
  988MOL0     H36338  -0.308   8.024   9.174 -0.4353  0.1070  0.9496
  988MOL0     H36339  -0.187   8.056   9.292  0.6489 -1.4119  0.7419
  988MOL0     H36340  -0.136   7.648   9.227  0.9487 -0.5537 -0.2924
  988MOL0     H36341   0.331   8.275   8.901 -1.7202 -0.9513  0.6591
  988MOL0     H36342   0.457   8.447   8.646 -2.1712  0.5617  0.8298
  988MOL0     H36343   0.490   8.397   8.809 -2.2074  0.2462 -0.0127
  988MOL0     H36344   0.574   8.323   8.670 -2.1307 -2.0257 -1.5154
  989MOL0     O36345   1.560   9.296   3.590  0.0233  0.2486 -0.3920
  989MOL0     C36346   1.666   9.339   3.636  0.2178 -0.9932 -0.0869
  989MOL0     O36347   1.682   9.464   3.701  0.3717  0.2112  0.1451
  989MOL0     C36348   1.567   9.534   3.691 -0.2659 -0.6824 -0.6146
  989MOL0     C36349   1.468   9.545   3.793  0.6103 -0.2015 -0.0368
  989MOL0     C36350   1.359   9.626   3.773  0.0711  0.1294  0.9019
  989MOL0     C36351   1.345   9.714   3.665 -0.1696  0.2374 -0.2242
  989MOL0     O36352   1.250   9.808   3.638 -0.8076 -0.3409  0.4832
  989MOL0     C36353   1.164   9.852   3.739 -0.1444  0.3500 -0.9160
  989MOL0     C36354   1.086   9.977   3.692  0.0750  0.1074  0.2137
  989MOL0     C36355   1.038   9.967   3.548 -0.3470 -0.2112 -0.2267
  989MOL0     C36356   0.928   9.870   3.548  0.2232  0.2527 -0.5175
  989MOL0     C36357   0.814   9.901   3.438  0.4164  0.2372 -0.0375
  989MOL0     C36358   0.887   9.922   3.295  0.2211  0.1024 -0.2891
  989MOL0     C36359   0.784   9.980   3.201 -0.0664  0.0019  0.7329
  989MOL0     C36360   0.668   9.887   3.171  0.7372  0.5957  0.0909
  989MOL0     N36361   0.701   9.767   3.094 -0.1024  0.4743 -0.8978
  989MOL0     C36362   0.762   9.751   2.969 -0.2046  0.5183  0.3317
  989MOL0     C36363   0.794   9.622   2.962 -0.1110  0.1663  0.1199
  989MOL0     C36364   0.837   9.567   2.830  0.5048  0.1280 -0.5598
  989MOL0     C36365   0.986   9.544   2.830 -0.2194  0.6682 -0.2009
  989MOL0     C36366   1.044   9.490   2.696  0.4708  0.3366  0.4945
  989MOL0     C36367   1.186   9.426   2.718 -1.2005  0.8709  0.4470
  989MOL0     O36368   1.194   9.295   2.780  0.2220  0.2370 -0.6280
  989MOL0     C36369   1.298   9.282   2.866 -0.3038  0.9189 -0.0064
  989MOL0     C36370   1.430   9.326   2.846  0.3047  1.6820  0.5945
  989MOL0     C36371   1.530   9.275   2.933 -0.2832 -0.1689 -0.1351
  989MOL0     C36372   1.670   9.314   2.895 -0.0114  0.4225 -0.3523
  989MOL0     C36373   1.502   9.199   3.048 -0.2265 -0.2435 -0.2474
  989MOL0     C36374   1.594   9.136   3.151  0.3632  0.9197  0.5925
  989MOL0     O36375   1.552   9.021   3.214  0.0869 -0.0764 -0.1457
  989MOL0     C36376   1.641   8.941   3.280  0.2259  0.2018  0.1245
  989MOL0     C36377   1.623   8.911   3.420 -0.2290 -0.2366  0.0962
  989MOL0     C36378   1.718   8.819   3.481  0.4764 -0.4687 -0.3575
  989MOL0     C36379   1.816   8.762   3.410  0.5108  0.7166 -0.0036
  989MOL0     O36380   1.893   8.674   3.484  0.5434 -0.2303 -0.1641
  989MOL0     C36381   1.928   8.548   3.415  0.6766 -0.5829  0.2863
  989MOL0     C36382   1.973   8.442   3.507 -0.2362 -0.3238 -0.0035
  989MOL0     C36383   2.041   8.319   3.453  0.5888 -0.8961  0.5030
  989MOL0     C36384   2.187   8.341   3.401 -1.2285 -0.4323 -0.9612
  989MOL0     C36385   2.253   8.212   3.355 -0.1649  0.1474  0.7620
  989MOL0     C36386   2.178   8.135   3.253 -0.1131  0.2789 -0.0604
  989MOL0     C36387   2.167   8.197   3.111 -0.3773 -0.2658  0.5461
  989MOL0     C36388   2.059   8.128   3.029  0.2341  0.5810 -0.1622
  989MOL0    Cl36389   2.083   7.951   3.014  0.0356 -0.2196 -0.2263
  989MOL0     C36390   1.836   8.791   3.286 -0.5320 -0.3481  0.2002
  989MOL0     C36391   1.738   8.867   3.212 -1.1130 -0.5240 -0.5079
  989MOL0     O36392   1.700   9.188   3.176 -0.2869  0.2195  0.4083
  989MOL0     C36393   1.367   9.154   3.059 -0.3655 -0.6190 -0.5533
  989MOL0     C36394   1.267   9.196   2.970  0.6107 -0.2942  0.6013
  989MOL0     N36395   0.751   9.554   3.078 -0.0506 -0.4812  1.3269
  989MOL0     N36396   0.698   9.638   3.155 -0.0472 -0.0784 -0.3301
  989MOL0     C36397   1.440   9.697   3.567 -0.6604  0.8190  0.3677
  989MOL0     C36398   1.548   9.612   3.580  0.1552 -0.0729  0.3425
  989MOL0     C36399   1.785   9.247   3.620  0.5091  0.1403  0.6611
  989MOL0     C36400   1.797   9.191   3.489 -0.1542 -0.5630  0.5884
  989MOL0     C36401   1.906   9.112   3.452 -0.5078 -0.9596 -0.5102
  989MOL0     C36402   2.013   9.092   3.546 -0.4167  0.4188 -0.6630
  989MOL0     O36403   2.133   9.028   3.528  0.7311  0.0364  0.0561
  989MOL0     C36404   2.157   8.957   3.402  0.1279  0.2939  0.1586
  989MOL0     C36405   2.268   8.849   3.389 -0.1783  0.2099 -0.0966
  989MOL0     C36406   2.404   8.911   3.402 -1.4264 -0.2010  0.3907
  989MOL0     C36407   2.438   9.018   3.292 -0.3788 -0.0384 -0.8403
  989MOL0     C36408   2.513   9.124   3.347 -0.1816  0.5886 -0.7546
  989MOL0     C36409   2.567   9.198   3.425  0.2984 -0.0971 -0.2536
  989MOL0     C36410   1.996   9.135   3.677 -0.2401 -0.1423  0.7570
  989MOL0     C36411   1.878   9.207   3.717  0.1545 -0.0177 -0.5459
  989MOL0     C36412   1.847   9.232   3.867  0.1544 -0.4873  0.4791
  989MOL0     H36413   1.479   9.492   3.887 -0.9204  1.2944  1.0653
  989MOL0     H36414   1.282   9.623   3.850 -0.4516  2.9293  0.6157
  989MOL0     H36415   1.228   9.878   3.824 -0.4144 -3.2414  0.5336
  989MOL0     H36416   1.106   9.767   3.776  2.3325 -0.3074  1.8011
  989MOL0     H36417   1.004  10.008   3.758  1.2037  4.2505 -0.0186
  989MOL0     H36418   1.147  10.068   3.685 -3.0220  2.2695 -1.0831
  989MOL0     H36419   1.001  10.062   3.509  0.0784  0.7878  1.6884
  989MOL0     H36420   1.118   9.933   3.482  1.0014  2.3509 -0.0151
  989MOL0     H36421   0.954   9.770   3.512 -1.9158 -0.7665  0.5675
  989MOL0     H36422   0.882   9.852   3.645  1.3686  2.4781  0.5114
  989MOL0     H36423   0.751   9.981   3.478  1.0719  0.7259  0.0407
  989MOL0     H36424   0.750   9.813   3.439  1.7605 -0.7760 -0.2702
  989MOL0     H36425   0.977   9.981   3.312 -0.8076  0.7815  3.8347
  989MOL0     H36426   0.931   9.831   3.253 -0.2925 -0.0259 -0.5650
  989MOL0     H36427   0.830  10.003   3.105 -1.8103 -2.3767 -0.8124
  989MOL0     H36428   0.752  10.072   3.250 -1.5685 -1.2193  2.1797
  989MOL0     H36429   0.613   9.868   3.264  0.2912  1.0613 -0.0781
  989MOL0     H36430   0.597   9.938   3.106 -2.2228 -1.2801  1.6147
  989MOL0     H36431   0.795   9.820   2.891 -4.2513  2.5320  0.1455
  989MOL0     H36432   0.788   9.613   2.743  0.8224  2.4759  0.4357
  989MOL0     H36433   0.802   9.463   2.821  1.6785 -0.3069 -0.2896
  989MOL0     H36434   1.030   9.639   2.860 -1.7981  0.8330  1.8280
  989MOL0     H36435   1.018   9.472   2.906  0.2290  1.8804  0.7963
  989MOL0     H36436   0.982   9.411   2.653 -1.5319  2.3290 -0.4861
  989MOL0     H36437   1.042   9.562   2.613 -1.0540  0.4649  0.6231
  989MOL0     H36438   1.240   9.420   2.623  0.3468 -0.5471  1.3724
  989MOL0     H36439   1.241   9.492   2.786 -2.1132  0.4207  1.6673
  989MOL0     H36440   1.448   9.389   2.759 -1.7280  2.8084  0.9514
  989MOL0     H36441   1.743   9.259   2.956 -0.4666  2.4461  2.2337
  989MOL0     H36442   1.688   9.418   2.924 -0.5127  0.5949 -0.6607
  989MOL0     H36443   1.678   9.315   2.786 -1.0288 -0.0507 -0.4419
  989MOL0     H36444   1.551   8.964   3.480  0.3287  0.1252  0.4495
  989MOL0     H36445   1.725   8.794   3.586  2.9324  0.5849 -0.2068
  989MOL0     H36446   1.837   8.505   3.371  0.7839 -2.1494  1.4953
  989MOL0     H36447   2.003   8.567   3.338 -1.3539  0.7513 -1.4863
  989MOL0     H36448   2.042   8.480   3.584  0.1130 -1.6698  0.3820
  989MOL0     H36449   1.877   8.420   3.554 -1.8414  2.4945 -1.6977
  989MOL0     H36450   1.978   8.293   3.368  0.9709 -0.2147 -0.0041
  989MOL0     H36451   2.024   8.242   3.529  1.0490 -0.2108  1.3326
  989MOL0     H36452   2.253   8.379   3.479 -1.9337 -0.4914 -0.3319
  989MOL0     H36453   2.190   8.406   3.312 -0.6161  0.8066 -0.0625
  989MOL0     H36454   2.361   8.214   3.339 -0.5060 -0.0200 -2.0072
  989MOL0     H36455   2.245   8.149   3.444 -1.1816 -0.2881  0.3661
  989MOL0     H36456   2.085   8.113   3.305 -1.6565 -0.1646 -2.8031
  989MOL0     H36457   2.234   8.043   3.237  0.2452  0.9664 -3.7895
  989MOL0     H36458   2.261   8.184   3.057 -0.4088 -0.4530  0.5342
  989MOL0     H36459   2.155   8.306   3.107 -0.3558 -0.2937 -0.4833
  989MOL0     H36460   2.060   8.164   2.926  1.4986 -0.1558 -0.4271
  989MOL0     H36461   1.961   8.145   3.075  0.0305  0.7551 -0.6480
  989MOL0     H36462   1.923   8.761   3.228 -0.2261  1.0158 -0.0716
  989MOL0     H36463   1.745   8.900   3.109  0.7332 -0.3683 -0.3619
  989MOL0     H36464   1.336   9.093   3.144  1.7393  0.6465  1.2539
  989MOL0     H36465   1.166   9.158   2.975  1.3515 -2.5251  0.0283
  989MOL0     H36466   1.424   9.746   3.472 -1.4398 -1.5852 -0.8328
  989MOL0     H36467   1.615   9.603   3.496  3.5404  2.4051  2.5137
  989MOL0     H36468   1.723   9.207   3.411  1.8613 -1.5807 -1.6466
  989MOL0     H36469   1.913   9.084   3.347 -1.5136 -1.5394 -0.4344
  989MOL0     H36470   2.061   8.905   3.386 -1.1890  2.6824 -0.1196
  989MOL0     H36471   2.166   9.031   3.323 -1.2275  0.1182 -0.2024
  989MOL0     H36472   2.267   8.800   3.292  0.6654 -1.2269  0.5898
  989MOL0     H36473   2.244   8.777   3.468  0.5348  2.4817  2.3300
  989MOL0     H36474   2.408   8.944   3.506  1.7896 -2.0001  0.9563
  989MOL0     H36475   2.482   8.836   3.386  2.3526  3.7594 -2.3379
  989MOL0     H36476   2.355   9.071   3.244  1.1649  4.2633  0.7667
  989MOL0     H36477   2.491   8.985   3.202 -0.6921  2.3822 -1.9870
  989MOL0     H36478   2.611   9.277   3.481 -0.5446  0.8741 -0.9309
  989MOL0     H36479   2.084   9.116   3.737  0.9883  0.4195 -0.8084
  989MOL0     H36480   1.741   9.212   3.887 -0.5778  1.7744 -0.8074
  989MOL0     H36481   1.909   9.166   3.928 -0.8936 -1.5343  0.4683
  989MOL0     H36482   1.879   9.332   3.896  1.6998 -0.8794  0.2053
  990MOL0     O36483   8.535   1.506   4.587  0.9665 -0.7939  0.0992
  990MOL0     C36484   8.644   1.560   4.602 -0.3061 -0.0967 -0.0339
  990MOL0     O36485   8.673   1.687   4.565 -0.1127  0.9172 -0.0693
  990MOL0     C36486   8.594   1.789   4.531 -0.6994 -0.2768  0.2317
  990MOL0     C36487   8.455   1.789   4.526  0.2901 -1.1182 -0.7579
  990MOL0     C36488   8.386   1.910   4.499  0.1633 -0.4983 -0.1343
  990MOL0     C36489   8.455   2.036   4.489 -0.0955 -0.1161 -0.6648
  990MOL0     O36490   8.395   2.160   4.471  0.0577  0.2773 -0.1989
  990MOL0     C36491   8.261   2.169   4.517 -0.1784 -0.1315  0.0870
  990MOL0     C36492   8.207   2.318   4.491  0.4074  0.1478 -0.0561
  990MOL0     C36493   8.252   2.418   4.600 -0.2693  1.1385  0.1191
  990MOL0     C36494   8.401   2.448   4.575 -0.1987  0.0717 -0.0697
  990MOL0     C36495   8.468   2.561   4.665  0.6367  0.5531 -0.1668
  990MOL0     C36496   8.392   2.702   4.692 -0.4172 -0.1211 -0.2965
  990MOL0     C36497   8.493   2.818   4.724 -0.6434 -0.5351 -0.2635
  990MOL0     C36498   8.570   2.870   4.604  0.1751  0.5198  0.2356
  990MOL0     N36499   8.692   2.949   4.634 -0.4816  1.2274  0.4948
  990MOL0     C36500   8.730   3.074   4.592  0.9935 -0.1428 -0.1405
  990MOL0     C36501   8.845   3.115   4.653  0.3235 -0.4216  0.6455
  990MOL0     C36502   8.912   3.247   4.627 -0.3371  0.3299  0.0764
  990MOL0     C36503   9.010   3.244   4.505 -0.4187  0.0935  0.0850
  990MOL0     C36504   9.147   3.283   4.540  0.4687  0.9078 -0.3170
  990MOL0     C36505   9.208   3.171   4.620  0.1734  0.5924 -0.1239
  990MOL0     O36506   9.311   3.227   4.702 -0.0230  0.1017  0.0882
  990MOL0     C36507   9.440   3.247   4.652 -0.0263  0.0071  0.0676
  990MOL0     C36508   9.481   3.228   4.515  0.4016 -0.3281 -0.6365
  990MOL0     C36509   9.609   3.257   4.476 -0.2154  0.5576  0.3170
  990MOL0     C36510   9.628   3.263   4.331  0.8942 -0.3327 -0.1587
  990MOL0     C36511   9.704   3.301   4.569 -0.2176  0.8628 -0.3456
  990MOL0     C36512   9.845   3.326   4.530  0.4943 -1.1238 -0.1590
  990MOL0     O36513   9.923   3.399   4.616  0.8958  0.8742 -0.6809
  990MOL0     C36514  10.057   3.413   4.600 -0.3425  0.9888  0.5481
  990MOL0     C36515  10.144   3.314   4.551  0.9602 -0.8991 -0.5064
  990MOL0     C36516  10.277   3.343   4.547  0.2676  0.9243 -0.5690
  990MOL0     C36517  10.331   3.470   4.599  0.8329 -0.0870  0.9230
  990MOL0     O36518  10.461   3.495   4.616  0.0101  0.5624  0.0671
  990MOL0     C36519  10.564   3.407   4.595 -0.8464  0.3506 -0.3962
  990MOL0     C36520  10.682   3.446   4.683  0.6662 -0.1372  1.1506
  990MOL0     C36521  10.788   3.339   4.671 -0.1925 -0.6365 -0.3562
  990MOL0     C36522  10.918   3.375   4.746 -0.8073 -0.5865  0.7618
  990MOL0     C36523  10.913   3.406   4.895  0.0789 -0.0441  0.6711
  990MOL0     C36524  11.052   3.447   4.955  0.6948  0.2168  0.5058
  990MOL0     C36525  11.033   3.505   5.100  0.5142 -0.4983  0.5733
  990MOL0     C36526  11.171   3.493   5.169  0.2883 -0.2860  0.5197
  990MOL0    Cl36527  11.287   3.624   5.120  0.5532  0.8324 -0.2726
  990MOL0     C36528  10.244   3.569   4.644 -0.3278 -0.1844  0.7511
  990MOL0     C36529  10.108   3.533   4.650 -0.0502 -0.3294  0.5723
  990MOL0     O36530   9.884   3.277   4.420  0.2712 -0.5877 -0.2263
  990MOL0     C36531   9.664   3.325   4.704 -0.1806  0.2471 -0.0190
  990MOL0     C36532   9.535   3.298   4.742  1.0014 -0.3522  0.0893
  990MOL0     N36533   8.884   3.000   4.722 -0.2596 -0.3134 -0.5045
  990MOL0     N36534   8.794   2.900   4.718 -0.5181 -0.9940 -0.1467
  990MOL0     C36535   8.591   2.030   4.489 -0.1224 -0.4287  0.1489
  990MOL0     C36536   8.662   1.910   4.506  0.7030 -0.2513 -0.0498
  990MOL0     C36537   8.760   1.487   4.675  0.2990  0.5077  0.3262
  990MOL0     C36538   8.848   1.574   4.746 -0.6781 -0.0319 -0.6945
  990MOL0     C36539   8.964   1.521   4.809 -0.4189 -0.1329  1.2066
  990MOL0     C36540   8.991   1.384   4.796  0.3489  0.0693  0.5496
  990MOL0     O36541   9.102   1.325   4.849  0.7737  0.0109  0.4564
  990MOL0     C36542   9.199   1.403   4.909  0.1410  0.2750 -0.1603
  990MOL0     C36543   9.308   1.464   4.816 -0.2257  0.8911  1.0112
  990MOL0     C36544   9.372   1.352   4.732  0.4685  0.1820  0.1543
  990MOL0     C36545   9.478   1.419   4.644  0.3049 -0.3132 -0.5140
  990MOL0     C36546   9.536   1.325   4.546  0.3962 -0.5274 -0.4211
  990MOL0     C36547   9.593   1.248   4.478  0.0231  0.7175 -0.4207
  990MOL0     C36548   8.899   1.298   4.736 -0.0396  0.0638  0.2621
  990MOL0     C36549   8.783   1.344   4.670 -0.4542 -1.1868  0.0566
  990MOL0     C36550   8.685   1.238   4.615  0.3496 -0.3637 -0.1288
  990MOL0     H36551   8.393   1.701   4.539  0.1914 -1.0225 -0.5779
  990MOL0     H36552   8.280   1.893   4.480  0.0966 -1.0830  0.6810
  990MOL0     H36553   8.261   2.155   4.625  1.3043 -0.3977  0.0750
  990MOL0     H36554   8.192   2.096   4.474  2.1152 -3.1547  1.1832
  990MOL0     H36555   8.242   2.346   4.391  1.8486 -2.6799 -0.4245
  990MOL0     H36556   8.097   2.320   4.497  0.3729 -1.9922  0.5686
  990MOL0     H36557   8.196   2.511   4.590 -2.4649  0.0375  1.5605
  990MOL0     H36558   8.226   2.384   4.701 -1.3964  2.7282  0.3865
  990MOL0     H36559   8.460   2.361   4.607 -2.9970 -1.1515  2.1674
  990MOL0     H36560   8.427   2.453   4.469  3.3185 -1.4930  0.5514
  990MOL0     H36561   8.567   2.577   4.622  0.0464 -1.7958 -2.7326
  990MOL0     H36562   8.464   2.504   4.758 -1.7601 -1.9640 -1.6438
  990MOL0     H36563   8.347   2.730   4.596 -1.5055 -0.9204 -0.0380
  990MOL0     H36564   8.319   2.700   4.773  0.3358  0.2615  0.4068
  990MOL0     H36565   8.567   2.788   4.799  1.2967  1.8733 -1.1010
  990MOL0     H36566   8.438   2.901   4.769 -1.3958 -1.5377  0.7295
  990MOL0     H36567   8.599   2.786   4.541 -1.1099 -0.2144  0.5904
  990MOL0     H36568   8.501   2.926   4.540 -2.5306 -1.9561  0.7643
  990MOL0     H36569   8.679   3.132   4.515  2.1921  2.0698  0.6600
  990MOL0     H36570   8.958   3.278   4.721  1.1385 -1.5298  0.0240
  990MOL0     H36571   8.829   3.315   4.608 -1.2474 -0.4781  1.0357
  990MOL0     H36572   9.022   3.141   4.472  2.8948  0.6526 -0.8012
  990MOL0     H36573   8.968   3.306   4.425  1.5486  0.0041 -1.0955
  990MOL0     H36574   9.199   3.286   4.444  0.7798 -2.9915 -0.4272
  990MOL0     H36575   9.144   3.374   4.600 -1.2054 -2.0456  4.6808
  990MOL0     H36576   9.128   3.126   4.679 -1.3586  0.9944 -1.7896
  990MOL0     H36577   9.251   3.085   4.567  0.0690 -0.5672  1.5799
  990MOL0     H36578   9.407   3.194   4.443 -2.2616  1.8069  0.8903
  990MOL0     H36579   9.529   3.257   4.283  1.3894 -2.2671 -1.0448
  990MOL0     H36580   9.691   3.178   4.301  2.6912  0.2107  1.8722
  990MOL0     H36581   9.663   3.361   4.298  0.7165 -0.9969 -2.5409
  990MOL0     H36582  10.106   3.220   4.514 -3.1988  0.4371 -0.1663
  990MOL0     H36583  10.348   3.271   4.508 -2.2618  0.6775 -5.4268
  990MOL0     H36584  10.528   3.305   4.606 -1.0985  0.6061  1.4370
  990MOL0     H36585  10.611   3.405   4.497 -1.9735 -0.3491 -0.9387
  990MOL0     H36586  10.706   3.546   4.646  1.1381  0.0237  1.8536
  990MOL0     H36587  10.651   3.468   4.785 -0.3998  0.9199  0.6105
  990MOL0     H36588  10.821   3.338   4.567  1.1431  1.3153 -0.0113
  990MOL0     H36589  10.753   3.239   4.699 -3.3333  0.0420 -1.4481
  990MOL0     H36590  10.959   3.465   4.698 -1.6001 -1.7342 -2.3006
  990MOL0     H36591  10.988   3.292   4.731 -0.8055 -0.3279 -0.9362
  990MOL0     H36592  10.845   3.490   4.909 -1.6860 -1.3314  0.2396
  990MOL0     H36593  10.872   3.313   4.937 -2.6134  0.8926  0.3120
  990MOL0     H36594  11.094   3.532   4.901 -0.9936  0.5528 -0.3659
  990MOL0     H36595  11.113   3.357   4.956  0.1444 -0.1665  1.1985
  990MOL0     H36596  10.965   3.438   5.153  0.4671 -2.2760 -1.5517
  990MOL0     H36597  10.995   3.607   5.099  1.3424 -0.1568  1.6675
  990MOL0     H36598  11.214   3.400   5.130 -0.8807  0.0427 -1.7187
  990MOL0     H36599  11.156   3.501   5.277  2.3504 -3.5745  1.2087
  990MOL0     H36600  10.268   3.672   4.670 -1.7416  0.3093  0.1946
  990MOL0     H36601  10.027   3.594   4.688 -1.6690 -1.0573 -1.4959
  990MOL0     H36602   9.728   3.381   4.771  2.8409 -0.8544 -1.8046
  990MOL0     H36603   9.501   3.305   4.845  0.1649  1.4831 -0.2615
  990MOL0     H36604   8.653   2.117   4.471 -0.3711 -0.3206 -0.2019
  990MOL0     H36605   8.767   1.905   4.531 -0.1183 -0.8874  4.0852
  990MOL0     H36606   8.827   1.680   4.753 -0.3072  0.1424 -1.9236
  990MOL0     H36607   9.024   1.594   4.862  0.9565 -0.5540  0.2918
  990MOL0     H36608   9.152   1.479   4.972 -1.2763 -0.3203 -0.4775
  990MOL0     H36609   9.244   1.345   4.991 -2.4804  0.0709  1.2325
  990MOL0     H36610   9.384   1.503   4.885  2.7209 -3.7235  0.8025
  990MOL0     H36611   9.266   1.533   4.742 -2.5665 -2.0913 -0.6810
  990MOL0     H36612   9.403   1.270   4.797 -0.9866 -2.6941 -2.5105
  990MOL0     H36613   9.292   1.326   4.662 -1.6228  0.6877  2.1843
  990MOL0     H36614   9.565   1.452   4.702 -1.1090  0.0025  1.4883
  990MOL0     H36615   9.435   1.505   4.591 -0.2718 -0.9981 -1.1750
  990MOL0     H36616   9.640   1.168   4.423  1.7002 -0.4673  2.5265
  990MOL0     H36617   8.908   1.190   4.739  1.4764  0.1828  0.7750
  990MOL0     H36618   8.709   1.213   4.512  1.4288 -5.5971  1.0803
  990MOL0     H36619   8.688   1.136   4.655 -0.3755 -0.5034 -0.4094
  990MOL0     H36620   8.579   1.265   4.612  0.2660  0.0201  2.9048
  991MOL0     O36621   5.862   7.319  11.299 -0.0797  0.7384 -0.3310
  991MOL0     C36622   5.758   7.312  11.230  0.5555  0.2943  0.3625
  991MOL0     O36623   5.749   7.273  11.099  0.5682  0.4909 -0.1434
  991MOL0     C36624   5.857   7.294  11.013 -0.1564  0.9194  0.3928
  991MOL0     C36625   5.883   7.205  10.906  0.1855 -0.2282 -0.7507
  991MOL0     C36626   5.981   7.221  10.811  0.0887 -0.0982 -0.7697
  991MOL0     C36627   6.065   7.333  10.810 -0.7056  0.0895  0.1068
  991MOL0     O36628   6.187   7.331  10.743  0.2418 -0.3293 -0.0130
  991MOL0     C36629   6.274   7.222  10.774  0.8275  0.1257 -0.1676
  991MOL0     C36630   6.411   7.265  10.731 -0.0250 -0.0871 -0.1938
  991MOL0     C36631   6.446   7.403  10.800  0.5246  0.7632  0.6293
  991MOL0     C36632   6.594   7.430  10.821  0.2231  0.3012 -0.6358
  991MOL0     C36633   6.617   7.568  10.884  0.8155 -0.6239  0.2341
  991MOL0     C36634   6.757   7.594  10.900 -0.8407 -0.4806  0.5156
  991MOL0     C36635   6.778   7.711  10.987  1.0448  0.1570 -0.5679
  991MOL0     C36636   6.932   7.745  10.982 -0.5540  0.8921 -0.1175
  991MOL0     N36637   6.955   7.877  11.046  0.3381 -0.5132 -0.2774
  991MOL0     C36638   6.973   7.990  10.971 -0.2252 -0.4721  0.6699
  991MOL0     C36639   6.970   8.095  11.063  0.4269  0.6660  0.8511
  991MOL0     C36640   6.980   8.236  11.032 -0.1778  0.7447 -0.2363
  991MOL0     C36641   7.119   8.283  11.069 -0.3419 -0.4452  1.3417
  991MOL0     C36642   7.132   8.378  11.189  0.8040 -0.1936  0.1315
  991MOL0     C36643   7.269   8.448  11.199  0.5713  0.2615  0.4006
  991MOL0     O36644   7.374   8.345  11.223  1.3343  0.6614 -0.1520
  991MOL0     C36645   7.404   8.288  11.345  0.2120 -0.2525 -0.1590
  991MOL0     C36646   7.345   8.338  11.462 -0.4852 -0.1873 -0.6304
  991MOL0     C36647   7.374   8.279  11.587  0.0681 -0.1279  0.6391
  991MOL0     C36648   7.313   8.352  11.699  0.1439 -0.0769  0.2272
  991MOL0     C36649   7.453   8.159  11.593  0.5703 -0.3999 -0.5205
  991MOL0     C36650   7.493   8.085  11.725 -0.0813 -0.6072 -0.3240
  991MOL0     O36651   7.434   8.116  11.844  0.2801 -0.5109 -0.1141
  991MOL0     C36652   7.499   8.071  11.961  0.3536 -0.1187  0.5992
  991MOL0     C36653   7.540   8.174  12.047 -0.4291 -0.7118 -0.1489
  991MOL0     C36654   7.592   8.141  12.176  0.1589  0.2115 -1.1821
  991MOL0     C36655   7.605   8.005  12.228 -0.3870  0.4771  0.6498
  991MOL0     O36656   7.662   7.958  12.346 -0.0843 -0.3180  0.4816
  991MOL0     C36657   7.701   8.061  12.438  0.0233  0.4079  0.3751
  991MOL0     C36658   7.780   7.994  12.538  0.1963  1.0032 -0.7567
  991MOL0     C36659   7.774   8.058  12.672 -0.1266  0.2200  0.3851
  991MOL0     C36660   7.833   8.205  12.676 -0.3506  0.0693  0.1318
  991MOL0     C36661   7.855   8.249  12.823 -0.1709  0.4509  0.1757
  991MOL0     C36662   7.877   8.401  12.840 -0.0332  0.0067  0.2301
  991MOL0     C36663   8.008   8.454  12.781  0.5266  0.3237 -0.5149
  991MOL0     C36664   8.033   8.594  12.813  1.0559 -0.4749  0.3590
  991MOL0    Cl36665   7.885   8.687  12.751  0.2705  0.5151 -0.4020
  991MOL0     C36666   7.560   7.905  12.131  0.1067 -0.4934 -0.2996
  991MOL0     C36667   7.500   7.939  12.005 -0.8264  0.2310  0.4027
  991MOL0     O36668   7.588   8.011  11.712  0.5139 -0.0786 -0.2110
  991MOL0     C36669   7.515   8.119  11.469  0.1582  0.3544 -0.7884
  991MOL0     C36670   7.483   8.181  11.343  0.1229 -0.7676  0.2055
  991MOL0     N36671   6.936   8.046  11.185  0.3737 -0.4264  0.3972
  991MOL0     N36672   6.925   7.917  11.172  0.1772 -0.2618 -0.0836
  991MOL0     C36673   6.033   7.428  10.916  0.0834  0.6174 -0.7948
  991MOL0     C36674   5.937   7.404  11.012  0.6031 -0.5130  0.2481
  991MOL0     C36675   5.631   7.356  11.299  1.3085 -0.4399 -0.1188
  991MOL0     C36676   5.614   7.299  11.428  0.6788  0.7704 -0.0750
  991MOL0     C36677   5.508   7.325  11.515  0.2098 -0.5808  0.4229
  991MOL0     C36678   5.416   7.426  11.474 -0.7709  0.8378 -0.6673
  991MOL0     O36679   5.316   7.449  11.570 -0.0072  0.1958  0.6600
  991MOL0     C36680   5.175   7.437  11.525 -0.3654  0.5611  0.4273
  991MOL0     C36681   5.092   7.525  11.621  0.0181  0.1594 -0.3166
  991MOL0     C36682   4.950   7.505  11.596  0.9815 -0.3131  0.4622
  991MOL0     C36683   4.885   7.617  11.511 -0.9439  0.3985  0.2395
  991MOL0     C36684   4.745   7.600  11.484  0.5443  0.6699 -0.0951
  991MOL0     C36685   4.624   7.588  11.491  0.0074 -0.3150  0.1900
  991MOL0     C36686   5.424   7.474  11.338  0.4669  0.1907 -0.3682
  991MOL0     C36687   5.531   7.440  11.250  0.3386 -0.0565  0.2736
  991MOL0     C36688   5.535   7.487  11.097  0.5075  0.5937  0.2209
  991MOL0     H36689   5.816   7.120  10.904 -0.1747  0.0601 -1.2803
  991MOL0     H36690   6.009   7.141  10.744  1.2923 -0.6595  0.3775
  991MOL0     H36691   6.245   7.122  10.743  2.2434 -0.3368 -0.0676
  991MOL0     H36692   6.276   7.216  10.883  1.0279 -0.0675 -0.1842
  991MOL0     H36693   6.486   7.199  10.774  0.1328 -0.4169 -0.9479
  991MOL0     H36694   6.421   7.283  10.623 -1.6444  0.7740 -0.2328
  991MOL0     H36695   6.417   7.490  10.740  2.6151  0.2034 -1.2984
  991MOL0     H36696   6.407   7.392  10.902  3.0913  0.4741  1.6671
  991MOL0     H36697   6.627   7.355  10.893  0.6892  2.2923  1.3533
  991MOL0     H36698   6.646   7.422  10.725 -3.1620 -2.2384 -2.5074
  991MOL0     H36699   6.575   7.567  10.985 -3.3055 -0.0362 -1.2838
  991MOL0     H36700   6.578   7.652  10.826  0.7226  0.7501  2.1857
  991MOL0     H36701   6.802   7.502  10.938 -3.2384 -0.7432  2.9576
  991MOL0     H36702   6.800   7.621  10.802 -3.2335  3.4781  0.3317
  991MOL0     H36703   6.747   7.680  11.087  0.5724  2.0504 -0.0826
  991MOL0     H36704   6.716   7.796  10.959 -0.1174 -0.4466  0.1390
  991MOL0     H36705   6.991   7.668  11.031 -1.4738 -1.0522 -1.8974
  991MOL0     H36706   6.965   7.745  10.878 -3.3929  0.0264 -1.1280
  991MOL0     H36707   7.008   7.983  10.869  2.0290 -2.0343  1.4676
  991MOL0     H36708   6.904   8.286  11.091 -0.3728 -0.1810  0.3102
  991MOL0     H36709   6.964   8.240  10.923  2.3118 -0.7339 -0.7371
  991MOL0     H36710   7.185   8.197  11.077 -1.5289 -1.3495  1.7356
  991MOL0     H36711   7.151   8.332  10.977 -3.1034 -1.7218 -0.4283
  991MOL0     H36712   7.058   8.456  11.167 -1.4243 -2.0986  0.5750
  991MOL0     H36713   7.108   8.326  11.281  0.5113  0.1545  0.2549
  991MOL0     H36714   7.288   8.506  11.109 -1.8505  2.3734  1.1063
  991MOL0     H36715   7.273   8.521  11.280 -0.7747  0.4552  0.3158
  991MOL0     H36716   7.278   8.423  11.465  0.2534  0.3705  0.2307
  991MOL0     H36717   7.267   8.287  11.774 -0.4807 -2.6313 -2.2278
  991MOL0     H36718   7.236   8.421  11.663  1.5098  1.0138 -0.6841
  991MOL0     H36719   7.398   8.409  11.740 -0.5219 -0.0728  1.6796
  991MOL0     H36720   7.518   8.276  12.019 -0.9213 -0.6029  0.6371
  991MOL0     H36721   7.616   8.215  12.252 -3.1617 -1.5072  1.8698
  991MOL0     H36722   7.761   8.142  12.394 -1.2358  2.2956  1.9639
  991MOL0     H36723   7.613   8.100  12.489 -0.0016  0.2540  0.4492
  991MOL0     H36724   7.751   7.889  12.544 -0.1886  1.1522  0.1224
  991MOL0     H36725   7.889   7.995  12.530  0.5310  1.6651  2.4802
  991MOL0     H36726   7.827   7.987  12.735 -1.1116 -1.5315 -0.6794
  991MOL0     H36727   7.669   8.077  12.694  0.0093  3.0313 -0.8401
  991MOL0     H36728   7.763   8.275  12.631 -1.5887 -1.2710 -0.0896
  991MOL0     H36729   7.920   8.201  12.611 -0.1035  2.2853  0.2607
  991MOL0     H36730   7.759   8.226  12.872  1.0912 -1.9297  1.6977
  991MOL0     H36731   7.932   8.187  12.870 -2.9833 -1.3037  2.8896
  991MOL0     H36732   7.872   8.428  12.946 -1.5441  1.3407 -0.1320
  991MOL0     H36733   7.790   8.450  12.796 -0.4959 -1.6939 -0.8223
  991MOL0     H36734   8.013   8.425  12.676  0.4061 -1.4886 -0.0576
  991MOL0     H36735   8.092   8.405  12.830  0.8684  1.5844  0.2147
  991MOL0     H36736   8.127   8.630  12.770 -0.8846  1.2903 -2.7767
  991MOL0     H36737   8.026   8.614  12.920  0.9816  1.3730  0.0355
  991MOL0     H36738   7.581   7.803  12.159 -0.4567  0.0270  2.2764
  991MOL0     H36739   7.451   7.862  11.946 -0.4596  1.1729 -1.1965
  991MOL0     H36740   7.575   8.029  11.476 -5.4855 -3.9021  0.4528
  991MOL0     H36741   7.515   8.145  11.245 -1.4794 -0.2317 -0.5366
  991MOL0     H36742   6.095   7.517  10.922  0.0542  0.5808  0.1854
  991MOL0     H36743   5.911   7.481  11.085 -1.2101  2.1083 -2.8567
  991MOL0     H36744   5.684   7.222  11.460  1.4041  1.3293 -0.2909
  991MOL0     H36745   5.508   7.279  11.613 -0.7844  2.8527  2.2024
  991MOL0     H36746   5.158   7.474  11.424  0.3012  0.3733  0.2424
  991MOL0     H36747   5.151   7.331  11.533  3.8042 -0.8476 -2.3763
  991MOL0     H36748   5.128   7.628  11.627  0.2101  0.0628  0.2852
  991MOL0     H36749   5.103   7.493  11.725 -3.6724  0.3682  0.2566
  991MOL0     H36750   4.921   7.406  11.561  0.4549 -0.6461  1.7879
  991MOL0     H36751   4.899   7.512  11.693 -0.5451 -0.6116 -0.2778
  991MOL0     H36752   4.934   7.613  11.413  1.0249  3.0161  1.0401
  991MOL0     H36753   4.892   7.717  11.553 -1.0502 -0.6102  2.8728
  991MOL0     H36754   4.520   7.573  11.514  0.4847 -2.4354  1.2387
  991MOL0     H36755   5.344   7.535  11.297  0.4397 -1.0401 -2.3040
  991MOL0     H36756   5.628   7.543  11.088  2.6394 -2.4809  1.2759
  991MOL0     H36757   5.531   7.398  11.034 -1.1597  0.0875  0.9510
  991MOL0     H36758   5.445   7.543  11.068 -0.9200 -1.0318  1.2448
  992MOL0     O36759   0.311   5.440   9.887  0.0361  0.1120  0.4908
  992MOL0     C36760   0.245   5.417   9.988 -0.7216 -0.5944 -0.4720
  992MOL0     O36761   0.298   5.380  10.102  0.3446  0.1282  0.2425
  992MOL0     C36762   0.429   5.354  10.118  0.1209 -0.0241 -0.8976
  992MOL0     C36763   0.510   5.275  10.035  0.0142 -0.2768 -0.0095
  992MOL0     C36764   0.640   5.243  10.050 -0.0879 -0.5008 -1.1195
  992MOL0     C36765   0.698   5.292  10.167  0.0930  0.2419 -0.4898
  992MOL0     O36766   0.835   5.271  10.196 -0.4921  0.1055 -0.1348
  992MOL0     C36767   0.928   5.312  10.097 -0.4210 -0.8413 -0.3947
  992MOL0     C36768   1.055   5.294  10.166 -0.3536  0.8767 -0.1054
  992MOL0     C36769   1.179   5.270  10.078 -0.2542  0.3922  0.4521
  992MOL0     C36770   1.302   5.261  10.166  0.1274  0.4150  0.7926
  992MOL0     C36771   1.431   5.198  10.112  0.1476 -0.7689  1.0967
  992MOL0     C36772   1.504   5.146  10.241  0.9158  0.4618 -0.0286
  992MOL0     C36773   1.641   5.096  10.211 -0.5270 -0.9731 -0.4484
  992MOL0     C36774   1.710   5.028  10.333 -0.0681  0.9747 -0.5649
  992MOL0     N36775   1.855   5.009  10.305 -0.1597  1.3951  0.1694
  992MOL0     C36776   1.908   4.899  10.240 -0.8974 -0.1039 -0.3864
  992MOL0     C36777   2.039   4.934  10.206  0.3251  0.6806 -0.4693
  992MOL0     C36778   2.135   4.831  10.147 -1.1611  0.2040  0.1652
  992MOL0     C36779   2.165   4.707  10.232 -0.6795  0.1175 -0.3496
  992MOL0     C36780   2.254   4.729  10.353 -0.5820  0.8164  0.1191
  992MOL0     C36781   2.201   4.806  10.478  0.1831 -0.3787  0.8021
  992MOL0     O36782   2.088   4.728  10.511 -0.1611 -0.3349  0.8049
  992MOL0     C36783   1.988   4.780  10.580 -0.4617 -1.4783 -0.1986
  992MOL0     C36784   1.868   4.712  10.579 -0.5050 -0.3276 -0.5257
  992MOL0     C36785   1.756   4.747  10.640  0.2966  0.7009 -0.1711
  992MOL0     C36786   1.641   4.653  10.606 -0.3687 -0.6617  0.1020
  992MOL0     C36787   1.752   4.858  10.721  0.6229 -0.4332  0.1164
  992MOL0     C36788   1.637   4.907  10.799  0.1563  0.3195 -0.3509
  992MOL0     O36789   1.534   4.815  10.819 -0.5534  0.0394  0.5759
  992MOL0     C36790   1.418   4.838  10.895 -0.8113  0.1392  0.3288
  992MOL0     C36791   1.386   4.943  10.984  0.6220 -0.0502 -0.2639
  992MOL0     C36792   1.278   4.926  11.071  0.5678 -0.5388  0.3623
  992MOL0     C36793   1.202   4.804  11.073 -0.0162 -0.4968  0.4152
  992MOL0     O36794   1.079   4.794  11.127  0.1527  0.1975 -0.4535
  992MOL0     C36795   1.003   4.905  11.198 -0.3510 -0.5783  1.0484
  992MOL0     C36796   0.895   4.975  11.110  0.3373 -0.7800  0.1408
  992MOL0     C36797   0.832   5.110  11.171  0.6103  0.0735  0.3962
  992MOL0     C36798   0.686   5.103  11.118  0.6919  0.4117  0.4347
  992MOL0     C36799   0.592   5.197  11.200  0.2532  0.7862  0.1908
  992MOL0     C36800   0.621   5.348  11.204 -0.5308 -1.2643  0.2314
  992MOL0     C36801   0.613   5.402  11.061 -0.1289 -0.8648  0.0573
  992MOL0     C36802   0.633   5.562  11.058  0.4982  0.2635  0.2615
  992MOL0    Cl36803   0.775   5.640  11.120  0.1069 -0.4637 -0.0919
  992MOL0     C36804   1.231   4.708  10.978 -0.8584  0.0160 -0.9359
  992MOL0     C36805   1.340   4.722  10.899 -0.3847  1.0136 -0.1877
  992MOL0     O36806   1.643   5.014  10.860 -0.2982  0.1583 -0.2230
  992MOL0     C36807   1.868   4.939  10.724 -0.5924  0.2940  0.2821
  992MOL0     C36808   1.984   4.907  10.643 -0.3900  0.4903 -0.5286
  992MOL0     N36809   2.059   5.053  10.267  0.1173  0.3270 -0.3615
  992MOL0     N36810   1.953   5.103  10.320  0.5361  0.0478  0.0782
  992MOL0     C36811   0.624   5.357  10.263 -0.2676 -0.3929  1.0137
  992MOL0     C36812   0.493   5.389  10.239 -0.6322 -0.3858  0.6124
  992MOL0     C36813   0.098   5.418   9.986 -0.0811 -0.1898 -0.6427
  992MOL0     C36814   0.038   5.345  10.086 -0.1650 -1.2026  0.2795
  992MOL0     C36815  -0.105   5.318  10.081 -0.6539  0.3673 -0.3747
  992MOL0     C36816  -0.183   5.376   9.980  0.9258 -0.1521  0.5258
  992MOL0     O36817  -0.315   5.355   9.965  0.1630  0.2423  0.4189
  992MOL0     C36818  -0.384   5.348  10.084  0.5175  0.2367 -0.4344
  992MOL0     C36819  -0.454   5.488  10.102  0.4911  0.0256  0.3395
  992MOL0     C36820  -0.536   5.495  10.231 -0.1336  0.0030  0.8346
  992MOL0     C36821  -0.623   5.618  10.238 -0.1981 -0.1814 -0.1353
  992MOL0     C36822  -0.569   5.744  10.292  0.1420 -0.3730  0.7874
  992MOL0     C36823  -0.541   5.854  10.342 -0.7170 -0.2503 -0.8083
  992MOL0     C36824  -0.128   5.464   9.892 -0.4249 -0.7394  0.3109
  992MOL0     C36825   0.017   5.481   9.885 -0.5661 -0.1002 -1.5868
  992MOL0     C36826   0.066   5.572   9.783  0.2350 -0.3165 -0.5657
  992MOL0     H36827   0.455   5.231   9.953 -0.6727  0.1333  0.2225
  992MOL0     H36828   0.695   5.190   9.972  0.2507 -3.3595  0.9284
  992MOL0     H36829   0.922   5.418  10.071  0.7756 -1.0362 -1.5669
  992MOL0     H36830   0.920   5.254  10.005  4.5793 -2.9210  0.1903
  992MOL0     H36831   1.072   5.379  10.233  2.4419  0.2779  0.0488
  992MOL0     H36832   1.039   5.208  10.232 -0.6710 -0.4242 -1.8079
  992MOL0     H36833   1.172   5.177  10.020  2.4088 -0.3876  1.2119
  992MOL0     H36834   1.191   5.349  10.002 -0.4619 -0.5978 -0.6482
  992MOL0     H36835   1.322   5.363  10.198 -2.9520  0.8721  1.5578
  992MOL0     H36836   1.272   5.200  10.251 -1.9975  0.7015  0.2942
  992MOL0     H36837   1.494   5.262  10.049 -0.0630 -1.7216 -0.1267
  992MOL0     H36838   1.412   5.117  10.042 -0.3771 -1.3644  1.9112
  992MOL0     H36839   1.513   5.231  10.309  0.4642  0.9010 -0.5029
  992MOL0     H36840   1.444   5.062  10.278  0.2540 -1.7615 -5.2310
  992MOL0     H36841   1.705   5.178  10.176 -3.0324  0.3031 -2.4088
  992MOL0     H36842   1.629   5.022  10.131  1.3202 -3.0256  1.0473
  992MOL0     H36843   1.700   5.088  10.424 -1.9981 -1.2594  0.8018
  992MOL0     H36844   1.669   4.927  10.344  0.4697  0.2981 -3.7032
  992MOL0     H36845   1.864   4.803  10.214  0.5272 -1.8511  2.9769
  992MOL0     H36846   2.231   4.878  10.120  0.0197 -1.1863  1.7418
  992MOL0     H36847   2.094   4.796  10.052 -1.2515 -2.5557  1.1179
  992MOL0     H36848   2.071   4.662  10.265 -0.1284  1.4118  3.4944
  992MOL0     H36849   2.223   4.644  10.164 -0.5272 -2.7634  2.2232
  992MOL0     H36850   2.284   4.633  10.396  3.0344  1.5426 -0.4115
  992MOL0     H36851   2.353   4.772  10.335 -0.6429  1.4231  1.1727
  992MOL0     H36852   2.281   4.801  10.553  0.5040  0.8144  0.5586
  992MOL0     H36853   2.176   4.911  10.463  3.2014  0.3413  0.1427
  992MOL0     H36854   1.863   4.627  10.511 -3.2945  1.1661 -2.3756
  992MOL0     H36855   1.667   4.566  10.544  1.0534  0.5104 -1.0267
  992MOL0     H36856   1.561   4.711  10.560  0.8840  1.4428  0.4360
  992MOL0     H36857   1.608   4.608  10.700  1.4492 -1.0282  0.6012
  992MOL0     H36858   1.446   5.034  10.991 -1.5936  1.3666  1.6378
  992MOL0     H36859   1.253   5.008  11.137 -1.0584 -0.4042 -0.3701
  992MOL0     H36860   0.950   4.857  11.280  2.5425 -2.8034  1.7804
  992MOL0     H36861   1.071   4.975  11.249 -0.5225 -0.0426  0.5581
  992MOL0     H36862   0.938   5.004  11.014 -1.3231  3.1567  0.3802
  992MOL0     H36863   0.817   4.899  11.096 -1.5456  0.4382  2.9825
  992MOL0     H36864   0.876   5.205  11.137 -0.8050  0.9192  0.8532
  992MOL0     H36865   0.835   5.103  11.280 -0.7410 -0.8337  0.3966
  992MOL0     H36866   0.643   5.004  11.136  0.8905  0.1971 -0.2115
  992MOL0     H36867   0.677   5.115  11.009  4.2487 -1.4681 -0.2056
  992MOL0     H36868   0.496   5.176  11.153  0.8698 -0.8829 -0.4118
  992MOL0     H36869   0.591   5.176  11.308 -0.3027 -0.6384 -0.0684
  992MOL0     H36870   0.721   5.375  11.239 -1.7543  2.2199  1.6041
  992MOL0     H36871   0.548   5.392  11.273  0.4169  0.2771  0.2990
  992MOL0     H36872   0.515   5.376  11.019 -0.6535  0.4798  0.4001
  992MOL0     H36873   0.691   5.355  10.999 -1.6765 -0.6000 -2.2226
  992MOL0     H36874   0.545   5.593  11.115 -1.8318 -3.0731 -1.2212
  992MOL0     H36875   0.618   5.592  10.954  1.1937 -2.0484 -0.5651
  992MOL0     H36876   1.177   4.614  10.979  1.7584 -1.5856 -1.8610
  992MOL0     H36877   1.368   4.642  10.831 -0.4957 -1.0595  2.0401
  992MOL0     H36878   1.874   5.029  10.784  1.5590 -0.4896  1.3554
  992MOL0     H36879   2.073   4.968  10.653 -1.1782  1.3109  2.8109
  992MOL0     H36880   0.674   5.397  10.351 -2.0627 -0.6596  2.2179
  992MOL0     H36881   0.435   5.446  10.311  1.1340 -0.0697  1.8447
  992MOL0     H36882   0.091   5.289  10.162 -0.0982 -2.6842 -0.8156
  992MOL0     H36883  -0.137   5.254  10.163 -0.5468 -1.4270 -1.6916
  992MOL0     H36884  -0.459   5.268  10.077  1.5859 -0.7452 -0.8760
  992MOL0     H36885  -0.332   5.332  10.179 -0.9778 -1.1794  0.1964
  992MOL0     H36886  -0.533   5.504  10.029 -0.9317  0.7172  1.9541
  992MOL0     H36887  -0.379   5.567  10.091  0.7162 -0.3799 -1.1812
  992MOL0     H36888  -0.606   5.413  10.244 -0.9518  0.2032 -1.7200
  992MOL0     H36889  -0.477   5.492  10.323 -1.3335 -2.1849  1.6066
  992MOL0     H36890  -0.692   5.591  10.319  1.0954  0.9623  1.4023
  992MOL0     H36891  -0.671   5.625  10.140 -1.2376 -4.1615 -0.0859
  992MOL0     H36892  -0.522   5.955  10.374 -0.8588  0.0238 -1.5468
  992MOL0     H36893  -0.189   5.512   9.817 -0.3867 -1.0877  0.0506
  992MOL0     H36894   0.155   5.630   9.809  0.4593 -0.8949 -0.0330
  992MOL0     H36895   0.102   5.516   9.697 -1.2603  2.5761 -3.3011
  992MOL0     H36896  -0.003   5.648   9.744  1.0685  0.0624 -1.3530
  993MOL0     O36897   7.744   4.437   0.908  0.0442 -0.8367 -0.0691
  993MOL0     C36898   7.627   4.415   0.935  0.3602 -0.4728 -0.7150
  993MOL0     O36899   7.570   4.337   1.040 -0.0047 -0.6455  0.5425
  993MOL0     C36900   7.649   4.270   1.121  0.0880 -0.4022 -0.1889
  993MOL0     C36901   7.755   4.337   1.196  0.3015 -0.1458  0.0687
  993MOL0     C36902   7.815   4.268   1.302 -0.2993 -0.5574 -0.4169
  993MOL0     C36903   7.787   4.136   1.332  0.9894 -0.0698  0.0596
  993MOL0     O36904   7.832   4.068   1.443  0.2804  0.1406  0.7857
  993MOL0     C36905   7.972   4.103   1.488  0.2414 -0.5766 -0.0287
  993MOL0     C36906   8.008   4.013   1.601  0.2828 -0.5448 -0.2507
  993MOL0     C36907   8.022   3.873   1.555 -0.2392 -0.3023 -0.1803
  993MOL0     C36908   8.005   3.777   1.675 -0.5024  0.1689 -0.3970
  993MOL0     C36909   8.063   3.637   1.649 -0.2858  0.1341 -0.0021
  993MOL0     C36910   8.218   3.650   1.656  0.0305  0.3801  0.4214
  993MOL0     C36911   8.293   3.509   1.645  0.1351 -0.2407  0.3044
  993MOL0     C36912   8.436   3.521   1.679  0.0314  0.1045 -0.8617
  993MOL0     N36913   8.459   3.552   1.824  0.4213  0.5491  0.1988
  993MOL0     C36914   8.464   3.448   1.922 -0.2079 -0.1835 -0.0575
  993MOL0     C36915   8.534   3.514   2.019  0.4050  0.5678  1.5995
  993MOL0     C36916   8.583   3.453   2.154  0.0326  0.2772 -0.0494
  993MOL0     C36917   8.469   3.424   2.247  0.4635 -0.2967  0.5803
  993MOL0     C36918   8.480   3.476   2.391  0.3782  0.2220  1.3387
  993MOL0     C36919   8.584   3.408   2.479 -0.5654  0.4370 -0.1252
  993MOL0     O36920   8.712   3.468   2.455 -0.6628 -0.0109 -0.1152
  993MOL0     C36921   8.827   3.395   2.502  0.7354 -0.4395 -0.2906
  993MOL0     C36922   8.827   3.285   2.602  0.1453 -0.8257 -0.0891
  993MOL0     C36923   8.941   3.229   2.658  0.4574 -1.2783 -0.5999
  993MOL0     C36924   8.920   3.121   2.763  0.2236  1.5576 -0.2561
  993MOL0     C36925   9.068   3.277   2.615  0.0111  0.1791  0.7846
  993MOL0     C36926   9.200   3.216   2.651  0.3901 -0.0395 -0.5776
  993MOL0     O36927   9.214   3.165   2.778  0.2323  1.0330  0.7915
  993MOL0     C36928   9.338   3.155   2.847  0.1053 -0.2795 -0.7591
  993MOL0     C36929   9.343   3.063   2.952  0.3540 -0.0194 -0.0796
  993MOL0     C36930   9.455   3.055   3.031 -0.4448  0.7171 -0.7089
  993MOL0     C36931   9.580   3.118   3.001  0.3192  0.9988 -0.4888
  993MOL0     O36932   9.684   3.107   3.084 -0.5689  0.9050  0.7311
  993MOL0     C36933   9.804   3.046   3.032  0.6685 -0.4322  0.0387
  993MOL0     C36934   9.903   2.988   3.131 -0.6179 -0.6880 -0.6531
  993MOL0     C36935  10.043   2.946   3.072 -0.1356 -0.5418  0.0550
  993MOL0     C36936  10.144   2.884   3.175 -0.1380  0.1453  0.8912
  993MOL0     C36937  10.263   2.808   3.110  0.7149  0.0665  0.2426
  993MOL0     C36938  10.367   2.879   3.014  0.3368  0.4336 -0.0568
  993MOL0     C36939  10.420   3.007   3.071 -0.3014 -1.0752 -0.0470
  993MOL0     C36940  10.537   3.070   2.997  0.7074 -0.2397  0.0925
  993MOL0    Cl36941  10.481   3.122   2.836  0.5749  0.1860  0.1265
  993MOL0     C36942   9.568   3.213   2.904  0.2717  0.1818  0.3800
  993MOL0     C36943   9.450   3.232   2.825 -0.5154 -0.3554 -0.1181
  993MOL0     O36944   9.286   3.218   2.560 -0.8906 -0.4012 -0.0829
  993MOL0     C36945   9.069   3.388   2.521 -0.2894 -0.0153  0.2553
  993MOL0     C36946   8.948   3.448   2.470  0.2785  0.0557  0.5204
  993MOL0     N36947   8.558   3.650   1.979 -0.7712 -0.1309 -0.3526
  993MOL0     N36948   8.501   3.674   1.870  0.4007 -0.2035  0.8347
  993MOL0     C36949   7.696   4.070   1.248 -0.2405  0.6294  0.0914
  993MOL0     C36950   7.616   4.134   1.153 -0.2599 -0.4468 -0.1086
  993MOL0     C36951   7.525   4.478   0.856 -0.5364 -0.4561 -0.3621
  993MOL0     C36952   7.390   4.478   0.906  0.3172 -0.7005 -0.1127
  993MOL0     C36953   7.284   4.531   0.834 -0.6634 -0.5192 -0.5677
  993MOL0     C36954   7.301   4.577   0.704 -0.6728 -0.0395 -0.2362
  993MOL0     O36955   7.191   4.620   0.645  0.2292 -0.2711 -0.4406
  993MOL0     C36956   7.202   4.730   0.552 -0.5192  0.3296 -0.6019
  993MOL0     C36957   7.077   4.822   0.551  0.2496  0.4331 -0.0187
  993MOL0     C36958   7.071   4.900   0.684 -0.7786  0.5947 -0.2197
  993MOL0     C36959   7.017   4.814   0.802  0.4869  0.8290  0.4473
  993MOL0     C36960   6.955   4.910   0.906  0.1400 -0.3413 -0.8620
  993MOL0     C36961   6.900   4.987   0.992  0.5990  0.2889  0.5774
  993MOL0     C36962   7.430   4.572   0.651 -0.2366 -0.0383 -0.3604
  993MOL0     C36963   7.549   4.520   0.723  0.4926  0.7090  0.1232
  993MOL0     C36964   7.678   4.537   0.639 -0.2200  0.5972  0.5925
  993MOL0     H36965   7.768   4.442   1.170 -5.8844  0.8874 -0.1851
  993MOL0     H36966   7.879   4.314   1.376 -0.0980 -1.2821 -0.1287
  993MOL0     H36967   7.980   4.208   1.520  0.6251 -0.7491  0.4447
  993MOL0     H36968   8.037   4.087   1.402  0.2804  1.5699 -0.4603
  993MOL0     H36969   8.103   4.053   1.638  0.3027  0.7691 -1.6176
  993MOL0     H36970   7.923   4.032   1.666 -1.5033  0.4950 -2.7193
  993MOL0     H36971   7.948   3.846   1.479  0.4025 -0.8293 -0.6314
  993MOL0     H36972   8.119   3.866   1.504  0.3643 -0.3802  0.9421
  993MOL0     H36973   8.045   3.820   1.767 -2.2339  0.8982  0.0412
  993MOL0     H36974   7.897   3.769   1.685 -0.5033  1.2413  0.6958
  993MOL0     H36975   8.026   3.604   1.552 -3.1136  0.4076  0.9185
  993MOL0     H36976   8.026   3.566   1.722 -0.2546  1.1869  1.0679
  993MOL0     H36977   8.260   3.717   1.580  2.8490  1.3042  2.6034
  993MOL0     H36978   8.250   3.696   1.750  0.4555 -1.6838  1.3405
  993MOL0     H36979   8.290   3.477   1.541  0.7569  2.4565 -0.6313
  993MOL0     H36980   8.240   3.435   1.706  0.2354 -1.5713 -1.1592
  993MOL0     H36981   8.493   3.428   1.665  1.8243  0.8805  0.8066
  993MOL0     H36982   8.493   3.590   1.616  2.0936 -2.0000 -1.4625
  993MOL0     H36983   8.432   3.344   1.926 -0.2086 -0.1416  2.5325
  993MOL0     H36984   8.659   3.518   2.199  0.8498 -0.7281  0.0465
  993MOL0     H36985   8.639   3.362   2.132 -2.2630 -0.5924 -2.9337
  993MOL0     H36986   8.377   3.468   2.208  0.0512 -1.4424  0.2356
  993MOL0     H36987   8.439   3.319   2.254  0.2767 -0.1842  1.6913
  993MOL0     H36988   8.508   3.581   2.403  0.2028  0.1929  2.0058
  993MOL0     H36989   8.383   3.472   2.442 -1.4641 -0.1599 -1.8764
  993MOL0     H36990   8.557   3.429   2.583  0.1696 -1.3262  0.4502
  993MOL0     H36991   8.578   3.300   2.463 -0.8129  0.4452 -0.0983
  993MOL0     H36992   8.730   3.241   2.622  0.3031 -1.6358 -0.9942
  993MOL0     H36993   8.962   3.141   2.862  0.8402 -0.9825  0.0506
  993MOL0     H36994   8.958   3.026   2.725 -1.4960  1.2988 -1.4183
  993MOL0     H36995   8.812   3.121   2.782  0.7084 -0.6410  3.2668
  993MOL0     H36996   9.253   3.008   2.976  1.4416 -1.1711  1.6290
  993MOL0     H36997   9.439   3.006   3.127 -2.2733  0.9161 -0.8869
  993MOL0     H36998   9.777   2.954   2.979 -2.3908  0.1642  0.3678
  993MOL0     H36999   9.861   3.111   2.965  0.0281 -1.3053 -1.4154
  993MOL0     H37000   9.918   3.057   3.215  0.0396 -2.1364  0.4596
  993MOL0     H37001   9.855   2.900   3.174  0.4200 -0.5445  0.8589
  993MOL0     H37002  10.099   3.021   3.017  1.4113 -2.5212 -1.2285
  993MOL0     H37003  10.025   2.863   3.004 -2.2565 -0.7116  0.7443
  993MOL0     H37004  10.099   2.827   3.256  0.8974  1.3544  2.3741
  993MOL0     H37005  10.191   2.976   3.213 -1.8635  0.4861  2.3250
  993MOL0     H37006  10.317   2.753   3.188  0.5989 -1.6493 -0.8241
  993MOL0     H37007  10.209   2.730   3.055  1.5868 -1.1697  1.0667
  993MOL0     H37008  10.312   2.900   2.922 -0.5675 -3.2174 -0.4794
  993MOL0     H37009  10.447   2.807   2.997 -1.5800 -2.1699  1.2405
  993MOL0     H37010  10.444   2.999   3.177  0.6163 -2.3064 -0.3276
  993MOL0     H37011  10.338   3.080   3.066  2.3397  2.1734  0.4058
  993MOL0     H37012  10.617   2.995   2.986 -0.9176 -2.2973  1.4451
  993MOL0     H37013  10.570   3.165   3.039  0.3948  0.0888 -0.3994
  993MOL0     H37014   9.650   3.279   2.878 -1.6571  2.0401 -1.3418
  993MOL0     H37015   9.450   3.312   2.752 -1.9553  0.2096  0.4667
  993MOL0     H37016   9.162   3.440   2.499 -0.3243  1.2006  2.6095
  993MOL0     H37017   8.954   3.539   2.411 -0.4796 -1.0225 -1.2862
  993MOL0     H37018   7.678   3.969   1.283 -1.2626  0.8901  0.3446
  993MOL0     H37019   7.537   4.081   1.102  0.0428 -4.1480  2.8473
  993MOL0     H37020   7.368   4.443   1.007 -3.3994  0.7943 -0.2351
  993MOL0     H37021   7.183   4.520   0.871 -0.5948  1.0728  0.1944
  993MOL0     H37022   7.284   4.798   0.574 -2.0522  2.1356 -0.1684
  993MOL0     H37023   7.218   4.690   0.452 -2.0413  1.6359 -1.4115
  993MOL0     H37024   6.984   4.764   0.549  0.1433  0.5897  0.2617
  993MOL0     H37025   7.081   4.888   0.464  1.0151  0.1307 -0.2219
  993MOL0     H37026   7.164   4.947   0.717  0.7874  0.6690 -4.1795
  993MOL0     H37027   6.993   4.975   0.666 -3.7416 -1.9882  0.9367
  993MOL0     H37028   7.095   4.761   0.857 -0.6010 -0.1959  1.0322
  993MOL0     H37029   6.942   4.749   0.756  2.0859  1.0425 -2.7470
  993MOL0     H37030   6.839   5.035   1.067 -1.3141 -1.3198  0.1198
  993MOL0     H37031   7.443   4.607   0.549 -1.4393 -0.0888 -0.5485
  993MOL0     H37032   7.738   4.450   0.668 -2.9466 -1.2859  1.0482
  993MOL0     H37033   7.657   4.528   0.532  1.3624 -0.5375  0.3348
  993MOL0     H37034   7.729   4.631   0.659 -1.1513  1.3235 -0.3745
  994MOL0     O37035   2.601   8.925   5.936  0.6937  0.6550 -0.0602
  994MOL0     C37036   2.603   8.927   5.812  0.4789  0.5569 -0.1326
  994MOL0     O37037   2.510   8.859   5.734 -0.6996 -0.2703  0.2385
  994MOL0     C37038   2.418   8.780   5.794 -0.3347  0.7164 -1.0342
  994MOL0     C37039   2.413   8.648   5.752  0.1740  0.6962 -0.3208
  994MOL0     C37040   2.317   8.555   5.799 -0.8490 -0.6659  0.1808
  994MOL0     C37041   2.225   8.605   5.898  0.5309 -0.1468 -0.6354
  994MOL0     O37042   2.130   8.526   5.954  0.1803  0.5161 -0.1284
  994MOL0     C37043   2.065   8.412   5.893 -0.9868 -0.1122 -0.2500
  994MOL0     C37044   1.962   8.348   5.984  1.0860  0.1026 -0.5995
  994MOL0     C37045   2.010   8.323   6.128 -0.7809 -0.1124 -0.1641
  994MOL0     C37046   2.147   8.238   6.146 -0.3350  0.0093  0.3096
  994MOL0     C37047   2.164   8.193   6.283 -0.2799 -0.5435 -0.8658
  994MOL0     C37048   2.298   8.122   6.309  0.0449  0.3525  0.3452
  994MOL0     C37049   2.310   8.069   6.446 -0.4236  0.0782 -1.7881
  994MOL0     C37050   2.313   8.184   6.553 -0.1245 -0.7943  0.5859
  994MOL0     N37051   2.418   8.292   6.533  0.9403 -0.0470 -1.0643
  994MOL0     C37052   2.425   8.377   6.427  0.3927  0.0207  0.4941
  994MOL0     C37053   2.535   8.456   6.445 -0.6886  0.1745 -0.2345
  994MOL0     C37054   2.577   8.567   6.353  0.0612 -0.5706 -1.0791
  994MOL0     C37055   2.518   8.545   6.218 -0.1361 -0.1700 -0.1854
  994MOL0     C37056   2.566   8.661   6.125  0.1567 -0.0838 -0.2544
  994MOL0     C37057   2.690   8.628   6.041  0.1353  0.1542  0.3485
  994MOL0     O37058   2.805   8.595   6.125 -0.0287 -0.3787 -0.2783
  994MOL0     C37059   2.889   8.693   6.182  0.2850 -0.1807  0.1315
  994MOL0     C37060   2.850   8.821   6.215  0.7537 -0.1967  0.6119
  994MOL0     C37061   2.932   8.919   6.273  0.5315 -1.0611  0.6902
  994MOL0     C37062   2.888   9.065   6.291 -0.3067  0.5940 -0.0247
  994MOL0     C37063   3.065   8.876   6.306  0.0347 -0.6691  0.2045
  994MOL0     C37064   3.169   8.951   6.376 -0.2066 -0.1392 -0.1815
  994MOL0     O37065   3.132   9.042   6.471  0.2336 -0.5799  0.4187
  994MOL0     C37066   3.222   9.087   6.569  0.2235  0.1468  0.7802
  994MOL0     C37067   3.332   9.015   6.622 -0.2445  0.4600  0.5551
  994MOL0     C37068   3.437   9.075   6.692  0.0934  0.3728 -0.5341
  994MOL0     C37069   3.437   9.210   6.728  1.1318  0.4646  0.8443
  994MOL0     O37070   3.530   9.270   6.808  0.3868  0.0929  0.3012
  994MOL0     C37071   3.670   9.243   6.781  1.1144 -0.0633 -0.2140
  994MOL0     C37072   3.745   9.179   6.902 -0.2782  0.0152 -0.4620
  994MOL0     C37073   3.895   9.175   6.897 -1.2122 -1.4097  0.6083
  994MOL0     C37074   3.955   9.308   6.955  0.0247  0.1618  0.9104
  994MOL0     C37075   4.106   9.298   6.985  0.6267  1.0489  0.4189
  994MOL0     C37076   4.196   9.249   6.867  0.0844  0.2595 -0.4545
  994MOL0     C37077   4.343   9.239   6.907 -0.0007  0.4914 -0.4198
  994MOL0     C37078   4.434   9.189   6.788 -0.1436 -0.7247 -0.1239
  994MOL0    Cl37079   4.607   9.196   6.845 -0.1782  0.0808  0.4267
  994MOL0     C37080   3.322   9.281   6.686 -0.5421  0.7312  0.9404
  994MOL0     C37081   3.224   9.218   6.606  0.1597 -0.2122  0.8017
  994MOL0     O37082   3.290   8.922   6.354 -0.4657 -0.4094 -0.0277
  994MOL0     C37083   3.105   8.747   6.277  0.0228  0.5120  0.1739
  994MOL0     C37084   3.017   8.652   6.225 -0.3473  0.3878 -0.5213
  994MOL0     N37085   2.587   8.429   6.567 -0.8986 -0.2103  0.3087
  994MOL0     N37086   2.520   8.334   6.618  0.0251  0.0681  0.5968
  994MOL0     C37087   2.221   8.742   5.931 -0.1275  0.1973 -0.0511
  994MOL0     C37088   2.318   8.829   5.878 -0.5453 -0.2851  0.2191
  994MOL0     C37089   2.678   9.040   5.747 -0.1416 -0.0305  0.6993
  994MOL0     C37090   2.636   9.083   5.617  1.0471 -0.4053 -0.0921
  994MOL0     C37091   2.710   9.169   5.542  0.0957 -0.4956  0.9008
  994MOL0     C37092   2.832   9.216   5.591 -0.9453 -0.1700 -0.1207
  994MOL0     O37093   2.916   9.284   5.507  0.5805 -0.4480  0.7105
  994MOL0     C37094   3.048   9.320   5.551  0.2584  0.7226 -0.9548
  994MOL0     C37095   3.130   9.392   5.437 -0.8552  0.3078  0.4626
  994MOL0     C37096   3.184   9.300   5.323 -0.1831 -0.2762  0.2481
  994MOL0     C37097   3.270   9.368   5.208  0.7674 -0.0052  0.4663
  994MOL0     C37098   3.206   9.482   5.143  0.4685  0.6068 -0.0154
  994MOL0     C37099   3.166   9.587   5.104  0.4084  0.4593  0.2651
  994MOL0     C37100   2.868   9.186   5.724 -0.2180 -0.3224 -0.4520
  994MOL0     C37101   2.788   9.103   5.805  0.0362  0.4981 -0.7487
  994MOL0     C37102   2.852   9.061   5.939  0.5841  0.6758 -0.2359
  994MOL0     H37103   2.489   8.619   5.680  1.0778 -1.7354  1.4984
  994MOL0     H37104   2.312   8.452   5.764 -1.2104 -0.7790  0.5603
  994MOL0     H37105   2.143   8.343   5.859 -0.3172  0.3824  0.2602
  994MOL0     H37106   2.010   8.453   5.807  0.1990  1.8989 -0.1193
  994MOL0     H37107   1.867   8.401   5.994  0.6343 -0.6732 -0.6915
  994MOL0     H37108   1.924   8.255   5.942  0.5881  0.0246  0.0096
  994MOL0     H37109   2.033   8.423   6.164  3.4869 -0.7319 -0.6200
  994MOL0     H37110   1.930   8.283   6.191  1.3055  1.2193  3.6335
  994MOL0     H37111   2.141   8.154   6.076  0.4891  0.8747 -0.8366
  994MOL0     H37112   2.231   8.299   6.112  0.4814 -0.1876  1.9054
  994MOL0     H37113   2.081   8.129   6.312  0.4163  0.3822  4.1096
  994MOL0     H37114   2.154   8.284   6.343 -3.4507  0.0718 -2.1719
  994MOL0     H37115   2.291   8.040   6.237 -0.0257  1.2011 -0.6327
  994MOL0     H37116   2.381   8.181   6.270 -0.9003  1.0475 -0.6691
  994MOL0     H37117   2.409   8.023   6.451  0.7241  2.5339  0.9019
  994MOL0     H37118   2.227   8.001   6.464 -1.7312  1.1563 -3.4426
  994MOL0     H37119   2.216   8.234   6.558  1.2134  2.8025 -3.2230
  994MOL0     H37120   2.319   8.143   6.654 -3.5607  1.9537  2.1217
  994MOL0     H37121   2.367   8.375   6.335 -0.2218  4.6706  0.5284
  994MOL0     H37122   2.684   8.575   6.333 -0.1667  0.0085 -2.1842
  994MOL0     H37123   2.541   8.656   6.405 -1.0742 -1.3949 -0.4062
  994MOL0     H37124   2.560   8.455   6.173 -2.0066 -1.0757 -0.1708
  994MOL0     H37125   2.409   8.543   6.212 -0.0646 -1.0151 -1.6577
  994MOL0     H37126   2.496   8.693   6.047 -1.3758  2.1540  1.9260
  994MOL0     H37127   2.578   8.746   6.192  0.1054 -0.5706  0.3832
  994MOL0     H37128   2.666   8.533   5.991  1.0319 -1.0264  2.0269
  994MOL0     H37129   2.722   8.704   5.969 -2.1442 -0.8196 -1.8502
  994MOL0     H37130   2.749   8.852   6.188  0.2313 -1.6416  0.8603
  994MOL0     H37131   2.788   9.084   6.251 -0.3470  2.0114  0.7055
  994MOL0     H37132   2.957   9.122   6.229  0.2845 -2.4718 -2.4557
  994MOL0     H37133   2.906   9.094   6.395  2.0194  0.4447 -0.3226
  994MOL0     H37134   3.323   8.908   6.601  0.2570  0.3264  0.9967
  994MOL0     H37135   3.503   8.998   6.730 -0.9682 -1.2574 -1.8692
  994MOL0     H37136   3.681   9.171   6.699 -0.0959 -1.4695  0.7837
  994MOL0     H37137   3.723   9.338   6.768 -0.9698  1.0724 -0.8609
  994MOL0     H37138   3.712   9.240   6.986  1.9815  2.3199 -1.1055
  994MOL0     H37139   3.709   9.077   6.913  2.5386 -1.1344 -0.8778
  994MOL0     H37140   3.930   9.174   6.793  0.4829 -1.2989  1.1587
  994MOL0     H37141   3.930   9.092   6.958 -0.2307  0.2178  2.3654
  994MOL0     H37142   3.917   9.334   7.054 -0.3961 -0.1233  0.8235
  994MOL0     H37143   3.942   9.397   6.893  4.5256  0.1446 -0.4397
  994MOL0     H37144   4.151   9.390   7.024 -0.6274  1.1567  1.6753
  994MOL0     H37145   4.123   9.232   7.070  2.9544  2.4176  1.1096
  994MOL0     H37146   4.198   9.338   6.803  0.4256  0.2580 -0.4486
  994MOL0     H37147   4.148   9.160   6.827 -1.6931  0.4915  1.0533
  994MOL0     H37148   4.338   9.178   6.997 -1.4764 -2.0962 -2.1106
  994MOL0     H37149   4.389   9.333   6.937  1.8945  0.0589 -1.7431
  994MOL0     H37150   4.423   9.248   6.696  0.6922 -0.7037 -0.2169
  994MOL0     H37151   4.409   9.086   6.763  2.9353 -2.1248  1.9144
  994MOL0     H37152   3.315   9.385   6.715 -3.5738  0.1194  2.8342
  994MOL0     H37153   3.149   9.286   6.566 -1.1079 -1.2356  1.3945
  994MOL0     H37154   3.201   8.701   6.298 -0.0895 -0.7282 -1.8064
  994MOL0     H37155   3.060   8.557   6.195 -1.8711  0.2300 -2.3639
  994MOL0     H37156   2.139   8.775   5.994  0.5476  0.5902  0.6345
  994MOL0     H37157   2.303   8.934   5.900 -0.5407 -0.2152 -0.1083
  994MOL0     H37158   2.538   9.047   5.588  1.3527  0.9347 -3.0935
  994MOL0     H37159   2.676   9.201   5.443  0.3609  0.4462  1.1109
  994MOL0     H37160   3.031   9.385   5.638 -1.8579 -1.6646  0.5460
  994MOL0     H37161   3.101   9.228   5.579  0.9661  1.8736  1.7751
  994MOL0     H37162   3.212   9.448   5.484 -0.4879  1.5041 -1.4776
  994MOL0     H37163   3.070   9.473   5.394 -0.2352 -0.0955 -1.2450
  994MOL0     H37164   3.237   9.210   5.358  0.7578 -0.5702 -1.7915
  994MOL0     H37165   3.100   9.251   5.273 -0.6188 -2.3231  2.7052
  994MOL0     H37166   3.282   9.292   5.131 -1.5960 -0.3005  0.3001
  994MOL0     H37167   3.366   9.402   5.247  0.8981  0.3738 -0.1817
  994MOL0     H37168   3.135   9.685   5.075 -1.1343  0.5367  2.0148
  994MOL0     H37169   2.954   9.232   5.772  0.5492 -0.1776 -1.9165
  994MOL0     H37170   2.949   9.112   5.942  1.4408 -0.5463 -3.2196
  994MOL0     H37171   2.804   9.072   6.037  2.0156 -2.0028  0.8995
  994MOL0     H37172   2.873   8.954   5.930 -1.0521  0.4878 -2.6406
  995MOL0     O37173  10.295   4.282   0.542 -0.3193 -0.4568  0.1671
  995MOL0     C37174  10.394   4.240   0.486  1.1278 -0.5078 -0.5887
  995MOL0     O37175  10.392   4.190   0.362 -0.0549  0.5545  0.5034
  995MOL0     C37176  10.275   4.213   0.288  0.0899 -0.0956 -0.0818
  995MOL0     C37177  10.184   4.104   0.285 -0.0219 -0.5131  0.3822
  995MOL0     C37178  10.054   4.105   0.218 -0.1255  0.4691 -0.7136
  995MOL0     C37179  10.016   4.224   0.148 -0.7309  0.7426 -0.2109
  995MOL0     O37180   9.906   4.227   0.076 -0.6932  0.5754  0.3532
  995MOL0     C37181   9.823   4.339   0.107 -0.1969  0.5714 -0.6853
  995MOL0     C37182   9.683   4.274   0.116  0.0008 -0.0409 -0.5106
  995MOL0     C37183   9.578   4.385   0.159 -0.0547  0.1679  0.4745
  995MOL0     C37184   9.462   4.309   0.222  0.2115 -1.0254 -0.7542
  995MOL0     C37185   9.347   4.403   0.250 -0.1375  0.1529  0.2059
  995MOL0     C37186   9.232   4.325   0.307 -0.0726  0.0736 -1.0583
  995MOL0     C37187   9.122   4.412   0.350  1.0084 -0.3731  0.5546
  995MOL0     C37188   8.985   4.344   0.389 -0.0661 -0.7556 -0.6144
  995MOL0     N37189   9.008   4.228   0.475 -0.2289  0.4571  0.3617
  995MOL0     C37190   9.077   4.235   0.594 -0.2257 -0.1223 -0.0291
  995MOL0     C37191   9.038   4.125   0.659  0.6305  0.0466 -0.1445
  995MOL0     C37192   9.082   4.092   0.802 -0.2111  0.4530 -0.2299
  995MOL0     C37193   8.966   4.073   0.903 -0.5107  0.7652 -0.4346
  995MOL0     C37194   8.876   4.204   0.918  0.0504 -0.3158  0.3751
  995MOL0     C37195   8.944   4.302   1.015  0.0564 -0.5958 -1.2343
  995MOL0     O37196   8.938   4.250   1.146 -0.0521 -0.4939  0.8343
  995MOL0     C37197   9.025   4.290   1.247  0.3129  0.4925  0.4546
  995MOL0     C37198   9.029   4.216   1.357  0.2312 -0.5531 -0.3502
  995MOL0     C37199   9.115   4.249   1.467  0.1827 -1.3449 -0.0923
  995MOL0     C37200   9.108   4.154   1.585 -0.0169  0.3084 -0.4900
  995MOL0     C37201   9.218   4.352   1.454  0.1090 -0.4104  0.3269
  995MOL0     C37202   9.314   4.388   1.551  0.1169  0.3292  0.2758
  995MOL0     O37203   9.336   4.522   1.573 -0.5814 -0.9917 -0.3988
  995MOL0     C37204   9.445   4.552   1.653 -0.1297  0.3633  0.0663
  995MOL0     C37205   9.441   4.594   1.788  0.3590 -0.3662  0.1100
  995MOL0     C37206   9.560   4.635   1.855 -0.5687  0.2663  0.3743
  995MOL0     C37207   9.683   4.605   1.786 -0.7575 -0.6153  0.4015
  995MOL0     O37208   9.800   4.638   1.850 -0.4275 -0.1597  0.1616
  995MOL0     C37209   9.864   4.760   1.812 -0.0912  0.5126  0.1920
  995MOL0     C37210   9.992   4.781   1.881  0.5705  0.0076  0.2435
  995MOL0     C37211   9.962   4.836   2.028  0.9380  0.5486  0.7359
  995MOL0     C37212  10.095   4.872   2.101 -0.0774 -0.0923 -0.3868
  995MOL0     C37213  10.057   4.945   2.236 -1.1623 -0.0492 -0.5871
  995MOL0     C37214  10.192   4.951   2.323 -0.1504 -0.0738 -0.1610
  995MOL0     C37215  10.153   5.014   2.459 -0.5301  0.3765  0.6036
  995MOL0     C37216  10.142   5.159   2.445  0.0118 -0.9113  0.1596
  995MOL0    Cl37217  10.292   5.249   2.389  0.4059  0.0368 -0.1286
  995MOL0     C37218   9.689   4.563   1.653  0.1682  0.5543 -0.5248
  995MOL0     C37219   9.572   4.525   1.595  0.0666  0.3821 -0.0198
  995MOL0     O37220   9.355   4.296   1.621  0.1391  0.5513  1.5710
  995MOL0     C37221   9.204   4.434   1.333 -0.0298  0.3165  0.1865
  995MOL0     C37222   9.112   4.398   1.233  0.7267 -0.5697 -0.0650
  995MOL0     N37223   8.964   4.046   0.576 -0.4054 -0.5004  1.1553
  995MOL0     N37224   8.958   4.097   0.460 -0.0925 -0.5096  0.2426
  995MOL0     C37225  10.111   4.331   0.146 -0.8703 -0.4356  0.0584
  995MOL0     C37226  10.231   4.333   0.223  0.8926 -0.7319 -0.4668
  995MOL0     C37227  10.531   4.250   0.557  0.7116 -0.5187 -0.2835
  995MOL0     C37228  10.538   4.284   0.694 -0.1104  0.3803 -0.8508
  995MOL0     C37229  10.657   4.266   0.764  1.2447  0.4414  0.8426
  995MOL0     C37230  10.776   4.258   0.692  0.3025 -0.7053 -0.0635
  995MOL0     O37231  10.883   4.261   0.776  0.4832  0.6266 -0.1969
  995MOL0     C37232  11.010   4.227   0.726  0.6282  0.9795 -0.0538
  995MOL0     C37233  11.119   4.292   0.821  0.6283 -0.8960 -0.4249
  995MOL0     C37234  11.115   4.221   0.958  0.2873 -0.6786 -0.0537
  995MOL0     C37235  11.235   4.253   1.062  0.2675 -0.4995  0.1535
  995MOL0     C37236  11.197   4.383   1.116  0.3816 -0.7956 -0.4996
  995MOL0     C37237  11.163   4.493   1.164  0.3119  0.8429 -0.1784
  995MOL0     C37238  10.771   4.255   0.552 -0.1092  0.4495  0.3250
  995MOL0     C37239  10.651   4.251   0.482 -0.2061 -1.0244  0.5032
  995MOL0     C37240  10.664   4.233   0.330  0.4501 -0.2613  0.5949
  995MOL0     H37241  10.221   4.011   0.326  2.2010  0.3574  0.4675
  995MOL0     H37242  10.001   4.010   0.219 -0.3334  0.5165  2.3289
  995MOL0     H37243   9.821   4.410   0.024  1.0590 -0.2218 -1.4150
  995MOL0     H37244   9.847   4.391   0.200 -2.0178  4.1539 -2.0383
  995MOL0     H37245   9.662   4.258   0.010 -0.7528 -0.0159 -0.3748
  995MOL0     H37246   9.680   4.180   0.172  0.2659 -1.1760 -2.2953
  995MOL0     H37247   9.617   4.461   0.226 -0.9400  2.1123 -1.1292
  995MOL0     H37248   9.546   4.449   0.077 -1.2942 -0.3592  0.5259
  995MOL0     H37249   9.427   4.227   0.157  0.0228 -3.0828  1.7888
  995MOL0     H37250   9.496   4.270   0.318  2.6681  0.9643 -0.7096
  995MOL0     H37251   9.311   4.459   0.163 -1.2049 -0.2447  0.3802
  995MOL0     H37252   9.371   4.481   0.323  1.7109  2.4420 -2.5862
  995MOL0     H37253   9.195   4.254   0.233 -0.8563 -2.4064  1.5113
  995MOL0     H37254   9.257   4.263   0.394 -1.4874  1.2435  0.2236
  995MOL0     H37255   9.106   4.483   0.268  0.9032  2.0467  2.5361
  995MOL0     H37256   9.161   4.468   0.435  2.5716  2.8730 -2.0441
  995MOL0     H37257   8.917   4.416   0.434  0.8445 -1.0177  1.2640
  995MOL0     H37258   8.932   4.310   0.299 -2.1652  1.1866 -0.1826
  995MOL0     H37259   9.152   4.305   0.627 -1.3581  0.2107  1.9628
  995MOL0     H37260   9.148   4.175   0.829  1.4434 -1.0846  0.7004
  995MOL0     H37261   9.133   3.995   0.801 -1.7050 -0.3790 -2.7228
  995MOL0     H37262   8.905   3.994   0.858  1.1399 -0.9651  0.2300
  995MOL0     H37263   9.003   4.043   1.002 -2.8526 -0.4213  0.1649
  995MOL0     H37264   8.869   4.259   0.824 -2.1216  1.9735  1.7460
  995MOL0     H37265   8.775   4.177   0.952  0.1969  1.0231  1.9831
  995MOL0     H37266   9.047   4.323   0.985 -0.0214 -0.8164 -1.6721
  995MOL0     H37267   8.891   4.397   1.024 -0.8631 -1.2850  1.7946
  995MOL0     H37268   8.960   4.135   1.382  0.4190 -0.6159 -0.0260
  995MOL0     H37269   9.171   4.067   1.563  0.0475  0.6638 -1.7934
  995MOL0     H37270   9.007   4.116   1.604 -0.6690  1.9035 -0.6760
  995MOL0     H37271   9.147   4.199   1.676  2.7483  1.3942 -2.1081
  995MOL0     H37272   9.337   4.601   1.819 -0.6608  0.8824 -3.1628
  995MOL0     H37273   9.548   4.680   1.953  0.2905  0.3681  0.4395
  995MOL0     H37274   9.882   4.749   1.704 -1.3904 -1.2100  0.1167
  995MOL0     H37275   9.796   4.845   1.814  0.6393  1.1695 -1.0104
  995MOL0     H37276  10.043   4.685   1.894  0.9560  0.2346  0.4250
  995MOL0     H37277  10.058   4.849   1.826  1.8950  1.4052  3.3402
  995MOL0     H37278   9.902   4.764   2.085 -0.2832 -0.7756 -2.0202
  995MOL0     H37279   9.915   4.935   2.025  1.2805  0.7504  1.6142
  995MOL0     H37280  10.145   4.945   2.036 -0.0238  1.6985  1.5588
  995MOL0     H37281  10.154   4.781   2.103 -0.1061 -0.0942  0.5255
  995MOL0     H37282  10.015   5.045   2.222 -0.9900  0.2772  1.0063
  995MOL0     H37283   9.992   4.878   2.292  1.5509 -2.6020 -0.2601
  995MOL0     H37284  10.277   5.007   2.284  0.5414 -1.3009 -0.4897
  995MOL0     H37285  10.223   4.849   2.348  0.5728 -0.1753 -1.3972
  995MOL0     H37286  10.231   4.992   2.533  1.5843 -1.2936 -1.9699
  995MOL0     H37287  10.068   4.962   2.504 -0.5709 -0.6661 -0.6362
  995MOL0     H37288  10.128   5.208   2.541  0.2339  1.8495 -1.1227
  995MOL0     H37289  10.060   5.185   2.377 -2.0114 -0.7367  2.5505
  995MOL0     H37290   9.779   4.555   1.593 -0.3872  1.1907 -1.4769
  995MOL0     H37291   9.576   4.502   1.488  0.2860 -0.6689  0.1972
  995MOL0     H37292   9.270   4.518   1.313  2.5212 -0.8392  2.8471
  995MOL0     H37293   9.102   4.476   1.158  0.4460  0.9088  1.4728
  995MOL0     H37294  10.092   4.406   0.070 -0.3826  1.1331  1.4331
  995MOL0     H37295  10.285   4.423   0.248  3.2855 -2.1769 -0.0557
  995MOL0     H37296  10.447   4.294   0.753  1.4060 -0.6501  1.8807
  995MOL0     H37297  10.663   4.283   0.871  0.2592  1.5936  0.7355
  995MOL0     H37298  11.024   4.118   0.721 -0.8259  0.3053  5.0159
  995MOL0     H37299  11.043   4.271   0.631  1.4224 -0.7333 -0.6252
  995MOL0     H37300  11.081   4.393   0.839  0.9375 -1.0514  1.2677
  995MOL0     H37301  11.221   4.289   0.782  0.2090  0.9534 -1.8320
  995MOL0     H37302  11.019   4.246   1.003  0.9721  0.4647  0.8226
  995MOL0     H37303  11.114   4.112   0.946 -1.7040 -0.6222 -0.7495
  995MOL0     H37304  11.333   4.260   1.014 -0.4200 -0.5104 -1.3243
  995MOL0     H37305  11.240   4.178   1.141  0.7425  0.7662  1.3646
  995MOL0     H37306  11.117   4.586   1.192 -1.4696 -0.3629  1.1549
  995MOL0     H37307  10.864   4.254   0.496 -0.1770  0.6972  0.2090
  995MOL0     H37308  10.621   4.321   0.280 -1.0855  0.7693  3.4713
  995MOL0     H37309  10.767   4.233   0.294  0.6780 -1.0453  1.2193
  995MOL0     H37310  10.608   4.150   0.288 -1.2921  1.5042 -0.7817
  996MOL0     O37311   5.635   3.156   4.019  0.0815 -0.5758  0.3556
  996MOL0     C37312   5.746   3.104   4.044 -0.4590 -0.9914  0.9476
  996MOL0     O37313   5.771   2.975   4.066  0.1470  0.7206 -0.5349
  996MOL0     C37314   5.660   2.906   4.116  0.0333  0.0512  0.5991
  996MOL0     C37315   5.577   2.836   4.025  0.3380  0.1486  0.1041
  996MOL0     C37316   5.468   2.765   4.075 -0.4118 -0.2664  0.2099
  996MOL0     C37317   5.446   2.749   4.213 -0.7630 -0.7021  0.2678
  996MOL0     O37318   5.336   2.679   4.261 -0.5110  0.1922 -0.5830
  996MOL0     C37319   5.264   2.744   4.357  0.3200  0.4471  0.1277
  996MOL0     C37320   5.116   2.718   4.336  0.6395  0.2488  0.4750
  996MOL0     C37321   5.018   2.775   4.434 -0.6732 -0.4137  0.5121
  996MOL0     C37322   5.053   2.739   4.581 -0.9732  1.2103  0.3590
  996MOL0     C37323   4.959   2.806   4.671  0.4301  0.3580 -0.3784
  996MOL0     C37324   4.816   2.738   4.672  0.0874  0.4882  0.0277
  996MOL0     C37325   4.719   2.843   4.724 -0.0448  0.5357  0.2411
  996MOL0     C37326   4.591   2.788   4.782 -0.4802  0.6392  0.3989
  996MOL0     N37327   4.600   2.721   4.912  0.4788 -0.4126 -0.0073
  996MOL0     C37328   4.597   2.584   4.932  0.6806 -0.3835  0.0552
  996MOL0     C37329   4.569   2.571   5.064 -0.4009  0.0265  0.5197
  996MOL0     C37330   4.561   2.449   5.144  0.3012  0.3139  0.0232
  996MOL0     C37331   4.417   2.413   5.185 -0.6168  0.4453 -0.1711
  996MOL0     C37332   4.348   2.517   5.288 -0.7982 -0.0400  0.5754
  996MOL0     C37333   4.435   2.553   5.410  0.1761  0.4330 -0.2868
  996MOL0     O37334   4.438   2.435   5.487  0.4856 -0.0492 -0.0576
  996MOL0     C37335   4.498   2.448   5.610  0.5183 -0.6298  0.2757
  996MOL0     C37336   4.491   2.335   5.690 -0.2142  1.1655  0.0444
  996MOL0     C37337   4.537   2.337   5.826 -0.1376  0.5930 -0.6687
  996MOL0     C37338   4.517   2.210   5.910  0.0368 -0.5020 -0.7798
  996MOL0     C37339   4.591   2.463   5.875 -0.4959  0.3453  1.2426
  996MOL0     C37340   4.665   2.481   6.005  0.0798  0.4172 -0.1326
  996MOL0     O37341   4.747   2.587   6.015  0.3145  0.1970  0.4196
  996MOL0     C37342   4.811   2.605   6.136  0.0996  0.3974 -0.6197
  996MOL0     C37343   4.921   2.520   6.170 -0.1922 -0.5383  0.9423
  996MOL0     C37344   4.983   2.551   6.288 -1.2121 -0.7414 -1.1982
  996MOL0     C37345   4.927   2.644   6.388  0.1246  0.1054  0.7199
  996MOL0     O37346   4.992   2.672   6.511 -0.6546 -0.2553  0.5138
  996MOL0     C37347   5.063   2.800   6.517  0.2029 -0.1955  0.5584
  996MOL0     C37348   5.157   2.822   6.634 -0.4343 -0.1041  0.0849
  996MOL0     C37349   5.286   2.736   6.639 -0.3112  0.1670  0.1337
  996MOL0     C37350   5.394   2.825   6.697 -0.3793  0.6993  0.5393
  996MOL0     C37351   5.470   2.927   6.604 -1.1096 -0.5988 -0.6509
  996MOL0     C37352   5.522   2.865   6.470  0.4731 -1.1720 -0.3226
  996MOL0     C37353   5.608   2.727   6.483 -0.4631 -0.4658 -0.4395
  996MOL0     C37354   5.755   2.758   6.535  0.2827 -0.2839  0.9169
  996MOL0    Cl37355   5.827   2.829   6.378  0.3091  0.0594  0.0305
  996MOL0     C37356   4.812   2.726   6.354 -0.2950  0.8004 -0.5570
  996MOL0     C37357   4.758   2.697   6.223 -0.3332  1.0351 -0.1916
  996MOL0     O37358   4.643   2.390   6.084  0.7897 -0.0549 -0.4838
  996MOL0     C37359   4.593   2.580   5.782 -0.2180  0.3060  0.1509
  996MOL0     C37360   4.550   2.570   5.653  0.2145 -0.4892  0.0605
  996MOL0     N37361   4.579   2.692   5.126 -0.5595  0.1817  0.5692
  996MOL0     N37362   4.595   2.778   5.036  0.0061 -0.0707  0.4562
  996MOL0     C37363   5.529   2.815   4.306 -0.0694  0.2546 -0.5539
  996MOL0     C37364   5.632   2.896   4.248 -0.6168 -0.0133 -0.0504
  996MOL0     C37365   5.862   3.194   4.017  0.2744 -0.5159 -0.5108
  996MOL0     C37366   5.963   3.135   3.941 -0.3152  0.1528 -0.0919
  996MOL0     C37367   6.081   3.198   3.903  0.1272 -0.0361 -0.6912
  996MOL0     C37368   6.101   3.332   3.937 -0.1771 -0.8872  0.3754
  996MOL0     O37369   6.201   3.410   3.890  0.2736 -0.3492  0.1778
  996MOL0     C37370   6.311   3.352   3.813 -0.0377 -0.1003 -0.4652
  996MOL0     C37371   6.403   3.472   3.773  0.3310  0.2579  0.8472
  996MOL0     C37372   6.458   3.536   3.907  0.0269  0.2054 -0.0171
  996MOL0     C37373   6.535   3.438   4.000 -0.5716  0.0189 -0.9929
  996MOL0     C37374   6.601   3.508   4.104 -0.2623 -0.4185  0.7312
  996MOL0     C37375   6.680   3.554   4.180 -0.0024  0.6515  0.6354
  996MOL0     C37376   6.004   3.397   4.016 -0.0019 -1.0928  0.8263
  996MOL0     C37377   5.886   3.331   4.045 -0.2180  0.2323 -0.9592
  996MOL0     C37378   5.787   3.413   4.127 -0.1046  0.8302 -0.5149
  996MOL0     H37379   5.583   2.840   3.917  0.9092 -2.7273 -0.0451
  996MOL0     H37380   5.418   2.699   4.004  2.1338 -2.0490 -0.0600
  996MOL0     H37381   5.275   2.853   4.357 -1.0671  0.7150 -3.2212
  996MOL0     H37382   5.288   2.700   4.453 -2.0851 -1.1700  0.0880
  996MOL0     H37383   5.086   2.764   4.241 -0.6410 -1.9472 -0.2644
  996MOL0     H37384   5.107   2.609   4.327 -0.1398  0.3467 -0.0793
  996MOL0     H37385   5.012   2.883   4.417  0.8105 -0.3747  0.1645
  996MOL0     H37386   4.921   2.728   4.414  1.2001 -4.1061 -0.7291
  996MOL0     H37387   5.051   2.629   4.581  2.1200  1.0377 -1.7431
  996MOL0     H37388   5.153   2.776   4.603 -0.7441  0.4117  0.7062
  996MOL0     H37389   4.943   2.911   4.646  1.5955  1.6169  3.4257
  996MOL0     H37390   5.003   2.804   4.771 -0.5108 -3.3684  0.1088
  996MOL0     H37391   4.790   2.695   4.574 -0.1361 -2.3218  1.2310
  996MOL0     H37392   4.840   2.652   4.735  2.2480 -0.9578 -2.5531
  996MOL0     H37393   4.701   2.923   4.651  1.5489 -0.2262 -1.0463
  996MOL0     H37394   4.766   2.876   4.817  0.2813  1.8726 -0.3767
  996MOL0     H37395   4.519   2.871   4.792 -2.0255  0.0346 -3.8366
  996MOL0     H37396   4.544   2.718   4.713  3.3396 -0.1950 -1.6431
  996MOL0     H37397   4.609   2.520   4.846 -3.1276  0.5615 -1.3820
  996MOL0     H37398   4.623   2.450   5.234  0.9815 -3.6530 -0.2144
  996MOL0     H37399   4.596   2.363   5.085  3.9883  0.5755  1.5368
  996MOL0     H37400   4.358   2.415   5.093 -0.7557  0.7367 -0.0776
  996MOL0     H37401   4.399   2.313   5.225  0.2583  0.4629  0.2812
  996MOL0     H37402   4.325   2.608   5.232  2.0071 -1.6997 -3.8030
  996MOL0     H37403   4.255   2.466   5.314 -2.4387  2.4187 -0.1743
  996MOL0     H37404   4.539   2.584   5.397  0.5664 -1.1381 -1.1806
  996MOL0     H37405   4.394   2.642   5.459 -0.3927  1.5493 -2.5973
  996MOL0     H37406   4.440   2.255   5.637  1.6446 -0.3013  0.3843
  996MOL0     H37407   4.449   2.210   5.996  0.7742 -0.8733 -0.1891
  996MOL0     H37408   4.609   2.167   5.950 -0.0822  0.9617  1.1691
  996MOL0     H37409   4.487   2.130   5.841  4.3701 -1.8415 -1.4146
  996MOL0     H37410   4.946   2.432   6.111  0.7506  0.0729  0.4047
  996MOL0     H37411   5.068   2.495   6.325 -1.2680 -2.8394 -3.9326
  996MOL0     H37412   5.114   2.828   6.424 -0.4776 -1.8733 -0.3622
  996MOL0     H37413   4.987   2.877   6.536  2.7809  1.9668  3.0063
  996MOL0     H37414   5.181   2.929   6.635 -1.1364  0.0590  0.3793
  996MOL0     H37415   5.108   2.808   6.731  1.2065 -1.5877  0.7360
  996MOL0     H37416   5.318   2.689   6.546 -0.3769 -0.6555  0.5157
  996MOL0     H37417   5.274   2.658   6.715 -1.1172 -0.4876 -0.6406
  996MOL0     H37418   5.473   2.754   6.722 -0.1100  0.5508 -0.6685
  996MOL0     H37419   5.347   2.869   6.785 -2.5553 -1.1677  0.4030
  996MOL0     H37420   5.403   3.010   6.579  1.8019  1.6158 -1.6788
  996MOL0     H37421   5.557   2.970   6.654 -1.4483 -2.4220  1.6828
  996MOL0     H37422   5.579   2.942   6.416 -0.4507 -0.4651 -0.3328
  996MOL0     H37423   5.436   2.836   6.410  0.9989 -2.0523 -0.6575
  996MOL0     H37424   5.617   2.670   6.390 -3.1219 -0.9048 -0.4938
  996MOL0     H37425   5.558   2.657   6.551  0.2369  1.4526  2.2417
  996MOL0     H37426   5.794   2.660   6.564 -0.1120 -1.2797 -1.6347
  996MOL0     H37427   5.755   2.835   6.613 -1.1653  2.2732 -1.4307
  996MOL0     H37428   4.774   2.808   6.414 -0.2043 -0.5512  1.4365
  996MOL0     H37429   4.669   2.732   6.171 -1.5874 -2.0283 -0.3073
  996MOL0     H37430   4.629   2.678   5.813  1.6400 -0.0402 -0.8040
  996MOL0     H37431   4.539   2.663   5.599 -2.8038 -0.1603  1.0730
  996MOL0     H37432   5.528   2.812   4.415  0.2855 -0.7939 -0.5637
  996MOL0     H37433   5.692   2.956   4.316 -1.3223  0.6766 -0.0240
  996MOL0     H37434   5.940   3.033   3.914 -0.0085  0.0669 -0.0274
  996MOL0     H37435   6.153   3.140   3.847 -0.4937 -2.9659  1.2852
  996MOL0     H37436   6.363   3.276   3.872  1.1627 -1.0814 -2.6798
  996MOL0     H37437   6.262   3.307   3.726 -2.2621 -1.1523  1.2232
  996MOL0     H37438   6.346   3.545   3.716  2.2698  1.1570 -0.0207
  996MOL0     H37439   6.480   3.423   3.712 -2.6759 -0.9801 -2.2875
  996MOL0     H37440   6.513   3.625   3.876 -2.0657  1.2385 -0.9691
  996MOL0     H37441   6.375   3.568   3.970  0.7664  1.8700  0.1476
  996MOL0     H37442   6.602   3.373   3.944 -1.3854  0.2864 -2.3187
  996MOL0     H37443   6.460   3.380   4.054 -1.2264 -1.6475 -3.5497
  996MOL0     H37444   6.757   3.586   4.247 -0.9115 -1.1659  2.6780
  996MOL0     H37445   6.023   3.502   4.033  1.8208 -1.0558 -0.9875
  996MOL0     H37446   5.779   3.370   4.228 -0.2079  1.4260 -0.2603
  996MOL0     H37447   5.820   3.517   4.122 -0.8725  1.0789 -0.5452
  996MOL0     H37448   5.683   3.412   4.092  0.4808  0.3071 -2.3008
  997MOL0     O37449   1.468   3.514  11.437  0.2616 -0.1870  0.2756
  997MOL0     C37450   1.489   3.543  11.322 -0.3649 -0.6002  1.2287
  997MOL0     O37451   1.508   3.451  11.224 -1.2974  0.4685 -0.3340
  997MOL0     C37452   1.474   3.316  11.246 -0.2158  0.7897 -1.0691
  997MOL0     C37453   1.394   3.251  11.150  0.2104  0.1398 -0.1240
  997MOL0     C37454   1.346   3.122  11.171 -0.2852  0.3818  0.2992
  997MOL0     C37455   1.372   3.060  11.291 -0.0920  0.4076  0.5298
  997MOL0     O37456   1.329   2.931  11.321  0.1617  0.1801  0.3130
  997MOL0     C37457   1.222   2.875  11.255 -0.4762  0.3884  0.5039
  997MOL0     C37458   1.210   2.728  11.307  0.1030 -0.2133  0.2803
  997MOL0     C37459   1.324   2.635  11.265  0.0307  0.5848 -0.1721
  997MOL0     C37460   1.278   2.483  11.266  0.6859 -0.0243  0.4006
  997MOL0     C37461   1.398   2.381  11.287  0.2117  0.3562 -0.2088
  997MOL0     C37462   1.332   2.244  11.294 -0.4542  0.4584  0.8719
  997MOL0     C37463   1.436   2.125  11.299 -0.1839 -0.6867  0.1752
  997MOL0     C37464   1.370   1.999  11.355  0.2268  0.7734  0.3468
  997MOL0     N37465   1.448   1.878  11.330  0.0487 -0.5964  0.0079
  997MOL0     C37466   1.478   1.836  11.209  0.5878 -0.6395 -0.0702
  997MOL0     C37467   1.593   1.764  11.224 -0.4102 -0.0429 -0.3772
  997MOL0     C37468   1.662   1.692  11.116 -0.1719  0.2707  0.4526
  997MOL0     C37469   1.692   1.545  11.164 -0.5558  0.0211  0.3481
  997MOL0     C37470   1.774   1.453  11.067  0.0166 -0.1783  0.6331
  997MOL0     C37471   1.922   1.500  11.039 -0.3093  0.1222 -0.5610
  997MOL0     O37472   1.934   1.590  10.930 -0.0966 -0.2671 -0.2097
  997MOL0     C37473   2.057   1.610  10.877  0.6205 -0.5738 -0.0418
  997MOL0     C37474   2.168   1.538  10.913 -0.2544  0.0281 -0.5382
  997MOL0     C37475   2.293   1.552  10.860 -0.7880 -0.0396  0.0420
  997MOL0     C37476   2.406   1.471  10.917 -0.4584  0.1026 -0.6369
  997MOL0     C37477   2.311   1.648  10.759  0.1915  0.0193 -0.2136
  997MOL0     C37478   2.455   1.673  10.695 -0.3130 -1.0329 -0.0443
  997MOL0     O37479   2.453   1.776  10.602  0.2774 -0.1498  0.0544
  997MOL0     C37480   2.571   1.833  10.567 -0.5734 -0.1965  0.2435
  997MOL0     C37481   2.643   1.763  10.477  0.2910  0.2365  0.4819
  997MOL0     C37482   2.765   1.812  10.418  0.4525 -0.6188 -0.1248
  997MOL0     C37483   2.814   1.935  10.477  0.1384 -0.3133  0.6097
  997MOL0     O37484   2.939   1.995  10.444 -0.2084  0.0907 -0.2118
  997MOL0     C37485   3.007   1.938  10.330 -0.2284  0.6338 -0.0736
  997MOL0     C37486   3.142   2.025  10.294  0.4625  0.2312  0.0578
  997MOL0     C37487   3.093   2.154  10.219 -0.0091  0.2934 -0.5827
  997MOL0     C37488   3.212   2.248  10.207  0.5012 -0.4704 -0.4961
  997MOL0     C37489   3.173   2.390  10.160 -0.5267  0.1491 -0.7352
  997MOL0     C37490   3.108   2.388  10.019 -0.3972 -0.0119 -0.4544
  997MOL0     C37491   3.179   2.489   9.921 -0.4628  0.8931 -0.1125
  997MOL0     C37492   3.099   2.505   9.796 -0.2321  0.0231  0.4712
  997MOL0    Cl37493   3.184   2.618   9.682  0.2734  0.2050 -0.0381
  997MOL0     C37494   2.741   2.000  10.581 -0.7264 -0.1333 -0.1806
  997MOL0     C37495   2.617   1.950  10.624 -1.1482  0.6652 -0.4539
  997MOL0     O37496   2.561   1.623  10.731 -0.1500  0.0045  0.1175
  997MOL0     C37497   2.199   1.721  10.716  0.4611 -0.2871  0.2429
  997MOL0     C37498   2.074   1.707  10.781 -0.3406 -0.3040  0.8000
  997MOL0     N37499   1.629   1.774  11.359 -0.6450 -0.2111  0.0670
  997MOL0     N37500   1.536   1.838  11.424 -0.4866 -0.0812  0.3900
  997MOL0     C37501   1.449   3.120  11.386 -0.0224  0.7228 -0.7112
  997MOL0     C37502   1.496   3.244  11.365 -0.4101  0.2463 -0.4117
  997MOL0     C37503   1.489   3.689  11.276 -0.7460  0.2723  0.2370
  997MOL0     C37504   1.472   3.716  11.136 -0.4796 -0.3931  0.2502
  997MOL0     C37505   1.446   3.842  11.085  0.1256 -0.3249  0.7706
  997MOL0     C37506   1.446   3.950  11.175 -0.0961 -0.7076  0.3790
  997MOL0     O37507   1.446   4.072  11.111  0.3246 -0.2857  0.3594
  997MOL0     C37508   1.467   4.194  11.187 -0.4034  0.3283 -0.6632
  997MOL0     C37509   1.619   4.222  11.205  0.1547  0.4376  0.1272
  997MOL0     C37510   1.695   4.243  11.068  0.0911 -0.3905 -0.5636
  997MOL0     C37511   1.691   4.134  10.966 -0.3988  0.1045 -0.3668
  997MOL0     C37512   1.771   4.171  10.842 -0.2712 -0.2227 -1.2119
  997MOL0     C37513   1.835   4.216  10.752  0.1655  0.2037 -0.6522
  997MOL0     C37514   1.462   3.927  11.310  0.2431 -0.0808 -0.1468
  997MOL0     C37515   1.471   3.792  11.366  0.5449  0.1479  0.9541
  997MOL0     C37516   1.498   3.784  11.516 -0.3836 -0.7579  0.5049
  997MOL0     H37517   1.370   3.303  11.058  1.8287 -2.1344 -1.9394
  997MOL0     H37518   1.296   3.079  11.085 -1.1962  0.5534  0.7390
  997MOL0     H37519   1.250   2.874  11.149  0.5204  1.0159  0.7436
  997MOL0     H37520   1.122   2.915  11.274 -0.9734 -1.5431  2.3263
  997MOL0     H37521   1.188   2.717  11.414 -1.1498  0.4070  0.1009
  997MOL0     H37522   1.124   2.690  11.252 -0.2593 -0.4668  1.0028
  997MOL0     H37523   1.348   2.650  11.159 -0.9560  3.2955 -0.0949
  997MOL0     H37524   1.413   2.653  11.326  0.2340  2.2509 -0.9103
  997MOL0     H37525   1.198   2.470  11.339 -1.9692  1.1535 -2.0572
  997MOL0     H37526   1.241   2.466  11.164  0.0177  0.4647  0.5482
  997MOL0     H37527   1.441   2.401  11.385 -0.3907  0.0302  0.1262
  997MOL0     H37528   1.468   2.387  11.203  0.8089 -2.0901  0.0590
  997MOL0     H37529   1.275   2.255  11.387  0.3603  0.1855  1.4166
  997MOL0     H37530   1.265   2.229  11.209 -0.0834  2.0455  0.2655
  997MOL0     H37531   1.521   2.152  11.362  1.2595 -2.3389 -0.9726
  997MOL0     H37532   1.484   2.101  11.204  1.2656 -1.1576  1.0013
  997MOL0     H37533   1.352   2.021  11.461 -2.6960  1.4868 -0.2167
  997MOL0     H37534   1.272   1.984  11.309  0.0589  0.3619  0.8392
  997MOL0     H37535   1.415   1.852  11.122 -3.4695 -0.3339  2.6405
  997MOL0     H37536   1.753   1.745  11.085 -1.5008  3.0227  0.9814
  997MOL0     H37537   1.588   1.690  11.035  0.9010 -0.5104 -0.5482
  997MOL0     H37538   1.725   1.537  11.268 -2.5557 -1.5253  0.9365
  997MOL0     H37539   1.596   1.493  11.170 -1.8596  2.4363  1.6819
  997MOL0     H37540   1.771   1.353  11.111 -1.4717  0.7837  2.9468
  997MOL0     H37541   1.721   1.449  10.972  2.1151  2.4145 -0.7996
  997MOL0     H37542   1.964   1.547  11.128  2.9341  2.4693 -3.0907
  997MOL0     H37543   1.969   1.404  11.014  1.5120  0.2167  2.1311
  997MOL0     H37544   2.157   1.456  10.983 -0.2070  0.6681  0.2351
  997MOL0     H37545   2.356   1.393  10.976 -0.8993  1.0319  0.2587
  997MOL0     H37546   2.469   1.525  10.989 -2.8986 -1.3396  2.8676
  997MOL0     H37547   2.476   1.429  10.844  1.2494  0.0413  0.9510
  997MOL0     H37548   2.610   1.665  10.444 -3.9401  0.9465  2.0223
  997MOL0     H37549   2.817   1.747  10.348 -0.6917  0.1220 -1.7054
  997MOL0     H37550   3.030   1.832  10.342  0.9568  0.5305 -2.5565
  997MOL0     H37551   2.930   1.952  10.254 -3.2433  3.3036  3.1420
  997MOL0     H37552   3.213   2.042  10.375  0.8850  2.4784 -0.7316
  997MOL0     H37553   3.196   1.971  10.215  1.4221  2.3643 -0.8080
  997MOL0     H37554   3.023   2.204  10.288  1.7745  1.8975  0.1718
  997MOL0     H37555   3.046   2.121  10.127 -1.9321  0.1554  0.3948
  997MOL0     H37556   3.293   2.206  10.147  3.2539  1.2311  1.7877
  997MOL0     H37557   3.266   2.253  10.302  2.1167 -2.2142 -1.2778
  997MOL0     H37558   3.108   2.435  10.236 -0.8916  0.4647 -1.2261
  997MOL0     H37559   3.264   2.450  10.152 -0.7890  0.3064 -3.3416
  997MOL0     H37560   3.004   2.416  10.038 -0.1028  0.0380  1.1921
  997MOL0     H37561   3.120   2.292   9.968  2.3927 -0.6920  1.2486
  997MOL0     H37562   3.274   2.449   9.887  0.2290  2.1066  0.3355
  997MOL0     H37563   3.186   2.583   9.976  0.7703 -0.8743  2.9278
  997MOL0     H37564   3.000   2.534   9.831 -0.1403 -0.7934  1.4288
  997MOL0     H37565   3.075   2.419   9.733 -1.3228  1.1666 -0.7369
  997MOL0     H37566   2.772   2.097  10.615 -4.0375  1.4267 -1.1362
  997MOL0     H37567   2.550   1.987  10.701 -2.7088 -0.2692 -1.3148
  997MOL0     H37568   2.210   1.789  10.632  1.3726  2.3844  2.3512
  997MOL0     H37569   1.988   1.760  10.741  0.3047  0.2183  0.0807
  997MOL0     H37570   1.481   3.074  11.478  1.2984  0.3453 -1.3370
  997MOL0     H37571   1.554   3.298  11.440  0.4748  0.1842 -1.0280
  997MOL0     H37572   1.477   3.641  11.058  3.8102 -0.2351  0.1269
  997MOL0     H37573   1.422   3.853  10.979  0.8357  2.0667  0.7973
  997MOL0     H37574   1.409   4.270  11.133 -2.7318  0.2050  1.4610
  997MOL0     H37575   1.427   4.191  11.289  1.0171 -0.1761 -0.0876
  997MOL0     H37576   1.656   4.132  11.256 -5.5097 -1.9327  0.8152
  997MOL0     H37577   1.633   4.309  11.270  0.7712  0.7074 -0.3588
  997MOL0     H37578   1.652   4.331  11.018 -2.9155 -0.9785  0.7625
  997MOL0     H37579   1.800   4.270  11.083 -0.2465  1.3131 -1.0092
  997MOL0     H37580   1.587   4.114  10.939 -0.8133  0.9043  0.5787
  997MOL0     H37581   1.728   4.042  11.012 -2.2805  0.5351  2.2302
  997MOL0     H37582   1.890   4.269  10.677  2.4645 -2.1958 -0.8056
  997MOL0     H37583   1.481   4.008  11.379  2.1337 -1.2841  0.8146
  997MOL0     H37584   1.601   3.750  11.534  0.7464  0.8628 -2.1509
  997MOL0     H37585   1.496   3.881  11.567 -0.9742 -1.0892  1.1207
  997MOL0     H37586   1.423   3.724  11.567  0.3953 -0.6813  1.7862
  998MOL0     O37587   2.576  10.212   7.875 -1.0013  0.1572  0.8350
  998MOL0     C37588   2.514  10.245   7.974 -0.0413  0.2742 -0.1370
  998MOL0     O37589   2.573  10.305   8.081 -0.1495 -0.1876 -0.1676
  998MOL0     C37590   2.710  10.308   8.110 -0.1377  0.0054  0.5431
  998MOL0     C37591   2.798  10.203   8.078 -0.4919 -0.9899  0.2036
  998MOL0     C37592   2.935  10.209   8.114  0.2585 -0.4039  0.8499
  998MOL0     C37593   2.984  10.325   8.176 -0.0038  0.0479 -1.0876
  998MOL0     O37594   3.118  10.314   8.207 -0.2361  0.0866  0.5235
  998MOL0     C37595   3.185  10.442   8.232 -0.0055 -0.4404 -0.3279
  998MOL0     C37596   3.341  10.425   8.239 -0.0576  0.1626 -1.1948
  998MOL0     C37597   3.377  10.305   8.325 -0.1746  0.2290  0.5647
  998MOL0     C37598   3.517  10.313   8.367 -1.3527 -0.8065 -0.7185
  998MOL0     C37599   3.555  10.206   8.474  0.8730  1.0329  0.2137
  998MOL0     C37600   3.703  10.219   8.522  0.4609 -0.6797 -0.3192
  998MOL0     C37601   3.732  10.111   8.620 -0.4755  0.5077  0.5655
  998MOL0     C37602   3.868  10.106   8.675  0.1223 -1.2170 -0.1675
  998MOL0     N37603   3.897   9.965   8.723  1.0303 -0.5544 -0.5081
  998MOL0     C37604   3.820   9.900   8.817  0.2974 -0.1258 -0.8937
  998MOL0     C37605   3.855   9.769   8.801  0.7196 -0.6363  0.2710
  998MOL0     C37606   3.799   9.655   8.889  0.6783 -0.0215  0.1704
  998MOL0     C37607   3.704   9.574   8.807 -0.8395  0.5160  0.2958
  998MOL0     C37608   3.663   9.437   8.869  0.5109 -0.2088  0.2752
  998MOL0     C37609   3.563   9.375   8.776  0.8311 -0.2204 -0.3447
  998MOL0     O37610   3.434   9.434   8.766 -0.0539  0.2275  0.0958
  998MOL0     C37611   3.343   9.366   8.691  1.1868  0.0414 -0.1301
  998MOL0     C37612   3.220   9.426   8.682  0.0496  0.1171 -0.8612
  998MOL0     C37613   3.110   9.380   8.610 -0.3170 -0.0529  0.7333
  998MOL0     C37614   2.983   9.467   8.615  0.5720  0.4241 -0.7970
  998MOL0     C37615   3.116   9.256   8.547  0.4469 -0.1390 -0.0019
  998MOL0     C37616   2.996   9.199   8.472 -0.0004 -0.2263  0.5710
  998MOL0     O37617   3.031   9.124   8.367  0.8562  0.3155  0.3315
  998MOL0     C37618   2.942   9.080   8.272 -0.8137 -0.4666 -0.4898
  998MOL0     C37619   2.821   9.145   8.236  0.6568  0.3620 -1.8654
  998MOL0     C37620   2.740   9.094   8.137  1.2699  0.3438 -0.1970
  998MOL0     C37621   2.777   8.970   8.080  0.8170 -0.0284  0.5469
  998MOL0     O37622   2.680   8.916   7.996 -0.1695 -0.0661  0.0680
  998MOL0     C37623   2.712   8.795   7.925 -0.0035  0.1309  0.2369
  998MOL0     C37624   2.601   8.747   7.824 -0.0568 -0.1644 -0.3084
  998MOL0     C37625   2.561   8.862   7.732 -0.7940 -0.2964 -0.5220
  998MOL0     C37626   2.460   8.815   7.623 -0.6195 -0.2932 -0.3570
  998MOL0     C37627   2.390   8.942   7.556 -0.0919  1.0053  0.5110
  998MOL0     C37628   2.277   8.902   7.448 -0.1969  0.2571  0.4383
  998MOL0     C37629   2.238   9.031   7.366 -0.4578  0.2949 -0.7491
  998MOL0     C37630   2.233   9.015   7.222  0.0600 -0.0273 -0.5219
  998MOL0    Cl37631   2.208   9.169   7.128 -0.3166 -0.0428 -0.0569
  998MOL0     C37632   2.907   8.921   8.098  0.2431 -0.4989  0.1803
  998MOL0     C37633   2.993   8.975   8.200  0.1844  0.8942  0.1744
  998MOL0     O37634   2.880   9.220   8.507 -0.2643 -0.0753 -0.5359
  998MOL0     C37635   3.244   9.186   8.547  0.0159 -0.4534 -0.0005
  998MOL0     C37636   3.352   9.236   8.623 -0.4544 -0.2957  0.2946
  998MOL0     N37637   3.942   9.764   8.694 -0.2988  0.1547  0.0254
  998MOL0     N37638   3.971   9.878   8.654 -0.6197  0.4768 -0.1511
  998MOL0     C37639   2.897  10.434   8.202  0.9266  0.2139 -0.2975
  998MOL0     C37640   2.757  10.414   8.182 -0.1013  0.4480 -0.0862
  998MOL0     C37641   2.371  10.240   7.992  0.4293 -0.2298  1.1310
  998MOL0     C37642   2.312  10.286   8.120 -0.6044 -0.7993  0.1497
  998MOL0     C37643   2.171  10.299   8.130 -0.0987 -0.6530 -0.3177
  998MOL0     C37644   2.082  10.288   8.026  0.7124  0.3492  0.1393
  998MOL0     O37645   1.949  10.306   8.023  0.7242 -0.3050  0.2377
  998MOL0     C37646   1.922  10.445   8.053  0.3560 -0.1245  0.1029
  998MOL0     C37647   1.841  10.466   8.185  0.2034 -0.5289  0.6220
  998MOL0     C37648   1.703  10.415   8.170  0.0645 -0.3347 -0.7619
  998MOL0     C37649   1.616  10.444   8.287 -0.0657  0.0357  0.5238
  998MOL0     C37650   1.590  10.587   8.307  0.5557 -0.1643  0.2852
  998MOL0     C37651   1.562  10.703   8.317 -0.0940 -0.5649  0.4075
  998MOL0     C37652   2.139  10.245   7.911 -0.1859  0.0032 -0.5103
  998MOL0     C37653   2.274  10.221   7.888 -0.8808  0.0723 -0.0496
  998MOL0     C37654   2.315  10.178   7.745 -0.1244 -0.6745 -0.2845
  998MOL0     H37655   2.761  10.122   8.016 -2.4789  0.6292 -0.8353
  998MOL0     H37656   3.001  10.124   8.104  0.7015  0.2216 -3.5631
  998MOL0     H37657   3.168  10.481   8.333  1.0487  1.2285 -0.7566
  998MOL0     H37658   3.155  10.522   8.164 -1.8343 -1.2453 -0.5273
  998MOL0     H37659   3.388  10.417   8.140  0.3100  1.3501 -1.1192
  998MOL0     H37660   3.367  10.514   8.296  1.3398  0.6799 -2.5790
  998MOL0     H37661   3.305  10.297   8.408  1.2667 -2.8711  1.6901
  998MOL0     H37662   3.378  10.215   8.263  1.1669  0.2278  0.5574
  998MOL0     H37663   3.592  10.317   8.288 -0.7291  1.5749 -0.1041
  998MOL0     H37664   3.534  10.410   8.415 -2.8477 -0.4491 -0.8599
  998MOL0     H37665   3.541  10.109   8.426 -0.7939  1.7274 -0.8126
  998MOL0     H37666   3.479  10.217   8.551 -0.5591  0.8692 -1.1278
  998MOL0     H37667   3.772  10.204   8.439  2.2460  4.8849 -0.2675
  998MOL0     H37668   3.715  10.322   8.560  1.5125 -0.5662 -0.9176
  998MOL0     H37669   3.701  10.015   8.578 -2.1742  1.1496  0.2642
  998MOL0     H37670   3.663  10.118   8.705  0.8868 -2.5262  2.1003
  998MOL0     H37671   3.935  10.120   8.590 -0.5658 -1.2845 -0.7248
  998MOL0     H37672   3.878  10.190   8.745 -5.2472 -0.1255 -0.2827
  998MOL0     H37673   3.750   9.946   8.886  0.2565 -0.7931 -0.4769
  998MOL0     H37674   3.750   9.702   8.976  1.4635  0.0316  0.5896
  998MOL0     H37675   3.870   9.590   8.940 -0.8702 -1.0577  1.0898
  998MOL0     H37676   3.614   9.635   8.792 -0.6781  0.4021 -1.2245
  998MOL0     H37677   3.750   9.550   8.711  0.3645  0.5058  0.8638
  998MOL0     H37678   3.745   9.367   8.880  1.1552  0.1427 -1.8164
  998MOL0     H37679   3.614   9.437   8.967  0.2028  0.8895  0.1387
  998MOL0     H37680   3.614   9.378   8.679  0.1751 -0.5341 -0.7056
  998MOL0     H37681   3.553   9.276   8.823 -1.6596  0.0027 -0.3080
  998MOL0     H37682   3.213   9.525   8.726  0.5624  0.0403 -0.5992
  998MOL0     H37683   2.907   9.422   8.680  1.2893  1.7401  1.0084
  998MOL0     H37684   2.941   9.471   8.514 -2.2077  1.7666  0.3312
  998MOL0     H37685   3.004   9.565   8.658 -1.5859  0.1845  0.9767
  998MOL0     H37686   2.794   9.239   8.284  2.0526  0.8715 -2.0378
  998MOL0     H37687   2.641   9.126   8.106  0.4428 -2.7223 -1.1740
  998MOL0     H37688   2.804   8.816   7.871  1.9828  0.7804  3.6092
  998MOL0     H37689   2.742   8.723   8.002 -1.0833  1.4560  1.9688
  998MOL0     H37690   2.631   8.649   7.784  1.7680  0.5091 -0.6873
  998MOL0     H37691   2.506   8.729   7.876  0.5568 -3.0818  0.0160
  998MOL0     H37692   2.655   8.910   7.701  0.0534  0.5018  2.8123
  998MOL0     H37693   2.504   8.933   7.793  0.4336 -2.9561  4.2441
  998MOL0     H37694   2.387   8.742   7.661  0.3849 -0.5246  1.2658
  998MOL0     H37695   2.517   8.764   7.545 -0.1144  0.2519 -0.3502
  998MOL0     H37696   2.340   8.994   7.638  0.7054 -0.7467  2.2056
  998MOL0     H37697   2.468   9.012   7.526 -1.0301  0.8885 -2.5008
  998MOL0     H37698   2.189   8.853   7.491 -0.9062  0.2882 -0.9160
  998MOL0     H37699   2.328   8.832   7.381 -2.7953 -1.1220 -0.2534
  998MOL0     H37700   2.314   9.107   7.387 -1.9951  1.9485 -0.9778
  998MOL0     H37701   2.140   9.077   7.384 -0.7057 -0.0967 -1.0863
  998MOL0     H37702   2.152   8.945   7.200  2.9618 -3.8825  0.2318
  998MOL0     H37703   2.328   8.976   7.186  1.8048  4.2814 -1.2452
  998MOL0     H37704   2.942   8.828   8.055  3.6177  0.6527  0.1407
  998MOL0     H37705   3.089   8.930   8.220  0.2561  0.9270 -0.0847
  998MOL0     H37706   3.241   9.086   8.505  0.2056  0.0543 -1.2792
  998MOL0     H37707   3.443   9.176   8.615  1.6545  2.8475 -1.5659
  998MOL0     H37708   2.931  10.521   8.256 -0.6005  1.7410 -1.6768
  998MOL0     H37709   2.692  10.496   8.212 -1.5156 -0.2497 -1.0934
  998MOL0     H37710   2.375  10.295   8.208  0.6918  1.4936 -0.9278
  998MOL0     H37711   2.118  10.333   8.219  0.3957 -3.3312  1.1128
  998MOL0     H37712   2.008  10.512   8.067  0.1055  0.1573  0.3160
  998MOL0     H37713   1.858  10.494   7.979 -0.2811  0.8839  1.2873
  998MOL0     H37714   1.840  10.574   8.208 -0.1169 -0.2892 -0.4622
  998MOL0     H37715   1.894  10.414   8.265  3.3439  0.6727 -0.5367
  998MOL0     H37716   1.668  10.470   8.082 -1.0140 -2.4040 -1.6980
  998MOL0     H37717   1.703  10.307   8.153  2.2863 -0.5714  0.3972
  998MOL0     H37718   1.658  10.391   8.373 -2.0116 -3.0076 -0.2515
  998MOL0     H37719   1.519  10.395   8.276  1.0490 -2.0086 -0.8562
  998MOL0     H37720   1.533  10.806   8.322 -2.8527 -1.1813 -0.9096
  998MOL0     H37721   2.080  10.223   7.822 -0.7710  0.6534 -0.2899
  998MOL0     H37722   2.356  10.265   7.694 -1.2980 -0.1683 -0.3906
  998MOL0     H37723   2.389  10.097   7.750 -0.9774 -1.4487  0.2490
  998MOL0     H37724   2.229  10.145   7.686 -1.2641  0.6877  0.5525
  999MOL0     O37725   6.525   8.287   1.804  0.0029  0.0100  0.2112
  999MOL0     C37726   6.516   8.402   1.842  1.3787  0.0627  0.4417
  999MOL0     O37727   6.615   8.488   1.863  0.3583  0.6762 -0.1670
  999MOL0     C37728   6.737   8.423   1.869  0.0390 -0.0003  0.1953
  999MOL0     C37729   6.785   8.367   1.996 -0.0203  0.6938  0.9517
  999MOL0     C37730   6.907   8.312   2.014 -0.3017  0.1802  0.4777
  999MOL0     C37731   6.987   8.294   1.897 -0.4162  0.0009 -0.6134
  999MOL0     O37732   7.110   8.234   1.918  0.3012  0.3362 -0.3975
  999MOL0     C37733   7.218   8.316   1.877 -0.3262 -0.3259  0.7462
  999MOL0     C37734   7.297   8.359   2.005 -0.7434 -0.0568  0.3429
  999MOL0     C37735   7.413   8.275   2.061 -0.3760  0.2857  0.8304
  999MOL0     C37736   7.398   8.125   2.018  0.2246  0.0765 -0.0463
  999MOL0     C37737   7.530   8.047   2.048 -0.4076 -0.1399 -0.0725
  999MOL0     C37738   7.554   8.045   2.201 -0.2136  0.5972 -0.0731
  999MOL0     C37739   7.688   7.983   2.228 -0.5685 -0.1422 -0.3473
  999MOL0     C37740   7.730   7.983   2.381 -0.1134  0.4624 -0.3271
  999MOL0     N37741   7.727   8.126   2.432  0.1917  0.0609 -0.4894
  999MOL0     C37742   7.618   8.183   2.500 -0.0293 -0.6083  1.1617
  999MOL0     C37743   7.652   8.308   2.518 -0.0433 -0.2293 -0.6382
  999MOL0     C37744   7.564   8.414   2.562 -0.1172 -0.3777 -0.8944
  999MOL0     C37745   7.449   8.421   2.453 -0.8151  0.2427 -0.1426
  999MOL0     C37746   7.356   8.533   2.499 -0.0664  0.2948 -0.0134
  999MOL0     C37747   7.263   8.512   2.611  0.7851  0.5015 -0.5363
  999MOL0     O37748   7.180   8.395   2.596  0.4646  0.0431 -0.4385
  999MOL0     C37749   7.046   8.411   2.566  0.5007  0.0612 -0.0917
  999MOL0     C37750   7.008   8.497   2.463 -1.0333  0.6752 -0.6026
  999MOL0     C37751   6.877   8.515   2.425  0.7109 -0.2272 -0.0271
  999MOL0     C37752   6.837   8.610   2.314  0.1204 -0.4626  0.1912
  999MOL0     C37753   6.778   8.439   2.499  0.8099 -0.4262  0.2159
  999MOL0     C37754   6.626   8.438   2.476 -0.2801  0.5628 -0.5417
  999MOL0     O37755   6.557   8.417   2.590  0.6370  0.8549  0.2984
  999MOL0     C37756   6.424   8.411   2.589 -0.3870  0.6549  0.5231
  999MOL0     C37757   6.360   8.469   2.691 -0.1206  0.5142  0.0873
  999MOL0     C37758   6.219   8.473   2.707  0.6730 -0.6332  0.2159
  999MOL0     C37759   6.138   8.414   2.615 -0.0854 -0.1608 -1.2724
  999MOL0     O37760   6.004   8.407   2.646  0.7742 -0.5993 -0.0796
  999MOL0     C37761   5.916   8.394   2.527 -0.9382 -0.6504 -0.3695
  999MOL0     C37762   5.773   8.430   2.583 -0.4182  0.3723 -0.3341
  999MOL0     C37763   5.711   8.344   2.695  0.3721  0.0105 -0.8430
  999MOL0     C37764   5.585   8.416   2.740 -0.0416 -0.8576 -0.3897
  999MOL0     C37765   5.518   8.358   2.870 -0.4633 -0.9294 -0.4480
  999MOL0     C37766   5.433   8.241   2.850  0.3309 -0.0205  0.1796
  999MOL0     C37767   5.380   8.173   2.976 -1.3655  0.1702 -0.0048
  999MOL0     C37768   5.490   8.124   3.079  0.3603 -0.3360 -0.4756
  999MOL0    Cl37769   5.393   8.056   3.220 -0.5866 -0.2291 -0.0451
  999MOL0     C37770   6.202   8.349   2.507  0.0706 -0.7339 -0.3572
  999MOL0     C37771   6.343   8.350   2.485  0.6047 -0.8160 -0.3530
  999MOL0     O37772   6.583   8.453   2.363  0.4496  0.1134  0.0579
  999MOL0     C37773   6.818   8.360   2.610 -0.2141  0.4019  0.0628
  999MOL0     C37774   6.950   8.347   2.639  1.3609  0.0071 -0.1376
  999MOL0     N37775   7.787   8.318   2.485  0.0006  0.3856  0.0881
  999MOL0     N37776   7.823   8.214   2.425 -0.4358  0.1934 -0.3044
  999MOL0     C37777   6.952   8.353   1.775  0.1878 -0.1293  0.9544
  999MOL0     C37778   6.827   8.415   1.759 -0.2702 -0.5587  0.3989
  999MOL0     C37779   6.371   8.462   1.844 -0.5569 -0.5261 -0.8712
  999MOL0     C37780   6.297   8.489   1.730 -0.6393 -0.3834  1.0705
  999MOL0     C37781   6.165   8.534   1.740  0.1473  0.1880 -0.0849
  999MOL0     C37782   6.108   8.565   1.861 -0.6773  0.0271  0.7832
  999MOL0     O37783   5.985   8.612   1.872  0.1096 -0.0578  0.0754
  999MOL0     C37784   5.877   8.531   1.814  0.3347  0.4304 -0.3328
  999MOL0     C37785   5.885   8.384   1.852 -0.3380 -0.1905 -0.3928
  999MOL0     C37786   5.856   8.361   2.002  0.4702  0.1612  0.3791
  999MOL0     C37787   5.872   8.212   2.039  0.4282 -0.5600  0.6534
  999MOL0     C37788   6.009   8.170   2.017 -0.0818 -0.4730  0.0037
  999MOL0     C37789   6.133   8.155   2.001  0.8777 -0.4421 -0.1107
  999MOL0     C37790   6.182   8.534   1.976  0.5824  0.3194  0.6131
  999MOL0     C37791   6.310   8.473   1.972 -0.8696 -0.8721  0.1281
  999MOL0     C37792   6.371   8.442   2.103  0.1019  0.0973  0.5712
  999MOL0     H37793   6.715   8.362   2.079 -1.9460  0.0085 -0.6251
  999MOL0     H37794   6.919   8.272   2.114 -1.7608  0.8148  0.9432
  999MOL0     H37795   7.183   8.403   1.820 -1.6704 -1.2136  0.1767
  999MOL0     H37796   7.287   8.265   1.809 -0.7510 -0.7820  0.6523
  999MOL0     H37797   7.329   8.463   1.993 -3.0987  0.7705  0.6865
  999MOL0     H37798   7.222   8.360   2.085 -0.9155  1.6076  0.2039
  999MOL0     H37799   7.504   8.294   2.004 -0.4137 -0.2712  0.5826
  999MOL0     H37800   7.430   8.291   2.167 -1.6683  0.1994  1.0644
  999MOL0     H37801   7.315   8.085   2.076 -3.1185  1.9724 -3.1329
  999MOL0     H37802   7.374   8.113   1.912 -0.2294 -1.0709  0.1700
  999MOL0     H37803   7.619   8.085   1.996  1.5934 -2.2869  1.6022
  999MOL0     H37804   7.513   7.942   2.024 -4.4592  0.8082 -2.5445
  999MOL0     H37805   7.567   8.149   2.235 -1.6543  0.0682  2.3327
  999MOL0     H37806   7.485   7.985   2.260  2.1564 -1.3815  0.8530
  999MOL0     H37807   7.760   8.039   2.168 -1.9806  0.6584 -1.3573
  999MOL0     H37808   7.691   7.880   2.190  0.2261 -0.1034 -0.4149
  999MOL0     H37809   7.647   7.935   2.435  1.2902  2.1175  3.7524
  999MOL0     H37810   7.821   7.927   2.403  1.1362  2.4734 -0.1133
  999MOL0     H37811   7.515   8.151   2.514 -0.7224  0.8273 -0.3199
  999MOL0     H37812   7.605   8.515   2.572 -0.4427 -0.3118 -0.1001
  999MOL0     H37813   7.533   8.382   2.662  1.1511 -0.6394 -0.5668
  999MOL0     H37814   7.490   8.439   2.353 -2.8513 -0.0044 -1.0709
  999MOL0     H37815   7.388   8.331   2.457 -0.4981 -0.0733 -1.6300
  999MOL0     H37816   7.402   8.632   2.505 -1.1371  0.7350  1.2831
  999MOL0     H37817   7.282   8.540   2.418 -0.4584 -0.6323  0.2467
  999MOL0     H37818   7.313   8.499   2.707 -2.0884 -1.7361  0.8013
  999MOL0     H37819   7.196   8.598   2.616 -1.6727 -1.3788  1.8788
  999MOL0     H37820   7.081   8.547   2.401 -2.2511  1.9849 -1.0167
  999MOL0     H37821   6.925   8.642   2.256  2.2596 -2.4271  2.1645
  999MOL0     H37822   6.777   8.692   2.355  0.7441  0.2452 -0.2765
  999MOL0     H37823   6.771   8.560   2.243  0.6303 -0.0330 -0.6051
  999MOL0     H37824   6.432   8.519   2.754  0.5815  1.0113 -1.0937
  999MOL0     H37825   6.171   8.532   2.785 -0.1522 -0.2581 -0.5591
  999MOL0     H37826   5.948   8.448   2.438  0.4968  0.5622  0.8388
  999MOL0     H37827   5.911   8.289   2.495 -0.7823 -0.3478 -1.4092
  999MOL0     H37828   5.775   8.533   2.620  2.4692  0.1141  0.5410
  999MOL0     H37829   5.700   8.426   2.502 -2.7377  0.0939  1.6502
  999MOL0     H37830   5.783   8.329   2.775  2.0190  0.8075 -2.1056
  999MOL0     H37831   5.689   8.242   2.663 -0.7298  0.3414 -1.1942
  999MOL0     H37832   5.512   8.410   2.658 -1.3975  0.6759  0.6488
  999MOL0     H37833   5.610   8.520   2.761  0.4284 -1.2458  1.0467
  999MOL0     H37834   5.600   8.326   2.934  1.7474  3.6767 -0.5574
  999MOL0     H37835   5.474   8.442   2.925  3.2771  0.0536  1.3274
  999MOL0     H37836   5.476   8.169   2.779 -3.2127 -0.1206 -2.1446
  999MOL0     H37837   5.341   8.272   2.800 -0.6737 -0.8456  1.4454
  999MOL0     H37838   5.323   8.090   2.933 -0.9328  0.5733 -1.4119
  999MOL0     H37839   5.312   8.235   3.036 -0.8693 -1.6369  2.5930
  999MOL0     H37840   5.559   8.202   3.113 -2.0889  1.2424  1.2629
  999MOL0     H37841   5.557   8.052   3.033  2.6553  1.7896 -0.6533
  999MOL0     H37842   6.137   8.310   2.429 -0.0438 -3.3234  0.9258
  999MOL0     H37843   6.399   8.303   2.405  1.3031 -0.3419 -0.1548
  999MOL0     H37844   6.758   8.302   2.679  2.9668 -0.7682  2.0368
  999MOL0     H37845   6.991   8.278   2.713  0.0060  0.0317  0.6882
  999MOL0     H37846   7.001   8.338   1.680 -1.6328  2.1530 -0.4650
  999MOL0     H37847   6.804   8.449   1.659 -1.4690 -1.8235  0.1980
  999MOL0     H37848   6.345   8.481   1.633 -2.8547  1.2694 -0.2640
  999MOL0     H37849   6.113   8.541   1.645  0.4151 -1.2230 -0.3557
  999MOL0     H37850   5.780   8.574   1.842  0.3936  0.7909 -0.6768
  999MOL0     H37851   5.889   8.542   1.706 -3.3434  0.2189 -0.8700
  999MOL0     H37852   5.973   8.334   1.811  0.5043  0.0827  1.0244
  999MOL0     H37853   5.802   8.340   1.796 -0.3003 -2.5266  1.2397
  999MOL0     H37854   5.925   8.426   2.058 -0.0108  2.1763 -1.2126
  999MOL0     H37855   5.756   8.399   2.023  0.5619  0.4997  0.2300
  999MOL0     H37856   5.801   8.151   1.981  1.5100  0.2738 -1.6913
  999MOL0     H37857   5.846   8.194   2.143 -3.4250  1.8335  0.3002
  999MOL0     H37858   6.238   8.139   1.988  0.9251 -2.9265  2.2575
  999MOL0     H37859   6.136   8.560   2.071 -0.7674 -1.3468  0.4738
  999MOL0     H37860   6.312   8.460   2.194 -0.5988  3.2148 -0.3589
  999MOL0     H37861   6.415   8.342   2.104  0.6451  0.2562 -2.0361
  999MOL0     H37862   6.453   8.513   2.117  0.9431 -1.1864  2.6085
 1000MOL0     O37863   9.756   1.492   0.907  0.1335 -0.1489  0.8503
 1000MOL0     C37864   9.777   1.600   0.965  0.2411  0.0471  0.5006
 1000MOL0     O37865   9.728   1.716   0.929  0.0452  0.6016  0.1949
 1000MOL0     C37866   9.630   1.722   0.829  1.3925 -0.5139 -0.2722
 1000MOL0     C37867   9.510   1.652   0.838 -0.0211 -0.8005 -0.7639
 1000MOL0     C37868   9.421   1.668   0.725 -0.0456 -0.0240 -0.2197
 1000MOL0     C37869   9.441   1.748   0.612  0.4840 -0.1929 -0.6193
 1000MOL0     O37870   9.331   1.771   0.532  0.3501 -0.1962  0.5665
 1000MOL0     C37871   9.313   1.900   0.482 -0.4268  0.9012  0.1474
 1000MOL0     C37872   9.242   1.908   0.352  0.3239 -0.3721  0.6563
 1000MOL0     C37873   9.230   2.052   0.281  0.2859 -0.4109 -0.8333
 1000MOL0     C37874   9.199   2.047   0.131 -0.2972  0.0918  0.3465
 1000MOL0     C37875   9.160   2.183   0.057  0.9266 -0.0414  0.7545
 1000MOL0     C37876   9.142   2.170  -0.097 -0.1790  0.3026 -0.2798
 1000MOL0     C37877   9.125   2.294  -0.182 -0.1269  0.0887 -0.1376
 1000MOL0     C37878   9.249   2.374  -0.190  0.2924  0.4893 -0.5186
 1000MOL0     N37879   9.368   2.312  -0.258 -0.0277  0.0002 -0.6524
 1000MOL0     C37880   9.457   2.229  -0.199 -0.2764  0.0629 -0.0302
 1000MOL0     C37881   9.545   2.191  -0.294  0.6953  0.1289 -0.4624
 1000MOL0     C37882   9.660   2.106  -0.254  0.1078  0.8987  0.3285
 1000MOL0     C37883   9.606   1.961  -0.211  0.0503 -0.3165  0.2742
 1000MOL0     C37884   9.728   1.876  -0.158 -0.2293 -0.9170 -0.2146
 1000MOL0     C37885   9.807   1.834  -0.281 -0.2934 -0.3865 -0.2683
 1000MOL0     O37886   9.728   1.756  -0.377  0.8354 -0.3398 -0.9169
 1000MOL0     C37887   9.680   1.634  -0.352 -0.0744 -0.3764 -0.4557
 1000MOL0     C37888   9.569   1.596  -0.429 -0.0039  1.0593 -0.0279
 1000MOL0     C37889   9.527   1.457  -0.425 -0.4976  0.0147 -0.0080
 1000MOL0     C37890   9.405   1.429  -0.509 -0.5223 -0.8572 -0.0041
 1000MOL0     C37891   9.584   1.364  -0.328 -0.3797 -0.1204  0.6796
 1000MOL0     C37892   9.559   1.217  -0.323  0.5209  0.1569  0.1122
 1000MOL0     O37893   9.644   1.136  -0.250  0.4041 -0.2275  0.5656
 1000MOL0     C37894   9.624   1.000  -0.247  0.3602 -0.2177 -0.3291
 1000MOL0     C37895   9.727   0.909  -0.283  0.2002 -0.0549  0.4689
 1000MOL0     C37896   9.697   0.768  -0.280 -0.0090  0.2001  0.0387
 1000MOL0     C37897   9.576   0.727  -0.228 -0.9772 -0.2117  0.0011
 1000MOL0     O37898   9.557   0.594  -0.211  0.5784  0.4135  0.0615
 1000MOL0     C37899   9.429   0.533  -0.163 -0.4589  0.6822 -0.1546
 1000MOL0     C37900   9.399   0.380  -0.182  0.1551 -0.1051  0.7075
 1000MOL0     C37901   9.308   0.308  -0.076 -0.2365  0.0751  0.0145
 1000MOL0     C37902   9.159   0.332  -0.083 -0.2780  0.1433 -0.4113
 1000MOL0     C37903   9.085   0.220  -0.004 -0.7069  0.3970 -0.1101
 1000MOL0     C37904   8.933   0.238   0.006  0.4393  0.2510 -1.0642
 1000MOL0     C37905   8.881   0.126   0.096  0.5688 -0.4433  0.4132
 1000MOL0     C37906   8.728   0.108   0.088 -0.9444 -0.0836  0.1942
 1000MOL0    Cl37907   8.667   0.070  -0.069 -0.2712 -0.0171  0.2083
 1000MOL0     C37908   9.474   0.812  -0.194  0.3140  0.5713  0.0932
 1000MOL0     C37909   9.504   0.944  -0.206 -0.2963  0.0043  0.1806
 1000MOL0     O37910   9.451   1.171  -0.372 -0.1132 -0.1237 -0.2005
 1000MOL0     C37911   9.683   1.411  -0.239 -0.1344  0.0972 -0.1046
 1000MOL0     C37912   9.724   1.544  -0.246 -0.1049 -0.2241 -0.5506
 1000MOL0     N37913   9.518   2.268  -0.410  1.1236 -0.2515  0.8660
 1000MOL0     N37914   9.419   2.348  -0.383  0.0752 -0.2958 -0.2586
 1000MOL0     C37915   9.564   1.820   0.614 -0.2030 -0.0239  0.1027
 1000MOL0     C37916   9.657   1.804   0.716 -0.6493  0.1241  0.3817
 1000MOL0     C37917   9.889   1.608   1.063 -0.2140 -0.7570  1.3134
 1000MOL0     C37918  10.006   1.534   1.035 -1.3010 -0.8209  0.5671
 1000MOL0     C37919  10.120   1.551   1.113  0.1936 -0.2860 -0.1258
 1000MOL0     C37920  10.122   1.630   1.228 -0.0012  0.9522 -0.7580
 1000MOL0     O37921  10.221   1.649   1.320  0.0192 -0.1063 -0.7265
 1000MOL0     C37922  10.357   1.628   1.301 -0.0089 -0.2586  0.5895
 1000MOL0     C37923  10.426   1.764   1.327 -0.2557  0.7074  0.0565
 1000MOL0     C37924  10.577   1.764   1.284 -0.7583  0.6150  0.2029
 1000MOL0     C37925  10.605   1.767   1.137 -0.5037  0.7744 -0.1974
 1000MOL0     C37926  10.545   1.879   1.077  0.7237 -1.6675 -0.4203
 1000MOL0     C37927  10.490   1.976   1.021 -0.6706  0.4855  0.6790
 1000MOL0     C37928   9.996   1.682   1.264 -0.3865 -0.2696 -0.9969
 1000MOL0     C37929   9.882   1.677   1.187  0.2354 -0.4054 -0.4128
 1000MOL0     C37930   9.747   1.729   1.249 -0.6239 -0.7753  0.3523
 1000MOL0     H37931   9.482   1.601   0.929 -0.8489  1.3747  0.2671
 1000MOL0     H37932   9.320   1.633   0.748 -0.3376  0.1804 -1.1561
 1000MOL0     H37933   9.412   1.942   0.458 -0.3837  0.7983  0.1446
 1000MOL0     H37934   9.266   1.975   0.546 -0.1818  1.2624 -0.0913
 1000MOL0     H37935   9.298   1.838   0.290  1.3173  0.1961  0.8761
 1000MOL0     H37936   9.140   1.872   0.370  0.1728 -0.2409  0.0772
 1000MOL0     H37937   9.155   2.114   0.331  0.4510  0.5021 -1.6704
 1000MOL0     H37938   9.327   2.103   0.288 -0.6040  1.2464  0.1346
 1000MOL0     H37939   9.280   2.001   0.073 -1.7644 -0.5589 -1.2860
 1000MOL0     H37940   9.112   1.981   0.120  0.9122 -1.2515 -2.2791
 1000MOL0     H37941   9.240   2.255   0.077  0.9982 -0.3852  1.7552
 1000MOL0     H37942   9.071   2.215   0.111  0.3157 -3.9163  2.3920
 1000MOL0     H37943   9.221   2.104  -0.134 -1.1054 -1.6964  1.1247
 1000MOL0     H37944   9.047   2.117  -0.089 -0.8115  1.6474  2.2515
 1000MOL0     H37945   9.047   2.360  -0.144 -2.6469 -1.5859 -2.0232
 1000MOL0     H37946   9.102   2.267  -0.286  1.4660 -0.0505 -0.4859
 1000MOL0     H37947   9.229   2.469  -0.240  3.8512  0.5384 -2.1476
 1000MOL0     H37948   9.277   2.401  -0.088  0.5887  2.0842 -1.0002
 1000MOL0     H37949   9.458   2.188  -0.099 -1.7115 -2.8277 -1.0897
 1000MOL0     H37950   9.718   2.153  -0.174  2.2324 -1.1148  0.0646
 1000MOL0     H37951   9.736   2.093  -0.332 -0.0827  0.3685  0.2269
 1000MOL0     H37952   9.536   1.961  -0.127  0.5012 -1.3239  0.6733
 1000MOL0     H37953   9.550   1.923  -0.298 -0.1982 -1.6285  0.9780
 1000MOL0     H37954   9.783   1.931  -0.082 -0.0700 -0.8993 -0.3408
 1000MOL0     H37955   9.695   1.785  -0.106 -0.6930  0.9850  3.0760
 1000MOL0     H37956   9.848   1.922  -0.332 -1.7334  1.0954  1.0098
 1000MOL0     H37957   9.881   1.763  -0.244 -0.1223  0.7592  1.7197
 1000MOL0     H37958   9.509   1.660  -0.493 -2.5953 -0.8986  0.2329
 1000MOL0     H37959   9.405   1.332  -0.559  1.4686 -0.0582 -1.7007
 1000MOL0     H37960   9.390   1.507  -0.584  4.2854 -1.7782 -2.2619
 1000MOL0     H37961   9.327   1.427  -0.432 -1.2136  0.5450 -0.6343
 1000MOL0     H37962   9.820   0.955  -0.314 -0.5919  1.3192  0.0336
 1000MOL0     H37963   9.762   0.693  -0.323 -0.5099 -0.4051  0.3183
 1000MOL0     H37964   9.433   0.548  -0.055 -1.1282  0.3238 -0.0776
 1000MOL0     H37965   9.350   0.591  -0.211 -1.3304  0.6699  1.2376
 1000MOL0     H37966   9.349   0.376  -0.279  1.0074 -0.5091  0.2702
 1000MOL0     H37967   9.488   0.320  -0.204 -1.5111 -2.8619  1.0594
 1000MOL0     H37968   9.339   0.324   0.027  1.8864  0.7350 -0.6570
 1000MOL0     H37969   9.338   0.203  -0.081  2.5233  0.7986 -0.6239
 1000MOL0     H37970   9.125   0.330  -0.186  0.9622 -2.8202 -0.8773
 1000MOL0     H37971   9.143   0.426  -0.029 -0.0089 -0.9927  1.8058
 1000MOL0     H37972   9.125   0.130  -0.050 -1.4926  1.6403 -3.5228
 1000MOL0     H37973   9.125   0.232   0.097 -0.9142 -0.6588  0.1085
 1000MOL0     H37974   8.876   0.236  -0.088 -2.0516  0.9536  0.3259
 1000MOL0     H37975   8.910   0.336   0.049  1.5359 -1.0645  2.9309
 1000MOL0     H37976   8.903   0.153   0.200  0.0395 -0.3671  0.5078
 1000MOL0     H37977   8.919   0.025   0.078 -1.0412 -1.9980  4.4375
 1000MOL0     H37978   8.683   0.205   0.112 -3.8170 -1.6058  1.4541
 1000MOL0     H37979   8.693   0.026   0.152 -2.5269 -0.1296 -0.6670
 1000MOL0     H37980   9.373   0.789  -0.162  0.3478  0.7081  0.2988
 1000MOL0     H37981   9.426   1.012  -0.173  1.3792  1.5280  1.1351
 1000MOL0     H37982   9.722   1.350  -0.159  2.9132 -2.0261 -2.9581
 1000MOL0     H37983   9.802   1.573  -0.177  0.7621 -0.7450 -1.2922
 1000MOL0     H37984   9.588   1.868   0.520 -1.5455 -0.5108 -0.5218
 1000MOL0     H37985   9.755   1.849   0.708 -0.1837 -0.9891 -0.5236
 1000MOL0     H37986  10.020   1.465   0.952  0.5195 -0.5865  0.6464
 1000MOL0     H37987  10.219   1.514   1.089  1.5675  1.6007  2.1547
 1000MOL0     H37988  10.394   1.557   1.374  0.4551  0.8445  1.4522
 1000MOL0     H37989  10.383   1.600   1.198  1.8345 -3.8027  1.8907
 1000MOL0     H37990  10.430   1.799   1.431 -2.4959 -1.6328  1.0519
 1000MOL0     H37991  10.370   1.844   1.277  1.5715  0.7265 -2.0971
 1000MOL0     H37992  10.621   1.850   1.335  0.2770 -1.3110  2.8059
 1000MOL0     H37993  10.634   1.680   1.324  1.2499  3.0498  2.8382
 1000MOL0     H37994  10.581   1.672   1.088 -1.0812 -0.3089  2.0607
 1000MOL0     H37995  10.713   1.768   1.120 -0.2390 -0.3675  1.1612
 1000MOL0     H37996  10.452   2.069   0.984  2.0902  2.9511  3.4241
 1000MOL0     H37997   9.973   1.720   1.364  1.8284  1.3149 -1.0285
 1000MOL0     H37998   9.687   1.647   1.290 -1.5824 -0.0228  0.4826
 1000MOL0     H37999   9.767   1.809   1.320  2.8273  0.4199 -1.7426
 1000MOL0     H38000   9.691   1.777   1.167  2.0549  2.2036  0.0869
 1001MOL0     O38001   5.727   9.012   4.741 -0.1329  0.4013 -0.2229
 1001MOL0     C38002   5.752   8.979   4.627 -0.1776 -0.3886 -0.5835
 1001MOL0     O38003   5.811   8.867   4.584 -0.6244 -0.6949  0.6693
 1001MOL0     C38004   5.862   8.779   4.680  0.8910  0.6688 -0.2967
 1001MOL0     C38005   5.948   8.694   4.616  0.2215 -0.2400  0.2852
 1001MOL0     C38006   6.001   8.586   4.680  0.7238  0.3451  0.0098
 1001MOL0     C38007   5.961   8.566   4.808 -0.0208 -0.7815 -1.3411
 1001MOL0     O38008   6.004   8.450   4.871 -0.1775 -0.0348 -0.0435
 1001MOL0     C38009   6.025   8.442   5.011 -0.7682  0.2396  0.6049
 1001MOL0     C38010   6.114   8.313   5.038 -0.0147 -0.5789  0.4305
 1001MOL0     C38011   6.259   8.347   5.032 -0.0920  0.2365  0.2549
 1001MOL0     C38012   6.335   8.219   5.063  0.4555 -0.1796 -0.4745
 1001MOL0     C38013   6.478   8.202   5.011  0.0180  0.2758  0.3435
 1001MOL0     C38014   6.562   8.310   5.074 -0.0609 -0.4704  0.3733
 1001MOL0     C38015   6.694   8.333   4.986 -0.3729 -0.5054  0.0223
 1001MOL0     C38016   6.726   8.479   4.965 -0.3943  0.1414 -0.0499
 1001MOL0     N38017   6.786   8.535   5.089  0.1391 -0.5058 -0.1198
 1001MOL0     C38018   6.913   8.542   5.128 -0.6511  1.0961  0.0386
 1001MOL0     C38019   6.914   8.639   5.224  0.0852  0.5493 -0.8141
 1001MOL0     C38020   7.021   8.691   5.309 -0.3560 -0.1207 -1.2241
 1001MOL0     C38021   7.079   8.828   5.264  0.2364  0.4870  0.2594
 1001MOL0     C38022   7.195   8.868   5.347 -0.4345  0.2744 -0.1515
 1001MOL0     C38023   7.288   8.973   5.278 -0.4304 -1.0440  0.3530
 1001MOL0     O38024   7.383   8.914   5.188  0.0074 -0.0601 -0.2414
 1001MOL0     C38025   7.508   8.883   5.243  0.9247 -0.0250  0.3519
 1001MOL0     C38026   7.543   8.751   5.241 -0.6446  0.0223  0.4737
 1001MOL0     C38027   7.678   8.718   5.284 -0.0873  0.2524 -0.2908
 1001MOL0     C38028   7.722   8.571   5.282 -0.6804 -0.1250  0.9420
 1001MOL0     C38029   7.773   8.813   5.334 -0.0278  0.9907 -0.7425
 1001MOL0     C38030   7.912   8.780   5.378  0.6950 -0.4885 -0.5032
 1001MOL0     O38031   8.007   8.828   5.295 -0.8520  0.2161 -0.1180
 1001MOL0     C38032   8.138   8.859   5.331  0.1445  0.5902  0.3932
 1001MOL0     C38033   8.174   8.938   5.443 -0.7198 -0.4260  0.3070
 1001MOL0     C38034   8.309   8.947   5.485  0.8363  0.3782  0.6132
 1001MOL0     C38035   8.409   8.890   5.407  0.4538  0.2742  0.7682
 1001MOL0     O38036   8.545   8.905   5.420 -0.3835 -0.9156 -0.1513
 1001MOL0     C38037   8.588   8.961   5.546  0.1825 -0.5373 -0.1556
 1001MOL0     C38038   8.733   8.935   5.557 -0.0140  0.0752  0.4226
 1001MOL0     C38039   8.759   8.786   5.566 -0.1445  0.2673 -0.2089
 1001MOL0     C38040   8.906   8.770   5.628 -0.4625  0.3501 -0.2900
 1001MOL0     C38041   8.952   8.625   5.632  0.4834  0.3542  0.9619
 1001MOL0     C38042   9.093   8.607   5.689 -1.0616 -0.6770  0.0689
 1001MOL0     C38043   9.183   8.593   5.571 -0.2886  0.6002  0.1878
 1001MOL0     C38044   9.329   8.564   5.606  0.4171 -0.5064 -0.6420
 1001MOL0    Cl38045   9.380   8.687   5.726  0.3615  0.2262  0.2673
 1001MOL0     C38046   8.370   8.812   5.297  0.7846  0.4985 -0.2119
 1001MOL0     C38047   8.239   8.793   5.257 -0.9953  0.1636 -0.3047
 1001MOL0     O38048   7.929   8.712   5.488 -0.0569 -0.2174  0.4761
 1001MOL0     C38049   7.727   8.941   5.347 -1.2835  0.8707 -0.3776
 1001MOL0     C38050   7.596   8.976   5.300 -0.4669  0.5249 -0.2735
 1001MOL0     N38051   6.783   8.685   5.247 -0.5811  0.0931  0.2555
 1001MOL0     N38052   6.705   8.616   5.168  0.2181 -0.3726 -0.3211
 1001MOL0     C38053   5.879   8.651   4.874  0.2143  0.1970  1.1406
 1001MOL0     C38054   5.817   8.753   4.811 -0.8151 -0.4649  0.2646
 1001MOL0     C38055   5.714   9.079   4.531  1.1476 -0.2898  0.3645
 1001MOL0     C38056   5.706   9.040   4.396  0.7654 -0.3174 -0.7596
 1001MOL0     C38057   5.656   9.127   4.301 -0.5771  0.3687  0.3061
 1001MOL0     C38058   5.614   9.256   4.340  0.2761  0.3943  0.4616
 1001MOL0     O38059   5.549   9.342   4.263  1.1390  0.1467 -0.1567
 1001MOL0     C38060   5.493   9.303   4.140  0.0683  0.0498  0.1352
 1001MOL0     C38061   5.391   9.399   4.076  0.1491  0.5900 -0.7416
 1001MOL0     C38062   5.274   9.417   4.182  0.4325 -0.1361  0.5320
 1001MOL0     C38063   5.151   9.487   4.131 -0.0169  0.1599  0.4207
 1001MOL0     C38064   5.070   9.555   4.233 -1.0764  0.3240 -0.1524
 1001MOL0     C38065   5.014   9.629   4.311  0.0433  0.5953 -0.4106
 1001MOL0     C38066   5.628   9.299   4.466 -0.3030  1.2026 -0.1748
 1001MOL0     C38067   5.681   9.216   4.571  0.6037 -0.0555 -0.1531
 1001MOL0     C38068   5.708   9.272   4.709  0.1356 -0.4435 -0.0163
 1001MOL0     H38069   5.961   8.712   4.510  2.7686  1.7706  0.8369
 1001MOL0     H38070   6.067   8.511   4.638 -0.2178  0.3070 -1.4590
 1001MOL0     H38071   5.932   8.422   5.065 -0.2393 -2.9351  0.5681
 1001MOL0     H38072   6.077   8.530   5.052  3.1695 -0.7599 -1.6870
 1001MOL0     H38073   6.091   8.274   5.137  1.3001 -0.6794  0.7163
 1001MOL0     H38074   6.082   8.233   4.971  0.4583  0.4086 -1.0165
 1001MOL0     H38075   6.277   8.391   4.933  1.7341 -1.3752 -0.2062
 1001MOL0     H38076   6.289   8.426   5.101  2.1563 -1.1750  1.0193
 1001MOL0     H38077   6.324   8.203   5.171 -0.4572  3.1409  0.0147
 1001MOL0     H38078   6.279   8.134   5.021 -0.5032  0.3626 -0.3164
 1001MOL0     H38079   6.471   8.211   4.902 -2.6325 -2.7354  0.1381
 1001MOL0     H38080   6.520   8.102   5.025  2.2963  1.0307 -0.5875
 1001MOL0     H38081   6.500   8.400   5.077 -0.2452 -0.5487 -0.8415
 1001MOL0     H38082   6.577   8.290   5.181 -3.1790  1.4753  1.3382
 1001MOL0     H38083   6.688   8.282   4.890 -4.1409 -0.5075  0.0988
 1001MOL0     H38084   6.780   8.284   5.033 -0.7301  0.3648  1.6670
 1001MOL0     H38085   6.806   8.492   4.892  3.3202 -2.2083  3.2011
 1001MOL0     H38086   6.644   8.538   4.922  0.3581 -0.2108 -2.0893
 1001MOL0     H38087   6.989   8.477   5.086  0.2283  3.0221 -1.5063
 1001MOL0     H38088   7.104   8.621   5.296  1.3009  1.5081  0.0146
 1001MOL0     H38089   6.999   8.702   5.416  1.5760  1.0660 -0.9098
 1001MOL0     H38090   7.115   8.803   5.164  0.9753 -0.9979  0.8638
 1001MOL0     H38091   7.003   8.906   5.251  0.5514  0.7721  0.0761
 1001MOL0     H38092   7.161   8.907   5.444  0.9887 -0.3895  0.6415
 1001MOL0     H38093   7.264   8.785   5.367 -0.9034 -0.1144 -0.1330
 1001MOL0     H38094   7.231   9.047   5.221  1.3423 -1.3500 -1.9314
 1001MOL0     H38095   7.345   9.033   5.349  1.5582 -0.4383 -1.6607
 1001MOL0     H38096   7.483   8.672   5.197 -0.4654  1.3791 -2.4326
 1001MOL0     H38097   7.676   8.489   5.226 -1.6059  0.4072  0.9099
 1001MOL0     H38098   7.725   8.547   5.389  1.7956  2.8443  1.6667
 1001MOL0     H38099   7.822   8.558   5.241 -0.3442  3.2522  0.3884
 1001MOL0     H38100   8.102   8.997   5.499  1.0257  2.7717 -0.6089
 1001MOL0     H38101   8.330   9.018   5.564  0.0435 -0.2449  1.4032
 1001MOL0     H38102   8.558   9.064   5.564  0.3816 -0.8455  2.2366
 1001MOL0     H38103   8.545   8.902   5.628  0.7325 -2.0663 -0.9131
 1001MOL0     H38104   8.783   8.986   5.474  0.6857 -0.4396  0.5205
 1001MOL0     H38105   8.777   8.985   5.644  0.6479  1.8175 -0.8425
 1001MOL0     H38106   8.752   8.734   5.469 -1.4824 -0.0739  0.0571
 1001MOL0     H38107   8.692   8.730   5.632  0.6170 -1.1554 -0.5906
 1001MOL0     H38108   8.902   8.805   5.731 -1.9897 -0.2097 -0.1332
 1001MOL0     H38109   8.983   8.819   5.568  1.0156 -2.5667 -0.9635
 1001MOL0     H38110   8.878   8.580   5.698  0.7267 -0.7476  0.5136
 1001MOL0     H38111   8.945   8.576   5.534 -0.3000  3.7248 -0.7949
 1001MOL0     H38112   9.095   8.516   5.750  0.7495  0.6374  2.1025
 1001MOL0     H38113   9.119   8.693   5.751 -0.5913  1.3469 -2.7174
 1001MOL0     H38114   9.172   8.677   5.502 -0.7164  1.0323  0.7733
 1001MOL0     H38115   9.159   8.495   5.527 -0.8693  0.3593  1.0205
 1001MOL0     H38116   9.384   8.561   5.511  0.3189 -2.3663 -0.6756
 1001MOL0     H38117   9.341   8.468   5.656 -1.3771  0.7605  2.5578
 1001MOL0     H38118   8.444   8.761   5.236 -0.0605  0.1053 -0.9309
 1001MOL0     H38119   8.226   8.724   5.174  4.7460 -1.4534 -0.2476
 1001MOL0     H38120   7.782   9.024   5.390 -2.8264  0.6310  2.3186
 1001MOL0     H38121   7.566   9.081   5.306 -0.4100  0.7926 -3.3123
 1001MOL0     H38122   5.852   8.629   4.977  0.4887  0.0867  1.1901
 1001MOL0     H38123   5.735   8.807   4.856 -1.1914 -1.8109  1.2397
 1001MOL0     H38124   5.740   8.942   4.365 -1.0522  0.1114 -4.7689
 1001MOL0     H38125   5.655   9.099   4.197 -1.5111 -0.3918  0.5039
 1001MOL0     H38126   5.576   9.286   4.071  1.2559  0.2122  1.4991
 1001MOL0     H38127   5.446   9.205   4.153  1.2893 -0.6900 -0.7794
 1001MOL0     H38128   5.356   9.351   3.984 -0.7240  1.5428 -0.9129
 1001MOL0     H38129   5.424   9.501   4.056  2.3466 -0.1791 -1.3826
 1001MOL0     H38130   5.242   9.319   4.221  2.4575 -0.3776  1.6915
 1001MOL0     H38131   5.317   9.470   4.267  3.6680  0.5817 -1.4144
 1001MOL0     H38132   5.082   9.424   4.074  0.0582  1.0049 -0.6413
 1001MOL0     H38133   5.194   9.568   4.070  0.9782  0.9705  2.1091
 1001MOL0     H38134   4.958   9.693   4.376 -0.8767 -0.1380 -0.4583
 1001MOL0     H38135   5.596   9.399   4.492  1.7485  1.3651  2.0701
 1001MOL0     H38136   5.707   9.381   4.698 -2.5245 -0.3872  0.2293
 1001MOL0     H38137   5.626   9.241   4.773  1.0443 -4.5164 -0.5621
 1001MOL0     H38138   5.806   9.250   4.752 -1.3356 -1.6074  3.0059
 1002MOL0     O38139   9.713   0.104   9.233  0.3818 -0.5309  0.2619
 1002MOL0     C38140   9.770   0.166   9.325  0.5286 -0.9593  0.7678
 1002MOL0     O38141   9.900   0.136   9.365 -0.0602  0.0040 -0.6127
 1002MOL0     C38142   9.981   0.088   9.271 -0.1680 -0.2649  0.4654
 1002MOL0     C38143  10.057  -0.031   9.298 -0.0591 -0.1691  0.8282
 1002MOL0     C38144  10.128  -0.098   9.195 -0.3456 -0.2026 -0.2180
 1002MOL0     C38145  10.145  -0.040   9.070  0.9726 -0.3830 -0.0233
 1002MOL0     O38146  10.234  -0.093   8.984  0.3346  1.0553  0.0391
 1002MOL0     C38147  10.322   0.013   8.921  0.1493 -0.0461 -0.5031
 1002MOL0     C38148  10.419  -0.053   8.821 -0.8812  0.0977 -0.4076
 1002MOL0     C38149  10.541   0.034   8.792 -0.3922  1.2758  0.7659
 1002MOL0     C38150  10.652  -0.048   8.723 -0.7604 -0.7640  0.2321
 1002MOL0     C38151  10.766   0.038   8.669  0.0107  0.5225  1.1078
 1002MOL0     C38152  10.838   0.112   8.781  0.0200  0.4147 -0.4771
 1002MOL0     C38153  10.987   0.130   8.761  0.0903  0.0288 -0.0865
 1002MOL0     C38154  11.068  -0.001   8.730 -0.0599 -0.4585 -0.5648
 1002MOL0     N38155  11.040  -0.109   8.825  0.5093 -0.4209  0.7022
 1002MOL0     C38156  11.018  -0.102   8.957 -0.0422  0.5005  0.3992
 1002MOL0     C38157  10.959  -0.219   8.984 -0.4941  0.5110  0.5139
 1002MOL0     C38158  10.912  -0.268   9.126  0.5493  0.0892 -0.3080
 1002MOL0     C38159  11.033  -0.292   9.221 -0.3257 -0.6674  0.3205
 1002MOL0     C38160  11.120  -0.402   9.161 -0.7780  0.0521  0.1176
 1002MOL0     C38161  11.251  -0.358   9.091 -1.2778  0.4575  1.2162
 1002MOL0     O38162  11.350  -0.296   9.179 -0.8396 -0.0065  0.1245
 1002MOL0     C38163  11.488  -0.286   9.146 -0.6940  0.3341 -0.6034
 1002MOL0     C38164  11.549  -0.351   9.034  0.4742  0.4837 -0.1073
 1002MOL0     C38165  11.684  -0.332   8.996 -0.1224  1.0460 -0.3004
 1002MOL0     C38166  11.726  -0.410   8.881  0.3381 -0.4560  0.8475
 1002MOL0     C38167  11.762  -0.239   9.076  0.1051  0.2030 -0.3350
 1002MOL0     C38168  11.909  -0.220   9.059  0.4255  0.5864 -0.4773
 1002MOL0     O38169  11.964  -0.145   9.155 -0.3648 -0.9319  0.7789
 1002MOL0     C38170  12.103  -0.137   9.183  1.2729 -0.0008 -0.3803
 1002MOL0     C38171  12.203  -0.232   9.140  0.9249 -1.1994 -0.2001
 1002MOL0     C38172  12.339  -0.221   9.183 -0.4878  0.2029  0.3121
 1002MOL0     C38173  12.376  -0.115   9.274  0.2083 -0.6237 -0.1421
 1002MOL0     O38174  12.502  -0.099   9.326 -0.4169 -0.2406  0.1006
 1002MOL0     C38175  12.585  -0.220   9.349  1.2288  0.0570 -0.2727
 1002MOL0     C38176  12.720  -0.191   9.425 -0.1912 -0.2096  0.7878
 1002MOL0     C38177  12.708  -0.178   9.573  0.2326 -0.4954 -0.2432
 1002MOL0     C38178  12.685  -0.316   9.632  0.4121 -0.7547  0.1332
 1002MOL0     C38179  12.650  -0.305   9.781 -0.0846 -0.3766  1.0051
 1002MOL0     C38180  12.654  -0.438   9.856 -0.0669 -0.1707  0.4099
 1002MOL0     C38181  12.591  -0.424   9.991  0.1439 -0.1494  0.9430
 1002MOL0     C38182  12.646  -0.530  10.089  0.0908 -0.4185  0.9014
 1002MOL0    Cl38183  12.556  -0.501  10.242  0.7298 -0.0662  0.1148
 1002MOL0     C38184  12.278  -0.023   9.322 -0.1112 -0.0689  0.7433
 1002MOL0     C38185  12.141  -0.035   9.271 -0.8679  0.3413  0.1372
 1002MOL0     O38186  11.976  -0.281   8.977 -0.0888  0.5983 -1.1362
 1002MOL0     C38187  11.702  -0.170   9.186  0.1872 -0.6273 -0.3671
 1002MOL0     C38188  11.569  -0.199   9.224  0.3745 -0.4744  0.0082
 1002MOL0     N38189  10.961  -0.301   8.870 -0.1160  0.2023 -0.7018
 1002MOL0     N38190  10.994  -0.228   8.768 -0.5895  0.6666  0.2735
 1002MOL0     C38191  10.073   0.075   9.051 -0.4032  0.4115  0.5455
 1002MOL0     C38192   9.992   0.141   9.139  0.3613 -0.5630  0.1312
 1002MOL0     C38193   9.711   0.287   9.387 -0.0995 -0.0391 -0.0101
 1002MOL0     C38194   9.793   0.359   9.483  0.3940  1.0449  0.6735
 1002MOL0     C38195   9.762   0.478   9.542 -0.3778  0.2056 -0.1769
 1002MOL0     C38196   9.642   0.536   9.516 -0.6880  0.3505 -0.2944
 1002MOL0     O38197   9.619   0.652   9.584  0.1313  1.1089 -0.0095
 1002MOL0     C38198   9.485   0.689   9.626 -0.4790  0.4071 -0.5103
 1002MOL0     C38199   9.495   0.801   9.729 -0.1248 -0.0318 -0.0142
 1002MOL0     C38200   9.557   0.931   9.686 -1.4572 -1.0588  0.2029
 1002MOL0     C38201   9.467   1.004   9.589  0.7899  0.6560 -0.6899
 1002MOL0     C38202   9.532   1.127   9.552 -0.2507  0.3084 -0.8592
 1002MOL0     C38203   9.597   1.224   9.523 -0.5940 -0.4520 -0.0525
 1002MOL0     C38204   9.563   0.473   9.412  0.5875 -0.2091  0.5377
 1002MOL0     C38205   9.597   0.351   9.341 -0.6777  0.6132 -0.5855
 1002MOL0     C38206   9.501   0.303   9.239  0.7323 -0.3392  0.3989
 1002MOL0     H38207  10.047  -0.064   9.401  1.5344 -2.1381  0.4242
 1002MOL0     H38208  10.182  -0.191   9.212  1.4645  1.2635  3.0199
 1002MOL0     H38209  10.373   0.059   9.006 -0.4297 -5.8219  3.4940
 1002MOL0     H38210  10.267   0.086   8.861 -2.0537 -1.9862 -0.9816
 1002MOL0     H38211  10.453  -0.153   8.849  1.3815  0.7086 -0.7586
 1002MOL0     H38212  10.356  -0.057   8.732 -4.4302  2.3476  1.7438
 1002MOL0     H38213  10.515   0.099   8.708 -0.2902  3.4264  2.2952
 1002MOL0     H38214  10.580   0.093   8.876 -0.4329 -1.4411  2.8447
 1002MOL0     H38215  10.696  -0.115   8.798  0.3399 -0.9555 -0.5554
 1002MOL0     H38216  10.604  -0.100   8.639 -4.5670  3.4771 -0.5940
 1002MOL0     H38217  10.732   0.112   8.595  1.5409 -0.3108 -0.4924
 1002MOL0     H38218  10.829  -0.034   8.617 -0.1587  1.7854 -0.9339
 1002MOL0     H38219  10.798   0.211   8.805 -0.0295  0.4709 -0.7936
 1002MOL0     H38220  10.825   0.056   8.875  1.3340 -1.5736 -1.4110
 1002MOL0     H38221  11.019   0.172   8.856  1.1831  3.5788 -1.8772
 1002MOL0     H38222  11.014   0.202   8.684 -0.6951 -0.4892 -0.8701
 1002MOL0     H38223  11.042  -0.025   8.627 -0.0480 -1.7029 -0.2874
 1002MOL0     H38224  11.174   0.024   8.732 -0.2035  0.1574  0.7452
 1002MOL0     H38225  11.042  -0.029   9.034 -1.5834 -1.2258  2.6610
 1002MOL0     H38226  10.866  -0.367   9.111 -2.1753  1.2658 -0.1790
 1002MOL0     H38227  10.835  -0.209   9.175  1.8651 -1.2384  3.7566
 1002MOL0     H38228  11.084  -0.198   9.247 -1.6674 -0.0535  0.8284
 1002MOL0     H38229  11.000  -0.331   9.318 -1.5522 -0.0937  0.1554
 1002MOL0     H38230  11.150  -0.468   9.243 -2.5879  2.1862  2.6786
 1002MOL0     H38231  11.067  -0.461   9.087 -0.6069  0.7635 -0.5842
 1002MOL0     H38232  11.284  -0.447   9.037 -4.8656 -0.5365  0.4604
 1002MOL0     H38233  11.239  -0.280   9.016  2.2425  0.4423  0.4400
 1002MOL0     H38234  11.493  -0.429   8.981  1.3746  0.0155 -0.3869
 1002MOL0     H38235  11.643  -0.466   8.837  1.1187 -1.0693  0.1287
 1002MOL0     H38236  11.805  -0.482   8.904  0.9609  0.2423  0.9012
 1002MOL0     H38237  11.764  -0.351   8.798 -2.2205 -0.3003 -0.2978
 1002MOL0     H38238  12.194  -0.327   9.087  2.2520 -2.3060  1.4507
 1002MOL0     H38239  12.416  -0.288   9.144  2.2137  2.8261  0.7764
 1002MOL0     H38240  12.517  -0.275   9.415 -0.1877  3.2936  1.1636
 1002MOL0     H38241  12.604  -0.267   9.252  1.6325  2.1697 -1.2672
 1002MOL0     H38242  12.800  -0.259   9.393 -1.5725 -1.8126  0.5807
 1002MOL0     H38243  12.765  -0.098   9.389  0.2495 -0.7139 -0.0132
 1002MOL0     H38244  12.619  -0.120   9.600 -0.5224 -0.1191 -3.1483
 1002MOL0     H38245  12.801  -0.134   9.612  0.0505 -0.5954  0.3055
 1002MOL0     H38246  12.778  -0.373   9.623  1.6533  1.2548 -0.4825
 1002MOL0     H38247  12.602  -0.365   9.581 -0.7596  0.7618  0.5039
 1002MOL0     H38248  12.731  -0.245   9.822  0.8698  0.5925 -2.0641
 1002MOL0     H38249  12.556  -0.248   9.783  1.8094  2.9561  1.1569
 1002MOL0     H38250  12.759  -0.466   9.851  0.6779  2.2009  1.2093
 1002MOL0     H38251  12.591  -0.511   9.805 -0.8118  1.4621 -1.1374
 1002MOL0     H38252  12.482  -0.419   9.979  0.1930 -0.4962  0.3030
 1002MOL0     H38253  12.624  -0.330  10.036  0.5667  0.2856 -0.2298
 1002MOL0     H38254  12.755  -0.515  10.096  0.1724  0.8579 -1.7682
 1002MOL0     H38255  12.614  -0.628  10.054 -4.3525  0.8578  0.7881
 1002MOL0     H38256  12.298   0.045   9.405  1.4701 -1.1704  1.3116
 1002MOL0     H38257  12.072   0.046   9.293  0.1625  1.5429 -0.8570
 1002MOL0     H38258  11.755  -0.100   9.250  1.9719 -2.2349  0.0029
 1002MOL0     H38259  11.524  -0.150   9.309 -3.9007 -1.1995 -1.5863
 1002MOL0     H38260  10.071   0.118   8.951  0.0122 -1.5497 -0.3490
 1002MOL0     H38261   9.929   0.221   9.100 -1.7648 -2.1058  0.1885
 1002MOL0     H38262   9.884   0.317   9.525 -0.0202 -0.7401 -0.1662
 1002MOL0     H38263   9.829   0.528   9.611 -0.7650 -1.5239  1.5473
 1002MOL0     H38264   9.416   0.725   9.549 -0.4456 -1.2925 -1.3915
 1002MOL0     H38265   9.447   0.597   9.671  1.3474  0.3156  0.9539
 1002MOL0     H38266   9.541   0.760   9.819 -0.5570 -0.0962  0.1836
 1002MOL0     H38267   9.392   0.821   9.761 -0.6434 -1.4407 -0.7028
 1002MOL0     H38268   9.572   0.985   9.780 -0.3611 -2.8673  1.1294
 1002MOL0     H38269   9.661   0.919   9.652  1.3113  3.3615  5.4351
 1002MOL0     H38270   9.365   1.023   9.624  1.6008  1.3367  1.4666
 1002MOL0     H38271   9.469   0.945   9.497 -0.0354  2.2943 -1.8186
 1002MOL0     H38272   9.657   1.304   9.484 -1.4255  0.7231  1.0146
 1002MOL0     H38273   9.475   0.528   9.382  0.0713 -0.3183  1.7846
 1002MOL0     H38274   9.549   0.280   9.143 -2.0639  1.6289 -1.6386
 1002MOL0     H38275   9.456   0.212   9.281 -0.6785  0.1698  0.0625
 1002MOL0     H38276   9.420   0.375   9.223  3.8514  4.0372  2.2150
 1003MOL0     O38277   3.666   2.867   1.197  0.5354 -0.2588  0.6220
 1003MOL0     C38278   3.582   2.929   1.130 -0.8188 -0.0089  1.2327
 1003MOL0     O38279   3.583   3.061   1.120 -0.5395 -0.8490 -0.2591
 1003MOL0     C38280   3.637   3.124   1.223  0.9760 -0.2191  0.1864
 1003MOL0     C38281   3.773   3.127   1.250  0.0028 -0.7026  0.2876
 1003MOL0     C38282   3.825   3.202   1.349 -0.2783  0.7908 -0.9276
 1003MOL0     C38283   3.746   3.276   1.435 -0.0771 -0.2913  0.5808
 1003MOL0     O38284   3.804   3.353   1.533 -0.0275  0.4491 -0.0372
 1003MOL0     C38285   3.750   3.478   1.580 -0.1280  0.1894 -0.0164
 1003MOL0     C38286   3.848   3.546   1.683 -0.1658 -0.5455 -0.5148
 1003MOL0     C38287   3.989   3.527   1.647 -0.3675 -0.0229 -0.6220
 1003MOL0     C38288   4.020   3.611   1.521 -0.2272  0.0086  0.2804
 1003MOL0     C38289   4.167   3.621   1.497  0.0909 -0.7454 -0.3223
 1003MOL0     C38290   4.227   3.499   1.440 -0.2637 -0.2932  0.0230
 1003MOL0     C38291   4.377   3.518   1.412  0.3249  0.1567 -0.2402
 1003MOL0     C38292   4.465   3.541   1.543  0.0666  0.1078 -0.2668
 1003MOL0     N38293   4.603   3.520   1.511 -0.1014  0.1880 -0.0888
 1003MOL0     C38294   4.695   3.619   1.509 -0.3072  0.3288  0.6697
 1003MOL0     C38295   4.812   3.556   1.481 -0.2132 -0.5016 -0.0793
 1003MOL0     C38296   4.948   3.631   1.480 -0.3105 -0.1376  0.2437
 1003MOL0     C38297   5.063   3.552   1.529  0.7654 -0.4710  0.8327
 1003MOL0     C38298   5.208   3.614   1.509  1.8062 -0.6723  0.2053
 1003MOL0     C38299   5.303   3.520   1.557  0.3284  0.4388 -0.5920
 1003MOL0     O38300   5.311   3.398   1.489  0.6547 -0.2642  0.4226
 1003MOL0     C38301   5.392   3.297   1.528 -0.2973 -0.5747  0.0636
 1003MOL0     C38302   5.362   3.167   1.498 -1.2542  0.4779 -0.5403
 1003MOL0     C38303   5.432   3.056   1.530 -0.2882  0.2290 -0.0562
 1003MOL0     C38304   5.370   2.912   1.511  0.7081 -0.9167 -0.7103
 1003MOL0     C38305   5.562   3.077   1.592 -0.4009 -0.0667 -0.0492
 1003MOL0     C38306   5.664   2.974   1.624  0.4393  0.5299 -0.6532
 1003MOL0     O38307   5.741   2.993   1.730 -0.2949 -0.2343  0.4047
 1003MOL0     C38308   5.846   2.899   1.733  0.3782  0.3052 -0.5098
 1003MOL0     C38309   5.981   2.924   1.709 -0.3545  0.6472  0.6516
 1003MOL0     C38310   6.086   2.834   1.740 -0.3344  0.2767  0.0130
 1003MOL0     C38311   6.059   2.716   1.806 -0.3196  0.0699  1.4139
 1003MOL0     O38312   6.157   2.622   1.834  0.1849 -0.6818 -0.6381
 1003MOL0     C38313   6.296   2.651   1.811  0.5787 -0.3539 -0.8377
 1003MOL0     C38314   6.370   2.524   1.864 -0.3485  0.9319  0.5022
 1003MOL0     C38315   6.530   2.523   1.861  0.5285 -0.3034  0.5457
 1003MOL0     C38316   6.575   2.435   1.982  0.1554  0.4318 -0.5481
 1003MOL0     C38317   6.712   2.387   1.994 -0.7935 -0.3928 -0.4111
 1003MOL0     C38318   6.736   2.327   2.141  0.2251  0.2803  0.9036
 1003MOL0     C38319   6.885   2.272   2.147  0.2796  0.1469  0.5301
 1003MOL0     C38320   6.924   2.243   2.289  0.7440 -0.7882 -0.1964
 1003MOL0    Cl38321   7.095   2.181   2.308  0.1475  0.0310  0.4240
 1003MOL0     C38322   5.929   2.684   1.840  1.0329 -0.0570 -0.2604
 1003MOL0     C38323   5.820   2.772   1.800 -0.2015 -0.0520  0.1330
 1003MOL0     O38324   5.655   2.870   1.553 -0.6354  0.0661  0.5393
 1003MOL0     C38325   5.591   3.208   1.639 -0.1446  0.6139  0.7933
 1003MOL0     C38326   5.506   3.314   1.615 -0.1543 -0.3658 -0.9689
 1003MOL0     N38327   4.787   3.427   1.462  0.0521 -0.1172  0.1063
 1003MOL0     N38328   4.659   3.402   1.478  0.0206  0.0639  0.3915
 1003MOL0     C38329   3.613   3.290   1.407 -0.0314 -0.4040  0.0061
 1003MOL0     C38330   3.555   3.208   1.301 -0.1788  0.2921 -0.3390
 1003MOL0     C38331   3.465   2.868   1.063 -0.1979  0.3004 -0.7693
 1003MOL0     C38332   3.452   2.728   1.072  0.1551  0.2565  0.6788
 1003MOL0     C38333   3.348   2.666   1.015  1.2240 -0.0197  0.0087
 1003MOL0     C38334   3.237   2.737   0.960 -0.0751 -0.9459  0.5387
 1003MOL0     O38335   3.124   2.668   0.924 -0.1177 -0.6740  0.6527
 1003MOL0     C38336   3.136   2.605   0.796  0.0595  0.1837  0.4315
 1003MOL0     C38337   3.153   2.455   0.826 -0.6831 -0.1437 -0.0057
 1003MOL0     C38338   3.172   2.349   0.717 -0.2857 -0.5261 -0.2868
 1003MOL0     C38339   3.320   2.325   0.695  0.1193  0.4292 -0.5452
 1003MOL0     C38340   3.383   2.442   0.625 -0.0399 -0.2825 -0.0665
 1003MOL0     C38341   3.423   2.549   0.578  0.3762 -0.1173 -0.4738
 1003MOL0     C38342   3.249   2.874   0.956  0.1757 -1.1857 -0.1778
 1003MOL0     C38343   3.368   2.943   0.992  0.3029  0.1843  0.3159
 1003MOL0     C38344   3.363   3.093   0.953 -0.0752  0.1934 -0.3395
 1003MOL0     H38345   3.833   3.054   1.196  2.2790  1.4997 -0.2955
 1003MOL0     H38346   3.930   3.199   1.376 -0.3872  0.0438 -0.5552
 1003MOL0     H38347   3.648   3.469   1.620  0.5434 -0.7389  1.5820
 1003MOL0     H38348   3.747   3.549   1.497  0.9310  0.4286  0.1359
 1003MOL0     H38349   3.823   3.652   1.680 -1.0215 -0.6387  1.5953
 1003MOL0     H38350   3.839   3.492   1.778 -1.2517 -1.5694 -1.1650
 1003MOL0     H38351   4.045   3.558   1.736 -2.1920  0.6988  0.3391
 1003MOL0     H38352   4.011   3.420   1.638 -1.5769 -0.5800  1.9051
 1003MOL0     H38353   3.971   3.578   1.429 -1.3584  0.1825  0.7982
 1003MOL0     H38354   3.979   3.711   1.539 -3.7901 -1.0855 -1.0191
 1003MOL0     H38355   4.214   3.648   1.592 -1.0403 -3.5497  1.1280
 1003MOL0     H38356   4.181   3.700   1.423 -3.6769  0.6860  0.3049
 1003MOL0     H38357   4.214   3.423   1.518 -1.6521 -1.7765 -1.5588
 1003MOL0     H38358   4.172   3.460   1.353  0.8524 -0.7649 -0.4906
 1003MOL0     H38359   4.388   3.609   1.353 -0.1548  0.5823  0.3100
 1003MOL0     H38360   4.413   3.436   1.350 -0.6031 -1.1723  0.8906
 1003MOL0     H38361   4.459   3.641   1.586 -0.4546 -0.2586  0.5362
 1003MOL0     H38362   4.437   3.478   1.628  0.7044  3.4759  2.6906
 1003MOL0     H38363   4.687   3.728   1.502 -2.5765  0.2003  0.4248
 1003MOL0     H38364   4.945   3.725   1.536  0.0163  0.0842 -0.1161
 1003MOL0     H38365   4.963   3.662   1.377 -1.1933 -2.1187 -0.5271
 1003MOL0     H38366   5.059   3.549   1.638 -2.1935  1.9920  0.9307
 1003MOL0     H38367   5.070   3.454   1.480  0.0880  1.0954 -2.7054
 1003MOL0     H38368   5.234   3.630   1.404  0.1870 -3.0940 -0.6670
 1003MOL0     H38369   5.216   3.704   1.570  2.3967  0.2213 -1.1272
 1003MOL0     H38370   5.399   3.573   1.555  1.5558 -1.6335 -0.1957
 1003MOL0     H38371   5.288   3.504   1.664  1.4326  1.6235 -0.2321
 1003MOL0     H38372   5.268   3.148   1.448 -0.6528 -0.2623 -1.4216
 1003MOL0     H38373   5.413   2.849   1.590 -0.3232  1.0263  1.5183
 1003MOL0     H38374   5.385   2.863   1.415 -0.5623 -2.4006 -0.2000
 1003MOL0     H38375   5.262   2.918   1.528  0.9510  1.6698  0.4797
 1003MOL0     H38376   6.001   3.014   1.650 -1.1088 -1.5052 -3.2342
 1003MOL0     H38377   6.188   2.868   1.728  0.3714 -1.0496  1.8481
 1003MOL0     H38378   6.317   2.666   1.705  1.8541  0.3683 -0.5003
 1003MOL0     H38379   6.333   2.731   1.875 -1.9038 -1.5121  2.3015
 1003MOL0     H38380   6.341   2.506   1.968 -1.5188 -1.9204 -0.2103
 1003MOL0     H38381   6.325   2.445   1.802  1.0834  0.4404  0.0416
 1003MOL0     H38382   6.560   2.627   1.875  1.1102 -0.7102  2.6781
 1003MOL0     H38383   6.564   2.492   1.762 -1.1832  1.1457 -0.5685
 1003MOL0     H38384   6.530   2.335   1.978  2.9921 -0.9268 -0.5495
 1003MOL0     H38385   6.541   2.488   2.072  2.4044  2.1426 -0.6340
 1003MOL0     H38386   6.736   2.308   1.922  0.6435  1.6684 -2.3303
 1003MOL0     H38387   6.794   2.454   1.968  3.0003 -4.7789 -1.1767
 1003MOL0     H38388   6.662   2.250   2.166  1.1545  0.0168  3.0415
 1003MOL0     H38389   6.716   2.405   2.214  0.9089  1.6932 -0.3670
 1003MOL0     H38390   6.953   2.354   2.122  7.3611 -3.8274  3.7817
 1003MOL0     H38391   6.899   2.191   2.075 -1.9564  2.1888 -2.5054
 1003MOL0     H38392   6.864   2.158   2.322  1.1749 -1.3495 -0.8188
 1003MOL0     H38393   6.891   2.321   2.357  3.2113 -0.0357  0.2623
 1003MOL0     H38394   5.900   2.592   1.890 -1.2494  1.0885  0.6718
 1003MOL0     H38395   5.715   2.749   1.816 -0.7219  0.9346 -1.6513
 1003MOL0     H38396   5.689   3.226   1.683  1.5634 -1.8812 -1.6081
 1003MOL0     H38397   5.539   3.414   1.643 -0.3209 -0.6282  0.2004
 1003MOL0     H38398   3.538   3.349   1.460 -0.7444 -1.6846  0.4822
 1003MOL0     H38399   3.449   3.229   1.291 -0.1668 -0.0211 -1.1536
 1003MOL0     H38400   3.530   2.678   1.129  1.1841  2.5645  1.4360
 1003MOL0     H38401   3.340   2.558   1.023  0.0930  0.1461  1.5772
 1003MOL0     H38402   3.043   2.621   0.741 -0.4156 -0.0629  1.1429
 1003MOL0     H38403   3.226   2.641   0.745  0.9508 -2.1302  0.2515
 1003MOL0     H38404   3.068   2.431   0.891  1.3487 -0.0818  2.8934
 1003MOL0     H38405   3.242   2.455   0.890  0.5109  0.2429 -1.5872
 1003MOL0     H38406   3.132   2.256   0.759 -1.8744  0.9376  1.6299
 1003MOL0     H38407   3.131   2.376   0.619  1.2627 -0.7846 -1.0324
 1003MOL0     H38408   3.339   2.237   0.633  1.5932  2.2099 -2.7445
 1003MOL0     H38409   3.377   2.309   0.788  0.9861 -1.3760 -1.3428
 1003MOL0     H38410   3.431   2.647   0.537 -0.5292 -0.0058 -0.3989
 1003MOL0     H38411   3.157   2.927   0.933  0.7826 -0.8074 -1.8690
 1003MOL0     H38412   3.278   3.126   0.893  0.5668 -1.7563 -2.4909
 1003MOL0     H38413   3.367   3.149   1.047 -2.1871  2.0187 -1.2639
 1003MOL0     H38414   3.447   3.125   0.890 -1.2190 -0.1089 -2.0820
 1004MOL0     O38415   3.568   3.482   7.805  0.3014 -0.1835  0.1463
 1004MOL0     C38416   3.443   3.494   7.821  0.8437  0.0960 -0.1827
 1004MOL0     O38417   3.381   3.444   7.930  0.1301 -0.6895 -0.4377
 1004MOL0     C38418   3.446   3.395   8.041 -0.1189  0.4105  0.6140
 1004MOL0     C38419   3.397   3.430   8.169 -0.9660  0.3252 -0.3373
 1004MOL0     C38420   3.460   3.376   8.281  0.1151 -0.7291  0.0067
 1004MOL0     C38421   3.569   3.292   8.268  0.3708 -0.4724 -0.4287
 1004MOL0     O38422   3.626   3.237   8.374  0.1991  0.0086  0.0246
 1004MOL0     C38423   3.584   3.248   8.511 -0.4283  0.4856  0.3819
 1004MOL0     C38424   3.676   3.161   8.604  0.3355 -0.6984  0.1218
 1004MOL0     C38425   3.821   3.212   8.608  0.5161  0.2695 -0.0823
 1004MOL0     C38426   3.856   3.307   8.727  0.3306 -0.4246  0.1934
 1004MOL0     C38427   4.007   3.331   8.738  0.3774  0.8442 -0.4804
 1004MOL0     C38428   4.038   3.442   8.839 -0.4734 -0.3248  0.1692
 1004MOL0     C38429   4.187   3.458   8.869  0.6486  0.4388 -0.1807
 1004MOL0     C38430   4.251   3.345   8.953  0.8827  0.4521 -0.3558
 1004MOL0     N38431   4.385   3.385   8.997  0.0406  0.0114  0.7064
 1004MOL0     C38432   4.501   3.302   9.010 -0.3195  0.0058  0.3285
 1004MOL0     C38433   4.581   3.359   9.106  0.8255 -0.2622 -0.6797
 1004MOL0     C38434   4.724   3.316   9.136 -0.0443  0.1880  0.4657
 1004MOL0     C38435   4.820   3.322   9.011 -0.4194 -0.0370  0.4379
 1004MOL0     C38436   4.844   3.469   8.961  0.4951 -0.2286  0.3489
 1004MOL0     C38437   4.892   3.582   9.045  0.0728 -0.4390 -0.3544
 1004MOL0     O38438   5.031   3.548   9.071  0.5182 -0.7419  0.0205
 1004MOL0     C38439   5.093   3.642   9.154  0.6988 -0.2711  0.6226
 1004MOL0     C38440   5.139   3.754   9.087  0.4142 -0.6616  0.1482
 1004MOL0     C38441   5.189   3.853   9.165  0.2370 -0.0548  0.5167
 1004MOL0     C38442   5.193   3.989   9.097  0.1422  1.1417  0.1864
 1004MOL0     C38443   5.230   3.833   9.297  0.3409  0.2193  0.4675
 1004MOL0     C38444   5.317   3.924   9.382 -0.2281  0.2053 -0.0219
 1004MOL0     O38445   5.305   3.919   9.517 -0.6297 -0.1127 -0.6122
 1004MOL0     C38446   5.363   4.006   9.603  0.7096 -0.4692 -0.2665
 1004MOL0     C38447   5.367   4.147   9.589  0.1901  0.6678 -0.4778
 1004MOL0     C38448   5.436   4.227   9.681 -0.1975 -0.2661 -0.4742
 1004MOL0     C38449   5.498   4.173   9.797  0.6402  0.0870  0.9531
 1004MOL0     O38450   5.559   4.256   9.893  0.0488  0.0764 -0.4276
 1004MOL0     C38451   5.692   4.204   9.919 -0.2205 -0.4310 -0.4621
 1004MOL0     C38452   5.714   4.137  10.052  0.0254  0.5348  0.1711
 1004MOL0     C38453   5.861   4.101  10.073  0.6484  0.6437 -0.7465
 1004MOL0     C38454   5.889   4.026  10.202  0.6814  0.5268 -0.4573
 1004MOL0     C38455   5.930   4.130  10.298  0.2173  0.1712  0.6117
 1004MOL0     C38456   5.972   4.060  10.430  0.1007 -0.2880 -0.1394
 1004MOL0     C38457   5.849   4.026  10.532 -0.2868  0.3968 -0.0618
 1004MOL0     C38458   5.848   3.877  10.590 -0.2514  0.1655 -0.1728
 1004MOL0    Cl38459   5.793   3.765  10.458  0.1256  0.1040 -0.3231
 1004MOL0     C38460   5.485   4.038   9.822 -0.2670  0.2087 -0.2003
 1004MOL0     C38461   5.431   3.954   9.716 -0.0270  0.3156 -0.2537
 1004MOL0     O38462   5.398   3.993   9.320  0.1297 -0.8161  0.1180
 1004MOL0     C38463   5.184   3.715   9.358  0.7822  0.2761 -1.2314
 1004MOL0     C38464   5.110   3.623   9.288  0.4758  0.6972  0.4902
 1004MOL0     N38465   4.517   3.475   9.145  0.3512  0.0998  0.3607
 1004MOL0     N38466   4.405   3.498   9.074 -0.1149  0.0955  0.7296
 1004MOL0     C38467   3.608   3.252   8.143  0.2294 -0.1697  0.3219
 1004MOL0     C38468   3.556   3.315   8.034 -0.3598  0.2086  0.1320
 1004MOL0     C38469   3.348   3.530   7.711 -0.7878  0.0857  0.5900
 1004MOL0     C38470   3.399   3.522   7.588  0.4443 -0.6629  0.8324
 1004MOL0     C38471   3.314   3.547   7.475 -0.8670  1.5701 -0.0854
 1004MOL0     C38472   3.178   3.557   7.480 -0.0486  0.1478 -0.6928
 1004MOL0     O38473   3.114   3.567   7.360 -0.0307  0.7740  0.3258
 1004MOL0     C38474   2.981   3.583   7.342  1.0244  0.2211  0.7506
 1004MOL0     C38475   2.961   3.733   7.325  0.0776  0.3276  0.6430
 1004MOL0     C38476   2.818   3.779   7.304  0.6338  0.0996  0.5766
 1004MOL0     C38477   2.788   3.788   7.146 -0.0497  0.4325  0.2619
 1004MOL0     C38478   2.831   3.922   7.095  0.1624 -0.9153 -0.3721
 1004MOL0     C38479   2.847   4.030   7.049  0.2025  0.0310 -1.1958
 1004MOL0     C38480   3.124   3.571   7.612 -0.3264 -0.8384  0.5756
 1004MOL0     C38481   3.206   3.554   7.725 -0.2780 -0.4581 -0.1870
 1004MOL0     C38482   3.144   3.577   7.859 -0.1805 -0.1623 -0.2079
 1004MOL0     H38483   3.315   3.501   8.181 -1.0424  0.0918  0.6043
 1004MOL0     H38484   3.418   3.398   8.379  2.9501  1.3470  0.8758
 1004MOL0     H38485   3.482   3.208   8.517 -0.3645  0.3174  0.3581
 1004MOL0     H38486   3.592   3.354   8.532 -0.6861  0.5705  0.0661
 1004MOL0     H38487   3.644   3.164   8.709 -1.6243  2.4818 -0.4133
 1004MOL0     H38488   3.673   3.064   8.554 -1.9892  0.5080 -2.2987
 1004MOL0     H38489   3.890   3.127   8.619 -2.7214 -2.3624  1.7771
 1004MOL0     H38490   3.840   3.271   8.518 -1.3099  1.8608  0.5117
 1004MOL0     H38491   3.807   3.403   8.708  1.2232  0.8681  3.6807
 1004MOL0     H38492   3.808   3.276   8.820 -0.6300  0.6786  0.0854
 1004MOL0     H38493   4.051   3.363   8.643  3.8327  0.3093  0.7839
 1004MOL0     H38494   4.047   3.231   8.759 -0.9708  0.6816  1.5523
 1004MOL0     H38495   3.994   3.532   8.796 -0.9635 -2.0412 -3.3242
 1004MOL0     H38496   3.990   3.428   8.936  0.6046  1.7567  1.0631
 1004MOL0     H38497   4.196   3.555   8.919  1.1787  1.9621 -3.0205
 1004MOL0     H38498   4.246   3.456   8.777  0.9626 -1.1931  0.0182
 1004MOL0     H38499   4.200   3.329   9.049  0.3095  0.5881 -0.6339
 1004MOL0     H38500   4.252   3.251   8.898  2.3147  0.0270  0.3537
 1004MOL0     H38501   4.542   3.220   8.953  2.9710 -0.9244  3.6242
 1004MOL0     H38502   4.717   3.223   9.193 -0.8123  0.1500  0.3253
 1004MOL0     H38503   4.760   3.382   9.216 -1.1580 -0.2182  1.3360
 1004MOL0     H38504   4.919   3.278   9.028 -0.4867 -0.1366  0.5784
 1004MOL0     H38505   4.785   3.261   8.928  0.7394 -1.4573  0.9430
 1004MOL0     H38506   4.910   3.456   8.876 -0.0198 -1.4917  0.1155
 1004MOL0     H38507   4.756   3.497   8.902  3.3468  1.1484 -3.7122
 1004MOL0     H38508   4.890   3.683   9.004  0.4290  0.4904  1.7679
 1004MOL0     H38509   4.842   3.598   9.141  1.3583  1.7086  0.0219
 1004MOL0     H38510   5.131   3.755   8.979  1.5653 -0.8737  0.0437
 1004MOL0     H38511   5.092   4.023   9.072 -0.9055 -1.0859  1.1855
 1004MOL0     H38512   5.251   3.987   9.004 -0.3310  0.3324 -0.0929
 1004MOL0     H38513   5.233   4.053   9.176 -0.4874 -1.4940  2.8214
 1004MOL0     H38514   5.319   4.191   9.503 -2.0046  1.0089  0.8479
 1004MOL0     H38515   5.446   4.331   9.651  0.5706  0.5571  2.3789
 1004MOL0     H38516   5.730   4.137   9.842 -0.2014 -0.7339 -0.1875
 1004MOL0     H38517   5.761   4.289   9.912  1.1059 -1.4980 -0.8031
 1004MOL0     H38518   5.680   4.215  10.121 -1.2444 -0.0546  0.2471
 1004MOL0     H38519   5.646   4.053  10.070 -0.9241  1.6813  2.4936
 1004MOL0     H38520   5.917   4.194  10.055 -2.2695  2.5281 -0.7092
 1004MOL0     H38521   5.902   4.036   9.996  3.6539 -1.0146  1.9719
 1004MOL0     H38522   5.967   3.952  10.180 -1.6981 -1.6267 -2.2950
 1004MOL0     H38523   5.803   3.979  10.251  1.3770  1.0162  1.3115
 1004MOL0     H38524   6.015   4.183  10.255 -1.6567  0.6727 -2.7679
 1004MOL0     H38525   5.855   4.209  10.313 -0.5035 -0.8555  2.8787
 1004MOL0     H38526   6.055   4.123  10.464  0.9188 -0.3249 -1.9622
 1004MOL0     H38527   6.020   3.965  10.405 -3.9426 -2.7046  0.3658
 1004MOL0     H38528   5.756   4.051  10.481 -0.0697  0.5804 -0.3760
 1004MOL0     H38529   5.869   4.092  10.616  1.3799  0.6627 -0.6198
 1004MOL0     H38530   5.766   3.875  10.663  0.4472  0.3654  0.6366
 1004MOL0     H38531   5.946   3.855  10.633  0.2226  1.1567 -0.7155
 1004MOL0     H38532   5.523   4.002   9.917 -0.1920  2.0472  0.4961
 1004MOL0     H38533   5.432   3.847   9.730 -0.3089  0.4559  0.9290
 1004MOL0     H38534   5.216   3.695   9.460  1.4998 -0.1365 -1.5303
 1004MOL0     H38535   5.073   3.532   9.335  0.9971  1.0544  1.6475
 1004MOL0     H38536   3.701   3.197   8.131 -0.5316 -1.4827  0.2565
 1004MOL0     H38537   3.617   3.296   7.946 -0.0787 -0.0551  0.3821
 1004MOL0     H38538   3.500   3.500   7.554 -0.2779 -1.5399 -0.8512
 1004MOL0     H38539   3.350   3.521   7.376  0.2787 -0.2982  0.7719
 1004MOL0     H38540   2.941   3.540   7.250 -1.0701  2.5231  0.4677
 1004MOL0     H38541   2.921   3.542   7.423  1.2144 -3.7760 -0.9148
 1004MOL0     H38542   3.026   3.768   7.244  1.8426 -0.7362  1.5410
 1004MOL0     H38543   3.006   3.778   7.414  0.0980 -1.4435  1.5517
 1004MOL0     H38544   2.755   3.705   7.354 -2.0619  0.9110 -1.3751
 1004MOL0     H38545   2.796   3.875   7.351 -0.9380  0.1310 -0.1409
 1004MOL0     H38546   2.681   3.778   7.131  0.1130  0.6766 -1.1786
 1004MOL0     H38547   2.838   3.704   7.098  0.7292  0.1500  1.5025
 1004MOL0     H38548   2.875   4.123   7.005  0.4755 -0.4126 -1.9903
 1004MOL0     H38549   3.016   3.576   7.622 -0.3117  2.7158  0.2756
 1004MOL0     H38550   3.199   3.648   7.921  0.2245 -1.8251  1.4316
 1004MOL0     H38551   3.044   3.621   7.846 -0.3603 -0.8657 -1.3709
 1004MOL0     H38552   3.143   3.483   7.916 -1.4957  1.3592  2.4986
 1005MOL0     O38553   4.943   5.403   8.999  0.8149 -0.2260  0.3455
 1005MOL0     C38554   4.884   5.503   9.029  0.3441  0.7947 -0.1683
 1005MOL0     O38555   4.934   5.624   9.024  0.0822  0.1357 -0.3765
 1005MOL0     C38556   5.055   5.650   8.971  0.5530 -0.5152 -0.2463
 1005MOL0     C38557   5.083   5.732   8.867 -0.0618  0.0403 -0.4631
 1005MOL0     C38558   5.209   5.756   8.833 -0.9022  0.0466 -0.5282
 1005MOL0     C38559   5.323   5.697   8.890 -0.2399  0.8421 -0.2417
 1005MOL0     O38560   5.444   5.718   8.845  0.2877 -0.4042  0.6565
 1005MOL0     C38561   5.561   5.726   8.917 -0.9744  0.0152 -0.6498
 1005MOL0     C38562   5.670   5.791   8.828  0.5057  0.7135  0.1149
 1005MOL0     C38563   5.800   5.794   8.913  0.2705  0.9606 -0.6442
 1005MOL0     C38564   5.910   5.843   8.821  0.1385 -0.1367  0.0231
 1005MOL0     C38565   6.050   5.825   8.883 -0.1146 -0.8853 -0.3980
 1005MOL0     C38566   6.075   5.937   8.986  0.1247 -0.9699 -0.3358
 1005MOL0     C38567   6.215   5.932   9.048 -0.0952  0.2516  0.2968
 1005MOL0     C38568   6.239   5.825   9.167 -0.7968 -0.3596 -0.3919
 1005MOL0     N38569   6.381   5.788   9.166 -0.0874  0.0986 -0.6174
 1005MOL0     C38570   6.484   5.869   9.206  0.6344 -0.5642 -0.4349
 1005MOL0     C38571   6.590   5.794   9.212 -0.2936 -0.4546  0.8559
 1005MOL0     C38572   6.720   5.845   9.264  0.0448 -0.1189  0.1427
 1005MOL0     C38573   6.788   5.741   9.356  0.6777  0.2048 -0.0588
 1005MOL0     C38574   6.901   5.791   9.442 -0.6516 -0.3511  0.4104
 1005MOL0     C38575   7.026   5.810   9.348 -0.3399 -0.8160  0.1769
 1005MOL0     O38576   7.145   5.829   9.428  0.4927 -0.3607 -0.0513
 1005MOL0     C38577   7.260   5.868   9.364  0.2709  0.2108  0.2722
 1005MOL0     C38578   7.277   5.869   9.223  0.2959 -0.8828  0.5846
 1005MOL0     C38579   7.403   5.899   9.167 -0.4664 -0.2022 -0.2971
 1005MOL0     C38580   7.412   5.893   9.018 -0.9061  0.2455 -0.4064
 1005MOL0     C38581   7.503   5.945   9.253 -0.2471 -0.0748  0.2537
 1005MOL0     C38582   7.637   5.980   9.202 -0.1860 -0.3787 -0.1409
 1005MOL0     O38583   7.686   6.110   9.237  0.0077 -0.0983  0.2175
 1005MOL0     C38584   7.817   6.138   9.220  0.1418  0.4900  0.1505
 1005MOL0     C38585   7.843   6.253   9.139 -0.5829  0.3095 -1.6862
 1005MOL0     C38586   7.975   6.291   9.124 -1.1073 -0.1765 -0.3172
 1005MOL0     C38587   8.081   6.212   9.183  0.2282 -0.4254  1.0902
 1005MOL0     O38588   8.209   6.243   9.188  0.0004 -0.0701  0.4984
 1005MOL0     C38589   8.236   6.383   9.199 -0.2767  0.8405  0.4310
 1005MOL0     C38590   8.381   6.394   9.269  0.4563  0.1709  0.0259
 1005MOL0     C38591   8.485   6.329   9.187  0.2508  0.4060  0.5475
 1005MOL0     C38592   8.625   6.336   9.239  0.4816 -0.0039 -0.2720
 1005MOL0     C38593   8.697   6.449   9.182  0.1981  0.1445  0.0461
 1005MOL0     C38594   8.759   6.406   9.052  0.2250  0.5293  0.0084
 1005MOL0     C38595   8.849   6.518   8.998  0.3197 -1.0886 -1.1603
 1005MOL0     C38596   8.940   6.479   8.880  0.2016 -0.6361 -0.4929
 1005MOL0    Cl38597   9.022   6.619   8.814 -0.4334 -0.3938 -0.5551
 1005MOL0     C38598   8.057   6.100   9.255  1.1916 -0.1329 -0.3970
 1005MOL0     C38599   7.923   6.068   9.278 -0.0248  0.7528 -0.2922
 1005MOL0     O38600   7.691   5.913   9.115  0.4762 -0.0016  0.0609
 1005MOL0     C38601   7.481   5.942   9.389 -0.2721  0.1770  0.3318
 1005MOL0     C38602   7.366   5.907   9.444 -0.3419 -0.1382  0.9529
 1005MOL0     N38603   6.551   5.671   9.160 -0.1754 -1.0114 -0.6209
 1005MOL0     N38604   6.427   5.668   9.139 -0.4327  0.1726  0.7522
 1005MOL0     C38605   5.291   5.604   8.995  0.4943  0.4412  0.7422
 1005MOL0     C38606   5.158   5.587   9.036 -1.0121  0.0646  0.1519
 1005MOL0     C38607   4.739   5.495   9.071 -0.3674 -0.1329  0.2448
 1005MOL0     C38608   4.656   5.396   9.021 -0.5257 -0.6603  0.9931
 1005MOL0     C38609   4.522   5.388   9.065  0.3447 -0.0338 -0.9255
 1005MOL0     C38610   4.454   5.462   9.165 -0.7479 -0.8616 -0.2644
 1005MOL0     O38611   4.322   5.441   9.192 -0.7030  0.8725 -0.4307
 1005MOL0     C38612   4.265   5.312   9.164  0.5232  0.3020 -0.7346
 1005MOL0     C38613   4.135   5.318   9.243 -0.4440 -0.0362 -0.1147
 1005MOL0     C38614   4.067   5.181   9.266 -0.3757  0.3850  0.3064
 1005MOL0     C38615   4.018   5.119   9.130  0.5026  0.1024  0.0585
 1005MOL0     C38616   3.913   5.015   9.139  0.2690 -0.8655 -0.3726
 1005MOL0     C38617   3.840   4.919   9.143  0.2435 -0.1922  0.4308
 1005MOL0     C38618   4.532   5.567   9.210 -0.0182 -0.1000  0.4115
 1005MOL0     C38619   4.674   5.581   9.170 -1.0524 -0.0999 -0.6056
 1005MOL0     C38620   4.761   5.697   9.232  0.4720 -0.0102  0.1052
 1005MOL0     H38621   4.994   5.774   8.821  0.0417  2.2497  1.2316
 1005MOL0     H38622   5.230   5.817   8.746  1.1917 -1.3217 -1.0416
 1005MOL0     H38623   5.596   5.627   8.948  0.6016  0.8438  0.3582
 1005MOL0     H38624   5.545   5.772   9.015  2.2438 -0.9771  0.4740
 1005MOL0     H38625   5.682   5.739   8.733 -1.3004 -0.9241  0.7185
 1005MOL0     H38626   5.651   5.897   8.810  0.9895  0.5975 -1.1947
 1005MOL0     H38627   5.793   5.862   8.998 -0.4859  2.4586 -1.8639
 1005MOL0     H38628   5.840   5.696   8.940  1.7035  1.5512 -0.5319
 1005MOL0     H38629   5.909   5.768   8.741 -1.0587  0.8394 -0.9379
 1005MOL0     H38630   5.894   5.942   8.776 -1.1727  0.1237  1.0191
 1005MOL0     H38631   6.121   5.845   8.802  0.8677  1.0312  0.8572
 1005MOL0     H38632   6.078   5.731   8.931  2.1532  0.4429  1.0886
 1005MOL0     H38633   6.062   6.036   8.942  1.3387  0.4256  2.1783
 1005MOL0     H38634   6.013   5.932   9.076 -0.7483  4.4120 -0.3300
 1005MOL0     H38635   6.222   6.031   9.094 -0.9992  1.6147 -2.3281
 1005MOL0     H38636   6.293   5.926   8.973 -0.8369 -2.1076 -0.3773
 1005MOL0     H38637   6.205   5.863   9.264 -0.3234 -0.2912 -0.2459
 1005MOL0     H38638   6.177   5.737   9.152  0.7935 -1.3129 -1.7531
 1005MOL0     H38639   6.472   5.969   9.246  1.1056 -0.6863  0.0303
 1005MOL0     H38640   6.709   5.942   9.312 -3.5732  0.6059 -1.8154
 1005MOL0     H38641   6.787   5.871   9.182 -0.6481 -0.1334 -0.4371
 1005MOL0     H38642   6.712   5.692   9.418  0.9878 -2.1607 -1.4421
 1005MOL0     H38643   6.815   5.656   9.293 -0.7395 -2.0849  2.2259
 1005MOL0     H38644   6.872   5.884   9.492 -3.6505 -0.3335 -1.1236
 1005MOL0     H38645   6.919   5.722   9.525  5.7672  0.1873 -0.0644
 1005MOL0     H38646   7.022   5.730   9.273  1.0191 -1.7888  1.1024
 1005MOL0     H38647   7.016   5.903   9.291  1.3123  0.9832  2.6560
 1005MOL0     H38648   7.203   5.834   9.152 -0.2151 -0.5962  0.9674
 1005MOL0     H38649   7.463   5.803   8.985  1.9813  1.5095  0.3443
 1005MOL0     H38650   7.480   5.973   8.988  2.8991 -2.1895  0.9670
 1005MOL0     H38651   7.318   5.900   8.961 -0.3847 -1.4308 -1.5266
 1005MOL0     H38652   7.764   6.320   9.106  0.5577  3.1173  0.8498
 1005MOL0     H38653   8.004   6.377   9.064  1.1666 -0.8208 -0.2383
 1005MOL0     H38654   8.236   6.436   9.103  0.4570  0.5251  0.2431
 1005MOL0     H38655   8.158   6.437   9.252 -2.6533 -0.8663 -1.1216
 1005MOL0     H38656   8.424   6.495   9.272  0.7091  0.0430  0.6692
 1005MOL0     H38657   8.366   6.354   9.370 -1.9087 -0.1770 -0.3977
 1005MOL0     H38658   8.483   6.371   9.086 -0.0606  3.0163  1.5663
 1005MOL0     H38659   8.457   6.224   9.184 -0.6724  0.6149  1.4114
 1005MOL0     H38660   8.683   6.244   9.230  0.4515 -0.4687  3.1459
 1005MOL0     H38661   8.617   6.359   9.345  3.2777 -1.0654  0.2659
 1005MOL0     H38662   8.625   6.531   9.182  1.2203  1.0731  0.4280
 1005MOL0     H38663   8.781   6.487   9.242  0.8840  0.4859 -1.0875
 1005MOL0     H38664   8.676   6.397   8.982 -0.5009 -1.2264  1.0333
 1005MOL0     H38665   8.808   6.309   9.059 -0.2150  0.3565  0.8120
 1005MOL0     H38666   8.918   6.546   9.078 -0.9717  1.0257 -0.7171
 1005MOL0     H38667   8.794   6.609   8.972 -0.3919 -0.3263  2.4533
 1005MOL0     H38668   8.881   6.428   8.804  0.4947 -4.7125  1.7503
 1005MOL0     H38669   9.005   6.398   8.914  0.8416 -1.1618 -2.8605
 1005MOL0     H38670   8.133   6.047   9.310  0.6014  0.5952  1.1840
 1005MOL0     H38671   7.893   5.980   9.333 -1.3137  1.8084  0.7519
 1005MOL0     H38672   7.558   5.985   9.453  0.0782 -0.8370  0.5987
 1005MOL0     H38673   7.366   5.892   9.551  2.7156 -2.9679  0.7337
 1005MOL0     H38674   5.367   5.537   9.035  1.5872  0.4124 -1.2401
 1005MOL0     H38675   5.146   5.520   9.120  2.9054  1.1209  1.7393
 1005MOL0     H38676   4.695   5.316   8.958 -3.9928 -1.4792 -0.3456
 1005MOL0     H38677   4.458   5.316   9.014 -0.5824 -0.4854  0.8022
 1005MOL0     H38678   4.245   5.298   9.058 -0.9867 -1.5859 -0.2500
 1005MOL0     H38679   4.324   5.226   9.197  0.4492  0.2619 -0.7058
 1005MOL0     H38680   4.070   5.394   9.197  0.0207  1.0788  1.0040
 1005MOL0     H38681   4.151   5.357   9.344  1.5294  0.0993 -0.4387
 1005MOL0     H38682   4.123   5.107   9.323  1.6768  2.3699  1.0105
 1005MOL0     H38683   3.978   5.202   9.326 -0.9866 -2.3199  0.4437
 1005MOL0     H38684   4.107   5.068   9.094  0.0567 -1.7533  1.3905
 1005MOL0     H38685   3.994   5.208   9.072  2.0350  1.1184  0.9129
 1005MOL0     H38686   3.788   4.826   9.138 -0.3382  0.1247  0.4204
 1005MOL0     H38687   4.480   5.627   9.284  0.8583  2.2455 -0.7649
 1005MOL0     H38688   4.853   5.665   9.282  0.2860  0.1379  0.5498
 1005MOL0     H38689   4.775   5.775   9.157 -0.1506 -0.8202 -0.8869
 1005MOL0     H38690   4.710   5.737   9.320  1.7443  2.6103 -0.2609
 1006MOL0     O38691   0.010   3.029   0.784 -0.4214  0.1420 -0.1879
 1006MOL0     C38692  -0.108   3.026   0.747  0.0292 -0.0980 -0.0635
 1006MOL0     O38693  -0.212   3.112   0.785  0.6779  0.6698  0.4065
 1006MOL0     C38694  -0.182   3.211   0.877  0.4129 -0.9197 -0.4183
 1006MOL0     C38695  -0.135   3.180   1.005  0.1391  0.2823 -0.3851
 1006MOL0     C38696  -0.102   3.283   1.098 -0.7343  0.8319  0.4481
 1006MOL0     C38697  -0.118   3.413   1.058  0.3651  0.6824 -0.9180
 1006MOL0     O38698  -0.086   3.502   1.156  0.1767  0.6142 -0.4072
 1006MOL0     C38699   0.025   3.575   1.138 -0.3496 -0.1667 -0.1459
 1006MOL0     C38700   0.140   3.502   1.209 -0.1051  0.2236  0.0110
 1006MOL0     C38701   0.115   3.495   1.363 -0.3448 -0.1765 -0.0361
 1006MOL0     C38702   0.183   3.378   1.428 -0.2590  0.3667  0.4490
 1006MOL0     C38703   0.192   3.399   1.570  0.3205  0.4555 -0.7472
 1006MOL0     C38704   0.281   3.310   1.643 -0.2519  0.4566 -0.8145
 1006MOL0     C38705   0.278   3.340   1.794 -0.1415 -1.3444 -0.4860
 1006MOL0     C38706   0.348   3.227   1.887 -0.4325 -0.4253 -1.2217
 1006MOL0     N38707   0.379   3.274   2.017 -0.3635 -0.4409 -0.7396
 1006MOL0     C38708   0.300   3.286   2.128  0.3142  0.2013 -0.1272
 1006MOL0     C38709   0.380   3.344   2.223  0.1861  0.7496 -0.2294
 1006MOL0     C38710   0.337   3.376   2.367  0.2582 -0.1703  0.1751
 1006MOL0     C38711   0.364   3.254   2.463  0.0112  0.3514 -0.1720
 1006MOL0     C38712   0.305   3.263   2.603  0.6325  0.0020 -0.4348
 1006MOL0     C38713   0.385   3.173   2.700 -0.3956  0.6331 -0.1645
 1006MOL0     O38714   0.520   3.221   2.727  0.5878  0.7723 -0.4429
 1006MOL0     C38715   0.593   3.166   2.823 -0.0983 -0.3943  0.5905
 1006MOL0     C38716   0.563   3.040   2.879 -0.3282  1.2575  0.5018
 1006MOL0     C38717   0.658   2.968   2.957  0.8082 -1.0087 -0.2999
 1006MOL0     C38718   0.614   2.838   3.008 -0.0866  0.2185 -0.0671
 1006MOL0     C38719   0.782   3.031   2.988 -0.3258 -0.0738 -0.0893
 1006MOL0     C38720   0.877   2.966   3.081  0.1383 -0.0304 -0.4128
 1006MOL0     O38721   0.970   3.048   3.146 -0.1465 -0.4457 -0.0133
 1006MOL0     C38722   1.080   2.989   3.197  0.0870 -0.1607 -0.4979
 1006MOL0     C38723   1.074   2.920   3.320 -0.5706 -0.5764 -0.0125
 1006MOL0     C38724   1.197   2.873   3.372  0.8434 -0.0135  1.0777
 1006MOL0     C38725   1.317   2.893   3.306 -0.6393 -0.0903  0.3954
 1006MOL0     O38726   1.436   2.840   3.359  0.4691 -0.0764 -0.0459
 1006MOL0     C38727   1.454   2.886   3.494 -0.4920 -0.3856  0.2456
 1006MOL0     C38728   1.596   2.874   3.531  0.3695  0.3060 -1.0003
 1006MOL0     C38729   1.656   2.730   3.510 -0.0293  0.3984  1.3004
 1006MOL0     C38730   1.809   2.728   3.549 -0.7760  0.4854  0.2187
 1006MOL0     C38731   1.860   2.587   3.554  0.6502  0.8132  0.2799
 1006MOL0     C38732   1.996   2.584   3.617  0.2870  0.7494  0.2589
 1006MOL0     C38733   2.067   2.441   3.600  1.0587 -0.8613 -0.0174
 1006MOL0     C38734   2.133   2.409   3.462 -0.4176 -0.3747  0.3598
 1006MOL0    Cl38735   2.302   2.456   3.456 -0.0082 -0.1688 -0.1901
 1006MOL0     C38736   1.324   2.963   3.191  0.3872 -0.4876 -0.0471
 1006MOL0     C38737   1.203   3.003   3.131  1.3498  0.4820  0.2321
 1006MOL0     O38738   0.883   2.842   3.081 -0.5420  0.1049 -0.2879
 1006MOL0     C38739   0.808   3.159   2.935 -0.0867 -0.0984  0.4980
 1006MOL0     C38740   0.718   3.225   2.854 -0.5980 -0.4433 -0.5194
 1006MOL0     N38741   0.504   3.372   2.167 -0.0384  0.0584  0.0167
 1006MOL0     N38742   0.505   3.326   2.048 -0.3816 -0.1436 -0.6244
 1006MOL0     C38743  -0.163   3.445   0.939 -0.3793  0.2735  0.0449
 1006MOL0     C38744  -0.195   3.349   0.845  0.8702 -0.4233  0.1430
 1006MOL0     C38745  -0.127   2.917   0.654  0.4236  0.0040  1.4829
 1006MOL0     C38746  -0.024   2.899   0.560 -0.1559 -0.9308  0.6593
 1006MOL0     C38747  -0.031   2.795   0.467 -0.0827  0.0608 -0.6708
 1006MOL0     C38748  -0.135   2.704   0.480  0.1597 -0.1121 -0.0988
 1006MOL0     O38749  -0.129   2.593   0.398 -0.8566 -0.0738 -0.1230
 1006MOL0     C38750  -0.218   2.484   0.398 -0.3151  0.2342  0.1427
 1006MOL0     C38751  -0.158   2.367   0.317  0.5986  0.8177 -0.1101
 1006MOL0     C38752  -0.017   2.337   0.369 -1.6524 -0.7696 -0.9357
 1006MOL0     C38753   0.020   2.331   0.530 -0.3895 -0.3790  1.1653
 1006MOL0     C38754  -0.037   2.211   0.598  0.2313 -0.1419 -0.0806
 1006MOL0     C38755  -0.074   2.115   0.664 -0.5818  0.0263 -0.1739
 1006MOL0     C38756  -0.246   2.733   0.558 -0.0506 -0.2909 -0.3756
 1006MOL0     C38757  -0.249   2.844   0.644 -0.5473 -0.5027 -0.4145
 1006MOL0     C38758  -0.367   2.865   0.746 -1.3988  0.1996  1.0107
 1006MOL0     H38759  -0.131   3.079   1.045  1.6562  1.0471  1.5582
 1006MOL0     H38760  -0.055   3.262   1.193  0.2739  0.6804 -0.0769
 1006MOL0     H38761   0.019   3.672   1.188  0.4106 -1.5771  2.9086
 1006MOL0     H38762   0.042   3.606   1.034 -2.9381 -0.1239 -0.6361
 1006MOL0     H38763   0.159   3.404   1.164  0.5712  0.8927 -1.2086
 1006MOL0     H38764   0.225   3.564   1.177 -0.5255 -0.0568 -1.7691
 1006MOL0     H38765   0.164   3.586   1.398  0.4390 -1.0107  1.1051
 1006MOL0     H38766   0.012   3.499   1.399 -0.6360 -1.3142 -0.6829
 1006MOL0     H38767   0.125   3.289   1.403  1.3082  0.0255 -2.3896
 1006MOL0     H38768   0.281   3.355   1.384 -1.9322 -1.2969 -2.8172
 1006MOL0     H38769   0.089   3.394   1.605 -0.6442  0.2950 -3.3594
 1006MOL0     H38770   0.222   3.501   1.597  0.9816 -0.2208  1.2722
 1006MOL0     H38771   0.266   3.202   1.633  1.7674 -0.2072  2.0863
 1006MOL0     H38772   0.384   3.330   1.614 -0.4156  0.6507 -1.2693
 1006MOL0     H38773   0.176   3.353   1.831  0.0457  0.8482 -0.5963
 1006MOL0     H38774   0.329   3.435   1.808 -1.6445 -0.4229 -1.0460
 1006MOL0     H38775   0.279   3.142   1.897 -1.5117  0.4934 -0.6583
 1006MOL0     H38776   0.440   3.193   1.838  0.4893  0.0512  0.1195
 1006MOL0     H38777   0.200   3.244   2.135  1.8115 -4.0733 -1.5506
 1006MOL0     H38778   0.231   3.403   2.367  0.1479 -0.5299  1.7355
 1006MOL0     H38779   0.377   3.471   2.403  0.9567 -1.4275  2.9935
 1006MOL0     H38780   0.317   3.173   2.408  2.1112 -0.1864 -1.3036
 1006MOL0     H38781   0.471   3.232   2.464  0.5797  2.7974  0.7507
 1006MOL0     H38782   0.312   3.360   2.653 -0.3259  1.0161 -2.1274
 1006MOL0     H38783   0.202   3.231   2.585  0.4726 -0.2316  0.8049
 1006MOL0     H38784   0.332   3.175   2.795  1.0881  2.6187  0.6896
 1006MOL0     H38785   0.387   3.071   2.660 -2.5934  0.2501  0.5810
 1006MOL0     H38786   0.470   2.995   2.847  0.0203  1.1045 -0.2976
 1006MOL0     H38787   0.613   2.833   3.117 -4.8232 -0.7906  0.0364
 1006MOL0     H38788   0.673   2.756   2.966 -0.0687 -0.2677  0.8805
 1006MOL0     H38789   0.507   2.821   2.996 -0.4879  0.9461  2.0879
 1006MOL0     H38790   0.977   2.903   3.364 -0.6182  0.5536  0.3399
 1006MOL0     H38791   1.196   2.815   3.463 -3.8267 -3.2302 -0.6338
 1006MOL0     H38792   1.438   2.994   3.504 -0.0790 -0.2448 -0.6019
 1006MOL0     H38793   1.385   2.824   3.553  1.0826  0.5698  3.3506
 1006MOL0     H38794   1.652   2.948   3.473 -0.3346  1.8948  0.2617
 1006MOL0     H38795   1.611   2.896   3.637  0.2855 -3.4538 -0.0811
 1006MOL0     H38796   1.641   2.700   3.406 -0.1179  1.0941  1.1117
 1006MOL0     H38797   1.601   2.651   3.563 -0.5096 -0.9547 -1.0522
 1006MOL0     H38798   1.797   2.764   3.651 -1.6136  2.7877 -0.6399
 1006MOL0     H38799   1.879   2.797   3.500  0.1929 -0.5007  0.1570
 1006MOL0     H38800   1.781   2.535   3.609 -0.0022 -2.0510 -3.0356
 1006MOL0     H38801   1.879   2.534   3.461  1.4844  0.1789  0.7931
 1006MOL0     H38802   1.986   2.616   3.721 -1.8853  1.9577 -0.2532
 1006MOL0     H38803   2.058   2.651   3.557 -0.0840  0.5554 -0.3544
 1006MOL0     H38804   1.989   2.364   3.610 -1.1347  1.1715 -0.4872
 1006MOL0     H38805   2.141   2.422   3.678 -1.3039  0.0773  2.6315
 1006MOL0     H38806   2.079   2.454   3.378  0.8538 -0.5712 -0.5827
 1006MOL0     H38807   2.118   2.301   3.454 -1.1517 -0.3160  0.8065
 1006MOL0     H38808   1.423   2.979   3.149  0.8674 -2.8062  0.0336
 1006MOL0     H38809   1.210   3.048   3.033 -0.4040  1.1492  0.3780
 1006MOL0     H38810   0.904   3.197   2.968  2.4516 -3.6265 -2.0281
 1006MOL0     H38811   0.733   3.329   2.828 -2.9616 -0.2741 -1.4989
 1006MOL0     H38812  -0.181   3.546   0.901 -1.9062  0.4897  1.1956
 1006MOL0     H38813  -0.234   3.377   0.747 -1.0935 -1.0658  0.6886
 1006MOL0     H38814   0.060   2.968   0.558 -1.2777  0.5136  1.4116
 1006MOL0     H38815   0.056   2.779   0.404  1.1659  1.7427  0.5238
 1006MOL0     H38816  -0.236   2.445   0.498 -1.7087  0.5419  0.0276
 1006MOL0     H38817  -0.312   2.518   0.354 -1.1705  0.5544  2.1060
 1006MOL0     H38818  -0.160   2.373   0.208 -0.7076  0.3310 -0.1314
 1006MOL0     H38819  -0.228   2.284   0.334  3.3648 -2.1362 -2.0101
 1006MOL0     H38820   0.015   2.241   0.327  0.2263 -1.1112  1.0912
 1006MOL0     H38821   0.056   2.413   0.339  0.4942 -1.4636  2.0659
 1006MOL0     H38822  -0.017   2.422   0.578  2.0037  2.9986 -2.7315
 1006MOL0     H38823   0.129   2.330   0.537 -0.0533 -1.6427 -2.1961
 1006MOL0     H38824  -0.114   2.035   0.723  1.0640 -0.5208  0.2344
 1006MOL0     H38825  -0.333   2.669   0.566  0.7721 -1.2039  2.4424
 1006MOL0     H38826  -0.453   2.798   0.742 -1.0865 -0.2555  1.6103
 1006MOL0     H38827  -0.331   2.851   0.848 -0.6075  2.0365  1.0322
 1006MOL0     H38828  -0.392   2.971   0.749  0.7004  0.7136  2.5376
 1007MOL0     O38829   4.973   7.902   7.214 -0.6188  0.0788 -0.1813
 1007MOL0     C38830   4.926   7.934   7.106  0.0624 -0.0674  0.2496
 1007MOL0     O38831   4.943   7.868   6.994 -0.5850  0.0143  0.0969
 1007MOL0     C38832   5.037   7.768   6.981  0.1420 -0.0637 -0.1385
 1007MOL0     C38833   5.167   7.792   7.004 -0.7722  0.6017  0.6482
 1007MOL0     C38834   5.268   7.693   6.964  0.6315 -0.2386  0.3679
 1007MOL0     C38835   5.236   7.566   6.912 -1.2934 -0.2042 -0.4578
 1007MOL0     O38836   5.333   7.470   6.911  0.0066  0.0656 -0.8256
 1007MOL0     C38837   5.334   7.370   6.810  0.1078  0.2011  0.5588
 1007MOL0     C38838   5.489   7.374   6.773  0.3108 -0.4841  0.3130
 1007MOL0     C38839   5.569   7.280   6.865 -0.3049  0.6211 -0.7625
 1007MOL0     C38840   5.574   7.134   6.818  0.3682  0.1472  0.9007
 1007MOL0     C38841   5.664   7.048   6.905  0.7133  0.5058 -0.6222
 1007MOL0     C38842   5.674   6.906   6.858 -0.4593 -0.0702 -0.4204
 1007MOL0     C38843   5.686   6.804   6.974  0.4056 -0.8623  0.1154
 1007MOL0     C38844   5.814   6.834   7.054 -0.2283  0.4514 -0.0859
 1007MOL0     N38845   5.921   6.775   6.981  0.6650  0.0185  0.7355
 1007MOL0     C38846   5.938   6.646   6.929  0.2757  0.3015  0.9085
 1007MOL0     C38847   6.052   6.649   6.859  0.0145  1.1092  0.7604
 1007MOL0     C38848   6.127   6.538   6.790 -0.4956  0.5624 -0.0116
 1007MOL0     C38849   6.216   6.478   6.891 -0.3050 -0.4631  0.3572
 1007MOL0     C38850   6.316   6.377   6.839 -0.6368  0.5435 -0.1442
 1007MOL0     C38851   6.462   6.437   6.824  0.2174 -1.1729  0.4746
 1007MOL0     O38852   6.478   6.545   6.728 -0.0825 -0.2013  0.1277
 1007MOL0     C38853   6.602   6.606   6.696  0.3609  0.0679 -0.0601
 1007MOL0     C38854   6.709   6.583   6.780 -0.2648  0.3707  0.0480
 1007MOL0     C38855   6.836   6.630   6.744 -0.4150 -0.3010 -0.2539
 1007MOL0     C38856   6.959   6.583   6.822 -0.0976 -0.1535  0.2378
 1007MOL0     C38857   6.857   6.706   6.619  0.2834 -1.2124  0.4916
 1007MOL0     C38858   6.984   6.764   6.584 -0.8835 -0.9696  0.4754
 1007MOL0     O38859   7.003   6.772   6.456 -0.1890  0.7528 -0.4245
 1007MOL0     C38860   7.073   6.876   6.403 -0.7421 -0.6747  0.1605
 1007MOL0     C38861   7.014   7.005   6.398 -0.6430  0.3913 -0.2820
 1007MOL0     C38862   7.080   7.106   6.325  0.4115 -0.3658  0.1585
 1007MOL0     C38863   7.211   7.086   6.269 -0.3747 -0.3806  0.1838
 1007MOL0     O38864   7.286   7.169   6.195  0.5803  0.3112  0.3315
 1007MOL0     C38865   7.229   7.277   6.124  0.8623  0.4114 -0.0426
 1007MOL0     C38866   7.323   7.355   6.042 -0.0513 -0.2399  0.3386
 1007MOL0     C38867   7.431   7.424   6.127 -0.4536  0.6983  0.1323
 1007MOL0     C38868   7.548   7.496   6.046 -0.4014  1.1905 -0.0483
 1007MOL0     C38869   7.503   7.623   5.969  0.5903  0.2794  0.2524
 1007MOL0     C38870   7.633   7.680   5.915  0.2490 -0.5427  0.0143
 1007MOL0     C38871   7.615   7.817   5.848 -0.4376 -0.4813  0.4447
 1007MOL0     C38872   7.558   7.814   5.706  0.1000 -0.2590 -0.1182
 1007MOL0    Cl38873   7.699   7.765   5.606  0.0541 -0.4600 -0.3428
 1007MOL0     C38874   7.260   6.965   6.281 -0.3808  0.5008 -0.6191
 1007MOL0     C38875   7.199   6.852   6.346 -0.6708  0.0196  0.4110
 1007MOL0     O38876   7.059   6.808   6.673  0.0843 -0.5647  0.9097
 1007MOL0     C38877   6.744   6.725   6.534  0.1486  0.3757 -0.4862
 1007MOL0     C38878   6.618   6.681   6.582 -0.2424 -0.2261 -0.1342
 1007MOL0     N38879   6.096   6.779   6.850 -0.5733  0.1040 -0.5933
 1007MOL0     N38880   6.020   6.850   6.929 -0.2714 -0.0183  0.4576
 1007MOL0     C38881   5.096   7.548   6.888  0.3975 -0.5892  0.3248
 1007MOL0     C38882   5.004   7.649   6.921 -0.2681  0.1827 -0.3541
 1007MOL0     C38883   4.850   8.073   7.084 -0.6636  0.6664 -0.4286
 1007MOL0     C38884   4.816   8.107   6.955 -0.2618  0.6209 -0.0423
 1007MOL0     C38885   4.757   8.230   6.921 -0.5553 -0.0797  0.1274
 1007MOL0     C38886   4.728   8.324   7.022 -0.6824 -0.4187  0.7520
 1007MOL0     O38887   4.687   8.453   6.993  0.6978  0.2925 -0.3342
 1007MOL0     C38888   4.693   8.506   6.855 -0.7154 -0.4558 -0.6461
 1007MOL0     C38889   4.603   8.623   6.842 -0.1185  0.2629 -0.4120
 1007MOL0     C38890   4.599   8.664   6.701  0.7478 -1.1154  0.0511
 1007MOL0     C38891   4.549   8.803   6.689  0.7613 -0.5252  1.3237
 1007MOL0     C38892   4.404   8.808   6.718 -0.7130 -0.2554  0.5243
 1007MOL0     C38893   4.282   8.814   6.723 -0.2558 -0.0787  0.4210
 1007MOL0     C38894   4.756   8.296   7.148 -0.2819  0.0361 -0.4564
 1007MOL0     C38895   4.823   8.178   7.185  0.7047  0.6099 -0.0863
 1007MOL0     C38896   4.869   8.159   7.331 -0.0910 -0.3834  0.0421
 1007MOL0     H38897   5.207   7.883   7.048  0.9353 -0.1016  0.6304
 1007MOL0     H38898   5.371   7.707   6.994  1.0568  0.0587 -1.1242
 1007MOL0     H38899   5.280   7.408   6.723  1.5055  0.8771 -0.0521
 1007MOL0     H38900   5.300   7.273   6.845  1.6421 -0.9506 -0.9413
 1007MOL0     H38901   5.489   7.346   6.667  0.1418  1.5373 -0.2739
 1007MOL0     H38902   5.534   7.474   6.773 -3.6884  1.5398 -0.6890
 1007MOL0     H38903   5.669   7.324   6.873  1.7095 -3.7635  1.6489
 1007MOL0     H38904   5.523   7.271   6.964 -1.2071 -1.9821 -1.3689
 1007MOL0     H38905   5.474   7.091   6.821  0.4005 -0.3558 -2.0303
 1007MOL0     H38906   5.598   7.132   6.711  1.4331  0.6062  1.1191
 1007MOL0     H38907   5.625   7.045   7.007  0.2611 -0.0213 -0.8038
 1007MOL0     H38908   5.765   7.090   6.897 -0.0883  3.3599  2.0141
 1007MOL0     H38909   5.585   6.881   6.799 -1.9409 -0.0140  1.6535
 1007MOL0     H38910   5.759   6.902   6.789 -1.8283 -2.6573 -2.1574
 1007MOL0     H38911   5.691   6.710   6.917 -3.2920 -0.5648 -0.9595
 1007MOL0     H38912   5.597   6.807   7.038  0.3258  0.7562 -0.0454
 1007MOL0     H38913   5.834   6.940   7.073  0.2053  0.4205 -0.3478
 1007MOL0     H38914   5.792   6.786   7.149  1.7326 -0.2521  0.0719
 1007MOL0     H38915   5.874   6.564   6.961 -0.4011  0.7608  0.7586
 1007MOL0     H38916   6.190   6.577   6.709 -0.2975 -0.4698 -0.3698
 1007MOL0     H38917   6.059   6.468   6.742  0.3980 -0.3754  0.0541
 1007MOL0     H38918   6.284   6.548   6.940  0.9209 -0.6281 -1.0332
 1007MOL0     H38919   6.154   6.428   6.966  0.7470 -4.6316 -1.2590
 1007MOL0     H38920   6.318   6.314   6.928 -3.5130  1.3598  0.6039
 1007MOL0     H38921   6.284   6.325   6.748  1.7781 -0.1898 -0.6437
 1007MOL0     H38922   6.492   6.472   6.923  2.3870  0.3874 -0.6435
 1007MOL0     H38923   6.535   6.359   6.802  2.0640  0.1713  1.5487
 1007MOL0     H38924   6.707   6.529   6.874  2.4028  0.2016  0.0911
 1007MOL0     H38925   7.046   6.556   6.762  0.6132  1.6890  0.3720
 1007MOL0     H38926   6.941   6.495   6.884  2.8238  0.2109  1.7881
 1007MOL0     H38927   6.992   6.661   6.892  3.0416 -0.7957 -0.3686
 1007MOL0     H38928   6.917   7.011   6.445 -0.9114  0.3829 -0.8210
 1007MOL0     H38929   7.038   7.206   6.324  0.4334 -0.2666  2.7241
 1007MOL0     H38930   7.147   7.237   6.064 -1.9701  1.8083  2.6254
 1007MOL0     H38931   7.180   7.340   6.198 -0.3166  0.8005 -1.1303
 1007MOL0     H38932   7.378   7.293   5.971  0.4166 -1.0651  1.4059
 1007MOL0     H38933   7.266   7.434   5.992 -1.4066 -0.2358  1.7878
 1007MOL0     H38934   7.483   7.352   6.191  0.6647  0.8186 -0.6165
 1007MOL0     H38935   7.376   7.490   6.195 -1.7554  0.5140 -0.7002
 1007MOL0     H38936   7.592   7.423   5.978 -1.2013 -0.6793  1.3773
 1007MOL0     H38937   7.624   7.517   6.123 -0.3120  0.5297  0.0452
 1007MOL0     H38938   7.430   7.598   5.891 -2.6424  4.1898  1.6138
 1007MOL0     H38939   7.461   7.703   6.032 -1.3278  0.4230 -1.0993
 1007MOL0     H38940   7.684   7.612   5.846  1.9842 -0.3775  1.0678
 1007MOL0     H38941   7.708   7.690   5.994 -0.0165  2.0886  0.0376
 1007MOL0     H38942   7.711   7.867   5.842 -0.4975 -0.5142 -1.3507
 1007MOL0     H38943   7.545   7.878   5.906 -0.2169 -0.0835  0.2950
 1007MOL0     H38944   7.530   7.916   5.677 -1.1737 -0.4386  0.3999
 1007MOL0     H38945   7.481   7.736   5.700  1.2896 -1.5040  0.4071
 1007MOL0     H38946   7.347   6.942   6.221 -0.7249 -0.4167 -0.7814
 1007MOL0     H38947   7.232   6.750   6.329 -3.4810 -0.6723 -1.7688
 1007MOL0     H38948   6.748   6.788   6.446  0.3245 -1.2148 -1.6527
 1007MOL0     H38949   6.534   6.705   6.517  1.7728  3.0195 -1.8031
 1007MOL0     H38950   5.064   7.453   6.845 -0.5957 -0.5979  1.0628
 1007MOL0     H38951   4.903   7.628   6.889 -1.5866 -0.2230  3.5816
 1007MOL0     H38952   4.827   8.036   6.874  0.3771  0.3433  0.2768
 1007MOL0     H38953   4.720   8.235   6.819 -2.0187  0.3927  0.6463
 1007MOL0     H38954   4.794   8.534   6.824 -0.2506 -1.1502  0.2016
 1007MOL0     H38955   4.664   8.429   6.783  0.9154 -0.6042 -1.1956
 1007MOL0     H38956   4.640   8.700   6.910  0.5456 -0.4357  0.0353
 1007MOL0     H38957   4.503   8.605   6.880  0.7333 -0.5704  1.5748
 1007MOL0     H38958   4.691   8.659   6.643 -0.6199 -0.0328 -2.3508
 1007MOL0     H38959   4.526   8.596   6.657 -0.2218 -0.6814  0.9298
 1007MOL0     H38960   4.563   8.842   6.588 -4.3545  4.1383  1.9374
 1007MOL0     H38961   4.597   8.866   6.764 -0.3982 -0.5983  2.1661
 1007MOL0     H38962   4.177   8.834   6.724 -0.1991  0.3199  1.8915
 1007MOL0     H38963   4.731   8.366   7.227  2.3781 -1.8793  2.2984
 1007MOL0     H38964   4.822   8.225   7.405  3.0356  0.4756  1.4414
 1007MOL0     H38965   4.853   8.059   7.372 -2.5009 -1.0570 -2.2272
 1007MOL0     H38966   4.977   8.174   7.333  0.2103 -2.0267 -1.5014
 1008MOL0     O38967   2.562   6.815   7.328  0.4762  0.0795 -0.0802
 1008MOL0     C38968   2.620   6.708   7.334 -0.5183  0.3007 -0.1840
 1008MOL0     O38969   2.592   6.607   7.416  0.7474  0.1331 -0.1155
 1008MOL0     C38970   2.481   6.612   7.488  0.1315 -0.3626 -0.0895
 1008MOL0     C38971   2.412   6.490   7.501  0.4279 -0.4447 -0.2382
 1008MOL0     C38972   2.290   6.483   7.581  0.0360  0.4641 -0.4026
 1008MOL0     C38973   2.244   6.599   7.648  0.2991 -0.0542  0.0717
 1008MOL0     O38974   2.121   6.601   7.711 -0.2997  0.8468  0.2518
 1008MOL0     C38975   2.015   6.526   7.654  0.7567  0.2473  0.0467
 1008MOL0     C38976   1.993   6.402   7.741  1.1235  0.3395 -0.6048
 1008MOL0     C38977   1.925   6.450   7.881  0.1399  0.7321 -0.2161
 1008MOL0     C38978   2.032   6.487   7.979  0.2130 -0.6318  0.3035
 1008MOL0     C38979   1.981   6.493   8.125 -0.4088  1.2174 -0.5498
 1008MOL0     C38980   1.833   6.541   8.148 -0.3167 -0.4059  0.5563
 1008MOL0     C38981   1.815   6.568   8.294  0.6555  0.2972  0.7227
 1008MOL0     C38982   1.671   6.627   8.301 -0.8245  0.8482 -0.6711
 1008MOL0     N38983   1.649   6.757   8.235  0.3384  0.7764  0.1933
 1008MOL0     C38984   1.737   6.863   8.213 -1.2319 -0.3601 -0.0726
 1008MOL0     C38985   1.698   6.927   8.099  0.1500 -0.2606 -0.3082
 1008MOL0     C38986   1.762   7.046   8.028 -0.3134 -0.4949  0.2733
 1008MOL0     C38987   1.904   7.014   7.967  0.1851  0.0407  0.7215
 1008MOL0     C38988   1.901   6.894   7.873  0.3119  0.8396 -0.3003
 1008MOL0     C38989   1.802   6.903   7.754 -0.1514  0.4643 -0.7569
 1008MOL0     O38990   1.805   7.024   7.679 -0.0931  0.2655  0.3349
 1008MOL0     C38991   1.923   7.056   7.603  1.4591  0.0605 -0.7654
 1008MOL0     C38992   1.958   7.185   7.586 -0.3156 -0.0229  0.3664
 1008MOL0     C38993   2.076   7.234   7.532 -0.0201  0.0787  0.3226
 1008MOL0     C38994   2.097   7.390   7.524 -0.4519 -0.3075 -0.0158
 1008MOL0     C38995   2.169   7.143   7.479  0.5935 -0.8774 -1.2754
 1008MOL0     C38996   2.297   7.203   7.420  0.7906 -1.1723 -0.3415
 1008MOL0     O38997   2.409   7.185   7.495 -0.2142 -0.2527 -0.4875
 1008MOL0     C38998   2.535   7.236   7.462  0.1861 -0.3487  0.5496
 1008MOL0     C38999   2.562   7.366   7.415  1.1250  0.6818  0.1859
 1008MOL0     C39000   2.691   7.407   7.398 -0.3174  0.1142  0.0361
 1008MOL0     C39001   2.795   7.332   7.426 -0.6039  0.1714  0.2306
 1008MOL0     O39002   2.925   7.379   7.408 -0.5073  0.0091 -0.3091
 1008MOL0     C39003   3.035   7.322   7.489 -0.7244 -0.6065 -0.3595
 1008MOL0     C39004   3.159   7.396   7.464 -0.0079 -0.1757  0.2051
 1008MOL0     C39005   3.223   7.442   7.594 -0.0332  0.3944 -0.3570
 1008MOL0     C39006   3.348   7.531   7.566 -0.2281 -1.0937 -0.0840
 1008MOL0     C39007   3.433   7.564   7.694  0.8504  0.0579 -0.4645
 1008MOL0     C39008   3.343   7.623   7.806 -0.0721  0.4788 -1.3900
 1008MOL0     C39009   3.418   7.675   7.931  0.2846 -0.0776 -0.3934
 1008MOL0     C39010   3.504   7.805   7.911  0.5282 -0.4663 -0.5169
 1008MOL0    Cl39011   3.548   7.872   8.077 -0.2195  0.1647 -0.1417
 1008MOL0     C39012   2.770   7.202   7.476  0.3081  0.8735 -0.6172
 1008MOL0     C39013   2.640   7.151   7.486 -0.4866  0.5188 -0.8624
 1008MOL0     O39014   2.289   7.261   7.313 -0.2425  0.0639 -0.3658
 1008MOL0     C39015   2.136   7.004   7.500 -0.6585  0.6043  0.0199
 1008MOL0     C39016   2.022   6.964   7.570 -0.1774  0.4975 -0.1754
 1008MOL0     N39017   1.582   6.862   8.064  0.0084 -0.0612  0.8163
 1008MOL0     N39018   1.556   6.759   8.137 -0.2255  0.3110  0.2003
 1008MOL0     C39019   2.317   6.711   7.645 -0.2113 -0.6276  0.1913
 1008MOL0     C39020   2.435   6.725   7.566  0.6917 -0.2763 -0.2410
 1008MOL0     C39021   2.749   6.683   7.261  0.2370 -0.0817 -0.1051
 1008MOL0     C39022   2.792   6.553   7.238  0.9485  0.4816 -0.4229
 1008MOL0     C39023   2.913   6.523   7.179 -0.4650  0.0196 -0.9067
 1008MOL0     C39024   2.999   6.631   7.146 -0.5584  0.1525 -0.1194
 1008MOL0     O39025   3.117   6.584   7.102 -0.9675  0.5563  0.5965
 1008MOL0     C39026   3.217   6.676   7.065 -0.7147  0.4319 -1.0970
 1008MOL0     C39027   3.294   6.618   6.950  0.8753  0.1379  0.3925
 1008MOL0     C39028   3.398   6.713   6.908  0.0464 -0.4358  0.4573
 1008MOL0     C39029   3.487   6.655   6.796  0.1120 -0.1687 -0.0457
 1008MOL0     C39030   3.608   6.736   6.774 -0.9648 -0.4130 -0.1307
 1008MOL0     C39031   3.713   6.785   6.749 -0.2440 -0.2241  0.4349
 1008MOL0     C39032   2.951   6.762   7.163  1.0012  0.1605  0.7422
 1008MOL0     C39033   2.826   6.788   7.215  1.1163 -0.1895 -0.4371
 1008MOL0     C39034   2.782   6.937   7.216 -0.3203 -0.6944 -0.5364
 1008MOL0     H39035   2.463   6.414   7.442  2.2045  1.8359 -1.8237
 1008MOL0     H39036   2.237   6.388   7.579  0.1809  0.3940 -1.1959
 1008MOL0     H39037   2.035   6.495   7.551  1.3672 -0.3492  0.3419
 1008MOL0     H39038   1.927   6.591   7.664 -0.9417 -1.5804 -1.9526
 1008MOL0     H39039   1.930   6.332   7.687  0.0825 -2.7342  3.9619
 1008MOL0     H39040   2.088   6.351   7.762  1.0451  0.2714 -0.4132
 1008MOL0     H39041   1.870   6.544   7.870 -0.8883  0.1015 -0.6537
 1008MOL0     H39042   1.857   6.371   7.913 -0.9291  1.3526 -0.9015
 1008MOL0     H39043   2.120   6.422   7.985 -0.0306 -0.8710  3.5351
 1008MOL0     H39044   2.062   6.588   7.949  3.3245 -0.6497  2.8071
 1008MOL0     H39045   2.045   6.559   8.185  0.1681 -0.7244  1.0832
 1008MOL0     H39046   1.985   6.395   8.174 -1.7842  2.1113  1.5051
 1008MOL0     H39047   1.819   6.626   8.082  1.3688 -0.9481 -0.5636
 1008MOL0     H39048   1.764   6.464   8.112 -2.1250  1.2154  0.4101
 1008MOL0     H39049   1.889   6.646   8.316 -0.5631  0.8572  3.1379
 1008MOL0     H39050   1.824   6.481   8.360  0.3200 -0.8200 -0.6510
 1008MOL0     H39051   1.604   6.551   8.260  0.3896  0.2069 -1.5552
 1008MOL0     H39052   1.654   6.627   8.409 -0.4872  2.4435 -0.5905
 1008MOL0     H39053   1.832   6.875   8.264 -0.8274  0.6091 -1.0096
 1008MOL0     H39054   1.772   7.132   8.096 -0.6183  0.9786 -1.4763
 1008MOL0     H39055   1.700   7.080   7.945 -0.1340  1.4243  0.8678
 1008MOL0     H39056   1.944   7.101   7.913  0.2696 -1.0093 -1.0109
 1008MOL0     H39057   1.965   6.992   8.055  1.1272  3.4821  1.0686
 1008MOL0     H39058   2.006   6.890   7.841  2.0906 -1.1483  4.6878
 1008MOL0     H39059   1.884   6.805   7.936  3.2568  1.8677  2.2367
 1008MOL0     H39060   1.818   6.814   7.693  0.6124  1.0126 -1.3748
 1008MOL0     H39061   1.704   6.885   7.799  0.9107  1.2026  2.0945
 1008MOL0     H39062   1.895   7.258   7.635  1.9306  1.4653  1.1977
 1008MOL0     H39063   2.123   7.431   7.426 -1.3592 -0.5472 -0.3649
 1008MOL0     H39064   2.189   7.414   7.577  0.4855 -0.3349 -1.5702
 1008MOL0     H39065   2.014   7.444   7.571  1.2687  0.9127  1.7369
 1008MOL0     H39066   2.477   7.433   7.407  0.6732  0.0508 -0.3865
 1008MOL0     H39067   2.711   7.509   7.366 -1.6300  0.7321  1.0863
 1008MOL0     H39068   3.005   7.320   7.594  3.0710 -1.1777  0.8411
 1008MOL0     H39069   3.058   7.220   7.456  0.1387 -0.1296 -1.2769
 1008MOL0     H39070   3.230   7.338   7.404 -1.9879 -0.6614 -1.8183
 1008MOL0     H39071   3.140   7.485   7.402 -0.3731  0.3412  1.0487
 1008MOL0     H39072   3.264   7.369   7.665  2.8372  1.5120 -0.7382
 1008MOL0     H39073   3.147   7.491   7.656  1.1593 -0.8221  2.2432
 1008MOL0     H39074   3.333   7.630   7.522  1.6850 -1.1839 -1.0180
 1008MOL0     H39075   3.404   7.469   7.496 -0.8519 -1.8332  0.0539
 1008MOL0     H39076   3.486   7.477   7.733 -0.1148  0.6984  2.5764
 1008MOL0     H39077   3.500   7.648   7.674  0.5125  1.2134  2.6576
 1008MOL0     H39078   3.271   7.555   7.853  2.1115 -2.2461 -1.7365
 1008MOL0     H39079   3.285   7.704   7.761 -2.1540 -0.6034 -0.8068
 1008MOL0     H39080   3.467   7.599   7.993 -2.9510 -0.4351  1.9866
 1008MOL0     H39081   3.343   7.704   8.005 -0.6024 -1.2000 -0.8209
 1008MOL0     H39082   3.440   7.871   7.852  0.9977 -0.2731 -0.8212
 1008MOL0     H39083   3.599   7.786   7.860  0.5180  0.4997 -0.9172
 1008MOL0     H39084   2.856   7.136   7.488 -0.7227 -0.5154 -0.6520
 1008MOL0     H39085   2.625   7.047   7.515  3.3537 -0.1301 -0.6624
 1008MOL0     H39086   2.205   6.927   7.468  1.2314  2.0860  0.3701
 1008MOL0     H39087   2.022   6.857   7.592  4.8282  0.1820 -0.3720
 1008MOL0     H39088   2.294   6.800   7.703  3.1538  0.4670  0.0328
 1008MOL0     H39089   2.482   6.823   7.574 -2.3658  1.2238  0.7574
 1008MOL0     H39090   2.728   6.469   7.264 -1.2161  2.2803  0.4063
 1008MOL0     H39091   2.940   6.420   7.158 -3.9760 -0.9395 -1.3321
 1008MOL0     H39092   3.178   6.775   7.039  0.7859  0.9477 -1.4701
 1008MOL0     H39093   3.293   6.676   7.143 -1.8662 -0.0516  0.0738
 1008MOL0     H39094   3.228   6.591   6.867  0.1904  2.9505 -0.0772
 1008MOL0     H39095   3.339   6.522   6.978  1.5471  0.1108 -0.7023
 1008MOL0     H39096   3.351   6.805   6.873  0.7108 -1.0410 -2.2107
 1008MOL0     H39097   3.460   6.755   6.987 -1.7889  1.6656  0.8855
 1008MOL0     H39098   3.430   6.652   6.703 -0.1125  1.5107  0.0049
 1008MOL0     H39099   3.518   6.552   6.812  0.4906 -0.1969 -0.9454
 1008MOL0     H39100   3.804   6.834   6.720  0.2297 -0.2022  1.8656
 1008MOL0     H39101   3.023   6.840   7.144  2.0798 -0.7085  1.1572
 1008MOL0     H39102   2.681   6.956   7.177  0.3497  3.0935 -0.8120
 1008MOL0     H39103   2.790   6.973   7.319  2.0675 -2.0138 -0.1864
 1008MOL0     H39104   2.860   6.986   7.157  0.8836  0.1651  1.6403
 1009MOL0     O39105   4.750   6.147   2.806 -0.0494  0.1546 -0.6877
 1009MOL0     C39106   4.778   6.053   2.731  0.5877 -0.6413  0.3254
 1009MOL0     O39107   4.904   6.025   2.678 -0.1625  0.0242 -0.3484
 1009MOL0     C39108   5.002   6.110   2.705  0.9441 -0.2882  0.1041
 1009MOL0     C39109   5.122   6.066   2.755 -0.9809  0.5247 -0.9289
 1009MOL0     C39110   5.233   6.157   2.781  0.3892 -0.5313  0.3439
 1009MOL0     C39111   5.218   6.301   2.744 -0.4706  0.4746 -0.5173
 1009MOL0     O39112   5.318   6.391   2.758 -0.9463 -0.0652  0.2524
 1009MOL0     C39113   5.294   6.528   2.717  0.3100 -0.5663  0.1909
 1009MOL0     C39114   5.411   6.620   2.770  0.3122 -0.0069 -0.3120
 1009MOL0     C39115   5.440   6.740   2.675 -0.4972 -0.5223 -0.1015
 1009MOL0     C39116   5.583   6.786   2.706  0.6619 -0.3212  0.2818
 1009MOL0     C39117   5.628   6.903   2.620  0.3449  0.6107 -0.1630
 1009MOL0     C39118   5.775   6.933   2.663  1.5510  0.1577  0.0884
 1009MOL0     C39119   5.837   7.052   2.584  0.8664  0.1289  0.2757
 1009MOL0     C39120   5.881   7.034   2.444 -0.3379 -0.2307  0.9209
 1009MOL0     N39121   5.986   6.934   2.423  0.0374 -0.0402  0.2441
 1009MOL0     C39122   6.124   6.952   2.425 -0.2830  0.2990  0.4833
 1009MOL0     C39123   6.168   6.826   2.403  0.5281  0.2159 -0.0374
 1009MOL0     C39124   6.306   6.782   2.383 -0.1973 -0.2147 -0.3822
 1009MOL0     C39125   6.325   6.722   2.241 -1.0796 -0.8626  0.0617
 1009MOL0     C39126   6.276   6.574   2.220  0.1808 -0.6924  0.2796
 1009MOL0     C39127   6.338   6.470   2.316  0.2992 -0.4225  0.2739
 1009MOL0     O39128   6.478   6.460   2.286 -0.5421 -0.5154 -0.6959
 1009MOL0     C39129   6.545   6.353   2.354  0.1454  1.3219  0.8413
 1009MOL0     C39130   6.509   6.303   2.481 -1.2760  0.4384  0.3680
 1009MOL0     C39131   6.589   6.196   2.536  0.8211 -0.2306 -0.0497
 1009MOL0     C39132   6.533   6.143   2.667 -0.2277 -0.0727 -0.3056
 1009MOL0     C39133   6.709   6.162   2.475  0.4630 -0.1339 -0.2161
 1009MOL0     C39134   6.803   6.051   2.525  0.6256 -0.1339 -0.0536
 1009MOL0     O39135   6.889   5.998   2.431  0.4102 -0.5221  0.5947
 1009MOL0     C39136   6.984   5.905   2.473 -0.0487  0.9833 -0.3039
 1009MOL0     C39137   6.942   5.780   2.509 -0.3852 -0.0031  0.8335
 1009MOL0     C39138   7.031   5.685   2.551 -0.1262  0.0963 -0.1605
 1009MOL0     C39139   7.170   5.716   2.566  0.6633 -0.1963  0.0711
 1009MOL0     O39140   7.253   5.616   2.602  0.1920  0.5204  0.0230
 1009MOL0     C39141   7.356   5.641   2.704 -0.2564  0.0007  0.0261
 1009MOL0     C39142   7.291   5.615   2.842 -0.2885  1.2063 -0.7467
 1009MOL0     C39143   7.387   5.642   2.964  0.1706 -0.4300 -0.0368
 1009MOL0     C39144   7.503   5.537   2.974 -1.3212 -0.3231  0.3723
 1009MOL0     C39145   7.598   5.572   3.093  0.5623 -0.0898  0.1614
 1009MOL0     C39146   7.706   5.459   3.112  0.9427  0.0506  0.7107
 1009MOL0     C39147   7.670   5.321   3.168  0.1487 -0.9937 -0.0432
 1009MOL0     C39148   7.610   5.342   3.307 -0.5693  0.4485  0.6180
 1009MOL0    Cl39149   7.649   5.185   3.396  0.5808  0.1088 -0.1176
 1009MOL0     C39150   7.213   5.845   2.522 -0.5389 -0.0594  0.0409
 1009MOL0     C39151   7.123   5.941   2.479 -0.2195  0.0750 -0.2455
 1009MOL0     O39152   6.800   6.023   2.644  0.1302  0.1913  0.1257
 1009MOL0     C39153   6.742   6.211   2.346  0.4247 -0.4473  0.6113
 1009MOL0     C39154   6.652   6.303   2.288  1.0027  0.5077  0.1209
 1009MOL0     N39155   6.056   6.732   2.390 -0.1742 -0.0810  0.2061
 1009MOL0     N39156   5.950   6.806   2.398  0.3273 -0.9927  0.8992
 1009MOL0     C39157   5.089   6.337   2.703  0.6675 -0.2405  0.4349
 1009MOL0     C39158   4.988   6.243   2.668  0.2612 -0.7172 -0.5007
 1009MOL0     C39159   4.660   5.955   2.709 -0.9096  0.4734  0.4105
 1009MOL0     C39160   4.530   6.005   2.728  0.0294 -0.2676 -0.4243
 1009MOL0     C39161   4.412   5.917   2.724  0.4602  0.7464 -0.6177
 1009MOL0     C39162   4.430   5.784   2.697 -0.1189  0.8003  1.1834
 1009MOL0     O39163   4.325   5.698   2.684  0.5178  0.4041 -0.2307
 1009MOL0     C39164   4.185   5.747   2.689  0.5098  0.3894  0.2376
 1009MOL0     C39165   4.089   5.629   2.680  0.3530  0.2882 -0.1343
 1009MOL0     C39166   4.084   5.550   2.809  0.1403  0.1025  0.2084
 1009MOL0     C39167   4.004   5.604   2.925 -0.3405 -1.1459 -1.0358
 1009MOL0     C39168   4.023   5.524   3.045  0.9291  0.0395  0.4111
 1009MOL0     C39169   4.025   5.448   3.143 -0.5522 -0.1939  0.8095
 1009MOL0     C39170   4.563   5.736   2.683  0.1654 -0.7991 -0.4336
 1009MOL0     C39171   4.679   5.822   2.698  0.7590  0.2143  0.5451
 1009MOL0     C39172   4.810   5.750   2.670 -0.0302 -0.2841  0.2420
 1009MOL0     H39173   5.126   5.969   2.804  1.6972  0.1515 -1.7612
 1009MOL0     H39174   5.321   6.123   2.835 -0.9935 -4.6792  0.3066
 1009MOL0     H39175   5.206   6.576   2.759  0.2955 -2.1298  2.0966
 1009MOL0     H39176   5.303   6.527   2.608 -0.6749 -2.0701  0.1043
 1009MOL0     H39177   5.375   6.650   2.869 -1.7082  0.2538 -1.0686
 1009MOL0     H39178   5.496   6.552   2.775 -0.5572 -1.0461  1.1681
 1009MOL0     H39179   5.426   6.713   2.570 -1.3289  1.1790 -0.4616
 1009MOL0     H39180   5.375   6.824   2.699  1.9472  1.1559  1.0300
 1009MOL0     H39181   5.569   6.815   2.811 -0.7598 -0.5527  0.1783
 1009MOL0     H39182   5.654   6.702   2.705  1.0238 -0.0136 -0.0008
 1009MOL0     H39183   5.559   6.986   2.636  0.4826  0.3351  2.2617
 1009MOL0     H39184   5.626   6.877   2.514  2.3383 -1.0340  0.1269
 1009MOL0     H39185   5.784   6.966   2.767  2.1745  1.5497 -0.3904
 1009MOL0     H39186   5.838   6.845   2.644  0.1659 -1.3379  2.0519
 1009MOL0     H39187   5.914   7.090   2.653  0.6603  0.7879  0.1531
 1009MOL0     H39188   5.758   7.128   2.585  2.6572  2.0910  1.4539
 1009MOL0     H39189   5.796   7.012   2.379  0.4183 -0.6481  0.0488
 1009MOL0     H39190   5.926   7.125   2.404 -1.6569 -0.5005 -1.3495
 1009MOL0     H39191   6.179   7.045   2.431  0.2049 -0.0433  1.7261
 1009MOL0     H39192   6.346   6.719   2.464  2.4095  0.6693 -0.8872
 1009MOL0     H39193   6.369   6.871   2.389 -0.6427  0.0482  4.0626
 1009MOL0     H39194   6.268   6.789   2.176  1.4110  3.2289  1.7291
 1009MOL0     H39195   6.434   6.729   2.232 -1.1409 -1.0970 -0.9667
 1009MOL0     H39196   6.169   6.561   2.236  0.5944 -1.5435  2.7939
 1009MOL0     H39197   6.289   6.553   2.113 -1.8621  0.8340 -0.3325
 1009MOL0     H39198   6.325   6.492   2.422  2.0187  0.7600  0.2849
 1009MOL0     H39199   6.286   6.378   2.287 -0.7106 -0.1202  1.0694
 1009MOL0     H39200   6.425   6.348   2.534 -1.0761  1.9027 -0.5139
 1009MOL0     H39201   6.543   6.035   2.674  1.1899  0.0319 -0.4328
 1009MOL0     H39202   6.428   6.167   2.687 -0.3558 -1.5602  0.9998
 1009MOL0     H39203   6.598   6.178   2.747 -1.4632 -0.3894  0.8749
 1009MOL0     H39204   6.837   5.752   2.508 -0.0193 -1.5869 -1.6286
 1009MOL0     H39205   6.998   5.583   2.566 -1.5869  0.6997  0.9645
 1009MOL0     H39206   7.438   5.570   2.686  1.1320  1.3991  0.5552
 1009MOL0     H39207   7.400   5.741   2.717  1.9591 -0.9343  0.1831
 1009MOL0     H39208   7.211   5.687   2.863 -0.8102  0.7054 -0.9828
 1009MOL0     H39209   7.263   5.510   2.850  0.3910  1.1058  0.5916
 1009MOL0     H39210   7.328   5.640   3.056  2.7312 -0.8950  1.7198
 1009MOL0     H39211   7.427   5.744   2.956  1.4620 -0.9421 -0.4559
 1009MOL0     H39212   7.552   5.537   2.876 -1.8027  1.0671  0.1000
 1009MOL0     H39213   7.466   5.436   2.993  1.0680 -0.8795  2.5387
 1009MOL0     H39214   7.645   5.669   3.076 -1.3601  0.9045  0.2710
 1009MOL0     H39215   7.538   5.572   3.184  1.1276  0.7388  0.5439
 1009MOL0     H39216   7.784   5.497   3.179  1.7941 -2.8580  1.4979
 1009MOL0     H39217   7.756   5.438   3.017  3.6905 -0.6949  2.2107
 1009MOL0     H39218   7.758   5.256   3.167  1.5533  0.7746  1.2825
 1009MOL0     H39219   7.600   5.269   3.103 -0.5001  2.2360 -2.1604
 1009MOL0     H39220   7.502   5.346   3.292 -0.8045 -2.9342  0.6619
 1009MOL0     H39221   7.652   5.430   3.357  2.8946 -0.4890 -0.3341
 1009MOL0     H39222   7.320   5.861   2.531 -0.2523 -1.2851 -0.8645
 1009MOL0     H39223   7.154   6.043   2.458 -0.0115  0.4371  1.6909
 1009MOL0     H39224   6.827   6.176   2.289  1.2168 -0.2528  1.6506
 1009MOL0     H39225   6.668   6.340   2.187 -2.2646  0.3968 -0.5420
 1009MOL0     H39226   5.054   6.439   2.694 -0.8096 -0.5861  1.7625
 1009MOL0     H39227   4.898   6.295   2.640  1.7631  1.5473 -1.4153
 1009MOL0     H39228   4.516   6.110   2.754 -0.3710 -0.2636 -0.6537
 1009MOL0     H39229   4.318   5.967   2.745 -0.4350 -0.7364 -0.9119
 1009MOL0     H39230   4.165   5.815   2.772  1.9004  1.0693  0.0522
 1009MOL0     H39231   4.174   5.816   2.605  1.7243  0.0417 -0.2240
 1009MOL0     H39232   4.137   5.564   2.606  2.1866 -2.1893  2.9955
 1009MOL0     H39233   3.989   5.658   2.647  0.9005  1.2948 -0.9960
 1009MOL0     H39234   4.028   5.460   2.783 -1.0305  0.6282  0.8223
 1009MOL0     H39235   4.186   5.516   2.830 -0.4012 -2.2549 -0.7297
 1009MOL0     H39236   3.895   5.606   2.910 -0.3311  1.5210 -1.2039
 1009MOL0     H39237   4.037   5.707   2.941 -0.1700 -1.4163  0.4314
 1009MOL0     H39238   4.010   5.386   3.229 -0.6812 -2.4701 -0.7371
 1009MOL0     H39239   4.575   5.628   2.671  0.3082 -0.7648 -0.6105
 1009MOL0     H39240   4.874   5.759   2.758  0.3521  1.2340 -0.1553
 1009MOL0     H39241   4.790   5.644   2.653 -0.9092 -0.2573  1.0479
 1009MOL0     H39242   4.860   5.800   2.586 -0.9279  0.3423  0.0702
 1010MOL0     O39243   1.653   8.670  10.361 -0.2155  0.0021  0.4291
 1010MOL0     C39244   1.718   8.578  10.310  0.3981  0.5198  0.1109
 1010MOL0     O39245   1.659   8.461  10.264  0.3362 -0.4776 -0.2489
 1010MOL0     C39246   1.522   8.450  10.262 -0.2655  0.5304  0.6114
 1010MOL0     C39247   1.468   8.348  10.339 -0.4302  0.5265  0.1147
 1010MOL0     C39248   1.325   8.339  10.348  0.2244 -1.6119  0.6437
 1010MOL0     C39249   1.241   8.417  10.280 -0.5720  0.1323  0.7181
 1010MOL0     O39250   1.109   8.417  10.311  0.1856  0.0835 -0.1937
 1010MOL0     C39251   1.008   8.420  10.213 -1.1350  0.8645 -0.2335
 1010MOL0     C39252   0.871   8.379  10.281 -0.4908 -0.2788 -0.1889
 1010MOL0     C39253   0.822   8.500  10.369  0.7730 -0.0003 -0.2731
 1010MOL0     C39254   0.708   8.462  10.468  0.5028  0.1185 -0.2338
 1010MOL0     C39255   0.653   8.590  10.530  0.8257  0.0591  0.6618
 1010MOL0     C39256   0.735   8.667  10.634  0.2500  0.6112 -0.2208
 1010MOL0     C39257   0.675   8.796  10.684  0.2089  0.2936  0.3392
 1010MOL0     C39258   0.769   8.875  10.777 -0.0683 -0.2864  0.0003
 1010MOL0     N39259   0.873   8.938  10.694 -0.2818 -0.2719 -0.2815
 1010MOL0     C39260   0.842   9.055  10.625  0.1250 -0.4953 -0.0825
 1010MOL0     C39261   0.957   9.097  10.572  0.6110 -0.1881  0.1191
 1010MOL0     C39262   0.968   9.230  10.497  1.0106  0.3165 -0.5985
 1010MOL0     C39263   1.107   9.261  10.449  0.1990 -0.0320  0.0255
 1010MOL0     C39264   1.125   9.400  10.386 -0.3752 -0.5339  1.0617
 1010MOL0     C39265   1.268   9.403  10.325  0.2872  0.3085  0.1162
 1010MOL0     O39266   1.295   9.543  10.287  0.4231  0.6062  0.2618
 1010MOL0     C39267   1.412   9.584  10.228 -0.0732  1.2084  1.1166
 1010MOL0     C39268   1.448   9.720  10.219 -0.3445  0.2153  0.8510
 1010MOL0     C39269   1.570   9.762  10.166  0.8177  1.2863 -0.1749
 1010MOL0     C39270   1.583   9.913  10.131 -0.6585  0.6318 -0.2785
 1010MOL0     C39271   1.671   9.668  10.138 -0.6591 -0.5342 -0.1273
 1010MOL0     C39272   1.809   9.692  10.076  0.9665  0.2995  0.4319
 1010MOL0     O39273   1.855   9.819  10.081  0.2389 -0.6122 -0.2897
 1010MOL0     C39274   1.988   9.854  10.058  0.3057 -0.1378  0.3190
 1010MOL0     C39275   2.097   9.769  10.059 -0.4518 -0.4945  0.2408
 1010MOL0     C39276   2.232   9.809  10.055 -0.0193 -0.1671  0.1315
 1010MOL0     C39277   2.264   9.948  10.060  0.0790  0.4399  0.4020
 1010MOL0     O39278   2.392   9.998  10.061  0.0677  0.1978 -1.3267
 1010MOL0     C39279   2.443  10.041  10.184  0.5245 -0.4360  0.4287
 1010MOL0     C39280   2.565  10.131  10.156 -0.3452  0.0806 -0.1618
 1010MOL0     C39281   2.625  10.159  10.300 -0.5930  0.0063 -0.0558
 1010MOL0     C39282   2.759  10.234  10.296  0.8510  0.5448 -0.2598
 1010MOL0     C39283   2.825  10.236  10.435  0.1949 -0.6165 -0.3395
 1010MOL0     C39284   2.964  10.299  10.415 -0.1660  0.1203  0.5054
 1010MOL0     C39285   2.984  10.426  10.331 -0.2301 -0.2375 -0.2105
 1010MOL0     C39286   2.903  10.550  10.371 -0.7290 -0.3465 -0.3504
 1010MOL0    Cl39287   2.970  10.599  10.537  0.1019 -0.0780  0.1801
 1010MOL0     C39288   2.154  10.040  10.057  0.7517 -1.0372  0.9073
 1010MOL0     C39289   2.019   9.993  10.052  0.4099 -0.1637  0.2485
 1010MOL0     O39290   1.857   9.609  10.003 -0.3484 -0.0028 -0.1838
 1010MOL0     C39291   1.640   9.530  10.149  0.6823 -0.0360  0.3976
 1010MOL0     C39292   1.509   9.484  10.191  0.5987  0.6270 -0.1873
 1010MOL0     N39293   1.058   9.010  10.616 -1.0675  0.2451  0.3368
 1010MOL0     N39294   1.004   8.922  10.698 -0.3760  0.5816 -0.7190
 1010MOL0     C39295   1.298   8.519  10.198 -0.5963  0.0864 -0.1722
 1010MOL0     C39296   1.439   8.536  10.188 -0.1133  0.3026 -0.6826
 1010MOL0     C39297   1.862   8.591  10.289 -0.5970 -0.0126  0.4515
 1010MOL0     C39298   1.920   8.714  10.322  0.3393  0.1187  0.8822
 1010MOL0     C39299   2.057   8.728  10.334 -0.3921  0.0479  1.0659
 1010MOL0     C39300   2.140   8.619  10.302 -0.4368 -0.1229  0.0777
 1010MOL0     O39301   2.279   8.616  10.310 -0.3313  0.3395 -0.2226
 1010MOL0     C39302   2.356   8.723  10.367  0.6667 -0.3864  0.2650
 1010MOL0     C39303   2.496   8.688  10.403  0.1579 -0.2415 -0.1771
 1010MOL0     C39304   2.575   8.640  10.275 -0.0519 -0.1316 -0.6978
 1010MOL0     C39305   2.607   8.759  10.177 -0.9145  0.8478  1.2146
 1010MOL0     C39306   2.662   8.686  10.054 -1.2261  0.0860  0.0035
 1010MOL0     C39307   2.708   8.630   9.957 -0.1196 -0.5332  0.3431
 1010MOL0     C39308   2.085   8.509  10.245  0.3039  0.1970 -0.7426
 1010MOL0     C39309   1.943   8.491  10.241 -0.5642  0.7315 -0.4274
 1010MOL0     C39310   1.902   8.350  10.200 -0.0815 -0.6769 -0.4723
 1010MOL0     H39311   1.525   8.272  10.392 -1.0623 -0.7679 -1.0171
 1010MOL0     H39312   1.290   8.253  10.404 -0.1407 -2.5419 -0.9485
 1010MOL0     H39313   1.035   8.349  10.135  1.9073 -0.9551  2.2179
 1010MOL0     H39314   1.003   8.512  10.154  0.4654  0.0048 -1.8124
 1010MOL0     H39315   0.793   8.360  10.207 -1.3309 -1.6787  0.9905
 1010MOL0     H39316   0.888   8.289  10.342 -1.3256  0.3524  1.0113
 1010MOL0     H39317   0.909   8.530  10.428  1.2347  1.1109 -1.4830
 1010MOL0     H39318   0.795   8.583  10.303 -0.0583 -0.7032 -0.8361
 1010MOL0     H39319   0.619   8.409  10.431 -3.0211  2.8185  3.4590
 1010MOL0     H39320   0.753   8.404  10.549 -1.8466 -0.1906  0.9587
 1010MOL0     H39321   0.556   8.570  10.577  0.5253  2.8002  1.4127
 1010MOL0     H39322   0.627   8.658  10.448 -2.3283 -1.4016  0.3209
 1010MOL0     H39323   0.730   8.602  10.722 -1.7051  0.5712 -0.3244
 1010MOL0     H39324   0.838   8.678  10.600 -0.1980 -0.2448 -1.9725
 1010MOL0     H39325   0.581   8.767  10.733  0.4780  1.4922  1.6004
 1010MOL0     H39326   0.642   8.863  10.604  0.2684  0.6173  0.5850
 1010MOL0     H39327   0.710   8.953  10.825  1.3805  0.7735  0.0858
 1010MOL0     H39328   0.809   8.800  10.846 -2.8037 -2.2264 -0.3420
 1010MOL0     H39329   0.747   9.107  10.629 -0.2772 -0.9748 -2.3087
 1010MOL0     H39330   0.946   9.308  10.571 -1.1871 -1.2546  0.4954
 1010MOL0     H39331   0.890   9.259  10.427 -0.6374  1.8984  1.7060
 1010MOL0     H39332   1.176   9.246  10.533 -1.7824 -0.3388  1.6738
 1010MOL0     H39333   1.131   9.175  10.385  1.1600  0.8115 -0.7786
 1010MOL0     H39334   1.053   9.406  10.303  0.0673  1.7091  0.7808
 1010MOL0     H39335   1.102   9.489  10.444  1.0778  2.1383 -2.1364
 1010MOL0     H39336   1.338   9.359  10.396  1.3279  0.8217 -0.5634
 1010MOL0     H39337   1.270   9.332  10.241  0.9132  1.5193 -0.9316
 1010MOL0     H39338   1.368   9.792  10.233  2.4152  4.0883 -1.1686
 1010MOL0     H39339   1.500   9.937  10.064 -1.6308 -3.9185 -1.0346
 1010MOL0     H39340   1.676   9.947  10.086 -0.8785  3.3905  1.1075
 1010MOL0     H39341   1.576   9.959  10.230 -0.0161 -0.7790  0.4500
 1010MOL0     H39342   2.065   9.666  10.065  0.0527 -0.8155 -1.7606
 1010MOL0     H39343   2.311   9.736  10.056  2.0393  1.9429  0.5517
 1010MOL0     H39344   2.377  10.111  10.235  0.3333  1.6729 -2.4964
 1010MOL0     H39345   2.471   9.953  10.243 -2.8165 -2.6383 -0.9959
 1010MOL0     H39346   2.639  10.074  10.099 -2.5045 -2.6368 -0.4377
 1010MOL0     H39347   2.543  10.227  10.108 -0.9144 -0.4860 -1.0722
 1010MOL0     H39348   2.629  10.062  10.349  1.8595 -0.4935 -1.0985
 1010MOL0     H39349   2.564  10.228  10.360 -0.7158  4.1590 -4.3430
 1010MOL0     H39350   2.733  10.335  10.263 -2.5897  0.5938  2.0983
 1010MOL0     H39351   2.836  10.193  10.230  2.8461  3.2336  0.2192
 1010MOL0     H39352   2.770  10.286  10.515  2.9536  0.6251  0.9040
 1010MOL0     H39353   2.828  10.134  10.473 -3.7346 -0.8350 -0.1376
 1010MOL0     H39354   3.017  10.226  10.354 -0.6255  1.8189 -2.0852
 1010MOL0     H39355   3.011  10.311  10.513 -1.4879  0.4160  1.1314
 1010MOL0     H39356   2.964  10.408  10.225  1.0663  1.8474 -0.8710
 1010MOL0     H39357   3.084  10.470  10.338 -1.1324  1.6370  3.0547
 1010MOL0     H39358   2.795  10.538  10.385 -1.1653  0.8740 -2.2485
 1010MOL0     H39359   2.924  10.630  10.299 -0.6770  0.4653  0.5464
 1010MOL0     H39360   2.156  10.148  10.049 -3.6848 -0.7031  1.7219
 1010MOL0     H39361   1.933  10.058  10.060 -0.5127 -1.2710 -0.4863
 1010MOL0     H39362   1.701   9.455  10.099 -1.5050 -0.0199 -2.5364
 1010MOL0     H39363   1.489   9.378  10.197  0.4468  0.6839  0.4330
 1010MOL0     H39364   1.247   8.597  10.143  1.4726  0.6040 -1.5001
 1010MOL0     H39365   1.480   8.607  10.117  0.9751 -1.1712 -1.5936
 1010MOL0     H39366   1.852   8.795  10.347  2.5966  1.9852  1.3077
 1010MOL0     H39367   2.110   8.816  10.367  2.1463 -0.6476 -0.7959
 1010MOL0     H39368   2.356   8.813  10.304 -0.7987 -0.1656  0.5419
 1010MOL0     H39369   2.313   8.754  10.462  1.2944  0.1112  0.3862
 1010MOL0     H39370   2.497   8.602  10.471  0.0177 -2.0496 -2.3555
 1010MOL0     H39371   2.543   8.776  10.449 -2.1508  3.1870 -3.6772
 1010MOL0     H39372   2.665   8.580  10.292 -0.3732 -0.1710  1.1084
 1010MOL0     H39373   2.505   8.575  10.222 -1.8272 -1.1937  2.6294
 1010MOL0     H39374   2.681   8.827  10.220 -1.0376  0.4075  2.1431
 1010MOL0     H39375   2.531   8.829  10.141 -0.7024  2.0526  3.0019
 1010MOL0     H39376   2.761   8.584   9.876  0.7322 -1.3676  1.3433
 1010MOL0     H39377   2.160   8.437  10.212 -1.3012 -2.1728  0.4685
 1010MOL0     H39378   1.859   8.300  10.288  1.7074  0.7740  1.3141
 1010MOL0     H39379   1.829   8.350  10.119  1.1022 -0.8188 -1.5641
 1010MOL0     H39380   1.986   8.298  10.155  0.6273 -0.2289  0.3059
 1011MOL0     O39381   3.806   6.060   5.313  0.3452  0.0605  0.3361
 1011MOL0     C39382   3.858   6.102   5.201  0.3635 -0.1514 -0.7599
 1011MOL0     O39383   3.992   6.084   5.169 -0.0260 -0.7784 -0.1035
 1011MOL0     C39384   4.094   6.025   5.244  0.1045  0.2087 -0.7626
 1011MOL0     C39385   4.088   5.964   5.369 -0.1214 -0.1404  0.5881
 1011MOL0     C39386   4.190   5.886   5.419  1.0911  0.1417  0.1735
 1011MOL0     C39387   4.310   5.876   5.352 -0.3202 -0.2791  0.2603
 1011MOL0     O39388   4.423   5.816   5.399  0.2084  0.1271 -0.1824
 1011MOL0     C39389   4.417   5.741   5.520 -0.5608 -0.2521 -0.0436
 1011MOL0     C39390   4.560   5.703   5.560  1.0055 -0.8606 -0.5574
 1011MOL0     C39391   4.563   5.648   5.701  0.4737  0.3311 -0.0209
 1011MOL0     C39392   4.707   5.610   5.739 -0.6997  0.3047  1.0371
 1011MOL0     C39393   4.798   5.726   5.791 -0.6628  1.0693 -0.2130
 1011MOL0     C39394   4.942   5.686   5.831  0.3924  0.3220  0.5801
 1011MOL0     C39395   4.950   5.610   5.962 -0.4801  0.3263  0.6660
 1011MOL0     C39396   5.096   5.570   5.986  0.0646  0.4846 -0.5198
 1011MOL0     N39397   5.107   5.501   6.120  0.2535  0.5400 -0.3564
 1011MOL0     C39398   5.047   5.379   6.143 -0.7214  0.4605  0.2322
 1011MOL0     C39399   5.058   5.351   6.280 -0.3478 -1.0843  0.5374
 1011MOL0     C39400   4.985   5.251   6.356 -0.4297  0.0791 -0.2046
 1011MOL0     C39401   4.841   5.292   6.398 -0.1093  0.7158  0.1988
 1011MOL0     C39402   4.748   5.265   6.283  0.1846  0.4647  0.4299
 1011MOL0     C39403   4.616   5.330   6.296  0.1814  0.3404 -0.0483
 1011MOL0     O39404   4.572   5.384   6.170  0.0207  0.2576  0.7077
 1011MOL0     C39405   4.443   5.426   6.156  0.4999 -0.0981  0.2910
 1011MOL0     C39406   4.411   5.520   6.059  0.2592 -0.2509  1.0257
 1011MOL0     C39407   4.278   5.559   6.031  0.5090 -0.6197  1.0855
 1011MOL0     C39408   4.256   5.667   5.926 -0.2512  0.1271 -0.3642
 1011MOL0     C39409   4.170   5.492   6.094  0.2454 -0.1130  0.1065
 1011MOL0     C39410   4.021   5.528   6.071 -0.8162 -0.3212  0.0000
 1011MOL0     O39411   3.993   5.582   5.948 -0.1752 -0.2185  0.0442
 1011MOL0     C39412   3.863   5.624   5.927  0.1145  0.4701  0.1856
 1011MOL0     C39413   3.782   5.541   5.841 -0.1917  0.0963 -0.7216
 1011MOL0     C39414   3.664   5.601   5.781 -0.8031  0.1384 -0.0100
 1011MOL0     C39415   3.621   5.729   5.828  0.8011  0.0536 -0.8938
 1011MOL0     O39416   3.512   5.776   5.768  0.6897 -0.5525  0.4765
 1011MOL0     C39417   3.429   5.868   5.843  0.3589 -0.7326  0.2857
 1011MOL0     C39418   3.272   5.838   5.815 -1.4708 -0.1841  0.8696
 1011MOL0     C39419   3.191   5.928   5.909 -0.0778  0.1334  0.3598
 1011MOL0     C39420   3.045   5.934   5.854 -0.1035 -0.4277  1.2577
 1011MOL0     C39421   3.016   6.036   5.741  0.3537 -0.4392  0.1693
 1011MOL0     C39422   2.869   6.082   5.727  0.1341 -0.2970  0.1854
 1011MOL0     C39423   2.783   5.960   5.684  0.2402 -0.9854  0.7677
 1011MOL0     C39424   2.630   5.993   5.674  0.8514  0.8102 -0.2950
 1011MOL0    Cl39425   2.564   6.062   5.819  0.3529  0.0609 -0.0774
 1011MOL0     C39426   3.705   5.803   5.912  0.3813  0.7481  0.2762
 1011MOL0     C39427   3.823   5.751   5.959 -0.1247 -0.6465 -0.2393
 1011MOL0     O39428   3.937   5.511   6.152  0.4589  0.4298 -0.4742
 1011MOL0     C39429   4.207   5.392   6.182 -0.0171 -0.7281  0.4582
 1011MOL0     C39430   4.336   5.354   6.216  0.5118  0.1534  0.4340
 1011MOL0     N39431   5.116   5.467   6.334 -0.0174 -0.3284  0.3263
 1011MOL0     N39432   5.143   5.551   6.238  0.2950 -0.4633  0.3835
 1011MOL0     C39433   4.330   5.942   5.227  0.2190  0.2533  0.1319
 1011MOL0     C39434   4.218   6.011   5.171  0.2659  0.0164  0.4347
 1011MOL0     C39435   3.764   6.174   5.115 -0.4490 -1.1335  0.1383
 1011MOL0     C39436   3.644   6.112   5.090  0.3142 -0.3460 -0.2932
 1011MOL0     C39437   3.544   6.174   5.005 -0.2430 -0.0679  0.2800
 1011MOL0     C39438   3.560   6.302   4.969 -0.1858 -1.4879 -0.0423
 1011MOL0     O39439   3.459   6.382   4.905 -0.5175 -0.4693  0.2130
 1011MOL0     C39440   3.325   6.347   4.896 -0.1685  1.0268  0.3804
 1011MOL0     C39441   3.248   6.366   5.028  0.7237  0.8445  0.0821
 1011MOL0     C39442   3.099   6.327   5.017 -0.0481 -1.6890 -0.8729
 1011MOL0     C39443   3.098   6.175   5.047  0.1481 -1.0019  0.3169
 1011MOL0     C39444   3.038   6.100   4.933  0.4730  0.6120  0.3617
 1011MOL0     C39445   2.984   6.025   4.850 -0.4457 -0.2136  0.2378
 1011MOL0     C39446   3.694   6.354   4.973 -0.1489  0.3050  0.1477
 1011MOL0     C39447   3.796   6.294   5.053  0.1835 -0.1190 -0.0870
 1011MOL0     C39448   3.937   6.360   5.051  0.3153  0.2363  1.4548
 1011MOL0     H39449   3.998   5.965   5.430  2.0224 -3.9757  4.3916
 1011MOL0     H39450   4.173   5.842   5.517  2.7359 -2.7880 -0.7090
 1011MOL0     H39451   4.349   5.656   5.506 -0.7941 -0.7550  3.3070
 1011MOL0     H39452   4.378   5.790   5.610 -2.1228 -1.2901 -0.1085
 1011MOL0     H39453   4.603   5.634   5.486 -0.2210 -3.0054  0.6155
 1011MOL0     H39454   4.623   5.791   5.572 -0.4705  0.0061  1.2607
 1011MOL0     H39455   4.520   5.717   5.775 -2.0623  0.3290 -1.3709
 1011MOL0     H39456   4.502   5.557   5.707 -0.7032  0.9339 -2.0418
 1011MOL0     H39457   4.705   5.536   5.819  0.9689 -0.3753  0.5040
 1011MOL0     H39458   4.756   5.557   5.657 -1.3723 -0.9270  1.4153
 1011MOL0     H39459   4.745   5.784   5.868 -0.3787 -0.1419  0.9447
 1011MOL0     H39460   4.789   5.783   5.699 -1.2118  2.4459  0.6582
 1011MOL0     H39461   4.977   5.623   5.748  0.3013 -0.2902  0.9971
 1011MOL0     H39462   5.006   5.775   5.836  1.8637 -0.7590  2.0796
 1011MOL0     H39463   4.889   5.520   5.955  0.5814 -0.2826 -2.6467
 1011MOL0     H39464   4.904   5.674   6.038 -1.0044  1.5133 -0.5919
 1011MOL0     H39465   5.120   5.496   5.909  1.6846 -0.9871  1.2809
 1011MOL0     H39466   5.152   5.664   5.988 -1.9896  1.8128 -1.4112
 1011MOL0     H39467   5.001   5.309   6.073  0.3109 -0.7816  0.7554
 1011MOL0     H39468   5.040   5.220   6.446  0.7636 -0.3092 -1.0455
 1011MOL0     H39469   4.979   5.158   6.299 -2.0057 -0.0127  0.0589
 1011MOL0     H39470   4.822   5.243   6.494 -2.6420  1.3050  0.0638
 1011MOL0     H39471   4.834   5.399   6.419  2.1045  0.7062  1.2315
 1011MOL0     H39472   4.791   5.295   6.187 -4.2789  0.1857 -1.8799
 1011MOL0     H39473   4.732   5.157   6.273  2.9057  0.2287 -5.1076
 1011MOL0     H39474   4.540   5.263   6.338 -1.3236  2.5170  0.8697
 1011MOL0     H39475   4.615   5.402   6.379 -0.0802 -1.4893  1.6266
 1011MOL0     H39476   4.498   5.546   6.000  0.0432 -0.4559  0.6142
 1011MOL0     H39477   4.180   5.740   5.956 -0.5335 -1.6691  4.0009
 1011MOL0     H39478   4.237   5.628   5.826  0.1178  2.2610 -1.3111
 1011MOL0     H39479   4.346   5.728   5.919  0.5093 -0.7486  1.1973
 1011MOL0     H39480   3.807   5.439   5.813 -1.8120  0.2180 -2.8571
 1011MOL0     H39481   3.602   5.552   5.706  0.4039  0.2541 -1.1270
 1011MOL0     H39482   3.431   5.854   5.951 -1.1768  2.8003  0.9229
 1011MOL0     H39483   3.462   5.969   5.817  2.2440 -1.8426 -2.0752
 1011MOL0     H39484   3.243   5.858   5.711 -0.4536 -0.8639  0.4366
 1011MOL0     H39485   3.262   5.734   5.849  4.0780 -1.6203 -0.7662
 1011MOL0     H39486   3.243   6.025   5.910  1.4360 -0.6102 -0.7887
 1011MOL0     H39487   3.187   5.891   6.011  0.6207 -0.2743  0.2481
 1011MOL0     H39488   2.983   5.962   5.941 -1.8676  1.2321 -0.4341
 1011MOL0     H39489   3.016   5.833   5.823 -1.9649  1.1818 -3.0201
 1011MOL0     H39490   3.081   6.122   5.756 -1.4072  1.0161 -0.2468
 1011MOL0     H39491   3.055   5.992   5.649 -1.1425 -2.4677  0.4378
 1011MOL0     H39492   2.855   6.172   5.667  0.0305 -2.0878 -2.6371
 1011MOL0     H39493   2.826   6.111   5.824 -3.4857 -0.0614 -1.3284
 1011MOL0     H39494   2.806   5.892   5.766  2.4174  1.0414  1.9499
 1011MOL0     H39495   2.821   5.920   5.589 -2.6772 -0.1012 -0.9030
 1011MOL0     H39496   2.569   5.904   5.657  1.0817  0.1891  1.8036
 1011MOL0     H39497   2.610   6.061   5.591  0.4242 -1.1192 -1.8446
 1011MOL0     H39498   3.685   5.908   5.930 -1.0020  0.4653  0.5660
 1011MOL0     H39499   3.889   5.815   6.016 -0.9321  1.0192 -1.0963
 1011MOL0     H39500   4.127   5.352   6.245 -1.0038  2.1442  1.1868
 1011MOL0     H39501   4.357   5.269   6.280 -0.3000 -0.6478 -0.3318
 1011MOL0     H39502   4.423   5.948   5.172 -0.6349 -1.7193 -1.6803
 1011MOL0     H39503   4.224   6.056   5.073 -2.3714 -0.0198  0.1908
 1011MOL0     H39504   3.636   6.014   5.137  0.4431 -0.2769 -0.1303
 1011MOL0     H39505   3.451   6.121   4.989 -0.7885  0.0401  2.6562
 1011MOL0     H39506   3.270   6.417   4.832 -1.3223  1.0802  1.4022
 1011MOL0     H39507   3.322   6.250   4.846 -1.1901  1.0234  0.4287
 1011MOL0     H39508   3.264   6.462   5.076 -2.6226  0.6181  1.9173
 1011MOL0     H39509   3.298   6.293   5.092 -3.1181 -1.7657  0.4849
 1011MOL0     H39510   3.032   6.369   5.093  1.8813 -1.9892  1.1174
 1011MOL0     H39511   3.062   6.365   4.922  1.0576 -1.1994 -1.1297
 1011MOL0     H39512   3.039   6.161   5.138  0.6087 -2.8411  0.3868
 1011MOL0     H39513   3.192   6.121   5.057  0.4808 -0.3010  1.0347
 1011MOL0     H39514   2.929   5.973   4.774 -2.1718 -1.7514  2.4311
 1011MOL0     H39515   3.715   6.444   4.915  0.7510 -0.2985 -0.4807
 1011MOL0     H39516   3.955   6.440   4.978  0.7408  1.2168  2.6113
 1011MOL0     H39517   3.948   6.406   5.149 -0.8130 -1.1797  2.3007
 1011MOL0     H39518   4.024   6.295   5.046 -0.0104 -0.1289 -0.1332
 1012MOL0     O39519   1.717   3.003   8.039 -0.3477 -0.2289  0.0826
 1012MOL0     C39520   1.648   3.030   8.139 -0.3863 -0.8613  0.7019
 1012MOL0     O39521   1.657   2.970   8.264  0.3556  0.2354  0.5940
 1012MOL0     C39522   1.738   2.859   8.272  0.1226 -0.5773  0.4404
 1012MOL0     C39523   1.842   2.847   8.353 -0.4546 -0.7790  0.4775
 1012MOL0     C39524   1.925   2.739   8.354 -0.3097 -1.4765  0.5486
 1012MOL0     C39525   1.912   2.636   8.254 -0.2097 -0.7307 -0.4505
 1012MOL0     O39526   1.985   2.522   8.252 -0.8302 -0.1317  0.3851
 1012MOL0     C39527   1.950   2.417   8.162  0.4894  0.0099 -0.3126
 1012MOL0     C39528   1.849   2.315   8.227  0.5252 -0.3520  0.4935
 1012MOL0     C39529   1.918   2.213   8.325 -0.4912 -0.0708  0.1524
 1012MOL0     C39530   1.830   2.100   8.363  0.7459 -0.2102  0.0505
 1012MOL0     C39531   1.882   2.013   8.483 -0.5217 -0.9016  0.6096
 1012MOL0     C39532   1.919   2.095   8.604 -0.5585  0.2390 -0.2327
 1012MOL0     C39533   1.979   2.010   8.714  0.6098  0.8468  0.0302
 1012MOL0     C39534   1.959   2.098   8.845  0.8094  0.6184  0.5037
 1012MOL0     N39535   2.003   2.007   8.953  0.5766 -0.4183  1.2192
 1012MOL0     C39536   1.920   1.948   9.045  0.3560  0.1745 -0.0720
 1012MOL0     C39537   1.997   1.932   9.149  0.0408  0.0236  0.6259
 1012MOL0     C39538   1.982   1.850   9.276  0.4560  0.1146  0.3328
 1012MOL0     C39539   2.015   1.930   9.408 -0.5300 -0.0707  0.4552
 1012MOL0     C39540   1.985   1.850   9.540 -0.2607  0.2781 -0.0293
 1012MOL0     C39541   1.986   1.942   9.659 -0.4339 -0.9694 -0.1985
 1012MOL0     O39542   2.108   2.025   9.657  0.1698 -0.1183 -0.0453
 1012MOL0     C39543   2.102   2.141   9.734  0.4769  0.7678  0.5367
 1012MOL0     C39544   2.119   2.265   9.671 -0.0541  0.2932  0.0752
 1012MOL0     C39545   2.134   2.380   9.744  0.0140 -0.5624 -0.6393
 1012MOL0     C39546   2.135   2.510   9.666  0.5683  0.1343 -0.2249
 1012MOL0     C39547   2.153   2.375   9.885  0.5481  0.3394  0.4642
 1012MOL0     C39548   2.179   2.485   9.978 -0.3874  0.9157  0.2963
 1012MOL0     O39549   2.204   2.460  10.109  0.3470  0.4480  0.0795
 1012MOL0     C39550   2.202   2.563  10.202  0.3950 -0.0528 -0.2547
 1012MOL0     C39551   2.257   2.525  10.325 -0.3777 -0.2224 -0.7086
 1012MOL0     C39552   2.263   2.600  10.440 -0.6164 -0.7371 -0.0693
 1012MOL0     C39553   2.205   2.728  10.432 -0.0794  0.1973 -0.3018
 1012MOL0     O39554   2.222   2.807  10.542  0.1412 -0.8868 -0.4897
 1012MOL0     C39555   2.191   2.951  10.520 -0.4417 -0.1368 -0.1971
 1012MOL0     C39556   2.235   3.025  10.638  0.2412 -0.0022  0.2626
 1012MOL0     C39557   2.175   2.983  10.770  0.0313  0.2021  1.1026
 1012MOL0     C39558   2.021   2.986  10.765 -0.8088 -0.3921 -0.0501
 1012MOL0     C39559   1.964   2.944  10.899 -0.7533 -0.3762 -0.4418
 1012MOL0     C39560   1.814   2.940  10.890 -0.3749 -0.1384 -0.5158
 1012MOL0     C39561   1.755   2.938  11.023  0.4896  0.5739 -0.7810
 1012MOL0     C39562   1.597   2.926  11.028 -0.7788  0.8895  0.9444
 1012MOL0    Cl39563   1.547   3.084  10.962 -0.2639  0.2410  0.1893
 1012MOL0     C39564   2.146   2.772  10.314  0.1228 -0.2251  0.3861
 1012MOL0     C39565   2.141   2.687  10.197 -0.2053 -0.2438  0.5048
 1012MOL0     O39566   2.184   2.601   9.926  0.4597 -0.0257 -0.1104
 1012MOL0     C39567   2.141   2.240   9.949  0.0918 -0.2554  0.9793
 1012MOL0     C39568   2.103   2.130   9.871  0.7795 -0.6610 -0.0556
 1012MOL0     N39569   2.126   1.984   9.125  0.6243 -0.0171 -0.3825
 1012MOL0     N39570   2.119   2.031   9.006 -0.5220 -0.2080  0.6395
 1012MOL0     C39571   1.792   2.646   8.176  1.7377 -0.9997 -0.1208
 1012MOL0     C39572   1.711   2.751   8.191 -1.3383 -0.1638  0.0366
 1012MOL0     C39573   1.533   3.122   8.113  1.1071  0.1773  0.1883
 1012MOL0     C39574   1.413   3.095   8.192  0.6472  0.7589  0.1094
 1012MOL0     C39575   1.290   3.154   8.152  0.7270 -0.7583 -0.1114
 1012MOL0     C39576   1.282   3.248   8.054  0.0371  0.3064 -0.3328
 1012MOL0     O39577   1.152   3.285   8.021  0.2484 -0.5749  0.3488
 1012MOL0     C39578   1.140   3.371   7.909 -0.8165 -0.0700  0.4324
 1012MOL0     C39579   0.995   3.419   7.903 -0.1099  0.0863 -0.5053
 1012MOL0     C39580   0.906   3.298   7.895 -0.1283  0.0089 -1.0832
 1012MOL0     C39581   0.762   3.338   7.863  0.1714  0.3003 -0.5834
 1012MOL0     C39582   0.721   3.458   7.937 -0.2934  1.0044 -0.9396
 1012MOL0     C39583   0.693   3.561   7.996  1.0608  0.4732 -0.8032
 1012MOL0     C39584   1.397   3.268   7.976 -0.5376  0.0998 -0.9418
 1012MOL0     C39585   1.519   3.213   8.010 -0.0663 -0.0906  0.8883
 1012MOL0     C39586   1.643   3.247   7.920 -0.0345  0.9215  0.4673
 1012MOL0     H39587   1.861   2.935   8.414  0.8544  0.5968 -1.7695
 1012MOL0     H39588   2.007   2.730   8.424  0.9368 -0.1839 -0.7047
 1012MOL0     H39589   2.039   2.357   8.142  0.1559  0.0596 -2.1428
 1012MOL0     H39590   1.914   2.451   8.064 -1.7542 -0.8754  0.1383
 1012MOL0     H39591   1.775   2.377   8.279  3.0028  4.1690 -0.8520
 1012MOL0     H39592   1.788   2.261   8.154 -0.8402 -0.5870  1.7396
 1012MOL0     H39593   2.011   2.182   8.277 -2.2401 -1.3247 -2.6752
 1012MOL0     H39594   1.950   2.274   8.410  1.9597 -1.0011 -0.0139
 1012MOL0     H39595   1.731   2.135   8.393  0.1903 -0.7996 -1.0433
 1012MOL0     H39596   1.815   2.039   8.274  1.2584  1.5624 -1.3105
 1012MOL0     H39597   1.977   1.963   8.462 -1.7382 -2.0791 -2.6384
 1012MOL0     H39598   1.818   1.934   8.521  1.7835 -2.2462  1.9518
 1012MOL0     H39599   1.995   2.171   8.583  0.6412 -1.5315 -2.8681
 1012MOL0     H39600   1.830   2.143   8.645 -0.6191  0.6411 -0.8187
 1012MOL0     H39601   2.084   1.989   8.689  0.0224 -2.6863 -0.0161
 1012MOL0     H39602   1.932   1.911   8.716 -3.0959  2.3729 -2.1879
 1012MOL0     H39603   2.018   2.190   8.845  0.9911  0.5088 -0.5490
 1012MOL0     H39604   1.852   2.118   8.855  0.7834  0.5655  0.3336
 1012MOL0     H39605   1.817   1.916   9.031  1.0177 -0.7111 -4.3619
 1012MOL0     H39606   2.041   1.759   9.266 -0.7886 -0.6037 -0.7762
 1012MOL0     H39607   1.881   1.810   9.291  2.0679 -3.3800  3.7225
 1012MOL0     H39608   2.120   1.962   9.409 -0.2195 -1.0735  0.7671
 1012MOL0     H39609   1.958   2.023   9.403  0.8468  0.7472 -1.3709
 1012MOL0     H39610   1.887   1.802   9.542  0.8346 -2.8674 -4.3416
 1012MOL0     H39611   2.045   1.760   9.557  2.8238  2.0030 -1.0350
 1012MOL0     H39612   1.910   2.019   9.644  2.5007  2.5712  1.2908
 1012MOL0     H39613   1.972   1.885   9.751 -4.2638  1.3021  0.8318
 1012MOL0     H39614   2.117   2.264   9.563 -0.8369  3.5986 -0.0435
 1012MOL0     H39615   2.212   2.581   9.697  0.6430 -0.8926  2.1072
 1012MOL0     H39616   2.042   2.566   9.682 -0.9592 -2.4249  0.5135
 1012MOL0     H39617   2.128   2.490   9.559  0.4753 -0.9676 -0.0245
 1012MOL0     H39618   2.311   2.431  10.327 -1.1141 -0.6579  1.4419
 1012MOL0     H39619   2.314   2.554  10.524  0.5588 -1.5944 -1.2335
 1012MOL0     H39620   2.242   2.982  10.429  0.6034 -1.8729 -0.2427
 1012MOL0     H39621   2.083   2.962  10.509 -0.7843 -0.0463  2.4597
 1012MOL0     H39622   2.344   3.022  10.629  0.3546  1.4934  0.9250
 1012MOL0     H39623   2.208   3.130  10.624 -2.6386 -0.2075  3.2084
 1012MOL0     H39624   2.204   3.059  10.843 -3.9675  2.3247  0.7445
 1012MOL0     H39625   2.214   2.889  10.811 -0.1163 -1.3037 -1.8841
 1012MOL0     H39626   1.996   2.907  10.693 -1.7811 -1.8870  1.8306
 1012MOL0     H39627   1.990   3.086  10.733 -1.5946 -1.3687 -2.6896
 1012MOL0     H39628   2.016   2.856  10.939  0.2154 -0.7156 -2.3308
 1012MOL0     H39629   1.987   3.029  10.963  0.8601  0.1065 -1.5860
 1012MOL0     H39630   1.780   2.853  10.833 -0.7488  0.1023 -0.6667
 1012MOL0     H39631   1.784   3.029  10.832 -0.5292 -0.6478 -1.2401
 1012MOL0     H39632   1.774   3.032  11.078  1.2908  0.4116 -0.7758
 1012MOL0     H39633   1.790   2.851  11.079 -0.1648  1.6417  1.4200
 1012MOL0     H39634   1.558   2.915  11.130  1.7868  1.0879  2.0223
 1012MOL0     H39635   1.564   2.839  10.970  0.9794 -0.2250  1.5504
 1012MOL0     H39636   2.105   2.873  10.316  1.0768  0.2250 -0.8011
 1012MOL0     H39637   2.101   2.743  10.113  2.0520 -1.0454 -1.1732
 1012MOL0     H39638   2.141   2.219  10.056 -0.9907 -2.4741  0.6144
 1012MOL0     H39639   2.082   2.032   9.912  0.0904 -0.9620 -1.1020
 1012MOL0     H39640   1.753   2.575   8.103  2.0798 -1.1755 -0.1367
 1012MOL0     H39641   1.628   2.747   8.120 -0.1858 -0.4290 -1.3540
 1012MOL0     H39642   1.409   3.019   8.269 -3.4439 -0.3629 -0.9578
 1012MOL0     H39643   1.204   3.146   8.217  1.2982  0.6655  0.8920
 1012MOL0     H39644   1.206   3.457   7.912 -1.9600  0.9211 -0.9776
 1012MOL0     H39645   1.159   3.310   7.820  1.9150 -1.1875  1.6907
 1012MOL0     H39646   0.982   3.471   7.808 -2.0679 -0.9766 -0.8763
 1012MOL0     H39647   0.971   3.487   7.985  0.9195 -1.7838  1.4611
 1012MOL0     H39648   0.937   3.220   7.825  0.5695 -0.1647 -0.5892
 1012MOL0     H39649   0.904   3.264   7.999 -1.2921  0.2733 -1.0091
 1012MOL0     H39650   0.707   3.247   7.889  2.8314 -1.7587 -1.6884
 1012MOL0     H39651   0.744   3.343   7.755 -0.1367 -1.6394 -0.6565
 1012MOL0     H39652   0.664   3.650   8.048 -0.9885 -1.3089  1.3263
 1012MOL0     H39653   1.396   3.328   7.885  3.0312  1.1184 -0.4627
 1012MOL0     H39654   1.730   3.263   7.984  1.4508 -1.7937 -0.6994
 1012MOL0     H39655   1.669   3.158   7.861 -2.2717  1.0543 -0.8488
 1012MOL0     H39656   1.631   3.328   7.848 -1.3145 -0.6489 -1.2235
 1013MOL0     O39657   3.511   2.421   2.907 -0.1862  0.2787  0.1761
 1013MOL0     C39658   3.486   2.470   2.797 -0.7038 -0.2188 -0.1205
 1013MOL0     O39659   3.570   2.495   2.686 -0.1927  0.0935 -0.9557
 1013MOL0     C39660   3.694   2.436   2.668  0.1367 -0.5473 -0.8857
 1013MOL0     C39661   3.732   2.314   2.717 -0.9244 -0.6881 -0.2519
 1013MOL0     C39662   3.853   2.255   2.688  0.0087 -0.1825 -0.4311
 1013MOL0     C39663   3.953   2.325   2.615  0.2065 -0.4784  0.6706
 1013MOL0     O39664   4.082   2.290   2.584 -0.1055 -1.6056  0.0991
 1013MOL0     C39665   4.144   2.191   2.656  1.3190 -0.2704 -0.3999
 1013MOL0     C39666   4.200   2.244   2.792  0.7303  0.0141  0.1448
 1013MOL0     C39667   4.276   2.378   2.786  0.0148 -0.2871 -0.8184
 1013MOL0     C39668   4.415   2.375   2.719 -0.3495 -0.8649 -0.0089
 1013MOL0     C39669   4.516   2.285   2.790  0.1621  0.2342  0.2653
 1013MOL0     C39670   4.651   2.287   2.713  1.3205  0.1974 -1.0641
 1013MOL0     C39671   4.740   2.199   2.806  0.1226 -0.7210 -0.0938
 1013MOL0     C39672   4.886   2.226   2.783 -0.1948  0.5104 -0.4511
 1013MOL0     N39673   4.930   2.349   2.849  0.5315  0.0114  0.3690
 1013MOL0     C39674   4.987   2.450   2.778  0.3018 -0.3336  0.4594
 1013MOL0     C39675   5.062   2.517   2.868  0.1566 -0.1062 -0.4249
 1013MOL0     C39676   5.158   2.625   2.831 -0.0105 -0.2833  0.7566
 1013MOL0     C39677   5.293   2.604   2.896 -1.5171 -0.2729  0.2981
 1013MOL0     C39678   5.375   2.486   2.837  0.0596  0.1771  0.4234
 1013MOL0     C39679   5.379   2.490   2.685  1.0771 -0.8517  0.2161
 1013MOL0     O39680   5.418   2.614   2.634  0.3404 -0.3359 -0.1149
 1013MOL0     C39681   5.546   2.658   2.638 -0.4456 -0.1807 -0.0532
 1013MOL0     C39682   5.583   2.785   2.601 -0.3939  0.2386 -0.4939
 1013MOL0     C39683   5.715   2.826   2.600  1.9114 -1.4454 -0.0756
 1013MOL0     C39684   5.730   2.960   2.537  0.1197 -0.2339 -0.5441
 1013MOL0     C39685   5.817   2.744   2.645  1.2438 -0.2416 -0.3623
 1013MOL0     C39686   5.960   2.784   2.652  0.1919 -0.2988  0.7820
 1013MOL0     O39687   6.041   2.723   2.754  0.8520  0.1774 -0.0202
 1013MOL0     C39688   6.171   2.745   2.738 -0.6708  0.1319 -0.2411
 1013MOL0     C39689   6.252   2.661   2.662  0.5207 -1.3325 -0.2993
 1013MOL0     C39690   6.393   2.679   2.651 -0.2930  0.3573 -0.3504
 1013MOL0     C39691   6.450   2.789   2.718  0.1440  0.9128 -0.6337
 1013MOL0     O39692   6.575   2.809   2.702  0.2748 -0.8053  0.6043
 1013MOL0     C39693   6.673   2.731   2.769  1.3453 -0.5078  0.3551
 1013MOL0     C39694   6.685   2.780   2.910 -0.3485  0.0398 -0.5276
 1013MOL0     C39695   6.784   2.677   2.975 -0.1621  0.0764  0.3856
 1013MOL0     C39696   6.816   2.698   3.128 -0.0193  0.5977  0.0552
 1013MOL0     C39697   6.889   2.570   3.176 -0.7222  0.1090 -0.6298
 1013MOL0     C39698   6.965   2.598   3.308 -0.1513 -0.3040 -0.0277
 1013MOL0     C39699   7.056   2.479   3.337 -0.1629 -0.6237 -0.7150
 1013MOL0     C39700   7.110   2.476   3.484  0.2687 -0.1016  0.3882
 1013MOL0    Cl39701   7.180   2.302   3.494 -0.2553  0.2912  0.2243
 1013MOL0     C39702   6.370   2.875   2.797 -0.1727 -0.0217  0.5510
 1013MOL0     C39703   6.227   2.854   2.802  0.2969 -0.2712 -0.3563
 1013MOL0     O39704   6.008   2.849   2.559  0.9416 -0.2600  0.4618
 1013MOL0     C39705   5.786   2.616   2.691 -0.5185 -0.6963 -0.0609
 1013MOL0     C39706   5.647   2.580   2.687 -0.4767  0.5907 -0.1559
 1013MOL0     N39707   5.038   2.460   2.993  0.4172  0.2822  0.2061
 1013MOL0     N39708   4.956   2.359   2.983 -0.3063  0.1221 -0.3620
 1013MOL0     C39709   3.915   2.449   2.565  1.3126  0.1059 -0.4326
 1013MOL0     C39710   3.785   2.501   2.581 -0.6376  0.0498  0.0924
 1013MOL0     C39711   3.354   2.528   2.775  0.1871  0.7157 -0.2882
 1013MOL0     C39712   3.339   2.642   2.704 -0.3711 -0.0291  0.1615
 1013MOL0     C39713   3.209   2.695   2.679 -0.5836  0.8427 -0.1890
 1013MOL0     C39714   3.099   2.647   2.736  0.1545 -0.4588  0.0457
 1013MOL0     O39715   2.980   2.711   2.716  0.4228  0.0832  0.1238
 1013MOL0     C39716   2.872   2.671   2.794  0.6426  0.4257 -0.5981
 1013MOL0     C39717   2.750   2.754   2.762 -0.1072  0.1282 -0.3603
 1013MOL0     C39718   2.638   2.717   2.855  0.0255 -0.1220 -0.3193
 1013MOL0     C39719   2.502   2.765   2.798 -0.1852 -0.3115  0.6087
 1013MOL0     C39720   2.382   2.704   2.846  0.8379  0.8150 -0.0675
 1013MOL0     C39721   2.284   2.654   2.889  0.2607 -0.7977  0.0404
 1013MOL0     C39722   3.111   2.534   2.812  0.1153  0.9446  0.9854
 1013MOL0     C39723   3.233   2.467   2.833  0.0163  0.1210 -0.1965
 1013MOL0     C39724   3.241   2.343   2.921  0.6003 -0.2352  0.0046
 1013MOL0     H39725   3.656   2.261   2.774  0.7071 -1.4394  1.3172
 1013MOL0     H39726   3.888   2.164   2.735 -2.1877 -1.9928 -2.0689
 1013MOL0     H39727   4.227   2.150   2.598  1.7592 -4.0902  2.5192
 1013MOL0     H39728   4.072   2.109   2.661 -0.6958  1.1466 -3.3385
 1013MOL0     H39729   4.120   2.250   2.866  1.2500 -0.8804  0.8074
 1013MOL0     H39730   4.271   2.174   2.838  0.9147 -1.0530 -1.6575
 1013MOL0     H39731   4.220   2.458   2.737  0.9535  0.0110 -1.4367
 1013MOL0     H39732   4.290   2.409   2.890 -0.7193  0.6283 -0.9752
 1013MOL0     H39733   4.391   2.343   2.617 -0.5168 -2.8255  0.6017
 1013MOL0     H39734   4.456   2.476   2.727  0.2758 -1.1632  0.6306
 1013MOL0     H39735   4.485   2.180   2.790  0.3181  0.1773  1.2861
 1013MOL0     H39736   4.514   2.313   2.896 -2.4439 -0.4959  0.4879
 1013MOL0     H39737   4.630   2.248   2.613 -0.1443  2.2602 -1.6468
 1013MOL0     H39738   4.683   2.392   2.713  0.1602  0.6613  1.7187
 1013MOL0     H39739   4.716   2.093   2.804  2.6730 -1.4068  1.0158
 1013MOL0     H39740   4.720   2.225   2.911  1.3423  0.2043 -0.0709
 1013MOL0     H39741   4.946   2.139   2.813 -2.7600 -0.7536  1.3269
 1013MOL0     H39742   4.914   2.231   2.677  0.8986  0.6632 -0.1731
 1013MOL0     H39743   4.975   2.477   2.673 -2.6163  4.5244  1.7057
 1013MOL0     H39744   5.124   2.721   2.870  1.7188 -0.1749  2.1301
 1013MOL0     H39745   5.164   2.620   2.722  2.7183 -1.2496  0.8630
 1013MOL0     H39746   5.356   2.693   2.902  2.1235 -2.7285  2.8987
 1013MOL0     H39747   5.272   2.581   3.001 -1.9736  1.1136  0.5270
 1013MOL0     H39748   5.475   2.480   2.879 -0.5729 -1.8204  1.7591
 1013MOL0     H39749   5.325   2.395   2.871  3.0007 -0.7781  2.5436
 1013MOL0     H39750   5.446   2.413   2.645  3.0269  2.1562 -2.8889
 1013MOL0     H39751   5.279   2.469   2.645  1.2934  1.4452 -1.7416
 1013MOL0     H39752   5.497   2.840   2.564 -1.5821 -1.8104 -0.9585
 1013MOL0     H39753   5.810   2.948   2.463  1.6410  0.7739  0.8469
 1013MOL0     H39754   5.777   3.024   2.612  2.5634 -2.2145 -0.2490
 1013MOL0     H39755   5.643   3.011   2.496 -0.1128 -2.4405 -3.0783
 1013MOL0     H39756   6.220   2.569   2.614  4.3353 -2.7003 -0.5050
 1013MOL0     H39757   6.454   2.602   2.605  1.9143  1.3999  0.6926
 1013MOL0     H39758   6.640   2.627   2.767  0.0774 -0.1140 -1.4515
 1013MOL0     H39759   6.767   2.728   2.713  0.2950 -1.0597 -1.4519
 1013MOL0     H39760   6.717   2.885   2.908 -1.4922  0.4499  0.9129
 1013MOL0     H39761   6.583   2.766   2.948 -1.0770  1.2437 -1.9032
 1013MOL0     H39762   6.873   2.669   2.913  1.4707 -1.7567  2.7842
 1013MOL0     H39763   6.732   2.581   2.971 -0.0020  0.0241 -0.7336
 1013MOL0     H39764   6.730   2.692   3.195  0.7185  0.5202  1.0092
 1013MOL0     H39765   6.872   2.790   3.148 -3.4340  2.2836  2.9446
 1013MOL0     H39766   6.822   2.485   3.192  0.3621 -1.2294 -2.7468
 1013MOL0     H39767   6.969   2.553   3.102  0.2144  0.3446  0.2995
 1013MOL0     H39768   6.901   2.627   3.391 -0.8710  1.6338 -1.2004
 1013MOL0     H39769   7.036   2.678   3.285  1.2969 -1.7433 -0.7818
 1013MOL0     H39770   7.132   2.485   3.258 -0.6934  1.4689 -1.1291
 1013MOL0     H39771   6.992   2.392   3.323 -0.4272 -0.6486  0.6033
 1013MOL0     H39772   7.025   2.495   3.549  0.2428  2.2460 -0.2359
 1013MOL0     H39773   7.185   2.556   3.478 -0.5971  0.7422  0.4914
 1013MOL0     H39774   6.411   2.957   2.854  1.2270  0.4244 -1.0106
 1013MOL0     H39775   6.165   2.913   2.868 -2.3629 -2.1530 -1.0135
 1013MOL0     H39776   5.861   2.542   2.717  0.3944 -0.7376 -2.6020
 1013MOL0     H39777   5.617   2.483   2.724  1.0179  0.1837  0.0466
 1013MOL0     H39778   3.990   2.504   2.509  2.2846 -0.4880  0.2404
 1013MOL0     H39779   3.757   2.595   2.534 -2.5669  0.5966  2.1704
 1013MOL0     H39780   3.426   2.690   2.660 -0.5412 -0.7821 -1.0722
 1013MOL0     H39781   3.204   2.795   2.638  1.5050  1.0488 -0.0561
 1013MOL0     H39782   2.844   2.565   2.785  3.7459 -0.9410  3.0996
 1013MOL0     H39783   2.904   2.676   2.899  0.2604  1.3925 -0.5180
 1013MOL0     H39784   2.731   2.744   2.655  2.8338  2.9756 -1.2775
 1013MOL0     H39785   2.777   2.859   2.773  2.0140 -0.4389  0.3103
 1013MOL0     H39786   2.639   2.609   2.873 -1.1353  0.2704  2.6870
 1013MOL0     H39787   2.650   2.770   2.950  1.0996  1.8574 -1.4981
 1013MOL0     H39788   2.506   2.751   2.689  1.7743 -1.3643  0.7630
 1013MOL0     H39789   2.497   2.872   2.816  0.3973 -0.4269  1.4860
 1013MOL0     H39790   2.187   2.614   2.910 -0.1183  0.6248  1.1280
 1013MOL0     H39791   3.028   2.491   2.866  1.5319  1.2921  3.6243
 1013MOL0     H39792   3.269   2.254   2.863 -3.1453 -1.5315 -0.0575
 1013MOL0     H39793   3.312   2.356   3.003  0.3674 -1.3110  0.3849
 1013MOL0     H39794   3.139   2.327   2.956 -0.0939  1.6055 -1.0010
 1014MOL0     O39795   9.353   2.264   5.088  0.2263  0.0291 -0.3763
 1014MOL0     C39796   9.327   2.379   5.126  0.2878 -0.2608  0.5131
 1014MOL0     O39797   9.404   2.490   5.113  0.0218  0.2649  0.7337
 1014MOL0     C39798   9.542   2.473   5.097 -0.3276  0.5199 -0.1713
 1014MOL0     C39799   9.617   2.422   5.206 -0.1392 -0.5837 -0.0682
 1014MOL0     C39800   9.755   2.423   5.210 -0.4249 -1.3137 -0.1000
 1014MOL0     C39801   9.826   2.460   5.092 -0.3003  0.9184  0.5386
 1014MOL0     O39802   9.966   2.452   5.102 -0.0693  0.6215  0.0759
 1014MOL0     C39803  10.027   2.551   5.020  0.0556 -0.5751 -0.8810
 1014MOL0     C39804  10.176   2.556   5.070 -0.5963  1.0663  0.3864
 1014MOL0     C39805  10.256   2.456   4.989 -0.0275  0.1331  0.0555
 1014MOL0     C39806  10.405   2.440   5.043 -0.0224  0.2571 -0.2121
 1014MOL0     C39807  10.478   2.337   4.963  0.1955  0.0601 -0.3384
 1014MOL0     C39808  10.626   2.308   4.989  0.6344 -0.2943 -0.7373
 1014MOL0     C39809  10.665   2.189   4.902  0.0343 -0.7123 -0.0095
 1014MOL0     C39810  10.821   2.186   4.873  0.0268 -0.3530 -0.9523
 1014MOL0     N39811  10.885   2.311   4.826 -0.3392  0.5966 -0.5149
 1014MOL0     C39812  10.903   2.336   4.688  0.5440  0.0214 -0.0657
 1014MOL0     C39813  10.988   2.440   4.695  0.9642  0.3196 -0.8557
 1014MOL0     C39814  11.025   2.523   4.572  0.1801  0.4757 -0.4217
 1014MOL0     C39815  11.135   2.619   4.588 -0.2296  0.6854 -0.4111
 1014MOL0     C39816  11.199   2.663   4.452  0.3923 -0.5777 -0.7592
 1014MOL0     C39817  11.319   2.761   4.477 -0.2739  0.1659 -0.2301
 1014MOL0     O39818  11.426   2.694   4.551  0.3757  0.0124  0.2127
 1014MOL0     C39819  11.545   2.765   4.549 -0.4104  0.3409 -0.2273
 1014MOL0     C39820  11.611   2.759   4.427 -0.1414 -0.2812  0.3063
 1014MOL0     C39821  11.742   2.803   4.416  0.0122  0.4225  0.0603
 1014MOL0     C39822  11.798   2.785   4.278  0.6033 -0.2553 -0.8738
 1014MOL0     C39823  11.809   2.873   4.522  0.2444 -0.5126  0.4640
 1014MOL0     C39824  11.939   2.949   4.515 -0.3213 -0.2250 -0.1253
 1014MOL0     O39825  11.976   3.023   4.628  0.5813 -0.1570 -0.4099
 1014MOL0     C39826  12.099   3.079   4.621  0.4505  0.4111  0.3441
 1014MOL0     C39827  12.201   3.032   4.698  0.3949 -0.1535 -0.0043
 1014MOL0     C39828  12.335   3.086   4.680  1.0118 -0.3279  0.0828
 1014MOL0     C39829  12.354   3.199   4.601  0.2402 -0.1695  0.1773
 1014MOL0     O39830  12.470   3.270   4.593  0.2400 -0.3298  0.0238
 1014MOL0     C39831  12.566   3.206   4.510  0.7149  0.6115 -0.1667
 1014MOL0     C39832  12.680   3.147   4.599  0.2945  0.0675  0.3644
 1014MOL0     C39833  12.738   3.248   4.699  0.2686  0.0392 -0.1451
 1014MOL0     C39834  12.832   3.352   4.630 -0.4213  0.1600 -0.3370
 1014MOL0     C39835  12.844   3.488   4.716  0.0916  0.0723  0.1589
 1014MOL0     C39836  12.927   3.594   4.642 -0.8415 -0.2089 -0.1139
 1014MOL0     C39837  12.923   3.730   4.721  1.2045  0.2637  0.5808
 1014MOL0     C39838  13.028   3.820   4.678 -0.7058 -0.4865 -0.3644
 1014MOL0    Cl39839  13.068   3.955   4.787  0.6799 -0.2082 -0.3128
 1014MOL0     C39840  12.243   3.256   4.535 -0.4515  0.5684  0.2025
 1014MOL0     C39841  12.118   3.193   4.539 -0.6314  0.1958  0.8932
 1014MOL0     O39842  11.997   2.946   4.410 -0.4084 -0.1479  0.2076
 1014MOL0     C39843  11.727   2.893   4.632 -0.4386 -0.3959  0.3844
 1014MOL0     C39844  11.604   2.841   4.652  0.0304  0.3921 -0.4847
 1014MOL0     N39845  11.016   2.474   4.824  0.5900  0.0103  0.2649
 1014MOL0     N39846  10.956   2.399   4.902  0.3180  0.2042  0.9582
 1014MOL0     C39847   9.756   2.505   4.975 -0.4290 -0.3576 -0.1900
 1014MOL0     C39848   9.613   2.510   4.982  0.4819 -0.5534 -0.9711
 1014MOL0     C39849   9.200   2.397   5.192  0.8659  0.2894  0.5244
 1014MOL0     C39850   9.112   2.286   5.183 -0.5217 -0.0691  0.4212
 1014MOL0     C39851   8.990   2.295   5.242  0.5890  0.0139  0.7166
 1014MOL0     C39852   8.936   2.410   5.307  0.3044  1.2852  0.5658
 1014MOL0     O39853   8.825   2.402   5.387 -0.4268  0.7551 -0.4926
 1014MOL0     C39854   8.789   2.517   5.468  0.1099 -0.8879  0.5073
 1014MOL0     C39855   8.696   2.614   5.395  0.8944 -0.6624 -0.0858
 1014MOL0     C39856   8.605   2.542   5.294 -0.1955  0.5184  0.6396
 1014MOL0     C39857   8.517   2.643   5.226  0.3916 -0.3516  1.3750
 1014MOL0     C39858   8.439   2.569   5.133 -0.0086  0.0663  0.4132
 1014MOL0     C39859   8.357   2.523   5.056  0.5597  0.2305  0.4194
 1014MOL0     C39860   9.021   2.518   5.307  0.2427 -0.4326 -0.3950
 1014MOL0     C39861   9.154   2.516   5.259 -0.5120  0.3868  0.2599
 1014MOL0     C39862   9.241   2.647   5.265  0.7699 -1.1036 -0.1631
 1014MOL0     H39863   9.573   2.410   5.305  0.5621  3.4117  0.9015
 1014MOL0     H39864   9.814   2.410   5.300 -0.7834  0.5510  0.4420
 1014MOL0     H39865   9.977   2.644   5.047 -1.4151 -1.0283 -1.9027
 1014MOL0     H39866  10.012   2.546   4.911  1.9280  0.2342 -1.2115
 1014MOL0     H39867  10.212   2.657   5.046 -1.7609  0.6766 -3.7958
 1014MOL0     H39868  10.177   2.524   5.175 -0.3510 -2.2105 -0.5127
 1014MOL0     H39869  10.204   2.360   4.990 -0.9534  0.4682  4.7207
 1014MOL0     H39870  10.272   2.493   4.887 -0.6555 -0.5247 -0.2886
 1014MOL0     H39871  10.461   2.534   5.034  1.6602 -0.8279 -1.4821
 1014MOL0     H39872  10.392   2.418   5.150 -1.0649 -0.5534 -0.4853
 1014MOL0     H39873  10.471   2.380   4.863  0.5198  0.8189 -0.0347
 1014MOL0     H39874  10.417   2.246   4.978 -0.1284  0.3492  0.1539
 1014MOL0     H39875  10.685   2.398   4.971  2.1138 -1.1112 -0.1072
 1014MOL0     H39876  10.635   2.284   5.095  0.1973  2.7936  0.1144
 1014MOL0     H39877  10.626   2.191   4.800  1.3529 -0.5005 -0.5377
 1014MOL0     H39878  10.636   2.101   4.959 -1.5645  0.5408  1.2173
 1014MOL0     H39879  10.873   2.170   4.968 -1.8215 -1.4518 -0.0861
 1014MOL0     H39880  10.854   2.097   4.818  2.5662 -0.7642  0.9896
 1014MOL0     H39881  10.870   2.285   4.599 -0.9319  1.2146 -0.2416
 1014MOL0     H39882  10.935   2.578   4.541  0.9118  0.5470 -2.6069
 1014MOL0     H39883  11.042   2.456   4.487 -2.8368  0.8669 -1.4568
 1014MOL0     H39884  11.093   2.707   4.637 -1.7748 -0.8248  1.1240
 1014MOL0     H39885  11.210   2.572   4.652 -1.4513 -1.2116 -0.3063
 1014MOL0     H39886  11.241   2.570   4.412  0.4408 -0.8434 -0.1059
 1014MOL0     H39887  11.124   2.700   4.381  0.2306  0.6541  0.0277
 1014MOL0     H39888  11.351   2.810   4.385  0.1309  2.7771  1.1896
 1014MOL0     H39889  11.288   2.844   4.540 -0.4235 -1.5375  2.0921
 1014MOL0     H39890  11.568   2.710   4.341  1.9853 -0.7553 -0.5630
 1014MOL0     H39891  11.723   2.744   4.210  1.0767 -0.0051 -1.5679
 1014MOL0     H39892  11.879   2.712   4.287 -1.4772 -2.6045 -0.0334
 1014MOL0     H39893  11.836   2.878   4.233 -0.5809  0.4055 -0.5562
 1014MOL0     H39894  12.181   2.964   4.781  2.1754 -0.3577  0.3009
 1014MOL0     H39895  12.411   3.046   4.746  1.3182  1.0764  0.6347
 1014MOL0     H39896  12.525   3.126   4.447 -1.6370  1.4267  0.2271
 1014MOL0     H39897  12.602   3.277   4.436  0.8368 -0.7624 -1.4764
 1014MOL0     H39898  12.639   3.071   4.667  0.4645 -0.4013 -0.0558
 1014MOL0     H39899  12.747   3.098   4.529 -1.6041 -0.7998 -0.9480
 1014MOL0     H39900  12.801   3.195   4.771 -1.0812 -1.5000 -0.0611
 1014MOL0     H39901  12.659   3.302   4.752 -0.0763 -1.1616  0.5895
 1014MOL0     H39902  12.784   3.368   4.533 -4.3918 -1.3316  1.1744
 1014MOL0     H39903  12.934   3.312   4.624 -0.1231  0.5423  1.4720
 1014MOL0     H39904  12.741   3.523   4.724 -0.5737 -1.8190  0.3501
 1014MOL0     H39905  12.880   3.461   4.816 -0.2420 -1.4074 -0.1069
 1014MOL0     H39906  12.900   3.608   4.537  2.6917  0.8543 -1.0240
 1014MOL0     H39907  13.030   3.557   4.640 -0.8115 -0.4799 -5.1857
 1014MOL0     H39908  12.931   3.707   4.828 -0.7507 -0.8518  0.5284
 1014MOL0     H39909  12.824   3.773   4.704  1.1777  0.3125  0.8557
 1014MOL0     H39910  13.011   3.854   4.575 -1.0879  2.3853  0.5708
 1014MOL0     H39911  13.116   3.754   4.671 -1.8060 -2.0045 -0.4330
 1014MOL0     H39912  12.251   3.350   4.481 -0.6942 -0.1575 -1.1325
 1014MOL0     H39913  12.030   3.223   4.483 -0.2481 -0.4698 -0.0864
 1014MOL0     H39914  11.759   2.930   4.730 -1.3201 -2.0457  1.3386
 1014MOL0     H39915  11.543   2.869   4.737 -1.7648  0.5858 -1.7820
 1014MOL0     H39916   9.800   2.539   4.882 -2.6370 -1.6442 -1.8197
 1014MOL0     H39917   9.562   2.545   4.893  0.4560  1.2811 -0.2693
 1014MOL0     H39918   9.151   2.188   5.156  1.6412  0.8215  0.1118
 1014MOL0     H39919   8.939   2.199   5.243  2.1466 -0.8554  1.5782
 1014MOL0     H39920   8.728   2.481   5.551  0.1823 -1.7109  0.2155
 1014MOL0     H39921   8.883   2.557   5.506  1.4400  0.1223 -3.3640
 1014MOL0     H39922   8.754   2.690   5.342  1.1866  0.0267  1.1774
 1014MOL0     H39923   8.637   2.660   5.475  1.9048  0.7631 -0.1160
 1014MOL0     H39924   8.669   2.487   5.224 -0.3786 -0.7440  1.4294
 1014MOL0     H39925   8.541   2.469   5.345  0.8985 -1.1846 -0.3380
 1014MOL0     H39926   8.575   2.725   5.181 -1.5936  0.6904  0.5978
 1014MOL0     H39927   8.452   2.697   5.295  0.9774  3.0106 -0.4924
 1014MOL0     H39928   8.279   2.482   4.995  1.2380 -0.9450  0.3046
 1014MOL0     H39929   8.992   2.605   5.365 -1.5947 -1.8474  0.9365
 1014MOL0     H39930   9.318   2.638   5.342  0.9870  1.9537  0.1039
 1014MOL0     H39931   9.273   2.695   5.172  0.9094 -0.2146  0.3332
 1014MOL0     H39932   9.177   2.724   5.310  2.0353 -0.5340  0.7100
 1015MOL0     O39933   6.586   9.936   3.930 -0.3529  0.3372  0.7147
 1015MOL0     C39934   6.536   9.828   3.925 -1.1100 -0.0457 -0.0247
 1015MOL0     O39935   6.591   9.716   3.965  0.1553  0.4726 -0.1329
 1015MOL0     C39936   6.724   9.711   3.952 -0.3131 -0.1488 -0.3726
 1015MOL0     C39937   6.771   9.669   3.825  0.0032  0.6717 -0.4782
 1015MOL0     C39938   6.904   9.630   3.808 -0.8337 -0.9628 -0.5978
 1015MOL0     C39939   7.002   9.651   3.918  0.0581 -0.5128  0.1267
 1015MOL0     O39940   7.135   9.639   3.919 -0.3855  0.2748  0.5130
 1015MOL0     C39941   7.206   9.640   3.788 -0.4772 -0.1339  0.4283
 1015MOL0     C39942   7.349   9.614   3.788  0.3279 -1.4595 -0.3552
 1015MOL0     C39943   7.426   9.738   3.843  0.7393  0.0319 -0.6374
 1015MOL0     C39944   7.531   9.704   3.943  0.6830  0.1909  0.1899
 1015MOL0     C39945   7.617   9.831   3.972 -0.1276  0.4067  0.4993
 1015MOL0     C39946   7.739   9.798   4.059  1.0359  0.0562 -0.2643
 1015MOL0     C39947   7.825   9.917   4.088  1.1908  0.1435 -0.5063
 1015MOL0     C39948   7.914   9.966   3.973  0.0092  0.0662 -0.7236
 1015MOL0     N39949   7.990  10.088   4.005 -0.4316 -0.3248  0.0854
 1015MOL0     C39950   8.124  10.114   3.997 -0.1155 -0.4373  0.5636
 1015MOL0     C39951   8.129  10.243   4.051 -0.1308  0.8860 -0.3698
 1015MOL0     C39952   8.246  10.321   4.089  0.0582 -0.1516 -0.3991
 1015MOL0     C39953   8.353  10.236   4.153 -1.1039 -0.0965 -0.6248
 1015MOL0     C39954   8.476  10.328   4.175 -0.4572 -0.2112 -0.3674
 1015MOL0     C39955   8.464  10.461   4.251  0.3348 -0.3907 -0.7626
 1015MOL0     O39956   8.591  10.512   4.292  0.0800 -0.2649 -0.4977
 1015MOL0     C39957   8.647  10.482   4.416 -0.5553  1.3230  0.5195
 1015MOL0     C39958   8.762  10.555   4.456  0.9104  0.0231  1.0569
 1015MOL0     C39959   8.813  10.530   4.581  0.6113  0.1847  0.7075
 1015MOL0     C39960   8.937  10.610   4.611  0.1834  0.3358  1.1944
 1015MOL0     C39961   8.755  10.426   4.660  0.3252  0.6035  0.0245
 1015MOL0     C39962   8.805  10.400   4.799  0.1700 -0.0408  0.4378
 1015MOL0     O39963   8.766  10.289   4.862  0.3304 -1.0005  0.2903
 1015MOL0     C39964   8.809  10.272   4.991 -0.6954  0.1860 -0.6393
 1015MOL0     C39965   8.727  10.301   5.111 -0.2368 -0.9707 -0.5339
 1015MOL0     C39966   8.776  10.272   5.241 -0.1935  0.0167 -1.0883
 1015MOL0     C39967   8.909  10.229   5.258  0.5589 -1.2321 -0.4448
 1015MOL0     O39968   8.945  10.221   5.392 -0.0454 -0.0040 -0.3315
 1015MOL0     C39969   9.083  10.187   5.419 -0.0912  0.3121  0.5487
 1015MOL0     C39970   9.114  10.033   5.415  0.1007 -0.1606  0.2516
 1015MOL0     C39971   9.265  10.005   5.451  0.0231  0.2771  0.4480
 1015MOL0     C39972   9.345   9.971   5.321 -0.2183 -0.4267  0.1255
 1015MOL0     C39973   9.483   9.942   5.348 -0.9511 -0.2679  0.0095
 1015MOL0     C39974   9.560   9.909   5.223  0.0518  0.8694 -0.6984
 1015MOL0     C39975   9.506   9.804   5.131  1.1529 -0.1348  0.7080
 1015MOL0     C39976   9.600   9.798   5.007  0.2707  0.3294  0.3547
 1015MOL0    Cl39977   9.759   9.714   5.037  0.0804  0.4090  0.3276
 1015MOL0     C39978   8.982  10.202   5.146 -1.2010 -0.1575  1.1543
 1015MOL0     C39979   8.942  10.223   5.014 -0.1342  0.5968  0.2729
 1015MOL0     O39980   8.888  10.477   4.842 -0.1846 -0.4010  0.8070
 1015MOL0     C39981   8.650  10.349   4.613  0.8379  0.3243  0.0619
 1015MOL0     C39982   8.595  10.376   4.488 -0.6401 -0.4038  0.9093
 1015MOL0     N39983   8.001  10.283   4.085 -0.4763 -0.3274 -0.2219
 1015MOL0     N39984   7.919  10.192   4.054  0.5008 -0.0188  0.1278
 1015MOL0     C39985   6.950   9.722   4.029  0.6744 -0.1629  0.1368
 1015MOL0     C39986   6.815   9.744   4.051  1.4141  1.2395  1.4781
 1015MOL0     C39987   6.390   9.811   3.891  0.3472 -0.6007 -0.2799
 1015MOL0     C39988   6.348   9.682   3.855  0.3607  0.4349  0.0847
 1015MOL0     C39989   6.213   9.653   3.831  0.7791 -0.4257  0.2303
 1015MOL0     C39990   6.116   9.754   3.831 -0.3337 -0.3005 -0.3141
 1015MOL0     O39991   5.986   9.740   3.783  0.1331 -0.8665  0.4585
 1015MOL0     C39992   5.909   9.643   3.854 -1.6591  0.1360  0.7254
 1015MOL0     C39993   5.758   9.665   3.819 -0.7893  0.0002 -1.0932
 1015MOL0     C39994   5.723   9.690   3.669  0.1543  0.6517  0.1447
 1015MOL0     C39995   5.731   9.560   3.589  0.8392  0.3229  0.5876
 1015MOL0     C39996   5.638   9.461   3.651  0.4062  0.0315  0.1480
 1015MOL0     C39997   5.544   9.387   3.682  0.2120  0.5342  0.1752
 1015MOL0     C39998   6.163   9.881   3.866 -0.0794  0.0617 -0.4042
 1015MOL0     C39999   6.290   9.907   3.903 -0.0675  0.8204  0.0330
 1015MOL0     C40000   6.320  10.033   3.961  0.6245 -0.5002 -0.4367
 1015MOL0     H40001   6.697   9.658   3.746  0.1899 -0.1301 -0.5451
 1015MOL0     H40002   6.936   9.600   3.708 -3.0819  1.3907 -2.1634
 1015MOL0     H40003   7.189   9.733   3.733 -1.6284 -2.0070 -2.6403
 1015MOL0     H40004   7.179   9.557   3.723  2.1115 -0.2091 -0.6624
 1015MOL0     H40005   7.375   9.528   3.851  1.7735  0.5144  1.9620
 1015MOL0     H40006   7.381   9.591   3.686  2.9401  1.1953 -0.2976
 1015MOL0     H40007   7.473   9.790   3.759  1.3469  1.5030  0.5607
 1015MOL0     H40008   7.352   9.800   3.894 -0.6825 -1.6593 -0.5405
 1015MOL0     H40009   7.489   9.674   4.039  0.9002 -1.4678 -0.1914
 1015MOL0     H40010   7.595   9.629   3.894 -2.3098 -0.7564 -2.6325
 1015MOL0     H40011   7.561   9.912   4.019 -0.9040  1.2390 -1.7307
 1015MOL0     H40012   7.661   9.877   3.883  0.8284 -1.7764 -0.2296
 1015MOL0     H40013   7.698   9.753   4.150  1.5537 -0.5087 -0.3025
 1015MOL0     H40014   7.801   9.723   4.009  0.3569 -0.6450 -0.0760
 1015MOL0     H40015   7.890   9.901   4.174  1.9006  1.1951 -0.8213
 1015MOL0     H40016   7.763  10.000   4.121  0.9034 -0.6047  0.9333
 1015MOL0     H40017   7.989   9.887   3.961  1.1208  0.7359  1.3596
 1015MOL0     H40018   7.854   9.981   3.882  0.2608 -1.6979 -1.2201
 1015MOL0     H40019   8.198  10.046   3.957 -0.3593 -0.2099 -0.2900
 1015MOL0     H40020   8.215  10.396   4.163 -2.7970 -1.1937 -0.3784
 1015MOL0     H40021   8.276  10.371   3.997 -1.7940  2.8820  0.4967
 1015MOL0     H40022   8.330  10.188   4.248  0.4343 -2.5530 -1.4005
 1015MOL0     H40023   8.382  10.145   4.099  1.3452 -0.3043  0.8908
 1015MOL0     H40024   8.553  10.258   4.210 -0.2491 -0.5253 -1.4133
 1015MOL0     H40025   8.518  10.354   4.078  1.8125 -1.2027  0.2834
 1015MOL0     H40026   8.417  10.535   4.185  2.3470  1.0272 -0.6743
 1015MOL0     H40027   8.397  10.461   4.337  1.2311 -0.5895 -0.0552
 1015MOL0     H40028   8.785  10.631   4.383 -3.4177 -0.7968 -1.5700
 1015MOL0     H40029   8.956  10.692   4.541  1.0038 -0.5633  0.3311
 1015MOL0     H40030   9.026  10.546   4.614 -0.9551 -1.3619  0.7881
 1015MOL0     H40031   8.923  10.660   4.707 -2.9366  1.3081  0.3525
 1015MOL0     H40032   8.625  10.336   5.105 -0.3100 -1.1862 -0.5595
 1015MOL0     H40033   8.720  10.274   5.334  0.3076  0.0860 -0.7849
 1015MOL0     H40034   9.160  10.244   5.367 -1.3414  1.9772  0.4413
 1015MOL0     H40035   9.102  10.211   5.524  0.6428 -3.5345  1.4397
 1015MOL0     H40036   9.048   9.987   5.489 -0.3443  1.1210  0.6831
 1015MOL0     H40037   9.086   9.982   5.322 -0.5576 -0.9619  0.8813
 1015MOL0     H40038   9.277   9.916   5.514  0.4594 -2.2226 -2.8942
 1015MOL0     H40039   9.303  10.093   5.503 -0.0117 -0.6967  2.2124
 1015MOL0     H40040   9.335  10.054   5.250  0.0126 -0.6475 -0.1687
 1015MOL0     H40041   9.292   9.888   5.274 -2.0832  0.1526  1.1238
 1015MOL0     H40042   9.533  10.023   5.401  3.2445 -0.8421 -2.5993
 1015MOL0     H40043   9.483   9.854   5.414 -4.6566 -0.3509  0.1373
 1015MOL0     H40044   9.659   9.878   5.258  0.2675  0.5209 -1.5980
 1015MOL0     H40045   9.585   9.999   5.166  2.0098  0.3218 -0.7838
 1015MOL0     H40046   9.405   9.825   5.093  0.8131 -2.3915  0.2007
 1015MOL0     H40047   9.500   9.707   5.183 -2.8754 -2.2080 -2.9385
 1015MOL0     H40048   9.607   9.896   4.957  1.7575 -0.2393 -0.5976
 1015MOL0     H40049   9.554   9.739   4.927 -0.0983  4.4127 -2.8271
 1015MOL0     H40050   9.075  10.145   5.158 -1.5626 -0.9850  0.1633
 1015MOL0     H40051   8.994  10.183   4.928 -1.5245  1.5527 -1.0654
 1015MOL0     H40052   8.598  10.271   4.667 -0.1228  0.2062 -0.9834
 1015MOL0     H40053   8.505  10.329   4.450 -1.6133  1.2283  1.1039
 1015MOL0     H40054   7.027   9.739   4.103  0.4467 -3.7443  1.3746
 1015MOL0     H40055   6.769   9.769   4.147  1.0966  2.4368  1.0242
 1015MOL0     H40056   6.415   9.598   3.841  1.2021  1.4443 -2.4995
 1015MOL0     H40057   6.179   9.554   3.802 -1.2208  0.2926 -0.1162
 1015MOL0     H40058   5.939   9.545   3.817  3.0816  2.2527 -1.8962
 1015MOL0     H40059   5.930   9.656   3.961 -0.5589 -0.2018  0.5610
 1015MOL0     H40060   5.721   9.761   3.857 -2.0594 -0.8129 -0.1995
 1015MOL0     H40061   5.701   9.584   3.865 -1.9590  0.2049 -2.1351
 1015MOL0     H40062   5.619   9.724   3.661  0.6821  2.0846 -1.2811
 1015MOL0     H40063   5.784   9.773   3.631 -0.0477  0.6576 -0.1757
 1015MOL0     H40064   5.831   9.516   3.603  0.3113 -1.1530 -0.0439
 1015MOL0     H40065   5.704   9.571   3.484  2.1424 -2.3473 -0.1255
 1015MOL0     H40066   5.465   9.324   3.716 -1.8560  2.6065 -0.5722
 1015MOL0     H40067   6.094   9.963   3.879  1.9587  1.5717  1.5349
 1015MOL0     H40068   6.229  10.073   4.005 -2.7278 -2.2986 -5.0032
 1015MOL0     H40069   6.389  10.017   4.044  1.4629  1.4122 -0.6924
 1015MOL0     H40070   6.359  10.117   3.901 -0.1446 -2.4329 -3.8966
 1016MOL0     O40071   9.351   2.926   5.345 -0.2373  0.1251  0.0861
 1016MOL0     C40072   9.354   3.024   5.267 -0.2971  0.3550 -0.2702
 1016MOL0     O40073   9.249   3.103   5.235 -0.5394 -1.5669  0.9398
 1016MOL0     C40074   9.133   3.070   5.284  0.5051 -0.6256  0.2028
 1016MOL0     C40075   9.053   3.004   5.200  0.2725  0.4301 -0.7337
 1016MOL0     C40076   8.922   2.976   5.236  0.5020  0.2223 -0.6617
 1016MOL0     C40077   8.866   3.015   5.361  0.4468  0.3987  0.1796
 1016MOL0     O40078   8.733   2.978   5.387  0.2871 -0.4558 -0.0049
 1016MOL0     C40079   8.632   3.076   5.348  0.7751 -0.2208  0.2111
 1016MOL0     C40080   8.498   3.004   5.315  0.2169  0.2943 -0.4187
 1016MOL0     C40081   8.381   3.105   5.280  0.5428  0.4746 -0.3920
 1016MOL0     C40082   8.245   3.038   5.271  0.1222 -0.0765 -0.2203
 1016MOL0     C40083   8.211   2.952   5.147 -0.1530  0.2563  0.6816
 1016MOL0     C40084   8.078   2.886   5.161 -0.5004  0.2116  0.1984
 1016MOL0     C40085   8.023   2.850   5.019  0.4513 -0.0205 -1.0445
 1016MOL0     C40086   8.101   2.732   4.973  0.0655 -0.0945 -0.0202
 1016MOL0     N40087   8.037   2.686   4.852 -0.0924  1.2517 -0.3730
 1016MOL0     C40088   8.054   2.749   4.733  0.2988 -0.2005 -0.1446
 1016MOL0     C40089   7.995   2.676   4.646 -0.4125  0.2283 -0.1114
 1016MOL0     C40090   7.965   2.719   4.505 -0.3466 -0.6431 -0.0498
 1016MOL0     C40091   7.812   2.769   4.492 -0.5342 -0.0965  0.1154
 1016MOL0     C40092   7.770   2.902   4.555 -0.2881 -0.3130  0.5530
 1016MOL0     C40093   7.800   3.025   4.468 -0.1755 -0.5353  0.5590
 1016MOL0     O40094   7.936   3.029   4.423 -0.2822 -0.3495 -0.3602
 1016MOL0     C40095   8.036   3.079   4.500  0.8714 -0.0504  0.0088
 1016MOL0     C40096   8.023   3.146   4.619  0.3494  0.4949 -0.0598
 1016MOL0     C40097   8.147   3.184   4.688  0.3113 -0.8698  0.6468
 1016MOL0     C40098   8.123   3.257   4.816  0.1225  1.0537  0.0023
 1016MOL0     C40099   8.272   3.167   4.625 -0.1566  0.1216  0.1056
 1016MOL0     C40100   8.396   3.206   4.686 -0.8440 -0.1068  0.1170
 1016MOL0     O40101   8.402   3.194   4.823 -0.3602  0.5605  0.2153
 1016MOL0     C40102   8.515   3.247   4.885 -0.7444  0.0303 -0.0145
 1016MOL0     C40103   8.629   3.154   4.912  0.6623  0.0734 -0.1307
 1016MOL0     C40104   8.746   3.211   4.972  1.1319  0.1201  0.4410
 1016MOL0     C40105   8.756   3.346   5.003  0.3825  0.7721 -0.8244
 1016MOL0     O40106   8.857   3.408   5.070  0.1012 -0.1589 -0.0880
 1016MOL0     C40107   8.977   3.338   5.091  0.2628  0.4170 -0.9293
 1016MOL0     C40108   9.072   3.382   4.988  0.1339  0.1680 -0.4478
 1016MOL0     C40109   9.134   3.523   5.005  0.8227  1.0080  0.5018
 1016MOL0     C40110   9.215   3.550   4.873 -0.0341  0.1817 -0.2052
 1016MOL0     C40111   9.318   3.665   4.902  0.8809 -0.0941  0.0369
 1016MOL0     C40112   9.406   3.685   4.780  0.1494 -0.6909 -0.1623
 1016MOL0     C40113   9.492   3.817   4.794  0.7824 -0.3373  0.1921
 1016MOL0     C40114   9.575   3.819   4.670 -0.1177 -0.4622 -0.4875
 1016MOL0    Cl40115   9.711   3.704   4.669 -0.5834  0.5449 -0.2313
 1016MOL0     C40116   8.642   3.424   4.978  0.2331 -0.0292  0.2008
 1016MOL0     C40117   8.522   3.374   4.926  0.1573 -0.3131  0.0492
 1016MOL0     O40118   8.491   3.246   4.619 -0.1814  0.0264  0.3231
 1016MOL0     C40119   8.272   3.099   4.505 -0.8356  0.1404  0.0829
 1016MOL0     C40120   8.156   3.061   4.441  0.1918  0.1669 -0.4771
 1016MOL0     N40121   7.966   2.550   4.704  0.0573 -0.6028  0.5850
 1016MOL0     N40122   7.977   2.567   4.830 -0.5871  0.1824  0.7903
 1016MOL0     C40123   8.956   3.072   5.451  0.0010  1.1030 -0.8022
 1016MOL0     C40124   9.090   3.101   5.417  0.6606 -0.0653  0.6403
 1016MOL0     C40125   9.490   3.085   5.216  0.6309  0.2615 -0.4889
 1016MOL0     C40126   9.504   3.223   5.178  0.5238  0.8122 -1.1008
 1016MOL0     C40127   9.626   3.275   5.131 -0.2742  0.4357 -0.6404
 1016MOL0     C40128   9.745   3.200   5.116  1.7711 -0.0456 -0.0081
 1016MOL0     O40129   9.853   3.267   5.060 -0.4053  0.2381 -0.3739
 1016MOL0     C40130   9.976   3.206   5.041 -0.7146 -0.1355 -0.4516
 1016MOL0     C40131  10.026   3.241   4.901  0.3400  0.4105 -0.8273
 1016MOL0     C40132  10.166   3.195   4.877  1.2513 -0.6201 -0.7337
 1016MOL0     C40133  10.265   3.304   4.921 -0.2969 -0.2948 -0.3975
 1016MOL0     C40134  10.399   3.244   4.912 -0.4248 -0.2088  0.7829
 1016MOL0     C40135  10.510   3.202   4.889  0.4347  0.2173  0.0032
 1016MOL0     C40136   9.729   3.064   5.151 -0.5469  0.0149  0.7134
 1016MOL0     C40137   9.606   3.007   5.192  0.1634  0.3448  0.5063
 1016MOL0     C40138   9.606   2.854   5.215  0.2681  1.5224  0.8629
 1016MOL0     H40139   9.073   2.996   5.094  1.8667  0.3328 -0.4550
 1016MOL0     H40140   8.856   2.928   5.165  3.1654 -1.0312 -2.4576
 1016MOL0     H40141   8.658   3.128   5.256 -0.9086  2.6094  1.1965
 1016MOL0     H40142   8.609   3.149   5.426 -0.5594  3.2033 -3.1112
 1016MOL0     H40143   8.532   2.949   5.227  1.0786 -0.6964  0.4988
 1016MOL0     H40144   8.471   2.930   5.392 -1.8782  2.4102  1.0303
 1016MOL0     H40145   8.384   3.182   5.358  0.5273 -0.1486  0.2431
 1016MOL0     H40146   8.401   3.141   5.179 -2.2768 -0.7829 -1.5014
 1016MOL0     H40147   8.207   2.995   5.364 -2.2165  3.3114  0.5918
 1016MOL0     H40148   8.174   3.121   5.268 -2.5577 -2.2572 -2.0311
 1016MOL0     H40149   8.295   2.883   5.135 -0.7159 -0.7163  2.0822
 1016MOL0     H40150   8.209   3.021   5.062 -0.9041  1.4928  1.6665
 1016MOL0     H40151   8.086   2.793   5.217  2.7948 -1.1306 -2.2140
 1016MOL0     H40152   8.008   2.955   5.209  1.7886  2.1844  0.9184
 1016MOL0     H40153   8.018   2.934   4.948 -0.0995  2.4751  1.7654
 1016MOL0     H40154   7.922   2.811   5.029 -0.9398  3.2820 -0.7328
 1016MOL0     H40155   8.197   2.772   4.939  0.7447 -0.0972  1.7760
 1016MOL0     H40156   8.115   2.659   5.053 -0.9656  1.7364  1.9398
 1016MOL0     H40157   8.100   2.846   4.719 -2.0196  1.4793  2.6470
 1016MOL0     H40158   7.976   2.622   4.457 -0.4385  0.9510 -3.6492
 1016MOL0     H40159   8.024   2.796   4.453 -2.1945  1.1254  0.3026
 1016MOL0     H40160   7.781   2.779   4.387  3.2320 -0.3930 -1.1954
 1016MOL0     H40161   7.762   2.690   4.547 -1.5040 -0.6147 -1.4410
 1016MOL0     H40162   7.667   2.908   4.592 -0.0129 -0.7703  1.4176
 1016MOL0     H40163   7.836   2.902   4.643  1.1172 -2.2028 -0.4411
 1016MOL0     H40164   7.733   3.025   4.382 -0.1606 -0.6821  0.5462
 1016MOL0     H40165   7.762   3.110   4.526 -1.9893  2.0602 -3.8977
 1016MOL0     H40166   7.923   3.172   4.654  0.9523  1.0303  1.3656
 1016MOL0     H40167   8.148   3.186   4.896 -1.9565  0.0518 -0.1555
 1016MOL0     H40168   8.017   3.270   4.838  0.0794 -0.3894  0.7601
 1016MOL0     H40169   8.193   3.341   4.819  1.3394  0.2158 -2.1408
 1016MOL0     H40170   8.617   3.047   4.895 -1.4986  0.0739  0.9787
 1016MOL0     H40171   8.819   3.132   4.988  0.2748 -0.7118  0.3701
 1016MOL0     H40172   9.003   3.367   5.193 -0.6945  3.4974 -1.4753
 1016MOL0     H40173   8.970   3.229   5.085 -0.8443  0.4625 -0.6317
 1016MOL0     H40174   9.153   3.310   4.976  0.3783  0.7726 -2.8005
 1016MOL0     H40175   9.027   3.383   4.889  3.9569 -2.6821 -2.4846
 1016MOL0     H40176   9.198   3.524   5.094  1.5396  0.2629  0.0032
 1016MOL0     H40177   9.053   3.596   5.013 -2.3280 -1.9100 -2.1768
 1016MOL0     H40178   9.156   3.573   4.784  1.8524  0.3607 -1.4839
 1016MOL0     H40179   9.278   3.463   4.851  0.2598 -0.5544  2.9574
 1016MOL0     H40180   9.267   3.751   4.947  2.5181  0.0234  1.8107
 1016MOL0     H40181   9.392   3.651   4.981  1.4716  0.5010 -0.3997
 1016MOL0     H40182   9.342   3.680   4.692 -2.8625 -0.7406  1.8689
 1016MOL0     H40183   9.479   3.604   4.776  1.5273  0.4786  0.2946
 1016MOL0     H40184   9.559   3.794   4.877 -0.6467 -1.5633  1.0680
 1016MOL0     H40185   9.436   3.911   4.791 -0.3175 -0.9597  0.6638
 1016MOL0     H40186   9.617   3.920   4.660  1.5814 -1.2815 -2.4150
 1016MOL0     H40187   9.518   3.809   4.578  0.0861  0.7641 -0.7691
 1016MOL0     H40188   8.656   3.527   5.010  3.2397 -0.6399  1.1585
 1016MOL0     H40189   8.436   3.436   4.903 -1.4774 -2.5015 -0.0882
 1016MOL0     H40190   8.363   3.080   4.449 -1.4106 -1.8781 -0.2580
 1016MOL0     H40191   8.165   3.017   4.342  3.0870 -0.0996 -0.1614
 1016MOL0     H40192   8.917   3.091   5.551  0.3128 -0.4492 -0.3562
 1016MOL0     H40193   9.164   3.153   5.477  1.1393  1.3085 -1.0551
 1016MOL0     H40194   9.423   3.293   5.196  1.1003  0.7942  2.2865
 1016MOL0     H40195   9.651   3.376   5.101  1.4309  0.0937 -0.4592
 1016MOL0     H40196  10.042   3.243   5.120 -0.3411 -4.3179  1.4559
 1016MOL0     H40197   9.976   3.099   5.062  0.1868 -0.0109  0.2618
 1016MOL0     H40198  10.016   3.348   4.883  3.3360  0.8785 -0.1464
 1016MOL0     H40199   9.966   3.191   4.824 -0.0026  0.5411 -0.6493
 1016MOL0     H40200  10.190   3.100   4.926  1.0749  1.7339  4.6492
 1016MOL0     H40201  10.165   3.181   4.768 -3.8716  2.1250 -1.3271
 1016MOL0     H40202  10.259   3.320   5.029  3.4822 -2.5398  0.3403
 1016MOL0     H40203  10.250   3.399   4.869  0.4107  0.0273 -0.0350
 1016MOL0     H40204  10.609   3.164   4.869  0.7102  0.5999  0.6100
 1016MOL0     H40205   9.802   2.985   5.139 -1.4379 -0.4681 -2.5614
 1016MOL0     H40206   9.689   2.811   5.159  0.2866  1.2545  1.0920
 1016MOL0     H40207   9.611   2.824   5.320 -2.4306 -2.9670 -0.0149
 1016MOL0     H40208   9.511   2.813   5.178  0.6299  1.7478 -0.3604
 1017MOL0     O40209   3.934   4.416   4.609 -0.0346 -0.0616 -1.1092
 1017MOL0     C40210   3.904   4.316   4.675  0.4611  0.2321  0.8113
 1017MOL0     O40211   3.839   4.321   4.796  0.6052 -0.1348  0.0005
 1017MOL0     C40212   3.810   4.449   4.840 -0.5158  0.2283  0.4231
 1017MOL0     C40213   3.905   4.510   4.922  0.7147 -0.1588  1.6462
 1017MOL0     C40214   3.892   4.644   4.951 -0.5338 -0.1792 -0.7101
 1017MOL0     C40215   3.771   4.718   4.925 -0.1142  0.7365  0.5019
 1017MOL0     O40216   3.768   4.853   4.949  0.0059 -0.2179  0.4425
 1017MOL0     C40217   3.680   4.928   4.866  0.1653 -1.0326 -0.4218
 1017MOL0     C40218   3.695   5.076   4.913 -0.9446  0.3954  0.9043
 1017MOL0     C40219   3.832   5.133   4.886  0.1162 -0.4758 -0.0639
 1017MOL0     C40220   3.848   5.275   4.942 -0.5657  0.3453 -0.5588
 1017MOL0     C40221   3.986   5.286   5.006  0.0821 -0.7074 -0.0779
 1017MOL0     C40222   4.102   5.268   4.898  1.1186 -1.0501 -0.6788
 1017MOL0     C40223   4.234   5.286   4.965  1.0156 -0.0742  0.3640
 1017MOL0     C40224   4.274   5.172   5.057  1.0586 -0.6318  0.4514
 1017MOL0     N40225   4.261   5.041   4.989  0.5888  0.1241  0.1017
 1017MOL0     C40226   4.322   5.009   4.867  0.7098 -0.2924 -0.7883
 1017MOL0     C40227   4.266   4.886   4.836 -0.2085  0.0076 -0.4475
 1017MOL0     C40228   4.287   4.793   4.712  0.3122 -0.8659 -0.9737
 1017MOL0     C40229   4.160   4.726   4.657  0.1536  1.0882  0.6383
 1017MOL0     C40230   4.034   4.814   4.652 -0.4622  0.2142  0.4965
 1017MOL0     C40231   3.915   4.744   4.585  0.1528  0.7622  0.2702
 1017MOL0     O40232   3.805   4.839   4.559 -1.1337  0.3848 -0.2909
 1017MOL0     C40233   3.688   4.791   4.502  0.7350 -0.6356 -0.3677
 1017MOL0     C40234   3.658   4.650   4.493  0.6427 -0.0576 -0.7988
 1017MOL0     C40235   3.535   4.601   4.443 -0.0182 -0.5873  0.3892
 1017MOL0     C40236   3.509   4.456   4.455 -0.4331 -0.0601  0.5024
 1017MOL0     C40237   3.437   4.687   4.389 -0.6377 -0.5796 -0.2543
 1017MOL0     C40238   3.309   4.633   4.335 -0.2145  0.7781 -0.2643
 1017MOL0     O40239   3.200   4.705   4.363 -0.6107 -0.4331  0.1022
 1017MOL0     C40240   3.082   4.673   4.302  0.0276 -1.0298  0.0762
 1017MOL0     C40241   2.984   4.611   4.381  0.0148  0.5354  0.6227
 1017MOL0     C40242   2.861   4.586   4.324 -0.0760 -0.8245 -0.2031
 1017MOL0     C40243   2.834   4.600   4.190  1.0110  0.5638  0.0261
 1017MOL0     O40244   2.705   4.573   4.141  0.1648 -0.2534 -0.3994
 1017MOL0     C40245   2.673   4.594   4.000  0.6884  0.0038  0.1921
 1017MOL0     C40246   2.536   4.537   3.987  0.0635 -0.3388 -0.0925
 1017MOL0     C40247   2.477   4.540   3.848  0.1297  0.2693  0.6875
 1017MOL0     C40248   2.333   4.496   3.844  0.6278 -0.3074 -0.0723
 1017MOL0     C40249   2.268   4.500   3.702 -0.5130 -0.2289  0.1669
 1017MOL0     C40250   2.131   4.431   3.675  0.8517 -0.6131  0.4667
 1017MOL0     C40251   2.081   4.448   3.528 -0.4879 -0.0915  0.0541
 1017MOL0     C40252   1.931   4.428   3.516  0.3859  0.4380  0.0894
 1017MOL0    Cl40253   1.895   4.258   3.554 -0.2328 -0.0445  0.3459
 1017MOL0     C40254   2.938   4.660   4.111  0.5328 -0.5017 -0.2049
 1017MOL0     C40255   3.057   4.700   4.167 -0.1530 -0.2201 -0.2132
 1017MOL0     O40256   3.310   4.526   4.272 -0.4196 -0.0540 -0.8345
 1017MOL0     C40257   3.466   4.827   4.391 -0.1590  0.8143  0.1680
 1017MOL0     C40258   3.585   4.870   4.446  0.8938  0.1613 -0.2279
 1017MOL0     N40259   4.178   4.847   4.942 -1.2513 -0.5249 -0.2122
 1017MOL0     N40260   4.179   4.940   5.035  0.1262  0.6503 -0.2124
 1017MOL0     C40261   3.672   4.646   4.856 -0.9381 -0.4243 -0.3619
 1017MOL0     C40262   3.687   4.514   4.818  0.2756 -1.0053 -0.9529
 1017MOL0     C40263   3.907   4.181   4.609  0.4678  0.4360  0.8715
 1017MOL0     C40264   3.887   4.168   4.466  0.9929  0.8808 -0.5538
 1017MOL0     C40265   3.889   4.042   4.403 -0.1932 -0.4777  0.4698
 1017MOL0     C40266   3.910   3.923   4.473 -1.0067  0.5253  0.1448
 1017MOL0     O40267   3.910   3.813   4.397 -1.4569 -0.4296  0.0627
 1017MOL0     C40268   3.818   3.717   4.438 -0.7066  0.6849  0.1687
 1017MOL0     C40269   3.670   3.765   4.420  0.2172 -0.3002 -0.0196
 1017MOL0     C40270   3.577   3.680   4.495  0.6313 -0.0881 -0.9459
 1017MOL0     C40271   3.553   3.723   4.646 -0.9863  1.3044  0.1338
 1017MOL0     C40272   3.661   3.672   4.729  0.5011 -0.3927  0.0188
 1017MOL0     C40273   3.752   3.647   4.802 -0.1921  0.3288  0.8492
 1017MOL0     C40274   3.919   3.936   4.611 -0.1994 -0.2314 -0.4445
 1017MOL0     C40275   3.916   4.061   4.685 -0.4804  0.0977  0.0930
 1017MOL0     C40276   3.926   4.047   4.833  0.1425  0.9046 -0.0844
 1017MOL0     H40277   3.998   4.461   4.945  1.3203 -0.7518 -1.5335
 1017MOL0     H40278   3.977   4.704   4.981  0.4267 -0.9013 -1.8833
 1017MOL0     H40279   3.576   4.897   4.870 -1.2523  3.1245 -0.7664
 1017MOL0     H40280   3.706   4.927   4.759 -1.4912 -0.7202 -0.8464
 1017MOL0     H40281   3.623   5.141   4.862 -1.2591 -2.0508 -2.0631
 1017MOL0     H40282   3.673   5.090   5.019  0.4835  0.5012  1.2105
 1017MOL0     H40283   3.906   5.062   4.925 -0.1576 -1.2606 -0.9346
 1017MOL0     H40284   3.851   5.126   4.779 -3.4718  0.7483 -0.9351
 1017MOL0     H40285   3.850   5.344   4.857 -0.1711 -0.0407 -0.8683
 1017MOL0     H40286   3.763   5.305   5.003 -1.1501  4.6479 -3.0383
 1017MOL0     H40287   4.001   5.218   5.091 -0.3697 -1.2936 -0.4557
 1017MOL0     H40288   4.000   5.385   5.050  0.9703 -1.2178  0.8506
 1017MOL0     H40289   4.095   5.170   4.849  2.2097 -0.3484 -2.3061
 1017MOL0     H40290   4.090   5.349   4.826 -2.1864 -2.6253 -2.1465
 1017MOL0     H40291   4.240   5.386   5.009 -1.5798 -0.3329  1.4812
 1017MOL0     H40292   4.307   5.291   4.884  0.8035  0.5178  0.2024
 1017MOL0     H40293   4.381   5.176   5.080  0.8619  1.3369  1.1867
 1017MOL0     H40294   4.211   5.165   5.146 -0.9304  1.8646 -0.6374
 1017MOL0     H40295   4.404   5.064   4.822  0.8935  0.8672  0.8832
 1017MOL0     H40296   4.351   4.711   4.747  1.1259 -0.1948 -0.8560
 1017MOL0     H40297   4.333   4.853   4.633  1.9899 -1.6754 -0.6608
 1017MOL0     H40298   4.195   4.701   4.557  2.1669  0.9676  1.3239
 1017MOL0     H40299   4.143   4.633   4.712  1.6538 -1.0357 -2.2790
 1017MOL0     H40300   3.996   4.838   4.752  0.4505 -2.0580  1.4738
 1017MOL0     H40301   4.054   4.906   4.596 -0.7207  0.0830  0.1828
 1017MOL0     H40302   3.943   4.696   4.491  0.1000  1.0946  0.0855
 1017MOL0     H40303   3.881   4.662   4.650  3.3150 -1.4593 -0.6622
 1017MOL0     H40304   3.720   4.568   4.528 -1.1558 -2.2298 -2.4054
 1017MOL0     H40305   3.418   4.439   4.513  1.0867 -2.7830  2.2821
 1017MOL0     H40306   3.585   4.397   4.508  1.2635  0.1428 -1.5407
 1017MOL0     H40307   3.514   4.416   4.353 -0.3288  0.3613  0.3409
 1017MOL0     H40308   2.999   4.603   4.488 -0.7852 -1.0799  0.6396
 1017MOL0     H40309   2.774   4.564   4.386 -0.3509 -0.2367 -0.3753
 1017MOL0     H40310   2.666   4.702   3.980  0.3347 -0.6734 -4.4962
 1017MOL0     H40311   2.739   4.552   3.924 -1.3773  0.7327 -2.1674
 1017MOL0     H40312   2.543   4.434   4.022 -0.0236 -0.1942  0.3583
 1017MOL0     H40313   2.465   4.577   4.060 -2.5122 -0.0424 -2.5667
 1017MOL0     H40314   2.537   4.476   3.782  1.0385  3.5610 -1.9242
 1017MOL0     H40315   2.489   4.643   3.814 -1.1717 -0.0424 -0.8109
 1017MOL0     H40316   2.276   4.561   3.911  0.6619 -1.1123  0.7638
 1017MOL0     H40317   2.342   4.394   3.882  2.9482 -0.0558  0.1651
 1017MOL0     H40318   2.256   4.605   3.675  0.2907 -0.9813 -3.5523
 1017MOL0     H40319   2.341   4.462   3.630 -0.3540  3.6259 -1.9574
 1017MOL0     H40320   2.070   4.499   3.735 -0.3474  3.1573 -4.3890
 1017MOL0     H40321   2.140   4.329   3.714  0.5464 -1.5335 -1.7400
 1017MOL0     H40322   2.134   4.381   3.459 -1.1254 -0.3726 -0.1743
 1017MOL0     H40323   2.101   4.551   3.497  2.5532 -0.1518  1.5269
 1017MOL0     H40324   1.900   4.438   3.411  0.9226 -0.9744 -0.2344
 1017MOL0     H40325   1.871   4.491   3.581 -0.9385 -1.5533  0.8845
 1017MOL0     H40326   2.916   4.687   4.008  0.5511 -0.6996 -0.2618
 1017MOL0     H40327   3.136   4.740   4.104  0.8499 -1.8605 -0.0764
 1017MOL0     H40328   3.401   4.901   4.345  2.6860  2.6846 -1.0552
 1017MOL0     H40329   3.602   4.978   4.446 -1.0147  0.5095  0.3022
 1017MOL0     H40330   3.574   4.690   4.842 -0.1827  1.0434 -1.2602
 1017MOL0     H40331   3.600   4.469   4.772 -0.0434 -0.6147 -0.7362
 1017MOL0     H40332   3.857   4.251   4.401 -0.9077 -1.5222 -2.9974
 1017MOL0     H40333   3.879   4.024   4.297 -0.7457 -0.4969  0.5255
 1017MOL0     H40334   3.826   3.626   4.377  3.2804  0.8215  0.2262
 1017MOL0     H40335   3.829   3.689   4.543  0.9911  2.0754  0.4029
 1017MOL0     H40336   3.640   3.773   4.315  0.1952  1.1890  0.0771
 1017MOL0     H40337   3.668   3.865   4.465  1.0713 -0.0247 -0.5684
 1017MOL0     H40338   3.477   3.695   4.453  1.0649  1.9670 -1.3556
 1017MOL0     H40339   3.600   3.574   4.481  0.2609 -0.3309  0.1640
 1017MOL0     H40340   3.456   3.684   4.677 -0.1089 -3.0089 -1.8897
 1017MOL0     H40341   3.541   3.831   4.665 -0.8443  1.5608 -1.1317
 1017MOL0     H40342   3.845   3.622   4.848  1.4362 -1.3434 -2.9046
 1017MOL0     H40343   3.936   3.845   4.667 -1.0158  1.1203  2.1910
 1017MOL0     H40344   3.949   3.947   4.873 -2.4606  1.2015  2.4459
 1017MOL0     H40345   4.007   4.114   4.863  0.6706  1.5175 -2.6067
 1017MOL0     H40346   3.833   4.076   4.881  1.1964  0.3806  2.4324
 1018MOL0     O40347  10.719   4.298   5.248 -0.6403  0.3797  0.2151
 1018MOL0     C40348  10.766   4.235   5.156 -0.2120  0.0820  0.8107
 1018MOL0     O40349  10.886   4.165   5.144 -0.9750  0.8630  0.2334
 1018MOL0     C40350  10.969   4.149   5.251 -0.7434  0.8862  0.3432
 1018MOL0     C40351  10.927   4.135   5.379  0.4528  0.4922 -0.8300
 1018MOL0     C40352  11.019   4.123   5.488  0.2942 -0.1737  0.4487
 1018MOL0     C40353  11.163   4.128   5.463 -0.3624  0.0077  1.1577
 1018MOL0     O40354  11.261   4.119   5.560  0.6031  0.3493 -0.4151
 1018MOL0     C40355  11.216   4.180   5.684  0.1798 -0.4894 -0.3174
 1018MOL0     C40356  11.336   4.211   5.775 -0.2543 -0.0176  0.3380
 1018MOL0     C40357  11.391   4.088   5.848  0.4409  1.1390  0.1687
 1018MOL0     C40358  11.543   4.097   5.871 -0.4805  0.6788  0.0498
 1018MOL0     C40359  11.563   4.190   5.988  0.0152  0.1027  0.0295
 1018MOL0     C40360  11.704   4.259   6.004  0.0141  0.3203  0.2107
 1018MOL0     C40361  11.720   4.369   5.896 -0.3253 -0.4285 -0.0824
 1018MOL0     C40362  11.798   4.497   5.931  0.3131  0.6366  0.6489
 1018MOL0     N40363  11.938   4.465   5.948  0.3833  0.3745  0.3605
 1018MOL0     C40364  12.035   4.488   5.859 -0.5290 -0.0080  0.9816
 1018MOL0     C40365  12.146   4.425   5.914  0.8695  0.3183 -0.1709
 1018MOL0     C40366  12.280   4.443   5.870 -0.9444  0.0420 -0.4994
 1018MOL0     C40367  12.384   4.461   5.980  0.6821  0.1557  0.6342
 1018MOL0     C40368  12.506   4.521   5.912 -0.8193  0.1907 -0.3512
 1018MOL0     C40369  12.624   4.534   6.009 -0.3145  0.3809 -0.6378
 1018MOL0     O40370  12.751   4.530   5.943 -0.2859  0.0897 -0.1174
 1018MOL0     C40371  12.865   4.584   5.999 -0.6037 -0.0721 -0.1757
 1018MOL0     C40372  12.892   4.697   6.075  0.5892 -0.4986  0.2338
 1018MOL0     C40373  13.013   4.733   6.117 -0.6791 -0.0838  0.3340
 1018MOL0     C40374  13.010   4.856   6.202  0.0159 -0.6074  0.0513
 1018MOL0     C40375  13.133   4.665   6.083 -0.2289  0.5214 -0.2369
 1018MOL0     C40376  13.267   4.722   6.123 -0.1890  0.1638  0.1806
 1018MOL0     O40377  13.376   4.642   6.090 -0.4435 -1.1580 -0.1375
 1018MOL0     C40378  13.492   4.672   6.157  0.2552 -0.1491  0.0099
 1018MOL0     C40379  13.615   4.700   6.097 -0.0881 -0.2743  0.0523
 1018MOL0     C40380  13.729   4.720   6.177  0.4644 -0.3707 -1.1296
 1018MOL0     C40381  13.729   4.704   6.318 -0.5708  0.0840 -0.1942
 1018MOL0     O40382  13.842   4.735   6.387  0.2139  0.5909  0.8408
 1018MOL0     C40383  13.871   4.657   6.501  0.3120  0.2907 -0.4457
 1018MOL0     C40384  14.024   4.641   6.527 -0.0005 -0.2383  0.4684
 1018MOL0     C40385  14.080   4.548   6.416 -0.0731 -0.0111  0.5320
 1018MOL0     C40386  14.233   4.534   6.435 -0.2682  0.1877 -0.4789
 1018MOL0     C40387  14.321   4.493   6.316 -0.5680 -0.0627  0.2908
 1018MOL0     C40388  14.307   4.335   6.271  0.1707  0.3301 -0.3047
 1018MOL0     C40389  14.421   4.295   6.185  0.4193  0.0270  1.0802
 1018MOL0     C40390  14.400   4.345   6.040  0.3398  0.0638  0.0640
 1018MOL0    Cl40391  14.516   4.271   5.927 -0.3789 -0.0530 -0.0434
 1018MOL0     C40392  13.609   4.659   6.372  1.7231  0.5715  0.1272
 1018MOL0     C40393  13.495   4.645   6.291 -0.0201 -0.6358 -0.0205
 1018MOL0     O40394  13.269   4.839   6.179  0.4475 -0.0694  0.4302
 1018MOL0     C40395  13.115   4.546   6.017  0.7719 -0.0274  0.7030
 1018MOL0     C40396  12.988   4.512   5.971  0.1847 -0.4548  0.3080
 1018MOL0     N40397  12.108   4.367   6.036  0.5122 -0.1460  0.2186
 1018MOL0     N40398  11.985   4.387   6.050  0.7567 -0.2922 -0.6027
 1018MOL0     C40399  11.203   4.130   5.331  0.3502  0.2435 -0.9781
 1018MOL0     C40400  11.111   4.144   5.227  0.3152  0.0141 -0.3576
 1018MOL0     C40401  10.677   4.220   5.039 -0.0557 -0.2229 -0.3193
 1018MOL0     C40402  10.733   4.171   4.919 -0.6106 -0.7551 -0.2905
 1018MOL0     C40403  10.653   4.159   4.804 -0.3907  0.1671 -0.3239
 1018MOL0     C40404  10.520   4.161   4.814  0.2497  0.1799  0.0413
 1018MOL0     O40405  10.441   4.144   4.700 -0.4852  0.8943  0.2475
 1018MOL0     C40406  10.345   4.033   4.709  0.2482 -0.2137  0.6350
 1018MOL0     C40407  10.249   4.048   4.584 -0.0831  0.5449  0.6052
 1018MOL0     C40408  10.176   4.185   4.588  0.3964 -0.2654  0.3786
 1018MOL0     C40409  10.092   4.205   4.714  0.5441  0.4174  0.2474
 1018MOL0     C40410  10.015   4.093   4.755 -0.0493  0.3935 -0.1869
 1018MOL0     C40411   9.966   3.984   4.786  0.5716 -0.5061  0.3182
 1018MOL0     C40412  10.461   4.199   4.932 -0.5597  0.4315  0.3134
 1018MOL0     C40413  10.537   4.239   5.045  0.1509  0.6731 -0.9687
 1018MOL0     C40414  10.460   4.256   5.176  0.5238 -0.3358 -0.0571
 1018MOL0     H40415  10.820   4.132   5.396 -0.0095 -0.3094 -3.3911
 1018MOL0     H40416  10.980   4.096   5.585  1.0017 -1.7376  0.3208
 1018MOL0     H40417  11.147   4.114   5.736  0.3475  1.2448  2.3051
 1018MOL0     H40418  11.159   4.273   5.676  1.9312  0.7832  0.9902
 1018MOL0     H40419  11.420   4.247   5.715  1.6138  0.9956  3.3232
 1018MOL0     H40420  11.314   4.288   5.850 -0.4144  0.5436 -0.2751
 1018MOL0     H40421  11.334   4.074   5.940  1.7601  0.5660  0.9124
 1018MOL0     H40422  11.362   4.001   5.788  1.2128  2.4310 -2.2044
 1018MOL0     H40423  11.583   4.000   5.903 -0.2770  0.6749 -0.2131
 1018MOL0     H40424  11.592   4.128   5.778  4.7485 -3.5951  0.8809
 1018MOL0     H40425  11.552   4.136   6.082  2.0587  0.1464  0.3354
 1018MOL0     H40426  11.487   4.269   5.988 -2.8268 -2.4402 -0.1513
 1018MOL0     H40427  11.711   4.303   6.103  2.7654  0.5404  0.0150
 1018MOL0     H40428  11.786   4.188   6.021 -1.7642 -1.1425  3.5379
 1018MOL0     H40429  11.623   4.394   5.852 -0.1030 -2.8104 -2.2216
 1018MOL0     H40430  11.760   4.326   5.803  0.3933 -2.6897  1.2133
 1018MOL0     H40431  11.783   4.567   5.849  2.0670  1.9402  1.3700
 1018MOL0     H40432  11.753   4.533   6.024 -1.1521 -0.7223  0.5120
 1018MOL0     H40433  12.031   4.553   5.772  2.5335 -0.8703  0.0901
 1018MOL0     H40434  12.289   4.531   5.805 -0.1748 -0.1376 -0.6462
 1018MOL0     H40435  12.316   4.347   5.832  0.8909 -1.8603  5.0221
 1018MOL0     H40436  12.348   4.524   6.062 -0.2274 -2.9858  2.8193
 1018MOL0     H40437  12.399   4.361   6.021 -1.0626 -1.4994 -2.4692
 1018MOL0     H40438  12.532   4.466   5.821  1.2962 -0.2794  0.4807
 1018MOL0     H40439  12.485   4.626   5.894  1.1966  1.0992  1.9993
 1018MOL0     H40440  12.607   4.621   6.074 -1.7861  0.8459 -1.6064
 1018MOL0     H40441  12.637   4.441   6.065  5.5382 -0.4091 -2.5749
 1018MOL0     H40442  12.809   4.763   6.098  1.4091 -0.1489  2.3727
 1018MOL0     H40443  13.064   4.938   6.155  0.2253 -1.9233 -2.1300
 1018MOL0     H40444  13.059   4.839   6.299  2.2912  1.3910 -0.6287
 1018MOL0     H40445  12.909   4.893   6.220  1.8514  4.1158  2.5150
 1018MOL0     H40446  13.624   4.712   5.990  3.0655  0.2481  0.2815
 1018MOL0     H40447  13.825   4.742   6.131 -0.4864  1.5806 -2.2823
 1018MOL0     H40448  13.842   4.722   6.584 -0.8725  2.3900 -2.3899
 1018MOL0     H40449  13.813   4.565   6.515  0.5699  0.2500  0.3786
 1018MOL0     H40450  14.074   4.737   6.516  1.9354 -1.2961 -0.5461
 1018MOL0     H40451  14.042   4.597   6.626  0.0924  1.9095  1.4611
 1018MOL0     H40452  14.068   4.592   6.316  1.5628  1.1678  0.8192
 1018MOL0     H40453  14.042   4.445   6.419  1.6279 -0.7750 -1.3719
 1018MOL0     H40454  14.257   4.459   6.511  0.7977  0.9084 -0.0868
 1018MOL0     H40455  14.273   4.629   6.472  0.2324  1.1890 -3.3495
 1018MOL0     H40456  14.304   4.556   6.228 -2.1993 -1.5728 -0.5283
 1018MOL0     H40457  14.426   4.502   6.346 -0.3125 -0.8742 -0.3216
 1018MOL0     H40458  14.208   4.322   6.226 -0.9309  4.6658  0.4105
 1018MOL0     H40459  14.313   4.281   6.366 -2.5473 -0.9467 -0.7607
 1018MOL0     H40460  14.418   4.186   6.179 -0.3488  0.0660  0.7539
 1018MOL0     H40461  14.517   4.325   6.229  0.5875 -1.1535  1.5577
 1018MOL0     H40462  14.430   4.449   6.019  1.1730 -0.6659 -2.8291
 1018MOL0     H40463  14.296   4.333   6.009  0.3106 -0.4766  0.3561
 1018MOL0     H40464  13.592   4.643   6.478 -0.2468  1.6716  0.0213
 1018MOL0     H40465  13.397   4.613   6.325 -0.7020  1.0782 -0.2862
 1018MOL0     H40466  13.200   4.482   5.998  0.0838 -0.5667 -0.7615
 1018MOL0     H40467  12.968   4.432   5.900 -2.2782  2.3399 -2.4473
 1018MOL0     H40468  11.307   4.130   5.301  1.0299  1.0690  1.2453
 1018MOL0     H40469  11.148   4.135   5.126  0.0384  1.0798 -0.5658
 1018MOL0     H40470  10.841   4.169   4.927 -0.7284 -0.7135  1.9632
 1018MOL0     H40471  10.704   4.142   4.710  4.0972  1.4599  1.5913
 1018MOL0     H40472  10.397   3.938   4.693  0.6079  0.2557 -1.2720
 1018MOL0     H40473  10.288   4.033   4.802 -1.5724  2.2288 -0.3749
 1018MOL0     H40474  10.177   3.967   4.575 -0.1202  0.7525 -1.1786
 1018MOL0     H40475  10.312   4.047   4.495  4.0931  2.0115  3.2660
 1018MOL0     H40476  10.248   4.266   4.575 -3.0205  2.6688 -2.3018
 1018MOL0     H40477  10.110   4.195   4.502 -1.0729  0.7776  1.5815
 1018MOL0     H40478  10.024   4.290   4.704 -1.4457 -1.1198  0.2850
 1018MOL0     H40479  10.158   4.227   4.799 -0.3151  0.1660  0.9988
 1018MOL0     H40480   9.922   3.887   4.798 -0.9707  0.1199  0.0295
 1018MOL0     H40481  10.352   4.205   4.932 -0.5515  1.6900  2.4201
 1018MOL0     H40482  10.504   4.193   5.254  0.7351 -1.8395 -1.3379
 1018MOL0     H40483  10.482   4.361   5.196 -2.9650  0.0904  2.2171
 1018MOL0     H40484  10.351   4.254   5.176  0.4937  0.7543 -0.1953
 1019MOL0     O40485   5.783  11.003   2.953 -0.1902 -0.4009 -0.2969
 1019MOL0     C40486   5.887  11.021   2.888 -0.4817  0.1004 -0.3928
 1019MOL0     O40487   5.939  11.146   2.861 -0.0796 -0.2160 -0.2140
 1019MOL0     C40488   5.867  11.254   2.913 -0.3093  0.6747  0.1944
 1019MOL0     C40489   5.750  11.301   2.848 -1.1746 -0.3560 -0.0358
 1019MOL0     C40490   5.676  11.406   2.905  0.1586 -0.1921  1.3333
 1019MOL0     C40491   5.716  11.457   3.026 -0.3962 -0.0998  0.1818
 1019MOL0     O40492   5.658  11.565   3.088 -0.2311 -0.0409 -0.7983
 1019MOL0     C40493   5.556  11.542   3.183  0.3138  0.2561  0.2124
 1019MOL0     C40494   5.521  11.663   3.268  0.0869 -0.9431 -0.4116
 1019MOL0     C40495   5.437  11.609   3.386  0.6846  0.2428  0.6392
 1019MOL0     C40496   5.357  11.725   3.445  0.7986  0.7847  0.0609
 1019MOL0     C40497   5.256  11.683   3.555 -0.1562 -0.1857  0.6446
 1019MOL0     C40498   5.148  11.793   3.585 -0.2070  0.0790  0.6972
 1019MOL0     C40499   5.008  11.739   3.617  0.1419  0.5600 -0.6588
 1019MOL0     C40500   4.926  11.688   3.500 -0.1664  0.1497 -0.1718
 1019MOL0     N40501   4.788  11.641   3.532 -0.2938 -0.6966  0.1699
 1019MOL0     C40502   4.674  11.704   3.499 -0.2461  0.3537 -0.5787
 1019MOL0     C40503   4.571  11.632   3.561 -0.3370  1.0753  0.1900
 1019MOL0     C40504   4.426  11.672   3.566  1.6318  0.5707 -0.9105
 1019MOL0     C40505   4.378  11.667   3.710 -0.0546 -0.1348 -0.3982
 1019MOL0     C40506   4.229  11.684   3.706 -0.0057 -0.1052 -0.2478
 1019MOL0     C40507   4.160  11.661   3.846 -0.0003  0.1942 -0.4518
 1019MOL0     O40508   4.208  11.742   3.954 -0.1380 -0.0948 -0.0603
 1019MOL0     C40509   4.184  11.709   4.085  0.1851  0.9329  0.0912
 1019MOL0     C40510   4.282  11.735   4.188 -0.3504 -1.1183 -0.3860
 1019MOL0     C40511   4.249  11.709   4.322  0.4534  0.0132  0.0965
 1019MOL0     C40512   4.352  11.746   4.421  0.1967 -0.8192  0.6774
 1019MOL0     C40513   4.117  11.657   4.363 -0.8363  0.2020 -0.0307
 1019MOL0     C40514   4.082  11.629   4.507 -0.5294  0.0982  0.1725
 1019MOL0     O40515   3.986  11.530   4.515  0.4183  0.0354 -0.1321
 1019MOL0     C40516   3.907  11.516   4.625  0.1610  0.3829 -0.2379
 1019MOL0     C40517   3.787  11.576   4.623 -0.0006 -0.8024  0.2396
 1019MOL0     C40518   3.729  11.593   4.750  0.8764  0.3567 -0.0519
 1019MOL0     C40519   3.774  11.521   4.871  0.0022 -0.0839 -0.3370
 1019MOL0     O40520   3.685  11.514   4.976 -0.2629  0.3554  0.0411
 1019MOL0     C40521   3.744  11.475   5.098  0.3352  0.0186 -0.2016
 1019MOL0     C40522   3.631  11.486   5.195  0.3680  0.8211 -0.2334
 1019MOL0     C40523   3.581  11.635   5.211 -0.7175  0.6439  1.0392
 1019MOL0     C40524   3.457  11.654   5.298  0.5505 -0.6285  0.1895
 1019MOL0     C40525   3.336  11.598   5.223  0.0773 -0.7300  0.0737
 1019MOL0     C40526   3.246  11.708   5.171 -0.5217 -0.7182 -0.0029
 1019MOL0     C40527   3.100  11.662   5.154 -0.2250  0.5425 -0.0963
 1019MOL0     C40528   3.102  11.568   5.036  0.6266 -0.2047 -0.1278
 1019MOL0    Cl40529   2.926  11.522   5.002 -0.0474  0.1472 -0.2042
 1019MOL0     C40530   3.898  11.447   4.864  0.5562 -0.4266 -0.0211
 1019MOL0     C40531   3.958  11.453   4.745 -0.4268  0.3030  0.1019
 1019MOL0     O40532   4.134  11.683   4.606 -0.0277 -0.6235 -0.2745
 1019MOL0     C40533   4.030  11.620   4.259  0.1712 -1.0637 -0.4597
 1019MOL0     C40534   4.057  11.656   4.125 -0.2454 -0.7783 -0.4406
 1019MOL0     N40535   4.635  11.520   3.625  0.7947 -0.1575  0.4422
 1019MOL0     N40536   4.761  11.534   3.603 -0.2947  0.2706  0.2082
 1019MOL0     C40537   5.828  11.407   3.096 -0.2714  0.5833  0.8232
 1019MOL0     C40538   5.902  11.304   3.039 -0.1965  1.0426  0.5988
 1019MOL0     C40539   5.961  10.900   2.847  0.7375  0.2269 -0.5606
 1019MOL0     C40540   5.902  10.774   2.864 -0.4702 -0.2625  0.0978
 1019MOL0     C40541   5.969  10.659   2.846  0.2567  0.0213 -0.5976
 1019MOL0     C40542   6.104  10.656   2.808 -0.1228 -0.5360  0.0033
 1019MOL0     O40543   6.176  10.540   2.796  0.6745 -0.1154 -0.3843
 1019MOL0     C40544   6.108  10.415   2.829  0.0190 -0.4560  0.4134
 1019MOL0     C40545   6.101  10.380   2.979  0.4469 -0.4002  0.6985
 1019MOL0     C40546   6.023  10.250   2.997 -0.4296  0.8865 -0.7186
 1019MOL0     C40547   5.877  10.271   3.033  0.2698 -0.3048  0.3005
 1019MOL0     C40548   5.846  10.314   3.165  0.4145 -0.0926 -0.2812
 1019MOL0     C40549   5.849  10.349   3.278 -0.7118 -0.1626 -0.6803
 1019MOL0     C40550   6.163  10.782   2.786  0.1187  0.4146  0.8642
 1019MOL0     C40551   6.100  10.901   2.806  0.0715 -0.0104 -0.2406
 1019MOL0     C40552   6.182  11.027   2.797 -0.0459 -0.3066 -0.7141
 1019MOL0     H40553   5.728  11.252   2.754  2.3326 -0.6656 -0.8254
 1019MOL0     H40554   5.588  11.450   2.860 -0.4779 -1.5972  1.1759
 1019MOL0     H40555   5.581  11.454   3.242 -1.8355  0.1285  1.0292
 1019MOL0     H40556   5.467  11.532   3.119 -0.6301 -1.3519  1.6954
 1019MOL0     H40557   5.610  11.703   3.318  0.5727  0.2074 -2.1140
 1019MOL0     H40558   5.479  11.745   3.209  0.6347 -0.0800  0.3800
 1019MOL0     H40559   5.368  11.547   3.327 -2.3114  3.7408  0.1083
 1019MOL0     H40560   5.490  11.552   3.463 -0.3585 -0.5751  0.7705
 1019MOL0     H40561   5.424  11.797   3.493 -0.0796  1.4403  0.3365
 1019MOL0     H40562   5.306  11.780   3.365  1.7088  1.5381 -0.0202
 1019MOL0     H40563   5.317  11.657   3.642  2.6654  0.0440 -1.1372
 1019MOL0     H40564   5.207  11.590   3.523  4.7452 -3.5949  1.8559
 1019MOL0     H40565   5.190  11.858   3.661 -0.1912  4.1275 -2.4203
 1019MOL0     H40566   5.137  11.846   3.490 -0.0821 -1.3780 -0.1678
 1019MOL0     H40567   4.948  11.803   3.683 -3.2371 -2.0870 -0.8331
 1019MOL0     H40568   5.034  11.654   3.681  1.3267 -0.2266 -2.1379
 1019MOL0     H40569   4.907  11.773   3.435 -1.6375  1.5326  1.9582
 1019MOL0     H40570   4.991  11.612   3.454  1.4528 -1.0176  3.6393
 1019MOL0     H40571   4.669  11.793   3.437 -0.2937  2.0924  1.7729
 1019MOL0     H40572   4.356  11.605   3.516  1.8522  0.9709 -1.7786
 1019MOL0     H40573   4.407  11.771   3.524  1.6499  1.2166  0.5536
 1019MOL0     H40574   4.407  11.572   3.757 -0.4970 -1.4315 -2.6304
 1019MOL0     H40575   4.414  11.755   3.765 -0.0128 -0.9326  0.8838
 1019MOL0     H40576   4.205  11.788   3.683 -0.9800  0.2456  1.9925
 1019MOL0     H40577   4.183  11.608   3.642  0.9373 -1.3575  0.4956
 1019MOL0     H40578   4.051  11.676   3.850 -0.2264 -1.4903  0.7157
 1019MOL0     H40579   4.183  11.555   3.865  2.2473  0.9779  1.5790
 1019MOL0     H40580   4.385  11.762   4.164  0.3928 -3.0703  0.3952
 1019MOL0     H40581   4.320  11.832   4.480 -0.8801  0.5714 -1.7806
 1019MOL0     H40582   4.451  11.762   4.378 -0.4994  0.8968 -0.4098
 1019MOL0     H40583   4.374  11.666   4.492  3.1688 -0.4543  0.2994
 1019MOL0     H40584   3.744  11.624   4.536 -1.0103 -2.5594 -0.2788
 1019MOL0     H40585   3.642  11.657   4.746  1.8547  1.7550  0.5603
 1019MOL0     H40586   3.792  11.376   5.102 -0.9785 -0.6436 -0.1618
 1019MOL0     H40587   3.819  11.550   5.121  0.4981 -0.6912  1.7312
 1019MOL0     H40588   3.550  11.419   5.167 -0.3619  0.8309  1.7304
 1019MOL0     H40589   3.664  11.445   5.291 -0.3776 -0.9260 -0.7056
 1019MOL0     H40590   3.561  11.670   5.109 -1.8511  0.5331  1.2102
 1019MOL0     H40591   3.662  11.695   5.253  1.1944 -0.2598 -1.0984
 1019MOL0     H40592   3.461  11.762   5.313 -0.5752 -0.6246  0.4950
 1019MOL0     H40593   3.469  11.601   5.392  2.0731 -2.1775 -0.8169
 1019MOL0     H40594   3.362  11.531   5.141 -1.0656 -0.0115 -0.9121
 1019MOL0     H40595   3.278  11.540   5.295 -0.0107 -0.7057  0.0227
 1019MOL0     H40596   3.293  11.758   5.087 -0.9035  2.7631  1.6780
 1019MOL0     H40597   3.249  11.780   5.253  0.5978 -3.7888  2.8799
 1019MOL0     H40598   3.038  11.750   5.135  0.4383  0.7122 -1.6358
 1019MOL0     H40599   3.058  11.611   5.241  0.5651 -0.0482 -0.0545
 1019MOL0     H40600   3.163  11.480   5.061  0.8220 -0.1663 -0.4608
 1019MOL0     H40601   3.141  11.613   4.944 -0.3128 -1.2241 -1.0351
 1019MOL0     H40602   3.943  11.398   4.949 -1.7099 -3.3881 -0.3804
 1019MOL0     H40603   4.058  11.411   4.733 -0.7025 -0.2998 -0.1284
 1019MOL0     H40604   3.930  11.582   4.279 -0.0677 -1.4662 -2.2242
 1019MOL0     H40605   3.971  11.656   4.059 -1.3571 -0.8933  0.9639
 1019MOL0     H40606   5.857  11.441   3.195  2.5554  4.4697 -1.0641
 1019MOL0     H40607   5.971  11.254   3.106  2.2994  1.2315 -1.6744
 1019MOL0     H40608   5.801  10.782   2.904  0.0273 -0.4100  1.4288
 1019MOL0     H40609   5.906  10.575   2.874  0.4876  0.3253  0.8755
 1019MOL0     H40610   6.007  10.417   2.785  0.5483 -0.5990 -0.8443
 1019MOL0     H40611   6.171  10.333   2.793  0.1088 -0.6199  0.9328
 1019MOL0     H40612   6.048  10.450   3.044 -1.2741  0.7129 -1.7334
 1019MOL0     H40613   6.203  10.375   3.018  1.4615  2.7267 -1.1993
 1019MOL0     H40614   6.037  10.189   2.907  0.7765 -3.4525  2.0784
 1019MOL0     H40615   6.066  10.187   3.076  0.3592  1.6369 -0.5395
 1019MOL0     H40616   5.823  10.179   3.008  0.7032 -0.6274  0.5136
 1019MOL0     H40617   5.832  10.343   2.964  1.2860 -0.5166 -0.6289
 1019MOL0     H40618   5.862  10.382   3.379 -4.0197  0.7520 -0.4318
 1019MOL0     H40619   6.269  10.783   2.763  0.6707  1.7082  3.2264
 1019MOL0     H40620   6.285  11.007   2.766  0.6229  4.1267 -2.1823
 1019MOL0     H40621   6.154  11.101   2.721  0.0763  1.0805  0.5502
 1019MOL0     H40622   6.181  11.081   2.892 -1.8663 -1.6934  0.1198
 1020MOL0     O40623   0.691   9.188   8.324  0.4997  0.0734 -0.0077
 1020MOL0     C40624   0.619   9.253   8.402  0.4760  0.9971 -0.0032
 1020MOL0     O40625   0.630   9.264   8.531 -0.4750 -0.6694 -0.4830
 1020MOL0     C40626   0.742   9.201   8.582  0.2628 -0.4957 -0.2856
 1020MOL0     C40627   0.873   9.249   8.562  0.0674  0.0966  0.2707
 1020MOL0     C40628   0.975   9.175   8.615  0.3337 -0.7993  0.0874
 1020MOL0     C40629   0.952   9.061   8.684  0.8750  0.4499 -0.9084
 1020MOL0     O40630   1.063   8.989   8.727  1.0142  0.4691  0.2256
 1020MOL0     C40631   1.053   8.851   8.729 -0.1231  0.4921 -0.1683
 1020MOL0     C40632   1.181   8.775   8.707 -0.6925  0.6965 -0.1537
 1020MOL0     C40633   1.280   8.783   8.825 -0.8874  0.5377  0.9989
 1020MOL0     C40634   1.428   8.759   8.784 -0.5464  0.9181  0.3185
 1020MOL0     C40635   1.527   8.781   8.900 -0.0374  0.3545 -0.3383
 1020MOL0     C40636   1.670   8.762   8.843 -0.2239  0.5152 -0.3234
 1020MOL0     C40637   1.758   8.866   8.908 -0.7805  0.8990  0.4429
 1020MOL0     C40638   1.760   8.848   9.059 -0.5302 -0.2760 -0.5812
 1020MOL0     N40639   1.861   8.934   9.118 -0.2104  0.7446  0.7281
 1020MOL0     C40640   1.855   9.065   9.150 -0.2830 -0.7287 -0.2705
 1020MOL0     C40641   1.985   9.109   9.147  0.6920 -1.1329 -0.0361
 1020MOL0     C40642   2.049   9.248   9.173  0.2760 -0.0544 -0.0684
 1020MOL0     C40643   1.952   9.342   9.245 -0.5993 -0.1153 -0.2338
 1020MOL0     C40644   2.008   9.470   9.300  0.3289 -0.4696 -0.1725
 1020MOL0     C40645   2.049   9.558   9.179  0.9895  0.0258 -0.6714
 1020MOL0     O40646   1.956   9.551   9.067 -0.0997  0.7047  0.3596
 1020MOL0     C40647   1.829   9.591   9.082 -0.4027  0.2578 -0.4454
 1020MOL0     C40648   1.776   9.679   9.178 -0.1181  0.2017  0.2545
 1020MOL0     C40649   1.642   9.707   9.193 -0.4234 -0.9445  0.3879
 1020MOL0     C40650   1.597   9.789   9.311 -0.6541 -0.3505  0.1200
 1020MOL0     C40651   1.550   9.669   9.097 -0.2834 -0.3346 -0.7047
 1020MOL0     C40652   1.404   9.694   9.107  0.0526  0.4747 -0.8447
 1020MOL0     O40653   1.354   9.808   9.164  0.1554 -0.4781  0.6072
 1020MOL0     C40654   1.219   9.838   9.168 -0.7918 -0.4293  0.0545
 1020MOL0     C40655   1.101   9.780   9.121 -0.4882  0.2269  0.1858
 1020MOL0     C40656   0.977   9.832   9.137 -0.6353  0.0249  0.4320
 1020MOL0     C40657   0.965   9.955   9.203  0.9952 -0.1870  0.1628
 1020MOL0     O40658   0.849  10.032   9.207  0.1788 -0.2414  0.3420
 1020MOL0     C40659   0.735   9.991   9.131  0.0486 -0.3450  1.0219
 1020MOL0     C40660   0.623  10.093   9.117  0.4118  0.6511  0.6499
 1020MOL0     C40661   0.541  10.117   9.245  0.3716 -1.0904 -1.1631
 1020MOL0     C40662   0.425  10.212   9.203 -0.5175  0.3336 -0.2045
 1020MOL0     C40663   0.331  10.233   9.318 -0.8126 -0.5336 -0.1707
 1020MOL0     C40664   0.207  10.158   9.312  0.0263  0.2298 -1.0619
 1020MOL0     C40665   0.211  10.004   9.302  0.3252  0.1900 -0.5099
 1020MOL0     C40666   0.069   9.942   9.310  1.0966 -0.0328  0.1846
 1020MOL0    Cl40667   0.071   9.767   9.298  0.1289 -0.3338  0.0374
 1020MOL0     C40668   1.074  10.019   9.259 -0.0185 -0.1677 -1.2335
 1020MOL0     C40669   1.196   9.953   9.251 -0.2762 -0.0134 -0.4070
 1020MOL0     O40670   1.327   9.616   9.044 -0.0537 -0.2434 -0.2186
 1020MOL0     C40671   1.600   9.588   8.989  0.1104 -0.4283  0.1849
 1020MOL0     C40672   1.740   9.552   8.984  0.6554  0.3695  0.8968
 1020MOL0     N40673   2.068   9.005   9.131  0.3578 -0.1855  0.2541
 1020MOL0     N40674   1.992   8.901   9.113  0.0797 -0.6503  0.1450
 1020MOL0     C40675   0.824   9.008   8.705  0.5141 -1.4769  1.0656
 1020MOL0     C40676   0.718   9.082   8.653  0.0857 -0.3564 -0.0739
 1020MOL0     C40677   0.517   9.335   8.330 -0.5318 -1.5562  0.6338
 1020MOL0     C40678   0.491   9.311   8.191  0.6525 -0.1163  0.0647
 1020MOL0     C40679   0.385   9.384   8.130  1.3165 -0.1187  0.0201
 1020MOL0     C40680   0.319   9.495   8.200  0.0128 -0.1995 -0.1100
 1020MOL0     O40681   0.233   9.571   8.126 -0.1885  0.3081  0.3744
 1020MOL0     C40682   0.150   9.662   8.207 -0.1005  0.5929  0.0414
 1020MOL0     C40683   0.079   9.758   8.121 -0.0749  0.0288  0.1021
 1020MOL0     C40684   0.157   9.871   8.056 -0.1311 -1.0299 -0.5288
 1020MOL0     C40685   0.222   9.819   7.927  0.6460 -0.5038 -0.7534
 1020MOL0     C40686   0.133   9.791   7.819 -0.7248  0.1872  0.6625
 1020MOL0     C40687   0.043   9.768   7.736  0.0951 -0.1791 -0.4730
 1020MOL0     C40688   0.360   9.521   8.331 -0.2044 -0.1334 -0.2475
 1020MOL0     C40689   0.446   9.443   8.400  0.1351  0.7180 -0.3805
 1020MOL0     C40690   0.467   9.483   8.545 -0.2709  1.0781  0.5479
 1020MOL0     H40691   0.891   9.336   8.500 -1.0959 -0.1899 -0.5125
 1020MOL0     H40692   1.077   9.210   8.608  0.7521 -1.7262  1.1454
 1020MOL0     H40693   0.974   8.815   8.662  0.3126 -1.0406  0.0906
 1020MOL0     H40694   1.026   8.808   8.827 -0.7631 -2.3718 -1.4887
 1020MOL0     H40695   1.164   8.667   8.705  1.5461  0.1672  2.6451
 1020MOL0     H40696   1.221   8.822   8.617  1.5100  0.9473  0.8987
 1020MOL0     H40697   1.275   8.889   8.851  1.5474  0.7297  0.8897
 1020MOL0     H40698   1.253   8.723   8.912  1.5547 -0.8592  0.8727
 1020MOL0     H40699   1.442   8.656   8.750  0.5146  1.0482  0.3053
 1020MOL0     H40700   1.457   8.820   8.698 -1.4115 -1.1432 -1.5103
 1020MOL0     H40701   1.509   8.703   8.974 -0.1993  3.0310  2.6782
 1020MOL0     H40702   1.512   8.872   8.960  1.0641 -1.1860  2.5114
 1020MOL0     H40703   1.700   8.660   8.869  3.0633  1.2444 -0.8250
 1020MOL0     H40704   1.678   8.789   8.737  2.7491  1.0347 -0.0454
 1020MOL0     H40705   1.725   8.967   8.880  0.1653  1.1755  0.2768
 1020MOL0     H40706   1.861   8.856   8.872 -0.5961 -0.4700  1.3028
 1020MOL0     H40707   1.664   8.866   9.109 -0.7189 -0.8021 -0.7404
 1020MOL0     H40708   1.773   8.740   9.073 -1.5720 -0.4012 -0.4431
 1020MOL0     H40709   1.763   9.120   9.167 -1.1296 -1.6865 -1.5660
 1020MOL0     H40710   2.065   9.288   9.073 -1.2799 -0.4637 -0.5165
 1020MOL0     H40711   2.142   9.242   9.229  0.3171  0.5445 -0.0678
 1020MOL0     H40712   1.866   9.358   9.180 -0.2010 -1.0968 -1.0278
 1020MOL0     H40713   1.909   9.284   9.328 -0.9365 -1.3300 -1.2265
 1020MOL0     H40714   1.927   9.521   9.352  0.5230  0.8923 -1.1383
 1020MOL0     H40715   2.090   9.451   9.370  1.8338 -0.6544 -1.8899
 1020MOL0     H40716   2.062   9.661   9.212 -0.3201 -0.0489  0.1560
 1020MOL0     H40717   2.146   9.521   9.146  0.4160 -1.8430 -0.4158
 1020MOL0     H40718   1.836   9.715   9.262 -0.7687  2.6730 -0.2614
 1020MOL0     H40719   1.686   9.803   9.374 -0.4775  0.3528 -0.2729
 1020MOL0     H40720   1.515   9.751   9.373  0.7933  1.5714  3.4965
 1020MOL0     H40721   1.556   9.887   9.287  0.3375  0.3809  1.2853
 1020MOL0     H40722   1.106   9.683   9.074  1.1321 -0.6707  2.0644
 1020MOL0     H40723   0.899   9.771   9.091 -1.1127  0.9119  0.0496
 1020MOL0     H40724   0.774   9.967   9.032 -1.1315 -0.6694  0.6187
 1020MOL0     H40725   0.692   9.893   9.155  0.5080 -2.3186 -4.6660
 1020MOL0     H40726   0.679  10.178   9.077  1.1688 -0.5869 -1.0749
 1020MOL0     H40727   0.563  10.050   9.037  1.9918  0.9276 -0.7441
 1020MOL0     H40728   0.581  10.182   9.324 -3.5560  0.2306 -0.0531
 1020MOL0     H40729   0.498  10.024   9.283 -0.7162 -1.4537 -3.1894
 1020MOL0     H40730   0.371  10.172   9.116 -1.5292  1.4311 -0.0969
 1020MOL0     H40731   0.466  10.310   9.178  0.9511 -0.4658 -1.1183
 1020MOL0     H40732   0.380  10.222   9.416  1.6074  0.9751 -1.1137
 1020MOL0     H40733   0.295  10.336   9.329 -0.2157 -0.3796  0.4416
 1020MOL0     H40734   0.166  10.184   9.214 -0.1510  0.6177 -0.8864
 1020MOL0     H40735   0.146  10.194   9.395 -1.3441  0.4616 -2.1285
 1020MOL0     H40736   0.275   9.953   9.375  1.0079  2.5492  0.6142
 1020MOL0     H40737   0.252   9.968   9.206 -0.8505 -1.0692 -0.5670
 1020MOL0     H40738  -0.005   9.982   9.240 -0.2940  1.7557  2.5284
 1020MOL0     H40739   0.019   9.960   9.406 -1.1557  0.0788 -0.9436
 1020MOL0     H40740   1.065  10.117   9.304  1.1910 -0.6230  0.1116
 1020MOL0     H40741   1.286   9.987   9.302 -0.1262 -0.5645 -0.2984
 1020MOL0     H40742   1.535   9.552   8.909 -0.8887  0.2635  0.6703
 1020MOL0     H40743   1.780   9.495   8.901 -0.6867 -1.9511  1.7468
 1020MOL0     H40744   0.800   8.916   8.757  0.4902 -1.6355  0.7767
 1020MOL0     H40745   0.620   9.039   8.667  0.3901 -0.4913  1.8145
 1020MOL0     H40746   0.554   9.247   8.130  0.6946  1.3181 -1.4633
 1020MOL0     H40747   0.361   9.368   8.025 -0.2945  0.7105  0.2332
 1020MOL0     H40748   0.078   9.618   8.277 -0.2106  3.2237  1.6971
 1020MOL0     H40749   0.221   9.718   8.267  0.1386 -0.1846  0.5006
 1020MOL0     H40750   0.008   9.810   8.186 -1.9676  1.1292 -2.6540
 1020MOL0     H40751   0.016   9.708   8.047  1.7281 -1.9503 -0.1903
 1020MOL0     H40752   0.092   9.952   8.024  0.6448 -0.7546 -1.4600
 1020MOL0     H40753   0.241   9.900   8.120  0.4906 -0.7051 -1.4692
 1020MOL0     H40754   0.279   9.726   7.935 -1.3350 -1.8146 -1.3280
 1020MOL0     H40755   0.290   9.896   7.888  0.0568 -0.4765 -1.7387
 1020MOL0     H40756  -0.023   9.751   7.653  0.3486  1.7317 -1.1110
 1020MOL0     H40757   0.317   9.602   8.389  1.4909 -0.2032  1.2036
 1020MOL0     H40758   0.399   9.552   8.597 -0.9336 -1.0533  2.6925
 1020MOL0     H40759   0.458   9.398   8.614  2.5867  1.7776  1.9594
 1020MOL0     H40760   0.572   9.510   8.558  0.8499 -0.8769 -3.2006
 1021MOL0     O40761   7.171   3.718  10.578 -0.5649  0.2860 -0.5945
 1021MOL0     C40762   7.213   3.734  10.463 -0.1389 -0.2086 -0.3343
 1021MOL0     O40763   7.326   3.798  10.422  0.3310  0.2141  0.5767
 1021MOL0     C40764   7.412   3.851  10.515 -0.2952  0.5508  0.5344
 1021MOL0     C40765   7.456   3.984  10.517  0.5899  0.5643  1.2523
 1021MOL0     C40766   7.533   4.025  10.615  0.0509 -0.0401  0.3238
 1021MOL0     C40767   7.572   3.941  10.717  0.5445 -0.7998  0.3953
 1021MOL0     O40768   7.652   4.007  10.805  0.7883  0.5638 -0.3126
 1021MOL0     C40769   7.695   3.943  10.921 -0.6747  0.4641  0.0268
 1021MOL0     C40770   7.773   4.038  11.012  0.0675  0.4882  0.4604
 1021MOL0     C40771   7.859   3.980  11.118 -0.2770  0.1847 -0.1620
 1021MOL0     C40772   7.784   3.951  11.250 -0.6830  0.2647  0.6913
 1021MOL0     C40773   7.805   3.806  11.312  0.2668 -0.5925  0.4650
 1021MOL0     C40774   7.732   3.697  11.219  0.2166  0.1415 -0.1799
 1021MOL0     C40775   7.726   3.565  11.297  0.2642 -0.5031  0.0013
 1021MOL0     C40776   7.623   3.477  11.235 -0.3117  0.1057 -0.2602
 1021MOL0     N40777   7.633   3.345  11.303  0.6891 -0.4098 -0.3339
 1021MOL0     C40778   7.616   3.329  11.434  0.5442 -0.3914 -0.1122
 1021MOL0     C40779   7.647   3.201  11.455 -0.5453  1.5791 -0.4059
 1021MOL0     C40780   7.646   3.119  11.592  1.1068 -0.4628  0.5933
 1021MOL0     C40781   7.793   3.137  11.644 -0.3217 -0.2700 -1.5719
 1021MOL0     C40782   7.825   3.024  11.752 -0.0038 -0.0377 -0.4551
 1021MOL0     C40783   7.976   3.014  11.778 -0.7120  1.3557 -0.2390
 1021MOL0     O40784   8.044   3.129  11.834  0.0109  0.0148  0.3125
 1021MOL0     C40785   8.176   3.136  11.827 -0.6900 -0.2870 -0.5648
 1021MOL0     C40786   8.242   3.260  11.864 -0.5358 -0.2676  0.1496
 1021MOL0     C40787   8.380   3.275  11.863  0.0039 -0.1149  0.2455
 1021MOL0     C40788   8.424   3.415  11.928  0.0800  0.0688 -0.0607
 1021MOL0     C40789   8.465   3.169  11.814 -0.1206  0.1925 -0.0934
 1021MOL0     C40790   8.612   3.177  11.806  0.1341  0.5496  0.2944
 1021MOL0     O40791   8.672   3.248  11.892  0.0828  0.4442  0.0027
 1021MOL0     C40792   8.794   3.214  11.941 -0.2892  0.3440 -0.4586
 1021MOL0     C40793   8.875   3.313  12.005  0.2791 -0.4362 -0.0092
 1021MOL0     C40794   9.004   3.281  12.062 -0.1562  0.6336  0.3587
 1021MOL0     C40795   9.063   3.150  12.039  0.6521  1.2575 -0.2048
 1021MOL0     O40796   9.182   3.100  12.087  0.7627 -0.4879  1.0787
 1021MOL0     C40797   9.278   3.175  12.155 -0.3110  0.0405 -0.4993
 1021MOL0     C40798   9.254   3.178  12.306  0.9445 -0.5689  0.2969
 1021MOL0     C40799   9.238   3.046  12.369 -0.1901  0.3582  0.4292
 1021MOL0     C40800   9.236   3.045  12.522 -0.1305  0.4067  0.0293
 1021MOL0     C40801   9.241   2.907  12.594 -0.3993  0.0635  0.2164
 1021MOL0     C40802   9.127   2.821  12.558 -0.0587 -0.3816  0.4135
 1021MOL0     C40803   9.132   2.687  12.638  0.4819 -0.3080  0.6641
 1021MOL0     C40804   9.083   2.566  12.550  0.6005  0.0286  0.4305
 1021MOL0    Cl40805   9.086   2.419  12.642  0.0674  0.0645 -0.2127
 1021MOL0     C40806   8.989   3.057  11.961 -0.2764  0.4187  0.3253
 1021MOL0     C40807   8.859   3.092  11.914 -0.7722  0.0924  1.0433
 1021MOL0     O40808   8.666   3.123  11.702 -0.5569 -0.5084 -0.3631
 1021MOL0     C40809   8.404   3.053  11.765  0.3052 -0.6932  1.1981
 1021MOL0     C40810   8.262   3.032  11.782  0.5892 -0.5437  0.9534
 1021MOL0     N40811   7.692   3.139  11.341 -0.6184 -0.1435  0.6697
 1021MOL0     N40812   7.697   3.237  11.255  0.5740 -0.2258  1.0425
 1021MOL0     C40813   7.532   3.810  10.718  0.4044 -0.3202  0.1908
 1021MOL0     C40814   7.460   3.763  10.621 -1.1777 -0.3742  0.9827
 1021MOL0     C40815   7.129   3.662  10.363  0.5735 -0.3846 -0.4607
 1021MOL0     C40816   7.080   3.733  10.257 -1.2854  0.2510  0.0472
 1021MOL0     C40817   6.987   3.674  10.169  0.4392 -0.5278  0.0347
 1021MOL0     C40818   6.937   3.546  10.187  0.3208  0.0043  0.2168
 1021MOL0     O40819   6.848   3.497  10.094  0.2480  0.2647  0.4042
 1021MOL0     C40820   6.757   3.392  10.138  0.0276 -0.1827  0.2020
 1021MOL0     C40821   6.635   3.441  10.204 -0.8248 -0.0839  1.3112
 1021MOL0     C40822   6.552   3.533  10.117 -1.3755  0.5574 -0.6270
 1021MOL0     C40823   6.407   3.508  10.158  0.3492  0.2331 -0.6313
 1021MOL0     C40824   6.320   3.577  10.061 -0.7951  0.1009  0.3631
 1021MOL0     C40825   6.242   3.637   9.991  0.0013 -0.4636 -0.9641
 1021MOL0     C40826   6.992   3.475  10.297  0.3042 -0.1816  0.2059
 1021MOL0     C40827   7.091   3.521  10.384  0.2161 -0.8355 -0.4589
 1021MOL0     C40828   7.113   3.435  10.502 -0.3986  0.3955  0.2302
 1021MOL0     H40829   7.417   4.057  10.447 -1.3165 -0.4907  1.1562
 1021MOL0     H40830   7.565   4.127  10.635  0.9415 -0.3694  0.6420
 1021MOL0     H40831   7.759   3.862  10.884 -0.8008  1.2519 -1.9955
 1021MOL0     H40832   7.612   3.908  10.983  0.7302  0.4230  2.0102
 1021MOL0     H40833   7.836   4.094  10.943 -2.0548 -0.4933 -2.4572
 1021MOL0     H40834   7.701   4.104  11.062  0.2278  1.7408 -0.9049
 1021MOL0     H40835   7.908   3.891  11.077 -1.4153 -0.2826 -0.5259
 1021MOL0     H40836   7.938   4.051  11.146  0.1363  0.2896 -1.4751
 1021MOL0     H40837   7.813   4.032  11.318  0.9036 -0.0174  0.3827
 1021MOL0     H40838   7.678   3.957  11.226 -0.6046  0.1520  0.3211
 1021MOL0     H40839   7.760   3.815  11.411  1.3057  4.9337  0.7411
 1021MOL0     H40840   7.912   3.789  11.319  1.0339  2.8479 -0.7710
 1021MOL0     H40841   7.628   3.728  11.205  0.3883  0.8494  0.0801
 1021MOL0     H40842   7.779   3.693  11.120 -2.5130  0.5634 -1.5888
 1021MOL0     H40843   7.704   3.583  11.403  0.5393  2.5444 -0.3643
 1021MOL0     H40844   7.828   3.529  11.287  2.2459  3.8529  1.8953
 1021MOL0     H40845   7.525   3.523  11.250 -1.0682 -0.8683 -1.9275
 1021MOL0     H40846   7.648   3.467  11.129 -3.9467 -0.1068 -1.2397
 1021MOL0     H40847   7.590   3.401  11.511  1.0702 -0.4658  0.1439
 1021MOL0     H40848   7.629   3.011  11.581  2.1002 -0.5565 -0.0847
 1021MOL0     H40849   7.571   3.174  11.649 -1.2799 -0.4637 -2.3001
 1021MOL0     H40850   7.860   3.116  11.560 -0.7098 -2.0603 -1.4812
 1021MOL0     H40851   7.810   3.236  11.686 -0.0923 -2.4149  4.4679
 1021MOL0     H40852   7.763   3.028  11.842 -0.5946  0.4113 -0.8713
 1021MOL0     H40853   7.792   2.930  11.706 -3.2892 -0.1080  1.7298
 1021MOL0     H40854   7.991   2.922  11.835 -0.6894  1.7448  0.3970
 1021MOL0     H40855   8.017   2.984  11.682 -0.6832 -0.3647  0.2741
 1021MOL0     H40856   8.182   3.342  11.902 -2.1840 -1.7856  0.9769
 1021MOL0     H40857   8.470   3.478  11.851 -2.8277  0.8922 -1.2806
 1021MOL0     H40858   8.490   3.409  12.014 -0.6369 -1.8829  0.4024
 1021MOL0     H40859   8.340   3.480  11.956  1.3795  1.1806  1.4367
 1021MOL0     H40860   8.840   3.413  12.029  2.8823 -0.0513  2.6918
 1021MOL0     H40861   9.064   3.350  12.120  0.1648  0.0882  0.6890
 1021MOL0     H40862   9.370   3.122  12.130  1.9535  2.3368  2.2788
 1021MOL0     H40863   9.284   3.275  12.113  0.1063  0.4208  0.4419
 1021MOL0     H40864   9.340   3.223  12.356 -1.7931  1.0547  4.1042
 1021MOL0     H40865   9.173   3.248  12.329  0.3904 -0.7611 -0.9983
 1021MOL0     H40866   9.323   2.989  12.331 -0.8373  1.2835 -2.6603
 1021MOL0     H40867   9.148   2.989  12.347 -0.3667  0.5628  0.6109
 1021MOL0     H40868   9.168   3.121  12.562  0.6254  1.7511 -1.1331
 1021MOL0     H40869   9.335   3.089  12.539  0.3175 -0.4198 -0.3865
 1021MOL0     H40870   9.331   2.849  12.570  1.5580  1.7572  2.9034
 1021MOL0     H40871   9.246   2.920  12.702 -2.1900 -1.0777  0.4809
 1021MOL0     H40872   9.121   2.806  12.450 -1.7751  0.3410  0.3669
 1021MOL0     H40873   9.032   2.872  12.578  0.4422 -0.2816  2.7304
 1021MOL0     H40874   9.064   2.692  12.724  2.7214 -2.9229  2.7633
 1021MOL0     H40875   9.235   2.665  12.667  0.7936 -1.2096 -1.0086
 1021MOL0     H40876   9.150   2.555  12.464  0.8167  3.4890  0.0152
 1021MOL0     H40877   8.980   2.575  12.512  0.4693  0.9616  0.9943
 1021MOL0     H40878   9.034   2.963  11.930 -0.3788  0.5327 -0.1639
 1021MOL0     H40879   8.804   3.018  11.859 -3.4614  1.7033  1.3899
 1021MOL0     H40880   8.481   2.988  11.724  0.2246 -0.0940  0.0706
 1021MOL0     H40881   8.230   2.934  11.747  2.1350 -1.7504  2.7350
 1021MOL0     H40882   7.562   3.743  10.799  2.3028 -0.1865 -0.3483
 1021MOL0     H40883   7.427   3.660  10.628  0.9788 -1.0846  1.3297
 1021MOL0     H40884   7.118   3.834  10.245  2.7331 -0.7739  2.1264
 1021MOL0     H40885   6.937   3.749  10.109 -0.4677 -1.9924 -1.1237
 1021MOL0     H40886   6.721   3.354  10.042  0.8957 -0.0651 -0.1798
 1021MOL0     H40887   6.805   3.306  10.185  0.6095 -2.1264 -3.5362
 1021MOL0     H40888   6.668   3.488  10.297  0.6965 -1.0401  1.2725
 1021MOL0     H40889   6.568   3.357  10.228 -1.0286 -0.2313  0.2457
 1021MOL0     H40890   6.576   3.637  10.143 -0.2834 -0.2646  1.9431
 1021MOL0     H40891   6.578   3.508  10.014  0.0836 -0.5903 -0.0076
 1021MOL0     H40892   6.396   3.543  10.262  0.0392  0.1590 -0.6376
 1021MOL0     H40893   6.372   3.406  10.143 -0.4198  0.0712  1.7208
 1021MOL0     H40894   6.167   3.686   9.933 -0.5129  1.2301  1.0281
 1021MOL0     H40895   6.945   3.379  10.318  0.7030 -0.0084  1.9819
 1021MOL0     H40896   7.210   3.463  10.545  0.0277  2.2508 -1.7409
 1021MOL0     H40897   7.030   3.455  10.571 -0.0424  0.2368  0.7028
 1021MOL0     H40898   7.110   3.330  10.472 -5.7591  0.6261 -1.0582
 1022MOL0     O40899   7.922   5.230   4.101 -1.0330 -0.1240  0.5118
 1022MOL0     C40900   7.938   5.323   4.169 -0.3280 -0.6916  0.5790
 1022MOL0     O40901   7.842   5.415   4.202  0.1591 -0.9402 -0.5864
 1022MOL0     C40902   7.720   5.421   4.139  0.2779  0.4045 -0.6493
 1022MOL0     C40903   7.650   5.308   4.081 -0.2861 -0.5690 -0.3152
 1022MOL0     C40904   7.514   5.329   4.040  0.0205  1.0407  0.1783
 1022MOL0     C40905   7.456   5.457   4.046  0.2308 -1.0786 -0.9184
 1022MOL0     O40906   7.322   5.483   4.014  0.6687  0.3646  0.1303
 1022MOL0     C40907   7.244   5.372   3.977 -0.2836 -0.2625  0.5907
 1022MOL0     C40908   7.103   5.412   3.936  0.1268 -0.2191 -0.9773
 1022MOL0     C40909   7.033   5.497   4.050 -0.0779  0.9218  0.2006
 1022MOL0     C40910   6.879   5.507   4.030 -0.5525 -0.2912 -0.6414
 1022MOL0     C40911   6.819   5.596   4.138  0.1435 -1.6669  0.1472
 1022MOL0     C40912   6.854   5.749   4.117 -0.2552  0.1701  0.0842
 1022MOL0     C40913   6.790   5.849   4.207 -0.1469 -0.3337 -0.3804
 1022MOL0     C40914   6.804   5.994   4.167 -0.5787 -0.3708 -0.1116
 1022MOL0     N40915   6.941   6.053   4.197  0.6036 -0.2736 -0.8947
 1022MOL0     C40916   6.965   6.177   4.249 -0.6991  0.6101 -0.7771
 1022MOL0     C40917   7.102   6.189   4.256 -0.0699  0.3564  0.1328
 1022MOL0     C40918   7.183   6.287   4.314  0.6276 -0.0157  0.5540
 1022MOL0     C40919   7.196   6.409   4.223  0.6742 -0.3062  0.6369
 1022MOL0     C40920   7.292   6.525   4.263 -0.3010  1.0236  0.6147
 1022MOL0     C40921   7.306   6.640   4.155  0.3399  0.3124  0.4012
 1022MOL0     O40922   7.199   6.725   4.164 -0.1675 -0.4207 -0.3790
 1022MOL0     C40923   7.212   6.849   4.110  0.4543 -0.6248  0.3160
 1022MOL0     C40924   7.302   6.887   4.013 -0.3868  0.2231  0.9246
 1022MOL0     C40925   7.306   7.012   3.958 -0.1277 -0.5458  0.3289
 1022MOL0     C40926   7.419   7.044   3.853  0.3067  0.2118  0.7442
 1022MOL0     C40927   7.203   7.110   3.989 -0.0356 -0.4890 -0.4595
 1022MOL0     C40928   7.180   7.248   3.930 -0.7221  0.2280 -0.1039
 1022MOL0     O40929   7.054   7.286   3.949 -0.3894 -1.0208  0.1917
 1022MOL0     C40930   7.021   7.422   3.931  0.6874 -0.4401  0.1825
 1022MOL0     C40931   6.962   7.483   4.040 -0.8949 -0.8244 -0.7231
 1022MOL0     C40932   6.934   7.625   4.036  0.2897  0.1492  0.2904
 1022MOL0     C40933   6.920   7.689   3.912 -0.5790  0.1449  0.5677
 1022MOL0     O40934   6.861   7.806   3.917  0.1181 -0.5453  0.6366
 1022MOL0     C40935   6.844   7.871   3.789  0.2016 -0.1257  0.2212
 1022MOL0     C40936   6.736   7.977   3.806  0.2175 -0.0853 -0.3000
 1022MOL0     C40937   6.614   7.918   3.872  0.0094 -0.5806  0.2108
 1022MOL0     C40938   6.481   7.997   3.830  0.2764 -0.0362  0.4990
 1022MOL0     C40939   6.359   7.924   3.891 -0.5504  0.5160 -0.5618
 1022MOL0     C40940   6.218   7.998   3.859  0.0170  0.8612  0.2346
 1022MOL0     C40941   6.195   8.142   3.912 -0.3586  0.4896  0.0403
 1022MOL0     C40942   6.242   8.162   4.056 -0.4932  0.1305 -0.6035
 1022MOL0    Cl40943   6.182   8.034   4.164 -0.3973  0.3665  0.1185
 1022MOL0     C40944   6.971   7.628   3.798 -0.6150 -0.1823  0.5885
 1022MOL0     C40945   7.034   7.493   3.811  0.2780 -0.6962 -0.0722
 1022MOL0     O40946   7.271   7.317   3.876  0.3594  0.1108  0.3825
 1022MOL0     C40947   7.109   7.067   4.087 -0.0750 -0.4219 -0.3582
 1022MOL0     C40948   7.104   6.942   4.138 -0.9168  0.6521 -0.0763
 1022MOL0     N40949   7.154   6.075   4.194  0.7771  0.2855  0.6403
 1022MOL0     N40950   7.057   5.991   4.163  0.6081  0.7984  0.3648
 1022MOL0     C40951   7.535   5.564   4.085 -0.2257  0.5843 -0.6226
 1022MOL0     C40952   7.668   5.549   4.138  1.0209 -0.2873  0.6264
 1022MOL0     C40953   8.077   5.331   4.232 -0.2676  0.3574  0.1936
 1022MOL0     C40954   8.155   5.213   4.224 -0.4608 -0.3543  0.0782
 1022MOL0     C40955   8.279   5.213   4.278 -0.8376  0.8590 -0.6960
 1022MOL0     C40956   8.340   5.316   4.338  0.6139 -0.3683 -0.4949
 1022MOL0     O40957   8.463   5.288   4.387  0.1454  0.1572  0.0475
 1022MOL0     C40958   8.554   5.398   4.407 -0.0508 -0.4258 -0.6859
 1022MOL0     C40959   8.605   5.451   4.278 -0.0383  0.2963 -0.2192
 1022MOL0     C40960   8.693   5.340   4.217  0.0137 -0.0260  0.8817
 1022MOL0     C40961   8.779   5.396   4.100 -0.2018  0.2271  0.4699
 1022MOL0     C40962   8.692   5.447   3.996 -0.3139 -0.6204  0.4428
 1022MOL0     C40963   8.618   5.510   3.929  0.5268  0.2456  0.4391
 1022MOL0     C40964   8.270   5.440   4.339  0.1060  0.0834  0.3868
 1022MOL0     C40965   8.136   5.445   4.297 -0.4625  0.0769  0.0340
 1022MOL0     C40966   8.055   5.567   4.322  0.4593  0.8656  0.1332
 1022MOL0     H40967   7.685   5.206   4.067  1.4371 -0.1815  0.9039
 1022MOL0     H40968   7.460   5.237   4.017  0.9792 -0.4543  3.3086
 1022MOL0     H40969   7.245   5.302   4.061  2.4995 -1.6282 -0.4471
 1022MOL0     H40970   7.276   5.308   3.894 -0.4270 -0.2955  0.5603
 1022MOL0     H40971   7.115   5.477   3.849  2.2955  2.1534  0.9217
 1022MOL0     H40972   7.054   5.316   3.913  1.1111 -0.8029 -0.7203
 1022MOL0     H40973   7.054   5.451   4.147 -1.3489 -0.4421 -0.1387
 1022MOL0     H40974   7.098   5.585   4.061  1.6722 -0.1341 -1.2131
 1022MOL0     H40975   6.866   5.544   3.928 -0.0568  0.2448 -0.5153
 1022MOL0     H40976   6.832   5.408   4.031 -1.9700  0.2873 -2.7779
 1022MOL0     H40977   6.852   5.556   4.235  2.5316 -1.5795 -0.5615
 1022MOL0     H40978   6.712   5.577   4.128 -0.3585  1.4081 -1.8507
 1022MOL0     H40979   6.963   5.764   4.114 -0.2339  0.2295  1.0815
 1022MOL0     H40980   6.821   5.780   4.017  2.1926  2.7340 -0.0547
 1022MOL0     H40981   6.840   5.840   4.304 -0.3860  2.5981  0.1145
 1022MOL0     H40982   6.686   5.823   4.228 -0.2701 -1.0470 -1.7652
 1022MOL0     H40983   6.783   6.010   4.061  0.0946  0.4052 -0.1375
 1022MOL0     H40984   6.731   6.054   4.222 -0.3620  0.5346 -0.7867
 1022MOL0     H40985   6.886   6.232   4.300 -2.4732 -2.7881  0.4318
 1022MOL0     H40986   7.279   6.239   4.335  0.4145 -1.4917 -1.5092
 1022MOL0     H40987   7.141   6.320   4.410 -2.6848 -0.3795 -0.6366
 1022MOL0     H40988   7.208   6.371   4.121 -0.9092  0.5839  0.0745
 1022MOL0     H40989   7.094   6.449   4.234  0.4223 -1.1872  1.5870
 1022MOL0     H40990   7.269   6.564   4.362  1.7730 -1.2005  2.0713
 1022MOL0     H40991   7.390   6.478   4.273  0.1593  1.5053 -1.2596
 1022MOL0     H40992   7.396   6.700   4.172  2.0546 -2.2955  1.0005
 1022MOL0     H40993   7.310   6.597   4.054 -3.9952  1.1458 -0.3165
 1022MOL0     H40994   7.378   6.818   3.979 -0.3480  0.2901  0.8765
 1022MOL0     H40995   7.477   6.954   3.831 -1.1404 -0.3078 -1.2421
 1022MOL0     H40996   7.485   7.125   3.886 -1.3448  1.8165  0.3063
 1022MOL0     H40997   7.382   7.086   3.758 -0.4222 -0.2443  0.8188
 1022MOL0     H40998   6.947   7.425   4.130 -0.8217 -0.7523 -0.6643
 1022MOL0     H40999   6.904   7.666   4.132  0.5945 -1.0448  0.9169
 1022MOL0     H41000   6.939   7.921   3.766  0.7480  0.2821  3.0216
 1022MOL0     H41001   6.819   7.801   3.708  1.6763  0.2946 -0.6461
 1022MOL0     H41002   6.772   8.062   3.863  1.8155 -0.6931 -0.3674
 1022MOL0     H41003   6.702   8.006   3.706 -1.2243 -1.5406 -0.2837
 1022MOL0     H41004   6.629   7.913   3.980  2.0511 -1.1257 -0.0597
 1022MOL0     H41005   6.594   7.820   3.827 -2.5875 -0.2198  0.4275
 1022MOL0     H41006   6.475   7.992   3.721  3.0510  0.1930  0.2677
 1022MOL0     H41007   6.480   8.100   3.867  1.1654 -0.3467  1.4250
 1022MOL0     H41008   6.357   7.823   3.849 -0.8428  0.5705 -0.6829
 1022MOL0     H41009   6.371   7.921   4.000 -2.2555  6.0570  0.1082
 1022MOL0     H41010   6.146   7.937   3.914  1.2948  0.6467  1.7361
 1022MOL0     H41011   6.191   8.004   3.753 -2.4523  1.1132  0.8209
 1022MOL0     H41012   6.093   8.169   3.885 -0.6758 -0.0858  0.6285
 1022MOL0     H41013   6.260   8.210   3.856 -1.1400  0.0193 -1.4973
 1022MOL0     H41014   6.222   8.261   4.098  3.3504 -0.4836  3.4594
 1022MOL0     H41015   6.351   8.162   4.063 -0.5966  0.7798  2.4124
 1022MOL0     H41016   6.969   7.678   3.701 -4.8091  2.7790  1.9133
 1022MOL0     H41017   7.081   7.440   3.729  1.6446  0.0673  0.1960
 1022MOL0     H41018   7.030   7.135   4.119  0.5763 -0.7459  2.2006
 1022MOL0     H41019   7.023   6.917   4.206 -0.2396 -2.3286 -0.2500
 1022MOL0     H41020   7.493   5.664   4.080 -1.4002  0.1271 -0.1782
 1022MOL0     H41021   7.728   5.631   4.177 -0.3266  1.2755 -0.4269
 1022MOL0     H41022   8.120   5.129   4.165 -2.7106  1.1936 -0.9454
 1022MOL0     H41023   8.330   5.119   4.264 -0.4576  1.2033 -1.7719
 1022MOL0     H41024   8.507   5.478   4.465  0.2987  1.3004 -2.6795
 1022MOL0     H41025   8.637   5.360   4.468 -0.2325 -0.1582 -0.2647
 1022MOL0     H41026   8.662   5.539   4.310  1.5941 -1.8889  3.5245
 1022MOL0     H41027   8.527   5.474   4.205 -2.5122 -1.6271  1.6738
 1022MOL0     H41028   8.760   5.301   4.294  1.6822  0.8144 -0.0889
 1022MOL0     H41029   8.635   5.254   4.183 -1.2625  1.3531 -0.6150
 1022MOL0     H41030   8.851   5.321   4.068 -0.0799  0.0890  1.0527
 1022MOL0     H41031   8.829   5.489   4.129 -1.3157  1.5859 -1.6340
 1022MOL0     H41032   8.553   5.577   3.877 -0.3818 -1.5983 -0.9643
 1022MOL0     H41033   8.318   5.534   4.365  1.8603  0.2516 -2.9377
 1022MOL0     H41034   8.023   5.617   4.231 -0.8835 -1.8547 -1.0076
 1022MOL0     H41035   7.966   5.538   4.379  0.6153 -1.4591 -0.6694
 1022MOL0     H41036   8.108   5.648   4.373  2.0667 -0.1686  0.2016
 1023MOL0     O41037   7.496   4.837   3.888  0.0031 -0.1179 -0.5101
 1023MOL0     C41038   7.423   4.907   3.958  0.1816 -0.2283  0.5413
 1023MOL0     O41039   7.418   4.910   4.095  0.1672  0.7164 -0.5010
 1023MOL0     C41040   7.510   4.838   4.162 -0.3102 -0.8227 -0.3132
 1023MOL0     C41041   7.471   4.721   4.224  0.0717 -0.2198 -0.2430
 1023MOL0     C41042   7.563   4.669   4.309  0.2347  0.3704  0.1173
 1023MOL0     C41043   7.687   4.727   4.334  0.8501  0.4098  1.3060
 1023MOL0     O41044   7.759   4.689   4.442 -0.3479 -0.8297  0.1540
 1023MOL0     C41045   7.691   4.689   4.568  0.3172 -0.4699  0.0439
 1023MOL0     C41046   7.792   4.662   4.678  0.6103  0.1124 -0.6735
 1023MOL0     C41047   7.864   4.786   4.725  0.2750 -0.5477 -0.6202
 1023MOL0     C41048   7.967   4.733   4.826 -0.0289 -0.2565 -0.2893
 1023MOL0     C41049   8.083   4.820   4.869  0.6455 -1.7990  0.3518
 1023MOL0     C41050   8.042   4.943   4.948  0.8856 -0.5924 -0.6551
 1023MOL0     C41051   8.156   5.025   5.000  0.5369 -0.7995  0.3300
 1023MOL0     C41052   8.103   5.148   5.069 -0.5698 -0.1391  0.2318
 1023MOL0     N41053   8.225   5.215   5.120 -0.5977 -0.5367  0.5837
 1023MOL0     C41054   8.295   5.176   5.230 -0.8907  1.0605 -1.2538
 1023MOL0     C41055   8.413   5.239   5.227  0.0274 -0.1519 -0.6507
 1023MOL0     C41056   8.527   5.208   5.314 -1.3408  0.7847  0.0859
 1023MOL0     C41057   8.650   5.286   5.269  0.2018 -0.3596 -1.3355
 1023MOL0     C41058   8.785   5.254   5.329 -0.3999  1.2180  0.0632
 1023MOL0     C41059   8.784   5.250   5.487 -0.0590 -0.3559  0.6481
 1023MOL0     O41060   8.793   5.378   5.546  0.4094 -0.6354 -0.2054
 1023MOL0     C41061   8.917   5.435   5.556 -0.9525 -0.1174 -0.8458
 1023MOL0     C41062   8.931   5.568   5.600  0.6855 -0.6747 -0.8748
 1023MOL0     C41063   9.051   5.638   5.612  0.2209 -0.3579  0.3175
 1023MOL0     C41064   9.040   5.786   5.646 -0.7860 -0.3085 -0.8437
 1023MOL0     C41065   9.172   5.575   5.579 -0.1958  0.3446  1.1493
 1023MOL0     C41066   9.309   5.637   5.571 -0.4629  0.1417 -0.9905
 1023MOL0     O41067   9.414   5.559   5.539  0.4592 -0.0678 -0.0943
 1023MOL0     C41068   9.539   5.582   5.587 -1.4567  0.1844 -0.1086
 1023MOL0     C41069   9.582   5.506   5.698 -0.5019  0.2322 -0.1901
 1023MOL0     C41070   9.714   5.522   5.747  0.6228 -0.2206  0.5518
 1023MOL0     C41071   9.802   5.610   5.684  1.2856  0.8759 -0.3224
 1023MOL0     O41072   9.922   5.629   5.731 -0.0686 -0.0839 -0.1361
 1023MOL0     C41073   9.929   5.686   5.862  0.1685  0.3670  0.9992
 1023MOL0     C41074  10.064   5.744   5.868  0.0793  0.3772  0.0093
 1023MOL0     C41075  10.169   5.639   5.870 -0.0471 -0.5848 -0.3873
 1023MOL0     C41076  10.295   5.694   5.939  0.0679  1.1087  0.2508
 1023MOL0     C41077  10.393   5.579   5.959 -0.3476  0.2903  0.8131
 1023MOL0     C41078  10.522   5.638   6.015  0.0039 -0.5277  0.1053
 1023MOL0     C41079  10.637   5.537   6.018  0.0413  0.7483 -0.3272
 1023MOL0     C41080  10.770   5.595   6.067  0.0286  0.2756 -0.2481
 1023MOL0    Cl41081  10.893   5.475   6.079 -0.0002 -0.6229 -0.2112
 1023MOL0     C41082   9.762   5.674   5.564 -0.6490 -0.4095  0.1442
 1023MOL0     C41083   9.634   5.659   5.521  0.7730 -0.1039 -0.0297
 1023MOL0     O41084   9.319   5.744   5.628  0.9089 -0.3678  0.6552
 1023MOL0     C41085   9.162   5.437   5.547 -0.1245  0.0006 -0.5188
 1023MOL0     C41086   9.037   5.373   5.521  0.3026  0.1101  0.2688
 1023MOL0     N41087   8.400   5.340   5.129 -0.1639 -0.5787 -0.3227
 1023MOL0     N41088   8.293   5.325   5.068  1.3988 -0.4869 -0.2811
 1023MOL0     C41089   7.740   4.822   4.251 -0.4724  0.1226  0.1417
 1023MOL0     C41090   7.646   4.887   4.166 -0.0665 -0.3214 -0.3410
 1023MOL0     C41091   7.318   4.990   3.884 -0.5039  0.4428 -0.0228
 1023MOL0     C41092   7.198   5.004   3.947 -0.5085 -0.1625 -0.0711
 1023MOL0     C41093   7.086   5.045   3.872  0.2095  0.2353 -0.1081
 1023MOL0     C41094   7.096   5.088   3.739  0.0066  0.0106  0.0598
 1023MOL0     O41095   6.986   5.125   3.667  0.6850 -0.0635 -0.8437
 1023MOL0     C41096   6.858   5.120   3.728  0.1139  0.9676 -0.1020
 1023MOL0     C41097   6.750   5.188   3.652  0.5053 -0.6805  0.0359
 1023MOL0     C41098   6.706   5.097   3.529  0.1867 -1.2695  0.7735
 1023MOL0     C41099   6.573   5.144   3.482  0.9108  0.3995  0.3357
 1023MOL0     C41100   6.587   5.236   3.367 -0.1284  0.1328 -0.7467
 1023MOL0     C41101   6.599   5.303   3.267 -0.0624 -1.0226  0.3219
 1023MOL0     C41102   7.219   5.078   3.684  0.2901  0.3599  0.6789
 1023MOL0     C41103   7.337   5.030   3.754 -0.2910  0.3448  0.6094
 1023MOL0     C41104   7.481   5.024   3.690 -0.5775  0.0921  0.3709
 1023MOL0     H41105   7.370   4.685   4.212 -0.2223  0.9910 -1.6555
 1023MOL0     H41106   7.526   4.589   4.372  0.3425  0.4818  0.3233
 1023MOL0     H41107   7.611   4.616   4.583 -1.1322  0.4666 -2.4839
 1023MOL0     H41108   7.640   4.784   4.587 -0.5935 -0.2140 -3.0980
 1023MOL0     H41109   7.755   4.610   4.767  1.4128 -1.6026 -1.2961
 1023MOL0     H41110   7.860   4.584   4.641  0.2526 -1.1550  1.1650
 1023MOL0     H41111   7.908   4.833   4.637  0.6600  0.5123  0.1134
 1023MOL0     H41112   7.797   4.857   4.775 -0.8170 -3.1102  1.8516
 1023MOL0     H41113   7.908   4.701   4.913  0.1366  1.4701  0.5008
 1023MOL0     H41114   8.013   4.646   4.779 -1.6980 -0.3148 -1.9179
 1023MOL0     H41115   8.130   4.848   4.775 -2.7890  1.2440 -0.6545
 1023MOL0     H41116   8.152   4.754   4.923  2.0013 -0.5961  0.1249
 1023MOL0     H41117   7.987   5.019   4.892 -0.4406  0.2743  1.6741
 1023MOL0     H41118   7.984   4.902   5.032  0.2588 -1.6502 -1.5722
 1023MOL0     H41119   8.217   5.058   4.915  1.7728 -1.5546  0.8941
 1023MOL0     H41120   8.219   4.962   5.064  1.2051  0.5183  1.0206
 1023MOL0     H41121   8.037   5.196   4.995 -2.1752 -2.5740 -0.0291
 1023MOL0     H41122   8.039   5.121   5.153  0.3697  4.0584  2.5595
 1023MOL0     H41123   8.260   5.087   5.280 -2.2248  1.5557 -1.2710
 1023MOL0     H41124   8.537   5.103   5.288 -3.0199  1.2304 -2.7627
 1023MOL0     H41125   8.502   5.205   5.421 -3.3983 -1.5468 -0.3750
 1023MOL0     H41126   8.663   5.278   5.161  1.4157 -2.5950 -1.1078
 1023MOL0     H41127   8.622   5.389   5.291 -0.0516 -0.7070  0.0993
 1023MOL0     H41128   8.804   5.150   5.301 -1.2061 -0.1041  3.8907
 1023MOL0     H41129   8.844   5.332   5.281  0.0621  1.1015  0.4412
 1023MOL0     H41130   8.688   5.208   5.518  0.1672 -1.2391  0.1988
 1023MOL0     H41131   8.857   5.178   5.525  2.4028  1.3903 -0.5099
 1023MOL0     H41132   8.835   5.614   5.623  0.1907 -3.1647  3.1191
 1023MOL0     H41133   9.089   5.831   5.560  2.2717 -1.6501  0.0643
 1023MOL0     H41134   9.101   5.807   5.735 -2.1327  3.6002 -0.6700
 1023MOL0     H41135   8.934   5.807   5.662 -0.6581 -0.7968  0.8245
 1023MOL0     H41136   9.522   5.431   5.748  0.6402 -1.4238 -1.2362
 1023MOL0     H41137   9.751   5.472   5.836 -0.7077 -2.0734  0.1325
 1023MOL0     H41138   9.860   5.772   5.859  0.2006  0.4268 -3.0154
 1023MOL0     H41139   9.910   5.617   5.944  1.5187 -1.1678  0.0809
 1023MOL0     H41140  10.074   5.799   5.774 -3.8089  0.2140 -0.6717
 1023MOL0     H41141  10.069   5.808   5.958 -1.1385 -1.1220  1.1979
 1023MOL0     H41142  10.187   5.600   5.770  0.5663 -0.4206 -0.3420
 1023MOL0     H41143  10.136   5.555   5.933 -0.4998  1.1591  1.8455
 1023MOL0     H41144  10.269   5.728   6.040 -3.4610  1.0195 -0.4971
 1023MOL0     H41145  10.346   5.777   5.889  1.8322 -0.5846 -0.9597
 1023MOL0     H41146  10.359   5.504   6.030  1.4546 -1.2120  0.1715
 1023MOL0     H41147  10.400   5.529   5.862  0.2767  0.6169  0.6789
 1023MOL0     H41148  10.504   5.668   6.119 -0.8664 -1.2828  0.1785
 1023MOL0     H41149  10.541   5.720   5.945 -3.0495 -0.3819 -0.6957
 1023MOL0     H41150  10.645   5.494   5.918  0.6126  0.8026 -0.3077
 1023MOL0     H41151  10.620   5.463   6.097  0.0535  0.3751 -0.6670
 1023MOL0     H41152  10.763   5.634   6.169  1.1664  0.6187 -0.2849
 1023MOL0     H41153  10.793   5.682   6.004 -2.7807  1.4373  0.1482
 1023MOL0     H41154   9.831   5.733   5.504 -0.3304  0.8487  1.6632
 1023MOL0     H41155   9.608   5.712   5.430 -0.0890 -2.7275 -1.3997
 1023MOL0     H41156   9.255   5.381   5.537  0.9706  1.1995  1.9825
 1023MOL0     H41157   9.040   5.270   5.485  0.4531  0.6510 -1.3339
 1023MOL0     H41158   7.838   4.867   4.258 -0.2269  0.0577 -1.9694
 1023MOL0     H41159   7.680   4.976   4.114 -2.0825 -0.9673 -2.9439
 1023MOL0     H41160   7.184   4.967   4.048 -1.7822 -0.6561 -0.4090
 1023MOL0     H41161   6.989   5.047   3.920  0.2996 -0.4044  0.1043
 1023MOL0     H41162   6.850   5.013   3.749  2.7084  0.8981  1.0148
 1023MOL0     H41163   6.863   5.177   3.821 -0.5293  2.7364 -1.1068
 1023MOL0     H41164   6.784   5.283   3.610 -2.1171 -0.4072 -1.7102
 1023MOL0     H41165   6.662   5.213   3.713  1.3488 -0.3091  1.1250
 1023MOL0     H41166   6.783   5.101   3.452  0.2386 -0.6426  0.8478
 1023MOL0     H41167   6.698   4.995   3.569  2.0573 -0.1211  4.5450
 1023MOL0     H41168   6.508   5.193   3.556 -2.2267  1.4821 -2.8732
 1023MOL0     H41169   6.518   5.059   3.441  1.1344  0.0860  0.6758
 1023MOL0     H41170   6.596   5.375   3.188 -2.2418  2.5671  3.3113
 1023MOL0     H41171   7.222   5.098   3.577  0.7110 -1.6556  0.2699
 1023MOL0     H41172   7.493   4.923   3.650  0.7975 -0.2984  1.6717
 1023MOL0     H41173   7.485   5.110   3.623 -2.0762  0.7123  1.0346
 1023MOL0     H41174   7.561   5.043   3.763  0.1762 -3.3051  0.5960
 1024MOL0     O41175   9.998   4.061   9.936  0.6309 -0.0491  0.0417
 1024MOL0     C41176   9.969   4.098  10.051  0.1222  0.5242  0.6414
 1024MOL0     O41177  10.052   4.086  10.162  0.3271 -0.5749  0.3884
 1024MOL0     C41178  10.165   4.002  10.149 -0.5870  0.2355 -0.1878
 1024MOL0     C41179  10.263   4.014  10.052 -0.3297  0.6770  1.1781
 1024MOL0     C41180  10.377   3.926  10.062  0.2261  0.4388  0.4805
 1024MOL0     C41181  10.397   3.825  10.167  0.0069 -0.3835  0.4551
 1024MOL0     O41182  10.514   3.763  10.166  0.1034 -0.0315  0.2230
 1024MOL0     C41183  10.536   3.660  10.259  0.8856  0.4331  0.6385
 1024MOL0     C41184  10.649   3.583  10.191 -0.0472 -0.3054 -0.5229
 1024MOL0     C41185  10.694   3.456  10.260  0.3698  0.2380  0.6796
 1024MOL0     C41186  10.742   3.486  10.402  0.5516  0.0711 -0.5352
 1024MOL0     C41187  10.843   3.383  10.448  0.5646 -0.7894 -0.3480
 1024MOL0     C41188  10.878   3.385  10.593 -0.6225 -1.0408  0.0675
 1024MOL0     C41189  10.968   3.272  10.648  0.8787 -0.2806  0.6029
 1024MOL0     C41190  11.000   3.277  10.798 -0.1008 -0.3757  0.1361
 1024MOL0     N41191  11.113   3.198  10.841 -0.1353 -0.1085 -0.7928
 1024MOL0     C41192  11.222   3.254  10.903 -0.2841 -0.2965  0.6240
 1024MOL0     C41193  11.282   3.151  10.972 -1.1219 -0.6683  0.7051
 1024MOL0     C41194  11.406   3.156  11.054 -0.0455  0.0988  0.3138
 1024MOL0     C41195  11.370   3.104  11.192 -0.5972 -0.4682 -0.5503
 1024MOL0     C41196  11.387   2.960  11.222  0.1533  0.6871  0.0372
 1024MOL0     C41197  11.334   2.924  11.360  0.0534  1.3224 -0.3608
 1024MOL0     O41198  11.193   2.927  11.356 -0.0369  0.3212  0.7324
 1024MOL0     C41199  11.118   2.862  11.451 -0.3794 -0.1642  0.6516
 1024MOL0     C41200  10.979   2.858  11.429 -0.3760  0.0995  0.3822
 1024MOL0     C41201  10.887   2.817  11.525  0.7915 -0.0380 -1.0737
 1024MOL0     C41202  10.744   2.829  11.479  0.6051  0.4108 -0.3089
 1024MOL0     C41203  10.938   2.786  11.654  0.2722 -0.4709  0.0388
 1024MOL0     C41204  10.853   2.739  11.762  0.2628 -0.0636  0.4004
 1024MOL0     O41205  10.904   2.755  11.887 -0.2039  0.1457 -0.2165
 1024MOL0     C41206  10.821   2.756  11.989 -0.6087 -0.1895 -0.2804
 1024MOL0     C41207  10.844   2.649  12.075  0.4939 -0.0468  0.2976
 1024MOL0     C41208  10.751   2.631  12.181  0.2184  0.4897  0.1468
 1024MOL0     C41209  10.636   2.712  12.189 -0.5862 -0.2721  0.4076
 1024MOL0     O41210  10.548   2.695  12.293  0.6132  0.4897 -0.2459
 1024MOL0     C41211  10.411   2.722  12.271 -0.1329  0.1157  0.0168
 1024MOL0     C41212  10.343   2.646  12.380  0.4040  0.1873 -0.3183
 1024MOL0     C41213  10.339   2.491  12.364 -0.4680 -0.5731 -0.1760
 1024MOL0     C41214  10.230   2.424  12.447 -0.7704  0.2075  0.0593
 1024MOL0     C41215  10.238   2.273  12.417  0.3661 -0.2251  0.6813
 1024MOL0     C41216  10.105   2.199  12.468 -1.0586 -0.3557  0.6344
 1024MOL0     C41217  10.138   2.049  12.484  0.4932  0.4220  0.2533
 1024MOL0     C41218  10.013   1.956  12.507  0.5279 -0.5488 -0.6024
 1024MOL0    Cl41219   9.922   1.973  12.354  0.0533  0.3557 -0.3748
 1024MOL0     C41220  10.625   2.825  12.103  0.2509  0.2276  0.1111
 1024MOL0     C41221  10.721   2.844  12.004 -0.4353  0.9411  0.3681
 1024MOL0     O41222  10.741   2.702  11.738  0.0069 -0.4037 -1.2962
 1024MOL0     C41223  11.070   2.799  11.682  0.3849  0.3250 -0.2219
 1024MOL0     C41224  11.160   2.828  11.579 -0.4350  0.4547 -1.2384
 1024MOL0     N41225  11.220   3.029  10.946  0.1229 -0.5292 -0.0313
 1024MOL0     N41226  11.116   3.067  10.871 -0.3683  0.8940 -0.5617
 1024MOL0     C41227  10.298   3.828  10.267 -0.7693 -0.1091  0.2110
 1024MOL0     C41228  10.190   3.921  10.258  0.1210  0.7050 -0.1683
 1024MOL0     C41229   9.827   4.140  10.066 -0.2559  0.3039  0.3331
 1024MOL0     C41230   9.778   4.152  10.197 -0.0496 -0.3334  0.3171
 1024MOL0     C41231   9.643   4.165  10.231  0.7948 -0.4430 -0.1822
 1024MOL0     C41232   9.546   4.181  10.122 -0.7375  0.4395 -0.2928
 1024MOL0     O41233   9.416   4.201  10.148 -0.6349  0.8812 -0.5645
 1024MOL0     C41234   9.298   4.187  10.058 -0.5592  0.2158  0.6232
 1024MOL0     C41235   9.170   4.136  10.118  1.1962  0.2957  0.3606
 1024MOL0     C41236   9.151   4.172  10.260  0.2043  0.5054  0.0067
 1024MOL0     C41237   9.016   4.155  10.318  0.3576 -0.8642 -0.3219
 1024MOL0     C41238   8.914   4.248  10.263  0.2051 -0.4018 -0.3761
 1024MOL0     C41239   8.828   4.310  10.201 -0.2412 -0.0930  0.0132
 1024MOL0     C41240   9.589   4.174   9.989  0.0294 -0.5044  0.6292
 1024MOL0     C41241   9.724   4.144   9.964  0.5379  0.1250  0.5123
 1024MOL0     C41242   9.756   4.113   9.814  0.0212  0.0927 -0.1238
 1024MOL0     H41243  10.252   4.074   9.963 -0.1119 -0.3079  0.4717
 1024MOL0     H41244  10.448   3.926   9.980  2.2921 -1.2797  2.1509
 1024MOL0     H41245  10.445   3.600  10.271  2.1146 -2.0269 -1.4043
 1024MOL0     H41246  10.569   3.690  10.359  0.5635 -0.7413  1.1204
 1024MOL0     H41247  10.611   3.559  10.090 -0.3463  0.4413 -0.5935
 1024MOL0     H41248  10.738   3.644  10.177  0.7511 -1.7551 -2.2624
 1024MOL0     H41249  10.613   3.382  10.260 -0.6581  1.3160  1.7287
 1024MOL0     H41250  10.777   3.412  10.205 -0.7550 -1.7854  0.5036
 1024MOL0     H41251  10.802   3.577  10.391  1.5133 -0.7645 -2.6650
 1024MOL0     H41252  10.657   3.496  10.471  0.8108  0.8085 -0.3147
 1024MOL0     H41253  10.936   3.392  10.391  2.4021 -0.2884  2.4845
 1024MOL0     H41254  10.814   3.280  10.428  0.8857 -1.1851  1.1110
 1024MOL0     H41255  10.937   3.475  10.614 -0.1571 -1.1385 -0.8007
 1024MOL0     H41256  10.785   3.396  10.649 -0.5818  1.6547 -0.2554
 1024MOL0     H41257  11.063   3.273  10.594  0.5865  3.5797 -0.1527
 1024MOL0     H41258  10.920   3.176  10.623 -1.2298  0.7879  0.3234
 1024MOL0     H41259  11.027   3.379  10.824  1.4044 -0.3989 -1.1808
 1024MOL0     H41260  10.908   3.249  10.850 -0.4797 -1.8312 -1.2376
 1024MOL0     H41261  11.252   3.359  10.906  1.8748 -0.8503 -0.0367
 1024MOL0     H41262  11.457   3.253  11.058 -0.5670  0.4116 -0.3700
 1024MOL0     H41263  11.478   3.085  11.013 -0.4718 -0.5434  0.6673
 1024MOL0     H41264  11.442   3.157  11.255  0.0649 -0.5792 -1.1977
 1024MOL0     H41265  11.267   3.132  11.214 -0.6763  0.3005 -1.8408
 1024MOL0     H41266  11.333   2.898  11.150 -3.5037  2.8823  0.6261
 1024MOL0     H41267  11.494   2.942  11.228  0.4135  1.5202 -1.6986
 1024MOL0     H41268  11.367   2.823  11.388 -4.5470  0.2561  2.2647
 1024MOL0     H41269  11.371   2.987  11.441 -3.4071 -2.5349  4.9230
 1024MOL0     H41270  10.947   2.878  11.327 -1.7833 -1.3328  0.4968
 1024MOL0     H41271  10.698   2.730  11.477 -1.4105  1.3125 -0.0884
 1024MOL0     H41272  10.725   2.864  11.377 -3.3107 -1.6568 -0.4660
 1024MOL0     H41273  10.686   2.893  11.545 -0.3881 -0.1273 -0.6393
 1024MOL0     H41274  10.932   2.585  12.074  0.3230 -0.2865  0.3328
 1024MOL0     H41275  10.767   2.561  12.262  0.0262  1.7304  1.2911
 1024MOL0     H41276  10.387   2.829  12.281 -0.4124 -0.1178  2.4428
 1024MOL0     H41277  10.380   2.691  12.171  1.2733  2.2242 -1.1660
 1024MOL0     H41278  10.385   2.674  12.477 -1.7060  1.2988  0.3164
 1024MOL0     H41279  10.239   2.678  12.385  0.5152  0.5069  0.0272
 1024MOL0     H41280  10.440   2.451  12.381 -0.0131  0.9440  0.9648
 1024MOL0     H41281  10.313   2.474  12.260  0.1590 -5.2744  0.2371
 1024MOL0     H41282  10.138   2.475  12.418  1.3701  3.4827 -1.6068
 1024MOL0     H41283  10.244   2.446  12.553 -2.5590 -2.0982  0.8671
 1024MOL0     H41284  10.258   2.268  12.310  3.6854  1.2267  1.1267
 1024MOL0     H41285  10.317   2.233  12.481 -2.5671 -3.8306  2.4396
 1024MOL0     H41286  10.023   2.220  12.399  0.8941  2.6585 -1.0300
 1024MOL0     H41287  10.070   2.243  12.562 -0.1276 -0.1491  0.8954
 1024MOL0     H41288  10.214   2.039  12.562  2.8664  1.5849 -1.7786
 1024MOL0     H41289  10.184   2.026  12.387  0.3557 -0.6565  0.4303
 1024MOL0     H41290   9.955   1.998  12.590  1.3996  1.3555 -0.9126
 1024MOL0     H41291  10.038   1.851  12.520  1.1013 -0.3734 -0.2342
 1024MOL0     H41292  10.562   2.913  12.117  0.3307  0.1935  0.7263
 1024MOL0     H41293  10.726   2.931  11.940  0.6656  0.7603  0.1920
 1024MOL0     H41294  11.102   2.789  11.785  2.0465 -1.1642 -0.8311
 1024MOL0     H41295  11.262   2.842  11.612 -1.1019  1.8605  0.3900
 1024MOL0     H41296  10.309   3.763  10.353 -2.0563 -0.5992  0.0381
 1024MOL0     H41297  10.112   3.917  10.333 -1.6737 -0.8280 -2.0010
 1024MOL0     H41298   9.844   4.138  10.282 -0.1276 -3.2466 -0.0053
 1024MOL0     H41299   9.601   4.161  10.331  0.0634  1.5180 -0.3693
 1024MOL0     H41300   9.287   4.282  10.005 -1.1312  1.4704  2.8722
 1024MOL0     H41301   9.328   4.114   9.982 -1.3447 -0.4014  0.8998
 1024MOL0     H41302   9.162   4.027  10.110 -2.0672  0.2558  2.2682
 1024MOL0     H41303   9.094   4.187  10.057  1.3355  0.3662  0.2465
 1024MOL0     H41304   9.222   4.105  10.310 -0.1823 -0.5292 -0.7747
 1024MOL0     H41305   9.185   4.274  10.277  0.5769  0.3082  0.4793
 1024MOL0     H41306   9.030   4.156  10.427  1.2921 -2.1914 -0.4045
 1024MOL0     H41307   8.987   4.051  10.302 -1.2331 -0.5290  0.2095
 1024MOL0     H41308   8.755   4.365  10.144 -0.7830 -0.9205 -0.1018
 1024MOL0     H41309   9.520   4.191   9.906  0.9107  2.6169  0.4037
 1024MOL0     H41310   9.781   4.007   9.813  2.6113  0.6093 -2.2039
 1024MOL0     H41311   9.665   4.116   9.752  0.0628 -1.8813 -0.3355
 1024MOL0     H41312   9.844   4.163   9.774  0.5169  0.8491  1.8006
  11.45680  11.45680  11.45680
